          AutoDock 4.2 Release 4.2.6   
         (C) 1989-2012 The Scripps Research Institute
        AutoDock comes with ABSOLUTELY NO WARRANTY.
        AutoDock is free software, and you are welcome
        to redistribute it under certain conditions;
        for details type 'autodock4 -C'

                     main.cc  $Revision: 1.213 $

                   Compiled on Jul 18 2014 at 15:34:58


This file was created at:			11:57 09" a.m., 10/05/2025
                   on host:		"ACER"
Current Working Directory = "D:\Protein_go_brrr\autodock\final\mut_Y35F\heme_Fe"

      ________________________________________________________________

                   SETTING UP DEFAULT PARAMETER LIBRARY
      ________________________________________________________________


Random number generator was seeded with values 161864, 1759658229.
Docking parameter file (DPF) used for this docking:		D:/Protein_go_brrr/autodock/final/mut_Y35F/heme_Fe/dock.dpf
DPF> autodock_parameter_version 4.2       # used by autodock to validate parameter set

	Autodock parameter version 4.2.
DPF> outlev 1                             # diagnostic output level

Output Level = 1  ADT-COMPATIBLE OUTPUT DURING DOCKING.
DPF> intelec                              # calculate internal electrostatics

Electrostatic energies will be calculated for all non-bonds between moving atoms.
DPF> seed pid time                        # seeds for random generator

Random number generator was seeded with values 161864, 1759658229.
DPF> ligand_types A C OA N Fe HD          # atoms types in ligand

DPF> fld mut_Y35F_m0.maps.fld             # grid_data_file

Opening Grid Map Dimensions file:		mut_Y35F_m0.maps.fld
Grid Point Spacing =				0.447 Angstroms

Even Number of User-specified Grid Points =	126 x-points
						126 y-points
						126 z-points

Coordinates of Central Grid Point of Maps =	(0.620, 0.306, 0.503)
Macromolecule file used to create Grid Maps =	mut_Y35F_m0.pdbqt
Grid Parameter file used to create Grid Maps =	D:/Protein_go_brrr/autodock/final/mut_Y35F/heme_Fe/grid.gpf
Minimum coordinates in grid = (-27.541, -27.855, -27.658)
Maximum coordinates in grid = (28.781, 28.467, 28.664)

DPF> map mut_Y35F_m0.A.map                # atom-specific affinity map

DPF> map mut_Y35F_m0.C.map                # atom-specific affinity map

DPF> map mut_Y35F_m0.OA.map               # atom-specific affinity map

DPF> map mut_Y35F_m0.N.map                # atom-specific affinity map

DPF> map mut_Y35F_m0.Fe.map               # atom-specific affinity map

DPF> map mut_Y35F_m0.HD.map               # atom-specific affinity map

DPF> elecmap mut_Y35F_m0.e.map            # electrostatics map

DPF> desolvmap mut_Y35F_m0.d.map          # desolvation map

DPF> move heme_Fe_opt.pdbqt               # small molecule

1,4-interactions will be _ignored_ in the non-bonded internal energy calculation.

Ligand PDBQT file = "heme_Fe_opt.pdbqt"

INPUT LIGAND PDBQT FILE:
________________________

INPUT-LIGAND-PDBQT: REMARK  10 active torsions:
INPUT-LIGAND-PDBQT: REMARK  status: ('A' for Active; 'I' for Inactive)
INPUT-LIGAND-PDBQT: REMARK    1  A    between atoms: C_6  and  C_10 
INPUT-LIGAND-PDBQT: REMARK    2  A    between atoms: C_10  and  C_11 
INPUT-LIGAND-PDBQT: REMARK    3  A    between atoms: C_11  and  C_12 
INPUT-LIGAND-PDBQT: REMARK    4  A    between atoms: C_12  and  O_14 
INPUT-LIGAND-PDBQT: REMARK    5  A    between atoms: C_17  and  C_20 
INPUT-LIGAND-PDBQT: REMARK    6  A    between atoms: C_24  and  C_27 
INPUT-LIGAND-PDBQT: REMARK    7  A    between atoms: C_31  and  C_34 
INPUT-LIGAND-PDBQT: REMARK    8  A    between atoms: C_34  and  C_35 
INPUT-LIGAND-PDBQT: REMARK    9  A    between atoms: C_35  and  C_36 
INPUT-LIGAND-PDBQT: REMARK   10  A    between atoms: C_36  and  O_38 
INPUT-LIGAND-PDBQT: ROOT
INPUT-LIGAND-PDBQT: ATOM      1  C   UNL d   1      -2.155  -0.060   0.485  0.00  0.00     0.064 C 
INPUT-LIGAND-PDBQT: ATOM      2  C   UNL d   1       1.497  -3.385   0.291  0.00  0.00     0.064 A 
INPUT-LIGAND-PDBQT: ATOM      3  C   UNL d   1       4.660   0.212  -0.062  0.00  0.00     0.064 C 
INPUT-LIGAND-PDBQT: ATOM      4  C   UNL d   1       1.133   3.443   0.018  0.00  0.00     0.064 C 
INPUT-LIGAND-PDBQT: ATOM      5  C   UNL d   1      -1.427  -1.332   0.379  0.00  0.00     0.066 A 
INPUT-LIGAND-PDBQT: ATOM      6  C   UNL d   1      -2.022  -2.582   0.331  0.00  0.00    -0.021 A 
INPUT-LIGAND-PDBQT: ATOM      7  C   UNL d   1      -1.007  -3.505   0.281  0.00  0.00    -0.025 A 
INPUT-LIGAND-PDBQT: ATOM      8  C   UNL d   1       0.170  -2.782   0.300  0.00  0.00     0.066 A 
INPUT-LIGAND-PDBQT: ATOM      9  C   UNL d   1      -1.169  -4.992   0.200  0.00  0.00     0.051 C 
INPUT-LIGAND-PDBQT: ATOM     10  C   UNL d   1       2.647  -2.710   0.251  0.00  0.00     0.066 A 
INPUT-LIGAND-PDBQT: ATOM     11  C   UNL d   1       3.903  -3.312   0.359  0.00  0.00    -0.021 A 
INPUT-LIGAND-PDBQT: ATOM     12  C   UNL d   1       4.832  -2.294   0.277  0.00  0.00     0.000 A 
INPUT-LIGAND-PDBQT: ATOM     13  C   UNL d   1       4.087  -1.111   0.130  0.00  0.00     0.070 A 
INPUT-LIGAND-PDBQT: ATOM     14  C   UNL d   1       4.202  -4.778   0.598  0.00  0.00     0.052 C 
INPUT-LIGAND-PDBQT: ATOM     15  C   UNL d   1       3.948   1.360  -0.152  0.00  0.00     0.066 A 
INPUT-LIGAND-PDBQT: ATOM     16  C   UNL d   1       4.526   2.591  -0.435  0.00  0.00    -0.021 A 
INPUT-LIGAND-PDBQT: ATOM     17  C   UNL d   1       3.511   3.525  -0.409  0.00  0.00     0.000 A 
INPUT-LIGAND-PDBQT: ATOM     18  C   UNL d   1       2.336   2.841  -0.106  0.00  0.00     0.070 A 
INPUT-LIGAND-PDBQT: ATOM     19  C   UNL d   1       5.979   2.885  -0.695  0.00  0.00     0.052 C 
INPUT-LIGAND-PDBQT: ATOM     20  C   UNL d   1      -0.134   2.748   0.275  0.00  0.00     0.066 A 
INPUT-LIGAND-PDBQT: ATOM     21  C   UNL d   1      -1.347   3.370   0.603  0.00  0.00    -0.025 A 
INPUT-LIGAND-PDBQT: ATOM     22  C   UNL d   1      -2.273   2.354   0.719  0.00  0.00    -0.021 A 
INPUT-LIGAND-PDBQT: ATOM     23  C   UNL d   1      -1.591   1.158   0.465  0.00  0.00     0.066 A 
INPUT-LIGAND-PDBQT: ATOM     24  C   UNL d   1      -1.629   4.841   0.803  0.00  0.00     0.051 C 
INPUT-LIGAND-PDBQT: ATOM     25  N   UNL d   1      -0.089  -1.460   0.350  0.00  0.00    -0.248 N 
INPUT-LIGAND-PDBQT: ATOM     26  N   UNL d   1       2.755  -1.363   0.123  0.00  0.00    -0.248 N 
INPUT-LIGAND-PDBQT: ATOM     27  N   UNL d   1       2.596   1.504   0.009  0.00  0.00    -0.248 N 
INPUT-LIGAND-PDBQT: ATOM     28  N   UNL d   1      -0.277   1.401   0.239  0.00  0.00    -0.248 N 
INPUT-LIGAND-PDBQT: ATOM     29 FE   UNL d   1       1.239   0.021   0.181  0.00  0.00     0.000 Fe
INPUT-LIGAND-PDBQT: ENDROOT
INPUT-LIGAND-PDBQT: BRANCH   6  30
INPUT-LIGAND-PDBQT: ATOM     30  C   UNL d   1      -3.481  -2.886   0.312  0.00  0.00     0.052 C 
INPUT-LIGAND-PDBQT: BRANCH  30  31
INPUT-LIGAND-PDBQT: ATOM     31  C   UNL d   1      -4.006  -2.926  -1.119  0.00  0.00     0.115 C 
INPUT-LIGAND-PDBQT: BRANCH  31  32
INPUT-LIGAND-PDBQT: ATOM     32  C   UNL d   1      -5.478  -3.232  -1.131  0.00  0.00     0.139 C 
INPUT-LIGAND-PDBQT: ATOM     33  O   UNL d   1      -6.086  -3.411  -0.085  0.00  0.00    -0.650 OA
INPUT-LIGAND-PDBQT: BRANCH  32  34
INPUT-LIGAND-PDBQT: ATOM     34  O   UNL d   1      -6.141  -3.312  -2.297  0.00  0.00    -0.776 OA
INPUT-LIGAND-PDBQT: ATOM     35  H   UNL d   1      -7.088  -3.510  -2.286  0.00  0.00     0.167 HD
INPUT-LIGAND-PDBQT: ENDBRANCH  32  34
INPUT-LIGAND-PDBQT: ENDBRANCH  31  32
INPUT-LIGAND-PDBQT: ENDBRANCH  30  31
INPUT-LIGAND-PDBQT: ENDBRANCH   6  30
INPUT-LIGAND-PDBQT: BRANCH  22  36
INPUT-LIGAND-PDBQT: ATOM     36  C   UNL d   1      -3.720   2.522   1.101  0.00  0.00     0.052 C 
INPUT-LIGAND-PDBQT: BRANCH  36  37
INPUT-LIGAND-PDBQT: ATOM     37  C   UNL d   1      -4.581   2.559  -0.153  0.00  0.00     0.115 C 
INPUT-LIGAND-PDBQT: BRANCH  37  38
INPUT-LIGAND-PDBQT: ATOM     38  C   UNL d   1      -6.035   2.706   0.196  0.00  0.00     0.139 C 
INPUT-LIGAND-PDBQT: ATOM     39  O   UNL d   1      -6.394   2.778   1.362  0.00  0.00    -0.650 OA
INPUT-LIGAND-PDBQT: BRANCH  38  40
INPUT-LIGAND-PDBQT: ATOM     40  O   UNL d   1      -6.958   2.756  -0.781  0.00  0.00    -0.776 OA
INPUT-LIGAND-PDBQT: ATOM     41  H   UNL d   1      -7.891   2.847  -0.542  0.00  0.00     0.167 HD
INPUT-LIGAND-PDBQT: ENDBRANCH  38  40
INPUT-LIGAND-PDBQT: ENDBRANCH  37  38
INPUT-LIGAND-PDBQT: ENDBRANCH  36  37
INPUT-LIGAND-PDBQT: ENDBRANCH  22  36
INPUT-LIGAND-PDBQT: BRANCH  12  42
INPUT-LIGAND-PDBQT: ATOM     42  C   UNL d   1       6.314  -2.479   0.357  0.00  0.00     0.004 C 
INPUT-LIGAND-PDBQT: ATOM     43  C   UNL d   1       6.931  -3.422  -0.367  0.00  0.00     0.012 C 
INPUT-LIGAND-PDBQT: ENDBRANCH  12  42
INPUT-LIGAND-PDBQT: BRANCH  17  44
INPUT-LIGAND-PDBQT: ATOM     44  C   UNL d   1       3.653   4.974  -0.677  0.00  0.00     0.004 C 
INPUT-LIGAND-PDBQT: ATOM     45  C   UNL d   1       4.222   5.409  -1.806  0.00  0.00     0.012 C 
INPUT-LIGAND-PDBQT: ENDBRANCH  17  44
INPUT-LIGAND-PDBQT: TORSDOF 10
________________________________________________________________________________

Total charge on ligand                               =	-2.002 e
REMARK  10 active torsions:
REMARK  status: ('A' for Active; 'I' for Inactive)
REMARK    1  A    between atoms: C_6  and  C_10 
REMARK    2  A    between atoms: C_10  and  C_11 
REMARK    3  A    between atoms: C_11  and  C_12 
REMARK    4  A    between atoms: C_12  and  O_14 
REMARK    5  A    between atoms: C_17  and  C_20 
REMARK    6  A    between atoms: C_24  and  C_27 
REMARK    7  A    between atoms: C_31  and  C_34 
REMARK    8  A    between atoms: C_34  and  C_35 
REMARK    9  A    between atoms: C_35  and  C_36 
REMARK   10  A    between atoms: C_36  and  O_38 


Number of Rotatable Bonds in Small Molecule =	10 torsions
Number of atoms in ligand:  45

Number of non-hydrogen atoms in ligand:  43

Number of vibrational degrees of freedom of ligand:  129


Number of torsional degrees of freedom = 10
Estimated loss of torsional free energy upon binding = +2.9830 kcal/mol


DPF> about -0.174 -0.001 -0.047            # small molecule center

Small molecule center of rotation =	(-0.174, -0.001, -0.047)

DPF> tran0 random                         # initial coordinates/A or random

Initial translation =			(17.259, 21.109, -25.122) Angstroms
DPF> quaternion0 random                   # initial orientation

Each run will begin with a new, random initial orientation.
Initial quaternion,  (x,y,z,w) =	( 0.399, 0.383, -0.112, 0.825 ),
DPF> dihe0 random                         # initial dihedrals (relative) or random

DPF> torsdof 10                            # torsional degrees of freedom

Number of torsional degrees of freedom = 10
Free energy coefficient for torsional degrees of freedom = 0.2983, the factory default value.

Estimated loss of torsional free energy upon binding = +2.9830 kcal/mol

DPF> rmstol 2.0                           # cluster_tolerance/A

Maximum RMS tolerance for conformational cluster analysis = 2.00 Angstroms
DPF> extnrg 1000.0                        # external grid energy

External grid energy (beyond grid map walls) = 1000.00

DPF> e0max 0.0 10000                      # max initial energy; max number of retries

Using user-specified maximum number of retries for simanneal initialization, 10000 retries.
If the simanneal initial energy is greater than e0max, 0.000,
then a new, random initial state will be created.

DPF> ga_pop_size 150                      # number of individuals in population

A population of 150 individuals will be used
DPF> ga_num_evals 25000000                # maximum number of energy evaluations

There will be at most 25000000 function evaluations used.
DPF> ga_num_generations 27000             # maximum number of generations

The GA will run for at most 27000 generations.
DPF> ga_elitism 1                         # number of top individuals to survive to next generation

The 1 best will be preserved each GA generation.
DPF> ga_mutation_rate 0.02                # rate of gene mutation

The mutation rate is 0.020000.
DPF> ga_crossover_rate 0.8                # rate of crossover

The crossover rate is 0.800000.
DPF> ga_window_size 10                    # 

The GA's selection window is 10 generations.
DPF> ga_cauchy_alpha 0.0                  # Alpha parameter of Cauchy distribution

The alpha parameter (for the Cauchy distribution) is being set to 0.000000.
DPF> ga_cauchy_beta 1.0                   # Beta parameter Cauchy distribution

The beta parameter (for the Cauchy distribution) is being set to 1.000000.
DPF> set_ga                               # set the above parameters for GA or LGA

DPF> sw_max_its 300                       # iterations of Solis & Wets local search

Solis & Wets algorithms will perform at most 300 iterations.
DPF> sw_max_succ 4                        # consecutive successes before changing rho

Solis & Wets algorithms expand rho every 4 in a row successes.
DPF> sw_max_fail 4                        # consecutive failures before changing rho

Solis & Wets algorithms contract rho every 4 in a row failures.
DPF> sw_rho 1.0                           # size of local search space to sample

rho is set to 1.000000.
DPF> sw_lb_rho 0.01                       # lower bound on rho

rho will never get smaller than 0.010000.
DPF> ls_search_freq 0.06                  # probability of performing local search on individual

Local search will be performed with frequency 0.060000.
DPF> set_psw1                             # set the above pseudo-Solis & Wets parameters

Creating a new Local Search object using the pseudo-Solis-Wets algorithm (pSW1) with the current settings.

DPF> unbound_model bound                  # state of unbound ligand

DPF> ga_run 100                           # do this many hybrid GA-LS runs

centering ligand on specified point: -0.174 -0.001 -0.047
Furthest true ligand atom from "about" center is 8.241 Angstroms (maxrad).
Number of requested GA dockings = 100 runs
Unbound model to be used is 'same as bound' [AutoDock 4.2 default].

	BEGINNING GENETIC ALGORITHM DOCKING 1 of 100
Run: 1 Seed: 1987134369 2082752153 [ Run 1 of 100 GA/GALS ]
Beginning LAMARCKIAN GENETIC ALGORITHM (LGA), with a maximum of 25000000 energy evaluations.

Final-Value: -11.722


	FINAL GENETIC ALGORITHM DOCKED STATE
	_______________________________________________


Detailed state:  trans 11.885 7.146 9.459 quatxyzw -0.207859 0.621783 0.038005 -0.754146 center -0.174 -0.001 -0.047 ntor 10 154.0025 135.5385 -124.6522 3.8084 80.8263 167.0359 -155.2292 35.9202 -21.3391 2.2198
State:	 11.885   7.146   9.459  -0.317  0.947  0.058 -82.098    154.00  135.54 -124.65    3.81   80.83  167.04 -155.23   35.92  -21.34    2.22

DOCKED: MODEL        1
DOCKED: USER    Run = 1
DOCKED: USER    DPF = D:/Protein_go_brrr/autodock/final/mut_Y35F/heme_Fe/dock.dpf
DOCKED: USER  
DOCKED: USER    Estimated Free Energy of Binding    =   -8.14 kcal/mol  [=(1)+(2)+(3)-(4)]
DOCKED: USER    Estimated Inhibition Constant, Ki   =    1.07 uM (micromolar)  [Temperature = 298.15 K]
DOCKED: USER    
DOCKED: USER    (1) Final Intermolecular Energy     =  -11.13 kcal/mol
DOCKED: USER        vdW + Hbond + desolv Energy     =   -7.29 kcal/mol
DOCKED: USER        Electrostatic Energy            =   -3.83 kcal/mol
DOCKED: USER    (2) Final Total Internal Energy     =   -0.60 kcal/mol
DOCKED: USER    (3) Torsional Free Energy           =   +2.98 kcal/mol
DOCKED: USER    (4) Unbound System's Energy  [=(2)] =   -0.60 kcal/mol
DOCKED: USER    
DOCKED: USER    
DOCKED: USER    NEWDPF move heme_Fe_opt.pdbqt
DOCKED: USER    NEWDPF about -0.174000 -0.001000 -0.047000
DOCKED: USER    NEWDPF tran0 11.885307 7.145784 9.459318
DOCKED: USER    NEWDPF quaternion0 -0.207859 0.621783 0.038005 -0.754146
DOCKED: USER    NEWDPF axisangle0 -0.316517 0.946820 0.057872 -82.098373
DOCKED: USER    NEWDPF quat0 -0.316517 0.946820 0.057872 -82.098373
DOCKED: USER    NEWDPF dihe0 154.00 135.54 -124.65 3.81 80.83 167.04 -155.23 35.92 -21.34 2.22 
DOCKED: USER  keepresnum = 1 
DOCKED: USER  
DOCKED: REMARK  10 active torsions:
DOCKED: REMARK  status: ('A' for Active; 'I' for Inactive)
DOCKED: REMARK    1  A    between atoms: C_6  and  C_10 
DOCKED: REMARK    2  A    between atoms: C_10  and  C_11 
DOCKED: REMARK    3  A    between atoms: C_11  and  C_12 
DOCKED: REMARK    4  A    between atoms: C_12  and  O_14 
DOCKED: REMARK    5  A    between atoms: C_17  and  C_20 
DOCKED: REMARK    6  A    between atoms: C_24  and  C_27 
DOCKED: REMARK    7  A    between atoms: C_31  and  C_34 
DOCKED: REMARK    8  A    between atoms: C_34  and  C_35 
DOCKED: REMARK    9  A    between atoms: C_35  and  C_36 
DOCKED: REMARK   10  A    between atoms: C_36  and  O_38 
DOCKED: USER                              x       y       z     vdW  Elec       q    Type
DOCKED: USER                           _______ _______ _______ _____ _____    ______ ____
DOCKED: ROOT
DOCKED: ATOM      1  C   UNL d   1      11.951   7.682  11.439 -0.05 +0.03    +0.064 C 
DOCKED: ATOM      2  C   UNL d   1      13.640   3.850   8.814 -0.10 +0.06    +0.064 A 
DOCKED: ATOM      3  C   UNL d   1      12.886   6.362   4.791 -0.26 +0.02    +0.064 C 
DOCKED: ATOM      4  C   UNL d   1      11.150  10.043   7.305 -0.15 +0.01    +0.064 C 
DOCKED: ATOM      5  C   UNL d   1      12.418   6.339  11.068 -0.05 +0.05    +0.066 A 
DOCKED: ATOM      6  C   UNL d   1      12.635   5.303  11.962 -0.05 -0.02    -0.021 A 
DOCKED: ATOM      7  C   UNL d   1      13.108   4.241  11.233 -0.06 -0.02    -0.025 A 
DOCKED: ATOM      8  C   UNL d   1      13.161   4.669   9.920 +0.03 +0.08    +0.066 A 
DOCKED: ATOM      9  C   UNL d   1      13.466   2.890  11.772 -0.06 +0.03    +0.051 C 
DOCKED: ATOM     10  C   UNL d   1      13.647   4.219   7.532 -0.14 +0.05    +0.066 A 
DOCKED: ATOM     11  C   UNL d   1      14.218   3.457   6.510 -0.19 -0.01    -0.021 A 
DOCKED: ATOM     12  C   UNL d   1      14.029   4.167   5.341 -0.31 +0.00    +0.000 A 
DOCKED: ATOM     13  C   UNL d   1      13.353   5.342   5.716 -0.18 +0.03    +0.070 A 
DOCKED: ATOM     14  C   UNL d   1      14.968   2.148   6.649 -0.18 +0.02    +0.052 C 
DOCKED: ATOM     15  C   UNL d   1      12.282   7.518   5.151 -0.21 +0.01    +0.066 A 
DOCKED: ATOM     16  C   UNL d   1      11.761   8.421   4.233 -0.30 -0.00    -0.021 A 
DOCKED: ATOM     17  C   UNL d   1      11.263   9.485   4.956 -0.22 +0.00    +0.000 A 
DOCKED: ATOM     18  C   UNL d   1      11.495   9.208   6.301 -0.12 +0.01    +0.070 A 
DOCKED: ATOM     19  C   UNL d   1      11.754   8.303   2.732 -0.42 -0.00    +0.052 C 
DOCKED: ATOM     20  C   UNL d   1      11.323   9.757   8.734 -0.12 +0.02    +0.066 A 
DOCKED: ATOM     21  C   UNL d   1      11.157  10.686   9.772 -0.16 -0.01    -0.025 A 
DOCKED: ATOM     22  C   UNL d   1      11.378   9.989  10.941 -0.11 -0.01    -0.021 A 
DOCKED: ATOM     23  C   UNL d   1      11.674   8.671  10.574 -0.06 +0.03    +0.066 A 
DOCKED: ATOM     24  C   UNL d   1      10.814  12.155   9.677 -0.25 +0.01    +0.051 C 
DOCKED: ATOM     25  N   UNL d   1      12.731   5.943   9.822 -0.06 -0.26    -0.248 N 
DOCKED: ATOM     26  N   UNL d   1      13.128   5.378   7.053 -0.11 -0.17    -0.248 N 
DOCKED: ATOM     27  N   UNL d   1      12.082   7.979   6.425 -0.06 -0.07    -0.248 N 
DOCKED: ATOM     28  N   UNL d   1      11.683   8.546   9.224 -0.04 -0.10    -0.248 N 
DOCKED: ATOM     29 FE   UNL d   1      12.405   6.964   8.138 -0.02 +0.00    +0.000 Fe
DOCKED: ENDROOT
DOCKED: BRANCH   6  30
DOCKED: ATOM     30  C   UNL d   1      12.387   5.313  13.431 -0.02 +0.02    +0.052 C 
DOCKED: BRANCH  30  31
DOCKED: ATOM     31  C   UNL d   1      10.893   5.389  13.727 -0.04 +0.06    +0.115 C 
DOCKED: BRANCH  31  32
DOCKED: ATOM     32  C   UNL d   1      10.100   4.840  12.573 -0.02 +0.16    +0.139 C 
DOCKED: ATOM     33  O   UNL d   1       9.951   3.634  12.437 -0.12 -0.82    -0.650 OA
DOCKED: BRANCH  32  34
DOCKED: ATOM     34  O   UNL d   1       9.546   5.675  11.677 -0.53 -1.20    -0.776 OA
DOCKED: ATOM     35  H   UNL d   1       9.325   6.577  11.950 +0.03 +0.14    +0.167 HD
DOCKED: ENDBRANCH  32  34
DOCKED: ENDBRANCH  31  32
DOCKED: ENDBRANCH  30  31
DOCKED: ENDBRANCH   6  30
DOCKED: BRANCH  22  36
DOCKED: ATOM     36  C   UNL d   1      11.353  10.571  12.330 -0.11 +0.02    +0.052 C 
DOCKED: BRANCH  36  37
DOCKED: ATOM     37  C   UNL d   1      10.012  10.278  12.986 -0.15 +0.06    +0.115 C 
DOCKED: BRANCH  37  38
DOCKED: ATOM     38  C   UNL d   1       9.584  11.414  13.870 -0.02 +0.18    +0.139 C 
DOCKED: ATOM     39  O   UNL d   1       8.441  11.480  14.296 -0.62 -0.99    -0.650 OA
DOCKED: BRANCH  38  40
DOCKED: ATOM     40  O   UNL d   1      10.465  12.377  14.199 +0.05 -1.43    -0.776 OA
DOCKED: ATOM     41  H   UNL d   1      11.358  12.124  14.469 +0.01 +0.17    +0.167 HD
DOCKED: ENDBRANCH  38  40
DOCKED: ENDBRANCH  37  38
DOCKED: ENDBRANCH  36  37
DOCKED: ENDBRANCH  22  36
DOCKED: BRANCH  12  42
DOCKED: ATOM     42  C   UNL d   1      14.493   3.730   3.989 -0.53 +0.00    +0.004 C 
DOCKED: ATOM     43  C   UNL d   1      15.780   3.836   3.634 -0.51 +0.00    +0.012 C 
DOCKED: ENDBRANCH  12  42
DOCKED: BRANCH  17  44
DOCKED: ATOM     44  C   UNL d   1      10.590  10.679   4.397 -0.28 -0.00    +0.004 C 
DOCKED: ATOM     45  C   UNL d   1       9.494  10.557   3.641 -0.44 -0.00    +0.012 C 
DOCKED: ENDBRANCH  17  44
DOCKED: TORSDOF 10
DOCKED: TER
DOCKED: ENDMDL
________________________________________________________________________________


	BEGINNING GENETIC ALGORITHM DOCKING 2 of 100
Run: 2 Seed: 1708177358 1866930153 [ Run 2 of 100 GA/GALS ]
Beginning LAMARCKIAN GENETIC ALGORITHM (LGA), with a maximum of 25000000 energy evaluations.

Final-Value: -11.430


	FINAL GENETIC ALGORITHM DOCKED STATE
	_______________________________________________


Detailed state:  trans 12.008 12.210 7.196 quatxyzw 0.532320 0.463559 -0.621529 0.339779 center -0.174 -0.001 -0.047 ntor 10 67.4240 -124.2016 -178.6657 59.9490 -75.0096 -85.7213 -78.3244 26.2266 159.7218 148.7760
State:	 12.008  12.210   7.196   0.566  0.493 -0.661 140.273     67.42 -124.20 -178.67   59.95  -75.01  -85.72  -78.32   26.23  159.72  148.78

DOCKED: MODEL        2
DOCKED: USER    Run = 2
DOCKED: USER    DPF = D:/Protein_go_brrr/autodock/final/mut_Y35F/heme_Fe/dock.dpf
DOCKED: USER  
DOCKED: USER    Estimated Free Energy of Binding    =   -6.42 kcal/mol  [=(1)+(2)+(3)-(4)]
DOCKED: USER    Estimated Inhibition Constant, Ki   =   19.57 uM (micromolar)  [Temperature = 298.15 K]
DOCKED: USER    
DOCKED: USER    (1) Final Intermolecular Energy     =   -9.41 kcal/mol
DOCKED: USER        vdW + Hbond + desolv Energy     =   -7.00 kcal/mol
DOCKED: USER        Electrostatic Energy            =   -2.40 kcal/mol
DOCKED: USER    (2) Final Total Internal Energy     =   -2.02 kcal/mol
DOCKED: USER    (3) Torsional Free Energy           =   +2.98 kcal/mol
DOCKED: USER    (4) Unbound System's Energy  [=(2)] =   -2.02 kcal/mol
DOCKED: USER    
DOCKED: USER    
DOCKED: USER    NEWDPF move heme_Fe_opt.pdbqt
DOCKED: USER    NEWDPF about -0.174000 -0.001000 -0.047000
DOCKED: USER    NEWDPF tran0 12.008194 12.210338 7.195879
DOCKED: USER    NEWDPF quaternion0 0.532320 0.463559 -0.621529 0.339779
DOCKED: USER    NEWDPF axisangle0 0.565994 0.492882 -0.660846 140.273150
DOCKED: USER    NEWDPF quat0 0.565994 0.492882 -0.660846 140.273150
DOCKED: USER    NEWDPF dihe0 67.42 -124.20 -178.67 59.95 -75.01 -85.72 -78.32 26.23 159.72 148.78 
DOCKED: USER  keepresnum = 1 
DOCKED: USER  
DOCKED: REMARK  10 active torsions:
DOCKED: REMARK  status: ('A' for Active; 'I' for Inactive)
DOCKED: REMARK    1  A    between atoms: C_6  and  C_10 
DOCKED: REMARK    2  A    between atoms: C_10  and  C_11 
DOCKED: REMARK    3  A    between atoms: C_11  and  C_12 
DOCKED: REMARK    4  A    between atoms: C_12  and  O_14 
DOCKED: REMARK    5  A    between atoms: C_17  and  C_20 
DOCKED: REMARK    6  A    between atoms: C_24  and  C_27 
DOCKED: REMARK    7  A    between atoms: C_31  and  C_34 
DOCKED: REMARK    8  A    between atoms: C_34  and  C_35 
DOCKED: REMARK    9  A    between atoms: C_35  and  C_36 
DOCKED: REMARK   10  A    between atoms: C_36  and  O_38 
DOCKED: USER                              x       y       z     vdW  Elec       q    Type
DOCKED: USER                           _______ _______ _______ _____ _____    ______ ____
DOCKED: ROOT
DOCKED: ATOM      1  C   UNL d   1      11.885  10.302   7.940 -0.11 +0.01    +0.064 C 
DOCKED: ATOM      2  C   UNL d   1      11.099  14.817   9.792 -0.22 +0.01    +0.064 A 
DOCKED: ATOM      3  C   UNL d   1      11.060  16.569   5.320 -0.18 -0.01    +0.064 C 
DOCKED: ATOM      4  C   UNL d   1      11.925  12.225   3.513 -0.24 -0.01    +0.064 C 
DOCKED: ATOM      5  C   UNL d   1      11.751  11.423   8.880 -0.12 +0.01    +0.066 A 
DOCKED: ATOM      6  C   UNL d   1      11.829  11.313  10.259 -0.11 -0.01    -0.021 A 
DOCKED: ATOM      7  C   UNL d   1      11.607  12.566  10.772 -0.15 -0.01    -0.025 A 
DOCKED: ATOM      8  C   UNL d   1      11.402  13.395   9.686 -0.18 +0.02    +0.066 A 
DOCKED: ATOM      9  C   UNL d   1      11.613  12.940  12.223 -0.16 +0.03    +0.051 C 
DOCKED: ATOM     10  C   UNL d   1      10.953  15.649   8.760 -0.23 +0.00    +0.066 A 
DOCKED: ATOM     11  C   UNL d   1      10.551  16.981   8.889 -0.20 +0.00    -0.021 A 
DOCKED: ATOM     12  C   UNL d   1      10.516  17.504   7.612 -0.01 -0.00    +0.000 A 
DOCKED: ATOM     13  C   UNL d   1      10.894  16.452   6.760 -0.17 -0.01    +0.070 A 
DOCKED: ATOM     14  C   UNL d   1      10.153  17.701  10.162 -0.23 +0.00    +0.052 C 
DOCKED: ATOM     15  C   UNL d   1      11.373  15.546   4.490 -0.13 -0.01    +0.066 A 
DOCKED: ATOM     16  C   UNL d   1      11.620  15.719   3.134 -0.12 +0.00    -0.021 A 
DOCKED: ATOM     17  C   UNL d   1      11.867  14.467   2.610 -0.23 -0.00    +0.000 A 
DOCKED: ATOM     18  C   UNL d   1      11.760  13.558   3.660 -0.18 -0.01    +0.070 A 
DOCKED: ATOM     19  C   UNL d   1      11.601  17.005   2.353 -0.10 -0.02    +0.052 C 
DOCKED: ATOM     20  C   UNL d   1      11.881  11.245   4.605 -0.17 -0.00    +0.066 A 
DOCKED: ATOM     21  C   UNL d   1      11.851   9.853   4.443 -0.22 -0.00    -0.025 A 
DOCKED: ATOM     22  C   UNL d   1      11.852   9.324   5.717 -0.14 -0.00    -0.021 A 
DOCKED: ATOM     23  C   UNL d   1      11.877  10.409   6.602 -0.10 +0.01    +0.066 A 
DOCKED: ATOM     24  C   UNL d   1      11.817   9.052   3.162 -0.44 -0.00    +0.051 C 
DOCKED: ATOM     25  N   UNL d   1      11.499  12.698   8.536 -0.09 -0.03    -0.248 N 
DOCKED: ATOM     26  N   UNL d   1      11.152  15.319   7.459 -0.15 +0.01    -0.248 N 
DOCKED: ATOM     27  N   UNL d   1      11.500  14.225   4.824 -0.08 +0.02    -0.248 N 
DOCKED: ATOM     28  N   UNL d   1      11.849  11.579   5.918 -0.05 -0.01    -0.248 N 
DOCKED: ATOM     29 FE   UNL d   1      11.501  13.448   6.686 -0.04 +0.00    +0.000 Fe
DOCKED: ENDROOT
DOCKED: BRANCH   6  30
DOCKED: ATOM     30  C   UNL d   1      12.122  10.083  11.050 -0.07 +0.02    +0.052 C 
DOCKED: BRANCH  30  31
DOCKED: ATOM     31  C   UNL d   1      10.887   9.632  11.822 -0.11 +0.04    +0.115 C 
DOCKED: BRANCH  31  32
DOCKED: ATOM     32  C   UNL d   1      10.224   8.476  11.126 -0.11 +0.07    +0.139 C 
DOCKED: ATOM     33  O   UNL d   1       9.567   8.654  10.110 +0.13 -0.30    -0.650 OA
DOCKED: BRANCH  32  34
DOCKED: ATOM     34  O   UNL d   1      10.349   7.231  11.617 -0.01 -0.55    -0.776 OA
DOCKED: ATOM     35  H   UNL d   1      10.851   6.576  11.112 +0.01 +0.19    +0.167 HD
DOCKED: ENDBRANCH  32  34
DOCKED: ENDBRANCH  31  32
DOCKED: ENDBRANCH  30  31
DOCKED: ENDBRANCH   6  30
DOCKED: BRANCH  22  36
DOCKED: ATOM     36  C   UNL d   1      11.784   7.860   6.063 -0.17 +0.01    +0.052 C 
DOCKED: BRANCH  36  37
DOCKED: ATOM     37  C   UNL d   1      10.475   7.562   6.778 -0.19 +0.05    +0.115 C 
DOCKED: BRANCH  37  38
DOCKED: ATOM     38  C   UNL d   1      10.604   6.349   7.656 -0.06 +0.17    +0.139 C 
DOCKED: ATOM     39  O   UNL d   1      10.434   5.228   7.201 -0.53 -1.11    -0.650 OA
DOCKED: BRANCH  38  40
DOCKED: ATOM     40  O   UNL d   1      10.907   6.493   8.958 -0.05 -1.16    -0.776 OA
DOCKED: ATOM     41  H   UNL d   1      10.349   7.057   9.512 +0.03 +0.18    +0.167 HD
DOCKED: ENDBRANCH  38  40
DOCKED: ENDBRANCH  37  38
DOCKED: ENDBRANCH  36  37
DOCKED: ENDBRANCH  22  36
DOCKED: BRANCH  12  42
DOCKED: ATOM     42  C   UNL d   1      10.124  18.907   7.272 -0.17 -0.00    +0.004 C 
DOCKED: ATOM     43  C   UNL d   1       9.229  19.158   6.309 -0.21 -0.00    +0.012 C 
DOCKED: ENDBRANCH  12  42
DOCKED: BRANCH  17  44
DOCKED: ATOM     44  C   UNL d   1      12.203  14.162   1.200 -0.46 -0.00    +0.004 C 
DOCKED: ATOM     45  C   UNL d   1      13.406  13.681   0.872 -0.48 -0.00    +0.012 C 
DOCKED: ENDBRANCH  17  44
DOCKED: TORSDOF 10
DOCKED: TER
DOCKED: ENDMDL
________________________________________________________________________________


	BEGINNING GENETIC ALGORITHM DOCKING 3 of 100
Run: 3 Seed: 96687478 275340329 [ Run 3 of 100 GA/GALS ]
Beginning LAMARCKIAN GENETIC ALGORITHM (LGA), with a maximum of 25000000 energy evaluations.

Final-Value: -12.273


	FINAL GENETIC ALGORITHM DOCKED STATE
	_______________________________________________


Detailed state:  trans 11.686 11.993 7.229 quatxyzw 0.559203 0.461387 -0.580249 0.371114 center -0.174 -0.001 -0.047 ntor 10 -72.3078 -76.2535 -179.9992 59.7140 -26.3292 140.6026 -60.4302 52.7267 -158.2840 171.6970
State:	 11.686  11.993   7.229   0.602  0.497 -0.625 136.431    -72.31  -76.25 -180.00   59.71  -26.33  140.60  -60.43   52.73 -158.28  171.70

DOCKED: MODEL        3
DOCKED: USER    Run = 3
DOCKED: USER    DPF = D:/Protein_go_brrr/autodock/final/mut_Y35F/heme_Fe/dock.dpf
DOCKED: USER  
DOCKED: USER    Estimated Free Energy of Binding    =   -6.79 kcal/mol  [=(1)+(2)+(3)-(4)]
DOCKED: USER    Estimated Inhibition Constant, Ki   =   10.50 uM (micromolar)  [Temperature = 298.15 K]
DOCKED: USER    
DOCKED: USER    (1) Final Intermolecular Energy     =   -9.78 kcal/mol
DOCKED: USER        vdW + Hbond + desolv Energy     =   -7.29 kcal/mol
DOCKED: USER        Electrostatic Energy            =   -2.48 kcal/mol
DOCKED: USER    (2) Final Total Internal Energy     =   -2.50 kcal/mol
DOCKED: USER    (3) Torsional Free Energy           =   +2.98 kcal/mol
DOCKED: USER    (4) Unbound System's Energy  [=(2)] =   -2.50 kcal/mol
DOCKED: USER    
DOCKED: USER    
DOCKED: USER    NEWDPF move heme_Fe_opt.pdbqt
DOCKED: USER    NEWDPF about -0.174000 -0.001000 -0.047000
DOCKED: USER    NEWDPF tran0 11.686191 11.993071 7.228670
DOCKED: USER    NEWDPF quaternion0 0.559203 0.461387 -0.580249 0.371114
DOCKED: USER    NEWDPF axisangle0 0.602208 0.496870 -0.624872 136.431368
DOCKED: USER    NEWDPF quat0 0.602208 0.496870 -0.624872 136.431368
DOCKED: USER    NEWDPF dihe0 -72.31 -76.25 -180.00 59.71 -26.33 140.60 -60.43 52.73 -158.28 171.70 
DOCKED: USER  keepresnum = 1 
DOCKED: USER  
DOCKED: REMARK  10 active torsions:
DOCKED: REMARK  status: ('A' for Active; 'I' for Inactive)
DOCKED: REMARK    1  A    between atoms: C_6  and  C_10 
DOCKED: REMARK    2  A    between atoms: C_10  and  C_11 
DOCKED: REMARK    3  A    between atoms: C_11  and  C_12 
DOCKED: REMARK    4  A    between atoms: C_12  and  O_14 
DOCKED: REMARK    5  A    between atoms: C_17  and  C_20 
DOCKED: REMARK    6  A    between atoms: C_24  and  C_27 
DOCKED: REMARK    7  A    between atoms: C_31  and  C_34 
DOCKED: REMARK    8  A    between atoms: C_34  and  C_35 
DOCKED: REMARK    9  A    between atoms: C_35  and  C_36 
DOCKED: REMARK   10  A    between atoms: C_36  and  O_38 
DOCKED: USER                              x       y       z     vdW  Elec       q    Type
DOCKED: USER                           _______ _______ _______ _____ _____    ______ ____
DOCKED: ROOT
DOCKED: ATOM      1  C   UNL d   1      11.350  10.071   7.865 -0.15 +0.01    +0.064 C 
DOCKED: ATOM      2  C   UNL d   1      10.897  14.545   9.916 -0.24 +0.02    +0.064 A 
DOCKED: ATOM      3  C   UNL d   1      11.240  16.508   5.545 -0.16 -0.01    +0.064 C 
DOCKED: ATOM      4  C   UNL d   1      11.786  12.194   3.551 -0.24 -0.01    +0.064 C 
DOCKED: ATOM      5  C   UNL d   1      11.274  11.153   8.856 -0.15 +0.01    +0.066 A 
DOCKED: ATOM      6  C   UNL d   1      11.274  10.969  10.229 -0.15 -0.01    -0.021 A 
DOCKED: ATOM      7  C   UNL d   1      11.145  12.212  10.798 -0.19 -0.01    -0.025 A 
DOCKED: ATOM      8  C   UNL d   1      11.071  13.108   9.749 -0.21 +0.02    +0.066 A 
DOCKED: ATOM      9  C   UNL d   1      11.114  12.513  12.265 -0.19 +0.04    +0.051 C 
DOCKED: ATOM     10  C   UNL d   1      10.880  15.437   8.924 -0.24 +0.00    +0.066 A 
DOCKED: ATOM     11  C   UNL d   1      10.597  16.793   9.105 -0.21 +0.00    -0.021 A 
DOCKED: ATOM     12  C   UNL d   1      10.673  17.378   7.857 -0.09 -0.00    +0.000 A 
DOCKED: ATOM     13  C   UNL d   1      10.994  16.337   6.969 -0.17 -0.01    +0.070 A 
DOCKED: ATOM     14  C   UNL d   1      10.205  17.485  10.395 -0.22 +0.01    +0.052 C 
DOCKED: ATOM     15  C   UNL d   1      11.498  15.501   4.677 -0.13 -0.01    +0.066 A 
DOCKED: ATOM     16  C   UNL d   1      11.826  15.715   3.344 -0.10 +0.00    -0.021 A 
DOCKED: ATOM     17  C   UNL d   1      11.981  14.472   2.766 -0.21 -0.00    +0.000 A 
DOCKED: ATOM     18  C   UNL d   1      11.738  13.527   3.761 -0.17 -0.01    +0.070 A 
DOCKED: ATOM     19  C   UNL d   1      11.965  17.034   2.633 -0.08 -0.02    +0.052 C 
DOCKED: ATOM     20  C   UNL d   1      11.598  11.171   4.587 -0.18 -0.00    +0.066 A 
DOCKED: ATOM     21  C   UNL d   1      11.446   9.797   4.351 -0.25 -0.00    -0.025 A 
DOCKED: ATOM     22  C   UNL d   1      11.336   9.210   5.594 -0.18 -0.00    -0.021 A 
DOCKED: ATOM     23  C   UNL d   1      11.418  10.244   6.535 -0.11 +0.01    +0.066 A 
DOCKED: ATOM     24  C   UNL d   1      11.401   9.067   3.029 -0.43 -0.00    +0.051 C 
DOCKED: ATOM     25  N   UNL d   1      11.160  12.462   8.569 -0.06 -0.04    -0.248 N 
DOCKED: ATOM     26  N   UNL d   1      11.111  15.152   7.617 -0.15 +0.01    -0.248 N 
DOCKED: ATOM     27  N   UNL d   1      11.485  14.159   4.946 -0.08 +0.02    -0.248 N 
DOCKED: ATOM     28  N   UNL d   1      11.533  11.442   5.913 +0.05 -0.01    -0.248 N 
DOCKED: ATOM     29 FE   UNL d   1      11.322  13.297   6.763 -0.04 +0.00    +0.000 Fe
DOCKED: ENDROOT
DOCKED: BRANCH   6  30
DOCKED: ATOM     30  C   UNL d   1      11.412   9.681  10.966 -0.11 +0.02    +0.052 C 
DOCKED: BRANCH  30  31
DOCKED: ATOM     31  C   UNL d   1      10.175   8.812  10.770 -0.10 +0.05    +0.115 C 
DOCKED: BRANCH  31  32
DOCKED: ATOM     32  C   UNL d   1      10.545   7.509  10.117 -0.13 +0.11    +0.139 C 
DOCKED: ATOM     33  O   UNL d   1      11.534   7.429   9.402 +0.01 -0.48    -0.650 OA
DOCKED: BRANCH  32  34
DOCKED: ATOM     34  O   UNL d   1       9.789   6.416  10.316 +0.01 -1.26    -0.776 OA
DOCKED: ATOM     35  H   UNL d   1       9.234   6.092   9.593 +0.04 +0.31    +0.167 HD
DOCKED: ENDBRANCH  32  34
DOCKED: ENDBRANCH  31  32
DOCKED: ENDBRANCH  30  31
DOCKED: ENDBRANCH   6  30
DOCKED: BRANCH  22  36
DOCKED: ATOM     36  C   UNL d   1      11.115   7.744   5.859 -0.21 +0.01    +0.052 C 
DOCKED: BRANCH  36  37
DOCKED: ATOM     37  C   UNL d   1       9.623   7.458   5.950 -0.08 +0.04    +0.115 C 
DOCKED: BRANCH  37  38
DOCKED: ATOM     38  C   UNL d   1       9.294   6.711   7.211 -0.23 +0.10    +0.139 C 
DOCKED: ATOM     39  O   UNL d   1       8.282   6.971   7.846 -0.03 -0.38    -0.650 OA
DOCKED: BRANCH  38  40
DOCKED: ATOM     40  O   UNL d   1      10.119   5.747   7.656 -0.47 -1.38    -0.776 OA
DOCKED: ATOM     41  H   UNL d   1      10.704   5.936   8.403 +0.05 +0.37    +0.167 HD
DOCKED: ENDBRANCH  38  40
DOCKED: ENDBRANCH  37  38
DOCKED: ENDBRANCH  36  37
DOCKED: ENDBRANCH  22  36
DOCKED: BRANCH  12  42
DOCKED: ATOM     42  C   UNL d   1      10.431  18.827   7.575 -0.17 -0.00    +0.004 C 
DOCKED: ATOM     43  C   UNL d   1       9.632  19.209   6.570 -0.21 -0.00    +0.012 C 
DOCKED: ENDBRANCH  12  42
DOCKED: BRANCH  17  44
DOCKED: ATOM     44  C   UNL d   1      12.356  14.205   1.359 -0.44 -0.00    +0.004 C 
DOCKED: ATOM     45  C   UNL d   1      13.526  13.632   1.059 -0.50 -0.00    +0.012 C 
DOCKED: ENDBRANCH  17  44
DOCKED: TORSDOF 10
DOCKED: TER
DOCKED: ENDMDL
________________________________________________________________________________


	BEGINNING GENETIC ALGORITHM DOCKING 4 of 100
Run: 4 Seed: 1489275445 2101305705 [ Run 4 of 100 GA/GALS ]
Beginning LAMARCKIAN GENETIC ALGORITHM (LGA), with a maximum of 25000000 energy evaluations.

Final-Value: -14.040


	FINAL GENETIC ALGORITHM DOCKED STATE
	_______________________________________________


Detailed state:  trans 6.988 6.152 5.087 quatxyzw 0.330233 -0.368580 -0.866330 0.067589 center -0.174 -0.001 -0.047 ntor 10 -115.7143 -66.9232 24.7346 -124.6923 117.7958 -124.4643 -59.7722 -53.6535 -135.2299 -139.9455
State:	  6.988   6.152   5.087   0.331 -0.369 -0.868 172.249   -115.71  -66.92   24.73 -124.69  117.80 -124.46  -59.77  -53.65 -135.23 -139.95

DOCKED: MODEL        4
DOCKED: USER    Run = 4
DOCKED: USER    DPF = D:/Protein_go_brrr/autodock/final/mut_Y35F/heme_Fe/dock.dpf
DOCKED: USER  
DOCKED: USER    Estimated Free Energy of Binding    =  -10.86 kcal/mol  [=(1)+(2)+(3)-(4)]
DOCKED: USER    Estimated Inhibition Constant, Ki   =   10.93 nM (nanomolar)  [Temperature = 298.15 K]
DOCKED: USER    
DOCKED: USER    (1) Final Intermolecular Energy     =  -13.84 kcal/mol
DOCKED: USER        vdW + Hbond + desolv Energy     =  -12.04 kcal/mol
DOCKED: USER        Electrostatic Energy            =   -1.80 kcal/mol
DOCKED: USER    (2) Final Total Internal Energy     =   -0.20 kcal/mol
DOCKED: USER    (3) Torsional Free Energy           =   +2.98 kcal/mol
DOCKED: USER    (4) Unbound System's Energy  [=(2)] =   -0.20 kcal/mol
DOCKED: USER    
DOCKED: USER    
DOCKED: USER    NEWDPF move heme_Fe_opt.pdbqt
DOCKED: USER    NEWDPF about -0.174000 -0.001000 -0.047000
DOCKED: USER    NEWDPF tran0 6.987555 6.152255 5.086666
DOCKED: USER    NEWDPF quaternion0 0.330233 -0.368580 -0.866330 0.067589
DOCKED: USER    NEWDPF axisangle0 0.330990 -0.369425 -0.868315 172.248967
DOCKED: USER    NEWDPF quat0 0.330990 -0.369425 -0.868315 172.248967
DOCKED: USER    NEWDPF dihe0 -115.71 -66.92 24.73 -124.69 117.80 -124.46 -59.77 -53.65 -135.23 -139.95 
DOCKED: USER  keepresnum = 1 
DOCKED: USER  
DOCKED: REMARK  10 active torsions:
DOCKED: REMARK  status: ('A' for Active; 'I' for Inactive)
DOCKED: REMARK    1  A    between atoms: C_6  and  C_10 
DOCKED: REMARK    2  A    between atoms: C_10  and  C_11 
DOCKED: REMARK    3  A    between atoms: C_11  and  C_12 
DOCKED: REMARK    4  A    between atoms: C_12  and  O_14 
DOCKED: REMARK    5  A    between atoms: C_17  and  C_20 
DOCKED: REMARK    6  A    between atoms: C_24  and  C_27 
DOCKED: REMARK    7  A    between atoms: C_31  and  C_34 
DOCKED: REMARK    8  A    between atoms: C_34  and  C_35 
DOCKED: REMARK    9  A    between atoms: C_35  and  C_36 
DOCKED: REMARK   10  A    between atoms: C_36  and  O_38 
DOCKED: USER                              x       y       z     vdW  Elec       q    Type
DOCKED: USER                           _______ _______ _______ _____ _____    ______ ____
DOCKED: ROOT
DOCKED: ATOM      1  C   UNL d   1       8.262   6.808   6.555 -0.24 +0.03    +0.064 C 
DOCKED: ATOM      2  C   UNL d   1       6.740   8.606   2.210 -0.43 +0.01    +0.064 A 
DOCKED: ATOM      3  C   UNL d   1       3.183   5.378   2.199 -0.42 +0.00    +0.064 C 
DOCKED: ATOM      4  C   UNL d   1       4.702   3.555   6.353 -0.46 +0.01    +0.064 C 
DOCKED: ATOM      5  C   UNL d   1       8.213   7.559   5.293 -0.22 +0.01    +0.066 A 
DOCKED: ATOM      6  C   UNL d   1       9.149   8.500   4.896 -0.30 -0.00    -0.021 A 
DOCKED: ATOM      7  C   UNL d   1       8.723   9.002   3.691 -0.41 -0.00    -0.025 A 
DOCKED: ATOM      8  C   UNL d   1       7.543   8.346   3.398 -0.41 +0.01    +0.066 A 
DOCKED: ATOM      9  C   UNL d   1       9.427  10.036   2.867 -0.36 -0.01    +0.051 C 
DOCKED: ATOM     10  C   UNL d   1       5.629   7.948   1.875 -0.41 +0.01    +0.066 A 
DOCKED: ATOM     11  C   UNL d   1       4.819   8.296   0.791 -0.47 -0.00    -0.021 A 
DOCKED: ATOM     12  C   UNL d   1       3.777   7.390   0.776 -0.49 +0.00    +0.000 A 
DOCKED: ATOM     13  C   UNL d   1       4.003   6.533   1.867 -0.38 +0.00    +0.070 A 
DOCKED: ATOM     14  C   UNL d   1       4.991   9.476  -0.144 -0.51 +0.01    +0.052 C 
DOCKED: ATOM     15  C   UNL d   1       3.366   4.581   3.278 -0.37 +0.00    +0.066 A 
DOCKED: ATOM     16  C   UNL d   1       2.624   3.429   3.505 -0.27 -0.00    -0.021 A 
DOCKED: ATOM     17  C   UNL d   1       3.058   2.904   4.704 -0.27 +0.00    +0.000 A 
DOCKED: ATOM     18  C   UNL d   1       4.054   3.751   5.183 -0.34 +0.01    +0.070 A 
DOCKED: ATOM     19  C   UNL d   1       1.531   2.857   2.643 -0.27 +0.00    +0.052 C 
DOCKED: ATOM     20  C   UNL d   1       5.797   4.390   6.859 -0.37 +0.02    +0.066 A 
DOCKED: ATOM     21  C   UNL d   1       6.339   4.320   8.150 -0.26 -0.01    -0.025 A 
DOCKED: ATOM     22  C   UNL d   1       7.360   5.247   8.182 -0.33 -0.02    -0.021 A 
DOCKED: ATOM     23  C   UNL d   1       7.397   5.848   6.918 -0.33 +0.03    +0.066 A 
DOCKED: ATOM     24  C   UNL d   1       5.922   3.435   9.301 +0.53 +0.02    +0.051 C 
DOCKED: ATOM     25  N   UNL d   1       7.241   7.462   4.370 -0.22 -0.07    -0.248 N 
DOCKED: ATOM     26  N   UNL d   1       5.126   6.878   2.543 -0.24 -0.04    -0.248 N 
DOCKED: ATOM     27  N   UNL d   1       4.275   4.758   4.286 -0.24 -0.03    -0.248 N 
DOCKED: ATOM     28  N   UNL d   1       6.412   5.352   6.129 -0.23 -0.08    -0.248 N 
DOCKED: ATOM     29 FE   UNL d   1       5.769   6.114   4.337 -0.09 +0.00    +0.000 Fe
DOCKED: ENDROOT
DOCKED: BRANCH   6  30
DOCKED: ATOM     30  C   UNL d   1      10.396   8.890   5.613 -0.24 +0.01    +0.052 C 
DOCKED: BRANCH  30  31
DOCKED: ATOM     31  C   UNL d   1      10.119   9.111   7.096 -0.18 +0.03    +0.115 C 
DOCKED: BRANCH  31  32
DOCKED: ATOM     32  C   UNL d   1      10.948   8.175   7.931 -0.13 +0.06    +0.139 C 
DOCKED: ATOM     33  O   UNL d   1      11.779   8.609   8.717 +0.03 -0.25    -0.650 OA
DOCKED: BRANCH  32  34
DOCKED: ATOM     34  O   UNL d   1      10.783   6.846   7.820 -0.12 -0.71    -0.776 OA
DOCKED: ATOM     35  H   UNL d   1      10.994   6.415   6.980 +0.05 +0.13    +0.167 HD
DOCKED: ENDBRANCH  32  34
DOCKED: ENDBRANCH  31  32
DOCKED: ENDBRANCH  30  31
DOCKED: ENDBRANCH   6  30
DOCKED: BRANCH  22  36
DOCKED: ATOM     36  C   UNL d   1       8.218   5.570   9.377 +0.43 +0.08    +0.052 C 
DOCKED: BRANCH  36  37
DOCKED: ATOM     37  C   UNL d   1       7.350   5.660  10.623 -0.13 +0.09    +0.115 C 
DOCKED: BRANCH  37  38
DOCKED: ATOM     38  C   UNL d   1       7.859   4.745  11.701 -0.14 +0.13    +0.139 C 
DOCKED: ATOM     39  O   UNL d   1       7.128   3.905  12.205 -0.03 -0.35    -0.650 OA
DOCKED: BRANCH  38  40
DOCKED: ATOM     40  O   UNL d   1       9.131   4.849  12.124 -0.52 -1.07    -0.776 OA
DOCKED: ATOM     41  H   UNL d   1       9.303   5.155  13.025 +0.02 +0.12    +0.167 HD
DOCKED: ENDBRANCH  38  40
DOCKED: ENDBRANCH  37  38
DOCKED: ENDBRANCH  36  37
DOCKED: ENDBRANCH  22  36
DOCKED: BRANCH  12  42
DOCKED: ATOM     42  C   UNL d   1       2.656   7.391  -0.215 -0.60 +0.00    +0.004 C 
DOCKED: ATOM     43  C   UNL d   1       2.857   7.008  -1.482 -0.48 +0.00    +0.012 C 
DOCKED: ENDBRANCH  12  42
DOCKED: BRANCH  17  44
DOCKED: ATOM     44  C   UNL d   1       2.566   1.661   5.340 -0.49 -0.00    +0.004 C 
DOCKED: ATOM     45  C   UNL d   1       1.340   1.602   5.872 -0.68 -0.00    +0.012 C 
DOCKED: ENDBRANCH  17  44
DOCKED: TORSDOF 10
DOCKED: TER
DOCKED: ENDMDL
________________________________________________________________________________


	BEGINNING GENETIC ALGORITHM DOCKING 5 of 100
Run: 5 Seed: 1208197078 2074523883 [ Run 5 of 100 GA/GALS ]
Beginning LAMARCKIAN GENETIC ALGORITHM (LGA), with a maximum of 25000000 energy evaluations.

Final-Value: -12.524


	FINAL GENETIC ALGORITHM DOCKED STATE
	_______________________________________________


Detailed state:  trans 11.672 11.688 7.188 quatxyzw -0.555552 -0.452388 0.577128 -0.391958 center -0.174 -0.001 -0.047 ntor 10 77.2536 167.7557 -109.5111 43.9667 -104.0207 122.8302 -68.3271 -25.6843 -173.5363 3.1488
State:	 11.672  11.688   7.188  -0.604 -0.492  0.627 -133.847     77.25  167.76 -109.51   43.97 -104.02  122.83  -68.33  -25.68 -173.54    3.15

DOCKED: MODEL        5
DOCKED: USER    Run = 5
DOCKED: USER    DPF = D:/Protein_go_brrr/autodock/final/mut_Y35F/heme_Fe/dock.dpf
DOCKED: USER  
DOCKED: USER    Estimated Free Energy of Binding    =   -7.63 kcal/mol  [=(1)+(2)+(3)-(4)]
DOCKED: USER    Estimated Inhibition Constant, Ki   =    2.55 uM (micromolar)  [Temperature = 298.15 K]
DOCKED: USER    
DOCKED: USER    (1) Final Intermolecular Energy     =  -10.61 kcal/mol
DOCKED: USER        vdW + Hbond + desolv Energy     =   -7.61 kcal/mol
DOCKED: USER        Electrostatic Energy            =   -3.00 kcal/mol
DOCKED: USER    (2) Final Total Internal Energy     =   -1.91 kcal/mol
DOCKED: USER    (3) Torsional Free Energy           =   +2.98 kcal/mol
DOCKED: USER    (4) Unbound System's Energy  [=(2)] =   -1.91 kcal/mol
DOCKED: USER    
DOCKED: USER    
DOCKED: USER    NEWDPF move heme_Fe_opt.pdbqt
DOCKED: USER    NEWDPF about -0.174000 -0.001000 -0.047000
DOCKED: USER    NEWDPF tran0 11.672189 11.687604 7.188127
DOCKED: USER    NEWDPF quaternion0 -0.555552 -0.452388 0.577128 -0.391958
DOCKED: USER    NEWDPF axisangle0 -0.603871 -0.491735 0.627325 -133.847216
DOCKED: USER    NEWDPF quat0 -0.603871 -0.491735 0.627325 -133.847216
DOCKED: USER    NEWDPF dihe0 77.25 167.76 -109.51 43.97 -104.02 122.83 -68.33 -25.68 -173.54 3.15 
DOCKED: USER  keepresnum = 1 
DOCKED: USER  
DOCKED: REMARK  10 active torsions:
DOCKED: REMARK  status: ('A' for Active; 'I' for Inactive)
DOCKED: REMARK    1  A    between atoms: C_6  and  C_10 
DOCKED: REMARK    2  A    between atoms: C_10  and  C_11 
DOCKED: REMARK    3  A    between atoms: C_11  and  C_12 
DOCKED: REMARK    4  A    between atoms: C_12  and  O_14 
DOCKED: REMARK    5  A    between atoms: C_17  and  C_20 
DOCKED: REMARK    6  A    between atoms: C_24  and  C_27 
DOCKED: REMARK    7  A    between atoms: C_31  and  C_34 
DOCKED: REMARK    8  A    between atoms: C_34  and  C_35 
DOCKED: REMARK    9  A    between atoms: C_35  and  C_36 
DOCKED: REMARK   10  A    between atoms: C_36  and  O_38 
DOCKED: USER                              x       y       z     vdW  Elec       q    Type
DOCKED: USER                           _______ _______ _______ _____ _____    ______ ____
DOCKED: ROOT
DOCKED: ATOM      1  C   UNL d   1      11.289   9.766   7.798 -0.15 +0.01    +0.064 C 
DOCKED: ATOM      2  C   UNL d   1      11.040  14.213   9.941 -0.23 +0.02    +0.064 A 
DOCKED: ATOM      3  C   UNL d   1      11.333  16.245   5.599 -0.16 -0.01    +0.064 C 
DOCKED: ATOM      4  C   UNL d   1      11.682  11.954   3.514 -0.22 -0.01    +0.064 C 
DOCKED: ATOM      5  C   UNL d   1      11.276  10.831   8.811 -0.15 +0.01    +0.066 A 
DOCKED: ATOM      6  C   UNL d   1      11.306  10.621  10.180 -0.14 -0.01    -0.021 A 
DOCKED: ATOM      7  C   UNL d   1      11.232  11.857  10.774 -0.17 -0.01    -0.025 A 
DOCKED: ATOM      8  C   UNL d   1      11.161  12.774   9.744 -0.20 +0.02    +0.066 A 
DOCKED: ATOM      9  C   UNL d   1      11.251  12.130  12.247 -0.17 +0.03    +0.051 C 
DOCKED: ATOM     10  C   UNL d   1      11.026  15.124   8.966 -0.23 +0.01    +0.066 A 
DOCKED: ATOM     11  C   UNL d   1      10.794  16.485   9.180 -0.22 -0.00    -0.021 A 
DOCKED: ATOM     12  C   UNL d   1      10.857  17.091   7.941 -0.16 -0.00    +0.000 A 
DOCKED: ATOM     13  C   UNL d   1      11.119  16.056   7.025 -0.18 -0.01    +0.070 A 
DOCKED: ATOM     14  C   UNL d   1      10.460  17.165  10.492 -0.22 +0.01    +0.052 C 
DOCKED: ATOM     15  C   UNL d   1      11.534  15.248   4.706 -0.13 -0.01    +0.066 A 
DOCKED: ATOM     16  C   UNL d   1      11.834  15.475   3.369 -0.11 +0.00    -0.021 A 
DOCKED: ATOM     17  C   UNL d   1      11.932  14.239   2.765 -0.23 -0.00    +0.000 A 
DOCKED: ATOM     18  C   UNL d   1      11.684  13.284   3.749 -0.19 -0.01    +0.070 A 
DOCKED: ATOM     19  C   UNL d   1      11.998  16.802   2.678 -0.09 -0.02    +0.052 C 
DOCKED: ATOM     20  C   UNL d   1      11.487  10.919   4.535 -0.19 -0.00    +0.066 A 
DOCKED: ATOM     21  C   UNL d   1      11.283   9.556   4.279 -0.27 -0.00    -0.025 A 
DOCKED: ATOM     22  C   UNL d   1      11.186   8.949   5.514 -0.19 -0.00    -0.021 A 
DOCKED: ATOM     23  C   UNL d   1      11.327   9.961   6.471 -0.12 +0.01    +0.066 A 
DOCKED: ATOM     24  C   UNL d   1      11.179   8.852   2.945 -0.44 -0.00    +0.051 C 
DOCKED: ATOM     25  N   UNL d   1      11.197  12.148   8.550 -0.08 -0.04    -0.248 N 
DOCKED: ATOM     26  N   UNL d   1      11.213  14.856   7.648 -0.13 +0.00    -0.248 N 
DOCKED: ATOM     27  N   UNL d   1      11.483  13.902   4.951 -0.07 +0.02    -0.248 N 
DOCKED: ATOM     28  N   UNL d   1      11.466  11.167   5.867 -0.00 -0.02    -0.248 N 
DOCKED: ATOM     29 FE   UNL d   1      11.340  13.011   6.756 -0.04 +0.00    +0.000 Fe
DOCKED: ENDROOT
DOCKED: BRANCH   6  30
DOCKED: ATOM     30  C   UNL d   1      11.419   9.316  10.889 -0.10 +0.02    +0.052 C 
DOCKED: BRANCH  30  31
DOCKED: ATOM     31  C   UNL d   1      10.051   8.659  11.036 -0.10 +0.05    +0.115 C 
DOCKED: BRANCH  31  32
DOCKED: ATOM     32  C   UNL d   1       9.968   7.421  10.187 -0.14 +0.12    +0.139 C 
DOCKED: ATOM     33  O   UNL d   1       9.341   7.427   9.136 +0.00 -0.50    -0.650 OA
DOCKED: BRANCH  32  34
DOCKED: ATOM     34  O   UNL d   1      10.583   6.293  10.577 +0.07 -1.29    -0.776 OA
DOCKED: ATOM     35  H   UNL d   1      11.417   6.043  10.156 +0.01 +0.29    +0.167 HD
DOCKED: ENDBRANCH  32  34
DOCKED: ENDBRANCH  31  32
DOCKED: ENDBRANCH  30  31
DOCKED: ENDBRANCH   6  30
DOCKED: BRANCH  22  36
DOCKED: ATOM     36  C   UNL d   1      10.923   7.486   5.758 -0.18 +0.02    +0.052 C 
DOCKED: BRANCH  36  37
DOCKED: ATOM     37  C   UNL d   1      12.230   6.777   6.079 -0.18 +0.05    +0.115 C 
DOCKED: BRANCH  37  38
DOCKED: ATOM     38  C   UNL d   1      11.988   5.557   6.923 -0.16 +0.13    +0.139 C 
DOCKED: ATOM     39  O   UNL d   1      12.359   4.454   6.549 -0.47 -0.62    -0.650 OA
DOCKED: BRANCH  38  40
DOCKED: ATOM     40  O   UNL d   1      11.351   5.672   8.102 -0.20 -1.46    -0.776 OA
DOCKED: ATOM     41  H   UNL d   1      11.219   6.553   8.480 +0.03 +0.20    +0.167 HD
DOCKED: ENDBRANCH  38  40
DOCKED: ENDBRANCH  37  38
DOCKED: ENDBRANCH  36  37
DOCKED: ENDBRANCH  22  36
DOCKED: BRANCH  12  42
DOCKED: ATOM     42  C   UNL d   1      10.656  18.551   7.691 -0.16 -0.00    +0.004 C 
DOCKED: ATOM     43  C   UNL d   1       9.492  19.147   7.982 -0.22 -0.00    +0.012 C 
DOCKED: ENDBRANCH  12  42
DOCKED: BRANCH  17  44
DOCKED: ATOM     44  C   UNL d   1      12.261  13.987   1.344 -0.43 -0.00    +0.004 C 
DOCKED: ATOM     45  C   UNL d   1      13.508  13.677   0.974 -0.51 -0.00    +0.012 C 
DOCKED: ENDBRANCH  17  44
DOCKED: TORSDOF 10
DOCKED: TER
DOCKED: ENDMDL
________________________________________________________________________________


	BEGINNING GENETIC ALGORITHM DOCKING 6 of 100
Run: 6 Seed: 736992278 1868480325 [ Run 6 of 100 GA/GALS ]
Beginning LAMARCKIAN GENETIC ALGORITHM (LGA), with a maximum of 25000000 energy evaluations.

Final-Value: -11.376


	FINAL GENETIC ALGORITHM DOCKED STATE
	_______________________________________________


Detailed state:  trans 8.425 4.243 13.426 quatxyzw -0.429321 0.891709 0.123727 -0.072316 center -0.174 -0.001 -0.047 ntor 10 156.7565 -173.2816 72.4345 9.6710 86.2131 109.1061 -172.0162 26.9877 176.6372 -41.7666
State:	  8.425   4.243  13.426  -0.430  0.894  0.124 -171.706    156.76 -173.28   72.43    9.67   86.21  109.11 -172.02   26.99  176.64  -41.77

DOCKED: MODEL        6
DOCKED: USER    Run = 6
DOCKED: USER    DPF = D:/Protein_go_brrr/autodock/final/mut_Y35F/heme_Fe/dock.dpf
DOCKED: USER  
DOCKED: USER    Estimated Free Energy of Binding    =   -7.85 kcal/mol  [=(1)+(2)+(3)-(4)]
DOCKED: USER    Estimated Inhibition Constant, Ki   =    1.76 uM (micromolar)  [Temperature = 298.15 K]
DOCKED: USER    
DOCKED: USER    (1) Final Intermolecular Energy     =  -10.83 kcal/mol
DOCKED: USER        vdW + Hbond + desolv Energy     =   -6.93 kcal/mol
DOCKED: USER        Electrostatic Energy            =   -3.91 kcal/mol
DOCKED: USER    (2) Final Total Internal Energy     =   -0.54 kcal/mol
DOCKED: USER    (3) Torsional Free Energy           =   +2.98 kcal/mol
DOCKED: USER    (4) Unbound System's Energy  [=(2)] =   -0.54 kcal/mol
DOCKED: USER    
DOCKED: USER    
DOCKED: USER    NEWDPF move heme_Fe_opt.pdbqt
DOCKED: USER    NEWDPF about -0.174000 -0.001000 -0.047000
DOCKED: USER    NEWDPF tran0 8.425062 4.243230 13.426191
DOCKED: USER    NEWDPF quaternion0 -0.429321 0.891709 0.123727 -0.072316
DOCKED: USER    NEWDPF axisangle0 -0.430448 0.894050 0.124052 -171.705916
DOCKED: USER    NEWDPF quat0 -0.430448 0.894050 0.124052 -171.705916
DOCKED: USER    NEWDPF dihe0 156.76 -173.28 72.43 9.67 86.21 109.11 -172.02 26.99 176.64 -41.77 
DOCKED: USER  keepresnum = 1 
DOCKED: USER  
DOCKED: REMARK  10 active torsions:
DOCKED: REMARK  status: ('A' for Active; 'I' for Inactive)
DOCKED: REMARK    1  A    between atoms: C_6  and  C_10 
DOCKED: REMARK    2  A    between atoms: C_10  and  C_11 
DOCKED: REMARK    3  A    between atoms: C_11  and  C_12 
DOCKED: REMARK    4  A    between atoms: C_12  and  O_14 
DOCKED: REMARK    5  A    between atoms: C_17  and  C_20 
DOCKED: REMARK    6  A    between atoms: C_24  and  C_27 
DOCKED: REMARK    7  A    between atoms: C_31  and  C_34 
DOCKED: REMARK    8  A    between atoms: C_34  and  C_35 
DOCKED: REMARK    9  A    between atoms: C_35  and  C_36 
DOCKED: REMARK   10  A    between atoms: C_36  and  O_38 
DOCKED: USER                              x       y       z     vdW  Elec       q    Type
DOCKED: USER                           _______ _______ _______ _____ _____    ______ ____
DOCKED: ROOT
DOCKED: ATOM      1  C   UNL d   1       9.713   5.840  13.373 -0.08 +0.04    +0.064 C 
DOCKED: ATOM      2  C   UNL d   1      10.047   1.056  12.172 -0.07 +0.04    +0.064 A 
DOCKED: ATOM      3  C   UNL d   1       5.256   0.752  12.337 -0.19 -0.01    +0.064 C 
DOCKED: ATOM      4  C   UNL d   1       4.916   5.353  13.603 -0.28 +0.01    +0.064 C 
DOCKED: ATOM      5  C   UNL d   1      10.256   4.501  13.101 -0.07 +0.05    +0.066 A 
DOCKED: ATOM      6  C   UNL d   1      11.603   4.181  13.089 -0.06 -0.01    -0.021 A 
DOCKED: ATOM      7  C   UNL d   1      11.695   2.854  12.752 -0.07 -0.02    -0.025 A 
DOCKED: ATOM      8  C   UNL d   1      10.398   2.413  12.572 -0.07 +0.05    +0.066 A 
DOCKED: ATOM      9  C   UNL d   1      12.959   2.059  12.632 -0.05 +0.02    +0.051 C 
DOCKED: ATOM     10  C   UNL d   1       8.803   0.591  12.047 -0.10 +0.03    +0.066 A 
DOCKED: ATOM     11  C   UNL d   1       8.497  -0.680  11.553 -0.14 -0.00    -0.021 A 
DOCKED: ATOM     12  C   UNL d   1       7.121  -0.786  11.574 -0.18 -0.00    +0.000 A 
DOCKED: ATOM     13  C   UNL d   1       6.653   0.440  12.078 -0.13 +0.00    +0.070 A 
DOCKED: ATOM     14  C   UNL d   1       9.466  -1.716  11.021 -0.16 +0.01    +0.052 C 
DOCKED: ATOM     15  C   UNL d   1       4.797   1.949  12.773 -0.15 -0.00    +0.066 A 
DOCKED: ATOM     16  C   UNL d   1       3.467   2.176  13.104 -0.21 +0.00    -0.021 A 
DOCKED: ATOM     17  C   UNL d   1       3.366   3.504  13.466 -0.20 +0.00    +0.000 A 
DOCKED: ATOM     18  C   UNL d   1       4.638   4.057  13.343 -0.11 +0.01    +0.070 A 
DOCKED: ATOM     19  C   UNL d   1       2.329   1.193  13.058 -0.33 -0.02    +0.052 C 
DOCKED: ATOM     20  C   UNL d   1       6.254   5.956  13.544 -0.22 +0.01    +0.066 A 
DOCKED: ATOM     21  C   UNL d   1       6.527   7.329  13.613 -0.27 -0.01    -0.025 A 
DOCKED: ATOM     22  C   UNL d   1       7.900   7.444  13.559 -0.16 -0.01    -0.021 A 
DOCKED: ATOM     23  C   UNL d   1       8.408   6.144  13.452 -0.10 +0.03    +0.066 A 
DOCKED: ATOM     24  C   UNL d   1       5.554   8.480  13.721 -0.28 +0.01    +0.051 C 
DOCKED: ATOM     25  N   UNL d   1       9.525   3.415  12.794 -0.07 -0.22    -0.248 N 
DOCKED: ATOM     26  N   UNL d   1       7.677   1.283  12.358 -0.07 -0.08    -0.248 N 
DOCKED: ATOM     27  N   UNL d   1       5.527   3.092  12.960 -0.10 -0.03    -0.248 N 
DOCKED: ATOM     28  N   UNL d   1       7.397   5.243  13.398 -0.08 -0.09    -0.248 N 
DOCKED: ATOM     29 FE   UNL d   1       7.536   3.264  12.879 -0.02 +0.00    +0.000 Fe
DOCKED: ENDROOT
DOCKED: BRANCH   6  30
DOCKED: ATOM     30  C   UNL d   1      12.747   5.084  13.402 -0.02 +0.02    +0.052 C 
DOCKED: BRANCH  30  31
DOCKED: ATOM     31  C   UNL d   1      13.305   5.712  12.129 -0.03 +0.06    +0.115 C 
DOCKED: BRANCH  31  32
DOCKED: ATOM     32  C   UNL d   1      12.421   5.393  10.955 +0.06 +0.17    +0.139 C 
DOCKED: ATOM     33  O   UNL d   1      11.453   6.093  10.695 +0.02 -0.94    -0.650 OA
DOCKED: BRANCH  32  34
DOCKED: ATOM     34  O   UNL d   1      12.690   4.329  10.178 -0.29 -1.47    -0.776 OA
DOCKED: ATOM     35  H   UNL d   1      13.593   3.983  10.152 +0.01 +0.16    +0.167 HD
DOCKED: ENDBRANCH  32  34
DOCKED: ENDBRANCH  31  32
DOCKED: ENDBRANCH  30  31
DOCKED: ENDBRANCH   6  30
DOCKED: BRANCH  22  36
DOCKED: ATOM     36  C   UNL d   1       8.676   8.735  13.559 -0.16 +0.02    +0.052 C 
DOCKED: BRANCH  36  37
DOCKED: ATOM     37  C   UNL d   1       8.294   9.563  14.777 -0.14 +0.05    +0.115 C 
DOCKED: BRANCH  37  38
DOCKED: ATOM     38  C   UNL d   1       8.510  11.028  14.522 -0.13 +0.15    +0.139 C 
DOCKED: ATOM     39  O   UNL d   1       7.560  11.786  14.389 -0.43 -0.95    -0.650 OA
DOCKED: BRANCH  38  40
DOCKED: ATOM     40  O   UNL d   1       9.759  11.517  14.436 -0.35 -1.11    -0.776 OA
DOCKED: ATOM     41  H   UNL d   1      10.506  10.902  14.445 +0.02 +0.13    +0.167 HD
DOCKED: ENDBRANCH  38  40
DOCKED: ENDBRANCH  37  38
DOCKED: ENDBRANCH  36  37
DOCKED: ENDBRANCH  22  36
DOCKED: BRANCH  12  42
DOCKED: ATOM     42  C   UNL d   1       6.347  -1.983  11.120 -0.31 -0.00    +0.004 C 
DOCKED: ATOM     43  C   UNL d   1       5.539  -2.641  11.961 -0.24 -0.01    +0.012 C 
DOCKED: ENDBRANCH  12  42
DOCKED: BRANCH  17  44
DOCKED: ATOM     44  C   UNL d   1       2.136   4.192  13.919 -0.50 +0.00    +0.004 C 
DOCKED: ATOM     45  C   UNL d   1       1.523   3.825  15.049 -0.44 -0.00    +0.012 C 
DOCKED: ENDBRANCH  17  44
DOCKED: TORSDOF 10
DOCKED: TER
DOCKED: ENDMDL
________________________________________________________________________________


	BEGINNING GENETIC ALGORITHM DOCKING 7 of 100
Run: 7 Seed: 559613646 2081075398 [ Run 7 of 100 GA/GALS ]
Beginning LAMARCKIAN GENETIC ALGORITHM (LGA), with a maximum of 25000000 energy evaluations.

Final-Value: -10.282


	FINAL GENETIC ALGORITHM DOCKED STATE
	_______________________________________________


Detailed state:  trans 2.175 -16.832 -9.666 quatxyzw 0.417936 0.490702 0.204369 0.736732 center -0.174 -0.001 -0.047 ntor 10 -143.3454 62.9673 17.1847 -164.9283 -58.1759 -156.0083 -39.8637 -62.5749 9.3603 176.9469
State:	  2.175 -16.832  -9.666   0.618  0.726  0.302 85.092   -143.35   62.97   17.18 -164.93  -58.18 -156.01  -39.86  -62.57    9.36  176.95

DOCKED: MODEL        7
DOCKED: USER    Run = 7
DOCKED: USER    DPF = D:/Protein_go_brrr/autodock/final/mut_Y35F/heme_Fe/dock.dpf
DOCKED: USER  
DOCKED: USER    Estimated Free Energy of Binding    =   -6.62 kcal/mol  [=(1)+(2)+(3)-(4)]
DOCKED: USER    Estimated Inhibition Constant, Ki   =   14.11 uM (micromolar)  [Temperature = 298.15 K]
DOCKED: USER    
DOCKED: USER    (1) Final Intermolecular Energy     =   -9.60 kcal/mol
DOCKED: USER        vdW + Hbond + desolv Energy     =   -8.77 kcal/mol
DOCKED: USER        Electrostatic Energy            =   -0.83 kcal/mol
DOCKED: USER    (2) Final Total Internal Energy     =   -0.68 kcal/mol
DOCKED: USER    (3) Torsional Free Energy           =   +2.98 kcal/mol
DOCKED: USER    (4) Unbound System's Energy  [=(2)] =   -0.68 kcal/mol
DOCKED: USER    
DOCKED: USER    
DOCKED: USER    NEWDPF move heme_Fe_opt.pdbqt
DOCKED: USER    NEWDPF about -0.174000 -0.001000 -0.047000
DOCKED: USER    NEWDPF tran0 2.174927 -16.831906 -9.665847
DOCKED: USER    NEWDPF quaternion0 0.417936 0.490702 0.204369 0.736732
DOCKED: USER    NEWDPF axisangle0 0.618080 0.725692 0.302238 85.092467
DOCKED: USER    NEWDPF quat0 0.618080 0.725692 0.302238 85.092467
DOCKED: USER    NEWDPF dihe0 -143.35 62.97 17.18 -164.93 -58.18 -156.01 -39.86 -62.57 9.36 176.95 
DOCKED: USER  keepresnum = 1 
DOCKED: USER  
DOCKED: REMARK  10 active torsions:
DOCKED: REMARK  status: ('A' for Active; 'I' for Inactive)
DOCKED: REMARK    1  A    between atoms: C_6  and  C_10 
DOCKED: REMARK    2  A    between atoms: C_10  and  C_11 
DOCKED: REMARK    3  A    between atoms: C_11  and  C_12 
DOCKED: REMARK    4  A    between atoms: C_12  and  O_14 
DOCKED: REMARK    5  A    between atoms: C_17  and  C_20 
DOCKED: REMARK    6  A    between atoms: C_24  and  C_27 
DOCKED: REMARK    7  A    between atoms: C_31  and  C_34 
DOCKED: REMARK    8  A    between atoms: C_34  and  C_35 
DOCKED: REMARK    9  A    between atoms: C_35  and  C_36 
DOCKED: REMARK   10  A    between atoms: C_36  and  O_38 
DOCKED: USER                              x       y       z     vdW  Elec       q    Type
DOCKED: USER                           _______ _______ _______ _____ _____    ______ ____
DOCKED: ROOT
DOCKED: ATOM      1  C   UNL d   1       0.978 -16.647 -11.322 -0.27 -0.01    +0.064 C 
DOCKED: ATOM      2  C   UNL d   1       0.308 -18.293  -6.710 -0.16 -0.06    +0.064 A 
DOCKED: ATOM      3  C   UNL d   1       4.437 -16.196  -5.436 -0.25 -0.02    +0.064 C 
DOCKED: ATOM      4  C   UNL d   1       5.157 -14.683  -9.917 -0.25 -0.02    +0.064 C 
DOCKED: ATOM      5  C   UNL d   1       0.448 -17.376 -10.161 -0.27 -0.01    +0.066 A 
DOCKED: ATOM      6  C   UNL d   1      -0.673 -18.189 -10.182 -0.31 +0.00    -0.021 A 
DOCKED: ATOM      7  C   UNL d   1      -0.861 -18.642  -8.900 -0.32 +0.01    -0.025 A 
DOCKED: ATOM      8  C   UNL d   1       0.155 -18.088  -8.145 -0.32 -0.04    +0.066 A 
DOCKED: ATOM      9  C   UNL d   1      -1.944 -19.569  -8.441 -0.23 -0.03    +0.051 C 
DOCKED: ATOM     10  C   UNL d   1       1.310 -17.817  -5.969 -0.30 -0.04    +0.066 A 
DOCKED: ATOM     11  C   UNL d   1       1.369 -17.934  -4.578 -0.23 +0.01    -0.021 A 
DOCKED: ATOM     12  C   UNL d   1       2.542 -17.322  -4.184 -0.23 -0.00    +0.000 A 
DOCKED: ATOM     13  C   UNL d   1       3.141 -16.852  -5.366 -0.24 -0.02    +0.070 A 
DOCKED: ATOM     14  C   UNL d   1       0.324 -18.537  -3.662 -0.29 -0.03    +0.052 C 
DOCKED: ATOM     15  C   UNL d   1       4.994 -15.696  -6.564 -0.21 -0.02    +0.066 A 
DOCKED: ATOM     16  C   UNL d   1       6.277 -15.166  -6.607 -0.19 +0.01    -0.021 A 
DOCKED: ATOM     17  C   UNL d   1       6.485 -14.726  -7.897 -0.20 -0.00    +0.000 A 
DOCKED: ATOM     18  C   UNL d   1       5.321 -14.995  -8.612 -0.22 -0.03    +0.070 A 
DOCKED: ATOM     19  C   UNL d   1       7.261 -15.053  -5.474 -0.20 -0.04    +0.052 C 
DOCKED: ATOM     20  C   UNL d   1       3.970 -15.006 -10.717 -0.22 -0.02    +0.066 A 
DOCKED: ATOM     21  C   UNL d   1       3.704 -14.517 -12.004 -0.21 +0.01    -0.025 A 
DOCKED: ATOM     22  C   UNL d   1       2.514 -15.100 -12.390 -0.18 +0.01    -0.021 A 
DOCKED: ATOM     23  C   UNL d   1       2.100 -15.911 -11.327 -0.22 -0.02    +0.066 A 
DOCKED: ATOM     24  C   UNL d   1       4.517 -13.551 -12.833 -0.13 -0.01    +0.051 C 
DOCKED: ATOM     25  N   UNL d   1       0.955 -17.326  -8.917 -0.19 +0.11    -0.248 N 
DOCKED: ATOM     26  N   UNL d   1       2.386 -17.146  -6.453 -0.12 +0.13    -0.248 N 
DOCKED: ATOM     27  N   UNL d   1       4.419 -15.631  -7.805 -0.04 +0.12    -0.248 N 
DOCKED: ATOM     28  N   UNL d   1       2.969 -15.815 -10.292 -0.15 +0.10    -0.248 N 
DOCKED: ATOM     29 FE   UNL d   1       2.679 -16.479  -8.373 -0.05 -0.00    +0.000 Fe
DOCKED: ENDROOT
DOCKED: BRANCH   6  30
DOCKED: ATOM     30  C   UNL d   1      -1.514 -18.536 -11.363 -0.28 +0.01    +0.052 C 
DOCKED: BRANCH  30  31
DOCKED: ATOM     31  C   UNL d   1      -1.126 -19.901 -11.920 -0.15 +0.02    +0.115 C 
DOCKED: BRANCH  31  32
DOCKED: ATOM     32  C   UNL d   1      -2.351 -20.667 -12.335 -0.10 +0.07    +0.139 C 
DOCKED: ATOM     33  O   UNL d   1      -3.236 -20.912 -11.527 -0.02 -0.29    -0.650 OA
DOCKED: BRANCH  32  34
DOCKED: ATOM     34  O   UNL d   1      -2.484 -21.092 -13.603 -0.06 -0.75    -0.776 OA
DOCKED: ATOM     35  H   UNL d   1      -1.700 -21.397 -14.080 +0.01 +0.12    +0.167 HD
DOCKED: ENDBRANCH  32  34
DOCKED: ENDBRANCH  31  32
DOCKED: ENDBRANCH  30  31
DOCKED: ENDBRANCH   6  30
DOCKED: BRANCH  22  36
DOCKED: ATOM     36  C   UNL d   1       1.793 -14.850 -13.689 -0.14 -0.01    +0.052 C 
DOCKED: BRANCH  36  37
DOCKED: ATOM     37  C   UNL d   1       0.899 -13.627 -13.553 -0.23 -0.02    +0.115 C 
DOCKED: BRANCH  37  38
DOCKED: ATOM     38  C   UNL d   1       1.340 -12.532 -14.484 -0.18 -0.01    +0.139 C 
DOCKED: ATOM     39  O   UNL d   1       1.067 -11.364 -14.248 -0.48 -0.06    -0.650 OA
DOCKED: BRANCH  38  40
DOCKED: ATOM     40  O   UNL d   1       2.038 -12.834 -15.592 +0.03 +0.02    -0.776 OA
DOCKED: ATOM     41  H   UNL d   1       2.939 -12.494 -15.688 +0.02 -0.01    +0.167 HD
DOCKED: ENDBRANCH  38  40
DOCKED: ENDBRANCH  37  38
DOCKED: ENDBRANCH  36  37
DOCKED: ENDBRANCH  22  36
DOCKED: BRANCH  12  42
DOCKED: ATOM     42  C   UNL d   1       3.011 -17.200  -2.769 -0.32 -0.00    +0.004 C 
DOCKED: ATOM     43  C   UNL d   1       3.334 -18.286  -2.054 -0.26 -0.00    +0.012 C 
DOCKED: ENDBRANCH  12  42
DOCKED: BRANCH  17  44
DOCKED: ATOM     44  C   UNL d   1       7.726 -14.108  -8.417 -0.17 -0.00    +0.004 C 
DOCKED: ATOM     45  C   UNL d   1       7.755 -12.816  -8.761 -0.24 -0.01    +0.012 C 
DOCKED: ENDBRANCH  17  44
DOCKED: TORSDOF 10
DOCKED: TER
DOCKED: ENDMDL
________________________________________________________________________________


	BEGINNING GENETIC ALGORITHM DOCKING 8 of 100
Run: 8 Seed: 724467121 743406593 [ Run 8 of 100 GA/GALS ]
Beginning LAMARCKIAN GENETIC ALGORITHM (LGA), with a maximum of 25000000 energy evaluations.

Final-Value: -9.905


	FINAL GENETIC ALGORITHM DOCKED STATE
	_______________________________________________


Detailed state:  trans -10.157 0.535 -6.888 quatxyzw -0.360970 0.810286 0.402160 0.226724 center -0.174 -0.001 -0.047 ntor 10 130.3161 48.2965 25.6021 -137.9761 -177.1632 150.9698 -53.1343 100.9146 170.0028 180.0000
State:	-10.157   0.535  -6.888  -0.371  0.832  0.413 153.791    130.32   48.30   25.60 -137.98 -177.16  150.97  -53.13  100.91  170.00  180.00

DOCKED: MODEL        8
DOCKED: USER    Run = 8
DOCKED: USER    DPF = D:/Protein_go_brrr/autodock/final/mut_Y35F/heme_Fe/dock.dpf
DOCKED: USER  
DOCKED: USER    Estimated Free Energy of Binding    =   -5.21 kcal/mol  [=(1)+(2)+(3)-(4)]
DOCKED: USER    Estimated Inhibition Constant, Ki   =  151.35 uM (micromolar)  [Temperature = 298.15 K]
DOCKED: USER    
DOCKED: USER    (1) Final Intermolecular Energy     =   -8.19 kcal/mol
DOCKED: USER        vdW + Hbond + desolv Energy     =   -7.23 kcal/mol
DOCKED: USER        Electrostatic Energy            =   -0.96 kcal/mol
DOCKED: USER    (2) Final Total Internal Energy     =   -1.71 kcal/mol
DOCKED: USER    (3) Torsional Free Energy           =   +2.98 kcal/mol
DOCKED: USER    (4) Unbound System's Energy  [=(2)] =   -1.71 kcal/mol
DOCKED: USER    
DOCKED: USER    
DOCKED: USER    NEWDPF move heme_Fe_opt.pdbqt
DOCKED: USER    NEWDPF about -0.174000 -0.001000 -0.047000
DOCKED: USER    NEWDPF tran0 -10.157124 0.535265 -6.887635
DOCKED: USER    NEWDPF quaternion0 -0.360970 0.810286 0.402160 0.226724
DOCKED: USER    NEWDPF axisangle0 -0.370621 0.831951 0.412912 153.791398
DOCKED: USER    NEWDPF quat0 -0.370621 0.831951 0.412912 153.791398
DOCKED: USER    NEWDPF dihe0 130.32 48.30 25.60 -137.98 -177.16 150.97 -53.13 100.91 170.00 180.00 
DOCKED: USER  keepresnum = 1 
DOCKED: USER  
DOCKED: REMARK  10 active torsions:
DOCKED: REMARK  status: ('A' for Active; 'I' for Inactive)
DOCKED: REMARK    1  A    between atoms: C_6  and  C_10 
DOCKED: REMARK    2  A    between atoms: C_10  and  C_11 
DOCKED: REMARK    3  A    between atoms: C_11  and  C_12 
DOCKED: REMARK    4  A    between atoms: C_12  and  O_14 
DOCKED: REMARK    5  A    between atoms: C_17  and  C_20 
DOCKED: REMARK    6  A    between atoms: C_24  and  C_27 
DOCKED: REMARK    7  A    between atoms: C_31  and  C_34 
DOCKED: REMARK    8  A    between atoms: C_34  and  C_35 
DOCKED: REMARK    9  A    between atoms: C_35  and  C_36 
DOCKED: REMARK   10  A    between atoms: C_36  and  O_38 
DOCKED: USER                              x       y       z     vdW  Elec       q    Type
DOCKED: USER                           _______ _______ _______ _____ _____    ______ ____
DOCKED: ROOT
DOCKED: ATOM      1  C   UNL d   1      -9.222   2.290  -7.394 -0.24 +0.01    +0.064 C 
DOCKED: ATOM      2  C   UNL d   1     -10.081  -1.990  -9.712 -0.17 +0.01    +0.064 A 
DOCKED: ATOM      3  C   UNL d   1     -13.310  -3.093  -6.333 -0.28 +0.01    +0.064 C 
DOCKED: ATOM      4  C   UNL d   1     -12.419   0.997  -4.016 -0.24 +0.00    +0.064 C 
DOCKED: ATOM      5  C   UNL d   1      -9.104   1.151  -8.314 -0.18 +0.00    +0.066 A 
DOCKED: ATOM      6  C   UNL d   1      -8.190   1.064  -9.352 -0.18 -0.00    -0.021 A 
DOCKED: ATOM      7  C   UNL d   1      -8.432  -0.123  -9.997 -0.13 -0.00    -0.025 A 
DOCKED: ATOM      8  C   UNL d   1      -9.485  -0.716  -9.328 -0.12 +0.01    +0.066 A 
DOCKED: ATOM      9  C   UNL d   1      -7.677  -0.657 -11.176 -0.09 +0.00    +0.051 C 
DOCKED: ATOM     10  C   UNL d   1     -11.058  -2.611  -9.050 -0.20 +0.01    +0.066 A 
DOCKED: ATOM     11  C   UNL d   1     -11.686  -3.772  -9.506 -0.20 -0.00    -0.021 A 
DOCKED: ATOM     12  C   UNL d   1     -12.634  -4.102  -8.557 -0.25 +0.00    +0.000 A 
DOCKED: ATOM     13  C   UNL d   1     -12.539  -3.110  -7.566 -0.22 +0.01    +0.070 A 
DOCKED: ATOM     14  C   UNL d   1     -11.444  -4.495 -10.816 -0.15 +0.00    +0.052 C 
DOCKED: ATOM     15  C   UNL d   1     -13.260  -2.113  -5.400 -0.20 +0.01    +0.066 A 
DOCKED: ATOM     16  C   UNL d   1     -13.937  -2.182  -4.189 -0.33 -0.00    -0.021 A 
DOCKED: ATOM     17  C   UNL d   1     -13.684  -1.002  -3.521 -0.32 +0.00    +0.000 A 
DOCKED: ATOM     18  C   UNL d   1     -12.860  -0.237  -4.343 -0.20 +0.01    +0.070 A 
DOCKED: ATOM     19  C   UNL d   1     -14.810  -3.302  -3.688 -0.33 +0.01    +0.052 C 
DOCKED: ATOM     20  C   UNL d   1     -11.501   1.805  -4.828 -0.17 +0.00    +0.066 A 
DOCKED: ATOM     21  C   UNL d   1     -11.195   3.155  -4.602 -0.12 -0.00    -0.025 A 
DOCKED: ATOM     22  C   UNL d   1     -10.273   3.499  -5.569 -0.17 -0.00    -0.021 A 
DOCKED: ATOM     23  C   UNL d   1     -10.058   2.355  -6.346 -0.18 +0.00    +0.066 A 
DOCKED: ATOM     24  C   UNL d   1     -11.739   4.081  -3.539 -0.11 +0.00    +0.051 C 
DOCKED: ATOM     25  N   UNL d   1      -9.885   0.057  -8.299 -0.09 -0.01    -0.248 N 
DOCKED: ATOM     26  N   UNL d   1     -11.585  -2.196  -7.870 -0.12 -0.04    -0.248 N 
DOCKED: ATOM     27  N   UNL d   1     -12.563  -0.937  -5.479 -0.06 -0.03    -0.248 N 
DOCKED: ATOM     28  N   UNL d   1     -10.844   1.337  -5.916 -0.13 +0.01    -0.248 N 
DOCKED: ATOM     29 FE   UNL d   1     -11.215  -0.429  -6.892 -0.05 +0.00    +0.000 Fe
DOCKED: ENDROOT
DOCKED: BRANCH   6  30
DOCKED: ATOM     30  C   UNL d   1      -7.126   2.048  -9.701 -0.15 +0.01    +0.052 C 
DOCKED: BRANCH  30  31
DOCKED: ATOM     31  C   UNL d   1      -7.560   2.918 -10.876 -0.06 +0.02    +0.115 C 
DOCKED: BRANCH  31  32
DOCKED: ATOM     32  C   UNL d   1      -7.424   4.375 -10.530 -0.10 +0.05    +0.139 C 
DOCKED: ATOM     33  O   UNL d   1      -7.770   5.239 -11.323 +0.01 -0.17    -0.650 OA
DOCKED: BRANCH  32  34
DOCKED: ATOM     34  O   UNL d   1      -6.920   4.742  -9.340 -0.44 -0.71    -0.776 OA
DOCKED: ATOM     35  H   UNL d   1      -7.274   4.338  -8.535 +0.05 +0.19    +0.167 HD
DOCKED: ENDBRANCH  32  34
DOCKED: ENDBRANCH  31  32
DOCKED: ENDBRANCH  30  31
DOCKED: ENDBRANCH   6  30
DOCKED: BRANCH  22  36
DOCKED: ATOM     36  C   UNL d   1      -9.671   4.866  -5.762 -0.06 +0.03    +0.052 C 
DOCKED: BRANCH  36  37
DOCKED: ATOM     37  C   UNL d   1     -10.618   5.734  -6.578 -0.11 +0.04    +0.115 C 
DOCKED: BRANCH  37  38
DOCKED: ATOM     38  C   UNL d   1     -10.507   5.422  -8.043 -0.07 +0.05    +0.139 C 
DOCKED: ATOM     39  O   UNL d   1     -11.464   5.572  -8.789 +0.02 -0.11    -0.650 OA
DOCKED: BRANCH  38  40
DOCKED: ATOM     40  O   UNL d   1      -9.345   4.969  -8.547 +0.01 -0.46    -0.776 OA
DOCKED: ATOM     41  H   UNL d   1      -8.990   5.377  -9.350 +0.02 +0.10    +0.167 HD
DOCKED: ENDBRANCH  38  40
DOCKED: ENDBRANCH  37  38
DOCKED: ENDBRANCH  36  37
DOCKED: ENDBRANCH  22  36
DOCKED: BRANCH  12  42
DOCKED: ATOM     42  C   UNL d   1     -13.555  -5.277  -8.640 -0.28 +0.00    +0.004 C 
DOCKED: ATOM     43  C   UNL d   1     -13.105  -6.522  -8.438 -0.41 -0.00    +0.012 C 
DOCKED: ENDBRANCH  12  42
DOCKED: BRANCH  17  44
DOCKED: ATOM     44  C   UNL d   1     -14.182  -0.640  -2.175 -0.26 +0.00    +0.004 C 
DOCKED: ATOM     45  C   UNL d   1     -15.398  -0.108  -2.014 -0.18 +0.00    +0.012 C 
DOCKED: ENDBRANCH  17  44
DOCKED: TORSDOF 10
DOCKED: TER
DOCKED: ENDMDL
________________________________________________________________________________


	BEGINNING GENETIC ALGORITHM DOCKING 9 of 100
Run: 9 Seed: 102671500 2051865778 [ Run 9 of 100 GA/GALS ]
Beginning LAMARCKIAN GENETIC ALGORITHM (LGA), with a maximum of 25000000 energy evaluations.

Final-Value: -11.401


	FINAL GENETIC ALGORITHM DOCKED STATE
	_______________________________________________


Detailed state:  trans -10.221 5.454 17.212 quatxyzw 0.892094 -0.260717 0.328876 -0.167437 center -0.174 -0.001 -0.047 ntor 10 -127.0326 165.8819 -155.0205 -162.6600 -70.7634 -95.1114 23.6874 87.2452 -29.9569 -159.4736
State:	-10.221   5.454  17.212   0.905 -0.264  0.334 -160.722   -127.03  165.88 -155.02 -162.66  -70.76  -95.11   23.69   87.25  -29.96 -159.47

DOCKED: MODEL        9
DOCKED: USER    Run = 9
DOCKED: USER    DPF = D:/Protein_go_brrr/autodock/final/mut_Y35F/heme_Fe/dock.dpf
DOCKED: USER  
DOCKED: USER    Estimated Free Energy of Binding    =   -7.94 kcal/mol  [=(1)+(2)+(3)-(4)]
DOCKED: USER    Estimated Inhibition Constant, Ki   =    1.51 uM (micromolar)  [Temperature = 298.15 K]
DOCKED: USER    
DOCKED: USER    (1) Final Intermolecular Energy     =  -10.92 kcal/mol
DOCKED: USER        vdW + Hbond + desolv Energy     =   -7.21 kcal/mol
DOCKED: USER        Electrostatic Energy            =   -3.72 kcal/mol
DOCKED: USER    (2) Final Total Internal Energy     =   -0.48 kcal/mol
DOCKED: USER    (3) Torsional Free Energy           =   +2.98 kcal/mol
DOCKED: USER    (4) Unbound System's Energy  [=(2)] =   -0.48 kcal/mol
DOCKED: USER    
DOCKED: USER    
DOCKED: USER    NEWDPF move heme_Fe_opt.pdbqt
DOCKED: USER    NEWDPF about -0.174000 -0.001000 -0.047000
DOCKED: USER    NEWDPF tran0 -10.220624 5.453934 17.211604
DOCKED: USER    NEWDPF quaternion0 0.892094 -0.260717 0.328876 -0.167437
DOCKED: USER    NEWDPF axisangle0 0.904868 -0.264451 0.333585 -160.722324
DOCKED: USER    NEWDPF quat0 0.904868 -0.264451 0.333585 -160.722324
DOCKED: USER    NEWDPF dihe0 -127.03 165.88 -155.02 -162.66 -70.76 -95.11 23.69 87.25 -29.96 -159.47 
DOCKED: USER  keepresnum = 1 
DOCKED: USER  
DOCKED: REMARK  10 active torsions:
DOCKED: REMARK  status: ('A' for Active; 'I' for Inactive)
DOCKED: REMARK    1  A    between atoms: C_6  and  C_10 
DOCKED: REMARK    2  A    between atoms: C_10  and  C_11 
DOCKED: REMARK    3  A    between atoms: C_11  and  C_12 
DOCKED: REMARK    4  A    between atoms: C_12  and  O_14 
DOCKED: REMARK    5  A    between atoms: C_17  and  C_20 
DOCKED: REMARK    6  A    between atoms: C_24  and  C_27 
DOCKED: REMARK    7  A    between atoms: C_31  and  C_34 
DOCKED: REMARK    8  A    between atoms: C_34  and  C_35 
DOCKED: REMARK    9  A    between atoms: C_35  and  C_36 
DOCKED: REMARK   10  A    between atoms: C_36  and  O_38 
DOCKED: USER                              x       y       z     vdW  Elec       q    Type
DOCKED: USER                           _______ _______ _______ _____ _____    ______ ____
DOCKED: ROOT
DOCKED: ATOM      1  C   UNL d   1     -11.204   5.955  15.482 -0.21 +0.02    +0.064 C 
DOCKED: ATOM      2  C   UNL d   1      -7.023   7.436  17.661 -0.15 +0.01    +0.064 A 
DOCKED: ATOM      3  C   UNL d   1      -7.220   3.573  20.508 -0.09 +0.00    +0.064 C 
DOCKED: ATOM      4  C   UNL d   1     -11.323   2.177  18.484 -0.11 +0.00    +0.064 C 
DOCKED: ATOM      5  C   UNL d   1     -10.054   6.774  15.888 -0.19 +0.02    +0.066 A 
DOCKED: ATOM      6  C   UNL d   1      -9.744   8.018  15.362 -0.24 -0.01    -0.021 A 
DOCKED: ATOM      7  C   UNL d   1      -8.581   8.427  15.966 -0.23 -0.01    -0.025 A 
DOCKED: ATOM      8  C   UNL d   1      -8.225   7.416  16.837 -0.18 +0.01    +0.066 A 
DOCKED: ATOM      9  C   UNL d   1      -7.870   9.724  15.726 -0.23 +0.01    +0.051 C 
DOCKED: ATOM     10  C   UNL d   1      -6.686   6.501  18.552 -0.12 +0.00    +0.066 A 
DOCKED: ATOM     11  C   UNL d   1      -5.472   6.491  19.243 -0.10 -0.00    -0.021 A 
DOCKED: ATOM     12  C   UNL d   1      -5.497   5.377  20.059 -0.08 +0.00    +0.000 A 
DOCKED: ATOM     13  C   UNL d   1      -6.734   4.755  19.814 -0.09 +0.01    +0.070 A 
DOCKED: ATOM     14  C   UNL d   1      -4.316   7.457  19.084 -0.10 -0.00    +0.052 C 
DOCKED: ATOM     15  C   UNL d   1      -8.386   2.940  20.240 -0.08 +0.01    +0.066 A 
DOCKED: ATOM     16  C   UNL d   1      -8.861   1.873  20.992 -0.06 -0.00    -0.021 A 
DOCKED: ATOM     17  C   UNL d   1     -10.043   1.467  20.408 -0.08 +0.00    +0.000 A 
DOCKED: ATOM     18  C   UNL d   1     -10.259   2.294  19.308 -0.05 +0.00    +0.070 A 
DOCKED: ATOM     19  C   UNL d   1      -8.219   1.242  22.198 -0.02 +0.00    +0.052 C 
DOCKED: ATOM     20  C   UNL d   1     -11.615   3.067  17.354 -0.07 -0.00    +0.066 A 
DOCKED: ATOM     21  C   UNL d   1     -12.595   2.841  16.377 -0.19 -0.00    -0.025 A 
DOCKED: ATOM     22  C   UNL d   1     -12.552   3.936  15.539 -0.18 -0.00    -0.021 A 
DOCKED: ATOM     23  C   UNL d   1     -11.550   4.780  16.031 -0.17 +0.01    +0.066 A 
DOCKED: ATOM     24  C   UNL d   1     -13.524   1.659  16.228 -0.21 +0.00    +0.051 C 
DOCKED: ATOM     25  N   UNL d   1      -9.128   6.416  16.794 -0.15 -0.04    -0.248 N 
DOCKED: ATOM     26  N   UNL d   1      -7.455   5.435  18.889 -0.09 -0.02    -0.248 N 
DOCKED: ATOM     27  N   UNL d   1      -9.264   3.228  19.230 -0.07 -0.02    -0.248 N 
DOCKED: ATOM     28  N   UNL d   1     -10.951   4.223  17.112 -0.08 -0.00    -0.248 N 
DOCKED: ATOM     29 FE   UNL d   1      -9.204   4.827  18.001 -0.04 +0.00    +0.000 Fe
DOCKED: ENDROOT
DOCKED: BRANCH   6  30
DOCKED: ATOM     30  C   UNL d   1     -10.524   8.790  14.354 -0.11 +0.03    +0.052 C 
DOCKED: BRANCH  30  31
DOCKED: ATOM     31  C   UNL d   1     -11.933   9.073  14.862 -0.18 +0.07    +0.115 C 
DOCKED: BRANCH  31  32
DOCKED: ATOM     32  C   UNL d   1     -12.870   9.310  13.710 +0.02 +0.19    +0.139 C 
DOCKED: ATOM     33  O   UNL d   1     -12.791  10.332  13.043 -0.66 -1.11    -0.650 OA
DOCKED: BRANCH  32  34
DOCKED: ATOM     34  O   UNL d   1     -13.806   8.397  13.403 -0.47 -1.20    -0.776 OA
DOCKED: ATOM     35  H   UNL d   1     -14.407   8.089  14.096 +0.02 +0.13    +0.167 HD
DOCKED: ENDBRANCH  32  34
DOCKED: ENDBRANCH  31  32
DOCKED: ENDBRANCH  30  31
DOCKED: ENDBRANCH   6  30
DOCKED: BRANCH  22  36
DOCKED: ATOM     36  C   UNL d   1     -13.396   4.135  14.307 -0.19 +0.02    +0.052 C 
DOCKED: BRANCH  36  37
DOCKED: ATOM     37  C   UNL d   1     -13.087   3.043  13.293 -0.33 +0.07    +0.115 C 
DOCKED: BRANCH  37  38
DOCKED: ATOM     38  C   UNL d   1     -12.033   3.493  12.321 -0.43 +0.16    +0.139 C 
DOCKED: ATOM     39  O   UNL d   1     -12.343   3.974  11.241 -0.45 -1.47    -0.650 OA
DOCKED: BRANCH  38  40
DOCKED: ATOM     40  O   UNL d   1     -10.732   3.365  12.636 -0.54 -0.73    -0.776 OA
DOCKED: ATOM     41  H   UNL d   1     -10.486   3.184  13.553 -0.00 +0.10    +0.167 HD
DOCKED: ENDBRANCH  38  40
DOCKED: ENDBRANCH  37  38
DOCKED: ENDBRANCH  36  37
DOCKED: ENDBRANCH  22  36
DOCKED: BRANCH  12  42
DOCKED: ATOM     42  C   UNL d   1      -4.391   4.963  20.976 -0.04 -0.00    +0.004 C 
DOCKED: ATOM     43  C   UNL d   1      -3.620   3.905  20.692 -0.05 -0.00    +0.012 C 
DOCKED: ENDBRANCH  12  42
DOCKED: BRANCH  17  44
DOCKED: ATOM     44  C   UNL d   1     -10.919   0.372  20.883 -0.05 +0.00    +0.004 C 
DOCKED: ATOM     45  C   UNL d   1     -11.009  -0.776  20.203 -0.07 +0.00    +0.012 C 
DOCKED: ENDBRANCH  17  44
DOCKED: TORSDOF 10
DOCKED: TER
DOCKED: ENDMDL
________________________________________________________________________________


	BEGINNING GENETIC ALGORITHM DOCKING 10 of 100
Run: 10 Seed: 1697452749 1445652571 [ Run 10 of 100 GA/GALS ]
Beginning LAMARCKIAN GENETIC ALGORITHM (LGA), with a maximum of 25000000 energy evaluations.

Final-Value: -9.333


	FINAL GENETIC ALGORITHM DOCKED STATE
	_______________________________________________


Detailed state:  trans 2.419 14.617 -10.977 quatxyzw 0.242715 -0.775434 -0.577368 -0.080240 center -0.174 -0.001 -0.047 ntor 10 -25.2492 159.5220 66.5108 83.4992 4.7591 90.5938 -66.0319 10.9017 -153.3008 20.3200
State:	  2.419  14.617 -10.977   0.243 -0.778 -0.579 -170.795    -25.25  159.52   66.51   83.50    4.76   90.59  -66.03   10.90 -153.30   20.32

DOCKED: MODEL       10
DOCKED: USER    Run = 10
DOCKED: USER    DPF = D:/Protein_go_brrr/autodock/final/mut_Y35F/heme_Fe/dock.dpf
DOCKED: USER  
DOCKED: USER    Estimated Free Energy of Binding    =   -4.15 kcal/mol  [=(1)+(2)+(3)-(4)]
DOCKED: USER    Estimated Inhibition Constant, Ki   =  907.33 uM (micromolar)  [Temperature = 298.15 K]
DOCKED: USER    
DOCKED: USER    (1) Final Intermolecular Energy     =   -7.13 kcal/mol
DOCKED: USER        vdW + Hbond + desolv Energy     =   -6.53 kcal/mol
DOCKED: USER        Electrostatic Energy            =   -0.60 kcal/mol
DOCKED: USER    (2) Final Total Internal Energy     =   -2.20 kcal/mol
DOCKED: USER    (3) Torsional Free Energy           =   +2.98 kcal/mol
DOCKED: USER    (4) Unbound System's Energy  [=(2)] =   -2.20 kcal/mol
DOCKED: USER    
DOCKED: USER    
DOCKED: USER    NEWDPF move heme_Fe_opt.pdbqt
DOCKED: USER    NEWDPF about -0.174000 -0.001000 -0.047000
DOCKED: USER    NEWDPF tran0 2.419277 14.616943 -10.976757
DOCKED: USER    NEWDPF quaternion0 0.242715 -0.775434 -0.577368 -0.080240
DOCKED: USER    NEWDPF axisangle0 0.243500 -0.777942 -0.579235 -170.795306
DOCKED: USER    NEWDPF quat0 0.243500 -0.777942 -0.579235 -170.795306
DOCKED: USER    NEWDPF dihe0 -25.25 159.52 66.51 83.50 4.76 90.59 -66.03 10.90 -153.30 20.32 
DOCKED: USER  keepresnum = 1 
DOCKED: USER  
DOCKED: REMARK  10 active torsions:
DOCKED: REMARK  status: ('A' for Active; 'I' for Inactive)
DOCKED: REMARK    1  A    between atoms: C_6  and  C_10 
DOCKED: REMARK    2  A    between atoms: C_10  and  C_11 
DOCKED: REMARK    3  A    between atoms: C_11  and  C_12 
DOCKED: REMARK    4  A    between atoms: C_12  and  O_14 
DOCKED: REMARK    5  A    between atoms: C_17  and  C_20 
DOCKED: REMARK    6  A    between atoms: C_24  and  C_27 
DOCKED: REMARK    7  A    between atoms: C_31  and  C_34 
DOCKED: REMARK    8  A    between atoms: C_34  and  C_35 
DOCKED: REMARK    9  A    between atoms: C_35  and  C_36 
DOCKED: REMARK   10  A    between atoms: C_36  and  O_38 
DOCKED: USER                              x       y       z     vdW  Elec       q    Type
DOCKED: USER                           _______ _______ _______ _____ _____    ______ ____
DOCKED: ROOT
DOCKED: ATOM      1  C   UNL d   1       3.943  15.989 -10.894 -0.16 +0.01    +0.064 C 
DOCKED: ATOM      2  C   UNL d   1       1.790  13.393 -14.507 -0.12 -0.00    +0.064 A 
DOCKED: ATOM      3  C   UNL d   1      -1.837  12.382 -11.526 -0.18 -0.01    +0.064 C 
DOCKED: ATOM      4  C   UNL d   1       0.280  14.802  -7.983 -0.26 -0.01    +0.064 C 
DOCKED: ATOM      5  C   UNL d   1       3.714  15.283 -12.162 -0.20 +0.00    +0.066 A 
DOCKED: ATOM      6  C   UNL d   1       4.605  15.251 -13.222 -0.15 -0.00    -0.021 A 
DOCKED: ATOM      7  C   UNL d   1       4.005  14.534 -14.226 -0.13 -0.00    -0.025 A 
DOCKED: ATOM      8  C   UNL d   1       2.769  14.154 -13.740 -0.15 -0.00    +0.066 A 
DOCKED: ATOM      9  C   UNL d   1       4.601  14.220 -15.564 -0.07 -0.00    +0.051 C 
DOCKED: ATOM     10  C   UNL d   1       0.615  12.965 -14.043 -0.12 -0.00    +0.066 A 
DOCKED: ATOM     11  C   UNL d   1      -0.350  12.339 -14.836 -0.09 +0.00    -0.021 A 
DOCKED: ATOM     12  C   UNL d   1      -1.413  12.052 -14.003 -0.10 -0.00    +0.000 A 
DOCKED: ATOM     13  C   UNL d   1      -1.041  12.531 -12.735 -0.13 -0.00    +0.070 A 
DOCKED: ATOM     14  C   UNL d   1      -0.290  12.087 -16.329 -0.04 -0.00    +0.052 C 
DOCKED: ATOM     15  C   UNL d   1      -1.508  12.887 -10.314 -0.17 -0.01    +0.066 A 
DOCKED: ATOM     16  C   UNL d   1      -2.245  12.638  -9.163 -0.23 +0.01    -0.021 A 
DOCKED: ATOM     17  C   UNL d   1      -1.638  13.338  -8.140 -0.27 -0.00    +0.000 A 
DOCKED: ATOM     18  C   UNL d   1      -0.545  14.001  -8.694 -0.22 -0.02    +0.070 A 
DOCKED: ATOM     19  C   UNL d   1      -3.486  11.798  -9.031 -0.24 -0.02    +0.052 C 
DOCKED: ATOM     20  C   UNL d   1       1.474  15.466  -8.518 -0.21 -0.00    +0.066 A 
DOCKED: ATOM     21  C   UNL d   1       2.219  16.450  -7.852 -0.23 -0.00    -0.025 A 
DOCKED: ATOM     22  C   UNL d   1       3.266  16.765  -8.695 -0.21 -0.01    -0.021 A 
DOCKED: ATOM     23  C   UNL d   1       3.115  15.970  -9.837 -0.14 +0.01    +0.066 A 
DOCKED: ATOM     24  C   UNL d   1       1.966  17.071  -6.498 -0.17 +0.02    +0.051 C 
DOCKED: ATOM     25  N   UNL d   1       2.599  14.603 -12.480 -0.15 -0.00    -0.248 N 
DOCKED: ATOM     26  N   UNL d   1       0.191  13.095 -12.760 -0.10 +0.01    -0.248 N 
DOCKED: ATOM     27  N   UNL d   1      -0.438  13.690 -10.020 -0.17 +0.03    -0.248 N 
DOCKED: ATOM     28  N   UNL d   1       1.995  15.212  -9.742 -0.18 -0.00    -0.248 N 
DOCKED: ATOM     29 FE   UNL d   1       1.092  14.154 -11.249 -0.06 -0.00    +0.000 Fe
DOCKED: ENDROOT
DOCKED: BRANCH   6  30
DOCKED: ATOM     30  C   UNL d   1       5.967  15.854 -13.272 -0.11 +0.00    +0.052 C 
DOCKED: BRANCH  30  31
DOCKED: ATOM     31  C   UNL d   1       5.891  17.373 -13.160 -0.03 +0.00    +0.115 C 
DOCKED: BRANCH  31  32
DOCKED: ATOM     32  C   UNL d   1       6.523  17.838 -11.878 -0.03 +0.00    +0.139 C 
DOCKED: ATOM     33  O   UNL d   1       7.081  17.044 -11.134 +0.03 -0.04    -0.650 OA
DOCKED: BRANCH  32  34
DOCKED: ATOM     34  O   UNL d   1       6.479  19.137 -11.537 +0.03 -0.02    -0.776 OA
DOCKED: ATOM     35  H   UNL d   1       6.539  19.380 -10.602 +0.01 +0.01    +0.167 HD
DOCKED: ENDBRANCH  32  34
DOCKED: ENDBRANCH  31  32
DOCKED: ENDBRANCH  30  31
DOCKED: ENDBRANCH   6  30
DOCKED: BRANCH  22  36
DOCKED: ATOM     36  C   UNL d   1       4.321  17.807  -8.435 -0.18 +0.02    +0.052 C 
DOCKED: BRANCH  36  37
DOCKED: ATOM     37  C   UNL d   1       5.688  17.144  -8.355 -0.23 +0.05    +0.115 C 
DOCKED: BRANCH  37  38
DOCKED: ATOM     38  C   UNL d   1       6.727  18.109  -7.857 -0.15 +0.06    +0.139 C 
DOCKED: ATOM     39  O   UNL d   1       6.966  18.211  -6.663 -0.54 -0.56    -0.650 OA
DOCKED: BRANCH  38  40
DOCKED: ATOM     40  O   UNL d   1       7.403  18.877  -8.731 +0.05 -0.12    -0.776 OA
DOCKED: ATOM     41  H   UNL d   1       7.447  18.606  -9.658 +0.03 +0.02    +0.167 HD
DOCKED: ENDBRANCH  38  40
DOCKED: ENDBRANCH  37  38
DOCKED: ENDBRANCH  36  37
DOCKED: ENDBRANCH  22  36
DOCKED: BRANCH  12  42
DOCKED: ATOM     42  C   UNL d   1      -2.681  11.386 -14.433 -0.05 -0.00    +0.004 C 
DOCKED: ATOM     43  C   UNL d   1      -3.011  10.171 -13.973 -0.07 -0.00    +0.012 C 
DOCKED: ENDBRANCH  12  42
DOCKED: BRANCH  17  44
DOCKED: ATOM     44  C   UNL d   1      -2.064  13.354  -6.723 -0.18 -0.00    +0.004 C 
DOCKED: ATOM     45  C   UNL d   1      -1.165  13.273  -5.737 -0.43 -0.01    +0.012 C 
DOCKED: ENDBRANCH  17  44
DOCKED: TORSDOF 10
DOCKED: TER
DOCKED: ENDMDL
________________________________________________________________________________


	BEGINNING GENETIC ALGORITHM DOCKING 11 of 100
Run: 11 Seed: 228115128 464366300 [ Run 11 of 100 GA/GALS ]
Beginning LAMARCKIAN GENETIC ALGORITHM (LGA), with a maximum of 25000000 energy evaluations.

Final-Value: -16.353


	FINAL GENETIC ALGORITHM DOCKED STATE
	_______________________________________________


Detailed state:  trans 6.156 6.327 5.271 quatxyzw 0.043216 0.842089 -0.384564 -0.375672 center -0.174 -0.001 -0.047 ntor 10 46.3694 -114.3989 78.7032 -118.9038 -63.6403 -23.9517 9.1745 -69.4810 -9.4053 43.2261
State:	  6.156   6.327   5.271   0.047  0.909 -0.415 -135.868     46.37 -114.40   78.70 -118.90  -63.64  -23.95    9.17  -69.48   -9.41   43.23

DOCKED: MODEL       11
DOCKED: USER    Run = 11
DOCKED: USER    DPF = D:/Protein_go_brrr/autodock/final/mut_Y35F/heme_Fe/dock.dpf
DOCKED: USER  
DOCKED: USER    Estimated Free Energy of Binding    =  -11.94 kcal/mol  [=(1)+(2)+(3)-(4)]
DOCKED: USER    Estimated Inhibition Constant, Ki   =    1.75 nM (nanomolar)  [Temperature = 298.15 K]
DOCKED: USER    
DOCKED: USER    (1) Final Intermolecular Energy     =  -14.93 kcal/mol
DOCKED: USER        vdW + Hbond + desolv Energy     =  -12.72 kcal/mol
DOCKED: USER        Electrostatic Energy            =   -2.21 kcal/mol
DOCKED: USER    (2) Final Total Internal Energy     =   -1.43 kcal/mol
DOCKED: USER    (3) Torsional Free Energy           =   +2.98 kcal/mol
DOCKED: USER    (4) Unbound System's Energy  [=(2)] =   -1.43 kcal/mol
DOCKED: USER    
DOCKED: USER    
DOCKED: USER    NEWDPF move heme_Fe_opt.pdbqt
DOCKED: USER    NEWDPF about -0.174000 -0.001000 -0.047000
DOCKED: USER    NEWDPF tran0 6.156220 6.326617 5.270908
DOCKED: USER    NEWDPF quaternion0 0.043216 0.842089 -0.384564 -0.375672
DOCKED: USER    NEWDPF axisangle0 0.046632 0.908645 -0.414958 -135.868347
DOCKED: USER    NEWDPF quat0 0.046632 0.908645 -0.414958 -135.868347
DOCKED: USER    NEWDPF dihe0 46.37 -114.40 78.70 -118.90 -63.64 -23.95 9.17 -69.48 -9.41 43.23 
DOCKED: USER  keepresnum = 1 
DOCKED: USER  
DOCKED: REMARK  10 active torsions:
DOCKED: REMARK  status: ('A' for Active; 'I' for Inactive)
DOCKED: REMARK    1  A    between atoms: C_6  and  C_10 
DOCKED: REMARK    2  A    between atoms: C_10  and  C_11 
DOCKED: REMARK    3  A    between atoms: C_11  and  C_12 
DOCKED: REMARK    4  A    between atoms: C_12  and  O_14 
DOCKED: REMARK    5  A    between atoms: C_17  and  C_20 
DOCKED: REMARK    6  A    between atoms: C_24  and  C_27 
DOCKED: REMARK    7  A    between atoms: C_31  and  C_34 
DOCKED: REMARK    8  A    between atoms: C_34  and  C_35 
DOCKED: REMARK    9  A    between atoms: C_35  and  C_36 
DOCKED: REMARK   10  A    between atoms: C_36  and  O_38 
DOCKED: USER                              x       y       z     vdW  Elec       q    Type
DOCKED: USER                           _______ _______ _______ _____ _____    ______ ____
DOCKED: ROOT
DOCKED: ATOM      1  C   UNL d   1       7.868   6.352   6.402 -0.15 +0.03    +0.064 C 
DOCKED: ATOM      2  C   UNL d   1       3.942   3.365   6.097 -0.41 +0.01    +0.064 A 
DOCKED: ATOM      3  C   UNL d   1       2.773   5.441   1.927 -0.37 +0.00    +0.064 C 
DOCKED: ATOM      4  C   UNL d   1       6.508   8.412   2.254 -0.49 +0.01    +0.064 C 
DOCKED: ATOM      5  C   UNL d   1       6.825   5.375   6.744 -0.34 +0.03    +0.066 A 
DOCKED: ATOM      6  C   UNL d   1       6.769   4.661   7.930 -0.34 -0.01    -0.021 A 
DOCKED: ATOM      7  C   UNL d   1       5.680   3.829   7.843 -0.30 -0.01    -0.025 A 
DOCKED: ATOM      8  C   UNL d   1       5.113   4.068   6.606 -0.38 +0.01    +0.066 A 
DOCKED: ATOM      9  C   UNL d   1       5.209   2.878   8.900 +0.05 +0.01    +0.051 C 
DOCKED: ATOM     10  C   UNL d   1       3.341   3.617   4.933 -0.37 +0.00    +0.066 A 
DOCKED: ATOM     11  C   UNL d   1       2.291   2.850   4.422 -0.36 -0.00    -0.021 A 
DOCKED: ATOM     12  C   UNL d   1       1.947   3.418   3.211 -0.40 +0.00    +0.000 A 
DOCKED: ATOM     13  C   UNL d   1       2.818   4.508   3.042 -0.37 +0.00    +0.070 A 
DOCKED: ATOM     14  C   UNL d   1       1.690   1.596   5.023 -0.59 -0.00    +0.052 C 
DOCKED: ATOM     15  C   UNL d   1       3.642   6.460   1.733 -0.38 +0.00    +0.066 A 
DOCKED: ATOM     16  C   UNL d   1       3.505   7.390   0.710 -0.49 -0.00    -0.021 A 
DOCKED: ATOM     17  C   UNL d   1       4.584   8.246   0.800 -0.49 +0.00    +0.000 A 
DOCKED: ATOM     18  C   UNL d   1       5.357   7.815   1.876 -0.41 +0.01    +0.070 A 
DOCKED: ATOM     19  C   UNL d   1       2.418   7.459  -0.329 -0.44 +0.00    +0.052 C 
DOCKED: ATOM     20  C   UNL d   1       7.315   8.025   3.417 -0.40 +0.01    +0.066 A 
DOCKED: ATOM     21  C   UNL d   1       8.603   8.499   3.704 -0.41 -0.00    -0.025 A 
DOCKED: ATOM     22  C   UNL d   1       8.966   7.909   4.897 -0.26 -0.00    -0.021 A 
DOCKED: ATOM     23  C   UNL d   1       7.894   7.097   5.285 +0.02 +0.02    +0.066 A 
DOCKED: ATOM     24  C   UNL d   1       9.456   9.455   2.902 -0.47 -0.00    +0.051 C 
DOCKED: ATOM     25  N   UNL d   1       5.806   5.016   5.944 -0.23 -0.06    -0.248 N 
DOCKED: ATOM     26  N   UNL d   1       3.674   4.624   4.087 -0.25 -0.02    -0.248 N 
DOCKED: ATOM     27  N   UNL d   1       4.756   6.744   2.477 -0.24 -0.03    -0.248 N 
DOCKED: ATOM     28  N   UNL d   1       6.908   7.136   4.356 -0.14 -0.09    -0.248 N 
DOCKED: ATOM     29 FE   UNL d   1       5.292   5.882   4.220 -0.09 +0.00    +0.000 Fe
DOCKED: ENDROOT
DOCKED: BRANCH   6  30
DOCKED: ATOM     30  C   UNL d   1       7.689   4.776   9.097 +0.60 +0.07    +0.052 C 
DOCKED: BRANCH  30  31
DOCKED: ATOM     31  C   UNL d   1       7.326   5.984   9.954 -0.02 +0.09    +0.115 C 
DOCKED: BRANCH  31  32
DOCKED: ATOM     32  C   UNL d   1       8.383   6.227  10.995 -0.05 +0.14    +0.139 C 
DOCKED: ATOM     33  O   UNL d   1       8.602   5.398  11.867 -0.49 -0.74    -0.650 OA
DOCKED: BRANCH  32  34
DOCKED: ATOM     34  O   UNL d   1       9.100   7.363  10.976 +0.12 -0.55    -0.776 OA
DOCKED: ATOM     35  H   UNL d   1      10.061   7.314  11.081 +0.03 +0.13    +0.167 HD
DOCKED: ENDBRANCH  32  34
DOCKED: ENDBRANCH  31  32
DOCKED: ENDBRANCH  30  31
DOCKED: ENDBRANCH   6  30
DOCKED: BRANCH  22  36
DOCKED: ATOM     36  C   UNL d   1      10.289   8.080   5.596 -0.25 +0.01    +0.052 C 
DOCKED: BRANCH  36  37
DOCKED: ATOM     37  C   UNL d   1      10.066   8.182   7.097 -0.20 +0.04    +0.115 C 
DOCKED: BRANCH  37  38
DOCKED: ATOM     38  C   UNL d   1      10.566   6.953   7.802 -0.17 +0.12    +0.139 C 
DOCKED: ATOM     39  O   UNL d   1      10.663   5.889   7.209 -0.54 -0.79    -0.650 OA
DOCKED: BRANCH  38  40
DOCKED: ATOM     40  O   UNL d   1      10.910   7.016   9.100 -0.01 -0.80    -0.776 OA
DOCKED: ATOM     41  H   UNL d   1      10.226   7.202   9.759 +0.03 +0.16    +0.167 HD
DOCKED: ENDBRANCH  38  40
DOCKED: ENDBRANCH  37  38
DOCKED: ENDBRANCH  36  37
DOCKED: ENDBRANCH  22  36
DOCKED: BRANCH  12  42
DOCKED: ATOM     42  C   UNL d   1       0.870   2.914   2.304 -0.45 +0.00    +0.004 C 
DOCKED: ATOM     43  C   UNL d   1      -0.104   3.726   1.872 -0.63 +0.00    +0.012 C 
DOCKED: ENDBRANCH  12  42
DOCKED: BRANCH  17  44
DOCKED: ATOM     44  C   UNL d   1       4.846   9.413  -0.072 -0.50 +0.00    +0.004 C 
DOCKED: ATOM     45  C   UNL d   1       5.100   9.250  -1.375 -0.70 +0.00    +0.012 C 
DOCKED: ENDBRANCH  17  44
DOCKED: TORSDOF 10
DOCKED: TER
DOCKED: ENDMDL
________________________________________________________________________________


	BEGINNING GENETIC ALGORITHM DOCKING 12 of 100
Run: 12 Seed: 1265764524 2003275751 [ Run 12 of 100 GA/GALS ]
Beginning LAMARCKIAN GENETIC ALGORITHM (LGA), with a maximum of 25000000 energy evaluations.

Final-Value: -11.607


	FINAL GENETIC ALGORITHM DOCKED STATE
	_______________________________________________


Detailed state:  trans 6.111 6.669 4.876 quatxyzw 0.841419 0.048417 0.322624 -0.430795 center -0.174 -0.001 -0.047 ntor 10 8.7632 -56.2142 73.9631 8.9910 103.6390 124.8315 46.4642 69.0698 144.9958 -17.5933
State:	  6.111   6.669   4.876   0.932  0.054  0.357 -128.964      8.76  -56.21   73.96    8.99  103.64  124.83   46.46   69.07  145.00  -17.59

DOCKED: MODEL       12
DOCKED: USER    Run = 12
DOCKED: USER    DPF = D:/Protein_go_brrr/autodock/final/mut_Y35F/heme_Fe/dock.dpf
DOCKED: USER  
DOCKED: USER    Estimated Free Energy of Binding    =   -8.00 kcal/mol  [=(1)+(2)+(3)-(4)]
DOCKED: USER    Estimated Inhibition Constant, Ki   =    1.36 uM (micromolar)  [Temperature = 298.15 K]
DOCKED: USER    
DOCKED: USER    (1) Final Intermolecular Energy     =  -10.99 kcal/mol
DOCKED: USER        vdW + Hbond + desolv Energy     =  -10.91 kcal/mol
DOCKED: USER        Electrostatic Energy            =   -0.08 kcal/mol
DOCKED: USER    (2) Final Total Internal Energy     =   -0.62 kcal/mol
DOCKED: USER    (3) Torsional Free Energy           =   +2.98 kcal/mol
DOCKED: USER    (4) Unbound System's Energy  [=(2)] =   -0.62 kcal/mol
DOCKED: USER    
DOCKED: USER    
DOCKED: USER    NEWDPF move heme_Fe_opt.pdbqt
DOCKED: USER    NEWDPF about -0.174000 -0.001000 -0.047000
DOCKED: USER    NEWDPF tran0 6.111299 6.669239 4.875694
DOCKED: USER    NEWDPF quaternion0 0.841419 0.048417 0.322624 -0.430795
DOCKED: USER    NEWDPF axisangle0 0.932372 0.053650 0.357498 -128.963930
DOCKED: USER    NEWDPF quat0 0.932372 0.053650 0.357498 -128.963930
DOCKED: USER    NEWDPF dihe0 8.76 -56.21 73.96 8.99 103.64 124.83 46.46 69.07 145.00 -17.59 
DOCKED: USER  keepresnum = 1 
DOCKED: USER  
DOCKED: REMARK  10 active torsions:
DOCKED: REMARK  status: ('A' for Active; 'I' for Inactive)
DOCKED: REMARK    1  A    between atoms: C_6  and  C_10 
DOCKED: REMARK    2  A    between atoms: C_10  and  C_11 
DOCKED: REMARK    3  A    between atoms: C_11  and  C_12 
DOCKED: REMARK    4  A    between atoms: C_12  and  O_14 
DOCKED: REMARK    5  A    between atoms: C_17  and  C_20 
DOCKED: REMARK    6  A    between atoms: C_24  and  C_27 
DOCKED: REMARK    7  A    between atoms: C_31  and  C_34 
DOCKED: REMARK    8  A    between atoms: C_34  and  C_35 
DOCKED: REMARK    9  A    between atoms: C_35  and  C_36 
DOCKED: REMARK   10  A    between atoms: C_36  and  O_38 
DOCKED: USER                              x       y       z     vdW  Elec       q    Type
DOCKED: USER                           _______ _______ _______ _____ _____    ______ ____
DOCKED: ROOT
DOCKED: ATOM      1  C   UNL d   1       4.875   5.625   3.614 -0.37 +0.01    +0.064 C 
DOCKED: ATOM      2  C   UNL d   1       8.289   9.147   3.012 -0.45 +0.00    +0.064 A 
DOCKED: ATOM      3  C   UNL d   1       9.866   8.284   7.466 -0.23 +0.02    +0.064 C 
DOCKED: ATOM      4  C   UNL d   1       6.501   4.944   8.108 -0.31 +0.03    +0.064 C 
DOCKED: ATOM      5  C   UNL d   1       5.636   6.754   3.062 -0.15 +0.02    +0.066 A 
DOCKED: ATOM      6  C   UNL d   1       5.385   7.354   1.839 -0.43 -0.00    -0.021 A 
DOCKED: ATOM      7  C   UNL d   1       6.336   8.329   1.670 -0.38 -0.00    -0.025 A 
DOCKED: ATOM      8  C   UNL d   1       7.131   8.288   2.799 -0.43 +0.01    +0.066 A 
DOCKED: ATOM      9  C   UNL d   1       6.453   9.255   0.499 -0.38 +0.00    +0.051 C 
DOCKED: ATOM     10  C   UNL d   1       9.038   9.167   4.116 -0.32 +0.00    +0.066 A 
DOCKED: ATOM     11  C   UNL d   1      10.208   9.920   4.245 -0.30 +0.00    -0.021 A 
DOCKED: ATOM     12  C   UNL d   1      10.692   9.675   5.514 -0.20 +0.00    +0.000 A 
DOCKED: ATOM     13  C   UNL d   1       9.787   8.771   6.098 -0.17 +0.01    +0.070 A 
DOCKED: ATOM     14  C   UNL d   1      10.872  10.776   3.185 +0.27 -0.01    +0.052 C 
DOCKED: ATOM     15  C   UNL d   1       9.027   7.374   8.015 -0.24 +0.04    +0.066 A 
DOCKED: ATOM     16  C   UNL d   1       9.075   7.010   9.355 -0.11 -0.02    -0.021 A 
DOCKED: ATOM     17  C   UNL d   1       8.107   6.044   9.541 -0.12 +0.00    +0.000 A 
DOCKED: ATOM     18  C   UNL d   1       7.494   5.839   8.308 -0.30 +0.05    +0.070 A 
DOCKED: ATOM     19  C   UNL d   1      10.009   7.529  10.415 -0.16 +0.04    +0.052 C 
DOCKED: ATOM     20  C   UNL d   1       5.791   4.744   6.839 -0.34 +0.02    +0.066 A 
DOCKED: ATOM     21  C   UNL d   1       4.906   3.693   6.563 -0.42 -0.00    -0.025 A 
DOCKED: ATOM     22  C   UNL d   1       4.444   3.914   5.282 -0.36 -0.00    -0.021 A 
DOCKED: ATOM     23  C   UNL d   1       5.068   5.081   4.827 -0.26 +0.01    +0.066 A 
DOCKED: ATOM     24  C   UNL d   1       4.512   2.534   7.450 -0.33 +0.01    +0.051 C 
DOCKED: ATOM     25  N   UNL d   1       6.697   7.335   3.648 -0.20 -0.08    -0.248 N 
DOCKED: ATOM     26  N   UNL d   1       8.784   8.454   5.242 -0.15 -0.04    -0.248 N 
DOCKED: ATOM     27  N   UNL d   1       8.029   6.687   7.379 -0.22 -0.13    -0.248 N 
DOCKED: ATOM     28  N   UNL d   1       5.922   5.559   5.764 -0.12 -0.07    -0.248 N 
DOCKED: ATOM     29 FE   UNL d   1       7.353   7.005   5.505 -0.08 +0.00    +0.000 Fe
DOCKED: ENDROOT
DOCKED: BRANCH   6  30
DOCKED: ATOM     30  C   UNL d   1       4.285   7.032   0.886 -0.48 +0.00    +0.052 C 
DOCKED: BRANCH  30  31
DOCKED: ATOM     31  C   UNL d   1       4.843   6.727  -0.500 -0.45 +0.01    +0.115 C 
DOCKED: BRANCH  31  32
DOCKED: ATOM     32  C   UNL d   1       4.062   7.461  -1.555 -0.46 +0.01    +0.139 C 
DOCKED: ATOM     33  O   UNL d   1       4.519   8.463  -2.085 -0.05 -0.08    -0.650 OA
DOCKED: BRANCH  32  34
DOCKED: ATOM     34  O   UNL d   1       2.848   7.018  -1.925 +0.11 -0.01    -0.776 OA
DOCKED: ATOM     35  H   UNL d   1       2.414   7.422  -2.690 -0.12 +0.01    +0.167 HD
DOCKED: ENDBRANCH  32  34
DOCKED: ENDBRANCH  31  32
DOCKED: ENDBRANCH  30  31
DOCKED: ENDBRANCH   6  30
DOCKED: BRANCH  22  36
DOCKED: ATOM     36  C   UNL d   1       3.496   3.024   4.523 -0.09 +0.00    +0.052 C 
DOCKED: BRANCH  36  37
DOCKED: ATOM     37  C   UNL d   1       2.069   3.282   4.985 -0.43 +0.00    +0.115 C 
DOCKED: BRANCH  37  38
DOCKED: ATOM     38  C   UNL d   1       1.520   2.097   5.729 -0.54 -0.00    +0.139 C 
DOCKED: ATOM     39  O   UNL d   1       1.073   2.221   6.859 -0.01 +0.01    -0.650 OA
DOCKED: BRANCH  38  40
DOCKED: ATOM     40  O   UNL d   1       1.521   0.883   5.150 -0.00 +0.08    -0.776 OA
DOCKED: ATOM     41  H   UNL d   1       1.964   0.149   5.599 -0.44 -0.05    +0.167 HD
DOCKED: ENDBRANCH  38  40
DOCKED: ENDBRANCH  37  38
DOCKED: ENDBRANCH  36  37
DOCKED: ENDBRANCH  22  36
DOCKED: BRANCH  12  42
DOCKED: ATOM     42  C   UNL d   1      11.941  10.268   6.084 -0.15 +0.00    +0.004 C 
DOCKED: ATOM     43  C   UNL d   1      11.909  10.998   7.206 -0.12 +0.00    +0.012 C 
DOCKED: ENDBRANCH  12  42
DOCKED: BRANCH  17  44
DOCKED: ATOM     44  C   UNL d   1       7.778   5.377  10.821 -0.19 +0.00    +0.004 C 
DOCKED: ATOM     45  C   UNL d   1       7.308   6.078  11.858 -0.21 +0.01    +0.012 C 
DOCKED: ENDBRANCH  17  44
DOCKED: TORSDOF 10
DOCKED: TER
DOCKED: ENDMDL
________________________________________________________________________________


	BEGINNING GENETIC ALGORITHM DOCKING 13 of 100
Run: 13 Seed: 2140398728 1053997325 [ Run 13 of 100 GA/GALS ]
Beginning LAMARCKIAN GENETIC ALGORITHM (LGA), with a maximum of 25000000 energy evaluations.

Final-Value: -9.671


	FINAL GENETIC ALGORITHM DOCKED STATE
	_______________________________________________


Detailed state:  trans -11.283 -18.780 -6.797 quatxyzw -0.663719 -0.570124 -0.400644 -0.271883 center -0.174 -0.001 -0.047 ntor 10 -40.3765 167.3215 -130.1886 -119.1763 113.8882 -94.7387 63.4994 8.9157 -29.6530 138.8067
State:	-11.283 -18.780  -6.797  -0.690 -0.592 -0.416 -148.447    -40.38  167.32 -130.19 -119.18  113.89  -94.74   63.50    8.92  -29.65  138.81

DOCKED: MODEL       13
DOCKED: USER    Run = 13
DOCKED: USER    DPF = D:/Protein_go_brrr/autodock/final/mut_Y35F/heme_Fe/dock.dpf
DOCKED: USER  
DOCKED: USER    Estimated Free Energy of Binding    =   -4.49 kcal/mol  [=(1)+(2)+(3)-(4)]
DOCKED: USER    Estimated Inhibition Constant, Ki   =  513.76 uM (micromolar)  [Temperature = 298.15 K]
DOCKED: USER    
DOCKED: USER    (1) Final Intermolecular Energy     =   -7.47 kcal/mol
DOCKED: USER        vdW + Hbond + desolv Energy     =   -6.97 kcal/mol
DOCKED: USER        Electrostatic Energy            =   -0.50 kcal/mol
DOCKED: USER    (2) Final Total Internal Energy     =   -2.20 kcal/mol
DOCKED: USER    (3) Torsional Free Energy           =   +2.98 kcal/mol
DOCKED: USER    (4) Unbound System's Energy  [=(2)] =   -2.20 kcal/mol
DOCKED: USER    
DOCKED: USER    
DOCKED: USER    NEWDPF move heme_Fe_opt.pdbqt
DOCKED: USER    NEWDPF about -0.174000 -0.001000 -0.047000
DOCKED: USER    NEWDPF tran0 -11.283282 -18.779833 -6.797195
DOCKED: USER    NEWDPF quaternion0 -0.663719 -0.570124 -0.400644 -0.271883
DOCKED: USER    NEWDPF axisangle0 -0.689699 -0.592441 -0.416327 -148.447318
DOCKED: USER    NEWDPF quat0 -0.689699 -0.592441 -0.416327 -148.447318
DOCKED: USER    NEWDPF dihe0 -40.38 167.32 -130.19 -119.18 113.89 -94.74 63.50 8.92 -29.65 138.81 
DOCKED: USER  keepresnum = 1 
DOCKED: USER  
DOCKED: REMARK  10 active torsions:
DOCKED: REMARK  status: ('A' for Active; 'I' for Inactive)
DOCKED: REMARK    1  A    between atoms: C_6  and  C_10 
DOCKED: REMARK    2  A    between atoms: C_10  and  C_11 
DOCKED: REMARK    3  A    between atoms: C_11  and  C_12 
DOCKED: REMARK    4  A    between atoms: C_12  and  O_14 
DOCKED: REMARK    5  A    between atoms: C_17  and  C_20 
DOCKED: REMARK    6  A    between atoms: C_24  and  C_27 
DOCKED: REMARK    7  A    between atoms: C_31  and  C_34 
DOCKED: REMARK    8  A    between atoms: C_34  and  C_35 
DOCKED: REMARK    9  A    between atoms: C_35  and  C_36 
DOCKED: REMARK   10  A    between atoms: C_36  and  O_38 
DOCKED: USER                              x       y       z     vdW  Elec       q    Type
DOCKED: USER                           _______ _______ _______ _____ _____    ______ ____
DOCKED: ROOT
DOCKED: ATOM      1  C   UNL d   1     -11.280 -19.401  -8.753 -0.10 +0.00    +0.064 C 
DOCKED: ATOM      2  C   UNL d   1     -14.458 -16.919  -5.895 -0.15 +0.01    +0.064 A 
DOCKED: ATOM      3  C   UNL d   1     -10.939 -16.230  -2.699 -0.17 +0.00    +0.064 C 
DOCKED: ATOM      4  C   UNL d   1      -7.874 -18.718  -5.401 -0.27 -0.01    +0.064 C 
DOCKED: ATOM      5  C   UNL d   1     -12.522 -18.838  -8.206 -0.07 +0.00    +0.066 A 
DOCKED: ATOM      6  C   UNL d   1     -13.768 -18.945  -8.801 -0.04 -0.00    -0.021 A 
DOCKED: ATOM      7  C   UNL d   1     -14.650 -18.252  -8.009 -0.05 -0.00    -0.025 A 
DOCKED: ATOM      8  C   UNL d   1     -13.907 -17.749  -6.959 -0.11 +0.01    +0.066 A 
DOCKED: ATOM      9  C   UNL d   1     -16.122 -18.106  -8.245 -0.03 +0.00    +0.051 C 
DOCKED: ATOM     10  C   UNL d   1     -13.776 -16.468  -4.840 -0.19 +0.01    +0.066 A 
DOCKED: ATOM     11  C   UNL d   1     -14.303 -15.581  -3.898 -0.20 -0.00    -0.021 A 
DOCKED: ATOM     12  C   UNL d   1     -13.302 -15.354  -2.975 -0.28 +0.00    +0.000 A 
DOCKED: ATOM     13  C   UNL d   1     -12.203 -16.114  -3.411 -0.22 +0.00    +0.070 A 
DOCKED: ATOM     14  C   UNL d   1     -15.670 -14.929  -3.914 -0.06 +0.00    +0.052 C 
DOCKED: ATOM     15  C   UNL d   1      -9.861 -16.919  -3.141 -0.18 -0.00    +0.066 A 
DOCKED: ATOM     16  C   UNL d   1      -8.707 -17.088  -2.386 -0.24 +0.00    -0.021 A 
DOCKED: ATOM     17  C   UNL d   1      -7.820 -17.802  -3.164 -0.26 -0.00    +0.000 A 
DOCKED: ATOM     18  C   UNL d   1      -8.454 -18.050  -4.380 -0.23 -0.01    +0.070 A 
DOCKED: ATOM     19  C   UNL d   1      -8.436 -16.577  -0.996 -0.37 -0.00    +0.052 C 
DOCKED: ATOM     20  C   UNL d   1      -8.531 -19.050  -6.671 -0.25 -0.00    +0.066 A 
DOCKED: ATOM     21  C   UNL d   1      -7.887 -19.562  -7.807 -0.24 +0.00    -0.025 A 
DOCKED: ATOM     22  C   UNL d   1      -8.879 -19.761  -8.745 -0.20 +0.00    -0.021 A 
DOCKED: ATOM     23  C   UNL d   1     -10.081 -19.359  -8.151 -0.13 +0.00    +0.066 A 
DOCKED: ATOM     24  C   UNL d   1      -6.417 -19.847  -8.009 -0.13 -0.00    +0.051 C 
DOCKED: ATOM     25  N   UNL d   1     -12.615 -18.115  -7.076 -0.08 -0.03    -0.248 N 
DOCKED: ATOM     26  N   UNL d   1     -12.488 -16.787  -4.552 -0.13 -0.03    -0.248 N 
DOCKED: ATOM     27  N   UNL d   1      -9.724 -17.545  -4.351 -0.15 +0.01    -0.248 N 
DOCKED: ATOM     28  N   UNL d   1      -9.856 -18.885  -6.901 -0.09 +0.00    -0.248 N 
DOCKED: ATOM     29 FE   UNL d   1     -11.170 -17.836  -5.727 -0.04 +0.00    +0.000 Fe
DOCKED: ENDROOT
DOCKED: BRANCH   6  30
DOCKED: ATOM     30  C   UNL d   1     -14.111 -19.686 -10.049 -0.02 +0.00    +0.052 C 
DOCKED: BRANCH  30  31
DOCKED: ATOM     31  C   UNL d   1     -13.775 -21.166  -9.908 -0.00 +0.00    +0.115 C 
DOCKED: BRANCH  31  32
DOCKED: ATOM     32  C   UNL d   1     -12.708 -21.559 -10.892 -0.00 +0.01    +0.139 C 
DOCKED: ATOM     33  O   UNL d   1     -11.600 -21.905 -10.505 +0.01 -0.04    -0.650 OA
DOCKED: BRANCH  32  34
DOCKED: ATOM     34  O   UNL d   1     -12.964 -21.533 -12.210 +0.00 -0.05    -0.776 OA
DOCKED: ATOM     35  H   UNL d   1     -12.282 -21.206 -12.814 +0.01 +0.02    +0.167 HD
DOCKED: ENDBRANCH  32  34
DOCKED: ENDBRANCH  31  32
DOCKED: ENDBRANCH  30  31
DOCKED: ENDBRANCH   6  30
DOCKED: BRANCH  22  36
DOCKED: ATOM     36  C   UNL d   1      -8.672 -20.262 -10.150 -0.19 +0.00    +0.052 C 
DOCKED: BRANCH  36  37
DOCKED: ATOM     37  C   UNL d   1      -9.255 -19.266 -11.142 -0.19 +0.01    +0.115 C 
DOCKED: BRANCH  37  38
DOCKED: ATOM     38  C   UNL d   1      -9.242 -19.824 -12.537 -0.13 +0.04    +0.139 C 
DOCKED: ATOM     39  O   UNL d   1      -8.321 -19.577 -13.300 -0.05 -0.32    -0.650 OA
DOCKED: BRANCH  38  40
DOCKED: ATOM     40  O   UNL d   1     -10.255 -20.603 -12.958 +0.03 -0.16    -0.776 OA
DOCKED: ATOM     41  H   UNL d   1     -10.882 -20.950 -12.308 +0.02 +0.02    +0.167 HD
DOCKED: ENDBRANCH  38  40
DOCKED: ENDBRANCH  37  38
DOCKED: ENDBRANCH  36  37
DOCKED: ENDBRANCH  22  36
DOCKED: BRANCH  12  42
DOCKED: ATOM     42  C   UNL d   1     -13.421 -14.452  -1.788 -0.38 -0.00    +0.004 C 
DOCKED: ATOM     43  C   UNL d   1     -13.243 -13.130  -1.905 -0.52 -0.00    +0.012 C 
DOCKED: ENDBRANCH  12  42
DOCKED: BRANCH  17  44
DOCKED: ATOM     44  C   UNL d   1      -6.464 -18.238  -2.764 -0.36 -0.00    +0.004 C 
DOCKED: ATOM     45  C   UNL d   1      -5.501 -17.342  -2.519 -0.51 -0.00    +0.012 C 
DOCKED: ENDBRANCH  17  44
DOCKED: TORSDOF 10
DOCKED: TER
DOCKED: ENDMDL
________________________________________________________________________________


	BEGINNING GENETIC ALGORITHM DOCKING 14 of 100
Run: 14 Seed: 108489073 631718413 [ Run 14 of 100 GA/GALS ]
Beginning LAMARCKIAN GENETIC ALGORITHM (LGA), with a maximum of 25000000 energy evaluations.

Final-Value: -10.460


	FINAL GENETIC ALGORITHM DOCKED STATE
	_______________________________________________


Detailed state:  trans 2.167 -16.384 -9.185 quatxyzw -0.774517 0.189828 -0.457018 0.393984 center -0.174 -0.001 -0.047 ntor 10 72.8167 -147.4214 83.5702 -145.3632 169.5112 23.1323 83.8469 -18.6870 9.2051 12.4861
State:	  2.167 -16.384  -9.185  -0.843  0.207 -0.497 133.595     72.82 -147.42   83.57 -145.36  169.51   23.13   83.85  -18.69    9.21   12.49

DOCKED: MODEL       14
DOCKED: USER    Run = 14
DOCKED: USER    DPF = D:/Protein_go_brrr/autodock/final/mut_Y35F/heme_Fe/dock.dpf
DOCKED: USER  
DOCKED: USER    Estimated Free Energy of Binding    =   -5.81 kcal/mol  [=(1)+(2)+(3)-(4)]
DOCKED: USER    Estimated Inhibition Constant, Ki   =   55.43 uM (micromolar)  [Temperature = 298.15 K]
DOCKED: USER    
DOCKED: USER    (1) Final Intermolecular Energy     =   -8.79 kcal/mol
DOCKED: USER        vdW + Hbond + desolv Energy     =   -8.30 kcal/mol
DOCKED: USER        Electrostatic Energy            =   -0.49 kcal/mol
DOCKED: USER    (2) Final Total Internal Energy     =   -1.67 kcal/mol
DOCKED: USER    (3) Torsional Free Energy           =   +2.98 kcal/mol
DOCKED: USER    (4) Unbound System's Energy  [=(2)] =   -1.67 kcal/mol
DOCKED: USER    
DOCKED: USER    
DOCKED: USER    NEWDPF move heme_Fe_opt.pdbqt
DOCKED: USER    NEWDPF about -0.174000 -0.001000 -0.047000
DOCKED: USER    NEWDPF tran0 2.166813 -16.383585 -9.184986
DOCKED: USER    NEWDPF quaternion0 -0.774517 0.189828 -0.457018 0.393984
DOCKED: USER    NEWDPF axisangle0 -0.842675 0.206533 -0.497236 133.594712
DOCKED: USER    NEWDPF quat0 -0.842675 0.206533 -0.497236 133.594712
DOCKED: USER    NEWDPF dihe0 72.82 -147.42 83.57 -145.36 169.51 23.13 83.85 -18.69 9.21 12.49 
DOCKED: USER  keepresnum = 1 
DOCKED: USER  
DOCKED: REMARK  10 active torsions:
DOCKED: REMARK  status: ('A' for Active; 'I' for Inactive)
DOCKED: REMARK    1  A    between atoms: C_6  and  C_10 
DOCKED: REMARK    2  A    between atoms: C_10  and  C_11 
DOCKED: REMARK    3  A    between atoms: C_11  and  C_12 
DOCKED: REMARK    4  A    between atoms: C_12  and  O_14 
DOCKED: REMARK    5  A    between atoms: C_17  and  C_20 
DOCKED: REMARK    6  A    between atoms: C_24  and  C_27 
DOCKED: REMARK    7  A    between atoms: C_31  and  C_34 
DOCKED: REMARK    8  A    between atoms: C_34  and  C_35 
DOCKED: REMARK    9  A    between atoms: C_35  and  C_36 
DOCKED: REMARK   10  A    between atoms: C_36  and  O_38 
DOCKED: USER                              x       y       z     vdW  Elec       q    Type
DOCKED: USER                           _______ _______ _______ _____ _____    ______ ____
DOCKED: ROOT
DOCKED: ATOM      1  C   UNL d   1       1.492 -16.895 -11.054 -0.23 -0.01    +0.064 C 
DOCKED: ATOM      2  C   UNL d   1       5.422 -14.449  -9.322 -0.25 -0.03    +0.064 A 
DOCKED: ATOM      3  C   UNL d   1       4.485 -16.184  -4.943 -0.25 -0.02    +0.064 C 
DOCKED: ATOM      4  C   UNL d   1       0.617 -18.475  -6.578 -0.28 -0.05    +0.064 C 
DOCKED: ATOM      5  C   UNL d   1       2.636 -15.978 -10.957 -0.20 -0.02    +0.066 A 
DOCKED: ATOM      6  C   UNL d   1       3.123 -15.208 -12.000 -0.18 +0.01    -0.021 A 
DOCKED: ATOM      7  C   UNL d   1       4.217 -14.532 -11.519 -0.23 +0.01    -0.025 A 
DOCKED: ATOM      8  C   UNL d   1       4.355 -14.916 -10.199 -0.23 -0.03    +0.066 A 
DOCKED: ATOM      9  C   UNL d   1       5.062 -13.561 -12.285 -0.18 -0.02    +0.051 C 
DOCKED: ATOM     10  C   UNL d   1       5.545 -14.758  -8.030 -0.23 -0.03    +0.066 A 
DOCKED: ATOM     11  C   UNL d   1       6.640 -14.388  -7.245 -0.17 +0.01    -0.021 A 
DOCKED: ATOM     12  C   UNL d   1       6.402 -14.891  -5.982 -0.19 -0.00    +0.000 A 
DOCKED: ATOM     13  C   UNL d   1       5.166 -15.555  -6.064 -0.21 -0.02    +0.070 A 
DOCKED: ATOM     14  C   UNL d   1       7.885 -13.650  -7.694 -0.19 -0.05    +0.052 C 
DOCKED: ATOM     15  C   UNL d   1       3.321 -16.869  -5.027 -0.23 -0.02    +0.066 A 
DOCKED: ATOM     16  C   UNL d   1       2.653 -17.369  -3.917 -0.21 +0.01    -0.021 A 
DOCKED: ATOM     17  C   UNL d   1       1.538 -18.034  -4.387 -0.29 -0.00    +0.000 A 
DOCKED: ATOM     18  C   UNL d   1       1.555 -17.926  -5.775 -0.27 -0.04    +0.070 A 
DOCKED: ATOM     19  C   UNL d   1       3.056 -17.251  -2.472 -0.29 -0.01    +0.052 C 
DOCKED: ATOM     20  C   UNL d   1       0.569 -18.331  -8.037 -0.27 -0.03    +0.066 A 
DOCKED: ATOM     21  C   UNL d   1      -0.274 -19.052  -8.895 -0.24 +0.01    -0.025 A 
DOCKED: ATOM     22  C   UNL d   1      -0.017 -18.577 -10.164 -0.22 +0.00    -0.021 A 
DOCKED: ATOM     23  C   UNL d   1       0.972 -17.594 -10.033 -0.23 -0.02    +0.066 A 
DOCKED: ATOM     24  C   UNL d   1      -1.268 -20.136  -8.549 -0.21 -0.02    +0.051 C 
DOCKED: ATOM     25  N   UNL d   1       3.386 -15.788  -9.857 -0.11 +0.11    -0.248 N 
DOCKED: ATOM     26  N   UNL d   1       4.647 -15.482  -7.314 -0.17 +0.10    -0.248 N 
DOCKED: ATOM     27  N   UNL d   1       2.627 -17.174  -6.168 -0.16 +0.11    -0.248 N 
DOCKED: ATOM     28  N   UNL d   1       1.357 -17.480  -8.739 -0.15 +0.11    -0.248 N 
DOCKED: ATOM     29 FE   UNL d   1       3.001 -16.483  -8.026 -0.06 -0.00    +0.000 Fe
DOCKED: ENDROOT
DOCKED: BRANCH   6  30
DOCKED: ATOM     30  C   UNL d   1       2.567 -15.102 -13.378 -0.13 -0.01    +0.052 C 
DOCKED: BRANCH  30  31
DOCKED: ATOM     31  C   UNL d   1       1.701 -13.855 -13.517 -0.20 -0.02    +0.115 C 
DOCKED: BRANCH  31  32
DOCKED: ATOM     32  C   UNL d   1       0.251 -14.196 -13.312 -0.21 -0.01    +0.139 C 
DOCKED: ATOM     33  O   UNL d   1      -0.586 -13.312 -13.190 -0.04 +0.05    -0.650 OA
DOCKED: BRANCH  32  34
DOCKED: ATOM     34  O   UNL d   1      -0.139 -15.481 -13.259 +0.06 -0.03    -0.776 OA
DOCKED: ATOM     35  H   UNL d   1      -0.626 -15.855 -14.007 +0.05 +0.02    +0.167 HD
DOCKED: ENDBRANCH  32  34
DOCKED: ENDBRANCH  31  32
DOCKED: ENDBRANCH  30  31
DOCKED: ENDBRANCH   6  30
DOCKED: BRANCH  22  36
DOCKED: ATOM     36  C   UNL d   1      -0.652 -19.076 -11.436 -0.20 +0.00    +0.052 C 
DOCKED: BRANCH  36  37
DOCKED: ATOM     37  C   UNL d   1      -1.601 -18.020 -11.984 -0.10 +0.04    +0.115 C 
DOCKED: BRANCH  37  38
DOCKED: ATOM     38  C   UNL d   1      -1.883 -18.254 -13.441 -0.14 +0.06    +0.139 C 
DOCKED: ATOM     39  O   UNL d   1      -1.745 -19.363 -13.935 -0.04 -0.37    -0.650 OA
DOCKED: BRANCH  38  40
DOCKED: ATOM     40  O   UNL d   1      -2.288 -17.234 -14.218 -0.05 -0.32    -0.776 OA
DOCKED: ATOM     41  H   UNL d   1      -1.968 -16.341 -14.027 +0.04 +0.05    +0.167 HD
DOCKED: ENDBRANCH  38  40
DOCKED: ENDBRANCH  37  38
DOCKED: ENDBRANCH  36  37
DOCKED: ENDBRANCH  22  36
DOCKED: BRANCH  12  42
DOCKED: ATOM     42  C   UNL d   1       7.324 -14.741  -4.814 -0.24 -0.00    +0.004 C 
DOCKED: ATOM     43  C   UNL d   1       6.867 -14.330  -3.624 -0.34 -0.01    +0.012 C 
DOCKED: ENDBRANCH  12  42
DOCKED: BRANCH  17  44
DOCKED: ATOM     44  C   UNL d   1       0.513 -18.709  -3.559 -0.36 -0.00    +0.004 C 
DOCKED: ATOM     45  C   UNL d   1       0.626 -20.005  -3.252 -0.27 -0.00    +0.012 C 
DOCKED: ENDBRANCH  17  44
DOCKED: TORSDOF 10
DOCKED: TER
DOCKED: ENDMDL
________________________________________________________________________________


	BEGINNING GENETIC ALGORITHM DOCKING 15 of 100
Run: 15 Seed: 1247307463 753426614 [ Run 15 of 100 GA/GALS ]
Beginning LAMARCKIAN GENETIC ALGORITHM (LGA), with a maximum of 25000000 energy evaluations.

Final-Value: -9.077


	FINAL GENETIC ALGORITHM DOCKED STATE
	_______________________________________________


Detailed state:  trans -19.718 3.267 9.008 quatxyzw -0.413642 0.632845 -0.596692 -0.269010 center -0.174 -0.001 -0.047 ntor 10 166.4033 -139.5021 -163.7471 -157.3329 49.0663 -87.4379 7.7584 93.0087 -144.1462 171.9183
State:	-19.718   3.267   9.008  -0.429  0.657 -0.620 -148.789    166.40 -139.50 -163.75 -157.33   49.07  -87.44    7.76   93.01 -144.15  171.92

DOCKED: MODEL       15
DOCKED: USER    Run = 15
DOCKED: USER    DPF = D:/Protein_go_brrr/autodock/final/mut_Y35F/heme_Fe/dock.dpf
DOCKED: USER  
DOCKED: USER    Estimated Free Energy of Binding    =   -5.03 kcal/mol  [=(1)+(2)+(3)-(4)]
DOCKED: USER    Estimated Inhibition Constant, Ki   =  206.48 uM (micromolar)  [Temperature = 298.15 K]
DOCKED: USER    
DOCKED: USER    (1) Final Intermolecular Energy     =   -8.01 kcal/mol
DOCKED: USER        vdW + Hbond + desolv Energy     =   -4.32 kcal/mol
DOCKED: USER        Electrostatic Energy            =   -3.69 kcal/mol
DOCKED: USER    (2) Final Total Internal Energy     =   -1.07 kcal/mol
DOCKED: USER    (3) Torsional Free Energy           =   +2.98 kcal/mol
DOCKED: USER    (4) Unbound System's Energy  [=(2)] =   -1.07 kcal/mol
DOCKED: USER    
DOCKED: USER    
DOCKED: USER    NEWDPF move heme_Fe_opt.pdbqt
DOCKED: USER    NEWDPF about -0.174000 -0.001000 -0.047000
DOCKED: USER    NEWDPF tran0 -19.718406 3.266915 9.007573
DOCKED: USER    NEWDPF quaternion0 -0.413642 0.632845 -0.596692 -0.269010
DOCKED: USER    NEWDPF axisangle0 -0.429473 0.657066 -0.619529 -148.789289
DOCKED: USER    NEWDPF quat0 -0.429473 0.657066 -0.619529 -148.789289
DOCKED: USER    NEWDPF dihe0 166.40 -139.50 -163.75 -157.33 49.07 -87.44 7.76 93.01 -144.15 171.92 
DOCKED: USER  keepresnum = 1 
DOCKED: USER  
DOCKED: REMARK  10 active torsions:
DOCKED: REMARK  status: ('A' for Active; 'I' for Inactive)
DOCKED: REMARK    1  A    between atoms: C_6  and  C_10 
DOCKED: REMARK    2  A    between atoms: C_10  and  C_11 
DOCKED: REMARK    3  A    between atoms: C_11  and  C_12 
DOCKED: REMARK    4  A    between atoms: C_12  and  O_14 
DOCKED: REMARK    5  A    between atoms: C_17  and  C_20 
DOCKED: REMARK    6  A    between atoms: C_24  and  C_27 
DOCKED: REMARK    7  A    between atoms: C_31  and  C_34 
DOCKED: REMARK    8  A    between atoms: C_34  and  C_35 
DOCKED: REMARK    9  A    between atoms: C_35  and  C_36 
DOCKED: REMARK   10  A    between atoms: C_36  and  O_38 
DOCKED: USER                              x       y       z     vdW  Elec       q    Type
DOCKED: USER                           _______ _______ _______ _____ _____    ______ ____
DOCKED: ROOT
DOCKED: ATOM      1  C   UNL d   1     -18.246   4.660   8.686 -0.11 +0.03    +0.064 C 
DOCKED: ATOM      2  C   UNL d   1     -19.609   1.859  12.524 -0.09 +0.01    +0.064 A 
DOCKED: ATOM      3  C   UNL d   1     -22.254  -0.819   9.542 -0.11 -0.00    +0.064 C 
DOCKED: ATOM      4  C   UNL d   1     -21.032   1.941   5.831 -0.12 +0.00    +0.064 C 
DOCKED: ATOM      5  C   UNL d   1     -18.451   4.170  10.056 -0.12 +0.02    +0.066 A 
DOCKED: ATOM      6  C   UNL d   1     -17.932   4.766  11.194 -0.09 -0.01    -0.021 A 
DOCKED: ATOM      7  C   UNL d   1     -18.308   3.986  12.259 -0.10 -0.01    -0.025 A 
DOCKED: ATOM      8  C   UNL d   1     -19.042   2.942  11.730 -0.13 +0.01    +0.066 A 
DOCKED: ATOM      9  C   UNL d   1     -17.991   4.247  13.700 -0.07 +0.01    +0.051 C 
DOCKED: ATOM     10  C   UNL d   1     -20.369   0.873  12.046 -0.12 +0.00    +0.066 A 
DOCKED: ATOM     11  C   UNL d   1     -20.801  -0.213  12.811 -0.09 -0.00    -0.021 A 
DOCKED: ATOM     12  C   UNL d   1     -21.552  -1.009  11.970 -0.08 -0.00    +0.000 A 
DOCKED: ATOM     13  C   UNL d   1     -21.532  -0.366  10.720 -0.09 +0.00    +0.070 A 
DOCKED: ATOM     14  C   UNL d   1     -20.458  -0.513  14.256 -0.07 -0.00    +0.052 C 
DOCKED: ATOM     15  C   UNL d   1     -22.196  -0.232   8.323 -0.12 -0.00    +0.066 A 
DOCKED: ATOM     16  C   UNL d   1     -22.978  -0.637   7.249 -0.08 -0.00    -0.021 A 
DOCKED: ATOM     17  C   UNL d   1     -22.625   0.156   6.176 -0.09 +0.00    +0.000 A 
DOCKED: ATOM     18  C   UNL d   1     -21.631   1.024   6.622 -0.11 +0.00    +0.070 A 
DOCKED: ATOM     19  C   UNL d   1     -24.000  -1.741   7.221 -0.03 +0.00    +0.052 C 
DOCKED: ATOM     20  C   UNL d   1     -20.027   2.912   6.280 -0.09 +0.01    +0.066 A 
DOCKED: ATOM     21  C   UNL d   1     -19.257   3.728   5.439 -0.08 -0.00    -0.025 A 
DOCKED: ATOM     22  C   UNL d   1     -18.479   4.504   6.274 -0.07 -0.01    -0.021 A 
DOCKED: ATOM     23  C   UNL d   1     -18.799   4.128   7.584 -0.10 +0.02    +0.066 A 
DOCKED: ATOM     24  C   UNL d   1     -19.243   3.780   3.929 -0.04 +0.01    +0.051 C 
DOCKED: ATOM     25  N   UNL d   1     -19.135   3.063  10.390 -0.13 -0.06    -0.248 N 
DOCKED: ATOM     26  N   UNL d   1     -20.804   0.777  10.764 -0.10 -0.01    -0.248 N 
DOCKED: ATOM     27  N   UNL d   1     -21.398   0.816   7.952 -0.05 +0.00    -0.248 N 
DOCKED: ATOM     28  N   UNL d   1     -19.711   3.125   7.580 -0.02 -0.07    -0.248 N 
DOCKED: ATOM     29 FE   UNL d   1     -20.258   1.951   9.170 -0.04 +0.00    +0.000 Fe
DOCKED: ENDROOT
DOCKED: BRANCH   6  30
DOCKED: ATOM     30  C   UNL d   1     -17.138   6.025  11.271 -0.05 +0.03    +0.052 C 
DOCKED: BRANCH  30  31
DOCKED: ATOM     31  C   UNL d   1     -15.919   5.951  10.358 -0.12 +0.11    +0.115 C 
DOCKED: BRANCH  31  32
DOCKED: ATOM     32  C   UNL d   1     -15.023   7.138  10.580 -0.05 +0.20    +0.139 C 
DOCKED: ATOM     33  O   UNL d   1     -14.693   7.468  11.710 -0.24 -1.17    -0.650 OA
DOCKED: BRANCH  32  34
DOCKED: ATOM     34  O   UNL d   1     -14.575   7.850   9.532 -0.01 -1.37    -0.776 OA
DOCKED: ATOM     35  H   UNL d   1     -14.667   7.484   8.641 +0.02 +0.21    +0.167 HD
DOCKED: ENDBRANCH  32  34
DOCKED: ENDBRANCH  31  32
DOCKED: ENDBRANCH  30  31
DOCKED: ENDBRANCH   6  30
DOCKED: BRANCH  22  36
DOCKED: ATOM     36  C   UNL d   1     -17.452   5.513   5.833 -0.03 +0.02    +0.052 C 
DOCKED: BRANCH  36  37
DOCKED: ATOM     37  C   UNL d   1     -16.092   4.843   5.714 -0.09 +0.05    +0.115 C 
DOCKED: BRANCH  37  38
DOCKED: ATOM     38  C   UNL d   1     -15.362   4.869   7.027 -0.13 +0.14    +0.139 C 
DOCKED: ATOM     39  O   UNL d   1     -14.662   5.823   7.334 -0.08 -0.71    -0.650 OA
DOCKED: BRANCH  38  40
DOCKED: ATOM     40  O   UNL d   1     -15.472   3.833   7.877 -0.34 -1.35    -0.776 OA
DOCKED: ATOM     41  H   UNL d   1     -15.472   2.932   7.523 -0.53 +0.22    +0.167 HD
DOCKED: ENDBRANCH  38  40
DOCKED: ENDBRANCH  37  38
DOCKED: ENDBRANCH  36  37
DOCKED: ENDBRANCH  22  36
DOCKED: BRANCH  12  42
DOCKED: ATOM     42  C   UNL d   1     -22.208  -2.293  12.366 -0.03 -0.00    +0.004 C 
DOCKED: ATOM     43  C   UNL d   1     -21.838  -3.456  11.814 -0.04 -0.00    +0.012 C 
DOCKED: ENDBRANCH  12  42
DOCKED: BRANCH  17  44
DOCKED: ATOM     44  C   UNL d   1     -23.215   0.100   4.819 -0.04 +0.00    +0.004 C 
DOCKED: ATOM     45  C   UNL d   1     -22.557  -0.479   3.810 -0.04 +0.00    +0.012 C 
DOCKED: ENDBRANCH  17  44
DOCKED: TORSDOF 10
DOCKED: TER
DOCKED: ENDMDL
________________________________________________________________________________


	BEGINNING GENETIC ALGORITHM DOCKING 16 of 100
Run: 16 Seed: 798906589 220862635 [ Run 16 of 100 GA/GALS ]
Beginning LAMARCKIAN GENETIC ALGORITHM (LGA), with a maximum of 25000000 energy evaluations.

Final-Value: -10.918


	FINAL GENETIC ALGORITHM DOCKED STATE
	_______________________________________________


Detailed state:  trans 1.919 -16.928 -9.982 quatxyzw -0.412893 -0.479561 -0.162306 -0.757098 center -0.174 -0.001 -0.047 ntor 10 148.2969 -151.1595 173.9355 -156.6281 58.1839 63.0346 16.4468 -89.3038 18.6992 178.1993
State:	  1.919 -16.928  -9.982  -0.632 -0.734 -0.248 -81.582    148.30 -151.16  173.94 -156.63   58.18   63.03   16.45  -89.30   18.70  178.20

DOCKED: MODEL       16
DOCKED: USER    Run = 16
DOCKED: USER    DPF = D:/Protein_go_brrr/autodock/final/mut_Y35F/heme_Fe/dock.dpf
DOCKED: USER  
DOCKED: USER    Estimated Free Energy of Binding    =   -7.30 kcal/mol  [=(1)+(2)+(3)-(4)]
DOCKED: USER    Estimated Inhibition Constant, Ki   =    4.48 uM (micromolar)  [Temperature = 298.15 K]
DOCKED: USER    
DOCKED: USER    (1) Final Intermolecular Energy     =  -10.28 kcal/mol
DOCKED: USER        vdW + Hbond + desolv Energy     =   -9.26 kcal/mol
DOCKED: USER        Electrostatic Energy            =   -1.02 kcal/mol
DOCKED: USER    (2) Final Total Internal Energy     =   -0.64 kcal/mol
DOCKED: USER    (3) Torsional Free Energy           =   +2.98 kcal/mol
DOCKED: USER    (4) Unbound System's Energy  [=(2)] =   -0.64 kcal/mol
DOCKED: USER    
DOCKED: USER    
DOCKED: USER    NEWDPF move heme_Fe_opt.pdbqt
DOCKED: USER    NEWDPF about -0.174000 -0.001000 -0.047000
DOCKED: USER    NEWDPF tran0 1.919263 -16.928360 -9.981945
DOCKED: USER    NEWDPF quaternion0 -0.412893 -0.479561 -0.162306 -0.757098
DOCKED: USER    NEWDPF axisangle0 -0.632010 -0.734058 -0.248440 -81.581995
DOCKED: USER    NEWDPF quat0 -0.632010 -0.734058 -0.248440 -81.581995
DOCKED: USER    NEWDPF dihe0 148.30 -151.16 173.94 -156.63 58.18 63.03 16.45 -89.30 18.70 178.20 
DOCKED: USER  keepresnum = 1 
DOCKED: USER  
DOCKED: REMARK  10 active torsions:
DOCKED: REMARK  status: ('A' for Active; 'I' for Inactive)
DOCKED: REMARK    1  A    between atoms: C_6  and  C_10 
DOCKED: REMARK    2  A    between atoms: C_10  and  C_11 
DOCKED: REMARK    3  A    between atoms: C_11  and  C_12 
DOCKED: REMARK    4  A    between atoms: C_12  and  O_14 
DOCKED: REMARK    5  A    between atoms: C_17  and  C_20 
DOCKED: REMARK    6  A    between atoms: C_24  and  C_27 
DOCKED: REMARK    7  A    between atoms: C_31  and  C_34 
DOCKED: REMARK    8  A    between atoms: C_34  and  C_35 
DOCKED: REMARK    9  A    between atoms: C_35  and  C_36 
DOCKED: REMARK   10  A    between atoms: C_36  and  O_38 
DOCKED: USER                              x       y       z     vdW  Elec       q    Type
DOCKED: USER                           _______ _______ _______ _____ _____    ______ ____
DOCKED: ROOT
DOCKED: ATOM      1  C   UNL d   1       0.601 -16.846 -11.552 -0.25 -0.00    +0.064 C 
DOCKED: ATOM      2  C   UNL d   1       0.362 -18.465  -6.888 -0.18 -0.05    +0.064 A 
DOCKED: ATOM      3  C   UNL d   1       4.421 -16.085  -5.927 -0.25 -0.02    +0.064 C 
DOCKED: ATOM      4  C   UNL d   1       4.728 -14.593 -10.462 -0.27 -0.02    +0.064 C 
DOCKED: ATOM      5  C   UNL d   1       0.202 -17.591 -10.350 -0.27 -0.01    +0.066 A 
DOCKED: ATOM      6  C   UNL d   1      -0.862 -18.476 -10.284 -0.31 +0.00    -0.021 A 
DOCKED: ATOM      7  C   UNL d   1      -0.930 -18.922  -8.988 -0.32 +0.01    -0.025 A 
DOCKED: ATOM      8  C   UNL d   1       0.097 -18.292  -8.311 -0.29 -0.03    +0.066 A 
DOCKED: ATOM      9  C   UNL d   1      -1.915 -19.911  -8.445 -0.23 -0.03    +0.051 C 
DOCKED: ATOM     10  C   UNL d   1       1.379 -17.914  -6.224 -0.29 -0.04    +0.066 A 
DOCKED: ATOM     11  C   UNL d   1       1.541 -18.006  -4.840 -0.28 +0.01    -0.021 A 
DOCKED: ATOM     12  C   UNL d   1       2.696 -17.314  -4.535 -0.25 -0.00    +0.000 A 
DOCKED: ATOM     13  C   UNL d   1       3.179 -16.823  -5.760 -0.22 -0.03    +0.070 A 
DOCKED: ATOM     14  C   UNL d   1       0.604 -18.664  -3.846 -0.33 -0.03    +0.052 C 
DOCKED: ATOM     15  C   UNL d   1       4.864 -15.566  -7.096 -0.20 -0.03    +0.066 A 
DOCKED: ATOM     16  C   UNL d   1       6.103 -14.953  -7.233 -0.21 +0.01    -0.021 A 
DOCKED: ATOM     17  C   UNL d   1       6.192 -14.519  -8.540 -0.22 -0.00    +0.000 A 
DOCKED: ATOM     18  C   UNL d   1       5.001 -14.874  -9.169 -0.23 -0.03    +0.070 A 
DOCKED: ATOM     19  C   UNL d   1       7.154 -14.760  -6.173 -0.20 -0.04    +0.052 C 
DOCKED: ATOM     20  C   UNL d   1       3.512 -15.004 -11.174 -0.20 -0.02    +0.066 A 
DOCKED: ATOM     21  C   UNL d   1       3.126 -14.553 -12.444 -0.19 +0.01    -0.025 A 
DOCKED: ATOM     22  C   UNL d   1       1.954 -15.218 -12.741 -0.17 +0.00    -0.021 A 
DOCKED: ATOM     23  C   UNL d   1       1.669 -16.039 -11.643 -0.21 -0.01    +0.066 A 
DOCKED: ATOM     24  C   UNL d   1       3.814 -13.547 -13.338 -0.16 -0.01    +0.051 C 
DOCKED: ATOM     25  N   UNL d   1       0.789 -17.490  -9.145 -0.21 +0.09    -0.248 N 
DOCKED: ATOM     26  N   UNL d   1       2.372 -17.181  -6.789 -0.03 +0.13    -0.248 N 
DOCKED: ATOM     27  N   UNL d   1       4.202 -15.556  -8.295 +0.02 +0.12    -0.248 N 
DOCKED: ATOM     28  N   UNL d   1       2.599 -15.870 -10.672 -0.17 +0.09    -0.248 N 
DOCKED: ATOM     29 FE   UNL d   1       2.487 -16.525  -8.731 -0.06 -0.00    +0.000 Fe
DOCKED: ENDROOT
DOCKED: BRANCH   6  30
DOCKED: ATOM     30  C   UNL d   1      -1.757 -18.894 -11.400 -0.28 +0.01    +0.052 C 
DOCKED: BRANCH  30  31
DOCKED: ATOM     31  C   UNL d   1      -1.466 -20.332 -11.816 -0.15 +0.03    +0.115 C 
DOCKED: BRANCH  31  32
DOCKED: ATOM     32  C   UNL d   1      -2.061 -20.620 -13.166 -0.11 +0.09    +0.139 C 
DOCKED: ATOM     33  O   UNL d   1      -1.745 -19.954 -14.142 -0.04 -0.43    -0.650 OA
DOCKED: BRANCH  32  34
DOCKED: ATOM     34  O   UNL d   1      -2.950 -21.618 -13.313 -0.19 -0.83    -0.776 OA
DOCKED: ATOM     35  H   UNL d   1      -2.875 -22.400 -12.748 +0.01 +0.11    +0.167 HD
DOCKED: ENDBRANCH  32  34
DOCKED: ENDBRANCH  31  32
DOCKED: ENDBRANCH  30  31
DOCKED: ENDBRANCH   6  30
DOCKED: BRANCH  22  36
DOCKED: ATOM     36  C   UNL d   1       1.131 -15.035 -13.988 -0.12 -0.00    +0.052 C 
DOCKED: BRANCH  36  37
DOCKED: ATOM     37  C   UNL d   1       0.191 -13.851 -13.814 -0.19 -0.01    +0.115 C 
DOCKED: BRANCH  37  38
DOCKED: ATOM     38  C   UNL d   1       0.840 -12.576 -14.272 -0.20 -0.01    +0.139 C 
DOCKED: ATOM     39  O   UNL d   1       1.170 -12.426 -15.439 +0.00 +0.01    -0.650 OA
DOCKED: BRANCH  38  40
DOCKED: ATOM     40  O   UNL d   1       1.066 -11.584 -13.391 -0.20 +0.01    -0.776 OA
DOCKED: ATOM     41  H   UNL d   1       1.211 -11.806 -12.461 -0.49 -0.05    +0.167 HD
DOCKED: ENDBRANCH  38  40
DOCKED: ENDBRANCH  37  38
DOCKED: ENDBRANCH  36  37
DOCKED: ENDBRANCH  22  36
DOCKED: BRANCH  12  42
DOCKED: ATOM     42  C   UNL d   1       3.252 -17.141  -3.157 -0.31 -0.00    +0.004 C 
DOCKED: ATOM     43  C   UNL d   1       3.751 -15.964  -2.758 -0.35 -0.00    +0.012 C 
DOCKED: ENDBRANCH  12  42
DOCKED: BRANCH  17  44
DOCKED: ATOM     44  C   UNL d   1       7.350 -13.829  -9.151 -0.18 -0.00    +0.004 C 
DOCKED: ATOM     45  C   UNL d   1       7.329 -12.508  -9.357 -0.29 -0.01    +0.012 C 
DOCKED: ENDBRANCH  17  44
DOCKED: TORSDOF 10
DOCKED: TER
DOCKED: ENDMDL
________________________________________________________________________________


	BEGINNING GENETIC ALGORITHM DOCKING 17 of 100
Run: 17 Seed: 1938442542 1303404835 [ Run 17 of 100 GA/GALS ]
Beginning LAMARCKIAN GENETIC ALGORITHM (LGA), with a maximum of 25000000 energy evaluations.

Final-Value: -10.539


	FINAL GENETIC ALGORITHM DOCKED STATE
	_______________________________________________


Detailed state:  trans -14.456 7.220 12.884 quatxyzw 0.746133 0.521813 0.289026 -0.295740 center -0.174 -0.001 -0.047 ntor 10 164.2056 -108.3110 -162.3768 -158.1155 -51.9490 -174.5326 -124.0985 -108.0531 138.0841 148.0457
State:	-14.456   7.220  12.884   0.781  0.546  0.303 -145.596    164.21 -108.31 -162.38 -158.12  -51.95 -174.53 -124.10 -108.05  138.08  148.05

DOCKED: MODEL       17
DOCKED: USER    Run = 17
DOCKED: USER    DPF = D:/Protein_go_brrr/autodock/final/mut_Y35F/heme_Fe/dock.dpf
DOCKED: USER  
DOCKED: USER    Estimated Free Energy of Binding    =   -7.34 kcal/mol  [=(1)+(2)+(3)-(4)]
DOCKED: USER    Estimated Inhibition Constant, Ki   =    4.19 uM (micromolar)  [Temperature = 298.15 K]
DOCKED: USER    
DOCKED: USER    (1) Final Intermolecular Energy     =  -10.32 kcal/mol
DOCKED: USER        vdW + Hbond + desolv Energy     =   -6.93 kcal/mol
DOCKED: USER        Electrostatic Energy            =   -3.39 kcal/mol
DOCKED: USER    (2) Final Total Internal Energy     =   -0.22 kcal/mol
DOCKED: USER    (3) Torsional Free Energy           =   +2.98 kcal/mol
DOCKED: USER    (4) Unbound System's Energy  [=(2)] =   -0.22 kcal/mol
DOCKED: USER    
DOCKED: USER    
DOCKED: USER    NEWDPF move heme_Fe_opt.pdbqt
DOCKED: USER    NEWDPF about -0.174000 -0.001000 -0.047000
DOCKED: USER    NEWDPF tran0 -14.456043 7.220179 12.883921
DOCKED: USER    NEWDPF quaternion0 0.746133 0.521813 0.289026 -0.295740
DOCKED: USER    NEWDPF axisangle0 0.781071 0.546247 0.302560 -145.596211
DOCKED: USER    NEWDPF quat0 0.781071 0.546247 0.302560 -145.596211
DOCKED: USER    NEWDPF dihe0 164.21 -108.31 -162.38 -158.12 -51.95 -174.53 -124.10 -108.05 138.08 148.05 
DOCKED: USER  keepresnum = 1 
DOCKED: USER  
DOCKED: REMARK  10 active torsions:
DOCKED: REMARK  status: ('A' for Active; 'I' for Inactive)
DOCKED: REMARK    1  A    between atoms: C_6  and  C_10 
DOCKED: REMARK    2  A    between atoms: C_10  and  C_11 
DOCKED: REMARK    3  A    between atoms: C_11  and  C_12 
DOCKED: REMARK    4  A    between atoms: C_12  and  O_14 
DOCKED: REMARK    5  A    between atoms: C_17  and  C_20 
DOCKED: REMARK    6  A    between atoms: C_24  and  C_27 
DOCKED: REMARK    7  A    between atoms: C_31  and  C_34 
DOCKED: REMARK    8  A    between atoms: C_34  and  C_35 
DOCKED: REMARK    9  A    between atoms: C_35  and  C_36 
DOCKED: REMARK   10  A    between atoms: C_36  and  O_38 
DOCKED: USER                              x       y       z     vdW  Elec       q    Type
DOCKED: USER                           _______ _______ _______ _____ _____    ______ ____
DOCKED: ROOT
DOCKED: ATOM      1  C   UNL d   1     -14.669   5.281  12.247 -0.19 +0.06    +0.064 C 
DOCKED: ATOM      2  C   UNL d   1     -15.781   9.709  10.352 -0.04 +0.06    +0.064 A 
DOCKED: ATOM      3  C   UNL d   1     -12.944  11.753  13.645 -0.08 +0.04    +0.064 C 
DOCKED: ATOM      4  C   UNL d   1     -11.938   7.486  15.560 -0.13 +0.03    +0.064 C 
DOCKED: ATOM      5  C   UNL d   1     -15.311   6.344  11.461 -0.11 +0.07    +0.066 A 
DOCKED: ATOM      6  C   UNL d   1     -16.278   6.136  10.491 -0.09 -0.02    -0.021 A 
DOCKED: ATOM      7  C   UNL d   1     -16.583   7.366   9.963 -0.04 -0.02    -0.025 A 
DOCKED: ATOM      8  C   UNL d   1     -15.790   8.278  10.632 -0.05 +0.07    +0.066 A 
DOCKED: ATOM      9  C   UNL d   1     -17.593   7.641   8.891 -0.00 +0.02    +0.051 C 
DOCKED: ATOM     10  C   UNL d   1     -15.068  10.617  11.021 -0.06 +0.06    +0.066 A 
DOCKED: ATOM     11  C   UNL d   1     -14.992  11.964  10.657 -0.05 -0.01    -0.021 A 
DOCKED: ATOM     12  C   UNL d   1     -14.166  12.572  11.581 -0.08 +0.00    +0.000 A 
DOCKED: ATOM     13  C   UNL d   1     -13.771  11.553  12.465 -0.12 +0.06    +0.070 A 
DOCKED: ATOM     14  C   UNL d   1     -15.620  12.626   9.447 -0.01 +0.01    +0.052 C 
DOCKED: ATOM     15  C   UNL d   1     -12.518  10.767  14.470 -0.12 +0.04    +0.066 A 
DOCKED: ATOM     16  C   UNL d   1     -11.813  11.011  15.641 -0.09 -0.01    -0.021 A 
DOCKED: ATOM     17  C   UNL d   1     -11.518   9.781  16.194 -0.09 +0.00    +0.000 A 
DOCKED: ATOM     18  C   UNL d   1     -12.049   8.815  15.342 -0.13 +0.04    +0.070 A 
DOCKED: ATOM     19  C   UNL d   1     -11.407  12.344  16.209 -0.06 +0.01    +0.052 C 
DOCKED: ATOM     20  C   UNL d   1     -12.536   6.442  14.719 -0.12 +0.04    +0.066 A 
DOCKED: ATOM     21  C   UNL d   1     -12.265   5.070  14.817 -0.19 -0.01    -0.025 A 
DOCKED: ATOM     22  C   UNL d   1     -13.063   4.459  13.872 -0.21 -0.01    -0.021 A 
DOCKED: ATOM     23  C   UNL d   1     -13.781   5.478  13.234 -0.15 +0.06    +0.066 A 
DOCKED: ATOM     24  C   UNL d   1     -11.304   4.362  15.744 -0.24 +0.01    +0.051 C 
DOCKED: ATOM     25  N   UNL d   1     -15.024   7.655  11.549 -0.02 -0.38    -0.248 N 
DOCKED: ATOM     26  N   UNL d   1     -14.313  10.360  12.119 -0.01 -0.35    -0.248 N 
DOCKED: ATOM     27  N   UNL d   1     -12.701   9.421  14.305 -0.14 -0.23    -0.248 N 
DOCKED: ATOM     28  N   UNL d   1     -13.422   6.689  13.725 -0.09 -0.24    -0.248 N 
DOCKED: ATOM     29 FE   UNL d   1     -13.867   8.524  12.924 -0.04 +0.00    +0.000 Fe
DOCKED: ENDROOT
DOCKED: BRANCH   6  30
DOCKED: ATOM     30  C   UNL d   1     -16.897   4.839  10.099 -0.15 +0.04    +0.052 C 
DOCKED: BRANCH  30  31
DOCKED: ATOM     31  C   UNL d   1     -16.914   4.685   8.582 -0.16 +0.08    +0.115 C 
DOCKED: BRANCH  31  32
DOCKED: ATOM     32  C   UNL d   1     -15.525   4.823   8.024 -0.06 +0.19    +0.139 C 
DOCKED: ATOM     33  O   UNL d   1     -14.832   5.790   8.308 -0.11 -0.87    -0.650 OA
DOCKED: BRANCH  32  34
DOCKED: ATOM     34  O   UNL d   1     -15.030   3.881   7.203 -0.45 -1.31    -0.776 OA
DOCKED: ATOM     35  H   UNL d   1     -15.468   3.020   7.159 -0.54 +0.17    +0.167 HD
DOCKED: ENDBRANCH  32  34
DOCKED: ENDBRANCH  31  32
DOCKED: ENDBRANCH  30  31
DOCKED: ENDBRANCH   6  30
DOCKED: BRANCH  22  36
DOCKED: ATOM     36  C   UNL d   1     -13.096   2.985  13.568 -0.35 +0.03    +0.052 C 
DOCKED: BRANCH  36  37
DOCKED: ATOM     37  C   UNL d   1     -12.594   2.741  12.152 -0.37 +0.14    +0.115 C 
DOCKED: BRANCH  37  38
DOCKED: ATOM     38  C   UNL d   1     -11.114   2.979  12.057 -0.53 +0.15    +0.139 C 
DOCKED: ATOM     39  O   UNL d   1     -10.541   2.930  10.978 -0.55 -0.88    -0.650 OA
DOCKED: BRANCH  38  40
DOCKED: ATOM     40  O   UNL d   1     -10.404   3.246  13.168 -0.42 -0.60    -0.776 OA
DOCKED: ATOM     41  H   UNL d   1     -10.248   2.537  13.807 -0.20 +0.08    +0.167 HD
DOCKED: ENDBRANCH  38  40
DOCKED: ENDBRANCH  37  38
DOCKED: ENDBRANCH  36  37
DOCKED: ENDBRANCH  22  36
DOCKED: BRANCH  12  42
DOCKED: ATOM     42  C   UNL d   1     -13.792  14.020  11.573 -0.06 +0.00    +0.004 C 
DOCKED: ATOM     43  C   UNL d   1     -12.526  14.404  11.362 -0.14 -0.00    +0.012 C 
DOCKED: ENDBRANCH  12  42
DOCKED: BRANCH  17  44
DOCKED: ATOM     44  C   UNL d   1     -10.795   9.547  17.464 -0.04 +0.00    +0.004 C 
DOCKED: ATOM     45  C   UNL d   1      -9.521   9.141  17.462 -0.07 +0.00    +0.012 C 
DOCKED: ENDBRANCH  17  44
DOCKED: TORSDOF 10
DOCKED: TER
DOCKED: ENDMDL
________________________________________________________________________________


	BEGINNING GENETIC ALGORITHM DOCKING 18 of 100
Run: 18 Seed: 1860652130 837508222 [ Run 18 of 100 GA/GALS ]
Beginning LAMARCKIAN GENETIC ALGORITHM (LGA), with a maximum of 25000000 energy evaluations.

Final-Value: -11.308


	FINAL GENETIC ALGORITHM DOCKED STATE
	_______________________________________________


Detailed state:  trans 20.602 -3.264 -7.680 quatxyzw 0.448169 0.627100 0.232851 -0.593018 center -0.174 -0.001 -0.047 ntor 10 -126.1122 62.1704 105.2358 -7.8859 109.1018 -93.3497 100.2562 -132.7984 32.5607 -10.6885
State:	 20.602  -3.264  -7.680   0.557  0.779  0.289 -107.257   -126.11   62.17  105.24   -7.89  109.10  -93.35  100.26 -132.80   32.56  -10.69

DOCKED: MODEL       18
DOCKED: USER    Run = 18
DOCKED: USER    DPF = D:/Protein_go_brrr/autodock/final/mut_Y35F/heme_Fe/dock.dpf
DOCKED: USER  
DOCKED: USER    Estimated Free Energy of Binding    =   -6.94 kcal/mol  [=(1)+(2)+(3)-(4)]
DOCKED: USER    Estimated Inhibition Constant, Ki   =    8.21 uM (micromolar)  [Temperature = 298.15 K]
DOCKED: USER    
DOCKED: USER    (1) Final Intermolecular Energy     =   -9.92 kcal/mol
DOCKED: USER        vdW + Hbond + desolv Energy     =   -6.77 kcal/mol
DOCKED: USER        Electrostatic Energy            =   -3.15 kcal/mol
DOCKED: USER    (2) Final Total Internal Energy     =   -1.39 kcal/mol
DOCKED: USER    (3) Torsional Free Energy           =   +2.98 kcal/mol
DOCKED: USER    (4) Unbound System's Energy  [=(2)] =   -1.39 kcal/mol
DOCKED: USER    
DOCKED: USER    
DOCKED: USER    NEWDPF move heme_Fe_opt.pdbqt
DOCKED: USER    NEWDPF about -0.174000 -0.001000 -0.047000
DOCKED: USER    NEWDPF tran0 20.602117 -3.263895 -7.680146
DOCKED: USER    NEWDPF quaternion0 0.448169 0.627100 0.232851 -0.593018
DOCKED: USER    NEWDPF axisangle0 0.556601 0.778823 0.289189 -107.256996
DOCKED: USER    NEWDPF quat0 0.556601 0.778823 0.289189 -107.256996
DOCKED: USER    NEWDPF dihe0 -126.11 62.17 105.24 -7.89 109.10 -93.35 100.26 -132.80 32.56 -10.69 
DOCKED: USER  keepresnum = 1 
DOCKED: USER  
DOCKED: REMARK  10 active torsions:
DOCKED: REMARK  status: ('A' for Active; 'I' for Inactive)
DOCKED: REMARK    1  A    between atoms: C_6  and  C_10 
DOCKED: REMARK    2  A    between atoms: C_10  and  C_11 
DOCKED: REMARK    3  A    between atoms: C_11  and  C_12 
DOCKED: REMARK    4  A    between atoms: C_12  and  O_14 
DOCKED: REMARK    5  A    between atoms: C_17  and  C_20 
DOCKED: REMARK    6  A    between atoms: C_24  and  C_27 
DOCKED: REMARK    7  A    between atoms: C_31  and  C_34 
DOCKED: REMARK    8  A    between atoms: C_34  and  C_35 
DOCKED: REMARK    9  A    between atoms: C_35  and  C_36 
DOCKED: REMARK   10  A    between atoms: C_36  and  O_38 
DOCKED: USER                              x       y       z     vdW  Elec       q    Type
DOCKED: USER                           _______ _______ _______ _____ _____    ______ ____
DOCKED: ROOT
DOCKED: ATOM      1  C   UNL d   1      20.884  -5.081  -6.769 -0.13 +0.02    +0.064 C 
DOCKED: ATOM      2  C   UNL d   1      20.132  -3.602 -11.425 -0.11 -0.01    +0.064 A 
DOCKED: ATOM      3  C   UNL d   1      21.157   0.896 -10.088 -0.22 -0.02    +0.064 C 
DOCKED: ATOM      4  C   UNL d   1      21.786  -0.497  -5.555 -0.22 +0.00    +0.064 C 
DOCKED: ATOM      5  C   UNL d   1      20.496  -5.068  -8.186 -0.09 +0.02    +0.066 A 
DOCKED: ATOM      6  C   UNL d   1      20.030  -6.168  -8.888 -0.04 -0.00    -0.021 A 
DOCKED: ATOM      7  C   UNL d   1      19.825  -5.757 -10.182 -0.03 -0.00    -0.025 A 
DOCKED: ATOM      8  C   UNL d   1      20.174  -4.421 -10.220 -0.07 -0.00    +0.066 A 
DOCKED: ATOM      9  C   UNL d   1      19.306  -6.602 -11.305 -0.02 -0.00    +0.051 C 
DOCKED: ATOM     10  C   UNL d   1      20.408  -2.298 -11.477 -0.16 -0.01    +0.066 A 
DOCKED: ATOM     11  C   UNL d   1      20.470  -1.565 -12.665 -0.14 +0.01    -0.021 A 
DOCKED: ATOM     12  C   UNL d   1      20.781  -0.268 -12.308 -0.23 -0.00    +0.000 A 
DOCKED: ATOM     13  C   UNL d   1      20.901  -0.278 -10.907 -0.21 -0.02    +0.070 A 
DOCKED: ATOM     14  C   UNL d   1      20.310  -2.090 -14.077 -0.06 -0.03    +0.052 C 
DOCKED: ATOM     15  C   UNL d   1      21.324   0.883  -8.745 -0.22 -0.01    +0.066 A 
DOCKED: ATOM     16  C   UNL d   1      21.467   2.039  -7.987 -0.26 +0.01    -0.021 A 
DOCKED: ATOM     17  C   UNL d   1      21.653   1.639  -6.680 -0.26 -0.00    +0.000 A 
DOCKED: ATOM     18  C   UNL d   1      21.622   0.246  -6.671 -0.23 -0.00    +0.070 A 
DOCKED: ATOM     19  C   UNL d   1      21.456   3.463  -8.473 -0.30 -0.03    +0.052 C 
DOCKED: ATOM     20  C   UNL d   1      21.699  -1.961  -5.498 -0.14 -0.00    +0.066 A 
DOCKED: ATOM     21  C   UNL d   1      22.062  -2.752  -4.399 -0.19 -0.00    -0.025 A 
DOCKED: ATOM     22  C   UNL d   1      21.785  -4.053  -4.762 -0.14 -0.00    -0.021 A 
DOCKED: ATOM     23  C   UNL d   1      21.272  -4.007  -6.064 -0.13 +0.01    +0.066 A 
DOCKED: ATOM     24  C   UNL d   1      22.643  -2.315  -3.074 -0.14 +0.01    +0.051 C 
DOCKED: ATOM     25  N   UNL d   1      20.572  -4.002  -9.002 -0.06 -0.02    -0.248 N 
DOCKED: ATOM     26  N   UNL d   1      20.682  -1.517 -10.401 -0.14 +0.04    -0.248 N 
DOCKED: ATOM     27  N   UNL d   1      21.377  -0.218  -7.933 -0.14 +0.03    -0.248 N 
DOCKED: ATOM     28  N   UNL d   1      21.265  -2.732  -6.524 -0.07 -0.00    -0.248 N 
DOCKED: ATOM     29 FE   UNL d   1      20.974  -2.123  -8.461 -0.04 +0.00    +0.000 Fe
DOCKED: ENDROOT
DOCKED: BRANCH   6  30
DOCKED: ATOM     30  C   UNL d   1      19.772  -7.535  -8.354 -0.02 +0.01    +0.052 C 
DOCKED: BRANCH  30  31
DOCKED: ATOM     31  C   UNL d   1      18.319  -7.939  -8.583 -0.03 +0.03    +0.115 C 
DOCKED: BRANCH  31  32
DOCKED: ATOM     32  C   UNL d   1      17.430  -7.313  -7.545 -0.02 +0.13    +0.139 C 
DOCKED: ATOM     33  O   UNL d   1      16.660  -6.411  -7.847 -0.46 -0.85    -0.650 OA
DOCKED: BRANCH  32  34
DOCKED: ATOM     34  O   UNL d   1      17.473  -7.740  -6.272 +0.05 -1.09    -0.776 OA
DOCKED: ATOM     35  H   UNL d   1      18.324  -7.761  -5.813 +0.01 +0.20    +0.167 HD
DOCKED: ENDBRANCH  32  34
DOCKED: ENDBRANCH  31  32
DOCKED: ENDBRANCH  30  31
DOCKED: ENDBRANCH   6  30
DOCKED: BRANCH  22  36
DOCKED: ATOM     36  C   UNL d   1      22.044  -5.275  -3.921 -0.07 +0.01    +0.052 C 
DOCKED: BRANCH  36  37
DOCKED: ATOM     37  C   UNL d   1      20.861  -5.524  -2.997 -0.11 +0.04    +0.115 C 
DOCKED: BRANCH  37  38
DOCKED: ATOM     38  C   UNL d   1      19.562  -5.415  -3.744 -0.07 +0.14    +0.139 C 
DOCKED: ATOM     39  O   UNL d   1      18.948  -4.359  -3.780 -0.58 -0.84    -0.650 OA
DOCKED: BRANCH  38  40
DOCKED: ATOM     40  O   UNL d   1      19.061  -6.490  -4.379 +0.02 -1.21    -0.776 OA
DOCKED: ATOM     41  H   UNL d   1      18.946  -6.457  -5.338 +0.02 +0.30    +0.167 HD
DOCKED: ENDBRANCH  38  40
DOCKED: ENDBRANCH  37  38
DOCKED: ENDBRANCH  36  37
DOCKED: ENDBRANCH  22  36
DOCKED: BRANCH  12  42
DOCKED: ATOM     42  C   UNL d   1      20.960   0.864 -13.268 -0.27 -0.00    +0.004 C 
DOCKED: ATOM     43  C   UNL d   1      20.732   2.129 -12.892 -0.31 -0.00    +0.012 C 
DOCKED: ENDBRANCH  12  42
DOCKED: BRANCH  17  44
DOCKED: ATOM     44  C   UNL d   1      21.827   2.532  -5.512 -0.31 -0.00    +0.004 C 
DOCKED: ATOM     45  C   UNL d   1      21.026   3.588  -5.332 -0.41 -0.00    +0.012 C 
DOCKED: ENDBRANCH  17  44
DOCKED: TORSDOF 10
DOCKED: TER
DOCKED: ENDMDL
________________________________________________________________________________


	BEGINNING GENETIC ALGORITHM DOCKING 19 of 100
Run: 19 Seed: 1594441789 280836425 [ Run 19 of 100 GA/GALS ]
Beginning LAMARCKIAN GENETIC ALGORITHM (LGA), with a maximum of 25000000 energy evaluations.

Final-Value: -11.943


	FINAL GENETIC ALGORITHM DOCKED STATE
	_______________________________________________


Detailed state:  trans 8.043 6.273 9.922 quatxyzw -0.324382 0.698546 -0.530451 -0.354164 center -0.174 -0.001 -0.047 ntor 10 180.0000 131.5431 -145.1439 9.6721 -1.0166 84.5441 47.0292 -148.3443 23.5661 152.1599
State:	  8.043   6.273   9.922  -0.347  0.747 -0.567 -138.516    180.00  131.54 -145.14    9.67   -1.02   84.54   47.03 -148.34   23.57  152.16

DOCKED: MODEL       19
DOCKED: USER    Run = 19
DOCKED: USER    DPF = D:/Protein_go_brrr/autodock/final/mut_Y35F/heme_Fe/dock.dpf
DOCKED: USER  
DOCKED: USER    Estimated Free Energy of Binding    =   -8.37 kcal/mol  [=(1)+(2)+(3)-(4)]
DOCKED: USER    Estimated Inhibition Constant, Ki   =  738.49 nM (nanomolar)  [Temperature = 298.15 K]
DOCKED: USER    
DOCKED: USER    (1) Final Intermolecular Energy     =  -11.35 kcal/mol
DOCKED: USER        vdW + Hbond + desolv Energy     =   -8.70 kcal/mol
DOCKED: USER        Electrostatic Energy            =   -2.65 kcal/mol
DOCKED: USER    (2) Final Total Internal Energy     =   -0.59 kcal/mol
DOCKED: USER    (3) Torsional Free Energy           =   +2.98 kcal/mol
DOCKED: USER    (4) Unbound System's Energy  [=(2)] =   -0.59 kcal/mol
DOCKED: USER    
DOCKED: USER    
DOCKED: USER    NEWDPF move heme_Fe_opt.pdbqt
DOCKED: USER    NEWDPF about -0.174000 -0.001000 -0.047000
DOCKED: USER    NEWDPF tran0 8.043020 6.272669 9.921560
DOCKED: USER    NEWDPF quaternion0 -0.324382 0.698546 -0.530451 -0.354164
DOCKED: USER    NEWDPF axisangle0 -0.346864 0.746962 -0.567216 -138.515582
DOCKED: USER    NEWDPF quat0 -0.346864 0.746962 -0.567216 -138.515582
DOCKED: USER    NEWDPF dihe0 180.00 131.54 -145.14 9.67 -1.02 84.54 47.03 -148.34 23.57 152.16 
DOCKED: USER  keepresnum = 1 
DOCKED: USER  
DOCKED: REMARK  10 active torsions:
DOCKED: REMARK  status: ('A' for Active; 'I' for Inactive)
DOCKED: REMARK    1  A    between atoms: C_6  and  C_10 
DOCKED: REMARK    2  A    between atoms: C_10  and  C_11 
DOCKED: REMARK    3  A    between atoms: C_11  and  C_12 
DOCKED: REMARK    4  A    between atoms: C_12  and  O_14 
DOCKED: REMARK    5  A    between atoms: C_17  and  C_20 
DOCKED: REMARK    6  A    between atoms: C_24  and  C_27 
DOCKED: REMARK    7  A    between atoms: C_31  and  C_34 
DOCKED: REMARK    8  A    between atoms: C_34  and  C_35 
DOCKED: REMARK    9  A    between atoms: C_35  and  C_36 
DOCKED: REMARK   10  A    between atoms: C_36  and  O_38 
DOCKED: USER                              x       y       z     vdW  Elec       q    Type
DOCKED: USER                           _______ _______ _______ _____ _____    ______ ____
DOCKED: ROOT
DOCKED: ATOM      1  C   UNL d   1       9.561   7.629  10.178 -0.03 +0.05    +0.064 C 
DOCKED: ATOM      2  C   UNL d   1       7.689   3.947  12.892 -0.13 +0.03    +0.064 A 
DOCKED: ATOM      3  C   UNL d   1       5.410   2.322   8.989 -0.29 +0.01    +0.064 C 
DOCKED: ATOM      4  C   UNL d   1       7.127   5.937   6.369 -0.33 +0.02    +0.064 C 
DOCKED: ATOM      5  C   UNL d   1       9.178   6.792  11.323 -0.11 +0.06    +0.066 A 
DOCKED: ATOM      6  C   UNL d   1       9.556   7.026  12.635 -0.11 -0.01    -0.021 A 
DOCKED: ATOM      7  C   UNL d   1       9.038   6.001  13.388 -0.09 -0.01    -0.025 A 
DOCKED: ATOM      8  C   UNL d   1       8.364   5.179  12.505 -0.14 +0.05    +0.066 A 
DOCKED: ATOM      9  C   UNL d   1       9.173   5.839  14.871 -0.04 +0.01    +0.051 C 
DOCKED: ATOM     10  C   UNL d   1       6.983   3.168  12.071 -0.16 +0.03    +0.066 A 
DOCKED: ATOM     11  C   UNL d   1       6.444   1.935  12.446 -0.15 -0.00    -0.021 A 
DOCKED: ATOM     12  C   UNL d   1       5.796   1.437  11.333 -0.24 +0.00    +0.000 A 
DOCKED: ATOM     13  C   UNL d   1       5.982   2.398  10.324 -0.24 +0.02    +0.070 A 
DOCKED: ATOM     14  C   UNL d   1       6.597   1.232  13.780 -0.06 +0.00    +0.052 C 
DOCKED: ATOM     15  C   UNL d   1       5.629   3.218   7.999 -0.35 +0.02    +0.066 A 
DOCKED: ATOM     16  C   UNL d   1       4.985   3.163   6.769 -0.46 -0.00    -0.021 A 
DOCKED: ATOM     17  C   UNL d   1       5.481   4.203   6.011 -0.42 +0.00    +0.000 A 
DOCKED: ATOM     18  C   UNL d   1       6.421   4.867   6.795 -0.36 +0.02    +0.070 A 
DOCKED: ATOM     19  C   UNL d   1       3.961   2.158   6.313 -0.40 +0.00    +0.052 C 
DOCKED: ATOM     20  C   UNL d   1       8.079   6.698   7.187 -0.31 +0.03    +0.066 A 
DOCKED: ATOM     21  C   UNL d   1       8.959   7.677   6.704 -0.27 -0.01    -0.025 A 
DOCKED: ATOM     22  C   UNL d   1       9.634   8.155   7.809 -0.23 -0.01    -0.021 A 
DOCKED: ATOM     23  C   UNL d   1       9.146   7.448   8.914 -0.10 +0.05    +0.066 A 
DOCKED: ATOM     24  C   UNL d   1       9.165   8.142   5.281 -0.29 +0.01    +0.051 C 
DOCKED: ATOM     25  N   UNL d   1       8.443   5.668  11.251 -0.06 -0.31    -0.248 N 
DOCKED: ATOM     26  N   UNL d   1       6.713   3.449  10.771 -0.09 -0.16    -0.248 N 
DOCKED: ATOM     27  N   UNL d   1       6.481   4.289   8.033 -0.23 -0.13    -0.248 N 
DOCKED: ATOM     28  N   UNL d   1       8.230   6.530   8.523 -0.19 -0.20    -0.248 N 
DOCKED: ATOM     29 FE   UNL d   1       7.471   4.990   9.645 -0.07 +0.00    +0.000 Fe
DOCKED: ENDROOT
DOCKED: BRANCH   6  30
DOCKED: ATOM     30  C   UNL d   1      10.349   8.176  13.154 -0.08 +0.02    +0.052 C 
DOCKED: BRANCH  30  31
DOCKED: ATOM     31  C   UNL d   1       9.492   9.063  14.051 -0.10 +0.05    +0.115 C 
DOCKED: BRANCH  31  32
DOCKED: ATOM     32  C   UNL d   1       9.670  10.510  13.683 -0.16 +0.10    +0.139 C 
DOCKED: ATOM     33  O   UNL d   1      10.436  10.837  12.788 -0.03 -0.39    -0.650 OA
DOCKED: BRANCH  32  34
DOCKED: ATOM     34  O   UNL d   1       8.985  11.462  14.340 -0.54 -1.22    -0.776 OA
DOCKED: ATOM     35  H   UNL d   1       8.379  11.200  15.048 +0.03 +0.20    +0.167 HD
DOCKED: ENDBRANCH  32  34
DOCKED: ENDBRANCH  31  32
DOCKED: ENDBRANCH  30  31
DOCKED: ENDBRANCH   6  30
DOCKED: BRANCH  22  36
DOCKED: ATOM     36  C   UNL d   1      10.721   9.197   7.792 -0.18 +0.01    +0.052 C 
DOCKED: BRANCH  36  37
DOCKED: ATOM     37  C   UNL d   1      12.054   8.554   8.143 -0.06 +0.04    +0.115 C 
DOCKED: BRANCH  37  38
DOCKED: ATOM     38  C   UNL d   1      12.100   7.124   7.684 -0.10 +0.08    +0.139 C 
DOCKED: ATOM     39  O   UNL d   1      12.415   6.845   6.537 +0.01 -0.29    -0.650 OA
DOCKED: BRANCH  38  40
DOCKED: ATOM     40  O   UNL d   1      11.787   6.134   8.540 -0.11 -1.04    -0.776 OA
DOCKED: ATOM     41  H   UNL d   1      12.193   6.127   9.418 +0.01 +0.21    +0.167 HD
DOCKED: ENDBRANCH  38  40
DOCKED: ENDBRANCH  37  38
DOCKED: ENDBRANCH  36  37
DOCKED: ENDBRANCH  22  36
DOCKED: BRANCH  12  42
DOCKED: ATOM     42  C   UNL d   1       5.079   0.126  11.275 -0.31 -0.00    +0.004 C 
DOCKED: ATOM     43  C   UNL d   1       5.676  -0.965  10.777 -0.36 -0.00    +0.012 C 
DOCKED: ENDBRANCH  12  42
DOCKED: BRANCH  17  44
DOCKED: ATOM     44  C   UNL d   1       5.068   4.551   4.632 -0.33 +0.00    +0.004 C 
DOCKED: ATOM     45  C   UNL d   1       3.816   4.942   4.371 -0.45 +0.00    +0.012 C 
DOCKED: ENDBRANCH  17  44
DOCKED: TORSDOF 10
DOCKED: TER
DOCKED: ENDMDL
________________________________________________________________________________


	BEGINNING GENETIC ALGORITHM DOCKING 20 of 100
Run: 20 Seed: 231877587 536747974 [ Run 20 of 100 GA/GALS ]
Beginning LAMARCKIAN GENETIC ALGORITHM (LGA), with a maximum of 25000000 energy evaluations.

Final-Value: -12.668


	FINAL GENETIC ALGORITHM DOCKED STATE
	_______________________________________________


Detailed state:  trans 11.576 11.580 7.302 quatxyzw -0.546493 -0.456658 0.573769 -0.404471 center -0.174 -0.001 -0.047 ntor 10 72.8031 -78.3695 -102.8087 47.0583 148.8064 41.9375 -38.5949 -40.9200 -169.8083 5.1683
State:	 11.576  11.580   7.302  -0.598 -0.499  0.627 -132.284     72.80  -78.37 -102.81   47.06  148.81   41.94  -38.59  -40.92 -169.81    5.17

DOCKED: MODEL       20
DOCKED: USER    Run = 20
DOCKED: USER    DPF = D:/Protein_go_brrr/autodock/final/mut_Y35F/heme_Fe/dock.dpf
DOCKED: USER  
DOCKED: USER    Estimated Free Energy of Binding    =   -7.81 kcal/mol  [=(1)+(2)+(3)-(4)]
DOCKED: USER    Estimated Inhibition Constant, Ki   =    1.88 uM (micromolar)  [Temperature = 298.15 K]
DOCKED: USER    
DOCKED: USER    (1) Final Intermolecular Energy     =  -10.79 kcal/mol
DOCKED: USER        vdW + Hbond + desolv Energy     =   -7.82 kcal/mol
DOCKED: USER        Electrostatic Energy            =   -2.97 kcal/mol
DOCKED: USER    (2) Final Total Internal Energy     =   -1.87 kcal/mol
DOCKED: USER    (3) Torsional Free Energy           =   +2.98 kcal/mol
DOCKED: USER    (4) Unbound System's Energy  [=(2)] =   -1.87 kcal/mol
DOCKED: USER    
DOCKED: USER    
DOCKED: USER    NEWDPF move heme_Fe_opt.pdbqt
DOCKED: USER    NEWDPF about -0.174000 -0.001000 -0.047000
DOCKED: USER    NEWDPF tran0 11.575926 11.579679 7.302482
DOCKED: USER    NEWDPF quaternion0 -0.546493 -0.456658 0.573769 -0.404471
DOCKED: USER    NEWDPF axisangle0 -0.597554 -0.499325 0.627378 -132.284052
DOCKED: USER    NEWDPF quat0 -0.597554 -0.499325 0.627378 -132.284052
DOCKED: USER    NEWDPF dihe0 72.80 -78.37 -102.81 47.06 148.81 41.94 -38.59 -40.92 -169.81 5.17 
DOCKED: USER  keepresnum = 1 
DOCKED: USER  
DOCKED: REMARK  10 active torsions:
DOCKED: REMARK  status: ('A' for Active; 'I' for Inactive)
DOCKED: REMARK    1  A    between atoms: C_6  and  C_10 
DOCKED: REMARK    2  A    between atoms: C_10  and  C_11 
DOCKED: REMARK    3  A    between atoms: C_11  and  C_12 
DOCKED: REMARK    4  A    between atoms: C_12  and  O_14 
DOCKED: REMARK    5  A    between atoms: C_17  and  C_20 
DOCKED: REMARK    6  A    between atoms: C_24  and  C_27 
DOCKED: REMARK    7  A    between atoms: C_31  and  C_34 
DOCKED: REMARK    8  A    between atoms: C_34  and  C_35 
DOCKED: REMARK    9  A    between atoms: C_35  and  C_36 
DOCKED: REMARK   10  A    between atoms: C_36  and  O_38 
DOCKED: USER                              x       y       z     vdW  Elec       q    Type
DOCKED: USER                           _______ _______ _______ _____ _____    ______ ____
DOCKED: ROOT
DOCKED: ATOM      1  C   UNL d   1      11.193   9.643   7.862 -0.15 +0.02    +0.064 C 
DOCKED: ATOM      2  C   UNL d   1      10.995  14.027  10.136 -0.22 +0.02    +0.064 A 
DOCKED: ATOM      3  C   UNL d   1      11.233  16.183   5.851 -0.18 -0.01    +0.064 C 
DOCKED: ATOM      4  C   UNL d   1      11.533  11.953   3.637 -0.26 -0.01    +0.064 C 
DOCKED: ATOM      5  C   UNL d   1      11.199  10.678   8.905 -0.15 +0.01    +0.066 A 
DOCKED: ATOM      6  C   UNL d   1      11.248  10.429  10.267 -0.14 -0.01    -0.021 A 
DOCKED: ATOM      7  C   UNL d   1      11.189  11.646  10.898 -0.16 -0.01    -0.025 A 
DOCKED: ATOM      8  C   UNL d   1      11.107  12.594   9.896 -0.20 +0.02    +0.066 A 
DOCKED: ATOM      9  C   UNL d   1      11.230  11.877  12.377 -0.17 +0.03    +0.051 C 
DOCKED: ATOM     10  C   UNL d   1      10.971  14.965   9.188 -0.24 +0.01    +0.066 A 
DOCKED: ATOM     11  C   UNL d   1      10.748  16.320   9.445 -0.22 -0.00    -0.021 A 
DOCKED: ATOM     12  C   UNL d   1      10.795  16.962   8.223 -0.16 -0.00    +0.000 A 
DOCKED: ATOM     13  C   UNL d   1      11.039  15.954   7.274 -0.19 -0.01    +0.070 A 
DOCKED: ATOM     14  C   UNL d   1      10.436  16.964  10.781 -0.21 +0.01    +0.052 C 
DOCKED: ATOM     15  C   UNL d   1      11.417  15.211   4.927 -0.14 -0.01    +0.066 A 
DOCKED: ATOM     16  C   UNL d   1      11.698  15.476   3.593 -0.12 +0.00    -0.021 A 
DOCKED: ATOM     17  C   UNL d   1      11.782  14.257   2.951 -0.22 -0.00    +0.000 A 
DOCKED: ATOM     18  C   UNL d   1      11.545  13.276   3.911 -0.19 -0.01    +0.070 A 
DOCKED: ATOM     19  C   UNL d   1      11.858  16.822   2.938 -0.08 -0.01    +0.052 C 
DOCKED: ATOM     20  C   UNL d   1      11.348  10.889   4.632 -0.19 -0.00    +0.066 A 
DOCKED: ATOM     21  C   UNL d   1      11.135   9.534   4.339 -0.27 -0.00    -0.025 A 
DOCKED: ATOM     22  C   UNL d   1      11.053   8.893   5.557 -0.20 -0.00    -0.021 A 
DOCKED: ATOM     23  C   UNL d   1      11.213   9.876   6.541 -0.12 +0.01    +0.066 A 
DOCKED: ATOM     24  C   UNL d   1      11.008   8.870   2.987 -0.44 -0.00    +0.051 C 
DOCKED: ATOM     25  N   UNL d   1      11.123  12.002   8.684 -0.09 -0.04    -0.248 N 
DOCKED: ATOM     26  N   UNL d   1      11.138  14.735   7.861 -0.14 -0.00    -0.248 N 
DOCKED: ATOM     27  N   UNL d   1      11.364  13.858   5.134 -0.03 +0.02    -0.248 N 
DOCKED: ATOM     28  N   UNL d   1      11.348  11.098   5.970 +0.00 -0.02    -0.248 N 
DOCKED: ATOM     29 FE   UNL d   1      11.243  12.916   6.914 -0.04 +0.00    +0.000 Fe
DOCKED: ENDROOT
DOCKED: BRANCH   6  30
DOCKED: ATOM     30  C   UNL d   1      11.367   9.103  10.937 -0.10 +0.02    +0.052 C 
DOCKED: BRANCH  30  31
DOCKED: ATOM     31  C   UNL d   1      10.012   8.407  11.002 -0.10 +0.06    +0.115 C 
DOCKED: BRANCH  31  32
DOCKED: ATOM     32  C   UNL d   1      10.165   6.931  10.760 -0.10 +0.14    +0.139 C 
DOCKED: ATOM     33  O   UNL d   1       9.409   6.130  11.291 -0.45 -0.90    -0.650 OA
DOCKED: BRANCH  32  34
DOCKED: ATOM     34  O   UNL d   1      11.140   6.478   9.954 +0.08 -1.11    -0.776 OA
DOCKED: ATOM     35  H   UNL d   1      10.906   6.136   9.080 +0.02 +0.33    +0.167 HD
DOCKED: ENDBRANCH  32  34
DOCKED: ENDBRANCH  31  32
DOCKED: ENDBRANCH  30  31
DOCKED: ENDBRANCH   6  30
DOCKED: BRANCH  22  36
DOCKED: ATOM     36  C   UNL d   1      10.788   7.425   5.762 -0.13 +0.02    +0.052 C 
DOCKED: BRANCH  36  37
DOCKED: ATOM     37  C   UNL d   1      12.089   6.709   6.093 -0.17 +0.05    +0.115 C 
DOCKED: BRANCH  37  38
DOCKED: ATOM     38  C   UNL d   1      11.886   5.702   7.190 -0.18 +0.14    +0.139 C 
DOCKED: ATOM     39  O   UNL d   1      10.897   4.985   7.205 -0.48 -1.13    -0.650 OA
DOCKED: BRANCH  38  40
DOCKED: ATOM     40  O   UNL d   1      12.799   5.585   8.171 -0.00 -0.77    -0.776 OA
DOCKED: ATOM     41  H   UNL d   1      12.619   5.991   9.030 +0.02 +0.18    +0.167 HD
DOCKED: ENDBRANCH  38  40
DOCKED: ENDBRANCH  37  38
DOCKED: ENDBRANCH  36  37
DOCKED: ENDBRANCH  22  36
DOCKED: BRANCH  12  42
DOCKED: ATOM     42  C   UNL d   1      10.597  18.430   8.019 -0.17 -0.00    +0.004 C 
DOCKED: ATOM     43  C   UNL d   1       9.494  19.045   8.465 -0.23 -0.00    +0.012 C 
DOCKED: ENDBRANCH  12  42
DOCKED: BRANCH  17  44
DOCKED: ATOM     44  C   UNL d   1      12.089  14.045   1.519 -0.40 -0.00    +0.004 C 
DOCKED: ATOM     45  C   UNL d   1      13.314  13.681   1.128 -0.50 -0.00    +0.012 C 
DOCKED: ENDBRANCH  17  44
DOCKED: TORSDOF 10
DOCKED: TER
DOCKED: ENDMDL
________________________________________________________________________________


	BEGINNING GENETIC ALGORITHM DOCKING 21 of 100
Run: 21 Seed: 7348460 2022312169 [ Run 21 of 100 GA/GALS ]
Beginning LAMARCKIAN GENETIC ALGORITHM (LGA), with a maximum of 25000000 energy evaluations.

Final-Value: -10.063


	FINAL GENETIC ALGORITHM DOCKED STATE
	_______________________________________________


Detailed state:  trans 4.849 14.990 -11.749 quatxyzw 0.589420 -0.704276 -0.251104 0.305820 center -0.174 -0.001 -0.047 ntor 10 1.6728 67.4225 65.4042 50.5669 -78.4609 -128.2326 72.8937 -77.3053 -9.7285 -34.9124
State:	  4.849  14.990 -11.749   0.619 -0.740 -0.264 144.385      1.67   67.42   65.40   50.57  -78.46 -128.23   72.89  -77.31   -9.73  -34.91

DOCKED: MODEL       21
DOCKED: USER    Run = 21
DOCKED: USER    DPF = D:/Protein_go_brrr/autodock/final/mut_Y35F/heme_Fe/dock.dpf
DOCKED: USER  
DOCKED: USER    Estimated Free Energy of Binding    =   -4.51 kcal/mol  [=(1)+(2)+(3)-(4)]
DOCKED: USER    Estimated Inhibition Constant, Ki   =  495.42 uM (micromolar)  [Temperature = 298.15 K]
DOCKED: USER    
DOCKED: USER    (1) Final Intermolecular Energy     =   -7.49 kcal/mol
DOCKED: USER        vdW + Hbond + desolv Energy     =   -6.04 kcal/mol
DOCKED: USER        Electrostatic Energy            =   -1.46 kcal/mol
DOCKED: USER    (2) Final Total Internal Energy     =   -2.57 kcal/mol
DOCKED: USER    (3) Torsional Free Energy           =   +2.98 kcal/mol
DOCKED: USER    (4) Unbound System's Energy  [=(2)] =   -2.57 kcal/mol
DOCKED: USER    
DOCKED: USER    
DOCKED: USER    NEWDPF move heme_Fe_opt.pdbqt
DOCKED: USER    NEWDPF about -0.174000 -0.001000 -0.047000
DOCKED: USER    NEWDPF tran0 4.848662 14.990019 -11.749269
DOCKED: USER    NEWDPF quaternion0 0.589420 -0.704276 -0.251104 0.305820
DOCKED: USER    NEWDPF axisangle0 0.619081 -0.739716 -0.263740 144.384946
DOCKED: USER    NEWDPF quat0 0.619081 -0.739716 -0.263740 144.384946
DOCKED: USER    NEWDPF dihe0 1.67 67.42 65.40 50.57 -78.46 -128.23 72.89 -77.31 -9.73 -34.91 
DOCKED: USER  keepresnum = 1 
DOCKED: USER  
DOCKED: REMARK  10 active torsions:
DOCKED: REMARK  status: ('A' for Active; 'I' for Inactive)
DOCKED: REMARK    1  A    between atoms: C_6  and  C_10 
DOCKED: REMARK    2  A    between atoms: C_10  and  C_11 
DOCKED: REMARK    3  A    between atoms: C_11  and  C_12 
DOCKED: REMARK    4  A    between atoms: C_12  and  O_14 
DOCKED: REMARK    5  A    between atoms: C_17  and  C_20 
DOCKED: REMARK    6  A    between atoms: C_24  and  C_27 
DOCKED: REMARK    7  A    between atoms: C_31  and  C_34 
DOCKED: REMARK    8  A    between atoms: C_34  and  C_35 
DOCKED: REMARK    9  A    between atoms: C_35  and  C_36 
DOCKED: REMARK   10  A    between atoms: C_36  and  O_38 
DOCKED: USER                              x       y       z     vdW  Elec       q    Type
DOCKED: USER                           _______ _______ _______ _____ _____    ______ ____
DOCKED: ROOT
DOCKED: ATOM      1  C   UNL d   1       5.212  16.700 -10.675 -0.14 +0.01    +0.064 C 
DOCKED: ATOM      2  C   UNL d   1       8.026  13.495 -13.173 -0.21 +0.00    +0.064 A 
DOCKED: ATOM      3  C   UNL d   1       4.066  11.747 -15.254 -0.20 -0.00    +0.064 C 
DOCKED: ATOM      4  C   UNL d   1       1.315  14.769 -12.767 -0.18 -0.00    +0.064 C 
DOCKED: ATOM      5  C   UNL d   1       6.364  15.904 -11.122 -0.12 +0.01    +0.066 A 
DOCKED: ATOM      6  C   UNL d   1       7.657  16.048 -10.648 -0.17 -0.00    -0.021 A 
DOCKED: ATOM      7  C   UNL d   1       8.439  15.160 -11.345 -0.21 -0.00    -0.025 A 
DOCKED: ATOM      8  C   UNL d   1       7.591  14.507 -12.219 -0.23 +0.00    +0.066 A 
DOCKED: ATOM      9  C   UNL d   1       9.910  14.946 -11.162 -0.18 -0.00    +0.051 C 
DOCKED: ATOM     10  C   UNL d   1       7.221  12.809 -13.986 -0.20 +0.00    +0.066 A 
DOCKED: ATOM     11  C   UNL d   1       7.679  11.928 -14.969 -0.08 -0.00    -0.021 A 
DOCKED: ATOM     12  C   UNL d   1       6.557  11.424 -15.594 -0.15 -0.00    +0.000 A 
DOCKED: ATOM     13  C   UNL d   1       5.461  12.034 -14.960 -0.20 +0.00    +0.070 A 
DOCKED: ATOM     14  C   UNL d   1       9.118  11.634 -15.340 -0.11 -0.00    +0.052 C 
DOCKED: ATOM     15  C   UNL d   1       3.009  12.370 -14.682 -0.14 -0.00    +0.066 A 
DOCKED: ATOM     16  C   UNL d   1       1.691  11.997 -14.916 -0.13 +0.00    -0.021 A 
DOCKED: ATOM     17  C   UNL d   1       0.896  12.869 -14.203 -0.13 -0.00    +0.000 A 
DOCKED: ATOM     18  C   UNL d   1       1.748  13.758 -13.552 -0.13 -0.00    +0.070 A 
DOCKED: ATOM     19  C   UNL d   1       1.195  10.881 -15.796 -0.12 -0.00    +0.052 C 
DOCKED: ATOM     20  C   UNL d   1       2.183  15.685 -12.018 -0.16 +0.00    +0.066 A 
DOCKED: ATOM     21  C   UNL d   1       1.758  16.852 -11.366 -0.08 -0.00    -0.025 A 
DOCKED: ATOM     22  C   UNL d   1       2.883  17.379 -10.766 -0.08 -0.00    -0.021 A 
DOCKED: ATOM     23  C   UNL d   1       3.945  16.522 -11.079 -0.14 +0.01    +0.066 A 
DOCKED: ATOM     24  C   UNL d   1       0.371  17.449 -11.309 -0.03 -0.00    +0.051 C 
DOCKED: ATOM     25  N   UNL d   1       6.328  14.955 -12.074 -0.16 -0.02    -0.248 N 
DOCKED: ATOM     26  N   UNL d   1       5.866  12.886 -13.985 -0.19 -0.01    -0.248 N 
DOCKED: ATOM     27  N   UNL d   1       3.048  13.425 -13.811 -0.11 -0.00    -0.248 N 
DOCKED: ATOM     28  N   UNL d   1       3.520  15.515 -11.880 -0.15 -0.01    -0.248 N 
DOCKED: ATOM     29 FE   UNL d   1       4.691  14.201 -12.933 -0.05 +0.00    +0.000 Fe
DOCKED: ENDROOT
DOCKED: BRANCH   6  30
DOCKED: ATOM     30  C   UNL d   1       8.126  16.967  -9.573 -0.15 +0.01    +0.052 C 
DOCKED: BRANCH  30  31
DOCKED: ATOM     31  C   UNL d   1       7.814  16.392  -8.196 -0.29 +0.03    +0.115 C 
DOCKED: BRANCH  31  32
DOCKED: ATOM     32  C   UNL d   1       6.683  17.146  -7.554 -0.19 +0.08    +0.139 C 
DOCKED: ATOM     33  O   UNL d   1       6.878  18.234  -7.030 -0.52 -0.45    -0.650 OA
DOCKED: BRANCH  32  34
DOCKED: ATOM     34  O   UNL d   1       5.443  16.629  -7.550 -0.02 -0.53    -0.776 OA
DOCKED: ATOM     35  H   UNL d   1       4.722  17.140  -7.154 +0.06 +0.16    +0.167 HD
DOCKED: ENDBRANCH  32  34
DOCKED: ENDBRANCH  31  32
DOCKED: ENDBRANCH  30  31
DOCKED: ENDBRANCH   6  30
DOCKED: BRANCH  22  36
DOCKED: ATOM     36  C   UNL d   1       2.940  18.661  -9.978 -0.04 +0.00    +0.052 C 
DOCKED: BRANCH  36  37
DOCKED: ATOM     37  C   UNL d   1       2.042  18.552  -8.754 -0.04 +0.01    +0.115 C 
DOCKED: BRANCH  37  38
DOCKED: ATOM     38  C   UNL d   1       2.850  18.287  -7.515 -0.08 +0.06    +0.139 C 
DOCKED: ATOM     39  O   UNL d   1       2.568  17.359  -6.771 -0.01 -0.41    -0.650 OA
DOCKED: BRANCH  38  40
DOCKED: ATOM     40  O   UNL d   1       3.896  19.077  -7.214 -0.00 -0.51    -0.776 OA
DOCKED: ATOM     41  H   UNL d   1       4.789  18.708  -7.246 +0.02 +0.13    +0.167 HD
DOCKED: ENDBRANCH  38  40
DOCKED: ENDBRANCH  37  38
DOCKED: ENDBRANCH  36  37
DOCKED: ENDBRANCH  22  36
DOCKED: BRANCH  12  42
DOCKED: ATOM     42  C   UNL d   1       6.575  10.445 -16.725 -0.12 -0.00    +0.004 C 
DOCKED: ATOM     43  C   UNL d   1       6.103   9.201 -16.568 -0.17 -0.00    +0.012 C 
DOCKED: ENDBRANCH  12  42
DOCKED: BRANCH  17  44
DOCKED: ATOM     44  C   UNL d   1      -0.583  12.841 -14.132 -0.12 -0.00    +0.004 C 
DOCKED: ATOM     45  C   UNL d   1      -1.207  12.382 -13.043 -0.16 -0.00    +0.012 C 
DOCKED: ENDBRANCH  17  44
DOCKED: TORSDOF 10
DOCKED: TER
DOCKED: ENDMDL
________________________________________________________________________________


	BEGINNING GENETIC ALGORITHM DOCKING 22 of 100
Run: 22 Seed: 890555520 745190850 [ Run 22 of 100 GA/GALS ]
Beginning LAMARCKIAN GENETIC ALGORITHM (LGA), with a maximum of 25000000 energy evaluations.

Final-Value: -11.871


	FINAL GENETIC ALGORITHM DOCKED STATE
	_______________________________________________


Detailed state:  trans 12.009 11.528 7.146 quatxyzw 0.569447 0.505274 -0.531416 0.371517 center -0.174 -0.001 -0.047 ntor 10 136.2891 -53.9995 178.2248 -144.7213 176.4021 -101.0135 -12.4227 50.2375 180.0000 126.9571
State:	 12.009  11.528   7.146   0.613  0.544 -0.572 136.382    136.29  -54.00  178.22 -144.72  176.40 -101.01  -12.42   50.24  180.00  126.96

DOCKED: MODEL       22
DOCKED: USER    Run = 22
DOCKED: USER    DPF = D:/Protein_go_brrr/autodock/final/mut_Y35F/heme_Fe/dock.dpf
DOCKED: USER  
DOCKED: USER    Estimated Free Energy of Binding    =   -7.44 kcal/mol  [=(1)+(2)+(3)-(4)]
DOCKED: USER    Estimated Inhibition Constant, Ki   =    3.54 uM (micromolar)  [Temperature = 298.15 K]
DOCKED: USER    
DOCKED: USER    (1) Final Intermolecular Energy     =  -10.42 kcal/mol
DOCKED: USER        vdW + Hbond + desolv Energy     =   -7.40 kcal/mol
DOCKED: USER        Electrostatic Energy            =   -3.02 kcal/mol
DOCKED: USER    (2) Final Total Internal Energy     =   -1.45 kcal/mol
DOCKED: USER    (3) Torsional Free Energy           =   +2.98 kcal/mol
DOCKED: USER    (4) Unbound System's Energy  [=(2)] =   -1.45 kcal/mol
DOCKED: USER    
DOCKED: USER    
DOCKED: USER    NEWDPF move heme_Fe_opt.pdbqt
DOCKED: USER    NEWDPF about -0.174000 -0.001000 -0.047000
DOCKED: USER    NEWDPF tran0 12.009271 11.528491 7.145627
DOCKED: USER    NEWDPF quaternion0 0.569447 0.505274 -0.531416 0.371517
DOCKED: USER    NEWDPF axisangle0 0.613347 0.544226 -0.572384 136.381567
DOCKED: USER    NEWDPF quat0 0.613347 0.544226 -0.572384 136.381567
DOCKED: USER    NEWDPF dihe0 136.29 -54.00 178.22 -144.72 176.40 -101.01 -12.42 50.24 180.00 126.96 
DOCKED: USER  keepresnum = 1 
DOCKED: USER  
DOCKED: REMARK  10 active torsions:
DOCKED: REMARK  status: ('A' for Active; 'I' for Inactive)
DOCKED: REMARK    1  A    between atoms: C_6  and  C_10 
DOCKED: REMARK    2  A    between atoms: C_10  and  C_11 
DOCKED: REMARK    3  A    between atoms: C_11  and  C_12 
DOCKED: REMARK    4  A    between atoms: C_12  and  O_14 
DOCKED: REMARK    5  A    between atoms: C_17  and  C_20 
DOCKED: REMARK    6  A    between atoms: C_24  and  C_27 
DOCKED: REMARK    7  A    between atoms: C_31  and  C_34 
DOCKED: REMARK    8  A    between atoms: C_34  and  C_35 
DOCKED: REMARK    9  A    between atoms: C_35  and  C_36 
DOCKED: REMARK   10  A    between atoms: C_36  and  O_38 
DOCKED: USER                              x       y       z     vdW  Elec       q    Type
DOCKED: USER                           _______ _______ _______ _____ _____    ______ ____
DOCKED: ROOT
DOCKED: ATOM      1  C   UNL d   1      11.626   9.558   7.573 -0.12 +0.01    +0.064 C 
DOCKED: ATOM      2  C   UNL d   1      10.941  13.833   9.957 -0.23 +0.02    +0.064 A 
DOCKED: ATOM      3  C   UNL d   1      11.698  16.175   5.833 -0.13 -0.01    +0.064 C 
DOCKED: ATOM      4  C   UNL d   1      12.469  12.055   3.528 -0.25 -0.01    +0.064 C 
DOCKED: ATOM      5  C   UNL d   1      11.446  10.548   8.644 -0.13 +0.01    +0.066 A 
DOCKED: ATOM      6  C   UNL d   1      11.312  10.243   9.988 -0.13 -0.01    -0.021 A 
DOCKED: ATOM      7  C   UNL d   1      11.118  11.430  10.649 -0.16 -0.01    -0.025 A 
DOCKED: ATOM      8  C   UNL d   1      11.141  12.416   9.682 -0.19 +0.02    +0.066 A 
DOCKED: ATOM      9  C   UNL d   1      10.941  11.600  12.127 -0.18 +0.03    +0.051 C 
DOCKED: ATOM     10  C   UNL d   1      11.015  14.810   9.051 -0.24 +0.01    +0.066 A 
DOCKED: ATOM     11  C   UNL d   1      10.706  16.145   9.323 -0.23 -0.00    -0.021 A 
DOCKED: ATOM     12  C   UNL d   1      10.900  16.838   8.145 -0.19 -0.00    +0.000 A 
DOCKED: ATOM     13  C   UNL d   1      11.314  15.880   7.204 -0.17 -0.01    +0.070 A 
DOCKED: ATOM     14  C   UNL d   1      10.184  16.720  10.624 -0.07 +0.01    +0.052 C 
DOCKED: ATOM     15  C   UNL d   1      12.047  15.250   4.908 -0.09 -0.01    +0.066 A 
DOCKED: ATOM     16  C   UNL d   1      12.503  15.580   3.639 -0.07 +0.00    -0.021 A 
DOCKED: ATOM     17  C   UNL d   1      12.723  14.393   2.971 -0.16 -0.00    +0.000 A 
DOCKED: ATOM     18  C   UNL d   1      12.391  13.364   3.850 -0.14 -0.01    +0.070 A 
DOCKED: ATOM     19  C   UNL d   1      12.702  16.957   3.064 -0.06 -0.01    +0.052 C 
DOCKED: ATOM     20  C   UNL d   1      12.187  10.944   4.446 -0.18 -0.00    +0.066 A 
DOCKED: ATOM     21  C   UNL d   1      12.069   9.597   4.075 -0.26 -0.00    -0.025 A 
DOCKED: ATOM     22  C   UNL d   1      11.842   8.902   5.245 -0.18 -0.00    -0.021 A 
DOCKED: ATOM     23  C   UNL d   1      11.823   9.848   6.277 -0.11 +0.01    +0.066 A 
DOCKED: ATOM     24  C   UNL d   1      12.160   8.987   2.696 -0.47 -0.00    +0.051 C 
DOCKED: ATOM     25  N   UNL d   1      11.350  11.877   8.464 -0.09 -0.04    -0.248 N 
DOCKED: ATOM     26  N   UNL d   1      11.376  14.642   7.753 -0.13 -0.00    -0.248 N 
DOCKED: ATOM     27  N   UNL d   1      12.017  13.889   5.055 -0.06 +0.02    -0.248 N 
DOCKED: ATOM     28  N   UNL d   1      11.990  11.097   5.778 -0.07 -0.02    -0.248 N 
DOCKED: ATOM     29 FE   UNL d   1      11.683  12.869   6.764 -0.04 +0.00    +0.000 Fe
DOCKED: ENDROOT
DOCKED: BRANCH   6  30
DOCKED: ATOM     30  C   UNL d   1      11.386   8.894  10.618 -0.10 +0.02    +0.052 C 
DOCKED: BRANCH  30  31
DOCKED: ATOM     31  C   UNL d   1      10.003   8.254  10.689 -0.10 +0.06    +0.115 C 
DOCKED: BRANCH  31  32
DOCKED: ATOM     32  C   UNL d   1      10.116   6.797  11.039 -0.09 +0.15    +0.139 C 
DOCKED: ATOM     33  O   UNL d   1       9.113   6.118  11.210 -0.46 -0.87    -0.650 OA
DOCKED: BRANCH  32  34
DOCKED: ATOM     34  O   UNL d   1      11.325   6.225  11.168 -0.04 -0.93    -0.776 OA
DOCKED: ATOM     35  H   UNL d   1      12.010   6.423  10.514 +0.01 +0.17    +0.167 HD
DOCKED: ENDBRANCH  32  34
DOCKED: ENDBRANCH  31  32
DOCKED: ENDBRANCH  30  31
DOCKED: ENDBRANCH   6  30
DOCKED: BRANCH  22  36
DOCKED: ATOM     36  C   UNL d   1      11.607   7.419   5.355 -0.22 +0.01    +0.052 C 
DOCKED: BRANCH  36  37
DOCKED: ATOM     37  C   UNL d   1      10.452   7.152   6.310 -0.07 +0.05    +0.115 C 
DOCKED: BRANCH  37  38
DOCKED: ATOM     38  C   UNL d   1      10.824   6.112   7.328 -0.10 +0.16    +0.139 C 
DOCKED: ATOM     39  O   UNL d   1      10.448   4.955   7.207 -0.41 -1.22    -0.650 OA
DOCKED: BRANCH  38  40
DOCKED: ATOM     40  O   UNL d   1      11.577   6.451   8.390 -0.10 -0.90    -0.776 OA
DOCKED: ATOM     41  H   UNL d   1      11.255   6.249   9.279 +0.02 +0.28    +0.167 HD
DOCKED: ENDBRANCH  38  40
DOCKED: ENDBRANCH  37  38
DOCKED: ENDBRANCH  36  37
DOCKED: ENDBRANCH  22  36
DOCKED: BRANCH  12  42
DOCKED: ATOM     42  C   UNL d   1      10.676  18.307   7.970 -0.17 -0.00    +0.004 C 
DOCKED: ATOM     43  C   UNL d   1      10.007  18.780   6.910 -0.17 -0.00    +0.012 C 
DOCKED: ENDBRANCH  12  42
DOCKED: BRANCH  17  44
DOCKED: ATOM     44  C   UNL d   1      13.237  14.252   1.590 -0.40 -0.00    +0.004 C 
DOCKED: ATOM     45  C   UNL d   1      12.399  14.196   0.550 -0.44 -0.01    +0.012 C 
DOCKED: ENDBRANCH  17  44
DOCKED: TORSDOF 10
DOCKED: TER
DOCKED: ENDMDL
________________________________________________________________________________


	BEGINNING GENETIC ALGORITHM DOCKING 23 of 100
Run: 23 Seed: 356808422 431899700 [ Run 23 of 100 GA/GALS ]
Beginning LAMARCKIAN GENETIC ALGORITHM (LGA), with a maximum of 25000000 energy evaluations.

Final-Value: -12.558


	FINAL GENETIC ALGORITHM DOCKED STATE
	_______________________________________________


Detailed state:  trans 11.700 11.472 7.315 quatxyzw -0.569450 -0.456562 0.565463 -0.384095 center -0.174 -0.001 -0.047 ntor 10 52.6941 151.0517 176.1923 51.2768 -144.6586 162.6358 -65.4960 -32.2612 -158.0152 -21.4401
State:	 11.700  11.472   7.315  -0.617 -0.494  0.612 -134.825     52.69  151.05  176.19   51.28 -144.66  162.64  -65.50  -32.26 -158.02  -21.44

DOCKED: MODEL       23
DOCKED: USER    Run = 23
DOCKED: USER    DPF = D:/Protein_go_brrr/autodock/final/mut_Y35F/heme_Fe/dock.dpf
DOCKED: USER  
DOCKED: USER    Estimated Free Energy of Binding    =   -7.55 kcal/mol  [=(1)+(2)+(3)-(4)]
DOCKED: USER    Estimated Inhibition Constant, Ki   =    2.93 uM (micromolar)  [Temperature = 298.15 K]
DOCKED: USER    
DOCKED: USER    (1) Final Intermolecular Energy     =  -10.53 kcal/mol
DOCKED: USER        vdW + Hbond + desolv Energy     =   -7.66 kcal/mol
DOCKED: USER        Electrostatic Energy            =   -2.87 kcal/mol
DOCKED: USER    (2) Final Total Internal Energy     =   -2.03 kcal/mol
DOCKED: USER    (3) Torsional Free Energy           =   +2.98 kcal/mol
DOCKED: USER    (4) Unbound System's Energy  [=(2)] =   -2.03 kcal/mol
DOCKED: USER    
DOCKED: USER    
DOCKED: USER    NEWDPF move heme_Fe_opt.pdbqt
DOCKED: USER    NEWDPF about -0.174000 -0.001000 -0.047000
DOCKED: USER    NEWDPF tran0 11.699534 11.471608 7.314990
DOCKED: USER    NEWDPF quaternion0 -0.569450 -0.456562 0.565463 -0.384095
DOCKED: USER    NEWDPF axisangle0 -0.616760 -0.494493 0.612441 -134.824883
DOCKED: USER    NEWDPF quat0 -0.616760 -0.494493 0.612441 -134.824883
DOCKED: USER    NEWDPF dihe0 52.69 151.05 176.19 51.28 -144.66 162.64 -65.50 -32.26 -158.02 -21.44 
DOCKED: USER  keepresnum = 1 
DOCKED: USER  
DOCKED: REMARK  10 active torsions:
DOCKED: REMARK  status: ('A' for Active; 'I' for Inactive)
DOCKED: REMARK    1  A    between atoms: C_6  and  C_10 
DOCKED: REMARK    2  A    between atoms: C_10  and  C_11 
DOCKED: REMARK    3  A    between atoms: C_11  and  C_12 
DOCKED: REMARK    4  A    between atoms: C_12  and  O_14 
DOCKED: REMARK    5  A    between atoms: C_17  and  C_20 
DOCKED: REMARK    6  A    between atoms: C_24  and  C_27 
DOCKED: REMARK    7  A    between atoms: C_31  and  C_34 
DOCKED: REMARK    8  A    between atoms: C_34  and  C_35 
DOCKED: REMARK    9  A    between atoms: C_35  and  C_36 
DOCKED: REMARK   10  A    between atoms: C_36  and  O_38 
DOCKED: USER                              x       y       z     vdW  Elec       q    Type
DOCKED: USER                           _______ _______ _______ _____ _____    ______ ____
DOCKED: ROOT
DOCKED: ATOM      1  C   UNL d   1      11.277   9.556   7.917 -0.14 +0.02    +0.064 C 
DOCKED: ATOM      2  C   UNL d   1      10.979  14.014  10.030 -0.23 +0.02    +0.064 A 
DOCKED: ATOM      3  C   UNL d   1      11.460  16.025   5.695 -0.16 -0.01    +0.064 C 
DOCKED: ATOM      4  C   UNL d   1      11.856  11.722   3.643 -0.25 -0.01    +0.064 C 
DOCKED: ATOM      5  C   UNL d   1      11.233  10.626   8.924 -0.15 +0.02    +0.066 A 
DOCKED: ATOM      6  C   UNL d   1      11.207  10.422  10.294 -0.14 -0.01    -0.021 A 
DOCKED: ATOM      7  C   UNL d   1      11.120  11.660  10.880 -0.17 -0.01    -0.025 A 
DOCKED: ATOM      8  C   UNL d   1      11.097  12.574   9.844 -0.20 +0.02    +0.066 A 
DOCKED: ATOM      9  C   UNL d   1      11.083  11.940  12.351 -0.18 +0.03    +0.051 C 
DOCKED: ATOM     10  C   UNL d   1      11.012  14.921   9.052 -0.24 +0.01    +0.066 A 
DOCKED: ATOM     11  C   UNL d   1      10.782  16.284   9.251 -0.22 -0.00    -0.021 A 
DOCKED: ATOM     12  C   UNL d   1      10.899  16.884   8.013 -0.19 -0.00    +0.000 A 
DOCKED: ATOM     13  C   UNL d   1      11.188  15.844   7.112 -0.18 -0.01    +0.070 A 
DOCKED: ATOM     14  C   UNL d   1      10.402  16.973  10.546 -0.21 +0.01    +0.052 C 
DOCKED: ATOM     15  C   UNL d   1      11.688  15.022   4.815 -0.12 -0.01    +0.066 A 
DOCKED: ATOM     16  C   UNL d   1      12.042  15.241   3.490 -0.11 +0.00    -0.021 A 
DOCKED: ATOM     17  C   UNL d   1      12.154  14.001   2.895 -0.22 -0.00    +0.000 A 
DOCKED: ATOM     18  C   UNL d   1      11.860  13.053   3.872 -0.18 -0.01    +0.070 A 
DOCKED: ATOM     19  C   UNL d   1      12.244  16.564   2.800 -0.09 -0.02    +0.052 C 
DOCKED: ATOM     20  C   UNL d   1      11.612  10.693   4.660 -0.18 +0.00    +0.066 A 
DOCKED: ATOM     21  C   UNL d   1      11.408   9.330   4.401 -0.25 -0.00    -0.025 A 
DOCKED: ATOM     22  C   UNL d   1      11.258   8.730   5.634 -0.18 -0.00    -0.021 A 
DOCKED: ATOM     23  C   UNL d   1      11.369   9.745   6.592 -0.12 +0.01    +0.066 A 
DOCKED: ATOM     24  C   UNL d   1      11.351   8.621   3.068 -0.45 -0.00    +0.051 C 
DOCKED: ATOM     25  N   UNL d   1      11.175  11.942   8.656 -0.09 -0.04    -0.248 N 
DOCKED: ATOM     26  N   UNL d   1      11.249  14.646   7.744 -0.13 -0.00    -0.248 N 
DOCKED: ATOM     27  N   UNL d   1      11.616  13.677   5.063 -0.05 +0.01    -0.248 N 
DOCKED: ATOM     28  N   UNL d   1      11.541  10.947   5.989 -0.05 -0.02    -0.248 N 
DOCKED: ATOM     29 FE   UNL d   1      11.395  12.796   6.865 -0.04 +0.00    +0.000 Fe
DOCKED: ENDROOT
DOCKED: BRANCH   6  30
DOCKED: ATOM     30  C   UNL d   1      11.282   9.118  11.013 -0.10 +0.02    +0.052 C 
DOCKED: BRANCH  30  31
DOCKED: ATOM     31  C   UNL d   1      10.016   8.300  10.783 -0.10 +0.06    +0.115 C 
DOCKED: BRANCH  31  32
DOCKED: ATOM     32  C   UNL d   1      10.330   7.051  10.007 -0.12 +0.15    +0.139 C 
DOCKED: ATOM     33  O   UNL d   1       9.533   6.607   9.193 -0.07 -0.89    -0.650 OA
DOCKED: BRANCH  32  34
DOCKED: ATOM     34  O   UNL d   1      11.494   6.410  10.203 +0.05 -1.02    -0.776 OA
DOCKED: ATOM     35  H   UNL d   1      12.053   6.207   9.439 +0.01 +0.21    +0.167 HD
DOCKED: ENDBRANCH  32  34
DOCKED: ENDBRANCH  31  32
DOCKED: ENDBRANCH  30  31
DOCKED: ENDBRANCH   6  30
DOCKED: BRANCH  22  36
DOCKED: ATOM     36  C   UNL d   1      10.974   7.270   5.873 -0.10 +0.02    +0.052 C 
DOCKED: BRANCH  36  37
DOCKED: ATOM     37  C   UNL d   1      12.239   6.457   5.647 -0.15 +0.04    +0.115 C 
DOCKED: BRANCH  37  38
DOCKED: ATOM     38  C   UNL d   1      12.288   5.269   6.565 -0.05 +0.11    +0.139 C 
DOCKED: ATOM     39  O   UNL d   1      13.039   4.332   6.337 -0.56 -0.46    -0.650 OA
DOCKED: BRANCH  38  40
DOCKED: ATOM     40  O   UNL d   1      11.496   5.228   7.652 -0.30 -1.37    -0.776 OA
DOCKED: ATOM     41  H   UNL d   1      11.237   6.057   8.076 +0.03 +0.25    +0.167 HD
DOCKED: ENDBRANCH  38  40
DOCKED: ENDBRANCH  37  38
DOCKED: ENDBRANCH  36  37
DOCKED: ENDBRANCH  22  36
DOCKED: BRANCH  12  42
DOCKED: ATOM     42  C   UNL d   1      10.720  18.345   7.749 -0.16 -0.00    +0.004 C 
DOCKED: ATOM     43  C   UNL d   1      10.012  18.774   6.696 -0.17 -0.00    +0.012 C 
DOCKED: ENDBRANCH  12  42
DOCKED: BRANCH  17  44
DOCKED: ATOM     44  C   UNL d   1      12.536  13.741   1.489 -0.44 -0.00    +0.004 C 
DOCKED: ATOM     45  C   UNL d   1      13.754  13.279   1.185 -0.49 -0.00    +0.012 C 
DOCKED: ENDBRANCH  17  44
DOCKED: TORSDOF 10
DOCKED: TER
DOCKED: ENDMDL
________________________________________________________________________________


	BEGINNING GENETIC ALGORITHM DOCKING 24 of 100
Run: 24 Seed: 667559039 1539798698 [ Run 24 of 100 GA/GALS ]
Beginning LAMARCKIAN GENETIC ALGORITHM (LGA), with a maximum of 25000000 energy evaluations.

Final-Value: -10.666


	FINAL GENETIC ALGORITHM DOCKED STATE
	_______________________________________________


Detailed state:  trans 1.863 -16.718 -8.912 quatxyzw 0.800177 0.112353 0.276840 -0.520052 center -0.174 -0.001 -0.047 ntor 10 130.6939 17.8935 17.2809 -169.2890 -179.6033 -108.2579 -33.4725 -75.5468 164.7871 17.3848
State:	  1.863 -16.718  -8.912   0.937  0.132  0.324 -117.329    130.69   17.89   17.28 -169.29 -179.60 -108.26  -33.47  -75.55  164.79   17.38

DOCKED: MODEL       24
DOCKED: USER    Run = 24
DOCKED: USER    DPF = D:/Protein_go_brrr/autodock/final/mut_Y35F/heme_Fe/dock.dpf
DOCKED: USER  
DOCKED: USER    Estimated Free Energy of Binding    =   -5.62 kcal/mol  [=(1)+(2)+(3)-(4)]
DOCKED: USER    Estimated Inhibition Constant, Ki   =   75.83 uM (micromolar)  [Temperature = 298.15 K]
DOCKED: USER    
DOCKED: USER    (1) Final Intermolecular Energy     =   -8.60 kcal/mol
DOCKED: USER        vdW + Hbond + desolv Energy     =   -7.83 kcal/mol
DOCKED: USER        Electrostatic Energy            =   -0.77 kcal/mol
DOCKED: USER    (2) Final Total Internal Energy     =   -2.06 kcal/mol
DOCKED: USER    (3) Torsional Free Energy           =   +2.98 kcal/mol
DOCKED: USER    (4) Unbound System's Energy  [=(2)] =   -2.06 kcal/mol
DOCKED: USER    
DOCKED: USER    
DOCKED: USER    NEWDPF move heme_Fe_opt.pdbqt
DOCKED: USER    NEWDPF about -0.174000 -0.001000 -0.047000
DOCKED: USER    NEWDPF tran0 1.863468 -16.718035 -8.911679
DOCKED: USER    NEWDPF quaternion0 0.800177 0.112353 0.276840 -0.520052
DOCKED: USER    NEWDPF axisangle0 0.936827 0.131540 0.324117 -117.328564
DOCKED: USER    NEWDPF quat0 0.936827 0.131540 0.324117 -117.328564
DOCKED: USER    NEWDPF dihe0 130.69 17.89 17.28 -169.29 -179.60 -108.26 -33.47 -75.55 164.79 17.38 
DOCKED: USER  keepresnum = 1 
DOCKED: USER  
DOCKED: REMARK  10 active torsions:
DOCKED: REMARK  status: ('A' for Active; 'I' for Inactive)
DOCKED: REMARK    1  A    between atoms: C_6  and  C_10 
DOCKED: REMARK    2  A    between atoms: C_10  and  C_11 
DOCKED: REMARK    3  A    between atoms: C_11  and  C_12 
DOCKED: REMARK    4  A    between atoms: C_12  and  O_14 
DOCKED: REMARK    5  A    between atoms: C_17  and  C_20 
DOCKED: REMARK    6  A    between atoms: C_24  and  C_27 
DOCKED: REMARK    7  A    between atoms: C_31  and  C_34 
DOCKED: REMARK    8  A    between atoms: C_34  and  C_35 
DOCKED: REMARK    9  A    between atoms: C_35  and  C_36 
DOCKED: REMARK   10  A    between atoms: C_36  and  O_38 
DOCKED: USER                              x       y       z     vdW  Elec       q    Type
DOCKED: USER                           _______ _______ _______ _____ _____    ______ ____
DOCKED: ROOT
DOCKED: ATOM      1  C   UNL d   1       0.540 -18.029  -9.773 -0.27 -0.01    +0.064 C 
DOCKED: ATOM      2  C   UNL d   1       3.791 -14.729 -11.497 -0.20 -0.02    +0.064 A 
DOCKED: ATOM      3  C   UNL d   1       5.803 -14.538  -7.140 -0.15 -0.03    +0.064 C 
DOCKED: ATOM      4  C   UNL d   1       2.601 -17.651  -5.425 -0.25 -0.02    +0.064 C 
DOCKED: ATOM      5  C   UNL d   1       1.217 -17.055 -10.641 -0.23 -0.01    +0.066 A 
DOCKED: ATOM      6  C   UNL d   1       0.836 -16.754 -11.939 -0.19 +0.00    -0.021 A 
DOCKED: ATOM      7  C   UNL d   1       1.742 -15.840 -12.418 -0.16 +0.00    -0.025 A 
DOCKED: ATOM      8  C   UNL d   1       2.641 -15.618 -11.393 -0.20 -0.02    +0.066 A 
DOCKED: ATOM      9  C   UNL d   1       1.724 -15.208 -13.776 -0.11 -0.00    +0.051 C 
DOCKED: ATOM     10  C   UNL d   1       4.641 -14.453 -10.506 -0.26 -0.02    +0.066 A 
DOCKED: ATOM     11  C   UNL d   1       5.798 -13.687 -10.668 -0.24 +0.01    -0.021 A 
DOCKED: ATOM     12  C   UNL d   1       6.405 -13.631  -9.429 -0.25 -0.00    +0.000 A 
DOCKED: ATOM     13  C   UNL d   1       5.583 -14.380  -8.569 -0.25 -0.03    +0.070 A 
DOCKED: ATOM     14  C   UNL d   1       6.336 -13.095 -11.954 -0.08 -0.01    +0.052 C 
DOCKED: ATOM     15  C   UNL d   1       5.044 -15.300  -6.318 -0.23 -0.02    +0.066 A 
DOCKED: ATOM     16  C   UNL d   1       5.227 -15.345  -4.941 -0.25 +0.01    -0.021 A 
DOCKED: ATOM     17  C   UNL d   1       4.307 -16.245  -4.445 -0.25 -0.00    +0.000 A 
DOCKED: ATOM     18  C   UNL d   1       3.585 -16.732  -5.533 -0.22 -0.02    +0.070 A 
DOCKED: ATOM     19  C   UNL d   1       6.243 -14.593  -4.125 -0.30 -0.03    +0.052 C 
DOCKED: ATOM     20  C   UNL d   1       1.779 -18.140  -6.538 -0.23 -0.03    +0.066 A 
DOCKED: ATOM     21  C   UNL d   1       0.899 -19.230  -6.478 -0.13 +0.02    -0.025 A 
DOCKED: ATOM     22  C   UNL d   1       0.313 -19.311  -7.724 -0.19 +0.01    -0.021 A 
DOCKED: ATOM     23  C   UNL d   1       0.861 -18.278  -8.494 -0.23 -0.03    +0.066 A 
DOCKED: ATOM     24  C   UNL d   1       0.621 -20.154  -5.315 +0.10 -0.05    +0.051 C 
DOCKED: ATOM     25  N   UNL d   1       2.313 -16.351 -10.310 -0.16 +0.09    -0.248 N 
DOCKED: ATOM     26  N   UNL d   1       4.512 -14.888  -9.227 -0.18 +0.10    -0.248 N 
DOCKED: ATOM     27  N   UNL d   1       4.008 -16.118  -6.679 -0.07 +0.11    -0.248 N 
DOCKED: ATOM     28  N   UNL d   1       1.787 -17.595  -7.779 -0.13 +0.13    -0.248 N 
DOCKED: ATOM     29 FE   UNL d   1       3.149 -16.242  -8.501 -0.06 -0.00    +0.000 Fe
DOCKED: ENDROOT
DOCKED: BRANCH   6  30
DOCKED: ATOM     30  C   UNL d   1      -0.340 -17.290 -12.681 -0.20 +0.01    +0.052 C 
DOCKED: BRANCH  30  31
DOCKED: ATOM     31  C   UNL d   1       0.099 -18.306 -13.729 -0.07 +0.02    +0.115 C 
DOCKED: BRANCH  31  32
DOCKED: ATOM     32  C   UNL d   1      -0.940 -19.381 -13.887 -0.11 +0.05    +0.139 C 
DOCKED: ATOM     33  O   UNL d   1      -0.773 -20.298 -14.679 -0.01 -0.27    -0.650 OA
DOCKED: BRANCH  32  34
DOCKED: ATOM     34  O   UNL d   1      -2.067 -19.343 -13.156 -0.04 -0.43    -0.776 OA
DOCKED: ATOM     35  H   UNL d   1      -2.002 -19.210 -12.200 +0.03 +0.07    +0.167 HD
DOCKED: ENDBRANCH  32  34
DOCKED: ENDBRANCH  31  32
DOCKED: ENDBRANCH  30  31
DOCKED: ENDBRANCH   6  30
DOCKED: BRANCH  22  36
DOCKED: ATOM     36  C   UNL d   1      -0.680 -20.355  -8.163 -0.15 -0.03    +0.052 C 
DOCKED: BRANCH  36  37
DOCKED: ATOM     37  C   UNL d   1      -2.024 -19.700  -8.440 -0.20 -0.06    +0.115 C 
DOCKED: BRANCH  37  38
DOCKED: ATOM     38  C   UNL d   1      -2.262 -19.564  -9.918 -0.33 -0.00    +0.139 C 
DOCKED: ATOM     39  O   UNL d   1      -2.220 -18.469 -10.460 -0.43 -0.14    -0.650 OA
DOCKED: BRANCH  38  40
DOCKED: ATOM     40  O   UNL d   1      -2.530 -20.655 -10.658 +0.02 -0.13    -0.776 OA
DOCKED: ATOM     41  H   UNL d   1      -2.428 -20.607 -11.619 +0.03 +0.06    +0.167 HD
DOCKED: ENDBRANCH  38  40
DOCKED: ENDBRANCH  37  38
DOCKED: ENDBRANCH  36  37
DOCKED: ENDBRANCH  22  36
DOCKED: BRANCH  12  42
DOCKED: ATOM     42  C   UNL d   1       7.687 -12.919  -9.135 -0.23 -0.00    +0.004 C 
DOCKED: ATOM     43  C   UNL d   1       7.776 -11.587  -9.240 -0.30 -0.01    +0.012 C 
DOCKED: ENDBRANCH  12  42
DOCKED: BRANCH  17  44
DOCKED: ATOM     44  C   UNL d   1       4.117 -16.601  -3.021 -0.30 -0.00    +0.004 C 
DOCKED: ATOM     45  C   UNL d   1       4.361 -17.842  -2.586 -0.19 -0.00    +0.012 C 
DOCKED: ENDBRANCH  17  44
DOCKED: TORSDOF 10
DOCKED: TER
DOCKED: ENDMDL
________________________________________________________________________________


	BEGINNING GENETIC ALGORITHM DOCKING 25 of 100
Run: 25 Seed: 978441558 153295872 [ Run 25 of 100 GA/GALS ]
Beginning LAMARCKIAN GENETIC ALGORITHM (LGA), with a maximum of 25000000 energy evaluations.

Final-Value: -10.189


	FINAL GENETIC ALGORITHM DOCKED STATE
	_______________________________________________


Detailed state:  trans 9.098 14.199 -11.936 quatxyzw 0.499713 -0.011182 -0.508715 -0.700979 center -0.174 -0.001 -0.047 ntor 10 8.8764 174.4064 -166.2872 -107.5653 174.8754 95.7923 -59.0822 6.9084 -156.1767 20.0660
State:	  9.098  14.199 -11.936   0.701 -0.016 -0.713 -90.989      8.88  174.41 -166.29 -107.57  174.88   95.79  -59.08    6.91 -156.18   20.07

DOCKED: MODEL       25
DOCKED: USER    Run = 25
DOCKED: USER    DPF = D:/Protein_go_brrr/autodock/final/mut_Y35F/heme_Fe/dock.dpf
DOCKED: USER  
DOCKED: USER    Estimated Free Energy of Binding    =   -5.01 kcal/mol  [=(1)+(2)+(3)-(4)]
DOCKED: USER    Estimated Inhibition Constant, Ki   =  211.78 uM (micromolar)  [Temperature = 298.15 K]
DOCKED: USER    
DOCKED: USER    (1) Final Intermolecular Energy     =   -8.00 kcal/mol
DOCKED: USER        vdW + Hbond + desolv Energy     =   -7.11 kcal/mol
DOCKED: USER        Electrostatic Energy            =   -0.89 kcal/mol
DOCKED: USER    (2) Final Total Internal Energy     =   -2.19 kcal/mol
DOCKED: USER    (3) Torsional Free Energy           =   +2.98 kcal/mol
DOCKED: USER    (4) Unbound System's Energy  [=(2)] =   -2.19 kcal/mol
DOCKED: USER    
DOCKED: USER    
DOCKED: USER    NEWDPF move heme_Fe_opt.pdbqt
DOCKED: USER    NEWDPF about -0.174000 -0.001000 -0.047000
DOCKED: USER    NEWDPF tran0 9.098199 14.199152 -11.935781
DOCKED: USER    NEWDPF quaternion0 0.499713 -0.011182 -0.508715 -0.700979
DOCKED: USER    NEWDPF axisangle0 0.700681 -0.015680 -0.713303 -90.988795
DOCKED: USER    NEWDPF quat0 0.700681 -0.015680 -0.713303 -90.988795
DOCKED: USER    NEWDPF dihe0 8.88 174.41 -166.29 -107.57 174.88 95.79 -59.08 6.91 -156.18 20.07 
DOCKED: USER  keepresnum = 1 
DOCKED: USER  
DOCKED: REMARK  10 active torsions:
DOCKED: REMARK  status: ('A' for Active; 'I' for Inactive)
DOCKED: REMARK    1  A    between atoms: C_6  and  C_10 
DOCKED: REMARK    2  A    between atoms: C_10  and  C_11 
DOCKED: REMARK    3  A    between atoms: C_11  and  C_12 
DOCKED: REMARK    4  A    between atoms: C_12  and  O_14 
DOCKED: REMARK    5  A    between atoms: C_17  and  C_20 
DOCKED: REMARK    6  A    between atoms: C_24  and  C_27 
DOCKED: REMARK    7  A    between atoms: C_31  and  C_34 
DOCKED: REMARK    8  A    between atoms: C_34  and  C_35 
DOCKED: REMARK    9  A    between atoms: C_35  and  C_36 
DOCKED: REMARK   10  A    between atoms: C_36  and  O_38 
DOCKED: USER                              x       y       z     vdW  Elec       q    Type
DOCKED: USER                           _______ _______ _______ _____ _____    ______ ____
DOCKED: ROOT
DOCKED: ATOM      1  C   UNL d   1       7.823  15.268 -10.735 -0.20 +0.01    +0.064 C 
DOCKED: ATOM      2  C   UNL d   1       7.351  12.813 -14.999 -0.13 -0.00    +0.064 A 
DOCKED: ATOM      3  C   UNL d   1      11.586  10.704 -14.174 -0.17 -0.01    +0.064 C 
DOCKED: ATOM      4  C   UNL d   1      12.112  13.149 -10.095 -0.26 -0.01    +0.064 C 
DOCKED: ATOM      5  C   UNL d   1       7.336  14.836 -12.053 -0.22 +0.00    +0.066 A 
DOCKED: ATOM      6  C   UNL d   1       6.197  15.321 -12.674 -0.17 -0.00    -0.021 A 
DOCKED: ATOM      7  C   UNL d   1       6.065  14.636 -13.856 -0.14 -0.00    -0.025 A 
DOCKED: ATOM      8  C   UNL d   1       7.130  13.758 -13.912 -0.18 +0.00    +0.066 A 
DOCKED: ATOM      9  C   UNL d   1       4.985  14.835 -14.875 -0.08 -0.00    +0.051 C 
DOCKED: ATOM     10  C   UNL d   1       8.400  11.996 -15.105 -0.10 -0.00    +0.066 A 
DOCKED: ATOM     11  C   UNL d   1       8.527  11.022 -16.099 -0.10 +0.00    -0.021 A 
DOCKED: ATOM     12  C   UNL d   1       9.732  10.389 -15.873 -0.10 -0.00    +0.000 A 
DOCKED: ATOM     13  C   UNL d   1      10.281  11.009 -14.737 -0.07 -0.00    +0.070 A 
DOCKED: ATOM     14  C   UNL d   1       7.517  10.666 -17.170 -0.08 -0.00    +0.052 C 
DOCKED: ATOM     15  C   UNL d   1      12.096  11.263 -13.050 -0.19 -0.01    +0.066 A 
DOCKED: ATOM     16  C   UNL d   1      13.387  11.018 -12.600 -0.25 +0.01    -0.021 A 
DOCKED: ATOM     17  C   UNL d   1      13.540  11.719 -11.422 -0.18 -0.00    +0.000 A 
DOCKED: ATOM     18  C   UNL d   1      12.335  12.373 -11.179 -0.21 -0.02    +0.070 A 
DOCKED: ATOM     19  C   UNL d   1      14.431  10.140 -13.237 -0.19 -0.02    +0.052 C 
DOCKED: ATOM     20  C   UNL d   1      10.879  13.902  -9.837 -0.26 -0.01    +0.066 A 
DOCKED: ATOM     21  C   UNL d   1      10.558  14.544  -8.633 -0.35 +0.00    -0.025 A 
DOCKED: ATOM     22  C   UNL d   1       9.338  15.152  -8.842 -0.33 -0.00    -0.021 A 
DOCKED: ATOM     23  C   UNL d   1       8.960  14.853 -10.156 -0.22 +0.00    +0.066 A 
DOCKED: ATOM     24  C   UNL d   1      11.350  14.585  -7.346 -0.30 -0.01    +0.051 C 
DOCKED: ATOM     25  N   UNL d   1       7.907  13.889 -12.818 -0.17 -0.01    -0.248 N 
DOCKED: ATOM     26  N   UNL d   1       9.465  11.983 -14.264 -0.03 +0.00    -0.248 N 
DOCKED: ATOM     27  N   UNL d   1      11.461  12.128 -12.201 -0.15 +0.04    -0.248 N 
DOCKED: ATOM     28  N   UNL d   1       9.883  14.053 -10.744 -0.18 +0.02    -0.248 N 
DOCKED: ATOM     29 FE   UNL d   1       9.675  13.018 -12.502 -0.05 -0.00    +0.000 Fe
DOCKED: ENDROOT
DOCKED: BRANCH   6  30
DOCKED: ATOM     30  C   UNL d   1       5.290  16.396 -12.181 -0.13 +0.00    +0.052 C 
DOCKED: BRANCH  30  31
DOCKED: ATOM     31  C   UNL d   1       4.556  15.949 -10.921 -0.03 +0.02    +0.115 C 
DOCKED: BRANCH  31  32
DOCKED: ATOM     32  C   UNL d   1       4.858  16.877  -9.778 -0.13 +0.03    +0.139 C 
DOCKED: ATOM     33  O   UNL d   1       4.291  16.746  -8.702 -0.03 -0.21    -0.650 OA
DOCKED: BRANCH  32  34
DOCKED: ATOM     34  O   UNL d   1       5.758  17.863  -9.930 +0.05 -0.11    -0.776 OA
DOCKED: ATOM     35  H   UNL d   1       6.036  18.369  -9.153 +0.04 +0.03    +0.167 HD
DOCKED: ENDBRANCH  32  34
DOCKED: ENDBRANCH  31  32
DOCKED: ENDBRANCH  30  31
DOCKED: ENDBRANCH   6  30
DOCKED: BRANCH  22  36
DOCKED: ATOM     36  C   UNL d   1       8.558  15.934  -7.818 -0.34 +0.01    +0.052 C 
DOCKED: BRANCH  36  37
DOCKED: ATOM     37  C   UNL d   1       8.415  17.378  -8.275 -0.17 +0.02    +0.115 C 
DOCKED: BRANCH  37  38
DOCKED: ATOM     38  C   UNL d   1       7.771  18.219  -7.209 -0.16 +0.05    +0.139 C 
DOCKED: ATOM     39  O   UNL d   1       8.451  18.871  -6.431 -0.06 -0.16    -0.650 OA
DOCKED: BRANCH  38  40
DOCKED: ATOM     40  O   UNL d   1       6.431  18.256  -7.103 -0.33 -0.63    -0.776 OA
DOCKED: ATOM     41  H   UNL d   1       5.893  17.806  -7.770 +0.04 +0.10    +0.167 HD
DOCKED: ENDBRANCH  38  40
DOCKED: ENDBRANCH  37  38
DOCKED: ENDBRANCH  36  37
DOCKED: ENDBRANCH  22  36
DOCKED: BRANCH  12  42
DOCKED: ATOM     42  C   UNL d   1      10.275   9.263 -16.695 -0.10 -0.00    +0.004 C 
DOCKED: ATOM     43  C   UNL d   1      10.506   8.061 -16.151 -0.16 -0.00    +0.012 C 
DOCKED: ENDBRANCH  12  42
DOCKED: BRANCH  17  44
DOCKED: ATOM     44  C   UNL d   1      14.766  11.777 -10.595 -0.26 -0.00    +0.004 C 
DOCKED: ATOM     45  C   UNL d   1      15.362  10.656 -10.175 -0.33 -0.01    +0.012 C 
DOCKED: ENDBRANCH  17  44
DOCKED: TORSDOF 10
DOCKED: TER
DOCKED: ENDMDL
________________________________________________________________________________


	BEGINNING GENETIC ALGORITHM DOCKING 26 of 100
Run: 26 Seed: 374130508 978349346 [ Run 26 of 100 GA/GALS ]
Beginning LAMARCKIAN GENETIC ALGORITHM (LGA), with a maximum of 25000000 energy evaluations.

Final-Value: -12.670


	FINAL GENETIC ALGORITHM DOCKED STATE
	_______________________________________________


Detailed state:  trans 11.553 11.797 7.265 quatxyzw 0.553844 0.454926 -0.576458 0.392422 center -0.174 -0.001 -0.047 ntor 10 -154.4848 -83.9694 -173.3505 49.9652 33.0567 -145.0114 -8.3427 39.4347 -159.6222 144.8588
State:	 11.553  11.797   7.265   0.602  0.495 -0.627 133.789   -154.48  -83.97 -173.35   49.97   33.06 -145.01   -8.34   39.43 -159.62  144.86

DOCKED: MODEL       26
DOCKED: USER    Run = 26
DOCKED: USER    DPF = D:/Protein_go_brrr/autodock/final/mut_Y35F/heme_Fe/dock.dpf
DOCKED: USER  
DOCKED: USER    Estimated Free Energy of Binding    =   -7.59 kcal/mol  [=(1)+(2)+(3)-(4)]
DOCKED: USER    Estimated Inhibition Constant, Ki   =    2.71 uM (micromolar)  [Temperature = 298.15 K]
DOCKED: USER    
DOCKED: USER    (1) Final Intermolecular Energy     =  -10.58 kcal/mol
DOCKED: USER        vdW + Hbond + desolv Energy     =   -7.62 kcal/mol
DOCKED: USER        Electrostatic Energy            =   -2.96 kcal/mol
DOCKED: USER    (2) Final Total Internal Energy     =   -2.09 kcal/mol
DOCKED: USER    (3) Torsional Free Energy           =   +2.98 kcal/mol
DOCKED: USER    (4) Unbound System's Energy  [=(2)] =   -2.09 kcal/mol
DOCKED: USER    
DOCKED: USER    
DOCKED: USER    NEWDPF move heme_Fe_opt.pdbqt
DOCKED: USER    NEWDPF about -0.174000 -0.001000 -0.047000
DOCKED: USER    NEWDPF tran0 11.552649 11.796855 7.265196
DOCKED: USER    NEWDPF quaternion0 0.553844 0.454926 -0.576458 0.392422
DOCKED: USER    NEWDPF axisangle0 0.602145 0.494601 -0.626731 133.789446
DOCKED: USER    NEWDPF quat0 0.602145 0.494601 -0.626731 133.789446
DOCKED: USER    NEWDPF dihe0 -154.48 -83.97 -173.35 49.97 33.06 -145.01 -8.34 39.43 -159.62 144.86 
DOCKED: USER  keepresnum = 1 
DOCKED: USER  
DOCKED: REMARK  10 active torsions:
DOCKED: REMARK  status: ('A' for Active; 'I' for Inactive)
DOCKED: REMARK    1  A    between atoms: C_6  and  C_10 
DOCKED: REMARK    2  A    between atoms: C_10  and  C_11 
DOCKED: REMARK    3  A    between atoms: C_11  and  C_12 
DOCKED: REMARK    4  A    between atoms: C_12  and  O_14 
DOCKED: REMARK    5  A    between atoms: C_17  and  C_20 
DOCKED: REMARK    6  A    between atoms: C_24  and  C_27 
DOCKED: REMARK    7  A    between atoms: C_31  and  C_34 
DOCKED: REMARK    8  A    between atoms: C_34  and  C_35 
DOCKED: REMARK    9  A    between atoms: C_35  and  C_36 
DOCKED: REMARK   10  A    between atoms: C_36  and  O_38 
DOCKED: USER                              x       y       z     vdW  Elec       q    Type
DOCKED: USER                           _______ _______ _______ _____ _____    ______ ____
DOCKED: ROOT
DOCKED: ATOM      1  C   UNL d   1      11.176   9.871   7.865 -0.15 +0.01    +0.064 C 
DOCKED: ATOM      2  C   UNL d   1      10.911  14.306  10.031 -0.23 +0.02    +0.064 A 
DOCKED: ATOM      3  C   UNL d   1      11.199  16.362   5.701 -0.18 -0.01    +0.064 C 
DOCKED: ATOM      4  C   UNL d   1      11.563  12.083   3.592 -0.24 -0.01    +0.064 C 
DOCKED: ATOM      5  C   UNL d   1      11.158  10.930   8.883 -0.16 +0.01    +0.066 A 
DOCKED: ATOM      6  C   UNL d   1      11.189  10.713  10.251 -0.15 -0.01    -0.021 A 
DOCKED: ATOM      7  C   UNL d   1      11.111  11.945  10.852 -0.18 -0.01    -0.025 A 
DOCKED: ATOM      8  C   UNL d   1      11.037  12.868   9.826 -0.21 +0.02    +0.066 A 
DOCKED: ATOM      9  C   UNL d   1      11.128  12.211  12.326 -0.18 +0.03    +0.051 C 
DOCKED: ATOM     10  C   UNL d   1      10.895  15.221   9.061 -0.24 +0.01    +0.066 A 
DOCKED: ATOM     11  C   UNL d   1      10.658  16.580   9.282 -0.22 -0.00    -0.021 A 
DOCKED: ATOM     12  C   UNL d   1      10.719  17.193   8.047 -0.12 -0.00    +0.000 A 
DOCKED: ATOM     13  C   UNL d   1      10.985  16.165   7.126 -0.18 -0.01    +0.070 A 
DOCKED: ATOM     14  C   UNL d   1      10.321  17.252  10.598 -0.21 +0.01    +0.052 C 
DOCKED: ATOM     15  C   UNL d   1      11.404  15.370   4.802 -0.14 -0.01    +0.066 A 
DOCKED: ATOM     16  C   UNL d   1      11.703  15.606   3.467 -0.11 +0.00    -0.021 A 
DOCKED: ATOM     17  C   UNL d   1      11.805  14.373   2.856 -0.22 -0.00    +0.000 A 
DOCKED: ATOM     18  C   UNL d   1      11.561  13.412   3.834 -0.18 -0.01    +0.070 A 
DOCKED: ATOM     19  C   UNL d   1      11.863  16.937   2.783 -0.08 -0.01    +0.052 C 
DOCKED: ATOM     20  C   UNL d   1      11.370  11.042   4.608 -0.19 -0.00    +0.066 A 
DOCKED: ATOM     21  C   UNL d   1      11.171   9.679   4.344 -0.26 -0.00    -0.025 A 
DOCKED: ATOM     22  C   UNL d   1      11.076   9.066   5.576 -0.19 -0.00    -0.021 A 
DOCKED: ATOM     23  C   UNL d   1      11.214  10.073   6.538 -0.12 +0.01    +0.066 A 
DOCKED: ATOM     24  C   UNL d   1      11.070   8.983   3.007 -0.43 -0.00    +0.051 C 
DOCKED: ATOM     25  N   UNL d   1      11.076  12.248   8.630 -0.06 -0.04    -0.248 N 
DOCKED: ATOM     26  N   UNL d   1      11.083  14.961   7.742 -0.15 +0.00    -0.248 N 
DOCKED: ATOM     27  N   UNL d   1      11.357  14.022   5.040 -0.06 +0.02    -0.248 N 
DOCKED: ATOM     28  N   UNL d   1      11.348  11.283   5.942 +0.07 -0.02    -0.248 N 
DOCKED: ATOM     29 FE   UNL d   1      11.216  13.122   6.840 -0.04 +0.00    +0.000 Fe
DOCKED: ENDROOT
DOCKED: BRANCH   6  30
DOCKED: ATOM     30  C   UNL d   1      11.306   9.404  10.953 -0.11 +0.02    +0.052 C 
DOCKED: BRANCH  30  31
DOCKED: ATOM     31  C   UNL d   1      10.026   8.590  10.798 -0.09 +0.05    +0.115 C 
DOCKED: BRANCH  31  32
DOCKED: ATOM     32  C   UNL d   1      10.220   7.198  11.332 -0.12 +0.11    +0.139 C 
DOCKED: ATOM     33  O   UNL d   1      10.961   6.993  12.283 -0.00 -0.40    -0.650 OA
DOCKED: BRANCH  32  34
DOCKED: ATOM     34  O   UNL d   1       9.578   6.163  10.764 -0.19 -1.34    -0.776 OA
DOCKED: ATOM     35  H   UNL d   1       9.308   6.229   9.838 +0.03 +0.29    +0.167 HD
DOCKED: ENDBRANCH  32  34
DOCKED: ENDBRANCH  31  32
DOCKED: ENDBRANCH  30  31
DOCKED: ENDBRANCH   6  30
DOCKED: BRANCH  22  36
DOCKED: ATOM     36  C   UNL d   1      10.818   7.601   5.812 -0.19 +0.02    +0.052 C 
DOCKED: BRANCH  36  37
DOCKED: ATOM     37  C   UNL d   1       9.510   7.425   6.570 -0.21 +0.05    +0.115 C 
DOCKED: BRANCH  37  38
DOCKED: ATOM     38  C   UNL d   1       9.619   6.322   7.584 -0.13 +0.15    +0.139 C 
DOCKED: ATOM     39  O   UNL d   1       8.662   5.603   7.830 -0.22 -0.82    -0.650 OA
DOCKED: BRANCH  38  40
DOCKED: ATOM     40  O   UNL d   1      10.779   6.120   8.234 -0.27 -1.33    -0.776 OA
DOCKED: ATOM     41  H   UNL d   1      10.903   6.515   9.108 +0.02 +0.25    +0.167 HD
DOCKED: ENDBRANCH  38  40
DOCKED: ENDBRANCH  37  38
DOCKED: ENDBRANCH  36  37
DOCKED: ENDBRANCH  22  36
DOCKED: BRANCH  12  42
DOCKED: ATOM     42  C   UNL d   1      10.513  18.654   7.805 -0.18 -0.00    +0.004 C 
DOCKED: ATOM     43  C   UNL d   1       9.603  19.086   6.922 -0.20 -0.00    +0.012 C 
DOCKED: ENDBRANCH  12  42
DOCKED: BRANCH  17  44
DOCKED: ATOM     44  C   UNL d   1      12.136  14.130   1.433 -0.43 -0.00    +0.004 C 
DOCKED: ATOM     45  C   UNL d   1      13.353  13.710   1.075 -0.51 -0.00    +0.012 C 
DOCKED: ENDBRANCH  17  44
DOCKED: TORSDOF 10
DOCKED: TER
DOCKED: ENDMDL
________________________________________________________________________________


	BEGINNING GENETIC ALGORITHM DOCKING 27 of 100
Run: 27 Seed: 1989590242 2091562227 [ Run 27 of 100 GA/GALS ]
Beginning LAMARCKIAN GENETIC ALGORITHM (LGA), with a maximum of 25000000 energy evaluations.

Final-Value: -10.828


	FINAL GENETIC ALGORITHM DOCKED STATE
	_______________________________________________


Detailed state:  trans 21.289 -2.980 -8.250 quatxyzw -0.492072 -0.374323 0.595495 -0.512965 center -0.174 -0.001 -0.047 ntor 10 -136.4151 -112.0070 6.5946 59.9345 108.5868 126.7273 -115.3774 107.7893 139.3802 -171.9220
State:	 21.289  -2.980  -8.250  -0.573 -0.436  0.694 -118.277   -136.42 -112.01    6.59   59.93  108.59  126.73 -115.38  107.79  139.38 -171.92

DOCKED: MODEL       27
DOCKED: USER    Run = 27
DOCKED: USER    DPF = D:/Protein_go_brrr/autodock/final/mut_Y35F/heme_Fe/dock.dpf
DOCKED: USER  
DOCKED: USER    Estimated Free Energy of Binding    =   -7.65 kcal/mol  [=(1)+(2)+(3)-(4)]
DOCKED: USER    Estimated Inhibition Constant, Ki   =    2.45 uM (micromolar)  [Temperature = 298.15 K]
DOCKED: USER    
DOCKED: USER    (1) Final Intermolecular Energy     =  -10.64 kcal/mol
DOCKED: USER        vdW + Hbond + desolv Energy     =   -7.47 kcal/mol
DOCKED: USER        Electrostatic Energy            =   -3.17 kcal/mol
DOCKED: USER    (2) Final Total Internal Energy     =   -0.19 kcal/mol
DOCKED: USER    (3) Torsional Free Energy           =   +2.98 kcal/mol
DOCKED: USER    (4) Unbound System's Energy  [=(2)] =   -0.19 kcal/mol
DOCKED: USER    
DOCKED: USER    
DOCKED: USER    NEWDPF move heme_Fe_opt.pdbqt
DOCKED: USER    NEWDPF about -0.174000 -0.001000 -0.047000
DOCKED: USER    NEWDPF tran0 21.289332 -2.980481 -8.249603
DOCKED: USER    NEWDPF quaternion0 -0.492072 -0.374323 0.595495 -0.512965
DOCKED: USER    NEWDPF axisangle0 -0.573237 -0.436066 0.693719 -118.276956
DOCKED: USER    NEWDPF quat0 -0.573237 -0.436066 0.693719 -118.276956
DOCKED: USER    NEWDPF dihe0 -136.42 -112.01 6.59 59.93 108.59 126.73 -115.38 107.79 139.38 -171.92 
DOCKED: USER  keepresnum = 1 
DOCKED: USER  
DOCKED: REMARK  10 active torsions:
DOCKED: REMARK  status: ('A' for Active; 'I' for Inactive)
DOCKED: REMARK    1  A    between atoms: C_6  and  C_10 
DOCKED: REMARK    2  A    between atoms: C_10  and  C_11 
DOCKED: REMARK    3  A    between atoms: C_11  and  C_12 
DOCKED: REMARK    4  A    between atoms: C_12  and  O_14 
DOCKED: REMARK    5  A    between atoms: C_17  and  C_20 
DOCKED: REMARK    6  A    between atoms: C_24  and  C_27 
DOCKED: REMARK    7  A    between atoms: C_31  and  C_34 
DOCKED: REMARK    8  A    between atoms: C_34  and  C_35 
DOCKED: REMARK    9  A    between atoms: C_35  and  C_36 
DOCKED: REMARK   10  A    between atoms: C_36  and  O_38 
DOCKED: USER                              x       y       z     vdW  Elec       q    Type
DOCKED: USER                           _______ _______ _______ _____ _____    ______ ____
DOCKED: ROOT
DOCKED: ATOM      1  C   UNL d   1      20.767  -4.878  -7.668 -0.12 +0.02    +0.064 C 
DOCKED: ATOM      2  C   UNL d   1      21.800  -0.669  -5.291 -0.15 +0.00    +0.064 A 
DOCKED: ATOM      3  C   UNL d   1      21.303   1.711  -9.432 -0.22 -0.02    +0.064 C 
DOCKED: ATOM      4  C   UNL d   1      20.405  -2.363 -11.772 -0.18 -0.02    +0.064 C 
DOCKED: ATOM      5  C   UNL d   1      21.186  -3.925  -6.631 -0.12 +0.01    +0.066 A 
DOCKED: ATOM      6  C   UNL d   1      21.529  -4.269  -5.334 -0.13 -0.00    -0.021 A 
DOCKED: ATOM      7  C   UNL d   1      21.812  -3.099  -4.673 -0.19 -0.00    -0.025 A 
DOCKED: ATOM      8  C   UNL d   1      21.631  -2.085  -5.594 -0.13 -0.00    +0.066 A 
DOCKED: ATOM      9  C   UNL d   1      22.250  -2.975  -3.246 -0.19 +0.01    +0.051 C 
DOCKED: ATOM     10  C   UNL d   1      21.687   0.324  -6.174 -0.24 -0.00    +0.066 A 
DOCKED: ATOM     11  C   UNL d   1      21.742   1.677  -5.830 -0.26 +0.00    -0.021 A 
DOCKED: ATOM     12  C   UNL d   1      21.584   2.385  -7.005 -0.28 -0.00    +0.000 A 
DOCKED: ATOM     13  C   UNL d   1      21.432   1.418  -8.014 -0.23 -0.02    +0.070 A 
DOCKED: ATOM     14  C   UNL d   1      21.868   2.267  -4.441 -0.28 +0.00    +0.052 C 
DOCKED: ATOM     15  C   UNL d   1      21.105   0.787 -10.401 -0.16 -0.02    +0.066 A 
DOCKED: ATOM     16  C   UNL d   1      21.087   1.098 -11.755 -0.20 +0.01    -0.021 A 
DOCKED: ATOM     17  C   UNL d   1      20.824  -0.075 -12.431 -0.23 -0.00    +0.000 A 
DOCKED: ATOM     18  C   UNL d   1      20.684  -1.076 -11.472 -0.19 -0.02    +0.070 A 
DOCKED: ATOM     19  C   UNL d   1      21.283   2.449 -12.389 -0.24 -0.03    +0.052 C 
DOCKED: ATOM     20  C   UNL d   1      20.311  -3.454 -10.795 -0.11 -0.01    +0.066 A 
DOCKED: ATOM     21  C   UNL d   1      19.829  -4.743 -11.064 -0.06 +0.00    -0.025 A 
DOCKED: ATOM     22  C   UNL d   1      19.953  -5.447  -9.884 -0.05 -0.00    -0.021 A 
DOCKED: ATOM     23  C   UNL d   1      20.497  -4.562  -8.945 -0.08 +0.01    +0.066 A 
DOCKED: ATOM     24  C   UNL d   1      19.275  -5.292 -12.359 -0.05 -0.01    +0.051 C 
DOCKED: ATOM     25  N   UNL d   1      21.259  -2.591  -6.786 -0.09 -0.00    -0.248 N 
DOCKED: ATOM     26  N   UNL d   1      21.486   0.162  -7.507 -0.14 +0.03    -0.248 N 
DOCKED: ATOM     27  N   UNL d   1      20.899  -0.556 -10.227 -0.16 +0.05    -0.248 N 
DOCKED: ATOM     28  N   UNL d   1      20.671  -3.336  -9.494 -0.07 -0.00    -0.248 N 
DOCKED: ATOM     29 FE   UNL d   1      21.078  -1.587  -8.502 -0.04 -0.00    +0.000 Fe
DOCKED: ENDROOT
DOCKED: BRANCH   6  30
DOCKED: ATOM     30  C   UNL d   1      21.606  -5.640  -4.754 -0.07 +0.01    +0.052 C 
DOCKED: BRANCH  30  31
DOCKED: ATOM     31  C   UNL d   1      20.863  -5.707  -3.424 -0.11 +0.04    +0.115 C 
DOCKED: BRANCH  31  32
DOCKED: ATOM     32  C   UNL d   1      19.393  -5.466  -3.630 -0.07 +0.15    +0.139 C 
DOCKED: ATOM     33  O   UNL d   1      18.590  -6.381  -3.516 -0.03 -1.00    -0.650 OA
DOCKED: BRANCH  32  34
DOCKED: ATOM     34  O   UNL d   1      18.948  -4.237  -3.942 -0.53 -1.00    -0.776 OA
DOCKED: ATOM     35  H   UNL d   1      19.427  -3.719  -4.604 -0.48 +0.09    +0.167 HD
DOCKED: ENDBRANCH  32  34
DOCKED: ENDBRANCH  31  32
DOCKED: ENDBRANCH  30  31
DOCKED: ENDBRANCH   6  30
DOCKED: BRANCH  22  36
DOCKED: ATOM     36  C   UNL d   1      19.526  -6.874  -9.661 -0.02 +0.01    +0.052 C 
DOCKED: BRANCH  36  37
DOCKED: ATOM     37  C   UNL d   1      18.010  -6.945  -9.552 -0.05 +0.02    +0.115 C 
DOCKED: BRANCH  37  38
DOCKED: ATOM     38  C   UNL d   1      17.538  -6.385  -8.240 -0.07 +0.12    +0.139 C 
DOCKED: ATOM     39  O   UNL d   1      16.687  -5.508  -8.205 -0.64 -0.68    -0.650 OA
DOCKED: BRANCH  38  40
DOCKED: ATOM     40  O   UNL d   1      18.056  -6.845  -7.088 -0.05 -1.08    -0.776 OA
DOCKED: ATOM     41  H   UNL d   1      18.983  -6.661  -6.882 +0.02 +0.17    +0.167 HD
DOCKED: ENDBRANCH  38  40
DOCKED: ENDBRANCH  37  38
DOCKED: ENDBRANCH  36  37
DOCKED: ENDBRANCH  22  36
DOCKED: BRANCH  12  42
DOCKED: ATOM     42  C   UNL d   1      21.567   3.877  -7.109 -0.33 -0.00    +0.004 C 
DOCKED: ATOM     43  C   UNL d   1      22.573   4.614  -6.621 -0.17 -0.00    +0.012 C 
DOCKED: ENDBRANCH  12  42
DOCKED: BRANCH  17  44
DOCKED: ATOM     44  C   UNL d   1      20.734  -0.232 -13.901 -0.16 -0.00    +0.004 C 
DOCKED: ATOM     45  C   UNL d   1      21.634  -0.962 -14.568 -0.11 -0.00    +0.012 C 
DOCKED: ENDBRANCH  17  44
DOCKED: TORSDOF 10
DOCKED: TER
DOCKED: ENDMDL
________________________________________________________________________________


	BEGINNING GENETIC ALGORITHM DOCKING 28 of 100
Run: 28 Seed: 2034307056 162592661 [ Run 28 of 100 GA/GALS ]
Beginning LAMARCKIAN GENETIC ALGORITHM (LGA), with a maximum of 25000000 energy evaluations.

Final-Value: -9.894


	FINAL GENETIC ALGORITHM DOCKED STATE
	_______________________________________________


Detailed state:  trans -3.313 -9.881 -12.460 quatxyzw -0.754961 -0.645679 0.102001 -0.052233 center -0.174 -0.001 -0.047 ntor 10 -129.7576 -143.2683 14.3500 -165.3291 -123.4399 -107.4817 -142.7339 47.3812 155.6223 150.2468
State:	 -3.313  -9.881 -12.460  -0.756 -0.647  0.102 -174.012   -129.76 -143.27   14.35 -165.33 -123.44 -107.48 -142.73   47.38  155.62  150.25

DOCKED: MODEL       28
DOCKED: USER    Run = 28
DOCKED: USER    DPF = D:/Protein_go_brrr/autodock/final/mut_Y35F/heme_Fe/dock.dpf
DOCKED: USER  
DOCKED: USER    Estimated Free Energy of Binding    =   -5.07 kcal/mol  [=(1)+(2)+(3)-(4)]
DOCKED: USER    Estimated Inhibition Constant, Ki   =  191.44 uM (micromolar)  [Temperature = 298.15 K]
DOCKED: USER    
DOCKED: USER    (1) Final Intermolecular Energy     =   -8.06 kcal/mol
DOCKED: USER        vdW + Hbond + desolv Energy     =   -7.78 kcal/mol
DOCKED: USER        Electrostatic Energy            =   -0.28 kcal/mol
DOCKED: USER    (2) Final Total Internal Energy     =   -1.84 kcal/mol
DOCKED: USER    (3) Torsional Free Energy           =   +2.98 kcal/mol
DOCKED: USER    (4) Unbound System's Energy  [=(2)] =   -1.84 kcal/mol
DOCKED: USER    
DOCKED: USER    
DOCKED: USER    NEWDPF move heme_Fe_opt.pdbqt
DOCKED: USER    NEWDPF about -0.174000 -0.001000 -0.047000
DOCKED: USER    NEWDPF tran0 -3.312710 -9.881281 -12.460195
DOCKED: USER    NEWDPF quaternion0 -0.754961 -0.645679 0.102001 -0.052233
DOCKED: USER    NEWDPF axisangle0 -0.755993 -0.646561 0.102141 -174.011774
DOCKED: USER    NEWDPF quat0 -0.755993 -0.646561 0.102141 -174.011774
DOCKED: USER    NEWDPF dihe0 -129.76 -143.27 14.35 -165.33 -123.44 -107.48 -142.73 47.38 155.62 150.25 
DOCKED: USER  keepresnum = 1 
DOCKED: USER  
DOCKED: REMARK  10 active torsions:
DOCKED: REMARK  status: ('A' for Active; 'I' for Inactive)
DOCKED: REMARK    1  A    between atoms: C_6  and  C_10 
DOCKED: REMARK    2  A    between atoms: C_10  and  C_11 
DOCKED: REMARK    3  A    between atoms: C_11  and  C_12 
DOCKED: REMARK    4  A    between atoms: C_12  and  O_14 
DOCKED: REMARK    5  A    between atoms: C_17  and  C_20 
DOCKED: REMARK    6  A    between atoms: C_24  and  C_27 
DOCKED: REMARK    7  A    between atoms: C_31  and  C_34 
DOCKED: REMARK    8  A    between atoms: C_34  and  C_35 
DOCKED: REMARK    9  A    between atoms: C_35  and  C_36 
DOCKED: REMARK   10  A    between atoms: C_36  and  O_38 
DOCKED: USER                              x       y       z     vdW  Elec       q    Type
DOCKED: USER                           _______ _______ _______ _____ _____    ______ ____
DOCKED: ROOT
DOCKED: ATOM      1  C   UNL d   1      -3.775 -11.852 -12.794 -0.30 -0.01    +0.064 C 
DOCKED: ATOM      2  C   UNL d   1      -6.408  -7.708 -12.221 -0.19 -0.01    +0.064 A 
DOCKED: ATOM      3  C   UNL d   1      -2.401  -5.150 -12.909 -0.20 +0.00    +0.064 C 
DOCKED: ATOM      4  C   UNL d   1       0.184  -9.150 -13.362 -0.15 +0.01    +0.064 C 
DOCKED: ATOM      5  C   UNL d   1      -4.873 -10.925 -12.486 -0.26 -0.01    +0.066 A 
DOCKED: ATOM      6  C   UNL d   1      -6.154 -11.308 -12.125 -0.30 +0.00    -0.021 A 
DOCKED: ATOM      7  C   UNL d   1      -6.885 -10.156 -11.970 -0.28 +0.00    -0.025 A 
DOCKED: ATOM      8  C   UNL d   1      -6.021  -9.114 -12.242 -0.20 -0.01    +0.066 A 
DOCKED: ATOM      9  C   UNL d   1      -8.325 -10.073 -11.564 -0.41 -0.01    +0.051 C 
DOCKED: ATOM     10  C   UNL d   1      -5.581  -6.681 -12.424 -0.17 -0.00    +0.066 A 
DOCKED: ATOM     11  C   UNL d   1      -6.003  -5.352 -12.511 -0.15 -0.00    -0.021 A 
DOCKED: ATOM     12  C   UNL d   1      -4.868  -4.596 -12.726 -0.14 +0.00    +0.000 A 
DOCKED: ATOM     13  C   UNL d   1      -3.803  -5.513 -12.768 -0.16 +0.00    +0.070 A 
DOCKED: ATOM     14  C   UNL d   1      -7.426  -4.835 -12.461 +0.07 +0.01    +0.052 C 
DOCKED: ATOM     15  C   UNL d   1      -1.378  -6.032 -13.001 -0.22 +0.00    +0.066 A 
DOCKED: ATOM     16  C   UNL d   1      -0.044  -5.645 -13.035 -0.26 -0.00    -0.021 A 
DOCKED: ATOM     17  C   UNL d   1       0.703  -6.797 -13.169 -0.32 +0.00    +0.000 A 
DOCKED: ATOM     18  C   UNL d   1      -0.194  -7.861 -13.219 -0.27 +0.00    +0.070 A 
DOCKED: ATOM     19  C   UNL d   1       0.508  -4.247 -12.970 -0.24 +0.02    +0.052 C 
DOCKED: ATOM     20  C   UNL d   1      -0.727 -10.301 -13.356 -0.25 -0.00    +0.066 A 
DOCKED: ATOM     21  C   UNL d   1      -0.377 -11.614 -13.701 -0.29 +0.00    -0.025 A 
DOCKED: ATOM     22  C   UNL d   1      -1.517 -12.369 -13.520 -0.26 +0.00    -0.021 A 
DOCKED: ATOM     23  C   UNL d   1      -2.515 -11.491 -13.080 -0.21 -0.01    +0.066 A 
DOCKED: ATOM     24  C   UNL d   1       0.956 -12.139 -14.182 -0.25 -0.00    +0.051 C 
DOCKED: ATOM     25  N   UNL d   1      -4.795  -9.584 -12.547 -0.11 +0.02    -0.248 N 
DOCKED: ATOM     26  N   UNL d   1      -4.238  -6.785 -12.592 -0.09 +0.00    -0.248 N 
DOCKED: ATOM     27  N   UNL d   1      -1.471  -7.396 -13.071 -0.17 -0.00    -0.248 N 
DOCKED: ATOM     28  N   UNL d   1      -2.039 -10.223 -13.025 -0.18 +0.03    -0.248 N 
DOCKED: ATOM     29 FE   UNL d   1      -3.137  -8.504 -12.809 -0.05 -0.00    +0.000 Fe
DOCKED: ENDROOT
DOCKED: BRANCH   6  30
DOCKED: ATOM     30  C   UNL d   1      -6.655 -12.696 -11.916 -0.37 -0.01    +0.052 C 
DOCKED: BRANCH  30  31
DOCKED: ATOM     31  C   UNL d   1      -7.717 -13.048 -12.951 -0.23 -0.01    +0.115 C 
DOCKED: BRANCH  31  32
DOCKED: ATOM     32  C   UNL d   1      -7.370 -12.450 -14.286 -0.07 -0.00    +0.139 C 
DOCKED: ATOM     33  O   UNL d   1      -8.153 -11.706 -14.859 +0.04 -0.00    -0.650 OA
DOCKED: BRANCH  32  34
DOCKED: ATOM     34  O   UNL d   1      -6.189 -12.730 -14.864 +0.07 -0.01    -0.776 OA
DOCKED: ATOM     35  H   UNL d   1      -5.913 -13.653 -14.945 +0.04 +0.01    +0.167 HD
DOCKED: ENDBRANCH  32  34
DOCKED: ENDBRANCH  31  32
DOCKED: ENDBRANCH  30  31
DOCKED: ENDBRANCH   6  30
DOCKED: BRANCH  22  36
DOCKED: ATOM     36  C   UNL d   1      -1.650 -13.842 -13.802 -0.14 +0.00    +0.052 C 
DOCKED: BRANCH  36  37
DOCKED: ATOM     37  C   UNL d   1      -2.596 -14.057 -14.974 -0.11 +0.01    +0.115 C 
DOCKED: BRANCH  37  38
DOCKED: ATOM     38  C   UNL d   1      -3.593 -15.139 -14.670 -0.19 +0.03    +0.139 C 
DOCKED: ATOM     39  O   UNL d   1      -3.513 -16.233 -15.209 -0.05 -0.22    -0.650 OA
DOCKED: BRANCH  38  40
DOCKED: ATOM     40  O   UNL d   1      -4.590 -14.907 -13.798 -0.03 -0.11    -0.776 OA
DOCKED: ATOM     41  H   UNL d   1      -5.000 -14.031 -13.774 +0.05 +0.01    +0.167 HD
DOCKED: ENDBRANCH  38  40
DOCKED: ENDBRANCH  37  38
DOCKED: ENDBRANCH  36  37
DOCKED: ENDBRANCH  22  36
DOCKED: BRANCH  12  42
DOCKED: ATOM     42  C   UNL d   1      -4.848  -3.110 -12.893 -0.10 +0.00    +0.004 C 
DOCKED: ATOM     43  C   UNL d   1      -5.255  -2.300 -11.907 -0.11 +0.00    +0.012 C 
DOCKED: ENDBRANCH  12  42
DOCKED: BRANCH  17  44
DOCKED: ATOM     44  C   UNL d   1       2.180  -6.876 -13.226 -0.30 +0.00    +0.004 C 
DOCKED: ATOM     45  C   UNL d   1       2.805  -7.231 -14.354 -0.26 +0.00    +0.012 C 
DOCKED: ENDBRANCH  17  44
DOCKED: TORSDOF 10
DOCKED: TER
DOCKED: ENDMDL
________________________________________________________________________________


	BEGINNING GENETIC ALGORITHM DOCKING 29 of 100
Run: 29 Seed: 1705556591 957136649 [ Run 29 of 100 GA/GALS ]
Beginning LAMARCKIAN GENETIC ALGORITHM (LGA), with a maximum of 25000000 energy evaluations.

Final-Value: -11.962


	FINAL GENETIC ALGORITHM DOCKED STATE
	_______________________________________________


Detailed state:  trans -17.063 2.245 5.375 quatxyzw 0.293007 -0.888017 -0.354344 0.003668 center -0.174 -0.001 -0.047 ntor 10 -16.9111 -172.1978 51.1844 51.6608 -174.0768 89.3926 58.7917 -15.8375 -20.8003 -16.1231
State:	-17.063   2.245   5.375   0.293 -0.888 -0.354 179.580    -16.91 -172.20   51.18   51.66 -174.08   89.39   58.79  -15.84  -20.80  -16.12

DOCKED: MODEL       29
DOCKED: USER    Run = 29
DOCKED: USER    DPF = D:/Protein_go_brrr/autodock/final/mut_Y35F/heme_Fe/dock.dpf
DOCKED: USER  
DOCKED: USER    Estimated Free Energy of Binding    =   -6.83 kcal/mol  [=(1)+(2)+(3)-(4)]
DOCKED: USER    Estimated Inhibition Constant, Ki   =    9.91 uM (micromolar)  [Temperature = 298.15 K]
DOCKED: USER    
DOCKED: USER    (1) Final Intermolecular Energy     =   -9.81 kcal/mol
DOCKED: USER        vdW + Hbond + desolv Energy     =   -6.57 kcal/mol
DOCKED: USER        Electrostatic Energy            =   -3.24 kcal/mol
DOCKED: USER    (2) Final Total Internal Energy     =   -2.15 kcal/mol
DOCKED: USER    (3) Torsional Free Energy           =   +2.98 kcal/mol
DOCKED: USER    (4) Unbound System's Energy  [=(2)] =   -2.15 kcal/mol
DOCKED: USER    
DOCKED: USER    
DOCKED: USER    NEWDPF move heme_Fe_opt.pdbqt
DOCKED: USER    NEWDPF about -0.174000 -0.001000 -0.047000
DOCKED: USER    NEWDPF tran0 -17.063446 2.245001 5.375213
DOCKED: USER    NEWDPF quaternion0 0.293007 -0.888017 -0.354344 0.003668
DOCKED: USER    NEWDPF axisangle0 0.293009 -0.888023 -0.354346 179.579636
DOCKED: USER    NEWDPF quat0 0.293009 -0.888023 -0.354346 179.579636
DOCKED: USER    NEWDPF dihe0 -16.91 -172.20 51.18 51.66 -174.08 89.39 58.79 -15.84 -20.80 -16.12 
DOCKED: USER  keepresnum = 1 
DOCKED: USER  
DOCKED: REMARK  10 active torsions:
DOCKED: REMARK  status: ('A' for Active; 'I' for Inactive)
DOCKED: REMARK    1  A    between atoms: C_6  and  C_10 
DOCKED: REMARK    2  A    between atoms: C_10  and  C_11 
DOCKED: REMARK    3  A    between atoms: C_11  and  C_12 
DOCKED: REMARK    4  A    between atoms: C_12  and  O_14 
DOCKED: REMARK    5  A    between atoms: C_17  and  C_20 
DOCKED: REMARK    6  A    between atoms: C_24  and  C_27 
DOCKED: REMARK    7  A    between atoms: C_31  and  C_34 
DOCKED: REMARK    8  A    between atoms: C_34  and  C_35 
DOCKED: REMARK    9  A    between atoms: C_35  and  C_36 
DOCKED: REMARK   10  A    between atoms: C_36  and  O_38 
DOCKED: USER                              x       y       z     vdW  Elec       q    Type
DOCKED: USER                           _______ _______ _______ _____ _____    ______ ____
DOCKED: ROOT
DOCKED: ATOM      1  C   UNL d   1     -15.499   3.573   5.364 -0.14 +0.03    +0.064 C 
DOCKED: ATOM      2  C   UNL d   1     -16.746  -0.360   2.642 -0.30 +0.02    +0.064 A 
DOCKED: ATOM      3  C   UNL d   1     -21.176  -0.145   4.485 -0.13 +0.01    +0.064 C 
DOCKED: ATOM      4  C   UNL d   1     -19.960   3.597   7.207 -0.10 +0.01    +0.064 C 
DOCKED: ATOM      5  C   UNL d   1     -15.415   2.395   4.490 -0.16 +0.02    +0.066 A 
DOCKED: ATOM      6  C   UNL d   1     -14.259   1.951   3.869 -0.29 -0.01    -0.021 A 
DOCKED: ATOM      7  C   UNL d   1     -14.607   0.861   3.110 -0.36 -0.01    -0.025 A 
DOCKED: ATOM      8  C   UNL d   1     -15.964   0.681   3.298 -0.28 +0.02    +0.066 A 
DOCKED: ATOM      9  C   UNL d   1     -13.679   0.035   2.273 -0.45 +0.01    +0.051 C 
DOCKED: ATOM     10  C   UNL d   1     -18.043  -0.591   2.849 -0.22 +0.02    +0.066 A 
DOCKED: ATOM     11  C   UNL d   1     -18.790  -1.521   2.121 -0.21 -0.01    -0.021 A 
DOCKED: ATOM     12  C   UNL d   1     -20.076  -1.466   2.622 -0.13 +0.00    +0.000 A 
DOCKED: ATOM     13  C   UNL d   1     -20.048  -0.490   3.634 -0.13 +0.01    +0.070 A 
DOCKED: ATOM     14  C   UNL d   1     -18.319  -2.371   0.959 -0.12 +0.03    +0.052 C 
DOCKED: ATOM     15  C   UNL d   1     -21.168   0.830   5.425 -0.11 +0.00    +0.066 A 
DOCKED: ATOM     16  C   UNL d   1     -22.234   1.062   6.285 -0.10 -0.00    -0.021 A 
DOCKED: ATOM     17  C   UNL d   1     -21.887   2.143   7.069 -0.10 +0.00    +0.000 A 
DOCKED: ATOM     18  C   UNL d   1     -20.617   2.548   6.664 -0.09 +0.01    +0.070 A 
DOCKED: ATOM     19  C   UNL d   1     -23.539   0.316   6.353 -0.04 +0.00    +0.052 C 
DOCKED: ATOM     20  C   UNL d   1     -18.599   4.014   6.850 -0.10 +0.02    +0.066 A 
DOCKED: ATOM     21  C   UNL d   1     -17.986   5.208   7.254 -0.05 -0.01    -0.025 A 
DOCKED: ATOM     22  C   UNL d   1     -16.711   5.175   6.728 -0.08 -0.01    -0.021 A 
DOCKED: ATOM     23  C   UNL d   1     -16.599   3.971   6.022 -0.15 +0.03    +0.066 A 
DOCKED: ATOM     24  C   UNL d   1     -18.562   6.330   8.087 -0.02 +0.01    +0.051 C 
DOCKED: ATOM     25  N   UNL d   1     -16.451   1.610   4.145 -0.16 -0.06    -0.248 N 
DOCKED: ATOM     26  N   UNL d   1     -18.811   0.050   3.766 -0.05 -0.05    -0.248 N 
DOCKED: ATOM     27  N   UNL d   1     -20.156   1.715   5.684 +0.03 -0.02    -0.248 N 
DOCKED: ATOM     28  N   UNL d   1     -17.769   3.288   6.062 -0.11 -0.08    -0.248 N 
DOCKED: ATOM     29 FE   UNL d   1     -18.291   1.670   4.916 -0.05 +0.00    +0.000 Fe
DOCKED: ENDROOT
DOCKED: BRANCH   6  30
DOCKED: ATOM     30  C   UNL d   1     -12.888   2.519   4.005 -0.43 +0.02    +0.052 C 
DOCKED: BRANCH  30  31
DOCKED: ATOM     31  C   UNL d   1     -12.338   2.275   5.406 -0.14 +0.08    +0.115 C 
DOCKED: BRANCH  31  32
DOCKED: ATOM     32  C   UNL d   1     -12.001   3.579   6.074 -0.37 +0.17    +0.139 C 
DOCKED: ATOM     33  O   UNL d   1     -11.447   3.596   7.164 -0.47 -1.30    -0.650 OA
DOCKED: BRANCH  32  34
DOCKED: ATOM     34  O   UNL d   1     -12.308   4.742   5.476 -0.45 -0.72    -0.776 OA
DOCKED: ATOM     35  H   UNL d   1     -12.317   5.553   6.003 +0.07 +0.16    +0.167 HD
DOCKED: ENDBRANCH  32  34
DOCKED: ENDBRANCH  31  32
DOCKED: ENDBRANCH  30  31
DOCKED: ENDBRANCH   6  30
DOCKED: BRANCH  22  36
DOCKED: ATOM     36  C   UNL d   1     -15.677   6.262   6.857 -0.06 +0.03    +0.052 C 
DOCKED: BRANCH  36  37
DOCKED: ATOM     37  C   UNL d   1     -14.992   6.161   8.212 -0.13 +0.13    +0.115 C 
DOCKED: BRANCH  37  38
DOCKED: ATOM     38  C   UNL d   1     -13.709   6.943   8.227 -0.09 +0.19    +0.139 C 
DOCKED: ATOM     39  O   UNL d   1     -13.699   8.122   8.549 -0.24 -1.17    -0.650 OA
DOCKED: BRANCH  38  40
DOCKED: ATOM     40  O   UNL d   1     -12.555   6.346   7.880 +0.09 -1.10    -0.776 OA
DOCKED: ATOM     41  H   UNL d   1     -12.580   5.449   7.519 +0.07 +0.27    +0.167 HD
DOCKED: ENDBRANCH  38  40
DOCKED: ENDBRANCH  37  38
DOCKED: ENDBRANCH  36  37
DOCKED: ENDBRANCH  22  36
DOCKED: BRANCH  12  42
DOCKED: ATOM     42  C   UNL d   1     -21.223  -2.290   2.129 -0.07 +0.00    +0.004 C 
DOCKED: ATOM     43  C   UNL d   1     -21.601  -3.400   2.774 -0.07 +0.00    +0.012 C 
DOCKED: ENDBRANCH  12  42
DOCKED: BRANCH  17  44
DOCKED: ATOM     44  C   UNL d   1     -22.708   2.737   8.148 -0.04 +0.00    +0.004 C 
DOCKED: ATOM     45  C   UNL d   1     -22.399   2.536   9.433 -0.06 +0.00    +0.012 C 
DOCKED: ENDBRANCH  17  44
DOCKED: TORSDOF 10
DOCKED: TER
DOCKED: ENDMDL
________________________________________________________________________________


	BEGINNING GENETIC ALGORITHM DOCKING 30 of 100
Run: 30 Seed: 1719727854 1076307718 [ Run 30 of 100 GA/GALS ]
Beginning LAMARCKIAN GENETIC ALGORITHM (LGA), with a maximum of 25000000 energy evaluations.

Final-Value: -12.221


	FINAL GENETIC ALGORITHM DOCKED STATE
	_______________________________________________


Detailed state:  trans 10.913 11.559 7.242 quatxyzw -0.381882 -0.522728 -0.394069 0.652404 center -0.174 -0.001 -0.047 ntor 10 132.0966 100.4911 28.4831 -165.6426 133.8474 124.9169 -9.2345 -45.2632 179.5131 10.1517
State:	 10.913  11.559   7.242  -0.504 -0.690 -0.520 98.554    132.10  100.49   28.48 -165.64  133.85  124.92   -9.23  -45.26  179.51   10.15

DOCKED: MODEL       30
DOCKED: USER    Run = 30
DOCKED: USER    DPF = D:/Protein_go_brrr/autodock/final/mut_Y35F/heme_Fe/dock.dpf
DOCKED: USER  
DOCKED: USER    Estimated Free Energy of Binding    =   -7.71 kcal/mol  [=(1)+(2)+(3)-(4)]
DOCKED: USER    Estimated Inhibition Constant, Ki   =    2.22 uM (micromolar)  [Temperature = 298.15 K]
DOCKED: USER    
DOCKED: USER    (1) Final Intermolecular Energy     =  -10.69 kcal/mol
DOCKED: USER        vdW + Hbond + desolv Energy     =   -7.67 kcal/mol
DOCKED: USER        Electrostatic Energy            =   -3.03 kcal/mol
DOCKED: USER    (2) Final Total Internal Energy     =   -1.53 kcal/mol
DOCKED: USER    (3) Torsional Free Energy           =   +2.98 kcal/mol
DOCKED: USER    (4) Unbound System's Energy  [=(2)] =   -1.53 kcal/mol
DOCKED: USER    
DOCKED: USER    
DOCKED: USER    NEWDPF move heme_Fe_opt.pdbqt
DOCKED: USER    NEWDPF about -0.174000 -0.001000 -0.047000
DOCKED: USER    NEWDPF tran0 10.913471 11.558762 7.241505
DOCKED: USER    NEWDPF quaternion0 -0.381882 -0.522728 -0.394069 0.652404
DOCKED: USER    NEWDPF axisangle0 -0.503887 -0.689732 -0.519968 98.553796
DOCKED: USER    NEWDPF quat0 -0.503887 -0.689732 -0.519968 98.553796
DOCKED: USER    NEWDPF dihe0 132.10 100.49 28.48 -165.64 133.85 124.92 -9.23 -45.26 179.51 10.15 
DOCKED: USER  keepresnum = 1 
DOCKED: USER  
DOCKED: REMARK  10 active torsions:
DOCKED: REMARK  status: ('A' for Active; 'I' for Inactive)
DOCKED: REMARK    1  A    between atoms: C_6  and  C_10 
DOCKED: REMARK    2  A    between atoms: C_10  and  C_11 
DOCKED: REMARK    3  A    between atoms: C_11  and  C_12 
DOCKED: REMARK    4  A    between atoms: C_12  and  O_14 
DOCKED: REMARK    5  A    between atoms: C_17  and  C_20 
DOCKED: REMARK    6  A    between atoms: C_24  and  C_27 
DOCKED: REMARK    7  A    between atoms: C_31  and  C_34 
DOCKED: REMARK    8  A    between atoms: C_34  and  C_35 
DOCKED: REMARK    9  A    between atoms: C_35  and  C_36 
DOCKED: REMARK   10  A    between atoms: C_36  and  O_38 
DOCKED: USER                              x       y       z     vdW  Elec       q    Type
DOCKED: USER                           _______ _______ _______ _____ _____    ______ ____
DOCKED: ROOT
DOCKED: ATOM      1  C   UNL d   1      11.160   9.680   8.029 -0.15 +0.02    +0.064 C 
DOCKED: ATOM      2  C   UNL d   1      11.874  11.710   3.579 -0.20 -0.01    +0.064 A 
DOCKED: ATOM      3  C   UNL d   1      11.565  16.060   5.591 -0.15 -0.01    +0.064 C 
DOCKED: ATOM      4  C   UNL d   1      10.768  14.117   9.889 -0.27 +0.02    +0.064 C 
DOCKED: ATOM      5  C   UNL d   1      11.306   9.848   6.576 -0.12 +0.01    +0.066 A 
DOCKED: ATOM      6  C   UNL d   1      11.318   8.812   5.658 -0.18 -0.00    -0.021 A 
DOCKED: ATOM      7  C   UNL d   1      11.520   9.376   4.422 -0.25 -0.00    -0.025 A 
DOCKED: ATOM      8  C   UNL d   1      11.623  10.737   4.635 -0.19 -0.00    +0.066 A 
DOCKED: ATOM      9  C   UNL d   1      11.588   8.643   3.118 -0.46 -0.00    +0.051 C 
DOCKED: ATOM     10  C   UNL d   1      11.921  13.032   3.749 -0.18 -0.01    +0.066 A 
DOCKED: ATOM     11  C   UNL d   1      12.276  13.931   2.740 -0.22 +0.00    -0.021 A 
DOCKED: ATOM     12  C   UNL d   1      12.211  15.191   3.299 -0.11 -0.00    +0.000 A 
DOCKED: ATOM     13  C   UNL d   1      11.824  14.994   4.636 -0.11 -0.01    +0.070 A 
DOCKED: ATOM     14  C   UNL d   1      12.722  13.600   1.330 -0.42 -0.02    +0.052 C 
DOCKED: ATOM     15  C   UNL d   1      11.243  15.874   6.893 -0.18 -0.01    +0.066 A 
DOCKED: ATOM     16  C   UNL d   1      10.906  16.916   7.747 -0.17 +0.00    -0.021 A 
DOCKED: ATOM     17  C   UNL d   1      10.679  16.358   8.988 -0.23 +0.00    +0.000 A 
DOCKED: ATOM     18  C   UNL d   1      10.888  14.987   8.862 -0.25 +0.01    +0.070 A 
DOCKED: ATOM     19  C   UNL d   1      10.824  18.383   7.419 -0.14 -0.01    +0.052 C 
DOCKED: ATOM     20  C   UNL d   1      10.920  12.661   9.781 -0.22 +0.02    +0.066 A 
DOCKED: ATOM     21  C   UNL d   1      10.997  11.772  10.862 -0.18 -0.01    -0.025 A 
DOCKED: ATOM     22  C   UNL d   1      11.096  10.512  10.309 -0.15 -0.01    -0.021 A 
DOCKED: ATOM     23  C   UNL d   1      11.081  10.681   8.919 -0.16 +0.01    +0.066 A 
DOCKED: ATOM     24  C   UNL d   1      10.985  12.082  12.341 -0.19 +0.04    +0.051 C 
DOCKED: ATOM     25  N   UNL d   1      11.484  11.022   5.945 -0.04 -0.02    -0.248 N 
DOCKED: ATOM     26  N   UNL d   1      11.656  13.678   4.913 -0.07 +0.02    -0.248 N 
DOCKED: ATOM     27  N   UNL d   1      11.191  14.683   7.565 -0.12 +0.00    -0.248 N 
DOCKED: ATOM     28  N   UNL d   1      11.019  11.998   8.603 -0.07 -0.04    -0.248 N 
DOCKED: ATOM     29 FE   UNL d   1      11.337  12.839   6.760 -0.04 +0.00    +0.000 Fe
DOCKED: ENDROOT
DOCKED: BRANCH   6  30
DOCKED: ATOM     30  C   UNL d   1      11.125   7.360   5.934 -0.17 +0.02    +0.052 C 
DOCKED: BRANCH  30  31
DOCKED: ATOM     31  C   UNL d   1      12.464   6.676   6.190 -0.17 +0.05    +0.115 C 
DOCKED: BRANCH  31  32
DOCKED: ATOM     32  C   UNL d   1      12.252   5.273   6.685 -0.12 +0.12    +0.139 C 
DOCKED: ATOM     33  O   UNL d   1      12.893   4.343   6.215 -0.55 -0.49    -0.650 OA
DOCKED: BRANCH  32  34
DOCKED: ATOM     34  O   UNL d   1      11.353   5.027   7.653 -0.17 -1.57    -0.776 OA
DOCKED: ATOM     35  H   UNL d   1      11.355   5.580   8.447 +0.04 +0.39    +0.167 HD
DOCKED: ENDBRANCH  32  34
DOCKED: ENDBRANCH  31  32
DOCKED: ENDBRANCH  30  31
DOCKED: ENDBRANCH   6  30
DOCKED: BRANCH  22  36
DOCKED: ATOM     36  C   UNL d   1      11.245   9.224  11.075 -0.11 +0.02    +0.052 C 
DOCKED: BRANCH  36  37
DOCKED: ATOM     37  C   UNL d   1       9.943   8.439  11.019 -0.05 +0.06    +0.115 C 
DOCKED: BRANCH  37  38
DOCKED: ATOM     38  C   UNL d   1      10.198   6.994  10.697 -0.12 +0.14    +0.139 C 
DOCKED: ATOM     39  O   UNL d   1       9.784   6.108  11.430 -0.43 -0.91    -0.650 OA
DOCKED: BRANCH  38  40
DOCKED: ATOM     40  O   UNL d   1      10.893   6.665   9.593 +0.02 -1.05    -0.776 OA
DOCKED: ATOM     41  H   UNL d   1      10.443   6.668   8.737 +0.03 +0.22    +0.167 HD
DOCKED: ENDBRANCH  38  40
DOCKED: ENDBRANCH  37  38
DOCKED: ENDBRANCH  36  37
DOCKED: ENDBRANCH  22  36
DOCKED: BRANCH  12  42
DOCKED: ATOM     42  C   UNL d   1      12.523  16.465   2.579 -0.11 -0.00    +0.004 C 
DOCKED: ATOM     43  C   UNL d   1      11.654  16.995   1.709 -0.15 -0.00    +0.012 C 
DOCKED: ENDBRANCH  12  42
DOCKED: BRANCH  17  44
DOCKED: ATOM     44  C   UNL d   1      10.269  17.088  10.210 -0.22 +0.00    +0.004 C 
DOCKED: ATOM     45  C   UNL d   1      11.103  17.207  11.248 -0.17 +0.00    +0.012 C 
DOCKED: ENDBRANCH  17  44
DOCKED: TORSDOF 10
DOCKED: TER
DOCKED: ENDMDL
________________________________________________________________________________


	BEGINNING GENETIC ALGORITHM DOCKING 31 of 100
Run: 31 Seed: 1106565175 1362757158 [ Run 31 of 100 GA/GALS ]
Beginning LAMARCKIAN GENETIC ALGORITHM (LGA), with a maximum of 25000000 energy evaluations.

Final-Value: -10.301


	FINAL GENETIC ALGORITHM DOCKED STATE
	_______________________________________________


Detailed state:  trans -4.391 -9.615 12.858 quatxyzw -0.646048 -0.027202 -0.047346 0.761341 center -0.174 -0.001 -0.047 ntor 10 99.7538 82.5471 70.4437 39.1694 -114.8865 -93.9467 -89.1539 -72.9473 -178.4366 -0.9236
State:	 -4.391  -9.615  12.858  -0.996 -0.042 -0.073 80.835     99.75   82.55   70.44   39.17 -114.89  -93.95  -89.15  -72.95 -178.44   -0.92

DOCKED: MODEL       31
DOCKED: USER    Run = 31
DOCKED: USER    DPF = D:/Protein_go_brrr/autodock/final/mut_Y35F/heme_Fe/dock.dpf
DOCKED: USER  
DOCKED: USER    Estimated Free Energy of Binding    =   -4.97 kcal/mol  [=(1)+(2)+(3)-(4)]
DOCKED: USER    Estimated Inhibition Constant, Ki   =  227.18 uM (micromolar)  [Temperature = 298.15 K]
DOCKED: USER    
DOCKED: USER    (1) Final Intermolecular Energy     =   -7.95 kcal/mol
DOCKED: USER        vdW + Hbond + desolv Energy     =   -6.40 kcal/mol
DOCKED: USER        Electrostatic Energy            =   -1.55 kcal/mol
DOCKED: USER    (2) Final Total Internal Energy     =   -2.35 kcal/mol
DOCKED: USER    (3) Torsional Free Energy           =   +2.98 kcal/mol
DOCKED: USER    (4) Unbound System's Energy  [=(2)] =   -2.35 kcal/mol
DOCKED: USER    
DOCKED: USER    
DOCKED: USER    NEWDPF move heme_Fe_opt.pdbqt
DOCKED: USER    NEWDPF about -0.174000 -0.001000 -0.047000
DOCKED: USER    NEWDPF tran0 -4.391280 -9.614917 12.857862
DOCKED: USER    NEWDPF quaternion0 -0.646048 -0.027202 -0.047346 0.761341
DOCKED: USER    NEWDPF axisangle0 -0.996447 -0.041956 -0.073025 80.834836
DOCKED: USER    NEWDPF quat0 -0.996447 -0.041956 -0.073025 80.834836
DOCKED: USER    NEWDPF dihe0 99.75 82.55 70.44 39.17 -114.89 -93.95 -89.15 -72.95 -178.44 -0.92 
DOCKED: USER  keepresnum = 1 
DOCKED: USER  
DOCKED: REMARK  10 active torsions:
DOCKED: REMARK  status: ('A' for Active; 'I' for Inactive)
DOCKED: REMARK    1  A    between atoms: C_6  and  C_10 
DOCKED: REMARK    2  A    between atoms: C_10  and  C_11 
DOCKED: REMARK    3  A    between atoms: C_11  and  C_12 
DOCKED: REMARK    4  A    between atoms: C_12  and  O_14 
DOCKED: REMARK    5  A    between atoms: C_17  and  C_20 
DOCKED: REMARK    6  A    between atoms: C_24  and  C_27 
DOCKED: REMARK    7  A    between atoms: C_31  and  C_34 
DOCKED: REMARK    8  A    between atoms: C_34  and  C_35 
DOCKED: REMARK    9  A    between atoms: C_35  and  C_36 
DOCKED: REMARK   10  A    between atoms: C_36  and  O_38 
DOCKED: USER                              x       y       z     vdW  Elec       q    Type
DOCKED: USER                           _______ _______ _______ _____ _____    ______ ____
DOCKED: ROOT
DOCKED: ATOM      1  C   UNL d   1      -6.304 -10.359  12.848 -0.20 -0.00    +0.064 C 
DOCKED: ATOM      2  C   UNL d   1      -2.571 -10.311   9.609 -0.31 -0.01    +0.064 A 
DOCKED: ATOM      3  C   UNL d   1       0.404  -9.048  13.161 -0.14 -0.02    +0.064 C 
DOCKED: ATOM      4  C   UNL d   1      -3.213  -8.985  16.291 -0.17 -0.01    +0.064 C 
DOCKED: ATOM      5  C   UNL d   1      -5.544 -10.381  11.590 -0.16 -0.00    +0.066 A 
DOCKED: ATOM      6  C   UNL d   1      -6.094 -10.599  10.338 -0.33 +0.00    -0.021 A 
DOCKED: ATOM      7  C   UNL d   1      -5.056 -10.589   9.439 -0.37 +0.00    -0.025 A 
DOCKED: ATOM      8  C   UNL d   1      -3.911 -10.366  10.179 -0.28 -0.01    +0.066 A 
DOCKED: ATOM      9  C   UNL d   1      -5.171 -10.766   7.956 -0.46 -0.01    +0.051 C 
DOCKED: ATOM     10  C   UNL d   1      -1.456 -10.040  10.291 -0.26 -0.01    +0.066 A 
DOCKED: ATOM     11  C   UNL d   1      -0.175 -10.108   9.739 -0.26 +0.00    -0.021 A 
DOCKED: ATOM     12  C   UNL d   1       0.703  -9.765  10.748 -0.19 -0.00    +0.000 A 
DOCKED: ATOM     13  C   UNL d   1      -0.097  -9.510  11.876 -0.16 -0.02    +0.070 A 
DOCKED: ATOM     14  C   UNL d   1       0.201 -10.546   8.338 -0.20 -0.01    +0.052 C 
DOCKED: ATOM     15  C   UNL d   1      -0.355  -8.851  14.264 -0.10 -0.02    +0.066 A 
DOCKED: ATOM     16  C   UNL d   1       0.145  -8.314  15.444 -0.09 +0.01    -0.021 A 
DOCKED: ATOM     17  C   UNL d   1      -0.896  -8.298  16.349 -0.11 -0.00    +0.000 A 
DOCKED: ATOM     18  C   UNL d   1      -2.007  -8.831  15.701 -0.12 -0.01    +0.070 A 
DOCKED: ATOM     19  C   UNL d   1       1.552  -7.855  15.720 -0.07 -0.02    +0.052 C 
DOCKED: ATOM     20  C   UNL d   1      -4.420  -9.485  15.623 -0.15 -0.01    +0.066 A 
DOCKED: ATOM     21  C   UNL d   1      -5.615  -9.837  16.266 -0.10 +0.00    -0.025 A 
DOCKED: ATOM     22  C   UNL d   1      -6.486 -10.213  15.265 -0.10 +0.00    -0.021 A 
DOCKED: ATOM     23  C   UNL d   1      -5.790 -10.083  14.057 -0.13 -0.01    +0.066 A 
DOCKED: ATOM     24  C   UNL d   1      -5.929  -9.827  17.744 -0.05 -0.00    +0.051 C 
DOCKED: ATOM     25  N   UNL d   1      -4.212 -10.230  11.486 +0.00 +0.01    -0.248 N 
DOCKED: ATOM     26  N   UNL d   1      -1.412  -9.687  11.600 -0.08 +0.04    -0.248 N 
DOCKED: ATOM     27  N   UNL d   1      -1.688  -9.131  14.406 +0.07 +0.04    -0.248 N 
DOCKED: ATOM     28  N   UNL d   1      -4.516  -9.681  14.285 +0.01 +0.02    -0.248 N 
DOCKED: ATOM     29 FE   UNL d   1      -2.964  -9.684  12.945 -0.05 -0.00    +0.000 Fe
DOCKED: ENDROOT
DOCKED: BRANCH   6  30
DOCKED: ATOM     30  C   UNL d   1      -7.535 -10.786  10.006 -0.37 +0.00    +0.052 C 
DOCKED: BRANCH  30  31
DOCKED: ATOM     31  C   UNL d   1      -7.922 -12.258  10.087 -0.17 +0.00    +0.115 C 
DOCKED: BRANCH  31  32
DOCKED: ATOM     32  C   UNL d   1      -8.410 -12.599  11.468 -0.14 +0.03    +0.139 C 
DOCKED: ATOM     33  O   UNL d   1      -7.787 -13.380  12.174 +0.03 -0.06    -0.650 OA
DOCKED: BRANCH  32  34
DOCKED: ATOM     34  O   UNL d   1      -9.539 -12.045  11.940 +0.07 -0.45    -0.776 OA
DOCKED: ATOM     35  H   UNL d   1      -9.508 -11.145  12.295 +0.03 +0.15    +0.167 HD
DOCKED: ENDBRANCH  32  34
DOCKED: ENDBRANCH  31  32
DOCKED: ENDBRANCH  30  31
DOCKED: ENDBRANCH   6  30
DOCKED: BRANCH  22  36
DOCKED: ATOM     36  C   UNL d   1      -7.892 -10.716  15.464 -0.05 +0.00    +0.052 C 
DOCKED: BRANCH  36  37
DOCKED: ATOM     37  C   UNL d   1      -8.876  -9.567  15.301 -0.09 +0.01    +0.115 C 
DOCKED: BRANCH  37  38
DOCKED: ATOM     38  C   UNL d   1      -9.614  -9.672  13.996 -0.06 +0.10    +0.139 C 
DOCKED: ATOM     39  O   UNL d   1      -9.214  -9.083  13.003 -0.47 -0.61    -0.650 OA
DOCKED: BRANCH  38  40
DOCKED: ATOM     40  O   UNL d   1     -10.730 -10.418  13.915 -0.10 -0.84    -0.776 OA
DOCKED: ATOM     41  H   UNL d   1     -10.669 -11.319  13.569 +0.01 +0.14    +0.167 HD
DOCKED: ENDBRANCH  38  40
DOCKED: ENDBRANCH  37  38
DOCKED: ENDBRANCH  36  37
DOCKED: ENDBRANCH  22  36
DOCKED: BRANCH  12  42
DOCKED: ATOM     42  C   UNL d   1       2.191  -9.714  10.608 -0.16 -0.00    +0.004 C 
DOCKED: ATOM     43  C   UNL d   1       2.861  -8.568  10.786 -0.21 -0.00    +0.012 C 
DOCKED: ENDBRANCH  12  42
DOCKED: BRANCH  17  44
DOCKED: ATOM     44  C   UNL d   1      -0.836  -7.787  17.737 -0.09 -0.00    +0.004 C 
DOCKED: ATOM     45  C   UNL d   1      -1.171  -6.523  18.017 -0.10 -0.00    +0.012 C 
DOCKED: ENDBRANCH  17  44
DOCKED: TORSDOF 10
DOCKED: TER
DOCKED: ENDMDL
________________________________________________________________________________


	BEGINNING GENETIC ALGORITHM DOCKING 32 of 100
Run: 32 Seed: 1485383368 922096099 [ Run 32 of 100 GA/GALS ]
Beginning LAMARCKIAN GENETIC ALGORITHM (LGA), with a maximum of 25000000 energy evaluations.

Final-Value: -9.808


	FINAL GENETIC ALGORITHM DOCKED STATE
	_______________________________________________


Detailed state:  trans -16.354 -0.135 0.328 quatxyzw 0.295670 0.454796 -0.443803 -0.713287 center -0.174 -0.001 -0.047 ntor 10 -85.1270 -164.0317 -124.0201 46.1211 -46.0080 68.4728 94.6406 57.7556 -1.6199 -3.5184
State:	-16.354  -0.135   0.328   0.422  0.649 -0.633 -88.994    -85.13 -164.03 -124.02   46.12  -46.01   68.47   94.64   57.76   -1.62   -3.52

DOCKED: MODEL       32
DOCKED: USER    Run = 32
DOCKED: USER    DPF = D:/Protein_go_brrr/autodock/final/mut_Y35F/heme_Fe/dock.dpf
DOCKED: USER  
DOCKED: USER    Estimated Free Energy of Binding    =   -6.11 kcal/mol  [=(1)+(2)+(3)-(4)]
DOCKED: USER    Estimated Inhibition Constant, Ki   =   33.37 uM (micromolar)  [Temperature = 298.15 K]
DOCKED: USER    
DOCKED: USER    (1) Final Intermolecular Energy     =   -9.09 kcal/mol
DOCKED: USER        vdW + Hbond + desolv Energy     =   -7.79 kcal/mol
DOCKED: USER        Electrostatic Energy            =   -1.30 kcal/mol
DOCKED: USER    (2) Final Total Internal Energy     =   -0.72 kcal/mol
DOCKED: USER    (3) Torsional Free Energy           =   +2.98 kcal/mol
DOCKED: USER    (4) Unbound System's Energy  [=(2)] =   -0.72 kcal/mol
DOCKED: USER    
DOCKED: USER    
DOCKED: USER    NEWDPF move heme_Fe_opt.pdbqt
DOCKED: USER    NEWDPF about -0.174000 -0.001000 -0.047000
DOCKED: USER    NEWDPF tran0 -16.353869 -0.134605 0.327551
DOCKED: USER    NEWDPF quaternion0 0.295670 0.454796 -0.443803 -0.713287
DOCKED: USER    NEWDPF axisangle0 0.421861 0.648900 -0.633216 -88.993991
DOCKED: USER    NEWDPF quat0 0.421861 0.648900 -0.633216 -88.993991
DOCKED: USER    NEWDPF dihe0 -85.13 -164.03 -124.02 46.12 -46.01 68.47 94.64 57.76 -1.62 -3.52 
DOCKED: USER  keepresnum = 1 
DOCKED: USER  
DOCKED: REMARK  10 active torsions:
DOCKED: REMARK  status: ('A' for Active; 'I' for Inactive)
DOCKED: REMARK    1  A    between atoms: C_6  and  C_10 
DOCKED: REMARK    2  A    between atoms: C_10  and  C_11 
DOCKED: REMARK    3  A    between atoms: C_11  and  C_12 
DOCKED: REMARK    4  A    between atoms: C_12  and  O_14 
DOCKED: REMARK    5  A    between atoms: C_17  and  C_20 
DOCKED: REMARK    6  A    between atoms: C_24  and  C_27 
DOCKED: REMARK    7  A    between atoms: C_31  and  C_34 
DOCKED: REMARK    8  A    between atoms: C_34  and  C_35 
DOCKED: REMARK    9  A    between atoms: C_35  and  C_36 
DOCKED: REMARK   10  A    between atoms: C_36  and  O_38 
DOCKED: USER                              x       y       z     vdW  Elec       q    Type
DOCKED: USER                           _______ _______ _______ _____ _____    ______ ____
DOCKED: ROOT
DOCKED: ATOM      1  C   UNL d   1     -16.583   0.122   2.351 -0.26 +0.02    +0.064 C 
DOCKED: ATOM      2  C   UNL d   1     -18.954  -2.481  -1.117 -0.06 +0.03    +0.064 A 
DOCKED: ATOM      3  C   UNL d   1     -15.237  -1.791  -4.080 -0.19 +0.01    +0.064 C 
DOCKED: ATOM      4  C   UNL d   1     -12.971   0.821  -0.774 -0.27 +0.01    +0.064 C 
DOCKED: ATOM      5  C   UNL d   1     -17.631  -0.604   1.621 -0.19 +0.02    +0.066 A 
DOCKED: ATOM      6  C   UNL d   1     -18.892  -0.887   2.120 -0.16 -0.01    -0.021 A 
DOCKED: ATOM      7  C   UNL d   1     -19.548  -1.613   1.158 -0.10 -0.01    -0.025 A 
DOCKED: ATOM      8  C   UNL d   1     -18.662  -1.746   0.106 -0.11 +0.03    +0.066 A 
DOCKED: ATOM      9  C   UNL d   1     -20.952  -2.128   1.245 -0.05 +0.01    +0.051 C 
DOCKED: ATOM     10  C   UNL d   1     -18.140  -2.576  -2.170 -0.03 +0.03    +0.066 A 
DOCKED: ATOM     11  C   UNL d   1     -18.399  -3.382  -3.280 -0.08 -0.01    -0.021 A 
DOCKED: ATOM     12  C   UNL d   1     -17.334  -3.214  -4.142 -0.10 +0.00    +0.000 A 
DOCKED: ATOM     13  C   UNL d   1     -16.467  -2.311  -3.503 -0.13 +0.02    +0.070 A 
DOCKED: ATOM     14  C   UNL d   1     -19.572  -4.321  -3.481 -0.05 +0.01    +0.052 C 
DOCKED: ATOM     15  C   UNL d   1     -14.374  -0.962  -3.447 -0.22 +0.01    +0.066 A 
DOCKED: ATOM     16  C   UNL d   1     -13.261  -0.408  -4.068 -0.25 -0.00    -0.021 A 
DOCKED: ATOM     17  C   UNL d   1     -12.604   0.343  -3.115 -0.32 +0.00    +0.000 A 
DOCKED: ATOM     18  C   UNL d   1     -13.330   0.226  -1.932 -0.28 +0.01    +0.070 A 
DOCKED: ATOM     19  C   UNL d   1     -12.817  -0.596  -5.494 -0.20 +0.00    +0.052 C 
DOCKED: ATOM     20  C   UNL d   1     -13.742   0.770   0.473 -0.27 +0.01    +0.066 A 
DOCKED: ATOM     21  C   UNL d   1     -13.288   1.210   1.725 -0.37 -0.00    -0.025 A 
DOCKED: ATOM     22  C   UNL d   1     -14.337   1.013   2.598 -0.33 -0.00    -0.021 A 
DOCKED: ATOM     23  C   UNL d   1     -15.383   0.459   1.850 -0.22 +0.02    +0.066 A 
DOCKED: ATOM     24  C   UNL d   1     -11.938   1.782   2.091 +0.05 +0.00    +0.051 C 
DOCKED: ATOM     25  N   UNL d   1     -17.500  -1.122   0.387 -0.11 -0.10    -0.248 N 
DOCKED: ATOM     26  N   UNL d   1     -16.953  -1.929  -2.296 -0.07 -0.09    -0.248 N 
DOCKED: ATOM     27  N   UNL d   1     -14.442  -0.541  -2.146 -0.17 -0.04    -0.248 N 
DOCKED: ATOM     28  N   UNL d   1     -14.999   0.271   0.564 -0.14 -0.05    -0.248 N 
DOCKED: ATOM     29 FE   UNL d   1     -15.974  -0.828  -0.866 -0.05 +0.00    +0.000 Fe
DOCKED: ENDROOT
DOCKED: BRANCH   6  30
DOCKED: ATOM     30  C   UNL d   1     -19.454  -0.471   3.436 -0.16 +0.01    +0.052 C 
DOCKED: BRANCH  30  31
DOCKED: ATOM     31  C   UNL d   1     -20.109   0.902   3.335 -0.09 +0.01    +0.115 C 
DOCKED: BRANCH  31  32
DOCKED: ATOM     32  C   UNL d   1     -19.086   1.988   3.518 -0.08 +0.02    +0.139 C 
DOCKED: ATOM     33  O   UNL d   1     -18.269   1.929   4.427 +0.02 -0.12    -0.650 OA
DOCKED: BRANCH  32  34
DOCKED: ATOM     34  O   UNL d   1     -19.060   3.039   2.681 +0.03 -0.09    -0.776 OA
DOCKED: ATOM     35  H   UNL d   1     -19.526   3.849   2.930 +0.01 +0.02    +0.167 HD
DOCKED: ENDBRANCH  32  34
DOCKED: ENDBRANCH  31  32
DOCKED: ENDBRANCH  30  31
DOCKED: ENDBRANCH   6  30
DOCKED: BRANCH  22  36
DOCKED: ATOM     36  C   UNL d   1     -14.317   1.297   4.077 -0.38 +0.01    +0.052 C 
DOCKED: BRANCH  36  37
DOCKED: ATOM     37  C   UNL d   1     -14.853   2.697   4.338 -0.17 +0.03    +0.115 C 
DOCKED: BRANCH  37  38
DOCKED: ATOM     38  C   UNL d   1     -13.848   3.529   5.083 -0.17 +0.08    +0.139 C 
DOCKED: ATOM     39  O   UNL d   1     -12.807   3.879   4.548 -0.54 -0.42    -0.650 OA
DOCKED: BRANCH  38  40
DOCKED: ATOM     40  O   UNL d   1     -14.088   3.892   6.356 -0.23 -1.01    -0.776 OA
DOCKED: ATOM     41  H   UNL d   1     -14.782   3.436   6.852 -0.52 +0.24    +0.167 HD
DOCKED: ENDBRANCH  38  40
DOCKED: ENDBRANCH  37  38
DOCKED: ENDBRANCH  36  37
DOCKED: ENDBRANCH  22  36
DOCKED: BRANCH  12  42
DOCKED: ATOM     42  C   UNL d   1     -17.185  -3.899  -5.463 -0.09 +0.00    +0.004 C 
DOCKED: ATOM     43  C   UNL d   1     -16.820  -5.186  -5.535 -0.10 +0.00    +0.012 C 
DOCKED: ENDBRANCH  12  42
DOCKED: BRANCH  17  44
DOCKED: ATOM     44  C   UNL d   1     -11.373   1.137  -3.329 -0.35 -0.00    +0.004 C 
DOCKED: ATOM     45  C   UNL d   1     -11.435   2.460  -3.514 -0.22 +0.00    +0.012 C 
DOCKED: ENDBRANCH  17  44
DOCKED: TORSDOF 10
DOCKED: TER
DOCKED: ENDMDL
________________________________________________________________________________


	BEGINNING GENETIC ALGORITHM DOCKING 33 of 100
Run: 33 Seed: 33793441 487375144 [ Run 33 of 100 GA/GALS ]
Beginning LAMARCKIAN GENETIC ALGORITHM (LGA), with a maximum of 25000000 energy evaluations.

Final-Value: -11.161


	FINAL GENETIC ALGORITHM DOCKED STATE
	_______________________________________________


Detailed state:  trans -10.236 5.407 17.178 quatxyzw -0.879122 0.308198 -0.315973 0.179779 center -0.174 -0.001 -0.047 ntor 10 114.2149 160.7091 -151.9259 -165.7277 88.3121 -81.0246 38.1701 -49.2969 -28.3271 122.8222
State:	-10.236   5.407  17.178  -0.894  0.313 -0.321 159.286    114.21  160.71 -151.93 -165.73   88.31  -81.02   38.17  -49.30  -28.33  122.82

DOCKED: MODEL       33
DOCKED: USER    Run = 33
DOCKED: USER    DPF = D:/Protein_go_brrr/autodock/final/mut_Y35F/heme_Fe/dock.dpf
DOCKED: USER  
DOCKED: USER    Estimated Free Energy of Binding    =   -7.75 kcal/mol  [=(1)+(2)+(3)-(4)]
DOCKED: USER    Estimated Inhibition Constant, Ki   =    2.09 uM (micromolar)  [Temperature = 298.15 K]
DOCKED: USER    
DOCKED: USER    (1) Final Intermolecular Energy     =  -10.73 kcal/mol
DOCKED: USER        vdW + Hbond + desolv Energy     =   -6.65 kcal/mol
DOCKED: USER        Electrostatic Energy            =   -4.08 kcal/mol
DOCKED: USER    (2) Final Total Internal Energy     =   -0.43 kcal/mol
DOCKED: USER    (3) Torsional Free Energy           =   +2.98 kcal/mol
DOCKED: USER    (4) Unbound System's Energy  [=(2)] =   -0.43 kcal/mol
DOCKED: USER    
DOCKED: USER    
DOCKED: USER    NEWDPF move heme_Fe_opt.pdbqt
DOCKED: USER    NEWDPF about -0.174000 -0.001000 -0.047000
DOCKED: USER    NEWDPF tran0 -10.235757 5.407247 17.178169
DOCKED: USER    NEWDPF quaternion0 -0.879122 0.308198 -0.315973 0.179779
DOCKED: USER    NEWDPF axisangle0 -0.893682 0.313302 -0.321206 159.286236
DOCKED: USER    NEWDPF quat0 -0.893682 0.313302 -0.321206 159.286236
DOCKED: USER    NEWDPF dihe0 114.21 160.71 -151.93 -165.73 88.31 -81.02 38.17 -49.30 -28.33 122.82 
DOCKED: USER  keepresnum = 1 
DOCKED: USER  
DOCKED: REMARK  10 active torsions:
DOCKED: REMARK  status: ('A' for Active; 'I' for Inactive)
DOCKED: REMARK    1  A    between atoms: C_6  and  C_10 
DOCKED: REMARK    2  A    between atoms: C_10  and  C_11 
DOCKED: REMARK    3  A    between atoms: C_11  and  C_12 
DOCKED: REMARK    4  A    between atoms: C_12  and  O_14 
DOCKED: REMARK    5  A    between atoms: C_17  and  C_20 
DOCKED: REMARK    6  A    between atoms: C_24  and  C_27 
DOCKED: REMARK    7  A    between atoms: C_31  and  C_34 
DOCKED: REMARK    8  A    between atoms: C_34  and  C_35 
DOCKED: REMARK    9  A    between atoms: C_35  and  C_36 
DOCKED: REMARK   10  A    between atoms: C_36  and  O_38 
DOCKED: USER                              x       y       z     vdW  Elec       q    Type
DOCKED: USER                           _______ _______ _______ _____ _____    ______ ____
DOCKED: ROOT
DOCKED: ATOM      1  C   UNL d   1     -11.170   6.028  15.460 -0.21 +0.02    +0.064 C 
DOCKED: ATOM      2  C   UNL d   1      -6.847   7.041  17.632 -0.17 +0.01    +0.064 A 
DOCKED: ATOM      3  C   UNL d   1      -7.432   3.186  20.436 -0.09 +0.01    +0.064 C 
DOCKED: ATOM      4  C   UNL d   1     -11.667   2.247  18.419 -0.13 +0.00    +0.064 C 
DOCKED: ATOM      5  C   UNL d   1      -9.939   6.718  15.868 -0.20 +0.02    +0.066 A 
DOCKED: ATOM      6  C   UNL d   1      -9.504   7.929  15.355 -0.24 -0.01    -0.021 A 
DOCKED: ATOM      7  C   UNL d   1      -8.301   8.208  15.957 -0.25 -0.00    -0.025 A 
DOCKED: ATOM      8  C   UNL d   1      -8.049   7.156  16.815 -0.20 +0.01    +0.066 A 
DOCKED: ATOM      9  C   UNL d   1      -7.462   9.427  15.728 -0.27 +0.01    +0.051 C 
DOCKED: ATOM     10  C   UNL d   1      -6.606   6.066  18.510 -0.12 +0.01    +0.066 A 
DOCKED: ATOM     11  C   UNL d   1      -5.396   5.922  19.195 -0.12 -0.00    -0.021 A 
DOCKED: ATOM     12  C   UNL d   1      -5.533   4.807  19.997 -0.09 +0.00    +0.000 A 
DOCKED: ATOM     13  C   UNL d   1      -6.829   4.319  19.753 -0.11 +0.01    +0.070 A 
DOCKED: ATOM     14  C   UNL d   1      -4.147   6.764  19.040 -0.13 -0.00    +0.052 C 
DOCKED: ATOM     15  C   UNL d   1      -8.659   2.681  20.167 -0.07 +0.01    +0.066 A 
DOCKED: ATOM     16  C   UNL d   1      -9.239   1.661  20.910 -0.07 -0.00    -0.021 A 
DOCKED: ATOM     17  C   UNL d   1     -10.459   1.386  20.328 -0.08 +0.00    +0.000 A 
DOCKED: ATOM     18  C   UNL d   1     -10.593   2.244  19.239 -0.09 +0.00    +0.070 A 
DOCKED: ATOM     19  C   UNL d   1      -8.660   0.952  22.105 -0.02 +0.00    +0.052 C 
DOCKED: ATOM     20  C   UNL d   1     -11.870   3.177  17.301 -0.13 +0.00    +0.066 A 
DOCKED: ATOM     21  C   UNL d   1     -12.872   3.065  16.327 -0.16 -0.00    -0.025 A 
DOCKED: ATOM     22  C   UNL d   1     -12.720   4.159  15.502 -0.15 -0.01    -0.021 A 
DOCKED: ATOM     23  C   UNL d   1     -11.633   4.889  15.998 -0.16 +0.01    +0.066 A 
DOCKED: ATOM     24  C   UNL d   1     -13.920   1.987  16.171 -0.17 +0.00    +0.051 C 
DOCKED: ATOM     25  N   UNL d   1      -9.051   6.256  16.766 -0.16 -0.04    -0.248 N 
DOCKED: ATOM     26  N   UNL d   1      -7.480   5.081  18.840 -0.11 -0.03    -0.248 N 
DOCKED: ATOM     27  N   UNL d   1      -9.507   3.071  19.165 -0.05 -0.01    -0.248 N 
DOCKED: ATOM     28  N   UNL d   1     -11.090   4.260  17.069 -0.10 -0.01    -0.248 N 
DOCKED: ATOM     29 FE   UNL d   1      -9.286   4.669  17.955 -0.04 +0.00    +0.000 Fe
DOCKED: ENDROOT
DOCKED: BRANCH   6  30
DOCKED: ATOM     30  C   UNL d   1     -10.203   8.791  14.360 -0.13 +0.03    +0.052 C 
DOCKED: BRANCH  30  31
DOCKED: ATOM     31  C   UNL d   1     -11.557   9.245  14.896 -0.19 +0.07    +0.115 C 
DOCKED: BRANCH  31  32
DOCKED: ATOM     32  C   UNL d   1     -12.582   9.255  13.796 -0.02 +0.19    +0.139 C 
DOCKED: ATOM     33  O   UNL d   1     -13.231   8.251  13.541 -0.37 -1.04    -0.650 OA
DOCKED: BRANCH  32  34
DOCKED: ATOM     34  O   UNL d   1     -12.793  10.373  13.081 -0.64 -1.27    -0.776 OA
DOCKED: ATOM     35  H   UNL d   1     -13.165  11.149  13.522 +0.02 +0.14    +0.167 HD
DOCKED: ENDBRANCH  32  34
DOCKED: ENDBRANCH  31  32
DOCKED: ENDBRANCH  30  31
DOCKED: ENDBRANCH   6  30
DOCKED: BRANCH  22  36
DOCKED: ATOM     36  C   UNL d   1     -13.543   4.459  14.277 -0.17 +0.03    +0.052 C 
DOCKED: BRANCH  36  37
DOCKED: ATOM     37  C   UNL d   1     -12.646   5.003  13.175 -0.15 +0.11    +0.115 C 
DOCKED: BRANCH  37  38
DOCKED: ATOM     38  C   UNL d   1     -12.872   4.269  11.884 -0.15 +0.22    +0.139 C 
DOCKED: ATOM     39  O   UNL d   1     -12.344   3.187  11.679 -0.42 -1.11    -0.650 OA
DOCKED: BRANCH  38  40
DOCKED: ATOM     40  O   UNL d   1     -13.661   4.806  10.936 -0.33 -1.70    -0.776 OA
DOCKED: ATOM     41  H   UNL d   1     -14.292   5.496  11.185 +0.03 +0.25    +0.167 HD
DOCKED: ENDBRANCH  38  40
DOCKED: ENDBRANCH  37  38
DOCKED: ENDBRANCH  36  37
DOCKED: ENDBRANCH  22  36
DOCKED: BRANCH  12  42
DOCKED: ATOM     42  C   UNL d   1      -4.472   4.269  20.904 -0.05 -0.00    +0.004 C 
DOCKED: ATOM     43  C   UNL d   1      -3.774   3.175  20.574 -0.06 -0.00    +0.012 C 
DOCKED: ENDBRANCH  12  42
DOCKED: BRANCH  17  44
DOCKED: ATOM     44  C   UNL d   1     -11.441   0.382  20.795 -0.04 +0.00    +0.004 C 
DOCKED: ATOM     45  C   UNL d   1     -11.698  -0.713  20.073 -0.06 +0.00    +0.012 C 
DOCKED: ENDBRANCH  17  44
DOCKED: TORSDOF 10
DOCKED: TER
DOCKED: ENDMDL
________________________________________________________________________________


	BEGINNING GENETIC ALGORITHM DOCKING 34 of 100
Run: 34 Seed: 1047038956 327741411 [ Run 34 of 100 GA/GALS ]
Beginning LAMARCKIAN GENETIC ALGORITHM (LGA), with a maximum of 25000000 energy evaluations.

Final-Value: -9.050


	FINAL GENETIC ALGORITHM DOCKED STATE
	_______________________________________________


Detailed state:  trans 1.167 19.519 2.114 quatxyzw -0.026173 -0.819587 -0.529916 -0.216288 center -0.174 -0.001 -0.047 ntor 10 140.1119 165.8858 38.6720 58.5102 -121.8894 142.5514 41.1899 99.2895 -21.7932 -180.0000
State:	  1.167  19.519   2.114  -0.027 -0.839 -0.543 -155.018    140.11  165.89   38.67   58.51 -121.89  142.55   41.19   99.29  -21.79 -180.00

DOCKED: MODEL       34
DOCKED: USER    Run = 34
DOCKED: USER    DPF = D:/Protein_go_brrr/autodock/final/mut_Y35F/heme_Fe/dock.dpf
DOCKED: USER  
DOCKED: USER    Estimated Free Energy of Binding    =   -4.23 kcal/mol  [=(1)+(2)+(3)-(4)]
DOCKED: USER    Estimated Inhibition Constant, Ki   =  789.60 uM (micromolar)  [Temperature = 298.15 K]
DOCKED: USER    
DOCKED: USER    (1) Final Intermolecular Energy     =   -7.22 kcal/mol
DOCKED: USER        vdW + Hbond + desolv Energy     =   -7.04 kcal/mol
DOCKED: USER        Electrostatic Energy            =   -0.17 kcal/mol
DOCKED: USER    (2) Final Total Internal Energy     =   -1.83 kcal/mol
DOCKED: USER    (3) Torsional Free Energy           =   +2.98 kcal/mol
DOCKED: USER    (4) Unbound System's Energy  [=(2)] =   -1.83 kcal/mol
DOCKED: USER    
DOCKED: USER    
DOCKED: USER    NEWDPF move heme_Fe_opt.pdbqt
DOCKED: USER    NEWDPF about -0.174000 -0.001000 -0.047000
DOCKED: USER    NEWDPF tran0 1.167051 19.518527 2.114381
DOCKED: USER    NEWDPF quaternion0 -0.026173 -0.819587 -0.529916 -0.216288
DOCKED: USER    NEWDPF axisangle0 -0.026808 -0.839458 -0.542763 -155.017806
DOCKED: USER    NEWDPF quat0 -0.026808 -0.839458 -0.542763 -155.017806
DOCKED: USER    NEWDPF dihe0 140.11 165.89 38.67 58.51 -121.89 142.55 41.19 99.29 -21.79 -180.00 
DOCKED: USER  keepresnum = 1 
DOCKED: USER  
DOCKED: REMARK  10 active torsions:
DOCKED: REMARK  status: ('A' for Active; 'I' for Inactive)
DOCKED: REMARK    1  A    between atoms: C_6  and  C_10 
DOCKED: REMARK    2  A    between atoms: C_10  and  C_11 
DOCKED: REMARK    3  A    between atoms: C_11  and  C_12 
DOCKED: REMARK    4  A    between atoms: C_12  and  O_14 
DOCKED: REMARK    5  A    between atoms: C_17  and  C_20 
DOCKED: REMARK    6  A    between atoms: C_24  and  C_27 
DOCKED: REMARK    7  A    between atoms: C_31  and  C_34 
DOCKED: REMARK    8  A    between atoms: C_34  and  C_35 
DOCKED: REMARK    9  A    between atoms: C_35  and  C_36 
DOCKED: REMARK   10  A    between atoms: C_36  and  O_38 
DOCKED: USER                              x       y       z     vdW  Elec       q    Type
DOCKED: USER                           _______ _______ _______ _____ _____    ______ ____
DOCKED: ROOT
DOCKED: ATOM      1  C   UNL d   1       2.770  20.330   1.123 -0.15 -0.01    +0.064 C 
DOCKED: ATOM      2  C   UNL d   1      -1.377  18.026  -0.265 -0.22 -0.03    +0.064 A 
DOCKED: ATOM      3  C   UNL d   1      -3.145  18.698   4.150 -0.14 -0.02    +0.064 C 
DOCKED: ATOM      4  C   UNL d   1       0.900  20.837   5.544 -0.20 -0.01    +0.064 C 
DOCKED: ATOM      5  C   UNL d   1       1.800  19.545   0.347 -0.13 -0.01    +0.066 A 
DOCKED: ATOM      6  C   UNL d   1       2.014  19.068  -0.935 -0.18 -0.00    -0.021 A 
DOCKED: ATOM      7  C   UNL d   1       0.860  18.431  -1.321 -0.22 +0.00    -0.025 A 
DOCKED: ATOM      8  C   UNL d   1      -0.014  18.544  -0.258 -0.18 -0.02    +0.066 A 
DOCKED: ATOM      9  C   UNL d   1       0.629  17.740  -2.630 -0.14 -0.01    +0.051 C 
DOCKED: ATOM     10  C   UNL d   1      -2.221  18.071   0.768 -0.22 -0.02    +0.066 A 
DOCKED: ATOM     11  C   UNL d   1      -3.557  17.669   0.694 -0.22 +0.01    -0.021 A 
DOCKED: ATOM     12  C   UNL d   1      -4.094  17.869   1.951 -0.25 -0.00    +0.000 A 
DOCKED: ATOM     13  C   UNL d   1      -3.049  18.395   2.731 -0.19 -0.02    +0.070 A 
DOCKED: ATOM     14  C   UNL d   1      -4.304  17.183  -0.531 -0.22 -0.03    +0.052 C 
DOCKED: ATOM     15  C   UNL d   1      -2.159  19.253   4.893 -0.21 -0.02    +0.066 A 
DOCKED: ATOM     16  C   UNL d   1      -2.255  19.434   6.267 -0.27 +0.01    -0.021 A 
DOCKED: ATOM     17  C   UNL d   1      -1.090  20.054   6.671 -0.21 -0.00    +0.000 A 
DOCKED: ATOM     18  C   UNL d   1      -0.312  20.241   5.531 -0.19 -0.02    +0.070 A 
DOCKED: ATOM     19  C   UNL d   1      -3.405  19.063   7.164 -0.34 -0.02    +0.052 C 
DOCKED: ATOM     20  C   UNL d   1       1.774  20.996   4.375 -0.14 -0.01    +0.066 A 
DOCKED: ATOM     21  C   UNL d   1       2.934  21.782   4.332 -0.14 +0.01    -0.025 A 
DOCKED: ATOM     22  C   UNL d   1       3.457  21.613   3.067 -0.15 +0.00    -0.021 A 
DOCKED: ATOM     23  C   UNL d   1       2.598  20.740   2.390 -0.14 -0.01    +0.066 A 
DOCKED: ATOM     24  C   UNL d   1       3.524  22.654   5.416 -0.14 -0.01    +0.051 C 
DOCKED: ATOM     25  N   UNL d   1       0.563  19.214   0.759 -0.08 +0.04    -0.248 N 
DOCKED: ATOM     26  N   UNL d   1      -1.910  18.527   2.008 -0.12 +0.06    -0.248 N 
DOCKED: ATOM     27  N   UNL d   1      -0.949  19.709   4.444 -0.10 +0.05    -0.248 N 
DOCKED: ATOM     28  N   UNL d   1       1.548  20.402   3.178 -0.13 +0.03    -0.248 N 
DOCKED: ATOM     29 FE   UNL d   1      -0.180  19.465   2.595 -0.04 -0.00    +0.000 Fe
DOCKED: ENDROOT
DOCKED: BRANCH   6  30
DOCKED: ATOM     30  C   UNL d   1       3.258  19.190  -1.747 -0.19 +0.02    +0.052 C 
DOCKED: BRANCH  30  31
DOCKED: ATOM     31  C   UNL d   1       4.386  18.367  -1.134 -0.27 +0.04    +0.115 C 
DOCKED: BRANCH  31  32
DOCKED: ATOM     32  C   UNL d   1       5.683  19.125  -1.194 -0.20 +0.03    +0.139 C 
DOCKED: ATOM     33  O   UNL d   1       6.654  18.656  -1.770 -0.04 -0.21    -0.650 OA
DOCKED: BRANCH  32  34
DOCKED: ATOM     34  O   UNL d   1       5.786  20.332  -0.611 +0.08 -0.04    -0.776 OA
DOCKED: ATOM     35  H   UNL d   1       5.044  20.950  -0.675 +0.03 +0.01    +0.167 HD
DOCKED: ENDBRANCH  32  34
DOCKED: ENDBRANCH  31  32
DOCKED: ENDBRANCH  30  31
DOCKED: ENDBRANCH   6  30
DOCKED: BRANCH  22  36
DOCKED: ATOM     36  C   UNL d   1       4.688  22.292   2.526 -0.12 -0.00    +0.052 C 
DOCKED: BRANCH  36  37
DOCKED: ATOM     37  C   UNL d   1       4.328  23.682   2.022 -0.03 -0.01    +0.115 C 
DOCKED: BRANCH  37  38
DOCKED: ATOM     38  C   UNL d   1       3.740  23.619   0.641 -0.01 -0.01    +0.139 C 
DOCKED: ATOM     39  O   UNL d   1       2.824  24.360   0.316 +0.01 +0.04    -0.650 OA
DOCKED: BRANCH  38  40
DOCKED: ATOM     40  O   UNL d   1       4.220  22.736  -0.253 +0.03 +0.02    -0.776 OA
DOCKED: ATOM     41  H   UNL d   1       5.065  22.299  -0.076 +0.02 -0.00    +0.167 HD
DOCKED: ENDBRANCH  38  40
DOCKED: ENDBRANCH  37  38
DOCKED: ENDBRANCH  36  37
DOCKED: ENDBRANCH  22  36
DOCKED: BRANCH  12  42
DOCKED: ATOM     42  C   UNL d   1      -5.511  17.582   2.331 -0.32 -0.00    +0.004 C 
DOCKED: ATOM     43  C   UNL d   1      -5.883  16.361   2.737 -0.41 -0.00    +0.012 C 
DOCKED: ENDBRANCH  12  42
DOCKED: BRANCH  17  44
DOCKED: ATOM     44  C   UNL d   1      -0.737  20.425   8.060 -0.22 -0.00    +0.004 C 
DOCKED: ATOM     45  C   UNL d   1       0.264  19.811   8.699 -0.36 -0.01    +0.012 C 
DOCKED: ENDBRANCH  17  44
DOCKED: TORSDOF 10
DOCKED: TER
DOCKED: ENDMDL
________________________________________________________________________________


	BEGINNING GENETIC ALGORITHM DOCKING 35 of 100
Run: 35 Seed: 921479603 681971841 [ Run 35 of 100 GA/GALS ]
Beginning LAMARCKIAN GENETIC ALGORITHM (LGA), with a maximum of 25000000 energy evaluations.

Final-Value: -15.347


	FINAL GENETIC ALGORITHM DOCKED STATE
	_______________________________________________


Detailed state:  trans 6.815 5.809 5.259 quatxyzw -0.330538 0.346004 0.868580 -0.128820 center -0.174 -0.001 -0.047 ntor 10 146.5250 -9.1067 53.1674 -150.4895 152.5419 -165.8151 83.5514 -4.6522 -18.5600 164.7938
State:	  6.815   5.809   5.259  -0.333  0.349  0.876 -165.197    146.52   -9.11   53.17 -150.49  152.54 -165.82   83.55   -4.65  -18.56  164.79

DOCKED: MODEL       35
DOCKED: USER    Run = 35
DOCKED: USER    DPF = D:/Protein_go_brrr/autodock/final/mut_Y35F/heme_Fe/dock.dpf
DOCKED: USER  
DOCKED: USER    Estimated Free Energy of Binding    =  -11.89 kcal/mol  [=(1)+(2)+(3)-(4)]
DOCKED: USER    Estimated Inhibition Constant, Ki   =    1.93 nM (nanomolar)  [Temperature = 298.15 K]
DOCKED: USER    
DOCKED: USER    (1) Final Intermolecular Energy     =  -14.87 kcal/mol
DOCKED: USER        vdW + Hbond + desolv Energy     =  -12.14 kcal/mol
DOCKED: USER        Electrostatic Energy            =   -2.73 kcal/mol
DOCKED: USER    (2) Final Total Internal Energy     =   -0.48 kcal/mol
DOCKED: USER    (3) Torsional Free Energy           =   +2.98 kcal/mol
DOCKED: USER    (4) Unbound System's Energy  [=(2)] =   -0.48 kcal/mol
DOCKED: USER    
DOCKED: USER    
DOCKED: USER    NEWDPF move heme_Fe_opt.pdbqt
DOCKED: USER    NEWDPF about -0.174000 -0.001000 -0.047000
DOCKED: USER    NEWDPF tran0 6.814764 5.809109 5.258902
DOCKED: USER    NEWDPF quaternion0 -0.330538 0.346004 0.868580 -0.128820
DOCKED: USER    NEWDPF axisangle0 -0.333315 0.348911 0.875878 -165.197183
DOCKED: USER    NEWDPF quat0 -0.333315 0.348911 0.875878 -165.197183
DOCKED: USER    NEWDPF dihe0 146.52 -9.11 53.17 -150.49 152.54 -165.82 83.55 -4.65 -18.56 164.79 
DOCKED: USER  keepresnum = 1 
DOCKED: USER  
DOCKED: REMARK  10 active torsions:
DOCKED: REMARK  status: ('A' for Active; 'I' for Inactive)
DOCKED: REMARK    1  A    between atoms: C_6  and  C_10 
DOCKED: REMARK    2  A    between atoms: C_10  and  C_11 
DOCKED: REMARK    3  A    between atoms: C_11  and  C_12 
DOCKED: REMARK    4  A    between atoms: C_12  and  O_14 
DOCKED: REMARK    5  A    between atoms: C_17  and  C_20 
DOCKED: REMARK    6  A    between atoms: C_24  and  C_27 
DOCKED: REMARK    7  A    between atoms: C_31  and  C_34 
DOCKED: REMARK    8  A    between atoms: C_34  and  C_35 
DOCKED: REMARK    9  A    between atoms: C_35  and  C_36 
DOCKED: REMARK   10  A    between atoms: C_36  and  O_38 
DOCKED: USER                              x       y       z     vdW  Elec       q    Type
DOCKED: USER                           _______ _______ _______ _____ _____    ______ ____
DOCKED: ROOT
DOCKED: ATOM      1  C   UNL d   1       8.066   6.227   6.831 -0.27 +0.03    +0.064 C 
DOCKED: ATOM      2  C   UNL d   1       6.932   8.494   2.588 -0.43 +0.01    +0.064 A 
DOCKED: ATOM      3  C   UNL d   1       3.108   5.620   2.154 -0.41 +0.00    +0.064 C 
DOCKED: ATOM      4  C   UNL d   1       4.247   3.342   6.204 -0.47 +0.01    +0.064 C 
DOCKED: ATOM      5  C   UNL d   1       8.148   7.076   5.634 +0.04 +0.02    +0.066 A 
DOCKED: ATOM      6  C   UNL d   1       9.182   7.955   5.358 -0.25 -0.00    -0.021 A 
DOCKED: ATOM      7  C   UNL d   1       8.865   8.587   4.182 -0.36 -0.00    -0.025 A 
DOCKED: ATOM      8  C   UNL d   1       7.647   8.068   3.784 -0.39 +0.01    +0.066 A 
DOCKED: ATOM      9  C   UNL d   1       9.698   9.614   3.478 -0.44 -0.00    +0.051 C 
DOCKED: ATOM     10  C   UNL d   1       5.785   7.970   2.152 -0.41 +0.01    +0.066 A 
DOCKED: ATOM     11  C   UNL d   1       5.065   8.476   1.066 -0.47 -0.00    -0.021 A 
DOCKED: ATOM     12  C   UNL d   1       3.949   7.675   0.931 -0.49 +0.00    +0.000 A 
DOCKED: ATOM     13  C   UNL d   1       4.043   6.717   1.956 -0.38 +0.00    +0.070 A 
DOCKED: ATOM     14  C   UNL d   1       5.389   9.705   0.241 -0.50 +0.01    +0.052 C 
DOCKED: ATOM     15  C   UNL d   1       3.165   4.727   3.170 -0.38 +0.00    +0.066 A 
DOCKED: ATOM     16  C   UNL d   1       2.313   3.634   3.268 -0.36 -0.00    -0.021 A 
DOCKED: ATOM     17  C   UNL d   1       2.637   2.978   4.437 -0.34 +0.00    +0.000 A 
DOCKED: ATOM     18  C   UNL d   1       3.679   3.689   5.028 -0.36 +0.01    +0.070 A 
DOCKED: ATOM     19  C   UNL d   1       1.219   3.235   2.315 -0.28 +0.00    +0.052 C 
DOCKED: ATOM     20  C   UNL d   1       5.385   4.030   6.825 -0.38 +0.01    +0.066 A 
DOCKED: ATOM     21  C   UNL d   1       5.852   3.809   8.128 -0.24 -0.01    -0.025 A 
DOCKED: ATOM     22  C   UNL d   1       6.948   4.632   8.281 -0.29 -0.01    -0.021 A 
DOCKED: ATOM     23  C   UNL d   1       7.102   5.324   7.074 -0.34 +0.03    +0.066 A 
DOCKED: ATOM     24  C   UNL d   1       5.300   2.878   9.183 +0.28 +0.01    +0.051 C 
DOCKED: ATOM     25  N   UNL d   1       7.219   7.142   4.665 -0.18 -0.08    -0.248 N 
DOCKED: ATOM     26  N   UNL d   1       5.157   6.902   2.705 -0.24 -0.05    -0.248 N 
DOCKED: ATOM     27  N   UNL d   1       4.034   4.739   4.228 -0.24 -0.02    -0.248 N 
DOCKED: ATOM     28  N   UNL d   1       6.119   4.986   6.206 -0.24 -0.07    -0.248 N 
DOCKED: ATOM     29 FE   UNL d   1       5.637   5.943   4.457 -0.09 +0.00    +0.000 Fe
DOCKED: ENDROOT
DOCKED: BRANCH   6  30
DOCKED: ATOM     30  C   UNL d   1      10.421   8.170   6.159 -0.23 +0.01    +0.052 C 
DOCKED: BRANCH  30  31
DOCKED: ATOM     31  C   UNL d   1      11.350   6.966   6.051 -0.11 +0.05    +0.115 C 
DOCKED: BRANCH  31  32
DOCKED: ATOM     32  C   UNL d   1      11.154   6.044   7.223 -0.15 +0.15    +0.139 C 
DOCKED: ATOM     33  O   UNL d   1      11.383   4.847   7.119 -0.45 -0.97    -0.650 OA
DOCKED: BRANCH  32  34
DOCKED: ATOM     34  O   UNL d   1      10.723   6.530   8.399 -0.24 -1.04    -0.776 OA
DOCKED: ATOM     35  H   UNL d   1      10.990   7.422   8.665 +0.04 +0.13    +0.167 HD
DOCKED: ENDBRANCH  32  34
DOCKED: ENDBRANCH  31  32
DOCKED: ENDBRANCH  30  31
DOCKED: ENDBRANCH   6  30
DOCKED: BRANCH  22  36
DOCKED: ATOM     36  C   UNL d   1       7.770   4.779   9.535 +0.90 +0.07    +0.052 C 
DOCKED: BRANCH  36  37
DOCKED: ATOM     37  C   UNL d   1       7.318   6.013  10.303 +0.06 +0.08    +0.115 C 
DOCKED: BRANCH  37  38
DOCKED: ATOM     38  C   UNL d   1       8.027   6.114  11.624 -0.16 +0.10    +0.139 C 
DOCKED: ATOM     39  O   UNL d   1       7.627   6.878  12.491 +0.02 -0.27    -0.650 OA
DOCKED: BRANCH  38  40
DOCKED: ATOM     40  O   UNL d   1       9.116   5.362  11.861 -0.55 -1.12    -0.776 OA
DOCKED: ATOM     41  H   UNL d   1       9.642   5.533  12.655 +0.02 +0.15    +0.167 HD
DOCKED: ENDBRANCH  38  40
DOCKED: ENDBRANCH  37  38
DOCKED: ENDBRANCH  36  37
DOCKED: ENDBRANCH  22  36
DOCKED: BRANCH  12  42
DOCKED: ATOM     42  C   UNL d   1       2.885   7.857  -0.104 -0.59 +0.00    +0.004 C 
DOCKED: ATOM     43  C   UNL d   1       2.856   7.093  -1.204 -0.51 +0.00    +0.012 C 
DOCKED: ENDBRANCH  12  42
DOCKED: BRANCH  17  44
DOCKED: ATOM     44  C   UNL d   1       2.005   1.739   4.945 -0.56 -0.00    +0.004 C 
DOCKED: ATOM     45  C   UNL d   1       1.024   1.793   5.852 -0.68 -0.00    +0.012 C 
DOCKED: ENDBRANCH  17  44
DOCKED: TORSDOF 10
DOCKED: TER
DOCKED: ENDMDL
________________________________________________________________________________


	BEGINNING GENETIC ALGORITHM DOCKING 36 of 100
Run: 36 Seed: 648211291 901114250 [ Run 36 of 100 GA/GALS ]
Beginning LAMARCKIAN GENETIC ALGORITHM (LGA), with a maximum of 25000000 energy evaluations.

Final-Value: -12.335


	FINAL GENETIC ALGORITHM DOCKED STATE
	_______________________________________________


Detailed state:  trans 11.625 11.595 7.521 quatxyzw -0.603029 -0.437344 0.566337 -0.352631 center -0.174 -0.001 -0.047 ntor 10 72.5692 -113.3286 -177.9322 52.1986 155.3265 69.9935 -43.4361 -17.8716 -133.0367 -4.6499
State:	 11.625  11.595   7.521  -0.644 -0.467  0.605 -138.703     72.57 -113.33 -177.93   52.20  155.33   69.99  -43.44  -17.87 -133.04   -4.65

DOCKED: MODEL       36
DOCKED: USER    Run = 36
DOCKED: USER    DPF = D:/Protein_go_brrr/autodock/final/mut_Y35F/heme_Fe/dock.dpf
DOCKED: USER  
DOCKED: USER    Estimated Free Energy of Binding    =   -7.43 kcal/mol  [=(1)+(2)+(3)-(4)]
DOCKED: USER    Estimated Inhibition Constant, Ki   =    3.60 uM (micromolar)  [Temperature = 298.15 K]
DOCKED: USER    
DOCKED: USER    (1) Final Intermolecular Energy     =  -10.41 kcal/mol
DOCKED: USER        vdW + Hbond + desolv Energy     =   -7.20 kcal/mol
DOCKED: USER        Electrostatic Energy            =   -3.21 kcal/mol
DOCKED: USER    (2) Final Total Internal Energy     =   -1.93 kcal/mol
DOCKED: USER    (3) Torsional Free Energy           =   +2.98 kcal/mol
DOCKED: USER    (4) Unbound System's Energy  [=(2)] =   -1.93 kcal/mol
DOCKED: USER    
DOCKED: USER    
DOCKED: USER    NEWDPF move heme_Fe_opt.pdbqt
DOCKED: USER    NEWDPF about -0.174000 -0.001000 -0.047000
DOCKED: USER    NEWDPF tran0 11.625264 11.595046 7.520659
DOCKED: USER    NEWDPF quaternion0 -0.603029 -0.437344 0.566337 -0.352631
DOCKED: USER    NEWDPF axisangle0 -0.644425 -0.467367 0.605215 -138.703359
DOCKED: USER    NEWDPF quat0 -0.644425 -0.467367 0.605215 -138.703359
DOCKED: USER    NEWDPF dihe0 72.57 -113.33 -177.93 52.20 155.33 69.99 -43.44 -17.87 -133.04 -4.65 
DOCKED: USER  keepresnum = 1 
DOCKED: USER  
DOCKED: REMARK  10 active torsions:
DOCKED: REMARK  status: ('A' for Active; 'I' for Inactive)
DOCKED: REMARK    1  A    between atoms: C_6  and  C_10 
DOCKED: REMARK    2  A    between atoms: C_10  and  C_11 
DOCKED: REMARK    3  A    between atoms: C_11  and  C_12 
DOCKED: REMARK    4  A    between atoms: C_12  and  O_14 
DOCKED: REMARK    5  A    between atoms: C_17  and  C_20 
DOCKED: REMARK    6  A    between atoms: C_24  and  C_27 
DOCKED: REMARK    7  A    between atoms: C_31  and  C_34 
DOCKED: REMARK    8  A    between atoms: C_34  and  C_35 
DOCKED: REMARK    9  A    between atoms: C_35  and  C_36 
DOCKED: REMARK   10  A    between atoms: C_36  and  O_38 
DOCKED: USER                              x       y       z     vdW  Elec       q    Type
DOCKED: USER                           _______ _______ _______ _____ _____    ______ ____
DOCKED: ROOT
DOCKED: ATOM      1  C   UNL d   1      11.138   9.743   8.259 -0.16 +0.02    +0.064 C 
DOCKED: ATOM      2  C   UNL d   1      10.817  14.368   9.973 -0.23 +0.02    +0.064 A 
DOCKED: ATOM      3  C   UNL d   1      11.551  15.998   5.515 -0.15 -0.01    +0.064 C 
DOCKED: ATOM      4  C   UNL d   1      11.970  11.532   3.853 -0.25 -0.01    +0.064 C 
DOCKED: ATOM      5  C   UNL d   1      11.063  10.895   9.169 -0.17 +0.02    +0.066 A 
DOCKED: ATOM      6  C   UNL d   1      10.964  10.807  10.548 -0.16 -0.01    -0.021 A 
DOCKED: ATOM      7  C   UNL d   1      10.871  12.092  11.023 -0.20 -0.01    -0.025 A 
DOCKED: ATOM      8  C   UNL d   1      10.917  12.915   9.914 -0.23 +0.02    +0.066 A 
DOCKED: ATOM      9  C   UNL d   1      10.765  12.496  12.461 -0.17 +0.04    +0.051 C 
DOCKED: ATOM     10  C   UNL d   1      10.915  15.188   8.925 -0.24 +0.01    +0.066 A 
DOCKED: ATOM     11  C   UNL d   1      10.701  16.566   8.997 -0.22 -0.00    -0.021 A 
DOCKED: ATOM     12  C   UNL d   1      10.890  17.058   7.721 -0.17 -0.00    +0.000 A 
DOCKED: ATOM     13  C   UNL d   1      11.205  15.941   6.927 -0.18 -0.01    +0.070 A 
DOCKED: ATOM     14  C   UNL d   1      10.269  17.367  10.209 -0.22 +0.01    +0.052 C 
DOCKED: ATOM     15  C   UNL d   1      11.805  14.921   4.735 -0.11 -0.01    +0.066 A 
DOCKED: ATOM     16  C   UNL d   1      12.229  15.023   3.416 -0.11 +0.00    -0.021 A 
DOCKED: ATOM     17  C   UNL d   1      12.347  13.736   2.934 -0.22 -0.00    +0.000 A 
DOCKED: ATOM     18  C   UNL d   1      11.987  12.878   3.970 -0.17 -0.01    +0.070 A 
DOCKED: ATOM     19  C   UNL d   1      12.490  16.279   2.630 -0.10 -0.02    +0.052 C 
DOCKED: ATOM     20  C   UNL d   1      11.657  10.596   4.939 -0.17 +0.00    +0.066 A 
DOCKED: ATOM     21  C   UNL d   1      11.441   9.219   4.785 -0.22 -0.00    -0.025 A 
DOCKED: ATOM     22  C   UNL d   1      11.218   8.727   6.055 -0.16 -0.00    -0.021 A 
DOCKED: ATOM     23  C   UNL d   1      11.300   9.818   6.928 -0.12 +0.01    +0.066 A 
DOCKED: ATOM     24  C   UNL d   1      11.437   8.401   3.514 -0.43 +0.00    +0.051 C 
DOCKED: ATOM     25  N   UNL d   1      11.043  12.184   8.788 -0.09 -0.04    -0.248 N 
DOCKED: ATOM     26  N   UNL d   1      11.212  14.800   7.659 -0.13 +0.00    -0.248 N 
DOCKED: ATOM     27  N   UNL d   1      11.696  13.604   5.091 -0.05 +0.01    -0.248 N 
DOCKED: ATOM     28  N   UNL d   1      11.524  10.963   6.237 -0.04 -0.02    -0.248 N 
DOCKED: ATOM     29 FE   UNL d   1      11.368  12.881   6.946 -0.04 +0.00    +0.000 Fe
DOCKED: ENDROOT
DOCKED: BRANCH   6  30
DOCKED: ATOM     30  C   UNL d   1      10.979   9.569  11.376 -0.12 +0.02    +0.052 C 
DOCKED: BRANCH  30  31
DOCKED: ATOM     31  C   UNL d   1      10.101   8.490  10.751 -0.10 +0.06    +0.115 C 
DOCKED: BRANCH  31  32
DOCKED: ATOM     32  C   UNL d   1      10.792   7.155  10.800 -0.11 +0.12    +0.139 C 
DOCKED: ATOM     33  O   UNL d   1      10.145   6.118  10.784 -0.08 -1.20    -0.650 OA
DOCKED: BRANCH  32  34
DOCKED: ATOM     34  O   UNL d   1      12.133   7.092  10.863 +0.02 -0.52    -0.776 OA
DOCKED: ATOM     35  H   UNL d   1      12.626   6.806  10.081 +0.02 +0.12    +0.167 HD
DOCKED: ENDBRANCH  32  34
DOCKED: ENDBRANCH  31  32
DOCKED: ENDBRANCH  30  31
DOCKED: ENDBRANCH   6  30
DOCKED: BRANCH  22  36
DOCKED: ATOM     36  C   UNL d   1      10.895   7.297   6.400 -0.18 +0.02    +0.052 C 
DOCKED: BRANCH  36  37
DOCKED: ATOM     37  C   UNL d   1      12.179   6.543   6.715 -0.16 +0.06    +0.115 C 
DOCKED: BRANCH  37  38
DOCKED: ATOM     38  C   UNL d   1      11.890   5.286   7.485 -0.04 +0.18    +0.139 C 
DOCKED: ATOM     39  O   UNL d   1      11.332   4.339   6.950 -0.34 -0.97    -0.650 OA
DOCKED: BRANCH  38  40
DOCKED: ATOM     40  O   UNL d   1      12.243   5.195   8.779 +0.07 -1.42    -0.776 OA
DOCKED: ATOM     41  H   UNL d   1      11.804   5.763   9.428 +0.01 +0.31    +0.167 HD
DOCKED: ENDBRANCH  38  40
DOCKED: ENDBRANCH  37  38
DOCKED: ENDBRANCH  36  37
DOCKED: ENDBRANCH  22  36
DOCKED: BRANCH  12  42
DOCKED: ATOM     42  C   UNL d   1      10.752  18.494   7.327 -0.15 -0.00    +0.004 C 
DOCKED: ATOM     43  C   UNL d   1      10.008  18.851   6.272 -0.19 -0.00    +0.012 C 
DOCKED: ENDBRANCH  12  42
DOCKED: BRANCH  17  44
DOCKED: ATOM     44  C   UNL d   1      12.795  13.352   1.576 -0.42 -0.00    +0.004 C 
DOCKED: ATOM     45  C   UNL d   1      14.011  12.832   1.377 -0.50 -0.00    +0.012 C 
DOCKED: ENDBRANCH  17  44
DOCKED: TORSDOF 10
DOCKED: TER
DOCKED: ENDMDL
________________________________________________________________________________


	BEGINNING GENETIC ALGORITHM DOCKING 37 of 100
Run: 37 Seed: 1024657718 384463831 [ Run 37 of 100 GA/GALS ]
Beginning LAMARCKIAN GENETIC ALGORITHM (LGA), with a maximum of 25000000 energy evaluations.

Final-Value: -16.390


	FINAL GENETIC ALGORITHM DOCKED STATE
	_______________________________________________


Detailed state:  trans 6.063 6.062 5.693 quatxyzw -0.065565 -0.836406 0.365155 0.403470 center -0.174 -0.001 -0.047 ntor 10 130.9803 130.7065 66.0992 -121.7342 -82.1389 -176.9753 41.6366 63.1875 -32.6415 -172.1806
State:	  6.063   6.062   5.693  -0.072 -0.914  0.399 132.409    130.98  130.71   66.10 -121.73  -82.14 -176.98   41.64   63.19  -32.64 -172.18

DOCKED: MODEL       37
DOCKED: USER    Run = 37
DOCKED: USER    DPF = D:/Protein_go_brrr/autodock/final/mut_Y35F/heme_Fe/dock.dpf
DOCKED: USER  
DOCKED: USER    Estimated Free Energy of Binding    =  -11.77 kcal/mol  [=(1)+(2)+(3)-(4)]
DOCKED: USER    Estimated Inhibition Constant, Ki   =    2.37 nM (nanomolar)  [Temperature = 298.15 K]
DOCKED: USER    
DOCKED: USER    (1) Final Intermolecular Energy     =  -14.75 kcal/mol
DOCKED: USER        vdW + Hbond + desolv Energy     =  -12.11 kcal/mol
DOCKED: USER        Electrostatic Energy            =   -2.64 kcal/mol
DOCKED: USER    (2) Final Total Internal Energy     =   -1.64 kcal/mol
DOCKED: USER    (3) Torsional Free Energy           =   +2.98 kcal/mol
DOCKED: USER    (4) Unbound System's Energy  [=(2)] =   -1.64 kcal/mol
DOCKED: USER    
DOCKED: USER    
DOCKED: USER    NEWDPF move heme_Fe_opt.pdbqt
DOCKED: USER    NEWDPF about -0.174000 -0.001000 -0.047000
DOCKED: USER    NEWDPF tran0 6.063419 6.061546 5.693386
DOCKED: USER    NEWDPF quaternion0 -0.065565 -0.836406 0.365155 0.403470
DOCKED: USER    NEWDPF axisangle0 -0.071656 -0.914112 0.399080 132.409375
DOCKED: USER    NEWDPF quat0 -0.071656 -0.914112 0.399080 132.409375
DOCKED: USER    NEWDPF dihe0 130.98 130.71 66.10 -121.73 -82.14 -176.98 41.64 63.19 -32.64 -172.18 
DOCKED: USER  keepresnum = 1 
DOCKED: USER  
DOCKED: REMARK  10 active torsions:
DOCKED: REMARK  status: ('A' for Active; 'I' for Inactive)
DOCKED: REMARK    1  A    between atoms: C_6  and  C_10 
DOCKED: REMARK    2  A    between atoms: C_10  and  C_11 
DOCKED: REMARK    3  A    between atoms: C_11  and  C_12 
DOCKED: REMARK    4  A    between atoms: C_12  and  O_14 
DOCKED: REMARK    5  A    between atoms: C_17  and  C_20 
DOCKED: REMARK    6  A    between atoms: C_24  and  C_27 
DOCKED: REMARK    7  A    between atoms: C_31  and  C_34 
DOCKED: REMARK    8  A    between atoms: C_34  and  C_35 
DOCKED: REMARK    9  A    between atoms: C_35  and  C_36 
DOCKED: REMARK   10  A    between atoms: C_36  and  O_38 
DOCKED: USER                              x       y       z     vdW  Elec       q    Type
DOCKED: USER                           _______ _______ _______ _____ _____    ______ ____
DOCKED: ROOT
DOCKED: ATOM      1  C   UNL d   1       7.692   6.032   6.941 -0.35 +0.03    +0.064 C 
DOCKED: ATOM      2  C   UNL d   1       3.794   3.076   6.236 -0.43 +0.01    +0.064 A 
DOCKED: ATOM      3  C   UNL d   1       2.922   5.332   2.087 -0.40 +0.00    +0.064 C 
DOCKED: ATOM      4  C   UNL d   1       6.626   8.273   2.801 -0.48 +0.01    +0.064 C 
DOCKED: ATOM      5  C   UNL d   1       6.627   5.046   7.168 -0.35 +0.03    +0.066 A 
DOCKED: ATOM      6  C   UNL d   1       6.487   4.282   8.315 -0.25 -0.01    -0.021 A 
DOCKED: ATOM      7  C   UNL d   1       5.407   3.458   8.117 -0.25 -0.01    -0.025 A 
DOCKED: ATOM      8  C   UNL d   1       4.928   3.752   6.855 -0.39 +0.01    +0.066 A 
DOCKED: ATOM      9  C   UNL d   1       4.863   2.465   9.096 +0.56 +0.01    +0.051 C 
DOCKED: ATOM     10  C   UNL d   1       3.277   3.379   5.044 -0.38 +0.00    +0.066 A 
DOCKED: ATOM     11  C   UNL d   1       2.265   2.638   4.428 -0.33 -0.00    -0.021 A 
DOCKED: ATOM     12  C   UNL d   1       2.006   3.259   3.222 -0.35 +0.00    +0.000 A 
DOCKED: ATOM     13  C   UNL d   1       2.889   4.351   3.161 -0.37 +0.00    +0.070 A 
DOCKED: ATOM     14  C   UNL d   1       1.623   1.362   4.933 -0.59 -0.00    +0.052 C 
DOCKED: ATOM     15  C   UNL d   1       3.803   6.355   1.997 -0.38 +0.00    +0.066 A 
DOCKED: ATOM     16  C   UNL d   1       3.739   7.328   1.008 -0.47 -0.00    -0.021 A 
DOCKED: ATOM     17  C   UNL d   1       4.809   8.176   1.210 -0.48 +0.00    +0.000 A 
DOCKED: ATOM     18  C   UNL d   1       5.504   7.696   2.318 -0.39 +0.01    +0.070 A 
DOCKED: ATOM     19  C   UNL d   1       2.727   7.445  -0.100 -0.58 +0.00    +0.052 C 
DOCKED: ATOM     20  C   UNL d   1       7.350   7.833   3.999 -0.36 +0.01    +0.066 A 
DOCKED: ATOM     21  C   UNL d   1       8.615   8.290   4.395 -0.36 -0.00    -0.025 A 
DOCKED: ATOM     22  C   UNL d   1       8.894   7.648   5.584 -0.14 -0.01    -0.021 A 
DOCKED: ATOM     23  C   UNL d   1       7.797   6.824   5.862 -0.12 +0.02    +0.066 A 
DOCKED: ATOM     24  C   UNL d   1       9.523   9.276   3.697 -0.43 -0.00    +0.051 C 
DOCKED: ATOM     25  N   UNL d   1       5.666   4.725   6.284 -0.24 -0.06    -0.248 N 
DOCKED: ATOM     26  N   UNL d   1       3.669   4.420   4.267 -0.24 -0.02    -0.248 N 
DOCKED: ATOM     27  N   UNL d   1       4.863   6.603   2.829 -0.22 -0.04    -0.248 N 
DOCKED: ATOM     28  N   UNL d   1       6.878   6.907   4.869 -0.08 -0.09    -0.248 N 
DOCKED: ATOM     29 FE   UNL d   1       5.274   5.665   4.567 -0.09 +0.00    +0.000 Fe
DOCKED: ENDROOT
DOCKED: BRANCH   6  30
DOCKED: ATOM     30  C   UNL d   1       7.324   4.344   9.547 +0.46 +0.06    +0.052 C 
DOCKED: BRANCH  30  31
DOCKED: ATOM     31  C   UNL d   1       7.329   5.755  10.126 -0.10 +0.09    +0.115 C 
DOCKED: BRANCH  31  32
DOCKED: ATOM     32  C   UNL d   1       8.710   6.130  10.585 +0.11 +0.19    +0.139 C 
DOCKED: ATOM     33  O   UNL d   1       9.123   5.772  11.678 -0.57 -0.85    -0.650 OA
DOCKED: BRANCH  32  34
DOCKED: ATOM     34  O   UNL d   1       9.507   6.868   9.792 +0.00 -0.90    -0.776 OA
DOCKED: ATOM     35  H   UNL d   1       9.619   6.608   8.867 +0.04 +0.22    +0.167 HD
DOCKED: ENDBRANCH  32  34
DOCKED: ENDBRANCH  31  32
DOCKED: ENDBRANCH  30  31
DOCKED: ENDBRANCH   6  30
DOCKED: BRANCH  22  36
DOCKED: ATOM     36  C   UNL d   1      10.164   7.784   6.381 -0.23 +0.02    +0.052 C 
DOCKED: BRANCH  36  37
DOCKED: ATOM     37  C   UNL d   1      11.283   7.009   5.699 -0.02 +0.04    +0.115 C 
DOCKED: BRANCH  37  38
DOCKED: ATOM     38  C   UNL d   1      11.788   5.904   6.582 -0.09 +0.10    +0.139 C 
DOCKED: ATOM     39  O   UNL d   1      12.725   5.202   6.231 -0.35 -0.43    -0.650 OA
DOCKED: BRANCH  38  40
DOCKED: ATOM     40  O   UNL d   1      11.206   5.677   7.773 -0.33 -1.31    -0.776 OA
DOCKED: ATOM     41  H   UNL d   1      11.062   6.420   8.376 +0.03 +0.23    +0.167 HD
DOCKED: ENDBRANCH  38  40
DOCKED: ENDBRANCH  37  38
DOCKED: ENDBRANCH  36  37
DOCKED: ENDBRANCH  22  36
DOCKED: BRANCH  12  42
DOCKED: ATOM     42  C   UNL d   1       0.995   2.797   2.222 -0.31 +0.00    +0.004 C 
DOCKED: ATOM     43  C   UNL d   1      -0.087   3.537   1.944 -0.62 +0.00    +0.012 C 
DOCKED: ENDBRANCH  12  42
DOCKED: BRANCH  17  44
DOCKED: ATOM     44  C   UNL d   1       5.132   9.377   0.408 -0.53 +0.00    +0.004 C 
DOCKED: ATOM     45  C   UNL d   1       5.531   9.265  -0.863 -0.64 +0.00    +0.012 C 
DOCKED: ENDBRANCH  17  44
DOCKED: TORSDOF 10
DOCKED: TER
DOCKED: ENDMDL
________________________________________________________________________________


	BEGINNING GENETIC ALGORITHM DOCKING 38 of 100
Run: 38 Seed: 1378582581 1420076858 [ Run 38 of 100 GA/GALS ]
Beginning LAMARCKIAN GENETIC ALGORITHM (LGA), with a maximum of 25000000 energy evaluations.

Final-Value: -10.665


	FINAL GENETIC ALGORITHM DOCKED STATE
	_______________________________________________


Detailed state:  trans -12.084 8.505 3.499 quatxyzw 0.720112 -0.145959 -0.514732 0.441798 center -0.174 -0.001 -0.047 ntor 10 -19.3958 75.8640 31.9668 45.8794 95.1988 -142.0622 -71.1029 -65.1166 -166.1573 -17.7622
State:	-12.084   8.505   3.499   0.803 -0.163 -0.574 127.563    -19.40   75.86   31.97   45.88   95.20 -142.06  -71.10  -65.12 -166.16  -17.76

DOCKED: MODEL       38
DOCKED: USER    Run = 38
DOCKED: USER    DPF = D:/Protein_go_brrr/autodock/final/mut_Y35F/heme_Fe/dock.dpf
DOCKED: USER  
DOCKED: USER    Estimated Free Energy of Binding    =   -5.62 kcal/mol  [=(1)+(2)+(3)-(4)]
DOCKED: USER    Estimated Inhibition Constant, Ki   =   75.79 uM (micromolar)  [Temperature = 298.15 K]
DOCKED: USER    
DOCKED: USER    (1) Final Intermolecular Energy     =   -8.60 kcal/mol
DOCKED: USER        vdW + Hbond + desolv Energy     =   -5.98 kcal/mol
DOCKED: USER        Electrostatic Energy            =   -2.62 kcal/mol
DOCKED: USER    (2) Final Total Internal Energy     =   -2.06 kcal/mol
DOCKED: USER    (3) Torsional Free Energy           =   +2.98 kcal/mol
DOCKED: USER    (4) Unbound System's Energy  [=(2)] =   -2.06 kcal/mol
DOCKED: USER    
DOCKED: USER    
DOCKED: USER    NEWDPF move heme_Fe_opt.pdbqt
DOCKED: USER    NEWDPF about -0.174000 -0.001000 -0.047000
DOCKED: USER    NEWDPF tran0 -12.084059 8.505372 3.499396
DOCKED: USER    NEWDPF quaternion0 0.720112 -0.145959 -0.514732 0.441798
DOCKED: USER    NEWDPF axisangle0 0.802698 -0.162698 -0.573764 127.562720
DOCKED: USER    NEWDPF quat0 0.802698 -0.162698 -0.573764 127.562720
DOCKED: USER    NEWDPF dihe0 -19.40 75.86 31.97 45.88 95.20 -142.06 -71.10 -65.12 -166.16 -17.76 
DOCKED: USER  keepresnum = 1 
DOCKED: USER  
DOCKED: REMARK  10 active torsions:
DOCKED: REMARK  status: ('A' for Active; 'I' for Inactive)
DOCKED: REMARK    1  A    between atoms: C_6  and  C_10 
DOCKED: REMARK    2  A    between atoms: C_10  and  C_11 
DOCKED: REMARK    3  A    between atoms: C_11  and  C_12 
DOCKED: REMARK    4  A    between atoms: C_12  and  O_14 
DOCKED: REMARK    5  A    between atoms: C_17  and  C_20 
DOCKED: REMARK    6  A    between atoms: C_24  and  C_27 
DOCKED: REMARK    7  A    between atoms: C_31  and  C_34 
DOCKED: REMARK    8  A    between atoms: C_34  and  C_35 
DOCKED: REMARK    9  A    between atoms: C_35  and  C_36 
DOCKED: REMARK   10  A    between atoms: C_36  and  O_38 
DOCKED: USER                              x       y       z     vdW  Elec       q    Type
DOCKED: USER                           _______ _______ _______ _____ _____    ______ ____
DOCKED: ROOT
DOCKED: ATOM      1  C   UNL d   1     -13.217   8.473   5.210 -0.13 +0.02    +0.064 C 
DOCKED: ATOM      2  C   UNL d   1      -9.326  11.099   3.663 -0.31 +0.00    +0.064 A 
DOCKED: ATOM      3  C   UNL d   1     -10.150   9.555  -0.810 -0.12 -0.01    +0.064 C 
DOCKED: ATOM      4  C   UNL d   1     -13.855   6.923   0.683 -0.08 +0.01    +0.064 C 
DOCKED: ATOM      5  C   UNL d   1     -11.995   9.289   5.203 -0.17 +0.02    +0.066 A 
DOCKED: ATOM      6  C   UNL d   1     -11.389   9.814   6.332 -0.25 -0.01    -0.021 A 
DOCKED: ATOM      7  C   UNL d   1     -10.311  10.546   5.901 -0.37 -0.00    -0.025 A 
DOCKED: ATOM      8  C   UNL d   1     -10.300  10.439   4.524 -0.30 +0.00    +0.066 A 
DOCKED: ATOM      9  C   UNL d   1      -9.342  11.286   6.771 -0.40 +0.00    +0.051 C 
DOCKED: ATOM     10  C   UNL d   1      -9.259  10.966   2.337 -0.24 -0.01    +0.066 A 
DOCKED: ATOM     11  C   UNL d   1      -8.388  11.699   1.528 -0.24 +0.00    -0.021 A 
DOCKED: ATOM     12  C   UNL d   1      -8.618  11.285   0.231 -0.16 -0.00    +0.000 A 
DOCKED: ATOM     13  C   UNL d   1      -9.633  10.316   0.316 -0.11 -0.01    +0.070 A 
DOCKED: ATOM     14  C   UNL d   1      -7.431  12.792   1.961 -0.34 -0.01    +0.052 C 
DOCKED: ATOM     15  C   UNL d   1     -11.163   8.659  -0.741 -0.10 -0.01    +0.066 A 
DOCKED: ATOM     16  C   UNL d   1     -11.561   7.880  -1.820 -0.08 +0.00    -0.021 A 
DOCKED: ATOM     17  C   UNL d   1     -12.632   7.123  -1.393 -0.07 +0.00    +0.000 A 
DOCKED: ATOM     18  C   UNL d   1     -12.865   7.461  -0.062 -0.09 +0.00    +0.070 A 
DOCKED: ATOM     19  C   UNL d   1     -10.976   7.864  -3.207 -0.09 +0.00    +0.052 C 
DOCKED: ATOM     20  C   UNL d   1     -14.092   7.210   2.103 -0.03 +0.01    +0.066 A 
DOCKED: ATOM     21  C   UNL d   1     -15.225   6.818   2.830 -0.05 -0.00    -0.025 A 
DOCKED: ATOM     22  C   UNL d   1     -15.017   7.259   4.120 -0.05 -0.01    -0.021 A 
DOCKED: ATOM     23  C   UNL d   1     -13.774   7.904   4.128 -0.08 +0.02    +0.066 A 
DOCKED: ATOM     24  C   UNL d   1     -16.447   6.073   2.345 -0.01 +0.01    +0.051 C 
DOCKED: ATOM     25  N   UNL d   1     -11.321   9.666   4.103 -0.13 -0.02    -0.248 N 
DOCKED: ATOM     26  N   UNL d   1     -10.030  10.128   1.599 -0.07 +0.06    -0.248 N 
DOCKED: ATOM     27  N   UNL d   1     -11.935   8.374   0.353 -0.08 +0.02    -0.248 N 
DOCKED: ATOM     28  N   UNL d   1     -13.236   7.910   2.885 +0.03 -0.03    -0.248 N 
DOCKED: ATOM     29 FE   UNL d   1     -11.634   9.018   2.241 -0.05 -0.00    +0.000 Fe
DOCKED: ENDROOT
DOCKED: BRANCH   6  30
DOCKED: ATOM     30  C   UNL d   1     -11.799   9.615   7.751 -0.23 +0.05    +0.052 C 
DOCKED: BRANCH  30  31
DOCKED: ATOM     31  C   UNL d   1     -13.012  10.474   8.089 -0.12 +0.11    +0.115 C 
DOCKED: BRANCH  31  32
DOCKED: ATOM     32  C   UNL d   1     -14.234   9.615   8.260 +0.01 +0.16    +0.139 C 
DOCKED: ATOM     33  O   UNL d   1     -14.579   9.236   9.370 -0.31 -1.15    -0.650 OA
DOCKED: BRANCH  32  34
DOCKED: ATOM     34  O   UNL d   1     -14.962   9.256   7.189 +0.04 -0.43    -0.776 OA
DOCKED: ATOM     35  H   UNL d   1     -15.557   8.497   7.259 +0.02 +0.09    +0.167 HD
DOCKED: ENDBRANCH  32  34
DOCKED: ENDBRANCH  31  32
DOCKED: ENDBRANCH  30  31
DOCKED: ENDBRANCH   6  30
DOCKED: BRANCH  22  36
DOCKED: ATOM     36  C   UNL d   1     -15.981   7.110   5.268 -0.01 +0.02    +0.052 C 
DOCKED: BRANCH  36  37
DOCKED: ATOM     37  C   UNL d   1     -15.897   5.699   5.829 -0.04 +0.05    +0.115 C 
DOCKED: BRANCH  37  38
DOCKED: ATOM     38  C   UNL d   1     -15.356   5.707   7.230 -0.10 +0.12    +0.139 C 
DOCKED: ATOM     39  O   UNL d   1     -14.597   4.829   7.613 -0.45 -1.24    -0.650 OA
DOCKED: BRANCH  38  40
DOCKED: ATOM     40  O   UNL d   1     -15.708   6.688   8.080 +0.05 -0.61    -0.776 OA
DOCKED: ATOM     41  H   UNL d   1     -15.073   7.390   8.277 +0.03 +0.16    +0.167 HD
DOCKED: ENDBRANCH  38  40
DOCKED: ENDBRANCH  37  38
DOCKED: ENDBRANCH  36  37
DOCKED: ENDBRANCH  22  36
DOCKED: BRANCH  12  42
DOCKED: ATOM     42  C   UNL d   1      -7.910  11.815  -0.975 -0.21 -0.00    +0.004 C 
DOCKED: ATOM     43  C   UNL d   1      -6.683  11.386  -1.298 -0.40 -0.01    +0.012 C 
DOCKED: ENDBRANCH  12  42
DOCKED: BRANCH  17  44
DOCKED: ATOM     44  C   UNL d   1     -13.371   6.125  -2.199 -0.04 +0.00    +0.004 C 
DOCKED: ATOM     45  C   UNL d   1     -13.116   4.818  -2.073 -0.08 +0.00    +0.012 C 
DOCKED: ENDBRANCH  17  44
DOCKED: TORSDOF 10
DOCKED: TER
DOCKED: ENDMDL
________________________________________________________________________________


	BEGINNING GENETIC ALGORITHM DOCKING 39 of 100
Run: 39 Seed: 1529567574 165251226 [ Run 39 of 100 GA/GALS ]
Beginning LAMARCKIAN GENETIC ALGORITHM (LGA), with a maximum of 25000000 energy evaluations.

Final-Value: -9.266


	FINAL GENETIC ALGORITHM DOCKED STATE
	_______________________________________________


Detailed state:  trans 6.029 15.779 -11.211 quatxyzw 0.402444 -0.279228 0.112445 -0.864538 center -0.174 -0.001 -0.047 ntor 10 25.7870 -149.4119 171.1676 58.3190 -104.7097 97.2814 -69.9355 -5.3527 -163.9752 6.3942
State:	  6.029  15.779 -11.211   0.801 -0.556  0.224 -60.340     25.79 -149.41  171.17   58.32 -104.71   97.28  -69.94   -5.35 -163.98    6.39

DOCKED: MODEL       39
DOCKED: USER    Run = 39
DOCKED: USER    DPF = D:/Protein_go_brrr/autodock/final/mut_Y35F/heme_Fe/dock.dpf
DOCKED: USER  
DOCKED: USER    Estimated Free Energy of Binding    =   -4.03 kcal/mol  [=(1)+(2)+(3)-(4)]
DOCKED: USER    Estimated Inhibition Constant, Ki   =    1.10 mM (millimolar)  [Temperature = 298.15 K]
DOCKED: USER    
DOCKED: USER    (1) Final Intermolecular Energy     =   -7.02 kcal/mol
DOCKED: USER        vdW + Hbond + desolv Energy     =   -7.04 kcal/mol
DOCKED: USER        Electrostatic Energy            =   +0.03 kcal/mol
DOCKED: USER    (2) Final Total Internal Energy     =   -2.25 kcal/mol
DOCKED: USER    (3) Torsional Free Energy           =   +2.98 kcal/mol
DOCKED: USER    (4) Unbound System's Energy  [=(2)] =   -2.25 kcal/mol
DOCKED: USER    
DOCKED: USER    
DOCKED: USER    NEWDPF move heme_Fe_opt.pdbqt
DOCKED: USER    NEWDPF about -0.174000 -0.001000 -0.047000
DOCKED: USER    NEWDPF tran0 6.029339 15.779345 -11.211299
DOCKED: USER    NEWDPF quaternion0 0.402444 -0.279228 0.112445 -0.864538
DOCKED: USER    NEWDPF axisangle0 0.800777 -0.555604 0.223741 -60.339931
DOCKED: USER    NEWDPF quat0 0.800777 -0.555604 0.223741 -60.339931
DOCKED: USER    NEWDPF dihe0 25.79 -149.41 171.17 58.32 -104.71 97.28 -69.94 -5.35 -163.98 6.39 
DOCKED: USER  keepresnum = 1 
DOCKED: USER  
DOCKED: REMARK  10 active torsions:
DOCKED: REMARK  status: ('A' for Active; 'I' for Inactive)
DOCKED: REMARK    1  A    between atoms: C_6  and  C_10 
DOCKED: REMARK    2  A    between atoms: C_10  and  C_11 
DOCKED: REMARK    3  A    between atoms: C_11  and  C_12 
DOCKED: REMARK    4  A    between atoms: C_12  and  O_14 
DOCKED: REMARK    5  A    between atoms: C_17  and  C_20 
DOCKED: REMARK    6  A    between atoms: C_24  and  C_27 
DOCKED: REMARK    7  A    between atoms: C_31  and  C_34 
DOCKED: REMARK    8  A    between atoms: C_34  and  C_35 
DOCKED: REMARK    9  A    between atoms: C_35  and  C_36 
DOCKED: REMARK   10  A    between atoms: C_36  and  O_38 
DOCKED: USER                              x       y       z     vdW  Elec       q    Type
DOCKED: USER                           _______ _______ _______ _____ _____    ______ ____
DOCKED: ROOT
DOCKED: ATOM      1  C   UNL d   1       4.223  15.397 -12.108 -0.22 +0.00    +0.064 C 
DOCKED: ATOM      2  C   UNL d   1       8.683  13.270 -12.220 -0.12 +0.00    +0.064 A 
DOCKED: ATOM      3  C   UNL d   1       9.904  15.783  -8.313 -0.28 +0.00    +0.064 C 
DOCKED: ATOM      4  C   UNL d   1       5.630  17.932  -8.248 -0.17 +0.03    +0.064 C 
DOCKED: ATOM      5  C   UNL d   1       5.394  14.628 -12.551 -0.24 +0.00    +0.066 A 
DOCKED: ATOM      6  C   UNL d   1       5.450  13.869 -13.708 -0.23 -0.00    -0.021 A 
DOCKED: ATOM      7  C   UNL d   1       6.687  13.275 -13.737 -0.27 -0.00    -0.025 A 
DOCKED: ATOM      8  C   UNL d   1       7.341  13.696 -12.594 -0.30 +0.00    +0.066 A 
DOCKED: ATOM      9  C   UNL d   1       7.210  12.374 -14.813 -0.19 +0.00    +0.051 C 
DOCKED: ATOM     10  C   UNL d   1       9.358  13.705 -11.154 -0.24 -0.00    +0.066 A 
DOCKED: ATOM     11  C   UNL d   1      10.596  13.193 -10.759 -0.29 +0.00    -0.021 A 
DOCKED: ATOM     12  C   UNL d   1      10.962  13.889  -9.624 -0.31 -0.00    +0.000 A 
DOCKED: ATOM     13  C   UNL d   1       9.914  14.793  -9.379 -0.27 -0.00    +0.070 A 
DOCKED: ATOM     14  C   UNL d   1      11.362  12.049 -11.391 -0.32 -0.01    +0.052 C 
DOCKED: ATOM     15  C   UNL d   1       8.875  16.620  -8.041 -0.23 +0.01    +0.066 A 
DOCKED: ATOM     16  C   UNL d   1       8.943  17.618  -7.078 -0.17 -0.00    -0.021 A 
DOCKED: ATOM     17  C   UNL d   1       7.711  18.237  -7.055 -0.16 +0.00    +0.000 A 
DOCKED: ATOM     18  C   UNL d   1       6.916  17.598  -8.004 -0.20 +0.03    +0.070 A 
DOCKED: ATOM     19  C   UNL d   1      10.112  17.963  -6.194 -0.13 -0.00    +0.052 C 
DOCKED: ATOM     20  C   UNL d   1       4.783  17.323  -9.281 -0.16 +0.02    +0.066 A 
DOCKED: ATOM     21  C   UNL d   1       3.401  17.516  -9.412 -0.12 -0.00    -0.025 A 
DOCKED: ATOM     22  C   UNL d   1       3.023  16.794 -10.525 -0.14 -0.00    -0.021 A 
DOCKED: ATOM     23  C   UNL d   1       4.182  16.188 -11.024 -0.14 +0.01    +0.066 A 
DOCKED: ATOM     24  C   UNL d   1       2.475  18.330  -8.538 -0.08 +0.01    +0.051 C 
DOCKED: ATOM     25  N   UNL d   1       6.555  14.526 -11.880 -0.18 -0.03    -0.248 N 
DOCKED: ATOM     26  N   UNL d   1       8.932  14.675 -10.306 -0.18 -0.00    -0.248 N 
DOCKED: ATOM     27  N   UNL d   1       7.645  16.632  -8.641 -0.16 -0.05    -0.248 N 
DOCKED: ATOM     28  N   UNL d   1       5.245  16.478 -10.234 -0.06 -0.04    -0.248 N 
DOCKED: ATOM     29 FE   UNL d   1       7.088  15.578 -10.269 -0.06 +0.00    +0.000 Fe
DOCKED: ENDROOT
DOCKED: BRANCH   6  30
DOCKED: ATOM     30  C   UNL d   1       4.390  13.730 -14.747 -0.15 -0.00    +0.052 C 
DOCKED: BRANCH  30  31
DOCKED: ATOM     31  C   UNL d   1       3.260  12.836 -14.249 -0.14 -0.00    +0.115 C 
DOCKED: BRANCH  31  32
DOCKED: ATOM     32  C   UNL d   1       2.016  13.646 -14.006 -0.13 -0.00    +0.139 C 
DOCKED: ATOM     33  O   UNL d   1       1.665  13.922 -12.868 -0.03 +0.01    -0.650 OA
DOCKED: BRANCH  32  34
DOCKED: ATOM     34  O   UNL d   1       1.277  14.074 -15.044 +0.02 +0.02    -0.776 OA
DOCKED: ATOM     35  H   UNL d   1       0.732  14.867 -14.936 +0.02 -0.01    +0.167 HD
DOCKED: ENDBRANCH  32  34
DOCKED: ENDBRANCH  31  32
DOCKED: ENDBRANCH  30  31
DOCKED: ENDBRANCH   6  30
DOCKED: BRANCH  22  36
DOCKED: ATOM     36  C   UNL d   1       1.618  16.658 -11.050 -0.11 -0.00    +0.052 C 
DOCKED: BRANCH  36  37
DOCKED: ATOM     37  C   UNL d   1       1.438  17.545 -12.273 -0.03 -0.00    +0.115 C 
DOCKED: BRANCH  37  38
DOCKED: ATOM     38  C   UNL d   1       0.096  17.320 -12.909 -0.02 -0.01    +0.139 C 
DOCKED: ATOM     39  O   UNL d   1      -0.844  18.062 -12.665 +0.01 +0.03    -0.650 OA
DOCKED: BRANCH  38  40
DOCKED: ATOM     40  O   UNL d   1      -0.081  16.290 -13.756 +0.02 +0.03    -0.776 OA
DOCKED: ATOM     41  H   UNL d   1       0.440  15.485 -13.632 +0.02 -0.01    +0.167 HD
DOCKED: ENDBRANCH  38  40
DOCKED: ENDBRANCH  37  38
DOCKED: ENDBRANCH  36  37
DOCKED: ENDBRANCH  22  36
DOCKED: BRANCH  12  42
DOCKED: ATOM     42  C   UNL d   1      12.222  13.663  -8.850 -0.32 -0.00    +0.004 C 
DOCKED: ATOM     43  C   UNL d   1      12.226  13.713  -7.512 -0.40 -0.00    +0.012 C 
DOCKED: ENDBRANCH  12  42
DOCKED: BRANCH  17  44
DOCKED: ATOM     44  C   UNL d   1       7.325  19.379  -6.195 -0.12 +0.00    +0.004 C 
DOCKED: ATOM     45  C   UNL d   1       7.076  20.581  -6.725 -0.07 +0.00    +0.012 C 
DOCKED: ENDBRANCH  17  44
DOCKED: TORSDOF 10
DOCKED: TER
DOCKED: ENDMDL
________________________________________________________________________________


	BEGINNING GENETIC ALGORITHM DOCKING 40 of 100
Run: 40 Seed: 1263304618 1249225942 [ Run 40 of 100 GA/GALS ]
Beginning LAMARCKIAN GENETIC ALGORITHM (LGA), with a maximum of 25000000 energy evaluations.

Final-Value: -9.850


	FINAL GENETIC ALGORITHM DOCKED STATE
	_______________________________________________


Detailed state:  trans 0.680 14.680 -10.250 quatxyzw -0.032424 0.603057 -0.612952 -0.509471 center -0.174 -0.001 -0.047 ntor 10 177.1760 -162.5344 -145.9885 -161.8382 -51.3796 24.6486 13.3912 11.6344 -29.7049 33.8037
State:	  0.680  14.680 -10.250  -0.038  0.701 -0.712 -118.743    177.18 -162.53 -145.99 -161.84  -51.38   24.65   13.39   11.63  -29.70   33.80

DOCKED: MODEL       40
DOCKED: USER    Run = 40
DOCKED: USER    DPF = D:/Protein_go_brrr/autodock/final/mut_Y35F/heme_Fe/dock.dpf
DOCKED: USER  
DOCKED: USER    Estimated Free Energy of Binding    =   -5.38 kcal/mol  [=(1)+(2)+(3)-(4)]
DOCKED: USER    Estimated Inhibition Constant, Ki   =  114.52 uM (micromolar)  [Temperature = 298.15 K]
DOCKED: USER    
DOCKED: USER    (1) Final Intermolecular Energy     =   -8.36 kcal/mol
DOCKED: USER        vdW + Hbond + desolv Energy     =   -7.23 kcal/mol
DOCKED: USER        Electrostatic Energy            =   -1.13 kcal/mol
DOCKED: USER    (2) Final Total Internal Energy     =   -1.49 kcal/mol
DOCKED: USER    (3) Torsional Free Energy           =   +2.98 kcal/mol
DOCKED: USER    (4) Unbound System's Energy  [=(2)] =   -1.49 kcal/mol
DOCKED: USER    
DOCKED: USER    
DOCKED: USER    NEWDPF move heme_Fe_opt.pdbqt
DOCKED: USER    NEWDPF about -0.174000 -0.001000 -0.047000
DOCKED: USER    NEWDPF tran0 0.679542 14.680081 -10.250401
DOCKED: USER    NEWDPF quaternion0 -0.032424 0.603057 -0.612952 -0.509471
DOCKED: USER    NEWDPF axisangle0 -0.037681 0.700832 -0.712331 -118.742761
DOCKED: USER    NEWDPF quat0 -0.037681 0.700832 -0.712331 -118.742761
DOCKED: USER    NEWDPF dihe0 177.18 -162.53 -145.99 -161.84 -51.38 24.65 13.39 11.63 -29.70 33.80 
DOCKED: USER  keepresnum = 1 
DOCKED: USER  
DOCKED: REMARK  10 active torsions:
DOCKED: REMARK  status: ('A' for Active; 'I' for Inactive)
DOCKED: REMARK    1  A    between atoms: C_6  and  C_10 
DOCKED: REMARK    2  A    between atoms: C_10  and  C_11 
DOCKED: REMARK    3  A    between atoms: C_11  and  C_12 
DOCKED: REMARK    4  A    between atoms: C_12  and  O_14 
DOCKED: REMARK    5  A    between atoms: C_17  and  C_20 
DOCKED: REMARK    6  A    between atoms: C_24  and  C_27 
DOCKED: REMARK    7  A    between atoms: C_31  and  C_34 
DOCKED: REMARK    8  A    between atoms: C_34  and  C_35 
DOCKED: REMARK    9  A    between atoms: C_35  and  C_36 
DOCKED: REMARK   10  A    between atoms: C_36  and  O_38 
DOCKED: USER                              x       y       z     vdW  Elec       q    Type
DOCKED: USER                           _______ _______ _______ _____ _____    ______ ____
DOCKED: ROOT
DOCKED: ATOM      1  C   UNL d   1       1.942  15.605  -8.922 -0.23 +0.00    +0.064 C 
DOCKED: ATOM      2  C   UNL d   1      -1.881  12.498  -8.506 -0.27 -0.02    +0.064 A 
DOCKED: ATOM      3  C   UNL d   1      -1.520  11.535 -13.197 -0.15 -0.00    +0.064 C 
DOCKED: ATOM      4  C   UNL d   1       2.113  14.616 -13.644 -0.15 -0.00    +0.064 C 
DOCKED: ATOM      5  C   UNL d   1       0.779  14.883  -8.387 -0.19 -0.01    +0.066 A 
DOCKED: ATOM      6  C   UNL d   1       0.301  15.003  -7.093 -0.26 +0.01    -0.021 A 
DOCKED: ATOM      7  C   UNL d   1      -0.758  14.138  -6.977 -0.30 +0.01    -0.025 A 
DOCKED: ATOM      8  C   UNL d   1      -0.886  13.521  -8.206 -0.25 -0.02    +0.066 A 
DOCKED: ATOM      9  C   UNL d   1      -1.604  13.936  -5.757 -0.14 -0.05    +0.051 C 
DOCKED: ATOM     10  C   UNL d   1      -2.062  11.930  -9.699 -0.23 -0.01    +0.066 A 
DOCKED: ATOM     11  C   UNL d   1      -2.945  10.871  -9.927 -0.27 +0.00    -0.021 A 
DOCKED: ATOM     12  C   UNL d   1      -2.848  10.564 -11.269 -0.20 -0.00    +0.000 A 
DOCKED: ATOM     13  C   UNL d   1      -1.895  11.454 -11.794 -0.14 -0.01    +0.070 A 
DOCKED: ATOM     14  C   UNL d   1      -3.790  10.143  -8.902 -0.23 -0.03    +0.052 C 
DOCKED: ATOM     15  C   UNL d   1      -0.566  12.354 -13.699 -0.13 -0.00    +0.066 A 
DOCKED: ATOM     16  C   UNL d   1      -0.307  12.474 -15.058 -0.08 +0.00    -0.021 A 
DOCKED: ATOM     17  C   UNL d   1       0.743  13.359 -15.189 -0.08 -0.00    +0.000 A 
DOCKED: ATOM     18  C   UNL d   1       1.103  13.756 -13.904 -0.13 -0.00    +0.070 A 
DOCKED: ATOM     19  C   UNL d   1      -1.001  11.766 -16.191 -0.03 -0.00    +0.052 C 
DOCKED: ATOM     20  C   UNL d   1       2.480  15.104 -12.309 -0.19 +0.00    +0.066 A 
DOCKED: ATOM     21  C   UNL d   1       3.640  15.830 -12.004 -0.18 -0.00    -0.025 A 
DOCKED: ATOM     22  C   UNL d   1       3.564  16.113 -10.656 -0.18 -0.00    -0.021 A 
DOCKED: ATOM     23  C   UNL d   1       2.371  15.545 -10.193 -0.21 +0.00    +0.066 A 
DOCKED: ATOM     24  C   UNL d   1       4.767  16.239 -12.924 -0.11 +0.00    +0.051 C 
DOCKED: ATOM     25  N   UNL d   1       0.044  13.984  -9.065 -0.16 +0.05    -0.248 N 
DOCKED: ATOM     26  N   UNL d   1      -1.409  12.280 -10.836 -0.08 +0.03    -0.248 N 
DOCKED: ATOM     27  N   UNL d   1       0.271  13.173 -12.990 -0.11 +0.01    -0.248 N 
DOCKED: ATOM     28  N   UNL d   1       1.737  14.892 -11.197 -0.19 +0.00    -0.248 N 
DOCKED: ATOM     29 FE   UNL d   1       0.165  13.587 -11.018 -0.06 -0.00    +0.000 Fe
DOCKED: ENDROOT
DOCKED: BRANCH   6  30
DOCKED: ATOM     30  C   UNL d   1       0.809  15.910  -6.024 -0.27 -0.01    +0.052 C 
DOCKED: BRANCH  30  31
DOCKED: ATOM     31  C   UNL d   1       0.713  17.368  -6.462 -0.13 -0.01    +0.115 C 
DOCKED: BRANCH  31  32
DOCKED: ATOM     32  C   UNL d   1       1.513  18.247  -5.542 -0.07 +0.06    +0.139 C 
DOCKED: ATOM     33  O   UNL d   1       1.357  18.187  -4.330 -0.59 -0.34    -0.650 OA
DOCKED: BRANCH  32  34
DOCKED: ATOM     34  O   UNL d   1       2.411  19.111  -6.045 -0.52 -0.54    -0.776 OA
DOCKED: ATOM     35  H   UNL d   1       2.562  19.128  -7.001 +0.02 +0.07    +0.167 HD
DOCKED: ENDBRANCH  32  34
DOCKED: ENDBRANCH  31  32
DOCKED: ENDBRANCH  30  31
DOCKED: ENDBRANCH   6  30
DOCKED: BRANCH  22  36
DOCKED: ATOM     36  C   UNL d   1       4.605  16.845  -9.850 -0.17 +0.01    +0.052 C 
DOCKED: BRANCH  36  37
DOCKED: ATOM     37  C   UNL d   1       3.942  17.941  -9.030 -0.12 +0.03    +0.115 C 
DOCKED: BRANCH  37  38
DOCKED: ATOM     38  C   UNL d   1       4.969  18.854  -8.422 -0.09 +0.04    +0.139 C 
DOCKED: ATOM     39  O   UNL d   1       6.076  18.975  -8.926 +0.02 -0.13    -0.650 OA
DOCKED: BRANCH  38  40
DOCKED: ATOM     40  O   UNL d   1       4.675  19.547  -7.307 +0.02 -0.41    -0.776 OA
DOCKED: ATOM     41  H   UNL d   1       3.918  19.274  -6.770 +0.02 +0.14    +0.167 HD
DOCKED: ENDBRANCH  38  40
DOCKED: ENDBRANCH  37  38
DOCKED: ENDBRANCH  36  37
DOCKED: ENDBRANCH  22  36
DOCKED: BRANCH  12  42
DOCKED: ATOM     42  C   UNL d   1      -3.613   9.478 -11.956 -0.15 -0.00    +0.004 C 
DOCKED: ATOM     43  C   UNL d   1      -3.058   8.281 -12.184 -0.21 +0.00    +0.012 C 
DOCKED: ENDBRANCH  12  42
DOCKED: BRANCH  17  44
DOCKED: ATOM     44  C   UNL d   1       1.348  13.811 -16.463 -0.03 -0.00    +0.004 C 
DOCKED: ATOM     45  C   UNL d   1       2.563  13.392 -16.830 -0.03 -0.00    +0.012 C 
DOCKED: ENDBRANCH  17  44
DOCKED: TORSDOF 10
DOCKED: TER
DOCKED: ENDMDL
________________________________________________________________________________


	BEGINNING GENETIC ALGORITHM DOCKING 41 of 100
Run: 41 Seed: 1855463586 1124429395 [ Run 41 of 100 GA/GALS ]
Beginning LAMARCKIAN GENETIC ALGORITHM (LGA), with a maximum of 25000000 energy evaluations.

Final-Value: -12.442


	FINAL GENETIC ALGORITHM DOCKED STATE
	_______________________________________________


Detailed state:  trans 11.583 11.597 7.258 quatxyzw -0.540959 -0.460901 0.572754 -0.408518 center -0.174 -0.001 -0.047 ntor 10 -68.2615 66.5352 -103.3953 50.3754 109.0885 -170.1722 -76.1369 -47.4317 176.6306 24.1053
State:	 11.583  11.597   7.258  -0.593 -0.505  0.628 -131.777    -68.26   66.54 -103.40   50.38  109.09 -170.17  -76.14  -47.43  176.63   24.11

DOCKED: MODEL       41
DOCKED: USER    Run = 41
DOCKED: USER    DPF = D:/Protein_go_brrr/autodock/final/mut_Y35F/heme_Fe/dock.dpf
DOCKED: USER  
DOCKED: USER    Estimated Free Energy of Binding    =   -7.52 kcal/mol  [=(1)+(2)+(3)-(4)]
DOCKED: USER    Estimated Inhibition Constant, Ki   =    3.08 uM (micromolar)  [Temperature = 298.15 K]
DOCKED: USER    
DOCKED: USER    (1) Final Intermolecular Energy     =  -10.50 kcal/mol
DOCKED: USER        vdW + Hbond + desolv Energy     =   -7.42 kcal/mol
DOCKED: USER        Electrostatic Energy            =   -3.09 kcal/mol
DOCKED: USER    (2) Final Total Internal Energy     =   -1.94 kcal/mol
DOCKED: USER    (3) Torsional Free Energy           =   +2.98 kcal/mol
DOCKED: USER    (4) Unbound System's Energy  [=(2)] =   -1.94 kcal/mol
DOCKED: USER    
DOCKED: USER    
DOCKED: USER    NEWDPF move heme_Fe_opt.pdbqt
DOCKED: USER    NEWDPF about -0.174000 -0.001000 -0.047000
DOCKED: USER    NEWDPF tran0 11.582766 11.596685 7.258477
DOCKED: USER    NEWDPF quaternion0 -0.540959 -0.460901 0.572754 -0.408518
DOCKED: USER    NEWDPF axisangle0 -0.592669 -0.504958 0.627503 -131.776514
DOCKED: USER    NEWDPF quat0 -0.592669 -0.504958 0.627503 -131.776514
DOCKED: USER    NEWDPF dihe0 -68.26 66.54 -103.40 50.38 109.09 -170.17 -76.14 -47.43 176.63 24.11 
DOCKED: USER  keepresnum = 1 
DOCKED: USER  
DOCKED: REMARK  10 active torsions:
DOCKED: REMARK  status: ('A' for Active; 'I' for Inactive)
DOCKED: REMARK    1  A    between atoms: C_6  and  C_10 
DOCKED: REMARK    2  A    between atoms: C_10  and  C_11 
DOCKED: REMARK    3  A    between atoms: C_11  and  C_12 
DOCKED: REMARK    4  A    between atoms: C_12  and  O_14 
DOCKED: REMARK    5  A    between atoms: C_17  and  C_20 
DOCKED: REMARK    6  A    between atoms: C_24  and  C_27 
DOCKED: REMARK    7  A    between atoms: C_31  and  C_34 
DOCKED: REMARK    8  A    between atoms: C_34  and  C_35 
DOCKED: REMARK    9  A    between atoms: C_35  and  C_36 
DOCKED: REMARK   10  A    between atoms: C_36  and  O_38 
DOCKED: USER                              x       y       z     vdW  Elec       q    Type
DOCKED: USER                           _______ _______ _______ _____ _____    ______ ____
DOCKED: ROOT
DOCKED: ATOM      1  C   UNL d   1      11.211   9.650   7.792 -0.15 +0.02    +0.064 C 
DOCKED: ATOM      2  C   UNL d   1      11.007  14.000  10.131 -0.22 +0.02    +0.064 A 
DOCKED: ATOM      3  C   UNL d   1      11.213  16.219   5.877 -0.18 -0.01    +0.064 C 
DOCKED: ATOM      4  C   UNL d   1      11.518  12.023   3.600 -0.25 -0.01    +0.064 C 
DOCKED: ATOM      5  C   UNL d   1      11.219  10.670   8.850 -0.15 +0.01    +0.066 A 
DOCKED: ATOM      6  C   UNL d   1      11.277  10.401  10.207 -0.14 -0.01    -0.021 A 
DOCKED: ATOM      7  C   UNL d   1      11.216  11.609  10.856 -0.16 -0.01    -0.025 A 
DOCKED: ATOM      8  C   UNL d   1      11.124  12.571   9.869 -0.20 +0.02    +0.066 A 
DOCKED: ATOM      9  C   UNL d   1      11.264  11.818  12.339 -0.16 +0.03    +0.051 C 
DOCKED: ATOM     10  C   UNL d   1      10.974  14.952   9.197 -0.24 +0.01    +0.066 A 
DOCKED: ATOM     11  C   UNL d   1      10.747  16.302   9.475 -0.22 -0.00    -0.021 A 
DOCKED: ATOM     12  C   UNL d   1      10.784  16.961   8.262 -0.16 -0.00    +0.000 A 
DOCKED: ATOM     13  C   UNL d   1      11.027  15.968   7.297 -0.19 -0.01    +0.070 A 
DOCKED: ATOM     14  C   UNL d   1      10.439  16.924  10.822 -0.21 +0.01    +0.052 C 
DOCKED: ATOM     15  C   UNL d   1      11.395  15.262   4.937 -0.14 -0.01    +0.066 A 
DOCKED: ATOM     16  C   UNL d   1      11.668  15.548   3.606 -0.12 +0.00    -0.021 A 
DOCKED: ATOM     17  C   UNL d   1      11.753  14.339   2.946 -0.22 -0.00    +0.000 A 
DOCKED: ATOM     18  C   UNL d   1      11.526  13.342   3.892 -0.19 -0.01    +0.070 A 
DOCKED: ATOM     19  C   UNL d   1      11.819  16.903   2.970 -0.08 -0.01    +0.052 C 
DOCKED: ATOM     20  C   UNL d   1      11.343  10.944   4.579 -0.19 -0.00    +0.066 A 
DOCKED: ATOM     21  C   UNL d   1      11.134   9.593   4.267 -0.27 -0.00    -0.025 A 
DOCKED: ATOM     22  C   UNL d   1      11.062   8.933   5.477 -0.20 -0.00    -0.021 A 
DOCKED: ATOM     23  C   UNL d   1      11.223   9.903   6.474 -0.12 +0.01    +0.066 A 
DOCKED: ATOM     24  C   UNL d   1      11.002   8.948   2.907 -0.42 -0.01    +0.051 C 
DOCKED: ATOM     25  N   UNL d   1      11.136  11.997   8.649 -0.09 -0.04    -0.248 N 
DOCKED: ATOM     26  N   UNL d   1      11.134  14.742   7.866 -0.14 -0.00    -0.248 N 
DOCKED: ATOM     27  N   UNL d   1      11.349  13.906   5.125 -0.04 +0.02    -0.248 N 
DOCKED: ATOM     28  N   UNL d   1      11.349  11.134   5.921 +0.01 -0.02    -0.248 N 
DOCKED: ATOM     29 FE   UNL d   1      11.242  12.938   6.891 -0.04 +0.00    +0.000 Fe
DOCKED: ENDROOT
DOCKED: BRANCH   6  30
DOCKED: ATOM     30  C   UNL d   1      11.404   9.066  10.857 -0.10 +0.02    +0.052 C 
DOCKED: BRANCH  30  31
DOCKED: ATOM     31  C   UNL d   1      10.032   8.509  11.222 -0.10 +0.05    +0.115 C 
DOCKED: BRANCH  31  32
DOCKED: ATOM     32  C   UNL d   1       9.624   7.436  10.252 -0.08 +0.11    +0.139 C 
DOCKED: ATOM     33  O   UNL d   1       9.593   6.263  10.596 -0.13 -1.09    -0.650 OA
DOCKED: BRANCH  32  34
DOCKED: ATOM     34  O   UNL d   1       9.289   7.759   8.991 +0.07 -0.49    -0.776 OA
DOCKED: ATOM     35  H   UNL d   1       9.869   7.485   8.266 +0.05 +0.12    +0.167 HD
DOCKED: ENDBRANCH  32  34
DOCKED: ENDBRANCH  31  32
DOCKED: ENDBRANCH  30  31
DOCKED: ENDBRANCH   6  30
DOCKED: BRANCH  22  36
DOCKED: ATOM     36  C   UNL d   1      10.804   7.461   5.662 -0.15 +0.02    +0.052 C 
DOCKED: BRANCH  36  37
DOCKED: ATOM     37  C   UNL d   1      11.963   6.827   6.415 -0.17 +0.05    +0.115 C 
DOCKED: BRANCH  37  38
DOCKED: ATOM     38  C   UNL d   1      11.467   5.971   7.546 -0.08 +0.16    +0.139 C 
DOCKED: ATOM     39  O   UNL d   1      12.243   5.520   8.376 -0.09 -0.92    -0.650 OA
DOCKED: BRANCH  38  40
DOCKED: ATOM     40  O   UNL d   1      10.156   5.691   7.651 -0.48 -1.43    -0.776 OA
DOCKED: ATOM     41  H   UNL d   1       9.659   6.043   8.402 +0.05 +0.32    +0.167 HD
DOCKED: ENDBRANCH  38  40
DOCKED: ENDBRANCH  37  38
DOCKED: ENDBRANCH  36  37
DOCKED: ENDBRANCH  22  36
DOCKED: BRANCH  12  42
DOCKED: ATOM     42  C   UNL d   1      10.579  18.431   8.081 -0.18 -0.00    +0.004 C 
DOCKED: ATOM     43  C   UNL d   1       9.471  19.034   8.531 -0.23 -0.00    +0.012 C 
DOCKED: ENDBRANCH  12  42
DOCKED: BRANCH  17  44
DOCKED: ATOM     44  C   UNL d   1      12.053  14.149   1.509 -0.42 -0.00    +0.004 C 
DOCKED: ATOM     45  C   UNL d   1      13.259  13.732   1.110 -0.51 -0.00    +0.012 C 
DOCKED: ENDBRANCH  17  44
DOCKED: TORSDOF 10
DOCKED: TER
DOCKED: ENDMDL
________________________________________________________________________________


	BEGINNING GENETIC ALGORITHM DOCKING 42 of 100
Run: 42 Seed: 630590206 61331997 [ Run 42 of 100 GA/GALS ]
Beginning LAMARCKIAN GENETIC ALGORITHM (LGA), with a maximum of 25000000 energy evaluations.

Final-Value: -10.264


	FINAL GENETIC ALGORITHM DOCKED STATE
	_______________________________________________


Detailed state:  trans 15.517 9.945 4.316 quatxyzw -0.190371 -0.065712 0.636855 -0.744215 center -0.174 -0.001 -0.047 ntor 10 43.9445 -163.8460 72.1433 -159.8563 -98.9118 -100.5799 179.5339 -8.9558 -2.2893 143.6656
State:	 15.517   9.945   4.316  -0.285 -0.098  0.953 -83.817     43.94 -163.85   72.14 -159.86  -98.91 -100.58  179.53   -8.96   -2.29  143.67

DOCKED: MODEL       42
DOCKED: USER    Run = 42
DOCKED: USER    DPF = D:/Protein_go_brrr/autodock/final/mut_Y35F/heme_Fe/dock.dpf
DOCKED: USER  
DOCKED: USER    Estimated Free Energy of Binding    =   -6.72 kcal/mol  [=(1)+(2)+(3)-(4)]
DOCKED: USER    Estimated Inhibition Constant, Ki   =   11.89 uM (micromolar)  [Temperature = 298.15 K]
DOCKED: USER    
DOCKED: USER    (1) Final Intermolecular Energy     =   -9.70 kcal/mol
DOCKED: USER        vdW + Hbond + desolv Energy     =   -6.83 kcal/mol
DOCKED: USER        Electrostatic Energy            =   -2.88 kcal/mol
DOCKED: USER    (2) Final Total Internal Energy     =   -0.56 kcal/mol
DOCKED: USER    (3) Torsional Free Energy           =   +2.98 kcal/mol
DOCKED: USER    (4) Unbound System's Energy  [=(2)] =   -0.56 kcal/mol
DOCKED: USER    
DOCKED: USER    
DOCKED: USER    NEWDPF move heme_Fe_opt.pdbqt
DOCKED: USER    NEWDPF about -0.174000 -0.001000 -0.047000
DOCKED: USER    NEWDPF tran0 15.516843 9.944757 4.316098
DOCKED: USER    NEWDPF quaternion0 -0.190371 -0.065712 0.636855 -0.744215
DOCKED: USER    NEWDPF axisangle0 -0.285013 -0.098380 0.953462 -83.816592
DOCKED: USER    NEWDPF quat0 -0.285013 -0.098380 0.953462 -83.816592
DOCKED: USER    NEWDPF dihe0 43.94 -163.85 72.14 -159.86 -98.91 -100.58 179.53 -8.96 -2.29 143.67 
DOCKED: USER  keepresnum = 1 
DOCKED: USER  
DOCKED: REMARK  10 active torsions:
DOCKED: REMARK  status: ('A' for Active; 'I' for Inactive)
DOCKED: REMARK    1  A    between atoms: C_6  and  C_10 
DOCKED: REMARK    2  A    between atoms: C_10  and  C_11 
DOCKED: REMARK    3  A    between atoms: C_11  and  C_12 
DOCKED: REMARK    4  A    between atoms: C_12  and  O_14 
DOCKED: REMARK    5  A    between atoms: C_17  and  C_20 
DOCKED: REMARK    6  A    between atoms: C_24  and  C_27 
DOCKED: REMARK    7  A    between atoms: C_31  and  C_34 
DOCKED: REMARK    8  A    between atoms: C_34  and  C_35 
DOCKED: REMARK    9  A    between atoms: C_35  and  C_36 
DOCKED: REMARK   10  A    between atoms: C_36  and  O_38 
DOCKED: USER                              x       y       z     vdW  Elec       q    Type
DOCKED: USER                           _______ _______ _______ _____ _____    ______ ____
DOCKED: ROOT
DOCKED: ATOM      1  C   UNL d   1      15.033   8.117   5.113 -0.18 +0.02    +0.064 C 
DOCKED: ATOM      2  C   UNL d   1      18.826  11.244   5.627 -0.06 +0.01    +0.064 A 
DOCKED: ATOM      3  C   UNL d   1      16.196  14.670   3.525 -0.09 -0.01    +0.064 C 
DOCKED: ATOM      4  C   UNL d   1      12.552  11.630   2.923 -0.12 -0.01    +0.064 C 
DOCKED: ATOM      5  C   UNL d   1      16.374   8.656   5.377 -0.10 +0.02    +0.066 A 
DOCKED: ATOM      6  C   UNL d   1      17.437   7.922   5.878 -0.09 -0.01    -0.021 A 
DOCKED: ATOM      7  C   UNL d   1      18.489   8.792   6.024 -0.07 -0.01    -0.025 A 
DOCKED: ATOM      8  C   UNL d   1      18.027  10.025   5.606 -0.08 +0.02    +0.066 A 
DOCKED: ATOM      9  C   UNL d   1      19.860   8.445   6.519 -0.03 +0.02    +0.051 C 
DOCKED: ATOM     10  C   UNL d   1      18.424  12.434   5.176 -0.05 +0.01    +0.066 A 
DOCKED: ATOM     11  C   UNL d   1      19.169  13.607   5.315 -0.03 -0.00    -0.021 A 
DOCKED: ATOM     12  C   UNL d   1      18.425  14.613   4.731 -0.03 +0.00    +0.000 A 
DOCKED: ATOM     13  C   UNL d   1      17.249  13.997   4.270 -0.06 +0.00    +0.070 A 
DOCKED: ATOM     14  C   UNL d   1      20.495  13.775   6.029 -0.01 +0.00    +0.052 C 
DOCKED: ATOM     15  C   UNL d   1      15.039  14.093   3.124 -0.13 -0.01    +0.066 A 
DOCKED: ATOM     16  C   UNL d   1      14.104  14.742   2.328 -0.18 +0.01    -0.021 A 
DOCKED: ATOM     17  C   UNL d   1      13.050  13.868   2.156 -0.30 -0.00    +0.000 A 
DOCKED: ATOM     18  C   UNL d   1      13.366  12.706   2.856 -0.26 -0.01    +0.070 A 
DOCKED: ATOM     19  C   UNL d   1      14.183  16.138   1.771 -0.16 -0.03    +0.052 C 
DOCKED: ATOM     20  C   UNL d   1      12.877  10.368   3.597 -0.27 -0.00    +0.066 A 
DOCKED: ATOM     21  C   UNL d   1      11.973   9.325   3.846 -0.31 -0.00    -0.025 A 
DOCKED: ATOM     22  C   UNL d   1      12.705   8.330   4.459 -0.25 -0.00    -0.021 A 
DOCKED: ATOM     23  C   UNL d   1      14.018   8.803   4.566 -0.19 +0.01    +0.066 A 
DOCKED: ATOM     24  C   UNL d   1      10.497   9.262   3.530 -0.41 -0.00    +0.051 C 
DOCKED: ATOM     25  N   UNL d   1      16.744   9.937   5.204 +0.03 -0.11    -0.248 N 
DOCKED: ATOM     26  N   UNL d   1      17.244  12.670   4.548 -0.04 -0.04    -0.248 N 
DOCKED: ATOM     27  N   UNL d   1      14.608  12.826   3.414 -0.12 -0.00    -0.248 N 
DOCKED: ATOM     28  N   UNL d   1      14.107  10.065   4.079 -0.06 -0.05    -0.248 N 
DOCKED: ATOM     29 FE   UNL d   1      15.674  11.368   4.313 -0.05 +0.00    +0.000 Fe
DOCKED: ENDROOT
DOCKED: BRANCH   6  30
DOCKED: ATOM     30  C   UNL d   1      17.461   6.463   6.183 -0.07 +0.02    +0.052 C 
DOCKED: BRANCH  30  31
DOCKED: ATOM     31  C   UNL d   1      17.836   5.658   4.944 -0.18 +0.05    +0.115 C 
DOCKED: BRANCH  31  32
DOCKED: ATOM     32  C   UNL d   1      18.062   6.572   3.771 -0.24 +0.11    +0.139 C 
DOCKED: ATOM     33  O   UNL d   1      17.184   6.743   2.937 -0.14 -0.39    -0.650 OA
DOCKED: BRANCH  32  34
DOCKED: ATOM     34  O   UNL d   1      19.235   7.210   3.630 -0.17 -1.17    -0.776 OA
DOCKED: ATOM     35  H   UNL d   1      19.234   8.145   3.380 -0.05 +0.24    +0.167 HD
DOCKED: ENDBRANCH  32  34
DOCKED: ENDBRANCH  31  32
DOCKED: ENDBRANCH  30  31
DOCKED: ENDBRANCH   6  30
DOCKED: BRANCH  22  36
DOCKED: ATOM     36  C   UNL d   1      12.159   7.017   4.958 -0.27 +0.01    +0.052 C 
DOCKED: BRANCH  36  37
DOCKED: ATOM     37  C   UNL d   1      12.382   6.906   6.459 -0.15 +0.05    +0.115 C 
DOCKED: BRANCH  37  38
DOCKED: ATOM     38  C   UNL d   1      11.645   5.726   7.027 -0.15 +0.14    +0.139 C 
DOCKED: ATOM     39  O   UNL d   1      10.579   5.875   7.607 -0.53 -1.03    -0.650 OA
DOCKED: BRANCH  38  40
DOCKED: ATOM     40  O   UNL d   1      12.159   4.490   6.902 -0.38 -0.86    -0.776 OA
DOCKED: ATOM     41  H   UNL d   1      13.091   4.391   6.661 +0.05 +0.12    +0.167 HD
DOCKED: ENDBRANCH  38  40
DOCKED: ENDBRANCH  37  38
DOCKED: ENDBRANCH  36  37
DOCKED: ENDBRANCH  22  36
DOCKED: BRANCH  12  42
DOCKED: ATOM     42  C   UNL d   1      18.835  16.050   4.658 -0.01 -0.00    +0.004 C 
DOCKED: ATOM     43  C   UNL d   1      18.986  16.664   3.478 -0.02 -0.00    +0.012 C 
DOCKED: ENDBRANCH  12  42
DOCKED: BRANCH  17  44
DOCKED: ATOM     44  C   UNL d   1      11.829  14.121   1.357 -0.41 -0.00    +0.004 C 
DOCKED: ATOM     45  C   UNL d   1      10.660  14.372   1.955 -0.41 -0.00    +0.012 C 
DOCKED: ENDBRANCH  17  44
DOCKED: TORSDOF 10
DOCKED: TER
DOCKED: ENDMDL
________________________________________________________________________________


	BEGINNING GENETIC ALGORITHM DOCKING 43 of 100
Run: 43 Seed: 1736964327 1400578734 [ Run 43 of 100 GA/GALS ]
Beginning LAMARCKIAN GENETIC ALGORITHM (LGA), with a maximum of 25000000 energy evaluations.

Final-Value: -10.045


	FINAL GENETIC ALGORITHM DOCKED STATE
	_______________________________________________


Detailed state:  trans -2.784 -7.073 -12.460 quatxyzw -0.638481 0.764886 0.084610 0.011484 center -0.174 -0.001 -0.047 ntor 10 -13.4943 -15.6784 170.2344 -126.5247 126.3446 114.7958 -95.1499 98.5037 153.4486 -179.9629
State:	 -2.784  -7.073 -12.460  -0.639  0.765  0.085 178.684    -13.49  -15.68  170.23 -126.52  126.34  114.80  -95.15   98.50  153.45 -179.96

DOCKED: MODEL       43
DOCKED: USER    Run = 43
DOCKED: USER    DPF = D:/Protein_go_brrr/autodock/final/mut_Y35F/heme_Fe/dock.dpf
DOCKED: USER  
DOCKED: USER    Estimated Free Energy of Binding    =   -4.70 kcal/mol  [=(1)+(2)+(3)-(4)]
DOCKED: USER    Estimated Inhibition Constant, Ki   =  356.12 uM (micromolar)  [Temperature = 298.15 K]
DOCKED: USER    
DOCKED: USER    (1) Final Intermolecular Energy     =   -7.69 kcal/mol
DOCKED: USER        vdW + Hbond + desolv Energy     =   -7.65 kcal/mol
DOCKED: USER        Electrostatic Energy            =   -0.03 kcal/mol
DOCKED: USER    (2) Final Total Internal Energy     =   -2.36 kcal/mol
DOCKED: USER    (3) Torsional Free Energy           =   +2.98 kcal/mol
DOCKED: USER    (4) Unbound System's Energy  [=(2)] =   -2.36 kcal/mol
DOCKED: USER    
DOCKED: USER    
DOCKED: USER    NEWDPF move heme_Fe_opt.pdbqt
DOCKED: USER    NEWDPF about -0.174000 -0.001000 -0.047000
DOCKED: USER    NEWDPF tran0 -2.783714 -7.072923 -12.459547
DOCKED: USER    NEWDPF quaternion0 -0.638481 0.764886 0.084610 0.011484
DOCKED: USER    NEWDPF axisangle0 -0.638523 0.764937 0.084616 178.684029
DOCKED: USER    NEWDPF quat0 -0.638523 0.764937 0.084616 178.684029
DOCKED: USER    NEWDPF dihe0 -13.49 -15.68 170.23 -126.52 126.34 114.80 -95.15 98.50 153.45 -179.96 
DOCKED: USER  keepresnum = 1 
DOCKED: USER  
DOCKED: REMARK  10 active torsions:
DOCKED: REMARK  status: ('A' for Active; 'I' for Inactive)
DOCKED: REMARK    1  A    between atoms: C_6  and  C_10 
DOCKED: REMARK    2  A    between atoms: C_10  and  C_11 
DOCKED: REMARK    3  A    between atoms: C_11  and  C_12 
DOCKED: REMARK    4  A    between atoms: C_12  and  O_14 
DOCKED: REMARK    5  A    between atoms: C_17  and  C_20 
DOCKED: REMARK    6  A    between atoms: C_24  and  C_27 
DOCKED: REMARK    7  A    between atoms: C_31  and  C_34 
DOCKED: REMARK    8  A    between atoms: C_34  and  C_35 
DOCKED: REMARK    9  A    between atoms: C_35  and  C_36 
DOCKED: REMARK   10  A    between atoms: C_36  and  O_38 
DOCKED: USER                              x       y       z     vdW  Elec       q    Type
DOCKED: USER                           _______ _______ _______ _____ _____    ______ ____
DOCKED: ROOT
DOCKED: ATOM      1  C   UNL d   1      -2.428  -5.083 -12.813 -0.19 +0.00    +0.064 C 
DOCKED: ATOM      2  C   UNL d   1       0.164  -9.246 -13.431 -0.12 +0.01    +0.064 A 
DOCKED: ATOM      3  C   UNL d   1      -3.881 -11.769 -12.851 -0.30 -0.01    +0.064 C 
DOCKED: ATOM      4  C   UNL d   1      -6.390  -7.758 -12.146 -0.23 -0.01    +0.064 C 
DOCKED: ATOM      5  C   UNL d   1      -1.309  -6.025 -12.958 -0.23 +0.00    +0.066 A 
DOCKED: ATOM      6  C   UNL d   1       0.026  -5.661 -13.037 -0.26 -0.00    -0.021 A 
DOCKED: ATOM      7  C   UNL d   1       0.744  -6.817 -13.212 -0.30 -0.00    -0.025 A 
DOCKED: ATOM      8  C   UNL d   1      -0.180  -7.844 -13.233 -0.27 +0.00    +0.066 A 
DOCKED: ATOM      9  C   UNL d   1       2.234  -6.921 -13.332 -0.28 +0.02    +0.051 C 
DOCKED: ATOM     10  C   UNL d   1      -0.701 -10.261 -13.399 -0.25 -0.00    +0.066 A 
DOCKED: ATOM     11  C   UNL d   1      -0.359 -11.580 -13.706 -0.29 +0.00    -0.021 A 
DOCKED: ATOM     12  C   UNL d   1      -1.512 -12.326 -13.562 -0.26 -0.00    +0.000 A 
DOCKED: ATOM     13  C   UNL d   1      -2.510 -11.412 -13.179 -0.22 -0.01    +0.070 A 
DOCKED: ATOM     14  C   UNL d   1       0.985 -12.095 -14.179 -0.25 -0.00    +0.052 C 
DOCKED: ATOM     15  C   UNL d   1      -4.857 -10.887 -12.533 -0.25 -0.01    +0.066 A 
DOCKED: ATOM     16  C   UNL d   1      -6.128 -11.276 -12.129 -0.30 +0.00    -0.021 A 
DOCKED: ATOM     17  C   UNL d   1      -6.855 -10.120 -11.928 -0.29 -0.00    +0.000 A 
DOCKED: ATOM     18  C   UNL d   1      -6.010  -9.052 -12.219 -0.20 -0.01    +0.070 A 
DOCKED: ATOM     19  C   UNL d   1      -6.650 -12.677 -11.962 -0.37 -0.01    +0.052 C 
DOCKED: ATOM     20  C   UNL d   1      -5.511  -6.607 -12.384 -0.17 -0.00    +0.066 A 
DOCKED: ATOM     21  C   UNL d   1      -5.935  -5.276 -12.508 -0.15 -0.00    -0.025 A 
DOCKED: ATOM     22  C   UNL d   1      -4.788  -4.530 -12.685 -0.13 -0.00    -0.021 A 
DOCKED: ATOM     23  C   UNL d   1      -3.716  -5.430 -12.669 -0.17 +0.00    +0.066 A 
DOCKED: ATOM     24  C   UNL d   1      -7.342  -4.726 -12.468 +0.03 +0.01    +0.051 C 
DOCKED: ATOM     25  N   UNL d   1      -1.427  -7.359 -13.069 -0.17 -0.00    -0.248 N 
DOCKED: ATOM     26  N   UNL d   1      -2.018 -10.152 -13.088 -0.18 +0.02    -0.248 N 
DOCKED: ATOM     27  N   UNL d   1      -4.769  -9.521 -12.548 -0.11 +0.02    -0.248 N 
DOCKED: ATOM     28  N   UNL d   1      -4.167  -6.700 -12.530 -0.10 +0.00    -0.248 N 
DOCKED: ATOM     29 FE   UNL d   1      -3.094  -8.426 -12.809 -0.05 -0.00    +0.000 Fe
DOCKED: ENDROOT
DOCKED: BRANCH   6  30
DOCKED: ATOM     30  C   UNL d   1       0.593  -4.287 -12.930 -0.26 +0.02    +0.052 C 
DOCKED: BRANCH  30  31
DOCKED: ATOM     31  C   UNL d   1       1.288  -3.887 -14.227 -0.11 +0.04    +0.115 C 
DOCKED: BRANCH  31  32
DOCKED: ATOM     32  C   UNL d   1       0.294  -3.325 -15.205 -0.04 +0.02    +0.139 C 
DOCKED: ATOM     33  O   UNL d   1       0.472  -2.227 -15.713 +0.02 -0.07    -0.650 OA
DOCKED: BRANCH  32  34
DOCKED: ATOM     34  O   UNL d   1      -0.804  -4.028 -15.530 +0.04 -0.06    -0.776 OA
DOCKED: ATOM     35  H   UNL d   1      -1.524  -3.584 -15.998 +0.01 +0.01    +0.167 HD
DOCKED: ENDBRANCH  32  34
DOCKED: ENDBRANCH  31  32
DOCKED: ENDBRANCH  30  31
DOCKED: ENDBRANCH   6  30
DOCKED: BRANCH  22  36
DOCKED: ATOM     36  C   UNL d   1      -4.733  -3.041 -12.906 -0.09 +0.00    +0.052 C 
DOCKED: BRANCH  36  37
DOCKED: ATOM     37  C   UNL d   1      -4.977  -2.731 -14.376 -0.03 +0.00    +0.115 C 
DOCKED: BRANCH  37  38
DOCKED: ATOM     38  C   UNL d   1      -3.716  -2.891 -15.177 -0.03 +0.00    +0.139 C 
DOCKED: ATOM     39  O   UNL d   1      -3.624  -3.760 -16.032 +0.01 -0.01    -0.650 OA
DOCKED: BRANCH  38  40
DOCKED: ATOM     40  O   UNL d   1      -2.670  -2.075 -14.953 +0.01 -0.02    -0.776 OA
DOCKED: ATOM     41  H   UNL d   1      -1.799  -2.323 -15.294 +0.01 +0.01    +0.167 HD
DOCKED: ENDBRANCH  38  40
DOCKED: ENDBRANCH  37  38
DOCKED: ENDBRANCH  36  37
DOCKED: ENDBRANCH  22  36
DOCKED: BRANCH  12  42
DOCKED: ATOM     42  C   UNL d   1      -1.615 -13.798 -13.802 -0.17 +0.00    +0.004 C 
DOCKED: ATOM     43  C   UNL d   1      -2.703 -14.329 -14.376 -0.20 +0.00    +0.012 C 
DOCKED: ENDBRANCH  12  42
DOCKED: BRANCH  17  44
DOCKED: ATOM     44  C   UNL d   1      -8.260 -10.043 -11.468 -0.45 -0.00    +0.004 C 
DOCKED: ATOM     45  C   UNL d   1      -9.266 -10.382 -12.281 -0.33 -0.00    +0.012 C 
DOCKED: ENDBRANCH  17  44
DOCKED: TORSDOF 10
DOCKED: TER
DOCKED: ENDMDL
________________________________________________________________________________


	BEGINNING GENETIC ALGORITHM DOCKING 44 of 100
Run: 44 Seed: 305164987 306634232 [ Run 44 of 100 GA/GALS ]
Beginning LAMARCKIAN GENETIC ALGORITHM (LGA), with a maximum of 25000000 energy evaluations.

Final-Value: -11.313


	FINAL GENETIC ALGORITHM DOCKED STATE
	_______________________________________________


Detailed state:  trans 11.230 10.321 6.252 quatxyzw 0.251182 0.871287 -0.154391 -0.392338 center -0.174 -0.001 -0.047 ntor 10 -114.6819 130.7730 -77.8113 26.4469 -83.6468 -96.0406 82.0321 -121.1248 -166.2082 153.1865
State:	 11.230  10.321   6.252   0.273  0.947 -0.168 -133.800   -114.68  130.77  -77.81   26.45  -83.65  -96.04   82.03 -121.12 -166.21  153.19

DOCKED: MODEL       44
DOCKED: USER    Run = 44
DOCKED: USER    DPF = D:/Protein_go_brrr/autodock/final/mut_Y35F/heme_Fe/dock.dpf
DOCKED: USER  
DOCKED: USER    Estimated Free Energy of Binding    =   -7.73 kcal/mol  [=(1)+(2)+(3)-(4)]
DOCKED: USER    Estimated Inhibition Constant, Ki   =    2.17 uM (micromolar)  [Temperature = 298.15 K]
DOCKED: USER    
DOCKED: USER    (1) Final Intermolecular Energy     =  -10.71 kcal/mol
DOCKED: USER        vdW + Hbond + desolv Energy     =   -8.71 kcal/mol
DOCKED: USER        Electrostatic Energy            =   -2.00 kcal/mol
DOCKED: USER    (2) Final Total Internal Energy     =   -0.60 kcal/mol
DOCKED: USER    (3) Torsional Free Energy           =   +2.98 kcal/mol
DOCKED: USER    (4) Unbound System's Energy  [=(2)] =   -0.60 kcal/mol
DOCKED: USER    
DOCKED: USER    
DOCKED: USER    NEWDPF move heme_Fe_opt.pdbqt
DOCKED: USER    NEWDPF about -0.174000 -0.001000 -0.047000
DOCKED: USER    NEWDPF tran0 11.229899 10.321356 6.252179
DOCKED: USER    NEWDPF quaternion0 0.251182 0.871287 -0.154391 -0.392338
DOCKED: USER    NEWDPF axisangle0 0.273077 0.947236 -0.167849 -133.799874
DOCKED: USER    NEWDPF quat0 0.273077 0.947236 -0.167849 -133.799874
DOCKED: USER    NEWDPF dihe0 -114.68 130.77 -77.81 26.45 -83.65 -96.04 82.03 -121.12 -166.21 153.19 
DOCKED: USER  keepresnum = 1 
DOCKED: USER  
DOCKED: REMARK  10 active torsions:
DOCKED: REMARK  status: ('A' for Active; 'I' for Inactive)
DOCKED: REMARK    1  A    between atoms: C_6  and  C_10 
DOCKED: REMARK    2  A    between atoms: C_10  and  C_11 
DOCKED: REMARK    3  A    between atoms: C_11  and  C_12 
DOCKED: REMARK    4  A    between atoms: C_12  and  O_14 
DOCKED: REMARK    5  A    between atoms: C_17  and  C_20 
DOCKED: REMARK    6  A    between atoms: C_24  and  C_27 
DOCKED: REMARK    7  A    between atoms: C_31  and  C_34 
DOCKED: REMARK    8  A    between atoms: C_34  and  C_35 
DOCKED: REMARK    9  A    between atoms: C_35  and  C_36 
DOCKED: REMARK   10  A    between atoms: C_36  and  O_38 
DOCKED: USER                              x       y       z     vdW  Elec       q    Type
DOCKED: USER                           _______ _______ _______ _____ _____    ______ ____
DOCKED: ROOT
DOCKED: ATOM      1  C   UNL d   1      12.641   9.398   7.422 -0.06 +0.01    +0.064 C 
DOCKED: ATOM      2  C   UNL d   1       8.598   7.897   5.006 -0.27 +0.01    +0.064 A 
DOCKED: ATOM      3  C   UNL d   1       8.604  12.035   2.567 -0.36 -0.00    +0.064 C 
DOCKED: ATOM      4  C   UNL d   1      12.454  13.550   4.968 -0.11 -0.00    +0.064 C 
DOCKED: ATOM      5  C   UNL d   1      11.453   8.627   7.027 -0.11 +0.02    +0.066 A 
DOCKED: ATOM      6  C   UNL d   1      11.063   7.428   7.601 -0.16 -0.01    -0.021 A 
DOCKED: ATOM      7  C   UNL d   1       9.942   7.010   6.927 -0.19 -0.01    -0.025 A 
DOCKED: ATOM      8  C   UNL d   1       9.691   7.971   5.967 -0.22 +0.02    +0.066 A 
DOCKED: ATOM      9  C   UNL d   1       9.154   5.768   7.209 -0.04 +0.05    +0.051 C 
DOCKED: ATOM     10  C   UNL d   1       8.300   8.837   4.108 -0.34 +0.01    +0.066 A 
DOCKED: ATOM     11  C   UNL d   1       7.318   8.687   3.125 -0.46 -0.00    -0.021 A 
DOCKED: ATOM     12  C   UNL d   1       7.312   9.861   2.398 -0.54 +0.00    +0.000 A 
DOCKED: ATOM     13  C   UNL d   1       8.305  10.671   2.974 -0.46 -0.00    +0.070 A 
DOCKED: ATOM     14  C   UNL d   1       6.475   7.459   2.849 -0.44 +0.01    +0.052 C 
DOCKED: ATOM     15  C   UNL d   1       9.594  12.800   3.084 -0.39 -0.01    +0.066 A 
DOCKED: ATOM     16  C   UNL d   1       9.783  14.131   2.738 -0.43 +0.00    -0.021 A 
DOCKED: ATOM     17  C   UNL d   1      10.895  14.570   3.427 -0.25 -0.00    +0.000 A 
DOCKED: ATOM     18  C   UNL d   1      11.362  13.491   4.175 -0.17 -0.01    +0.070 A 
DOCKED: ATOM     19  C   UNL d   1       8.968  14.955   1.778 -0.29 -0.01    +0.052 C 
DOCKED: ATOM     20  C   UNL d   1      12.939  12.455   5.816 -0.07 +0.00    +0.066 A 
DOCKED: ATOM     21  C   UNL d   1      14.172  12.432   6.484 -0.04 -0.00    -0.025 A 
DOCKED: ATOM     22  C   UNL d   1      14.198  11.245   7.187 -0.03 -0.00    -0.021 A 
DOCKED: ATOM     23  C   UNL d   1      12.990  10.592   6.918 -0.06 +0.01    +0.066 A 
DOCKED: ATOM     24  C   UNL d   1      15.275  13.465   6.464 -0.02 +0.00    +0.051 C 
DOCKED: ATOM     25  N   UNL d   1      10.607   8.958   6.037 -0.11 -0.05    -0.248 N 
DOCKED: ATOM     26  N   UNL d   1       8.914  10.044   4.011 -0.17 -0.00    -0.248 N 
DOCKED: ATOM     27  N   UNL d   1      10.537  12.415   3.999 -0.10 +0.03    -0.248 N 
DOCKED: ATOM     28  N   UNL d   1      12.245  11.314   6.045 -0.06 -0.02    -0.248 N 
DOCKED: ATOM     29 FE   UNL d   1      10.581  10.681   5.028 -0.06 +0.00    +0.000 Fe
DOCKED: ENDROOT
DOCKED: BRANCH   6  30
DOCKED: ATOM     30  C   UNL d   1      11.707   6.724   8.746 -0.11 +0.05    +0.052 C 
DOCKED: BRANCH  30  31
DOCKED: ATOM     31  C   UNL d   1      12.978   6.011   8.296 -0.09 +0.09    +0.115 C 
DOCKED: BRANCH  31  32
DOCKED: ATOM     32  C   UNL d   1      12.701   4.556   8.036 -0.08 +0.18    +0.139 C 
DOCKED: ATOM     33  O   UNL d   1      12.705   3.748   8.953 -0.31 -1.26    -0.650 OA
DOCKED: BRANCH  32  34
DOCKED: ATOM     34  O   UNL d   1      12.446   4.131   6.787 -0.46 -0.76    -0.776 OA
DOCKED: ATOM     35  H   UNL d   1      13.144   4.190   6.119 +0.06 +0.11    +0.167 HD
DOCKED: ENDBRANCH  32  34
DOCKED: ENDBRANCH  31  32
DOCKED: ENDBRANCH  30  31
DOCKED: ENDBRANCH   6  30
DOCKED: BRANCH  22  36
DOCKED: ATOM     36  C   UNL d   1      15.343  10.748   8.030 -0.01 +0.01    +0.052 C 
DOCKED: BRANCH  36  37
DOCKED: ATOM     37  C   UNL d   1      16.002   9.557   7.350 -0.02 +0.02    +0.115 C 
DOCKED: BRANCH  37  38
DOCKED: ATOM     38  C   UNL d   1      16.492   9.924   5.978 -0.07 +0.04    +0.139 C 
DOCKED: ATOM     39  O   UNL d   1      15.812   9.693   4.989 -0.55 -0.35    -0.650 OA
DOCKED: BRANCH  38  40
DOCKED: ATOM     40  O   UNL d   1      17.693  10.510   5.829 +0.01 -0.20    -0.776 OA
DOCKED: ATOM     41  H   UNL d   1      17.913  11.276   6.376 +0.02 +0.03    +0.167 HD
DOCKED: ENDBRANCH  38  40
DOCKED: ENDBRANCH  37  38
DOCKED: ENDBRANCH  36  37
DOCKED: ENDBRANCH  22  36
DOCKED: BRANCH  12  42
DOCKED: ATOM     42  C   UNL d   1       6.418  10.140   1.231 -0.22 +0.00    +0.004 C 
DOCKED: ATOM     43  C   UNL d   1       5.991   9.149   0.437 -0.57 +0.00    +0.012 C 
DOCKED: ENDBRANCH  12  42
DOCKED: BRANCH  17  44
DOCKED: ATOM     44  C   UNL d   1      11.462  15.937   3.387 -0.15 -0.00    +0.004 C 
DOCKED: ATOM     45  C   UNL d   1      10.927  16.921   4.116 -0.15 -0.00    +0.012 C 
DOCKED: ENDBRANCH  17  44
DOCKED: TORSDOF 10
DOCKED: TER
DOCKED: ENDMDL
________________________________________________________________________________


	BEGINNING GENETIC ALGORITHM DOCKING 45 of 100
Run: 45 Seed: 520934018 93759263 [ Run 45 of 100 GA/GALS ]
Beginning LAMARCKIAN GENETIC ALGORITHM (LGA), with a maximum of 25000000 energy evaluations.

Final-Value: -11.570


	FINAL GENETIC ALGORITHM DOCKED STATE
	_______________________________________________


Detailed state:  trans 13.730 9.546 5.032 quatxyzw -0.140273 0.165204 0.882413 -0.417587 center -0.174 -0.001 -0.047 ntor 10 -118.9208 -94.3612 81.4739 19.8006 54.1555 -53.4648 -98.1383 83.8789 -30.5929 -19.0922
State:	 13.730   9.546   5.032  -0.154  0.182  0.971 -130.635   -118.92  -94.36   81.47   19.80   54.16  -53.46  -98.14   83.88  -30.59  -19.09

DOCKED: MODEL       45
DOCKED: USER    Run = 45
DOCKED: USER    DPF = D:/Protein_go_brrr/autodock/final/mut_Y35F/heme_Fe/dock.dpf
DOCKED: USER  
DOCKED: USER    Estimated Free Energy of Binding    =   -7.89 kcal/mol  [=(1)+(2)+(3)-(4)]
DOCKED: USER    Estimated Inhibition Constant, Ki   =    1.64 uM (micromolar)  [Temperature = 298.15 K]
DOCKED: USER    
DOCKED: USER    (1) Final Intermolecular Energy     =  -10.87 kcal/mol
DOCKED: USER        vdW + Hbond + desolv Energy     =   -8.18 kcal/mol
DOCKED: USER        Electrostatic Energy            =   -2.70 kcal/mol
DOCKED: USER    (2) Final Total Internal Energy     =   -0.70 kcal/mol
DOCKED: USER    (3) Torsional Free Energy           =   +2.98 kcal/mol
DOCKED: USER    (4) Unbound System's Energy  [=(2)] =   -0.70 kcal/mol
DOCKED: USER    
DOCKED: USER    
DOCKED: USER    NEWDPF move heme_Fe_opt.pdbqt
DOCKED: USER    NEWDPF about -0.174000 -0.001000 -0.047000
DOCKED: USER    NEWDPF tran0 13.729548 9.545608 5.032330
DOCKED: USER    NEWDPF quaternion0 -0.140273 0.165204 0.882413 -0.417587
DOCKED: USER    NEWDPF axisangle0 -0.154377 0.181815 0.971139 -130.635304
DOCKED: USER    NEWDPF quat0 -0.154377 0.181815 0.971139 -130.635304
DOCKED: USER    NEWDPF dihe0 -118.92 -94.36 81.47 19.80 54.16 -53.46 -98.14 83.88 -30.59 -19.09 
DOCKED: USER  keepresnum = 1 
DOCKED: USER  
DOCKED: REMARK  10 active torsions:
DOCKED: REMARK  status: ('A' for Active; 'I' for Inactive)
DOCKED: REMARK    1  A    between atoms: C_6  and  C_10 
DOCKED: REMARK    2  A    between atoms: C_10  and  C_11 
DOCKED: REMARK    3  A    between atoms: C_11  and  C_12 
DOCKED: REMARK    4  A    between atoms: C_12  and  O_14 
DOCKED: REMARK    5  A    between atoms: C_17  and  C_20 
DOCKED: REMARK    6  A    between atoms: C_24  and  C_27 
DOCKED: REMARK    7  A    between atoms: C_31  and  C_34 
DOCKED: REMARK    8  A    between atoms: C_34  and  C_35 
DOCKED: REMARK    9  A    between atoms: C_35  and  C_36 
DOCKED: REMARK   10  A    between atoms: C_36  and  O_38 
DOCKED: USER                              x       y       z     vdW  Elec       q    Type
DOCKED: USER                           _______ _______ _______ _____ _____    ______ ____
DOCKED: ROOT
DOCKED: ATOM      1  C   UNL d   1      14.930   8.430   6.268 -0.08 +0.02    +0.064 C 
DOCKED: ATOM      2  C   UNL d   1      15.321  12.857   4.104 -0.11 +0.00    +0.064 A 
DOCKED: ATOM      3  C   UNL d   1      10.606  12.751   3.192 -0.32 -0.01    +0.064 C 
DOCKED: ATOM      4  C   UNL d   1      10.225   8.420   5.188 -0.28 +0.01    +0.064 C 
DOCKED: ATOM      5  C   UNL d   1      15.492   9.649   5.669 -0.07 +0.02    +0.066 A 
DOCKED: ATOM      6  C   UNL d   1      16.841   9.964   5.637 -0.07 -0.01    -0.021 A 
DOCKED: ATOM      7  C   UNL d   1      16.948  11.195   5.040 +0.09 -0.01    -0.025 A 
DOCKED: ATOM      8  C   UNL d   1      15.659  11.584   4.729 +0.04 +0.02    +0.066 A 
DOCKED: ATOM      9  C   UNL d   1      18.221  11.937   4.769 +0.06 +0.01    +0.051 C 
DOCKED: ATOM     10  C   UNL d   1      14.093  13.232   3.742 -0.13 -0.00    +0.066 A 
DOCKED: ATOM     11  C   UNL d   1      13.784  14.503   3.251 -0.10 +0.00    -0.021 A 
DOCKED: ATOM     12  C   UNL d   1      12.427  14.503   2.996 -0.16 -0.00    +0.000 A 
DOCKED: ATOM     13  C   UNL d   1      11.972  13.223   3.356 -0.20 -0.01    +0.070 A 
DOCKED: ATOM     14  C   UNL d   1      14.723  15.682   3.097 -0.08 -0.01    +0.052 C 
DOCKED: ATOM     15  C   UNL d   1      10.153  11.537   3.585 -0.25 -0.01    +0.066 A 
DOCKED: ATOM     16  C   UNL d   1       8.866  11.086   3.321 -0.42 +0.00    -0.021 A 
DOCKED: ATOM     17  C   UNL d   1       8.752   9.839   3.899 -0.28 +0.00    +0.000 A 
DOCKED: ATOM     18  C   UNL d   1       9.974   9.559   4.507 -0.26 +0.00    +0.070 A 
DOCKED: ATOM     19  C   UNL d   1       7.775  11.808   2.576 -0.37 -0.00    +0.052 C 
DOCKED: ATOM     20  C   UNL d   1      11.516   8.065   5.788 -0.16 +0.02    +0.066 A 
DOCKED: ATOM     21  C   UNL d   1      11.736   6.990   6.661 -0.16 -0.01    -0.025 A 
DOCKED: ATOM     22  C   UNL d   1      13.085   7.004   6.946 -0.09 -0.01    -0.021 A 
DOCKED: ATOM     23  C   UNL d   1      13.633   8.085   6.245 -0.07 +0.02    +0.066 A 
DOCKED: ATOM     24  C   UNL d   1      10.734   5.999   7.208 -0.11 +0.06    +0.051 C 
DOCKED: ATOM     25  N   UNL d   1      14.777  10.637   5.105 -0.07 -0.06    -0.248 N 
DOCKED: ATOM     26  N   UNL d   1      12.986  12.451   3.820 -0.10 +0.02    -0.248 N 
DOCKED: ATOM     27  N   UNL d   1      10.850  10.584   4.278 -0.16 +0.01    -0.248 N 
DOCKED: ATOM     28  N   UNL d   1      12.663   8.755   5.576 -0.06 -0.04    -0.248 N 
DOCKED: ATOM     29 FE   UNL d   1      12.823  10.602   4.698 -0.04 +0.00    +0.000 Fe
DOCKED: ENDROOT
DOCKED: BRANCH   6  30
DOCKED: ATOM     30  C   UNL d   1      17.974   9.130   6.129 -0.08 +0.01    +0.052 C 
DOCKED: BRANCH  30  31
DOCKED: ATOM     31  C   UNL d   1      18.000   7.781   5.419 -0.13 +0.05    +0.115 C 
DOCKED: BRANCH  31  32
DOCKED: ATOM     32  C   UNL d   1      18.674   7.905   4.080 -0.26 +0.11    +0.139 C 
DOCKED: ATOM     33  O   UNL d   1      19.797   8.383   3.989 -0.30 -0.67    -0.650 OA
DOCKED: BRANCH  32  34
DOCKED: ATOM     34  O   UNL d   1      18.046   7.490   2.967 -0.45 -0.73    -0.776 OA
DOCKED: ATOM     35  H   UNL d   1      17.209   7.907   2.718 -0.47 +0.06    +0.167 HD
DOCKED: ENDBRANCH  32  34
DOCKED: ENDBRANCH  31  32
DOCKED: ENDBRANCH  30  31
DOCKED: ENDBRANCH   6  30
DOCKED: BRANCH  22  36
DOCKED: ATOM     36  C   UNL d   1      13.797   6.060   7.880 -0.07 +0.03    +0.052 C 
DOCKED: BRANCH  36  37
DOCKED: ATOM     37  C   UNL d   1      14.019   4.724   7.188 -0.12 +0.06    +0.115 C 
DOCKED: BRANCH  37  38
DOCKED: ATOM     38  C   UNL d   1      12.946   3.739   7.562 -0.18 +0.14    +0.139 C 
DOCKED: ATOM     39  O   UNL d   1      12.699   3.500   8.734 -0.32 -1.15    -0.650 OA
DOCKED: BRANCH  38  40
DOCKED: ATOM     40  O   UNL d   1      12.249   3.109   6.600 -0.38 -0.71    -0.776 OA
DOCKED: ATOM     41  H   UNL d   1      12.610   2.300   6.211 +0.07 +0.10    +0.167 HD
DOCKED: ENDBRANCH  38  40
DOCKED: ENDBRANCH  37  38
DOCKED: ENDBRANCH  36  37
DOCKED: ENDBRANCH  22  36
DOCKED: BRANCH  12  42
DOCKED: ATOM     42  C   UNL d   1      11.656  15.670   2.465 -0.20 -0.00    +0.004 C 
DOCKED: ATOM     43  C   UNL d   1      10.846  15.537   1.407 -0.35 -0.00    +0.012 C 
DOCKED: ENDBRANCH  12  42
DOCKED: BRANCH  17  44
DOCKED: ATOM     44  C   UNL d   1       7.560   8.963   3.854 -0.44 +0.00    +0.004 C 
DOCKED: ATOM     45  C   UNL d   1       7.226   8.318   2.731 -0.53 +0.00    +0.012 C 
DOCKED: ENDBRANCH  17  44
DOCKED: TORSDOF 10
DOCKED: TER
DOCKED: ENDMDL
________________________________________________________________________________


	BEGINNING GENETIC ALGORITHM DOCKING 46 of 100
Run: 46 Seed: 1476456884 1094621096 [ Run 46 of 100 GA/GALS ]
Beginning LAMARCKIAN GENETIC ALGORITHM (LGA), with a maximum of 25000000 energy evaluations.

Final-Value: -11.606


	FINAL GENETIC ALGORITHM DOCKED STATE
	_______________________________________________


Detailed state:  trans 11.926 12.794 7.719 quatxyzw 0.582588 0.398072 -0.651291 0.279195 center -0.174 -0.001 -0.047 ntor 10 134.1869 138.3669 -163.0870 63.9811 162.7996 162.5833 86.3351 -13.5111 -180.0000 -166.1582
State:	 11.926  12.794   7.719   0.607  0.415 -0.678 147.576    134.19  138.37 -163.09   63.98  162.80  162.58   86.34  -13.51 -180.00 -166.16

DOCKED: MODEL       46
DOCKED: USER    Run = 46
DOCKED: USER    DPF = D:/Protein_go_brrr/autodock/final/mut_Y35F/heme_Fe/dock.dpf
DOCKED: USER  
DOCKED: USER    Estimated Free Energy of Binding    =   -8.01 kcal/mol  [=(1)+(2)+(3)-(4)]
DOCKED: USER    Estimated Inhibition Constant, Ki   =    1.35 uM (micromolar)  [Temperature = 298.15 K]
DOCKED: USER    
DOCKED: USER    (1) Final Intermolecular Energy     =  -10.99 kcal/mol
DOCKED: USER        vdW + Hbond + desolv Energy     =   -7.46 kcal/mol
DOCKED: USER        Electrostatic Energy            =   -3.53 kcal/mol
DOCKED: USER    (2) Final Total Internal Energy     =   -0.61 kcal/mol
DOCKED: USER    (3) Torsional Free Energy           =   +2.98 kcal/mol
DOCKED: USER    (4) Unbound System's Energy  [=(2)] =   -0.61 kcal/mol
DOCKED: USER    
DOCKED: USER    
DOCKED: USER    NEWDPF move heme_Fe_opt.pdbqt
DOCKED: USER    NEWDPF about -0.174000 -0.001000 -0.047000
DOCKED: USER    NEWDPF tran0 11.926110 12.794045 7.719027
DOCKED: USER    NEWDPF quaternion0 0.582588 0.398072 -0.651291 0.279195
DOCKED: USER    NEWDPF axisangle0 0.606715 0.414557 -0.678262 147.575612
DOCKED: USER    NEWDPF quat0 0.606715 0.414557 -0.678262 147.575612
DOCKED: USER    NEWDPF dihe0 134.19 138.37 -163.09 63.98 162.80 162.58 86.34 -13.51 -180.00 -166.16 
DOCKED: USER  keepresnum = 1 
DOCKED: USER  
DOCKED: REMARK  10 active torsions:
DOCKED: REMARK  status: ('A' for Active; 'I' for Inactive)
DOCKED: REMARK    1  A    between atoms: C_6  and  C_10 
DOCKED: REMARK    2  A    between atoms: C_10  and  C_11 
DOCKED: REMARK    3  A    between atoms: C_11  and  C_12 
DOCKED: REMARK    4  A    between atoms: C_12  and  O_14 
DOCKED: REMARK    5  A    between atoms: C_17  and  C_20 
DOCKED: REMARK    6  A    between atoms: C_24  and  C_27 
DOCKED: REMARK    7  A    between atoms: C_31  and  C_34 
DOCKED: REMARK    8  A    between atoms: C_34  and  C_35 
DOCKED: REMARK    9  A    between atoms: C_35  and  C_36 
DOCKED: REMARK   10  A    between atoms: C_36  and  O_38 
DOCKED: USER                              x       y       z     vdW  Elec       q    Type
DOCKED: USER                           _______ _______ _______ _____ _____    ______ ____
DOCKED: ROOT
DOCKED: ATOM      1  C   UNL d   1      11.726  11.083   8.834 -0.14 +0.01    +0.064 C 
DOCKED: ATOM      2  C   UNL d   1      10.979  15.895   9.679 -0.21 +0.01    +0.064 A 
DOCKED: ATOM      3  C   UNL d   1      11.163  16.685   4.945 -0.15 -0.01    +0.064 C 
DOCKED: ATOM      4  C   UNL d   1      11.991  12.047   4.112 -0.22 -0.01    +0.064 C 
DOCKED: ATOM      5  C   UNL d   1      11.582  12.377   9.516 -0.15 +0.01    +0.066 A 
DOCKED: ATOM      6  C   UNL d   1      11.602  12.552  10.890 -0.15 -0.01    -0.021 A 
DOCKED: ATOM      7  C   UNL d   1      11.391  13.889  11.124 -0.19 -0.01    -0.025 A 
DOCKED: ATOM      8  C   UNL d   1      11.250  14.478   9.883 -0.20 +0.02    +0.066 A 
DOCKED: ATOM      9  C   UNL d   1      11.348  14.554  12.466 -0.12 +0.05    +0.051 C 
DOCKED: ATOM     10  C   UNL d   1      10.896  16.499   8.493 -0.20 -0.00    +0.066 A 
DOCKED: ATOM     11  C   UNL d   1      10.522  17.835   8.327 -0.15 +0.00    -0.021 A 
DOCKED: ATOM     12  C   UNL d   1      10.551  18.083   6.969 -0.12 -0.00    +0.000 A 
DOCKED: ATOM     13  C   UNL d   1      10.937  16.871   6.370 -0.16 -0.01    +0.070 A 
DOCKED: ATOM     14  C   UNL d   1      10.092  18.809   9.405 -0.20 -0.00    +0.052 C 
DOCKED: ATOM     15  C   UNL d   1      11.484  15.508   4.358 -0.12 -0.01    +0.066 A 
DOCKED: ATOM     16  C   UNL d   1      11.790  15.392   3.008 -0.13 +0.00    -0.021 A 
DOCKED: ATOM     17  C   UNL d   1      12.025  14.054   2.765 -0.23 -0.00    +0.000 A 
DOCKED: ATOM     18  C   UNL d   1      11.854  13.384   3.974 -0.16 -0.01    +0.070 A 
DOCKED: ATOM     19  C   UNL d   1      11.834  16.489   1.979 -0.15 -0.02    +0.052 C 
DOCKED: ATOM     20  C   UNL d   1      11.879  11.316   5.379 -0.11 +0.00    +0.066 A 
DOCKED: ATOM     21  C   UNL d   1      11.820   9.921   5.507 -0.15 -0.00    -0.025 A 
DOCKED: ATOM     22  C   UNL d   1      11.757   9.668   6.861 -0.11 -0.00    -0.021 A 
DOCKED: ATOM     23  C   UNL d   1      11.774  10.912   7.504 -0.10 +0.01    +0.066 A 
DOCKED: ATOM     24  C   UNL d   1      11.818   8.873   4.418 -0.28 +0.00    +0.051 C 
DOCKED: ATOM     25  N   UNL d   1      11.376  13.557   8.906 -0.12 -0.04    -0.248 N 
DOCKED: ATOM     26  N   UNL d   1      11.139  15.903   7.297 -0.14 +0.03    -0.248 N 
DOCKED: ATOM     27  N   UNL d   1      11.564  14.282   4.963 -0.08 +0.02    -0.248 N 
DOCKED: ATOM     28  N   UNL d   1      11.803  11.914   6.592 -0.01 -0.02    -0.248 N 
DOCKED: ATOM     29 FE   UNL d   1      11.471  13.908   6.943 -0.04 +0.00    +0.000 Fe
DOCKED: ENDROOT
DOCKED: BRANCH   6  30
DOCKED: ATOM     30  C   UNL d   1      11.832  11.509  11.930 -0.11 +0.02    +0.052 C 
DOCKED: BRANCH  30  31
DOCKED: ATOM     31  C   UNL d   1      10.511  10.889  12.374 -0.15 +0.06    +0.115 C 
DOCKED: BRANCH  31  32
DOCKED: ATOM     32  C   UNL d   1       9.980  11.598  13.589 -0.06 +0.17    +0.139 C 
DOCKED: ATOM     33  O   UNL d   1       8.808  11.478  13.918 -0.59 -0.94    -0.650 OA
DOCKED: BRANCH  32  34
DOCKED: ATOM     34  O   UNL d   1      10.792  12.372  14.327 -0.07 -1.22    -0.776 OA
DOCKED: ATOM     35  H   UNL d   1      11.669  12.040  14.565 +0.01 +0.14    +0.167 HD
DOCKED: ENDBRANCH  32  34
DOCKED: ENDBRANCH  31  32
DOCKED: ENDBRANCH  30  31
DOCKED: ENDBRANCH   6  30
DOCKED: BRANCH  22  36
DOCKED: ATOM     36  C   UNL d   1      11.639   8.308   7.498 -0.11 +0.02    +0.052 C 
DOCKED: BRANCH  36  37
DOCKED: ATOM     37  C   UNL d   1      10.265   7.723   7.206 -0.19 +0.05    +0.115 C 
DOCKED: BRANCH  37  38
DOCKED: ATOM     38  C   UNL d   1      10.228   6.253   7.516 -0.03 +0.17    +0.139 C 
DOCKED: ATOM     39  O   UNL d   1       9.163   5.670   7.655 -0.39 -0.93    -0.650 OA
DOCKED: BRANCH  38  40
DOCKED: ATOM     40  O   UNL d   1      11.377   5.566   7.647 -0.37 -1.22    -0.776 OA
DOCKED: ATOM     41  H   UNL d   1      12.099   5.735   7.026 +0.04 +0.14    +0.167 HD
DOCKED: ENDBRANCH  38  40
DOCKED: ENDBRANCH  37  38
DOCKED: ENDBRANCH  36  37
DOCKED: ENDBRANCH  22  36
DOCKED: BRANCH  12  42
DOCKED: ATOM     42  C   UNL d   1      10.209  19.391   6.330 -0.16 -0.00    +0.004 C 
DOCKED: ATOM     43  C   UNL d   1       9.149  19.506   5.520 -0.22 -0.00    +0.012 C 
DOCKED: ENDBRANCH  12  42
DOCKED: BRANCH  17  44
DOCKED: ATOM     44  C   UNL d   1      12.410  13.460   1.465 -0.28 -0.00    +0.004 C 
DOCKED: ATOM     45  C   UNL d   1      13.581  12.831   1.319 -0.51 -0.00    +0.012 C 
DOCKED: ENDBRANCH  17  44
DOCKED: TORSDOF 10
DOCKED: TER
DOCKED: ENDMDL
________________________________________________________________________________


	BEGINNING GENETIC ALGORITHM DOCKING 47 of 100
Run: 47 Seed: 687244094 532683546 [ Run 47 of 100 GA/GALS ]
Beginning LAMARCKIAN GENETIC ALGORITHM (LGA), with a maximum of 25000000 energy evaluations.

Final-Value: -11.293


	FINAL GENETIC ALGORITHM DOCKED STATE
	_______________________________________________


Detailed state:  trans 20.663 -2.138 -8.091 quatxyzw 0.572716 0.549202 0.283997 -0.538256 center -0.174 -0.001 -0.047 ntor 10 74.0711 93.1589 9.5161 30.3429 -41.5053 -69.3833 92.3533 123.1639 14.9572 9.2067
State:	 20.663  -2.138  -8.091   0.680  0.652  0.337 -114.870     74.07   93.16    9.52   30.34  -41.51  -69.38   92.35  123.16   14.96    9.21

DOCKED: MODEL       47
DOCKED: USER    Run = 47
DOCKED: USER    DPF = D:/Protein_go_brrr/autodock/final/mut_Y35F/heme_Fe/dock.dpf
DOCKED: USER  
DOCKED: USER    Estimated Free Energy of Binding    =   -7.73 kcal/mol  [=(1)+(2)+(3)-(4)]
DOCKED: USER    Estimated Inhibition Constant, Ki   =    2.15 uM (micromolar)  [Temperature = 298.15 K]
DOCKED: USER    
DOCKED: USER    (1) Final Intermolecular Energy     =  -10.71 kcal/mol
DOCKED: USER        vdW + Hbond + desolv Energy     =   -8.20 kcal/mol
DOCKED: USER        Electrostatic Energy            =   -2.52 kcal/mol
DOCKED: USER    (2) Final Total Internal Energy     =   -0.58 kcal/mol
DOCKED: USER    (3) Torsional Free Energy           =   +2.98 kcal/mol
DOCKED: USER    (4) Unbound System's Energy  [=(2)] =   -0.58 kcal/mol
DOCKED: USER    
DOCKED: USER    
DOCKED: USER    NEWDPF move heme_Fe_opt.pdbqt
DOCKED: USER    NEWDPF about -0.174000 -0.001000 -0.047000
DOCKED: USER    NEWDPF tran0 20.663386 -2.138450 -8.091185
DOCKED: USER    NEWDPF quaternion0 0.572716 0.549202 0.283997 -0.538256
DOCKED: USER    NEWDPF axisangle0 0.679554 0.651654 0.336975 -114.870059
DOCKED: USER    NEWDPF quat0 0.679554 0.651654 0.336975 -114.870059
DOCKED: USER    NEWDPF dihe0 74.07 93.16 9.52 30.34 -41.51 -69.38 92.35 123.16 14.96 9.21 
DOCKED: USER  keepresnum = 1 
DOCKED: USER  
DOCKED: REMARK  10 active torsions:
DOCKED: REMARK  status: ('A' for Active; 'I' for Inactive)
DOCKED: REMARK    1  A    between atoms: C_6  and  C_10 
DOCKED: REMARK    2  A    between atoms: C_10  and  C_11 
DOCKED: REMARK    3  A    between atoms: C_11  and  C_12 
DOCKED: REMARK    4  A    between atoms: C_12  and  O_14 
DOCKED: REMARK    5  A    between atoms: C_17  and  C_20 
DOCKED: REMARK    6  A    between atoms: C_24  and  C_27 
DOCKED: REMARK    7  A    between atoms: C_31  and  C_34 
DOCKED: REMARK    8  A    between atoms: C_34  and  C_35 
DOCKED: REMARK    9  A    between atoms: C_35  and  C_36 
DOCKED: REMARK   10  A    between atoms: C_36  and  O_38 
DOCKED: USER                              x       y       z     vdW  Elec       q    Type
DOCKED: USER                           _______ _______ _______ _____ _____    ______ ____
DOCKED: ROOT
DOCKED: ATOM      1  C   UNL d   1      20.665  -4.163  -7.757 -0.14 +0.01    +0.064 C 
DOCKED: ATOM      2  C   UNL d   1      20.272  -1.298 -11.765 -0.19 -0.02    +0.064 A 
DOCKED: ATOM      3  C   UNL d   1      21.857   2.424  -9.175 -0.23 -0.03    +0.064 C 
DOCKED: ATOM      4  C   UNL d   1      22.144  -0.307  -5.258 -0.20 +0.00    +0.064 C 
DOCKED: ATOM      5  C   UNL d   1      20.328  -3.683  -9.104 -0.11 +0.01    +0.066 A 
DOCKED: ATOM      6  C   UNL d   1      19.740  -4.453 -10.094 -0.10 -0.00    -0.021 A 
DOCKED: ATOM      7  C   UNL d   1      19.635  -3.657 -11.208 -0.15 +0.00    -0.025 A 
DOCKED: ATOM      8  C   UNL d   1      20.163  -2.431 -10.855 -0.18 -0.01    +0.066 A 
DOCKED: ATOM      9  C   UNL d   1      19.042  -4.056 -12.525 -0.16 -0.02    +0.051 C 
DOCKED: ATOM     10  C   UNL d   1      20.725  -0.087 -11.434 -0.22 -0.02    +0.066 A 
DOCKED: ATOM     11  C   UNL d   1      20.925   0.944 -12.355 -0.23 +0.01    -0.021 A 
DOCKED: ATOM     12  C   UNL d   1      21.398   2.024 -11.635 -0.17 -0.00    +0.000 A 
DOCKED: ATOM     13  C   UNL d   1      21.470   1.588 -10.301 -0.15 -0.02    +0.070 A 
DOCKED: ATOM     14  C   UNL d   1      20.740   0.883 -13.857 -0.26 -0.02    +0.052 C 
DOCKED: ATOM     15  C   UNL d   1      21.978   1.995  -7.896 -0.17 -0.02    +0.066 A 
DOCKED: ATOM     16  C   UNL d   1      22.252   2.847  -6.834 -0.19 +0.00    -0.021 A 
DOCKED: ATOM     17  C   UNL d   1      22.339   2.061  -5.703 -0.18 -0.00    +0.000 A 
DOCKED: ATOM     18  C   UNL d   1      22.119   0.745  -6.105 -0.18 -0.00    +0.070 A 
DOCKED: ATOM     19  C   UNL d   1      22.451   4.338  -6.880 -0.18 -0.01    +0.052 C 
DOCKED: ATOM     20  C   UNL d   1      21.857  -1.697  -5.633 -0.17 -0.00    +0.066 A 
DOCKED: ATOM     21  C   UNL d   1      22.073  -2.817  -4.818 -0.18 -0.00    -0.025 A 
DOCKED: ATOM     22  C   UNL d   1      21.633  -3.904  -5.545 -0.14 -0.00    -0.021 A 
DOCKED: ATOM     23  C   UNL d   1      21.174  -3.407  -6.771 -0.11 +0.01    +0.066 A 
DOCKED: ATOM     24  C   UNL d   1      22.666  -2.873  -3.429 -0.16 +0.01    +0.051 C 
DOCKED: ATOM     25  N   UNL d   1      20.575  -2.446  -9.571 -0.11 +0.01    -0.248 N 
DOCKED: ATOM     26  N   UNL d   1      21.068   0.299 -10.179 -0.16 +0.06    -0.248 N 
DOCKED: ATOM     27  N   UNL d   1      21.854   0.709  -7.445 -0.10 +0.03    -0.248 N 
DOCKED: ATOM     28  N   UNL d   1      21.355  -2.066  -6.836 -0.10 +0.00    -0.248 N 
DOCKED: ATOM     29 FE   UNL d   1      21.212  -0.883  -8.506 -0.05 -0.00    +0.000 Fe
DOCKED: ENDROOT
DOCKED: BRANCH   6  30
DOCKED: ATOM     30  C   UNL d   1      19.281  -5.866  -9.984 -0.06 +0.00    +0.052 C 
DOCKED: BRANCH  30  31
DOCKED: ATOM     31  C   UNL d   1      17.762  -5.934  -9.874 -0.10 +0.02    +0.115 C 
DOCKED: BRANCH  31  32
DOCKED: ATOM     32  C   UNL d   1      17.332  -5.820  -8.438 -0.16 +0.11    +0.139 C 
DOCKED: ATOM     33  O   UNL d   1      17.942  -6.408  -7.556 -0.28 -0.84    -0.650 OA
DOCKED: BRANCH  32  34
DOCKED: ATOM     34  O   UNL d   1      16.268  -5.068  -8.109 -0.47 -0.74    -0.776 OA
DOCKED: ATOM     35  H   UNL d   1      16.412  -4.215  -7.677 -0.32 +0.14    +0.167 HD
DOCKED: ENDBRANCH  32  34
DOCKED: ENDBRANCH  31  32
DOCKED: ENDBRANCH  30  31
DOCKED: ENDBRANCH   6  30
DOCKED: BRANCH  22  36
DOCKED: ATOM     36  C   UNL d   1      21.696  -5.342  -5.103 -0.08 +0.01    +0.052 C 
DOCKED: BRANCH  36  37
DOCKED: ATOM     37  C   UNL d   1      20.304  -5.826  -4.728 -0.14 +0.08    +0.115 C 
DOCKED: BRANCH  37  38
DOCKED: ATOM     38  C   UNL d   1      19.710  -4.970  -3.645 -0.19 +0.12    +0.139 C 
DOCKED: ATOM     39  O   UNL d   1      20.157  -5.001  -2.508 -0.03 -0.29    -0.650 OA
DOCKED: BRANCH  38  40
DOCKED: ATOM     40  O   UNL d   1      18.671  -4.162  -3.922 -0.27 -1.17    -0.776 OA
DOCKED: ATOM     41  H   UNL d   1      18.844  -3.271  -4.257 -0.38 +0.06    +0.167 HD
DOCKED: ENDBRANCH  38  40
DOCKED: ENDBRANCH  37  38
DOCKED: ENDBRANCH  36  37
DOCKED: ENDBRANCH  22  36
DOCKED: BRANCH  12  42
DOCKED: ATOM     42  C   UNL d   1      21.760   3.351 -12.222 -0.22 -0.00    +0.004 C 
DOCKED: ATOM     43  C   UNL d   1      20.866   4.063 -12.920 -0.25 -0.01    +0.012 C 
DOCKED: ENDBRANCH  12  42
DOCKED: BRANCH  17  44
DOCKED: ATOM     44  C   UNL d   1      22.596   2.540  -4.326 -0.21 +0.00    +0.004 C 
DOCKED: ATOM     45  C   UNL d   1      21.596   2.990  -3.561 -0.38 +0.00    +0.012 C 
DOCKED: ENDBRANCH  17  44
DOCKED: TORSDOF 10
DOCKED: TER
DOCKED: ENDMDL
________________________________________________________________________________


	BEGINNING GENETIC ALGORITHM DOCKING 48 of 100
Run: 48 Seed: 153509067 1040276344 [ Run 48 of 100 GA/GALS ]
Beginning LAMARCKIAN GENETIC ALGORITHM (LGA), with a maximum of 25000000 energy evaluations.

Final-Value: -13.170


	FINAL GENETIC ALGORITHM DOCKED STATE
	_______________________________________________


Detailed state:  trans 7.279 7.366 5.748 quatxyzw 0.227067 -0.778416 0.500461 0.303395 center -0.174 -0.001 -0.047 ntor 10 166.6128 -100.8927 76.3260 -127.4416 15.9141 -130.9313 114.5016 46.1020 -135.0885 179.9989
State:	  7.279   7.366   5.748   0.238 -0.817  0.525 144.677    166.61 -100.89   76.33 -127.44   15.91 -130.93  114.50   46.10 -135.09  180.00

DOCKED: MODEL       48
DOCKED: USER    Run = 48
DOCKED: USER    DPF = D:/Protein_go_brrr/autodock/final/mut_Y35F/heme_Fe/dock.dpf
DOCKED: USER  
DOCKED: USER    Estimated Free Energy of Binding    =   -8.65 kcal/mol  [=(1)+(2)+(3)-(4)]
DOCKED: USER    Estimated Inhibition Constant, Ki   =  458.64 nM (nanomolar)  [Temperature = 298.15 K]
DOCKED: USER    
DOCKED: USER    (1) Final Intermolecular Energy     =  -11.63 kcal/mol
DOCKED: USER        vdW + Hbond + desolv Energy     =  -10.13 kcal/mol
DOCKED: USER        Electrostatic Energy            =   -1.50 kcal/mol
DOCKED: USER    (2) Final Total Internal Energy     =   -1.54 kcal/mol
DOCKED: USER    (3) Torsional Free Energy           =   +2.98 kcal/mol
DOCKED: USER    (4) Unbound System's Energy  [=(2)] =   -1.54 kcal/mol
DOCKED: USER    
DOCKED: USER    
DOCKED: USER    NEWDPF move heme_Fe_opt.pdbqt
DOCKED: USER    NEWDPF about -0.174000 -0.001000 -0.047000
DOCKED: USER    NEWDPF tran0 7.278525 7.365795 5.748444
DOCKED: USER    NEWDPF quaternion0 0.227067 -0.778416 0.500461 0.303395
DOCKED: USER    NEWDPF axisangle0 0.238299 -0.816921 0.525218 144.676772
DOCKED: USER    NEWDPF quat0 0.238299 -0.816921 0.525218 144.676772
DOCKED: USER    NEWDPF dihe0 166.61 -100.89 76.33 -127.44 15.91 -130.93 114.50 46.10 -135.09 180.00 
DOCKED: USER  keepresnum = 1 
DOCKED: USER  
DOCKED: REMARK  10 active torsions:
DOCKED: REMARK  status: ('A' for Active; 'I' for Inactive)
DOCKED: REMARK    1  A    between atoms: C_6  and  C_10 
DOCKED: REMARK    2  A    between atoms: C_10  and  C_11 
DOCKED: REMARK    3  A    between atoms: C_11  and  C_12 
DOCKED: REMARK    4  A    between atoms: C_12  and  O_14 
DOCKED: REMARK    5  A    between atoms: C_17  and  C_20 
DOCKED: REMARK    6  A    between atoms: C_24  and  C_27 
DOCKED: REMARK    7  A    between atoms: C_31  and  C_34 
DOCKED: REMARK    8  A    between atoms: C_34  and  C_35 
DOCKED: REMARK    9  A    between atoms: C_35  and  C_36 
DOCKED: REMARK   10  A    between atoms: C_36  and  O_38 
DOCKED: USER                              x       y       z     vdW  Elec       q    Type
DOCKED: USER                           _______ _______ _______ _____ _____    ______ ____
DOCKED: ROOT
DOCKED: ATOM      1  C   UNL d   1       9.066   8.303   6.120 -0.23 +0.01    +0.064 C 
DOCKED: ATOM      2  C   UNL d   1       6.493   4.711   8.335 -0.15 +0.03    +0.064 A 
DOCKED: ATOM      3  C   UNL d   1       3.812   4.283   4.373 -0.41 +0.01    +0.064 C 
DOCKED: ATOM      4  C   UNL d   1       6.221   7.829   2.250 -0.46 +0.01    +0.064 C 
DOCKED: ATOM      5  C   UNL d   1       8.536   7.389   7.142 -0.28 +0.03    +0.066 A 
DOCKED: ATOM      6  C   UNL d   1       8.989   7.316   8.449 -0.20 -0.01    -0.021 A 
DOCKED: ATOM      7  C   UNL d   1       8.276   6.315   9.062 -0.16 -0.03    -0.025 A 
DOCKED: ATOM      8  C   UNL d   1       7.415   5.816   8.105 -0.32 +0.04    +0.066 A 
DOCKED: ATOM      9  C   UNL d   1       8.409   5.885  10.491 +0.37 +0.07    +0.051 C 
DOCKED: ATOM     10  C   UNL d   1       5.611   4.248   7.447 -0.32 +0.02    +0.066 A 
DOCKED: ATOM     11  C   UNL d   1       4.822   3.115   7.657 -0.38 -0.00    -0.021 A 
DOCKED: ATOM     12  C   UNL d   1       4.051   2.960   6.522 -0.47 +0.00    +0.000 A 
DOCKED: ATOM     13  C   UNL d   1       4.420   4.013   5.666 -0.37 +0.01    +0.070 A 
DOCKED: ATOM     14  C   UNL d   1       4.849   2.185   8.853 +0.47 +0.01    +0.052 C 
DOCKED: ATOM     15  C   UNL d   1       4.199   5.263   3.523 -0.37 +0.01    +0.066 A 
DOCKED: ATOM     16  C   UNL d   1       3.528   5.552   2.342 -0.40 -0.00    -0.021 A 
DOCKED: ATOM     17  C   UNL d   1       4.223   6.572   1.726 -0.43 +0.00    +0.000 A 
DOCKED: ATOM     18  C   UNL d   1       5.307   6.879   2.546 -0.36 +0.01    +0.070 A 
DOCKED: ATOM     19  C   UNL d   1       2.296   4.881   1.798 -0.14 +0.00    +0.052 C 
DOCKED: ATOM     20  C   UNL d   1       7.338   8.221   3.117 -0.42 +0.01    +0.066 A 
DOCKED: ATOM     21  C   UNL d   1       8.401   9.055   2.740 -0.48 -0.00    -0.025 A 
DOCKED: ATOM     22  C   UNL d   1       9.193   9.186   3.862 -0.39 -0.00    -0.021 A 
DOCKED: ATOM     23  C   UNL d   1       8.589   8.428   4.872 -0.25 +0.01    +0.066 A 
DOCKED: ATOM     24  C   UNL d   1       8.669   9.694   1.398 +0.10 -0.00    +0.051 C 
DOCKED: ATOM     25  N   UNL d   1       7.568   6.478   6.940 -0.23 -0.11    -0.248 N 
DOCKED: ATOM     26  N   UNL d   1       5.378   4.793   6.226 -0.22 -0.05    -0.248 N 
DOCKED: ATOM     27  N   UNL d   1       5.268   6.105   3.672 -0.06 -0.08    -0.248 N 
DOCKED: ATOM     28  N   UNL d   1       7.482   7.805   4.398 -0.25 -0.05    -0.248 N 
DOCKED: ATOM     29 FE   UNL d   1       6.430   6.300   5.310 -0.09 +0.00    +0.000 Fe
DOCKED: ENDROOT
DOCKED: BRANCH   6  30
DOCKED: ATOM     30  C   UNL d   1      10.031   8.167   9.091 -0.20 +0.03    +0.052 C 
DOCKED: BRANCH  30  31
DOCKED: ATOM     31  C   UNL d   1      11.249   8.304   8.185 -0.11 +0.05    +0.115 C 
DOCKED: BRANCH  31  32
DOCKED: ATOM     32  C   UNL d   1      11.928   6.974   8.010 -0.11 +0.10    +0.139 C 
DOCKED: ATOM     33  O   UNL d   1      11.352   5.937   8.306 -0.16 -1.12    -0.650 OA
DOCKED: BRANCH  32  34
DOCKED: ATOM     34  O   UNL d   1      13.179   6.914   7.524 +0.06 -0.36    -0.776 OA
DOCKED: ATOM     35  H   UNL d   1      13.561   7.701   7.111 +0.03 +0.05    +0.167 HD
DOCKED: ENDBRANCH  32  34
DOCKED: ENDBRANCH  31  32
DOCKED: ENDBRANCH  30  31
DOCKED: ENDBRANCH   6  30
DOCKED: BRANCH  22  36
DOCKED: ATOM     36  C   UNL d   1      10.483   9.959   3.942 -0.35 -0.00    +0.052 C 
DOCKED: BRANCH  36  37
DOCKED: ATOM     37  C   UNL d   1      11.629   9.101   3.425 -0.37 -0.00    +0.115 C 
DOCKED: BRANCH  37  38
DOCKED: ATOM     38  C   UNL d   1      12.819   9.183   4.338 -0.22 +0.01    +0.139 C 
DOCKED: ATOM     39  O   UNL d   1      13.935   9.404   3.892 -0.02 -0.11    -0.650 OA
DOCKED: BRANCH  38  40
DOCKED: ATOM     40  O   UNL d   1      12.662   9.010   5.663 +0.10 -0.13    -0.776 OA
DOCKED: ATOM     41  H   UNL d   1      12.573   8.112   6.012 +0.05 +0.04    +0.167 HD
DOCKED: ENDBRANCH  38  40
DOCKED: ENDBRANCH  37  38
DOCKED: ENDBRANCH  36  37
DOCKED: ENDBRANCH  22  36
DOCKED: BRANCH  12  42
DOCKED: ATOM     42  C   UNL d   1       3.060   1.862   6.303 -0.16 +0.00    +0.004 C 
DOCKED: ATOM     43  C   UNL d   1       1.782   2.135   6.010 -0.63 -0.00    +0.012 C 
DOCKED: ENDBRANCH  12  42
DOCKED: BRANCH  17  44
DOCKED: ATOM     44  C   UNL d   1       3.862   7.225   0.447 -0.56 +0.00    +0.004 C 
DOCKED: ATOM     45  C   UNL d   1       4.039   6.593  -0.717 -0.58 +0.00    +0.012 C 
DOCKED: ENDBRANCH  17  44
DOCKED: TORSDOF 10
DOCKED: TER
DOCKED: ENDMDL
________________________________________________________________________________


	BEGINNING GENETIC ALGORITHM DOCKING 49 of 100
Run: 49 Seed: 1257307591 661154811 [ Run 49 of 100 GA/GALS ]
Beginning LAMARCKIAN GENETIC ALGORITHM (LGA), with a maximum of 25000000 energy evaluations.

Final-Value: -11.594


	FINAL GENETIC ALGORITHM DOCKED STATE
	_______________________________________________


Detailed state:  trans 11.916 12.854 7.752 quatxyzw -0.574436 -0.408580 0.650432 -0.282885 center -0.174 -0.001 -0.047 ntor 10 134.5626 130.3659 -169.6072 54.2166 158.3727 174.2089 89.1873 -16.3627 179.4380 -178.7331
State:	 11.916  12.854   7.752  -0.599 -0.426  0.678 -147.135    134.56  130.37 -169.61   54.22  158.37  174.21   89.19  -16.36  179.44 -178.73

DOCKED: MODEL       49
DOCKED: USER    Run = 49
DOCKED: USER    DPF = D:/Protein_go_brrr/autodock/final/mut_Y35F/heme_Fe/dock.dpf
DOCKED: USER  
DOCKED: USER    Estimated Free Energy of Binding    =   -7.98 kcal/mol  [=(1)+(2)+(3)-(4)]
DOCKED: USER    Estimated Inhibition Constant, Ki   =    1.41 uM (micromolar)  [Temperature = 298.15 K]
DOCKED: USER    
DOCKED: USER    (1) Final Intermolecular Energy     =  -10.97 kcal/mol
DOCKED: USER        vdW + Hbond + desolv Energy     =   -7.60 kcal/mol
DOCKED: USER        Electrostatic Energy            =   -3.37 kcal/mol
DOCKED: USER    (2) Final Total Internal Energy     =   -0.63 kcal/mol
DOCKED: USER    (3) Torsional Free Energy           =   +2.98 kcal/mol
DOCKED: USER    (4) Unbound System's Energy  [=(2)] =   -0.63 kcal/mol
DOCKED: USER    
DOCKED: USER    
DOCKED: USER    NEWDPF move heme_Fe_opt.pdbqt
DOCKED: USER    NEWDPF about -0.174000 -0.001000 -0.047000
DOCKED: USER    NEWDPF tran0 11.916418 12.854273 7.752416
DOCKED: USER    NEWDPF quaternion0 -0.574436 -0.408580 0.650432 -0.282885
DOCKED: USER    NEWDPF axisangle0 -0.598898 -0.425979 0.678131 -147.135107
DOCKED: USER    NEWDPF quat0 -0.598898 -0.425979 0.678131 -147.135107
DOCKED: USER    NEWDPF dihe0 134.56 130.37 -169.61 54.22 158.37 174.21 89.19 -16.36 179.44 -178.73 
DOCKED: USER  keepresnum = 1 
DOCKED: USER  
DOCKED: REMARK  10 active torsions:
DOCKED: REMARK  status: ('A' for Active; 'I' for Inactive)
DOCKED: REMARK    1  A    between atoms: C_6  and  C_10 
DOCKED: REMARK    2  A    between atoms: C_10  and  C_11 
DOCKED: REMARK    3  A    between atoms: C_11  and  C_12 
DOCKED: REMARK    4  A    between atoms: C_12  and  O_14 
DOCKED: REMARK    5  A    between atoms: C_17  and  C_20 
DOCKED: REMARK    6  A    between atoms: C_24  and  C_27 
DOCKED: REMARK    7  A    between atoms: C_31  and  C_34 
DOCKED: REMARK    8  A    between atoms: C_34  and  C_35 
DOCKED: REMARK    9  A    between atoms: C_35  and  C_36 
DOCKED: REMARK   10  A    between atoms: C_36  and  O_38 
DOCKED: USER                              x       y       z     vdW  Elec       q    Type
DOCKED: USER                           _______ _______ _______ _____ _____    ______ ____
DOCKED: ROOT
DOCKED: ATOM      1  C   UNL d   1      11.746  11.115   8.829 -0.14 +0.01    +0.064 C 
DOCKED: ATOM      2  C   UNL d   1      10.942  15.896   9.791 -0.21 +0.01    +0.064 A 
DOCKED: ATOM      3  C   UNL d   1      11.083  16.798   5.075 -0.16 -0.01    +0.064 C 
DOCKED: ATOM      4  C   UNL d   1      11.967  12.192   4.128 -0.21 -0.01    +0.064 C 
DOCKED: ATOM      5  C   UNL d   1      11.590  12.391   9.542 -0.15 +0.01    +0.066 A 
DOCKED: ATOM      6  C   UNL d   1      11.617  12.535  10.919 -0.15 -0.01    -0.021 A 
DOCKED: ATOM      7  C   UNL d   1      11.390  13.862  11.186 -0.19 -0.01    -0.025 A 
DOCKED: ATOM      8  C   UNL d   1      11.233  14.478   9.959 -0.20 +0.02    +0.066 A 
DOCKED: ATOM      9  C   UNL d   1      11.348  14.496  12.542 -0.11 +0.05    +0.051 C 
DOCKED: ATOM     10  C   UNL d   1      10.842  16.526   8.619 -0.19 -0.00    +0.066 A 
DOCKED: ATOM     11  C   UNL d   1      10.450  17.860   8.487 -0.16 +0.00    -0.021 A 
DOCKED: ATOM     12  C   UNL d   1      10.466  18.140   7.135 -0.12 -0.00    +0.000 A 
DOCKED: ATOM     13  C   UNL d   1      10.864  16.948   6.505 -0.14 -0.01    +0.070 A 
DOCKED: ATOM     14  C   UNL d   1      10.013  18.803   9.589 -0.20 -0.00    +0.052 C 
DOCKED: ATOM     15  C   UNL d   1      11.415  15.639   4.459 -0.13 -0.01    +0.066 A 
DOCKED: ATOM     16  C   UNL d   1      11.713  15.558   3.104 -0.12 +0.00    -0.021 A 
DOCKED: ATOM     17  C   UNL d   1      11.965  14.230   2.828 -0.22 -0.00    +0.000 A 
DOCKED: ATOM     18  C   UNL d   1      11.811  13.530   4.022 -0.16 -0.01    +0.070 A 
DOCKED: ATOM     19  C   UNL d   1      11.736  16.680   2.101 -0.13 -0.02    +0.052 C 
DOCKED: ATOM     20  C   UNL d   1      11.873  11.430   5.379 -0.11 +0.00    +0.066 A 
DOCKED: ATOM     21  C   UNL d   1      11.833  10.032   5.475 -0.15 -0.00    -0.025 A 
DOCKED: ATOM     22  C   UNL d   1      11.784   9.747   6.823 -0.11 -0.00    -0.021 A 
DOCKED: ATOM     23  C   UNL d   1      11.788  10.975   7.494 -0.10 +0.01    +0.066 A 
DOCKED: ATOM     24  C   UNL d   1      11.838   9.010   4.361 -0.28 +0.00    +0.051 C 
DOCKED: ATOM     25  N   UNL d   1      11.365  13.582   8.961 -0.12 -0.04    -0.248 N 
DOCKED: ATOM     26  N   UNL d   1      11.085  15.961   7.408 -0.14 +0.03    -0.248 N 
DOCKED: ATOM     27  N   UNL d   1      11.516  14.401   5.034 -0.08 +0.02    -0.248 N 
DOCKED: ATOM     28  N   UNL d   1      11.797  11.999   6.607 +0.00 -0.02    -0.248 N 
DOCKED: ATOM     29 FE   UNL d   1      11.441  13.979   7.006 -0.04 +0.00    +0.000 Fe
DOCKED: ENDROOT
DOCKED: BRANCH   6  30
DOCKED: ATOM     30  C   UNL d   1      11.868  11.471  11.932 -0.10 +0.02    +0.052 C 
DOCKED: BRANCH  30  31
DOCKED: ATOM     31  C   UNL d   1      10.558  10.833  12.381 -0.15 +0.06    +0.115 C 
DOCKED: BRANCH  31  32
DOCKED: ATOM     32  C   UNL d   1      10.003  11.555  13.577 -0.10 +0.16    +0.139 C 
DOCKED: ATOM     33  O   UNL d   1       8.814  11.482  13.854 -0.57 -0.93    -0.650 OA
DOCKED: BRANCH  32  34
DOCKED: ATOM     34  O   UNL d   1      10.813  12.292  14.356 -0.07 -1.16    -0.776 OA
DOCKED: ATOM     35  H   UNL d   1      11.667  11.925  14.625 +0.01 +0.13    +0.167 HD
DOCKED: ENDBRANCH  32  34
DOCKED: ENDBRANCH  31  32
DOCKED: ENDBRANCH  30  31
DOCKED: ENDBRANCH   6  30
DOCKED: BRANCH  22  36
DOCKED: ATOM     36  C   UNL d   1      11.687   8.371   7.429 -0.11 +0.02    +0.052 C 
DOCKED: BRANCH  36  37
DOCKED: ATOM     37  C   UNL d   1      10.240   7.901   7.408 -0.19 +0.05    +0.115 C 
DOCKED: BRANCH  37  38
DOCKED: ATOM     38  C   UNL d   1      10.154   6.414   7.605 -0.10 +0.16    +0.139 C 
DOCKED: ATOM     39  O   UNL d   1       9.071   5.861   7.725 -0.33 -0.84    -0.650 OA
DOCKED: BRANCH  38  40
DOCKED: ATOM     40  O   UNL d   1      11.278   5.677   7.655 -0.41 -1.20    -0.776 OA
DOCKED: ATOM     41  H   UNL d   1      11.943   5.786   6.961 +0.04 +0.14    +0.167 HD
DOCKED: ENDBRANCH  38  40
DOCKED: ENDBRANCH  37  38
DOCKED: ENDBRANCH  36  37
DOCKED: ENDBRANCH  22  36
DOCKED: BRANCH  12  42
DOCKED: ATOM     42  C   UNL d   1      10.102  19.458   6.529 -0.17 -0.00    +0.004 C 
DOCKED: ATOM     43  C   UNL d   1       9.115  19.554   5.628 -0.22 -0.00    +0.012 C 
DOCKED: ENDBRANCH  12  42
DOCKED: BRANCH  17  44
DOCKED: ATOM     44  C   UNL d   1      12.348  13.671   1.512 -0.39 -0.00    +0.004 C 
DOCKED: ATOM     45  C   UNL d   1      13.593  13.237   1.289 -0.51 -0.00    +0.012 C 
DOCKED: ENDBRANCH  17  44
DOCKED: TORSDOF 10
DOCKED: TER
DOCKED: ENDMDL
________________________________________________________________________________


	BEGINNING GENETIC ALGORITHM DOCKING 50 of 100
Run: 50 Seed: 1514839654 2089480777 [ Run 50 of 100 GA/GALS ]
Beginning LAMARCKIAN GENETIC ALGORITHM (LGA), with a maximum of 25000000 energy evaluations.

Final-Value: -10.755


	FINAL GENETIC ALGORITHM DOCKED STATE
	_______________________________________________


Detailed state:  trans -13.662 7.757 14.009 quatxyzw 0.753579 0.585040 0.192292 -0.229935 center -0.174 -0.001 -0.047 ntor 10 -147.7858 -173.7147 -163.9985 -154.7909 -86.9734 -128.6727 161.4050 65.7880 -166.7717 -179.7289
State:	-13.662   7.757  14.009   0.774  0.601  0.198 -153.413   -147.79 -173.71 -164.00 -154.79  -86.97 -128.67  161.40   65.79 -166.77 -179.73

DOCKED: MODEL       50
DOCKED: USER    Run = 50
DOCKED: USER    DPF = D:/Protein_go_brrr/autodock/final/mut_Y35F/heme_Fe/dock.dpf
DOCKED: USER  
DOCKED: USER    Estimated Free Energy of Binding    =   -6.13 kcal/mol  [=(1)+(2)+(3)-(4)]
DOCKED: USER    Estimated Inhibition Constant, Ki   =   32.03 uM (micromolar)  [Temperature = 298.15 K]
DOCKED: USER    
DOCKED: USER    (1) Final Intermolecular Energy     =   -9.11 kcal/mol
DOCKED: USER        vdW + Hbond + desolv Energy     =   -5.43 kcal/mol
DOCKED: USER        Electrostatic Energy            =   -3.69 kcal/mol
DOCKED: USER    (2) Final Total Internal Energy     =   -1.64 kcal/mol
DOCKED: USER    (3) Torsional Free Energy           =   +2.98 kcal/mol
DOCKED: USER    (4) Unbound System's Energy  [=(2)] =   -1.64 kcal/mol
DOCKED: USER    
DOCKED: USER    
DOCKED: USER    NEWDPF move heme_Fe_opt.pdbqt
DOCKED: USER    NEWDPF about -0.174000 -0.001000 -0.047000
DOCKED: USER    NEWDPF tran0 -13.662359 7.757217 14.009470
DOCKED: USER    NEWDPF quaternion0 0.753579 0.585040 0.192292 -0.229935
DOCKED: USER    NEWDPF axisangle0 0.774327 0.601147 0.197586 -153.413496
DOCKED: USER    NEWDPF quat0 0.774327 0.601147 0.197586 -153.413496
DOCKED: USER    NEWDPF dihe0 -147.79 -173.71 -164.00 -154.79 -86.97 -128.67 161.40 65.79 -166.77 -179.73 
DOCKED: USER  keepresnum = 1 
DOCKED: USER  
DOCKED: REMARK  10 active torsions:
DOCKED: REMARK  status: ('A' for Active; 'I' for Inactive)
DOCKED: REMARK    1  A    between atoms: C_6  and  C_10 
DOCKED: REMARK    2  A    between atoms: C_10  and  C_11 
DOCKED: REMARK    3  A    between atoms: C_11  and  C_12 
DOCKED: REMARK    4  A    between atoms: C_12  and  O_14 
DOCKED: REMARK    5  A    between atoms: C_17  and  C_20 
DOCKED: REMARK    6  A    between atoms: C_24  and  C_27 
DOCKED: REMARK    7  A    between atoms: C_31  and  C_34 
DOCKED: REMARK    8  A    between atoms: C_34  and  C_35 
DOCKED: REMARK    9  A    between atoms: C_35  and  C_36 
DOCKED: REMARK   10  A    between atoms: C_36  and  O_38 
DOCKED: USER                              x       y       z     vdW  Elec       q    Type
DOCKED: USER                           _______ _______ _______ _____ _____    ______ ____
DOCKED: ROOT
DOCKED: ATOM      1  C   UNL d   1     -13.890   5.783  13.498 -0.16 +0.05    +0.064 C 
DOCKED: ATOM      2  C   UNL d   1     -15.755  10.047  11.833 -0.04 +0.05    +0.064 A 
DOCKED: ATOM      3  C   UNL d   1     -12.334  12.404  14.244 -0.09 +0.02    +0.064 C 
DOCKED: ATOM      4  C   UNL d   1     -10.578   8.295  15.952 -0.16 +0.02    +0.064 C 
DOCKED: ATOM      5  C   UNL d   1     -14.783   6.769  12.873 -0.09 +0.07    +0.066 A 
DOCKED: ATOM      6  C   UNL d   1     -15.945   6.460  12.186 -0.07 -0.02    -0.021 A 
DOCKED: ATOM      7  C   UNL d   1     -16.460   7.644  11.720 -0.04 -0.02    -0.025 A 
DOCKED: ATOM      8  C   UNL d   1     -15.592   8.632  12.143 -0.05 +0.07    +0.066 A 
DOCKED: ATOM      9  C   UNL d   1     -17.724   7.809  10.934 -0.01 +0.02    +0.051 C 
DOCKED: ATOM     10  C   UNL d   1     -14.964  11.026  12.275 -0.06 +0.05    +0.066 A 
DOCKED: ATOM     11  C   UNL d   1     -15.078  12.358  11.869 -0.03 -0.01    -0.021 A 
DOCKED: ATOM     12  C   UNL d   1     -14.091  13.055  12.537 -0.05 +0.00    +0.000 A 
DOCKED: ATOM     13  C   UNL d   1     -13.415  12.102  13.318 -0.09 +0.04    +0.070 A 
DOCKED: ATOM     14  C   UNL d   1     -16.035  12.926  10.841 -0.00 +0.01    +0.052 C 
DOCKED: ATOM     15  C   UNL d   1     -11.646  11.484  14.959 -0.04 +0.02    +0.066 A 
DOCKED: ATOM     16  C   UNL d   1     -10.688  11.821  15.907 -0.07 -0.00    -0.021 A 
DOCKED: ATOM     17  C   UNL d   1     -10.177  10.637  16.398 -0.09 +0.00    +0.000 A 
DOCKED: ATOM     18  C   UNL d   1     -10.835   9.604  15.734 -0.13 +0.02    +0.070 A 
DOCKED: ATOM     19  C   UNL d   1     -10.249  13.200  16.318 -0.06 +0.00    +0.052 C 
DOCKED: ATOM     20  C   UNL d   1     -11.292   7.180  15.317 -0.15 +0.03    +0.066 A 
DOCKED: ATOM     21  C   UNL d   1     -10.908   5.833  15.379 -0.21 -0.01    -0.025 A 
DOCKED: ATOM     22  C   UNL d   1     -11.873   5.134  14.684 -0.22 -0.01    -0.021 A 
DOCKED: ATOM     23  C   UNL d   1     -12.799   6.077  14.222 -0.12 +0.05    +0.066 A 
DOCKED: ATOM     24  C   UNL d   1      -9.697   5.227  16.049 -0.28 +0.01    +0.051 C 
DOCKED: ATOM     25  N   UNL d   1     -14.577   8.097  12.852 +0.02 -0.36    -0.248 N 
DOCKED: ATOM     26  N   UNL d   1     -13.940  10.864  13.152 -0.09 -0.22    -0.248 N 
DOCKED: ATOM     27  N   UNL d   1     -11.768  10.122  14.881 -0.12 -0.14    -0.248 N 
DOCKED: ATOM     28  N   UNL d   1     -12.415   7.329  14.574 -0.10 -0.19    -0.248 N 
DOCKED: ATOM     29 FE   UNL d   1     -13.176   9.096  13.864 -0.03 +0.00    +0.000 Fe
DOCKED: ENDROOT
DOCKED: BRANCH   6  30
DOCKED: ATOM     30  C   UNL d   1     -16.549   5.110  11.997 -0.11 +0.03    +0.052 C 
DOCKED: BRANCH  30  31
DOCKED: ATOM     31  C   UNL d   1     -15.803   4.330  10.921 -0.10 +0.12    +0.115 C 
DOCKED: BRANCH  31  32
DOCKED: ATOM     32  C   UNL d   1     -14.994   5.261  10.061 -0.14 +0.21    +0.139 C 
DOCKED: ATOM     33  O   UNL d   1     -15.495   5.801   9.085 -0.02 -0.74    -0.650 OA
DOCKED: BRANCH  32  34
DOCKED: ATOM     34  O   UNL d   1     -13.708   5.509  10.359 -0.10 -1.61    -0.776 OA
DOCKED: ATOM     35  H   UNL d   1     -13.179   4.811  10.772 +0.05 +0.42    +0.167 HD
DOCKED: ENDBRANCH  32  34
DOCKED: ENDBRANCH  31  32
DOCKED: ENDBRANCH  30  31
DOCKED: ENDBRANCH   6  30
DOCKED: BRANCH  22  36
DOCKED: ATOM     36  C   UNL d   1     -11.876   3.648  14.436 -0.37 +0.02    +0.052 C 
DOCKED: BRANCH  36  37
DOCKED: ATOM     37  C   UNL d   1     -10.993   3.326  13.240 -0.50 +0.08    +0.115 C 
DOCKED: BRANCH  37  38
DOCKED: ATOM     38  C   UNL d   1     -11.805   2.765  12.107 -0.52 +0.15    +0.139 C 
DOCKED: ATOM     39  O   UNL d   1     -11.481   1.720  11.562 -0.33 -0.69    -0.650 OA
DOCKED: BRANCH  38  40
DOCKED: ATOM     40  O   UNL d   1     -12.900   3.418  11.679 -0.40 -1.47    -0.776 OA
DOCKED: ATOM     41  H   UNL d   1     -13.103   4.288  12.049 +0.06 +0.24    +0.167 HD
DOCKED: ENDBRANCH  38  40
DOCKED: ENDBRANCH  37  38
DOCKED: ENDBRANCH  36  37
DOCKED: ENDBRANCH  22  36
DOCKED: BRANCH  12  42
DOCKED: ATOM     42  C   UNL d   1     -13.836  14.522  12.397 -0.03 +0.00    +0.004 C 
DOCKED: ATOM     43  C   UNL d   1     -12.681  14.975  11.891 -0.09 -0.00    +0.012 C 
DOCKED: ENDBRANCH  12  42
DOCKED: BRANCH  17  44
DOCKED: ATOM     44  C   UNL d   1      -9.143  10.503  17.449 -0.06 +0.00    +0.004 C 
DOCKED: ATOM     45  C   UNL d   1      -7.872  10.242  17.129 -0.11 +0.00    +0.012 C 
DOCKED: ENDBRANCH  17  44
DOCKED: TORSDOF 10
DOCKED: TER
DOCKED: ENDMDL
________________________________________________________________________________


	BEGINNING GENETIC ALGORITHM DOCKING 51 of 100
Run: 51 Seed: 540999036 620102570 [ Run 51 of 100 GA/GALS ]
Beginning LAMARCKIAN GENETIC ALGORITHM (LGA), with a maximum of 25000000 energy evaluations.

Final-Value: -14.087


	FINAL GENETIC ALGORITHM DOCKED STATE
	_______________________________________________


Detailed state:  trans 7.950 6.853 5.557 quatxyzw 0.248746 -0.511027 -0.809097 -0.149463 center -0.174 -0.001 -0.047 ntor 10 56.1050 139.1920 149.1369 46.2210 70.0322 85.5609 0.5650 138.8295 6.4555 7.1713
State:	  7.950   6.853   5.557   0.252 -0.517 -0.818 -162.808     56.10  139.19  149.14   46.22   70.03   85.56    0.56  138.83    6.46    7.17

DOCKED: MODEL       51
DOCKED: USER    Run = 51
DOCKED: USER    DPF = D:/Protein_go_brrr/autodock/final/mut_Y35F/heme_Fe/dock.dpf
DOCKED: USER  
DOCKED: USER    Estimated Free Energy of Binding    =  -10.54 kcal/mol  [=(1)+(2)+(3)-(4)]
DOCKED: USER    Estimated Inhibition Constant, Ki   =   18.73 nM (nanomolar)  [Temperature = 298.15 K]
DOCKED: USER    
DOCKED: USER    (1) Final Intermolecular Energy     =  -13.52 kcal/mol
DOCKED: USER        vdW + Hbond + desolv Energy     =  -11.75 kcal/mol
DOCKED: USER        Electrostatic Energy            =   -1.78 kcal/mol
DOCKED: USER    (2) Final Total Internal Energy     =   -0.56 kcal/mol
DOCKED: USER    (3) Torsional Free Energy           =   +2.98 kcal/mol
DOCKED: USER    (4) Unbound System's Energy  [=(2)] =   -0.56 kcal/mol
DOCKED: USER    
DOCKED: USER    
DOCKED: USER    NEWDPF move heme_Fe_opt.pdbqt
DOCKED: USER    NEWDPF about -0.174000 -0.001000 -0.047000
DOCKED: USER    NEWDPF tran0 7.950173 6.852851 5.556993
DOCKED: USER    NEWDPF quaternion0 0.248746 -0.511027 -0.809097 -0.149463
DOCKED: USER    NEWDPF axisangle0 0.251572 -0.516832 -0.818289 -162.808440
DOCKED: USER    NEWDPF quat0 0.251572 -0.516832 -0.818289 -162.808440
DOCKED: USER    NEWDPF dihe0 56.10 139.19 149.14 46.22 70.03 85.56 0.56 138.83 6.46 7.17 
DOCKED: USER  keepresnum = 1 
DOCKED: USER  
DOCKED: REMARK  10 active torsions:
DOCKED: REMARK  status: ('A' for Active; 'I' for Inactive)
DOCKED: REMARK    1  A    between atoms: C_6  and  C_10 
DOCKED: REMARK    2  A    between atoms: C_10  and  C_11 
DOCKED: REMARK    3  A    between atoms: C_11  and  C_12 
DOCKED: REMARK    4  A    between atoms: C_12  and  O_14 
DOCKED: REMARK    5  A    between atoms: C_17  and  C_20 
DOCKED: REMARK    6  A    between atoms: C_24  and  C_27 
DOCKED: REMARK    7  A    between atoms: C_31  and  C_34 
DOCKED: REMARK    8  A    between atoms: C_34  and  C_35 
DOCKED: REMARK    9  A    between atoms: C_35  and  C_36 
DOCKED: REMARK   10  A    between atoms: C_36  and  O_38 
DOCKED: USER                              x       y       z     vdW  Elec       q    Type
DOCKED: USER                           _______ _______ _______ _____ _____    ______ ____
DOCKED: ROOT
DOCKED: ATOM      1  C   UNL d   1       9.303   8.262   6.187 -0.25 +0.02    +0.064 C 
DOCKED: ATOM      2  C   UNL d   1       6.415   7.744   2.209 -0.38 +0.01    +0.064 A 
DOCKED: ATOM      3  C   UNL d   1       3.936   4.351   4.536 -0.42 +0.01    +0.064 C 
DOCKED: ATOM      4  C   UNL d   1       6.785   4.762   8.358 -0.29 +0.04    +0.064 C 
DOCKED: ATOM      5  C   UNL d   1       8.772   8.371   4.821 -0.29 +0.01    +0.066 A 
DOCKED: ATOM      6  C   UNL d   1       9.309   9.172   3.826 -0.39 -0.00    -0.021 A 
DOCKED: ATOM      7  C   UNL d   1       8.504   9.030   2.723 -0.47 -0.00    -0.025 A 
DOCKED: ATOM      8  C   UNL d   1       7.506   8.148   3.087 -0.41 +0.01    +0.066 A 
DOCKED: ATOM      9  C   UNL d   1       8.702   9.694   1.395 +0.16 -0.00    +0.051 C 
DOCKED: ATOM     10  C   UNL d   1       5.472   6.851   2.516 -0.37 +0.01    +0.066 A 
DOCKED: ATOM     11  C   UNL d   1       4.375   6.570   1.698 -0.42 -0.00    -0.021 A 
DOCKED: ATOM     12  C   UNL d   1       3.636   5.606   2.355 -0.41 +0.00    +0.000 A 
DOCKED: ATOM     13  C   UNL d   1       4.322   5.353   3.555 -0.36 +0.01    +0.070 A 
DOCKED: ATOM     14  C   UNL d   1       4.012   7.236   0.387 -0.52 +0.00    +0.052 C 
DOCKED: ATOM     15  C   UNL d   1       4.564   4.140   5.717 -0.37 +0.01    +0.066 A 
DOCKED: ATOM     16  C   UNL d   1       4.225   3.107   6.582 -0.45 -0.00    -0.021 A 
DOCKED: ATOM     17  C   UNL d   1       5.043   3.225   7.686 -0.40 +0.00    +0.000 A 
DOCKED: ATOM     18  C   UNL d   1       5.861   4.333   7.471 -0.33 +0.02    +0.070 A 
DOCKED: ATOM     19  C   UNL d   1       3.158   2.063   6.392 -0.21 +0.00    +0.052 C 
DOCKED: ATOM     20  C   UNL d   1       7.704   5.885   8.139 -0.30 +0.05    +0.066 A 
DOCKED: ATOM     21  C   UNL d   1       8.523   6.464   9.118 -0.13 -0.03    -0.025 A 
DOCKED: ATOM     22  C   UNL d   1       9.241   7.451   8.475 -0.22 -0.01    -0.021 A 
DOCKED: ATOM     23  C   UNL d   1       8.830   7.439   7.137 -0.27 +0.03    +0.066 A 
DOCKED: ATOM     24  C   UNL d   1       8.628   6.118  10.585 +0.01 +0.07    +0.051 C 
DOCKED: ATOM     25  N   UNL d   1       7.677   7.741   4.361 -0.25 -0.05    -0.248 N 
DOCKED: ATOM     26  N   UNL d   1       5.437   6.118   3.658 -0.12 -0.08    -0.248 N 
DOCKED: ATOM     27  N   UNL d   1       5.597   4.869   6.241 -0.22 -0.06    -0.248 N 
DOCKED: ATOM     28  N   UNL d   1       7.860   6.512   6.948 -0.22 -0.12    -0.248 N 
DOCKED: ATOM     29 FE   UNL d   1       6.648   6.314   5.305 -0.09 +0.00    +0.000 Fe
DOCKED: ENDROOT
DOCKED: BRANCH   6  30
DOCKED: ATOM     30  C   UNL d   1      10.537  10.013   3.910 -0.35 -0.00    +0.052 C 
DOCKED: BRANCH  30  31
DOCKED: ATOM     31  C   UNL d   1      11.742   9.267   3.349 -0.37 -0.01    +0.115 C 
DOCKED: BRANCH  31  32
DOCKED: ATOM     32  C   UNL d   1      12.980  10.115   3.450 -0.31 -0.00    +0.139 C 
DOCKED: ATOM     33  O   UNL d   1      13.483  10.356   4.538 +0.02 -0.07    -0.650 OA
DOCKED: BRANCH  32  34
DOCKED: ATOM     34  O   UNL d   1      13.545  10.618   2.340 -0.03 +0.08    -0.776 OA
DOCKED: ATOM     35  H   UNL d   1      14.475  10.424   2.157 -0.44 -0.03    +0.167 HD
DOCKED: ENDBRANCH  32  34
DOCKED: ENDBRANCH  31  32
DOCKED: ENDBRANCH  30  31
DOCKED: ENDBRANCH   6  30
DOCKED: BRANCH  22  36
DOCKED: ATOM     36  C   UNL d   1      10.230   8.383   9.123 -0.18 +0.03    +0.052 C 
DOCKED: BRANCH  36  37
DOCKED: ATOM     37  C   UNL d   1      11.647   7.949   8.778 -0.09 +0.06    +0.115 C 
DOCKED: BRANCH  37  38
DOCKED: ATOM     38  C   UNL d   1      11.787   6.455   8.856 -0.05 +0.16    +0.139 C 
DOCKED: ATOM     39  O   UNL d   1      11.496   5.749   7.902 -0.31 -1.01    -0.650 OA
DOCKED: BRANCH  38  40
DOCKED: ATOM     40  O   UNL d   1      12.233   5.881   9.988 +0.01 -1.05    -0.776 OA
DOCKED: ATOM     41  H   UNL d   1      12.965   6.295  10.468 +0.01 +0.13    +0.167 HD
DOCKED: ENDBRANCH  38  40
DOCKED: ENDBRANCH  37  38
DOCKED: ENDBRANCH  36  37
DOCKED: ENDBRANCH  22  36
DOCKED: BRANCH  12  42
DOCKED: ATOM     42  C   UNL d   1       2.361   5.011   1.846 -0.30 +0.00    +0.004 C 
DOCKED: ATOM     43  C   UNL d   1       1.535   4.348   2.666 -0.49 +0.00    +0.012 C 
DOCKED: ENDBRANCH  12  42
DOCKED: BRANCH  17  44
DOCKED: ATOM     44  C   UNL d   1       5.056   2.326   8.862 -0.10 +0.00    +0.004 C 
DOCKED: ATOM     45  C   UNL d   1       5.983   1.370   8.983 -0.41 +0.00    +0.012 C 
DOCKED: ENDBRANCH  17  44
DOCKED: TORSDOF 10
DOCKED: TER
DOCKED: ENDMDL
________________________________________________________________________________


	BEGINNING GENETIC ALGORITHM DOCKING 52 of 100
Run: 52 Seed: 1979105988 272860348 [ Run 52 of 100 GA/GALS ]
Beginning LAMARCKIAN GENETIC ALGORITHM (LGA), with a maximum of 25000000 energy evaluations.

Final-Value: -11.158


	FINAL GENETIC ALGORITHM DOCKED STATE
	_______________________________________________


Detailed state:  trans 11.383 11.295 5.158 quatxyzw -0.264172 -0.326888 0.623373 -0.659366 center -0.174 -0.001 -0.047 ntor 10 -178.0261 56.5477 -162.6288 15.1346 92.2884 -141.5272 -24.3106 61.9377 176.1189 -162.0882
State:	 11.383  11.295   5.158  -0.351 -0.435  0.829 -97.497   -178.03   56.55 -162.63   15.13   92.29 -141.53  -24.31   61.94  176.12 -162.09

DOCKED: MODEL       52
DOCKED: USER    Run = 52
DOCKED: USER    DPF = D:/Protein_go_brrr/autodock/final/mut_Y35F/heme_Fe/dock.dpf
DOCKED: USER  
DOCKED: USER    Estimated Free Energy of Binding    =   -6.62 kcal/mol  [=(1)+(2)+(3)-(4)]
DOCKED: USER    Estimated Inhibition Constant, Ki   =   13.99 uM (micromolar)  [Temperature = 298.15 K]
DOCKED: USER    
DOCKED: USER    (1) Final Intermolecular Energy     =   -9.61 kcal/mol
DOCKED: USER        vdW + Hbond + desolv Energy     =   -7.43 kcal/mol
DOCKED: USER        Electrostatic Energy            =   -2.17 kcal/mol
DOCKED: USER    (2) Final Total Internal Energy     =   -1.55 kcal/mol
DOCKED: USER    (3) Torsional Free Energy           =   +2.98 kcal/mol
DOCKED: USER    (4) Unbound System's Energy  [=(2)] =   -1.55 kcal/mol
DOCKED: USER    
DOCKED: USER    
DOCKED: USER    NEWDPF move heme_Fe_opt.pdbqt
DOCKED: USER    NEWDPF about -0.174000 -0.001000 -0.047000
DOCKED: USER    NEWDPF tran0 11.382653 11.295238 5.158059
DOCKED: USER    NEWDPF quaternion0 -0.264172 -0.326888 0.623373 -0.659366
DOCKED: USER    NEWDPF axisangle0 -0.351376 -0.434794 0.829150 -97.496877
DOCKED: USER    NEWDPF quat0 -0.351376 -0.434794 0.829150 -97.496877
DOCKED: USER    NEWDPF dihe0 -178.03 56.55 -162.63 15.13 92.29 -141.53 -24.31 61.94 176.12 -162.09 
DOCKED: USER  keepresnum = 1 
DOCKED: USER  
DOCKED: REMARK  10 active torsions:
DOCKED: REMARK  status: ('A' for Active; 'I' for Inactive)
DOCKED: REMARK    1  A    between atoms: C_6  and  C_10 
DOCKED: REMARK    2  A    between atoms: C_10  and  C_11 
DOCKED: REMARK    3  A    between atoms: C_11  and  C_12 
DOCKED: REMARK    4  A    between atoms: C_12  and  O_14 
DOCKED: REMARK    5  A    between atoms: C_17  and  C_20 
DOCKED: REMARK    6  A    between atoms: C_24  and  C_27 
DOCKED: REMARK    7  A    between atoms: C_31  and  C_34 
DOCKED: REMARK    8  A    between atoms: C_34  and  C_35 
DOCKED: REMARK    9  A    between atoms: C_35  and  C_36 
DOCKED: REMARK   10  A    between atoms: C_36  and  O_38 
DOCKED: USER                              x       y       z     vdW  Elec       q    Type
DOCKED: USER                           _______ _______ _______ _____ _____    ______ ____
DOCKED: ROOT
DOCKED: ATOM      1  C   UNL d   1      10.998   9.288   5.345 -0.22 +0.01    +0.064 C 
DOCKED: ATOM      2  C   UNL d   1      13.338  12.656   8.105 -0.05 +0.01    +0.064 A 
DOCKED: ATOM      3  C   UNL d   1      11.300  16.123   5.479 -0.17 -0.01    +0.064 C 
DOCKED: ATOM      4  C   UNL d   1       9.109  12.878   2.730 -0.52 -0.01    +0.064 C 
DOCKED: ATOM      5  C   UNL d   1      11.912   9.913   6.312 -0.10 +0.01    +0.066 A 
DOCKED: ATOM      6  C   UNL d   1      12.754   9.220   7.166 -0.06 -0.00    -0.021 A 
DOCKED: ATOM      7  C   UNL d   1      13.401  10.156   7.934 -0.03 -0.00    -0.025 A 
DOCKED: ATOM      8  C   UNL d   1      12.928  11.385   7.520 -0.06 +0.01    +0.066 A 
DOCKED: ATOM      9  C   UNL d   1      14.427   9.875   8.989 -0.01 +0.01    +0.051 C 
DOCKED: ATOM     10  C   UNL d   1      12.941  13.858   7.686 -0.07 +0.00    +0.066 A 
DOCKED: ATOM     11  C   UNL d   1      13.261  15.051   8.338 -0.05 -0.00    -0.021 A 
DOCKED: ATOM     12  C   UNL d   1      12.671  16.065   7.610 -0.07 -0.00    +0.000 A 
DOCKED: ATOM     13  C   UNL d   1      12.008  15.431   6.545 -0.11 -0.00    +0.070 A 
DOCKED: ATOM     14  C   UNL d   1      14.034  15.213   9.631 -0.03 +0.00    +0.052 C 
DOCKED: ATOM     15  C   UNL d   1      10.616  15.515   4.481 -0.21 -0.01    +0.066 A 
DOCKED: ATOM     16  C   UNL d   1      10.037  16.209   3.426 -0.24 +0.00    -0.021 A 
DOCKED: ATOM     17  C   UNL d   1       9.402  15.276   2.633 -0.38 -0.00    +0.000 A 
DOCKED: ATOM     18  C   UNL d   1       9.605  14.032   3.227 -0.39 -0.01    +0.070 A 
DOCKED: ATOM     19  C   UNL d   1      10.057  17.695   3.183 -0.16 -0.01    +0.052 C 
DOCKED: ATOM     20  C   UNL d   1       9.353  11.545   3.292 -0.33 -0.01    +0.066 A 
DOCKED: ATOM     21  C   UNL d   1       8.689  10.371   2.911 -0.48 +0.00    -0.025 A 
DOCKED: ATOM     22  C   UNL d   1       9.252   9.358   3.660 -0.41 +0.00    -0.021 A 
DOCKED: ATOM     23  C   UNL d   1      10.228   9.952   4.469 -0.25 +0.00    +0.066 A 
DOCKED: ATOM     24  C   UNL d   1       7.579  10.201   1.900 -0.35 +0.00    +0.051 C 
DOCKED: ATOM     25  N   UNL d   1      12.029  11.235   6.526 -0.06 -0.02    -0.248 N 
DOCKED: ATOM     26  N   UNL d   1      12.164  14.085   6.596 -0.06 +0.00    -0.248 N 
DOCKED: ATOM     27  N   UNL d   1      10.388  14.173   4.338 -0.09 +0.03    -0.248 N 
DOCKED: ATOM     28  N   UNL d   1      10.254  11.293   4.273 -0.04 +0.01    -0.248 N 
DOCKED: ATOM     29 FE   UNL d   1      11.208  12.689   5.433 -0.04 -0.00    +0.000 Fe
DOCKED: ENDROOT
DOCKED: BRANCH   6  30
DOCKED: ATOM     30  C   UNL d   1      12.953   7.744   7.235 -0.07 +0.02    +0.052 C 
DOCKED: BRANCH  30  31
DOCKED: ATOM     31  C   UNL d   1      12.055   7.127   8.302 -0.09 +0.08    +0.115 C 
DOCKED: BRANCH  31  32
DOCKED: ATOM     32  C   UNL d   1      11.797   5.677   7.999 +0.09 +0.20    +0.139 C 
DOCKED: ATOM     33  O   UNL d   1      12.517   4.806   8.466 -0.07 -1.07    -0.650 OA
DOCKED: BRANCH  32  34
DOCKED: ATOM     34  O   UNL d   1      10.770   5.326   7.207 -0.51 -1.22    -0.776 OA
DOCKED: ATOM     35  H   UNL d   1      10.220   6.019   6.816 +0.05 +0.15    +0.167 HD
DOCKED: ENDBRANCH  32  34
DOCKED: ENDBRANCH  31  32
DOCKED: ENDBRANCH  30  31
DOCKED: ENDBRANCH   6  30
DOCKED: BRANCH  22  36
DOCKED: ATOM     36  C   UNL d   1       8.839   7.910   3.633 -0.38 +0.00    +0.052 C 
DOCKED: BRANCH  36  37
DOCKED: ATOM     37  C   UNL d   1       7.418   7.771   4.158 -0.36 +0.02    +0.115 C 
DOCKED: BRANCH  37  38
DOCKED: ATOM     38  C   UNL d   1       7.379   6.907   5.386 -0.18 +0.04    +0.139 C 
DOCKED: ATOM     39  O   UNL d   1       6.461   6.121   5.569 -0.21 -0.22    -0.650 OA
DOCKED: BRANCH  38  40
DOCKED: ATOM     40  O   UNL d   1       8.362   6.996   6.301 +0.06 -0.29    -0.776 OA
DOCKED: ATOM     41  H   UNL d   1       8.855   6.199   6.540 +0.07 +0.10    +0.167 HD
DOCKED: ENDBRANCH  38  40
DOCKED: ENDBRANCH  37  38
DOCKED: ENDBRANCH  36  37
DOCKED: ENDBRANCH  22  36
DOCKED: BRANCH  12  42
DOCKED: ATOM     42  C   UNL d   1      12.744  17.519   7.952 -0.05 -0.00    +0.004 C 
DOCKED: ATOM     43  C   UNL d   1      11.644  18.202   8.298 -0.10 -0.00    +0.012 C 
DOCKED: ENDBRANCH  12  42
DOCKED: BRANCH  17  44
DOCKED: ATOM     44  C   UNL d   1       8.666  15.554   1.379 -0.24 -0.00    +0.004 C 
DOCKED: ATOM     45  C   UNL d   1       9.314  15.945   0.277 -0.40 -0.00    +0.012 C 
DOCKED: ENDBRANCH  17  44
DOCKED: TORSDOF 10
DOCKED: TER
DOCKED: ENDMDL
________________________________________________________________________________


	BEGINNING GENETIC ALGORITHM DOCKING 53 of 100
Run: 53 Seed: 1802893755 1012653310 [ Run 53 of 100 GA/GALS ]
Beginning LAMARCKIAN GENETIC ALGORITHM (LGA), with a maximum of 25000000 energy evaluations.

Final-Value: -10.750


	FINAL GENETIC ALGORITHM DOCKED STATE
	_______________________________________________


Detailed state:  trans 1.604 -16.258 -9.485 quatxyzw -0.794980 0.194579 -0.401396 0.411130 center -0.174 -0.001 -0.047 ntor 10 -156.3797 -141.8099 79.7687 -134.5938 76.2149 -72.5115 -75.4320 -34.3667 -12.6116 -166.5437
State:	  1.604 -16.258  -9.485  -0.872  0.213 -0.440 131.448   -156.38 -141.81   79.77 -134.59   76.21  -72.51  -75.43  -34.37  -12.61 -166.54

DOCKED: MODEL       53
DOCKED: USER    Run = 53
DOCKED: USER    DPF = D:/Protein_go_brrr/autodock/final/mut_Y35F/heme_Fe/dock.dpf
DOCKED: USER  
DOCKED: USER    Estimated Free Energy of Binding    =   -7.07 kcal/mol  [=(1)+(2)+(3)-(4)]
DOCKED: USER    Estimated Inhibition Constant, Ki   =    6.56 uM (micromolar)  [Temperature = 298.15 K]
DOCKED: USER    
DOCKED: USER    (1) Final Intermolecular Energy     =  -10.05 kcal/mol
DOCKED: USER        vdW + Hbond + desolv Energy     =   -9.23 kcal/mol
DOCKED: USER        Electrostatic Energy            =   -0.82 kcal/mol
DOCKED: USER    (2) Final Total Internal Energy     =   -0.70 kcal/mol
DOCKED: USER    (3) Torsional Free Energy           =   +2.98 kcal/mol
DOCKED: USER    (4) Unbound System's Energy  [=(2)] =   -0.70 kcal/mol
DOCKED: USER    
DOCKED: USER    
DOCKED: USER    NEWDPF move heme_Fe_opt.pdbqt
DOCKED: USER    NEWDPF about -0.174000 -0.001000 -0.047000
DOCKED: USER    NEWDPF tran0 1.603803 -16.257894 -9.484536
DOCKED: USER    NEWDPF quaternion0 -0.794980 0.194579 -0.401396 0.411130
DOCKED: USER    NEWDPF axisangle0 -0.872093 0.213453 -0.440331 131.448365
DOCKED: USER    NEWDPF quat0 -0.872093 0.213453 -0.440331 131.448365
DOCKED: USER    NEWDPF dihe0 -156.38 -141.81 79.77 -134.59 76.21 -72.51 -75.43 -34.37 -12.61 -166.54 
DOCKED: USER  keepresnum = 1 
DOCKED: USER  
DOCKED: REMARK  10 active torsions:
DOCKED: REMARK  status: ('A' for Active; 'I' for Inactive)
DOCKED: REMARK    1  A    between atoms: C_6  and  C_10 
DOCKED: REMARK    2  A    between atoms: C_10  and  C_11 
DOCKED: REMARK    3  A    between atoms: C_11  and  C_12 
DOCKED: REMARK    4  A    between atoms: C_12  and  O_14 
DOCKED: REMARK    5  A    between atoms: C_17  and  C_20 
DOCKED: REMARK    6  A    between atoms: C_24  and  C_27 
DOCKED: REMARK    7  A    between atoms: C_31  and  C_34 
DOCKED: REMARK    8  A    between atoms: C_34  and  C_35 
DOCKED: REMARK    9  A    between atoms: C_35  and  C_36 
DOCKED: REMARK   10  A    between atoms: C_36  and  O_38 
DOCKED: USER                              x       y       z     vdW  Elec       q    Type
DOCKED: USER                           _______ _______ _______ _____ _____    ______ ____
DOCKED: ROOT
DOCKED: ATOM      1  C   UNL d   1       0.703 -16.695 -11.276 -0.28 -0.01    +0.064 C 
DOCKED: ATOM      2  C   UNL d   1       4.935 -14.513  -9.949 -0.25 -0.02    +0.064 A 
DOCKED: ATOM      3  C   UNL d   1       4.371 -16.271  -5.515 -0.24 -0.02    +0.064 C 
DOCKED: ATOM      4  C   UNL d   1       0.220 -18.302  -6.750 -0.18 -0.06    +0.064 C 
DOCKED: ATOM      5  C   UNL d   1       1.904 -15.849 -11.292 -0.24 -0.02    +0.066 A 
DOCKED: ATOM      6  C   UNL d   1       2.322 -15.089 -12.372 -0.18 +0.01    -0.021 A 
DOCKED: ATOM      7  C   UNL d   1       3.500 -14.487 -12.004 -0.19 +0.01    -0.025 A 
DOCKED: ATOM      8  C   UNL d   1       3.755 -14.902 -10.711 -0.23 -0.03    +0.066 A 
DOCKED: ATOM      9  C   UNL d   1       4.314 -13.553 -12.846 -0.14 -0.01    +0.051 C 
DOCKED: ATOM     10  C   UNL d   1       5.177 -14.853  -8.682 -0.24 -0.03    +0.066 A 
DOCKED: ATOM     11  C   UNL d   1       6.370 -14.561  -8.015 -0.21 +0.01    -0.021 A 
DOCKED: ATOM     12  C   UNL d   1       6.239 -15.073  -6.740 -0.20 -0.00    +0.000 A 
DOCKED: ATOM     13  C   UNL d   1       4.964 -15.662  -6.696 -0.21 -0.03    +0.070 A 
DOCKED: ATOM     14  C   UNL d   1       7.601 -13.889  -8.587 -0.17 -0.03    +0.052 C 
DOCKED: ATOM     15  C   UNL d   1       3.165 -16.885  -5.482 -0.23 -0.02    +0.066 A 
DOCKED: ATOM     16  C   UNL d   1       2.590 -17.366  -4.312 -0.23 +0.01    -0.021 A 
DOCKED: ATOM     17  C   UNL d   1       1.395 -17.956  -4.666 -0.27 -0.00    +0.000 A 
DOCKED: ATOM     18  C   UNL d   1       1.269 -17.824  -6.047 -0.30 -0.04    +0.070 A 
DOCKED: ATOM     19  C   UNL d   1       3.153 -17.298  -2.917 -0.29 -0.01    +0.052 C 
DOCKED: ATOM     20  C   UNL d   1       0.024 -18.129  -8.194 -0.31 -0.04    +0.066 A 
DOCKED: ATOM     21  C   UNL d   1      -0.947 -18.785  -8.965 -0.32 +0.01    -0.025 A 
DOCKED: ATOM     22  C   UNL d   1      -0.799 -18.302 -10.249 -0.31 +0.00    -0.021 A 
DOCKED: ATOM     23  C   UNL d   1       0.254 -17.381 -10.213 -0.27 -0.01    +0.066 A 
DOCKED: ATOM     24  C   UNL d   1      -1.962 -19.815  -8.526 -0.25 -0.02    +0.051 C 
DOCKED: ATOM     25  N   UNL d   1       2.778 -15.722 -10.277 -0.16 +0.11    -0.248 N 
DOCKED: ATOM     26  N   UNL d   1       4.319 -15.537  -7.882 +0.02 +0.12    -0.248 N 
DOCKED: ATOM     27  N   UNL d   1       2.336 -17.128  -6.544 -0.10 +0.13    -0.248 N 
DOCKED: ATOM     28  N   UNL d   1       0.782 -17.314  -8.966 -0.21 +0.10    -0.248 N 
DOCKED: ATOM     29 FE   UNL d   1       2.549 -16.426  -8.423 -0.05 -0.00    +0.000 Fe
DOCKED: ENDROOT
DOCKED: BRANCH   6  30
DOCKED: ATOM     30  C   UNL d   1       1.629 -14.926 -13.681 -0.14 -0.01    +0.052 C 
DOCKED: BRANCH  30  31
DOCKED: ATOM     31  C   UNL d   1       0.446 -13.973 -13.551 -0.21 -0.01    +0.115 C 
DOCKED: BRANCH  31  32
DOCKED: ATOM     32  C   UNL d   1       0.779 -12.635 -14.151 -0.22 -0.01    +0.139 C 
DOCKED: ATOM     33  O   UNL d   1       0.793 -12.482 -15.364 +0.02 +0.01    -0.650 OA
DOCKED: BRANCH  32  34
DOCKED: ATOM     34  O   UNL d   1       1.067 -11.592 -13.355 -0.19 +0.02    -0.776 OA
DOCKED: ATOM     35  H   UNL d   1       1.393 -11.760 -12.460 -0.49 -0.05    +0.167 HD
DOCKED: ENDBRANCH  32  34
DOCKED: ENDBRANCH  31  32
DOCKED: ENDBRANCH  30  31
DOCKED: ENDBRANCH   6  30
DOCKED: BRANCH  22  36
DOCKED: ATOM     36  C   UNL d   1      -1.595 -18.740 -11.450 -0.29 +0.01    +0.052 C 
DOCKED: BRANCH  36  37
DOCKED: ATOM     37  C   UNL d   1      -1.218 -20.166 -11.824 -0.14 +0.02    +0.115 C 
DOCKED: BRANCH  37  38
DOCKED: ATOM     38  C   UNL d   1      -2.410 -20.921 -12.339 -0.11 +0.07    +0.139 C 
DOCKED: ATOM     39  O   UNL d   1      -3.298 -21.281 -11.581 -0.03 -0.29    -0.650 OA
DOCKED: BRANCH  38  40
DOCKED: ATOM     40  O   UNL d   1      -2.506 -21.211 -13.649 -0.10 -0.78    -0.776 OA
DOCKED: ATOM     41  H   UNL d   1      -1.707 -21.456 -14.136 +0.01 +0.12    +0.167 HD
DOCKED: ENDBRANCH  38  40
DOCKED: ENDBRANCH  37  38
DOCKED: ENDBRANCH  36  37
DOCKED: ENDBRANCH  22  36
DOCKED: BRANCH  12  42
DOCKED: ATOM     42  C   UNL d   1       7.288 -14.998  -5.676 -0.22 -0.00    +0.004 C 
DOCKED: ATOM     43  C   UNL d   1       7.004 -14.512  -4.461 -0.27 -0.01    +0.012 C 
DOCKED: ENDBRANCH  12  42
DOCKED: BRANCH  17  44
DOCKED: ATOM     44  C   UNL d   1       0.425 -18.585  -3.741 -0.32 -0.00    +0.004 C 
DOCKED: ATOM     45  C   UNL d   1       0.614 -19.832  -3.296 -0.29 -0.00    +0.012 C 
DOCKED: ENDBRANCH  17  44
DOCKED: TORSDOF 10
DOCKED: TER
DOCKED: ENDMDL
________________________________________________________________________________


	BEGINNING GENETIC ALGORITHM DOCKING 54 of 100
Run: 54 Seed: 1445756624 612189272 [ Run 54 of 100 GA/GALS ]
Beginning LAMARCKIAN GENETIC ALGORITHM (LGA), with a maximum of 25000000 energy evaluations.

Final-Value: -10.832


	FINAL GENETIC ALGORITHM DOCKED STATE
	_______________________________________________


Detailed state:  trans -6.049 -14.741 -13.997 quatxyzw -0.748847 -0.583888 0.025803 -0.312469 center -0.174 -0.001 -0.047 ntor 10 -70.2651 -75.1818 -162.1964 19.9763 164.9572 162.5716 53.3382 46.0166 -33.5505 151.6374
State:	 -6.049 -14.741 -13.997  -0.788 -0.615  0.027 -143.584    -70.27  -75.18 -162.20   19.98  164.96  162.57   53.34   46.02  -33.55  151.64

DOCKED: MODEL       54
DOCKED: USER    Run = 54
DOCKED: USER    DPF = D:/Protein_go_brrr/autodock/final/mut_Y35F/heme_Fe/dock.dpf
DOCKED: USER  
DOCKED: USER    Estimated Free Energy of Binding    =   -5.19 kcal/mol  [=(1)+(2)+(3)-(4)]
DOCKED: USER    Estimated Inhibition Constant, Ki   =  158.21 uM (micromolar)  [Temperature = 298.15 K]
DOCKED: USER    
DOCKED: USER    (1) Final Intermolecular Energy     =   -8.17 kcal/mol
DOCKED: USER        vdW + Hbond + desolv Energy     =   -7.01 kcal/mol
DOCKED: USER        Electrostatic Energy            =   -1.16 kcal/mol
DOCKED: USER    (2) Final Total Internal Energy     =   -2.66 kcal/mol
DOCKED: USER    (3) Torsional Free Energy           =   +2.98 kcal/mol
DOCKED: USER    (4) Unbound System's Energy  [=(2)] =   -2.66 kcal/mol
DOCKED: USER    
DOCKED: USER    
DOCKED: USER    NEWDPF move heme_Fe_opt.pdbqt
DOCKED: USER    NEWDPF about -0.174000 -0.001000 -0.047000
DOCKED: USER    NEWDPF tran0 -6.048501 -14.740875 -13.996692
DOCKED: USER    NEWDPF quaternion0 -0.748847 -0.583888 0.025803 -0.312469
DOCKED: USER    NEWDPF axisangle0 -0.788320 -0.614666 0.027163 -143.583814
DOCKED: USER    NEWDPF quat0 -0.788320 -0.614666 0.027163 -143.583814
DOCKED: USER    NEWDPF dihe0 -70.27 -75.18 -162.20 19.98 164.96 162.57 53.34 46.02 -33.55 151.64 
DOCKED: USER  keepresnum = 1 
DOCKED: USER  
DOCKED: REMARK  10 active torsions:
DOCKED: REMARK  status: ('A' for Active; 'I' for Inactive)
DOCKED: REMARK    1  A    between atoms: C_6  and  C_10 
DOCKED: REMARK    2  A    between atoms: C_10  and  C_11 
DOCKED: REMARK    3  A    between atoms: C_11  and  C_12 
DOCKED: REMARK    4  A    between atoms: C_12  and  O_14 
DOCKED: REMARK    5  A    between atoms: C_17  and  C_20 
DOCKED: REMARK    6  A    between atoms: C_24  and  C_27 
DOCKED: REMARK    7  A    between atoms: C_31  and  C_34 
DOCKED: REMARK    8  A    between atoms: C_34  and  C_35 
DOCKED: REMARK    9  A    between atoms: C_35  and  C_36 
DOCKED: REMARK   10  A    between atoms: C_36  and  O_38 
DOCKED: USER                              x       y       z     vdW  Elec       q    Type
DOCKED: USER                           _______ _______ _______ _____ _____    ______ ____
DOCKED: ROOT
DOCKED: ATOM      1  C   UNL d   1      -6.941 -16.265 -15.041 -0.15 +0.02    +0.064 C 
DOCKED: ATOM      2  C   UNL d   1      -8.560 -12.689 -12.037 -0.32 -0.01    +0.064 A 
DOCKED: ATOM      3  C   UNL d   1      -4.328 -10.468 -12.514 -0.27 -0.01    +0.064 C 
DOCKED: ATOM      4  C   UNL d   1      -2.704 -13.972 -15.338 -0.10 +0.01    +0.064 C 
DOCKED: ATOM      5  C   UNL d   1      -7.760 -15.507 -14.085 -0.16 +0.01    +0.066 A 
DOCKED: ATOM      6  C   UNL d   1      -9.002 -15.904 -13.618 -0.16 -0.00    -0.021 A 
DOCKED: ATOM      7  C   UNL d   1      -9.452 -14.909 -12.787 -0.22 -0.00    -0.025 A 
DOCKED: ATOM      8  C   UNL d   1      -8.467 -13.941 -12.778 -0.24 +0.00    +0.066 A 
DOCKED: ATOM      9  C   UNL d   1     -10.747 -14.906 -12.034 -0.24 +0.01    +0.051 C 
DOCKED: ATOM     10  C   UNL d   1      -7.600 -11.765 -11.966 -0.25 -0.01    +0.066 A 
DOCKED: ATOM     11  C   UNL d   1      -7.763 -10.525 -11.343 -0.23 +0.01    -0.021 A 
DOCKED: ATOM     12  C   UNL d   1      -6.561  -9.859 -11.482 -0.36 -0.00    +0.000 A 
DOCKED: ATOM     13  C   UNL d   1      -5.723 -10.732 -12.196 -0.26 -0.01    +0.070 A 
DOCKED: ATOM     14  C   UNL d   1      -9.023  -9.974 -10.708 -0.48 -0.02    +0.052 C 
DOCKED: ATOM     15  C   UNL d   1      -3.532 -11.283 -13.245 -0.21 -0.01    +0.066 A 
DOCKED: ATOM     16  C   UNL d   1      -2.178 -11.043 -13.443 -0.25 +0.00    -0.021 A 
DOCKED: ATOM     17  C   UNL d   1      -1.708 -12.051 -14.260 -0.17 -0.00    +0.000 A 
DOCKED: ATOM     18  C   UNL d   1      -2.790 -12.880 -14.546 -0.12 +0.00    +0.070 A 
DOCKED: ATOM     19  C   UNL d   1      -1.360  -9.899 -12.906 -0.21 -0.00    +0.052 C 
DOCKED: ATOM     20  C   UNL d   1      -3.806 -14.902 -15.612 -0.10 +0.01    +0.066 A 
DOCKED: ATOM     21  C   UNL d   1      -3.789 -15.915 -16.581 -0.09 -0.01    -0.025 A 
DOCKED: ATOM     22  C   UNL d   1      -5.001 -16.564 -16.470 -0.11 -0.01    -0.021 A 
DOCKED: ATOM     23  C   UNL d   1      -5.709 -15.921 -15.448 -0.13 +0.02    +0.066 A 
DOCKED: ATOM     24  C   UNL d   1      -2.696 -16.260 -17.566 -0.04 +0.01    +0.051 C 
DOCKED: ATOM     25  N   UNL d   1      -7.434 -14.312 -13.561 -0.12 -0.01    -0.248 N 
DOCKED: ATOM     26  N   UNL d   1      -6.358 -11.890 -12.499 -0.15 +0.04    -0.248 N 
DOCKED: ATOM     27  N   UNL d   1      -3.902 -12.434 -13.888 -0.10 +0.01    -0.248 N 
DOCKED: ATOM     28  N   UNL d   1      -4.993 -14.880 -14.958 -0.11 -0.04    -0.248 N 
DOCKED: ATOM     29 FE   UNL d   1      -5.674 -13.385 -13.730 -0.04 -0.00    +0.000 Fe
DOCKED: ENDROOT
DOCKED: BRANCH   6  30
DOCKED: ATOM     30  C   UNL d   1      -9.717 -17.174 -13.927 -0.11 +0.01    +0.052 C 
DOCKED: BRANCH  30  31
DOCKED: ATOM     31  C   UNL d   1      -8.851 -18.381 -13.580 -0.16 +0.04    +0.115 C 
DOCKED: BRANCH  31  32
DOCKED: ATOM     32  C   UNL d   1      -8.732 -19.300 -14.764 -0.12 +0.07    +0.139 C 
DOCKED: ATOM     33  O   UNL d   1      -7.873 -20.171 -14.792 -0.06 -0.67    -0.650 OA
DOCKED: BRANCH  32  34
DOCKED: ATOM     34  O   UNL d   1      -9.572 -19.172 -15.805 +0.02 -0.26    -0.776 OA
DOCKED: ATOM     35  H   UNL d   1      -9.230 -18.836 -16.645 +0.01 +0.06    +0.167 HD
DOCKED: ENDBRANCH  32  34
DOCKED: ENDBRANCH  31  32
DOCKED: ENDBRANCH  30  31
DOCKED: ENDBRANCH   6  30
DOCKED: BRANCH  22  36
DOCKED: ATOM     36  C   UNL d   1      -5.470 -17.706 -17.333 +0.01 +0.03    +0.052 C 
DOCKED: BRANCH  36  37
DOCKED: ATOM     37  C   UNL d   1      -6.617 -17.244 -18.218 -0.05 +0.04    +0.115 C 
DOCKED: BRANCH  37  38
DOCKED: ATOM     38  C   UNL d   1      -7.734 -18.249 -18.222 -0.04 +0.05    +0.139 C 
DOCKED: ATOM     39  O   UNL d   1      -8.854 -17.939 -18.600 +0.01 -0.14    -0.650 OA
DOCKED: BRANCH  38  40
DOCKED: ATOM     40  O   UNL d   1      -7.506 -19.507 -17.803 -0.01 -0.52    -0.776 OA
DOCKED: ATOM     41  H   UNL d   1      -7.828 -19.778 -16.932 +0.00 +0.14    +0.167 HD
DOCKED: ENDBRANCH  38  40
DOCKED: ENDBRANCH  37  38
DOCKED: ENDBRANCH  36  37
DOCKED: ENDBRANCH  22  36
DOCKED: BRANCH  12  42
DOCKED: ATOM     42  C   UNL d   1      -6.283  -8.481 -10.970 -0.37 -0.00    +0.004 C 
DOCKED: ATOM     43  C   UNL d   1      -6.043  -7.469 -11.813 -0.29 -0.00    +0.012 C 
DOCKED: ENDBRANCH  12  42
DOCKED: BRANCH  17  44
DOCKED: ATOM     44  C   UNL d   1      -0.311 -12.220 -14.720 -0.17 -0.00    +0.004 C 
DOCKED: ATOM     45  C   UNL d   1       0.637 -12.652 -13.884 -0.29 -0.00    +0.012 C 
DOCKED: ENDBRANCH  17  44
DOCKED: TORSDOF 10
DOCKED: TER
DOCKED: ENDMDL
________________________________________________________________________________


	BEGINNING GENETIC ALGORITHM DOCKING 55 of 100
Run: 55 Seed: 693024880 490347162 [ Run 55 of 100 GA/GALS ]
Beginning LAMARCKIAN GENETIC ALGORITHM (LGA), with a maximum of 25000000 energy evaluations.

Final-Value: -11.193


	FINAL GENETIC ALGORITHM DOCKED STATE
	_______________________________________________


Detailed state:  trans 14.105 11.224 5.199 quatxyzw -0.508416 -0.814324 0.183656 0.211331 center -0.174 -0.001 -0.047 ntor 10 151.8071 160.6836 66.2081 -151.9367 -128.7191 98.6977 51.8792 -70.2470 150.8579 161.4749
State:	 14.105  11.224   5.199  -0.520 -0.833  0.188 155.599    151.81  160.68   66.21 -151.94 -128.72   98.70   51.88  -70.25  150.86  161.47

DOCKED: MODEL       55
DOCKED: USER    Run = 55
DOCKED: USER    DPF = D:/Protein_go_brrr/autodock/final/mut_Y35F/heme_Fe/dock.dpf
DOCKED: USER  
DOCKED: USER    Estimated Free Energy of Binding    =   -7.55 kcal/mol  [=(1)+(2)+(3)-(4)]
DOCKED: USER    Estimated Inhibition Constant, Ki   =    2.92 uM (micromolar)  [Temperature = 298.15 K]
DOCKED: USER    
DOCKED: USER    (1) Final Intermolecular Energy     =  -10.53 kcal/mol
DOCKED: USER        vdW + Hbond + desolv Energy     =   -7.26 kcal/mol
DOCKED: USER        Electrostatic Energy            =   -3.27 kcal/mol
DOCKED: USER    (2) Final Total Internal Energy     =   -0.66 kcal/mol
DOCKED: USER    (3) Torsional Free Energy           =   +2.98 kcal/mol
DOCKED: USER    (4) Unbound System's Energy  [=(2)] =   -0.66 kcal/mol
DOCKED: USER    
DOCKED: USER    
DOCKED: USER    NEWDPF move heme_Fe_opt.pdbqt
DOCKED: USER    NEWDPF about -0.174000 -0.001000 -0.047000
DOCKED: USER    NEWDPF tran0 14.104963 11.223687 5.199228
DOCKED: USER    NEWDPF quaternion0 -0.508416 -0.814324 0.183656 0.211331
DOCKED: USER    NEWDPF axisangle0 -0.520164 -0.833140 0.187900 155.599320
DOCKED: USER    NEWDPF quat0 -0.520164 -0.833140 0.187900 155.599320
DOCKED: USER    NEWDPF dihe0 151.81 160.68 66.21 -151.94 -128.72 98.70 51.88 -70.25 150.86 161.47 
DOCKED: USER  keepresnum = 1 
DOCKED: USER  
DOCKED: REMARK  10 active torsions:
DOCKED: REMARK  status: ('A' for Active; 'I' for Inactive)
DOCKED: REMARK    1  A    between atoms: C_6  and  C_10 
DOCKED: REMARK    2  A    between atoms: C_10  and  C_11 
DOCKED: REMARK    3  A    between atoms: C_11  and  C_12 
DOCKED: REMARK    4  A    between atoms: C_12  and  O_14 
DOCKED: REMARK    5  A    between atoms: C_17  and  C_20 
DOCKED: REMARK    6  A    between atoms: C_24  and  C_27 
DOCKED: REMARK    7  A    between atoms: C_31  and  C_34 
DOCKED: REMARK    8  A    between atoms: C_34  and  C_35 
DOCKED: REMARK    9  A    between atoms: C_35  and  C_36 
DOCKED: REMARK   10  A    between atoms: C_36  and  O_38 
DOCKED: USER                              x       y       z     vdW  Elec       q    Type
DOCKED: USER                           _______ _______ _______ _____ _____    ______ ____
DOCKED: ROOT
DOCKED: ATOM      1  C   UNL d   1      14.915   9.439   5.807 -0.10 +0.02    +0.064 C 
DOCKED: ATOM      2  C   UNL d   1      10.436  10.898   4.312 -0.17 -0.00    +0.064 A 
DOCKED: ATOM      3  C   UNL d   1      12.392  14.947   2.627 -0.18 -0.02    +0.064 C 
DOCKED: ATOM      4  C   UNL d   1      16.720  13.602   4.160 -0.10 +0.00    +0.064 C 
DOCKED: ATOM      5  C   UNL d   1      13.460   9.511   5.617 -0.09 +0.01    +0.066 A 
DOCKED: ATOM      6  C   UNL d   1      12.555   8.570   6.079 -0.11 -0.00    -0.021 A 
DOCKED: ATOM      7  C   UNL d   1      11.311   8.974   5.660 -0.17 -0.00    -0.025 A 
DOCKED: ATOM      8  C   UNL d   1      11.506  10.148   4.958 -0.18 +0.00    +0.066 A 
DOCKED: ATOM      9  C   UNL d   1      10.015   8.276   5.940 -0.25 +0.01    +0.051 C 
DOCKED: ATOM     10  C   UNL d   1      10.588  12.062   3.678 -0.23 -0.01    +0.066 A 
DOCKED: ATOM     11  C   UNL d   1       9.565  12.698   2.971 -0.40 +0.00    -0.021 A 
DOCKED: ATOM     12  C   UNL d   1      10.108  13.861   2.461 -0.41 -0.00    +0.000 A 
DOCKED: ATOM     13  C   UNL d   1      11.450  13.869   2.881 -0.23 -0.01    +0.070 A 
DOCKED: ATOM     14  C   UNL d   1       8.157  12.191   2.734 -0.53 -0.00    +0.052 C 
DOCKED: ATOM     15  C   UNL d   1      13.698  14.936   2.985 -0.09 -0.01    +0.066 A 
DOCKED: ATOM     16  C   UNL d   1      14.541  16.027   2.813 -0.07 +0.01    -0.021 A 
DOCKED: ATOM     17  C   UNL d   1      15.791  15.640   3.251 -0.06 -0.00    +0.000 A 
DOCKED: ATOM     18  C   UNL d   1      15.681  14.319   3.677 -0.08 -0.00    +0.070 A 
DOCKED: ATOM     19  C   UNL d   1      14.194  17.373   2.236 -0.07 -0.03    +0.052 C 
DOCKED: ATOM     20  C   UNL d   1      16.630  12.231   4.675 +0.06 +0.01    +0.066 A 
DOCKED: ATOM     21  C   UNL d   1      17.722  11.410   4.990 +0.05 -0.01    -0.025 A 
DOCKED: ATOM     22  C   UNL d   1      17.185  10.234   5.469 -0.07 -0.01    -0.021 A 
DOCKED: ATOM     23  C   UNL d   1      15.793  10.379   5.422 -0.04 +0.02    +0.066 A 
DOCKED: ATOM     24  C   UNL d   1      19.197  11.707   4.847 -0.07 +0.01    +0.051 C 
DOCKED: ATOM     25  N   UNL d   1      12.813  10.477   4.942 -0.07 -0.02    -0.248 N 
DOCKED: ATOM     26  N   UNL d   1      11.745  12.768   3.615 -0.13 +0.04    -0.248 N 
DOCKED: ATOM     27  N   UNL d   1      14.386  13.899   3.555 -0.05 +0.02    -0.248 N 
DOCKED: ATOM     28  N   UNL d   1      15.460  11.582   4.895 -0.06 -0.06    -0.248 N 
DOCKED: ATOM     29 FE   UNL d   1      13.604  12.176   4.255 -0.03 +0.00    +0.000 Fe
DOCKED: ENDROOT
DOCKED: BRANCH   6  30
DOCKED: ATOM     30  C   UNL d   1      12.851   7.359   6.895 -0.10 +0.02    +0.052 C 
DOCKED: BRANCH  30  31
DOCKED: ATOM     31  C   UNL d   1      12.424   6.093   6.159 -0.17 +0.06    +0.115 C 
DOCKED: BRANCH  31  32
DOCKED: ATOM     32  C   UNL d   1      11.549   5.243   7.038 -0.00 +0.17    +0.139 C 
DOCKED: ATOM     33  O   UNL d   1      11.796   4.057   7.202 -0.35 -0.95    -0.650 OA
DOCKED: BRANCH  32  34
DOCKED: ATOM     34  O   UNL d   1      10.483   5.782   7.653 -0.49 -1.36    -0.776 OA
DOCKED: ATOM     35  H   UNL d   1      10.497   6.723   7.878 +0.04 +0.17    +0.167 HD
DOCKED: ENDBRANCH  32  34
DOCKED: ENDBRANCH  31  32
DOCKED: ENDBRANCH  30  31
DOCKED: ENDBRANCH   6  30
DOCKED: BRANCH  22  36
DOCKED: ATOM     36  C   UNL d   1      17.967   9.021   5.901 -0.10 +0.02    +0.052 C 
DOCKED: BRANCH  36  37
DOCKED: ATOM     37  C   UNL d   1      17.932   7.970   4.802 -0.20 +0.06    +0.115 C 
DOCKED: BRANCH  37  38
DOCKED: ATOM     38  C   UNL d   1      19.274   7.840   4.138 -0.19 +0.14    +0.139 C 
DOCKED: ATOM     39  O   UNL d   1      20.045   6.947   4.455 -0.04 -0.67    -0.650 OA
DOCKED: BRANCH  38  40
DOCKED: ATOM     40  O   UNL d   1      19.638   8.717   3.185 -0.40 -1.03    -0.776 OA
DOCKED: ATOM     41  H   UNL d   1      18.955   9.234   2.736 -0.39 +0.15    +0.167 HD
DOCKED: ENDBRANCH  38  40
DOCKED: ENDBRANCH  37  38
DOCKED: ENDBRANCH  36  37
DOCKED: ENDBRANCH  22  36
DOCKED: BRANCH  12  42
DOCKED: ATOM     42  C   UNL d   1       9.370  14.855   1.623 -0.41 -0.00    +0.004 C 
DOCKED: ATOM     43  C   UNL d   1       9.126  16.092   2.074 -0.39 -0.00    +0.012 C 
DOCKED: ENDBRANCH  12  42
DOCKED: BRANCH  17  44
DOCKED: ATOM     44  C   UNL d   1      17.005  16.487   3.280 -0.04 -0.00    +0.004 C 
DOCKED: ATOM     45  C   UNL d   1      17.915  16.412   2.303 -0.06 -0.00    +0.012 C 
DOCKED: ENDBRANCH  17  44
DOCKED: TORSDOF 10
DOCKED: TER
DOCKED: ENDMDL
________________________________________________________________________________


	BEGINNING GENETIC ALGORITHM DOCKING 56 of 100
Run: 56 Seed: 3491014 770033556 [ Run 56 of 100 GA/GALS ]
Beginning LAMARCKIAN GENETIC ALGORITHM (LGA), with a maximum of 25000000 energy evaluations.

Final-Value: -14.678


	FINAL GENETIC ALGORITHM DOCKED STATE
	_______________________________________________


Detailed state:  trans 6.486 5.453 5.464 quatxyzw -0.347899 0.333865 0.866809 -0.127051 center -0.174 -0.001 -0.047 ntor 10 81.1707 -115.9036 41.7683 -141.3612 117.7638 -84.8670 -10.7847 6.1511 -151.9098 128.1042
State:	  6.486   5.453   5.464  -0.351  0.337  0.874 -165.402     81.17 -115.90   41.77 -141.36  117.76  -84.87  -10.78    6.15 -151.91  128.10

DOCKED: MODEL       56
DOCKED: USER    Run = 56
DOCKED: USER    DPF = D:/Protein_go_brrr/autodock/final/mut_Y35F/heme_Fe/dock.dpf
DOCKED: USER  
DOCKED: USER    Estimated Free Energy of Binding    =  -10.21 kcal/mol  [=(1)+(2)+(3)-(4)]
DOCKED: USER    Estimated Inhibition Constant, Ki   =   32.63 nM (nanomolar)  [Temperature = 298.15 K]
DOCKED: USER    
DOCKED: USER    (1) Final Intermolecular Energy     =  -13.20 kcal/mol
DOCKED: USER        vdW + Hbond + desolv Energy     =  -11.50 kcal/mol
DOCKED: USER        Electrostatic Energy            =   -1.70 kcal/mol
DOCKED: USER    (2) Final Total Internal Energy     =   -1.48 kcal/mol
DOCKED: USER    (3) Torsional Free Energy           =   +2.98 kcal/mol
DOCKED: USER    (4) Unbound System's Energy  [=(2)] =   -1.48 kcal/mol
DOCKED: USER    
DOCKED: USER    
DOCKED: USER    NEWDPF move heme_Fe_opt.pdbqt
DOCKED: USER    NEWDPF about -0.174000 -0.001000 -0.047000
DOCKED: USER    NEWDPF tran0 6.485884 5.452608 5.464259
DOCKED: USER    NEWDPF quaternion0 -0.347899 0.333865 0.866809 -0.127051
DOCKED: USER    NEWDPF axisangle0 -0.350741 0.336593 0.873891 -165.401629
DOCKED: USER    NEWDPF quat0 -0.350741 0.336593 0.873891 -165.401629
DOCKED: USER    NEWDPF dihe0 81.17 -115.90 41.77 -141.36 117.76 -84.87 -10.78 6.15 -151.91 128.10 
DOCKED: USER  keepresnum = 1 
DOCKED: USER  
DOCKED: REMARK  10 active torsions:
DOCKED: REMARK  status: ('A' for Active; 'I' for Inactive)
DOCKED: REMARK    1  A    between atoms: C_6  and  C_10 
DOCKED: REMARK    2  A    between atoms: C_10  and  C_11 
DOCKED: REMARK    3  A    between atoms: C_11  and  C_12 
DOCKED: REMARK    4  A    between atoms: C_12  and  O_14 
DOCKED: REMARK    5  A    between atoms: C_17  and  C_20 
DOCKED: REMARK    6  A    between atoms: C_24  and  C_27 
DOCKED: REMARK    7  A    between atoms: C_31  and  C_34 
DOCKED: REMARK    8  A    between atoms: C_34  and  C_35 
DOCKED: REMARK    9  A    between atoms: C_35  and  C_36 
DOCKED: REMARK   10  A    between atoms: C_36  and  O_38 
DOCKED: USER                              x       y       z     vdW  Elec       q    Type
DOCKED: USER                           _______ _______ _______ _____ _____    ______ ____
DOCKED: ROOT
DOCKED: ATOM      1  C   UNL d   1       7.674   5.875   7.083 -0.36 +0.04    +0.064 C 
DOCKED: ATOM      2  C   UNL d   1       6.630   8.178   2.836 -0.42 +0.01    +0.064 A 
DOCKED: ATOM      3  C   UNL d   1       2.889   5.226   2.235 -0.42 +0.00    +0.064 C 
DOCKED: ATOM      4  C   UNL d   1       3.945   2.915   6.289 -0.49 +0.01    +0.064 C 
DOCKED: ATOM      5  C   UNL d   1       7.777   6.743   5.901 -0.11 +0.02    +0.066 A 
DOCKED: ATOM      6  C   UNL d   1       8.799   7.649   5.672 -0.19 -0.01    -0.021 A 
DOCKED: ATOM      7  C   UNL d   1       8.506   8.291   4.494 -0.35 -0.00    -0.025 A 
DOCKED: ATOM      8  C   UNL d   1       7.315   7.751   4.049 -0.35 +0.01    +0.066 A 
DOCKED: ATOM      9  C   UNL d   1       9.339   9.347   3.833 -0.42 +0.00    +0.051 C 
DOCKED: ATOM     10  C   UNL d   1       5.510   7.635   2.354 -0.39 +0.01    +0.066 A 
DOCKED: ATOM     11  C   UNL d   1       4.815   8.140   1.253 -0.46 -0.00    -0.021 A 
DOCKED: ATOM     12  C   UNL d   1       3.723   7.316   1.069 -0.48 +0.00    +0.000 A 
DOCKED: ATOM     13  C   UNL d   1       3.804   6.346   2.083 -0.37 +0.00    +0.070 A 
DOCKED: ATOM     14  C   UNL d   1       5.138   9.388   0.456 -0.47 +0.01    +0.052 C 
DOCKED: ATOM     15  C   UNL d   1       2.933   4.319   3.240 -0.37 +0.00    +0.066 A 
DOCKED: ATOM     16  C   UNL d   1       2.103   3.207   3.294 -0.29 -0.00    -0.021 A 
DOCKED: ATOM     17  C   UNL d   1       2.404   2.541   4.465 -0.31 +0.00    +0.000 A 
DOCKED: ATOM     18  C   UNL d   1       3.409   3.266   5.100 -0.36 +0.00    +0.070 A 
DOCKED: ATOM     19  C   UNL d   1       1.051   2.797   2.300 -0.35 +0.00    +0.052 C 
DOCKED: ATOM     20  C   UNL d   1       5.046   3.620   6.957 -0.39 +0.01    +0.066 A 
DOCKED: ATOM     21  C   UNL d   1       5.475   3.390   8.272 -0.19 -0.01    -0.025 A 
DOCKED: ATOM     22  C   UNL d   1       6.546   4.235   8.473 -0.21 -0.01    -0.021 A 
DOCKED: ATOM     23  C   UNL d   1       6.724   4.948   7.281 -0.35 +0.03    +0.066 A 
DOCKED: ATOM     24  C   UNL d   1       4.910   2.431   9.294 +0.63 +0.01    +0.051 C 
DOCKED: ATOM     25  N   UNL d   1       6.879   6.803   4.903 -0.10 -0.09    -0.248 N 
DOCKED: ATOM     26  N   UNL d   1       4.889   6.545   2.872 -0.22 -0.05    -0.248 N 
DOCKED: ATOM     27  N   UNL d   1       3.766   4.336   4.327 -0.24 -0.02    -0.248 N 
DOCKED: ATOM     28  N   UNL d   1       5.778   4.600   6.376 -0.24 -0.06    -0.248 N 
DOCKED: ATOM     29 FE   UNL d   1       5.332   5.571   4.625 -0.09 +0.00    +0.000 Fe
DOCKED: ENDROOT
DOCKED: BRANCH   6  30
DOCKED: ATOM     30  C   UNL d   1      10.005   7.881   6.517 -0.24 +0.02    +0.052 C 
DOCKED: BRANCH  30  31
DOCKED: ATOM     31  C   UNL d   1       9.608   8.383   7.900 -0.22 +0.05    +0.115 C 
DOCKED: BRANCH  31  32
DOCKED: ATOM     32  C   UNL d   1      10.792   8.366   8.827 -0.13 +0.07    +0.139 C 
DOCKED: ATOM     33  O   UNL d   1      11.215   9.403   9.316 +0.01 -0.21    -0.650 OA
DOCKED: BRANCH  32  34
DOCKED: ATOM     34  O   UNL d   1      11.398   7.204   9.125 +0.02 -0.66    -0.776 OA
DOCKED: ATOM     35  H   UNL d   1      11.182   6.762   9.958 +0.02 +0.20    +0.167 HD
DOCKED: ENDBRANCH  32  34
DOCKED: ENDBRANCH  31  32
DOCKED: ENDBRANCH  30  31
DOCKED: ENDBRANCH   6  30
DOCKED: BRANCH  22  36
DOCKED: ATOM     36  C   UNL d   1       7.322   4.382   9.755 +0.36 +0.06    +0.052 C 
DOCKED: BRANCH  36  37
DOCKED: ATOM     37  C   UNL d   1       7.541   5.858  10.056 -0.10 +0.10    +0.115 C 
DOCKED: BRANCH  37  38
DOCKED: ATOM     38  C   UNL d   1       8.423   6.037  11.260 -0.10 +0.15    +0.139 C 
DOCKED: ATOM     39  O   UNL d   1       7.952   6.018  12.388 -0.04 -0.37    -0.650 OA
DOCKED: BRANCH  38  40
DOCKED: ATOM     40  O   UNL d   1       9.745   6.224  11.101 -0.30 -1.16    -0.776 OA
DOCKED: ATOM     41  H   UNL d   1      10.056   7.018  10.645 +0.02 +0.17    +0.167 HD
DOCKED: ENDBRANCH  38  40
DOCKED: ENDBRANCH  37  38
DOCKED: ENDBRANCH  36  37
DOCKED: ENDBRANCH  22  36
DOCKED: BRANCH  12  42
DOCKED: ATOM     42  C   UNL d   1       2.690   7.490   0.002 -0.63 +0.00    +0.004 C 
DOCKED: ATOM     43  C   UNL d   1       2.836   6.913  -1.199 -0.54 +0.00    +0.012 C 
DOCKED: ENDBRANCH  12  42
DOCKED: BRANCH  17  44
DOCKED: ATOM     44  C   UNL d   1       1.784   1.281   4.934 -0.58 -0.00    +0.004 C 
DOCKED: ATOM     45  C   UNL d   1       0.662   1.299   5.661 -0.71 -0.00    +0.012 C 
DOCKED: ENDBRANCH  17  44
DOCKED: TORSDOF 10
DOCKED: TER
DOCKED: ENDMDL
________________________________________________________________________________


	BEGINNING GENETIC ALGORITHM DOCKING 57 of 100
Run: 57 Seed: 900737973 816728845 [ Run 57 of 100 GA/GALS ]
Beginning LAMARCKIAN GENETIC ALGORITHM (LGA), with a maximum of 25000000 energy evaluations.

Final-Value: -12.357


	FINAL GENETIC ALGORITHM DOCKED STATE
	_______________________________________________


Detailed state:  trans 11.158 11.368 6.825 quatxyzw 0.370776 0.514761 0.402930 -0.659692 center -0.174 -0.001 -0.047 ntor 10 -152.5679 -90.1804 14.0548 -171.4000 110.1626 117.1749 -2.9825 -51.9648 -154.8712 -5.5118
State:	 11.158  11.368   6.825   0.493  0.685  0.536 -97.447   -152.57  -90.18   14.05 -171.40  110.16  117.17   -2.98  -51.96 -154.87   -5.51

DOCKED: MODEL       57
DOCKED: USER    Run = 57
DOCKED: USER    DPF = D:/Protein_go_brrr/autodock/final/mut_Y35F/heme_Fe/dock.dpf
DOCKED: USER  
DOCKED: USER    Estimated Free Energy of Binding    =   -7.87 kcal/mol  [=(1)+(2)+(3)-(4)]
DOCKED: USER    Estimated Inhibition Constant, Ki   =    1.70 uM (micromolar)  [Temperature = 298.15 K]
DOCKED: USER    
DOCKED: USER    (1) Final Intermolecular Energy     =  -10.85 kcal/mol
DOCKED: USER        vdW + Hbond + desolv Energy     =   -7.73 kcal/mol
DOCKED: USER        Electrostatic Energy            =   -3.13 kcal/mol
DOCKED: USER    (2) Final Total Internal Energy     =   -1.50 kcal/mol
DOCKED: USER    (3) Torsional Free Energy           =   +2.98 kcal/mol
DOCKED: USER    (4) Unbound System's Energy  [=(2)] =   -1.50 kcal/mol
DOCKED: USER    
DOCKED: USER    
DOCKED: USER    NEWDPF move heme_Fe_opt.pdbqt
DOCKED: USER    NEWDPF about -0.174000 -0.001000 -0.047000
DOCKED: USER    NEWDPF tran0 11.158235 11.367940 6.825336
DOCKED: USER    NEWDPF quaternion0 0.370776 0.514761 0.402930 -0.659692
DOCKED: USER    NEWDPF axisangle0 0.493358 0.684945 0.536142 -97.447281
DOCKED: USER    NEWDPF quat0 0.493358 0.684945 0.536142 -97.447281
DOCKED: USER    NEWDPF dihe0 -152.57 -90.18 14.05 -171.40 110.16 117.17 -2.98 -51.96 -154.87 -5.51 
DOCKED: USER  keepresnum = 1 
DOCKED: USER  
DOCKED: REMARK  10 active torsions:
DOCKED: REMARK  status: ('A' for Active; 'I' for Inactive)
DOCKED: REMARK    1  A    between atoms: C_6  and  C_10 
DOCKED: REMARK    2  A    between atoms: C_10  and  C_11 
DOCKED: REMARK    3  A    between atoms: C_11  and  C_12 
DOCKED: REMARK    4  A    between atoms: C_12  and  O_14 
DOCKED: REMARK    5  A    between atoms: C_17  and  C_20 
DOCKED: REMARK    6  A    between atoms: C_24  and  C_27 
DOCKED: REMARK    7  A    between atoms: C_31  and  C_34 
DOCKED: REMARK    8  A    between atoms: C_34  and  C_35 
DOCKED: REMARK    9  A    between atoms: C_35  and  C_36 
DOCKED: REMARK   10  A    between atoms: C_36  and  O_38 
DOCKED: USER                              x       y       z     vdW  Elec       q    Type
DOCKED: USER                           _______ _______ _______ _____ _____    ______ ____
DOCKED: ROOT
DOCKED: ATOM      1  C   UNL d   1      11.399   9.495   7.629 -0.13 +0.02    +0.064 C 
DOCKED: ATOM      2  C   UNL d   1      12.239  11.514   3.196 -0.17 -0.01    +0.064 A 
DOCKED: ATOM      3  C   UNL d   1      11.814  15.869   5.176 -0.12 -0.01    +0.064 C 
DOCKED: ATOM      4  C   UNL d   1      10.896  13.936   9.454 -0.28 +0.01    +0.064 C 
DOCKED: ATOM      5  C   UNL d   1      11.592   9.659   6.182 -0.12 +0.01    +0.066 A 
DOCKED: ATOM      6  C   UNL d   1      11.646   8.619   5.269 -0.19 -0.00    -0.021 A 
DOCKED: ATOM      7  C   UNL d   1      11.883   9.180   4.038 -0.29 -0.00    -0.025 A 
DOCKED: ATOM      8  C   UNL d   1      11.964  10.543   4.248 -0.20 -0.00    +0.066 A 
DOCKED: ATOM      9  C   UNL d   1      12.003   8.443   2.740 -0.43 -0.00    +0.051 C 
DOCKED: ATOM     10  C   UNL d   1      12.266  12.838   3.361 -0.20 -0.01    +0.066 A 
DOCKED: ATOM     11  C   UNL d   1      12.644  13.736   2.361 -0.27 +0.00    -0.021 A 
DOCKED: ATOM     12  C   UNL d   1      12.546  14.998   2.911 -0.14 -0.00    +0.000 A 
DOCKED: ATOM     13  C   UNL d   1      12.117  14.802   4.236 -0.10 -0.01    +0.070 A 
DOCKED: ATOM     14  C   UNL d   1      13.141  13.404   0.968 -0.48 -0.01    +0.052 C 
DOCKED: ATOM     15  C   UNL d   1      11.451  15.685   6.467 -0.16 -0.01    +0.066 A 
DOCKED: ATOM     16  C   UNL d   1      11.073  16.727   7.305 -0.17 +0.00    -0.021 A 
DOCKED: ATOM     17  C   UNL d   1      10.811  16.172   8.541 -0.23 -0.00    +0.000 A 
DOCKED: ATOM     18  C   UNL d   1      11.039  14.803   8.428 -0.22 +0.00    +0.070 A 
DOCKED: ATOM     19  C   UNL d   1      10.986  18.191   6.967 -0.14 -0.01    +0.052 C 
DOCKED: ATOM     20  C   UNL d   1      11.067  12.481   9.358 -0.19 +0.01    +0.066 A 
DOCKED: ATOM     21  C   UNL d   1      11.118  11.598  10.446 -0.17 -0.01    -0.025 A 
DOCKED: ATOM     22  C   UNL d   1      11.249  10.337   9.902 -0.14 -0.01    -0.021 A 
DOCKED: ATOM     23  C   UNL d   1      11.279  10.500   8.512 -0.14 +0.01    +0.066 A 
DOCKED: ATOM     24  C   UNL d   1      11.052  11.914  11.922 -0.19 +0.03    +0.051 C 
DOCKED: ATOM     25  N   UNL d   1      11.778  10.832   5.551 -0.08 -0.02    -0.248 N 
DOCKED: ATOM     26  N   UNL d   1      11.954  13.485   4.513 -0.08 +0.02    -0.248 N 
DOCKED: ATOM     27  N   UNL d   1      11.390  14.496   7.143 -0.08 +0.00    -0.248 N 
DOCKED: ATOM     28  N   UNL d   1      11.213  11.814   8.188 +0.01 -0.04    -0.248 N 
DOCKED: ATOM     29 FE   UNL d   1      11.583  12.650   6.352 -0.04 +0.00    +0.000 Fe
DOCKED: ENDROOT
DOCKED: BRANCH   6  30
DOCKED: ATOM     30  C   UNL d   1      11.461   7.166   5.545 -0.14 +0.02    +0.052 C 
DOCKED: BRANCH  30  31
DOCKED: ATOM     31  C   UNL d   1      12.585   6.636   6.429 -0.15 +0.05    +0.115 C 
DOCKED: BRANCH  31  32
DOCKED: ATOM     32  C   UNL d   1      12.355   5.189   6.763 -0.18 +0.12    +0.139 C 
DOCKED: ATOM     33  O   UNL d   1      13.072   4.318   6.289 -0.57 -0.45    -0.650 OA
DOCKED: BRANCH  32  34
DOCKED: ATOM     34  O   UNL d   1      11.354   4.838   7.588 -0.09 -1.62    -0.776 OA
DOCKED: ATOM     35  H   UNL d   1      10.573   5.405   7.646 +0.04 +0.37    +0.167 HD
DOCKED: ENDBRANCH  32  34
DOCKED: ENDBRANCH  31  32
DOCKED: ENDBRANCH  30  31
DOCKED: ENDBRANCH   6  30
DOCKED: BRANCH  22  36
DOCKED: ATOM     36  C   UNL d   1      11.387   9.054  10.679 -0.10 +0.02    +0.052 C 
DOCKED: BRANCH  36  37
DOCKED: ATOM     37  C   UNL d   1      10.013   8.445  10.913 -0.10 +0.06    +0.115 C 
DOCKED: BRANCH  37  38
DOCKED: ATOM     38  C   UNL d   1       9.973   7.014  10.457 -0.13 +0.14    +0.139 C 
DOCKED: ATOM     39  O   UNL d   1       9.766   6.110  11.253 -0.39 -0.98    -0.650 OA
DOCKED: BRANCH  38  40
DOCKED: ATOM     40  O   UNL d   1      10.169   6.717   9.160 -0.03 -1.06    -0.776 OA
DOCKED: ATOM     41  H   UNL d   1      11.070   6.551   8.847 +0.03 +0.22    +0.167 HD
DOCKED: ENDBRANCH  38  40
DOCKED: ENDBRANCH  37  38
DOCKED: ENDBRANCH  36  37
DOCKED: ENDBRANCH  22  36
DOCKED: BRANCH  12  42
DOCKED: ATOM     42  C   UNL d   1      12.868  16.272   2.196 -0.14 -0.00    +0.004 C 
DOCKED: ATOM     43  C   UNL d   1      12.183  16.641   1.106 -0.22 -0.01    +0.012 C 
DOCKED: ENDBRANCH  12  42
DOCKED: BRANCH  17  44
DOCKED: ATOM     44  C   UNL d   1      10.353  16.902   9.744 -0.23 +0.00    +0.004 C 
DOCKED: ATOM     45  C   UNL d   1      11.103  16.938  10.850 -0.18 +0.00    +0.012 C 
DOCKED: ENDBRANCH  17  44
DOCKED: TORSDOF 10
DOCKED: TER
DOCKED: ENDMDL
________________________________________________________________________________


	BEGINNING GENETIC ALGORITHM DOCKING 58 of 100
Run: 58 Seed: 861984079 1145308341 [ Run 58 of 100 GA/GALS ]
Beginning LAMARCKIAN GENETIC ALGORITHM (LGA), with a maximum of 25000000 energy evaluations.

Final-Value: -10.803


	FINAL GENETIC ALGORITHM DOCKED STATE
	_______________________________________________


Detailed state:  trans 15.310 9.981 4.426 quatxyzw 0.137945 0.050834 -0.692476 0.706304 center -0.174 -0.001 -0.047 ntor 10 26.8695 -145.3509 68.9718 -164.9967 -102.9513 67.7027 172.3887 -22.6288 -2.2518 170.6284
State:	 15.310   9.981   4.426   0.195  0.072 -0.978 90.130     26.87 -145.35   68.97 -165.00 -102.95   67.70  172.39  -22.63   -2.25  170.63

DOCKED: MODEL       58
DOCKED: USER    Run = 58
DOCKED: USER    DPF = D:/Protein_go_brrr/autodock/final/mut_Y35F/heme_Fe/dock.dpf
DOCKED: USER  
DOCKED: USER    Estimated Free Energy of Binding    =   -7.27 kcal/mol  [=(1)+(2)+(3)-(4)]
DOCKED: USER    Estimated Inhibition Constant, Ki   =    4.69 uM (micromolar)  [Temperature = 298.15 K]
DOCKED: USER    
DOCKED: USER    (1) Final Intermolecular Energy     =  -10.25 kcal/mol
DOCKED: USER        vdW + Hbond + desolv Energy     =   -7.01 kcal/mol
DOCKED: USER        Electrostatic Energy            =   -3.25 kcal/mol
DOCKED: USER    (2) Final Total Internal Energy     =   -0.55 kcal/mol
DOCKED: USER    (3) Torsional Free Energy           =   +2.98 kcal/mol
DOCKED: USER    (4) Unbound System's Energy  [=(2)] =   -0.55 kcal/mol
DOCKED: USER    
DOCKED: USER    
DOCKED: USER    NEWDPF move heme_Fe_opt.pdbqt
DOCKED: USER    NEWDPF about -0.174000 -0.001000 -0.047000
DOCKED: USER    NEWDPF tran0 15.310206 9.981254 4.425964
DOCKED: USER    NEWDPF quaternion0 0.137945 0.050834 -0.692476 0.706304
DOCKED: USER    NEWDPF axisangle0 0.194863 0.071809 -0.978198 90.130090
DOCKED: USER    NEWDPF quat0 0.194863 0.071809 -0.978198 90.130090
DOCKED: USER    NEWDPF dihe0 26.87 -145.35 68.97 -165.00 -102.95 67.70 172.39 -22.63 -2.25 170.63 
DOCKED: USER  keepresnum = 1 
DOCKED: USER  
DOCKED: REMARK  10 active torsions:
DOCKED: REMARK  status: ('A' for Active; 'I' for Inactive)
DOCKED: REMARK    1  A    between atoms: C_6  and  C_10 
DOCKED: REMARK    2  A    between atoms: C_10  and  C_11 
DOCKED: REMARK    3  A    between atoms: C_11  and  C_12 
DOCKED: REMARK    4  A    between atoms: C_12  and  O_14 
DOCKED: REMARK    5  A    between atoms: C_17  and  C_20 
DOCKED: REMARK    6  A    between atoms: C_24  and  C_27 
DOCKED: REMARK    7  A    between atoms: C_31  and  C_34 
DOCKED: REMARK    8  A    between atoms: C_34  and  C_35 
DOCKED: REMARK    9  A    between atoms: C_35  and  C_36 
DOCKED: REMARK   10  A    between atoms: C_36  and  O_38 
DOCKED: USER                              x       y       z     vdW  Elec       q    Type
DOCKED: USER                           _______ _______ _______ _____ _____    ______ ____
DOCKED: ROOT
DOCKED: ATOM      1  C   UNL d   1      15.156   8.082   5.187 -0.17 +0.02    +0.064 C 
DOCKED: ATOM      2  C   UNL d   1      18.544  11.672   5.448 -0.06 +0.01    +0.064 A 
DOCKED: ATOM      3  C   UNL d   1      15.282  14.776   3.779 -0.07 -0.01    +0.064 C 
DOCKED: ATOM      4  C   UNL d   1      12.019  11.296   3.419 -0.19 -0.01    +0.064 C 
DOCKED: ATOM      5  C   UNL d   1      16.437   8.787   5.336 -0.07 +0.02    +0.066 A 
DOCKED: ATOM      6  C   UNL d   1      17.633   8.187   5.693 -0.11 -0.01    -0.021 A 
DOCKED: ATOM      7  C   UNL d   1      18.573   9.185   5.769 -0.09 -0.01    -0.025 A 
DOCKED: ATOM      8  C   UNL d   1      17.913  10.358   5.455 -0.07 +0.02    +0.066 A 
DOCKED: ATOM      9  C   UNL d   1      20.022   9.010   6.105 -0.04 +0.02    +0.051 C 
DOCKED: ATOM     10  C   UNL d   1      17.945  12.810   5.093 -0.05 +0.01    +0.066 A 
DOCKED: ATOM     11  C   UNL d   1      18.542  14.067   5.207 -0.03 -0.00    -0.021 A 
DOCKED: ATOM     12  C   UNL d   1      17.615  14.982   4.747 -0.03 -0.00    +0.000 A 
DOCKED: ATOM     13  C   UNL d   1      16.486  14.228   4.382 -0.05 -0.00    +0.070 A 
DOCKED: ATOM     14  C   UNL d   1      19.903  14.390   5.788 -0.01 +0.00    +0.052 C 
DOCKED: ATOM     15  C   UNL d   1      14.173  14.062   3.473 -0.10 -0.01    +0.066 A 
DOCKED: ATOM     16  C   UNL d   1      13.081  14.604   2.807 -0.14 +0.00    -0.021 A 
DOCKED: ATOM     17  C   UNL d   1      12.138  13.603   2.705 -0.26 -0.00    +0.000 A 
DOCKED: ATOM     18  C   UNL d   1      12.675  12.473   3.316 -0.21 -0.01    +0.070 A 
DOCKED: ATOM     19  C   UNL d   1      12.918  16.014   2.307 -0.13 -0.02    +0.052 C 
DOCKED: ATOM     20  C   UNL d   1      12.576  10.069   4.000 -0.24 +0.00    +0.066 A 
DOCKED: ATOM     21  C   UNL d   1      11.847   8.908   4.294 -0.27 -0.00    -0.025 A 
DOCKED: ATOM     22  C   UNL d   1      12.763   8.001   4.784 -0.23 -0.00    -0.021 A 
DOCKED: ATOM     23  C   UNL d   1      14.007   8.642   4.777 -0.18 +0.01    +0.066 A 
DOCKED: ATOM     24  C   UNL d   1      10.366   8.657   4.128 -0.37 +0.00    +0.051 C 
DOCKED: ATOM     25  N   UNL d   1      16.616  10.111   5.183 +0.07 -0.11    -0.248 N 
DOCKED: ATOM     26  N   UNL d   1      16.684  12.905   4.601 -0.06 -0.03    -0.248 N 
DOCKED: ATOM     27  N   UNL d   1      13.944  12.741   3.750 -0.09 +0.01    -0.248 N 
DOCKED: ATOM     28  N   UNL d   1      13.880   9.919   4.340 -0.11 -0.04    -0.248 N 
DOCKED: ATOM     29 FE   UNL d   1      15.280  11.412   4.470 -0.04 +0.00    +0.000 Fe
DOCKED: ENDROOT
DOCKED: BRANCH   6  30
DOCKED: ATOM     30  C   UNL d   1      17.879   6.736   5.929 -0.09 +0.02    +0.052 C 
DOCKED: BRANCH  30  31
DOCKED: ATOM     31  C   UNL d   1      18.221   6.026   4.624 -0.21 +0.07    +0.115 C 
DOCKED: BRANCH  31  32
DOCKED: ATOM     32  C   UNL d   1      18.031   6.954   3.455 -0.24 +0.12    +0.139 C 
DOCKED: ATOM     33  O   UNL d   1      17.047   6.856   2.736 -0.07 -0.36    -0.650 OA
DOCKED: BRANCH  32  34
DOCKED: ATOM     34  O   UNL d   1      18.946   7.901   3.190 -0.52 -1.17    -0.776 OA
DOCKED: ATOM     35  H   UNL d   1      18.669   8.706   2.731 -0.32 +0.16    +0.167 HD
DOCKED: ENDBRANCH  32  34
DOCKED: ENDBRANCH  31  32
DOCKED: ENDBRANCH  30  31
DOCKED: ENDBRANCH   6  30
DOCKED: BRANCH  22  36
DOCKED: ATOM     36  C   UNL d   1      12.449   6.613   5.278 -0.24 +0.02    +0.052 C 
DOCKED: BRANCH  36  37
DOCKED: ATOM     37  C   UNL d   1      12.197   6.647   6.778 -0.16 +0.06    +0.115 C 
DOCKED: BRANCH  37  38
DOCKED: ATOM     38  C   UNL d   1      11.356   5.478   7.209 -0.06 +0.18    +0.139 C 
DOCKED: ATOM     39  O   UNL d   1      11.794   4.339   7.157 -0.43 -0.93    -0.650 OA
DOCKED: BRANCH  38  40
DOCKED: ATOM     40  O   UNL d   1      10.103   5.682   7.655 -0.47 -1.44    -0.776 OA
DOCKED: ATOM     41  H   UNL d   1       9.576   6.394   7.267 +0.05 +0.15    +0.167 HD
DOCKED: ENDBRANCH  38  40
DOCKED: ENDBRANCH  37  38
DOCKED: ENDBRANCH  36  37
DOCKED: ENDBRANCH  22  36
DOCKED: BRANCH  12  42
DOCKED: ATOM     42  C   UNL d   1      17.825  16.462   4.696 -0.01 -0.00    +0.004 C 
DOCKED: ATOM     43  C   UNL d   1      17.830  17.118   3.528 -0.02 -0.00    +0.012 C 
DOCKED: ENDBRANCH  12  42
DOCKED: BRANCH  17  44
DOCKED: ATOM     44  C   UNL d   1      10.816  13.714   2.047 -0.32 -0.00    +0.004 C 
DOCKED: ATOM     45  C   UNL d   1       9.689  13.685   2.766 -0.51 -0.00    +0.012 C 
DOCKED: ENDBRANCH  17  44
DOCKED: TORSDOF 10
DOCKED: TER
DOCKED: ENDMDL
________________________________________________________________________________


	BEGINNING GENETIC ALGORITHM DOCKING 59 of 100
Run: 59 Seed: 295336679 1940305858 [ Run 59 of 100 GA/GALS ]
Beginning LAMARCKIAN GENETIC ALGORITHM (LGA), with a maximum of 25000000 energy evaluations.

Final-Value: -13.097


	FINAL GENETIC ALGORITHM DOCKED STATE
	_______________________________________________


Detailed state:  trans 11.567 11.718 7.173 quatxyzw -0.562448 -0.447168 0.565803 -0.404426 center -0.174 -0.001 -0.047 ntor 10 67.9887 79.6856 -163.9445 44.5069 152.9913 -176.2467 -34.4830 -41.9190 -150.0214 2.7262
State:	 11.567  11.718   7.173  -0.615 -0.489  0.619 -132.290     67.99   79.69 -163.94   44.51  152.99 -176.25  -34.48  -41.92 -150.02    2.73

DOCKED: MODEL       59
DOCKED: USER    Run = 59
DOCKED: USER    DPF = D:/Protein_go_brrr/autodock/final/mut_Y35F/heme_Fe/dock.dpf
DOCKED: USER  
DOCKED: USER    Estimated Free Energy of Binding    =   -7.71 kcal/mol  [=(1)+(2)+(3)-(4)]
DOCKED: USER    Estimated Inhibition Constant, Ki   =    2.23 uM (micromolar)  [Temperature = 298.15 K]
DOCKED: USER    
DOCKED: USER    (1) Final Intermolecular Energy     =  -10.69 kcal/mol
DOCKED: USER        vdW + Hbond + desolv Energy     =   -7.56 kcal/mol
DOCKED: USER        Electrostatic Energy            =   -3.14 kcal/mol
DOCKED: USER    (2) Final Total Internal Energy     =   -2.40 kcal/mol
DOCKED: USER    (3) Torsional Free Energy           =   +2.98 kcal/mol
DOCKED: USER    (4) Unbound System's Energy  [=(2)] =   -2.40 kcal/mol
DOCKED: USER    
DOCKED: USER    
DOCKED: USER    NEWDPF move heme_Fe_opt.pdbqt
DOCKED: USER    NEWDPF about -0.174000 -0.001000 -0.047000
DOCKED: USER    NEWDPF tran0 11.567302 11.717577 7.172639
DOCKED: USER    NEWDPF quaternion0 -0.562448 -0.447168 0.565803 -0.404426
DOCKED: USER    NEWDPF axisangle0 -0.614986 -0.488937 0.618654 -132.289712
DOCKED: USER    NEWDPF quat0 -0.614986 -0.488937 0.618654 -132.289712
DOCKED: USER    NEWDPF dihe0 67.99 79.69 -163.94 44.51 152.99 -176.25 -34.48 -41.92 -150.02 2.73 
DOCKED: USER  keepresnum = 1 
DOCKED: USER  
DOCKED: REMARK  10 active torsions:
DOCKED: REMARK  status: ('A' for Active; 'I' for Inactive)
DOCKED: REMARK    1  A    between atoms: C_6  and  C_10 
DOCKED: REMARK    2  A    between atoms: C_10  and  C_11 
DOCKED: REMARK    3  A    between atoms: C_11  and  C_12 
DOCKED: REMARK    4  A    between atoms: C_12  and  O_14 
DOCKED: REMARK    5  A    between atoms: C_17  and  C_20 
DOCKED: REMARK    6  A    between atoms: C_24  and  C_27 
DOCKED: REMARK    7  A    between atoms: C_31  and  C_34 
DOCKED: REMARK    8  A    between atoms: C_34  and  C_35 
DOCKED: REMARK    9  A    between atoms: C_35  and  C_36 
DOCKED: REMARK   10  A    between atoms: C_36  and  O_38 
DOCKED: USER                              x       y       z     vdW  Elec       q    Type
DOCKED: USER                           _______ _______ _______ _____ _____    ______ ____
DOCKED: ROOT
DOCKED: ATOM      1  C   UNL d   1      11.113   9.803   7.756 -0.16 +0.01    +0.064 C 
DOCKED: ATOM      2  C   UNL d   1      11.009  14.229   9.954 -0.23 +0.02    +0.064 A 
DOCKED: ATOM      3  C   UNL d   1      11.398  16.304   5.640 -0.16 -0.01    +0.064 C 
DOCKED: ATOM      4  C   UNL d   1      11.606  12.030   3.502 -0.21 -0.01    +0.064 C 
DOCKED: ATOM      5  C   UNL d   1      11.132  10.855   8.782 -0.16 +0.01    +0.066 A 
DOCKED: ATOM      6  C   UNL d   1      11.147  10.627  10.148 -0.15 -0.01    -0.021 A 
DOCKED: ATOM      7  C   UNL d   1      11.114  11.857  10.758 -0.18 -0.01    -0.025 A 
DOCKED: ATOM      8  C   UNL d   1      11.081  12.789   9.739 -0.21 +0.02    +0.066 A 
DOCKED: ATOM      9  C   UNL d   1      11.134  12.111  12.234 -0.18 +0.03    +0.051 C 
DOCKED: ATOM     10  C   UNL d   1      11.034  15.152   8.991 -0.23 +0.01    +0.066 A 
DOCKED: ATOM     11  C   UNL d   1      10.848  16.517   9.221 -0.22 -0.00    -0.021 A 
DOCKED: ATOM     12  C   UNL d   1      10.939  17.136   7.990 -0.18 -0.00    +0.000 A 
DOCKED: ATOM     13  C   UNL d   1      11.169  16.105   7.063 -0.17 -0.01    +0.070 A 
DOCKED: ATOM     14  C   UNL d   1      10.531  17.192  10.540 -0.22 +0.01    +0.052 C 
DOCKED: ATOM     15  C   UNL d   1      11.568  15.311   4.736 -0.12 -0.01    +0.066 A 
DOCKED: ATOM     16  C   UNL d   1      11.883  15.545   3.403 -0.11 +0.00    -0.021 A 
DOCKED: ATOM     17  C   UNL d   1      11.941  14.314   2.784 -0.22 -0.00    +0.000 A 
DOCKED: ATOM     18  C   UNL d   1      11.654  13.356   3.754 -0.19 -0.01    +0.070 A 
DOCKED: ATOM     19  C   UNL d   1      12.098  16.874   2.730 -0.08 -0.02    +0.052 C 
DOCKED: ATOM     20  C   UNL d   1      11.369  10.989   4.509 -0.20 -0.00    +0.066 A 
DOCKED: ATOM     21  C   UNL d   1      11.119   9.637   4.234 -0.27 -0.00    -0.025 A 
DOCKED: ATOM     22  C   UNL d   1      10.994   9.019   5.461 -0.20 -0.00    -0.021 A 
DOCKED: ATOM     23  C   UNL d   1      11.166  10.014   6.432 -0.12 +0.01    +0.066 A 
DOCKED: ATOM     24  C   UNL d   1      10.997   8.955   2.892 -0.42 -0.01    +0.051 C 
DOCKED: ATOM     25  N   UNL d   1      11.101  12.177   8.538 -0.05 -0.04    -0.248 N 
DOCKED: ATOM     26  N   UNL d   1      11.218  14.894   7.671 -0.14 +0.00    -0.248 N 
DOCKED: ATOM     27  N   UNL d   1      11.468  13.965   4.963 -0.07 +0.02    -0.248 N 
DOCKED: ATOM     28  N   UNL d   1      11.350  11.221   5.844 +0.03 -0.01    -0.248 N 
DOCKED: ATOM     29 FE   UNL d   1      11.284  13.057   6.756 -0.04 +0.00    +0.000 Fe
DOCKED: ENDROOT
DOCKED: BRANCH   6  30
DOCKED: ATOM     30  C   UNL d   1      11.211   9.310  10.842 -0.11 +0.02    +0.052 C 
DOCKED: BRANCH  30  31
DOCKED: ATOM     31  C   UNL d   1      10.004   8.451  10.482 -0.09 +0.06    +0.115 C 
DOCKED: BRANCH  31  32
DOCKED: ATOM     32  C   UNL d   1      10.390   6.999  10.423 -0.11 +0.15    +0.139 C 
DOCKED: ATOM     33  O   UNL d   1       9.563   6.125  10.642 -0.13 -1.19    -0.650 OA
DOCKED: BRANCH  32  34
DOCKED: ATOM     34  O   UNL d   1      11.653   6.648  10.129 +0.03 -0.84    -0.776 OA
DOCKED: ATOM     35  H   UNL d   1      11.833   6.202   9.289 +0.02 +0.23    +0.167 HD
DOCKED: ENDBRANCH  32  34
DOCKED: ENDBRANCH  31  32
DOCKED: ENDBRANCH  30  31
DOCKED: ENDBRANCH   6  30
DOCKED: BRANCH  22  36
DOCKED: ATOM     36  C   UNL d   1      10.678   7.564   5.685 -0.15 +0.01    +0.052 C 
DOCKED: BRANCH  36  37
DOCKED: ATOM     37  C   UNL d   1      11.959   6.802   5.994 -0.16 +0.05    +0.115 C 
DOCKED: BRANCH  37  38
DOCKED: ATOM     38  C   UNL d   1      11.749   5.829   7.119 -0.17 +0.13    +0.139 C 
DOCKED: ATOM     39  O   UNL d   1      12.681   5.171   7.558 -0.07 -0.64    -0.650 OA
DOCKED: BRANCH  38  40
DOCKED: ATOM     40  O   UNL d   1      10.524   5.674   7.652 -0.48 -1.45    -0.776 OA
DOCKED: ATOM     41  H   UNL d   1      10.316   6.115   8.487 +0.03 +0.33    +0.167 HD
DOCKED: ENDBRANCH  38  40
DOCKED: ENDBRANCH  37  38
DOCKED: ENDBRANCH  36  37
DOCKED: ENDBRANCH  22  36
DOCKED: BRANCH  12  42
DOCKED: ATOM     42  C   UNL d   1      10.791  18.606   7.758 -0.15 -0.00    +0.004 C 
DOCKED: ATOM     43  C   UNL d   1       9.783  19.090   7.020 -0.19 -0.00    +0.012 C 
DOCKED: ENDBRANCH  12  42
DOCKED: BRANCH  17  44
DOCKED: ATOM     44  C   UNL d   1      12.268  14.068   1.361 -0.44 -0.00    +0.004 C 
DOCKED: ATOM     45  C   UNL d   1      13.503  13.708   0.995 -0.51 -0.00    +0.012 C 
DOCKED: ENDBRANCH  17  44
DOCKED: TORSDOF 10
DOCKED: TER
DOCKED: ENDMDL
________________________________________________________________________________


	BEGINNING GENETIC ALGORITHM DOCKING 60 of 100
Run: 60 Seed: 762831793 931161996 [ Run 60 of 100 GA/GALS ]
Beginning LAMARCKIAN GENETIC ALGORITHM (LGA), with a maximum of 25000000 energy evaluations.

Final-Value: -9.819


	FINAL GENETIC ALGORITHM DOCKED STATE
	_______________________________________________


Detailed state:  trans -15.565 -0.511 -3.038 quatxyzw 0.358957 0.347634 -0.212133 -0.839822 center -0.174 -0.001 -0.047 ntor 10 39.9283 -14.0127 -150.6824 -126.8574 -81.7342 79.0500 63.7477 -31.6034 -163.2686 179.7140
State:	-15.565  -0.511  -3.038   0.661  0.640 -0.391 -65.757     39.93  -14.01 -150.68 -126.86  -81.73   79.05   63.75  -31.60 -163.27  179.71

DOCKED: MODEL       60
DOCKED: USER    Run = 60
DOCKED: USER    DPF = D:/Protein_go_brrr/autodock/final/mut_Y35F/heme_Fe/dock.dpf
DOCKED: USER  
DOCKED: USER    Estimated Free Energy of Binding    =   -6.19 kcal/mol  [=(1)+(2)+(3)-(4)]
DOCKED: USER    Estimated Inhibition Constant, Ki   =   29.16 uM (micromolar)  [Temperature = 298.15 K]
DOCKED: USER    
DOCKED: USER    (1) Final Intermolecular Energy     =   -9.17 kcal/mol
DOCKED: USER        vdW + Hbond + desolv Energy     =   -7.94 kcal/mol
DOCKED: USER        Electrostatic Energy            =   -1.23 kcal/mol
DOCKED: USER    (2) Final Total Internal Energy     =   -0.65 kcal/mol
DOCKED: USER    (3) Torsional Free Energy           =   +2.98 kcal/mol
DOCKED: USER    (4) Unbound System's Energy  [=(2)] =   -0.65 kcal/mol
DOCKED: USER    
DOCKED: USER    
DOCKED: USER    NEWDPF move heme_Fe_opt.pdbqt
DOCKED: USER    NEWDPF about -0.174000 -0.001000 -0.047000
DOCKED: USER    NEWDPF tran0 -15.565154 -0.510885 -3.037938
DOCKED: USER    NEWDPF quaternion0 0.358957 0.347634 -0.212133 -0.839822
DOCKED: USER    NEWDPF axisangle0 0.661230 0.640372 -0.390767 -65.757406
DOCKED: USER    NEWDPF quat0 0.661230 0.640372 -0.390767 -65.757406
DOCKED: USER    NEWDPF dihe0 39.93 -14.01 -150.68 -126.86 -81.73 79.05 63.75 -31.60 -163.27 179.71 
DOCKED: USER  keepresnum = 1 
DOCKED: USER  
DOCKED: REMARK  10 active torsions:
DOCKED: REMARK  status: ('A' for Active; 'I' for Inactive)
DOCKED: REMARK    1  A    between atoms: C_6  and  C_10 
DOCKED: REMARK    2  A    between atoms: C_10  and  C_11 
DOCKED: REMARK    3  A    between atoms: C_11  and  C_12 
DOCKED: REMARK    4  A    between atoms: C_12  and  O_14 
DOCKED: REMARK    5  A    between atoms: C_17  and  C_20 
DOCKED: REMARK    6  A    between atoms: C_24  and  C_27 
DOCKED: REMARK    7  A    between atoms: C_31  and  C_34 
DOCKED: REMARK    8  A    between atoms: C_34  and  C_35 
DOCKED: REMARK    9  A    between atoms: C_35  and  C_36 
DOCKED: REMARK   10  A    between atoms: C_36  and  O_38 
DOCKED: USER                              x       y       z     vdW  Elec       q    Type
DOCKED: USER                           _______ _______ _______ _____ _____    ______ ____
DOCKED: ROOT
DOCKED: ATOM      1  C   UNL d   1     -16.695  -0.737  -1.340 -0.14 +0.02    +0.064 C 
DOCKED: ATOM      2  C   UNL d   1     -16.353  -3.150  -5.640 -0.08 +0.01    +0.064 A 
DOCKED: ATOM      3  C   UNL d   1     -12.212  -0.877  -6.507 -0.14 +0.01    +0.064 C 
DOCKED: ATOM      4  C   UNL d   1     -12.577   1.547  -2.399 -0.23 +0.00    +0.064 C 
DOCKED: ATOM      5  C   UNL d   1     -17.025  -1.565  -2.508 -0.10 +0.02    +0.066 A 
DOCKED: ATOM      6  C   UNL d   1     -18.201  -2.281  -2.664 -0.08 -0.01    -0.021 A 
DOCKED: ATOM      7  C   UNL d   1     -18.103  -2.954  -3.856 -0.06 -0.00    -0.025 A 
DOCKED: ATOM      8  C   UNL d   1     -16.870  -2.622  -4.384 -0.08 +0.01    +0.066 A 
DOCKED: ATOM      9  C   UNL d   1     -19.147  -3.846  -4.455 -0.03 +0.01    +0.051 C 
DOCKED: ATOM     10  C   UNL d   1     -15.193  -2.803  -6.199 -0.11 +0.01    +0.066 A 
DOCKED: ATOM     11  C   UNL d   1     -14.671  -3.410  -7.344 -0.12 -0.00    -0.021 A 
DOCKED: ATOM     12  C   UNL d   1     -13.469  -2.784  -7.605 -0.16 +0.00    +0.000 A 
DOCKED: ATOM     13  C   UNL d   1     -13.314  -1.823  -6.592 -0.15 +0.01    +0.070 A 
DOCKED: ATOM     14  C   UNL d   1     -15.257  -4.578  -8.112 -0.11 +0.00    +0.052 C 
DOCKED: ATOM     15  C   UNL d   1     -12.031   0.016  -5.505 -0.14 +0.00    +0.066 A 
DOCKED: ATOM     16  C   UNL d   1     -11.021   0.969  -5.512 -0.21 +0.00    -0.021 A 
DOCKED: ATOM     17  C   UNL d   1     -11.122   1.667  -4.326 -0.26 -0.00    +0.000 A 
DOCKED: ATOM     18  C   UNL d   1     -12.191   1.119  -3.621 -0.24 +0.00    +0.070 A 
DOCKED: ATOM     19  C   UNL d   1      -9.984   1.201  -6.578 -0.14 -0.00    +0.052 C 
DOCKED: ATOM     20  C   UNL d   1     -13.734   1.036  -1.654 -0.21 +0.01    +0.066 A 
DOCKED: ATOM     21  C   UNL d   1     -14.026   1.325  -0.314 -0.22 -0.00    -0.025 A 
DOCKED: ATOM     22  C   UNL d   1     -15.210   0.675  -0.037 -0.18 -0.00    -0.021 A 
DOCKED: ATOM     23  C   UNL d   1     -15.589   0.012  -1.211 -0.14 +0.01    +0.066 A 
DOCKED: ATOM     24  C   UNL d   1     -13.237   2.165   0.664 -0.27 +0.01    +0.051 C 
DOCKED: ATOM     25  N   UNL d   1     -16.221  -1.770  -3.566 -0.08 -0.05    -0.248 N 
DOCKED: ATOM     26  N   UNL d   1     -14.360  -1.840  -5.729 -0.08 -0.02    -0.248 N 
DOCKED: ATOM     27  N   UNL d   1     -12.778   0.133  -4.364 -0.15 -0.02    -0.248 N 
DOCKED: ATOM     28  N   UNL d   1     -14.661   0.200  -2.180 -0.11 -0.03    -0.248 N 
DOCKED: ATOM     29 FE   UNL d   1     -14.509  -0.818  -3.954 -0.04 +0.00    +0.000 Fe
DOCKED: ENDROOT
DOCKED: BRANCH   6  30
DOCKED: ATOM     30  C   UNL d   1     -19.368  -2.309  -1.738 -0.07 +0.02    +0.052 C 
DOCKED: BRANCH  30  31
DOCKED: ATOM     31  C   UNL d   1     -19.051  -3.130  -0.493 +0.02 +0.09    +0.115 C 
DOCKED: BRANCH  31  32
DOCKED: ATOM     32  C   UNL d   1     -19.942  -4.338  -0.417 -0.06 +0.10    +0.139 C 
DOCKED: ATOM     33  O   UNL d   1     -21.078  -4.248   0.027 +0.02 -0.19    -0.650 OA
DOCKED: BRANCH  32  34
DOCKED: ATOM     34  O   UNL d   1     -19.496  -5.533  -0.840 -0.50 -0.80    -0.776 OA
DOCKED: ATOM     35  H   UNL d   1     -20.097  -6.112  -1.330 +0.03 +0.06    +0.167 HD
DOCKED: ENDBRANCH  32  34
DOCKED: ENDBRANCH  31  32
DOCKED: ENDBRANCH  30  31
DOCKED: ENDBRANCH   6  30
DOCKED: BRANCH  22  36
DOCKED: ATOM     36  C   UNL d   1     -15.911   0.652   1.296 -0.18 +0.01    +0.052 C 
DOCKED: BRANCH  36  37
DOCKED: ATOM     37  C   UNL d   1     -15.299  -0.425   2.180 -0.37 +0.03    +0.115 C 
DOCKED: BRANCH  37  38
DOCKED: ATOM     38  C   UNL d   1     -15.344  -0.025   3.627 -0.32 +0.06    +0.139 C 
DOCKED: ATOM     39  O   UNL d   1     -16.375  -0.133   4.274 -0.51 -0.33    -0.650 OA
DOCKED: BRANCH  38  40
DOCKED: ATOM     40  O   UNL d   1     -14.241   0.462   4.224 -0.13 -0.28    -0.776 OA
DOCKED: ATOM     41  H   UNL d   1     -14.326   0.906   5.079 -0.51 +0.03    +0.167 HD
DOCKED: ENDBRANCH  38  40
DOCKED: ENDBRANCH  37  38
DOCKED: ENDBRANCH  36  37
DOCKED: ENDBRANCH  22  36
DOCKED: BRANCH  12  42
DOCKED: ATOM     42  C   UNL d   1     -12.556  -3.123  -8.741 -0.19 +0.00    +0.004 C 
DOCKED: ATOM     43  C   UNL d   1     -11.445  -3.843  -8.540 -0.35 +0.00    +0.012 C 
DOCKED: ENDBRANCH  12  42
DOCKED: BRANCH  17  44
DOCKED: ATOM     44  C   UNL d   1     -10.265   2.799  -3.905 -0.30 +0.00    +0.004 C 
DOCKED: ATOM     45  C   UNL d   1      -9.001   2.594  -3.522 -0.47 -0.00    +0.012 C 
DOCKED: ENDBRANCH  17  44
DOCKED: TORSDOF 10
DOCKED: TER
DOCKED: ENDMDL
________________________________________________________________________________


	BEGINNING GENETIC ALGORITHM DOCKING 61 of 100
Run: 61 Seed: 203147863 1659332207 [ Run 61 of 100 GA/GALS ]
Beginning LAMARCKIAN GENETIC ALGORITHM (LGA), with a maximum of 25000000 energy evaluations.

Final-Value: -11.208


	FINAL GENETIC ALGORITHM DOCKED STATE
	_______________________________________________


Detailed state:  trans 12.177 13.870 8.045 quatxyzw -0.623415 -0.030656 0.760948 0.177121 center -0.174 -0.001 -0.047 ntor 10 17.0360 -128.9956 -7.2007 -124.3961 87.4481 171.8019 -40.2622 34.1388 -162.8288 -166.7134
State:	 12.177  13.870   8.045  -0.633 -0.031  0.773 159.596     17.04 -129.00   -7.20 -124.40   87.45  171.80  -40.26   34.14 -162.83 -166.71

DOCKED: MODEL       61
DOCKED: USER    Run = 61
DOCKED: USER    DPF = D:/Protein_go_brrr/autodock/final/mut_Y35F/heme_Fe/dock.dpf
DOCKED: USER  
DOCKED: USER    Estimated Free Energy of Binding    =   -6.88 kcal/mol  [=(1)+(2)+(3)-(4)]
DOCKED: USER    Estimated Inhibition Constant, Ki   =    8.98 uM (micromolar)  [Temperature = 298.15 K]
DOCKED: USER    
DOCKED: USER    (1) Final Intermolecular Energy     =   -9.87 kcal/mol
DOCKED: USER        vdW + Hbond + desolv Energy     =   -7.27 kcal/mol
DOCKED: USER        Electrostatic Energy            =   -2.60 kcal/mol
DOCKED: USER    (2) Final Total Internal Energy     =   -1.34 kcal/mol
DOCKED: USER    (3) Torsional Free Energy           =   +2.98 kcal/mol
DOCKED: USER    (4) Unbound System's Energy  [=(2)] =   -1.34 kcal/mol
DOCKED: USER    
DOCKED: USER    
DOCKED: USER    NEWDPF move heme_Fe_opt.pdbqt
DOCKED: USER    NEWDPF about -0.174000 -0.001000 -0.047000
DOCKED: USER    NEWDPF tran0 12.177414 13.869991 8.045437
DOCKED: USER    NEWDPF quaternion0 -0.623415 -0.030656 0.760948 0.177121
DOCKED: USER    NEWDPF axisangle0 -0.633430 -0.031149 0.773173 159.595814
DOCKED: USER    NEWDPF quat0 -0.633430 -0.031149 0.773173 159.595814
DOCKED: USER    NEWDPF dihe0 17.04 -129.00 -7.20 -124.40 87.45 171.80 -40.26 34.14 -162.83 -166.71 
DOCKED: USER  keepresnum = 1 
DOCKED: USER  
DOCKED: REMARK  10 active torsions:
DOCKED: REMARK  status: ('A' for Active; 'I' for Inactive)
DOCKED: REMARK    1  A    between atoms: C_6  and  C_10 
DOCKED: REMARK    2  A    between atoms: C_10  and  C_11 
DOCKED: REMARK    3  A    between atoms: C_11  and  C_12 
DOCKED: REMARK    4  A    between atoms: C_12  and  O_14 
DOCKED: REMARK    5  A    between atoms: C_17  and  C_20 
DOCKED: REMARK    6  A    between atoms: C_24  and  C_27 
DOCKED: REMARK    7  A    between atoms: C_31  and  C_34 
DOCKED: REMARK    8  A    between atoms: C_34  and  C_35 
DOCKED: REMARK    9  A    between atoms: C_35  and  C_36 
DOCKED: REMARK   10  A    between atoms: C_36  and  O_38 
DOCKED: USER                              x       y       z     vdW  Elec       q    Type
DOCKED: USER                           _______ _______ _______ _____ _____    ______ ____
DOCKED: ROOT
DOCKED: ATOM      1  C   UNL d   1      11.977  14.241  10.054 -0.15 +0.01    +0.064 C 
DOCKED: ATOM      2  C   UNL d   1      10.552  16.558   5.927 -0.17 -0.02    +0.064 A 
DOCKED: ATOM      3  C   UNL d   1      11.484  12.556   3.440 -0.25 -0.01    +0.064 C 
DOCKED: ATOM      4  C   UNL d   1      12.967  10.329   7.405 -0.06 +0.01    +0.064 C 
DOCKED: ATOM      5  C   UNL d   1      11.569  15.291   9.110 -0.17 +0.01    +0.066 A 
DOCKED: ATOM      6  C   UNL d   1      11.324  16.611   9.453 -0.18 -0.00    -0.021 A 
DOCKED: ATOM      7  C   UNL d   1      10.925  17.253   8.307 -0.18 +0.00    -0.025 A 
DOCKED: ATOM      8  C   UNL d   1      10.941  16.299   7.308 -0.18 -0.01    +0.066 A 
DOCKED: ATOM      9  C   UNL d   1      10.569  18.703   8.185 -0.16 -0.01    +0.051 C 
DOCKED: ATOM     10  C   UNL d   1      10.613  15.672   4.932 -0.22 -0.01    +0.066 A 
DOCKED: ATOM     11  C   UNL d   1      10.125  15.915   3.646 -0.25 +0.00    -0.021 A 
DOCKED: ATOM     12  C   UNL d   1      10.367  14.770   2.914 -0.32 -0.00    +0.000 A 
DOCKED: ATOM     13  C   UNL d   1      10.988  13.875   3.802 -0.21 -0.01    +0.070 A 
DOCKED: ATOM     14  C   UNL d   1       9.402  17.153   3.156 -0.27 -0.01    +0.052 C 
DOCKED: ATOM     15  C   UNL d   1      12.035  11.671   4.304 -0.18 -0.00    +0.066 A 
DOCKED: ATOM     16  C   UNL d   1      12.587  10.462   3.901 -0.26 +0.00    -0.021 A 
DOCKED: ATOM     17  C   UNL d   1      13.013   9.816   5.043 -0.15 +0.00    +0.000 A 
DOCKED: ATOM     18  C   UNL d   1      12.706  10.647   6.119 -0.08 +0.01    +0.070 A 
DOCKED: ATOM     19  C   UNL d   1      12.689   9.920   2.500 -0.34 -0.01    +0.052 C 
DOCKED: ATOM     20  C   UNL d   1      12.715  11.203   8.557 -0.06 +0.01    +0.066 A 
DOCKED: ATOM     21  C   UNL d   1      12.793  10.814   9.902 -0.05 -0.01    -0.025 A 
DOCKED: ATOM     22  C   UNL d   1      12.520  11.948  10.639 -0.07 -0.01    -0.021 A 
DOCKED: ATOM     23  C   UNL d   1      12.281  12.977   9.720 -0.10 +0.01    +0.066 A 
DOCKED: ATOM     24  C   UNL d   1      13.103   9.450  10.473 -0.02 +0.01    +0.051 C 
DOCKED: ATOM     25  N   UNL d   1      11.342  15.109   7.797 -0.14 +0.00    -0.248 N 
DOCKED: ATOM     26  N   UNL d   1      11.130  14.421   5.035 -0.07 +0.02    -0.248 N 
DOCKED: ATOM     27  N   UNL d   1      12.145  11.806   5.662 -0.06 -0.01    -0.248 N 
DOCKED: ATOM     28  N   UNL d   1      12.357  12.506   8.452 -0.06 -0.03    -0.248 N 
DOCKED: ATOM     29 FE   UNL d   1      11.744  13.462   6.744 -0.03 +0.00    +0.000 Fe
DOCKED: ENDROOT
DOCKED: BRANCH   6  30
DOCKED: ATOM     30  C   UNL d   1      11.482  17.238  10.796 -0.13 +0.01    +0.052 C 
DOCKED: BRANCH  30  31
DOCKED: ATOM     31  C   UNL d   1      10.364  16.794  11.734 -0.03 +0.05    +0.115 C 
DOCKED: BRANCH  31  32
DOCKED: ATOM     32  C   UNL d   1      10.906  16.538  13.113 -0.09 +0.10    +0.139 C 
DOCKED: ATOM     33  O   UNL d   1      10.993  17.446  13.927 -0.03 -0.34    -0.650 OA
DOCKED: BRANCH  32  34
DOCKED: ATOM     34  O   UNL d   1      11.300  15.302  13.464 -0.43 -0.96    -0.776 OA
DOCKED: ATOM     35  H   UNL d   1      11.408  15.093  14.402 +0.00 +0.27    +0.167 HD
DOCKED: ENDBRANCH  32  34
DOCKED: ENDBRANCH  31  32
DOCKED: ENDBRANCH  30  31
DOCKED: ENDBRANCH   6  30
DOCKED: BRANCH  22  36
DOCKED: ATOM     36  C   UNL d   1      12.444  12.023  12.141 -0.08 +0.02    +0.052 C 
DOCKED: BRANCH  36  37
DOCKED: ATOM     37  C   UNL d   1      11.212  11.277  12.632 -0.13 +0.06    +0.115 C 
DOCKED: BRANCH  37  38
DOCKED: ATOM     38  C   UNL d   1      10.641  11.929  13.859 -0.07 +0.17    +0.139 C 
DOCKED: ATOM     39  O   UNL d   1       9.566  11.569  14.315 -0.38 -1.03    -0.650 OA
DOCKED: BRANCH  38  40
DOCKED: ATOM     40  O   UNL d   1      11.313  12.924  14.465 -0.23 -1.15    -0.776 OA
DOCKED: ATOM     41  H   UNL d   1      11.628  13.670  13.935 +0.01 +0.23    +0.167 HD
DOCKED: ENDBRANCH  38  40
DOCKED: ENDBRANCH  37  38
DOCKED: ENDBRANCH  36  37
DOCKED: ENDBRANCH  22  36
DOCKED: BRANCH  12  42
DOCKED: ATOM     42  C   UNL d   1       9.998  14.579   1.477 -0.42 -0.00    +0.004 C 
DOCKED: ATOM     43  C   UNL d   1      10.157  15.567   0.587 -0.34 -0.00    +0.012 C 
DOCKED: ENDBRANCH  12  42
DOCKED: BRANCH  17  44
DOCKED: ATOM     44  C   UNL d   1      13.687   8.500   5.100 -0.21 +0.00    +0.004 C 
DOCKED: ATOM     45  C   UNL d   1      13.018   7.375   4.829 -0.29 +0.00    +0.012 C 
DOCKED: ENDBRANCH  17  44
DOCKED: TORSDOF 10
DOCKED: TER
DOCKED: ENDMDL
________________________________________________________________________________


	BEGINNING GENETIC ALGORITHM DOCKING 62 of 100
Run: 62 Seed: 152049311 145762647 [ Run 62 of 100 GA/GALS ]
Beginning LAMARCKIAN GENETIC ALGORITHM (LGA), with a maximum of 25000000 energy evaluations.

Final-Value: -15.344


	FINAL GENETIC ALGORITHM DOCKED STATE
	_______________________________________________


Detailed state:  trans 6.857 5.820 5.313 quatxyzw -0.334710 0.343855 0.867530 -0.130864 center -0.174 -0.001 -0.047 ntor 10 140.8266 -6.4407 61.9215 -152.4926 156.1983 -167.8194 85.3208 -3.0202 -15.8940 163.8728
State:	  6.857   5.820   5.313  -0.338  0.347  0.875 -164.961    140.83   -6.44   61.92 -152.49  156.20 -167.82   85.32   -3.02  -15.89  163.87

DOCKED: MODEL       62
DOCKED: USER    Run = 62
DOCKED: USER    DPF = D:/Protein_go_brrr/autodock/final/mut_Y35F/heme_Fe/dock.dpf
DOCKED: USER  
DOCKED: USER    Estimated Free Energy of Binding    =  -11.88 kcal/mol  [=(1)+(2)+(3)-(4)]
DOCKED: USER    Estimated Inhibition Constant, Ki   =    1.95 nM (nanomolar)  [Temperature = 298.15 K]
DOCKED: USER    
DOCKED: USER    (1) Final Intermolecular Energy     =  -14.86 kcal/mol
DOCKED: USER        vdW + Hbond + desolv Energy     =  -12.13 kcal/mol
DOCKED: USER        Electrostatic Energy            =   -2.73 kcal/mol
DOCKED: USER    (2) Final Total Internal Energy     =   -0.48 kcal/mol
DOCKED: USER    (3) Torsional Free Energy           =   +2.98 kcal/mol
DOCKED: USER    (4) Unbound System's Energy  [=(2)] =   -0.48 kcal/mol
DOCKED: USER    
DOCKED: USER    
DOCKED: USER    NEWDPF move heme_Fe_opt.pdbqt
DOCKED: USER    NEWDPF about -0.174000 -0.001000 -0.047000
DOCKED: USER    NEWDPF tran0 6.857074 5.820205 5.313210
DOCKED: USER    NEWDPF quaternion0 -0.334710 0.343855 0.867530 -0.130864
DOCKED: USER    NEWDPF axisangle0 -0.337613 0.346838 0.875055 -164.960913
DOCKED: USER    NEWDPF quat0 -0.337613 0.346838 0.875055 -164.960913
DOCKED: USER    NEWDPF dihe0 140.83 -6.44 61.92 -152.49 156.20 -167.82 85.32 -3.02 -15.89 163.87 
DOCKED: USER  keepresnum = 1 
DOCKED: USER  
DOCKED: REMARK  10 active torsions:
DOCKED: REMARK  status: ('A' for Active; 'I' for Inactive)
DOCKED: REMARK    1  A    between atoms: C_6  and  C_10 
DOCKED: REMARK    2  A    between atoms: C_10  and  C_11 
DOCKED: REMARK    3  A    between atoms: C_11  and  C_12 
DOCKED: REMARK    4  A    between atoms: C_12  and  O_14 
DOCKED: REMARK    5  A    between atoms: C_17  and  C_20 
DOCKED: REMARK    6  A    between atoms: C_24  and  C_27 
DOCKED: REMARK    7  A    between atoms: C_31  and  C_34 
DOCKED: REMARK    8  A    between atoms: C_34  and  C_35 
DOCKED: REMARK    9  A    between atoms: C_35  and  C_36 
DOCKED: REMARK   10  A    between atoms: C_36  and  O_38 
DOCKED: USER                              x       y       z     vdW  Elec       q    Type
DOCKED: USER                           _______ _______ _______ _____ _____    ______ ____
DOCKED: ROOT
DOCKED: ATOM      1  C   UNL d   1       8.092   6.233   6.899 -0.28 +0.04    +0.064 C 
DOCKED: ATOM      2  C   UNL d   1       6.999   8.514   2.652 -0.44 +0.01    +0.064 A 
DOCKED: ATOM      3  C   UNL d   1       3.182   5.639   2.171 -0.42 +0.00    +0.064 C 
DOCKED: ATOM      4  C   UNL d   1       4.281   3.349   6.225 -0.47 +0.01    +0.064 C 
DOCKED: ATOM      5  C   UNL d   1       8.186   7.086   5.706 +0.00 +0.02    +0.066 A 
DOCKED: ATOM      6  C   UNL d   1       9.222   7.967   5.443 -0.25 -0.00    -0.021 A 
DOCKED: ATOM      7  C   UNL d   1       8.916   8.603   4.265 -0.35 -0.00    -0.025 A 
DOCKED: ATOM      8  C   UNL d   1       7.703   8.085   3.854 -0.39 +0.01    +0.066 A 
DOCKED: ATOM      9  C   UNL d   1       9.756   9.632   3.573 -0.43 -0.00    +0.051 C 
DOCKED: ATOM     10  C   UNL d   1       5.857   7.991   2.203 -0.41 +0.01    +0.066 A 
DOCKED: ATOM     11  C   UNL d   1       5.148   8.500   1.112 -0.47 -0.00    -0.021 A 
DOCKED: ATOM     12  C   UNL d   1       4.034   7.698   0.963 -0.49 +0.00    +0.000 A 
DOCKED: ATOM     13  C   UNL d   1       4.117   6.737   1.986 -0.38 +0.01    +0.070 A 
DOCKED: ATOM     14  C   UNL d   1       5.479   9.732   0.294 -0.50 +0.01    +0.052 C 
DOCKED: ATOM     15  C   UNL d   1       3.229   4.743   3.185 -0.38 +0.00    +0.066 A 
DOCKED: ATOM     16  C   UNL d   1       2.376   3.650   3.271 -0.36 -0.00    -0.021 A 
DOCKED: ATOM     17  C   UNL d   1       2.689   2.990   4.441 -0.34 +0.00    +0.000 A 
DOCKED: ATOM     18  C   UNL d   1       3.725   3.699   5.044 -0.36 +0.01    +0.070 A 
DOCKED: ATOM     19  C   UNL d   1       1.292   3.253   2.306 -0.24 +0.00    +0.052 C 
DOCKED: ATOM     20  C   UNL d   1       5.412   4.036   6.859 -0.38 +0.02    +0.066 A 
DOCKED: ATOM     21  C   UNL d   1       5.867   3.810   8.166 -0.21 -0.01    -0.025 A 
DOCKED: ATOM     22  C   UNL d   1       6.961   4.633   8.333 -0.27 -0.01    -0.021 A 
DOCKED: ATOM     23  C   UNL d   1       7.127   5.330   7.130 -0.35 +0.03    +0.066 A 
DOCKED: ATOM     24  C   UNL d   1       5.305   2.875   9.212 +0.31 +0.01    +0.051 C 
DOCKED: ATOM     25  N   UNL d   1       7.266   7.156   4.728 -0.20 -0.07    -0.248 N 
DOCKED: ATOM     26  N   UNL d   1       5.224   6.921   2.747 -0.24 -0.05    -0.248 N 
DOCKED: ATOM     27  N   UNL d   1       4.087   4.752   4.252 -0.24 -0.03    -0.248 N 
DOCKED: ATOM     28  N   UNL d   1       6.152   4.994   6.250 -0.24 -0.07    -0.248 N 
DOCKED: ATOM     29 FE   UNL d   1       5.687   5.956   4.500 -0.09 +0.00    +0.000 Fe
DOCKED: ENDROOT
DOCKED: BRANCH   6  30
DOCKED: ATOM     30  C   UNL d   1      10.453   8.180   6.257 -0.22 +0.01    +0.052 C 
DOCKED: BRANCH  30  31
DOCKED: ATOM     31  C   UNL d   1      11.413   7.006   6.102 -0.15 +0.05    +0.115 C 
DOCKED: BRANCH  31  32
DOCKED: ATOM     32  C   UNL d   1      11.208   6.010   7.210 -0.15 +0.15    +0.139 C 
DOCKED: ATOM     33  O   UNL d   1      11.530   4.839   7.063 -0.44 -0.90    -0.650 OA
DOCKED: BRANCH  32  34
DOCKED: ATOM     34  O   UNL d   1      10.666   6.400   8.376 -0.23 -1.16    -0.776 OA
DOCKED: ATOM     35  H   UNL d   1      10.914   7.259   8.745 +0.03 +0.14    +0.167 HD
DOCKED: ENDBRANCH  32  34
DOCKED: ENDBRANCH  31  32
DOCKED: ENDBRANCH  30  31
DOCKED: ENDBRANCH   6  30
DOCKED: BRANCH  22  36
DOCKED: ATOM     36  C   UNL d   1       7.770   4.777   9.595 +0.89 +0.07    +0.052 C 
DOCKED: BRANCH  36  37
DOCKED: ATOM     37  C   UNL d   1       7.326   6.020  10.351 +0.06 +0.08    +0.115 C 
DOCKED: BRANCH  37  38
DOCKED: ATOM     38  C   UNL d   1       8.050   6.141  11.662 -0.16 +0.10    +0.139 C 
DOCKED: ATOM     39  O   UNL d   1       7.681   6.942  12.509 +0.02 -0.26    -0.650 OA
DOCKED: BRANCH  38  40
DOCKED: ATOM     40  O   UNL d   1       9.119   5.365  11.913 -0.55 -1.08    -0.776 OA
DOCKED: ATOM     41  H   UNL d   1       9.634   5.519  12.717 +0.02 +0.14    +0.167 HD
DOCKED: ENDBRANCH  38  40
DOCKED: ENDBRANCH  37  38
DOCKED: ENDBRANCH  36  37
DOCKED: ENDBRANCH  22  36
DOCKED: BRANCH  12  42
DOCKED: ATOM     42  C   UNL d   1       2.980   7.883  -0.082 -0.60 +0.00    +0.004 C 
DOCKED: ATOM     43  C   UNL d   1       2.855   7.017  -1.096 -0.58 +0.00    +0.012 C 
DOCKED: ENDBRANCH  12  42
DOCKED: BRANCH  17  44
DOCKED: ATOM     44  C   UNL d   1       2.053   1.749   4.939 -0.54 -0.00    +0.004 C 
DOCKED: ATOM     45  C   UNL d   1       1.090   1.798   5.865 -0.68 -0.00    +0.012 C 
DOCKED: ENDBRANCH  17  44
DOCKED: TORSDOF 10
DOCKED: TER
DOCKED: ENDMDL
________________________________________________________________________________


	BEGINNING GENETIC ALGORITHM DOCKING 63 of 100
Run: 63 Seed: 1456397198 424669949 [ Run 63 of 100 GA/GALS ]
Beginning LAMARCKIAN GENETIC ALGORITHM (LGA), with a maximum of 25000000 energy evaluations.

Final-Value: -11.128


	FINAL GENETIC ALGORITHM DOCKED STATE
	_______________________________________________


Detailed state:  trans 11.423 11.018 4.736 quatxyzw -0.196656 -0.317084 0.596426 -0.710676 center -0.174 -0.001 -0.047 ntor 10 102.8980 -0.2602 -168.5216 31.0907 -80.5038 -58.7260 35.2992 -10.4905 -156.6494 -152.9032
State:	 11.423  11.018   4.736  -0.280 -0.451  0.848 -89.420    102.90   -0.26 -168.52   31.09  -80.50  -58.73   35.30  -10.49 -156.65 -152.90

DOCKED: MODEL       63
DOCKED: USER    Run = 63
DOCKED: USER    DPF = D:/Protein_go_brrr/autodock/final/mut_Y35F/heme_Fe/dock.dpf
DOCKED: USER  
DOCKED: USER    Estimated Free Energy of Binding    =   -7.65 kcal/mol  [=(1)+(2)+(3)-(4)]
DOCKED: USER    Estimated Inhibition Constant, Ki   =    2.47 uM (micromolar)  [Temperature = 298.15 K]
DOCKED: USER    
DOCKED: USER    (1) Final Intermolecular Energy     =  -10.63 kcal/mol
DOCKED: USER        vdW + Hbond + desolv Energy     =   -8.62 kcal/mol
DOCKED: USER        Electrostatic Energy            =   -2.01 kcal/mol
DOCKED: USER    (2) Final Total Internal Energy     =   -0.50 kcal/mol
DOCKED: USER    (3) Torsional Free Energy           =   +2.98 kcal/mol
DOCKED: USER    (4) Unbound System's Energy  [=(2)] =   -0.50 kcal/mol
DOCKED: USER    
DOCKED: USER    
DOCKED: USER    NEWDPF move heme_Fe_opt.pdbqt
DOCKED: USER    NEWDPF about -0.174000 -0.001000 -0.047000
DOCKED: USER    NEWDPF tran0 11.423079 11.017704 4.736125
DOCKED: USER    NEWDPF quaternion0 -0.196656 -0.317084 0.596426 -0.710676
DOCKED: USER    NEWDPF axisangle0 -0.279532 -0.450711 0.847775 -89.420177
DOCKED: USER    NEWDPF quat0 -0.279532 -0.450711 0.847775 -89.420177
DOCKED: USER    NEWDPF dihe0 102.90 -0.26 -168.52 31.09 -80.50 -58.73 35.30 -10.49 -156.65 -152.90 
DOCKED: USER  keepresnum = 1 
DOCKED: USER  
DOCKED: REMARK  10 active torsions:
DOCKED: REMARK  status: ('A' for Active; 'I' for Inactive)
DOCKED: REMARK    1  A    between atoms: C_6  and  C_10 
DOCKED: REMARK    2  A    between atoms: C_10  and  C_11 
DOCKED: REMARK    3  A    between atoms: C_11  and  C_12 
DOCKED: REMARK    4  A    between atoms: C_12  and  O_14 
DOCKED: REMARK    5  A    between atoms: C_17  and  C_20 
DOCKED: REMARK    6  A    between atoms: C_24  and  C_27 
DOCKED: REMARK    7  A    between atoms: C_31  and  C_34 
DOCKED: REMARK    8  A    between atoms: C_34  and  C_35 
DOCKED: REMARK    9  A    between atoms: C_35  and  C_36 
DOCKED: REMARK   10  A    between atoms: C_36  and  O_38 
DOCKED: USER                              x       y       z     vdW  Elec       q    Type
DOCKED: USER                           _______ _______ _______ _____ _____    ______ ____
DOCKED: ROOT
DOCKED: ATOM      1  C   UNL d   1      10.928   9.026   4.731 -0.28 +0.01    +0.064 C 
DOCKED: ATOM      2  C   UNL d   1      13.784  11.895   7.567 -0.04 +0.01    +0.064 A 
DOCKED: ATOM      3  C   UNL d   1      11.702  15.765   5.630 -0.14 -0.01    +0.064 C 
DOCKED: ATOM      4  C   UNL d   1       9.003  13.010   2.800 -0.52 -0.01    +0.064 C 
DOCKED: ATOM      5  C   UNL d   1      11.984   9.476   5.648 -0.12 +0.01    +0.066 A 
DOCKED: ATOM      6  C   UNL d   1      12.869   8.638   6.307 -0.08 -0.00    -0.021 A 
DOCKED: ATOM      7  C   UNL d   1      13.659   9.435   7.098 -0.03 -0.00    -0.025 A 
DOCKED: ATOM      8  C   UNL d   1      13.226  10.731   6.890 -0.05 +0.01    +0.066 A 
DOCKED: ATOM      9  C   UNL d   1      14.775   8.972   7.982 -0.01 +0.01    +0.051 C 
DOCKED: ATOM     10  C   UNL d   1      13.424  13.159   7.343 -0.05 +0.00    +0.066 A 
DOCKED: ATOM     11  C   UNL d   1      13.895  14.243   8.088 -0.03 -0.00    -0.021 A 
DOCKED: ATOM     12  C   UNL d   1      13.297  15.369   7.560 -0.05 +0.00    +0.000 A 
DOCKED: ATOM     13  C   UNL d   1      12.477  14.909   6.515 -0.08 -0.00    +0.070 A 
DOCKED: ATOM     14  C   UNL d   1      14.818  14.201   9.289 -0.01 +0.00    +0.052 C 
DOCKED: ATOM     15  C   UNL d   1      10.872  15.324   4.656 -0.19 -0.01    +0.066 A 
DOCKED: ATOM     16  C   UNL d   1      10.226  16.174   3.767 -0.23 +0.00    -0.021 A 
DOCKED: ATOM     17  C   UNL d   1       9.444  15.382   2.952 -0.36 -0.00    +0.000 A 
DOCKED: ATOM     18  C   UNL d   1       9.628  14.065   3.367 -0.36 -0.01    +0.070 A 
DOCKED: ATOM     19  C   UNL d   1      10.319  17.675   3.700 -0.15 -0.01    +0.052 C 
DOCKED: ATOM     20  C   UNL d   1       9.218  11.605   3.169 -0.38 -0.01    +0.066 A 
DOCKED: ATOM     21  C   UNL d   1       8.438  10.525   2.734 -0.50 +0.00    -0.025 A 
DOCKED: ATOM     22  C   UNL d   1       9.012   9.398   3.286 -0.45 +0.00    -0.021 A 
DOCKED: ATOM     23  C   UNL d   1      10.110   9.834   4.037 -0.31 -0.00    +0.066 A 
DOCKED: ATOM     24  C   UNL d   1       7.212  10.542   1.850 -0.08 +0.00    +0.051 C 
DOCKED: ATOM     25  N   UNL d   1      12.213  10.753   6.001 -0.06 -0.02    -0.248 N 
DOCKED: ATOM     26  N   UNL d   1      12.548  13.562   6.388 -0.05 -0.00    -0.248 N 
DOCKED: ATOM     27  N   UNL d   1      10.539  14.024   4.385 -0.05 +0.03    -0.248 N 
DOCKED: ATOM     28  N   UNL d   1      10.204  11.185   3.998 -0.17 +0.02    -0.248 N 
DOCKED: ATOM     29 FE   UNL d   1      11.375  12.374   5.192 -0.05 -0.00    +0.000 Fe
DOCKED: ENDROOT
DOCKED: BRANCH   6  30
DOCKED: ATOM     30  C   UNL d   1      12.974   7.157   6.178 -0.15 +0.02    +0.052 C 
DOCKED: BRANCH  30  31
DOCKED: ATOM     31  C   UNL d   1      11.734   6.476   6.747 -0.18 +0.07    +0.115 C 
DOCKED: BRANCH  31  32
DOCKED: ATOM     32  C   UNL d   1      12.104   5.176   7.406 -0.12 +0.17    +0.139 C 
DOCKED: ATOM     33  O   UNL d   1      12.282   4.167   6.738 -0.52 -0.67    -0.650 OA
DOCKED: BRANCH  32  34
DOCKED: ATOM     34  O   UNL d   1      12.243   5.112   8.741 +0.11 -1.46    -0.776 OA
DOCKED: ATOM     35  H   UNL d   1      13.048   5.462   9.147 +0.01 +0.18    +0.167 HD
DOCKED: ENDBRANCH  32  34
DOCKED: ENDBRANCH  31  32
DOCKED: ENDBRANCH  30  31
DOCKED: ENDBRANCH   6  30
DOCKED: BRANCH  22  36
DOCKED: ATOM     36  C   UNL d   1       8.502   7.989   3.139 -0.39 +0.00    +0.052 C 
DOCKED: BRANCH  36  37
DOCKED: ATOM     37  C   UNL d   1       7.056   7.915   3.605 -0.39 +0.02    +0.115 C 
DOCKED: BRANCH  37  38
DOCKED: ATOM     38  C   UNL d   1       6.432   6.603   3.220 -0.10 +0.05    +0.139 C 
DOCKED: ATOM     39  O   UNL d   1       6.371   6.259   2.049 -0.40 -0.14    -0.650 OA
DOCKED: BRANCH  38  40
DOCKED: ATOM     40  O   UNL d   1       5.931   5.794   4.171 -0.81 -0.30    -0.776 OA
DOCKED: ATOM     41  H   UNL d   1       5.525   4.956   3.909 +0.09 +0.04    +0.167 HD
DOCKED: ENDBRANCH  38  40
DOCKED: ENDBRANCH  37  38
DOCKED: ENDBRANCH  36  37
DOCKED: ENDBRANCH  22  36
DOCKED: BRANCH  12  42
DOCKED: ATOM     42  C   UNL d   1      13.505  16.764   8.060 -0.03 -0.00    +0.004 C 
DOCKED: ATOM     43  C   UNL d   1      12.477  17.498   8.504 -0.07 -0.00    +0.012 C 
DOCKED: ENDBRANCH  12  42
DOCKED: BRANCH  17  44
DOCKED: ATOM     44  C   UNL d   1       8.593  15.852   1.836 -0.37 -0.00    +0.004 C 
DOCKED: ATOM     45  C   UNL d   1       9.106  16.043   0.616 -0.41 -0.00    +0.012 C 
DOCKED: ENDBRANCH  17  44
DOCKED: TORSDOF 10
DOCKED: TER
DOCKED: ENDMDL
________________________________________________________________________________


	BEGINNING GENETIC ALGORITHM DOCKING 64 of 100
Run: 64 Seed: 911699507 1908770217 [ Run 64 of 100 GA/GALS ]
Beginning LAMARCKIAN GENETIC ALGORITHM (LGA), with a maximum of 25000000 energy evaluations.

Final-Value: -12.637


	FINAL GENETIC ALGORITHM DOCKED STATE
	_______________________________________________


Detailed state:  trans 11.642 11.588 7.171 quatxyzw -0.547705 -0.462116 0.568284 -0.404377 center -0.174 -0.001 -0.047 ntor 10 -86.9910 140.5629 -100.6858 49.4513 106.5054 151.7155 -46.1871 -15.8972 -177.1521 16.6075
State:	 11.642  11.588   7.171  -0.599 -0.505  0.621 -132.296    -86.99  140.56 -100.69   49.45  106.51  151.72  -46.19  -15.90 -177.15   16.61

DOCKED: MODEL       64
DOCKED: USER    Run = 64
DOCKED: USER    DPF = D:/Protein_go_brrr/autodock/final/mut_Y35F/heme_Fe/dock.dpf
DOCKED: USER  
DOCKED: USER    Estimated Free Energy of Binding    =   -8.22 kcal/mol  [=(1)+(2)+(3)-(4)]
DOCKED: USER    Estimated Inhibition Constant, Ki   =  946.96 nM (nanomolar)  [Temperature = 298.15 K]
DOCKED: USER    
DOCKED: USER    (1) Final Intermolecular Energy     =  -11.20 kcal/mol
DOCKED: USER        vdW + Hbond + desolv Energy     =   -8.18 kcal/mol
DOCKED: USER        Electrostatic Energy            =   -3.02 kcal/mol
DOCKED: USER    (2) Final Total Internal Energy     =   -1.44 kcal/mol
DOCKED: USER    (3) Torsional Free Energy           =   +2.98 kcal/mol
DOCKED: USER    (4) Unbound System's Energy  [=(2)] =   -1.44 kcal/mol
DOCKED: USER    
DOCKED: USER    
DOCKED: USER    NEWDPF move heme_Fe_opt.pdbqt
DOCKED: USER    NEWDPF about -0.174000 -0.001000 -0.047000
DOCKED: USER    NEWDPF tran0 11.642405 11.588219 7.171326
DOCKED: USER    NEWDPF quaternion0 -0.547705 -0.462116 0.568284 -0.404377
DOCKED: USER    NEWDPF axisangle0 -0.598851 -0.505270 0.621353 -132.295777
DOCKED: USER    NEWDPF quat0 -0.598851 -0.505270 0.621353 -132.295777
DOCKED: USER    NEWDPF dihe0 -86.99 140.56 -100.69 49.45 106.51 151.72 -46.19 -15.90 -177.15 16.61 
DOCKED: USER  keepresnum = 1 
DOCKED: USER  
DOCKED: REMARK  10 active torsions:
DOCKED: REMARK  status: ('A' for Active; 'I' for Inactive)
DOCKED: REMARK    1  A    between atoms: C_6  and  C_10 
DOCKED: REMARK    2  A    between atoms: C_10  and  C_11 
DOCKED: REMARK    3  A    between atoms: C_11  and  C_12 
DOCKED: REMARK    4  A    between atoms: C_12  and  O_14 
DOCKED: REMARK    5  A    between atoms: C_17  and  C_20 
DOCKED: REMARK    6  A    between atoms: C_24  and  C_27 
DOCKED: REMARK    7  A    between atoms: C_31  and  C_34 
DOCKED: REMARK    8  A    between atoms: C_34  and  C_35 
DOCKED: REMARK    9  A    between atoms: C_35  and  C_36 
DOCKED: REMARK   10  A    between atoms: C_36  and  O_38 
DOCKED: USER                              x       y       z     vdW  Elec       q    Type
DOCKED: USER                           _______ _______ _______ _____ _____    ______ ____
DOCKED: ROOT
DOCKED: ATOM      1  C   UNL d   1      11.254   9.646   7.707 -0.15 +0.01    +0.064 C 
DOCKED: ATOM      2  C   UNL d   1      11.026  14.006  10.023 -0.22 +0.02    +0.064 A 
DOCKED: ATOM      3  C   UNL d   1      11.314  16.206   5.763 -0.17 -0.01    +0.064 C 
DOCKED: ATOM      4  C   UNL d   1      11.643  11.998   3.510 -0.22 -0.01    +0.064 C 
DOCKED: ATOM      5  C   UNL d   1      11.247  10.670   8.760 -0.15 +0.01    +0.066 A 
DOCKED: ATOM      6  C   UNL d   1      11.280  10.407  10.120 -0.14 -0.01    -0.021 A 
DOCKED: ATOM      7  C   UNL d   1      11.213  11.618  10.762 -0.16 -0.01    -0.025 A 
DOCKED: ATOM      8  C   UNL d   1      11.142  12.576   9.769 -0.20 +0.02    +0.066 A 
DOCKED: ATOM      9  C   UNL d   1      11.236  11.834  12.244 -0.16 +0.03    +0.051 C 
DOCKED: ATOM     10  C   UNL d   1      11.013  14.954   9.084 -0.24 +0.01    +0.066 A 
DOCKED: ATOM     11  C   UNL d   1      10.786  16.306   9.352 -0.22 -0.00    -0.021 A 
DOCKED: ATOM     12  C   UNL d   1      10.847  16.960   8.137 -0.17 -0.00    +0.000 A 
DOCKED: ATOM     13  C   UNL d   1      11.103  15.962   7.181 -0.19 -0.01    +0.070 A 
DOCKED: ATOM     14  C   UNL d   1      10.458  16.936  10.690 -0.22 +0.01    +0.052 C 
DOCKED: ATOM     15  C   UNL d   1      11.510  15.243   4.831 -0.13 -0.01    +0.066 A 
DOCKED: ATOM     16  C   UNL d   1      11.807  15.522   3.503 -0.11 +0.00    -0.021 A 
DOCKED: ATOM     17  C   UNL d   1      11.898  14.310   2.851 -0.22 -0.00    +0.000 A 
DOCKED: ATOM     18  C   UNL d   1      11.650  13.319   3.797 -0.18 -0.01    +0.070 A 
DOCKED: ATOM     19  C   UNL d   1      11.973  16.875   2.864 -0.08 -0.01    +0.052 C 
DOCKED: ATOM     20  C   UNL d   1      11.447  10.925   4.491 -0.20 -0.00    +0.066 A 
DOCKED: ATOM     21  C   UNL d   1      11.238   9.573   4.182 -0.28 -0.00    -0.025 A 
DOCKED: ATOM     22  C   UNL d   1      11.142   8.919   5.393 -0.20 -0.00    -0.021 A 
DOCKED: ATOM     23  C   UNL d   1      11.290   9.893   6.388 -0.13 +0.01    +0.066 A 
DOCKED: ATOM     24  C   UNL d   1      11.127   8.923   2.822 -0.42 -0.01    +0.051 C 
DOCKED: ATOM     25  N   UNL d   1      11.173  11.996   8.552 -0.08 -0.04    -0.248 N 
DOCKED: ATOM     26  N   UNL d   1      11.196  14.738   7.757 -0.13 -0.00    -0.248 N 
DOCKED: ATOM     27  N   UNL d   1      11.455  13.889   5.024 -0.06 +0.02    -0.248 N 
DOCKED: ATOM     28  N   UNL d   1      11.430  11.121   5.832 -0.02 -0.02    -0.248 N 
DOCKED: ATOM     29 FE   UNL d   1      11.313  12.929   6.792 -0.04 +0.00    +0.000 Fe
DOCKED: ENDROOT
DOCKED: BRANCH   6  30
DOCKED: ATOM     30  C   UNL d   1      11.392   9.074  10.777 -0.10 +0.02    +0.052 C 
DOCKED: BRANCH  30  31
DOCKED: ATOM     31  C   UNL d   1      10.013   8.456  10.983 -0.10 +0.06    +0.115 C 
DOCKED: BRANCH  31  32
DOCKED: ATOM     32  C   UNL d   1      10.013   7.015  10.553 -0.13 +0.14    +0.139 C 
DOCKED: ATOM     33  O   UNL d   1       9.990   6.117  11.383 -0.39 -0.94    -0.650 OA
DOCKED: BRANCH  32  34
DOCKED: ATOM     34  O   UNL d   1      10.039   6.700   9.247 -0.02 -1.08    -0.776 OA
DOCKED: ATOM     35  H   UNL d   1      10.892   6.542   8.819 +0.03 +0.24    +0.167 HD
DOCKED: ENDBRANCH  32  34
DOCKED: ENDBRANCH  31  32
DOCKED: ENDBRANCH  30  31
DOCKED: ENDBRANCH   6  30
DOCKED: BRANCH  22  36
DOCKED: ATOM     36  C   UNL d   1      10.875   7.449   5.580 -0.14 +0.01    +0.052 C 
DOCKED: BRANCH  36  37
DOCKED: ATOM     37  C   UNL d   1      12.097   6.778   6.190 -0.17 +0.05    +0.115 C 
DOCKED: BRANCH  37  38
DOCKED: ATOM     38  C   UNL d   1      11.746   5.433   6.760 -0.08 +0.13    +0.139 C 
DOCKED: ATOM     39  O   UNL d   1      12.580   4.542   6.820 -0.42 -0.59    -0.650 OA
DOCKED: BRANCH  38  40
DOCKED: ATOM     40  O   UNL d   1      10.499   5.199   7.207 -0.48 -1.33    -0.776 OA
DOCKED: ATOM     41  H   UNL d   1      10.037   5.894   7.695 +0.04 +0.28    +0.167 HD
DOCKED: ENDBRANCH  38  40
DOCKED: ENDBRANCH  37  38
DOCKED: ENDBRANCH  36  37
DOCKED: ENDBRANCH  22  36
DOCKED: BRANCH  12  42
DOCKED: ATOM     42  C   UNL d   1      10.651  18.430   7.946 -0.17 -0.00    +0.004 C 
DOCKED: ATOM     43  C   UNL d   1       9.562  19.048   8.422 -0.23 -0.00    +0.012 C 
DOCKED: ENDBRANCH  12  42
DOCKED: BRANCH  17  44
DOCKED: ATOM     44  C   UNL d   1      12.223  14.113   1.420 -0.43 -0.00    +0.004 C 
DOCKED: ATOM     45  C   UNL d   1      13.439  13.707   1.043 -0.51 -0.00    +0.012 C 
DOCKED: ENDBRANCH  17  44
DOCKED: TORSDOF 10
DOCKED: TER
DOCKED: ENDMDL
________________________________________________________________________________


	BEGINNING GENETIC ALGORITHM DOCKING 65 of 100
Run: 65 Seed: 1251704573 610541617 [ Run 65 of 100 GA/GALS ]
Beginning LAMARCKIAN GENETIC ALGORITHM (LGA), with a maximum of 25000000 energy evaluations.

Final-Value: -12.478


	FINAL GENETIC ALGORITHM DOCKED STATE
	_______________________________________________


Detailed state:  trans 8.725 5.873 9.982 quatxyzw 0.335672 -0.530496 -0.742324 -0.234209 center -0.174 -0.001 -0.047 ntor 10 43.7626 -111.6577 -141.8738 -149.6384 -180.0000 -129.8600 -56.3889 11.0303 -169.7376 160.0977
State:	  8.725   5.873   9.982   0.345 -0.546 -0.764 -152.910     43.76 -111.66 -141.87 -149.64 -180.00 -129.86  -56.39   11.03 -169.74  160.10

DOCKED: MODEL       65
DOCKED: USER    Run = 65
DOCKED: USER    DPF = D:/Protein_go_brrr/autodock/final/mut_Y35F/heme_Fe/dock.dpf
DOCKED: USER  
DOCKED: USER    Estimated Free Energy of Binding    =   -7.32 kcal/mol  [=(1)+(2)+(3)-(4)]
DOCKED: USER    Estimated Inhibition Constant, Ki   =    4.32 uM (micromolar)  [Temperature = 298.15 K]
DOCKED: USER    
DOCKED: USER    (1) Final Intermolecular Energy     =  -10.30 kcal/mol
DOCKED: USER        vdW + Hbond + desolv Energy     =   -8.35 kcal/mol
DOCKED: USER        Electrostatic Energy            =   -1.95 kcal/mol
DOCKED: USER    (2) Final Total Internal Energy     =   -2.18 kcal/mol
DOCKED: USER    (3) Torsional Free Energy           =   +2.98 kcal/mol
DOCKED: USER    (4) Unbound System's Energy  [=(2)] =   -2.18 kcal/mol
DOCKED: USER    
DOCKED: USER    
DOCKED: USER    NEWDPF move heme_Fe_opt.pdbqt
DOCKED: USER    NEWDPF about -0.174000 -0.001000 -0.047000
DOCKED: USER    NEWDPF tran0 8.725478 5.873492 9.982432
DOCKED: USER    NEWDPF quaternion0 0.335672 -0.530496 -0.742324 -0.234209
DOCKED: USER    NEWDPF axisangle0 0.345275 -0.545673 -0.763561 -152.909992
DOCKED: USER    NEWDPF quat0 0.345275 -0.545673 -0.763561 -152.909992
DOCKED: USER    NEWDPF dihe0 43.76 -111.66 -141.87 -149.64 -180.00 -129.86 -56.39 11.03 -169.74 160.10 
DOCKED: USER  keepresnum = 1 
DOCKED: USER  
DOCKED: REMARK  10 active torsions:
DOCKED: REMARK  status: ('A' for Active; 'I' for Inactive)
DOCKED: REMARK    1  A    between atoms: C_6  and  C_10 
DOCKED: REMARK    2  A    between atoms: C_10  and  C_11 
DOCKED: REMARK    3  A    between atoms: C_11  and  C_12 
DOCKED: REMARK    4  A    between atoms: C_12  and  O_14 
DOCKED: REMARK    5  A    between atoms: C_17  and  C_20 
DOCKED: REMARK    6  A    between atoms: C_24  and  C_27 
DOCKED: REMARK    7  A    between atoms: C_31  and  C_34 
DOCKED: REMARK    8  A    between atoms: C_34  and  C_35 
DOCKED: REMARK    9  A    between atoms: C_35  and  C_36 
DOCKED: REMARK   10  A    between atoms: C_36  and  O_38 
DOCKED: USER                              x       y       z     vdW  Elec       q    Type
DOCKED: USER                           _______ _______ _______ _____ _____    ______ ____
DOCKED: ROOT
DOCKED: ATOM      1  C   UNL d   1       9.646   7.623  10.534 -0.05 +0.05    +0.064 C 
DOCKED: ATOM      2  C   UNL d   1       7.390   6.018   6.439 -0.25 +0.03    +0.064 A 
DOCKED: ATOM      3  C   UNL d   1       5.521   2.392   8.973 -0.35 +0.02    +0.064 C 
DOCKED: ATOM      4  C   UNL d   1       7.779   3.867  12.924 -0.14 +0.03    +0.064 C 
DOCKED: ATOM      5  C   UNL d   1       9.252   7.460   9.128 -0.05 +0.05    +0.066 A 
DOCKED: ATOM      6  C   UNL d   1       9.694   8.258   8.086 -0.22 -0.01    -0.021 A 
DOCKED: ATOM      7  C   UNL d   1       9.064   7.814   6.949 -0.26 -0.01    -0.025 A 
DOCKED: ATOM      8  C   UNL d   1       8.261   6.761   7.342 -0.30 +0.04    +0.066 A 
DOCKED: ATOM      9  C   UNL d   1       9.245   8.364   5.568 -0.28 +0.01    +0.051 C 
DOCKED: ATOM     10  C   UNL d   1       6.650   4.963   6.781 -0.36 +0.03    +0.066 A 
DOCKED: ATOM     11  C   UNL d   1       5.739   4.344   5.921 -0.40 -0.00    -0.021 A 
DOCKED: ATOM     12  C   UNL d   1       5.174   3.305   6.634 -0.47 +0.00    +0.000 A 
DOCKED: ATOM     13  C   UNL d   1       5.769   3.349   7.906 -0.36 +0.02    +0.070 A 
DOCKED: ATOM     14  C   UNL d   1       5.374   4.764   4.512 -0.35 +0.01    +0.052 C 
DOCKED: ATOM     15  C   UNL d   1       6.052   2.460  10.216 -0.23 +0.02    +0.066 A 
DOCKED: ATOM     16  C   UNL d   1       5.868   1.472  11.175 -0.25 -0.00    -0.021 A 
DOCKED: ATOM     17  C   UNL d   1       6.516   1.897  12.317 -0.16 +0.00    +0.000 A 
DOCKED: ATOM     18  C   UNL d   1       7.077   3.139  12.028 -0.16 +0.04    +0.070 A 
DOCKED: ATOM     19  C   UNL d   1       5.094   0.189  11.035 -0.26 -0.01    +0.052 C 
DOCKED: ATOM     20  C   UNL d   1       8.435   5.148  12.638 -0.13 +0.05    +0.066 A 
DOCKED: ATOM     21  C   UNL d   1       8.992   6.005  13.598 -0.08 -0.01    -0.025 A 
DOCKED: ATOM     22  C   UNL d   1       9.529   7.063  12.894 -0.10 -0.01    -0.021 A 
DOCKED: ATOM     23  C   UNL d   1       9.276   6.814  11.540 -0.12 +0.06    +0.066 A 
DOCKED: ATOM     24  C   UNL d   1       9.017   5.848  15.101 -0.03 +0.01    +0.051 C 
DOCKED: ATOM     25  N   UNL d   1       8.385   6.542   8.667 -0.17 -0.22    -0.248 N 
DOCKED: ATOM     26  N   UNL d   1       6.662   4.365   8.000 -0.23 -0.14    -0.248 N 
DOCKED: ATOM     27  N   UNL d   1       6.829   3.466  10.724 -0.10 -0.17    -0.248 N 
DOCKED: ATOM     28  N   UNL d   1       8.569   5.667  11.393 -0.05 -0.31    -0.248 N 
DOCKED: ATOM     29 FE   UNL d   1       7.615   5.015   9.698 -0.06 +0.00    +0.000 Fe
DOCKED: ENDROOT
DOCKED: BRANCH   6  30
DOCKED: ATOM     30  C   UNL d   1      10.681   9.372   8.159 -0.19 +0.01    +0.052 C 
DOCKED: BRANCH  30  31
DOCKED: ATOM     31  C   UNL d   1      10.018  10.648   8.668 -0.14 +0.03    +0.115 C 
DOCKED: BRANCH  31  32
DOCKED: ATOM     32  C   UNL d   1      10.733  11.160   9.888 -0.19 +0.04    +0.139 C 
DOCKED: ATOM     33  O   UNL d   1      10.355  12.180  10.449 -0.04 -0.24    -0.650 OA
DOCKED: BRANCH  32  34
DOCKED: ATOM     34  O   UNL d   1      11.797  10.500  10.374 +0.04 -0.22    -0.776 OA
DOCKED: ATOM     35  H   UNL d   1      11.870  10.366  11.329 +0.03 +0.05    +0.167 HD
DOCKED: ENDBRANCH  32  34
DOCKED: ENDBRANCH  31  32
DOCKED: ENDBRANCH  30  31
DOCKED: ENDBRANCH   6  30
DOCKED: BRANCH  22  36
DOCKED: ATOM     36  C   UNL d   1      10.205   8.267  13.495 -0.07 +0.02    +0.052 C 
DOCKED: BRANCH  36  37
DOCKED: ATOM     37  C   UNL d   1       9.255   9.456  13.467 -0.14 +0.05    +0.115 C 
DOCKED: BRANCH  37  38
DOCKED: ATOM     38  C   UNL d   1       9.972  10.726  13.827 -0.15 +0.11    +0.139 C 
DOCKED: ATOM     39  O   UNL d   1       9.521  11.479  14.678 -0.43 -0.97    -0.650 OA
DOCKED: BRANCH  38  40
DOCKED: ATOM     40  O   UNL d   1      11.122  11.047  13.208 +0.01 -0.46    -0.776 OA
DOCKED: ATOM     41  H   UNL d   1      11.101  11.279  12.269 +0.03 +0.09    +0.167 HD
DOCKED: ENDBRANCH  38  40
DOCKED: ENDBRANCH  37  38
DOCKED: ENDBRANCH  36  37
DOCKED: ENDBRANCH  22  36
DOCKED: BRANCH  12  42
DOCKED: ATOM     42  C   UNL d   1       4.130   2.373   6.106 -0.43 +0.00    +0.004 C 
DOCKED: ATOM     43  C   UNL d   1       2.828   2.610   6.310 -0.56 +0.00    +0.012 C 
DOCKED: ENDBRANCH  12  42
DOCKED: BRANCH  17  44
DOCKED: ATOM     44  C   UNL d   1       6.609   1.154  13.593 -0.08 +0.00    +0.004 C 
DOCKED: ATOM     45  C   UNL d   1       5.753   1.396  14.591 -0.05 -0.00    +0.012 C 
DOCKED: ENDBRANCH  17  44
DOCKED: TORSDOF 10
DOCKED: TER
DOCKED: ENDMDL
________________________________________________________________________________


	BEGINNING GENETIC ALGORITHM DOCKING 66 of 100
Run: 66 Seed: 1494031773 1923326803 [ Run 66 of 100 GA/GALS ]
Beginning LAMARCKIAN GENETIC ALGORITHM (LGA), with a maximum of 25000000 energy evaluations.

Final-Value: -10.458


	FINAL GENETIC ALGORITHM DOCKED STATE
	_______________________________________________


Detailed state:  trans -2.572 -7.228 -12.706 quatxyzw 0.621780 -0.775609 -0.092272 -0.057499 center -0.174 -0.001 -0.047 ntor 10 174.7962 63.4908 174.9966 -123.6965 -138.2427 -109.0908 7.4654 53.9793 -9.5257 145.3317
State:	 -2.572  -7.228 -12.706   0.623 -0.777 -0.092 -173.407    174.80   63.49  175.00 -123.70 -138.24 -109.09    7.47   53.98   -9.53  145.33

DOCKED: MODEL       66
DOCKED: USER    Run = 66
DOCKED: USER    DPF = D:/Protein_go_brrr/autodock/final/mut_Y35F/heme_Fe/dock.dpf
DOCKED: USER  
DOCKED: USER    Estimated Free Energy of Binding    =   -5.84 kcal/mol  [=(1)+(2)+(3)-(4)]
DOCKED: USER    Estimated Inhibition Constant, Ki   =   52.83 uM (micromolar)  [Temperature = 298.15 K]
DOCKED: USER    
DOCKED: USER    (1) Final Intermolecular Energy     =   -8.82 kcal/mol
DOCKED: USER        vdW + Hbond + desolv Energy     =   -8.21 kcal/mol
DOCKED: USER        Electrostatic Energy            =   -0.60 kcal/mol
DOCKED: USER    (2) Final Total Internal Energy     =   -1.64 kcal/mol
DOCKED: USER    (3) Torsional Free Energy           =   +2.98 kcal/mol
DOCKED: USER    (4) Unbound System's Energy  [=(2)] =   -1.64 kcal/mol
DOCKED: USER    
DOCKED: USER    
DOCKED: USER    NEWDPF move heme_Fe_opt.pdbqt
DOCKED: USER    NEWDPF about -0.174000 -0.001000 -0.047000
DOCKED: USER    NEWDPF tran0 -2.571578 -7.228293 -12.705748
DOCKED: USER    NEWDPF quaternion0 0.621780 -0.775609 -0.092272 -0.057499
DOCKED: USER    NEWDPF axisangle0 0.622810 -0.776895 -0.092425 -173.407439
DOCKED: USER    NEWDPF quat0 0.622810 -0.776895 -0.092425 -173.407439
DOCKED: USER    NEWDPF dihe0 174.80 63.49 175.00 -123.70 -138.24 -109.09 7.47 53.98 -9.53 145.33 
DOCKED: USER  keepresnum = 1 
DOCKED: USER  
DOCKED: REMARK  10 active torsions:
DOCKED: REMARK  status: ('A' for Active; 'I' for Inactive)
DOCKED: REMARK    1  A    between atoms: C_6  and  C_10 
DOCKED: REMARK    2  A    between atoms: C_10  and  C_11 
DOCKED: REMARK    3  A    between atoms: C_11  and  C_12 
DOCKED: REMARK    4  A    between atoms: C_12  and  O_14 
DOCKED: REMARK    5  A    between atoms: C_17  and  C_20 
DOCKED: REMARK    6  A    between atoms: C_24  and  C_27 
DOCKED: REMARK    7  A    between atoms: C_31  and  C_34 
DOCKED: REMARK    8  A    between atoms: C_34  and  C_35 
DOCKED: REMARK    9  A    between atoms: C_35  and  C_36 
DOCKED: REMARK   10  A    between atoms: C_36  and  O_38 
DOCKED: USER                              x       y       z     vdW  Elec       q    Type
DOCKED: USER                           _______ _______ _______ _____ _____    ______ ____
DOCKED: ROOT
DOCKED: ATOM      1  C   UNL d   1      -2.188  -5.271 -13.187 -0.18 +0.00    +0.064 C 
DOCKED: ATOM      2  C   UNL d   1       0.220  -9.543 -13.805 -0.20 +0.01    +0.064 A 
DOCKED: ATOM      3  C   UNL d   1      -3.836 -11.898 -12.769 -0.31 -0.01    +0.064 C 
DOCKED: ATOM      4  C   UNL d   1      -6.158  -7.776 -12.063 -0.24 -0.01    +0.064 C 
DOCKED: ATOM      5  C   UNL d   1      -1.113  -6.255 -13.375 -0.19 +0.00    +0.066 A 
DOCKED: ATOM      6  C   UNL d   1       0.220  -5.941 -13.582 -0.21 -0.00    -0.021 A 
DOCKED: ATOM      7  C   UNL d   1       0.887  -7.127 -13.757 -0.24 -0.00    -0.025 A 
DOCKED: ATOM      8  C   UNL d   1      -0.065  -8.122 -13.650 -0.23 +0.01    +0.066 A 
DOCKED: ATOM      9  C   UNL d   1       2.358  -7.287 -13.993 -0.26 +0.02    +0.051 C 
DOCKED: ATOM     10  C   UNL d   1      -0.669 -10.526 -13.650 -0.25 -0.00    +0.066 A 
DOCKED: ATOM     11  C   UNL d   1      -0.394 -11.869 -13.917 -0.26 +0.00    -0.021 A 
DOCKED: ATOM     12  C   UNL d   1      -1.553 -12.568 -13.642 -0.25 -0.00    +0.000 A 
DOCKED: ATOM     13  C   UNL d   1      -2.487 -11.603 -13.226 -0.22 -0.01    +0.070 A 
DOCKED: ATOM     14  C   UNL d   1       0.890 -12.451 -14.473 -0.21 -0.00    +0.052 C 
DOCKED: ATOM     15  C   UNL d   1      -4.756 -10.970 -12.416 -0.27 -0.01    +0.066 A 
DOCKED: ATOM     16  C   UNL d   1      -6.000 -11.296 -11.891 -0.34 +0.00    -0.021 A 
DOCKED: ATOM     17  C   UNL d   1      -6.673 -10.108 -11.690 -0.33 -0.00    +0.000 A 
DOCKED: ATOM     18  C   UNL d   1      -5.823  -9.084 -12.102 -0.21 -0.01    +0.070 A 
DOCKED: ATOM     19  C   UNL d   1      -6.547 -12.669 -11.611 -0.32 -0.02    +0.052 C 
DOCKED: ATOM     20  C   UNL d   1      -5.268  -6.668 -12.431 -0.16 -0.00    +0.066 A 
DOCKED: ATOM     21  C   UNL d   1      -5.661  -5.331 -12.587 -0.15 +0.00    -0.025 A 
DOCKED: ATOM     22  C   UNL d   1      -4.512  -4.633 -12.895 -0.12 -0.00    -0.021 A 
DOCKED: ATOM     23  C   UNL d   1      -3.470  -5.567 -12.921 -0.16 +0.00    +0.066 A 
DOCKED: ATOM     24  C   UNL d   1      -7.043  -4.733 -12.459 -0.08 +0.00    +0.051 C 
DOCKED: ATOM     25  N   UNL d   1      -1.280  -7.589 -13.409 -0.14 -0.01    -0.248 N 
DOCKED: ATOM     26  N   UNL d   1      -1.952 -10.358 -13.239 -0.17 +0.02    -0.248 N 
DOCKED: ATOM     27  N   UNL d   1      -4.628  -9.610 -12.508 -0.11 +0.01    -0.248 N 
DOCKED: ATOM     28  N   UNL d   1      -3.945  -6.813 -12.681 -0.09 -0.00    -0.248 N 
DOCKED: ATOM     29 FE   UNL d   1      -2.950  -8.585 -12.960 -0.05 -0.00    +0.000 Fe
DOCKED: ENDROOT
DOCKED: BRANCH   6  30
DOCKED: ATOM     30  C   UNL d   1       0.835  -4.583 -13.591 -0.20 +0.02    +0.052 C 
DOCKED: BRANCH  30  31
DOCKED: ATOM     31  C   UNL d   1       1.066  -4.084 -12.169 -0.09 +0.06    +0.115 C 
DOCKED: BRANCH  31  32
DOCKED: ATOM     32  C   UNL d   1       1.514  -2.649 -12.180 -0.19 +0.08    +0.139 C 
DOCKED: ATOM     33  O   UNL d   1       2.406  -2.269 -11.435 -0.48 -0.56    -0.650 OA
DOCKED: BRANCH  32  34
DOCKED: ATOM     34  O   UNL d   1       0.935  -1.768 -13.014 +0.05 -0.20    -0.776 OA
DOCKED: ATOM     35  H   UNL d   1       0.284  -2.087 -13.654 +0.04 +0.03    +0.167 HD
DOCKED: ENDBRANCH  32  34
DOCKED: ENDBRANCH  31  32
DOCKED: ENDBRANCH  30  31
DOCKED: ENDBRANCH   6  30
DOCKED: BRANCH  22  36
DOCKED: ATOM     36  C   UNL d   1      -4.432  -3.159 -13.194 -0.08 +0.00    +0.052 C 
DOCKED: BRANCH  36  37
DOCKED: ATOM     37  C   UNL d   1      -3.935  -2.951 -14.618 -0.04 +0.00    +0.115 C 
DOCKED: BRANCH  37  38
DOCKED: ATOM     38  C   UNL d   1      -2.751  -2.027 -14.645 -0.04 +0.00    +0.139 C 
DOCKED: ATOM     39  O   UNL d   1      -2.851  -0.896 -15.099 +0.00 -0.01    -0.650 OA
DOCKED: BRANCH  38  40
DOCKED: ATOM     40  O   UNL d   1      -1.563  -2.442 -14.170 +0.01 -0.04    -0.776 OA
DOCKED: ATOM     41  H   UNL d   1      -1.180  -1.993 -13.404 -0.01 +0.01    +0.167 HD
DOCKED: ENDBRANCH  38  40
DOCKED: ENDBRANCH  37  38
DOCKED: ENDBRANCH  36  37
DOCKED: ENDBRANCH  22  36
DOCKED: BRANCH  12  42
DOCKED: ATOM     42  C   UNL d   1      -1.719 -14.046 -13.798 -0.12 +0.00    +0.004 C 
DOCKED: ATOM     43  C   UNL d   1      -2.829 -14.561 -14.341 -0.21 +0.00    +0.012 C 
DOCKED: ENDBRANCH  12  42
DOCKED: BRANCH  17  44
DOCKED: ATOM     44  C   UNL d   1      -8.031  -9.962 -11.121 -0.48 -0.00    +0.004 C 
DOCKED: ATOM     45  C   UNL d   1      -9.108 -10.357 -11.808 -0.41 -0.00    +0.012 C 
DOCKED: ENDBRANCH  17  44
DOCKED: TORSDOF 10
DOCKED: TER
DOCKED: ENDMDL
________________________________________________________________________________


	BEGINNING GENETIC ALGORITHM DOCKING 67 of 100
Run: 67 Seed: 926265014 491967706 [ Run 67 of 100 GA/GALS ]
Beginning LAMARCKIAN GENETIC ALGORITHM (LGA), with a maximum of 25000000 energy evaluations.

Final-Value: -10.099


	FINAL GENETIC ALGORITHM DOCKED STATE
	_______________________________________________


Detailed state:  trans 21.185 -3.629 -7.756 quatxyzw -0.518405 -0.307797 0.643521 -0.471591 center -0.174 -0.001 -0.047 ntor 10 -123.7585 116.5705 61.0211 46.9965 88.8024 -92.0220 -120.8877 -114.9993 159.5303 151.3540
State:	 21.185  -3.629  -7.756  -0.588 -0.349  0.730 -123.725   -123.76  116.57   61.02   47.00   88.80  -92.02 -120.89 -115.00  159.53  151.35

DOCKED: MODEL       67
DOCKED: USER    Run = 67
DOCKED: USER    DPF = D:/Protein_go_brrr/autodock/final/mut_Y35F/heme_Fe/dock.dpf
DOCKED: USER  
DOCKED: USER    Estimated Free Energy of Binding    =   -6.41 kcal/mol  [=(1)+(2)+(3)-(4)]
DOCKED: USER    Estimated Inhibition Constant, Ki   =   20.09 uM (micromolar)  [Temperature = 298.15 K]
DOCKED: USER    
DOCKED: USER    (1) Final Intermolecular Energy     =   -9.39 kcal/mol
DOCKED: USER        vdW + Hbond + desolv Energy     =   -6.87 kcal/mol
DOCKED: USER        Electrostatic Energy            =   -2.52 kcal/mol
DOCKED: USER    (2) Final Total Internal Energy     =   -0.71 kcal/mol
DOCKED: USER    (3) Torsional Free Energy           =   +2.98 kcal/mol
DOCKED: USER    (4) Unbound System's Energy  [=(2)] =   -0.71 kcal/mol
DOCKED: USER    
DOCKED: USER    
DOCKED: USER    NEWDPF move heme_Fe_opt.pdbqt
DOCKED: USER    NEWDPF about -0.174000 -0.001000 -0.047000
DOCKED: USER    NEWDPF tran0 21.185381 -3.628925 -7.755884
DOCKED: USER    NEWDPF quaternion0 -0.518405 -0.307797 0.643521 -0.471591
DOCKED: USER    NEWDPF axisangle0 -0.587882 -0.349049 0.729767 -123.724783
DOCKED: USER    NEWDPF quat0 -0.587882 -0.349049 0.729767 -123.724783
DOCKED: USER    NEWDPF dihe0 -123.76 116.57 61.02 47.00 88.80 -92.02 -120.89 -115.00 159.53 151.35 
DOCKED: USER  keepresnum = 1 
DOCKED: USER  
DOCKED: REMARK  10 active torsions:
DOCKED: REMARK  status: ('A' for Active; 'I' for Inactive)
DOCKED: REMARK    1  A    between atoms: C_6  and  C_10 
DOCKED: REMARK    2  A    between atoms: C_10  and  C_11 
DOCKED: REMARK    3  A    between atoms: C_11  and  C_12 
DOCKED: REMARK    4  A    between atoms: C_12  and  O_14 
DOCKED: REMARK    5  A    between atoms: C_17  and  C_20 
DOCKED: REMARK    6  A    between atoms: C_24  and  C_27 
DOCKED: REMARK    7  A    between atoms: C_31  and  C_34 
DOCKED: REMARK    8  A    between atoms: C_34  and  C_35 
DOCKED: REMARK    9  A    between atoms: C_35  and  C_36 
DOCKED: REMARK   10  A    between atoms: C_36  and  O_38 
DOCKED: USER                              x       y       z     vdW  Elec       q    Type
DOCKED: USER                           _______ _______ _______ _____ _____    ______ ____
DOCKED: ROOT
DOCKED: ATOM      1  C   UNL d   1      20.728  -5.393  -6.812 -0.12 +0.02    +0.064 C 
DOCKED: ATOM      2  C   UNL d   1      21.806  -0.812  -5.298 -0.16 +0.00    +0.064 A 
DOCKED: ATOM      3  C   UNL d   1      21.053   0.768  -9.770 -0.23 -0.02    +0.064 C 
DOCKED: ATOM      4  C   UNL d   1      20.109  -3.672 -11.279 -0.12 -0.01    +0.064 C 
DOCKED: ATOM      5  C   UNL d   1      21.183  -4.263  -5.989 -0.13 +0.02    +0.066 A 
DOCKED: ATOM      6  C   UNL d   1      21.599  -4.361  -4.672 -0.14 -0.00    -0.021 A 
DOCKED: ATOM      7  C   UNL d   1      21.895  -3.088  -4.251 -0.20 -0.00    -0.025 A 
DOCKED: ATOM      8  C   UNL d   1      21.647  -2.261  -5.329 -0.14 +0.00    +0.066 A 
DOCKED: ATOM      9  C   UNL d   1      22.403  -2.702  -2.896 -0.14 +0.01    +0.051 C 
DOCKED: ATOM     10  C   UNL d   1      21.630   0.002  -6.340 -0.23 -0.00    +0.066 A 
DOCKED: ATOM     11  C   UNL d   1      21.677   1.395  -6.251 -0.26 +0.00    -0.021 A 
DOCKED: ATOM     12  C   UNL d   1      21.446   1.876  -7.525 -0.28 -0.00    +0.000 A 
DOCKED: ATOM     13  C   UNL d   1      21.260   0.740  -8.331 -0.24 -0.01    +0.070 A 
DOCKED: ATOM     14  C   UNL d   1      21.865   2.231  -5.001 -0.29 +0.00    +0.052 C 
DOCKED: ATOM     15  C   UNL d   1      20.821  -0.319 -10.543 -0.23 -0.02    +0.066 A 
DOCKED: ATOM     16  C   UNL d   1      20.728  -0.260 -11.927 -0.23 +0.01    -0.021 A 
DOCKED: ATOM     17  C   UNL d   1      20.452  -1.539 -12.364 -0.18 -0.00    +0.000 A 
DOCKED: ATOM     18  C   UNL d   1      20.379  -2.349 -11.233 -0.17 -0.01    +0.070 A 
DOCKED: ATOM     19  C   UNL d   1      20.866   0.954 -12.806 -0.27 -0.02    +0.052 C 
DOCKED: ATOM     20  C   UNL d   1      20.085  -4.567 -10.116 -0.07 +0.00    +0.066 A 
DOCKED: ATOM     21  C   UNL d   1      19.614  -5.888 -10.120 -0.04 -0.00    -0.025 A 
DOCKED: ATOM     22  C   UNL d   1      19.811  -6.363  -8.840 -0.04 -0.00    -0.021 A 
DOCKED: ATOM     23  C   UNL d   1      20.387  -5.318  -8.108 -0.08 +0.02    +0.066 A 
DOCKED: ATOM     24  C   UNL d   1      19.004  -6.668 -11.261 -0.02 -0.00    +0.051 C 
DOCKED: ATOM     25  N   UNL d   1      21.224  -2.980  -6.388 -0.07 -0.01    -0.248 N 
DOCKED: ATOM     26  N   UNL d   1      21.363  -0.403  -7.608 -0.15 +0.02    -0.248 N 
DOCKED: ATOM     27  N   UNL d   1      20.650  -1.609 -10.117 -0.14 +0.04    -0.248 N 
DOCKED: ATOM     28  N   UNL d   1      20.510  -4.211  -8.880 -0.06 -0.03    -0.248 N 
DOCKED: ATOM     29 FE   UNL d   1      20.936  -2.307  -8.246 -0.05 +0.00    +0.000 Fe
DOCKED: ENDROOT
DOCKED: BRANCH   6  30
DOCKED: ATOM     30  C   UNL d   1      21.731  -5.603  -3.858 -0.07 +0.01    +0.052 C 
DOCKED: BRANCH  30  31
DOCKED: ATOM     31  C   UNL d   1      20.681  -5.638  -2.752 -0.11 +0.04    +0.115 C 
DOCKED: BRANCH  31  32
DOCKED: ATOM     32  C   UNL d   1      19.298  -5.582  -3.338 -0.09 +0.14    +0.139 C 
DOCKED: ATOM     33  O   UNL d   1      18.713  -6.608  -3.656 -0.04 -0.93    -0.650 OA
DOCKED: BRANCH  32  34
DOCKED: ATOM     34  O   UNL d   1      18.689  -4.398  -3.519 -0.34 -1.05    -0.776 OA
DOCKED: ATOM     35  H   UNL d   1      19.128  -3.721  -4.053 -0.34 +0.12    +0.167 HD
DOCKED: ENDBRANCH  32  34
DOCKED: ENDBRANCH  31  32
DOCKED: ENDBRANCH  30  31
DOCKED: ENDBRANCH   6  30
DOCKED: BRANCH  22  36
DOCKED: ATOM     36  C   UNL d   1      19.423  -7.729  -8.339 -0.03 +0.01    +0.052 C 
DOCKED: BRANCH  36  37
DOCKED: ATOM     37  C   UNL d   1      18.286  -7.604  -7.335 -0.06 +0.09    +0.115 C 
DOCKED: BRANCH  37  38
DOCKED: ATOM     38  C   UNL d   1      17.048  -7.057  -7.988 -0.06 +0.12    +0.139 C 
DOCKED: ATOM     39  O   UNL d   1      16.825  -5.856  -7.998 -0.62 -0.82    -0.650 OA
DOCKED: BRANCH  38  40
DOCKED: ATOM     40  O   UNL d   1      16.170  -7.895  -8.568 +0.02 -0.25    -0.776 OA
DOCKED: ATOM     41  H   UNL d   1      16.453  -8.417  -9.332 +0.02 +0.02    +0.167 HD
DOCKED: ENDBRANCH  38  40
DOCKED: ENDBRANCH  37  38
DOCKED: ENDBRANCH  36  37
DOCKED: ENDBRANCH  22  36
DOCKED: BRANCH  12  42
DOCKED: ATOM     42  C   UNL d   1      21.397   3.323  -7.898 -0.37 -0.00    +0.004 C 
DOCKED: ATOM     43  C   UNL d   1      22.375   3.882  -8.622 -0.15 -0.01    +0.012 C 
DOCKED: ENDBRANCH  12  42
DOCKED: BRANCH  17  44
DOCKED: ATOM     44  C   UNL d   1      20.289  -1.963 -13.774 -0.06 -0.00    +0.004 C 
DOCKED: ATOM     45  C   UNL d   1      21.283  -2.577 -14.423 -0.09 -0.00    +0.012 C 
DOCKED: ENDBRANCH  17  44
DOCKED: TORSDOF 10
DOCKED: TER
DOCKED: ENDMDL
________________________________________________________________________________


	BEGINNING GENETIC ALGORITHM DOCKING 68 of 100
Run: 68 Seed: 1136532682 1455985754 [ Run 68 of 100 GA/GALS ]
Beginning LAMARCKIAN GENETIC ALGORITHM (LGA), with a maximum of 25000000 energy evaluations.

Final-Value: -10.625


	FINAL GENETIC ALGORITHM DOCKED STATE
	_______________________________________________


Detailed state:  trans 14.637 10.463 4.502 quatxyzw -0.145877 0.047725 0.717764 -0.679159 center -0.174 -0.001 -0.047 ntor 10 -151.2071 131.2737 68.2488 -175.5376 72.3303 -178.6333 -132.0130 -39.0896 -4.0746 171.2354
State:	 14.637  10.463   4.502  -0.199  0.065  0.978 -94.444   -151.21  131.27   68.25 -175.54   72.33 -178.63 -132.01  -39.09   -4.07  171.24

DOCKED: MODEL       68
DOCKED: USER    Run = 68
DOCKED: USER    DPF = D:/Protein_go_brrr/autodock/final/mut_Y35F/heme_Fe/dock.dpf
DOCKED: USER  
DOCKED: USER    Estimated Free Energy of Binding    =   -6.97 kcal/mol  [=(1)+(2)+(3)-(4)]
DOCKED: USER    Estimated Inhibition Constant, Ki   =    7.75 uM (micromolar)  [Temperature = 298.15 K]
DOCKED: USER    
DOCKED: USER    (1) Final Intermolecular Energy     =   -9.96 kcal/mol
DOCKED: USER        vdW + Hbond + desolv Energy     =   -6.64 kcal/mol
DOCKED: USER        Electrostatic Energy            =   -3.32 kcal/mol
DOCKED: USER    (2) Final Total Internal Energy     =   -0.67 kcal/mol
DOCKED: USER    (3) Torsional Free Energy           =   +2.98 kcal/mol
DOCKED: USER    (4) Unbound System's Energy  [=(2)] =   -0.67 kcal/mol
DOCKED: USER    
DOCKED: USER    
DOCKED: USER    NEWDPF move heme_Fe_opt.pdbqt
DOCKED: USER    NEWDPF about -0.174000 -0.001000 -0.047000
DOCKED: USER    NEWDPF tran0 14.636702 10.463049 4.502371
DOCKED: USER    NEWDPF quaternion0 -0.145877 0.047725 0.717764 -0.679159
DOCKED: USER    NEWDPF axisangle0 -0.198746 0.065021 0.977892 -94.444053
DOCKED: USER    NEWDPF quat0 -0.198746 0.065021 0.977892 -94.444053
DOCKED: USER    NEWDPF dihe0 -151.21 131.27 68.25 -175.54 72.33 -178.63 -132.01 -39.09 -4.07 171.24 
DOCKED: USER  keepresnum = 1 
DOCKED: USER  
DOCKED: REMARK  10 active torsions:
DOCKED: REMARK  status: ('A' for Active; 'I' for Inactive)
DOCKED: REMARK    1  A    between atoms: C_6  and  C_10 
DOCKED: REMARK    2  A    between atoms: C_10  and  C_11 
DOCKED: REMARK    3  A    between atoms: C_11  and  C_12 
DOCKED: REMARK    4  A    between atoms: C_12  and  O_14 
DOCKED: REMARK    5  A    between atoms: C_17  and  C_20 
DOCKED: REMARK    6  A    between atoms: C_24  and  C_27 
DOCKED: REMARK    7  A    between atoms: C_31  and  C_34 
DOCKED: REMARK    8  A    between atoms: C_34  and  C_35 
DOCKED: REMARK    9  A    between atoms: C_35  and  C_36 
DOCKED: REMARK   10  A    between atoms: C_36  and  O_38 
DOCKED: USER                              x       y       z     vdW  Elec       q    Type
DOCKED: USER                           _______ _______ _______ _____ _____    ______ ____
DOCKED: ROOT
DOCKED: ATOM      1  C   UNL d   1      14.687   8.705   5.560 -0.14 +0.02    +0.064 C 
DOCKED: ATOM      2  C   UNL d   1      17.876  12.406   4.805 -0.01 +0.01    +0.064 A 
DOCKED: ATOM      3  C   UNL d   1      14.259  15.089   3.135 -0.09 -0.01    +0.064 C 
DOCKED: ATOM      4  C   UNL d   1      11.176  11.485   3.759 -0.26 -0.01    +0.064 C 
DOCKED: ATOM      5  C   UNL d   1      15.935   9.470   5.424 -0.05 +0.02    +0.066 A 
DOCKED: ATOM      6  C   UNL d   1      17.199   8.976   5.704 -0.10 -0.01    -0.021 A 
DOCKED: ATOM      7  C   UNL d   1      18.083  10.006   5.498 -0.09 -0.01    -0.025 A 
DOCKED: ATOM      8  C   UNL d   1      17.325  11.089   5.099 +0.09 +0.02    +0.066 A 
DOCKED: ATOM      9  C   UNL d   1      19.571   9.937   5.658 -0.07 +0.02    +0.051 C 
DOCKED: ATOM     10  C   UNL d   1      17.174  13.451   4.364 -0.07 +0.01    +0.066 A 
DOCKED: ATOM     11  C   UNL d   1      17.710  14.731   4.200 -0.04 +0.00    -0.021 A 
DOCKED: ATOM     12  C   UNL d   1      16.683  15.528   3.736 -0.04 -0.00    +0.000 A 
DOCKED: ATOM     13  C   UNL d   1      15.560  14.686   3.646 -0.06 -0.01    +0.070 A 
DOCKED: ATOM     14  C   UNL d   1      19.114  15.189   4.536 -0.02 -0.00    +0.052 C 
DOCKED: ATOM     15  C   UNL d   1      13.162  14.297   3.095 -0.12 -0.01    +0.066 A 
DOCKED: ATOM     16  C   UNL d   1      11.965  14.687   2.508 -0.21 +0.01    -0.021 A 
DOCKED: ATOM     17  C   UNL d   1      11.074  13.651   2.690 -0.31 -0.00    +0.000 A 
DOCKED: ATOM     18  C   UNL d   1      11.747  12.652   3.389 -0.20 -0.01    +0.070 A 
DOCKED: ATOM     19  C   UNL d   1      11.662  15.993   1.823 -0.21 -0.02    +0.052 C 
DOCKED: ATOM     20  C   UNL d   1      11.870  10.387   4.442 -0.20 +0.00    +0.066 A 
DOCKED: ATOM     21  C   UNL d   1      11.250   9.263   5.006 -0.21 -0.00    -0.025 A 
DOCKED: ATOM     22  C   UNL d   1      12.270   8.478   5.503 -0.16 -0.00    -0.021 A 
DOCKED: ATOM     23  C   UNL d   1      13.466   9.153   5.229 -0.13 +0.01    +0.066 A 
DOCKED: ATOM     24  C   UNL d   1       9.776   8.938   5.084 -0.28 +0.01    +0.051 C 
DOCKED: ATOM     25  N   UNL d   1      16.019  10.757   5.046 +0.03 -0.10    -0.248 N 
DOCKED: ATOM     26  N   UNL d   1      15.857  13.423   4.038 -0.07 -0.01    -0.248 N 
DOCKED: ATOM     27  N   UNL d   1      13.044  13.030   3.601 -0.08 +0.02    -0.248 N 
DOCKED: ATOM     28  N   UNL d   1      13.213  10.338   4.621 -0.09 -0.02    -0.248 N 
DOCKED: ATOM     29 FE   UNL d   1      14.533  11.880   4.329 -0.03 +0.00    +0.000 Fe
DOCKED: ENDROOT
DOCKED: BRANCH   6  30
DOCKED: ATOM     30  C   UNL d   1      17.553   7.591   6.125 -0.08 +0.02    +0.052 C 
DOCKED: BRANCH  30  31
DOCKED: ATOM     31  C   UNL d   1      17.720   6.683   4.912 -0.20 +0.05    +0.115 C 
DOCKED: BRANCH  31  32
DOCKED: ATOM     32  C   UNL d   1      18.593   7.340   3.879 -0.21 +0.13    +0.139 C 
DOCKED: ATOM     33  O   UNL d   1      19.797   7.454   4.063 -0.21 -0.82    -0.650 OA
DOCKED: BRANCH  32  34
DOCKED: ATOM     34  O   UNL d   1      18.056   7.809   2.741 -0.42 -0.70    -0.776 OA
DOCKED: ATOM     35  H   UNL d   1      17.137   8.110   2.745 -0.48 +0.04    +0.167 HD
DOCKED: ENDBRANCH  32  34
DOCKED: ENDBRANCH  31  32
DOCKED: ENDBRANCH  30  31
DOCKED: ENDBRANCH   6  30
DOCKED: BRANCH  22  36
DOCKED: ATOM     36  C   UNL d   1      12.100   7.177   6.242 -0.18 +0.02    +0.052 C 
DOCKED: BRANCH  36  37
DOCKED: ATOM     37  C   UNL d   1      12.025   7.443   7.738 -0.10 +0.06    +0.115 C 
DOCKED: BRANCH  37  38
DOCKED: ATOM     38  C   UNL d   1      10.994   6.566   8.390 -0.06 +0.17    +0.139 C 
DOCKED: ATOM     39  O   UNL d   1      10.770   6.649   9.589 -0.01 -0.90    -0.650 OA
DOCKED: BRANCH  38  40
DOCKED: ATOM     40  O   UNL d   1      10.308   5.674   7.653 -0.48 -1.45    -0.776 OA
DOCKED: ATOM     41  H   UNL d   1       9.898   5.964   6.826 +0.05 +0.16    +0.167 HD
DOCKED: ENDBRANCH  38  40
DOCKED: ENDBRANCH  37  38
DOCKED: ENDBRANCH  36  37
DOCKED: ENDBRANCH  22  36
DOCKED: BRANCH  12  42
DOCKED: ATOM     42  C   UNL d   1      16.802  16.987   3.429 -0.03 -0.00    +0.004 C 
DOCKED: ATOM     43  C   UNL d   1      16.635  17.445   2.182 -0.06 -0.00    +0.012 C 
DOCKED: ENDBRANCH  12  42
DOCKED: BRANCH  17  44
DOCKED: ATOM     44  C   UNL d   1       9.674  13.610   2.208 -0.43 -0.00    +0.004 C 
DOCKED: ATOM     45  C   UNL d   1       8.660  13.447   3.063 -0.52 -0.00    +0.012 C 
DOCKED: ENDBRANCH  17  44
DOCKED: TORSDOF 10
DOCKED: TER
DOCKED: ENDMDL
________________________________________________________________________________


	BEGINNING GENETIC ALGORITHM DOCKING 69 of 100
Run: 69 Seed: 2030131631 1618686844 [ Run 69 of 100 GA/GALS ]
Beginning LAMARCKIAN GENETIC ALGORITHM (LGA), with a maximum of 25000000 energy evaluations.

Final-Value: -11.952


	FINAL GENETIC ALGORITHM DOCKED STATE
	_______________________________________________


Detailed state:  trans -17.113 2.263 5.385 quatxyzw 0.289837 -0.887677 -0.357558 -0.013277 center -0.174 -0.001 -0.047 ntor 10 -41.2281 82.8463 46.3657 46.1965 179.9863 -137.4717 58.8674 -87.0601 -15.9186 -39.4188
State:	-17.113   2.263   5.385   0.290 -0.888 -0.358 -178.479    -41.23   82.85   46.37   46.20  179.99 -137.47   58.87  -87.06  -15.92  -39.42

DOCKED: MODEL       69
DOCKED: USER    Run = 69
DOCKED: USER    DPF = D:/Protein_go_brrr/autodock/final/mut_Y35F/heme_Fe/dock.dpf
DOCKED: USER  
DOCKED: USER    Estimated Free Energy of Binding    =   -6.98 kcal/mol  [=(1)+(2)+(3)-(4)]
DOCKED: USER    Estimated Inhibition Constant, Ki   =    7.66 uM (micromolar)  [Temperature = 298.15 K]
DOCKED: USER    
DOCKED: USER    (1) Final Intermolecular Energy     =   -9.96 kcal/mol
DOCKED: USER        vdW + Hbond + desolv Energy     =   -6.38 kcal/mol
DOCKED: USER        Electrostatic Energy            =   -3.58 kcal/mol
DOCKED: USER    (2) Final Total Internal Energy     =   -1.99 kcal/mol
DOCKED: USER    (3) Torsional Free Energy           =   +2.98 kcal/mol
DOCKED: USER    (4) Unbound System's Energy  [=(2)] =   -1.99 kcal/mol
DOCKED: USER    
DOCKED: USER    
DOCKED: USER    NEWDPF move heme_Fe_opt.pdbqt
DOCKED: USER    NEWDPF about -0.174000 -0.001000 -0.047000
DOCKED: USER    NEWDPF tran0 -17.112957 2.262566 5.385420
DOCKED: USER    NEWDPF quaternion0 0.289837 -0.887677 -0.357558 -0.013277
DOCKED: USER    NEWDPF axisangle0 0.289863 -0.887755 -0.357590 -178.478516
DOCKED: USER    NEWDPF quat0 0.289863 -0.887755 -0.357590 -178.478516
DOCKED: USER    NEWDPF dihe0 -41.23 82.85 46.37 46.20 179.99 -137.47 58.87 -87.06 -15.92 -39.42 
DOCKED: USER  keepresnum = 1 
DOCKED: USER  
DOCKED: REMARK  10 active torsions:
DOCKED: REMARK  status: ('A' for Active; 'I' for Inactive)
DOCKED: REMARK    1  A    between atoms: C_6  and  C_10 
DOCKED: REMARK    2  A    between atoms: C_10  and  C_11 
DOCKED: REMARK    3  A    between atoms: C_11  and  C_12 
DOCKED: REMARK    4  A    between atoms: C_12  and  O_14 
DOCKED: REMARK    5  A    between atoms: C_17  and  C_20 
DOCKED: REMARK    6  A    between atoms: C_24  and  C_27 
DOCKED: REMARK    7  A    between atoms: C_31  and  C_34 
DOCKED: REMARK    8  A    between atoms: C_34  and  C_35 
DOCKED: REMARK    9  A    between atoms: C_35  and  C_36 
DOCKED: REMARK   10  A    between atoms: C_36  and  O_38 
DOCKED: USER                              x       y       z     vdW  Elec       q    Type
DOCKED: USER                           _______ _______ _______ _____ _____    ______ ____
DOCKED: ROOT
DOCKED: ATOM      1  C   UNL d   1     -15.558   3.600   5.316 -0.15 +0.03    +0.064 C 
DOCKED: ATOM      2  C   UNL d   1     -16.871  -0.351   2.653 -0.29 +0.02    +0.064 A 
DOCKED: ATOM      3  C   UNL d   1     -21.237  -0.157   4.645 -0.13 +0.00    +0.064 C 
DOCKED: ATOM      4  C   UNL d   1     -19.954   3.603   7.310 -0.10 +0.01    +0.064 C 
DOCKED: ATOM      5  C   UNL d   1     -15.497   2.419   4.444 -0.17 +0.02    +0.066 A 
DOCKED: ATOM      6  C   UNL d   1     -14.360   1.981   3.785 -0.28 -0.01    -0.021 A 
DOCKED: ATOM      7  C   UNL d   1     -14.726   0.885   3.043 -0.34 -0.01    -0.025 A 
DOCKED: ATOM      8  C   UNL d   1     -16.075   0.697   3.277 -0.27 +0.02    +0.066 A 
DOCKED: ATOM      9  C   UNL d   1     -13.822   0.063   2.178 -0.43 +0.01    +0.051 C 
DOCKED: ATOM     10  C   UNL d   1     -18.160  -0.590   2.905 -0.21 +0.02    +0.066 A 
DOCKED: ATOM     11  C   UNL d   1     -18.925  -1.528   2.207 -0.20 -0.01    -0.021 A 
DOCKED: ATOM     12  C   UNL d   1     -20.193  -1.479   2.752 -0.13 +0.00    +0.000 A 
DOCKED: ATOM     13  C   UNL d   1     -20.137  -0.499   3.758 -0.12 +0.01    +0.070 A 
DOCKED: ATOM     14  C   UNL d   1     -18.488  -2.379   1.033 -0.17 +0.03    +0.052 C 
DOCKED: ATOM     15  C   UNL d   1     -21.204   0.821   5.581 -0.10 +0.00    +0.066 A 
DOCKED: ATOM     16  C   UNL d   1     -22.241   1.050   6.476 -0.10 -0.00    -0.021 A 
DOCKED: ATOM     17  C   UNL d   1     -21.875   2.136   7.243 -0.10 +0.00    +0.000 A 
DOCKED: ATOM     18  C   UNL d   1     -20.622   2.548   6.794 -0.08 +0.01    +0.070 A 
DOCKED: ATOM     19  C   UNL d   1     -23.538   0.295   6.591 -0.04 +0.00    +0.052 C 
DOCKED: ATOM     20  C   UNL d   1     -18.609   4.028   6.905 -0.10 +0.02    +0.066 A 
DOCKED: ATOM     21  C   UNL d   1     -17.990   5.228   7.283 -0.05 -0.01    -0.025 A 
DOCKED: ATOM     22  C   UNL d   1     -16.734   5.200   6.714 -0.07 -0.01    -0.021 A 
DOCKED: ATOM     23  C   UNL d   1     -16.638   3.994   6.009 -0.14 +0.03    +0.066 A 
DOCKED: ATOM     24  C   UNL d   1     -18.545   6.349   8.131 -0.01 +0.01    +0.051 C 
DOCKED: ATOM     25  N   UNL d   1     -16.538   1.626   4.137 -0.16 -0.06    -0.248 N 
DOCKED: ATOM     26  N   UNL d   1     -18.900   0.049   3.846 -0.02 -0.05    -0.248 N 
DOCKED: ATOM     27  N   UNL d   1     -20.190   1.713   5.802 +0.04 -0.02    -0.248 N 
DOCKED: ATOM     28  N   UNL d   1     -17.801   3.304   6.092 -0.11 -0.08    -0.248 N 
DOCKED: ATOM     29 FE   UNL d   1     -18.352   1.678   4.970 -0.05 +0.00    +0.000 Fe
DOCKED: ENDROOT
DOCKED: BRANCH   6  30
DOCKED: ATOM     30  C   UNL d   1     -12.988   2.558   3.872 -0.42 +0.02    +0.052 C 
DOCKED: BRANCH  30  31
DOCKED: ATOM     31  C   UNL d   1     -12.343   2.220   5.212 -0.19 +0.07    +0.115 C 
DOCKED: BRANCH  31  32
DOCKED: ATOM     32  C   UNL d   1     -11.978   3.476   5.952 -0.39 +0.16    +0.139 C 
DOCKED: ATOM     33  O   UNL d   1     -11.448   3.419   7.053 -0.49 -1.26    -0.650 OA
DOCKED: BRANCH  32  34
DOCKED: ATOM     34  O   UNL d   1     -12.231   4.678   5.407 -0.48 -0.71    -0.776 OA
DOCKED: ATOM     35  H   UNL d   1     -12.573   5.386   5.971 +0.07 +0.16    +0.167 HD
DOCKED: ENDBRANCH  32  34
DOCKED: ENDBRANCH  31  32
DOCKED: ENDBRANCH  30  31
DOCKED: ENDBRANCH   6  30
DOCKED: BRANCH  22  36
DOCKED: ATOM     36  C   UNL d   1     -15.703   6.295   6.804 -0.06 +0.03    +0.052 C 
DOCKED: BRANCH  36  37
DOCKED: ATOM     37  C   UNL d   1     -15.387   6.584   8.264 -0.09 +0.11    +0.115 C 
DOCKED: BRANCH  37  38
DOCKED: ATOM     38  C   UNL d   1     -14.220   5.764   8.735 -0.10 +0.24    +0.139 C 
DOCKED: ATOM     39  O   UNL d   1     -14.236   5.227   9.833 -0.02 -1.37    -0.650 OA
DOCKED: BRANCH  38  40
DOCKED: ATOM     40  O   UNL d   1     -13.140   5.619   7.947 +0.05 -1.38    -0.776 OA
DOCKED: ATOM     41  H   UNL d   1     -13.058   4.821   7.405 +0.06 +0.36    +0.167 HD
DOCKED: ENDBRANCH  38  40
DOCKED: ENDBRANCH  37  38
DOCKED: ENDBRANCH  36  37
DOCKED: ENDBRANCH  22  36
DOCKED: BRANCH  12  42
DOCKED: ATOM     42  C   UNL d   1     -21.350  -2.312   2.301 -0.06 +0.00    +0.004 C 
DOCKED: ATOM     43  C   UNL d   1     -21.641  -3.472   2.904 -0.07 +0.00    +0.012 C 
DOCKED: ENDBRANCH  12  42
DOCKED: BRANCH  17  44
DOCKED: ATOM     44  C   UNL d   1     -22.663   2.729   8.347 -0.05 +0.00    +0.004 C 
DOCKED: ATOM     45  C   UNL d   1     -22.374   2.448   9.622 -0.06 +0.00    +0.012 C 
DOCKED: ENDBRANCH  17  44
DOCKED: TORSDOF 10
DOCKED: TER
DOCKED: ENDMDL
________________________________________________________________________________


	BEGINNING GENETIC ALGORITHM DOCKING 70 of 100
Run: 70 Seed: 684253063 2142618878 [ Run 70 of 100 GA/GALS ]
Beginning LAMARCKIAN GENETIC ALGORITHM (LGA), with a maximum of 25000000 energy evaluations.

Final-Value: -10.869


	FINAL GENETIC ALGORITHM DOCKED STATE
	_______________________________________________


Detailed state:  trans 2.983 -10.291 9.115 quatxyzw 0.893306 0.223889 -0.130305 0.367286 center -0.174 -0.001 -0.047 ntor 10 46.8543 73.4384 -176.7758 -123.3513 -103.5773 172.6635 -74.0528 -35.3803 179.5202 28.0384
State:	  2.983 -10.291   9.115   0.960  0.241 -0.140 136.903     46.85   73.44 -176.78 -123.35 -103.58  172.66  -74.05  -35.38  179.52   28.04

DOCKED: MODEL       70
DOCKED: USER    Run = 70
DOCKED: USER    DPF = D:/Protein_go_brrr/autodock/final/mut_Y35F/heme_Fe/dock.dpf
DOCKED: USER  
DOCKED: USER    Estimated Free Energy of Binding    =   -5.29 kcal/mol  [=(1)+(2)+(3)-(4)]
DOCKED: USER    Estimated Inhibition Constant, Ki   =  132.92 uM (micromolar)  [Temperature = 298.15 K]
DOCKED: USER    
DOCKED: USER    (1) Final Intermolecular Energy     =   -8.27 kcal/mol
DOCKED: USER        vdW + Hbond + desolv Energy     =   -8.24 kcal/mol
DOCKED: USER        Electrostatic Energy            =   -0.04 kcal/mol
DOCKED: USER    (2) Final Total Internal Energy     =   -2.60 kcal/mol
DOCKED: USER    (3) Torsional Free Energy           =   +2.98 kcal/mol
DOCKED: USER    (4) Unbound System's Energy  [=(2)] =   -2.60 kcal/mol
DOCKED: USER    
DOCKED: USER    
DOCKED: USER    NEWDPF move heme_Fe_opt.pdbqt
DOCKED: USER    NEWDPF about -0.174000 -0.001000 -0.047000
DOCKED: USER    NEWDPF tran0 2.982656 -10.291209 9.114621
DOCKED: USER    NEWDPF quaternion0 0.893306 0.223889 -0.130305 0.367286
DOCKED: USER    NEWDPF axisangle0 0.960432 0.240713 -0.140097 136.903320
DOCKED: USER    NEWDPF quat0 0.960432 0.240713 -0.140097 136.903320
DOCKED: USER    NEWDPF dihe0 46.85 73.44 -176.78 -123.35 -103.58 172.66 -74.05 -35.38 179.52 28.04 
DOCKED: USER  keepresnum = 1 
DOCKED: USER  
DOCKED: REMARK  10 active torsions:
DOCKED: REMARK  status: ('A' for Active; 'I' for Inactive)
DOCKED: REMARK    1  A    between atoms: C_6  and  C_10 
DOCKED: REMARK    2  A    between atoms: C_10  and  C_11 
DOCKED: REMARK    3  A    between atoms: C_11  and  C_12 
DOCKED: REMARK    4  A    between atoms: C_12  and  O_14 
DOCKED: REMARK    5  A    between atoms: C_17  and  C_20 
DOCKED: REMARK    6  A    between atoms: C_24  and  C_27 
DOCKED: REMARK    7  A    between atoms: C_31  and  C_34 
DOCKED: REMARK    8  A    between atoms: C_34  and  C_35 
DOCKED: REMARK    9  A    between atoms: C_35  and  C_36 
DOCKED: REMARK   10  A    between atoms: C_36  and  O_38 
DOCKED: USER                              x       y       z     vdW  Elec       q    Type
DOCKED: USER                           _______ _______ _______ _____ _____    ______ ____
DOCKED: ROOT
DOCKED: ATOM      1  C   UNL d   1       1.038 -10.918   8.922 -0.22 -0.01    +0.064 C 
DOCKED: ATOM      2  C   UNL d   1       3.265  -7.129  11.183 -0.22 -0.05    +0.064 A 
DOCKED: ATOM      3  C   UNL d   1       7.239  -8.038   8.643 -0.19 -0.01    +0.064 C 
DOCKED: ATOM      4  C   UNL d   1       5.136 -11.774   6.519 -0.19 -0.01    +0.064 C 
DOCKED: ATOM      5  C   UNL d   1       1.324  -9.819   9.855 -0.16 -0.01    +0.066 A 
DOCKED: ATOM      6  C   UNL d   1       0.447  -9.355  10.822 -0.23 +0.00    -0.021 A 
DOCKED: ATOM      7  C   UNL d   1       1.065  -8.301  11.447 -0.27 +0.01    -0.025 A 
DOCKED: ATOM      8  C   UNL d   1       2.296  -8.161  10.837 -0.13 -0.03    +0.066 A 
DOCKED: ATOM      9  C   UNL d   1       0.504  -7.493  12.577 -0.25 -0.04    +0.051 C 
DOCKED: ATOM     10  C   UNL d   1       4.482  -7.008  10.650 -0.23 -0.03    +0.066 A 
DOCKED: ATOM     11  C   UNL d   1       5.344  -5.942  10.919 -0.22 +0.01    -0.021 A 
DOCKED: ATOM     12  C   UNL d   1       6.490  -6.171  10.185 -0.15 -0.00    +0.000 A 
DOCKED: ATOM     13  C   UNL d   1       6.264  -7.374   9.493 -0.15 -0.01    +0.070 A 
DOCKED: ATOM     14  C   UNL d   1       5.062  -4.727  11.780 -0.23 -0.05    +0.052 C 
DOCKED: ATOM     15  C   UNL d   1       7.007  -9.168   7.934 -0.15 -0.01    +0.066 A 
DOCKED: ATOM     16  C   UNL d   1       7.995  -9.826   7.211 -0.22 +0.00    -0.021 A 
DOCKED: ATOM     17  C   UNL d   1       7.390 -10.902   6.595 -0.21 -0.00    +0.000 A 
DOCKED: ATOM     18  C   UNL d   1       6.044 -10.873   6.953 -0.08 -0.01    +0.070 A 
DOCKED: ATOM     19  C   UNL d   1       9.445  -9.446   7.083 -0.19 -0.02    +0.052 C 
DOCKED: ATOM     20  C   UNL d   1       3.726 -11.811   6.923 -0.20 -0.01    +0.066 A 
DOCKED: ATOM     21  C   UNL d   1       2.735 -12.608   6.333 -0.34 +0.01    -0.025 A 
DOCKED: ATOM     22  C   UNL d   1       1.578 -12.357   7.042 -0.31 +0.00    -0.021 A 
DOCKED: ATOM     23  C   UNL d   1       1.905 -11.418   8.027 -0.21 -0.01    +0.066 A 
DOCKED: ATOM     24  C   UNL d   1       2.859 -13.555   5.162 -0.46 -0.02    +0.051 C 
DOCKED: ATOM     25  N   UNL d   1       2.455  -9.093   9.875 -0.05 +0.03    -0.248 N 
DOCKED: ATOM     26  N   UNL d   1       5.037  -7.880   9.769 -0.12 +0.05    -0.248 N 
DOCKED: ATOM     27  N   UNL d   1       5.817  -9.833   7.811 -0.10 +0.02    -0.248 N 
DOCKED: ATOM     28  N   UNL d   1       3.206 -11.054   7.921 -0.12 +0.02    -0.248 N 
DOCKED: ATOM     29 FE   UNL d   1       4.122  -9.468   8.844 -0.04 -0.00    +0.000 Fe
DOCKED: ENDROOT
DOCKED: BRANCH   6  30
DOCKED: ATOM     30  C   UNL d   1      -0.901  -9.899  11.152 -0.23 -0.01    +0.052 C 
DOCKED: BRANCH  30  31
DOCKED: ATOM     31  C   UNL d   1      -1.981  -9.194  10.339 -0.25 -0.03    +0.115 C 
DOCKED: BRANCH  31  32
DOCKED: ATOM     32  C   UNL d   1      -2.492 -10.095   9.250 -0.37 -0.02    +0.139 C 
DOCKED: ATOM     33  O   UNL d   1      -2.146  -9.927   8.089 -0.05 +0.07    -0.650 OA
DOCKED: BRANCH  32  34
DOCKED: ATOM     34  O   UNL d   1      -3.338 -11.097   9.544 +0.09 +0.06    -0.776 OA
DOCKED: ATOM     35  H   UNL d   1      -3.170 -11.976   9.177 +0.08 -0.01    +0.167 HD
DOCKED: ENDBRANCH  32  34
DOCKED: ENDBRANCH  31  32
DOCKED: ENDBRANCH  30  31
DOCKED: ENDBRANCH   6  30
DOCKED: BRANCH  22  36
DOCKED: ATOM     36  C   UNL d   1       0.224 -12.952   6.755 -0.24 -0.01    +0.052 C 
DOCKED: BRANCH  36  37
DOCKED: ATOM     37  C   UNL d   1      -0.314 -13.631   8.006 -0.21 -0.01    +0.115 C 
DOCKED: BRANCH  37  38
DOCKED: ATOM     38  C   UNL d   1      -1.802 -13.456   8.116 -0.25 -0.01    +0.139 C 
DOCKED: ATOM     39  O   UNL d   1      -2.438 -14.042   8.979 +0.03 +0.03    -0.650 OA
DOCKED: BRANCH  38  40
DOCKED: ATOM     40  O   UNL d   1      -2.448 -12.649   7.256 -0.01 +0.05    -0.776 OA
DOCKED: ATOM     41  H   UNL d   1      -2.775 -11.794   7.568 +0.09 -0.01    +0.167 HD
DOCKED: ENDBRANCH  38  40
DOCKED: ENDBRANCH  37  38
DOCKED: ENDBRANCH  36  37
DOCKED: ENDBRANCH  22  36
DOCKED: BRANCH  12  42
DOCKED: ATOM     42  C   UNL d   1       7.685  -5.272  10.161 -0.19 -0.00    +0.004 C 
DOCKED: ATOM     43  C   UNL d   1       8.213  -4.859   9.001 -0.35 -0.00    +0.012 C 
DOCKED: ENDBRANCH  12  42
DOCKED: BRANCH  17  44
DOCKED: ATOM     44  C   UNL d   1       8.060 -11.905   5.737 -0.29 -0.00    +0.004 C 
DOCKED: ATOM     45  C   UNL d   1       8.520 -11.572   4.527 -0.47 -0.00    +0.012 C 
DOCKED: ENDBRANCH  17  44
DOCKED: TORSDOF 10
DOCKED: TER
DOCKED: ENDMDL
________________________________________________________________________________


	BEGINNING GENETIC ALGORITHM DOCKING 71 of 100
Run: 71 Seed: 1742691924 1734648657 [ Run 71 of 100 GA/GALS ]
Beginning LAMARCKIAN GENETIC ALGORITHM (LGA), with a maximum of 25000000 energy evaluations.

Final-Value: -10.995


	FINAL GENETIC ALGORITHM DOCKED STATE
	_______________________________________________


Detailed state:  trans 11.900 12.961 7.597 quatxyzw 0.701201 0.233989 -0.668296 0.083344 center -0.174 -0.001 -0.047 ntor 10 -138.5103 166.7137 -166.8743 -180.0000 2.9750 92.2483 -13.9620 -52.5120 -22.6630 -172.6825
State:	 11.900  12.961   7.597   0.704  0.235 -0.671 170.438   -138.51  166.71 -166.87 -180.00    2.98   92.25  -13.96  -52.51  -22.66 -172.68

DOCKED: MODEL       71
DOCKED: USER    Run = 71
DOCKED: USER    DPF = D:/Protein_go_brrr/autodock/final/mut_Y35F/heme_Fe/dock.dpf
DOCKED: USER  
DOCKED: USER    Estimated Free Energy of Binding    =   -7.40 kcal/mol  [=(1)+(2)+(3)-(4)]
DOCKED: USER    Estimated Inhibition Constant, Ki   =    3.74 uM (micromolar)  [Temperature = 298.15 K]
DOCKED: USER    
DOCKED: USER    (1) Final Intermolecular Energy     =  -10.39 kcal/mol
DOCKED: USER        vdW + Hbond + desolv Energy     =   -6.94 kcal/mol
DOCKED: USER        Electrostatic Energy            =   -3.44 kcal/mol
DOCKED: USER    (2) Final Total Internal Energy     =   -0.61 kcal/mol
DOCKED: USER    (3) Torsional Free Energy           =   +2.98 kcal/mol
DOCKED: USER    (4) Unbound System's Energy  [=(2)] =   -0.61 kcal/mol
DOCKED: USER    
DOCKED: USER    
DOCKED: USER    NEWDPF move heme_Fe_opt.pdbqt
DOCKED: USER    NEWDPF about -0.174000 -0.001000 -0.047000
DOCKED: USER    NEWDPF tran0 11.899840 12.960811 7.596979
DOCKED: USER    NEWDPF quaternion0 0.701201 0.233989 -0.668296 0.083344
DOCKED: USER    NEWDPF axisangle0 0.703649 0.234806 -0.670630 170.438335
DOCKED: USER    NEWDPF quat0 0.703649 0.234806 -0.670630 170.438335
DOCKED: USER    NEWDPF dihe0 -138.51 166.71 -166.87 -180.00 2.98 92.25 -13.96 -52.51 -22.66 -172.68 
DOCKED: USER  keepresnum = 1 
DOCKED: USER  
DOCKED: REMARK  10 active torsions:
DOCKED: REMARK  status: ('A' for Active; 'I' for Inactive)
DOCKED: REMARK    1  A    between atoms: C_6  and  C_10 
DOCKED: REMARK    2  A    between atoms: C_10  and  C_11 
DOCKED: REMARK    3  A    between atoms: C_11  and  C_12 
DOCKED: REMARK    4  A    between atoms: C_12  and  O_14 
DOCKED: REMARK    5  A    between atoms: C_17  and  C_20 
DOCKED: REMARK    6  A    between atoms: C_24  and  C_27 
DOCKED: REMARK    7  A    between atoms: C_31  and  C_34 
DOCKED: REMARK    8  A    between atoms: C_34  and  C_35 
DOCKED: REMARK    9  A    between atoms: C_35  and  C_36 
DOCKED: REMARK   10  A    between atoms: C_36  and  O_38 
DOCKED: USER                              x       y       z     vdW  Elec       q    Type
DOCKED: USER                           _______ _______ _______ _____ _____    ______ ____
DOCKED: ROOT
DOCKED: ATOM      1  C   UNL d   1      11.373  12.038   9.352 -0.18 +0.01    +0.064 C 
DOCKED: ATOM      2  C   UNL d   1      10.832  16.596   7.519 -0.12 -0.01    +0.064 A 
DOCKED: ATOM      3  C   UNL d   1      11.947  14.902   3.165 -0.16 -0.01    +0.064 C 
DOCKED: ATOM      4  C   UNL d   1      12.579  10.504   4.937 -0.16 +0.00    +0.064 C 
DOCKED: ATOM      5  C   UNL d   1      11.199  13.493   9.255 -0.20 +0.01    +0.066 A 
DOCKED: ATOM      6  C   UNL d   1      10.976  14.337  10.331 -0.23 -0.01    -0.021 A 
DOCKED: ATOM      7  C   UNL d   1      10.822  15.602   9.820 -0.22 -0.00    -0.025 A 
DOCKED: ATOM      8  C   UNL d   1      10.957  15.482   8.451 -0.23 +0.00    +0.066 A 
DOCKED: ATOM      9  C   UNL d   1      10.580  16.850  10.612 -0.22 +0.01    +0.051 C 
DOCKED: ATOM     10  C   UNL d   1      11.014  16.517   6.199 -0.17 -0.01    +0.066 A 
DOCKED: ATOM     11  C   UNL d   1      10.775  17.576   5.320 -0.14 +0.00    -0.021 A 
DOCKED: ATOM     12  C   UNL d   1      11.073  17.108   4.056 -0.11 -0.00    +0.000 A 
DOCKED: ATOM     13  C   UNL d   1      11.475  15.772   4.230 -0.11 -0.01    +0.070 A 
DOCKED: ATOM     14  C   UNL d   1      10.223  18.945   5.659 -0.15 -0.01    +0.052 C 
DOCKED: ATOM     15  C   UNL d   1      12.286  13.600   3.320 -0.17 -0.01    +0.066 A 
DOCKED: ATOM     16  C   UNL d   1      12.828  12.831   2.298 -0.31 +0.00    -0.021 A 
DOCKED: ATOM     17  C   UNL d   1      13.007  11.561   2.806 -0.30 -0.00    +0.000 A 
DOCKED: ATOM     18  C   UNL d   1      12.567  11.584   4.127 -0.18 -0.00    +0.070 A 
DOCKED: ATOM     19  C   UNL d   1      13.141  13.262   0.891 -0.42 -0.01    +0.052 C 
DOCKED: ATOM     20  C   UNL d   1      12.181  10.506   6.350 -0.09 +0.01    +0.066 A 
DOCKED: ATOM     21  C   UNL d   1      11.999   9.363   7.142 -0.09 -0.01    -0.025 A 
DOCKED: ATOM     22  C   UNL d   1      11.668   9.824   8.399 -0.11 -0.01    -0.021 A 
DOCKED: ATOM     23  C   UNL d   1      11.655  11.222   8.324 -0.11 +0.01    +0.066 A 
DOCKED: ATOM     24  C   UNL d   1      12.124   7.910   6.745 -0.12 +0.02    +0.051 C 
DOCKED: ATOM     25  N   UNL d   1      11.196  14.199   8.111 -0.11 -0.02    -0.248 N 
DOCKED: ATOM     26  N   UNL d   1      11.431  15.409   5.535 -0.10 +0.03    -0.248 N 
DOCKED: ATOM     27  N   UNL d   1      12.164  12.848   4.457 -0.08 +0.02    -0.248 N 
DOCKED: ATOM     28  N   UNL d   1      11.925  11.631   7.061 -0.05 -0.02    -0.248 N 
DOCKED: ATOM     29 FE   UNL d   1      11.678  13.518   6.297 -0.04 -0.00    +0.000 Fe
DOCKED: ENDROOT
DOCKED: BRANCH   6  30
DOCKED: ATOM     30  C   UNL d   1      10.933  13.966  11.774 -0.01 +0.04    +0.052 C 
DOCKED: BRANCH  30  31
DOCKED: ATOM     31  C   UNL d   1      12.306  13.508  12.255 -0.10 +0.06    +0.115 C 
DOCKED: BRANCH  31  32
DOCKED: ATOM     32  C   UNL d   1      12.347  13.461  13.757 -0.08 +0.11    +0.139 C 
DOCKED: ATOM     33  O   UNL d   1      11.349  13.715  14.417 -0.39 -1.25    -0.650 OA
DOCKED: BRANCH  32  34
DOCKED: ATOM     34  O   UNL d   1      13.487  13.137  14.391 +0.02 -0.31    -0.776 OA
DOCKED: ATOM     35  H   UNL d   1      14.324  13.499  14.067 +0.01 +0.04    +0.167 HD
DOCKED: ENDBRANCH  32  34
DOCKED: ENDBRANCH  31  32
DOCKED: ENDBRANCH  30  31
DOCKED: ENDBRANCH   6  30
DOCKED: BRANCH  22  36
DOCKED: ATOM     36  C   UNL d   1      11.336   8.966   9.591 -0.12 +0.02    +0.052 C 
DOCKED: BRANCH  36  37
DOCKED: ATOM     37  C   UNL d   1       9.932   8.398   9.440 -0.11 +0.06    +0.115 C 
DOCKED: BRANCH  37  38
DOCKED: ATOM     38  C   UNL d   1       9.937   6.903   9.590 -0.05 +0.17    +0.139 C 
DOCKED: ATOM     39  O   UNL d   1       9.745   6.384  10.680 -0.18 -1.00    -0.650 OA
DOCKED: BRANCH  38  40
DOCKED: ATOM     40  O   UNL d   1      10.156   6.121   8.519 -0.06 -1.54    -0.776 OA
DOCKED: ATOM     41  H   UNL d   1      10.113   6.512   7.635 +0.04 +0.18    +0.167 HD
DOCKED: ENDBRANCH  38  40
DOCKED: ENDBRANCH  37  38
DOCKED: ENDBRANCH  36  37
DOCKED: ENDBRANCH  22  36
DOCKED: BRANCH  12  42
DOCKED: ATOM     42  C   UNL d   1      10.951  17.906   2.796 -0.09 -0.00    +0.004 C 
DOCKED: ATOM     43  C   UNL d   1      10.125  17.522   1.814 -0.17 -0.00    +0.012 C 
DOCKED: ENDBRANCH  12  42
DOCKED: BRANCH  17  44
DOCKED: ATOM     44  C   UNL d   1      13.583  10.405   2.081 -0.48 -0.00    +0.004 C 
DOCKED: ATOM     45  C   UNL d   1      12.920   9.247   2.003 -0.48 -0.00    +0.012 C 
DOCKED: ENDBRANCH  17  44
DOCKED: TORSDOF 10
DOCKED: TER
DOCKED: ENDMDL
________________________________________________________________________________


	BEGINNING GENETIC ALGORITHM DOCKING 72 of 100
Run: 72 Seed: 177586853 940957814 [ Run 72 of 100 GA/GALS ]
Beginning LAMARCKIAN GENETIC ALGORITHM (LGA), with a maximum of 25000000 energy evaluations.

Final-Value: -11.443


	FINAL GENETIC ALGORITHM DOCKED STATE
	_______________________________________________


Detailed state:  trans 11.134 12.596 7.495 quatxyzw -0.113081 -0.592074 -0.211625 0.769334 center -0.174 -0.001 -0.047 ntor 10 -158.1201 -106.7638 97.0661 22.6990 -65.0337 -91.4270 -55.2615 -47.7161 -4.0808 -157.9900
State:	 11.134  12.596   7.495  -0.177 -0.927 -0.331 79.412   -158.12 -106.76   97.07   22.70  -65.03  -91.43  -55.26  -47.72   -4.08 -157.99

DOCKED: MODEL       72
DOCKED: USER    Run = 72
DOCKED: USER    DPF = D:/Protein_go_brrr/autodock/final/mut_Y35F/heme_Fe/dock.dpf
DOCKED: USER  
DOCKED: USER    Estimated Free Energy of Binding    =   -7.83 kcal/mol  [=(1)+(2)+(3)-(4)]
DOCKED: USER    Estimated Inhibition Constant, Ki   =    1.83 uM (micromolar)  [Temperature = 298.15 K]
DOCKED: USER    
DOCKED: USER    (1) Final Intermolecular Energy     =  -10.81 kcal/mol
DOCKED: USER        vdW + Hbond + desolv Energy     =   -7.42 kcal/mol
DOCKED: USER        Electrostatic Energy            =   -3.39 kcal/mol
DOCKED: USER    (2) Final Total Internal Energy     =   -0.63 kcal/mol
DOCKED: USER    (3) Torsional Free Energy           =   +2.98 kcal/mol
DOCKED: USER    (4) Unbound System's Energy  [=(2)] =   -0.63 kcal/mol
DOCKED: USER    
DOCKED: USER    
DOCKED: USER    NEWDPF move heme_Fe_opt.pdbqt
DOCKED: USER    NEWDPF about -0.174000 -0.001000 -0.047000
DOCKED: USER    NEWDPF tran0 11.133556 12.596146 7.495063
DOCKED: USER    NEWDPF quaternion0 -0.113081 -0.592074 -0.211625 0.769334
DOCKED: USER    NEWDPF axisangle0 -0.177009 -0.926787 -0.331261 79.411680
DOCKED: USER    NEWDPF quat0 -0.177009 -0.926787 -0.331261 79.411680
DOCKED: USER    NEWDPF dihe0 -158.12 -106.76 97.07 22.70 -65.03 -91.43 -55.26 -47.72 -4.08 -157.99 
DOCKED: USER  keepresnum = 1 
DOCKED: USER  
DOCKED: REMARK  10 active torsions:
DOCKED: REMARK  status: ('A' for Active; 'I' for Inactive)
DOCKED: REMARK    1  A    between atoms: C_6  and  C_10 
DOCKED: REMARK    2  A    between atoms: C_10  and  C_11 
DOCKED: REMARK    3  A    between atoms: C_11  and  C_12 
DOCKED: REMARK    4  A    between atoms: C_12  and  O_14 
DOCKED: REMARK    5  A    between atoms: C_17  and  C_20 
DOCKED: REMARK    6  A    between atoms: C_24  and  C_27 
DOCKED: REMARK    7  A    between atoms: C_31  and  C_34 
DOCKED: REMARK    8  A    between atoms: C_34  and  C_35 
DOCKED: REMARK    9  A    between atoms: C_35  and  C_36 
DOCKED: REMARK   10  A    between atoms: C_36  and  O_38 
DOCKED: USER                              x       y       z     vdW  Elec       q    Type
DOCKED: USER                           _______ _______ _______ _____ _____    ______ ____
DOCKED: ROOT
DOCKED: ATOM      1  C   UNL d   1      11.240  11.674   9.325 -0.19 +0.01    +0.064 C 
DOCKED: ATOM      2  C   UNL d   1      12.456  10.396   4.708 -0.16 +0.00    +0.064 A 
DOCKED: ATOM      3  C   UNL d   1      12.090  15.005   3.409 -0.13 -0.01    +0.064 C 
DOCKED: ATOM      4  C   UNL d   1      10.809  16.249   7.847 -0.18 -0.01    +0.064 C 
DOCKED: ATOM      5  C   UNL d   1      11.535  10.875   8.128 -0.12 +0.01    +0.066 A 
DOCKED: ATOM      6  C   UNL d   1      11.604   9.492   8.098 -0.11 -0.01    -0.021 A 
DOCKED: ATOM      7  C   UNL d   1      11.945   9.138   6.816 -0.10 -0.01    -0.025 A 
DOCKED: ATOM      8  C   UNL d   1      12.071  10.320   6.112 -0.10 +0.01    +0.066 A 
DOCKED: ATOM      9  C   UNL d   1      12.119   7.742   6.302 -0.15 +0.02    +0.051 C 
DOCKED: ATOM     10  C   UNL d   1      12.529  11.518   3.991 -0.19 -0.00    +0.066 A 
DOCKED: ATOM     11  C   UNL d   1      13.011  11.571   2.681 -0.26 +0.00    -0.021 A 
DOCKED: ATOM     12  C   UNL d   1      12.932  12.892   2.289 -0.33 -0.00    +0.000 A 
DOCKED: ATOM     13  C   UNL d   1      12.408  13.586   3.394 -0.16 -0.01    +0.070 A 
DOCKED: ATOM     14  C   UNL d   1      13.584  10.429   1.866 -0.45 -0.01    +0.052 C 
DOCKED: ATOM     15  C   UNL d   1      11.635  15.687   4.486 -0.11 -0.01    +0.066 A 
DOCKED: ATOM     16  C   UNL d   1      11.248  17.020   4.433 -0.10 +0.00    -0.021 A 
DOCKED: ATOM     17  C   UNL d   1      10.882  17.382   5.713 -0.16 -0.00    +0.000 A 
DOCKED: ATOM     18  C   UNL d   1      11.058  16.260   6.519 -0.17 -0.01    +0.070 A 
DOCKED: ATOM     19  C   UNL d   1      11.247  17.928   3.232 -0.07 -0.01    +0.052 C 
DOCKED: ATOM     20  C   UNL d   1      10.924  15.072   8.716 -0.24 +0.00    +0.066 A 
DOCKED: ATOM     21  C   UNL d   1      10.865  15.090  10.116 -0.22 -0.01    -0.025 A 
DOCKED: ATOM     22  C   UNL d   1      10.977  13.774  10.516 -0.23 -0.01    -0.021 A 
DOCKED: ATOM     23  C   UNL d   1      11.106  13.010   9.350 -0.20 +0.01    +0.066 A 
DOCKED: ATOM     24  C   UNL d   1      10.716  16.277  11.039 -0.15 +0.02    +0.051 C 
DOCKED: ATOM     25  N   UNL d   1      11.812  11.375   6.911 -0.06 -0.03    -0.248 N 
DOCKED: ATOM     26  N   UNL d   1      12.171  12.750   4.435 -0.08 +0.02    -0.248 N 
DOCKED: ATOM     27  N   UNL d   1      11.479  15.205   5.758 -0.10 +0.02    -0.248 N 
DOCKED: ATOM     28  N   UNL d   1      11.117  13.811   8.257 -0.05 -0.02    -0.248 N 
DOCKED: ATOM     29 FE   UNL d   1      11.644  13.282   6.347 -0.04 +0.00    +0.000 Fe
DOCKED: ENDROOT
DOCKED: BRANCH   6  30
DOCKED: ATOM     30  C   UNL d   1      11.339   8.551   9.223 -0.11 +0.02    +0.052 C 
DOCKED: BRANCH  30  31
DOCKED: ATOM     31  C   UNL d   1       9.849   8.244   9.330 -0.10 +0.06    +0.115 C 
DOCKED: BRANCH  31  32
DOCKED: ATOM     32  C   UNL d   1       9.613   6.760   9.276 -0.02 +0.18    +0.139 C 
DOCKED: ATOM     33  O   UNL d   1       9.872   6.124   8.264 -0.27 -1.14    -0.650 OA
DOCKED: BRANCH  32  34
DOCKED: ATOM     34  O   UNL d   1       9.112   6.117  10.344 -0.08 -1.32    -0.776 OA
DOCKED: ATOM     35  H   UNL d   1       8.617   6.620  11.006 +0.04 +0.15    +0.167 HD
DOCKED: ENDBRANCH  32  34
DOCKED: ENDBRANCH  31  32
DOCKED: ENDBRANCH  30  31
DOCKED: ENDBRANCH   6  30
DOCKED: BRANCH  22  36
DOCKED: ATOM     36  C   UNL d   1      11.008  13.287  11.941 -0.16 +0.04    +0.052 C 
DOCKED: BRANCH  36  37
DOCKED: ATOM     37  C   UNL d   1      12.205  13.889  12.663 -0.11 +0.07    +0.115 C 
DOCKED: BRANCH  37  38
DOCKED: ATOM     38  C   UNL d   1      11.798  14.471  13.987 +0.08 +0.17    +0.139 C 
DOCKED: ATOM     39  O   UNL d   1      11.470  15.644  14.080 -0.37 -0.74    -0.650 OA
DOCKED: BRANCH  38  40
DOCKED: ATOM     40  O   UNL d   1      11.797  13.698  15.088 -0.38 -0.96    -0.776 OA
DOCKED: ATOM     41  H   UNL d   1      12.642  13.441  15.483 +0.01 +0.11    +0.167 HD
DOCKED: ENDBRANCH  38  40
DOCKED: ENDBRANCH  37  38
DOCKED: ENDBRANCH  36  37
DOCKED: ENDBRANCH  22  36
DOCKED: BRANCH  12  42
DOCKED: ATOM     42  C   UNL d   1      13.354  13.416   0.953 -0.51 -0.00    +0.004 C 
DOCKED: ATOM     43  C   UNL d   1      12.690  14.419   0.365 -0.43 -0.01    +0.012 C 
DOCKED: ENDBRANCH  12  42
DOCKED: BRANCH  17  44
DOCKED: ATOM     44  C   UNL d   1      10.377  18.709   6.132 -0.17 -0.00    +0.004 C 
DOCKED: ATOM     45  C   UNL d   1       9.119  19.077   5.868 -0.24 -0.00    +0.012 C 
DOCKED: ENDBRANCH  17  44
DOCKED: TORSDOF 10
DOCKED: TER
DOCKED: ENDMDL
________________________________________________________________________________


	BEGINNING GENETIC ALGORITHM DOCKING 73 of 100
Run: 73 Seed: 749399246 1252559011 [ Run 73 of 100 GA/GALS ]
Beginning LAMARCKIAN GENETIC ALGORITHM (LGA), with a maximum of 25000000 energy evaluations.

Final-Value: -10.775


	FINAL GENETIC ALGORITHM DOCKED STATE
	_______________________________________________


Detailed state:  trans -12.419 9.212 3.498 quatxyzw 0.351340 0.473766 -0.296718 -0.751043 center -0.174 -0.001 -0.047 ntor 10 -153.3869 125.2510 -158.9204 61.2979 -145.7689 -171.0519 -103.5473 -73.7405 157.1248 3.1352
State:	-12.419   9.212   3.498   0.532  0.718 -0.449 -82.638   -153.39  125.25 -158.92   61.30 -145.77 -171.05 -103.55  -73.74  157.12    3.14

DOCKED: MODEL       73
DOCKED: USER    Run = 73
DOCKED: USER    DPF = D:/Protein_go_brrr/autodock/final/mut_Y35F/heme_Fe/dock.dpf
DOCKED: USER  
DOCKED: USER    Estimated Free Energy of Binding    =   -6.07 kcal/mol  [=(1)+(2)+(3)-(4)]
DOCKED: USER    Estimated Inhibition Constant, Ki   =   35.37 uM (micromolar)  [Temperature = 298.15 K]
DOCKED: USER    
DOCKED: USER    (1) Final Intermolecular Energy     =   -9.06 kcal/mol
DOCKED: USER        vdW + Hbond + desolv Energy     =   -6.02 kcal/mol
DOCKED: USER        Electrostatic Energy            =   -3.03 kcal/mol
DOCKED: USER    (2) Final Total Internal Energy     =   -1.72 kcal/mol
DOCKED: USER    (3) Torsional Free Energy           =   +2.98 kcal/mol
DOCKED: USER    (4) Unbound System's Energy  [=(2)] =   -1.72 kcal/mol
DOCKED: USER    
DOCKED: USER    
DOCKED: USER    NEWDPF move heme_Fe_opt.pdbqt
DOCKED: USER    NEWDPF about -0.174000 -0.001000 -0.047000
DOCKED: USER    NEWDPF tran0 -12.418785 9.211634 3.498374
DOCKED: USER    NEWDPF quaternion0 0.351340 0.473766 -0.296718 -0.751043
DOCKED: USER    NEWDPF axisangle0 0.532129 0.717551 -0.449399 -82.638455
DOCKED: USER    NEWDPF quat0 0.532129 0.717551 -0.449399 -82.638455
DOCKED: USER    NEWDPF dihe0 -153.39 125.25 -158.92 61.30 -145.77 -171.05 -103.55 -73.74 157.12 3.14 
DOCKED: USER  keepresnum = 1 
DOCKED: USER  
DOCKED: REMARK  10 active torsions:
DOCKED: REMARK  status: ('A' for Active; 'I' for Inactive)
DOCKED: REMARK    1  A    between atoms: C_6  and  C_10 
DOCKED: REMARK    2  A    between atoms: C_10  and  C_11 
DOCKED: REMARK    3  A    between atoms: C_11  and  C_12 
DOCKED: REMARK    4  A    between atoms: C_12  and  O_14 
DOCKED: REMARK    5  A    between atoms: C_17  and  C_20 
DOCKED: REMARK    6  A    between atoms: C_24  and  C_27 
DOCKED: REMARK    7  A    between atoms: C_31  and  C_34 
DOCKED: REMARK    8  A    between atoms: C_34  and  C_35 
DOCKED: REMARK    9  A    between atoms: C_35  and  C_36 
DOCKED: REMARK   10  A    between atoms: C_36  and  O_38 
DOCKED: USER                              x       y       z     vdW  Elec       q    Type
DOCKED: USER                           _______ _______ _______ _____ _____    ______ ____
DOCKED: ROOT
DOCKED: ATOM      1  C   UNL d   1     -12.940   8.971   5.468 -0.13 +0.02    +0.064 C 
DOCKED: ATOM      2  C   UNL d   1     -14.257   6.797   1.229 -0.07 +0.01    +0.064 A 
DOCKED: ATOM      3  C   UNL d   1     -10.448   8.801  -0.902 -0.14 -0.01    +0.064 C 
DOCKED: ATOM      4  C   UNL d   1      -9.214  10.999   3.165 -0.35 -0.00    +0.064 C 
DOCKED: ATOM      5  C   UNL d   1     -13.711   8.240   4.453 -0.08 +0.02    +0.066 A 
DOCKED: ATOM      6  C   UNL d   1     -14.931   7.625   4.677 -0.04 -0.01    -0.021 A 
DOCKED: ATOM      7  C   UNL d   1     -15.294   7.018   3.501 -0.04 -0.01    -0.025 A 
DOCKED: ATOM      8  C   UNL d   1     -14.280   7.287   2.602 -0.06 +0.01    +0.066 A 
DOCKED: ATOM      9  C   UNL d   1     -16.554   6.244   3.258 -0.01 +0.01    +0.051 C 
DOCKED: ATOM     10  C   UNL d   1     -13.320   7.089   0.325 -0.07 +0.01    +0.066 A 
DOCKED: ATOM     11  C   UNL d   1     -13.264   6.513  -0.946 -0.07 -0.00    -0.021 A 
DOCKED: ATOM     12  C   UNL d   1     -12.164   7.062  -1.575 -0.09 +0.00    +0.000 A 
DOCKED: ATOM     13  C   UNL d   1     -11.596   7.947  -0.642 -0.11 -0.00    +0.070 A 
DOCKED: ATOM     14  C   UNL d   1     -14.173   5.440  -1.510 -0.03 +0.00    +0.052 C 
DOCKED: ATOM     15  C   UNL d   1      -9.866   9.617   0.009 -0.11 -0.01    +0.066 A 
DOCKED: ATOM     16  C   UNL d   1      -8.833  10.491  -0.305 -0.14 +0.00    -0.021 A 
DOCKED: ATOM     17  C   UNL d   1      -8.474  11.123   0.867 -0.21 -0.00    +0.000 A 
DOCKED: ATOM     18  C   UNL d   1      -9.294  10.616   1.872 -0.20 -0.01    +0.070 A 
DOCKED: ATOM     19  C   UNL d   1      -8.190  10.707  -1.649 -0.21 -0.02    +0.052 C 
DOCKED: ATOM     20  C   UNL d   1     -10.101  10.533   4.237 -0.30 +0.00    +0.066 A 
DOCKED: ATOM     21  C   UNL d   1      -9.907  10.763   5.607 -0.40 -0.00    -0.025 A 
DOCKED: ATOM     22  C   UNL d   1     -10.987  10.188   6.243 -0.29 -0.01    -0.021 A 
DOCKED: ATOM     23  C   UNL d   1     -11.790   9.626   5.244 -0.18 +0.02    +0.066 A 
DOCKED: ATOM     24  C   UNL d   1      -8.767  11.482   6.290 -0.22 -0.00    +0.051 C 
DOCKED: ATOM     25  N   UNL d   1     -13.323   8.039   3.181 -0.03 -0.03    -0.248 N 
DOCKED: ATOM     26  N   UNL d   1     -12.295   7.958   0.519 -0.08 -0.00    -0.248 N 
DOCKED: ATOM     27  N   UNL d   1     -10.180   9.722   1.338 +0.14 +0.08    -0.248 N 
DOCKED: ATOM     28  N   UNL d   1     -11.222   9.801   4.026 -0.14 -0.02    -0.248 N 
DOCKED: ATOM     29 FE   UNL d   1     -11.757   8.881   2.273 -0.05 -0.00    +0.000 Fe
DOCKED: ENDROOT
DOCKED: BRANCH   6  30
DOCKED: ATOM     30  C   UNL d   1     -15.725   7.629   5.939 -0.01 +0.02    +0.052 C 
DOCKED: BRANCH  30  31
DOCKED: ATOM     31  C   UNL d   1     -15.796   6.229   6.537 -0.04 +0.06    +0.115 C 
DOCKED: BRANCH  31  32
DOCKED: ATOM     32  C   UNL d   1     -14.499   5.877   7.211 -0.12 +0.15    +0.139 C 
DOCKED: ATOM     33  O   UNL d   1     -14.084   4.727   7.203 -0.30 -1.24    -0.650 OA
DOCKED: BRANCH  32  34
DOCKED: ATOM     34  O   UNL d   1     -13.782   6.829   7.831 +0.05 -0.94    -0.776 OA
DOCKED: ATOM     35  H   UNL d   1     -14.237   7.607   8.181 +0.03 +0.20    +0.167 HD
DOCKED: ENDBRANCH  32  34
DOCKED: ENDBRANCH  31  32
DOCKED: ENDBRANCH  30  31
DOCKED: ENDBRANCH   6  30
DOCKED: BRANCH  22  36
DOCKED: ATOM     36  C   UNL d   1     -11.207  10.139   7.733 -0.34 +0.04    +0.052 C 
DOCKED: BRANCH  36  37
DOCKED: ATOM     37  C   UNL d   1     -12.192  11.223   8.142 -0.20 +0.07    +0.115 C 
DOCKED: BRANCH  37  38
DOCKED: ATOM     38  C   UNL d   1     -13.537  10.635   8.463 -0.07 +0.14    +0.139 C 
DOCKED: ATOM     39  O   UNL d   1     -14.505  11.356   8.656 -0.00 -0.38    -0.650 OA
DOCKED: BRANCH  38  40
DOCKED: ATOM     40  O   UNL d   1     -13.684   9.301   8.545 -0.49 -1.41    -0.776 OA
DOCKED: ATOM     41  H   UNL d   1     -13.416   8.752   7.795 +0.04 +0.20    +0.167 HD
DOCKED: ENDBRANCH  38  40
DOCKED: ENDBRANCH  37  38
DOCKED: ENDBRANCH  36  37
DOCKED: ENDBRANCH  22  36
DOCKED: BRANCH  12  42
DOCKED: ATOM     42  C   UNL d   1     -11.712   6.723  -2.960 -0.08 +0.00    +0.004 C 
DOCKED: ATOM     43  C   UNL d   1     -10.574   6.048  -3.168 -0.15 +0.00    +0.012 C 
DOCKED: ENDBRANCH  12  42
DOCKED: BRANCH  17  44
DOCKED: ATOM     44  C   UNL d   1      -7.427  12.160   1.012 -0.32 -0.00    +0.004 C 
DOCKED: ATOM     45  C   UNL d   1      -7.744  13.408   1.374 -0.30 -0.00    +0.012 C 
DOCKED: ENDBRANCH  17  44
DOCKED: TORSDOF 10
DOCKED: TER
DOCKED: ENDMDL
________________________________________________________________________________


	BEGINNING GENETIC ALGORITHM DOCKING 74 of 100
Run: 74 Seed: 512462481 754087019 [ Run 74 of 100 GA/GALS ]
Beginning LAMARCKIAN GENETIC ALGORITHM (LGA), with a maximum of 25000000 energy evaluations.

Final-Value: -11.303


	FINAL GENETIC ALGORITHM DOCKED STATE
	_______________________________________________


Detailed state:  trans 13.970 9.242 5.065 quatxyzw -0.125820 0.122702 0.910272 -0.374857 center -0.174 -0.001 -0.047 ntor 10 173.6949 -134.1300 80.9538 -5.6784 85.8722 -115.4874 -89.8569 -90.4719 -43.1440 179.2712
State:	 13.970   9.242   5.065  -0.136  0.132  0.982 -135.969    173.69 -134.13   80.95   -5.68   85.87 -115.49  -89.86  -90.47  -43.14  179.27

DOCKED: MODEL       74
DOCKED: USER    Run = 74
DOCKED: USER    DPF = D:/Protein_go_brrr/autodock/final/mut_Y35F/heme_Fe/dock.dpf
DOCKED: USER  
DOCKED: USER    Estimated Free Energy of Binding    =   -7.72 kcal/mol  [=(1)+(2)+(3)-(4)]
DOCKED: USER    Estimated Inhibition Constant, Ki   =    2.20 uM (micromolar)  [Temperature = 298.15 K]
DOCKED: USER    
DOCKED: USER    (1) Final Intermolecular Energy     =  -10.70 kcal/mol
DOCKED: USER        vdW + Hbond + desolv Energy     =   -7.72 kcal/mol
DOCKED: USER        Electrostatic Energy            =   -2.98 kcal/mol
DOCKED: USER    (2) Final Total Internal Energy     =   -0.60 kcal/mol
DOCKED: USER    (3) Torsional Free Energy           =   +2.98 kcal/mol
DOCKED: USER    (4) Unbound System's Energy  [=(2)] =   -0.60 kcal/mol
DOCKED: USER    
DOCKED: USER    
DOCKED: USER    NEWDPF move heme_Fe_opt.pdbqt
DOCKED: USER    NEWDPF about -0.174000 -0.001000 -0.047000
DOCKED: USER    NEWDPF tran0 13.969984 9.241819 5.065207
DOCKED: USER    NEWDPF quaternion0 -0.125820 0.122702 0.910272 -0.374857
DOCKED: USER    NEWDPF axisangle0 -0.135717 0.132353 0.981868 -135.969069
DOCKED: USER    NEWDPF quat0 -0.135717 0.132353 0.981868 -135.969069
DOCKED: USER    NEWDPF dihe0 173.69 -134.13 80.95 -5.68 85.87 -115.49 -89.86 -90.47 -43.14 179.27 
DOCKED: USER  keepresnum = 1 
DOCKED: USER  
DOCKED: REMARK  10 active torsions:
DOCKED: REMARK  status: ('A' for Active; 'I' for Inactive)
DOCKED: REMARK    1  A    between atoms: C_6  and  C_10 
DOCKED: REMARK    2  A    between atoms: C_10  and  C_11 
DOCKED: REMARK    3  A    between atoms: C_11  and  C_12 
DOCKED: REMARK    4  A    between atoms: C_12  and  O_14 
DOCKED: REMARK    5  A    between atoms: C_17  and  C_20 
DOCKED: REMARK    6  A    between atoms: C_24  and  C_27 
DOCKED: REMARK    7  A    between atoms: C_31  and  C_34 
DOCKED: REMARK    8  A    between atoms: C_34  and  C_35 
DOCKED: REMARK    9  A    between atoms: C_35  and  C_36 
DOCKED: REMARK   10  A    between atoms: C_36  and  O_38 
DOCKED: USER                              x       y       z     vdW  Elec       q    Type
DOCKED: USER                           _______ _______ _______ _____ _____    ______ ____
DOCKED: ROOT
DOCKED: ATOM      1  C   UNL d   1      15.301   8.161   6.193 -0.08 +0.02    +0.064 C 
DOCKED: ATOM      2  C   UNL d   1      15.189  12.769   4.409 -0.10 +0.00    +0.064 A 
DOCKED: ATOM      3  C   UNL d   1      10.498  12.240   3.527 -0.28 -0.01    +0.064 C 
DOCKED: ATOM      4  C   UNL d   1      10.606   7.742   5.151 -0.14 +0.01    +0.064 C 
DOCKED: ATOM      5  C   UNL d   1      15.722   9.478   5.695 -0.07 +0.02    +0.066 A 
DOCKED: ATOM      6  C   UNL d   1      17.029   9.936   5.680 -0.08 -0.01    -0.021 A 
DOCKED: ATOM      7  C   UNL d   1      16.997  11.217   5.188 +0.03 -0.01    -0.025 A 
DOCKED: ATOM      8  C   UNL d   1      15.670  11.492   4.921 -0.04 +0.02    +0.066 A 
DOCKED: ATOM      9  C   UNL d   1      18.180  12.110   4.972 -0.06 +0.01    +0.051 C 
DOCKED: ATOM     10  C   UNL d   1      13.923  13.041   4.089 -0.11 -0.00    +0.066 A 
DOCKED: ATOM     11  C   UNL d   1      13.474  14.308   3.710 -0.09 +0.00    -0.021 A 
DOCKED: ATOM     12  C   UNL d   1      12.121  14.186   3.466 -0.17 -0.00    +0.000 A 
DOCKED: ATOM     13  C   UNL d   1      11.809  12.839   3.720 -0.19 -0.01    +0.070 A 
DOCKED: ATOM     14  C   UNL d   1      14.281  15.589   3.649 -0.05 -0.01    +0.052 C 
DOCKED: ATOM     15  C   UNL d   1      10.180  10.957   3.819 -0.26 -0.01    +0.066 A 
DOCKED: ATOM     16  C   UNL d   1       8.944  10.395   3.527 -0.40 +0.00    -0.021 A 
DOCKED: ATOM     17  C   UNL d   1       8.972   9.099   3.998 -0.38 +0.00    +0.000 A 
DOCKED: ATOM     18  C   UNL d   1      10.226   8.901   4.571 -0.27 +0.01    +0.070 A 
DOCKED: ATOM     19  C   UNL d   1       7.771  11.057   2.854 -0.53 +0.00    +0.052 C 
DOCKED: ATOM     20  C   UNL d   1      11.937   7.477   5.709 -0.17 +0.02    +0.066 A 
DOCKED: ATOM     21  C   UNL d   1      12.282   6.362   6.487 -0.18 -0.01    -0.025 A 
DOCKED: ATOM     22  C   UNL d   1      13.628   6.495   6.762 -0.10 -0.01    -0.021 A 
DOCKED: ATOM     23  C   UNL d   1      14.047   7.683   6.150 -0.08 +0.02    +0.066 A 
DOCKED: ATOM     24  C   UNL d   1      11.400   5.228   6.955 +0.07 +0.06    +0.051 C 
DOCKED: ATOM     25  N   UNL d   1      14.898  10.428   5.222 -0.06 -0.07    -0.248 N 
DOCKED: ATOM     26  N   UNL d   1      12.905  12.142   4.109 -0.09 +0.01    -0.248 N 
DOCKED: ATOM     27  N   UNL d   1      10.985  10.028   4.423 -0.15 +0.00    -0.248 N 
DOCKED: ATOM     28  N   UNL d   1      13.001   8.300   5.548 -0.06 -0.05    -0.248 N 
DOCKED: ATOM     29 FE   UNL d   1      12.952  10.220   4.828 -0.04 +0.00    +0.000 Fe
DOCKED: ENDROOT
DOCKED: BRANCH   6  30
DOCKED: ATOM     30  C   UNL d   1      18.252   9.188   6.091 -0.08 +0.02    +0.052 C 
DOCKED: BRANCH  30  31
DOCKED: ATOM     31  C   UNL d   1      18.249   7.782   5.502 -0.12 +0.05    +0.115 C 
DOCKED: BRANCH  31  32
DOCKED: ATOM     32  C   UNL d   1      18.928   7.773   4.160 -0.23 +0.12    +0.139 C 
DOCKED: ATOM     33  O   UNL d   1      20.141   7.648   4.076 -0.17 -0.82    -0.650 OA
DOCKED: BRANCH  32  34
DOCKED: ATOM     34  O   UNL d   1      18.202   7.903   3.037 -0.44 -0.73    -0.776 OA
DOCKED: ATOM     35  H   UNL d   1      17.237   7.909   3.099 -0.35 +0.07    +0.167 HD
DOCKED: ENDBRANCH  32  34
DOCKED: ENDBRANCH  31  32
DOCKED: ENDBRANCH  30  31
DOCKED: ENDBRANCH   6  30
DOCKED: BRANCH  22  36
DOCKED: ATOM     36  C   UNL d   1      14.450   5.558   7.606 -0.06 +0.02    +0.052 C 
DOCKED: BRANCH  36  37
DOCKED: ATOM     37  C   UNL d   1      14.288   5.916   9.076 -0.03 +0.06    +0.115 C 
DOCKED: BRANCH  37  38
DOCKED: ATOM     38  C   UNL d   1      13.119   5.191   9.681 -0.04 +0.16    +0.139 C 
DOCKED: ATOM     39  O   UNL d   1      12.147   5.806  10.094 +0.03 -0.94    -0.650 OA
DOCKED: BRANCH  38  40
DOCKED: ATOM     40  O   UNL d   1      13.137   3.849   9.776 -0.55 -1.12    -0.776 OA
DOCKED: ATOM     41  H   UNL d   1      13.935   3.412  10.104 +0.01 +0.13    +0.167 HD
DOCKED: ENDBRANCH  38  40
DOCKED: ENDBRANCH  37  38
DOCKED: ENDBRANCH  36  37
DOCKED: ENDBRANCH  22  36
DOCKED: BRANCH  12  42
DOCKED: ATOM     42  C   UNL d   1      11.223  15.305   3.041 -0.22 -0.00    +0.004 C 
DOCKED: ATOM     43  C   UNL d   1      10.422  15.178   1.976 -0.38 -0.00    +0.012 C 
DOCKED: ENDBRANCH  12  42
DOCKED: BRANCH  17  44
DOCKED: ATOM     44  C   UNL d   1       7.877   8.108   3.888 -0.48 +0.00    +0.004 C 
DOCKED: ATOM     45  C   UNL d   1       7.254   7.902   2.722 -0.49 +0.00    +0.012 C 
DOCKED: ENDBRANCH  17  44
DOCKED: TORSDOF 10
DOCKED: TER
DOCKED: ENDMDL
________________________________________________________________________________


	BEGINNING GENETIC ALGORITHM DOCKING 75 of 100
Run: 75 Seed: 1614759187 1060659925 [ Run 75 of 100 GA/GALS ]
Beginning LAMARCKIAN GENETIC ALGORITHM (LGA), with a maximum of 25000000 energy evaluations.

Final-Value: -12.202


	FINAL GENETIC ALGORITHM DOCKED STATE
	_______________________________________________


Detailed state:  trans 11.528 11.820 7.203 quatxyzw -0.563508 -0.457177 0.569562 -0.386065 center -0.174 -0.001 -0.047 ntor 10 172.1325 -46.7426 -169.8580 54.0168 28.2825 147.0866 8.2707 66.7293 -146.4580 158.1485
State:	 11.528  11.820   7.203  -0.611 -0.496  0.617 -134.580    172.13  -46.74 -169.86   54.02   28.28  147.09    8.27   66.73 -146.46  158.15

DOCKED: MODEL       75
DOCKED: USER    Run = 75
DOCKED: USER    DPF = D:/Protein_go_brrr/autodock/final/mut_Y35F/heme_Fe/dock.dpf
DOCKED: USER  
DOCKED: USER    Estimated Free Energy of Binding    =   -7.03 kcal/mol  [=(1)+(2)+(3)-(4)]
DOCKED: USER    Estimated Inhibition Constant, Ki   =    7.06 uM (micromolar)  [Temperature = 298.15 K]
DOCKED: USER    
DOCKED: USER    (1) Final Intermolecular Energy     =  -10.01 kcal/mol
DOCKED: USER        vdW + Hbond + desolv Energy     =   -7.56 kcal/mol
DOCKED: USER        Electrostatic Energy            =   -2.45 kcal/mol
DOCKED: USER    (2) Final Total Internal Energy     =   -2.19 kcal/mol
DOCKED: USER    (3) Torsional Free Energy           =   +2.98 kcal/mol
DOCKED: USER    (4) Unbound System's Energy  [=(2)] =   -2.19 kcal/mol
DOCKED: USER    
DOCKED: USER    
DOCKED: USER    NEWDPF move heme_Fe_opt.pdbqt
DOCKED: USER    NEWDPF about -0.174000 -0.001000 -0.047000
DOCKED: USER    NEWDPF tran0 11.528419 11.819820 7.202755
DOCKED: USER    NEWDPF quaternion0 -0.563508 -0.457177 0.569562 -0.386065
DOCKED: USER    NEWDPF axisangle0 -0.610868 -0.495600 0.617431 -134.580296
DOCKED: USER    NEWDPF quat0 -0.610868 -0.495600 0.617431 -134.580296
DOCKED: USER    NEWDPF dihe0 172.13 -46.74 -169.86 54.02 28.28 147.09 8.27 66.73 -146.46 158.15 
DOCKED: USER  keepresnum = 1 
DOCKED: USER  
DOCKED: REMARK  10 active torsions:
DOCKED: REMARK  status: ('A' for Active; 'I' for Inactive)
DOCKED: REMARK    1  A    between atoms: C_6  and  C_10 
DOCKED: REMARK    2  A    between atoms: C_10  and  C_11 
DOCKED: REMARK    3  A    between atoms: C_11  and  C_12 
DOCKED: REMARK    4  A    between atoms: C_12  and  O_14 
DOCKED: REMARK    5  A    between atoms: C_17  and  C_20 
DOCKED: REMARK    6  A    between atoms: C_24  and  C_27 
DOCKED: REMARK    7  A    between atoms: C_31  and  C_34 
DOCKED: REMARK    8  A    between atoms: C_34  and  C_35 
DOCKED: REMARK    9  A    between atoms: C_35  and  C_36 
DOCKED: REMARK   10  A    between atoms: C_36  and  O_38 
DOCKED: USER                              x       y       z     vdW  Elec       q    Type
DOCKED: USER                           _______ _______ _______ _____ _____    ______ ____
DOCKED: ROOT
DOCKED: ATOM      1  C   UNL d   1      11.127   9.899   7.803 -0.16 +0.01    +0.064 C 
DOCKED: ATOM      2  C   UNL d   1      10.825  14.347   9.937 -0.23 +0.02    +0.064 A 
DOCKED: ATOM      3  C   UNL d   1      11.236  16.377   5.603 -0.17 -0.01    +0.064 C 
DOCKED: ATOM      4  C   UNL d   1      11.636  12.085   3.530 -0.23 -0.01    +0.064 C 
DOCKED: ATOM      5  C   UNL d   1      11.088  10.965   8.814 -0.16 +0.01    +0.066 A 
DOCKED: ATOM      6  C   UNL d   1      11.081  10.755  10.184 -0.16 -0.01    -0.021 A 
DOCKED: ATOM      7  C   UNL d   1      10.993  11.991  10.775 -0.19 -0.01    -0.025 A 
DOCKED: ATOM      8  C   UNL d   1      10.950  12.908   9.743 -0.22 +0.02    +0.066 A 
DOCKED: ATOM      9  C   UNL d   1      10.972  12.265  12.248 -0.20 +0.04    +0.051 C 
DOCKED: ATOM     10  C   UNL d   1      10.839  15.257   8.961 -0.24 +0.01    +0.066 A 
DOCKED: ATOM     11  C   UNL d   1      10.602  16.619   9.168 -0.22 -0.00    -0.021 A 
DOCKED: ATOM     12  C   UNL d   1      10.698  17.224   7.931 -0.09 -0.00    +0.000 A 
DOCKED: ATOM     13  C   UNL d   1      10.984  16.189   7.023 -0.18 -0.01    +0.070 A 
DOCKED: ATOM     14  C   UNL d   1      10.234  17.300  10.471 -0.22 +0.01    +0.052 C 
DOCKED: ATOM     15  C   UNL d   1      11.460  15.379   4.717 -0.13 -0.01    +0.066 A 
DOCKED: ATOM     16  C   UNL d   1      11.796  15.606   3.388 -0.11 +0.00    -0.021 A 
DOCKED: ATOM     17  C   UNL d   1      11.908  14.369   2.787 -0.22 -0.00    +0.000 A 
DOCKED: ATOM     18  C   UNL d   1      11.634  13.415   3.764 -0.18 -0.01    +0.070 A 
DOCKED: ATOM     19  C   UNL d   1      11.980  16.932   2.701 -0.08 -0.02    +0.052 C 
DOCKED: ATOM     20  C   UNL d   1      11.413  11.050   4.546 -0.19 -0.00    +0.066 A 
DOCKED: ATOM     21  C   UNL d   1      11.215   9.687   4.285 -0.26 -0.00    -0.025 A 
DOCKED: ATOM     22  C   UNL d   1      11.084   9.081   5.517 -0.19 -0.00    -0.021 A 
DOCKED: ATOM     23  C   UNL d   1      11.201  10.094   6.477 -0.12 +0.01    +0.066 A 
DOCKED: ATOM     24  C   UNL d   1      11.145   8.983   2.950 -0.42 -0.00    +0.051 C 
DOCKED: ATOM     25  N   UNL d   1      11.018  12.281   8.552 -0.04 -0.04    -0.248 N 
DOCKED: ATOM     26  N   UNL d   1      11.061  14.989   7.649 -0.15 +0.01    -0.248 N 
DOCKED: ATOM     27  N   UNL d   1      11.401  14.033   4.961 -0.07 +0.02    -0.248 N 
DOCKED: ATOM     28  N   UNL d   1      11.357  11.299   5.877 +0.07 -0.01    -0.248 N 
DOCKED: ATOM     29 FE   UNL d   1      11.209  13.143   6.761 -0.04 +0.00    +0.000 Fe
DOCKED: ENDROOT
DOCKED: BRANCH   6  30
DOCKED: ATOM     30  C   UNL d   1      11.175   9.450  10.897 -0.12 +0.02    +0.052 C 
DOCKED: BRANCH  30  31
DOCKED: ATOM     31  C   UNL d   1      10.055   8.513  10.457 -0.10 +0.06    +0.115 C 
DOCKED: BRANCH  31  32
DOCKED: ATOM     32  C   UNL d   1      10.031   7.281  11.319 -0.13 +0.11    +0.139 C 
DOCKED: ATOM     33  O   UNL d   1      10.430   7.321  12.475 -0.00 -0.35    -0.650 OA
DOCKED: BRANCH  32  34
DOCKED: ATOM     34  O   UNL d   1       9.568   6.120  10.825 -0.22 -1.35    -0.776 OA
DOCKED: ATOM     35  H   UNL d   1       9.148   6.116   9.954 +0.03 +0.30    +0.167 HD
DOCKED: ENDBRANCH  32  34
DOCKED: ENDBRANCH  31  32
DOCKED: ENDBRANCH  30  31
DOCKED: ENDBRANCH   6  30
DOCKED: BRANCH  22  36
DOCKED: ATOM     36  C   UNL d   1      10.814   7.619   5.755 -0.19 +0.01    +0.052 C 
DOCKED: BRANCH  36  37
DOCKED: ATOM     37  C   UNL d   1       9.363   7.426   6.172 -0.13 +0.04    +0.115 C 
DOCKED: BRANCH  37  38
DOCKED: ATOM     38  C   UNL d   1       9.271   6.931   7.587 -0.24 +0.10    +0.139 C 
DOCKED: ATOM     39  O   UNL d   1       8.336   7.256   8.304 +0.01 -0.37    -0.650 OA
DOCKED: BRANCH  38  40
DOCKED: ATOM     40  O   UNL d   1      10.227   6.122   8.079 -0.35 -1.31    -0.776 OA
DOCKED: ATOM     41  H   UNL d   1      10.602   6.313   8.949 +0.03 +0.31    +0.167 HD
DOCKED: ENDBRANCH  38  40
DOCKED: ENDBRANCH  37  38
DOCKED: ENDBRANCH  36  37
DOCKED: ENDBRANCH  22  36
DOCKED: BRANCH  12  42
DOCKED: ATOM     42  C   UNL d   1      10.506  18.685   7.676 -0.17 -0.00    +0.004 C 
DOCKED: ATOM     43  C   UNL d   1       9.573  19.117   6.818 -0.20 -0.00    +0.012 C 
DOCKED: ENDBRANCH  12  42
DOCKED: BRANCH  17  44
DOCKED: ATOM     44  C   UNL d   1      12.275  14.116   1.375 -0.44 -0.00    +0.004 C 
DOCKED: ATOM     45  C   UNL d   1      13.472  13.613   1.058 -0.50 -0.00    +0.012 C 
DOCKED: ENDBRANCH  17  44
DOCKED: TORSDOF 10
DOCKED: TER
DOCKED: ENDMDL
________________________________________________________________________________


	BEGINNING GENETIC ALGORITHM DOCKING 76 of 100
Run: 76 Seed: 1698445155 34541326 [ Run 76 of 100 GA/GALS ]
Beginning LAMARCKIAN GENETIC ALGORITHM (LGA), with a maximum of 25000000 energy evaluations.

Final-Value: -12.129


	FINAL GENETIC ALGORITHM DOCKED STATE
	_______________________________________________


Detailed state:  trans 9.673 8.914 10.297 quatxyzw -0.009930 0.690115 -0.432799 -0.579937 center -0.174 -0.001 -0.047 ntor 10 -45.2152 58.6824 32.4311 12.9691 113.2717 -169.8328 88.3894 -62.3000 9.4133 -11.5285
State:	  9.673   8.914  10.297  -0.012  0.847 -0.531 -109.108    -45.22   58.68   32.43   12.97  113.27 -169.83   88.39  -62.30    9.41  -11.53

DOCKED: MODEL       76
DOCKED: USER    Run = 76
DOCKED: USER    DPF = D:/Protein_go_brrr/autodock/final/mut_Y35F/heme_Fe/dock.dpf
DOCKED: USER  
DOCKED: USER    Estimated Free Energy of Binding    =   -7.10 kcal/mol  [=(1)+(2)+(3)-(4)]
DOCKED: USER    Estimated Inhibition Constant, Ki   =    6.23 uM (micromolar)  [Temperature = 298.15 K]
DOCKED: USER    
DOCKED: USER    (1) Final Intermolecular Energy     =  -10.08 kcal/mol
DOCKED: USER        vdW + Hbond + desolv Energy     =   -7.16 kcal/mol
DOCKED: USER        Electrostatic Energy            =   -2.92 kcal/mol
DOCKED: USER    (2) Final Total Internal Energy     =   -2.04 kcal/mol
DOCKED: USER    (3) Torsional Free Energy           =   +2.98 kcal/mol
DOCKED: USER    (4) Unbound System's Energy  [=(2)] =   -2.04 kcal/mol
DOCKED: USER    
DOCKED: USER    
DOCKED: USER    NEWDPF move heme_Fe_opt.pdbqt
DOCKED: USER    NEWDPF about -0.174000 -0.001000 -0.047000
DOCKED: USER    NEWDPF tran0 9.672711 8.914022 10.296679
DOCKED: USER    NEWDPF quaternion0 -0.009930 0.690115 -0.432799 -0.579937
DOCKED: USER    NEWDPF axisangle0 -0.012189 0.847119 -0.531263 -109.107772
DOCKED: USER    NEWDPF quat0 -0.012189 0.847119 -0.531263 -109.107772
DOCKED: USER    NEWDPF dihe0 -45.22 58.68 32.43 12.97 113.27 -169.83 88.39 -62.30 9.41 -11.53 
DOCKED: USER  keepresnum = 1 
DOCKED: USER  
DOCKED: REMARK  10 active torsions:
DOCKED: REMARK  status: ('A' for Active; 'I' for Inactive)
DOCKED: REMARK    1  A    between atoms: C_6  and  C_10 
DOCKED: REMARK    2  A    between atoms: C_10  and  C_11 
DOCKED: REMARK    3  A    between atoms: C_11  and  C_12 
DOCKED: REMARK    4  A    between atoms: C_12  and  O_14 
DOCKED: REMARK    5  A    between atoms: C_17  and  C_20 
DOCKED: REMARK    6  A    between atoms: C_24  and  C_27 
DOCKED: REMARK    7  A    between atoms: C_31  and  C_34 
DOCKED: REMARK    8  A    between atoms: C_34  and  C_35 
DOCKED: REMARK    9  A    between atoms: C_35  and  C_36 
DOCKED: REMARK   10  A    between atoms: C_36  and  O_38 
DOCKED: USER                              x       y       z     vdW  Elec       q    Type
DOCKED: USER                           _______ _______ _______ _____ _____    ______ ____
DOCKED: ROOT
DOCKED: ATOM      1  C   UNL d   1      10.722   9.587  11.926 -0.12 +0.03    +0.064 C 
DOCKED: ATOM      2  C   UNL d   1       7.747   5.739  11.050 -0.17 +0.06    +0.064 A 
DOCKED: ATOM      3  C   UNL d   1       8.183   6.563   6.338 -0.09 +0.03    +0.064 C 
DOCKED: ATOM      4  C   UNL d   1      10.979  10.355   7.168 -0.07 +0.01    +0.064 C 
DOCKED: ATOM      5  C   UNL d   1       9.777   8.479  12.119 -0.10 +0.03    +0.066 A 
DOCKED: ATOM      6  C   UNL d   1       9.323   8.032  13.349 -0.11 -0.01    -0.021 A 
DOCKED: ATOM      7  C   UNL d   1       8.500   6.961  13.105 -0.13 -0.01    -0.025 A 
DOCKED: ATOM      8  C   UNL d   1       8.483   6.795  11.734 +0.06 +0.04    +0.066 A 
DOCKED: ATOM      9  C   UNL d   1       7.761   6.162  14.135 -0.12 +0.01    +0.051 C 
DOCKED: ATOM     10  C   UNL d   1       7.668   5.591   9.726 -0.14 +0.07    +0.066 A 
DOCKED: ATOM     11  C   UNL d   1       7.051   4.504   9.103 +0.06 -0.02    -0.021 A 
DOCKED: ATOM     12  C   UNL d   1       7.177   4.709   7.744 -0.35 +0.00    +0.000 A 
DOCKED: ATOM     13  C   UNL d   1       7.880   5.919   7.607 -0.31 +0.05    +0.070 A 
DOCKED: ATOM     14  C   UNL d   1       6.430   3.293   9.771 -0.04 +0.03    +0.052 C 
DOCKED: ATOM     15  C   UNL d   1       8.904   7.701   6.199 -0.23 +0.02    +0.066 A 
DOCKED: ATOM     16  C   UNL d   1       9.087   8.338   4.978 -0.31 -0.00    -0.021 A 
DOCKED: ATOM     17  C   UNL d   1       9.896   9.430   5.215 -0.18 +0.00    +0.000 A 
DOCKED: ATOM     18  C   UNL d   1      10.192   9.431   6.576 -0.10 +0.01    +0.070 A 
DOCKED: ATOM     19  C   UNL d   1       8.545   7.925   3.637 -0.40 +0.00    +0.052 C 
DOCKED: ATOM     20  C   UNL d   1      11.262  10.423   8.606 -0.14 +0.01    +0.066 A 
DOCKED: ATOM     21  C   UNL d   1      12.228  11.246   9.204 -0.09 -0.00    -0.025 A 
DOCKED: ATOM     22  C   UNL d   1      12.129  11.020  10.561 -0.08 -0.01    -0.021 A 
DOCKED: ATOM     23  C   UNL d   1      11.116  10.069  10.737 -0.12 +0.02    +0.066 A 
DOCKED: ATOM     24  C   UNL d   1      13.201  12.193   8.541 -0.06 +0.01    +0.051 C 
DOCKED: ATOM     25  N   UNL d   1       9.254   7.725  11.136 +0.16 -0.15    -0.248 N 
DOCKED: ATOM     26  N   UNL d   1       8.187   6.452   8.815 -0.17 -0.22    -0.248 N 
DOCKED: ATOM     27  N   UNL d   1       9.547   8.394   7.190 -0.14 -0.08    -0.248 N 
DOCKED: ATOM     28  N   UNL d   1      10.622   9.676   9.538 -0.11 -0.08    -0.248 N 
DOCKED: ATOM     29 FE   UNL d   1       9.406   8.066   9.175 -0.05 +0.00    +0.000 Fe
DOCKED: ENDROOT
DOCKED: BRANCH   6  30
DOCKED: ATOM     30  C   UNL d   1       9.636   8.605  14.689 -0.06 +0.02    +0.052 C 
DOCKED: BRANCH  30  31
DOCKED: ATOM     31  C   UNL d   1       8.510   9.517  15.163 -0.11 +0.05    +0.115 C 
DOCKED: BRANCH  31  32
DOCKED: ATOM     32  C   UNL d   1       8.770  10.937  14.742 -0.11 +0.14    +0.139 C 
DOCKED: ATOM     33  O   UNL d   1       8.047  11.486  13.922 -0.58 -0.84    -0.650 OA
DOCKED: BRANCH  32  34
DOCKED: ATOM     34  O   UNL d   1       9.802  11.618  15.267 -0.19 -1.14    -0.776 OA
DOCKED: ATOM     35  H   UNL d   1      10.371  12.135  14.678 +0.01 +0.29    +0.167 HD
DOCKED: ENDBRANCH  32  34
DOCKED: ENDBRANCH  31  32
DOCKED: ENDBRANCH  30  31
DOCKED: ENDBRANCH   6  30
DOCKED: BRANCH  22  36
DOCKED: ATOM     36  C   UNL d   1      12.994  11.647  11.623 -0.04 +0.01    +0.052 C 
DOCKED: BRANCH  36  37
DOCKED: ATOM     37  C   UNL d   1      12.418  12.999  12.020 -0.09 +0.05    +0.115 C 
DOCKED: BRANCH  37  38
DOCKED: ATOM     38  C   UNL d   1      12.000  13.003  13.463 -0.10 +0.11    +0.139 C 
DOCKED: ATOM     39  O   UNL d   1      11.350  13.929  13.924 -0.51 -1.15    -0.650 OA
DOCKED: BRANCH  38  40
DOCKED: ATOM     40  O   UNL d   1      12.345  11.979  14.265 +0.01 -0.44    -0.776 OA
DOCKED: ATOM     41  H   UNL d   1      11.649  11.474  14.708 +0.01 +0.11    +0.167 HD
DOCKED: ENDBRANCH  38  40
DOCKED: ENDBRANCH  37  38
DOCKED: ENDBRANCH  36  37
DOCKED: ENDBRANCH  22  36
DOCKED: BRANCH  12  42
DOCKED: ATOM     42  C   UNL d   1       6.667   3.782   6.687 -0.52 +0.00    +0.004 C 
DOCKED: ATOM     43  C   UNL d   1       5.377   3.790   6.328 -0.49 +0.00    +0.012 C 
DOCKED: ENDBRANCH  12  42
DOCKED: BRANCH  17  44
DOCKED: ATOM     44  C   UNL d   1      10.340  10.420   4.207 -0.33 -0.00    +0.004 C 
DOCKED: ATOM     45  C   UNL d   1       9.463  11.242   3.622 -0.41 -0.00    +0.012 C 
DOCKED: ENDBRANCH  17  44
DOCKED: TORSDOF 10
DOCKED: TER
DOCKED: ENDMDL
________________________________________________________________________________


	BEGINNING GENETIC ALGORITHM DOCKING 77 of 100
Run: 77 Seed: 1063701859 228152571 [ Run 77 of 100 GA/GALS ]
Beginning LAMARCKIAN GENETIC ALGORITHM (LGA), with a maximum of 25000000 energy evaluations.

Final-Value: -11.973


	FINAL GENETIC ALGORITHM DOCKED STATE
	_______________________________________________


Detailed state:  trans 11.473 12.371 8.272 quatxyzw -0.722637 0.007656 0.690779 0.023704 center -0.174 -0.001 -0.047 ntor 10 -107.0797 82.0049 72.1667 39.9857 -140.4436 156.1193 15.0968 -59.8602 -1.2051 11.4004
State:	 11.473  12.371   8.272  -0.723  0.008  0.691 177.283   -107.08   82.00   72.17   39.99 -140.44  156.12   15.10  -59.86   -1.21   11.40

DOCKED: MODEL       77
DOCKED: USER    Run = 77
DOCKED: USER    DPF = D:/Protein_go_brrr/autodock/final/mut_Y35F/heme_Fe/dock.dpf
DOCKED: USER  
DOCKED: USER    Estimated Free Energy of Binding    =   -6.91 kcal/mol  [=(1)+(2)+(3)-(4)]
DOCKED: USER    Estimated Inhibition Constant, Ki   =    8.66 uM (micromolar)  [Temperature = 298.15 K]
DOCKED: USER    
DOCKED: USER    (1) Final Intermolecular Energy     =   -9.89 kcal/mol
DOCKED: USER        vdW + Hbond + desolv Energy     =   -7.42 kcal/mol
DOCKED: USER        Electrostatic Energy            =   -2.47 kcal/mol
DOCKED: USER    (2) Final Total Internal Energy     =   -2.08 kcal/mol
DOCKED: USER    (3) Torsional Free Energy           =   +2.98 kcal/mol
DOCKED: USER    (4) Unbound System's Energy  [=(2)] =   -2.08 kcal/mol
DOCKED: USER    
DOCKED: USER    
DOCKED: USER    NEWDPF move heme_Fe_opt.pdbqt
DOCKED: USER    NEWDPF about -0.174000 -0.001000 -0.047000
DOCKED: USER    NEWDPF tran0 11.472850 12.371296 8.271511
DOCKED: USER    NEWDPF quaternion0 -0.722637 0.007656 0.690779 0.023704
DOCKED: USER    NEWDPF axisangle0 -0.722840 0.007658 0.690973 177.283475
DOCKED: USER    NEWDPF quat0 -0.722840 0.007658 0.690973 177.283475
DOCKED: USER    NEWDPF dihe0 -107.08 82.00 72.17 39.99 -140.44 156.12 15.10 -59.86 -1.21 11.40 
DOCKED: USER  keepresnum = 1 
DOCKED: USER  
DOCKED: REMARK  10 active torsions:
DOCKED: REMARK  status: ('A' for Active; 'I' for Inactive)
DOCKED: REMARK    1  A    between atoms: C_6  and  C_10 
DOCKED: REMARK    2  A    between atoms: C_10  and  C_11 
DOCKED: REMARK    3  A    between atoms: C_11  and  C_12 
DOCKED: REMARK    4  A    between atoms: C_12  and  O_14 
DOCKED: REMARK    5  A    between atoms: C_17  and  C_20 
DOCKED: REMARK    6  A    between atoms: C_24  and  C_27 
DOCKED: REMARK    7  A    between atoms: C_31  and  C_34 
DOCKED: REMARK    8  A    between atoms: C_34  and  C_35 
DOCKED: REMARK    9  A    between atoms: C_35  and  C_36 
DOCKED: REMARK   10  A    between atoms: C_36  and  O_38 
DOCKED: USER                              x       y       z     vdW  Elec       q    Type
DOCKED: USER                           _______ _______ _______ _____ _____    ______ ____
DOCKED: ROOT
DOCKED: ATOM      1  C   UNL d   1      10.850  12.504  10.222 -0.25 +0.02    +0.064 C 
DOCKED: ATOM      2  C   UNL d   1      11.138  15.670   6.437 -0.19 -0.01    +0.064 A 
DOCKED: ATOM      3  C   UNL d   1      11.713  11.947   3.457 -0.20 -0.01    +0.064 C 
DOCKED: ATOM      4  C   UNL d   1      11.542   8.873   7.119 -0.12 +0.02    +0.064 C 
DOCKED: ATOM      5  C   UNL d   1      10.961  13.745   9.443 -0.24 +0.01    +0.066 A 
DOCKED: ATOM      6  C   UNL d   1      10.955  15.021   9.983 -0.24 -0.01    -0.021 A 
DOCKED: ATOM      7  C   UNL d   1      11.031  15.900   8.931 -0.23 -0.00    -0.025 A 
DOCKED: ATOM      8  C   UNL d   1      11.082  15.126   7.788 -0.21 -0.00    +0.066 A 
DOCKED: ATOM      9  C   UNL d   1      11.073  17.394   9.030 -0.18 -0.00    +0.051 C 
DOCKED: ATOM     10  C   UNL d   1      11.245  14.946   5.321 -0.14 -0.01    +0.066 A 
DOCKED: ATOM     11  C   UNL d   1      11.181  15.490   4.036 -0.16 +0.00    -0.021 A 
DOCKED: ATOM     12  C   UNL d   1      11.327  14.434   3.158 -0.23 -0.00    +0.000 A 
DOCKED: ATOM     13  C   UNL d   1      11.466  13.289   3.961 -0.19 -0.01    +0.070 A 
DOCKED: ATOM     14  C   UNL d   1      10.924  16.935   3.661 -0.13 -0.01    +0.052 C 
DOCKED: ATOM     15  C   UNL d   1      11.795  10.834   4.223 -0.20 -0.00    +0.066 A 
DOCKED: ATOM     16  C   UNL d   1      12.131   9.586   3.714 -0.31 +0.00    -0.021 A 
DOCKED: ATOM     17  C   UNL d   1      12.079   8.697   4.768 -0.23 +0.00    +0.000 A 
DOCKED: ATOM     18  C   UNL d   1      11.708   9.424   5.897 -0.12 +0.01    +0.070 A 
DOCKED: ATOM     19  C   UNL d   1      12.463   9.235   2.289 -0.46 -0.01    +0.052 C 
DOCKED: ATOM     20  C   UNL d   1      11.213   9.616   8.341 -0.13 +0.02    +0.066 A 
DOCKED: ATOM     21  C   UNL d   1      10.843   9.040   9.564 -0.14 -0.01    -0.025 A 
DOCKED: ATOM     22  C   UNL d   1      10.663  10.093  10.438 -0.15 -0.01    -0.021 A 
DOCKED: ATOM     23  C   UNL d   1      10.922  11.264   9.715 -0.18 +0.02    +0.066 A 
DOCKED: ATOM     24  C   UNL d   1      10.663   7.579   9.903 -0.15 +0.04    +0.051 C 
DOCKED: ATOM     25  N   UNL d   1      11.049  13.815   8.104 +0.01 -0.02    -0.248 N 
DOCKED: ATOM     26  N   UNL d   1      11.407  13.599   5.280 +0.05 +0.01    -0.248 N 
DOCKED: ATOM     27  N   UNL d   1      11.576  10.745   5.572 -0.08 -0.02    -0.248 N 
DOCKED: ATOM     28  N   UNL d   1      11.213  10.969   8.424 -0.10 -0.05    -0.248 N 
DOCKED: ATOM     29 FE   UNL d   1      11.310  12.282   6.852 -0.04 +0.00    +0.000 Fe
DOCKED: ENDROOT
DOCKED: BRANCH   6  30
DOCKED: ATOM     30  C   UNL d   1      10.901  15.389  11.427 -0.07 +0.03    +0.052 C 
DOCKED: BRANCH  30  31
DOCKED: ATOM     31  C   UNL d   1      12.304  15.457  12.020 -0.10 +0.05    +0.115 C 
DOCKED: BRANCH  31  32
DOCKED: ATOM     32  C   UNL d   1      12.241  15.460  13.522 -0.09 +0.09    +0.139 C 
DOCKED: ATOM     33  O   UNL d   1      12.994  16.168  14.176 +0.00 -0.25    -0.650 OA
DOCKED: BRANCH  32  34
DOCKED: ATOM     34  O   UNL d   1      11.351  14.682  14.161 -0.44 -1.42    -0.776 OA
DOCKED: ATOM     35  H   UNL d   1      11.499  13.726  14.191 +0.00 +0.27    +0.167 HD
DOCKED: ENDBRANCH  32  34
DOCKED: ENDBRANCH  31  32
DOCKED: ENDBRANCH  30  31
DOCKED: ENDBRANCH   6  30
DOCKED: BRANCH  22  36
DOCKED: ATOM     36  C   UNL d   1      10.220   9.980  11.872 -0.09 +0.02    +0.052 C 
DOCKED: BRANCH  36  37
DOCKED: ATOM     37  C   UNL d   1      11.387  10.291  12.797 -0.08 +0.05    +0.115 C 
DOCKED: BRANCH  37  38
DOCKED: ATOM     38  C   UNL d   1      11.084  11.478  13.667 -0.12 +0.11    +0.139 C 
DOCKED: ATOM     39  O   UNL d   1      11.656  11.632  14.736 -0.01 -0.46    -0.650 OA
DOCKED: BRANCH  38  40
DOCKED: ATOM     40  O   UNL d   1      10.172  12.384  13.272 -0.05 -1.19    -0.776 OA
DOCKED: ATOM     41  H   UNL d   1      10.472  13.200  12.849 +0.02 +0.25    +0.167 HD
DOCKED: ENDBRANCH  38  40
DOCKED: ENDBRANCH  37  38
DOCKED: ENDBRANCH  36  37
DOCKED: ENDBRANCH  22  36
DOCKED: BRANCH  12  42
DOCKED: ATOM     42  C   UNL d   1      11.311  14.552   1.667 -0.39 -0.00    +0.004 C 
DOCKED: ATOM     43  C   UNL d   1      12.367  14.176   0.934 -0.48 -0.00    +0.012 C 
DOCKED: ENDBRANCH  12  42
DOCKED: BRANCH  17  44
DOCKED: ATOM     44  C   UNL d   1      12.384   7.250   4.703 -0.33 +0.00    +0.004 C 
DOCKED: ATOM     45  C   UNL d   1      13.609   6.795   4.988 -0.28 +0.00    +0.012 C 
DOCKED: ENDBRANCH  17  44
DOCKED: TORSDOF 10
DOCKED: TER
DOCKED: ENDMDL
________________________________________________________________________________


	BEGINNING GENETIC ALGORITHM DOCKING 78 of 100
Run: 78 Seed: 382255495 2074257630 [ Run 78 of 100 GA/GALS ]
Beginning LAMARCKIAN GENETIC ALGORITHM (LGA), with a maximum of 25000000 energy evaluations.

Final-Value: -15.952


	FINAL GENETIC ALGORITHM DOCKED STATE
	_______________________________________________


Detailed state:  trans 6.474 5.412 5.431 quatxyzw 0.344039 -0.335142 -0.867462 0.129719 center -0.174 -0.001 -0.047 ntor 10 -116.1088 -105.8560 35.6553 -154.9103 -19.4063 -113.0520 -50.9383 -9.3776 -139.9217 129.8523
State:	  6.474   5.412   5.431   0.347 -0.338 -0.875 165.093   -116.11 -105.86   35.66 -154.91  -19.41 -113.05  -50.94   -9.38 -139.92  129.85

DOCKED: MODEL       78
DOCKED: USER    Run = 78
DOCKED: USER    DPF = D:/Protein_go_brrr/autodock/final/mut_Y35F/heme_Fe/dock.dpf
DOCKED: USER  
DOCKED: USER    Estimated Free Energy of Binding    =  -11.43 kcal/mol  [=(1)+(2)+(3)-(4)]
DOCKED: USER    Estimated Inhibition Constant, Ki   =    4.20 nM (nanomolar)  [Temperature = 298.15 K]
DOCKED: USER    
DOCKED: USER    (1) Final Intermolecular Energy     =  -14.41 kcal/mol
DOCKED: USER        vdW + Hbond + desolv Energy     =  -11.96 kcal/mol
DOCKED: USER        Electrostatic Energy            =   -2.45 kcal/mol
DOCKED: USER    (2) Final Total Internal Energy     =   -1.54 kcal/mol
DOCKED: USER    (3) Torsional Free Energy           =   +2.98 kcal/mol
DOCKED: USER    (4) Unbound System's Energy  [=(2)] =   -1.54 kcal/mol
DOCKED: USER    
DOCKED: USER    
DOCKED: USER    NEWDPF move heme_Fe_opt.pdbqt
DOCKED: USER    NEWDPF about -0.174000 -0.001000 -0.047000
DOCKED: USER    NEWDPF tran0 6.473741 5.411514 5.431143
DOCKED: USER    NEWDPF quaternion0 0.344039 -0.335142 -0.867462 0.129719
DOCKED: USER    NEWDPF axisangle0 0.346970 -0.337997 -0.874854 165.093276
DOCKED: USER    NEWDPF quat0 0.346970 -0.337997 -0.874854 165.093276
DOCKED: USER    NEWDPF dihe0 -116.11 -105.86 35.66 -154.91 -19.41 -113.05 -50.94 -9.38 -139.92 129.85 
DOCKED: USER  keepresnum = 1 
DOCKED: USER  
DOCKED: REMARK  10 active torsions:
DOCKED: REMARK  status: ('A' for Active; 'I' for Inactive)
DOCKED: REMARK    1  A    between atoms: C_6  and  C_10 
DOCKED: REMARK    2  A    between atoms: C_10  and  C_11 
DOCKED: REMARK    3  A    between atoms: C_11  and  C_12 
DOCKED: REMARK    4  A    between atoms: C_12  and  O_14 
DOCKED: REMARK    5  A    between atoms: C_17  and  C_20 
DOCKED: REMARK    6  A    between atoms: C_24  and  C_27 
DOCKED: REMARK    7  A    between atoms: C_31  and  C_34 
DOCKED: REMARK    8  A    between atoms: C_34  and  C_35 
DOCKED: REMARK    9  A    between atoms: C_35  and  C_36 
DOCKED: REMARK   10  A    between atoms: C_36  and  O_38 
DOCKED: USER                              x       y       z     vdW  Elec       q    Type
DOCKED: USER                           _______ _______ _______ _____ _____    ______ ____
DOCKED: ROOT
DOCKED: ATOM      1  C   UNL d   1       7.675   5.823   7.043 -0.35 +0.04    +0.064 C 
DOCKED: ATOM      2  C   UNL d   1       6.624   8.139   2.805 -0.42 +0.01    +0.064 A 
DOCKED: ATOM      3  C   UNL d   1       2.857   5.217   2.222 -0.42 +0.00    +0.064 C 
DOCKED: ATOM      4  C   UNL d   1       3.918   2.893   6.267 -0.49 +0.01    +0.064 C 
DOCKED: ATOM      5  C   UNL d   1       7.777   6.691   5.862 -0.06 +0.02    +0.066 A 
DOCKED: ATOM      6  C   UNL d   1       8.805   7.590   5.628 -0.15 -0.01    -0.021 A 
DOCKED: ATOM      7  C   UNL d   1       8.511   8.235   4.453 -0.35 -0.00    -0.025 A 
DOCKED: ATOM      8  C   UNL d   1       7.313   7.705   4.014 -0.34 +0.01    +0.066 A 
DOCKED: ATOM      9  C   UNL d   1       9.348   9.285   3.788 -0.42 +0.00    +0.051 C 
DOCKED: ATOM     10  C   UNL d   1       5.498   7.605   2.329 -0.39 +0.01    +0.066 A 
DOCKED: ATOM     11  C   UNL d   1       4.801   8.117   1.232 -0.46 -0.00    -0.021 A 
DOCKED: ATOM     12  C   UNL d   1       3.701   7.302   1.054 -0.48 +0.00    +0.000 A 
DOCKED: ATOM     13  C   UNL d   1       3.780   6.330   2.066 -0.37 +0.00    +0.070 A 
DOCKED: ATOM     14  C   UNL d   1       5.129   9.363   0.435 -0.49 +0.01    +0.052 C 
DOCKED: ATOM     15  C   UNL d   1       2.900   4.309   3.226 -0.37 +0.00    +0.066 A 
DOCKED: ATOM     16  C   UNL d   1       2.061   3.203   3.284 -0.30 -0.00    -0.021 A 
DOCKED: ATOM     17  C   UNL d   1       2.363   2.533   4.452 -0.30 +0.00    +0.000 A 
DOCKED: ATOM     18  C   UNL d   1       3.378   3.250   5.082 -0.36 +0.00    +0.070 A 
DOCKED: ATOM     19  C   UNL d   1       1.000   2.802   2.295 -0.36 +0.00    +0.052 C 
DOCKED: ATOM     20  C   UNL d   1       5.028   3.588   6.930 -0.39 +0.01    +0.066 A 
DOCKED: ATOM     21  C   UNL d   1       5.462   3.354   8.243 -0.22 -0.01    -0.025 A 
DOCKED: ATOM     22  C   UNL d   1       6.542   4.190   8.438 -0.22 -0.01    -0.021 A 
DOCKED: ATOM     23  C   UNL d   1       6.718   4.903   7.246 -0.35 +0.03    +0.066 A 
DOCKED: ATOM     24  C   UNL d   1       4.896   2.398   9.267 +0.63 +0.01    +0.051 C 
DOCKED: ATOM     25  N   UNL d   1       6.874   6.759   4.869 -0.10 -0.09    -0.248 N 
DOCKED: ATOM     26  N   UNL d   1       4.871   6.519   2.849 -0.23 -0.04    -0.248 N 
DOCKED: ATOM     27  N   UNL d   1       3.738   4.317   4.308 -0.24 -0.02    -0.248 N 
DOCKED: ATOM     28  N   UNL d   1       5.764   4.564   6.346 -0.25 -0.06    -0.248 N 
DOCKED: ATOM     29 FE   UNL d   1       5.316   5.540   4.599 -0.09 +0.00    +0.000 Fe
DOCKED: ENDROOT
DOCKED: BRANCH   6  30
DOCKED: ATOM     30  C   UNL d   1      10.018   7.810   6.466 -0.23 +0.02    +0.052 C 
DOCKED: BRANCH  30  31
DOCKED: ATOM     31  C   UNL d   1       9.634   8.026   7.926 -0.22 +0.05    +0.115 C 
DOCKED: BRANCH  31  32
DOCKED: ATOM     32  C   UNL d   1      10.433   7.117   8.819 -0.15 +0.14    +0.139 C 
DOCKED: ATOM     33  O   UNL d   1      10.978   6.121   8.367 -0.24 -1.12    -0.650 OA
DOCKED: BRANCH  32  34
DOCKED: ATOM     34  O   UNL d   1      10.553   7.394  10.129 +0.01 -0.65    -0.776 OA
DOCKED: ATOM     35  H   UNL d   1       9.762   7.389  10.685 +0.03 +0.13    +0.167 HD
DOCKED: ENDBRANCH  32  34
DOCKED: ENDBRANCH  31  32
DOCKED: ENDBRANCH  30  31
DOCKED: ENDBRANCH   6  30
DOCKED: BRANCH  22  36
DOCKED: ATOM     36  C   UNL d   1       7.326   4.330   9.716 +0.44 +0.06    +0.052 C 
DOCKED: BRANCH  36  37
DOCKED: ATOM     37  C   UNL d   1       7.521   5.804  10.040 -0.11 +0.10    +0.115 C 
DOCKED: BRANCH  37  38
DOCKED: ATOM     38  C   UNL d   1       8.079   5.982  11.424 -0.15 +0.12    +0.139 C 
DOCKED: ATOM     39  O   UNL d   1       7.412   6.505  12.304 -0.00 -0.28    -0.650 OA
DOCKED: BRANCH  38  40
DOCKED: ATOM     40  O   UNL d   1       9.327   5.566  11.703 -0.51 -1.19    -0.776 OA
DOCKED: ATOM     41  H   UNL d   1      10.078   6.075  11.369 +0.02 +0.25    +0.167 HD
DOCKED: ENDBRANCH  38  40
DOCKED: ENDBRANCH  37  38
DOCKED: ENDBRANCH  36  37
DOCKED: ENDBRANCH  22  36
DOCKED: BRANCH  12  42
DOCKED: ATOM     42  C   UNL d   1       2.663   7.484  -0.008 -0.62 +0.00    +0.004 C 
DOCKED: ATOM     43  C   UNL d   1       2.853   7.011  -1.246 -0.55 +0.00    +0.012 C 
DOCKED: ENDBRANCH  12  42
DOCKED: BRANCH  17  44
DOCKED: ATOM     44  C   UNL d   1       1.736   1.278   4.923 -0.59 -0.00    +0.004 C 
DOCKED: ATOM     45  C   UNL d   1       0.789   1.298   5.867 -0.71 -0.00    +0.012 C 
DOCKED: ENDBRANCH  17  44
DOCKED: TORSDOF 10
DOCKED: TER
DOCKED: ENDMDL
________________________________________________________________________________


	BEGINNING GENETIC ALGORITHM DOCKING 79 of 100
Run: 79 Seed: 2002561240 1412772261 [ Run 79 of 100 GA/GALS ]
Beginning LAMARCKIAN GENETIC ALGORITHM (LGA), with a maximum of 25000000 energy evaluations.

Final-Value: -12.465


	FINAL GENETIC ALGORITHM DOCKED STATE
	_______________________________________________


Detailed state:  trans 11.669 11.456 7.294 quatxyzw 0.547364 0.463596 -0.568329 0.403081 center -0.174 -0.001 -0.047 ntor 10 78.0378 131.3901 -100.3258 55.7326 -172.2522 134.0235 -35.2460 -35.3972 -176.0230 1.4948
State:	 11.669  11.456   7.294   0.598  0.507 -0.621 132.458     78.04  131.39 -100.33   55.73 -172.25  134.02  -35.25  -35.40 -176.02    1.49

DOCKED: MODEL       79
DOCKED: USER    Run = 79
DOCKED: USER    DPF = D:/Protein_go_brrr/autodock/final/mut_Y35F/heme_Fe/dock.dpf
DOCKED: USER  
DOCKED: USER    Estimated Free Energy of Binding    =   -8.09 kcal/mol  [=(1)+(2)+(3)-(4)]
DOCKED: USER    Estimated Inhibition Constant, Ki   =    1.18 uM (micromolar)  [Temperature = 298.15 K]
DOCKED: USER    
DOCKED: USER    (1) Final Intermolecular Energy     =  -11.07 kcal/mol
DOCKED: USER        vdW + Hbond + desolv Energy     =   -7.91 kcal/mol
DOCKED: USER        Electrostatic Energy            =   -3.16 kcal/mol
DOCKED: USER    (2) Final Total Internal Energy     =   -1.39 kcal/mol
DOCKED: USER    (3) Torsional Free Energy           =   +2.98 kcal/mol
DOCKED: USER    (4) Unbound System's Energy  [=(2)] =   -1.39 kcal/mol
DOCKED: USER    
DOCKED: USER    
DOCKED: USER    NEWDPF move heme_Fe_opt.pdbqt
DOCKED: USER    NEWDPF about -0.174000 -0.001000 -0.047000
DOCKED: USER    NEWDPF tran0 11.668746 11.456014 7.293953
DOCKED: USER    NEWDPF quaternion0 0.547364 0.463596 -0.568329 0.403081
DOCKED: USER    NEWDPF axisangle0 0.598104 0.506571 -0.621013 132.458118
DOCKED: USER    NEWDPF quat0 0.598104 0.506571 -0.621013 132.458118
DOCKED: USER    NEWDPF dihe0 78.04 131.39 -100.33 55.73 -172.25 134.02 -35.25 -35.40 -176.02 1.49 
DOCKED: USER  keepresnum = 1 
DOCKED: USER  
DOCKED: REMARK  10 active torsions:
DOCKED: REMARK  status: ('A' for Active; 'I' for Inactive)
DOCKED: REMARK    1  A    between atoms: C_6  and  C_10 
DOCKED: REMARK    2  A    between atoms: C_10  and  C_11 
DOCKED: REMARK    3  A    between atoms: C_11  and  C_12 
DOCKED: REMARK    4  A    between atoms: C_12  and  O_14 
DOCKED: REMARK    5  A    between atoms: C_17  and  C_20 
DOCKED: REMARK    6  A    between atoms: C_24  and  C_27 
DOCKED: REMARK    7  A    between atoms: C_31  and  C_34 
DOCKED: REMARK    8  A    between atoms: C_34  and  C_35 
DOCKED: REMARK    9  A    between atoms: C_35  and  C_36 
DOCKED: REMARK   10  A    between atoms: C_36  and  O_38 
DOCKED: USER                              x       y       z     vdW  Elec       q    Type
DOCKED: USER                           _______ _______ _______ _____ _____    ______ ____
DOCKED: ROOT
DOCKED: ATOM      1  C   UNL d   1      11.286   9.512   7.828 -0.14 +0.02    +0.064 C 
DOCKED: ATOM      2  C   UNL d   1      11.038  13.870  10.145 -0.22 +0.02    +0.064 A 
DOCKED: ATOM      3  C   UNL d   1      11.328  16.073   5.887 -0.18 -0.01    +0.064 C 
DOCKED: ATOM      4  C   UNL d   1      11.675  11.868   3.633 -0.25 -0.01    +0.064 C 
DOCKED: ATOM      5  C   UNL d   1      11.274  10.536   8.882 -0.15 +0.02    +0.066 A 
DOCKED: ATOM      6  C   UNL d   1      11.305  10.272  10.241 -0.13 -0.01    -0.021 A 
DOCKED: ATOM      7  C   UNL d   1      11.232  11.483  10.884 -0.15 -0.01    -0.025 A 
DOCKED: ATOM      8  C   UNL d   1      11.160  12.440   9.891 -0.19 +0.02    +0.066 A 
DOCKED: ATOM      9  C   UNL d   1      11.252  11.698  12.366 -0.16 +0.03    +0.051 C 
DOCKED: ATOM     10  C   UNL d   1      11.024  14.819   9.207 -0.24 +0.01    +0.066 A 
DOCKED: ATOM     11  C   UNL d   1      10.792  16.170   9.475 -0.22 -0.00    -0.021 A 
DOCKED: ATOM     12  C   UNL d   1      10.853  16.825   8.261 -0.18 -0.00    +0.000 A 
DOCKED: ATOM     13  C   UNL d   1      11.115  15.828   7.305 -0.19 -0.01    +0.070 A 
DOCKED: ATOM     14  C   UNL d   1      10.459  16.798  10.813 -0.21 +0.01    +0.052 C 
DOCKED: ATOM     15  C   UNL d   1      11.528  15.112   4.955 -0.13 -0.01    +0.066 A 
DOCKED: ATOM     16  C   UNL d   1      11.827  15.392   3.628 -0.11 +0.00    -0.021 A 
DOCKED: ATOM     17  C   UNL d   1      11.924  14.181   2.975 -0.21 -0.00    +0.000 A 
DOCKED: ATOM     18  C   UNL d   1      11.677  13.188   3.920 -0.18 -0.01    +0.070 A 
DOCKED: ATOM     19  C   UNL d   1      11.990  16.746   2.990 -0.08 -0.01    +0.052 C 
DOCKED: ATOM     20  C   UNL d   1      11.481  10.793   4.613 -0.19 -0.00    +0.066 A 
DOCKED: ATOM     21  C   UNL d   1      11.277   9.441   4.303 -0.27 -0.00    -0.025 A 
DOCKED: ATOM     22  C   UNL d   1      11.181   8.786   5.513 -0.19 -0.00    -0.021 A 
DOCKED: ATOM     23  C   UNL d   1      11.323   9.760   6.509 -0.13 +0.01    +0.066 A 
DOCKED: ATOM     24  C   UNL d   1      11.172   8.791   2.943 -0.45 -0.00    +0.051 C 
DOCKED: ATOM     25  N   UNL d   1      11.195  11.862   8.674 -0.10 -0.04    -0.248 N 
DOCKED: ATOM     26  N   UNL d   1      11.210  14.604   7.880 -0.13 -0.01    -0.248 N 
DOCKED: ATOM     27  N   UNL d   1      11.477  13.757   5.147 -0.03 +0.01    -0.248 N 
DOCKED: ATOM     28  N   UNL d   1      11.461  10.988   5.954 -0.04 -0.02    -0.248 N 
DOCKED: ATOM     29 FE   UNL d   1      11.336  12.796   6.915 -0.04 +0.00    +0.000 Fe
DOCKED: ENDROOT
DOCKED: BRANCH   6  30
DOCKED: ATOM     30  C   UNL d   1      11.420   8.939  10.898 -0.09 +0.02    +0.052 C 
DOCKED: BRANCH  30  31
DOCKED: ATOM     31  C   UNL d   1      10.045   8.304  11.075 -0.11 +0.06    +0.115 C 
DOCKED: BRANCH  31  32
DOCKED: ATOM     32  C   UNL d   1      10.128   6.813  10.901 -0.08 +0.15    +0.139 C 
DOCKED: ATOM     33  O   UNL d   1       9.112   6.132  10.866 -0.35 -0.97    -0.650 OA
DOCKED: BRANCH  32  34
DOCKED: ATOM     34  O   UNL d   1      11.324   6.213  10.782 +0.00 -1.07    -0.776 OA
DOCKED: ATOM     35  H   UNL d   1      11.628   5.942   9.904 +0.01 +0.29    +0.167 HD
DOCKED: ENDBRANCH  32  34
DOCKED: ENDBRANCH  31  32
DOCKED: ENDBRANCH  30  31
DOCKED: ENDBRANCH   6  30
DOCKED: BRANCH  22  36
DOCKED: ATOM     36  C   UNL d   1      10.919   7.315   5.699 -0.05 +0.02    +0.052 C 
DOCKED: BRANCH  36  37
DOCKED: ATOM     37  C   UNL d   1      12.231   6.587   5.950 -0.19 +0.05    +0.115 C 
DOCKED: BRANCH  37  38
DOCKED: ATOM     38  C   UNL d   1      12.047   5.468   6.936 -0.16 +0.13    +0.139 C 
DOCKED: ATOM     39  O   UNL d   1      12.523   4.363   6.723 -0.51 -0.60    -0.650 OA
DOCKED: BRANCH  38  40
DOCKED: ATOM     40  O   UNL d   1      11.347   5.677   8.065 -0.22 -1.44    -0.776 OA
DOCKED: ATOM     41  H   UNL d   1      11.549   6.453   8.606 +0.03 +0.20    +0.167 HD
DOCKED: ENDBRANCH  38  40
DOCKED: ENDBRANCH  37  38
DOCKED: ENDBRANCH  36  37
DOCKED: ENDBRANCH  22  36
DOCKED: BRANCH  12  42
DOCKED: ATOM     42  C   UNL d   1      10.652  18.294   8.070 -0.17 -0.00    +0.004 C 
DOCKED: ATOM     43  C   UNL d   1       9.564  18.909   8.550 -0.22 -0.00    +0.012 C 
DOCKED: ENDBRANCH  12  42
DOCKED: BRANCH  17  44
DOCKED: ATOM     44  C   UNL d   1      12.251  13.986   1.545 -0.41 -0.00    +0.004 C 
DOCKED: ATOM     45  C   UNL d   1      13.427  13.466   1.176 -0.50 -0.00    +0.012 C 
DOCKED: ENDBRANCH  17  44
DOCKED: TORSDOF 10
DOCKED: TER
DOCKED: ENDMDL
________________________________________________________________________________


	BEGINNING GENETIC ALGORITHM DOCKING 80 of 100
Run: 80 Seed: 834559500 1114169696 [ Run 80 of 100 GA/GALS ]
Beginning LAMARCKIAN GENETIC ALGORITHM (LGA), with a maximum of 25000000 energy evaluations.

Final-Value: -11.913


	FINAL GENETIC ALGORITHM DOCKED STATE
	_______________________________________________


Detailed state:  trans 11.951 12.728 8.368 quatxyzw 0.682292 0.053623 -0.722420 -0.098547 center -0.174 -0.001 -0.047 ntor 10 -90.0077 125.1254 62.1146 -138.8063 -178.8624 -122.9381 41.0527 59.9061 -20.4755 161.6653
State:	 11.951  12.728   8.368   0.686  0.054 -0.726 -168.689    -90.01  125.13   62.11 -138.81 -178.86 -122.94   41.05   59.91  -20.48  161.67

DOCKED: MODEL       80
DOCKED: USER    Run = 80
DOCKED: USER    DPF = D:/Protein_go_brrr/autodock/final/mut_Y35F/heme_Fe/dock.dpf
DOCKED: USER  
DOCKED: USER    Estimated Free Energy of Binding    =   -7.37 kcal/mol  [=(1)+(2)+(3)-(4)]
DOCKED: USER    Estimated Inhibition Constant, Ki   =    3.93 uM (micromolar)  [Temperature = 298.15 K]
DOCKED: USER    
DOCKED: USER    (1) Final Intermolecular Energy     =  -10.36 kcal/mol
DOCKED: USER        vdW + Hbond + desolv Energy     =   -7.52 kcal/mol
DOCKED: USER        Electrostatic Energy            =   -2.84 kcal/mol
DOCKED: USER    (2) Final Total Internal Energy     =   -1.56 kcal/mol
DOCKED: USER    (3) Torsional Free Energy           =   +2.98 kcal/mol
DOCKED: USER    (4) Unbound System's Energy  [=(2)] =   -1.56 kcal/mol
DOCKED: USER    
DOCKED: USER    
DOCKED: USER    NEWDPF move heme_Fe_opt.pdbqt
DOCKED: USER    NEWDPF about -0.174000 -0.001000 -0.047000
DOCKED: USER    NEWDPF tran0 11.950720 12.727605 8.368166
DOCKED: USER    NEWDPF quaternion0 0.682292 0.053623 -0.722420 -0.098547
DOCKED: USER    NEWDPF axisangle0 0.685630 0.053885 -0.725953 -168.688994
DOCKED: USER    NEWDPF quat0 0.685630 0.053885 -0.725953 -168.688994
DOCKED: USER    NEWDPF dihe0 -90.01 125.13 62.11 -138.81 -178.86 -122.94 41.05 59.91 -20.48 161.67 
DOCKED: USER  keepresnum = 1 
DOCKED: USER  
DOCKED: REMARK  10 active torsions:
DOCKED: REMARK  status: ('A' for Active; 'I' for Inactive)
DOCKED: REMARK    1  A    between atoms: C_6  and  C_10 
DOCKED: REMARK    2  A    between atoms: C_10  and  C_11 
DOCKED: REMARK    3  A    between atoms: C_11  and  C_12 
DOCKED: REMARK    4  A    between atoms: C_12  and  O_14 
DOCKED: REMARK    5  A    between atoms: C_17  and  C_20 
DOCKED: REMARK    6  A    between atoms: C_24  and  C_27 
DOCKED: REMARK    7  A    between atoms: C_31  and  C_34 
DOCKED: REMARK    8  A    between atoms: C_34  and  C_35 
DOCKED: REMARK    9  A    between atoms: C_35  and  C_36 
DOCKED: REMARK   10  A    between atoms: C_36  and  O_38 
DOCKED: USER                              x       y       z     vdW  Elec       q    Type
DOCKED: USER                           _______ _______ _______ _____ _____    ______ ____
DOCKED: ROOT
DOCKED: ATOM      1  C   UNL d   1      11.517  12.809  10.372 -0.18 +0.02    +0.064 C 
DOCKED: ATOM      2  C   UNL d   1      10.809  15.839   6.532 -0.19 -0.01    +0.064 A 
DOCKED: ATOM      3  C   UNL d   1      11.772  12.189   3.563 -0.24 -0.01    +0.064 C 
DOCKED: ATOM      4  C   UNL d   1      12.565   9.266   7.266 -0.07 +0.01    +0.064 C 
DOCKED: ATOM      5  C   UNL d   1      11.310  14.022   9.568 -0.20 +0.01    +0.066 A 
DOCKED: ATOM      6  C   UNL d   1      11.117  15.291  10.086 -0.21 -0.01    -0.021 A 
DOCKED: ATOM      7  C   UNL d   1      10.917  16.132   9.019 -0.23 -0.00    -0.025 A 
DOCKED: ATOM      8  C   UNL d   1      10.996  15.341   7.889 -0.22 -0.00    +0.066 A 
DOCKED: ATOM      9  C   UNL d   1      10.683  17.609   9.091 -0.20 -0.00    +0.051 C 
DOCKED: ATOM     10  C   UNL d   1      10.936  15.110   5.422 -0.17 -0.01    +0.066 A 
DOCKED: ATOM     11  C   UNL d   1      10.639  15.587   4.143 -0.22 +0.00    -0.021 A 
DOCKED: ATOM     12  C   UNL d   1      10.893  14.548   3.270 -0.26 -0.00    +0.000 A 
DOCKED: ATOM     13  C   UNL d   1      11.328  13.477   4.071 -0.18 -0.01    +0.070 A 
DOCKED: ATOM     14  C   UNL d   1      10.075  16.945   3.777 -0.23 -0.01    +0.052 C 
DOCKED: ATOM     15  C   UNL d   1      12.142  11.138   4.332 -0.19 -0.00    +0.066 A 
DOCKED: ATOM     16  C   UNL d   1      12.655   9.958   3.808 -0.29 -0.00    -0.021 A 
DOCKED: ATOM     17  C   UNL d   1      12.881   9.112   4.875 -0.19 +0.00    +0.000 A 
DOCKED: ATOM     18  C   UNL d   1      12.497   9.796   6.026 -0.09 +0.01    +0.070 A 
DOCKED: ATOM     19  C   UNL d   1      12.900   9.626   2.361 -0.48 -0.01    +0.052 C 
DOCKED: ATOM     20  C   UNL d   1      12.227   9.977   8.505 -0.06 +0.02    +0.066 A 
DOCKED: ATOM     21  C   UNL d   1      12.102   9.385   9.770 -0.06 -0.01    -0.025 A 
DOCKED: ATOM     22  C   UNL d   1      11.815  10.415  10.642 -0.09 -0.01    -0.021 A 
DOCKED: ATOM     23  C   UNL d   1      11.771  11.587   9.878 -0.12 +0.02    +0.066 A 
DOCKED: ATOM     24  C   UNL d   1      12.238   7.928  10.148 -0.05 +0.03    +0.051 C 
DOCKED: ATOM     25  N   UNL d   1      11.245  14.060   8.225 -0.11 -0.02    -0.248 N 
DOCKED: ATOM     26  N   UNL d   1      11.346  13.817   5.383 +0.03 +0.01    -0.248 N 
DOCKED: ATOM     27  N   UNL d   1      12.083  11.057   5.698 -0.07 -0.02    -0.248 N 
DOCKED: ATOM     28  N   UNL d   1      11.979  11.307   8.569 -0.06 -0.04    -0.248 N 
DOCKED: ATOM     29 FE   UNL d   1      11.663  12.560   6.976 -0.04 +0.00    +0.000 Fe
DOCKED: ENDROOT
DOCKED: BRANCH   6  30
DOCKED: ATOM     30  C   UNL d   1      11.143  15.693  11.521 -0.13 +0.02    +0.052 C 
DOCKED: BRANCH  30  31
DOCKED: ATOM     31  C   UNL d   1      12.554  15.583  12.088 -0.08 +0.04    +0.115 C 
DOCKED: BRANCH  31  32
DOCKED: ATOM     32  C   UNL d   1      12.520  15.004  13.475 -0.08 +0.09    +0.139 C 
DOCKED: ATOM     33  O   UNL d   1      13.553  14.852  14.113 +0.01 -0.24    -0.650 OA
DOCKED: BRANCH  32  34
DOCKED: ATOM     34  O   UNL d   1      11.349  14.646  14.029 -0.49 -1.39    -0.776 OA
DOCKED: ATOM     35  H   UNL d   1      11.025  13.744  13.899 +0.03 +0.39    +0.167 HD
DOCKED: ENDBRANCH  32  34
DOCKED: ENDBRANCH  31  32
DOCKED: ENDBRANCH  30  31
DOCKED: ENDBRANCH   6  30
DOCKED: BRANCH  22  36
DOCKED: ATOM     36  C   UNL d   1      11.551  10.270  12.118 -0.09 +0.02    +0.052 C 
DOCKED: BRANCH  36  37
DOCKED: ATOM     37  C   UNL d   1      10.053  10.335  12.379 -0.08 +0.06    +0.115 C 
DOCKED: BRANCH  37  38
DOCKED: ATOM     38  C   UNL d   1       9.717  11.468  13.308 -0.11 +0.15    +0.139 C 
DOCKED: ATOM     39  O   UNL d   1       9.121  11.262  14.355 -0.55 -0.88    -0.650 OA
DOCKED: BRANCH  38  40
DOCKED: ATOM     40  O   UNL d   1      10.071  12.725  12.988 +0.13 -1.25    -0.776 OA
DOCKED: ATOM     41  H   UNL d   1      10.998  12.917  12.792 +0.02 +0.18    +0.167 HD
DOCKED: ENDBRANCH  38  40
DOCKED: ENDBRANCH  37  38
DOCKED: ENDBRANCH  36  37
DOCKED: ENDBRANCH  22  36
DOCKED: BRANCH  12  42
DOCKED: ATOM     42  C   UNL d   1      10.701  14.609   1.788 -0.41 -0.00    +0.004 C 
DOCKED: ATOM     43  C   UNL d   1      11.752  14.611   0.957 -0.43 -0.01    +0.012 C 
DOCKED: ENDBRANCH  12  42
DOCKED: BRANCH  17  44
DOCKED: ATOM     44  C   UNL d   1      13.448   7.747   4.799 -0.26 +0.00    +0.004 C 
DOCKED: ATOM     45  C   UNL d   1      12.664   6.693   4.547 -0.33 +0.00    +0.012 C 
DOCKED: ENDBRANCH  17  44
DOCKED: TORSDOF 10
DOCKED: TER
DOCKED: ENDMDL
________________________________________________________________________________


	BEGINNING GENETIC ALGORITHM DOCKING 81 of 100
Run: 81 Seed: 1675302516 208987273 [ Run 81 of 100 GA/GALS ]
Beginning LAMARCKIAN GENETIC ALGORITHM (LGA), with a maximum of 25000000 energy evaluations.

Final-Value: -10.520


	FINAL GENETIC ALGORITHM DOCKED STATE
	_______________________________________________


Detailed state:  trans -10.831 -0.437 -8.118 quatxyzw 0.351309 -0.355076 0.832048 0.241245 center -0.174 -0.001 -0.047 ntor 10 100.4509 -68.9223 81.5350 -143.0866 -85.9907 -26.1908 55.0069 108.6956 -37.5419 -171.4427
State:	-10.831  -0.437  -8.118   0.362 -0.366  0.857 152.080    100.45  -68.92   81.54 -143.09  -85.99  -26.19   55.01  108.70  -37.54 -171.44

DOCKED: MODEL       81
DOCKED: USER    Run = 81
DOCKED: USER    DPF = D:/Protein_go_brrr/autodock/final/mut_Y35F/heme_Fe/dock.dpf
DOCKED: USER  
DOCKED: USER    Estimated Free Energy of Binding    =   -6.38 kcal/mol  [=(1)+(2)+(3)-(4)]
DOCKED: USER    Estimated Inhibition Constant, Ki   =   21.09 uM (micromolar)  [Temperature = 298.15 K]
DOCKED: USER    
DOCKED: USER    (1) Final Intermolecular Energy     =   -9.36 kcal/mol
DOCKED: USER        vdW + Hbond + desolv Energy     =   -8.55 kcal/mol
DOCKED: USER        Electrostatic Energy            =   -0.81 kcal/mol
DOCKED: USER    (2) Final Total Internal Energy     =   -1.16 kcal/mol
DOCKED: USER    (3) Torsional Free Energy           =   +2.98 kcal/mol
DOCKED: USER    (4) Unbound System's Energy  [=(2)] =   -1.16 kcal/mol
DOCKED: USER    
DOCKED: USER    
DOCKED: USER    NEWDPF move heme_Fe_opt.pdbqt
DOCKED: USER    NEWDPF about -0.174000 -0.001000 -0.047000
DOCKED: USER    NEWDPF tran0 -10.831228 -0.436503 -8.118316
DOCKED: USER    NEWDPF quaternion0 0.351309 -0.355076 0.832048 0.241245
DOCKED: USER    NEWDPF axisangle0 0.362001 -0.365883 0.857371 152.079877
DOCKED: USER    NEWDPF quat0 0.362001 -0.365883 0.857371 152.079877
DOCKED: USER    NEWDPF dihe0 100.45 -68.92 81.54 -143.09 -85.99 -26.19 55.01 108.70 -37.54 -171.44 
DOCKED: USER  keepresnum = 1 
DOCKED: USER  
DOCKED: REMARK  10 active torsions:
DOCKED: REMARK  status: ('A' for Active; 'I' for Inactive)
DOCKED: REMARK    1  A    between atoms: C_6  and  C_10 
DOCKED: REMARK    2  A    between atoms: C_10  and  C_11 
DOCKED: REMARK    3  A    between atoms: C_11  and  C_12 
DOCKED: REMARK    4  A    between atoms: C_12  and  O_14 
DOCKED: REMARK    5  A    between atoms: C_17  and  C_20 
DOCKED: REMARK    6  A    between atoms: C_24  and  C_27 
DOCKED: REMARK    7  A    between atoms: C_31  and  C_34 
DOCKED: REMARK    8  A    between atoms: C_34  and  C_35 
DOCKED: REMARK    9  A    between atoms: C_35  and  C_36 
DOCKED: REMARK   10  A    between atoms: C_36  and  O_38 
DOCKED: USER                              x       y       z     vdW  Elec       q    Type
DOCKED: USER                           _______ _______ _______ _____ _____    ______ ____
DOCKED: ROOT
DOCKED: ATOM      1  C   UNL d   1      -9.177   0.666  -8.626 -0.17 +0.00    +0.064 C 
DOCKED: ATOM      2  C   UNL d   1     -12.154   0.470  -4.685 -0.20 +0.00    +0.064 A 
DOCKED: ATOM      3  C   UNL d   1     -13.888  -3.711  -6.290 -0.20 +0.01    +0.064 C 
DOCKED: ATOM      4  C   UNL d   1     -11.091  -3.489 -10.164 -0.13 +0.00    +0.064 C 
DOCKED: ATOM      5  C   UNL d   1      -9.914   1.040  -7.411 -0.14 -0.00    +0.066 A 
DOCKED: ATOM      6  C   UNL d   1      -9.761   2.237  -6.730 -0.21 -0.00    -0.021 A 
DOCKED: ATOM      7  C   UNL d   1     -10.585   2.180  -5.634 -0.18 -0.00    -0.025 A 
DOCKED: ATOM      8  C   UNL d   1     -11.211   0.949  -5.688 -0.18 -0.00    +0.066 A 
DOCKED: ATOM      9  C   UNL d   1     -10.769   3.259  -4.611 -0.17 +0.00    +0.051 C 
DOCKED: ATOM     10  C   UNL d   1     -12.814  -0.688  -4.743 -0.12 +0.01    +0.066 A 
DOCKED: ATOM     11  C   UNL d   1     -13.624  -1.171  -3.712 -0.31 -0.00    -0.021 A 
DOCKED: ATOM     12  C   UNL d   1     -14.122  -2.384  -4.143 -0.35 +0.00    +0.000 A 
DOCKED: ATOM     13  C   UNL d   1     -13.579  -2.584  -5.425 -0.24 +0.01    +0.070 A 
DOCKED: ATOM     14  C   UNL d   1     -13.856  -0.540  -2.354 -0.31 +0.01    +0.052 C 
DOCKED: ATOM     15  C   UNL d   1     -13.329  -3.935  -7.502 -0.21 +0.01    +0.066 A 
DOCKED: ATOM     16  C   UNL d   1     -13.723  -4.969  -8.341 -0.21 -0.00    -0.021 A 
DOCKED: ATOM     17  C   UNL d   1     -12.916  -4.909  -9.458 -0.21 +0.00    +0.000 A 
DOCKED: ATOM     18  C   UNL d   1     -12.042  -3.840  -9.272 -0.18 +0.01    +0.070 A 
DOCKED: ATOM     19  C   UNL d   1     -14.800  -5.991  -8.094 -0.21 +0.00    +0.052 C 
DOCKED: ATOM     20  C   UNL d   1     -10.196  -2.334 -10.031 -0.15 +0.01    +0.066 A 
DOCKED: ATOM     21  C   UNL d   1      -9.081  -2.075 -10.841 -0.11 -0.00    -0.025 A 
DOCKED: ATOM     22  C   UNL d   1      -8.558  -0.880 -10.393 -0.13 -0.00    -0.021 A 
DOCKED: ATOM     23  C   UNL d   1      -9.366  -0.462  -9.329 -0.12 +0.01    +0.066 A 
DOCKED: ATOM     24  C   UNL d   1      -8.526  -2.905 -11.976 -0.05 +0.01    +0.051 C 
DOCKED: ATOM     25  N   UNL d   1     -10.807   0.262  -6.775 -0.08 -0.00    -0.248 N 
DOCKED: ATOM     26  N   UNL d   1     -12.775  -1.555  -5.787 -0.11 -0.03    -0.248 N 
DOCKED: ATOM     27  N   UNL d   1     -12.324  -3.214  -8.090 -0.14 -0.03    -0.248 N 
DOCKED: ATOM     28  N   UNL d   1     -10.336  -1.375  -9.084 -0.12 -0.03    -0.248 N 
DOCKED: ATOM     29 FE   UNL d   1     -11.555  -1.466  -7.437 -0.05 +0.00    +0.000 Fe
DOCKED: ENDROOT
DOCKED: BRANCH   6  30
DOCKED: ATOM     30  C   UNL d   1      -8.893   3.387  -7.111 -0.20 +0.02    +0.052 C 
DOCKED: BRANCH  30  31
DOCKED: ATOM     31  C   UNL d   1      -9.151   3.804  -8.555 -0.13 +0.04    +0.115 C 
DOCKED: BRANCH  31  32
DOCKED: ATOM     32  C   UNL d   1      -7.871   3.795  -9.343 -0.12 +0.06    +0.139 C 
DOCKED: ATOM     33  O   UNL d   1      -7.137   4.773  -9.351 -0.51 -0.61    -0.650 OA
DOCKED: BRANCH  32  34
DOCKED: ATOM     34  O   UNL d   1      -7.520   2.706 -10.049 +0.03 -0.15    -0.776 OA
DOCKED: ATOM     35  H   UNL d   1      -7.120   1.956  -9.587 +0.04 +0.02    +0.167 HD
DOCKED: ENDBRANCH  32  34
DOCKED: ENDBRANCH  31  32
DOCKED: ENDBRANCH  30  31
DOCKED: ENDBRANCH   6  30
DOCKED: BRANCH  22  36
DOCKED: ATOM     36  C   UNL d   1      -7.322  -0.205 -10.927 -0.11 +0.00    +0.052 C 
DOCKED: BRANCH  36  37
DOCKED: ATOM     37  C   UNL d   1      -6.083  -0.946 -10.445 -0.20 +0.01    +0.115 C 
DOCKED: BRANCH  37  38
DOCKED: ATOM     38  C   UNL d   1      -5.851  -0.709  -8.979 -0.28 +0.02    +0.139 C 
DOCKED: ATOM     39  O   UNL d   1      -6.258   0.308  -8.438 -0.43 -0.12    -0.650 OA
DOCKED: BRANCH  38  40
DOCKED: ATOM     40  O   UNL d   1      -5.184  -1.622  -8.250 -0.12 -0.05    -0.776 OA
DOCKED: ATOM     41  H   UNL d   1      -4.302  -1.404  -7.917 -0.46 -0.03    +0.167 HD
DOCKED: ENDBRANCH  38  40
DOCKED: ENDBRANCH  37  38
DOCKED: ENDBRANCH  36  37
DOCKED: ENDBRANCH  22  36
DOCKED: BRANCH  12  42
DOCKED: ATOM     42  C   UNL d   1     -15.034  -3.265  -3.350 -0.32 +0.00    +0.004 C 
DOCKED: ATOM     43  C   UNL d   1     -16.168  -3.740  -3.881 -0.25 +0.00    +0.012 C 
DOCKED: ENDBRANCH  12  42
DOCKED: BRANCH  17  44
DOCKED: ATOM     44  C   UNL d   1     -12.988  -5.804 -10.635 -0.21 +0.00    +0.004 C 
DOCKED: ATOM     45  C   UNL d   1     -12.289  -6.942 -10.674 -0.33 -0.00    +0.012 C 
DOCKED: ENDBRANCH  17  44
DOCKED: TORSDOF 10
DOCKED: TER
DOCKED: ENDMDL
________________________________________________________________________________


	BEGINNING GENETIC ALGORITHM DOCKING 82 of 100
Run: 82 Seed: 1210948537 223677294 [ Run 82 of 100 GA/GALS ]
Beginning LAMARCKIAN GENETIC ALGORITHM (LGA), with a maximum of 25000000 energy evaluations.

Final-Value: -10.837


	FINAL GENETIC ALGORITHM DOCKED STATE
	_______________________________________________


Detailed state:  trans 1.881 -16.910 -10.018 quatxyzw -0.416514 -0.472937 -0.164095 -0.758893 center -0.174 -0.001 -0.047 ntor 10 136.6735 -134.4548 176.8027 -149.8628 50.2490 60.0593 28.1647 -92.3775 28.5835 179.1217
State:	  1.881 -16.910 -10.018  -0.640 -0.726 -0.252 -81.267    136.67 -134.45  176.80 -149.86   50.25   60.06   28.16  -92.38   28.58  179.12

DOCKED: MODEL       82
DOCKED: USER    Run = 82
DOCKED: USER    DPF = D:/Protein_go_brrr/autodock/final/mut_Y35F/heme_Fe/dock.dpf
DOCKED: USER  
DOCKED: USER    Estimated Free Energy of Binding    =   -7.25 kcal/mol  [=(1)+(2)+(3)-(4)]
DOCKED: USER    Estimated Inhibition Constant, Ki   =    4.88 uM (micromolar)  [Temperature = 298.15 K]
DOCKED: USER    
DOCKED: USER    (1) Final Intermolecular Energy     =  -10.23 kcal/mol
DOCKED: USER        vdW + Hbond + desolv Energy     =   -9.25 kcal/mol
DOCKED: USER        Electrostatic Energy            =   -0.98 kcal/mol
DOCKED: USER    (2) Final Total Internal Energy     =   -0.61 kcal/mol
DOCKED: USER    (3) Torsional Free Energy           =   +2.98 kcal/mol
DOCKED: USER    (4) Unbound System's Energy  [=(2)] =   -0.61 kcal/mol
DOCKED: USER    
DOCKED: USER    
DOCKED: USER    NEWDPF move heme_Fe_opt.pdbqt
DOCKED: USER    NEWDPF about -0.174000 -0.001000 -0.047000
DOCKED: USER    NEWDPF tran0 1.880635 -16.909530 -10.017971
DOCKED: USER    NEWDPF quaternion0 -0.416514 -0.472937 -0.164095 -0.758893
DOCKED: USER    NEWDPF axisangle0 -0.639596 -0.726238 -0.251982 -81.266521
DOCKED: USER    NEWDPF quat0 -0.639596 -0.726238 -0.251982 -81.266521
DOCKED: USER    NEWDPF dihe0 136.67 -134.45 176.80 -149.86 50.25 60.06 28.16 -92.38 28.58 179.12 
DOCKED: USER  keepresnum = 1 
DOCKED: USER  
DOCKED: REMARK  10 active torsions:
DOCKED: REMARK  status: ('A' for Active; 'I' for Inactive)
DOCKED: REMARK    1  A    between atoms: C_6  and  C_10 
DOCKED: REMARK    2  A    between atoms: C_10  and  C_11 
DOCKED: REMARK    3  A    between atoms: C_11  and  C_12 
DOCKED: REMARK    4  A    between atoms: C_12  and  O_14 
DOCKED: REMARK    5  A    between atoms: C_17  and  C_20 
DOCKED: REMARK    6  A    between atoms: C_24  and  C_27 
DOCKED: REMARK    7  A    between atoms: C_31  and  C_34 
DOCKED: REMARK    8  A    between atoms: C_34  and  C_35 
DOCKED: REMARK    9  A    between atoms: C_35  and  C_36 
DOCKED: REMARK   10  A    between atoms: C_36  and  O_38 
DOCKED: USER                              x       y       z     vdW  Elec       q    Type
DOCKED: USER                           _______ _______ _______ _____ _____    ______ ____
DOCKED: ROOT
DOCKED: ATOM      1  C   UNL d   1       0.545 -16.813 -11.573 -0.25 -0.00    +0.064 C 
DOCKED: ATOM      2  C   UNL d   1       0.342 -18.429  -6.906 -0.19 -0.05    +0.064 A 
DOCKED: ATOM      3  C   UNL d   1       4.438 -16.093  -5.992 -0.24 -0.02    +0.064 C 
DOCKED: ATOM      4  C   UNL d   1       4.709 -14.605 -10.530 -0.26 -0.02    +0.064 C 
DOCKED: ATOM      5  C   UNL d   1       0.152 -17.553 -10.366 -0.27 -0.01    +0.066 A 
DOCKED: ATOM      6  C   UNL d   1      -0.920 -18.426 -10.288 -0.31 +0.00    -0.021 A 
DOCKED: ATOM      7  C   UNL d   1      -0.979 -18.871  -8.991 -0.32 +0.01    -0.025 A 
DOCKED: ATOM      8  C   UNL d   1       0.062 -18.253  -8.326 -0.30 -0.03    +0.066 A 
DOCKED: ATOM      9  C   UNL d   1      -1.969 -19.850  -8.437 -0.23 -0.03    +0.051 C 
DOCKED: ATOM     10  C   UNL d   1       1.373 -17.889  -6.254 -0.29 -0.04    +0.066 A 
DOCKED: ATOM     11  C   UNL d   1       1.549 -17.983  -4.871 -0.28 +0.01    -0.021 A 
DOCKED: ATOM     12  C   UNL d   1       2.715 -17.303  -4.580 -0.26 -0.00    +0.000 A 
DOCKED: ATOM     13  C   UNL d   1       3.189 -16.818  -5.811 -0.21 -0.03    +0.070 A 
DOCKED: ATOM     14  C   UNL d   1       0.617 -18.630  -3.867 -0.34 -0.03    +0.052 C 
DOCKED: ATOM     15  C   UNL d   1       4.873 -15.579  -7.166 -0.20 -0.03    +0.066 A 
DOCKED: ATOM     16  C   UNL d   1       6.117 -14.981  -7.318 -0.21 +0.01    -0.021 A 
DOCKED: ATOM     17  C   UNL d   1       6.196 -14.548  -8.625 -0.21 -0.00    +0.000 A 
DOCKED: ATOM     18  C   UNL d   1       4.994 -14.889  -9.241 -0.23 -0.03    +0.070 A 
DOCKED: ATOM     19  C   UNL d   1       7.182 -14.799  -6.270 -0.20 -0.04    +0.052 C 
DOCKED: ATOM     20  C   UNL d   1       3.481 -15.003 -11.229 -0.20 -0.02    +0.066 A 
DOCKED: ATOM     21  C   UNL d   1       3.085 -14.548 -12.494 -0.19 +0.01    -0.025 A 
DOCKED: ATOM     22  C   UNL d   1       1.903 -15.199 -12.777 -0.17 +0.00    -0.021 A 
DOCKED: ATOM     23  C   UNL d   1       1.622 -16.017 -11.676 -0.21 -0.01    +0.066 A 
DOCKED: ATOM     24  C   UNL d   1       3.774 -13.550 -13.396 -0.17 -0.01    +0.051 C 
DOCKED: ATOM     25  N   UNL d   1       0.754 -17.459  -9.168 -0.21 +0.09    -0.248 N 
DOCKED: ATOM     26  N   UNL d   1       2.367 -17.167  -6.831 -0.01 +0.14    -0.248 N 
DOCKED: ATOM     27  N   UNL d   1       4.198 -15.562  -8.357 +0.01 +0.12    -0.248 N 
DOCKED: ATOM     28  N   UNL d   1       2.565 -15.859 -10.716 -0.17 +0.09    -0.248 N 
DOCKED: ATOM     29 FE   UNL d   1       2.467 -16.512  -8.774 -0.06 -0.00    +0.000 Fe
DOCKED: ENDROOT
DOCKED: BRANCH   6  30
DOCKED: ATOM     30  C   UNL d   1      -1.833 -18.835 -11.394 -0.24 +0.02    +0.052 C 
DOCKED: BRANCH  30  31
DOCKED: ATOM     31  C   UNL d   1      -1.736 -20.335 -11.648 -0.17 +0.03    +0.115 C 
DOCKED: BRANCH  31  32
DOCKED: ATOM     32  C   UNL d   1      -2.057 -20.648 -13.083 -0.12 +0.08    +0.139 C 
DOCKED: ATOM     33  O   UNL d   1      -1.510 -20.038 -13.991 -0.04 -0.36    -0.650 OA
DOCKED: BRANCH  32  34
DOCKED: ATOM     34  O   UNL d   1      -2.954 -21.604 -13.381 -0.20 -0.87    -0.776 OA
DOCKED: ATOM     35  H   UNL d   1      -2.928 -22.439 -12.894 +0.01 +0.12    +0.167 HD
DOCKED: ENDBRANCH  32  34
DOCKED: ENDBRANCH  31  32
DOCKED: ENDBRANCH  30  31
DOCKED: ENDBRANCH   6  30
DOCKED: BRANCH  22  36
DOCKED: ATOM     36  C   UNL d   1       1.067 -15.008 -14.015 -0.12 -0.00    +0.052 C 
DOCKED: BRANCH  36  37
DOCKED: ATOM     37  C   UNL d   1       0.159 -13.800 -13.839 -0.19 -0.01    +0.115 C 
DOCKED: BRANCH  37  38
DOCKED: ATOM     38  C   UNL d   1       0.859 -12.535 -14.248 -0.21 -0.01    +0.139 C 
DOCKED: ATOM     39  O   UNL d   1       1.276 -12.391 -15.388 -0.01 +0.01    -0.650 OA
DOCKED: BRANCH  38  40
DOCKED: ATOM     40  O   UNL d   1       1.037 -11.547 -13.353 -0.19 +0.01    -0.776 OA
DOCKED: ATOM     41  H   UNL d   1       1.351 -11.768 -12.465 -0.49 -0.05    +0.167 HD
DOCKED: ENDBRANCH  38  40
DOCKED: ENDBRANCH  37  38
DOCKED: ENDBRANCH  36  37
DOCKED: ENDBRANCH  22  36
DOCKED: BRANCH  12  42
DOCKED: ATOM     42  C   UNL d   1       3.289 -17.136  -3.209 -0.31 -0.00    +0.004 C 
DOCKED: ATOM     43  C   UNL d   1       3.754 -15.950  -2.796 -0.35 -0.00    +0.012 C 
DOCKED: ENDBRANCH  12  42
DOCKED: BRANCH  17  44
DOCKED: ATOM     44  C   UNL d   1       7.355 -13.870  -9.250 -0.17 -0.00    +0.004 C 
DOCKED: ATOM     45  C   UNL d   1       7.404 -12.537  -9.335 -0.28 -0.01    +0.012 C 
DOCKED: ENDBRANCH  17  44
DOCKED: TORSDOF 10
DOCKED: TER
DOCKED: ENDMDL
________________________________________________________________________________


	BEGINNING GENETIC ALGORITHM DOCKING 83 of 100
Run: 83 Seed: 1279485577 1132587228 [ Run 83 of 100 GA/GALS ]
Beginning LAMARCKIAN GENETIC ALGORITHM (LGA), with a maximum of 25000000 energy evaluations.

Final-Value: -12.540


	FINAL GENETIC ALGORITHM DOCKED STATE
	_______________________________________________


Detailed state:  trans 11.817 11.429 7.173 quatxyzw -0.573758 -0.469844 0.557198 -0.373603 center -0.174 -0.001 -0.047 ntor 10 63.1750 102.2506 177.5507 54.6906 -137.3619 -145.1055 -66.1727 -55.1276 -164.1506 -4.1270
State:	 11.817  11.429   7.173  -0.619 -0.507  0.601 -136.124     63.17  102.25  177.55   54.69 -137.36 -145.11  -66.17  -55.13 -164.15   -4.13

DOCKED: MODEL       83
DOCKED: USER    Run = 83
DOCKED: USER    DPF = D:/Protein_go_brrr/autodock/final/mut_Y35F/heme_Fe/dock.dpf
DOCKED: USER  
DOCKED: USER    Estimated Free Energy of Binding    =   -7.02 kcal/mol  [=(1)+(2)+(3)-(4)]
DOCKED: USER    Estimated Inhibition Constant, Ki   =    7.10 uM (micromolar)  [Temperature = 298.15 K]
DOCKED: USER    
DOCKED: USER    (1) Final Intermolecular Energy     =  -10.01 kcal/mol
DOCKED: USER        vdW + Hbond + desolv Energy     =   -7.08 kcal/mol
DOCKED: USER        Electrostatic Energy            =   -2.92 kcal/mol
DOCKED: USER    (2) Final Total Internal Energy     =   -2.53 kcal/mol
DOCKED: USER    (3) Torsional Free Energy           =   +2.98 kcal/mol
DOCKED: USER    (4) Unbound System's Energy  [=(2)] =   -2.53 kcal/mol
DOCKED: USER    
DOCKED: USER    
DOCKED: USER    NEWDPF move heme_Fe_opt.pdbqt
DOCKED: USER    NEWDPF about -0.174000 -0.001000 -0.047000
DOCKED: USER    NEWDPF tran0 11.817129 11.429033 7.173376
DOCKED: USER    NEWDPF quaternion0 -0.573758 -0.469844 0.557198 -0.373603
DOCKED: USER    NEWDPF axisangle0 -0.618547 -0.506522 0.600695 -136.124010
DOCKED: USER    NEWDPF quat0 -0.618547 -0.506522 0.600695 -136.124010
DOCKED: USER    NEWDPF dihe0 63.17 102.25 177.55 54.69 -137.36 -145.11 -66.17 -55.13 -164.15 -4.13 
DOCKED: USER  keepresnum = 1 
DOCKED: USER  
DOCKED: REMARK  10 active torsions:
DOCKED: REMARK  status: ('A' for Active; 'I' for Inactive)
DOCKED: REMARK    1  A    between atoms: C_6  and  C_10 
DOCKED: REMARK    2  A    between atoms: C_10  and  C_11 
DOCKED: REMARK    3  A    between atoms: C_11  and  C_12 
DOCKED: REMARK    4  A    between atoms: C_12  and  O_14 
DOCKED: REMARK    5  A    between atoms: C_17  and  C_20 
DOCKED: REMARK    6  A    between atoms: C_24  and  C_27 
DOCKED: REMARK    7  A    between atoms: C_31  and  C_34 
DOCKED: REMARK    8  A    between atoms: C_34  and  C_35 
DOCKED: REMARK    9  A    between atoms: C_35  and  C_36 
DOCKED: REMARK   10  A    between atoms: C_36  and  O_38 
DOCKED: USER                              x       y       z     vdW  Elec       q    Type
DOCKED: USER                           _______ _______ _______ _____ _____    ______ ____
DOCKED: ROOT
DOCKED: ATOM      1  C   UNL d   1      11.407   9.502   7.748 -0.13 +0.02    +0.064 C 
DOCKED: ATOM      2  C   UNL d   1      10.962  13.939   9.880 -0.23 +0.02    +0.064 A 
DOCKED: ATOM      3  C   UNL d   1      11.556  15.990   5.578 -0.15 -0.01    +0.064 C 
DOCKED: ATOM      4  C   UNL d   1      12.094  11.710   3.510 -0.23 -0.01    +0.064 C 
DOCKED: ATOM      5  C   UNL d   1      11.310  10.563   8.760 -0.14 +0.01    +0.066 A 
DOCKED: ATOM      6  C   UNL d   1      11.241  10.348  10.126 -0.14 -0.01    -0.021 A 
DOCKED: ATOM      7  C   UNL d   1      11.114  11.581  10.718 -0.17 -0.01    -0.025 A 
DOCKED: ATOM      8  C   UNL d   1      11.110  12.502   9.688 -0.20 +0.02    +0.066 A 
DOCKED: ATOM      9  C   UNL d   1      11.022  11.849  12.189 -0.18 +0.03    +0.051 C 
DOCKED: ATOM     10  C   UNL d   1      11.013  14.853   8.910 -0.24 +0.01    +0.066 A 
DOCKED: ATOM     11  C   UNL d   1      10.754  16.211   9.110 -0.23 -0.00    -0.021 A 
DOCKED: ATOM     12  C   UNL d   1      10.902  16.822   7.881 -0.19 -0.00    +0.000 A 
DOCKED: ATOM     13  C   UNL d   1      11.239  15.794   6.984 -0.18 -0.01    +0.070 A 
DOCKED: ATOM     14  C   UNL d   1      10.318  16.883  10.396 -0.19 +0.01    +0.052 C 
DOCKED: ATOM     15  C   UNL d   1      11.831  14.997   4.699 -0.11 -0.01    +0.066 A 
DOCKED: ATOM     16  C   UNL d   1      12.226  15.233   3.389 -0.10 +0.00    -0.021 A 
DOCKED: ATOM     17  C   UNL d   1      12.379  13.999   2.789 -0.22 -0.00    +0.000 A 
DOCKED: ATOM     18  C   UNL d   1      12.068  13.039   3.749 -0.17 -0.01    +0.070 A 
DOCKED: ATOM     19  C   UNL d   1      12.429  16.564   2.716 -0.09 -0.02    +0.052 C 
DOCKED: ATOM     20  C   UNL d   1      11.833  10.669   4.512 -0.19 -0.00    +0.066 A 
DOCKED: ATOM     21  C   UNL d   1      11.661   9.305   4.236 -0.26 -0.00    -0.025 A 
DOCKED: ATOM     22  C   UNL d   1      11.479   8.693   5.459 -0.18 -0.00    -0.021 A 
DOCKED: ATOM     23  C   UNL d   1      11.541   9.703   6.427 -0.12 +0.01    +0.066 A 
DOCKED: ATOM     24  C   UNL d   1      11.661   8.606   2.897 -0.46 -0.00    +0.051 C 
DOCKED: ATOM     25  N   UNL d   1      11.239  11.880   8.499 -0.08 -0.04    -0.248 N 
DOCKED: ATOM     26  N   UNL d   1      11.299  14.592   7.609 -0.12 -0.00    -0.248 N 
DOCKED: ATOM     27  N   UNL d   1      11.774  13.650   4.936 -0.07 +0.02    -0.248 N 
DOCKED: ATOM     28  N   UNL d   1      11.712  10.912   5.839 -0.07 -0.02    -0.248 N 
DOCKED: ATOM     29 FE   UNL d   1      11.506  12.751   6.722 -0.04 +0.00    +0.000 Fe
DOCKED: ENDROOT
DOCKED: BRANCH   6  30
DOCKED: ATOM     30  C   UNL d   1      11.314   9.041  10.838 -0.10 +0.02    +0.052 C 
DOCKED: BRANCH  30  31
DOCKED: ATOM     31  C   UNL d   1      10.008   8.268  10.684 -0.10 +0.06    +0.115 C 
DOCKED: BRANCH  31  32
DOCKED: ATOM     32  C   UNL d   1      10.229   7.020   9.875 -0.12 +0.15    +0.139 C 
DOCKED: ATOM     33  O   UNL d   1       9.426   6.684   9.015 -0.08 -0.81    -0.650 OA
DOCKED: BRANCH  32  34
DOCKED: ATOM     34  O   UNL d   1      11.315   6.259  10.092 +0.12 -1.21    -0.776 OA
DOCKED: ATOM     35  H   UNL d   1      11.962   6.152   9.381 +0.01 +0.23    +0.167 HD
DOCKED: ENDBRANCH  32  34
DOCKED: ENDBRANCH  31  32
DOCKED: ENDBRANCH  30  31
DOCKED: ENDBRANCH   6  30
DOCKED: BRANCH  22  36
DOCKED: ATOM     36  C   UNL d   1      11.211   7.227   5.678 -0.09 +0.02    +0.052 C 
DOCKED: BRANCH  36  37
DOCKED: ATOM     37  C   UNL d   1      12.524   6.496   5.916 -0.19 +0.05    +0.115 C 
DOCKED: BRANCH  37  38
DOCKED: ATOM     38  C   UNL d   1      12.497   5.749   7.219 -0.17 +0.11    +0.139 C 
DOCKED: ATOM     39  O   UNL d   1      13.507   5.642   7.900 +0.02 -0.43    -0.650 OA
DOCKED: BRANCH  38  40
DOCKED: ATOM     40  O   UNL d   1      11.353   5.187   7.647 -0.28 -1.48    -0.776 OA
DOCKED: ATOM     41  H   UNL d   1      10.675   5.748   8.049 +0.04 +0.37    +0.167 HD
DOCKED: ENDBRANCH  38  40
DOCKED: ENDBRANCH  37  38
DOCKED: ENDBRANCH  36  37
DOCKED: ENDBRANCH  22  36
DOCKED: BRANCH  12  42
DOCKED: ATOM     42  C   UNL d   1      10.708  18.282   7.622 -0.16 -0.00    +0.004 C 
DOCKED: ATOM     43  C   UNL d   1      10.006  18.707   6.563 -0.17 -0.00    +0.012 C 
DOCKED: ENDBRANCH  12  42
DOCKED: BRANCH  17  44
DOCKED: ATOM     44  C   UNL d   1      12.813  13.756   1.395 -0.47 -0.00    +0.004 C 
DOCKED: ATOM     45  C   UNL d   1      14.024  13.253   1.133 -0.46 -0.00    +0.012 C 
DOCKED: ENDBRANCH  17  44
DOCKED: TORSDOF 10
DOCKED: TER
DOCKED: ENDMDL
________________________________________________________________________________


	BEGINNING GENETIC ALGORITHM DOCKING 84 of 100
Run: 84 Seed: 819317587 470286043 [ Run 84 of 100 GA/GALS ]
Beginning LAMARCKIAN GENETIC ALGORITHM (LGA), with a maximum of 25000000 energy evaluations.

Final-Value: -11.197


	FINAL GENETIC ALGORITHM DOCKED STATE
	_______________________________________________


Detailed state:  trans 11.608 7.437 9.527 quatxyzw -0.260246 0.585253 0.060541 -0.765563 center -0.174 -0.001 -0.047 ntor 10 163.0774 112.4069 24.1713 13.1501 94.9041 50.1646 178.2541 -4.9165 4.8488 -166.7008
State:	 11.608   7.437   9.527  -0.405  0.910  0.094 -80.086    163.08  112.41   24.17   13.15   94.90   50.16  178.25   -4.92    4.85 -166.70

DOCKED: MODEL       84
DOCKED: USER    Run = 84
DOCKED: USER    DPF = D:/Protein_go_brrr/autodock/final/mut_Y35F/heme_Fe/dock.dpf
DOCKED: USER  
DOCKED: USER    Estimated Free Energy of Binding    =   -7.69 kcal/mol  [=(1)+(2)+(3)-(4)]
DOCKED: USER    Estimated Inhibition Constant, Ki   =    2.29 uM (micromolar)  [Temperature = 298.15 K]
DOCKED: USER    
DOCKED: USER    (1) Final Intermolecular Energy     =  -10.68 kcal/mol
DOCKED: USER        vdW + Hbond + desolv Energy     =   -7.10 kcal/mol
DOCKED: USER        Electrostatic Energy            =   -3.57 kcal/mol
DOCKED: USER    (2) Final Total Internal Energy     =   -0.52 kcal/mol
DOCKED: USER    (3) Torsional Free Energy           =   +2.98 kcal/mol
DOCKED: USER    (4) Unbound System's Energy  [=(2)] =   -0.52 kcal/mol
DOCKED: USER    
DOCKED: USER    
DOCKED: USER    NEWDPF move heme_Fe_opt.pdbqt
DOCKED: USER    NEWDPF about -0.174000 -0.001000 -0.047000
DOCKED: USER    NEWDPF tran0 11.608253 7.437001 9.526782
DOCKED: USER    NEWDPF quaternion0 -0.260246 0.585253 0.060541 -0.765563
DOCKED: USER    NEWDPF axisangle0 -0.404510 0.909679 0.094101 -80.085856
DOCKED: USER    NEWDPF quat0 -0.404510 0.909679 0.094101 -80.085856
DOCKED: USER    NEWDPF dihe0 163.08 112.41 24.17 13.15 94.90 50.16 178.25 -4.92 4.85 -166.70 
DOCKED: USER  keepresnum = 1 
DOCKED: USER  
DOCKED: REMARK  10 active torsions:
DOCKED: REMARK  status: ('A' for Active; 'I' for Inactive)
DOCKED: REMARK    1  A    between atoms: C_6  and  C_10 
DOCKED: REMARK    2  A    between atoms: C_10  and  C_11 
DOCKED: REMARK    3  A    between atoms: C_11  and  C_12 
DOCKED: REMARK    4  A    between atoms: C_12  and  O_14 
DOCKED: REMARK    5  A    between atoms: C_17  and  C_20 
DOCKED: REMARK    6  A    between atoms: C_24  and  C_27 
DOCKED: REMARK    7  A    between atoms: C_31  and  C_34 
DOCKED: REMARK    8  A    between atoms: C_34  and  C_35 
DOCKED: REMARK    9  A    between atoms: C_35  and  C_36 
DOCKED: REMARK   10  A    between atoms: C_36  and  O_38 
DOCKED: USER                              x       y       z     vdW  Elec       q    Type
DOCKED: USER                           _______ _______ _______ _____ _____    ______ ____
DOCKED: ROOT
DOCKED: ATOM      1  C   UNL d   1      11.482   8.056  11.479 -0.07 +0.03    +0.064 C 
DOCKED: ATOM      2  C   UNL d   1      13.759   4.341   9.146 -0.08 +0.06    +0.064 A 
DOCKED: ATOM      3  C   UNL d   1      12.998   6.588   4.970 -0.28 +0.02    +0.064 C 
DOCKED: ATOM      4  C   UNL d   1      10.698  10.143   7.198 -0.10 +0.01    +0.064 C 
DOCKED: ATOM      5  C   UNL d   1      12.120   6.762  11.202 -0.06 +0.05    +0.066 A 
DOCKED: ATOM      6  C   UNL d   1      12.392   5.794  12.154 -0.05 -0.01    -0.021 A 
DOCKED: ATOM      7  C   UNL d   1      13.028   4.764  11.506 -0.05 -0.02    -0.025 A 
DOCKED: ATOM      8  C   UNL d   1      13.119   5.143  10.181 -0.04 +0.07    +0.066 A 
DOCKED: ATOM      9  C   UNL d   1      13.499   3.485  12.129 -0.05 +0.03    +0.051 C 
DOCKED: ATOM     10  C   UNL d   1      13.810   4.657   7.851 -0.10 +0.04    +0.066 A 
DOCKED: ATOM     11  C   UNL d   1      14.529   3.925   6.903 -0.13 -0.01    -0.021 A 
DOCKED: ATOM     12  C   UNL d   1      14.339   4.563   5.693 -0.23 +0.00    +0.000 A 
DOCKED: ATOM     13  C   UNL d   1      13.513   5.666   5.970 -0.18 +0.03    +0.070 A 
DOCKED: ATOM     14  C   UNL d   1      15.410   2.717   7.148 -0.10 +0.02    +0.052 C 
DOCKED: ATOM     15  C   UNL d   1      12.245   7.681   5.238 -0.19 +0.01    +0.066 A 
DOCKED: ATOM     16  C   UNL d   1      11.689   8.481   4.248 -0.30 -0.00    -0.021 A 
DOCKED: ATOM     17  C   UNL d   1      11.028   9.509   4.888 -0.24 +0.00    +0.000 A 
DOCKED: ATOM     18  C   UNL d   1      11.200   9.314   6.257 -0.14 +0.01    +0.070 A 
DOCKED: ATOM     19  C   UNL d   1      11.794   8.303   2.757 -0.43 -0.00    +0.052 C 
DOCKED: ATOM     20  C   UNL d   1      10.807   9.936   8.647 -0.17 +0.02    +0.066 A 
DOCKED: ATOM     21  C   UNL d   1      10.470  10.880   9.627 -0.21 -0.01    -0.025 A 
DOCKED: ATOM     22  C   UNL d   1      10.689  10.260  10.840 -0.14 -0.01    -0.021 A 
DOCKED: ATOM     23  C   UNL d   1      11.155   8.971  10.553 -0.10 +0.03    +0.066 A 
DOCKED: ATOM     24  C   UNL d   1       9.972  12.295   9.443 -0.22 +0.01    +0.051 C 
DOCKED: ATOM     25  N   UNL d   1      12.557   6.355   9.997 -0.05 -0.23    -0.248 N 
DOCKED: ATOM     26  N   UNL d   1      13.197   5.729   7.287 -0.08 -0.16    -0.248 N 
DOCKED: ATOM     27  N   UNL d   1      11.911   8.166   6.474 -0.06 -0.07    -0.248 N 
DOCKED: ATOM     28  N   UNL d   1      11.267   8.795   9.214 -0.06 -0.10    -0.248 N 
DOCKED: ATOM     29 FE   UNL d   1      12.231   7.263   8.250 -0.02 +0.00    +0.000 Fe
DOCKED: ENDROOT
DOCKED: BRANCH   6  30
DOCKED: ATOM     30  C   UNL d   1      12.048   5.833  13.604 -0.02 +0.02    +0.052 C 
DOCKED: BRANCH  30  31
DOCKED: ATOM     31  C   UNL d   1      10.719   5.132  13.863 -0.04 +0.05    +0.115 C 
DOCKED: BRANCH  31  32
DOCKED: ATOM     32  C   UNL d   1      10.123   4.641  12.573 -0.01 +0.16    +0.139 C 
DOCKED: ATOM     33  O   UNL d   1      10.311   3.492  12.197 -0.00 -0.95    -0.650 OA
DOCKED: BRANCH  32  34
DOCKED: ATOM     34  O   UNL d   1       9.376   5.464  11.818 -0.48 -1.18    -0.776 OA
DOCKED: ATOM     35  H   UNL d   1       9.022   6.272  12.214 +0.03 +0.13    +0.167 HD
DOCKED: ENDBRANCH  32  34
DOCKED: ENDBRANCH  31  32
DOCKED: ENDBRANCH  30  31
DOCKED: ENDBRANCH   6  30
DOCKED: BRANCH  22  36
DOCKED: ATOM     36  C   UNL d   1      10.508  10.890  12.196 -0.16 +0.03    +0.052 C 
DOCKED: BRANCH  36  37
DOCKED: ATOM     37  C   UNL d   1      11.581  11.945  12.419 -0.13 +0.06    +0.115 C 
DOCKED: BRANCH  37  38
DOCKED: ATOM     38  C   UNL d   1      11.346  12.689  13.703 -0.06 +0.16    +0.139 C 
DOCKED: ATOM     39  O   UNL d   1      11.146  12.087  14.748 -0.07 -0.73    -0.650 OA
DOCKED: BRANCH  38  40
DOCKED: ATOM     40  O   UNL d   1      11.349  14.034  13.710 -0.50 -1.29    -0.776 OA
DOCKED: ATOM     41  H   UNL d   1      12.179  14.503  13.542 +0.01 +0.14    +0.167 HD
DOCKED: ENDBRANCH  38  40
DOCKED: ENDBRANCH  37  38
DOCKED: ENDBRANCH  36  37
DOCKED: ENDBRANCH  22  36
DOCKED: BRANCH  12  42
DOCKED: ATOM     42  C   UNL d   1      14.938   4.127   4.393 -0.44 +0.00    +0.004 C 
DOCKED: ATOM     43  C   UNL d   1      14.498   3.029   3.765 -0.56 +0.00    +0.012 C 
DOCKED: ENDBRANCH  12  42
DOCKED: BRANCH  17  44
DOCKED: ATOM     44  C   UNL d   1      10.264  10.595   4.234 -0.31 -0.00    +0.004 C 
DOCKED: ATOM     45  C   UNL d   1       9.133  10.333   3.571 -0.46 -0.00    +0.012 C 
DOCKED: ENDBRANCH  17  44
DOCKED: TORSDOF 10
DOCKED: TER
DOCKED: ENDMDL
________________________________________________________________________________


	BEGINNING GENETIC ALGORITHM DOCKING 85 of 100
Run: 85 Seed: 1661805371 1884716473 [ Run 85 of 100 GA/GALS ]
Beginning LAMARCKIAN GENETIC ALGORITHM (LGA), with a maximum of 25000000 energy evaluations.

Final-Value: -14.994


	FINAL GENETIC ALGORITHM DOCKED STATE
	_______________________________________________


Detailed state:  trans 6.742 5.709 5.326 quatxyzw -0.331660 0.349603 0.869029 -0.112108 center -0.174 -0.001 -0.047 ntor 10 -134.0495 -26.8291 34.9501 -135.1494 -22.5285 -171.5024 84.8746 -2.6207 -18.2860 -180.0000
State:	  6.742   5.709   5.326  -0.334  0.352  0.875 -167.126   -134.05  -26.83   34.95 -135.15  -22.53 -171.50   84.87   -2.62  -18.29 -180.00

DOCKED: MODEL       85
DOCKED: USER    Run = 85
DOCKED: USER    DPF = D:/Protein_go_brrr/autodock/final/mut_Y35F/heme_Fe/dock.dpf
DOCKED: USER  
DOCKED: USER    Estimated Free Energy of Binding    =  -11.58 kcal/mol  [=(1)+(2)+(3)-(4)]
DOCKED: USER    Estimated Inhibition Constant, Ki   =    3.27 nM (nanomolar)  [Temperature = 298.15 K]
DOCKED: USER    
DOCKED: USER    (1) Final Intermolecular Energy     =  -14.56 kcal/mol
DOCKED: USER        vdW + Hbond + desolv Energy     =  -11.93 kcal/mol
DOCKED: USER        Electrostatic Energy            =   -2.63 kcal/mol
DOCKED: USER    (2) Final Total Internal Energy     =   -0.43 kcal/mol
DOCKED: USER    (3) Torsional Free Energy           =   +2.98 kcal/mol
DOCKED: USER    (4) Unbound System's Energy  [=(2)] =   -0.43 kcal/mol
DOCKED: USER    
DOCKED: USER    
DOCKED: USER    NEWDPF move heme_Fe_opt.pdbqt
DOCKED: USER    NEWDPF about -0.174000 -0.001000 -0.047000
DOCKED: USER    NEWDPF tran0 6.741803 5.708803 5.325683
DOCKED: USER    NEWDPF quaternion0 -0.331660 0.349603 0.869029 -0.112108
DOCKED: USER    NEWDPF axisangle0 -0.333764 0.351821 0.874542 -167.126295
DOCKED: USER    NEWDPF quat0 -0.333764 0.351821 0.874542 -167.126295
DOCKED: USER    NEWDPF dihe0 -134.05 -26.83 34.95 -135.15 -22.53 -171.50 84.87 -2.62 -18.29 -180.00 
DOCKED: USER  keepresnum = 1 
DOCKED: USER  
DOCKED: REMARK  10 active torsions:
DOCKED: REMARK  status: ('A' for Active; 'I' for Inactive)
DOCKED: REMARK    1  A    between atoms: C_6  and  C_10 
DOCKED: REMARK    2  A    between atoms: C_10  and  C_11 
DOCKED: REMARK    3  A    between atoms: C_11  and  C_12 
DOCKED: REMARK    4  A    between atoms: C_12  and  O_14 
DOCKED: REMARK    5  A    between atoms: C_17  and  C_20 
DOCKED: REMARK    6  A    between atoms: C_24  and  C_27 
DOCKED: REMARK    7  A    between atoms: C_31  and  C_34 
DOCKED: REMARK    8  A    between atoms: C_34  and  C_35 
DOCKED: REMARK    9  A    between atoms: C_35  and  C_36 
DOCKED: REMARK   10  A    between atoms: C_36  and  O_38 
DOCKED: USER                              x       y       z     vdW  Elec       q    Type
DOCKED: USER                           _______ _______ _______ _____ _____    ______ ____
DOCKED: ROOT
DOCKED: ATOM      1  C   UNL d   1       7.997   6.188   6.876 -0.29 +0.03    +0.064 C 
DOCKED: ATOM      2  C   UNL d   1       6.756   8.349   2.608 -0.43 +0.01    +0.064 A 
DOCKED: ATOM      3  C   UNL d   1       3.009   5.364   2.266 -0.42 +0.00    +0.064 C 
DOCKED: ATOM      4  C   UNL d   1       4.253   3.189   6.341 -0.48 +0.01    +0.064 C 
DOCKED: ATOM      5  C   UNL d   1       8.043   7.018   5.665 -0.02 +0.02    +0.066 A 
DOCKED: ATOM      6  C   UNL d   1       9.050   7.920   5.362 -0.26 -0.00    -0.021 A 
DOCKED: ATOM      7  C   UNL d   1       8.703   8.523   4.178 -0.37 -0.00    -0.025 A 
DOCKED: ATOM      8  C   UNL d   1       7.496   7.964   3.803 -0.38 +0.01    +0.066 A 
DOCKED: ATOM      9  C   UNL d   1       9.500   9.560   3.448 -0.45 -0.00    +0.051 C 
DOCKED: ATOM     10  C   UNL d   1       5.620   7.786   2.193 -0.41 +0.01    +0.066 A 
DOCKED: ATOM     11  C   UNL d   1       4.875   8.253   1.108 -0.47 -0.00    -0.021 A 
DOCKED: ATOM     12  C   UNL d   1       3.780   7.419   0.998 -0.49 +0.00    +0.000 A 
DOCKED: ATOM     13  C   UNL d   1       3.911   6.482   2.038 -0.38 +0.00    +0.070 A 
DOCKED: ATOM     14  C   UNL d   1       5.156   9.476   0.258 -0.49 +0.01    +0.052 C 
DOCKED: ATOM     15  C   UNL d   1       3.102   4.490   3.296 -0.37 +0.00    +0.066 A 
DOCKED: ATOM     16  C   UNL d   1       2.281   3.377   3.422 -0.32 -0.00    -0.021 A 
DOCKED: ATOM     17  C   UNL d   1       2.636   2.750   4.599 -0.31 +0.00    +0.000 A 
DOCKED: ATOM     18  C   UNL d   1       3.664   3.500   5.166 -0.36 +0.01    +0.070 A 
DOCKED: ATOM     19  C   UNL d   1       1.188   2.931   2.488 -0.33 +0.00    +0.052 C 
DOCKED: ATOM     20  C   UNL d   1       5.378   3.919   6.938 -0.38 +0.02    +0.066 A 
DOCKED: ATOM     21  C   UNL d   1       5.865   3.733   8.240 -0.18 -0.01    -0.025 A 
DOCKED: ATOM     22  C   UNL d   1       6.940   4.589   8.366 -0.27 -0.01    -0.021 A 
DOCKED: ATOM     23  C   UNL d   1       7.062   5.264   7.146 -0.35 +0.03    +0.066 A 
DOCKED: ATOM     24  C   UNL d   1       5.350   2.806   9.316 +0.25 +0.01    +0.051 C 
DOCKED: ATOM     25  N   UNL d   1       7.103   7.042   4.705 -0.15 -0.08    -0.248 N 
DOCKED: ATOM     26  N   UNL d   1       5.027   6.711   2.772 -0.23 -0.05    -0.248 N 
DOCKED: ATOM     27  N   UNL d   1       3.981   4.545   4.344 -0.24 -0.02    -0.248 N 
DOCKED: ATOM     28  N   UNL d   1       6.079   4.884   6.294 -0.24 -0.07    -0.248 N 
DOCKED: ATOM     29 FE   UNL d   1       5.552   5.796   4.534 -0.09 +0.00    +0.000 Fe
DOCKED: ENDROOT
DOCKED: BRANCH   6  30
DOCKED: ATOM     30  C   UNL d   1      10.291   8.183   6.145 -0.23 +0.01    +0.052 C 
DOCKED: BRANCH  30  31
DOCKED: ATOM     31  C   UNL d   1      11.254   7.006   6.042 -0.10 +0.05    +0.115 C 
DOCKED: BRANCH  31  32
DOCKED: ATOM     32  C   UNL d   1      11.077   6.078   7.212 -0.16 +0.15    +0.139 C 
DOCKED: ATOM     33  O   UNL d   1      10.583   6.478   8.256 -0.32 -0.89    -0.650 OA
DOCKED: BRANCH  32  34
DOCKED: ATOM     34  O   UNL d   1      11.462   4.794   7.118 -0.39 -1.15    -0.776 OA
DOCKED: ATOM     35  H   UNL d   1      12.328   4.590   6.736 +0.04 +0.16    +0.167 HD
DOCKED: ENDBRANCH  32  34
DOCKED: ENDBRANCH  31  32
DOCKED: ENDBRANCH  30  31
DOCKED: ENDBRANCH   6  30
DOCKED: BRANCH  22  36
DOCKED: ATOM     36  C   UNL d   1       7.770   4.780   9.608 +0.88 +0.07    +0.052 C 
DOCKED: BRANCH  36  37
DOCKED: ATOM     37  C   UNL d   1       7.077   5.761  10.543 +0.35 +0.08    +0.115 C 
DOCKED: BRANCH  37  38
DOCKED: ATOM     38  C   UNL d   1       7.840   5.910  11.829 -0.18 +0.10    +0.139 C 
DOCKED: ATOM     39  O   UNL d   1       7.367   6.534  12.767 -0.01 -0.24    -0.650 OA
DOCKED: BRANCH  38  40
DOCKED: ATOM     40  O   UNL d   1       9.059   5.356  11.954 -0.55 -1.03    -0.776 OA
DOCKED: ATOM     41  H   UNL d   1       9.694   5.750  12.568 +0.02 +0.15    +0.167 HD
DOCKED: ENDBRANCH  38  40
DOCKED: ENDBRANCH  37  38
DOCKED: ENDBRANCH  36  37
DOCKED: ENDBRANCH  22  36
DOCKED: BRANCH  12  42
DOCKED: ATOM     42  C   UNL d   1       2.700   7.554  -0.028 -0.61 +0.00    +0.004 C 
DOCKED: ATOM     43  C   UNL d   1       2.855   7.054  -1.261 -0.52 +0.00    +0.012 C 
DOCKED: ENDBRANCH  12  42
DOCKED: BRANCH  17  44
DOCKED: ATOM     44  C   UNL d   1       2.044   1.504   5.135 -0.56 -0.00    +0.004 C 
DOCKED: ATOM     45  C   UNL d   1       0.887   1.528   5.806 -0.69 -0.00    +0.012 C 
DOCKED: ENDBRANCH  17  44
DOCKED: TORSDOF 10
DOCKED: TER
DOCKED: ENDMDL
________________________________________________________________________________


	BEGINNING GENETIC ALGORITHM DOCKING 86 of 100
Run: 86 Seed: 1008806549 1307936787 [ Run 86 of 100 GA/GALS ]
Beginning LAMARCKIAN GENETIC ALGORITHM (LGA), with a maximum of 25000000 energy evaluations.

Final-Value: -16.441


	FINAL GENETIC ALGORITHM DOCKED STATE
	_______________________________________________


Detailed state:  trans 6.234 6.427 5.548 quatxyzw -0.052380 -0.841506 0.368746 0.391345 center -0.174 -0.001 -0.047 ntor 10 141.5387 82.2957 70.0795 -112.6816 -62.5287 177.1337 24.8912 80.3810 -26.6490 159.2644
State:	  6.234   6.427   5.548  -0.057 -0.914  0.401 133.924    141.54   82.30   70.08 -112.68  -62.53  177.13   24.89   80.38  -26.65  159.26

DOCKED: MODEL       86
DOCKED: USER    Run = 86
DOCKED: USER    DPF = D:/Protein_go_brrr/autodock/final/mut_Y35F/heme_Fe/dock.dpf
DOCKED: USER  
DOCKED: USER    Estimated Free Energy of Binding    =  -11.89 kcal/mol  [=(1)+(2)+(3)-(4)]
DOCKED: USER    Estimated Inhibition Constant, Ki   =    1.92 nM (nanomolar)  [Temperature = 298.15 K]
DOCKED: USER    
DOCKED: USER    (1) Final Intermolecular Energy     =  -14.88 kcal/mol
DOCKED: USER        vdW + Hbond + desolv Energy     =  -12.30 kcal/mol
DOCKED: USER        Electrostatic Energy            =   -2.58 kcal/mol
DOCKED: USER    (2) Final Total Internal Energy     =   -1.57 kcal/mol
DOCKED: USER    (3) Torsional Free Energy           =   +2.98 kcal/mol
DOCKED: USER    (4) Unbound System's Energy  [=(2)] =   -1.57 kcal/mol
DOCKED: USER    
DOCKED: USER    
DOCKED: USER    NEWDPF move heme_Fe_opt.pdbqt
DOCKED: USER    NEWDPF about -0.174000 -0.001000 -0.047000
DOCKED: USER    NEWDPF tran0 6.233828 6.427190 5.548150
DOCKED: USER    NEWDPF quaternion0 -0.052380 -0.841506 0.368746 0.391345
DOCKED: USER    NEWDPF axisangle0 -0.056919 -0.914437 0.400705 133.923601
DOCKED: USER    NEWDPF quat0 -0.056919 -0.914437 0.400705 133.923601
DOCKED: USER    NEWDPF dihe0 141.54 82.30 70.08 -112.68 -62.53 177.13 24.89 80.38 -26.65 159.26 
DOCKED: USER  keepresnum = 1 
DOCKED: USER  
DOCKED: REMARK  10 active torsions:
DOCKED: REMARK  status: ('A' for Active; 'I' for Inactive)
DOCKED: REMARK    1  A    between atoms: C_6  and  C_10 
DOCKED: REMARK    2  A    between atoms: C_10  and  C_11 
DOCKED: REMARK    3  A    between atoms: C_11  and  C_12 
DOCKED: REMARK    4  A    between atoms: C_12  and  O_14 
DOCKED: REMARK    5  A    between atoms: C_17  and  C_20 
DOCKED: REMARK    6  A    between atoms: C_24  and  C_27 
DOCKED: REMARK    7  A    between atoms: C_31  and  C_34 
DOCKED: REMARK    8  A    between atoms: C_34  and  C_35 
DOCKED: REMARK    9  A    between atoms: C_35  and  C_36 
DOCKED: REMARK   10  A    between atoms: C_36  and  O_38 
DOCKED: USER                              x       y       z     vdW  Elec       q    Type
DOCKED: USER                           _______ _______ _______ _____ _____    ______ ____
DOCKED: ROOT
DOCKED: ATOM      1  C   UNL d   1       7.905   6.430   6.739 -0.32 +0.03    +0.064 C 
DOCKED: ATOM      2  C   UNL d   1       4.018   3.423   6.202 -0.41 +0.01    +0.064 A 
DOCKED: ATOM      3  C   UNL d   1       2.978   5.622   2.060 -0.40 +0.00    +0.064 C 
DOCKED: ATOM      4  C   UNL d   1       6.672   8.611   2.613 -0.50 +0.01    +0.064 C 
DOCKED: ATOM      5  C   UNL d   1       6.859   5.435   7.014 -0.34 +0.03    +0.066 A 
DOCKED: ATOM      6  C   UNL d   1       6.768   4.683   8.173 -0.31 -0.01    -0.021 A 
DOCKED: ATOM      7  C   UNL d   1       5.690   3.845   8.022 -0.23 -0.01    -0.025 A 
DOCKED: ATOM      8  C   UNL d   1       5.164   4.119   6.774 -0.37 +0.01    +0.066 A 
DOCKED: ATOM      9  C   UNL d   1       5.191   2.857   9.031 +0.18 +0.01    +0.051 C 
DOCKED: ATOM     10  C   UNL d   1       3.456   3.707   5.026 -0.38 +0.00    +0.066 A 
DOCKED: ATOM     11  C   UNL d   1       2.432   2.949   4.453 -0.37 -0.00    -0.021 A 
DOCKED: ATOM     12  C   UNL d   1       2.126   3.552   3.250 -0.39 +0.00    +0.000 A 
DOCKED: ATOM     13  C   UNL d   1       2.993   4.654   3.146 -0.37 +0.00    +0.070 A 
DOCKED: ATOM     14  C   UNL d   1       1.822   1.672   4.994 -0.57 -0.00    +0.052 C 
DOCKED: ATOM     15  C   UNL d   1       3.845   6.654   1.929 -0.38 +0.00    +0.066 A 
DOCKED: ATOM     16  C   UNL d   1       3.735   7.615   0.932 -0.48 -0.00    -0.021 A 
DOCKED: ATOM     17  C   UNL d   1       4.802   8.476   1.088 -0.48 +0.00    +0.000 A 
DOCKED: ATOM     18  C   UNL d   1       5.541   8.017   2.176 -0.41 +0.01    +0.070 A 
DOCKED: ATOM     19  C   UNL d   1       2.685   7.708  -0.142 -0.49 +0.00    +0.052 C 
DOCKED: ATOM     20  C   UNL d   1       7.442   8.192   3.791 -0.39 +0.01    +0.066 A 
DOCKED: ATOM     21  C   UNL d   1       8.714   8.668   4.138 -0.37 -0.00    -0.025 A 
DOCKED: ATOM     22  C   UNL d   1       9.041   8.043   5.324 -0.26 -0.00    -0.021 A 
DOCKED: ATOM     23  C   UNL d   1       7.963   7.210   5.648 -0.16 +0.02    +0.066 A 
DOCKED: ATOM     24  C   UNL d   1       9.586   9.655   3.398 -0.45 -0.00    +0.051 C 
DOCKED: ATOM     25  N   UNL d   1       5.872   5.093   6.167 -0.22 -0.06    -0.248 N 
DOCKED: ATOM     26  N   UNL d   1       3.810   4.743   4.224 -0.25 -0.02    -0.248 N 
DOCKED: ATOM     27  N   UNL d   1       4.929   6.922   2.721 -0.24 -0.04    -0.248 N 
DOCKED: ATOM     28  N   UNL d   1       7.010   7.272   4.687 -0.09 -0.08    -0.248 N 
DOCKED: ATOM     29 FE   UNL d   1       5.411   6.009   4.454 -0.09 +0.00    +0.000 Fe
DOCKED: ENDROOT
DOCKED: BRANCH   6  30
DOCKED: ATOM     30  C   UNL d   1       7.645   4.768   9.375 +0.68 +0.07    +0.052 C 
DOCKED: BRANCH  30  31
DOCKED: ATOM     31  C   UNL d   1       7.540   6.144  10.024 +0.09 +0.09    +0.115 C 
DOCKED: BRANCH  31  32
DOCKED: ATOM     32  C   UNL d   1       8.788   6.454  10.803 -0.01 +0.15    +0.139 C 
DOCKED: ATOM     33  O   UNL d   1       9.112   5.766  11.761 -0.56 -0.82    -0.650 OA
DOCKED: BRANCH  32  34
DOCKED: ATOM     34  O   UNL d   1       9.560   7.496  10.452 +0.03 -0.58    -0.776 OA
DOCKED: ATOM     35  H   UNL d   1       9.693   7.687   9.513 +0.04 +0.12    +0.167 HD
DOCKED: ENDBRANCH  32  34
DOCKED: ENDBRANCH  31  32
DOCKED: ENDBRANCH  30  31
DOCKED: ENDBRANCH   6  30
DOCKED: BRANCH  22  36
DOCKED: ATOM     36  C   UNL d   1      10.337   8.202   6.074 -0.23 +0.01    +0.052 C 
DOCKED: BRANCH  36  37
DOCKED: ATOM     37  C   UNL d   1      11.211   6.976   5.853 +0.00 +0.04    +0.115 C 
DOCKED: BRANCH  37  38
DOCKED: ATOM     38  C   UNL d   1      11.135   6.041   7.027 -0.10 +0.13    +0.139 C 
DOCKED: ATOM     39  O   UNL d   1      11.728   4.973   7.014 -0.40 -0.80    -0.650 OA
DOCKED: BRANCH  38  40
DOCKED: ATOM     40  O   UNL d   1      10.405   6.376   8.106 -0.35 -1.12    -0.776 OA
DOCKED: ATOM     41  H   UNL d   1      10.850   6.763   8.873 +0.03 +0.21    +0.167 HD
DOCKED: ENDBRANCH  38  40
DOCKED: ENDBRANCH  37  38
DOCKED: ENDBRANCH  36  37
DOCKED: ENDBRANCH  22  36
DOCKED: BRANCH  12  42
DOCKED: ATOM     42  C   UNL d   1       1.086   3.069   2.290 -0.38 +0.00    +0.004 C 
DOCKED: ATOM     43  C   UNL d   1       0.026   3.828   1.982 -0.61 +0.00    +0.012 C 
DOCKED: ENDBRANCH  12  42
DOCKED: BRANCH  17  44
DOCKED: ATOM     44  C   UNL d   1       5.084   9.672   0.262 -0.45 +0.00    +0.004 C 
DOCKED: ATOM     45  C   UNL d   1       5.264   9.565  -1.059 -0.53 +0.00    +0.012 C 
DOCKED: ENDBRANCH  17  44
DOCKED: TORSDOF 10
DOCKED: TER
DOCKED: ENDMDL
________________________________________________________________________________


	BEGINNING GENETIC ALGORITHM DOCKING 87 of 100
Run: 87 Seed: 201374159 1237046058 [ Run 87 of 100 GA/GALS ]
Beginning LAMARCKIAN GENETIC ALGORITHM (LGA), with a maximum of 25000000 energy evaluations.

Final-Value: -10.225


	FINAL GENETIC ALGORITHM DOCKED STATE
	_______________________________________________


Detailed state:  trans -0.195 -17.693 -10.594 quatxyzw 0.869872 0.003155 0.277613 -0.407731 center -0.174 -0.001 -0.047 ntor 10 -151.5323 -159.1304 29.8718 27.5997 -108.8803 -89.5158 -153.1405 43.1199 167.5992 -178.5215
State:	 -0.195 -17.693 -10.594   0.953  0.003  0.304 -131.875   -151.53 -159.13   29.87   27.60 -108.88  -89.52 -153.14   43.12  167.60 -178.52

DOCKED: MODEL       87
DOCKED: USER    Run = 87
DOCKED: USER    DPF = D:/Protein_go_brrr/autodock/final/mut_Y35F/heme_Fe/dock.dpf
DOCKED: USER  
DOCKED: USER    Estimated Free Energy of Binding    =   -5.56 kcal/mol  [=(1)+(2)+(3)-(4)]
DOCKED: USER    Estimated Inhibition Constant, Ki   =   84.56 uM (micromolar)  [Temperature = 298.15 K]
DOCKED: USER    
DOCKED: USER    (1) Final Intermolecular Energy     =   -8.54 kcal/mol
DOCKED: USER        vdW + Hbond + desolv Energy     =   -6.79 kcal/mol
DOCKED: USER        Electrostatic Energy            =   -1.75 kcal/mol
DOCKED: USER    (2) Final Total Internal Energy     =   -1.69 kcal/mol
DOCKED: USER    (3) Torsional Free Energy           =   +2.98 kcal/mol
DOCKED: USER    (4) Unbound System's Energy  [=(2)] =   -1.69 kcal/mol
DOCKED: USER    
DOCKED: USER    
DOCKED: USER    NEWDPF move heme_Fe_opt.pdbqt
DOCKED: USER    NEWDPF about -0.174000 -0.001000 -0.047000
DOCKED: USER    NEWDPF tran0 -0.194608 -17.693373 -10.593810
DOCKED: USER    NEWDPF quaternion0 0.869872 0.003155 0.277613 -0.407731
DOCKED: USER    NEWDPF axisangle0 0.952655 0.003455 0.304032 -131.875300
DOCKED: USER    NEWDPF quat0 0.952655 0.003455 0.304032 -131.875300
DOCKED: USER    NEWDPF dihe0 -151.53 -159.13 29.87 27.60 -108.88 -89.52 -153.14 43.12 167.60 -178.52 
DOCKED: USER  keepresnum = 1 
DOCKED: USER  
DOCKED: REMARK  10 active torsions:
DOCKED: REMARK  status: ('A' for Active; 'I' for Inactive)
DOCKED: REMARK    1  A    between atoms: C_6  and  C_10 
DOCKED: REMARK    2  A    between atoms: C_10  and  C_11 
DOCKED: REMARK    3  A    between atoms: C_11  and  C_12 
DOCKED: REMARK    4  A    between atoms: C_12  and  O_14 
DOCKED: REMARK    5  A    between atoms: C_17  and  C_20 
DOCKED: REMARK    6  A    between atoms: C_24  and  C_27 
DOCKED: REMARK    7  A    between atoms: C_31  and  C_34 
DOCKED: REMARK    8  A    between atoms: C_34  and  C_35 
DOCKED: REMARK    9  A    between atoms: C_35  and  C_36 
DOCKED: REMARK   10  A    between atoms: C_36  and  O_38 
DOCKED: USER                              x       y       z     vdW  Elec       q    Type
DOCKED: USER                           _______ _______ _______ _____ _____    ______ ____
DOCKED: ROOT
DOCKED: ATOM      1  C   UNL d   1      -1.599 -18.490 -11.861 -0.26 +0.02    +0.064 C 
DOCKED: ATOM      2  C   UNL d   1       2.130 -15.286 -12.371 -0.17 -0.01    +0.064 A 
DOCKED: ATOM      3  C   UNL d   1       3.840 -16.704  -8.112 +0.01 -0.03    +0.064 C 
DOCKED: ATOM      4  C   UNL d   1       0.182 -19.735  -7.550 -0.15 -0.05    +0.064 C 
DOCKED: ATOM      5  C   UNL d   1      -0.754 -17.397 -12.361 -0.20 +0.01    +0.066 A 
DOCKED: ATOM      6  C   UNL d   1      -1.004 -16.667 -13.511 -0.19 -0.00    -0.021 A 
DOCKED: ATOM      7  C   UNL d   1       0.034 -15.780 -13.654 -0.13 -0.00    -0.025 A 
DOCKED: ATOM      8  C   UNL d   1       0.879 -16.003 -12.584 -0.16 -0.00    +0.066 A 
DOCKED: ATOM      9  C   UNL d   1       0.186 -14.767 -14.748 -0.09 +0.00    +0.051 C 
DOCKED: ATOM     10  C   UNL d   1       2.935 -15.442 -11.318 -0.20 -0.02    +0.066 A 
DOCKED: ATOM     11  C   UNL d   1       4.182 -14.825 -11.198 -0.22 +0.01    -0.021 A 
DOCKED: ATOM     12  C   UNL d   1       4.704 -15.231  -9.986 -0.21 -0.00    +0.000 A 
DOCKED: ATOM     13  C   UNL d   1       3.741 -16.090  -9.427 -0.05 -0.03    +0.070 A 
DOCKED: ATOM     14  C   UNL d   1       4.875 -13.946 -12.220 -0.21 -0.01    +0.052 C 
DOCKED: ATOM     15  C   UNL d   1       2.940 -17.572  -7.592 -0.11 -0.03    +0.066 A 
DOCKED: ATOM     16  C   UNL d   1       3.020 -18.059  -6.294 -0.15 +0.01    -0.021 A 
DOCKED: ATOM     17  C   UNL d   1       1.968 -18.936  -6.130 -0.16 -0.00    +0.000 A 
DOCKED: ATOM     18  C   UNL d   1       1.272 -18.967  -7.337 -0.16 -0.03    +0.070 A 
DOCKED: ATOM     19  C   UNL d   1       4.058 -17.735  -5.253 -0.13 -0.01    +0.052 C 
DOCKED: ATOM     20  C   UNL d   1      -0.612 -19.747  -8.785 -0.18 -0.03    +0.066 A 
DOCKED: ATOM     21  C   UNL d   1      -1.616 -20.675  -9.094 -0.17 +0.01    -0.025 A 
DOCKED: ATOM     22  C   UNL d   1      -2.118 -20.294 -10.321 -0.23 -0.00    -0.021 A 
DOCKED: ATOM     23  C   UNL d   1      -1.401 -19.158 -10.713 -0.26 +0.01    +0.066 A 
DOCKED: ATOM     24  C   UNL d   1      -2.082 -21.864  -8.286 -0.12 -0.01    +0.051 C 
DOCKED: ATOM     25  N   UNL d   1       0.392 -16.981 -11.794 -0.13 +0.01    -0.248 N 
DOCKED: ATOM     26  N   UNL d   1       2.666 -16.225 -10.243 -0.15 +0.09    -0.248 N 
DOCKED: ATOM     27  N   UNL d   1       1.843 -18.095  -8.222 -0.11 +0.10    -0.248 N 
DOCKED: ATOM     28  N   UNL d   1      -0.453 -18.855  -9.793 -0.15 +0.04    -0.248 N 
DOCKED: ATOM     29 FE   UNL d   1       1.106 -17.542 -10.016 -0.05 -0.00    +0.000 Fe
DOCKED: ENDROOT
DOCKED: BRANCH   6  30
DOCKED: ATOM     30  C   UNL d   1      -2.180 -16.788 -14.418 -0.21 +0.02    +0.052 C 
DOCKED: BRANCH  30  31
DOCKED: ATOM     31  C   UNL d   1      -1.807 -17.547 -15.687 -0.11 +0.04    +0.115 C 
DOCKED: BRANCH  31  32
DOCKED: ATOM     32  C   UNL d   1      -0.662 -18.485 -15.422 -0.06 +0.04    +0.139 C 
DOCKED: ATOM     33  O   UNL d   1       0.449 -18.257 -15.879 +0.02 -0.10    -0.650 OA
DOCKED: BRANCH  32  34
DOCKED: ATOM     34  O   UNL d   1      -0.852 -19.587 -14.677 +0.01 -0.31    -0.776 OA
DOCKED: ATOM     35  H   UNL d   1      -1.727 -19.999 -14.661 +0.01 +0.12    +0.167 HD
DOCKED: ENDBRANCH  32  34
DOCKED: ENDBRANCH  31  32
DOCKED: ENDBRANCH  30  31
DOCKED: ENDBRANCH   6  30
DOCKED: BRANCH  22  36
DOCKED: ATOM     36  C   UNL d   1      -3.194 -21.012 -11.093 -0.17 +0.02    +0.052 C 
DOCKED: BRANCH  36  37
DOCKED: ATOM     37  C   UNL d   1      -2.588 -22.187 -11.846 -0.11 +0.04    +0.115 C 
DOCKED: BRANCH  37  38
DOCKED: ATOM     38  C   UNL d   1      -3.148 -22.282 -13.237 +0.01 +0.14    +0.139 C 
DOCKED: ATOM     39  O   UNL d   1      -4.155 -22.938 -13.462 -0.43 -0.86    -0.650 OA
DOCKED: BRANCH  38  40
DOCKED: ATOM     40  O   UNL d   1      -2.539 -21.642 -14.251 -0.28 -1.02    -0.776 OA
DOCKED: ATOM     41  H   UNL d   1      -1.611 -21.386 -14.155 +0.01 +0.11    +0.167 HD
DOCKED: ENDBRANCH  38  40
DOCKED: ENDBRANCH  37  38
DOCKED: ENDBRANCH  36  37
DOCKED: ENDBRANCH  22  36
DOCKED: BRANCH  12  42
DOCKED: ATOM     42  C   UNL d   1       6.037 -14.821  -9.446 -0.18 -0.00    +0.004 C 
DOCKED: ATOM     43  C   UNL d   1       6.216 -13.612  -8.897 -0.32 -0.01    +0.012 C 
DOCKED: ENDBRANCH  12  42
DOCKED: BRANCH  17  44
DOCKED: ATOM     44  C   UNL d   1       1.638 -19.681  -4.894 -0.17 -0.00    +0.004 C 
DOCKED: ATOM     45  C   UNL d   1       0.957 -19.096  -3.903 -0.31 -0.01    +0.012 C 
DOCKED: ENDBRANCH  17  44
DOCKED: TORSDOF 10
DOCKED: TER
DOCKED: ENDMDL
________________________________________________________________________________


	BEGINNING GENETIC ALGORITHM DOCKING 88 of 100
Run: 88 Seed: 514203300 307742464 [ Run 88 of 100 GA/GALS ]
Beginning LAMARCKIAN GENETIC ALGORITHM (LGA), with a maximum of 25000000 energy evaluations.

Final-Value: -12.559


	FINAL GENETIC ALGORITHM DOCKED STATE
	_______________________________________________


Detailed state:  trans 11.582 11.680 7.260 quatxyzw 0.549235 0.450033 -0.580819 0.398071 center -0.174 -0.001 -0.047 ntor 10 -173.0132 -78.0712 -106.2986 44.5243 54.1183 -158.4734 -7.1973 46.6072 -168.0194 150.4242
State:	 11.582  11.680   7.260   0.599  0.491 -0.633 133.085   -173.01  -78.07 -106.30   44.52   54.12 -158.47   -7.20   46.61 -168.02  150.42

DOCKED: MODEL       88
DOCKED: USER    Run = 88
DOCKED: USER    DPF = D:/Protein_go_brrr/autodock/final/mut_Y35F/heme_Fe/dock.dpf
DOCKED: USER  
DOCKED: USER    Estimated Free Energy of Binding    =   -7.51 kcal/mol  [=(1)+(2)+(3)-(4)]
DOCKED: USER    Estimated Inhibition Constant, Ki   =    3.14 uM (micromolar)  [Temperature = 298.15 K]
DOCKED: USER    
DOCKED: USER    (1) Final Intermolecular Energy     =  -10.49 kcal/mol
DOCKED: USER        vdW + Hbond + desolv Energy     =   -7.57 kcal/mol
DOCKED: USER        Electrostatic Energy            =   -2.92 kcal/mol
DOCKED: USER    (2) Final Total Internal Energy     =   -2.07 kcal/mol
DOCKED: USER    (3) Torsional Free Energy           =   +2.98 kcal/mol
DOCKED: USER    (4) Unbound System's Energy  [=(2)] =   -2.07 kcal/mol
DOCKED: USER    
DOCKED: USER    
DOCKED: USER    NEWDPF move heme_Fe_opt.pdbqt
DOCKED: USER    NEWDPF about -0.174000 -0.001000 -0.047000
DOCKED: USER    NEWDPF tran0 11.581512 11.680495 7.260197
DOCKED: USER    NEWDPF quaternion0 0.549235 0.450033 -0.580819 0.398071
DOCKED: USER    NEWDPF axisangle0 0.598716 0.490577 -0.633146 133.084772
DOCKED: USER    NEWDPF quat0 0.598716 0.490577 -0.633146 133.084772
DOCKED: USER    NEWDPF dihe0 -173.01 -78.07 -106.30 44.52 54.12 -158.47 -7.20 46.61 -168.02 150.42 
DOCKED: USER  keepresnum = 1 
DOCKED: USER  
DOCKED: REMARK  10 active torsions:
DOCKED: REMARK  status: ('A' for Active; 'I' for Inactive)
DOCKED: REMARK    1  A    between atoms: C_6  and  C_10 
DOCKED: REMARK    2  A    between atoms: C_10  and  C_11 
DOCKED: REMARK    3  A    between atoms: C_11  and  C_12 
DOCKED: REMARK    4  A    between atoms: C_12  and  O_14 
DOCKED: REMARK    5  A    between atoms: C_17  and  C_20 
DOCKED: REMARK    6  A    between atoms: C_24  and  C_27 
DOCKED: REMARK    7  A    between atoms: C_31  and  C_34 
DOCKED: REMARK    8  A    between atoms: C_34  and  C_35 
DOCKED: REMARK    9  A    between atoms: C_35  and  C_36 
DOCKED: REMARK   10  A    between atoms: C_36  and  O_38 
DOCKED: USER                              x       y       z     vdW  Elec       q    Type
DOCKED: USER                           _______ _______ _______ _____ _____    ______ ____
DOCKED: ROOT
DOCKED: ATOM      1  C   UNL d   1      11.208   9.756   7.867 -0.15 +0.01    +0.064 C 
DOCKED: ATOM      2  C   UNL d   1      11.003  14.191  10.039 -0.23 +0.02    +0.064 A 
DOCKED: ATOM      3  C   UNL d   1      11.218  16.248   5.704 -0.18 -0.01    +0.064 C 
DOCKED: ATOM      4  C   UNL d   1      11.522  11.968   3.588 -0.24 -0.01    +0.064 C 
DOCKED: ATOM      5  C   UNL d   1      11.215  10.815   8.885 -0.15 +0.01    +0.066 A 
DOCKED: ATOM      6  C   UNL d   1      11.270  10.598  10.252 -0.14 -0.01    -0.021 A 
DOCKED: ATOM      7  C   UNL d   1      11.209  11.830  10.854 -0.17 -0.01    -0.025 A 
DOCKED: ATOM      8  C   UNL d   1      11.120  12.753   9.831 -0.20 +0.02    +0.066 A 
DOCKED: ATOM      9  C   UNL d   1      11.255  12.095  12.328 -0.17 +0.03    +0.051 C 
DOCKED: ATOM     10  C   UNL d   1      10.973  15.107   9.069 -0.24 +0.01    +0.066 A 
DOCKED: ATOM     11  C   UNL d   1      10.746  16.467   9.295 -0.22 -0.00    -0.021 A 
DOCKED: ATOM     12  C   UNL d   1      10.786  17.080   8.059 -0.14 -0.00    +0.000 A 
DOCKED: ATOM     13  C   UNL d   1      11.030  16.051   7.132 -0.19 -0.01    +0.070 A 
DOCKED: ATOM     14  C   UNL d   1      10.437  17.140  10.617 -0.22 +0.01    +0.052 C 
DOCKED: ATOM     15  C   UNL d   1      11.401  15.255   4.801 -0.14 -0.01    +0.066 A 
DOCKED: ATOM     16  C   UNL d   1      11.676  15.490   3.460 -0.12 +0.00    -0.021 A 
DOCKED: ATOM     17  C   UNL d   1      11.761  14.257   2.847 -0.23 -0.00    +0.000 A 
DOCKED: ATOM     18  C   UNL d   1      11.531  13.297   3.830 -0.19 -0.01    +0.070 A 
DOCKED: ATOM     19  C   UNL d   1      11.829  16.820   2.774 -0.09 -0.01    +0.052 C 
DOCKED: ATOM     20  C   UNL d   1      11.345  10.927   4.607 -0.19 -0.00    +0.066 A 
DOCKED: ATOM     21  C   UNL d   1      11.135   9.565   4.347 -0.27 -0.00    -0.025 A 
DOCKED: ATOM     22  C   UNL d   1      11.061   8.952   5.580 -0.19 -0.00    -0.021 A 
DOCKED: ATOM     23  C   UNL d   1      11.221   9.959   6.540 -0.12 +0.01    +0.066 A 
DOCKED: ATOM     24  C   UNL d   1      11.005   8.870   3.012 -0.44 -0.00    +0.051 C 
DOCKED: ATOM     25  N   UNL d   1      11.133  12.134   8.634 -0.08 -0.04    -0.248 N 
DOCKED: ATOM     26  N   UNL d   1      11.135  14.847   7.747 -0.14 +0.00    -0.248 N 
DOCKED: ATOM     27  N   UNL d   1      11.353  13.908   5.040 -0.05 +0.02    -0.248 N 
DOCKED: ATOM     28  N   UNL d   1      11.350  11.168   5.941 +0.03 -0.02    -0.248 N 
DOCKED: ATOM     29 FE   UNL d   1      11.242  13.007   6.842 -0.04 +0.00    +0.000 Fe
DOCKED: ENDROOT
DOCKED: BRANCH   6  30
DOCKED: ATOM     30  C   UNL d   1      11.395   9.288  10.952 -0.10 +0.02    +0.052 C 
DOCKED: BRANCH  30  31
DOCKED: ATOM     31  C   UNL d   1      10.051   8.570  11.000 -0.10 +0.05    +0.115 C 
DOCKED: BRANCH  31  32
DOCKED: ATOM     32  C   UNL d   1      10.216   7.180  11.549 -0.12 +0.10    +0.139 C 
DOCKED: ATOM     33  O   UNL d   1      10.762   6.997  12.628 +0.00 -0.36    -0.650 OA
DOCKED: BRANCH  32  34
DOCKED: ATOM     34  O   UNL d   1       9.764   6.122  10.855 -0.18 -1.36    -0.776 OA
DOCKED: ATOM     35  H   UNL d   1       9.426   6.258   9.959 +0.03 +0.30    +0.167 HD
DOCKED: ENDBRANCH  32  34
DOCKED: ENDBRANCH  31  32
DOCKED: ENDBRANCH  30  31
DOCKED: ENDBRANCH   6  30
DOCKED: BRANCH  22  36
DOCKED: ATOM     36  C   UNL d   1      10.801   7.488   5.820 -0.18 +0.02    +0.052 C 
DOCKED: BRANCH  36  37
DOCKED: ATOM     37  C   UNL d   1       9.442   7.310   6.481 -0.15 +0.05    +0.115 C 
DOCKED: BRANCH  37  38
DOCKED: ATOM     38  C   UNL d   1       9.525   6.350   7.633 -0.16 +0.15    +0.139 C 
DOCKED: ATOM     39  O   UNL d   1       8.527   5.776   8.042 -0.16 -0.78    -0.650 OA
DOCKED: BRANCH  38  40
DOCKED: ATOM     40  O   UNL d   1      10.708   6.118   8.230 -0.27 -1.35    -0.776 OA
DOCKED: ATOM     41  H   UNL d   1      10.901   6.550   9.074 +0.02 +0.24    +0.167 HD
DOCKED: ENDBRANCH  38  40
DOCKED: ENDBRANCH  37  38
DOCKED: ENDBRANCH  36  37
DOCKED: ENDBRANCH  22  36
DOCKED: BRANCH  12  42
DOCKED: ATOM     42  C   UNL d   1      10.582  18.542   7.821 -0.17 -0.00    +0.004 C 
DOCKED: ATOM     43  C   UNL d   1       9.449  19.150   8.196 -0.23 -0.00    +0.012 C 
DOCKED: ENDBRANCH  12  42
DOCKED: BRANCH  17  44
DOCKED: ATOM     44  C   UNL d   1      12.063  14.013   1.419 -0.41 -0.00    +0.004 C 
DOCKED: ATOM     45  C   UNL d   1      13.300  13.692   1.025 -0.51 -0.00    +0.012 C 
DOCKED: ENDBRANCH  17  44
DOCKED: TORSDOF 10
DOCKED: TER
DOCKED: ENDMDL
________________________________________________________________________________


	BEGINNING GENETIC ALGORITHM DOCKING 89 of 100
Run: 89 Seed: 2069156497 990394449 [ Run 89 of 100 GA/GALS ]
Beginning LAMARCKIAN GENETIC ALGORITHM (LGA), with a maximum of 25000000 energy evaluations.

Final-Value: -15.781


	FINAL GENETIC ALGORITHM DOCKED STATE
	_______________________________________________


Detailed state:  trans 6.207 6.456 5.358 quatxyzw 0.028591 0.840843 -0.379218 -0.385174 center -0.174 -0.001 -0.047 ntor 10 -10.4892 179.8693 68.0556 -117.2701 -151.6628 93.7768 -22.8249 69.6477 -5.2679 148.2117
State:	  6.207   6.456   5.358   0.031  0.911 -0.411 -134.691    -10.49  179.87   68.06 -117.27 -151.66   93.78  -22.82   69.65   -5.27  148.21

DOCKED: MODEL       89
DOCKED: USER    Run = 89
DOCKED: USER    DPF = D:/Protein_go_brrr/autodock/final/mut_Y35F/heme_Fe/dock.dpf
DOCKED: USER  
DOCKED: USER    Estimated Free Energy of Binding    =  -12.38 kcal/mol  [=(1)+(2)+(3)-(4)]
DOCKED: USER    Estimated Inhibition Constant, Ki   =  845.68 pM (picomolar)  [Temperature = 298.15 K]
DOCKED: USER    
DOCKED: USER    (1) Final Intermolecular Energy     =  -15.36 kcal/mol
DOCKED: USER        vdW + Hbond + desolv Energy     =  -12.78 kcal/mol
DOCKED: USER        Electrostatic Energy            =   -2.58 kcal/mol
DOCKED: USER    (2) Final Total Internal Energy     =   -0.42 kcal/mol
DOCKED: USER    (3) Torsional Free Energy           =   +2.98 kcal/mol
DOCKED: USER    (4) Unbound System's Energy  [=(2)] =   -0.42 kcal/mol
DOCKED: USER    
DOCKED: USER    
DOCKED: USER    NEWDPF move heme_Fe_opt.pdbqt
DOCKED: USER    NEWDPF about -0.174000 -0.001000 -0.047000
DOCKED: USER    NEWDPF tran0 6.206676 6.456262 5.358091
DOCKED: USER    NEWDPF quaternion0 0.028591 0.840843 -0.379218 -0.385174
DOCKED: USER    NEWDPF axisangle0 0.030982 0.911143 -0.410923 -134.690975
DOCKED: USER    NEWDPF quat0 0.030982 0.911143 -0.410923 -134.690975
DOCKED: USER    NEWDPF dihe0 -10.49 179.87 68.06 -117.27 -151.66 93.78 -22.82 69.65 -5.27 148.21 
DOCKED: USER  keepresnum = 1 
DOCKED: USER  
DOCKED: REMARK  10 active torsions:
DOCKED: REMARK  status: ('A' for Active; 'I' for Inactive)
DOCKED: REMARK    1  A    between atoms: C_6  and  C_10 
DOCKED: REMARK    2  A    between atoms: C_10  and  C_11 
DOCKED: REMARK    3  A    between atoms: C_11  and  C_12 
DOCKED: REMARK    4  A    between atoms: C_12  and  O_14 
DOCKED: REMARK    5  A    between atoms: C_17  and  C_20 
DOCKED: REMARK    6  A    between atoms: C_24  and  C_27 
DOCKED: REMARK    7  A    between atoms: C_31  and  C_34 
DOCKED: REMARK    8  A    between atoms: C_34  and  C_35 
DOCKED: REMARK    9  A    between atoms: C_35  and  C_36 
DOCKED: REMARK   10  A    between atoms: C_36  and  O_38 
DOCKED: USER                              x       y       z     vdW  Elec       q    Type
DOCKED: USER                           _______ _______ _______ _____ _____    ______ ____
DOCKED: ROOT
DOCKED: ATOM      1  C   UNL d   1       7.910   6.547   6.499 -0.26 +0.03    +0.064 C 
DOCKED: ATOM      2  C   UNL d   1       4.095   3.420   6.183 -0.41 +0.01    +0.064 A 
DOCKED: ATOM      3  C   UNL d   1       2.878   5.438   1.997 -0.40 +0.00    +0.064 C 
DOCKED: ATOM      4  C   UNL d   1       6.502   8.542   2.336 -0.50 +0.01    +0.064 C 
DOCKED: ATOM      5  C   UNL d   1       6.900   5.535   6.839 -0.34 +0.03    +0.066 A 
DOCKED: ATOM      6  C   UNL d   1       6.862   4.823   8.027 -0.34 -0.01    -0.021 A 
DOCKED: ATOM      7  C   UNL d   1       5.804   3.953   7.937 -0.26 -0.01    -0.025 A 
DOCKED: ATOM      8  C   UNL d   1       5.236   4.167   6.696 -0.37 +0.01    +0.066 A 
DOCKED: ATOM      9  C   UNL d   1       5.361   2.989   8.994 +0.06 +0.01    +0.051 C 
DOCKED: ATOM     10  C   UNL d   1       3.492   3.646   5.014 -0.37 +0.00    +0.066 A 
DOCKED: ATOM     11  C   UNL d   1       2.474   2.840   4.499 -0.35 -0.00    -0.021 A 
DOCKED: ATOM     12  C   UNL d   1       2.117   3.391   3.284 -0.36 +0.00    +0.000 A 
DOCKED: ATOM     13  C   UNL d   1       2.950   4.511   3.116 -0.37 +0.00    +0.070 A 
DOCKED: ATOM     14  C   UNL d   1       1.915   1.568   5.102 -0.56 -0.00    +0.052 C 
DOCKED: ATOM     15  C   UNL d   1       3.712   6.487   1.804 -0.38 +0.00    +0.066 A 
DOCKED: ATOM     16  C   UNL d   1       3.548   7.407   0.777 -0.48 -0.00    -0.021 A 
DOCKED: ATOM     17  C   UNL d   1       4.594   8.302   0.871 -0.49 +0.00    +0.000 A 
DOCKED: ATOM     18  C   UNL d   1       5.375   7.903   1.953 -0.41 +0.01    +0.070 A 
DOCKED: ATOM     19  C   UNL d   1       2.466   7.433  -0.268 -0.48 +0.00    +0.052 C 
DOCKED: ATOM     20  C   UNL d   1       7.315   8.188   3.505 -0.41 +0.01    +0.066 A 
DOCKED: ATOM     21  C   UNL d   1       8.583   8.710   3.798 -0.41 -0.00    -0.025 A 
DOCKED: ATOM     22  C   UNL d   1       8.960   8.137   4.995 -0.28 -0.00    -0.021 A 
DOCKED: ATOM     23  C   UNL d   1       7.916   7.288   5.380 -0.15 +0.02    +0.066 A 
DOCKED: ATOM     24  C   UNL d   1       9.407   9.692   2.998 -0.46 -0.00    +0.051 C 
DOCKED: ATOM     25  N   UNL d   1       5.899   5.137   6.034 -0.22 -0.06    -0.248 N 
DOCKED: ATOM     26  N   UNL d   1       3.795   4.661   4.165 -0.25 -0.02    -0.248 N 
DOCKED: ATOM     27  N   UNL d   1       4.810   6.813   2.554 -0.24 -0.04    -0.248 N 
DOCKED: ATOM     28  N   UNL d   1       6.935   7.289   4.445 -0.11 -0.08    -0.248 N 
DOCKED: ATOM     29 FE   UNL d   1       5.365   5.977   4.304 -0.09 +0.00    +0.000 Fe
DOCKED: ENDROOT
DOCKED: BRANCH   6  30
DOCKED: ATOM     30  C   UNL d   1       7.770   4.976   9.199 +0.44 +0.07    +0.052 C 
DOCKED: BRANCH  30  31
DOCKED: ATOM     31  C   UNL d   1       7.299   6.109  10.104 +0.10 +0.08    +0.115 C 
DOCKED: BRANCH  31  32
DOCKED: ATOM     32  C   UNL d   1       7.830   5.924  11.499 -0.17 +0.11    +0.139 C 
DOCKED: ATOM     33  O   UNL d   1       7.216   6.361  12.462 -0.01 -0.26    -0.650 OA
DOCKED: BRANCH  32  34
DOCKED: ATOM     34  O   UNL d   1       8.988   5.273  11.699 -0.54 -1.22    -0.776 OA
DOCKED: ATOM     35  H   UNL d   1       9.393   5.294  12.577 +0.02 +0.16    +0.167 HD
DOCKED: ENDBRANCH  32  34
DOCKED: ENDBRANCH  31  32
DOCKED: ENDBRANCH  30  31
DOCKED: ENDBRANCH   6  30
DOCKED: BRANCH  22  36
DOCKED: ATOM     36  C   UNL d   1      10.272   8.357   5.701 -0.25 +0.01    +0.052 C 
DOCKED: BRANCH  36  37
DOCKED: ATOM     37  C   UNL d   1      11.062   7.058   5.734 +0.08 +0.04    +0.115 C 
DOCKED: BRANCH  37  38
DOCKED: ATOM     38  C   UNL d   1      11.155   6.519   7.134 -0.17 +0.11    +0.139 C 
DOCKED: ATOM     39  O   UNL d   1      10.345   5.701   7.544 -0.55 -1.12    -0.650 OA
DOCKED: BRANCH  38  40
DOCKED: ATOM     40  O   UNL d   1      12.136   6.941   7.951 +0.03 -0.53    -0.776 OA
DOCKED: ATOM     41  H   UNL d   1      12.777   7.586   7.622 +0.03 +0.07    +0.167 HD
DOCKED: ENDBRANCH  38  40
DOCKED: ENDBRANCH  37  38
DOCKED: ENDBRANCH  36  37
DOCKED: ENDBRANCH  22  36
DOCKED: BRANCH  12  42
DOCKED: ATOM     42  C   UNL d   1       1.064   2.845   2.373 -0.40 +0.00    +0.004 C 
DOCKED: ATOM     43  C   UNL d   1      -0.043   3.547   2.100 -0.61 +0.00    +0.012 C 
DOCKED: ENDBRANCH  12  42
DOCKED: BRANCH  17  44
DOCKED: ATOM     44  C   UNL d   1       4.820   9.474  -0.005 -0.42 +0.00    +0.004 C 
DOCKED: ATOM     45  C   UNL d   1       5.056   9.317  -1.312 -0.67 +0.00    +0.012 C 
DOCKED: ENDBRANCH  17  44
DOCKED: TORSDOF 10
DOCKED: TER
DOCKED: ENDMDL
________________________________________________________________________________


	BEGINNING GENETIC ALGORITHM DOCKING 90 of 100
Run: 90 Seed: 340764119 2103302219 [ Run 90 of 100 GA/GALS ]
Beginning LAMARCKIAN GENETIC ALGORITHM (LGA), with a maximum of 25000000 energy evaluations.

Final-Value: -13.234


	FINAL GENETIC ALGORITHM DOCKED STATE
	_______________________________________________


Detailed state:  trans 11.624 11.587 7.131 quatxyzw -0.543816 -0.464238 0.568437 -0.406972 center -0.174 -0.001 -0.047 ntor 10 65.0332 96.7203 -101.5986 52.1820 -180.0000 136.6650 -41.3741 -26.9903 -173.8504 35.2709
State:	 11.624  11.587   7.131  -0.595 -0.508  0.622 -131.970     65.03   96.72 -101.60   52.18 -180.00  136.66  -41.37  -26.99 -173.85   35.27

DOCKED: MODEL       90
DOCKED: USER    Run = 90
DOCKED: USER    DPF = D:/Protein_go_brrr/autodock/final/mut_Y35F/heme_Fe/dock.dpf
DOCKED: USER  
DOCKED: USER    Estimated Free Energy of Binding    =   -8.15 kcal/mol  [=(1)+(2)+(3)-(4)]
DOCKED: USER    Estimated Inhibition Constant, Ki   =    1.07 uM (micromolar)  [Temperature = 298.15 K]
DOCKED: USER    
DOCKED: USER    (1) Final Intermolecular Energy     =  -11.13 kcal/mol
DOCKED: USER        vdW + Hbond + desolv Energy     =   -7.76 kcal/mol
DOCKED: USER        Electrostatic Energy            =   -3.37 kcal/mol
DOCKED: USER    (2) Final Total Internal Energy     =   -2.10 kcal/mol
DOCKED: USER    (3) Torsional Free Energy           =   +2.98 kcal/mol
DOCKED: USER    (4) Unbound System's Energy  [=(2)] =   -2.10 kcal/mol
DOCKED: USER    
DOCKED: USER    
DOCKED: USER    NEWDPF move heme_Fe_opt.pdbqt
DOCKED: USER    NEWDPF about -0.174000 -0.001000 -0.047000
DOCKED: USER    NEWDPF tran0 11.623777 11.586702 7.130986
DOCKED: USER    NEWDPF quaternion0 -0.543816 -0.464238 0.568437 -0.406972
DOCKED: USER    NEWDPF axisangle0 -0.595349 -0.508230 0.622303 -131.970455
DOCKED: USER    NEWDPF quat0 -0.595349 -0.508230 0.622303 -131.970455
DOCKED: USER    NEWDPF dihe0 65.03 96.72 -101.60 52.18 -180.00 136.66 -41.37 -26.99 -173.85 35.27 
DOCKED: USER  keepresnum = 1 
DOCKED: USER  
DOCKED: REMARK  10 active torsions:
DOCKED: REMARK  status: ('A' for Active; 'I' for Inactive)
DOCKED: REMARK    1  A    between atoms: C_6  and  C_10 
DOCKED: REMARK    2  A    between atoms: C_10  and  C_11 
DOCKED: REMARK    3  A    between atoms: C_11  and  C_12 
DOCKED: REMARK    4  A    between atoms: C_12  and  O_14 
DOCKED: REMARK    5  A    between atoms: C_17  and  C_20 
DOCKED: REMARK    6  A    between atoms: C_24  and  C_27 
DOCKED: REMARK    7  A    between atoms: C_31  and  C_34 
DOCKED: REMARK    8  A    between atoms: C_34  and  C_35 
DOCKED: REMARK    9  A    between atoms: C_35  and  C_36 
DOCKED: REMARK   10  A    between atoms: C_36  and  O_38 
DOCKED: USER                              x       y       z     vdW  Elec       q    Type
DOCKED: USER                           _______ _______ _______ _____ _____    ______ ____
DOCKED: ROOT
DOCKED: ATOM      1  C   UNL d   1      11.244   9.639   7.652 -0.15 +0.01    +0.064 C 
DOCKED: ATOM      2  C   UNL d   1      11.015  13.979  10.006 -0.23 +0.02    +0.064 A 
DOCKED: ATOM      3  C   UNL d   1      11.274  16.215   5.763 -0.18 -0.01    +0.064 C 
DOCKED: ATOM      4  C   UNL d   1      11.604  12.027   3.473 -0.20 -0.01    +0.064 C 
DOCKED: ATOM      5  C   UNL d   1      11.240  10.654   8.714 -0.15 +0.01    +0.066 A 
DOCKED: ATOM      6  C   UNL d   1      11.281  10.380  10.071 -0.14 -0.01    -0.021 A 
DOCKED: ATOM      7  C   UNL d   1      11.213  11.586  10.724 -0.16 -0.01    -0.025 A 
DOCKED: ATOM      8  C   UNL d   1      11.134  12.551   9.739 -0.20 +0.02    +0.066 A 
DOCKED: ATOM      9  C   UNL d   1      11.244  11.789  12.208 -0.16 +0.03    +0.051 C 
DOCKED: ATOM     10  C   UNL d   1      10.995  14.935   9.075 -0.24 +0.01    +0.066 A 
DOCKED: ATOM     11  C   UNL d   1      10.764  16.284   9.355 -0.22 -0.00    -0.021 A 
DOCKED: ATOM     12  C   UNL d   1      10.817  16.948   8.145 -0.16 -0.00    +0.000 A 
DOCKED: ATOM     13  C   UNL d   1      11.071  15.958   7.180 -0.19 -0.01    +0.070 A 
DOCKED: ATOM     14  C   UNL d   1      10.441  16.902  10.700 -0.21 +0.01    +0.052 C 
DOCKED: ATOM     15  C   UNL d   1      11.467  15.261   4.822 -0.13 -0.01    +0.066 A 
DOCKED: ATOM     16  C   UNL d   1      11.757  15.551   3.495 -0.11 +0.00    -0.021 A 
DOCKED: ATOM     17  C   UNL d   1      11.849  14.345   2.832 -0.22 -0.00    +0.000 A 
DOCKED: ATOM     18  C   UNL d   1      11.609  13.345   3.771 -0.19 -0.01    +0.070 A 
DOCKED: ATOM     19  C   UNL d   1      11.916  16.909   2.866 -0.08 -0.01    +0.052 C 
DOCKED: ATOM     20  C   UNL d   1      11.416  10.945   4.446 -0.20 -0.00    +0.066 A 
DOCKED: ATOM     21  C   UNL d   1      11.209   9.595   4.127 -0.28 +0.00    -0.025 A 
DOCKED: ATOM     22  C   UNL d   1      11.122   8.931   5.333 -0.20 -0.00    -0.021 A 
DOCKED: ATOM     23  C   UNL d   1      11.272   9.897   6.335 -0.13 +0.01    +0.066 A 
DOCKED: ATOM     24  C   UNL d   1      11.094   8.955   2.763 -0.41 -0.01    +0.051 C 
DOCKED: ATOM     25  N   UNL d   1      11.160  11.982   8.517 -0.06 -0.04    -0.248 N 
DOCKED: ATOM     26  N   UNL d   1      11.171  14.730   7.745 -0.13 -0.00    -0.248 N 
DOCKED: ATOM     27  N   UNL d   1      11.418  13.904   5.003 -0.06 +0.02    -0.248 N 
DOCKED: ATOM     28  N   UNL d   1      11.406  11.129   5.789 -0.02 -0.01    -0.248 N 
DOCKED: ATOM     29 FE   UNL d   1      11.288  12.929   6.765 -0.04 +0.00    +0.000 Fe
DOCKED: ENDROOT
DOCKED: BRANCH   6  30
DOCKED: ATOM     30  C   UNL d   1      11.400   9.042  10.718 -0.10 +0.02    +0.052 C 
DOCKED: BRANCH  30  31
DOCKED: ATOM     31  C   UNL d   1      10.031   8.383  10.851 -0.10 +0.06    +0.115 C 
DOCKED: BRANCH  31  32
DOCKED: ATOM     32  C   UNL d   1      10.117   6.920  10.517 -0.08 +0.15    +0.139 C 
DOCKED: ATOM     33  O   UNL d   1       9.123   6.210  10.565 -0.22 -1.00    -0.650 OA
DOCKED: BRANCH  32  34
DOCKED: ATOM     34  O   UNL d   1      11.294   6.377  10.160 +0.08 -1.11    -0.776 OA
DOCKED: ATOM     35  H   UNL d   1      11.397   6.028   9.263 +0.02 +0.31    +0.167 HD
DOCKED: ENDBRANCH  32  34
DOCKED: ENDBRANCH  31  32
DOCKED: ENDBRANCH  30  31
DOCKED: ENDBRANCH   6  30
DOCKED: BRANCH  22  36
DOCKED: ATOM     36  C   UNL d   1      10.861   7.458   5.509 -0.14 +0.01    +0.052 C 
DOCKED: BRANCH  36  37
DOCKED: ATOM     37  C   UNL d   1      11.857   6.875   6.500 -0.16 +0.06    +0.115 C 
DOCKED: BRANCH  37  38
DOCKED: ATOM     38  C   UNL d   1      11.278   5.682   7.207 -0.11 +0.17    +0.139 C 
DOCKED: ATOM     39  O   UNL d   1      11.945   4.673   7.380 -0.31 -0.94    -0.650 OA
DOCKED: BRANCH  38  40
DOCKED: ATOM     40  O   UNL d   1      10.010   5.717   7.655 -0.47 -1.40    -0.776 OA
DOCKED: ATOM     41  H   UNL d   1       9.826   6.124   8.513 +0.04 +0.32    +0.167 HD
DOCKED: ENDBRANCH  38  40
DOCKED: ENDBRANCH  37  38
DOCKED: ENDBRANCH  36  37
DOCKED: ENDBRANCH  22  36
DOCKED: BRANCH  12  42
DOCKED: ATOM     42  C   UNL d   1      10.615  18.419   7.967 -0.17 -0.00    +0.004 C 
DOCKED: ATOM     43  C   UNL d   1       9.518  19.026   8.438 -0.23 -0.00    +0.012 C 
DOCKED: ENDBRANCH  12  42
DOCKED: BRANCH  17  44
DOCKED: ATOM     44  C   UNL d   1      12.166  14.161   1.397 -0.44 -0.00    +0.004 C 
DOCKED: ATOM     45  C   UNL d   1      13.365  13.710   1.014 -0.51 -0.00    +0.012 C 
DOCKED: ENDBRANCH  17  44
DOCKED: TORSDOF 10
DOCKED: TER
DOCKED: ENDMDL
________________________________________________________________________________


	BEGINNING GENETIC ALGORITHM DOCKING 91 of 100
Run: 91 Seed: 506917114 944630075 [ Run 91 of 100 GA/GALS ]
Beginning LAMARCKIAN GENETIC ALGORITHM (LGA), with a maximum of 25000000 energy evaluations.

Final-Value: -10.050


	FINAL GENETIC ALGORITHM DOCKED STATE
	_______________________________________________


Detailed state:  trans -10.164 -18.027 -9.814 quatxyzw 0.043052 0.787236 -0.543805 0.287545 center -0.174 -0.001 -0.047 ntor 10 -33.5988 161.1624 43.9163 -156.2154 16.8288 -80.7477 -62.6674 4.1004 -177.7511 159.6224
State:	-10.164 -18.027  -9.814   0.045  0.822 -0.568 146.578    -33.60  161.16   43.92 -156.22   16.83  -80.75  -62.67    4.10 -177.75  159.62

DOCKED: MODEL       91
DOCKED: USER    Run = 91
DOCKED: USER    DPF = D:/Protein_go_brrr/autodock/final/mut_Y35F/heme_Fe/dock.dpf
DOCKED: USER  
DOCKED: USER    Estimated Free Energy of Binding    =   -4.87 kcal/mol  [=(1)+(2)+(3)-(4)]
DOCKED: USER    Estimated Inhibition Constant, Ki   =  270.82 uM (micromolar)  [Temperature = 298.15 K]
DOCKED: USER    
DOCKED: USER    (1) Final Intermolecular Energy     =   -7.85 kcal/mol
DOCKED: USER        vdW + Hbond + desolv Energy     =   -5.95 kcal/mol
DOCKED: USER        Electrostatic Energy            =   -1.90 kcal/mol
DOCKED: USER    (2) Final Total Internal Energy     =   -2.20 kcal/mol
DOCKED: USER    (3) Torsional Free Energy           =   +2.98 kcal/mol
DOCKED: USER    (4) Unbound System's Energy  [=(2)] =   -2.20 kcal/mol
DOCKED: USER    
DOCKED: USER    
DOCKED: USER    NEWDPF move heme_Fe_opt.pdbqt
DOCKED: USER    NEWDPF about -0.174000 -0.001000 -0.047000
DOCKED: USER    NEWDPF tran0 -10.163641 -18.026678 -9.814101
DOCKED: USER    NEWDPF quaternion0 0.043052 0.787236 -0.543805 0.287545
DOCKED: USER    NEWDPF axisangle0 0.044950 0.821949 -0.567784 146.577883
DOCKED: USER    NEWDPF quat0 0.044950 0.821949 -0.567784 146.577883
DOCKED: USER    NEWDPF dihe0 -33.60 161.16 43.92 -156.22 16.83 -80.75 -62.67 4.10 -177.75 159.62 
DOCKED: USER  keepresnum = 1 
DOCKED: USER  
DOCKED: REMARK  10 active torsions:
DOCKED: REMARK  status: ('A' for Active; 'I' for Inactive)
DOCKED: REMARK    1  A    between atoms: C_6  and  C_10 
DOCKED: REMARK    2  A    between atoms: C_10  and  C_11 
DOCKED: REMARK    3  A    between atoms: C_11  and  C_12 
DOCKED: REMARK    4  A    between atoms: C_12  and  O_14 
DOCKED: REMARK    5  A    between atoms: C_17  and  C_20 
DOCKED: REMARK    6  A    between atoms: C_24  and  C_27 
DOCKED: REMARK    7  A    between atoms: C_31  and  C_34 
DOCKED: REMARK    8  A    between atoms: C_34  and  C_35 
DOCKED: REMARK    9  A    between atoms: C_35  and  C_36 
DOCKED: REMARK   10  A    between atoms: C_36  and  O_38 
DOCKED: USER                              x       y       z     vdW  Elec       q    Type
DOCKED: USER                           _______ _______ _______ _____ _____    ______ ____
DOCKED: ROOT
DOCKED: ATOM      1  C   UNL d   1      -8.769 -19.247 -10.696 -0.21 +0.00    +0.064 C 
DOCKED: ATOM      2  C   UNL d   1     -10.892 -19.042  -6.237 -0.10 +0.00    +0.064 A 
DOCKED: ATOM      3  C   UNL d   1     -14.225 -16.089  -8.036 -0.25 +0.01    +0.064 C 
DOCKED: ATOM      4  C   UNL d   1     -12.126 -16.189 -12.333 -0.14 +0.01    +0.064 C 
DOCKED: ATOM      5  C   UNL d   1      -9.009 -19.397  -9.254 -0.17 -0.00    +0.066 A 
DOCKED: ATOM      6  C   UNL d   1      -8.185 -20.089  -8.382 -0.22 +0.00    -0.021 A 
DOCKED: ATOM      7  C   UNL d   1      -8.777 -20.035  -7.145 -0.17 +0.00    -0.025 A 
DOCKED: ATOM      8  C   UNL d   1      -9.942 -19.310  -7.309 -0.13 -0.00    +0.066 A 
DOCKED: ATOM      9  C   UNL d   1      -8.238 -20.631  -5.881 -0.12 -0.00    +0.051 C 
DOCKED: ATOM     10  C   UNL d   1     -11.993 -18.298  -6.355 -0.09 +0.01    +0.066 A 
DOCKED: ATOM     11  C   UNL d   1     -12.943 -18.153  -5.341 -0.10 -0.00    -0.021 A 
DOCKED: ATOM     12  C   UNL d   1     -13.923 -17.319  -5.841 -0.15 +0.00    +0.000 A 
DOCKED: ATOM     13  C   UNL d   1     -13.521 -17.002  -7.150 -0.17 +0.01    +0.070 A 
DOCKED: ATOM     14  C   UNL d   1     -12.952 -18.832  -3.986 -0.04 +0.00    +0.052 C 
DOCKED: ATOM     15  C   UNL d   1     -13.870 -15.820  -9.314 -0.24 +0.01    +0.066 A 
DOCKED: ATOM     16  C   UNL d   1     -14.510 -14.866 -10.095 -0.25 -0.00    -0.021 A 
DOCKED: ATOM     17  C   UNL d   1     -13.908 -14.896 -11.337 -0.19 +0.00    +0.000 A 
DOCKED: ATOM     18  C   UNL d   1     -12.916 -15.872 -11.285 -0.17 +0.01    +0.070 A 
DOCKED: ATOM     19  C   UNL d   1     -15.660 -13.978  -9.701 -0.20 +0.01    +0.052 C 
DOCKED: ATOM     20  C   UNL d   1     -11.031 -17.166 -12.298 -0.11 +0.01    +0.066 A 
DOCKED: ATOM     21  C   UNL d   1     -10.339 -17.649 -13.418 -0.08 -0.00    -0.025 A 
DOCKED: ATOM     22  C   UNL d   1      -9.379 -18.509 -12.927 -0.16 -0.00    -0.021 A 
DOCKED: ATOM     23  C   UNL d   1      -9.526 -18.522 -11.535 -0.19 +0.01    +0.066 A 
DOCKED: ATOM     24  C   UNL d   1     -10.565 -17.327 -14.877 -0.04 +0.01    +0.051 C 
DOCKED: ATOM     25  N   UNL d   1     -10.075 -18.915  -8.591 -0.08 +0.00    -0.248 N 
DOCKED: ATOM     26  N   UNL d   1     -12.349 -17.605  -7.467 +0.07 -0.04    -0.248 N 
DOCKED: ATOM     27  N   UNL d   1     -12.862 -16.410 -10.029 -0.13 -0.04    -0.248 N 
DOCKED: ATOM     28  N   UNL d   1     -10.564 -17.736 -11.161 -0.11 -0.02    -0.248 N 
DOCKED: ATOM     29 FE   UNL d   1     -11.457 -17.670  -9.315 -0.05 +0.00    +0.000 Fe
DOCKED: ENDROOT
DOCKED: BRANCH   6  30
DOCKED: ATOM     30  C   UNL d   1      -6.888 -20.752  -8.702 -0.25 +0.00    +0.052 C 
DOCKED: BRANCH  30  31
DOCKED: ATOM     31  C   UNL d   1      -7.114 -22.189  -9.157 -0.09 +0.01    +0.115 C 
DOCKED: BRANCH  31  32
DOCKED: ATOM     32  C   UNL d   1      -6.646 -22.372 -10.575 -0.10 +0.03    +0.139 C 
DOCKED: ATOM     33  O   UNL d   1      -5.900 -21.554 -11.095 -0.02 -0.26    -0.650 OA
DOCKED: BRANCH  32  34
DOCKED: ATOM     34  O   UNL d   1      -7.046 -23.440 -11.285 +0.03 -0.21    -0.776 OA
DOCKED: ATOM     35  H   UNL d   1      -7.182 -23.346 -12.238 +0.02 +0.07    +0.167 HD
DOCKED: ENDBRANCH  32  34
DOCKED: ENDBRANCH  31  32
DOCKED: ENDBRANCH  30  31
DOCKED: ENDBRANCH   6  30
DOCKED: BRANCH  22  36
DOCKED: ATOM     36  C   UNL d   1      -8.409 -19.309 -13.755 -0.11 +0.03    +0.052 C 
DOCKED: BRANCH  36  37
DOCKED: ATOM     37  C   UNL d   1      -8.863 -20.760 -13.820 -0.12 +0.06    +0.115 C 
DOCKED: BRANCH  37  38
DOCKED: ATOM     38  C   UNL d   1      -7.873 -21.602 -14.573 +0.01 +0.16    +0.139 C 
DOCKED: ATOM     39  O   UNL d   1      -7.870 -21.620 -15.795 -0.45 -0.86    -0.650 OA
DOCKED: BRANCH  38  40
DOCKED: ATOM     40  O   UNL d   1      -6.979 -22.349 -13.902 -0.35 -1.06    -0.776 OA
DOCKED: ATOM     41  H   UNL d   1      -6.790 -22.139 -12.977 +0.01 +0.15    +0.167 HD
DOCKED: ENDBRANCH  38  40
DOCKED: ENDBRANCH  37  38
DOCKED: ENDBRANCH  36  37
DOCKED: ENDBRANCH  22  36
DOCKED: BRANCH  12  42
DOCKED: ATOM     42  C   UNL d   1     -15.150 -16.897  -5.096 -0.12 +0.00    +0.004 C 
DOCKED: ATOM     43  C   UNL d   1     -15.161 -15.772  -4.368 -0.18 +0.00    +0.012 C 
DOCKED: ENDBRANCH  12  42
DOCKED: BRANCH  17  44
DOCKED: ATOM     44  C   UNL d   1     -14.248 -14.033 -12.490 -0.15 +0.00    +0.004 C 
DOCKED: ATOM     45  C   UNL d   1     -14.981 -14.502 -13.505 -0.08 +0.00    +0.012 C 
DOCKED: ENDBRANCH  17  44
DOCKED: TORSDOF 10
DOCKED: TER
DOCKED: ENDMDL
________________________________________________________________________________


	BEGINNING GENETIC ALGORITHM DOCKING 92 of 100
Run: 92 Seed: 830229648 1872413796 [ Run 92 of 100 GA/GALS ]
Beginning LAMARCKIAN GENETIC ALGORITHM (LGA), with a maximum of 25000000 energy evaluations.

Final-Value: -9.067


	FINAL GENETIC ALGORITHM DOCKED STATE
	_______________________________________________


Detailed state:  trans -13.733 15.621 6.817 quatxyzw -0.452345 -0.463221 -0.228212 0.727138 center -0.174 -0.001 -0.047 ntor 10 -24.3652 -165.1361 -163.9952 -145.4858 179.1936 -118.0867 -70.5574 11.8033 -172.2358 169.0201
State:	-13.733  15.621   6.817  -0.659 -0.675 -0.332 86.706    -24.37 -165.14 -164.00 -145.49  179.19 -118.09  -70.56   11.80 -172.24  169.02

DOCKED: MODEL       92
DOCKED: USER    Run = 92
DOCKED: USER    DPF = D:/Protein_go_brrr/autodock/final/mut_Y35F/heme_Fe/dock.dpf
DOCKED: USER  
DOCKED: USER    Estimated Free Energy of Binding    =   -4.04 kcal/mol  [=(1)+(2)+(3)-(4)]
DOCKED: USER    Estimated Inhibition Constant, Ki   =    1.09 mM (millimolar)  [Temperature = 298.15 K]
DOCKED: USER    
DOCKED: USER    (1) Final Intermolecular Energy     =   -7.02 kcal/mol
DOCKED: USER        vdW + Hbond + desolv Energy     =   -4.14 kcal/mol
DOCKED: USER        Electrostatic Energy            =   -2.89 kcal/mol
DOCKED: USER    (2) Final Total Internal Energy     =   -2.04 kcal/mol
DOCKED: USER    (3) Torsional Free Energy           =   +2.98 kcal/mol
DOCKED: USER    (4) Unbound System's Energy  [=(2)] =   -2.04 kcal/mol
DOCKED: USER    
DOCKED: USER    
DOCKED: USER    NEWDPF move heme_Fe_opt.pdbqt
DOCKED: USER    NEWDPF about -0.174000 -0.001000 -0.047000
DOCKED: USER    NEWDPF tran0 -13.733381 15.621200 6.817028
DOCKED: USER    NEWDPF quaternion0 -0.452345 -0.463221 -0.228212 0.727138
DOCKED: USER    NEWDPF axisangle0 -0.658923 -0.674766 -0.332432 86.705981
DOCKED: USER    NEWDPF quat0 -0.658923 -0.674766 -0.332432 86.705981
DOCKED: USER    NEWDPF dihe0 -24.37 -165.14 -164.00 -145.49 179.19 -118.09 -70.56 11.80 -172.24 169.02 
DOCKED: USER  keepresnum = 1 
DOCKED: USER  
DOCKED: REMARK  10 active torsions:
DOCKED: REMARK  status: ('A' for Active; 'I' for Inactive)
DOCKED: REMARK    1  A    between atoms: C_6  and  C_10 
DOCKED: REMARK    2  A    between atoms: C_10  and  C_11 
DOCKED: REMARK    3  A    between atoms: C_11  and  C_12 
DOCKED: REMARK    4  A    between atoms: C_12  and  O_14 
DOCKED: REMARK    5  A    between atoms: C_17  and  C_20 
DOCKED: REMARK    6  A    between atoms: C_24  and  C_27 
DOCKED: REMARK    7  A    between atoms: C_31  and  C_34 
DOCKED: REMARK    8  A    between atoms: C_34  and  C_35 
DOCKED: REMARK    9  A    between atoms: C_35  and  C_36 
DOCKED: REMARK   10  A    between atoms: C_36  and  O_38 
DOCKED: USER                              x       y       z     vdW  Elec       q    Type
DOCKED: USER                           _______ _______ _______ _____ _____    ______ ____
DOCKED: ROOT
DOCKED: ATOM      1  C   UNL d   1     -14.195  13.867   7.777 -0.05 +0.00    +0.064 C 
DOCKED: ATOM      2  C   UNL d   1     -12.951  15.078   3.149 -0.11 -0.01    +0.064 A 
DOCKED: ATOM      3  C   UNL d   1     -11.472  19.362   4.741 -0.14 -0.01    +0.064 C 
DOCKED: ATOM      4  C   UNL d   1     -12.766  18.250   9.211 -0.12 -0.05    +0.064 C 
DOCKED: ATOM      5  C   UNL d   1     -14.059  13.842   6.314 -0.06 +0.00    +0.066 A 
DOCKED: ATOM      6  C   UNL d   1     -14.488  12.809   5.498 -0.03 -0.00    -0.021 A 
DOCKED: ATOM      7  C   UNL d   1     -14.139  13.144   4.213 -0.04 +0.00    -0.025 A 
DOCKED: ATOM      8  C   UNL d   1     -13.510  14.371   4.295 -0.10 -0.01    +0.066 A 
DOCKED: ATOM      9  C   UNL d   1     -14.416  12.335   2.983 -0.02 +0.00    +0.051 C 
DOCKED: ATOM     10  C   UNL d   1     -12.391  16.288   3.192 -0.08 -0.01    +0.066 A 
DOCKED: ATOM     11  C   UNL d   1     -11.762  16.890   2.100 -0.07 +0.00    -0.021 A 
DOCKED: ATOM     12  C   UNL d   1     -11.312  18.120   2.537 -0.09 -0.00    +0.000 A 
DOCKED: ATOM     13  C   UNL d   1     -11.686  18.202   3.890 -0.06 -0.01    +0.070 A 
DOCKED: ATOM     14  C   UNL d   1     -11.540  16.295   0.724 -0.06 -0.01    +0.052 C 
DOCKED: ATOM     15  C   UNL d   1     -11.783  19.426   6.057 -0.15 -0.02    +0.066 A 
DOCKED: ATOM     16  C   UNL d   1     -11.655  20.585   6.812 -0.10 +0.01    -0.021 A 
DOCKED: ATOM     17  C   UNL d   1     -12.025  20.266   8.102 -0.10 -0.00    +0.000 A 
DOCKED: ATOM     18  C   UNL d   1     -12.366  18.915   8.105 -0.12 -0.05    +0.070 A 
DOCKED: ATOM     19  C   UNL d   1     -11.181  21.935   6.346 -0.04 -0.02    +0.052 C 
DOCKED: ATOM     20  C   UNL d   1     -13.192  16.845   9.240 -0.11 -0.03    +0.066 A 
DOCKED: ATOM     21  C   UNL d   1     -13.415  16.091  10.400 -0.07 +0.01    -0.025 A 
DOCKED: ATOM     22  C   UNL d   1     -13.833  14.849   9.969 -0.05 +0.00    -0.021 A 
DOCKED: ATOM     23  C   UNL d   1     -13.843  14.893   8.569 -0.06 -0.00    +0.066 A 
DOCKED: ATOM     24  C   UNL d   1     -13.242  16.505  11.843 -0.05 -0.02    +0.051 C 
DOCKED: ATOM     25  N   UNL d   1     -13.472  14.798   5.573 -0.09 +0.02    -0.248 N 
DOCKED: ATOM     26  N   UNL d   1     -12.336  17.082   4.292 -0.12 +0.06    -0.248 N 
DOCKED: ATOM     27  N   UNL d   1     -12.260  18.409   6.840 -0.14 +0.11    -0.248 N 
DOCKED: ATOM     28  N   UNL d   1     -13.407  16.098   8.130 -0.08 +0.05    -0.248 N 
DOCKED: ATOM     29 FE   UNL d   1     -12.871  16.591   6.213 -0.03 -0.00    +0.000 Fe
DOCKED: ENDROOT
DOCKED: BRANCH   6  30
DOCKED: ATOM     30  C   UNL d   1     -15.212  11.574   5.912 -0.01 +0.01    +0.052 C 
DOCKED: BRANCH  30  31
DOCKED: ATOM     31  C   UNL d   1     -14.235  10.517   6.415 -0.03 +0.04    +0.115 C 
DOCKED: BRANCH  31  32
DOCKED: ATOM     32  C   UNL d   1     -14.370  10.340   7.902 -0.05 +0.10    +0.139 C 
DOCKED: ATOM     33  O   UNL d   1     -13.682   9.524   8.498 -0.54 -1.07    -0.650 OA
DOCKED: BRANCH  32  34
DOCKED: ATOM     34  O   UNL d   1     -15.253  11.082   8.592 +0.02 -0.39    -0.776 OA
DOCKED: ATOM     35  H   UNL d   1     -15.593  10.746   9.433 +0.01 +0.10    +0.167 HD
DOCKED: ENDBRANCH  32  34
DOCKED: ENDBRANCH  31  32
DOCKED: ENDBRANCH  30  31
DOCKED: ENDBRANCH   6  30
DOCKED: BRANCH  22  36
DOCKED: ATOM     36  C   UNL d   1     -14.158  13.674  10.852 -0.04 +0.01    +0.052 C 
DOCKED: BRANCH  36  37
DOCKED: ATOM     37  C   UNL d   1     -12.929  12.789  11.001 -0.14 +0.05    +0.115 C 
DOCKED: BRANCH  37  38
DOCKED: ATOM     38  C   UNL d   1     -13.283  11.480  11.650 -0.07 +0.17    +0.139 C 
DOCKED: ATOM     39  O   UNL d   1     -12.792  11.161  12.723 -0.78 -0.89    -0.650 OA
DOCKED: BRANCH  38  40
DOCKED: ATOM     40  O   UNL d   1     -14.146  10.644  11.046 +0.09 -1.23    -0.776 OA
DOCKED: ATOM     41  H   UNL d   1     -14.366  10.787  10.115 +0.02 +0.21    +0.167 HD
DOCKED: ENDBRANCH  38  40
DOCKED: ENDBRANCH  37  38
DOCKED: ENDBRANCH  36  37
DOCKED: ENDBRANCH  22  36
DOCKED: BRANCH  12  42
DOCKED: ATOM     42  C   UNL d   1     -10.566  19.107   1.697 -0.07 -0.00    +0.004 C 
DOCKED: ATOM     43  C   UNL d   1      -9.305  19.449   1.992 -0.08 -0.00    +0.012 C 
DOCKED: ENDBRANCH  12  42
DOCKED: BRANCH  17  44
DOCKED: ATOM     44  C   UNL d   1     -12.068  21.197   9.252 -0.07 -0.00    +0.004 C 
DOCKED: ATOM     45  C   UNL d   1     -11.008  21.346  10.053 -0.04 -0.01    +0.012 C 
DOCKED: ENDBRANCH  17  44
DOCKED: TORSDOF 10
DOCKED: TER
DOCKED: ENDMDL
________________________________________________________________________________


	BEGINNING GENETIC ALGORITHM DOCKING 93 of 100
Run: 93 Seed: 1588070865 181735769 [ Run 93 of 100 GA/GALS ]
Beginning LAMARCKIAN GENETIC ALGORITHM (LGA), with a maximum of 25000000 energy evaluations.

Final-Value: -11.126


	FINAL GENETIC ALGORITHM DOCKED STATE
	_______________________________________________


Detailed state:  trans -13.527 7.852 14.170 quatxyzw -0.759542 -0.577333 -0.202037 0.221276 center -0.174 -0.001 -0.047 ntor 10 179.9738 -82.4197 -162.9298 -155.6836 -94.9969 158.7711 -165.0719 87.2829 171.3379 175.4843
State:	-13.527   7.852  14.170  -0.779 -0.592 -0.207 154.432    179.97  -82.42 -162.93 -155.68  -95.00  158.77 -165.07   87.28  171.34  175.48

DOCKED: MODEL       93
DOCKED: USER    Run = 93
DOCKED: USER    DPF = D:/Protein_go_brrr/autodock/final/mut_Y35F/heme_Fe/dock.dpf
DOCKED: USER  
DOCKED: USER    Estimated Free Energy of Binding    =   -6.18 kcal/mol  [=(1)+(2)+(3)-(4)]
DOCKED: USER    Estimated Inhibition Constant, Ki   =   29.38 uM (micromolar)  [Temperature = 298.15 K]
DOCKED: USER    
DOCKED: USER    (1) Final Intermolecular Energy     =   -9.17 kcal/mol
DOCKED: USER        vdW + Hbond + desolv Energy     =   -5.21 kcal/mol
DOCKED: USER        Electrostatic Energy            =   -3.96 kcal/mol
DOCKED: USER    (2) Final Total Internal Energy     =   -1.96 kcal/mol
DOCKED: USER    (3) Torsional Free Energy           =   +2.98 kcal/mol
DOCKED: USER    (4) Unbound System's Energy  [=(2)] =   -1.96 kcal/mol
DOCKED: USER    
DOCKED: USER    
DOCKED: USER    NEWDPF move heme_Fe_opt.pdbqt
DOCKED: USER    NEWDPF about -0.174000 -0.001000 -0.047000
DOCKED: USER    NEWDPF tran0 -13.526511 7.851666 14.169984
DOCKED: USER    NEWDPF quaternion0 -0.759542 -0.577333 -0.202037 0.221276
DOCKED: USER    NEWDPF axisangle0 -0.778849 -0.592008 -0.207173 154.432010
DOCKED: USER    NEWDPF quat0 -0.778849 -0.592008 -0.207173 154.432010
DOCKED: USER    NEWDPF dihe0 179.97 -82.42 -162.93 -155.68 -95.00 158.77 -165.07 87.28 171.34 175.48 
DOCKED: USER  keepresnum = 1 
DOCKED: USER  
DOCKED: REMARK  10 active torsions:
DOCKED: REMARK  status: ('A' for Active; 'I' for Inactive)
DOCKED: REMARK    1  A    between atoms: C_6  and  C_10 
DOCKED: REMARK    2  A    between atoms: C_10  and  C_11 
DOCKED: REMARK    3  A    between atoms: C_11  and  C_12 
DOCKED: REMARK    4  A    between atoms: C_12  and  O_14 
DOCKED: REMARK    5  A    between atoms: C_17  and  C_20 
DOCKED: REMARK    6  A    between atoms: C_24  and  C_27 
DOCKED: REMARK    7  A    between atoms: C_31  and  C_34 
DOCKED: REMARK    8  A    between atoms: C_34  and  C_35 
DOCKED: REMARK    9  A    between atoms: C_35  and  C_36 
DOCKED: REMARK   10  A    between atoms: C_36  and  O_38 
DOCKED: USER                              x       y       z     vdW  Elec       q    Type
DOCKED: USER                           _______ _______ _______ _____ _____    ______ ____
DOCKED: ROOT
DOCKED: ATOM      1  C   UNL d   1     -13.772   5.896  13.598 -0.15 +0.05    +0.064 C 
DOCKED: ATOM      2  C   UNL d   1     -15.581  10.229  12.052 -0.05 +0.05    +0.064 A 
DOCKED: ATOM      3  C   UNL d   1     -12.150  12.475  14.552 -0.09 +0.02    +0.064 C 
DOCKED: ATOM      4  C   UNL d   1     -10.448   8.297  16.145 -0.15 +0.02    +0.064 C 
DOCKED: ATOM      5  C   UNL d   1     -14.651   6.910  12.998 -0.09 +0.07    +0.066 A 
DOCKED: ATOM      6  C   UNL d   1     -15.812   6.635  12.295 -0.07 -0.02    -0.021 A 
DOCKED: ATOM      7  C   UNL d   1     -16.312   7.838  11.863 -0.05 -0.02    -0.025 A 
DOCKED: ATOM      8  C   UNL d   1     -15.435   8.803  12.319 -0.04 +0.07    +0.066 A 
DOCKED: ATOM      9  C   UNL d   1     -17.569   8.040  11.074 -0.01 +0.02    +0.051 C 
DOCKED: ATOM     10  C   UNL d   1     -14.782  11.185  12.528 -0.07 +0.05    +0.066 A 
DOCKED: ATOM     11  C   UNL d   1     -14.880  12.530  12.161 -0.03 -0.01    -0.021 A 
DOCKED: ATOM     12  C   UNL d   1     -13.890  13.196  12.856 -0.05 +0.00    +0.000 A 
DOCKED: ATOM     13  C   UNL d   1     -13.229  12.213  13.612 -0.09 +0.03    +0.070 A 
DOCKED: ATOM     14  C   UNL d   1     -15.825  13.139  11.146 -0.00 +0.01    +0.052 C 
DOCKED: ATOM     15  C   UNL d   1     -11.476  11.526  15.243 -0.07 +0.02    +0.066 A 
DOCKED: ATOM     16  C   UNL d   1     -10.520  11.824  16.206 -0.07 -0.00    -0.021 A 
DOCKED: ATOM     17  C   UNL d   1     -10.025  10.620  16.664 -0.08 +0.00    +0.000 A 
DOCKED: ATOM     18  C   UNL d   1     -10.689   9.614  15.966 -0.11 +0.02    +0.070 A 
DOCKED: ATOM     19  C   UNL d   1     -10.069  13.185  16.661 -0.05 +0.01    +0.052 C 
DOCKED: ATOM     20  C   UNL d   1     -11.170   7.210  15.473 -0.15 +0.03    +0.066 A 
DOCKED: ATOM     21  C   UNL d   1     -10.801   5.857  15.496 -0.21 -0.01    -0.025 A 
DOCKED: ATOM     22  C   UNL d   1     -11.769   5.190  14.775 -0.22 -0.01    -0.021 A 
DOCKED: ATOM     23  C   UNL d   1     -12.682   6.157  14.337 -0.12 +0.05    +0.066 A 
DOCKED: ATOM     24  C   UNL d   1      -9.601   5.218  16.155 -0.27 +0.01    +0.051 C 
DOCKED: ATOM     25  N   UNL d   1     -14.431   8.236  13.018 +0.04 -0.37    -0.248 N 
DOCKED: ATOM     26  N   UNL d   1     -13.766  10.986  13.406 -0.09 -0.20    -0.248 N 
DOCKED: ATOM     27  N   UNL d   1     -11.612  10.169  15.123 -0.11 -0.12    -0.248 N 
DOCKED: ATOM     28  N   UNL d   1     -12.287   7.393  14.728 -0.10 -0.17    -0.248 N 
DOCKED: ATOM     29 FE   UNL d   1     -13.025   9.189  14.068 -0.03 +0.00    +0.000 Fe
DOCKED: ENDROOT
DOCKED: BRANCH   6  30
DOCKED: ATOM     30  C   UNL d   1     -16.429   5.298  12.063 -0.10 +0.03    +0.052 C 
DOCKED: BRANCH  30  31
DOCKED: ATOM     31  C   UNL d   1     -16.077   4.774  10.675 -0.17 +0.11    +0.115 C 
DOCKED: BRANCH  31  32
DOCKED: ATOM     32  C   UNL d   1     -14.937   5.560  10.089 -0.16 +0.20    +0.139 C 
DOCKED: ATOM     33  O   UNL d   1     -15.150   6.506   9.343 -0.00 -0.77    -0.650 OA
DOCKED: BRANCH  32  34
DOCKED: ATOM     34  O   UNL d   1     -13.668   5.229  10.383 -0.16 -1.73    -0.776 OA
DOCKED: ATOM     35  H   UNL d   1     -13.503   4.481  10.974 +0.07 +0.42    +0.167 HD
DOCKED: ENDBRANCH  32  34
DOCKED: ENDBRANCH  31  32
DOCKED: ENDBRANCH  30  31
DOCKED: ENDBRANCH   6  30
DOCKED: BRANCH  22  36
DOCKED: ATOM     36  C   UNL d   1     -11.786   3.713  14.482 -0.37 +0.02    +0.052 C 
DOCKED: BRANCH  36  37
DOCKED: ATOM     37  C   UNL d   1     -10.996   3.431  13.213 -0.50 +0.08    +0.115 C 
DOCKED: BRANCH  37  38
DOCKED: ATOM     38  C   UNL d   1     -11.898   3.411  12.011 -0.43 +0.18    +0.139 C 
DOCKED: ATOM     39  O   UNL d   1     -11.448   3.588  10.889 -0.24 -1.27    -0.650 OA
DOCKED: BRANCH  38  40
DOCKED: ATOM     40  O   UNL d   1     -13.217   3.200  12.165 -0.32 -1.03    -0.776 OA
DOCKED: ATOM     41  H   UNL d   1     -13.815   3.960  12.191 +0.06 +0.21    +0.167 HD
DOCKED: ENDBRANCH  38  40
DOCKED: ENDBRANCH  37  38
DOCKED: ENDBRANCH  36  37
DOCKED: ENDBRANCH  22  36
DOCKED: BRANCH  12  42
DOCKED: ATOM     42  C   UNL d   1     -13.618  14.664  12.761 -0.03 -0.00    +0.004 C 
DOCKED: ATOM     43  C   UNL d   1     -12.464  15.119  12.257 -0.09 -0.00    +0.012 C 
DOCKED: ENDBRANCH  12  42
DOCKED: BRANCH  17  44
DOCKED: ATOM     44  C   UNL d   1      -8.999  10.444  17.716 -0.05 +0.00    +0.004 C 
DOCKED: ATOM     45  C   UNL d   1      -7.732  10.161  17.397 -0.09 +0.00    +0.012 C 
DOCKED: ENDBRANCH  17  44
DOCKED: TORSDOF 10
DOCKED: TER
DOCKED: ENDMDL
________________________________________________________________________________


	BEGINNING GENETIC ALGORITHM DOCKING 94 of 100
Run: 94 Seed: 1988490607 531295257 [ Run 94 of 100 GA/GALS ]
Beginning LAMARCKIAN GENETIC ALGORITHM (LGA), with a maximum of 25000000 energy evaluations.

Final-Value: -12.748


	FINAL GENETIC ALGORITHM DOCKED STATE
	_______________________________________________


Detailed state:  trans 11.915 12.990 8.367 quatxyzw -0.687891 -0.051193 0.713387 0.123550 center -0.174 -0.001 -0.047 ntor 10 -7.4271 -150.3337 60.6875 -135.6004 115.4639 -175.8709 74.8274 45.4223 -28.0244 166.0458
State:	 11.915  12.990   8.367  -0.693 -0.052  0.719 165.806     -7.43 -150.33   60.69 -135.60  115.46 -175.87   74.83   45.42  -28.02  166.05

DOCKED: MODEL       94
DOCKED: USER    Run = 94
DOCKED: USER    DPF = D:/Protein_go_brrr/autodock/final/mut_Y35F/heme_Fe/dock.dpf
DOCKED: USER  
DOCKED: USER    Estimated Free Energy of Binding    =   -7.72 kcal/mol  [=(1)+(2)+(3)-(4)]
DOCKED: USER    Estimated Inhibition Constant, Ki   =    2.21 uM (micromolar)  [Temperature = 298.15 K]
DOCKED: USER    
DOCKED: USER    (1) Final Intermolecular Energy     =  -10.70 kcal/mol
DOCKED: USER        vdW + Hbond + desolv Energy     =   -7.79 kcal/mol
DOCKED: USER        Electrostatic Energy            =   -2.90 kcal/mol
DOCKED: USER    (2) Final Total Internal Energy     =   -2.05 kcal/mol
DOCKED: USER    (3) Torsional Free Energy           =   +2.98 kcal/mol
DOCKED: USER    (4) Unbound System's Energy  [=(2)] =   -2.05 kcal/mol
DOCKED: USER    
DOCKED: USER    
DOCKED: USER    NEWDPF move heme_Fe_opt.pdbqt
DOCKED: USER    NEWDPF about -0.174000 -0.001000 -0.047000
DOCKED: USER    NEWDPF tran0 11.915102 12.989853 8.366582
DOCKED: USER    NEWDPF quaternion0 -0.687891 -0.051193 0.713387 0.123550
DOCKED: USER    NEWDPF axisangle0 -0.693202 -0.051589 0.718895 165.805958
DOCKED: USER    NEWDPF quat0 -0.693202 -0.051589 0.718895 165.805958
DOCKED: USER    NEWDPF dihe0 -7.43 -150.33 60.69 -135.60 115.46 -175.87 74.83 45.42 -28.02 166.05 
DOCKED: USER  keepresnum = 1 
DOCKED: USER  
DOCKED: REMARK  10 active torsions:
DOCKED: REMARK  status: ('A' for Active; 'I' for Inactive)
DOCKED: REMARK    1  A    between atoms: C_6  and  C_10 
DOCKED: REMARK    2  A    between atoms: C_10  and  C_11 
DOCKED: REMARK    3  A    between atoms: C_11  and  C_12 
DOCKED: REMARK    4  A    between atoms: C_12  and  O_14 
DOCKED: REMARK    5  A    between atoms: C_17  and  C_20 
DOCKED: REMARK    6  A    between atoms: C_24  and  C_27 
DOCKED: REMARK    7  A    between atoms: C_31  and  C_34 
DOCKED: REMARK    8  A    between atoms: C_34  and  C_35 
DOCKED: REMARK    9  A    between atoms: C_35  and  C_36 
DOCKED: REMARK   10  A    between atoms: C_36  and  O_38 
DOCKED: USER                              x       y       z     vdW  Elec       q    Type
DOCKED: USER                           _______ _______ _______ _____ _____    ______ ____
DOCKED: ROOT
DOCKED: ATOM      1  C   UNL d   1      11.431  13.127  10.356 -0.20 +0.02    +0.064 C 
DOCKED: ATOM      2  C   UNL d   1      10.714  15.994   6.394 -0.17 -0.01    +0.064 A 
DOCKED: ATOM      3  C   UNL d   1      11.871  12.276   3.581 -0.25 -0.01    +0.064 C 
DOCKED: ATOM      4  C   UNL d   1      12.672   9.515   7.404 -0.06 +0.01    +0.064 C 
DOCKED: ATOM      5  C   UNL d   1      11.203  14.302   9.504 -0.21 +0.01    +0.066 A 
DOCKED: ATOM      6  C   UNL d   1      10.955  15.582   9.972 -0.23 -0.00    -0.021 A 
DOCKED: ATOM      7  C   UNL d   1      10.752  16.377   8.871 -0.22 +0.00    -0.025 A 
DOCKED: ATOM      8  C   UNL d   1      10.885  15.551   7.772 -0.23 -0.00    +0.066 A 
DOCKED: ATOM      9  C   UNL d   1      10.467  17.848   8.884 -0.20 -0.00    +0.051 C 
DOCKED: ATOM     10  C   UNL d   1      10.893  15.231   5.314 -0.18 -0.01    +0.066 A 
DOCKED: ATOM     11  C   UNL d   1      10.611  15.652   4.012 -0.22 +0.00    -0.021 A 
DOCKED: ATOM     12  C   UNL d   1      10.920  14.592   3.183 -0.26 -0.00    +0.000 A 
DOCKED: ATOM     13  C   UNL d   1      11.371  13.566   4.032 -0.18 -0.01    +0.070 A 
DOCKED: ATOM     14  C   UNL d   1      10.011  16.976   3.584 -0.23 -0.01    +0.052 C 
DOCKED: ATOM     15  C   UNL d   1      12.257  11.267   4.396 -0.18 -0.00    +0.066 A 
DOCKED: ATOM     16  C   UNL d   1      12.822  10.087   3.927 -0.27 -0.00    -0.021 A 
DOCKED: ATOM     17  C   UNL d   1      13.051   9.288   5.028 -0.16 +0.00    +0.000 A 
DOCKED: ATOM     18  C   UNL d   1      12.615   9.998   6.144 -0.08 +0.01    +0.070 A 
DOCKED: ATOM     19  C   UNL d   1      13.113   9.713   2.498 -0.51 -0.00    +0.052 C 
DOCKED: ATOM     20  C   UNL d   1      12.280  10.257   8.609 -0.07 +0.01    +0.066 A 
DOCKED: ATOM     21  C   UNL d   1      12.144   9.706   9.891 -0.06 -0.01    -0.025 A 
DOCKED: ATOM     22  C   UNL d   1      11.802  10.755  10.719 -0.10 -0.01    -0.021 A 
DOCKED: ATOM     23  C   UNL d   1      11.738  11.898   9.912 -0.12 +0.02    +0.066 A 
DOCKED: ATOM     24  C   UNL d   1      12.320   8.268  10.323 -0.05 +0.02    +0.051 C 
DOCKED: ATOM     25  N   UNL d   1      11.169  14.291   8.160 -0.12 -0.02    -0.248 N 
DOCKED: ATOM     26  N   UNL d   1      11.347  13.952   5.331 -0.01 +0.01    -0.248 N 
DOCKED: ATOM     27  N   UNL d   1      12.168  11.232   5.761 -0.06 -0.02    -0.248 N 
DOCKED: ATOM     28  N   UNL d   1      11.986  11.579   8.619 -0.07 -0.04    -0.248 N 
DOCKED: ATOM     29 FE   UNL d   1      11.667  12.764   6.975 -0.04 +0.00    +0.000 Fe
DOCKED: ENDROOT
DOCKED: BRANCH   6  30
DOCKED: ATOM     30  C   UNL d   1      10.932  16.034  11.392 -0.16 +0.02    +0.052 C 
DOCKED: BRANCH  30  31
DOCKED: ATOM     31  C   UNL d   1      12.291  15.819  12.050 -0.09 +0.04    +0.115 C 
DOCKED: BRANCH  31  32
DOCKED: ATOM     32  C   UNL d   1      12.243  14.639  12.981 -0.10 +0.09    +0.139 C 
DOCKED: ATOM     33  O   UNL d   1      12.912  13.641  12.756 -0.00 -0.29    -0.650 OA
DOCKED: BRANCH  32  34
DOCKED: ATOM     34  O   UNL d   1      11.461  14.673  14.073 -0.51 -1.28    -0.776 OA
DOCKED: ATOM     35  H   UNL d   1      11.358  13.869  14.602 +0.00 +0.33    +0.167 HD
DOCKED: ENDBRANCH  32  34
DOCKED: ENDBRANCH  31  32
DOCKED: ENDBRANCH  30  31
DOCKED: ENDBRANCH   6  30
DOCKED: BRANCH  22  36
DOCKED: ATOM     36  C   UNL d   1      11.507  10.653  12.192 -0.10 +0.02    +0.052 C 
DOCKED: BRANCH  36  37
DOCKED: ATOM     37  C   UNL d   1      10.004  10.567  12.409 -0.06 +0.06    +0.115 C 
DOCKED: BRANCH  37  38
DOCKED: ATOM     38  C   UNL d   1       9.569  11.467  13.531 -0.09 +0.17    +0.139 C 
DOCKED: ATOM     39  O   UNL d   1       8.406  11.481  13.906 -0.60 -0.90    -0.650 OA
DOCKED: BRANCH  38  40
DOCKED: ATOM     40  O   UNL d   1      10.464  12.271  14.131 -0.01 -1.33    -0.776 OA
DOCKED: ATOM     41  H   UNL d   1      11.219  12.597  13.622 +0.01 +0.20    +0.167 HD
DOCKED: ENDBRANCH  38  40
DOCKED: ENDBRANCH  37  38
DOCKED: ENDBRANCH  36  37
DOCKED: ENDBRANCH  22  36
DOCKED: BRANCH  12  42
DOCKED: ATOM     42  C   UNL d   1      10.763  14.594   1.696 -0.41 -0.00    +0.004 C 
DOCKED: ATOM     43  C   UNL d   1      11.832  14.632   0.890 -0.40 -0.01    +0.012 C 
DOCKED: ENDBRANCH  12  42
DOCKED: BRANCH  17  44
DOCKED: ATOM     44  C   UNL d   1      13.664   7.941   5.014 -0.24 +0.00    +0.004 C 
DOCKED: ATOM     45  C   UNL d   1      12.936   6.859   4.719 -0.31 +0.00    +0.012 C 
DOCKED: ENDBRANCH  17  44
DOCKED: TORSDOF 10
DOCKED: TER
DOCKED: ENDMDL
________________________________________________________________________________


	BEGINNING GENETIC ALGORITHM DOCKING 95 of 100
Run: 95 Seed: 530392824 1401839011 [ Run 95 of 100 GA/GALS ]
Beginning LAMARCKIAN GENETIC ALGORITHM (LGA), with a maximum of 25000000 energy evaluations.

Final-Value: -11.213


	FINAL GENETIC ALGORITHM DOCKED STATE
	_______________________________________________


Detailed state:  trans -9.986 5.233 17.438 quatxyzw 0.884935 -0.261106 0.326234 -0.205635 center -0.174 -0.001 -0.047 ntor 10 -154.1432 -142.5862 -150.6783 -161.1594 -121.1325 -131.5618 21.5783 36.1826 -3.4342 144.9615
State:	 -9.986   5.233  17.438   0.904 -0.267  0.333 -156.267   -154.14 -142.59 -150.68 -161.16 -121.13 -131.56   21.58   36.18   -3.43  144.96

DOCKED: MODEL       95
DOCKED: USER    Run = 95
DOCKED: USER    DPF = D:/Protein_go_brrr/autodock/final/mut_Y35F/heme_Fe/dock.dpf
DOCKED: USER  
DOCKED: USER    Estimated Free Energy of Binding    =   -6.79 kcal/mol  [=(1)+(2)+(3)-(4)]
DOCKED: USER    Estimated Inhibition Constant, Ki   =   10.58 uM (micromolar)  [Temperature = 298.15 K]
DOCKED: USER    
DOCKED: USER    (1) Final Intermolecular Energy     =   -9.77 kcal/mol
DOCKED: USER        vdW + Hbond + desolv Energy     =   -6.18 kcal/mol
DOCKED: USER        Electrostatic Energy            =   -3.60 kcal/mol
DOCKED: USER    (2) Final Total Internal Energy     =   -1.44 kcal/mol
DOCKED: USER    (3) Torsional Free Energy           =   +2.98 kcal/mol
DOCKED: USER    (4) Unbound System's Energy  [=(2)] =   -1.44 kcal/mol
DOCKED: USER    
DOCKED: USER    
DOCKED: USER    NEWDPF move heme_Fe_opt.pdbqt
DOCKED: USER    NEWDPF about -0.174000 -0.001000 -0.047000
DOCKED: USER    NEWDPF tran0 -9.985814 5.233466 17.438387
DOCKED: USER    NEWDPF quaternion0 0.884935 -0.261106 0.326234 -0.205635
DOCKED: USER    NEWDPF axisangle0 0.904260 -0.266808 0.333358 -156.266597
DOCKED: USER    NEWDPF quat0 0.904260 -0.266808 0.333358 -156.266597
DOCKED: USER    NEWDPF dihe0 -154.14 -142.59 -150.68 -161.16 -121.13 -131.56 21.58 36.18 -3.43 144.96 
DOCKED: USER  keepresnum = 1 
DOCKED: USER  
DOCKED: REMARK  10 active torsions:
DOCKED: REMARK  status: ('A' for Active; 'I' for Inactive)
DOCKED: REMARK    1  A    between atoms: C_6  and  C_10 
DOCKED: REMARK    2  A    between atoms: C_10  and  C_11 
DOCKED: REMARK    3  A    between atoms: C_11  and  C_12 
DOCKED: REMARK    4  A    between atoms: C_12  and  O_14 
DOCKED: REMARK    5  A    between atoms: C_17  and  C_20 
DOCKED: REMARK    6  A    between atoms: C_24  and  C_27 
DOCKED: REMARK    7  A    between atoms: C_31  and  C_34 
DOCKED: REMARK    8  A    between atoms: C_34  and  C_35 
DOCKED: REMARK    9  A    between atoms: C_35  and  C_36 
DOCKED: REMARK   10  A    between atoms: C_36  and  O_38 
DOCKED: USER                              x       y       z     vdW  Elec       q    Type
DOCKED: USER                           _______ _______ _______ _____ _____    ______ ____
DOCKED: ROOT
DOCKED: ATOM      1  C   UNL d   1     -10.990   5.645  15.697 -0.24 +0.02    +0.064 C 
DOCKED: ATOM      2  C   UNL d   1      -6.722   7.141  17.690 -0.17 +0.01    +0.064 A 
DOCKED: ATOM      3  C   UNL d   1      -6.974   3.490  20.800 -0.07 +0.00    +0.064 C 
DOCKED: ATOM      4  C   UNL d   1     -11.158   2.087  18.954 -0.12 +0.00    +0.064 C 
DOCKED: ATOM      5  C   UNL d   1      -9.807   6.454  16.023 -0.21 +0.02    +0.066 A 
DOCKED: ATOM      6  C   UNL d   1      -9.472   7.648  15.408 -0.20 -0.01    -0.021 A 
DOCKED: ATOM      7  C   UNL d   1      -8.284   8.061  15.959 -0.25 -0.00    -0.025 A 
DOCKED: ATOM      8  C   UNL d   1      -7.941   7.102  16.892 -0.20 +0.01    +0.066 A 
DOCKED: ATOM      9  C   UNL d   1      -7.541   9.316  15.617 -0.28 +0.01    +0.051 C 
DOCKED: ATOM     10  C   UNL d   1      -6.395   6.260  18.636 -0.12 +0.00    +0.066 A 
DOCKED: ATOM     11  C   UNL d   1      -5.167   6.259  19.304 -0.11 -0.00    -0.021 A 
DOCKED: ATOM     12  C   UNL d   1      -5.208   5.205  20.195 -0.07 +0.00    +0.000 A 
DOCKED: ATOM     13  C   UNL d   1      -6.468   4.606  20.017 -0.09 +0.00    +0.070 A 
DOCKED: ATOM     14  C   UNL d   1      -3.986   7.175  19.057 -0.11 -0.00    +0.052 C 
DOCKED: ATOM     15  C   UNL d   1      -8.164   2.877  20.598 -0.07 +0.01    +0.066 A 
DOCKED: ATOM     16  C   UNL d   1      -8.655   1.880  21.431 -0.05 -0.00    -0.021 A 
DOCKED: ATOM     17  C   UNL d   1      -9.860   1.471  20.899 -0.07 +0.00    +0.000 A 
DOCKED: ATOM     18  C   UNL d   1     -10.075   2.228  19.749 -0.09 +0.00    +0.070 A 
DOCKED: ATOM     19  C   UNL d   1      -8.007   1.313  22.666 -0.01 +0.00    +0.052 C 
DOCKED: ATOM     20  C   UNL d   1     -11.448   2.907  17.772 -0.09 -0.00    +0.066 A 
DOCKED: ATOM     21  C   UNL d   1     -12.454   2.645  16.831 -0.18 -0.00    -0.025 A 
DOCKED: ATOM     22  C   UNL d   1     -12.396   3.678  15.919 -0.18 -0.00    -0.021 A 
DOCKED: ATOM     23  C   UNL d   1     -11.358   4.522  16.333 -0.16 +0.01    +0.066 A 
DOCKED: ATOM     24  C   UNL d   1     -13.420   1.484  16.782 -0.19 +0.00    +0.051 C 
DOCKED: ATOM     25  N   UNL d   1      -8.874   6.130  16.935 -0.16 -0.03    -0.248 N 
DOCKED: ATOM     26  N   UNL d   1      -7.188   5.243  19.061 -0.09 -0.02    -0.248 N 
DOCKED: ATOM     27  N   UNL d   1      -9.054   3.123  19.587 -0.07 -0.02    -0.248 N 
DOCKED: ATOM     28  N   UNL d   1     -10.754   4.022  17.438 -0.05 +0.01    -0.248 N 
DOCKED: ATOM     29 FE   UNL d   1      -8.972   4.631  18.250 -0.04 +0.00    +0.000 Fe
DOCKED: ENDROOT
DOCKED: BRANCH   6  30
DOCKED: ATOM     30  C   UNL d   1     -10.249   8.374  14.363 +0.06 +0.03    +0.052 C 
DOCKED: BRANCH  30  31
DOCKED: ATOM     31  C   UNL d   1     -11.297   9.279  15.001 -0.19 +0.06    +0.115 C 
DOCKED: BRANCH  31  32
DOCKED: ATOM     32  C   UNL d   1     -12.392   9.590  14.018 -0.15 +0.15    +0.139 C 
DOCKED: ATOM     33  O   UNL d   1     -12.642  10.746  13.709 -0.53 -0.65    -0.650 OA
DOCKED: BRANCH  32  34
DOCKED: ATOM     34  O   UNL d   1     -13.108   8.595  13.469 -0.27 -1.33    -0.776 OA
DOCKED: ATOM     35  H   UNL d   1     -13.196   7.759  13.949 +0.02 +0.19    +0.167 HD
DOCKED: ENDBRANCH  32  34
DOCKED: ENDBRANCH  31  32
DOCKED: ENDBRANCH  30  31
DOCKED: ENDBRANCH   6  30
DOCKED: BRANCH  22  36
DOCKED: ATOM     36  C   UNL d   1     -13.258   3.817  14.692 -0.19 +0.02    +0.052 C 
DOCKED: BRANCH  36  37
DOCKED: ATOM     37  C   UNL d   1     -12.386   3.794  13.446 -0.34 +0.08    +0.115 C 
DOCKED: BRANCH  37  38
DOCKED: ATOM     38  C   UNL d   1     -12.931   4.712  12.389 -0.24 +0.17    +0.139 C 
DOCKED: ATOM     39  O   UNL d   1     -13.062   4.329  11.235 -0.54 -1.51    -0.650 OA
DOCKED: BRANCH  38  40
DOCKED: ATOM     40  O   UNL d   1     -13.278   5.971  12.708 +0.03 -1.00    -0.776 OA
DOCKED: ATOM     41  H   UNL d   1     -12.744   6.458  13.351 +0.04 +0.20    +0.167 HD
DOCKED: ENDBRANCH  38  40
DOCKED: ENDBRANCH  37  38
DOCKED: ENDBRANCH  36  37
DOCKED: ENDBRANCH  22  36
DOCKED: BRANCH  12  42
DOCKED: ATOM     42  C   UNL d   1      -4.096   4.820  21.118 -0.03 -0.00    +0.004 C 
DOCKED: ATOM     43  C   UNL d   1      -3.308   3.771  20.848 -0.04 -0.00    +0.012 C 
DOCKED: ENDBRANCH  12  42
DOCKED: BRANCH  17  44
DOCKED: ATOM     44  C   UNL d   1     -10.758   0.439  21.465 -0.03 +0.00    +0.004 C 
DOCKED: ATOM     45  C   UNL d   1     -10.874  -0.760  20.885 -0.04 +0.00    +0.012 C 
DOCKED: ENDBRANCH  17  44
DOCKED: TORSDOF 10
DOCKED: TER
DOCKED: ENDMDL
________________________________________________________________________________


	BEGINNING GENETIC ALGORITHM DOCKING 96 of 100
Run: 96 Seed: 1818533037 1232466765 [ Run 96 of 100 GA/GALS ]
Beginning LAMARCKIAN GENETIC ALGORITHM (LGA), with a maximum of 25000000 energy evaluations.

Final-Value: -11.746


	FINAL GENETIC ALGORITHM DOCKED STATE
	_______________________________________________


Detailed state:  trans 8.434 5.458 10.118 quatxyzw 0.322062 -0.538758 -0.745818 -0.223097 center -0.174 -0.001 -0.047 ntor 10 -148.9719 -177.3401 -126.1783 -140.7459 -99.8917 12.0329 149.6090 40.7394 2.8702 -176.5274
State:	  8.434   5.458  10.118   0.330 -0.553 -0.765 -154.218   -148.97 -177.34 -126.18 -140.75  -99.89   12.03  149.61   40.74    2.87 -176.53

DOCKED: MODEL       96
DOCKED: USER    Run = 96
DOCKED: USER    DPF = D:/Protein_go_brrr/autodock/final/mut_Y35F/heme_Fe/dock.dpf
DOCKED: USER  
DOCKED: USER    Estimated Free Energy of Binding    =   -8.26 kcal/mol  [=(1)+(2)+(3)-(4)]
DOCKED: USER    Estimated Inhibition Constant, Ki   =  883.18 nM (nanomolar)  [Temperature = 298.15 K]
DOCKED: USER    
DOCKED: USER    (1) Final Intermolecular Energy     =  -11.24 kcal/mol
DOCKED: USER        vdW + Hbond + desolv Energy     =   -8.47 kcal/mol
DOCKED: USER        Electrostatic Energy            =   -2.77 kcal/mol
DOCKED: USER    (2) Final Total Internal Energy     =   -0.50 kcal/mol
DOCKED: USER    (3) Torsional Free Energy           =   +2.98 kcal/mol
DOCKED: USER    (4) Unbound System's Energy  [=(2)] =   -0.50 kcal/mol
DOCKED: USER    
DOCKED: USER    
DOCKED: USER    NEWDPF move heme_Fe_opt.pdbqt
DOCKED: USER    NEWDPF about -0.174000 -0.001000 -0.047000
DOCKED: USER    NEWDPF tran0 8.433775 5.457909 10.117911
DOCKED: USER    NEWDPF quaternion0 0.322062 -0.538758 -0.745818 -0.223097
DOCKED: USER    NEWDPF axisangle0 0.330389 -0.552688 -0.765101 -154.217978
DOCKED: USER    NEWDPF quat0 0.330389 -0.552688 -0.765101 -154.217978
DOCKED: USER    NEWDPF dihe0 -148.97 -177.34 -126.18 -140.75 -99.89 12.03 149.61 40.74 2.87 -176.53 
DOCKED: USER  keepresnum = 1 
DOCKED: USER  
DOCKED: REMARK  10 active torsions:
DOCKED: REMARK  status: ('A' for Active; 'I' for Inactive)
DOCKED: REMARK    1  A    between atoms: C_6  and  C_10 
DOCKED: REMARK    2  A    between atoms: C_10  and  C_11 
DOCKED: REMARK    3  A    between atoms: C_11  and  C_12 
DOCKED: REMARK    4  A    between atoms: C_12  and  O_14 
DOCKED: REMARK    5  A    between atoms: C_17  and  C_20 
DOCKED: REMARK    6  A    between atoms: C_24  and  C_27 
DOCKED: REMARK    7  A    between atoms: C_31  and  C_34 
DOCKED: REMARK    8  A    between atoms: C_34  and  C_35 
DOCKED: REMARK    9  A    between atoms: C_35  and  C_36 
DOCKED: REMARK   10  A    between atoms: C_36  and  O_38 
DOCKED: USER                              x       y       z     vdW  Elec       q    Type
DOCKED: USER                           _______ _______ _______ _____ _____    ______ ____
DOCKED: ROOT
DOCKED: ATOM      1  C   UNL d   1       9.424   7.175  10.650 -0.04 +0.06    +0.064 C 
DOCKED: ATOM      2  C   UNL d   1       7.080   5.628   6.583 -0.31 +0.03    +0.064 A 
DOCKED: ATOM      3  C   UNL d   1       5.092   2.094   9.156 -0.10 +0.01    +0.064 C 
DOCKED: ATOM      4  C   UNL d   1       7.432   3.510  13.081 -0.13 +0.03    +0.064 C 
DOCKED: ATOM      5  C   UNL d   1       9.014   7.017   9.248 -0.08 +0.06    +0.066 A 
DOCKED: ATOM      6  C   UNL d   1       9.479   7.789   8.197 -0.22 -0.01    -0.021 A 
DOCKED: ATOM      7  C   UNL d   1       8.825   7.362   7.068 -0.29 -0.01    -0.025 A 
DOCKED: ATOM      8  C   UNL d   1       7.985   6.343   7.474 -0.31 +0.04    +0.066 A 
DOCKED: ATOM      9  C   UNL d   1       9.016   7.894   5.681 -0.29 +0.01    +0.051 C 
DOCKED: ATOM     10  C   UNL d   1       6.303   4.604   6.938 -0.37 +0.02    +0.066 A 
DOCKED: ATOM     11  C   UNL d   1       5.363   4.014   6.089 -0.41 -0.00    -0.021 A 
DOCKED: ATOM     12  C   UNL d   1       4.764   3.002   6.813 -0.48 +0.00    +0.000 A 
DOCKED: ATOM     13  C   UNL d   1       5.369   3.033   8.081 -0.34 +0.02    +0.070 A 
DOCKED: ATOM     14  C   UNL d   1       5.004   4.437   4.679 -0.28 +0.01    +0.052 C 
DOCKED: ATOM     15  C   UNL d   1       5.633   2.151  10.396 -0.23 +0.01    +0.066 A 
DOCKED: ATOM     16  C   UNL d   1       5.419   1.177  11.363 -0.24 -0.00    -0.021 A 
DOCKED: ATOM     17  C   UNL d   1       6.091   1.586  12.497 -0.15 +0.00    +0.000 A 
DOCKED: ATOM     18  C   UNL d   1       6.696   2.803  12.195 -0.16 +0.02    +0.070 A 
DOCKED: ATOM     19  C   UNL d   1       4.596  -0.076  11.238 -0.24 -0.02    +0.052 C 
DOCKED: ATOM     20  C   UNL d   1       8.135   4.764  12.781 -0.13 +0.04    +0.066 A 
DOCKED: ATOM     21  C   UNL d   1       8.730   5.606  13.731 -0.08 -0.01    -0.025 A 
DOCKED: ATOM     22  C   UNL d   1       9.303   6.637  13.015 -0.10 -0.01    -0.021 A 
DOCKED: ATOM     23  C   UNL d   1       9.030   6.388  11.665 -0.12 +0.06    +0.066 A 
DOCKED: ATOM     24  C   UNL d   1       8.760   5.459  15.234 -0.04 +0.01    +0.051 C 
DOCKED: ATOM     25  N   UNL d   1       8.110   6.129   8.800 -0.18 -0.24    -0.248 N 
DOCKED: ATOM     26  N   UNL d   1       6.301   4.015   8.161 -0.21 -0.12    -0.248 N 
DOCKED: ATOM     27  N   UNL d   1       6.452   3.130  10.891 -0.13 -0.12    -0.248 N 
DOCKED: ATOM     28  N   UNL d   1       8.279   5.268  11.531 -0.07 -0.29    -0.248 N 
DOCKED: ATOM     29 FE   UNL d   1       7.290   4.641   9.848 -0.07 +0.00    +0.000 Fe
DOCKED: ENDROOT
DOCKED: BRANCH   6  30
DOCKED: ATOM     30  C   UNL d   1      10.508   8.866   8.255 -0.19 +0.02    +0.052 C 
DOCKED: BRANCH  30  31
DOCKED: ATOM     31  C   UNL d   1      11.896   8.303   7.969 -0.07 +0.04    +0.115 C 
DOCKED: BRANCH  31  32
DOCKED: ATOM     32  C   UNL d   1      11.988   6.874   8.428 -0.10 +0.11    +0.139 C 
DOCKED: ATOM     33  O   UNL d   1      12.521   6.595   9.493 +0.01 -0.55    -0.650 OA
DOCKED: BRANCH  32  34
DOCKED: ATOM     34  O   UNL d   1      11.484   5.887   7.669 -0.33 -1.01    -0.776 OA
DOCKED: ATOM     35  H   UNL d   1      11.482   5.990   6.707 +0.04 +0.13    +0.167 HD
DOCKED: ENDBRANCH  32  34
DOCKED: ENDBRANCH  31  32
DOCKED: ENDBRANCH  30  31
DOCKED: ENDBRANCH   6  30
DOCKED: BRANCH  22  36
DOCKED: ATOM     36  C   UNL d   1      10.028   7.819  13.603 -0.07 +0.02    +0.052 C 
DOCKED: BRANCH  36  37
DOCKED: ATOM     37  C   UNL d   1       9.019   8.841  14.105 -0.11 +0.04    +0.115 C 
DOCKED: BRANCH  37  38
DOCKED: ATOM     38  C   UNL d   1       9.471  10.241  13.795 -0.15 +0.09    +0.139 C 
DOCKED: ATOM     39  O   UNL d   1      10.402  10.442  13.030 -0.02 -0.36    -0.650 OA
DOCKED: BRANCH  38  40
DOCKED: ATOM     40  O   UNL d   1       8.849  11.288  14.366 -0.56 -1.08    -0.776 OA
DOCKED: ATOM     41  H   UNL d   1       8.137  11.124  15.000 +0.03 +0.18    +0.167 HD
DOCKED: ENDBRANCH  38  40
DOCKED: ENDBRANCH  37  38
DOCKED: ENDBRANCH  36  37
DOCKED: ENDBRANCH  22  36
DOCKED: BRANCH  12  42
DOCKED: ATOM     42  C   UNL d   1       3.682   2.107   6.299 -0.44 +0.00    +0.004 C 
DOCKED: ATOM     43  C   UNL d   1       2.413   2.530   6.228 -0.59 +0.00    +0.012 C 
DOCKED: ENDBRANCH  12  42
DOCKED: BRANCH  17  44
DOCKED: ATOM     44  C   UNL d   1       6.165   0.849  13.779 -0.07 -0.00    +0.004 C 
DOCKED: ATOM     45  C   UNL d   1       5.221   1.003  14.713 -0.06 -0.00    +0.012 C 
DOCKED: ENDBRANCH  17  44
DOCKED: TORSDOF 10
DOCKED: TER
DOCKED: ENDMDL
________________________________________________________________________________


	BEGINNING GENETIC ALGORITHM DOCKING 97 of 100
Run: 97 Seed: 1992040747 1445900797 [ Run 97 of 100 GA/GALS ]
Beginning LAMARCKIAN GENETIC ALGORITHM (LGA), with a maximum of 25000000 energy evaluations.

Final-Value: -12.164


	FINAL GENETIC ALGORITHM DOCKED STATE
	_______________________________________________


Detailed state:  trans 4.541 6.250 3.854 quatxyzw -0.882919 -0.027341 -0.308520 0.352876 center -0.174 -0.001 -0.047 ntor 10 41.0555 87.7203 -131.2550 170.9079 83.7640 -87.1857 -178.9331 59.6501 172.4752 -35.0294
State:	  4.541   6.250   3.854  -0.944 -0.029 -0.330 138.673     41.06   87.72 -131.26  170.91   83.76  -87.19 -178.93   59.65  172.48  -35.03

DOCKED: MODEL       97
DOCKED: USER    Run = 97
DOCKED: USER    DPF = D:/Protein_go_brrr/autodock/final/mut_Y35F/heme_Fe/dock.dpf
DOCKED: USER  
DOCKED: USER    Estimated Free Energy of Binding    =   -8.73 kcal/mol  [=(1)+(2)+(3)-(4)]
DOCKED: USER    Estimated Inhibition Constant, Ki   =  400.59 nM (nanomolar)  [Temperature = 298.15 K]
DOCKED: USER    
DOCKED: USER    (1) Final Intermolecular Energy     =  -11.71 kcal/mol
DOCKED: USER        vdW + Hbond + desolv Energy     =  -11.65 kcal/mol
DOCKED: USER        Electrostatic Energy            =   -0.06 kcal/mol
DOCKED: USER    (2) Final Total Internal Energy     =   -0.45 kcal/mol
DOCKED: USER    (3) Torsional Free Energy           =   +2.98 kcal/mol
DOCKED: USER    (4) Unbound System's Energy  [=(2)] =   -0.45 kcal/mol
DOCKED: USER    
DOCKED: USER    
DOCKED: USER    NEWDPF move heme_Fe_opt.pdbqt
DOCKED: USER    NEWDPF about -0.174000 -0.001000 -0.047000
DOCKED: USER    NEWDPF tran0 4.540982 6.250242 3.853615
DOCKED: USER    NEWDPF quaternion0 -0.882919 -0.027341 -0.308520 0.352876
DOCKED: USER    NEWDPF axisangle0 -0.943622 -0.029221 -0.329732 138.673345
DOCKED: USER    NEWDPF quat0 -0.943622 -0.029221 -0.329732 138.673345
DOCKED: USER    NEWDPF dihe0 41.06 87.72 -131.26 170.91 83.76 -87.19 -178.93 59.65 172.48 -35.03 
DOCKED: USER  keepresnum = 1 
DOCKED: USER  
DOCKED: REMARK  10 active torsions:
DOCKED: REMARK  status: ('A' for Active; 'I' for Inactive)
DOCKED: REMARK    1  A    between atoms: C_6  and  C_10 
DOCKED: REMARK    2  A    between atoms: C_10  and  C_11 
DOCKED: REMARK    3  A    between atoms: C_11  and  C_12 
DOCKED: REMARK    4  A    between atoms: C_12  and  O_14 
DOCKED: REMARK    5  A    between atoms: C_17  and  C_20 
DOCKED: REMARK    6  A    between atoms: C_24  and  C_27 
DOCKED: REMARK    7  A    between atoms: C_31  and  C_34 
DOCKED: REMARK    8  A    between atoms: C_34  and  C_35 
DOCKED: REMARK    9  A    between atoms: C_35  and  C_36 
DOCKED: REMARK   10  A    between atoms: C_36  and  O_38 
DOCKED: USER                              x       y       z     vdW  Elec       q    Type
DOCKED: USER                           _______ _______ _______ _____ _____    ______ ____
DOCKED: ROOT
DOCKED: ATOM      1  C   UNL d   1       3.250   5.445   2.477 -0.43 +0.00    +0.064 C 
DOCKED: ATOM      2  C   UNL d   1       6.655   9.026   2.377 -0.45 +0.00    +0.064 A 
DOCKED: ATOM      3  C   UNL d   1       8.403   7.386   6.539 -0.32 +0.02    +0.064 C 
DOCKED: ATOM      4  C   UNL d   1       5.050   3.977   6.708 -0.44 +0.01    +0.064 C 
DOCKED: ATOM      5  C   UNL d   1       3.994   6.656   2.105 -0.38 +0.00    +0.066 A 
DOCKED: ATOM      6  C   UNL d   1       3.698   7.464   1.019 -0.47 -0.00    -0.021 A 
DOCKED: ATOM      7  C   UNL d   1       4.647   8.456   0.989 -0.46 -0.00    -0.025 A 
DOCKED: ATOM      8  C   UNL d   1       5.486   8.216   2.060 -0.42 +0.01    +0.066 A 
DOCKED: ATOM      9  C   UNL d   1       4.722   9.576  -0.002 -0.23 +0.01    +0.051 C 
DOCKED: ATOM     10  C   UNL d   1       7.448   8.850   3.435 -0.42 +0.01    +0.066 A 
DOCKED: ATOM     11  C   UNL d   1       8.626   9.570   3.649 -0.41 -0.00    -0.021 A 
DOCKED: ATOM     12  C   UNL d   1       9.158   9.104   4.835 -0.16 +0.00    +0.000 A 
DOCKED: ATOM     13  C   UNL d   1       8.272   8.108   5.283 -0.22 +0.01    +0.070 A 
DOCKED: ATOM     14  C   UNL d   1       9.251  10.603   2.734 -0.22 -0.01    +0.052 C 
DOCKED: ATOM     15  C   UNL d   1       7.582   6.390   6.950 -0.32 +0.03    +0.066 A 
DOCKED: ATOM     16  C   UNL d   1       7.681   5.793   8.200 -0.32 -0.02    -0.021 A 
DOCKED: ATOM     17  C   UNL d   1       6.717   4.807   8.250 -0.29 +0.00    +0.000 A 
DOCKED: ATOM     18  C   UNL d   1       6.055   4.824   7.025 -0.34 +0.02    +0.070 A 
DOCKED: ATOM     19  C   UNL d   1       8.659   6.117   9.297 +0.03 +0.07    +0.052 C 
DOCKED: ATOM     20  C   UNL d   1       4.289   4.005   5.453 -0.36 +0.01    +0.066 A 
DOCKED: ATOM     21  C   UNL d   1       3.388   3.018   5.030 -0.37 -0.00    -0.025 A 
DOCKED: ATOM     22  C   UNL d   1       2.878   3.462   3.828 -0.29 -0.00    -0.021 A 
DOCKED: ATOM     23  C   UNL d   1       3.488   4.694   3.564 -0.38 +0.00    +0.066 A 
DOCKED: ATOM     24  C   UNL d   1       3.024   1.719   5.711 -0.36 -0.00    +0.051 C 
DOCKED: ATOM     25  N   UNL d   1       5.081   7.126   2.742 -0.24 -0.04    -0.248 N 
DOCKED: ATOM     26  N   UNL d   1       7.235   7.947   4.426 -0.22 -0.05    -0.248 N 
DOCKED: ATOM     27  N   UNL d   1       6.556   5.825   6.241 -0.19 -0.08    -0.248 N 
DOCKED: ATOM     28  N   UNL d   1       4.381   4.999   4.536 -0.23 -0.03    -0.248 N 
DOCKED: ATOM     29 FE   UNL d   1       5.808   6.471   4.482 -0.09 +0.00    +0.000 Fe
DOCKED: ENDROOT
DOCKED: BRANCH   6  30
DOCKED: ATOM     30  C   UNL d   1       2.560   7.315   0.068 -0.58 +0.00    +0.052 C 
DOCKED: BRANCH  30  31
DOCKED: ATOM     31  C   UNL d   1       3.009   6.609  -1.206 -0.50 +0.00    +0.115 C 
DOCKED: BRANCH  31  32
DOCKED: ATOM     32  C   UNL d   1       4.465   6.244  -1.120 -0.19 +0.01    +0.139 C 
DOCKED: ATOM     33  O   UNL d   1       4.818   5.217  -0.558 -0.00 -0.03    -0.650 OA
DOCKED: BRANCH  32  34
DOCKED: ATOM     34  O   UNL d   1       5.395   7.047  -1.664 +0.17 -0.03    -0.776 OA
DOCKED: ATOM     35  H   UNL d   1       6.137   6.651  -2.141 +0.14 +0.00    +0.167 HD
DOCKED: ENDBRANCH  32  34
DOCKED: ENDBRANCH  31  32
DOCKED: ENDBRANCH  30  31
DOCKED: ENDBRANCH   6  30
DOCKED: BRANCH  22  36
DOCKED: ATOM     36  C   UNL d   1       1.895   2.720   2.961 -0.09 +0.00    +0.052 C 
DOCKED: BRANCH  36  37
DOCKED: ATOM     37  C   UNL d   1       0.592   2.518   3.720 -0.41 +0.00    +0.115 C 
DOCKED: BRANCH  37  38
DOCKED: ATOM     38  C   UNL d   1       0.261   1.058   3.842 -0.51 -0.00    +0.139 C 
DOCKED: ATOM     39  O   UNL d   1      -0.367   0.483   2.966 +0.05 -0.01    -0.650 OA
DOCKED: BRANCH  38  40
DOCKED: ATOM     40  O   UNL d   1       0.654   0.369   4.929 -0.00 +0.05    -0.776 OA
DOCKED: ATOM     41  H   UNL d   1       1.500  -0.099   4.908 -0.26 -0.04    +0.167 HD
DOCKED: ENDBRANCH  38  40
DOCKED: ENDBRANCH  37  38
DOCKED: ENDBRANCH  36  37
DOCKED: ENDBRANCH  22  36
DOCKED: BRANCH  12  42
DOCKED: ATOM     42  C   UNL d   1      10.432   9.588   5.451 -0.25 +0.00    +0.004 C 
DOCKED: ATOM     43  C   UNL d   1      11.616   9.099   5.060 -0.23 +0.00    +0.012 C 
DOCKED: ENDBRANCH  12  42
DOCKED: BRANCH  17  44
DOCKED: ATOM     44  C   UNL d   1       6.435   3.922   9.402 +0.34 +0.00    +0.004 C 
DOCKED: ATOM     45  C   UNL d   1       6.247   2.610   9.227 -0.31 +0.01    +0.012 C 
DOCKED: ENDBRANCH  17  44
DOCKED: TORSDOF 10
DOCKED: TER
DOCKED: ENDMDL
________________________________________________________________________________


	BEGINNING GENETIC ALGORITHM DOCKING 98 of 100
Run: 98 Seed: 2014240773 52680813 [ Run 98 of 100 GA/GALS ]
Beginning LAMARCKIAN GENETIC ALGORITHM (LGA), with a maximum of 25000000 energy evaluations.

Final-Value: -10.679


	FINAL GENETIC ALGORITHM DOCKED STATE
	_______________________________________________


Detailed state:  trans -5.194 -13.771 -14.571 quatxyzw -0.361409 -0.009337 -0.593075 0.719416 center -0.174 -0.001 -0.047 ntor 10 -171.6109 -10.3761 86.5497 55.3853 138.4273 91.7667 -0.6297 -57.5209 170.6451 10.6824
State:	 -5.194 -13.771 -14.571  -0.520 -0.013 -0.854 87.987   -171.61  -10.38   86.55   55.39  138.43   91.77   -0.63  -57.52  170.65   10.68

DOCKED: MODEL       98
DOCKED: USER    Run = 98
DOCKED: USER    DPF = D:/Protein_go_brrr/autodock/final/mut_Y35F/heme_Fe/dock.dpf
DOCKED: USER  
DOCKED: USER    Estimated Free Energy of Binding    =   -6.10 kcal/mol  [=(1)+(2)+(3)-(4)]
DOCKED: USER    Estimated Inhibition Constant, Ki   =   33.80 uM (micromolar)  [Temperature = 298.15 K]
DOCKED: USER    
DOCKED: USER    (1) Final Intermolecular Energy     =   -9.08 kcal/mol
DOCKED: USER        vdW + Hbond + desolv Energy     =   -7.24 kcal/mol
DOCKED: USER        Electrostatic Energy            =   -1.84 kcal/mol
DOCKED: USER    (2) Final Total Internal Energy     =   -1.60 kcal/mol
DOCKED: USER    (3) Torsional Free Energy           =   +2.98 kcal/mol
DOCKED: USER    (4) Unbound System's Energy  [=(2)] =   -1.60 kcal/mol
DOCKED: USER    
DOCKED: USER    
DOCKED: USER    NEWDPF move heme_Fe_opt.pdbqt
DOCKED: USER    NEWDPF about -0.174000 -0.001000 -0.047000
DOCKED: USER    NEWDPF tran0 -5.194432 -13.770775 -14.571325
DOCKED: USER    NEWDPF quaternion0 -0.361409 -0.009337 -0.593075 0.719416
DOCKED: USER    NEWDPF axisangle0 -0.520327 -0.013443 -0.853861 87.987460
DOCKED: USER    NEWDPF quat0 -0.520327 -0.013443 -0.853861 87.987460
DOCKED: USER    NEWDPF dihe0 -171.61 -10.38 86.55 55.39 138.43 91.77 -0.63 -57.52 170.65 10.68 
DOCKED: USER  keepresnum = 1 
DOCKED: USER  
DOCKED: REMARK  10 active torsions:
DOCKED: REMARK  status: ('A' for Active; 'I' for Inactive)
DOCKED: REMARK    1  A    between atoms: C_6  and  C_10 
DOCKED: REMARK    2  A    between atoms: C_10  and  C_11 
DOCKED: REMARK    3  A    between atoms: C_11  and  C_12 
DOCKED: REMARK    4  A    between atoms: C_12  and  O_14 
DOCKED: REMARK    5  A    between atoms: C_17  and  C_20 
DOCKED: REMARK    6  A    between atoms: C_24  and  C_27 
DOCKED: REMARK    7  A    between atoms: C_31  and  C_34 
DOCKED: REMARK    8  A    between atoms: C_34  and  C_35 
DOCKED: REMARK    9  A    between atoms: C_35  and  C_36 
DOCKED: REMARK   10  A    between atoms: C_36  and  O_38 
DOCKED: USER                              x       y       z     vdW  Elec       q    Type
DOCKED: USER                           _______ _______ _______ _____ _____    ______ ____
DOCKED: ROOT
DOCKED: ATOM      1  C   UNL d   1      -5.496 -15.747 -15.032 -0.16 +0.02    +0.064 C 
DOCKED: ATOM      2  C   UNL d   1      -1.685 -12.625 -15.425 -0.05 +0.00    +0.064 A 
DOCKED: ATOM      3  C   UNL d   1      -3.949  -9.598 -12.462 -0.07 -0.00    +0.064 C 
DOCKED: ATOM      4  C   UNL d   1      -7.694 -12.558 -12.152 -0.34 -0.01    +0.064 C 
DOCKED: ATOM      5  C   UNL d   1      -4.251 -15.112 -15.484 -0.13 +0.01    +0.066 A 
DOCKED: ATOM      6  C   UNL d   1      -3.390 -15.644 -16.430 -0.08 -0.00    -0.021 A 
DOCKED: ATOM      7  C   UNL d   1      -2.330 -14.778 -16.536 -0.03 -0.00    -0.025 A 
DOCKED: ATOM      8  C   UNL d   1      -2.585 -13.750 -15.649 -0.06 +0.00    +0.066 A 
DOCKED: ATOM      9  C   UNL d   1      -1.155 -14.928 -17.453 -0.01 +0.00    +0.051 C 
DOCKED: ATOM     10  C   UNL d   1      -1.933 -11.592 -14.619 -0.11 -0.00    +0.066 A 
DOCKED: ATOM     11  C   UNL d   1      -1.004 -10.588 -14.337 -0.19 +0.00    -0.021 A 
DOCKED: ATOM     12  C   UNL d   1      -1.626  -9.711 -13.471 -0.26 -0.00    +0.000 A 
DOCKED: ATOM     13  C   UNL d   1      -2.914 -10.235 -13.261 -0.20 -0.00    +0.070 A 
DOCKED: ATOM     14  C   UNL d   1       0.432 -10.504 -14.815 -0.18 +0.00    +0.052 C 
DOCKED: ATOM     15  C   UNL d   1      -5.171 -10.124 -12.214 -0.23 -0.01    +0.066 A 
DOCKED: ATOM     16  C   UNL d   1      -6.167  -9.439 -11.530 -0.32 +0.00    -0.021 A 
DOCKED: ATOM     17  C   UNL d   1      -7.247 -10.293 -11.436 -0.33 -0.00    +0.000 A 
DOCKED: ATOM     18  C   UNL d   1      -6.883 -11.482 -12.063 -0.27 -0.02    +0.070 A 
DOCKED: ATOM     19  C   UNL d   1      -6.101  -8.047 -10.962 -0.33 -0.01    +0.052 C 
DOCKED: ATOM     20  C   UNL d   1      -7.367 -13.803 -12.857 -0.27 -0.00    +0.066 A 
DOCKED: ATOM     21  C   UNL d   1      -8.109 -14.991 -12.788 -0.29 -0.00    -0.025 A 
DOCKED: ATOM     22  C   UNL d   1      -7.472 -15.883 -13.626 -0.22 -0.00    -0.021 A 
DOCKED: ATOM     23  C   UNL d   1      -6.369 -15.209 -14.166 -0.20 +0.01    +0.066 A 
DOCKED: ATOM     24  C   UNL d   1      -9.349 -15.284 -11.976 -0.35 +0.00    +0.051 C 
DOCKED: ATOM     25  N   UNL d   1      -3.759 -13.951 -15.018 -0.07 -0.02    -0.248 N 
DOCKED: ATOM     26  N   UNL d   1      -3.098 -11.386 -13.953 -0.09 +0.01    -0.248 N 
DOCKED: ATOM     27  N   UNL d   1      -5.623 -11.364 -12.580 -0.14 +0.03    -0.248 N 
DOCKED: ATOM     28  N   UNL d   1      -6.285 -13.955 -13.658 -0.14 -0.00    -0.248 N 
DOCKED: ATOM     29 FE   UNL d   1      -4.694 -12.671 -13.804 -0.04 -0.00    +0.000 Fe
DOCKED: ENDROOT
DOCKED: BRANCH   6  30
DOCKED: ATOM     30  C   UNL d   1      -3.573 -16.900 -17.212 -0.09 +0.02    +0.052 C 
DOCKED: BRANCH  30  31
DOCKED: ATOM     31  C   UNL d   1      -2.760 -18.037 -16.604 -0.02 +0.07    +0.115 C 
DOCKED: BRANCH  31  32
DOCKED: ATOM     32  C   UNL d   1      -2.961 -19.304 -17.388 +0.04 +0.13    +0.139 C 
DOCKED: ATOM     33  O   UNL d   1      -2.016 -20.040 -17.636 -0.03 -0.42    -0.650 OA
DOCKED: BRANCH  32  34
DOCKED: ATOM     34  O   UNL d   1      -4.186 -19.640 -17.826 -0.13 -1.08    -0.776 OA
DOCKED: ATOM     35  H   UNL d   1      -4.908 -19.002 -17.737 +0.00 +0.19    +0.167 HD
DOCKED: ENDBRANCH  32  34
DOCKED: ENDBRANCH  31  32
DOCKED: ENDBRANCH  30  31
DOCKED: ENDBRANCH   6  30
DOCKED: BRANCH  22  36
DOCKED: ATOM     36  C   UNL d   1      -7.874 -17.316 -13.856 -0.10 +0.02    +0.052 C 
DOCKED: BRANCH  36  37
DOCKED: ATOM     37  C   UNL d   1      -8.482 -17.462 -15.243 -0.12 +0.04    +0.115 C 
DOCKED: BRANCH  37  38
DOCKED: ATOM     38  C   UNL d   1      -7.720 -18.464 -16.063 -0.05 +0.09    +0.139 C 
DOCKED: ATOM     39  O   UNL d   1      -8.046 -19.642 -16.073 -0.05 -0.53    -0.650 OA
DOCKED: BRANCH  38  40
DOCKED: ATOM     40  O   UNL d   1      -6.662 -18.068 -16.793 +0.02 -0.55    -0.776 OA
DOCKED: ATOM     41  H   UNL d   1      -6.088 -18.738 -17.191 +0.01 +0.17    +0.167 HD
DOCKED: ENDBRANCH  38  40
DOCKED: ENDBRANCH  37  38
DOCKED: ENDBRANCH  36  37
DOCKED: ENDBRANCH  22  36
DOCKED: BRANCH  12  42
DOCKED: ATOM     42  C   UNL d   1      -0.995  -8.484 -12.895 -0.36 -0.00    +0.004 C 
DOCKED: ATOM     43  C   UNL d   1      -1.653  -7.317 -12.869 -0.33 +0.00    +0.012 C 
DOCKED: ENDBRANCH  12  42
DOCKED: BRANCH  17  44
DOCKED: ATOM     44  C   UNL d   1      -8.551  -9.983 -10.805 -0.49 -0.00    +0.004 C 
DOCKED: ATOM     45  C   UNL d   1      -9.649  -9.819 -11.549 -0.39 -0.00    +0.012 C 
DOCKED: ENDBRANCH  17  44
DOCKED: TORSDOF 10
DOCKED: TER
DOCKED: ENDMDL
________________________________________________________________________________


	BEGINNING GENETIC ALGORITHM DOCKING 99 of 100
Run: 99 Seed: 578335264 1442062286 [ Run 99 of 100 GA/GALS ]
Beginning LAMARCKIAN GENETIC ALGORITHM (LGA), with a maximum of 25000000 energy evaluations.

Final-Value: -10.875


	FINAL GENETIC ALGORITHM DOCKED STATE
	_______________________________________________


Detailed state:  trans 1.887 -16.932 -10.015 quatxyzw 0.413909 0.473228 0.162170 0.760550 center -0.174 -0.001 -0.047 ntor 10 145.0460 -136.3257 177.5806 -150.7309 50.9668 59.3663 23.1234 -92.4315 22.2981 -180.0000
State:	  1.887 -16.932 -10.015   0.637  0.729  0.250 80.975    145.05 -136.33  177.58 -150.73   50.97   59.37   23.12  -92.43   22.30 -180.00

DOCKED: MODEL       99
DOCKED: USER    Run = 99
DOCKED: USER    DPF = D:/Protein_go_brrr/autodock/final/mut_Y35F/heme_Fe/dock.dpf
DOCKED: USER  
DOCKED: USER    Estimated Free Energy of Binding    =   -7.28 kcal/mol  [=(1)+(2)+(3)-(4)]
DOCKED: USER    Estimated Inhibition Constant, Ki   =    4.65 uM (micromolar)  [Temperature = 298.15 K]
DOCKED: USER    
DOCKED: USER    (1) Final Intermolecular Energy     =  -10.26 kcal/mol
DOCKED: USER        vdW + Hbond + desolv Energy     =   -9.24 kcal/mol
DOCKED: USER        Electrostatic Energy            =   -1.01 kcal/mol
DOCKED: USER    (2) Final Total Internal Energy     =   -0.62 kcal/mol
DOCKED: USER    (3) Torsional Free Energy           =   +2.98 kcal/mol
DOCKED: USER    (4) Unbound System's Energy  [=(2)] =   -0.62 kcal/mol
DOCKED: USER    
DOCKED: USER    
DOCKED: USER    NEWDPF move heme_Fe_opt.pdbqt
DOCKED: USER    NEWDPF about -0.174000 -0.001000 -0.047000
DOCKED: USER    NEWDPF tran0 1.886675 -16.932302 -10.014698
DOCKED: USER    NEWDPF quaternion0 0.413909 0.473228 0.162170 0.760550
DOCKED: USER    NEWDPF axisangle0 0.637489 0.728850 0.249769 80.974588
DOCKED: USER    NEWDPF quat0 0.637489 0.728850 0.249769 80.974588
DOCKED: USER    NEWDPF dihe0 145.05 -136.33 177.58 -150.73 50.97 59.37 23.12 -92.43 22.30 -180.00 
DOCKED: USER  keepresnum = 1 
DOCKED: USER  
DOCKED: REMARK  10 active torsions:
DOCKED: REMARK  status: ('A' for Active; 'I' for Inactive)
DOCKED: REMARK    1  A    between atoms: C_6  and  C_10 
DOCKED: REMARK    2  A    between atoms: C_10  and  C_11 
DOCKED: REMARK    3  A    between atoms: C_11  and  C_12 
DOCKED: REMARK    4  A    between atoms: C_12  and  O_14 
DOCKED: REMARK    5  A    between atoms: C_17  and  C_20 
DOCKED: REMARK    6  A    between atoms: C_24  and  C_27 
DOCKED: REMARK    7  A    between atoms: C_31  and  C_34 
DOCKED: REMARK    8  A    between atoms: C_34  and  C_35 
DOCKED: REMARK    9  A    between atoms: C_35  and  C_36 
DOCKED: REMARK   10  A    between atoms: C_36  and  O_38 
DOCKED: USER                              x       y       z     vdW  Elec       q    Type
DOCKED: USER                           _______ _______ _______ _____ _____    ______ ____
DOCKED: ROOT
DOCKED: ATOM      1  C   UNL d   1       0.548 -16.839 -11.567 -0.25 -0.00    +0.064 C 
DOCKED: ATOM      2  C   UNL d   1       0.363 -18.472  -6.906 -0.18 -0.05    +0.064 A 
DOCKED: ATOM      3  C   UNL d   1       4.446 -16.114  -5.991 -0.24 -0.02    +0.064 C 
DOCKED: ATOM      4  C   UNL d   1       4.700 -14.609 -10.525 -0.26 -0.02    +0.064 C 
DOCKED: ATOM      5  C   UNL d   1       0.162 -17.585 -10.362 -0.27 -0.01    +0.066 A 
DOCKED: ATOM      6  C   UNL d   1      -0.906 -18.465 -10.285 -0.31 +0.00    -0.021 A 
DOCKED: ATOM      7  C   UNL d   1      -0.959 -18.915  -8.989 -0.32 +0.01    -0.025 A 
DOCKED: ATOM      8  C   UNL d   1       0.080 -18.293  -8.324 -0.29 -0.03    +0.066 A 
DOCKED: ATOM      9  C   UNL d   1      -1.941 -19.902  -8.436 -0.23 -0.03    +0.051 C 
DOCKED: ATOM     10  C   UNL d   1       1.392 -17.928  -6.253 -0.28 -0.04    +0.066 A 
DOCKED: ATOM     11  C   UNL d   1       1.572 -18.025  -4.871 -0.28 +0.01    -0.021 A 
DOCKED: ATOM     12  C   UNL d   1       2.734 -17.339  -4.580 -0.25 -0.00    +0.000 A 
DOCKED: ATOM     13  C   UNL d   1       3.203 -16.847  -5.810 -0.21 -0.03    +0.070 A 
DOCKED: ATOM     14  C   UNL d   1       0.645 -18.681  -3.868 -0.33 -0.03    +0.052 C 
DOCKED: ATOM     15  C   UNL d   1       4.876 -15.593  -7.164 -0.20 -0.03    +0.066 A 
DOCKED: ATOM     16  C   UNL d   1       6.116 -14.987  -7.316 -0.21 +0.01    -0.021 A 
DOCKED: ATOM     17  C   UNL d   1       6.190 -14.549  -8.622 -0.21 -0.00    +0.000 A 
DOCKED: ATOM     18  C   UNL d   1       4.989 -14.896  -9.236 -0.23 -0.03    +0.070 A 
DOCKED: ATOM     19  C   UNL d   1       7.182 -14.802  -6.269 -0.20 -0.04    +0.052 C 
DOCKED: ATOM     20  C   UNL d   1       3.473 -15.012 -11.222 -0.20 -0.02    +0.066 A 
DOCKED: ATOM     21  C   UNL d   1       3.072 -14.555 -12.485 -0.18 +0.01    -0.025 A 
DOCKED: ATOM     22  C   UNL d   1       1.893 -15.213 -12.768 -0.17 +0.00    -0.021 A 
DOCKED: ATOM     23  C   UNL d   1       1.619 -16.036 -11.669 -0.21 -0.01    +0.066 A 
DOCKED: ATOM     24  C   UNL d   1       3.753 -13.550 -13.385 -0.17 -0.01    +0.051 C 
DOCKED: ATOM     25  N   UNL d   1       0.765 -17.491  -9.164 -0.21 +0.09    -0.248 N 
DOCKED: ATOM     26  N   UNL d   1       2.381 -17.198  -6.829 -0.02 +0.13    -0.248 N 
DOCKED: ATOM     27  N   UNL d   1       4.198 -15.576  -8.354 +0.01 +0.12    -0.248 N 
DOCKED: ATOM     28  N   UNL d   1       2.563 -15.875 -10.710 -0.17 +0.09    -0.248 N 
DOCKED: ATOM     29 FE   UNL d   1       2.473 -16.535  -8.771 -0.06 -0.00    +0.000 Fe
DOCKED: ENDROOT
DOCKED: BRANCH   6  30
DOCKED: ATOM     30  C   UNL d   1      -1.817 -18.876 -11.390 -0.26 +0.01    +0.052 C 
DOCKED: BRANCH  30  31
DOCKED: ATOM     31  C   UNL d   1      -1.600 -20.340 -11.754 -0.16 +0.03    +0.115 C 
DOCKED: BRANCH  31  32
DOCKED: ATOM     32  C   UNL d   1      -2.059 -20.607 -13.161 -0.11 +0.09    +0.139 C 
DOCKED: ATOM     33  O   UNL d   1      -1.679 -19.901 -14.085 -0.04 -0.40    -0.650 OA
DOCKED: BRANCH  32  34
DOCKED: ATOM     34  O   UNL d   1      -2.895 -21.628 -13.416 -0.20 -0.86    -0.776 OA
DOCKED: ATOM     35  H   UNL d   1      -2.813 -22.442 -12.900 +0.01 +0.12    +0.167 HD
DOCKED: ENDBRANCH  32  34
DOCKED: ENDBRANCH  31  32
DOCKED: ENDBRANCH  30  31
DOCKED: ENDBRANCH   6  30
DOCKED: BRANCH  22  36
DOCKED: ATOM     36  C   UNL d   1       1.054 -15.022 -14.004 -0.12 -0.00    +0.052 C 
DOCKED: BRANCH  36  37
DOCKED: ATOM     37  C   UNL d   1       0.154 -13.807 -13.831 -0.19 -0.01    +0.115 C 
DOCKED: BRANCH  37  38
DOCKED: ATOM     38  C   UNL d   1       0.861 -12.549 -14.247 -0.21 -0.01    +0.139 C 
DOCKED: ATOM     39  O   UNL d   1       1.287 -12.418 -15.385 -0.01 +0.01    -0.650 OA
DOCKED: BRANCH  38  40
DOCKED: ATOM     40  O   UNL d   1       1.036 -11.552 -13.361 -0.19 +0.01    -0.776 OA
DOCKED: ATOM     41  H   UNL d   1       1.316 -11.768 -12.460 -0.49 -0.05    +0.167 HD
DOCKED: ENDBRANCH  38  40
DOCKED: ENDBRANCH  37  38
DOCKED: ENDBRANCH  36  37
DOCKED: ENDBRANCH  22  36
DOCKED: BRANCH  12  42
DOCKED: ATOM     42  C   UNL d   1       3.309 -17.173  -3.209 -0.31 -0.00    +0.004 C 
DOCKED: ATOM     43  C   UNL d   1       3.753 -15.982  -2.787 -0.35 -0.00    +0.012 C 
DOCKED: ENDBRANCH  12  42
DOCKED: BRANCH  17  44
DOCKED: ATOM     44  C   UNL d   1       7.343 -13.862  -9.247 -0.17 -0.00    +0.004 C 
DOCKED: ATOM     45  C   UNL d   1       7.376 -12.529  -9.342 -0.28 -0.01    +0.012 C 
DOCKED: ENDBRANCH  17  44
DOCKED: TORSDOF 10
DOCKED: TER
DOCKED: ENDMDL
________________________________________________________________________________


	BEGINNING GENETIC ALGORITHM DOCKING 100 of 100
Run: 100 Seed: 1040718339 788879205 [ Run 100 of 100 GA/GALS ]
Beginning LAMARCKIAN GENETIC ALGORITHM (LGA), with a maximum of 25000000 energy evaluations.

Final-Value: -11.304


	FINAL GENETIC ALGORITHM DOCKED STATE
	_______________________________________________


Detailed state:  trans -13.638 7.749 14.095 quatxyzw -0.756416 -0.584829 -0.166972 0.240685 center -0.174 -0.001 -0.047 ntor 10 -150.6516 -75.0907 -163.8041 -152.4794 -83.2710 140.8085 152.0012 96.7175 -157.6587 -177.7419
State:	-13.638   7.749  14.095  -0.779 -0.603 -0.172 152.146   -150.65  -75.09 -163.80 -152.48  -83.27  140.81  152.00   96.72 -157.66 -177.74

DOCKED: MODEL      100
DOCKED: USER    Run = 100
DOCKED: USER    DPF = D:/Protein_go_brrr/autodock/final/mut_Y35F/heme_Fe/dock.dpf
DOCKED: USER  
DOCKED: USER    Estimated Free Energy of Binding    =   -6.17 kcal/mol  [=(1)+(2)+(3)-(4)]
DOCKED: USER    Estimated Inhibition Constant, Ki   =   30.14 uM (micromolar)  [Temperature = 298.15 K]
DOCKED: USER    
DOCKED: USER    (1) Final Intermolecular Energy     =   -9.15 kcal/mol
DOCKED: USER        vdW + Hbond + desolv Energy     =   -5.41 kcal/mol
DOCKED: USER        Electrostatic Energy            =   -3.75 kcal/mol
DOCKED: USER    (2) Final Total Internal Energy     =   -2.15 kcal/mol
DOCKED: USER    (3) Torsional Free Energy           =   +2.98 kcal/mol
DOCKED: USER    (4) Unbound System's Energy  [=(2)] =   -2.15 kcal/mol
DOCKED: USER    
DOCKED: USER    
DOCKED: USER    NEWDPF move heme_Fe_opt.pdbqt
DOCKED: USER    NEWDPF about -0.174000 -0.001000 -0.047000
DOCKED: USER    NEWDPF tran0 -13.638308 7.749155 14.094532
DOCKED: USER    NEWDPF quaternion0 -0.756416 -0.584829 -0.166972 0.240685
DOCKED: USER    NEWDPF axisangle0 -0.779326 -0.602542 -0.172029 152.146011
DOCKED: USER    NEWDPF quat0 -0.779326 -0.602542 -0.172029 152.146011
DOCKED: USER    NEWDPF dihe0 -150.65 -75.09 -163.80 -152.48 -83.27 140.81 152.00 96.72 -157.66 -177.74 
DOCKED: USER  keepresnum = 1 
DOCKED: USER  
DOCKED: REMARK  10 active torsions:
DOCKED: REMARK  status: ('A' for Active; 'I' for Inactive)
DOCKED: REMARK    1  A    between atoms: C_6  and  C_10 
DOCKED: REMARK    2  A    between atoms: C_10  and  C_11 
DOCKED: REMARK    3  A    between atoms: C_11  and  C_12 
DOCKED: REMARK    4  A    between atoms: C_12  and  O_14 
DOCKED: REMARK    5  A    between atoms: C_17  and  C_20 
DOCKED: REMARK    6  A    between atoms: C_24  and  C_27 
DOCKED: REMARK    7  A    between atoms: C_31  and  C_34 
DOCKED: REMARK    8  A    between atoms: C_34  and  C_35 
DOCKED: REMARK    9  A    between atoms: C_35  and  C_36 
DOCKED: REMARK   10  A    between atoms: C_36  and  O_38 
DOCKED: USER                              x       y       z     vdW  Elec       q    Type
DOCKED: USER                           _______ _______ _______ _____ _____    ______ ____
DOCKED: ROOT
DOCKED: ATOM      1  C   UNL d   1     -13.917   5.759  13.678 -0.15 +0.05    +0.064 C 
DOCKED: ATOM      2  C   UNL d   1     -15.745   9.982  11.873 -0.05 +0.05    +0.064 A 
DOCKED: ATOM      3  C   UNL d   1     -12.217  12.374  14.086 -0.05 +0.02    +0.064 C 
DOCKED: ATOM      4  C   UNL d   1     -10.493   8.310  15.930 -0.17 +0.02    +0.064 C 
DOCKED: ATOM      5  C   UNL d   1     -14.807   6.734  13.033 -0.09 +0.06    +0.066 A 
DOCKED: ATOM      6  C   UNL d   1     -15.993   6.418  12.391 -0.07 -0.01    -0.021 A 
DOCKED: ATOM      7  C   UNL d   1     -16.498   7.591  11.887 -0.04 -0.02    -0.025 A 
DOCKED: ATOM      8  C   UNL d   1     -15.600   8.579  12.241 -0.05 +0.07    +0.066 A 
DOCKED: ATOM      9  C   UNL d   1     -17.780   7.746  11.127 -0.01 +0.02    +0.051 C 
DOCKED: ATOM     10  C   UNL d   1     -14.924  10.964  12.251 -0.07 +0.05    +0.066 A 
DOCKED: ATOM     11  C   UNL d   1     -15.024  12.278  11.788 -0.03 -0.01    -0.021 A 
DOCKED: ATOM     12  C   UNL d   1     -14.007  12.985  12.399 -0.06 +0.00    +0.000 A 
DOCKED: ATOM     13  C   UNL d   1     -13.328  12.054  13.204 -0.10 +0.04    +0.070 A 
DOCKED: ATOM     14  C   UNL d   1     -15.998  12.819  10.761 -0.00 +0.01    +0.052 C 
DOCKED: ATOM     15  C   UNL d   1     -11.527  11.473  14.824 +0.02 +0.03    +0.066 A 
DOCKED: ATOM     16  C   UNL d   1     -10.538  11.832  15.730 -0.05 -0.00    -0.021 A 
DOCKED: ATOM     17  C   UNL d   1     -10.037  10.661  16.260 -0.10 +0.00    +0.000 A 
DOCKED: ATOM     18  C   UNL d   1     -10.731   9.613  15.661 -0.14 +0.02    +0.070 A 
DOCKED: ATOM     19  C   UNL d   1     -10.062  13.219  16.068 -0.07 +0.01    +0.052 C 
DOCKED: ATOM     20  C   UNL d   1     -11.245   7.183  15.364 -0.15 +0.03    +0.066 A 
DOCKED: ATOM     21  C   UNL d   1     -10.885   5.833  15.476 -0.21 -0.01    -0.025 A 
DOCKED: ATOM     22  C   UNL d   1     -11.881   5.123  14.838 -0.22 -0.01    -0.021 A 
DOCKED: ATOM     23  C   UNL d   1     -12.801   6.063  14.360 -0.14 +0.04    +0.066 A 
DOCKED: ATOM     24  C   UNL d   1      -9.668   5.233  16.141 -0.29 +0.01    +0.051 C 
DOCKED: ATOM     25  N   UNL d   1     -14.578   8.056  12.947 -0.02 -0.34    -0.248 N 
DOCKED: ATOM     26  N   UNL d   1     -13.881  10.820  13.107 -0.10 -0.24    -0.248 N 
DOCKED: ATOM     27  N   UNL d   1     -11.677  10.112  14.810 -0.13 -0.14    -0.248 N 
DOCKED: ATOM     28  N   UNL d   1     -12.385   7.321  14.645 -0.10 -0.18    -0.248 N 
DOCKED: ATOM     29 FE   UNL d   1     -13.131   9.070  13.877 -0.03 +0.00    +0.000 Fe
DOCKED: ENDROOT
DOCKED: BRANCH   6  30
DOCKED: ATOM     30  C   UNL d   1     -16.628   5.074  12.279 -0.10 +0.03    +0.052 C 
DOCKED: BRANCH  30  31
DOCKED: ATOM     31  C   UNL d   1     -15.796   4.157  11.389 -0.04 +0.11    +0.115 C 
DOCKED: BRANCH  31  32
DOCKED: ATOM     32  C   UNL d   1     -15.025   4.961  10.379 -0.11 +0.21    +0.139 C 
DOCKED: ATOM     33  O   UNL d   1     -15.552   5.321   9.336 -0.05 -0.82    -0.650 OA
DOCKED: BRANCH  32  34
DOCKED: ATOM     34  O   UNL d   1     -13.744   5.291  10.615 -0.22 -1.59    -0.776 OA
DOCKED: ATOM     35  H   UNL d   1     -13.202   4.706  11.162 +0.05 +0.36    +0.167 HD
DOCKED: ENDBRANCH  32  34
DOCKED: ENDBRANCH  31  32
DOCKED: ENDBRANCH  30  31
DOCKED: ENDBRANCH   6  30
DOCKED: BRANCH  22  36
DOCKED: ATOM     36  C   UNL d   1     -11.918   3.628  14.658 -0.35 +0.02    +0.052 C 
DOCKED: BRANCH  36  37
DOCKED: ATOM     37  C   UNL d   1     -11.035   3.231  13.484 -0.49 +0.07    +0.115 C 
DOCKED: BRANCH  37  38
DOCKED: ATOM     38  C   UNL d   1     -11.777   3.360  12.184 -0.48 +0.16    +0.139 C 
DOCKED: ATOM     39  O   UNL d   1     -11.217   3.788  11.185 -0.37 -1.05    -0.650 OA
DOCKED: BRANCH  38  40
DOCKED: ATOM     40  O   UNL d   1     -13.072   3.006  12.112 -0.28 -1.04    -0.776 OA
DOCKED: ATOM     41  H   UNL d   1     -13.747   3.697  12.080 +0.06 +0.23    +0.167 HD
DOCKED: ENDBRANCH  38  40
DOCKED: ENDBRANCH  37  38
DOCKED: ENDBRANCH  36  37
DOCKED: ENDBRANCH  22  36
DOCKED: BRANCH  12  42
DOCKED: ATOM     42  C   UNL d   1     -13.728  14.439  12.186 -0.04 +0.00    +0.004 C 
DOCKED: ATOM     43  C   UNL d   1     -12.580  14.845  11.627 -0.12 -0.00    +0.012 C 
DOCKED: ENDBRANCH  12  42
DOCKED: BRANCH  17  44
DOCKED: ATOM     44  C   UNL d   1      -8.977  10.554  17.289 -0.08 +0.00    +0.004 C 
DOCKED: ATOM     45  C   UNL d   1      -7.711  10.299  16.944 -0.13 +0.00    +0.012 C 
DOCKED: ENDBRANCH  17  44
DOCKED: TORSDOF 10
DOCKED: TER
DOCKED: ENDMDL
________________________________________________________________________________

DPF> analysis                             # perform a ranked cluster analysis


		CLUSTER ANALYSIS OF CONFORMATIONS
		_________________________________

Number of conformations = 100

RMSD cluster analysis will be performed using the ligand atoms only (45 / 45 total atoms).

Outputting structurally similar clusters, ranked in order of increasing energy.


________________________________________________________________________________

Number of distinct conformational clusters found = 36,  out of 100 runs,
Using an rmsd-tolerance of 2.0 A


	CLUSTERING HISTOGRAM
	____________________

________________________________________________________________________________
     |           |     |           |     |                                    
Clus | Lowest    | Run | Mean      | Num | Histogram                          
-ter | Binding   |     | Binding   | in  |                                    
Rank | Energy    |     | Energy    | Clus|    5    10   15   20   25   30   35
_____|___________|_____|___________|_____|____:____|____:____|____:____|____:___
   1 |    -12.38 |  89 |    -11.32 |  11 |###########
   2 |    -10.54 |  51 |    -10.54 |   1 |#
   3 |     -8.73 |  97 |     -8.37 |   2 |##
   4 |     -8.37 |  19 |     -7.98 |   3 |###
   5 |     -8.22 |  64 |     -7.53 |  18 |##################
   6 |     -8.14 |   1 |     -7.92 |   2 |##
   7 |     -8.01 |  46 |     -7.51 |   8 |########
   8 |     -7.94 |   9 |     -7.49 |   3 |###
   9 |     -7.89 |  45 |     -7.53 |   4 |####
  10 |     -7.85 |   6 |     -7.85 |   1 |#
  11 |     -7.73 |  47 |     -7.18 |   4 |####
  12 |     -7.73 |  44 |     -7.73 |   1 |#
  13 |     -7.65 |  63 |     -7.14 |   2 |##
  14 |     -7.34 |  17 |     -6.45 |   4 |####
  15 |     -7.30 |  16 |     -6.56 |   8 |########
  16 |     -7.27 |  58 |     -6.99 |   2 |##
  17 |     -7.10 |  76 |     -7.10 |   1 |#
  18 |     -6.98 |  69 |     -6.90 |   2 |##
  19 |     -6.38 |  81 |     -5.80 |   2 |##
  20 |     -6.19 |  60 |     -6.19 |   1 |#
  21 |     -6.11 |  32 |     -6.11 |   1 |#
  22 |     -6.10 |  98 |     -5.64 |   2 |##
  23 |     -6.07 |  73 |     -5.85 |   2 |##
  24 |     -5.84 |  66 |     -5.27 |   2 |##
  25 |     -5.38 |  40 |     -4.76 |   2 |##
  26 |     -5.29 |  70 |     -5.29 |   1 |#
  27 |     -5.07 |  28 |     -5.07 |   1 |#
  28 |     -5.03 |  15 |     -5.03 |   1 |#
  29 |     -5.01 |  25 |     -5.01 |   1 |#
  30 |     -4.97 |  31 |     -4.97 |   1 |#
  31 |     -4.87 |  91 |     -4.87 |   1 |#
  32 |     -4.51 |  21 |     -4.51 |   1 |#
  33 |     -4.49 |  13 |     -4.49 |   1 |#
  34 |     -4.23 |  34 |     -4.23 |   1 |#
  35 |     -4.04 |  92 |     -4.04 |   1 |#
  36 |     -4.03 |  39 |     -4.03 |   1 |#
_____|___________|_____|___________|_____|______________________________________


Number of multi-member conformational clusters found = 19, out of 100 runs.

	RMSD TABLE
	__________

_____________________________________________________________________
     |      |      |           |         |                 |
Rank | Sub- | Run  | Binding   | Cluster | Reference       | Grep
     | Rank |      | Energy    | RMSD    | RMSD            | Pattern
_____|______|______|___________|_________|_________________|___________
   1      1     89      -12.38      0.00      9.93           RANKING
   1      2     11      -11.94      0.83      9.82           RANKING
   1      3     86      -11.89      0.87      9.89           RANKING
   1      4     35      -11.89      0.77     10.03           RANKING
   1      5     62      -11.88      0.81     10.07           RANKING
   1      6     37      -11.77      0.99      9.83           RANKING
   1      7     85      -11.58      0.83     10.02           RANKING
   1      8     78      -11.43      1.08     10.02           RANKING
   1      9      4      -10.86      0.99     10.11           RANKING
   1     10     56      -10.21      1.20     10.17           RANKING
   1     11     48       -8.65      1.77     10.92           RANKING
   2      1     51      -10.54      0.00     11.20           RANKING
   3      1     97       -8.73      0.00      7.87           RANKING
   3      2     12       -8.00      1.75      9.09           RANKING
   4      1     19       -8.37      0.00     13.44           RANKING
   4      2     96       -8.26      0.85     13.51           RANKING
   4      3     65       -7.32      1.34     13.90           RANKING
   5      1     64       -8.22      0.00     15.25           RANKING
   5      2     90       -8.15      0.41     15.25           RANKING
   5      3     79       -8.09      0.45     15.38           RANKING
   5      4     57       -7.87      0.90     15.18           RANKING
   5      5     20       -7.81      0.47     15.41           RANKING
   5      6     30       -7.71      0.70     15.37           RANKING
   5      7     59       -7.71      0.50     15.37           RANKING
   5      8      5       -7.63      0.43     15.38           RANKING
   5      9     26       -7.59      0.77     15.31           RANKING
   5     10     23       -7.55      0.56     15.33           RANKING
   5     11     41       -7.52      0.51     15.22           RANKING
   5     12     88       -7.51      0.74     15.29           RANKING
   5     13     22       -7.44      0.75     15.44           RANKING
   5     14     36       -7.43      0.90     15.53           RANKING
   5     15     75       -7.03      0.81     15.24           RANKING
   5     16     83       -7.02      0.65     15.31           RANKING
   5     17      3       -6.79      0.85     15.30           RANKING
   5     18      2       -6.42      0.99     15.63           RANKING
   6      1      1       -8.14      0.00     14.72           RANKING
   6      2     84       -7.69      0.82     14.95           RANKING
   7      1     46       -8.01      0.00     16.29           RANKING
   7      2     49       -7.98      0.16     16.34           RANKING
   7      3     72       -7.83      1.75     16.26           RANKING
   7      4     94       -7.72      1.54     16.57           RANKING
   7      5     71       -7.40      1.67     16.27           RANKING
   7      6     80       -7.37      1.64     16.51           RANKING
   7      7     77       -6.91      1.70     16.39           RANKING
   7      8     61       -6.88      1.85     17.02           RANKING
   8      1      9       -7.94      0.00     18.32           RANKING
   8      2     33       -7.75      0.96     18.28           RANKING
   8      3     95       -6.79      0.79     18.48           RANKING
   9      1     45       -7.89      0.00     14.81           RANKING
   9      2     74       -7.72      1.03     15.01           RANKING
   9      3     55       -7.55      1.76     15.87           RANKING
   9      4     68       -6.97      1.90     16.02           RANKING
  10      1      6       -7.85      0.00     15.43           RANKING
  11      1     47       -7.73      0.00     19.20           RANKING
  11      2     27       -7.65      1.11     19.23           RANKING
  11      3     18       -6.94      1.59     19.10           RANKING
  11      4     67       -6.41      1.63     18.96           RANKING
  12      1     44       -7.73      0.00     14.13           RANKING
  13      1     63       -7.65      0.00     13.96           RANKING
  13      2     52       -6.62      1.32     14.23           RANKING
  14      1     17       -7.34      0.00     17.03           RANKING
  14      2     93       -6.18      1.79     17.60           RANKING
  14      3    100       -6.17      1.74     17.50           RANKING
  14      4     50       -6.13      1.68     17.50           RANKING
  15      1     16       -7.30      0.00     16.68           RANKING
  15      2     99       -7.28      0.07     16.70           RANKING
  15      3     82       -7.25      0.10     16.68           RANKING
  15      4     53       -7.07      0.80     16.53           RANKING
  15      5      7       -6.62      0.93     16.61           RANKING
  15      6     14       -5.81      1.76     16.24           RANKING
  15      7     24       -5.62      1.68     16.62           RANKING
  15      8     87       -5.56      2.00     18.49           RANKING
  16      1     58       -7.27      0.00     16.19           RANKING
  16      2     42       -6.72      0.95     16.49           RANKING
  17      1     76       -7.10      0.00     15.11           RANKING
  18      1     69       -6.98      0.00     15.33           RANKING
  18      2     29       -6.83      0.51     15.25           RANKING
  19      1     81       -6.38      0.00     11.38           RANKING
  19      2      8       -5.21      1.68     11.11           RANKING
  20      1     60       -6.19      0.00     12.55           RANKING
  21      1     32       -6.11      0.00     13.10           RANKING
  22      1     98       -6.10      0.00     18.29           RANKING
  22      2     54       -5.19      1.59     18.70           RANKING
  23      1     73       -6.07      0.00     11.81           RANKING
  23      2     38       -5.62      1.03     11.81           RANKING
  24      1     66       -5.84      0.00     14.32           RANKING
  24      2     43       -4.70      1.04     14.44           RANKING
  25      1     40       -5.38      0.00     15.84           RANKING
  25      2     10       -4.15      1.86     16.63           RANKING
  26      1     70       -5.29      0.00     11.31           RANKING
  27      1     28       -5.07      0.00     14.93           RANKING
  28      1     15       -5.03      0.00     18.31           RANKING
  29      1     25       -5.01      0.00     17.15           RANKING
  30      1     31       -4.97      0.00     15.09           RANKING
  31      1     91       -4.87      0.00     20.37           RANKING
  32      1     21       -4.51      0.00     16.89           RANKING
  33      1     13       -4.49      0.00     18.97           RANKING
  34      1     34       -4.23      0.00     17.26           RANKING
  35      1     92       -4.04      0.00     17.84           RANKING
  36      1     39       -4.03      0.00     16.55           RANKING
_______________________________________________________________________



	INFORMATION ENTROPY ANALYSIS FOR THIS CLUSTERING
	________________________________________________


Information entropy for this clustering = 0.68  (rmstol = 2.00 Angstrom)

_______________________________________________________________________


	STATISTICAL MECHANICAL ANALYSIS
	_______________________________


Partition function, Q =   101.24            at Temperature, T = 298.15 K
Free energy,        A ~ -2735.78 kcal/mol   at Temperature, T = 298.15 K
Internal energy,    U =    -7.31 kcal/mol   at Temperature, T = 298.15 K
Entropy,            S =     9.15 kcal/mol/K at Temperature, T = 298.15 K

_______________________________________________________________________


	LOWEST ENERGY DOCKED CONFORMATION from EACH CLUSTER
	___________________________________________________



Keeping original residue number (specified in the input PDBQ file) for outputting.

MODEL       89
USER    Run = 89
USER    Cluster Rank = 1
USER    Number of conformations in this cluster = 11
USER  
USER    RMSD from reference structure       = 9.927 A
USER  
USER    Estimated Free Energy of Binding    =  -12.38 kcal/mol  [=(1)+(2)+(3)-(4)]
USER    Estimated Inhibition Constant, Ki   =  845.68 pM (picomolar)  [Temperature = 298.15 K]
USER    
USER    (1) Final Intermolecular Energy     =  -15.36 kcal/mol
USER        vdW + Hbond + desolv Energy     =  -12.78 kcal/mol
USER        Electrostatic Energy            =   -2.58 kcal/mol
USER    (2) Final Total Internal Energy     =   -0.42 kcal/mol
USER    (3) Torsional Free Energy           =   +2.98 kcal/mol
USER    (4) Unbound System's Energy  [=(2)] =   -0.42 kcal/mol
USER    
USER    
USER  
USER    DPF = D:/Protein_go_brrr/autodock/final/mut_Y35F/heme_Fe/dock.dpf
USER    NEWDPF move	heme_Fe_opt.pdbqt
USER    NEWDPF about	-0.174000 -0.001000 -0.047000
USER    NEWDPF tran0	6.206676 6.456262 5.358091
USER    NEWDPF axisangle0	0.030982 0.911143 -0.410923 -134.690975
USER    NEWDPF quaternion0	0.028591 0.840843 -0.379218 -0.385174
USER    NEWDPF dihe0	-10.49 179.87 68.06 -117.27 -151.66 93.78 -22.82 69.65 -5.27 148.21 
USER  
USER                              x       y       z    vdW   Elec        q     RMS 
ATOM      1  C   UNL d   1       7.910   6.547   6.499 -0.26 +0.03    +0.064     9.927
ATOM      2  C   UNL d   1       4.095   3.420   6.183 -0.41 +0.01    +0.064     9.927
ATOM      3  C   UNL d   1       2.878   5.438   1.997 -0.40 +0.00    +0.064     9.927
ATOM      4  C   UNL d   1       6.502   8.542   2.336 -0.50 +0.01    +0.064     9.927
ATOM      5  C   UNL d   1       6.900   5.535   6.839 -0.34 +0.03    +0.066     9.927
ATOM      6  C   UNL d   1       6.862   4.823   8.027 -0.34 -0.01    -0.021     9.927
ATOM      7  C   UNL d   1       5.804   3.953   7.937 -0.26 -0.01    -0.025     9.927
ATOM      8  C   UNL d   1       5.236   4.167   6.696 -0.37 +0.01    +0.066     9.927
ATOM      9  C   UNL d   1       5.361   2.989   8.994 +0.06 +0.01    +0.051     9.927
ATOM     10  C   UNL d   1       3.492   3.646   5.014 -0.37 +0.00    +0.066     9.927
ATOM     11  C   UNL d   1       2.474   2.840   4.499 -0.35 -0.00    -0.021     9.927
ATOM     12  C   UNL d   1       2.117   3.391   3.284 -0.36 +0.00    +0.000     9.927
ATOM     13  C   UNL d   1       2.950   4.511   3.116 -0.37 +0.00    +0.070     9.927
ATOM     14  C   UNL d   1       1.915   1.568   5.102 -0.56 -0.00    +0.052     9.927
ATOM     15  C   UNL d   1       3.712   6.487   1.804 -0.38 +0.00    +0.066     9.927
ATOM     16  C   UNL d   1       3.548   7.407   0.777 -0.48 -0.00    -0.021     9.927
ATOM     17  C   UNL d   1       4.594   8.302   0.871 -0.49 +0.00    +0.000     9.927
ATOM     18  C   UNL d   1       5.375   7.903   1.953 -0.41 +0.01    +0.070     9.927
ATOM     19  C   UNL d   1       2.466   7.433  -0.268 -0.48 +0.00    +0.052     9.927
ATOM     20  C   UNL d   1       7.315   8.188   3.505 -0.41 +0.01    +0.066     9.927
ATOM     21  C   UNL d   1       8.583   8.710   3.798 -0.41 -0.00    -0.025     9.927
ATOM     22  C   UNL d   1       8.960   8.137   4.995 -0.28 -0.00    -0.021     9.927
ATOM     23  C   UNL d   1       7.916   7.288   5.380 -0.15 +0.02    +0.066     9.927
ATOM     24  C   UNL d   1       9.407   9.692   2.998 -0.46 -0.00    +0.051     9.927
ATOM     25  N   UNL d   1       5.899   5.137   6.034 -0.22 -0.06    -0.248     9.927
ATOM     26  N   UNL d   1       3.795   4.661   4.165 -0.25 -0.02    -0.248     9.927
ATOM     27  N   UNL d   1       4.810   6.813   2.554 -0.24 -0.04    -0.248     9.927
ATOM     28  N   UNL d   1       6.935   7.289   4.445 -0.11 -0.08    -0.248     9.927
ATOM     29 FE   UNL d   1       5.365   5.977   4.304 -0.09 +0.00    +0.000     9.927
ATOM     30  C   UNL d   1       7.770   4.976   9.199 +0.44 +0.07    +0.052     9.927
ATOM     31  C   UNL d   1       7.299   6.109  10.104 +0.10 +0.08    +0.115     9.927
ATOM     32  C   UNL d   1       7.830   5.924  11.499 -0.17 +0.11    +0.139     9.927
ATOM     33  O   UNL d   1       7.216   6.361  12.462 -0.01 -0.26    -0.650     9.927
ATOM     34  O   UNL d   1       8.988   5.273  11.699 -0.54 -1.22    -0.776     9.927
ATOM     35  H   UNL d   1       9.393   5.294  12.577 +0.02 +0.16    +0.167     9.927
ATOM     36  C   UNL d   1      10.272   8.357   5.701 -0.25 +0.01    +0.052     9.927
ATOM     37  C   UNL d   1      11.062   7.058   5.734 +0.08 +0.04    +0.115     9.927
ATOM     38  C   UNL d   1      11.155   6.519   7.134 -0.17 +0.11    +0.139     9.927
ATOM     39  O   UNL d   1      10.345   5.701   7.544 -0.55 -1.12    -0.650     9.927
ATOM     40  O   UNL d   1      12.136   6.941   7.951 +0.03 -0.53    -0.776     9.927
ATOM     41  H   UNL d   1      12.777   7.586   7.622 +0.03 +0.07    +0.167     9.927
ATOM     42  C   UNL d   1       1.064   2.845   2.373 -0.40 +0.00    +0.004     9.927
ATOM     43  C   UNL d   1      -0.043   3.547   2.100 -0.61 +0.00    +0.012     9.927
ATOM     44  C   UNL d   1       4.820   9.474  -0.005 -0.42 +0.00    +0.004     9.927
ATOM     45  C   UNL d   1       5.056   9.317  -1.312 -0.67 +0.00    +0.012     9.927
TER
ENDMDL
MODEL       51
USER    Run = 51
USER    Cluster Rank = 2
USER    Number of conformations in this cluster = 1
USER  
USER    RMSD from reference structure       = 11.200 A
USER  
USER    Estimated Free Energy of Binding    =  -10.54 kcal/mol  [=(1)+(2)+(3)-(4)]
USER    Estimated Inhibition Constant, Ki   =   18.73 nM (nanomolar)  [Temperature = 298.15 K]
USER    
USER    (1) Final Intermolecular Energy     =  -13.52 kcal/mol
USER        vdW + Hbond + desolv Energy     =  -11.75 kcal/mol
USER        Electrostatic Energy            =   -1.78 kcal/mol
USER    (2) Final Total Internal Energy     =   -0.56 kcal/mol
USER    (3) Torsional Free Energy           =   +2.98 kcal/mol
USER    (4) Unbound System's Energy  [=(2)] =   -0.56 kcal/mol
USER    
USER    
USER  
USER    DPF = D:/Protein_go_brrr/autodock/final/mut_Y35F/heme_Fe/dock.dpf
USER    NEWDPF move	heme_Fe_opt.pdbqt
USER    NEWDPF about	-0.174000 -0.001000 -0.047000
USER    NEWDPF tran0	7.950173 6.852851 5.556993
USER    NEWDPF axisangle0	0.251572 -0.516832 -0.818289 -162.808440
USER    NEWDPF quaternion0	0.248746 -0.511027 -0.809097 -0.149463
USER    NEWDPF dihe0	56.10 139.19 149.14 46.22 70.03 85.56 0.56 138.83 6.46 7.17 
USER  
USER                              x       y       z    vdW   Elec        q     RMS 
ATOM      1  C   UNL d   1       9.303   8.262   6.187 -0.25 +0.02    +0.064    11.200
ATOM      2  C   UNL d   1       6.415   7.744   2.209 -0.38 +0.01    +0.064    11.200
ATOM      3  C   UNL d   1       3.936   4.351   4.536 -0.42 +0.01    +0.064    11.200
ATOM      4  C   UNL d   1       6.785   4.762   8.358 -0.29 +0.04    +0.064    11.200
ATOM      5  C   UNL d   1       8.772   8.371   4.821 -0.29 +0.01    +0.066    11.200
ATOM      6  C   UNL d   1       9.309   9.172   3.826 -0.39 -0.00    -0.021    11.200
ATOM      7  C   UNL d   1       8.504   9.030   2.723 -0.47 -0.00    -0.025    11.200
ATOM      8  C   UNL d   1       7.506   8.148   3.087 -0.41 +0.01    +0.066    11.200
ATOM      9  C   UNL d   1       8.702   9.694   1.395 +0.16 -0.00    +0.051    11.200
ATOM     10  C   UNL d   1       5.472   6.851   2.516 -0.37 +0.01    +0.066    11.200
ATOM     11  C   UNL d   1       4.375   6.570   1.698 -0.42 -0.00    -0.021    11.200
ATOM     12  C   UNL d   1       3.636   5.606   2.355 -0.41 +0.00    +0.000    11.200
ATOM     13  C   UNL d   1       4.322   5.353   3.555 -0.36 +0.01    +0.070    11.200
ATOM     14  C   UNL d   1       4.012   7.236   0.387 -0.52 +0.00    +0.052    11.200
ATOM     15  C   UNL d   1       4.564   4.140   5.717 -0.37 +0.01    +0.066    11.200
ATOM     16  C   UNL d   1       4.225   3.107   6.582 -0.45 -0.00    -0.021    11.200
ATOM     17  C   UNL d   1       5.043   3.225   7.686 -0.40 +0.00    +0.000    11.200
ATOM     18  C   UNL d   1       5.861   4.333   7.471 -0.33 +0.02    +0.070    11.200
ATOM     19  C   UNL d   1       3.158   2.063   6.392 -0.21 +0.00    +0.052    11.200
ATOM     20  C   UNL d   1       7.704   5.885   8.139 -0.30 +0.05    +0.066    11.200
ATOM     21  C   UNL d   1       8.523   6.464   9.118 -0.13 -0.03    -0.025    11.200
ATOM     22  C   UNL d   1       9.241   7.451   8.475 -0.22 -0.01    -0.021    11.200
ATOM     23  C   UNL d   1       8.830   7.439   7.137 -0.27 +0.03    +0.066    11.200
ATOM     24  C   UNL d   1       8.628   6.118  10.585 +0.01 +0.07    +0.051    11.200
ATOM     25  N   UNL d   1       7.677   7.741   4.361 -0.25 -0.05    -0.248    11.200
ATOM     26  N   UNL d   1       5.437   6.118   3.658 -0.12 -0.08    -0.248    11.200
ATOM     27  N   UNL d   1       5.597   4.869   6.241 -0.22 -0.06    -0.248    11.200
ATOM     28  N   UNL d   1       7.860   6.512   6.948 -0.22 -0.12    -0.248    11.200
ATOM     29 FE   UNL d   1       6.648   6.314   5.305 -0.09 +0.00    +0.000    11.200
ATOM     30  C   UNL d   1      10.537  10.013   3.910 -0.35 -0.00    +0.052    11.200
ATOM     31  C   UNL d   1      11.742   9.267   3.349 -0.37 -0.01    +0.115    11.200
ATOM     32  C   UNL d   1      12.980  10.115   3.450 -0.31 -0.00    +0.139    11.200
ATOM     33  O   UNL d   1      13.483  10.356   4.538 +0.02 -0.07    -0.650    11.200
ATOM     34  O   UNL d   1      13.545  10.618   2.340 -0.03 +0.08    -0.776    11.200
ATOM     35  H   UNL d   1      14.475  10.424   2.157 -0.44 -0.03    +0.167    11.200
ATOM     36  C   UNL d   1      10.230   8.383   9.123 -0.18 +0.03    +0.052    11.200
ATOM     37  C   UNL d   1      11.647   7.949   8.778 -0.09 +0.06    +0.115    11.200
ATOM     38  C   UNL d   1      11.787   6.455   8.856 -0.05 +0.16    +0.139    11.200
ATOM     39  O   UNL d   1      11.496   5.749   7.902 -0.31 -1.01    -0.650    11.200
ATOM     40  O   UNL d   1      12.233   5.881   9.988 +0.01 -1.05    -0.776    11.200
ATOM     41  H   UNL d   1      12.965   6.295  10.468 +0.01 +0.13    +0.167    11.200
ATOM     42  C   UNL d   1       2.361   5.011   1.846 -0.30 +0.00    +0.004    11.200
ATOM     43  C   UNL d   1       1.535   4.348   2.666 -0.49 +0.00    +0.012    11.200
ATOM     44  C   UNL d   1       5.056   2.326   8.862 -0.10 +0.00    +0.004    11.200
ATOM     45  C   UNL d   1       5.983   1.370   8.983 -0.41 +0.00    +0.012    11.200
TER
ENDMDL
MODEL       97
USER    Run = 97
USER    Cluster Rank = 3
USER    Number of conformations in this cluster = 2
USER  
USER    RMSD from reference structure       = 7.873 A
USER  
USER    Estimated Free Energy of Binding    =   -8.73 kcal/mol  [=(1)+(2)+(3)-(4)]
USER    Estimated Inhibition Constant, Ki   =  400.59 nM (nanomolar)  [Temperature = 298.15 K]
USER    
USER    (1) Final Intermolecular Energy     =  -11.71 kcal/mol
USER        vdW + Hbond + desolv Energy     =  -11.65 kcal/mol
USER        Electrostatic Energy            =   -0.06 kcal/mol
USER    (2) Final Total Internal Energy     =   -0.45 kcal/mol
USER    (3) Torsional Free Energy           =   +2.98 kcal/mol
USER    (4) Unbound System's Energy  [=(2)] =   -0.45 kcal/mol
USER    
USER    
USER  
USER    DPF = D:/Protein_go_brrr/autodock/final/mut_Y35F/heme_Fe/dock.dpf
USER    NEWDPF move	heme_Fe_opt.pdbqt
USER    NEWDPF about	-0.174000 -0.001000 -0.047000
USER    NEWDPF tran0	4.540982 6.250242 3.853615
USER    NEWDPF axisangle0	-0.943622 -0.029221 -0.329732 138.673345
USER    NEWDPF quaternion0	-0.882919 -0.027341 -0.308520 0.352876
USER    NEWDPF dihe0	41.06 87.72 -131.26 170.91 83.76 -87.19 -178.93 59.65 172.48 -35.03 
USER  
USER                              x       y       z    vdW   Elec        q     RMS 
ATOM      1  C   UNL d   1       3.250   5.445   2.477 -0.43 +0.00    +0.064     7.873
ATOM      2  C   UNL d   1       6.655   9.026   2.377 -0.45 +0.00    +0.064     7.873
ATOM      3  C   UNL d   1       8.403   7.386   6.539 -0.32 +0.02    +0.064     7.873
ATOM      4  C   UNL d   1       5.050   3.977   6.708 -0.44 +0.01    +0.064     7.873
ATOM      5  C   UNL d   1       3.994   6.656   2.105 -0.38 +0.00    +0.066     7.873
ATOM      6  C   UNL d   1       3.698   7.464   1.019 -0.47 -0.00    -0.021     7.873
ATOM      7  C   UNL d   1       4.647   8.456   0.989 -0.46 -0.00    -0.025     7.873
ATOM      8  C   UNL d   1       5.486   8.216   2.060 -0.42 +0.01    +0.066     7.873
ATOM      9  C   UNL d   1       4.722   9.576  -0.002 -0.23 +0.01    +0.051     7.873
ATOM     10  C   UNL d   1       7.448   8.850   3.435 -0.42 +0.01    +0.066     7.873
ATOM     11  C   UNL d   1       8.626   9.570   3.649 -0.41 -0.00    -0.021     7.873
ATOM     12  C   UNL d   1       9.158   9.104   4.835 -0.16 +0.00    +0.000     7.873
ATOM     13  C   UNL d   1       8.272   8.108   5.283 -0.22 +0.01    +0.070     7.873
ATOM     14  C   UNL d   1       9.251  10.603   2.734 -0.22 -0.01    +0.052     7.873
ATOM     15  C   UNL d   1       7.582   6.390   6.950 -0.32 +0.03    +0.066     7.873
ATOM     16  C   UNL d   1       7.681   5.793   8.200 -0.32 -0.02    -0.021     7.873
ATOM     17  C   UNL d   1       6.717   4.807   8.250 -0.29 +0.00    +0.000     7.873
ATOM     18  C   UNL d   1       6.055   4.824   7.025 -0.34 +0.02    +0.070     7.873
ATOM     19  C   UNL d   1       8.659   6.117   9.297 +0.03 +0.07    +0.052     7.873
ATOM     20  C   UNL d   1       4.289   4.005   5.453 -0.36 +0.01    +0.066     7.873
ATOM     21  C   UNL d   1       3.388   3.018   5.030 -0.37 -0.00    -0.025     7.873
ATOM     22  C   UNL d   1       2.878   3.462   3.828 -0.29 -0.00    -0.021     7.873
ATOM     23  C   UNL d   1       3.488   4.694   3.564 -0.38 +0.00    +0.066     7.873
ATOM     24  C   UNL d   1       3.024   1.719   5.711 -0.36 -0.00    +0.051     7.873
ATOM     25  N   UNL d   1       5.081   7.126   2.742 -0.24 -0.04    -0.248     7.873
ATOM     26  N   UNL d   1       7.235   7.947   4.426 -0.22 -0.05    -0.248     7.873
ATOM     27  N   UNL d   1       6.556   5.825   6.241 -0.19 -0.08    -0.248     7.873
ATOM     28  N   UNL d   1       4.381   4.999   4.536 -0.23 -0.03    -0.248     7.873
ATOM     29 FE   UNL d   1       5.808   6.471   4.482 -0.09 +0.00    +0.000     7.873
ATOM     30  C   UNL d   1       2.560   7.315   0.068 -0.58 +0.00    +0.052     7.873
ATOM     31  C   UNL d   1       3.009   6.609  -1.206 -0.50 +0.00    +0.115     7.873
ATOM     32  C   UNL d   1       4.465   6.244  -1.120 -0.19 +0.01    +0.139     7.873
ATOM     33  O   UNL d   1       4.818   5.217  -0.558 -0.00 -0.03    -0.650     7.873
ATOM     34  O   UNL d   1       5.395   7.047  -1.664 +0.17 -0.03    -0.776     7.873
ATOM     35  H   UNL d   1       6.137   6.651  -2.141 +0.14 +0.00    +0.167     7.873
ATOM     36  C   UNL d   1       1.895   2.720   2.961 -0.09 +0.00    +0.052     7.873
ATOM     37  C   UNL d   1       0.592   2.518   3.720 -0.41 +0.00    +0.115     7.873
ATOM     38  C   UNL d   1       0.261   1.058   3.842 -0.51 -0.00    +0.139     7.873
ATOM     39  O   UNL d   1      -0.367   0.483   2.966 +0.05 -0.01    -0.650     7.873
ATOM     40  O   UNL d   1       0.654   0.369   4.929 -0.00 +0.05    -0.776     7.873
ATOM     41  H   UNL d   1       1.500  -0.099   4.908 -0.26 -0.04    +0.167     7.873
ATOM     42  C   UNL d   1      10.432   9.588   5.451 -0.25 +0.00    +0.004     7.873
ATOM     43  C   UNL d   1      11.616   9.099   5.060 -0.23 +0.00    +0.012     7.873
ATOM     44  C   UNL d   1       6.435   3.922   9.402 +0.34 +0.00    +0.004     7.873
ATOM     45  C   UNL d   1       6.247   2.610   9.227 -0.31 +0.01    +0.012     7.873
TER
ENDMDL
MODEL       19
USER    Run = 19
USER    Cluster Rank = 4
USER    Number of conformations in this cluster = 3
USER  
USER    RMSD from reference structure       = 13.437 A
USER  
USER    Estimated Free Energy of Binding    =   -8.37 kcal/mol  [=(1)+(2)+(3)-(4)]
USER    Estimated Inhibition Constant, Ki   =  738.49 nM (nanomolar)  [Temperature = 298.15 K]
USER    
USER    (1) Final Intermolecular Energy     =  -11.35 kcal/mol
USER        vdW + Hbond + desolv Energy     =   -8.70 kcal/mol
USER        Electrostatic Energy            =   -2.65 kcal/mol
USER    (2) Final Total Internal Energy     =   -0.59 kcal/mol
USER    (3) Torsional Free Energy           =   +2.98 kcal/mol
USER    (4) Unbound System's Energy  [=(2)] =   -0.59 kcal/mol
USER    
USER    
USER  
USER    DPF = D:/Protein_go_brrr/autodock/final/mut_Y35F/heme_Fe/dock.dpf
USER    NEWDPF move	heme_Fe_opt.pdbqt
USER    NEWDPF about	-0.174000 -0.001000 -0.047000
USER    NEWDPF tran0	8.043020 6.272669 9.921560
USER    NEWDPF axisangle0	-0.346864 0.746962 -0.567216 -138.515582
USER    NEWDPF quaternion0	-0.324382 0.698546 -0.530451 -0.354164
USER    NEWDPF dihe0	180.00 131.54 -145.14 9.67 -1.02 84.54 47.03 -148.34 23.57 152.16 
USER  
USER                              x       y       z    vdW   Elec        q     RMS 
ATOM      1  C   UNL d   1       9.561   7.629  10.178 -0.03 +0.05    +0.064    13.437
ATOM      2  C   UNL d   1       7.689   3.947  12.892 -0.13 +0.03    +0.064    13.437
ATOM      3  C   UNL d   1       5.410   2.322   8.989 -0.29 +0.01    +0.064    13.437
ATOM      4  C   UNL d   1       7.127   5.937   6.369 -0.33 +0.02    +0.064    13.437
ATOM      5  C   UNL d   1       9.178   6.792  11.323 -0.11 +0.06    +0.066    13.437
ATOM      6  C   UNL d   1       9.556   7.026  12.635 -0.11 -0.01    -0.021    13.437
ATOM      7  C   UNL d   1       9.038   6.001  13.388 -0.09 -0.01    -0.025    13.437
ATOM      8  C   UNL d   1       8.364   5.179  12.505 -0.14 +0.05    +0.066    13.437
ATOM      9  C   UNL d   1       9.173   5.839  14.871 -0.04 +0.01    +0.051    13.437
ATOM     10  C   UNL d   1       6.983   3.168  12.071 -0.16 +0.03    +0.066    13.437
ATOM     11  C   UNL d   1       6.444   1.935  12.446 -0.15 -0.00    -0.021    13.437
ATOM     12  C   UNL d   1       5.796   1.437  11.333 -0.24 +0.00    +0.000    13.437
ATOM     13  C   UNL d   1       5.982   2.398  10.324 -0.24 +0.02    +0.070    13.437
ATOM     14  C   UNL d   1       6.597   1.232  13.780 -0.06 +0.00    +0.052    13.437
ATOM     15  C   UNL d   1       5.629   3.218   7.999 -0.35 +0.02    +0.066    13.437
ATOM     16  C   UNL d   1       4.985   3.163   6.769 -0.46 -0.00    -0.021    13.437
ATOM     17  C   UNL d   1       5.481   4.203   6.011 -0.42 +0.00    +0.000    13.437
ATOM     18  C   UNL d   1       6.421   4.867   6.795 -0.36 +0.02    +0.070    13.437
ATOM     19  C   UNL d   1       3.961   2.158   6.313 -0.40 +0.00    +0.052    13.437
ATOM     20  C   UNL d   1       8.079   6.698   7.187 -0.31 +0.03    +0.066    13.437
ATOM     21  C   UNL d   1       8.959   7.677   6.704 -0.27 -0.01    -0.025    13.437
ATOM     22  C   UNL d   1       9.634   8.155   7.809 -0.23 -0.01    -0.021    13.437
ATOM     23  C   UNL d   1       9.146   7.448   8.914 -0.10 +0.05    +0.066    13.437
ATOM     24  C   UNL d   1       9.165   8.142   5.281 -0.29 +0.01    +0.051    13.437
ATOM     25  N   UNL d   1       8.443   5.668  11.251 -0.06 -0.31    -0.248    13.437
ATOM     26  N   UNL d   1       6.713   3.449  10.771 -0.09 -0.16    -0.248    13.437
ATOM     27  N   UNL d   1       6.481   4.289   8.033 -0.23 -0.13    -0.248    13.437
ATOM     28  N   UNL d   1       8.230   6.530   8.523 -0.19 -0.20    -0.248    13.437
ATOM     29 FE   UNL d   1       7.471   4.990   9.645 -0.07 +0.00    +0.000    13.437
ATOM     30  C   UNL d   1      10.349   8.176  13.154 -0.08 +0.02    +0.052    13.437
ATOM     31  C   UNL d   1       9.492   9.063  14.051 -0.10 +0.05    +0.115    13.437
ATOM     32  C   UNL d   1       9.670  10.510  13.683 -0.16 +0.10    +0.139    13.437
ATOM     33  O   UNL d   1      10.436  10.837  12.788 -0.03 -0.39    -0.650    13.437
ATOM     34  O   UNL d   1       8.985  11.462  14.340 -0.54 -1.22    -0.776    13.437
ATOM     35  H   UNL d   1       8.379  11.200  15.048 +0.03 +0.20    +0.167    13.437
ATOM     36  C   UNL d   1      10.721   9.197   7.792 -0.18 +0.01    +0.052    13.437
ATOM     37  C   UNL d   1      12.054   8.554   8.143 -0.06 +0.04    +0.115    13.437
ATOM     38  C   UNL d   1      12.100   7.124   7.684 -0.10 +0.08    +0.139    13.437
ATOM     39  O   UNL d   1      12.415   6.845   6.537 +0.01 -0.29    -0.650    13.437
ATOM     40  O   UNL d   1      11.787   6.134   8.540 -0.11 -1.04    -0.776    13.437
ATOM     41  H   UNL d   1      12.193   6.127   9.418 +0.01 +0.21    +0.167    13.437
ATOM     42  C   UNL d   1       5.079   0.126  11.275 -0.31 -0.00    +0.004    13.437
ATOM     43  C   UNL d   1       5.676  -0.965  10.777 -0.36 -0.00    +0.012    13.437
ATOM     44  C   UNL d   1       5.068   4.551   4.632 -0.33 +0.00    +0.004    13.437
ATOM     45  C   UNL d   1       3.816   4.942   4.371 -0.45 +0.00    +0.012    13.437
TER
ENDMDL
MODEL       64
USER    Run = 64
USER    Cluster Rank = 5
USER    Number of conformations in this cluster = 18
USER  
USER    RMSD from reference structure       = 15.252 A
USER  
USER    Estimated Free Energy of Binding    =   -8.22 kcal/mol  [=(1)+(2)+(3)-(4)]
USER    Estimated Inhibition Constant, Ki   =  946.96 nM (nanomolar)  [Temperature = 298.15 K]
USER    
USER    (1) Final Intermolecular Energy     =  -11.20 kcal/mol
USER        vdW + Hbond + desolv Energy     =   -8.18 kcal/mol
USER        Electrostatic Energy            =   -3.02 kcal/mol
USER    (2) Final Total Internal Energy     =   -1.44 kcal/mol
USER    (3) Torsional Free Energy           =   +2.98 kcal/mol
USER    (4) Unbound System's Energy  [=(2)] =   -1.44 kcal/mol
USER    
USER    
USER  
USER    DPF = D:/Protein_go_brrr/autodock/final/mut_Y35F/heme_Fe/dock.dpf
USER    NEWDPF move	heme_Fe_opt.pdbqt
USER    NEWDPF about	-0.174000 -0.001000 -0.047000
USER    NEWDPF tran0	11.642405 11.588219 7.171326
USER    NEWDPF axisangle0	-0.598851 -0.505270 0.621353 -132.295777
USER    NEWDPF quaternion0	-0.547705 -0.462116 0.568284 -0.404377
USER    NEWDPF dihe0	-86.99 140.56 -100.69 49.45 106.51 151.72 -46.19 -15.90 -177.15 16.61 
USER  
USER                              x       y       z    vdW   Elec        q     RMS 
ATOM      1  C   UNL d   1      11.254   9.646   7.707 -0.15 +0.01    +0.064    15.252
ATOM      2  C   UNL d   1      11.026  14.006  10.023 -0.22 +0.02    +0.064    15.252
ATOM      3  C   UNL d   1      11.314  16.206   5.763 -0.17 -0.01    +0.064    15.252
ATOM      4  C   UNL d   1      11.643  11.998   3.510 -0.22 -0.01    +0.064    15.252
ATOM      5  C   UNL d   1      11.247  10.670   8.760 -0.15 +0.01    +0.066    15.252
ATOM      6  C   UNL d   1      11.280  10.407  10.120 -0.14 -0.01    -0.021    15.252
ATOM      7  C   UNL d   1      11.213  11.618  10.762 -0.16 -0.01    -0.025    15.252
ATOM      8  C   UNL d   1      11.142  12.576   9.769 -0.20 +0.02    +0.066    15.252
ATOM      9  C   UNL d   1      11.236  11.834  12.244 -0.16 +0.03    +0.051    15.252
ATOM     10  C   UNL d   1      11.013  14.954   9.084 -0.24 +0.01    +0.066    15.252
ATOM     11  C   UNL d   1      10.786  16.306   9.352 -0.22 -0.00    -0.021    15.252
ATOM     12  C   UNL d   1      10.847  16.960   8.137 -0.17 -0.00    +0.000    15.252
ATOM     13  C   UNL d   1      11.103  15.962   7.181 -0.19 -0.01    +0.070    15.252
ATOM     14  C   UNL d   1      10.458  16.936  10.690 -0.22 +0.01    +0.052    15.252
ATOM     15  C   UNL d   1      11.510  15.243   4.831 -0.13 -0.01    +0.066    15.252
ATOM     16  C   UNL d   1      11.807  15.522   3.503 -0.11 +0.00    -0.021    15.252
ATOM     17  C   UNL d   1      11.898  14.310   2.851 -0.22 -0.00    +0.000    15.252
ATOM     18  C   UNL d   1      11.650  13.319   3.797 -0.18 -0.01    +0.070    15.252
ATOM     19  C   UNL d   1      11.973  16.875   2.864 -0.08 -0.01    +0.052    15.252
ATOM     20  C   UNL d   1      11.447  10.925   4.491 -0.20 -0.00    +0.066    15.252
ATOM     21  C   UNL d   1      11.238   9.573   4.182 -0.28 -0.00    -0.025    15.252
ATOM     22  C   UNL d   1      11.142   8.919   5.393 -0.20 -0.00    -0.021    15.252
ATOM     23  C   UNL d   1      11.290   9.893   6.388 -0.13 +0.01    +0.066    15.252
ATOM     24  C   UNL d   1      11.127   8.923   2.822 -0.42 -0.01    +0.051    15.252
ATOM     25  N   UNL d   1      11.173  11.996   8.552 -0.08 -0.04    -0.248    15.252
ATOM     26  N   UNL d   1      11.196  14.738   7.757 -0.13 -0.00    -0.248    15.252
ATOM     27  N   UNL d   1      11.455  13.889   5.024 -0.06 +0.02    -0.248    15.252
ATOM     28  N   UNL d   1      11.430  11.121   5.832 -0.02 -0.02    -0.248    15.252
ATOM     29 FE   UNL d   1      11.313  12.929   6.792 -0.04 +0.00    +0.000    15.252
ATOM     30  C   UNL d   1      11.392   9.074  10.777 -0.10 +0.02    +0.052    15.252
ATOM     31  C   UNL d   1      10.013   8.456  10.983 -0.10 +0.06    +0.115    15.252
ATOM     32  C   UNL d   1      10.013   7.015  10.553 -0.13 +0.14    +0.139    15.252
ATOM     33  O   UNL d   1       9.990   6.117  11.383 -0.39 -0.94    -0.650    15.252
ATOM     34  O   UNL d   1      10.039   6.700   9.247 -0.02 -1.08    -0.776    15.252
ATOM     35  H   UNL d   1      10.892   6.542   8.819 +0.03 +0.24    +0.167    15.252
ATOM     36  C   UNL d   1      10.875   7.449   5.580 -0.14 +0.01    +0.052    15.252
ATOM     37  C   UNL d   1      12.097   6.778   6.190 -0.17 +0.05    +0.115    15.252
ATOM     38  C   UNL d   1      11.746   5.433   6.760 -0.08 +0.13    +0.139    15.252
ATOM     39  O   UNL d   1      12.580   4.542   6.820 -0.42 -0.59    -0.650    15.252
ATOM     40  O   UNL d   1      10.499   5.199   7.207 -0.48 -1.33    -0.776    15.252
ATOM     41  H   UNL d   1      10.037   5.894   7.695 +0.04 +0.28    +0.167    15.252
ATOM     42  C   UNL d   1      10.651  18.430   7.946 -0.17 -0.00    +0.004    15.252
ATOM     43  C   UNL d   1       9.562  19.048   8.422 -0.23 -0.00    +0.012    15.252
ATOM     44  C   UNL d   1      12.223  14.113   1.420 -0.43 -0.00    +0.004    15.252
ATOM     45  C   UNL d   1      13.439  13.707   1.043 -0.51 -0.00    +0.012    15.252
TER
ENDMDL
MODEL        1
USER    Run = 1
USER    Cluster Rank = 6
USER    Number of conformations in this cluster = 2
USER  
USER    RMSD from reference structure       = 14.719 A
USER  
USER    Estimated Free Energy of Binding    =   -8.14 kcal/mol  [=(1)+(2)+(3)-(4)]
USER    Estimated Inhibition Constant, Ki   =    1.07 uM (micromolar)  [Temperature = 298.15 K]
USER    
USER    (1) Final Intermolecular Energy     =  -11.13 kcal/mol
USER        vdW + Hbond + desolv Energy     =   -7.29 kcal/mol
USER        Electrostatic Energy            =   -3.83 kcal/mol
USER    (2) Final Total Internal Energy     =   -0.60 kcal/mol
USER    (3) Torsional Free Energy           =   +2.98 kcal/mol
USER    (4) Unbound System's Energy  [=(2)] =   -0.60 kcal/mol
USER    
USER    
USER  
USER    DPF = D:/Protein_go_brrr/autodock/final/mut_Y35F/heme_Fe/dock.dpf
USER    NEWDPF move	heme_Fe_opt.pdbqt
USER    NEWDPF about	-0.174000 -0.001000 -0.047000
USER    NEWDPF tran0	11.885307 7.145784 9.459318
USER    NEWDPF axisangle0	-0.316517 0.946820 0.057872 -82.098373
USER    NEWDPF quaternion0	-0.207859 0.621783 0.038005 -0.754146
USER    NEWDPF dihe0	154.00 135.54 -124.65 3.81 80.83 167.04 -155.23 35.92 -21.34 2.22 
USER  
USER                              x       y       z    vdW   Elec        q     RMS 
ATOM      1  C   UNL d   1      11.951   7.682  11.439 -0.05 +0.03    +0.064    14.719
ATOM      2  C   UNL d   1      13.640   3.850   8.814 -0.10 +0.06    +0.064    14.719
ATOM      3  C   UNL d   1      12.886   6.362   4.791 -0.26 +0.02    +0.064    14.719
ATOM      4  C   UNL d   1      11.150  10.043   7.305 -0.15 +0.01    +0.064    14.719
ATOM      5  C   UNL d   1      12.418   6.339  11.068 -0.05 +0.05    +0.066    14.719
ATOM      6  C   UNL d   1      12.635   5.303  11.962 -0.05 -0.02    -0.021    14.719
ATOM      7  C   UNL d   1      13.108   4.241  11.233 -0.06 -0.02    -0.025    14.719
ATOM      8  C   UNL d   1      13.161   4.669   9.920 +0.03 +0.08    +0.066    14.719
ATOM      9  C   UNL d   1      13.466   2.890  11.772 -0.06 +0.03    +0.051    14.719
ATOM     10  C   UNL d   1      13.647   4.219   7.532 -0.14 +0.05    +0.066    14.719
ATOM     11  C   UNL d   1      14.218   3.457   6.510 -0.19 -0.01    -0.021    14.719
ATOM     12  C   UNL d   1      14.029   4.167   5.341 -0.31 +0.00    +0.000    14.719
ATOM     13  C   UNL d   1      13.353   5.342   5.716 -0.18 +0.03    +0.070    14.719
ATOM     14  C   UNL d   1      14.968   2.148   6.649 -0.18 +0.02    +0.052    14.719
ATOM     15  C   UNL d   1      12.282   7.518   5.151 -0.21 +0.01    +0.066    14.719
ATOM     16  C   UNL d   1      11.761   8.421   4.233 -0.30 -0.00    -0.021    14.719
ATOM     17  C   UNL d   1      11.263   9.485   4.956 -0.22 +0.00    +0.000    14.719
ATOM     18  C   UNL d   1      11.495   9.208   6.301 -0.12 +0.01    +0.070    14.719
ATOM     19  C   UNL d   1      11.754   8.303   2.732 -0.42 -0.00    +0.052    14.719
ATOM     20  C   UNL d   1      11.323   9.757   8.734 -0.12 +0.02    +0.066    14.719
ATOM     21  C   UNL d   1      11.157  10.686   9.772 -0.16 -0.01    -0.025    14.719
ATOM     22  C   UNL d   1      11.378   9.989  10.941 -0.11 -0.01    -0.021    14.719
ATOM     23  C   UNL d   1      11.674   8.671  10.574 -0.06 +0.03    +0.066    14.719
ATOM     24  C   UNL d   1      10.814  12.155   9.677 -0.25 +0.01    +0.051    14.719
ATOM     25  N   UNL d   1      12.731   5.943   9.822 -0.06 -0.26    -0.248    14.719
ATOM     26  N   UNL d   1      13.128   5.378   7.053 -0.11 -0.17    -0.248    14.719
ATOM     27  N   UNL d   1      12.082   7.979   6.425 -0.06 -0.07    -0.248    14.719
ATOM     28  N   UNL d   1      11.683   8.546   9.224 -0.04 -0.10    -0.248    14.719
ATOM     29 FE   UNL d   1      12.405   6.964   8.138 -0.02 +0.00    +0.000    14.719
ATOM     30  C   UNL d   1      12.387   5.313  13.431 -0.02 +0.02    +0.052    14.719
ATOM     31  C   UNL d   1      10.893   5.389  13.727 -0.04 +0.06    +0.115    14.719
ATOM     32  C   UNL d   1      10.100   4.840  12.573 -0.02 +0.16    +0.139    14.719
ATOM     33  O   UNL d   1       9.951   3.634  12.437 -0.12 -0.82    -0.650    14.719
ATOM     34  O   UNL d   1       9.546   5.675  11.677 -0.53 -1.20    -0.776    14.719
ATOM     35  H   UNL d   1       9.325   6.577  11.950 +0.03 +0.14    +0.167    14.719
ATOM     36  C   UNL d   1      11.353  10.571  12.330 -0.11 +0.02    +0.052    14.719
ATOM     37  C   UNL d   1      10.012  10.278  12.986 -0.15 +0.06    +0.115    14.719
ATOM     38  C   UNL d   1       9.584  11.414  13.870 -0.02 +0.18    +0.139    14.719
ATOM     39  O   UNL d   1       8.441  11.480  14.296 -0.62 -0.99    -0.650    14.719
ATOM     40  O   UNL d   1      10.465  12.377  14.199 +0.05 -1.43    -0.776    14.719
ATOM     41  H   UNL d   1      11.358  12.124  14.469 +0.01 +0.17    +0.167    14.719
ATOM     42  C   UNL d   1      14.493   3.730   3.989 -0.53 +0.00    +0.004    14.719
ATOM     43  C   UNL d   1      15.780   3.836   3.634 -0.51 +0.00    +0.012    14.719
ATOM     44  C   UNL d   1      10.590  10.679   4.397 -0.28 -0.00    +0.004    14.719
ATOM     45  C   UNL d   1       9.494  10.557   3.641 -0.44 -0.00    +0.012    14.719
TER
ENDMDL
MODEL       46
USER    Run = 46
USER    Cluster Rank = 7
USER    Number of conformations in this cluster = 8
USER  
USER    RMSD from reference structure       = 16.292 A
USER  
USER    Estimated Free Energy of Binding    =   -8.01 kcal/mol  [=(1)+(2)+(3)-(4)]
USER    Estimated Inhibition Constant, Ki   =    1.35 uM (micromolar)  [Temperature = 298.15 K]
USER    
USER    (1) Final Intermolecular Energy     =  -10.99 kcal/mol
USER        vdW + Hbond + desolv Energy     =   -7.46 kcal/mol
USER        Electrostatic Energy            =   -3.53 kcal/mol
USER    (2) Final Total Internal Energy     =   -0.61 kcal/mol
USER    (3) Torsional Free Energy           =   +2.98 kcal/mol
USER    (4) Unbound System's Energy  [=(2)] =   -0.61 kcal/mol
USER    
USER    
USER  
USER    DPF = D:/Protein_go_brrr/autodock/final/mut_Y35F/heme_Fe/dock.dpf
USER    NEWDPF move	heme_Fe_opt.pdbqt
USER    NEWDPF about	-0.174000 -0.001000 -0.047000
USER    NEWDPF tran0	11.926110 12.794045 7.719027
USER    NEWDPF axisangle0	0.606715 0.414557 -0.678262 147.575612
USER    NEWDPF quaternion0	0.582588 0.398072 -0.651291 0.279195
USER    NEWDPF dihe0	134.19 138.37 -163.09 63.98 162.80 162.58 86.34 -13.51 -180.00 -166.16 
USER  
USER                              x       y       z    vdW   Elec        q     RMS 
ATOM      1  C   UNL d   1      11.726  11.083   8.834 -0.14 +0.01    +0.064    16.292
ATOM      2  C   UNL d   1      10.979  15.895   9.679 -0.21 +0.01    +0.064    16.292
ATOM      3  C   UNL d   1      11.163  16.685   4.945 -0.15 -0.01    +0.064    16.292
ATOM      4  C   UNL d   1      11.991  12.047   4.112 -0.22 -0.01    +0.064    16.292
ATOM      5  C   UNL d   1      11.582  12.377   9.516 -0.15 +0.01    +0.066    16.292
ATOM      6  C   UNL d   1      11.602  12.552  10.890 -0.15 -0.01    -0.021    16.292
ATOM      7  C   UNL d   1      11.391  13.889  11.124 -0.19 -0.01    -0.025    16.292
ATOM      8  C   UNL d   1      11.250  14.478   9.883 -0.20 +0.02    +0.066    16.292
ATOM      9  C   UNL d   1      11.348  14.554  12.466 -0.12 +0.05    +0.051    16.292
ATOM     10  C   UNL d   1      10.896  16.499   8.493 -0.20 -0.00    +0.066    16.292
ATOM     11  C   UNL d   1      10.522  17.835   8.327 -0.15 +0.00    -0.021    16.292
ATOM     12  C   UNL d   1      10.551  18.083   6.969 -0.12 -0.00    +0.000    16.292
ATOM     13  C   UNL d   1      10.937  16.871   6.370 -0.16 -0.01    +0.070    16.292
ATOM     14  C   UNL d   1      10.092  18.809   9.405 -0.20 -0.00    +0.052    16.292
ATOM     15  C   UNL d   1      11.484  15.508   4.358 -0.12 -0.01    +0.066    16.292
ATOM     16  C   UNL d   1      11.790  15.392   3.008 -0.13 +0.00    -0.021    16.292
ATOM     17  C   UNL d   1      12.025  14.054   2.765 -0.23 -0.00    +0.000    16.292
ATOM     18  C   UNL d   1      11.854  13.384   3.974 -0.16 -0.01    +0.070    16.292
ATOM     19  C   UNL d   1      11.834  16.489   1.979 -0.15 -0.02    +0.052    16.292
ATOM     20  C   UNL d   1      11.879  11.316   5.379 -0.11 +0.00    +0.066    16.292
ATOM     21  C   UNL d   1      11.820   9.921   5.507 -0.15 -0.00    -0.025    16.292
ATOM     22  C   UNL d   1      11.757   9.668   6.861 -0.11 -0.00    -0.021    16.292
ATOM     23  C   UNL d   1      11.774  10.912   7.504 -0.10 +0.01    +0.066    16.292
ATOM     24  C   UNL d   1      11.818   8.873   4.418 -0.28 +0.00    +0.051    16.292
ATOM     25  N   UNL d   1      11.376  13.557   8.906 -0.12 -0.04    -0.248    16.292
ATOM     26  N   UNL d   1      11.139  15.903   7.297 -0.14 +0.03    -0.248    16.292
ATOM     27  N   UNL d   1      11.564  14.282   4.963 -0.08 +0.02    -0.248    16.292
ATOM     28  N   UNL d   1      11.803  11.914   6.592 -0.01 -0.02    -0.248    16.292
ATOM     29 FE   UNL d   1      11.471  13.908   6.943 -0.04 +0.00    +0.000    16.292
ATOM     30  C   UNL d   1      11.832  11.509  11.930 -0.11 +0.02    +0.052    16.292
ATOM     31  C   UNL d   1      10.511  10.889  12.374 -0.15 +0.06    +0.115    16.292
ATOM     32  C   UNL d   1       9.980  11.598  13.589 -0.06 +0.17    +0.139    16.292
ATOM     33  O   UNL d   1       8.808  11.478  13.918 -0.59 -0.94    -0.650    16.292
ATOM     34  O   UNL d   1      10.792  12.372  14.327 -0.07 -1.22    -0.776    16.292
ATOM     35  H   UNL d   1      11.669  12.040  14.565 +0.01 +0.14    +0.167    16.292
ATOM     36  C   UNL d   1      11.639   8.308   7.498 -0.11 +0.02    +0.052    16.292
ATOM     37  C   UNL d   1      10.265   7.723   7.206 -0.19 +0.05    +0.115    16.292
ATOM     38  C   UNL d   1      10.228   6.253   7.516 -0.03 +0.17    +0.139    16.292
ATOM     39  O   UNL d   1       9.163   5.670   7.655 -0.39 -0.93    -0.650    16.292
ATOM     40  O   UNL d   1      11.377   5.566   7.647 -0.37 -1.22    -0.776    16.292
ATOM     41  H   UNL d   1      12.099   5.735   7.026 +0.04 +0.14    +0.167    16.292
ATOM     42  C   UNL d   1      10.209  19.391   6.330 -0.16 -0.00    +0.004    16.292
ATOM     43  C   UNL d   1       9.149  19.506   5.520 -0.22 -0.00    +0.012    16.292
ATOM     44  C   UNL d   1      12.410  13.460   1.465 -0.28 -0.00    +0.004    16.292
ATOM     45  C   UNL d   1      13.581  12.831   1.319 -0.51 -0.00    +0.012    16.292
TER
ENDMDL
MODEL        9
USER    Run = 9
USER    Cluster Rank = 8
USER    Number of conformations in this cluster = 3
USER  
USER    RMSD from reference structure       = 18.317 A
USER  
USER    Estimated Free Energy of Binding    =   -7.94 kcal/mol  [=(1)+(2)+(3)-(4)]
USER    Estimated Inhibition Constant, Ki   =    1.51 uM (micromolar)  [Temperature = 298.15 K]
USER    
USER    (1) Final Intermolecular Energy     =  -10.92 kcal/mol
USER        vdW + Hbond + desolv Energy     =   -7.21 kcal/mol
USER        Electrostatic Energy            =   -3.72 kcal/mol
USER    (2) Final Total Internal Energy     =   -0.48 kcal/mol
USER    (3) Torsional Free Energy           =   +2.98 kcal/mol
USER    (4) Unbound System's Energy  [=(2)] =   -0.48 kcal/mol
USER    
USER    
USER  
USER    DPF = D:/Protein_go_brrr/autodock/final/mut_Y35F/heme_Fe/dock.dpf
USER    NEWDPF move	heme_Fe_opt.pdbqt
USER    NEWDPF about	-0.174000 -0.001000 -0.047000
USER    NEWDPF tran0	-10.220624 5.453934 17.211604
USER    NEWDPF axisangle0	0.904868 -0.264451 0.333585 -160.722324
USER    NEWDPF quaternion0	0.892094 -0.260717 0.328876 -0.167437
USER    NEWDPF dihe0	-127.03 165.88 -155.02 -162.66 -70.76 -95.11 23.69 87.25 -29.96 -159.47 
USER  
USER                              x       y       z    vdW   Elec        q     RMS 
ATOM      1  C   UNL d   1     -11.204   5.955  15.482 -0.21 +0.02    +0.064    18.317
ATOM      2  C   UNL d   1      -7.023   7.436  17.661 -0.15 +0.01    +0.064    18.317
ATOM      3  C   UNL d   1      -7.220   3.573  20.508 -0.09 +0.00    +0.064    18.317
ATOM      4  C   UNL d   1     -11.323   2.177  18.484 -0.11 +0.00    +0.064    18.317
ATOM      5  C   UNL d   1     -10.054   6.774  15.888 -0.19 +0.02    +0.066    18.317
ATOM      6  C   UNL d   1      -9.744   8.018  15.362 -0.24 -0.01    -0.021    18.317
ATOM      7  C   UNL d   1      -8.581   8.427  15.966 -0.23 -0.01    -0.025    18.317
ATOM      8  C   UNL d   1      -8.225   7.416  16.837 -0.18 +0.01    +0.066    18.317
ATOM      9  C   UNL d   1      -7.870   9.724  15.726 -0.23 +0.01    +0.051    18.317
ATOM     10  C   UNL d   1      -6.686   6.501  18.552 -0.12 +0.00    +0.066    18.317
ATOM     11  C   UNL d   1      -5.472   6.491  19.243 -0.10 -0.00    -0.021    18.317
ATOM     12  C   UNL d   1      -5.497   5.377  20.059 -0.08 +0.00    +0.000    18.317
ATOM     13  C   UNL d   1      -6.734   4.755  19.814 -0.09 +0.01    +0.070    18.317
ATOM     14  C   UNL d   1      -4.316   7.457  19.084 -0.10 -0.00    +0.052    18.317
ATOM     15  C   UNL d   1      -8.386   2.940  20.240 -0.08 +0.01    +0.066    18.317
ATOM     16  C   UNL d   1      -8.861   1.873  20.992 -0.06 -0.00    -0.021    18.317
ATOM     17  C   UNL d   1     -10.043   1.467  20.408 -0.08 +0.00    +0.000    18.317
ATOM     18  C   UNL d   1     -10.259   2.294  19.308 -0.05 +0.00    +0.070    18.317
ATOM     19  C   UNL d   1      -8.219   1.242  22.198 -0.02 +0.00    +0.052    18.317
ATOM     20  C   UNL d   1     -11.615   3.067  17.354 -0.07 -0.00    +0.066    18.317
ATOM     21  C   UNL d   1     -12.595   2.841  16.377 -0.19 -0.00    -0.025    18.317
ATOM     22  C   UNL d   1     -12.552   3.936  15.539 -0.18 -0.00    -0.021    18.317
ATOM     23  C   UNL d   1     -11.550   4.780  16.031 -0.17 +0.01    +0.066    18.317
ATOM     24  C   UNL d   1     -13.524   1.659  16.228 -0.21 +0.00    +0.051    18.317
ATOM     25  N   UNL d   1      -9.128   6.416  16.794 -0.15 -0.04    -0.248    18.317
ATOM     26  N   UNL d   1      -7.455   5.435  18.889 -0.09 -0.02    -0.248    18.317
ATOM     27  N   UNL d   1      -9.264   3.228  19.230 -0.07 -0.02    -0.248    18.317
ATOM     28  N   UNL d   1     -10.951   4.223  17.112 -0.08 -0.00    -0.248    18.317
ATOM     29 FE   UNL d   1      -9.204   4.827  18.001 -0.04 +0.00    +0.000    18.317
ATOM     30  C   UNL d   1     -10.524   8.790  14.354 -0.11 +0.03    +0.052    18.317
ATOM     31  C   UNL d   1     -11.933   9.073  14.862 -0.18 +0.07    +0.115    18.317
ATOM     32  C   UNL d   1     -12.870   9.310  13.710 +0.02 +0.19    +0.139    18.317
ATOM     33  O   UNL d   1     -12.791  10.332  13.043 -0.66 -1.11    -0.650    18.317
ATOM     34  O   UNL d   1     -13.806   8.397  13.403 -0.47 -1.20    -0.776    18.317
ATOM     35  H   UNL d   1     -14.407   8.089  14.096 +0.02 +0.13    +0.167    18.317
ATOM     36  C   UNL d   1     -13.396   4.135  14.307 -0.19 +0.02    +0.052    18.317
ATOM     37  C   UNL d   1     -13.087   3.043  13.293 -0.33 +0.07    +0.115    18.317
ATOM     38  C   UNL d   1     -12.033   3.493  12.321 -0.43 +0.16    +0.139    18.317
ATOM     39  O   UNL d   1     -12.343   3.974  11.241 -0.45 -1.47    -0.650    18.317
ATOM     40  O   UNL d   1     -10.732   3.365  12.636 -0.54 -0.73    -0.776    18.317
ATOM     41  H   UNL d   1     -10.486   3.184  13.553 -0.00 +0.10    +0.167    18.317
ATOM     42  C   UNL d   1      -4.391   4.963  20.976 -0.04 -0.00    +0.004    18.317
ATOM     43  C   UNL d   1      -3.620   3.905  20.692 -0.05 -0.00    +0.012    18.317
ATOM     44  C   UNL d   1     -10.919   0.372  20.883 -0.05 +0.00    +0.004    18.317
ATOM     45  C   UNL d   1     -11.009  -0.776  20.203 -0.07 +0.00    +0.012    18.317
TER
ENDMDL
MODEL       45
USER    Run = 45
USER    Cluster Rank = 9
USER    Number of conformations in this cluster = 4
USER  
USER    RMSD from reference structure       = 14.815 A
USER  
USER    Estimated Free Energy of Binding    =   -7.89 kcal/mol  [=(1)+(2)+(3)-(4)]
USER    Estimated Inhibition Constant, Ki   =    1.64 uM (micromolar)  [Temperature = 298.15 K]
USER    
USER    (1) Final Intermolecular Energy     =  -10.87 kcal/mol
USER        vdW + Hbond + desolv Energy     =   -8.18 kcal/mol
USER        Electrostatic Energy            =   -2.70 kcal/mol
USER    (2) Final Total Internal Energy     =   -0.70 kcal/mol
USER    (3) Torsional Free Energy           =   +2.98 kcal/mol
USER    (4) Unbound System's Energy  [=(2)] =   -0.70 kcal/mol
USER    
USER    
USER  
USER    DPF = D:/Protein_go_brrr/autodock/final/mut_Y35F/heme_Fe/dock.dpf
USER    NEWDPF move	heme_Fe_opt.pdbqt
USER    NEWDPF about	-0.174000 -0.001000 -0.047000
USER    NEWDPF tran0	13.729548 9.545608 5.032330
USER    NEWDPF axisangle0	-0.154377 0.181815 0.971139 -130.635304
USER    NEWDPF quaternion0	-0.140273 0.165204 0.882413 -0.417587
USER    NEWDPF dihe0	-118.92 -94.36 81.47 19.80 54.16 -53.46 -98.14 83.88 -30.59 -19.09 
USER  
USER                              x       y       z    vdW   Elec        q     RMS 
ATOM      1  C   UNL d   1      14.930   8.430   6.268 -0.08 +0.02    +0.064    14.815
ATOM      2  C   UNL d   1      15.321  12.857   4.104 -0.11 +0.00    +0.064    14.815
ATOM      3  C   UNL d   1      10.606  12.751   3.192 -0.32 -0.01    +0.064    14.815
ATOM      4  C   UNL d   1      10.225   8.420   5.188 -0.28 +0.01    +0.064    14.815
ATOM      5  C   UNL d   1      15.492   9.649   5.669 -0.07 +0.02    +0.066    14.815
ATOM      6  C   UNL d   1      16.841   9.964   5.637 -0.07 -0.01    -0.021    14.815
ATOM      7  C   UNL d   1      16.948  11.195   5.040 +0.09 -0.01    -0.025    14.815
ATOM      8  C   UNL d   1      15.659  11.584   4.729 +0.04 +0.02    +0.066    14.815
ATOM      9  C   UNL d   1      18.221  11.937   4.769 +0.06 +0.01    +0.051    14.815
ATOM     10  C   UNL d   1      14.093  13.232   3.742 -0.13 -0.00    +0.066    14.815
ATOM     11  C   UNL d   1      13.784  14.503   3.251 -0.10 +0.00    -0.021    14.815
ATOM     12  C   UNL d   1      12.427  14.503   2.996 -0.16 -0.00    +0.000    14.815
ATOM     13  C   UNL d   1      11.972  13.223   3.356 -0.20 -0.01    +0.070    14.815
ATOM     14  C   UNL d   1      14.723  15.682   3.097 -0.08 -0.01    +0.052    14.815
ATOM     15  C   UNL d   1      10.153  11.537   3.585 -0.25 -0.01    +0.066    14.815
ATOM     16  C   UNL d   1       8.866  11.086   3.321 -0.42 +0.00    -0.021    14.815
ATOM     17  C   UNL d   1       8.752   9.839   3.899 -0.28 +0.00    +0.000    14.815
ATOM     18  C   UNL d   1       9.974   9.559   4.507 -0.26 +0.00    +0.070    14.815
ATOM     19  C   UNL d   1       7.775  11.808   2.576 -0.37 -0.00    +0.052    14.815
ATOM     20  C   UNL d   1      11.516   8.065   5.788 -0.16 +0.02    +0.066    14.815
ATOM     21  C   UNL d   1      11.736   6.990   6.661 -0.16 -0.01    -0.025    14.815
ATOM     22  C   UNL d   1      13.085   7.004   6.946 -0.09 -0.01    -0.021    14.815
ATOM     23  C   UNL d   1      13.633   8.085   6.245 -0.07 +0.02    +0.066    14.815
ATOM     24  C   UNL d   1      10.734   5.999   7.208 -0.11 +0.06    +0.051    14.815
ATOM     25  N   UNL d   1      14.777  10.637   5.105 -0.07 -0.06    -0.248    14.815
ATOM     26  N   UNL d   1      12.986  12.451   3.820 -0.10 +0.02    -0.248    14.815
ATOM     27  N   UNL d   1      10.850  10.584   4.278 -0.16 +0.01    -0.248    14.815
ATOM     28  N   UNL d   1      12.663   8.755   5.576 -0.06 -0.04    -0.248    14.815
ATOM     29 FE   UNL d   1      12.823  10.602   4.698 -0.04 +0.00    +0.000    14.815
ATOM     30  C   UNL d   1      17.974   9.130   6.129 -0.08 +0.01    +0.052    14.815
ATOM     31  C   UNL d   1      18.000   7.781   5.419 -0.13 +0.05    +0.115    14.815
ATOM     32  C   UNL d   1      18.674   7.905   4.080 -0.26 +0.11    +0.139    14.815
ATOM     33  O   UNL d   1      19.797   8.383   3.989 -0.30 -0.67    -0.650    14.815
ATOM     34  O   UNL d   1      18.046   7.490   2.967 -0.45 -0.73    -0.776    14.815
ATOM     35  H   UNL d   1      17.209   7.907   2.718 -0.47 +0.06    +0.167    14.815
ATOM     36  C   UNL d   1      13.797   6.060   7.880 -0.07 +0.03    +0.052    14.815
ATOM     37  C   UNL d   1      14.019   4.724   7.188 -0.12 +0.06    +0.115    14.815
ATOM     38  C   UNL d   1      12.946   3.739   7.562 -0.18 +0.14    +0.139    14.815
ATOM     39  O   UNL d   1      12.699   3.500   8.734 -0.32 -1.15    -0.650    14.815
ATOM     40  O   UNL d   1      12.249   3.109   6.600 -0.38 -0.71    -0.776    14.815
ATOM     41  H   UNL d   1      12.610   2.300   6.211 +0.07 +0.10    +0.167    14.815
ATOM     42  C   UNL d   1      11.656  15.670   2.465 -0.20 -0.00    +0.004    14.815
ATOM     43  C   UNL d   1      10.846  15.537   1.407 -0.35 -0.00    +0.012    14.815
ATOM     44  C   UNL d   1       7.560   8.963   3.854 -0.44 +0.00    +0.004    14.815
ATOM     45  C   UNL d   1       7.226   8.318   2.731 -0.53 +0.00    +0.012    14.815
TER
ENDMDL
MODEL        6
USER    Run = 6
USER    Cluster Rank = 10
USER    Number of conformations in this cluster = 1
USER  
USER    RMSD from reference structure       = 15.430 A
USER  
USER    Estimated Free Energy of Binding    =   -7.85 kcal/mol  [=(1)+(2)+(3)-(4)]
USER    Estimated Inhibition Constant, Ki   =    1.76 uM (micromolar)  [Temperature = 298.15 K]
USER    
USER    (1) Final Intermolecular Energy     =  -10.83 kcal/mol
USER        vdW + Hbond + desolv Energy     =   -6.93 kcal/mol
USER        Electrostatic Energy            =   -3.91 kcal/mol
USER    (2) Final Total Internal Energy     =   -0.54 kcal/mol
USER    (3) Torsional Free Energy           =   +2.98 kcal/mol
USER    (4) Unbound System's Energy  [=(2)] =   -0.54 kcal/mol
USER    
USER    
USER  
USER    DPF = D:/Protein_go_brrr/autodock/final/mut_Y35F/heme_Fe/dock.dpf
USER    NEWDPF move	heme_Fe_opt.pdbqt
USER    NEWDPF about	-0.174000 -0.001000 -0.047000
USER    NEWDPF tran0	8.425062 4.243230 13.426191
USER    NEWDPF axisangle0	-0.430448 0.894050 0.124052 -171.705916
USER    NEWDPF quaternion0	-0.429321 0.891709 0.123727 -0.072316
USER    NEWDPF dihe0	156.76 -173.28 72.43 9.67 86.21 109.11 -172.02 26.99 176.64 -41.77 
USER  
USER                              x       y       z    vdW   Elec        q     RMS 
ATOM      1  C   UNL d   1       9.713   5.840  13.373 -0.08 +0.04    +0.064    15.430
ATOM      2  C   UNL d   1      10.047   1.056  12.172 -0.07 +0.04    +0.064    15.430
ATOM      3  C   UNL d   1       5.256   0.752  12.337 -0.19 -0.01    +0.064    15.430
ATOM      4  C   UNL d   1       4.916   5.353  13.603 -0.28 +0.01    +0.064    15.430
ATOM      5  C   UNL d   1      10.256   4.501  13.101 -0.07 +0.05    +0.066    15.430
ATOM      6  C   UNL d   1      11.603   4.181  13.089 -0.06 -0.01    -0.021    15.430
ATOM      7  C   UNL d   1      11.695   2.854  12.752 -0.07 -0.02    -0.025    15.430
ATOM      8  C   UNL d   1      10.398   2.413  12.572 -0.07 +0.05    +0.066    15.430
ATOM      9  C   UNL d   1      12.959   2.059  12.632 -0.05 +0.02    +0.051    15.430
ATOM     10  C   UNL d   1       8.803   0.591  12.047 -0.10 +0.03    +0.066    15.430
ATOM     11  C   UNL d   1       8.497  -0.680  11.553 -0.14 -0.00    -0.021    15.430
ATOM     12  C   UNL d   1       7.121  -0.786  11.574 -0.18 -0.00    +0.000    15.430
ATOM     13  C   UNL d   1       6.653   0.440  12.078 -0.13 +0.00    +0.070    15.430
ATOM     14  C   UNL d   1       9.466  -1.716  11.021 -0.16 +0.01    +0.052    15.430
ATOM     15  C   UNL d   1       4.797   1.949  12.773 -0.15 -0.00    +0.066    15.430
ATOM     16  C   UNL d   1       3.467   2.176  13.104 -0.21 +0.00    -0.021    15.430
ATOM     17  C   UNL d   1       3.366   3.504  13.466 -0.20 +0.00    +0.000    15.430
ATOM     18  C   UNL d   1       4.638   4.057  13.343 -0.11 +0.01    +0.070    15.430
ATOM     19  C   UNL d   1       2.329   1.193  13.058 -0.33 -0.02    +0.052    15.430
ATOM     20  C   UNL d   1       6.254   5.956  13.544 -0.22 +0.01    +0.066    15.430
ATOM     21  C   UNL d   1       6.527   7.329  13.613 -0.27 -0.01    -0.025    15.430
ATOM     22  C   UNL d   1       7.900   7.444  13.559 -0.16 -0.01    -0.021    15.430
ATOM     23  C   UNL d   1       8.408   6.144  13.452 -0.10 +0.03    +0.066    15.430
ATOM     24  C   UNL d   1       5.554   8.480  13.721 -0.28 +0.01    +0.051    15.430
ATOM     25  N   UNL d   1       9.525   3.415  12.794 -0.07 -0.22    -0.248    15.430
ATOM     26  N   UNL d   1       7.677   1.283  12.358 -0.07 -0.08    -0.248    15.430
ATOM     27  N   UNL d   1       5.527   3.092  12.960 -0.10 -0.03    -0.248    15.430
ATOM     28  N   UNL d   1       7.397   5.243  13.398 -0.08 -0.09    -0.248    15.430
ATOM     29 FE   UNL d   1       7.536   3.264  12.879 -0.02 +0.00    +0.000    15.430
ATOM     30  C   UNL d   1      12.747   5.084  13.402 -0.02 +0.02    +0.052    15.430
ATOM     31  C   UNL d   1      13.305   5.712  12.129 -0.03 +0.06    +0.115    15.430
ATOM     32  C   UNL d   1      12.421   5.393  10.955 +0.06 +0.17    +0.139    15.430
ATOM     33  O   UNL d   1      11.453   6.093  10.695 +0.02 -0.94    -0.650    15.430
ATOM     34  O   UNL d   1      12.690   4.329  10.178 -0.29 -1.47    -0.776    15.430
ATOM     35  H   UNL d   1      13.593   3.983  10.152 +0.01 +0.16    +0.167    15.430
ATOM     36  C   UNL d   1       8.676   8.735  13.559 -0.16 +0.02    +0.052    15.430
ATOM     37  C   UNL d   1       8.294   9.563  14.777 -0.14 +0.05    +0.115    15.430
ATOM     38  C   UNL d   1       8.510  11.028  14.522 -0.13 +0.15    +0.139    15.430
ATOM     39  O   UNL d   1       7.560  11.786  14.389 -0.43 -0.95    -0.650    15.430
ATOM     40  O   UNL d   1       9.759  11.517  14.436 -0.35 -1.11    -0.776    15.430
ATOM     41  H   UNL d   1      10.506  10.902  14.445 +0.02 +0.13    +0.167    15.430
ATOM     42  C   UNL d   1       6.347  -1.983  11.120 -0.31 -0.00    +0.004    15.430
ATOM     43  C   UNL d   1       5.539  -2.641  11.961 -0.24 -0.01    +0.012    15.430
ATOM     44  C   UNL d   1       2.136   4.192  13.919 -0.50 +0.00    +0.004    15.430
ATOM     45  C   UNL d   1       1.523   3.825  15.049 -0.44 -0.00    +0.012    15.430
TER
ENDMDL
MODEL       47
USER    Run = 47
USER    Cluster Rank = 11
USER    Number of conformations in this cluster = 4
USER  
USER    RMSD from reference structure       = 19.199 A
USER  
USER    Estimated Free Energy of Binding    =   -7.73 kcal/mol  [=(1)+(2)+(3)-(4)]
USER    Estimated Inhibition Constant, Ki   =    2.15 uM (micromolar)  [Temperature = 298.15 K]
USER    
USER    (1) Final Intermolecular Energy     =  -10.71 kcal/mol
USER        vdW + Hbond + desolv Energy     =   -8.20 kcal/mol
USER        Electrostatic Energy            =   -2.52 kcal/mol
USER    (2) Final Total Internal Energy     =   -0.58 kcal/mol
USER    (3) Torsional Free Energy           =   +2.98 kcal/mol
USER    (4) Unbound System's Energy  [=(2)] =   -0.58 kcal/mol
USER    
USER    
USER  
USER    DPF = D:/Protein_go_brrr/autodock/final/mut_Y35F/heme_Fe/dock.dpf
USER    NEWDPF move	heme_Fe_opt.pdbqt
USER    NEWDPF about	-0.174000 -0.001000 -0.047000
USER    NEWDPF tran0	20.663386 -2.138450 -8.091185
USER    NEWDPF axisangle0	0.679554 0.651654 0.336975 -114.870059
USER    NEWDPF quaternion0	0.572716 0.549202 0.283997 -0.538256
USER    NEWDPF dihe0	74.07 93.16 9.52 30.34 -41.51 -69.38 92.35 123.16 14.96 9.21 
USER  
USER                              x       y       z    vdW   Elec        q     RMS 
ATOM      1  C   UNL d   1      20.665  -4.163  -7.757 -0.14 +0.01    +0.064    19.199
ATOM      2  C   UNL d   1      20.272  -1.298 -11.765 -0.19 -0.02    +0.064    19.199
ATOM      3  C   UNL d   1      21.857   2.424  -9.175 -0.23 -0.03    +0.064    19.199
ATOM      4  C   UNL d   1      22.144  -0.307  -5.258 -0.20 +0.00    +0.064    19.199
ATOM      5  C   UNL d   1      20.328  -3.683  -9.104 -0.11 +0.01    +0.066    19.199
ATOM      6  C   UNL d   1      19.740  -4.453 -10.094 -0.10 -0.00    -0.021    19.199
ATOM      7  C   UNL d   1      19.635  -3.657 -11.208 -0.15 +0.00    -0.025    19.199
ATOM      8  C   UNL d   1      20.163  -2.431 -10.855 -0.18 -0.01    +0.066    19.199
ATOM      9  C   UNL d   1      19.042  -4.056 -12.525 -0.16 -0.02    +0.051    19.199
ATOM     10  C   UNL d   1      20.725  -0.087 -11.434 -0.22 -0.02    +0.066    19.199
ATOM     11  C   UNL d   1      20.925   0.944 -12.355 -0.23 +0.01    -0.021    19.199
ATOM     12  C   UNL d   1      21.398   2.024 -11.635 -0.17 -0.00    +0.000    19.199
ATOM     13  C   UNL d   1      21.470   1.588 -10.301 -0.15 -0.02    +0.070    19.199
ATOM     14  C   UNL d   1      20.740   0.883 -13.857 -0.26 -0.02    +0.052    19.199
ATOM     15  C   UNL d   1      21.978   1.995  -7.896 -0.17 -0.02    +0.066    19.199
ATOM     16  C   UNL d   1      22.252   2.847  -6.834 -0.19 +0.00    -0.021    19.199
ATOM     17  C   UNL d   1      22.339   2.061  -5.703 -0.18 -0.00    +0.000    19.199
ATOM     18  C   UNL d   1      22.119   0.745  -6.105 -0.18 -0.00    +0.070    19.199
ATOM     19  C   UNL d   1      22.451   4.338  -6.880 -0.18 -0.01    +0.052    19.199
ATOM     20  C   UNL d   1      21.857  -1.697  -5.633 -0.17 -0.00    +0.066    19.199
ATOM     21  C   UNL d   1      22.073  -2.817  -4.818 -0.18 -0.00    -0.025    19.199
ATOM     22  C   UNL d   1      21.633  -3.904  -5.545 -0.14 -0.00    -0.021    19.199
ATOM     23  C   UNL d   1      21.174  -3.407  -6.771 -0.11 +0.01    +0.066    19.199
ATOM     24  C   UNL d   1      22.666  -2.873  -3.429 -0.16 +0.01    +0.051    19.199
ATOM     25  N   UNL d   1      20.575  -2.446  -9.571 -0.11 +0.01    -0.248    19.199
ATOM     26  N   UNL d   1      21.068   0.299 -10.179 -0.16 +0.06    -0.248    19.199
ATOM     27  N   UNL d   1      21.854   0.709  -7.445 -0.10 +0.03    -0.248    19.199
ATOM     28  N   UNL d   1      21.355  -2.066  -6.836 -0.10 +0.00    -0.248    19.199
ATOM     29 FE   UNL d   1      21.212  -0.883  -8.506 -0.05 -0.00    +0.000    19.199
ATOM     30  C   UNL d   1      19.281  -5.866  -9.984 -0.06 +0.00    +0.052    19.199
ATOM     31  C   UNL d   1      17.762  -5.934  -9.874 -0.10 +0.02    +0.115    19.199
ATOM     32  C   UNL d   1      17.332  -5.820  -8.438 -0.16 +0.11    +0.139    19.199
ATOM     33  O   UNL d   1      17.942  -6.408  -7.556 -0.28 -0.84    -0.650    19.199
ATOM     34  O   UNL d   1      16.268  -5.068  -8.109 -0.47 -0.74    -0.776    19.199
ATOM     35  H   UNL d   1      16.412  -4.215  -7.677 -0.32 +0.14    +0.167    19.199
ATOM     36  C   UNL d   1      21.696  -5.342  -5.103 -0.08 +0.01    +0.052    19.199
ATOM     37  C   UNL d   1      20.304  -5.826  -4.728 -0.14 +0.08    +0.115    19.199
ATOM     38  C   UNL d   1      19.710  -4.970  -3.645 -0.19 +0.12    +0.139    19.199
ATOM     39  O   UNL d   1      20.157  -5.001  -2.508 -0.03 -0.29    -0.650    19.199
ATOM     40  O   UNL d   1      18.671  -4.162  -3.922 -0.27 -1.17    -0.776    19.199
ATOM     41  H   UNL d   1      18.844  -3.271  -4.257 -0.38 +0.06    +0.167    19.199
ATOM     42  C   UNL d   1      21.760   3.351 -12.222 -0.22 -0.00    +0.004    19.199
ATOM     43  C   UNL d   1      20.866   4.063 -12.920 -0.25 -0.01    +0.012    19.199
ATOM     44  C   UNL d   1      22.596   2.540  -4.326 -0.21 +0.00    +0.004    19.199
ATOM     45  C   UNL d   1      21.596   2.990  -3.561 -0.38 +0.00    +0.012    19.199
TER
ENDMDL
MODEL       44
USER    Run = 44
USER    Cluster Rank = 12
USER    Number of conformations in this cluster = 1
USER  
USER    RMSD from reference structure       = 14.126 A
USER  
USER    Estimated Free Energy of Binding    =   -7.73 kcal/mol  [=(1)+(2)+(3)-(4)]
USER    Estimated Inhibition Constant, Ki   =    2.17 uM (micromolar)  [Temperature = 298.15 K]
USER    
USER    (1) Final Intermolecular Energy     =  -10.71 kcal/mol
USER        vdW + Hbond + desolv Energy     =   -8.71 kcal/mol
USER        Electrostatic Energy            =   -2.00 kcal/mol
USER    (2) Final Total Internal Energy     =   -0.60 kcal/mol
USER    (3) Torsional Free Energy           =   +2.98 kcal/mol
USER    (4) Unbound System's Energy  [=(2)] =   -0.60 kcal/mol
USER    
USER    
USER  
USER    DPF = D:/Protein_go_brrr/autodock/final/mut_Y35F/heme_Fe/dock.dpf
USER    NEWDPF move	heme_Fe_opt.pdbqt
USER    NEWDPF about	-0.174000 -0.001000 -0.047000
USER    NEWDPF tran0	11.229899 10.321356 6.252179
USER    NEWDPF axisangle0	0.273077 0.947236 -0.167849 -133.799874
USER    NEWDPF quaternion0	0.251182 0.871287 -0.154391 -0.392338
USER    NEWDPF dihe0	-114.68 130.77 -77.81 26.45 -83.65 -96.04 82.03 -121.12 -166.21 153.19 
USER  
USER                              x       y       z    vdW   Elec        q     RMS 
ATOM      1  C   UNL d   1      12.641   9.398   7.422 -0.06 +0.01    +0.064    14.126
ATOM      2  C   UNL d   1       8.598   7.897   5.006 -0.27 +0.01    +0.064    14.126
ATOM      3  C   UNL d   1       8.604  12.035   2.567 -0.36 -0.00    +0.064    14.126
ATOM      4  C   UNL d   1      12.454  13.550   4.968 -0.11 -0.00    +0.064    14.126
ATOM      5  C   UNL d   1      11.453   8.627   7.027 -0.11 +0.02    +0.066    14.126
ATOM      6  C   UNL d   1      11.063   7.428   7.601 -0.16 -0.01    -0.021    14.126
ATOM      7  C   UNL d   1       9.942   7.010   6.927 -0.19 -0.01    -0.025    14.126
ATOM      8  C   UNL d   1       9.691   7.971   5.967 -0.22 +0.02    +0.066    14.126
ATOM      9  C   UNL d   1       9.154   5.768   7.209 -0.04 +0.05    +0.051    14.126
ATOM     10  C   UNL d   1       8.300   8.837   4.108 -0.34 +0.01    +0.066    14.126
ATOM     11  C   UNL d   1       7.318   8.687   3.125 -0.46 -0.00    -0.021    14.126
ATOM     12  C   UNL d   1       7.312   9.861   2.398 -0.54 +0.00    +0.000    14.126
ATOM     13  C   UNL d   1       8.305  10.671   2.974 -0.46 -0.00    +0.070    14.126
ATOM     14  C   UNL d   1       6.475   7.459   2.849 -0.44 +0.01    +0.052    14.126
ATOM     15  C   UNL d   1       9.594  12.800   3.084 -0.39 -0.01    +0.066    14.126
ATOM     16  C   UNL d   1       9.783  14.131   2.738 -0.43 +0.00    -0.021    14.126
ATOM     17  C   UNL d   1      10.895  14.570   3.427 -0.25 -0.00    +0.000    14.126
ATOM     18  C   UNL d   1      11.362  13.491   4.175 -0.17 -0.01    +0.070    14.126
ATOM     19  C   UNL d   1       8.968  14.955   1.778 -0.29 -0.01    +0.052    14.126
ATOM     20  C   UNL d   1      12.939  12.455   5.816 -0.07 +0.00    +0.066    14.126
ATOM     21  C   UNL d   1      14.172  12.432   6.484 -0.04 -0.00    -0.025    14.126
ATOM     22  C   UNL d   1      14.198  11.245   7.187 -0.03 -0.00    -0.021    14.126
ATOM     23  C   UNL d   1      12.990  10.592   6.918 -0.06 +0.01    +0.066    14.126
ATOM     24  C   UNL d   1      15.275  13.465   6.464 -0.02 +0.00    +0.051    14.126
ATOM     25  N   UNL d   1      10.607   8.958   6.037 -0.11 -0.05    -0.248    14.126
ATOM     26  N   UNL d   1       8.914  10.044   4.011 -0.17 -0.00    -0.248    14.126
ATOM     27  N   UNL d   1      10.537  12.415   3.999 -0.10 +0.03    -0.248    14.126
ATOM     28  N   UNL d   1      12.245  11.314   6.045 -0.06 -0.02    -0.248    14.126
ATOM     29 FE   UNL d   1      10.581  10.681   5.028 -0.06 +0.00    +0.000    14.126
ATOM     30  C   UNL d   1      11.707   6.724   8.746 -0.11 +0.05    +0.052    14.126
ATOM     31  C   UNL d   1      12.978   6.011   8.296 -0.09 +0.09    +0.115    14.126
ATOM     32  C   UNL d   1      12.701   4.556   8.036 -0.08 +0.18    +0.139    14.126
ATOM     33  O   UNL d   1      12.705   3.748   8.953 -0.31 -1.26    -0.650    14.126
ATOM     34  O   UNL d   1      12.446   4.131   6.787 -0.46 -0.76    -0.776    14.126
ATOM     35  H   UNL d   1      13.144   4.190   6.119 +0.06 +0.11    +0.167    14.126
ATOM     36  C   UNL d   1      15.343  10.748   8.030 -0.01 +0.01    +0.052    14.126
ATOM     37  C   UNL d   1      16.002   9.557   7.350 -0.02 +0.02    +0.115    14.126
ATOM     38  C   UNL d   1      16.492   9.924   5.978 -0.07 +0.04    +0.139    14.126
ATOM     39  O   UNL d   1      15.812   9.693   4.989 -0.55 -0.35    -0.650    14.126
ATOM     40  O   UNL d   1      17.693  10.510   5.829 +0.01 -0.20    -0.776    14.126
ATOM     41  H   UNL d   1      17.913  11.276   6.376 +0.02 +0.03    +0.167    14.126
ATOM     42  C   UNL d   1       6.418  10.140   1.231 -0.22 +0.00    +0.004    14.126
ATOM     43  C   UNL d   1       5.991   9.149   0.437 -0.57 +0.00    +0.012    14.126
ATOM     44  C   UNL d   1      11.462  15.937   3.387 -0.15 -0.00    +0.004    14.126
ATOM     45  C   UNL d   1      10.927  16.921   4.116 -0.15 -0.00    +0.012    14.126
TER
ENDMDL
MODEL       63
USER    Run = 63
USER    Cluster Rank = 13
USER    Number of conformations in this cluster = 2
USER  
USER    RMSD from reference structure       = 13.958 A
USER  
USER    Estimated Free Energy of Binding    =   -7.65 kcal/mol  [=(1)+(2)+(3)-(4)]
USER    Estimated Inhibition Constant, Ki   =    2.47 uM (micromolar)  [Temperature = 298.15 K]
USER    
USER    (1) Final Intermolecular Energy     =  -10.63 kcal/mol
USER        vdW + Hbond + desolv Energy     =   -8.62 kcal/mol
USER        Electrostatic Energy            =   -2.01 kcal/mol
USER    (2) Final Total Internal Energy     =   -0.50 kcal/mol
USER    (3) Torsional Free Energy           =   +2.98 kcal/mol
USER    (4) Unbound System's Energy  [=(2)] =   -0.50 kcal/mol
USER    
USER    
USER  
USER    DPF = D:/Protein_go_brrr/autodock/final/mut_Y35F/heme_Fe/dock.dpf
USER    NEWDPF move	heme_Fe_opt.pdbqt
USER    NEWDPF about	-0.174000 -0.001000 -0.047000
USER    NEWDPF tran0	11.423079 11.017704 4.736125
USER    NEWDPF axisangle0	-0.279532 -0.450711 0.847775 -89.420177
USER    NEWDPF quaternion0	-0.196656 -0.317084 0.596426 -0.710676
USER    NEWDPF dihe0	102.90 -0.26 -168.52 31.09 -80.50 -58.73 35.30 -10.49 -156.65 -152.90 
USER  
USER                              x       y       z    vdW   Elec        q     RMS 
ATOM      1  C   UNL d   1      10.928   9.026   4.731 -0.28 +0.01    +0.064    13.958
ATOM      2  C   UNL d   1      13.784  11.895   7.567 -0.04 +0.01    +0.064    13.958
ATOM      3  C   UNL d   1      11.702  15.765   5.630 -0.14 -0.01    +0.064    13.958
ATOM      4  C   UNL d   1       9.003  13.010   2.800 -0.52 -0.01    +0.064    13.958
ATOM      5  C   UNL d   1      11.984   9.476   5.648 -0.12 +0.01    +0.066    13.958
ATOM      6  C   UNL d   1      12.869   8.638   6.307 -0.08 -0.00    -0.021    13.958
ATOM      7  C   UNL d   1      13.659   9.435   7.098 -0.03 -0.00    -0.025    13.958
ATOM      8  C   UNL d   1      13.226  10.731   6.890 -0.05 +0.01    +0.066    13.958
ATOM      9  C   UNL d   1      14.775   8.972   7.982 -0.01 +0.01    +0.051    13.958
ATOM     10  C   UNL d   1      13.424  13.159   7.343 -0.05 +0.00    +0.066    13.958
ATOM     11  C   UNL d   1      13.895  14.243   8.088 -0.03 -0.00    -0.021    13.958
ATOM     12  C   UNL d   1      13.297  15.369   7.560 -0.05 +0.00    +0.000    13.958
ATOM     13  C   UNL d   1      12.477  14.909   6.515 -0.08 -0.00    +0.070    13.958
ATOM     14  C   UNL d   1      14.818  14.201   9.289 -0.01 +0.00    +0.052    13.958
ATOM     15  C   UNL d   1      10.872  15.324   4.656 -0.19 -0.01    +0.066    13.958
ATOM     16  C   UNL d   1      10.226  16.174   3.767 -0.23 +0.00    -0.021    13.958
ATOM     17  C   UNL d   1       9.444  15.382   2.952 -0.36 -0.00    +0.000    13.958
ATOM     18  C   UNL d   1       9.628  14.065   3.367 -0.36 -0.01    +0.070    13.958
ATOM     19  C   UNL d   1      10.319  17.675   3.700 -0.15 -0.01    +0.052    13.958
ATOM     20  C   UNL d   1       9.218  11.605   3.169 -0.38 -0.01    +0.066    13.958
ATOM     21  C   UNL d   1       8.438  10.525   2.734 -0.50 +0.00    -0.025    13.958
ATOM     22  C   UNL d   1       9.012   9.398   3.286 -0.45 +0.00    -0.021    13.958
ATOM     23  C   UNL d   1      10.110   9.834   4.037 -0.31 -0.00    +0.066    13.958
ATOM     24  C   UNL d   1       7.212  10.542   1.850 -0.08 +0.00    +0.051    13.958
ATOM     25  N   UNL d   1      12.213  10.753   6.001 -0.06 -0.02    -0.248    13.958
ATOM     26  N   UNL d   1      12.548  13.562   6.388 -0.05 -0.00    -0.248    13.958
ATOM     27  N   UNL d   1      10.539  14.024   4.385 -0.05 +0.03    -0.248    13.958
ATOM     28  N   UNL d   1      10.204  11.185   3.998 -0.17 +0.02    -0.248    13.958
ATOM     29 FE   UNL d   1      11.375  12.374   5.192 -0.05 -0.00    +0.000    13.958
ATOM     30  C   UNL d   1      12.974   7.157   6.178 -0.15 +0.02    +0.052    13.958
ATOM     31  C   UNL d   1      11.734   6.476   6.747 -0.18 +0.07    +0.115    13.958
ATOM     32  C   UNL d   1      12.104   5.176   7.406 -0.12 +0.17    +0.139    13.958
ATOM     33  O   UNL d   1      12.282   4.167   6.738 -0.52 -0.67    -0.650    13.958
ATOM     34  O   UNL d   1      12.243   5.112   8.741 +0.11 -1.46    -0.776    13.958
ATOM     35  H   UNL d   1      13.048   5.462   9.147 +0.01 +0.18    +0.167    13.958
ATOM     36  C   UNL d   1       8.502   7.989   3.139 -0.39 +0.00    +0.052    13.958
ATOM     37  C   UNL d   1       7.056   7.915   3.605 -0.39 +0.02    +0.115    13.958
ATOM     38  C   UNL d   1       6.432   6.603   3.220 -0.10 +0.05    +0.139    13.958
ATOM     39  O   UNL d   1       6.371   6.259   2.049 -0.40 -0.14    -0.650    13.958
ATOM     40  O   UNL d   1       5.931   5.794   4.171 -0.81 -0.30    -0.776    13.958
ATOM     41  H   UNL d   1       5.525   4.956   3.909 +0.09 +0.04    +0.167    13.958
ATOM     42  C   UNL d   1      13.505  16.764   8.060 -0.03 -0.00    +0.004    13.958
ATOM     43  C   UNL d   1      12.477  17.498   8.504 -0.07 -0.00    +0.012    13.958
ATOM     44  C   UNL d   1       8.593  15.852   1.836 -0.37 -0.00    +0.004    13.958
ATOM     45  C   UNL d   1       9.106  16.043   0.616 -0.41 -0.00    +0.012    13.958
TER
ENDMDL
MODEL       17
USER    Run = 17
USER    Cluster Rank = 14
USER    Number of conformations in this cluster = 4
USER  
USER    RMSD from reference structure       = 17.030 A
USER  
USER    Estimated Free Energy of Binding    =   -7.34 kcal/mol  [=(1)+(2)+(3)-(4)]
USER    Estimated Inhibition Constant, Ki   =    4.19 uM (micromolar)  [Temperature = 298.15 K]
USER    
USER    (1) Final Intermolecular Energy     =  -10.32 kcal/mol
USER        vdW + Hbond + desolv Energy     =   -6.93 kcal/mol
USER        Electrostatic Energy            =   -3.39 kcal/mol
USER    (2) Final Total Internal Energy     =   -0.22 kcal/mol
USER    (3) Torsional Free Energy           =   +2.98 kcal/mol
USER    (4) Unbound System's Energy  [=(2)] =   -0.22 kcal/mol
USER    
USER    
USER  
USER    DPF = D:/Protein_go_brrr/autodock/final/mut_Y35F/heme_Fe/dock.dpf
USER    NEWDPF move	heme_Fe_opt.pdbqt
USER    NEWDPF about	-0.174000 -0.001000 -0.047000
USER    NEWDPF tran0	-14.456043 7.220179 12.883921
USER    NEWDPF axisangle0	0.781071 0.546247 0.302560 -145.596211
USER    NEWDPF quaternion0	0.746133 0.521813 0.289026 -0.295740
USER    NEWDPF dihe0	164.21 -108.31 -162.38 -158.12 -51.95 -174.53 -124.10 -108.05 138.08 148.05 
USER  
USER                              x       y       z    vdW   Elec        q     RMS 
ATOM      1  C   UNL d   1     -14.669   5.281  12.247 -0.19 +0.06    +0.064    17.030
ATOM      2  C   UNL d   1     -15.781   9.709  10.352 -0.04 +0.06    +0.064    17.030
ATOM      3  C   UNL d   1     -12.944  11.753  13.645 -0.08 +0.04    +0.064    17.030
ATOM      4  C   UNL d   1     -11.938   7.486  15.560 -0.13 +0.03    +0.064    17.030
ATOM      5  C   UNL d   1     -15.311   6.344  11.461 -0.11 +0.07    +0.066    17.030
ATOM      6  C   UNL d   1     -16.278   6.136  10.491 -0.09 -0.02    -0.021    17.030
ATOM      7  C   UNL d   1     -16.583   7.366   9.963 -0.04 -0.02    -0.025    17.030
ATOM      8  C   UNL d   1     -15.790   8.278  10.632 -0.05 +0.07    +0.066    17.030
ATOM      9  C   UNL d   1     -17.593   7.641   8.891 -0.00 +0.02    +0.051    17.030
ATOM     10  C   UNL d   1     -15.068  10.617  11.021 -0.06 +0.06    +0.066    17.030
ATOM     11  C   UNL d   1     -14.992  11.964  10.657 -0.05 -0.01    -0.021    17.030
ATOM     12  C   UNL d   1     -14.166  12.572  11.581 -0.08 +0.00    +0.000    17.030
ATOM     13  C   UNL d   1     -13.771  11.553  12.465 -0.12 +0.06    +0.070    17.030
ATOM     14  C   UNL d   1     -15.620  12.626   9.447 -0.01 +0.01    +0.052    17.030
ATOM     15  C   UNL d   1     -12.518  10.767  14.470 -0.12 +0.04    +0.066    17.030
ATOM     16  C   UNL d   1     -11.813  11.011  15.641 -0.09 -0.01    -0.021    17.030
ATOM     17  C   UNL d   1     -11.518   9.781  16.194 -0.09 +0.00    +0.000    17.030
ATOM     18  C   UNL d   1     -12.049   8.815  15.342 -0.13 +0.04    +0.070    17.030
ATOM     19  C   UNL d   1     -11.407  12.344  16.209 -0.06 +0.01    +0.052    17.030
ATOM     20  C   UNL d   1     -12.536   6.442  14.719 -0.12 +0.04    +0.066    17.030
ATOM     21  C   UNL d   1     -12.265   5.070  14.817 -0.19 -0.01    -0.025    17.030
ATOM     22  C   UNL d   1     -13.063   4.459  13.872 -0.21 -0.01    -0.021    17.030
ATOM     23  C   UNL d   1     -13.781   5.478  13.234 -0.15 +0.06    +0.066    17.030
ATOM     24  C   UNL d   1     -11.304   4.362  15.744 -0.24 +0.01    +0.051    17.030
ATOM     25  N   UNL d   1     -15.024   7.655  11.549 -0.02 -0.38    -0.248    17.030
ATOM     26  N   UNL d   1     -14.313  10.360  12.119 -0.01 -0.35    -0.248    17.030
ATOM     27  N   UNL d   1     -12.701   9.421  14.305 -0.14 -0.23    -0.248    17.030
ATOM     28  N   UNL d   1     -13.422   6.689  13.725 -0.09 -0.24    -0.248    17.030
ATOM     29 FE   UNL d   1     -13.867   8.524  12.924 -0.04 +0.00    +0.000    17.030
ATOM     30  C   UNL d   1     -16.897   4.839  10.099 -0.15 +0.04    +0.052    17.030
ATOM     31  C   UNL d   1     -16.914   4.685   8.582 -0.16 +0.08    +0.115    17.030
ATOM     32  C   UNL d   1     -15.525   4.823   8.024 -0.06 +0.19    +0.139    17.030
ATOM     33  O   UNL d   1     -14.832   5.790   8.308 -0.11 -0.87    -0.650    17.030
ATOM     34  O   UNL d   1     -15.030   3.881   7.203 -0.45 -1.31    -0.776    17.030
ATOM     35  H   UNL d   1     -15.468   3.020   7.159 -0.54 +0.17    +0.167    17.030
ATOM     36  C   UNL d   1     -13.096   2.985  13.568 -0.35 +0.03    +0.052    17.030
ATOM     37  C   UNL d   1     -12.594   2.741  12.152 -0.37 +0.14    +0.115    17.030
ATOM     38  C   UNL d   1     -11.114   2.979  12.057 -0.53 +0.15    +0.139    17.030
ATOM     39  O   UNL d   1     -10.541   2.930  10.978 -0.55 -0.88    -0.650    17.030
ATOM     40  O   UNL d   1     -10.404   3.246  13.168 -0.42 -0.60    -0.776    17.030
ATOM     41  H   UNL d   1     -10.248   2.537  13.807 -0.20 +0.08    +0.167    17.030
ATOM     42  C   UNL d   1     -13.792  14.020  11.573 -0.06 +0.00    +0.004    17.030
ATOM     43  C   UNL d   1     -12.526  14.404  11.362 -0.14 -0.00    +0.012    17.030
ATOM     44  C   UNL d   1     -10.795   9.547  17.464 -0.04 +0.00    +0.004    17.030
ATOM     45  C   UNL d   1      -9.521   9.141  17.462 -0.07 +0.00    +0.012    17.030
TER
ENDMDL
MODEL       16
USER    Run = 16
USER    Cluster Rank = 15
USER    Number of conformations in this cluster = 8
USER  
USER    RMSD from reference structure       = 16.675 A
USER  
USER    Estimated Free Energy of Binding    =   -7.30 kcal/mol  [=(1)+(2)+(3)-(4)]
USER    Estimated Inhibition Constant, Ki   =    4.48 uM (micromolar)  [Temperature = 298.15 K]
USER    
USER    (1) Final Intermolecular Energy     =  -10.28 kcal/mol
USER        vdW + Hbond + desolv Energy     =   -9.26 kcal/mol
USER        Electrostatic Energy            =   -1.02 kcal/mol
USER    (2) Final Total Internal Energy     =   -0.64 kcal/mol
USER    (3) Torsional Free Energy           =   +2.98 kcal/mol
USER    (4) Unbound System's Energy  [=(2)] =   -0.64 kcal/mol
USER    
USER    
USER  
USER    DPF = D:/Protein_go_brrr/autodock/final/mut_Y35F/heme_Fe/dock.dpf
USER    NEWDPF move	heme_Fe_opt.pdbqt
USER    NEWDPF about	-0.174000 -0.001000 -0.047000
USER    NEWDPF tran0	1.919263 -16.928360 -9.981945
USER    NEWDPF axisangle0	-0.632010 -0.734058 -0.248440 -81.581995
USER    NEWDPF quaternion0	-0.412893 -0.479561 -0.162306 -0.757098
USER    NEWDPF dihe0	148.30 -151.16 173.94 -156.63 58.18 63.03 16.45 -89.30 18.70 178.20 
USER  
USER                              x       y       z    vdW   Elec        q     RMS 
ATOM      1  C   UNL d   1       0.601 -16.846 -11.552 -0.25 -0.00    +0.064    16.675
ATOM      2  C   UNL d   1       0.362 -18.465  -6.888 -0.18 -0.05    +0.064    16.675
ATOM      3  C   UNL d   1       4.421 -16.085  -5.927 -0.25 -0.02    +0.064    16.675
ATOM      4  C   UNL d   1       4.728 -14.593 -10.462 -0.27 -0.02    +0.064    16.675
ATOM      5  C   UNL d   1       0.202 -17.591 -10.350 -0.27 -0.01    +0.066    16.675
ATOM      6  C   UNL d   1      -0.862 -18.476 -10.284 -0.31 +0.00    -0.021    16.675
ATOM      7  C   UNL d   1      -0.930 -18.922  -8.988 -0.32 +0.01    -0.025    16.675
ATOM      8  C   UNL d   1       0.097 -18.292  -8.311 -0.29 -0.03    +0.066    16.675
ATOM      9  C   UNL d   1      -1.915 -19.911  -8.445 -0.23 -0.03    +0.051    16.675
ATOM     10  C   UNL d   1       1.379 -17.914  -6.224 -0.29 -0.04    +0.066    16.675
ATOM     11  C   UNL d   1       1.541 -18.006  -4.840 -0.28 +0.01    -0.021    16.675
ATOM     12  C   UNL d   1       2.696 -17.314  -4.535 -0.25 -0.00    +0.000    16.675
ATOM     13  C   UNL d   1       3.179 -16.823  -5.760 -0.22 -0.03    +0.070    16.675
ATOM     14  C   UNL d   1       0.604 -18.664  -3.846 -0.33 -0.03    +0.052    16.675
ATOM     15  C   UNL d   1       4.864 -15.566  -7.096 -0.20 -0.03    +0.066    16.675
ATOM     16  C   UNL d   1       6.103 -14.953  -7.233 -0.21 +0.01    -0.021    16.675
ATOM     17  C   UNL d   1       6.192 -14.519  -8.540 -0.22 -0.00    +0.000    16.675
ATOM     18  C   UNL d   1       5.001 -14.874  -9.169 -0.23 -0.03    +0.070    16.675
ATOM     19  C   UNL d   1       7.154 -14.760  -6.173 -0.20 -0.04    +0.052    16.675
ATOM     20  C   UNL d   1       3.512 -15.004 -11.174 -0.20 -0.02    +0.066    16.675
ATOM     21  C   UNL d   1       3.126 -14.553 -12.444 -0.19 +0.01    -0.025    16.675
ATOM     22  C   UNL d   1       1.954 -15.218 -12.741 -0.17 +0.00    -0.021    16.675
ATOM     23  C   UNL d   1       1.669 -16.039 -11.643 -0.21 -0.01    +0.066    16.675
ATOM     24  C   UNL d   1       3.814 -13.547 -13.338 -0.16 -0.01    +0.051    16.675
ATOM     25  N   UNL d   1       0.789 -17.490  -9.145 -0.21 +0.09    -0.248    16.675
ATOM     26  N   UNL d   1       2.372 -17.181  -6.789 -0.03 +0.13    -0.248    16.675
ATOM     27  N   UNL d   1       4.202 -15.556  -8.295 +0.02 +0.12    -0.248    16.675
ATOM     28  N   UNL d   1       2.599 -15.870 -10.672 -0.17 +0.09    -0.248    16.675
ATOM     29 FE   UNL d   1       2.487 -16.525  -8.731 -0.06 -0.00    +0.000    16.675
ATOM     30  C   UNL d   1      -1.757 -18.894 -11.400 -0.28 +0.01    +0.052    16.675
ATOM     31  C   UNL d   1      -1.466 -20.332 -11.816 -0.15 +0.03    +0.115    16.675
ATOM     32  C   UNL d   1      -2.061 -20.620 -13.166 -0.11 +0.09    +0.139    16.675
ATOM     33  O   UNL d   1      -1.745 -19.954 -14.142 -0.04 -0.43    -0.650    16.675
ATOM     34  O   UNL d   1      -2.950 -21.618 -13.313 -0.19 -0.83    -0.776    16.675
ATOM     35  H   UNL d   1      -2.875 -22.400 -12.748 +0.01 +0.11    +0.167    16.675
ATOM     36  C   UNL d   1       1.131 -15.035 -13.988 -0.12 -0.00    +0.052    16.675
ATOM     37  C   UNL d   1       0.191 -13.851 -13.814 -0.19 -0.01    +0.115    16.675
ATOM     38  C   UNL d   1       0.840 -12.576 -14.272 -0.20 -0.01    +0.139    16.675
ATOM     39  O   UNL d   1       1.170 -12.426 -15.439 +0.00 +0.01    -0.650    16.675
ATOM     40  O   UNL d   1       1.066 -11.584 -13.391 -0.20 +0.01    -0.776    16.675
ATOM     41  H   UNL d   1       1.211 -11.806 -12.461 -0.49 -0.05    +0.167    16.675
ATOM     42  C   UNL d   1       3.252 -17.141  -3.157 -0.31 -0.00    +0.004    16.675
ATOM     43  C   UNL d   1       3.751 -15.964  -2.758 -0.35 -0.00    +0.012    16.675
ATOM     44  C   UNL d   1       7.350 -13.829  -9.151 -0.18 -0.00    +0.004    16.675
ATOM     45  C   UNL d   1       7.329 -12.508  -9.357 -0.29 -0.01    +0.012    16.675
TER
ENDMDL
MODEL       58
USER    Run = 58
USER    Cluster Rank = 16
USER    Number of conformations in this cluster = 2
USER  
USER    RMSD from reference structure       = 16.192 A
USER  
USER    Estimated Free Energy of Binding    =   -7.27 kcal/mol  [=(1)+(2)+(3)-(4)]
USER    Estimated Inhibition Constant, Ki   =    4.69 uM (micromolar)  [Temperature = 298.15 K]
USER    
USER    (1) Final Intermolecular Energy     =  -10.25 kcal/mol
USER        vdW + Hbond + desolv Energy     =   -7.01 kcal/mol
USER        Electrostatic Energy            =   -3.25 kcal/mol
USER    (2) Final Total Internal Energy     =   -0.55 kcal/mol
USER    (3) Torsional Free Energy           =   +2.98 kcal/mol
USER    (4) Unbound System's Energy  [=(2)] =   -0.55 kcal/mol
USER    
USER    
USER  
USER    DPF = D:/Protein_go_brrr/autodock/final/mut_Y35F/heme_Fe/dock.dpf
USER    NEWDPF move	heme_Fe_opt.pdbqt
USER    NEWDPF about	-0.174000 -0.001000 -0.047000
USER    NEWDPF tran0	15.310206 9.981254 4.425964
USER    NEWDPF axisangle0	0.194863 0.071809 -0.978198 90.130090
USER    NEWDPF quaternion0	0.137945 0.050834 -0.692476 0.706304
USER    NEWDPF dihe0	26.87 -145.35 68.97 -165.00 -102.95 67.70 172.39 -22.63 -2.25 170.63 
USER  
USER                              x       y       z    vdW   Elec        q     RMS 
ATOM      1  C   UNL d   1      15.156   8.082   5.187 -0.17 +0.02    +0.064    16.192
ATOM      2  C   UNL d   1      18.544  11.672   5.448 -0.06 +0.01    +0.064    16.192
ATOM      3  C   UNL d   1      15.282  14.776   3.779 -0.07 -0.01    +0.064    16.192
ATOM      4  C   UNL d   1      12.019  11.296   3.419 -0.19 -0.01    +0.064    16.192
ATOM      5  C   UNL d   1      16.437   8.787   5.336 -0.07 +0.02    +0.066    16.192
ATOM      6  C   UNL d   1      17.633   8.187   5.693 -0.11 -0.01    -0.021    16.192
ATOM      7  C   UNL d   1      18.573   9.185   5.769 -0.09 -0.01    -0.025    16.192
ATOM      8  C   UNL d   1      17.913  10.358   5.455 -0.07 +0.02    +0.066    16.192
ATOM      9  C   UNL d   1      20.022   9.010   6.105 -0.04 +0.02    +0.051    16.192
ATOM     10  C   UNL d   1      17.945  12.810   5.093 -0.05 +0.01    +0.066    16.192
ATOM     11  C   UNL d   1      18.542  14.067   5.207 -0.03 -0.00    -0.021    16.192
ATOM     12  C   UNL d   1      17.615  14.982   4.747 -0.03 -0.00    +0.000    16.192
ATOM     13  C   UNL d   1      16.486  14.228   4.382 -0.05 -0.00    +0.070    16.192
ATOM     14  C   UNL d   1      19.903  14.390   5.788 -0.01 +0.00    +0.052    16.192
ATOM     15  C   UNL d   1      14.173  14.062   3.473 -0.10 -0.01    +0.066    16.192
ATOM     16  C   UNL d   1      13.081  14.604   2.807 -0.14 +0.00    -0.021    16.192
ATOM     17  C   UNL d   1      12.138  13.603   2.705 -0.26 -0.00    +0.000    16.192
ATOM     18  C   UNL d   1      12.675  12.473   3.316 -0.21 -0.01    +0.070    16.192
ATOM     19  C   UNL d   1      12.918  16.014   2.307 -0.13 -0.02    +0.052    16.192
ATOM     20  C   UNL d   1      12.576  10.069   4.000 -0.24 +0.00    +0.066    16.192
ATOM     21  C   UNL d   1      11.847   8.908   4.294 -0.27 -0.00    -0.025    16.192
ATOM     22  C   UNL d   1      12.763   8.001   4.784 -0.23 -0.00    -0.021    16.192
ATOM     23  C   UNL d   1      14.007   8.642   4.777 -0.18 +0.01    +0.066    16.192
ATOM     24  C   UNL d   1      10.366   8.657   4.128 -0.37 +0.00    +0.051    16.192
ATOM     25  N   UNL d   1      16.616  10.111   5.183 +0.07 -0.11    -0.248    16.192
ATOM     26  N   UNL d   1      16.684  12.905   4.601 -0.06 -0.03    -0.248    16.192
ATOM     27  N   UNL d   1      13.944  12.741   3.750 -0.09 +0.01    -0.248    16.192
ATOM     28  N   UNL d   1      13.880   9.919   4.340 -0.11 -0.04    -0.248    16.192
ATOM     29 FE   UNL d   1      15.280  11.412   4.470 -0.04 +0.00    +0.000    16.192
ATOM     30  C   UNL d   1      17.879   6.736   5.929 -0.09 +0.02    +0.052    16.192
ATOM     31  C   UNL d   1      18.221   6.026   4.624 -0.21 +0.07    +0.115    16.192
ATOM     32  C   UNL d   1      18.031   6.954   3.455 -0.24 +0.12    +0.139    16.192
ATOM     33  O   UNL d   1      17.047   6.856   2.736 -0.07 -0.36    -0.650    16.192
ATOM     34  O   UNL d   1      18.946   7.901   3.190 -0.52 -1.17    -0.776    16.192
ATOM     35  H   UNL d   1      18.669   8.706   2.731 -0.32 +0.16    +0.167    16.192
ATOM     36  C   UNL d   1      12.449   6.613   5.278 -0.24 +0.02    +0.052    16.192
ATOM     37  C   UNL d   1      12.197   6.647   6.778 -0.16 +0.06    +0.115    16.192
ATOM     38  C   UNL d   1      11.356   5.478   7.209 -0.06 +0.18    +0.139    16.192
ATOM     39  O   UNL d   1      11.794   4.339   7.157 -0.43 -0.93    -0.650    16.192
ATOM     40  O   UNL d   1      10.103   5.682   7.655 -0.47 -1.44    -0.776    16.192
ATOM     41  H   UNL d   1       9.576   6.394   7.267 +0.05 +0.15    +0.167    16.192
ATOM     42  C   UNL d   1      17.825  16.462   4.696 -0.01 -0.00    +0.004    16.192
ATOM     43  C   UNL d   1      17.830  17.118   3.528 -0.02 -0.00    +0.012    16.192
ATOM     44  C   UNL d   1      10.816  13.714   2.047 -0.32 -0.00    +0.004    16.192
ATOM     45  C   UNL d   1       9.689  13.685   2.766 -0.51 -0.00    +0.012    16.192
TER
ENDMDL
MODEL       76
USER    Run = 76
USER    Cluster Rank = 17
USER    Number of conformations in this cluster = 1
USER  
USER    RMSD from reference structure       = 15.114 A
USER  
USER    Estimated Free Energy of Binding    =   -7.10 kcal/mol  [=(1)+(2)+(3)-(4)]
USER    Estimated Inhibition Constant, Ki   =    6.23 uM (micromolar)  [Temperature = 298.15 K]
USER    
USER    (1) Final Intermolecular Energy     =  -10.08 kcal/mol
USER        vdW + Hbond + desolv Energy     =   -7.16 kcal/mol
USER        Electrostatic Energy            =   -2.92 kcal/mol
USER    (2) Final Total Internal Energy     =   -2.04 kcal/mol
USER    (3) Torsional Free Energy           =   +2.98 kcal/mol
USER    (4) Unbound System's Energy  [=(2)] =   -2.04 kcal/mol
USER    
USER    
USER  
USER    DPF = D:/Protein_go_brrr/autodock/final/mut_Y35F/heme_Fe/dock.dpf
USER    NEWDPF move	heme_Fe_opt.pdbqt
USER    NEWDPF about	-0.174000 -0.001000 -0.047000
USER    NEWDPF tran0	9.672711 8.914022 10.296679
USER    NEWDPF axisangle0	-0.012189 0.847119 -0.531263 -109.107772
USER    NEWDPF quaternion0	-0.009930 0.690115 -0.432799 -0.579937
USER    NEWDPF dihe0	-45.22 58.68 32.43 12.97 113.27 -169.83 88.39 -62.30 9.41 -11.53 
USER  
USER                              x       y       z    vdW   Elec        q     RMS 
ATOM      1  C   UNL d   1      10.722   9.587  11.926 -0.12 +0.03    +0.064    15.114
ATOM      2  C   UNL d   1       7.747   5.739  11.050 -0.17 +0.06    +0.064    15.114
ATOM      3  C   UNL d   1       8.183   6.563   6.338 -0.09 +0.03    +0.064    15.114
ATOM      4  C   UNL d   1      10.979  10.355   7.168 -0.07 +0.01    +0.064    15.114
ATOM      5  C   UNL d   1       9.777   8.479  12.119 -0.10 +0.03    +0.066    15.114
ATOM      6  C   UNL d   1       9.323   8.032  13.349 -0.11 -0.01    -0.021    15.114
ATOM      7  C   UNL d   1       8.500   6.961  13.105 -0.13 -0.01    -0.025    15.114
ATOM      8  C   UNL d   1       8.483   6.795  11.734 +0.06 +0.04    +0.066    15.114
ATOM      9  C   UNL d   1       7.761   6.162  14.135 -0.12 +0.01    +0.051    15.114
ATOM     10  C   UNL d   1       7.668   5.591   9.726 -0.14 +0.07    +0.066    15.114
ATOM     11  C   UNL d   1       7.051   4.504   9.103 +0.06 -0.02    -0.021    15.114
ATOM     12  C   UNL d   1       7.177   4.709   7.744 -0.35 +0.00    +0.000    15.114
ATOM     13  C   UNL d   1       7.880   5.919   7.607 -0.31 +0.05    +0.070    15.114
ATOM     14  C   UNL d   1       6.430   3.293   9.771 -0.04 +0.03    +0.052    15.114
ATOM     15  C   UNL d   1       8.904   7.701   6.199 -0.23 +0.02    +0.066    15.114
ATOM     16  C   UNL d   1       9.087   8.338   4.978 -0.31 -0.00    -0.021    15.114
ATOM     17  C   UNL d   1       9.896   9.430   5.215 -0.18 +0.00    +0.000    15.114
ATOM     18  C   UNL d   1      10.192   9.431   6.576 -0.10 +0.01    +0.070    15.114
ATOM     19  C   UNL d   1       8.545   7.925   3.637 -0.40 +0.00    +0.052    15.114
ATOM     20  C   UNL d   1      11.262  10.423   8.606 -0.14 +0.01    +0.066    15.114
ATOM     21  C   UNL d   1      12.228  11.246   9.204 -0.09 -0.00    -0.025    15.114
ATOM     22  C   UNL d   1      12.129  11.020  10.561 -0.08 -0.01    -0.021    15.114
ATOM     23  C   UNL d   1      11.116  10.069  10.737 -0.12 +0.02    +0.066    15.114
ATOM     24  C   UNL d   1      13.201  12.193   8.541 -0.06 +0.01    +0.051    15.114
ATOM     25  N   UNL d   1       9.254   7.725  11.136 +0.16 -0.15    -0.248    15.114
ATOM     26  N   UNL d   1       8.187   6.452   8.815 -0.17 -0.22    -0.248    15.114
ATOM     27  N   UNL d   1       9.547   8.394   7.190 -0.14 -0.08    -0.248    15.114
ATOM     28  N   UNL d   1      10.622   9.676   9.538 -0.11 -0.08    -0.248    15.114
ATOM     29 FE   UNL d   1       9.406   8.066   9.175 -0.05 +0.00    +0.000    15.114
ATOM     30  C   UNL d   1       9.636   8.605  14.689 -0.06 +0.02    +0.052    15.114
ATOM     31  C   UNL d   1       8.510   9.517  15.163 -0.11 +0.05    +0.115    15.114
ATOM     32  C   UNL d   1       8.770  10.937  14.742 -0.11 +0.14    +0.139    15.114
ATOM     33  O   UNL d   1       8.047  11.486  13.922 -0.58 -0.84    -0.650    15.114
ATOM     34  O   UNL d   1       9.802  11.618  15.267 -0.19 -1.14    -0.776    15.114
ATOM     35  H   UNL d   1      10.371  12.135  14.678 +0.01 +0.29    +0.167    15.114
ATOM     36  C   UNL d   1      12.994  11.647  11.623 -0.04 +0.01    +0.052    15.114
ATOM     37  C   UNL d   1      12.418  12.999  12.020 -0.09 +0.05    +0.115    15.114
ATOM     38  C   UNL d   1      12.000  13.003  13.463 -0.10 +0.11    +0.139    15.114
ATOM     39  O   UNL d   1      11.350  13.929  13.924 -0.51 -1.15    -0.650    15.114
ATOM     40  O   UNL d   1      12.345  11.979  14.265 +0.01 -0.44    -0.776    15.114
ATOM     41  H   UNL d   1      11.649  11.474  14.708 +0.01 +0.11    +0.167    15.114
ATOM     42  C   UNL d   1       6.667   3.782   6.687 -0.52 +0.00    +0.004    15.114
ATOM     43  C   UNL d   1       5.377   3.790   6.328 -0.49 +0.00    +0.012    15.114
ATOM     44  C   UNL d   1      10.340  10.420   4.207 -0.33 -0.00    +0.004    15.114
ATOM     45  C   UNL d   1       9.463  11.242   3.622 -0.41 -0.00    +0.012    15.114
TER
ENDMDL
MODEL       69
USER    Run = 69
USER    Cluster Rank = 18
USER    Number of conformations in this cluster = 2
USER  
USER    RMSD from reference structure       = 15.326 A
USER  
USER    Estimated Free Energy of Binding    =   -6.98 kcal/mol  [=(1)+(2)+(3)-(4)]
USER    Estimated Inhibition Constant, Ki   =    7.66 uM (micromolar)  [Temperature = 298.15 K]
USER    
USER    (1) Final Intermolecular Energy     =   -9.96 kcal/mol
USER        vdW + Hbond + desolv Energy     =   -6.38 kcal/mol
USER        Electrostatic Energy            =   -3.58 kcal/mol
USER    (2) Final Total Internal Energy     =   -1.99 kcal/mol
USER    (3) Torsional Free Energy           =   +2.98 kcal/mol
USER    (4) Unbound System's Energy  [=(2)] =   -1.99 kcal/mol
USER    
USER    
USER  
USER    DPF = D:/Protein_go_brrr/autodock/final/mut_Y35F/heme_Fe/dock.dpf
USER    NEWDPF move	heme_Fe_opt.pdbqt
USER    NEWDPF about	-0.174000 -0.001000 -0.047000
USER    NEWDPF tran0	-17.112957 2.262566 5.385420
USER    NEWDPF axisangle0	0.289863 -0.887755 -0.357590 -178.478516
USER    NEWDPF quaternion0	0.289837 -0.887677 -0.357558 -0.013277
USER    NEWDPF dihe0	-41.23 82.85 46.37 46.20 179.99 -137.47 58.87 -87.06 -15.92 -39.42 
USER  
USER                              x       y       z    vdW   Elec        q     RMS 
ATOM      1  C   UNL d   1     -15.558   3.600   5.316 -0.15 +0.03    +0.064    15.326
ATOM      2  C   UNL d   1     -16.871  -0.351   2.653 -0.29 +0.02    +0.064    15.326
ATOM      3  C   UNL d   1     -21.237  -0.157   4.645 -0.13 +0.00    +0.064    15.326
ATOM      4  C   UNL d   1     -19.954   3.603   7.310 -0.10 +0.01    +0.064    15.326
ATOM      5  C   UNL d   1     -15.497   2.419   4.444 -0.17 +0.02    +0.066    15.326
ATOM      6  C   UNL d   1     -14.360   1.981   3.785 -0.28 -0.01    -0.021    15.326
ATOM      7  C   UNL d   1     -14.726   0.885   3.043 -0.34 -0.01    -0.025    15.326
ATOM      8  C   UNL d   1     -16.075   0.697   3.277 -0.27 +0.02    +0.066    15.326
ATOM      9  C   UNL d   1     -13.822   0.063   2.178 -0.43 +0.01    +0.051    15.326
ATOM     10  C   UNL d   1     -18.160  -0.590   2.905 -0.21 +0.02    +0.066    15.326
ATOM     11  C   UNL d   1     -18.925  -1.528   2.207 -0.20 -0.01    -0.021    15.326
ATOM     12  C   UNL d   1     -20.193  -1.479   2.752 -0.13 +0.00    +0.000    15.326
ATOM     13  C   UNL d   1     -20.137  -0.499   3.758 -0.12 +0.01    +0.070    15.326
ATOM     14  C   UNL d   1     -18.488  -2.379   1.033 -0.17 +0.03    +0.052    15.326
ATOM     15  C   UNL d   1     -21.204   0.821   5.581 -0.10 +0.00    +0.066    15.326
ATOM     16  C   UNL d   1     -22.241   1.050   6.476 -0.10 -0.00    -0.021    15.326
ATOM     17  C   UNL d   1     -21.875   2.136   7.243 -0.10 +0.00    +0.000    15.326
ATOM     18  C   UNL d   1     -20.622   2.548   6.794 -0.08 +0.01    +0.070    15.326
ATOM     19  C   UNL d   1     -23.538   0.295   6.591 -0.04 +0.00    +0.052    15.326
ATOM     20  C   UNL d   1     -18.609   4.028   6.905 -0.10 +0.02    +0.066    15.326
ATOM     21  C   UNL d   1     -17.990   5.228   7.283 -0.05 -0.01    -0.025    15.326
ATOM     22  C   UNL d   1     -16.734   5.200   6.714 -0.07 -0.01    -0.021    15.326
ATOM     23  C   UNL d   1     -16.638   3.994   6.009 -0.14 +0.03    +0.066    15.326
ATOM     24  C   UNL d   1     -18.545   6.349   8.131 -0.01 +0.01    +0.051    15.326
ATOM     25  N   UNL d   1     -16.538   1.626   4.137 -0.16 -0.06    -0.248    15.326
ATOM     26  N   UNL d   1     -18.900   0.049   3.846 -0.02 -0.05    -0.248    15.326
ATOM     27  N   UNL d   1     -20.190   1.713   5.802 +0.04 -0.02    -0.248    15.326
ATOM     28  N   UNL d   1     -17.801   3.304   6.092 -0.11 -0.08    -0.248    15.326
ATOM     29 FE   UNL d   1     -18.352   1.678   4.970 -0.05 +0.00    +0.000    15.326
ATOM     30  C   UNL d   1     -12.988   2.558   3.872 -0.42 +0.02    +0.052    15.326
ATOM     31  C   UNL d   1     -12.343   2.220   5.212 -0.19 +0.07    +0.115    15.326
ATOM     32  C   UNL d   1     -11.978   3.476   5.952 -0.39 +0.16    +0.139    15.326
ATOM     33  O   UNL d   1     -11.448   3.419   7.053 -0.49 -1.26    -0.650    15.326
ATOM     34  O   UNL d   1     -12.231   4.678   5.407 -0.48 -0.71    -0.776    15.326
ATOM     35  H   UNL d   1     -12.573   5.386   5.971 +0.07 +0.16    +0.167    15.326
ATOM     36  C   UNL d   1     -15.703   6.295   6.804 -0.06 +0.03    +0.052    15.326
ATOM     37  C   UNL d   1     -15.387   6.584   8.264 -0.09 +0.11    +0.115    15.326
ATOM     38  C   UNL d   1     -14.220   5.764   8.735 -0.10 +0.24    +0.139    15.326
ATOM     39  O   UNL d   1     -14.236   5.227   9.833 -0.02 -1.37    -0.650    15.326
ATOM     40  O   UNL d   1     -13.140   5.619   7.947 +0.05 -1.38    -0.776    15.326
ATOM     41  H   UNL d   1     -13.058   4.821   7.405 +0.06 +0.36    +0.167    15.326
ATOM     42  C   UNL d   1     -21.350  -2.312   2.301 -0.06 +0.00    +0.004    15.326
ATOM     43  C   UNL d   1     -21.641  -3.472   2.904 -0.07 +0.00    +0.012    15.326
ATOM     44  C   UNL d   1     -22.663   2.729   8.347 -0.05 +0.00    +0.004    15.326
ATOM     45  C   UNL d   1     -22.374   2.448   9.622 -0.06 +0.00    +0.012    15.326
TER
ENDMDL
MODEL       81
USER    Run = 81
USER    Cluster Rank = 19
USER    Number of conformations in this cluster = 2
USER  
USER    RMSD from reference structure       = 11.379 A
USER  
USER    Estimated Free Energy of Binding    =   -6.38 kcal/mol  [=(1)+(2)+(3)-(4)]
USER    Estimated Inhibition Constant, Ki   =   21.09 uM (micromolar)  [Temperature = 298.15 K]
USER    
USER    (1) Final Intermolecular Energy     =   -9.36 kcal/mol
USER        vdW + Hbond + desolv Energy     =   -8.55 kcal/mol
USER        Electrostatic Energy            =   -0.81 kcal/mol
USER    (2) Final Total Internal Energy     =   -1.16 kcal/mol
USER    (3) Torsional Free Energy           =   +2.98 kcal/mol
USER    (4) Unbound System's Energy  [=(2)] =   -1.16 kcal/mol
USER    
USER    
USER  
USER    DPF = D:/Protein_go_brrr/autodock/final/mut_Y35F/heme_Fe/dock.dpf
USER    NEWDPF move	heme_Fe_opt.pdbqt
USER    NEWDPF about	-0.174000 -0.001000 -0.047000
USER    NEWDPF tran0	-10.831228 -0.436503 -8.118316
USER    NEWDPF axisangle0	0.362001 -0.365883 0.857371 152.079877
USER    NEWDPF quaternion0	0.351309 -0.355076 0.832048 0.241245
USER    NEWDPF dihe0	100.45 -68.92 81.54 -143.09 -85.99 -26.19 55.01 108.70 -37.54 -171.44 
USER  
USER                              x       y       z    vdW   Elec        q     RMS 
ATOM      1  C   UNL d   1      -9.177   0.666  -8.626 -0.17 +0.00    +0.064    11.379
ATOM      2  C   UNL d   1     -12.154   0.470  -4.685 -0.20 +0.00    +0.064    11.379
ATOM      3  C   UNL d   1     -13.888  -3.711  -6.290 -0.20 +0.01    +0.064    11.379
ATOM      4  C   UNL d   1     -11.091  -3.489 -10.164 -0.13 +0.00    +0.064    11.379
ATOM      5  C   UNL d   1      -9.914   1.040  -7.411 -0.14 -0.00    +0.066    11.379
ATOM      6  C   UNL d   1      -9.761   2.237  -6.730 -0.21 -0.00    -0.021    11.379
ATOM      7  C   UNL d   1     -10.585   2.180  -5.634 -0.18 -0.00    -0.025    11.379
ATOM      8  C   UNL d   1     -11.211   0.949  -5.688 -0.18 -0.00    +0.066    11.379
ATOM      9  C   UNL d   1     -10.769   3.259  -4.611 -0.17 +0.00    +0.051    11.379
ATOM     10  C   UNL d   1     -12.814  -0.688  -4.743 -0.12 +0.01    +0.066    11.379
ATOM     11  C   UNL d   1     -13.624  -1.171  -3.712 -0.31 -0.00    -0.021    11.379
ATOM     12  C   UNL d   1     -14.122  -2.384  -4.143 -0.35 +0.00    +0.000    11.379
ATOM     13  C   UNL d   1     -13.579  -2.584  -5.425 -0.24 +0.01    +0.070    11.379
ATOM     14  C   UNL d   1     -13.856  -0.540  -2.354 -0.31 +0.01    +0.052    11.379
ATOM     15  C   UNL d   1     -13.329  -3.935  -7.502 -0.21 +0.01    +0.066    11.379
ATOM     16  C   UNL d   1     -13.723  -4.969  -8.341 -0.21 -0.00    -0.021    11.379
ATOM     17  C   UNL d   1     -12.916  -4.909  -9.458 -0.21 +0.00    +0.000    11.379
ATOM     18  C   UNL d   1     -12.042  -3.840  -9.272 -0.18 +0.01    +0.070    11.379
ATOM     19  C   UNL d   1     -14.800  -5.991  -8.094 -0.21 +0.00    +0.052    11.379
ATOM     20  C   UNL d   1     -10.196  -2.334 -10.031 -0.15 +0.01    +0.066    11.379
ATOM     21  C   UNL d   1      -9.081  -2.075 -10.841 -0.11 -0.00    -0.025    11.379
ATOM     22  C   UNL d   1      -8.558  -0.880 -10.393 -0.13 -0.00    -0.021    11.379
ATOM     23  C   UNL d   1      -9.366  -0.462  -9.329 -0.12 +0.01    +0.066    11.379
ATOM     24  C   UNL d   1      -8.526  -2.905 -11.976 -0.05 +0.01    +0.051    11.379
ATOM     25  N   UNL d   1     -10.807   0.262  -6.775 -0.08 -0.00    -0.248    11.379
ATOM     26  N   UNL d   1     -12.775  -1.555  -5.787 -0.11 -0.03    -0.248    11.379
ATOM     27  N   UNL d   1     -12.324  -3.214  -8.090 -0.14 -0.03    -0.248    11.379
ATOM     28  N   UNL d   1     -10.336  -1.375  -9.084 -0.12 -0.03    -0.248    11.379
ATOM     29 FE   UNL d   1     -11.555  -1.466  -7.437 -0.05 +0.00    +0.000    11.379
ATOM     30  C   UNL d   1      -8.893   3.387  -7.111 -0.20 +0.02    +0.052    11.379
ATOM     31  C   UNL d   1      -9.151   3.804  -8.555 -0.13 +0.04    +0.115    11.379
ATOM     32  C   UNL d   1      -7.871   3.795  -9.343 -0.12 +0.06    +0.139    11.379
ATOM     33  O   UNL d   1      -7.137   4.773  -9.351 -0.51 -0.61    -0.650    11.379
ATOM     34  O   UNL d   1      -7.520   2.706 -10.049 +0.03 -0.15    -0.776    11.379
ATOM     35  H   UNL d   1      -7.120   1.956  -9.587 +0.04 +0.02    +0.167    11.379
ATOM     36  C   UNL d   1      -7.322  -0.205 -10.927 -0.11 +0.00    +0.052    11.379
ATOM     37  C   UNL d   1      -6.083  -0.946 -10.445 -0.20 +0.01    +0.115    11.379
ATOM     38  C   UNL d   1      -5.851  -0.709  -8.979 -0.28 +0.02    +0.139    11.379
ATOM     39  O   UNL d   1      -6.258   0.308  -8.438 -0.43 -0.12    -0.650    11.379
ATOM     40  O   UNL d   1      -5.184  -1.622  -8.250 -0.12 -0.05    -0.776    11.379
ATOM     41  H   UNL d   1      -4.302  -1.404  -7.917 -0.46 -0.03    +0.167    11.379
ATOM     42  C   UNL d   1     -15.034  -3.265  -3.350 -0.32 +0.00    +0.004    11.379
ATOM     43  C   UNL d   1     -16.168  -3.740  -3.881 -0.25 +0.00    +0.012    11.379
ATOM     44  C   UNL d   1     -12.988  -5.804 -10.635 -0.21 +0.00    +0.004    11.379
ATOM     45  C   UNL d   1     -12.289  -6.942 -10.674 -0.33 -0.00    +0.012    11.379
TER
ENDMDL
MODEL       60
USER    Run = 60
USER    Cluster Rank = 20
USER    Number of conformations in this cluster = 1
USER  
USER    RMSD from reference structure       = 12.554 A
USER  
USER    Estimated Free Energy of Binding    =   -6.19 kcal/mol  [=(1)+(2)+(3)-(4)]
USER    Estimated Inhibition Constant, Ki   =   29.16 uM (micromolar)  [Temperature = 298.15 K]
USER    
USER    (1) Final Intermolecular Energy     =   -9.17 kcal/mol
USER        vdW + Hbond + desolv Energy     =   -7.94 kcal/mol
USER        Electrostatic Energy            =   -1.23 kcal/mol
USER    (2) Final Total Internal Energy     =   -0.65 kcal/mol
USER    (3) Torsional Free Energy           =   +2.98 kcal/mol
USER    (4) Unbound System's Energy  [=(2)] =   -0.65 kcal/mol
USER    
USER    
USER  
USER    DPF = D:/Protein_go_brrr/autodock/final/mut_Y35F/heme_Fe/dock.dpf
USER    NEWDPF move	heme_Fe_opt.pdbqt
USER    NEWDPF about	-0.174000 -0.001000 -0.047000
USER    NEWDPF tran0	-15.565154 -0.510885 -3.037938
USER    NEWDPF axisangle0	0.661230 0.640372 -0.390767 -65.757406
USER    NEWDPF quaternion0	0.358957 0.347634 -0.212133 -0.839822
USER    NEWDPF dihe0	39.93 -14.01 -150.68 -126.86 -81.73 79.05 63.75 -31.60 -163.27 179.71 
USER  
USER                              x       y       z    vdW   Elec        q     RMS 
ATOM      1  C   UNL d   1     -16.695  -0.737  -1.340 -0.14 +0.02    +0.064    12.554
ATOM      2  C   UNL d   1     -16.353  -3.150  -5.640 -0.08 +0.01    +0.064    12.554
ATOM      3  C   UNL d   1     -12.212  -0.877  -6.507 -0.14 +0.01    +0.064    12.554
ATOM      4  C   UNL d   1     -12.577   1.547  -2.399 -0.23 +0.00    +0.064    12.554
ATOM      5  C   UNL d   1     -17.025  -1.565  -2.508 -0.10 +0.02    +0.066    12.554
ATOM      6  C   UNL d   1     -18.201  -2.281  -2.664 -0.08 -0.01    -0.021    12.554
ATOM      7  C   UNL d   1     -18.103  -2.954  -3.856 -0.06 -0.00    -0.025    12.554
ATOM      8  C   UNL d   1     -16.870  -2.622  -4.384 -0.08 +0.01    +0.066    12.554
ATOM      9  C   UNL d   1     -19.147  -3.846  -4.455 -0.03 +0.01    +0.051    12.554
ATOM     10  C   UNL d   1     -15.193  -2.803  -6.199 -0.11 +0.01    +0.066    12.554
ATOM     11  C   UNL d   1     -14.671  -3.410  -7.344 -0.12 -0.00    -0.021    12.554
ATOM     12  C   UNL d   1     -13.469  -2.784  -7.605 -0.16 +0.00    +0.000    12.554
ATOM     13  C   UNL d   1     -13.314  -1.823  -6.592 -0.15 +0.01    +0.070    12.554
ATOM     14  C   UNL d   1     -15.257  -4.578  -8.112 -0.11 +0.00    +0.052    12.554
ATOM     15  C   UNL d   1     -12.031   0.016  -5.505 -0.14 +0.00    +0.066    12.554
ATOM     16  C   UNL d   1     -11.021   0.969  -5.512 -0.21 +0.00    -0.021    12.554
ATOM     17  C   UNL d   1     -11.122   1.667  -4.326 -0.26 -0.00    +0.000    12.554
ATOM     18  C   UNL d   1     -12.191   1.119  -3.621 -0.24 +0.00    +0.070    12.554
ATOM     19  C   UNL d   1      -9.984   1.201  -6.578 -0.14 -0.00    +0.052    12.554
ATOM     20  C   UNL d   1     -13.734   1.036  -1.654 -0.21 +0.01    +0.066    12.554
ATOM     21  C   UNL d   1     -14.026   1.325  -0.314 -0.22 -0.00    -0.025    12.554
ATOM     22  C   UNL d   1     -15.210   0.675  -0.037 -0.18 -0.00    -0.021    12.554
ATOM     23  C   UNL d   1     -15.589   0.012  -1.211 -0.14 +0.01    +0.066    12.554
ATOM     24  C   UNL d   1     -13.237   2.165   0.664 -0.27 +0.01    +0.051    12.554
ATOM     25  N   UNL d   1     -16.221  -1.770  -3.566 -0.08 -0.05    -0.248    12.554
ATOM     26  N   UNL d   1     -14.360  -1.840  -5.729 -0.08 -0.02    -0.248    12.554
ATOM     27  N   UNL d   1     -12.778   0.133  -4.364 -0.15 -0.02    -0.248    12.554
ATOM     28  N   UNL d   1     -14.661   0.200  -2.180 -0.11 -0.03    -0.248    12.554
ATOM     29 FE   UNL d   1     -14.509  -0.818  -3.954 -0.04 +0.00    +0.000    12.554
ATOM     30  C   UNL d   1     -19.368  -2.309  -1.738 -0.07 +0.02    +0.052    12.554
ATOM     31  C   UNL d   1     -19.051  -3.130  -0.493 +0.02 +0.09    +0.115    12.554
ATOM     32  C   UNL d   1     -19.942  -4.338  -0.417 -0.06 +0.10    +0.139    12.554
ATOM     33  O   UNL d   1     -21.078  -4.248   0.027 +0.02 -0.19    -0.650    12.554
ATOM     34  O   UNL d   1     -19.496  -5.533  -0.840 -0.50 -0.80    -0.776    12.554
ATOM     35  H   UNL d   1     -20.097  -6.112  -1.330 +0.03 +0.06    +0.167    12.554
ATOM     36  C   UNL d   1     -15.911   0.652   1.296 -0.18 +0.01    +0.052    12.554
ATOM     37  C   UNL d   1     -15.299  -0.425   2.180 -0.37 +0.03    +0.115    12.554
ATOM     38  C   UNL d   1     -15.344  -0.025   3.627 -0.32 +0.06    +0.139    12.554
ATOM     39  O   UNL d   1     -16.375  -0.133   4.274 -0.51 -0.33    -0.650    12.554
ATOM     40  O   UNL d   1     -14.241   0.462   4.224 -0.13 -0.28    -0.776    12.554
ATOM     41  H   UNL d   1     -14.326   0.906   5.079 -0.51 +0.03    +0.167    12.554
ATOM     42  C   UNL d   1     -12.556  -3.123  -8.741 -0.19 +0.00    +0.004    12.554
ATOM     43  C   UNL d   1     -11.445  -3.843  -8.540 -0.35 +0.00    +0.012    12.554
ATOM     44  C   UNL d   1     -10.265   2.799  -3.905 -0.30 +0.00    +0.004    12.554
ATOM     45  C   UNL d   1      -9.001   2.594  -3.522 -0.47 -0.00    +0.012    12.554
TER
ENDMDL
MODEL       32
USER    Run = 32
USER    Cluster Rank = 21
USER    Number of conformations in this cluster = 1
USER  
USER    RMSD from reference structure       = 13.103 A
USER  
USER    Estimated Free Energy of Binding    =   -6.11 kcal/mol  [=(1)+(2)+(3)-(4)]
USER    Estimated Inhibition Constant, Ki   =   33.37 uM (micromolar)  [Temperature = 298.15 K]
USER    
USER    (1) Final Intermolecular Energy     =   -9.09 kcal/mol
USER        vdW + Hbond + desolv Energy     =   -7.79 kcal/mol
USER        Electrostatic Energy            =   -1.30 kcal/mol
USER    (2) Final Total Internal Energy     =   -0.72 kcal/mol
USER    (3) Torsional Free Energy           =   +2.98 kcal/mol
USER    (4) Unbound System's Energy  [=(2)] =   -0.72 kcal/mol
USER    
USER    
USER  
USER    DPF = D:/Protein_go_brrr/autodock/final/mut_Y35F/heme_Fe/dock.dpf
USER    NEWDPF move	heme_Fe_opt.pdbqt
USER    NEWDPF about	-0.174000 -0.001000 -0.047000
USER    NEWDPF tran0	-16.353869 -0.134605 0.327551
USER    NEWDPF axisangle0	0.421861 0.648900 -0.633216 -88.993991
USER    NEWDPF quaternion0	0.295670 0.454796 -0.443803 -0.713287
USER    NEWDPF dihe0	-85.13 -164.03 -124.02 46.12 -46.01 68.47 94.64 57.76 -1.62 -3.52 
USER  
USER                              x       y       z    vdW   Elec        q     RMS 
ATOM      1  C   UNL d   1     -16.583   0.122   2.351 -0.26 +0.02    +0.064    13.103
ATOM      2  C   UNL d   1     -18.954  -2.481  -1.117 -0.06 +0.03    +0.064    13.103
ATOM      3  C   UNL d   1     -15.237  -1.791  -4.080 -0.19 +0.01    +0.064    13.103
ATOM      4  C   UNL d   1     -12.971   0.821  -0.774 -0.27 +0.01    +0.064    13.103
ATOM      5  C   UNL d   1     -17.631  -0.604   1.621 -0.19 +0.02    +0.066    13.103
ATOM      6  C   UNL d   1     -18.892  -0.887   2.120 -0.16 -0.01    -0.021    13.103
ATOM      7  C   UNL d   1     -19.548  -1.613   1.158 -0.10 -0.01    -0.025    13.103
ATOM      8  C   UNL d   1     -18.662  -1.746   0.106 -0.11 +0.03    +0.066    13.103
ATOM      9  C   UNL d   1     -20.952  -2.128   1.245 -0.05 +0.01    +0.051    13.103
ATOM     10  C   UNL d   1     -18.140  -2.576  -2.170 -0.03 +0.03    +0.066    13.103
ATOM     11  C   UNL d   1     -18.399  -3.382  -3.280 -0.08 -0.01    -0.021    13.103
ATOM     12  C   UNL d   1     -17.334  -3.214  -4.142 -0.10 +0.00    +0.000    13.103
ATOM     13  C   UNL d   1     -16.467  -2.311  -3.503 -0.13 +0.02    +0.070    13.103
ATOM     14  C   UNL d   1     -19.572  -4.321  -3.481 -0.05 +0.01    +0.052    13.103
ATOM     15  C   UNL d   1     -14.374  -0.962  -3.447 -0.22 +0.01    +0.066    13.103
ATOM     16  C   UNL d   1     -13.261  -0.408  -4.068 -0.25 -0.00    -0.021    13.103
ATOM     17  C   UNL d   1     -12.604   0.343  -3.115 -0.32 +0.00    +0.000    13.103
ATOM     18  C   UNL d   1     -13.330   0.226  -1.932 -0.28 +0.01    +0.070    13.103
ATOM     19  C   UNL d   1     -12.817  -0.596  -5.494 -0.20 +0.00    +0.052    13.103
ATOM     20  C   UNL d   1     -13.742   0.770   0.473 -0.27 +0.01    +0.066    13.103
ATOM     21  C   UNL d   1     -13.288   1.210   1.725 -0.37 -0.00    -0.025    13.103
ATOM     22  C   UNL d   1     -14.337   1.013   2.598 -0.33 -0.00    -0.021    13.103
ATOM     23  C   UNL d   1     -15.383   0.459   1.850 -0.22 +0.02    +0.066    13.103
ATOM     24  C   UNL d   1     -11.938   1.782   2.091 +0.05 +0.00    +0.051    13.103
ATOM     25  N   UNL d   1     -17.500  -1.122   0.387 -0.11 -0.10    -0.248    13.103
ATOM     26  N   UNL d   1     -16.953  -1.929  -2.296 -0.07 -0.09    -0.248    13.103
ATOM     27  N   UNL d   1     -14.442  -0.541  -2.146 -0.17 -0.04    -0.248    13.103
ATOM     28  N   UNL d   1     -14.999   0.271   0.564 -0.14 -0.05    -0.248    13.103
ATOM     29 FE   UNL d   1     -15.974  -0.828  -0.866 -0.05 +0.00    +0.000    13.103
ATOM     30  C   UNL d   1     -19.454  -0.471   3.436 -0.16 +0.01    +0.052    13.103
ATOM     31  C   UNL d   1     -20.109   0.902   3.335 -0.09 +0.01    +0.115    13.103
ATOM     32  C   UNL d   1     -19.086   1.988   3.518 -0.08 +0.02    +0.139    13.103
ATOM     33  O   UNL d   1     -18.269   1.929   4.427 +0.02 -0.12    -0.650    13.103
ATOM     34  O   UNL d   1     -19.060   3.039   2.681 +0.03 -0.09    -0.776    13.103
ATOM     35  H   UNL d   1     -19.526   3.849   2.930 +0.01 +0.02    +0.167    13.103
ATOM     36  C   UNL d   1     -14.317   1.297   4.077 -0.38 +0.01    +0.052    13.103
ATOM     37  C   UNL d   1     -14.853   2.697   4.338 -0.17 +0.03    +0.115    13.103
ATOM     38  C   UNL d   1     -13.848   3.529   5.083 -0.17 +0.08    +0.139    13.103
ATOM     39  O   UNL d   1     -12.807   3.879   4.548 -0.54 -0.42    -0.650    13.103
ATOM     40  O   UNL d   1     -14.088   3.892   6.356 -0.23 -1.01    -0.776    13.103
ATOM     41  H   UNL d   1     -14.782   3.436   6.852 -0.52 +0.24    +0.167    13.103
ATOM     42  C   UNL d   1     -17.185  -3.899  -5.463 -0.09 +0.00    +0.004    13.103
ATOM     43  C   UNL d   1     -16.820  -5.186  -5.535 -0.10 +0.00    +0.012    13.103
ATOM     44  C   UNL d   1     -11.373   1.137  -3.329 -0.35 -0.00    +0.004    13.103
ATOM     45  C   UNL d   1     -11.435   2.460  -3.514 -0.22 +0.00    +0.012    13.103
TER
ENDMDL
MODEL       98
USER    Run = 98
USER    Cluster Rank = 22
USER    Number of conformations in this cluster = 2
USER  
USER    RMSD from reference structure       = 18.290 A
USER  
USER    Estimated Free Energy of Binding    =   -6.10 kcal/mol  [=(1)+(2)+(3)-(4)]
USER    Estimated Inhibition Constant, Ki   =   33.80 uM (micromolar)  [Temperature = 298.15 K]
USER    
USER    (1) Final Intermolecular Energy     =   -9.08 kcal/mol
USER        vdW + Hbond + desolv Energy     =   -7.24 kcal/mol
USER        Electrostatic Energy            =   -1.84 kcal/mol
USER    (2) Final Total Internal Energy     =   -1.60 kcal/mol
USER    (3) Torsional Free Energy           =   +2.98 kcal/mol
USER    (4) Unbound System's Energy  [=(2)] =   -1.60 kcal/mol
USER    
USER    
USER  
USER    DPF = D:/Protein_go_brrr/autodock/final/mut_Y35F/heme_Fe/dock.dpf
USER    NEWDPF move	heme_Fe_opt.pdbqt
USER    NEWDPF about	-0.174000 -0.001000 -0.047000
USER    NEWDPF tran0	-5.194432 -13.770775 -14.571325
USER    NEWDPF axisangle0	-0.520327 -0.013443 -0.853861 87.987460
USER    NEWDPF quaternion0	-0.361409 -0.009337 -0.593075 0.719416
USER    NEWDPF dihe0	-171.61 -10.38 86.55 55.39 138.43 91.77 -0.63 -57.52 170.65 10.68 
USER  
USER                              x       y       z    vdW   Elec        q     RMS 
ATOM      1  C   UNL d   1      -5.496 -15.747 -15.032 -0.16 +0.02    +0.064    18.290
ATOM      2  C   UNL d   1      -1.685 -12.625 -15.425 -0.05 +0.00    +0.064    18.290
ATOM      3  C   UNL d   1      -3.949  -9.598 -12.462 -0.07 -0.00    +0.064    18.290
ATOM      4  C   UNL d   1      -7.694 -12.558 -12.152 -0.34 -0.01    +0.064    18.290
ATOM      5  C   UNL d   1      -4.251 -15.112 -15.484 -0.13 +0.01    +0.066    18.290
ATOM      6  C   UNL d   1      -3.390 -15.644 -16.430 -0.08 -0.00    -0.021    18.290
ATOM      7  C   UNL d   1      -2.330 -14.778 -16.536 -0.03 -0.00    -0.025    18.290
ATOM      8  C   UNL d   1      -2.585 -13.750 -15.649 -0.06 +0.00    +0.066    18.290
ATOM      9  C   UNL d   1      -1.155 -14.928 -17.453 -0.01 +0.00    +0.051    18.290
ATOM     10  C   UNL d   1      -1.933 -11.592 -14.619 -0.11 -0.00    +0.066    18.290
ATOM     11  C   UNL d   1      -1.004 -10.588 -14.337 -0.19 +0.00    -0.021    18.290
ATOM     12  C   UNL d   1      -1.626  -9.711 -13.471 -0.26 -0.00    +0.000    18.290
ATOM     13  C   UNL d   1      -2.914 -10.235 -13.261 -0.20 -0.00    +0.070    18.290
ATOM     14  C   UNL d   1       0.432 -10.504 -14.815 -0.18 +0.00    +0.052    18.290
ATOM     15  C   UNL d   1      -5.171 -10.124 -12.214 -0.23 -0.01    +0.066    18.290
ATOM     16  C   UNL d   1      -6.167  -9.439 -11.530 -0.32 +0.00    -0.021    18.290
ATOM     17  C   UNL d   1      -7.247 -10.293 -11.436 -0.33 -0.00    +0.000    18.290
ATOM     18  C   UNL d   1      -6.883 -11.482 -12.063 -0.27 -0.02    +0.070    18.290
ATOM     19  C   UNL d   1      -6.101  -8.047 -10.962 -0.33 -0.01    +0.052    18.290
ATOM     20  C   UNL d   1      -7.367 -13.803 -12.857 -0.27 -0.00    +0.066    18.290
ATOM     21  C   UNL d   1      -8.109 -14.991 -12.788 -0.29 -0.00    -0.025    18.290
ATOM     22  C   UNL d   1      -7.472 -15.883 -13.626 -0.22 -0.00    -0.021    18.290
ATOM     23  C   UNL d   1      -6.369 -15.209 -14.166 -0.20 +0.01    +0.066    18.290
ATOM     24  C   UNL d   1      -9.349 -15.284 -11.976 -0.35 +0.00    +0.051    18.290
ATOM     25  N   UNL d   1      -3.759 -13.951 -15.018 -0.07 -0.02    -0.248    18.290
ATOM     26  N   UNL d   1      -3.098 -11.386 -13.953 -0.09 +0.01    -0.248    18.290
ATOM     27  N   UNL d   1      -5.623 -11.364 -12.580 -0.14 +0.03    -0.248    18.290
ATOM     28  N   UNL d   1      -6.285 -13.955 -13.658 -0.14 -0.00    -0.248    18.290
ATOM     29 FE   UNL d   1      -4.694 -12.671 -13.804 -0.04 -0.00    +0.000    18.290
ATOM     30  C   UNL d   1      -3.573 -16.900 -17.212 -0.09 +0.02    +0.052    18.290
ATOM     31  C   UNL d   1      -2.760 -18.037 -16.604 -0.02 +0.07    +0.115    18.290
ATOM     32  C   UNL d   1      -2.961 -19.304 -17.388 +0.04 +0.13    +0.139    18.290
ATOM     33  O   UNL d   1      -2.016 -20.040 -17.636 -0.03 -0.42    -0.650    18.290
ATOM     34  O   UNL d   1      -4.186 -19.640 -17.826 -0.13 -1.08    -0.776    18.290
ATOM     35  H   UNL d   1      -4.908 -19.002 -17.737 +0.00 +0.19    +0.167    18.290
ATOM     36  C   UNL d   1      -7.874 -17.316 -13.856 -0.10 +0.02    +0.052    18.290
ATOM     37  C   UNL d   1      -8.482 -17.462 -15.243 -0.12 +0.04    +0.115    18.290
ATOM     38  C   UNL d   1      -7.720 -18.464 -16.063 -0.05 +0.09    +0.139    18.290
ATOM     39  O   UNL d   1      -8.046 -19.642 -16.073 -0.05 -0.53    -0.650    18.290
ATOM     40  O   UNL d   1      -6.662 -18.068 -16.793 +0.02 -0.55    -0.776    18.290
ATOM     41  H   UNL d   1      -6.088 -18.738 -17.191 +0.01 +0.17    +0.167    18.290
ATOM     42  C   UNL d   1      -0.995  -8.484 -12.895 -0.36 -0.00    +0.004    18.290
ATOM     43  C   UNL d   1      -1.653  -7.317 -12.869 -0.33 +0.00    +0.012    18.290
ATOM     44  C   UNL d   1      -8.551  -9.983 -10.805 -0.49 -0.00    +0.004    18.290
ATOM     45  C   UNL d   1      -9.649  -9.819 -11.549 -0.39 -0.00    +0.012    18.290
TER
ENDMDL
MODEL       73
USER    Run = 73
USER    Cluster Rank = 23
USER    Number of conformations in this cluster = 2
USER  
USER    RMSD from reference structure       = 11.806 A
USER  
USER    Estimated Free Energy of Binding    =   -6.07 kcal/mol  [=(1)+(2)+(3)-(4)]
USER    Estimated Inhibition Constant, Ki   =   35.37 uM (micromolar)  [Temperature = 298.15 K]
USER    
USER    (1) Final Intermolecular Energy     =   -9.06 kcal/mol
USER        vdW + Hbond + desolv Energy     =   -6.02 kcal/mol
USER        Electrostatic Energy            =   -3.03 kcal/mol
USER    (2) Final Total Internal Energy     =   -1.72 kcal/mol
USER    (3) Torsional Free Energy           =   +2.98 kcal/mol
USER    (4) Unbound System's Energy  [=(2)] =   -1.72 kcal/mol
USER    
USER    
USER  
USER    DPF = D:/Protein_go_brrr/autodock/final/mut_Y35F/heme_Fe/dock.dpf
USER    NEWDPF move	heme_Fe_opt.pdbqt
USER    NEWDPF about	-0.174000 -0.001000 -0.047000
USER    NEWDPF tran0	-12.418785 9.211634 3.498374
USER    NEWDPF axisangle0	0.532129 0.717551 -0.449399 -82.638455
USER    NEWDPF quaternion0	0.351340 0.473766 -0.296718 -0.751043
USER    NEWDPF dihe0	-153.39 125.25 -158.92 61.30 -145.77 -171.05 -103.55 -73.74 157.12 3.14 
USER  
USER                              x       y       z    vdW   Elec        q     RMS 
ATOM      1  C   UNL d   1     -12.940   8.971   5.468 -0.13 +0.02    +0.064    11.806
ATOM      2  C   UNL d   1     -14.257   6.797   1.229 -0.07 +0.01    +0.064    11.806
ATOM      3  C   UNL d   1     -10.448   8.801  -0.902 -0.14 -0.01    +0.064    11.806
ATOM      4  C   UNL d   1      -9.214  10.999   3.165 -0.35 -0.00    +0.064    11.806
ATOM      5  C   UNL d   1     -13.711   8.240   4.453 -0.08 +0.02    +0.066    11.806
ATOM      6  C   UNL d   1     -14.931   7.625   4.677 -0.04 -0.01    -0.021    11.806
ATOM      7  C   UNL d   1     -15.294   7.018   3.501 -0.04 -0.01    -0.025    11.806
ATOM      8  C   UNL d   1     -14.280   7.287   2.602 -0.06 +0.01    +0.066    11.806
ATOM      9  C   UNL d   1     -16.554   6.244   3.258 -0.01 +0.01    +0.051    11.806
ATOM     10  C   UNL d   1     -13.320   7.089   0.325 -0.07 +0.01    +0.066    11.806
ATOM     11  C   UNL d   1     -13.264   6.513  -0.946 -0.07 -0.00    -0.021    11.806
ATOM     12  C   UNL d   1     -12.164   7.062  -1.575 -0.09 +0.00    +0.000    11.806
ATOM     13  C   UNL d   1     -11.596   7.947  -0.642 -0.11 -0.00    +0.070    11.806
ATOM     14  C   UNL d   1     -14.173   5.440  -1.510 -0.03 +0.00    +0.052    11.806
ATOM     15  C   UNL d   1      -9.866   9.617   0.009 -0.11 -0.01    +0.066    11.806
ATOM     16  C   UNL d   1      -8.833  10.491  -0.305 -0.14 +0.00    -0.021    11.806
ATOM     17  C   UNL d   1      -8.474  11.123   0.867 -0.21 -0.00    +0.000    11.806
ATOM     18  C   UNL d   1      -9.294  10.616   1.872 -0.20 -0.01    +0.070    11.806
ATOM     19  C   UNL d   1      -8.190  10.707  -1.649 -0.21 -0.02    +0.052    11.806
ATOM     20  C   UNL d   1     -10.101  10.533   4.237 -0.30 +0.00    +0.066    11.806
ATOM     21  C   UNL d   1      -9.907  10.763   5.607 -0.40 -0.00    -0.025    11.806
ATOM     22  C   UNL d   1     -10.987  10.188   6.243 -0.29 -0.01    -0.021    11.806
ATOM     23  C   UNL d   1     -11.790   9.626   5.244 -0.18 +0.02    +0.066    11.806
ATOM     24  C   UNL d   1      -8.767  11.482   6.290 -0.22 -0.00    +0.051    11.806
ATOM     25  N   UNL d   1     -13.323   8.039   3.181 -0.03 -0.03    -0.248    11.806
ATOM     26  N   UNL d   1     -12.295   7.958   0.519 -0.08 -0.00    -0.248    11.806
ATOM     27  N   UNL d   1     -10.180   9.722   1.338 +0.14 +0.08    -0.248    11.806
ATOM     28  N   UNL d   1     -11.222   9.801   4.026 -0.14 -0.02    -0.248    11.806
ATOM     29 FE   UNL d   1     -11.757   8.881   2.273 -0.05 -0.00    +0.000    11.806
ATOM     30  C   UNL d   1     -15.725   7.629   5.939 -0.01 +0.02    +0.052    11.806
ATOM     31  C   UNL d   1     -15.796   6.229   6.537 -0.04 +0.06    +0.115    11.806
ATOM     32  C   UNL d   1     -14.499   5.877   7.211 -0.12 +0.15    +0.139    11.806
ATOM     33  O   UNL d   1     -14.084   4.727   7.203 -0.30 -1.24    -0.650    11.806
ATOM     34  O   UNL d   1     -13.782   6.829   7.831 +0.05 -0.94    -0.776    11.806
ATOM     35  H   UNL d   1     -14.237   7.607   8.181 +0.03 +0.20    +0.167    11.806
ATOM     36  C   UNL d   1     -11.207  10.139   7.733 -0.34 +0.04    +0.052    11.806
ATOM     37  C   UNL d   1     -12.192  11.223   8.142 -0.20 +0.07    +0.115    11.806
ATOM     38  C   UNL d   1     -13.537  10.635   8.463 -0.07 +0.14    +0.139    11.806
ATOM     39  O   UNL d   1     -14.505  11.356   8.656 -0.00 -0.38    -0.650    11.806
ATOM     40  O   UNL d   1     -13.684   9.301   8.545 -0.49 -1.41    -0.776    11.806
ATOM     41  H   UNL d   1     -13.416   8.752   7.795 +0.04 +0.20    +0.167    11.806
ATOM     42  C   UNL d   1     -11.712   6.723  -2.960 -0.08 +0.00    +0.004    11.806
ATOM     43  C   UNL d   1     -10.574   6.048  -3.168 -0.15 +0.00    +0.012    11.806
ATOM     44  C   UNL d   1      -7.427  12.160   1.012 -0.32 -0.00    +0.004    11.806
ATOM     45  C   UNL d   1      -7.744  13.408   1.374 -0.30 -0.00    +0.012    11.806
TER
ENDMDL
MODEL       66
USER    Run = 66
USER    Cluster Rank = 24
USER    Number of conformations in this cluster = 2
USER  
USER    RMSD from reference structure       = 14.318 A
USER  
USER    Estimated Free Energy of Binding    =   -5.84 kcal/mol  [=(1)+(2)+(3)-(4)]
USER    Estimated Inhibition Constant, Ki   =   52.83 uM (micromolar)  [Temperature = 298.15 K]
USER    
USER    (1) Final Intermolecular Energy     =   -8.82 kcal/mol
USER        vdW + Hbond + desolv Energy     =   -8.21 kcal/mol
USER        Electrostatic Energy            =   -0.60 kcal/mol
USER    (2) Final Total Internal Energy     =   -1.64 kcal/mol
USER    (3) Torsional Free Energy           =   +2.98 kcal/mol
USER    (4) Unbound System's Energy  [=(2)] =   -1.64 kcal/mol
USER    
USER    
USER  
USER    DPF = D:/Protein_go_brrr/autodock/final/mut_Y35F/heme_Fe/dock.dpf
USER    NEWDPF move	heme_Fe_opt.pdbqt
USER    NEWDPF about	-0.174000 -0.001000 -0.047000
USER    NEWDPF tran0	-2.571578 -7.228293 -12.705748
USER    NEWDPF axisangle0	0.622810 -0.776895 -0.092425 -173.407439
USER    NEWDPF quaternion0	0.621780 -0.775609 -0.092272 -0.057499
USER    NEWDPF dihe0	174.80 63.49 175.00 -123.70 -138.24 -109.09 7.47 53.98 -9.53 145.33 
USER  
USER                              x       y       z    vdW   Elec        q     RMS 
ATOM      1  C   UNL d   1      -2.188  -5.271 -13.187 -0.18 +0.00    +0.064    14.318
ATOM      2  C   UNL d   1       0.220  -9.543 -13.805 -0.20 +0.01    +0.064    14.318
ATOM      3  C   UNL d   1      -3.836 -11.898 -12.769 -0.31 -0.01    +0.064    14.318
ATOM      4  C   UNL d   1      -6.158  -7.776 -12.063 -0.24 -0.01    +0.064    14.318
ATOM      5  C   UNL d   1      -1.113  -6.255 -13.375 -0.19 +0.00    +0.066    14.318
ATOM      6  C   UNL d   1       0.220  -5.941 -13.582 -0.21 -0.00    -0.021    14.318
ATOM      7  C   UNL d   1       0.887  -7.127 -13.757 -0.24 -0.00    -0.025    14.318
ATOM      8  C   UNL d   1      -0.065  -8.122 -13.650 -0.23 +0.01    +0.066    14.318
ATOM      9  C   UNL d   1       2.358  -7.287 -13.993 -0.26 +0.02    +0.051    14.318
ATOM     10  C   UNL d   1      -0.669 -10.526 -13.650 -0.25 -0.00    +0.066    14.318
ATOM     11  C   UNL d   1      -0.394 -11.869 -13.917 -0.26 +0.00    -0.021    14.318
ATOM     12  C   UNL d   1      -1.553 -12.568 -13.642 -0.25 -0.00    +0.000    14.318
ATOM     13  C   UNL d   1      -2.487 -11.603 -13.226 -0.22 -0.01    +0.070    14.318
ATOM     14  C   UNL d   1       0.890 -12.451 -14.473 -0.21 -0.00    +0.052    14.318
ATOM     15  C   UNL d   1      -4.756 -10.970 -12.416 -0.27 -0.01    +0.066    14.318
ATOM     16  C   UNL d   1      -6.000 -11.296 -11.891 -0.34 +0.00    -0.021    14.318
ATOM     17  C   UNL d   1      -6.673 -10.108 -11.690 -0.33 -0.00    +0.000    14.318
ATOM     18  C   UNL d   1      -5.823  -9.084 -12.102 -0.21 -0.01    +0.070    14.318
ATOM     19  C   UNL d   1      -6.547 -12.669 -11.611 -0.32 -0.02    +0.052    14.318
ATOM     20  C   UNL d   1      -5.268  -6.668 -12.431 -0.16 -0.00    +0.066    14.318
ATOM     21  C   UNL d   1      -5.661  -5.331 -12.587 -0.15 +0.00    -0.025    14.318
ATOM     22  C   UNL d   1      -4.512  -4.633 -12.895 -0.12 -0.00    -0.021    14.318
ATOM     23  C   UNL d   1      -3.470  -5.567 -12.921 -0.16 +0.00    +0.066    14.318
ATOM     24  C   UNL d   1      -7.043  -4.733 -12.459 -0.08 +0.00    +0.051    14.318
ATOM     25  N   UNL d   1      -1.280  -7.589 -13.409 -0.14 -0.01    -0.248    14.318
ATOM     26  N   UNL d   1      -1.952 -10.358 -13.239 -0.17 +0.02    -0.248    14.318
ATOM     27  N   UNL d   1      -4.628  -9.610 -12.508 -0.11 +0.01    -0.248    14.318
ATOM     28  N   UNL d   1      -3.945  -6.813 -12.681 -0.09 -0.00    -0.248    14.318
ATOM     29 FE   UNL d   1      -2.950  -8.585 -12.960 -0.05 -0.00    +0.000    14.318
ATOM     30  C   UNL d   1       0.835  -4.583 -13.591 -0.20 +0.02    +0.052    14.318
ATOM     31  C   UNL d   1       1.066  -4.084 -12.169 -0.09 +0.06    +0.115    14.318
ATOM     32  C   UNL d   1       1.514  -2.649 -12.180 -0.19 +0.08    +0.139    14.318
ATOM     33  O   UNL d   1       2.406  -2.269 -11.435 -0.48 -0.56    -0.650    14.318
ATOM     34  O   UNL d   1       0.935  -1.768 -13.014 +0.05 -0.20    -0.776    14.318
ATOM     35  H   UNL d   1       0.284  -2.087 -13.654 +0.04 +0.03    +0.167    14.318
ATOM     36  C   UNL d   1      -4.432  -3.159 -13.194 -0.08 +0.00    +0.052    14.318
ATOM     37  C   UNL d   1      -3.935  -2.951 -14.618 -0.04 +0.00    +0.115    14.318
ATOM     38  C   UNL d   1      -2.751  -2.027 -14.645 -0.04 +0.00    +0.139    14.318
ATOM     39  O   UNL d   1      -2.851  -0.896 -15.099 +0.00 -0.01    -0.650    14.318
ATOM     40  O   UNL d   1      -1.563  -2.442 -14.170 +0.01 -0.04    -0.776    14.318
ATOM     41  H   UNL d   1      -1.180  -1.993 -13.404 -0.01 +0.01    +0.167    14.318
ATOM     42  C   UNL d   1      -1.719 -14.046 -13.798 -0.12 +0.00    +0.004    14.318
ATOM     43  C   UNL d   1      -2.829 -14.561 -14.341 -0.21 +0.00    +0.012    14.318
ATOM     44  C   UNL d   1      -8.031  -9.962 -11.121 -0.48 -0.00    +0.004    14.318
ATOM     45  C   UNL d   1      -9.108 -10.357 -11.808 -0.41 -0.00    +0.012    14.318
TER
ENDMDL
MODEL       40
USER    Run = 40
USER    Cluster Rank = 25
USER    Number of conformations in this cluster = 2
USER  
USER    RMSD from reference structure       = 15.845 A
USER  
USER    Estimated Free Energy of Binding    =   -5.38 kcal/mol  [=(1)+(2)+(3)-(4)]
USER    Estimated Inhibition Constant, Ki   =  114.52 uM (micromolar)  [Temperature = 298.15 K]
USER    
USER    (1) Final Intermolecular Energy     =   -8.36 kcal/mol
USER        vdW + Hbond + desolv Energy     =   -7.23 kcal/mol
USER        Electrostatic Energy            =   -1.13 kcal/mol
USER    (2) Final Total Internal Energy     =   -1.49 kcal/mol
USER    (3) Torsional Free Energy           =   +2.98 kcal/mol
USER    (4) Unbound System's Energy  [=(2)] =   -1.49 kcal/mol
USER    
USER    
USER  
USER    DPF = D:/Protein_go_brrr/autodock/final/mut_Y35F/heme_Fe/dock.dpf
USER    NEWDPF move	heme_Fe_opt.pdbqt
USER    NEWDPF about	-0.174000 -0.001000 -0.047000
USER    NEWDPF tran0	0.679542 14.680081 -10.250401
USER    NEWDPF axisangle0	-0.037681 0.700832 -0.712331 -118.742761
USER    NEWDPF quaternion0	-0.032424 0.603057 -0.612952 -0.509471
USER    NEWDPF dihe0	177.18 -162.53 -145.99 -161.84 -51.38 24.65 13.39 11.63 -29.70 33.80 
USER  
USER                              x       y       z    vdW   Elec        q     RMS 
ATOM      1  C   UNL d   1       1.942  15.605  -8.922 -0.23 +0.00    +0.064    15.845
ATOM      2  C   UNL d   1      -1.881  12.498  -8.506 -0.27 -0.02    +0.064    15.845
ATOM      3  C   UNL d   1      -1.520  11.535 -13.197 -0.15 -0.00    +0.064    15.845
ATOM      4  C   UNL d   1       2.113  14.616 -13.644 -0.15 -0.00    +0.064    15.845
ATOM      5  C   UNL d   1       0.779  14.883  -8.387 -0.19 -0.01    +0.066    15.845
ATOM      6  C   UNL d   1       0.301  15.003  -7.093 -0.26 +0.01    -0.021    15.845
ATOM      7  C   UNL d   1      -0.758  14.138  -6.977 -0.30 +0.01    -0.025    15.845
ATOM      8  C   UNL d   1      -0.886  13.521  -8.206 -0.25 -0.02    +0.066    15.845
ATOM      9  C   UNL d   1      -1.604  13.936  -5.757 -0.14 -0.05    +0.051    15.845
ATOM     10  C   UNL d   1      -2.062  11.930  -9.699 -0.23 -0.01    +0.066    15.845
ATOM     11  C   UNL d   1      -2.945  10.871  -9.927 -0.27 +0.00    -0.021    15.845
ATOM     12  C   UNL d   1      -2.848  10.564 -11.269 -0.20 -0.00    +0.000    15.845
ATOM     13  C   UNL d   1      -1.895  11.454 -11.794 -0.14 -0.01    +0.070    15.845
ATOM     14  C   UNL d   1      -3.790  10.143  -8.902 -0.23 -0.03    +0.052    15.845
ATOM     15  C   UNL d   1      -0.566  12.354 -13.699 -0.13 -0.00    +0.066    15.845
ATOM     16  C   UNL d   1      -0.307  12.474 -15.058 -0.08 +0.00    -0.021    15.845
ATOM     17  C   UNL d   1       0.743  13.359 -15.189 -0.08 -0.00    +0.000    15.845
ATOM     18  C   UNL d   1       1.103  13.756 -13.904 -0.13 -0.00    +0.070    15.845
ATOM     19  C   UNL d   1      -1.001  11.766 -16.191 -0.03 -0.00    +0.052    15.845
ATOM     20  C   UNL d   1       2.480  15.104 -12.309 -0.19 +0.00    +0.066    15.845
ATOM     21  C   UNL d   1       3.640  15.830 -12.004 -0.18 -0.00    -0.025    15.845
ATOM     22  C   UNL d   1       3.564  16.113 -10.656 -0.18 -0.00    -0.021    15.845
ATOM     23  C   UNL d   1       2.371  15.545 -10.193 -0.21 +0.00    +0.066    15.845
ATOM     24  C   UNL d   1       4.767  16.239 -12.924 -0.11 +0.00    +0.051    15.845
ATOM     25  N   UNL d   1       0.044  13.984  -9.065 -0.16 +0.05    -0.248    15.845
ATOM     26  N   UNL d   1      -1.409  12.280 -10.836 -0.08 +0.03    -0.248    15.845
ATOM     27  N   UNL d   1       0.271  13.173 -12.990 -0.11 +0.01    -0.248    15.845
ATOM     28  N   UNL d   1       1.737  14.892 -11.197 -0.19 +0.00    -0.248    15.845
ATOM     29 FE   UNL d   1       0.165  13.587 -11.018 -0.06 -0.00    +0.000    15.845
ATOM     30  C   UNL d   1       0.809  15.910  -6.024 -0.27 -0.01    +0.052    15.845
ATOM     31  C   UNL d   1       0.713  17.368  -6.462 -0.13 -0.01    +0.115    15.845
ATOM     32  C   UNL d   1       1.513  18.247  -5.542 -0.07 +0.06    +0.139    15.845
ATOM     33  O   UNL d   1       1.357  18.187  -4.330 -0.59 -0.34    -0.650    15.845
ATOM     34  O   UNL d   1       2.411  19.111  -6.045 -0.52 -0.54    -0.776    15.845
ATOM     35  H   UNL d   1       2.562  19.128  -7.001 +0.02 +0.07    +0.167    15.845
ATOM     36  C   UNL d   1       4.605  16.845  -9.850 -0.17 +0.01    +0.052    15.845
ATOM     37  C   UNL d   1       3.942  17.941  -9.030 -0.12 +0.03    +0.115    15.845
ATOM     38  C   UNL d   1       4.969  18.854  -8.422 -0.09 +0.04    +0.139    15.845
ATOM     39  O   UNL d   1       6.076  18.975  -8.926 +0.02 -0.13    -0.650    15.845
ATOM     40  O   UNL d   1       4.675  19.547  -7.307 +0.02 -0.41    -0.776    15.845
ATOM     41  H   UNL d   1       3.918  19.274  -6.770 +0.02 +0.14    +0.167    15.845
ATOM     42  C   UNL d   1      -3.613   9.478 -11.956 -0.15 -0.00    +0.004    15.845
ATOM     43  C   UNL d   1      -3.058   8.281 -12.184 -0.21 +0.00    +0.012    15.845
ATOM     44  C   UNL d   1       1.348  13.811 -16.463 -0.03 -0.00    +0.004    15.845
ATOM     45  C   UNL d   1       2.563  13.392 -16.830 -0.03 -0.00    +0.012    15.845
TER
ENDMDL
MODEL       70
USER    Run = 70
USER    Cluster Rank = 26
USER    Number of conformations in this cluster = 1
USER  
USER    RMSD from reference structure       = 11.308 A
USER  
USER    Estimated Free Energy of Binding    =   -5.29 kcal/mol  [=(1)+(2)+(3)-(4)]
USER    Estimated Inhibition Constant, Ki   =  132.92 uM (micromolar)  [Temperature = 298.15 K]
USER    
USER    (1) Final Intermolecular Energy     =   -8.27 kcal/mol
USER        vdW + Hbond + desolv Energy     =   -8.24 kcal/mol
USER        Electrostatic Energy            =   -0.04 kcal/mol
USER    (2) Final Total Internal Energy     =   -2.60 kcal/mol
USER    (3) Torsional Free Energy           =   +2.98 kcal/mol
USER    (4) Unbound System's Energy  [=(2)] =   -2.60 kcal/mol
USER    
USER    
USER  
USER    DPF = D:/Protein_go_brrr/autodock/final/mut_Y35F/heme_Fe/dock.dpf
USER    NEWDPF move	heme_Fe_opt.pdbqt
USER    NEWDPF about	-0.174000 -0.001000 -0.047000
USER    NEWDPF tran0	2.982656 -10.291209 9.114621
USER    NEWDPF axisangle0	0.960432 0.240713 -0.140097 136.903320
USER    NEWDPF quaternion0	0.893306 0.223889 -0.130305 0.367286
USER    NEWDPF dihe0	46.85 73.44 -176.78 -123.35 -103.58 172.66 -74.05 -35.38 179.52 28.04 
USER  
USER                              x       y       z    vdW   Elec        q     RMS 
ATOM      1  C   UNL d   1       1.038 -10.918   8.922 -0.22 -0.01    +0.064    11.308
ATOM      2  C   UNL d   1       3.265  -7.129  11.183 -0.22 -0.05    +0.064    11.308
ATOM      3  C   UNL d   1       7.239  -8.038   8.643 -0.19 -0.01    +0.064    11.308
ATOM      4  C   UNL d   1       5.136 -11.774   6.519 -0.19 -0.01    +0.064    11.308
ATOM      5  C   UNL d   1       1.324  -9.819   9.855 -0.16 -0.01    +0.066    11.308
ATOM      6  C   UNL d   1       0.447  -9.355  10.822 -0.23 +0.00    -0.021    11.308
ATOM      7  C   UNL d   1       1.065  -8.301  11.447 -0.27 +0.01    -0.025    11.308
ATOM      8  C   UNL d   1       2.296  -8.161  10.837 -0.13 -0.03    +0.066    11.308
ATOM      9  C   UNL d   1       0.504  -7.493  12.577 -0.25 -0.04    +0.051    11.308
ATOM     10  C   UNL d   1       4.482  -7.008  10.650 -0.23 -0.03    +0.066    11.308
ATOM     11  C   UNL d   1       5.344  -5.942  10.919 -0.22 +0.01    -0.021    11.308
ATOM     12  C   UNL d   1       6.490  -6.171  10.185 -0.15 -0.00    +0.000    11.308
ATOM     13  C   UNL d   1       6.264  -7.374   9.493 -0.15 -0.01    +0.070    11.308
ATOM     14  C   UNL d   1       5.062  -4.727  11.780 -0.23 -0.05    +0.052    11.308
ATOM     15  C   UNL d   1       7.007  -9.168   7.934 -0.15 -0.01    +0.066    11.308
ATOM     16  C   UNL d   1       7.995  -9.826   7.211 -0.22 +0.00    -0.021    11.308
ATOM     17  C   UNL d   1       7.390 -10.902   6.595 -0.21 -0.00    +0.000    11.308
ATOM     18  C   UNL d   1       6.044 -10.873   6.953 -0.08 -0.01    +0.070    11.308
ATOM     19  C   UNL d   1       9.445  -9.446   7.083 -0.19 -0.02    +0.052    11.308
ATOM     20  C   UNL d   1       3.726 -11.811   6.923 -0.20 -0.01    +0.066    11.308
ATOM     21  C   UNL d   1       2.735 -12.608   6.333 -0.34 +0.01    -0.025    11.308
ATOM     22  C   UNL d   1       1.578 -12.357   7.042 -0.31 +0.00    -0.021    11.308
ATOM     23  C   UNL d   1       1.905 -11.418   8.027 -0.21 -0.01    +0.066    11.308
ATOM     24  C   UNL d   1       2.859 -13.555   5.162 -0.46 -0.02    +0.051    11.308
ATOM     25  N   UNL d   1       2.455  -9.093   9.875 -0.05 +0.03    -0.248    11.308
ATOM     26  N   UNL d   1       5.037  -7.880   9.769 -0.12 +0.05    -0.248    11.308
ATOM     27  N   UNL d   1       5.817  -9.833   7.811 -0.10 +0.02    -0.248    11.308
ATOM     28  N   UNL d   1       3.206 -11.054   7.921 -0.12 +0.02    -0.248    11.308
ATOM     29 FE   UNL d   1       4.122  -9.468   8.844 -0.04 -0.00    +0.000    11.308
ATOM     30  C   UNL d   1      -0.901  -9.899  11.152 -0.23 -0.01    +0.052    11.308
ATOM     31  C   UNL d   1      -1.981  -9.194  10.339 -0.25 -0.03    +0.115    11.308
ATOM     32  C   UNL d   1      -2.492 -10.095   9.250 -0.37 -0.02    +0.139    11.308
ATOM     33  O   UNL d   1      -2.146  -9.927   8.089 -0.05 +0.07    -0.650    11.308
ATOM     34  O   UNL d   1      -3.338 -11.097   9.544 +0.09 +0.06    -0.776    11.308
ATOM     35  H   UNL d   1      -3.170 -11.976   9.177 +0.08 -0.01    +0.167    11.308
ATOM     36  C   UNL d   1       0.224 -12.952   6.755 -0.24 -0.01    +0.052    11.308
ATOM     37  C   UNL d   1      -0.314 -13.631   8.006 -0.21 -0.01    +0.115    11.308
ATOM     38  C   UNL d   1      -1.802 -13.456   8.116 -0.25 -0.01    +0.139    11.308
ATOM     39  O   UNL d   1      -2.438 -14.042   8.979 +0.03 +0.03    -0.650    11.308
ATOM     40  O   UNL d   1      -2.448 -12.649   7.256 -0.01 +0.05    -0.776    11.308
ATOM     41  H   UNL d   1      -2.775 -11.794   7.568 +0.09 -0.01    +0.167    11.308
ATOM     42  C   UNL d   1       7.685  -5.272  10.161 -0.19 -0.00    +0.004    11.308
ATOM     43  C   UNL d   1       8.213  -4.859   9.001 -0.35 -0.00    +0.012    11.308
ATOM     44  C   UNL d   1       8.060 -11.905   5.737 -0.29 -0.00    +0.004    11.308
ATOM     45  C   UNL d   1       8.520 -11.572   4.527 -0.47 -0.00    +0.012    11.308
TER
ENDMDL
MODEL       28
USER    Run = 28
USER    Cluster Rank = 27
USER    Number of conformations in this cluster = 1
USER  
USER    RMSD from reference structure       = 14.930 A
USER  
USER    Estimated Free Energy of Binding    =   -5.07 kcal/mol  [=(1)+(2)+(3)-(4)]
USER    Estimated Inhibition Constant, Ki   =  191.44 uM (micromolar)  [Temperature = 298.15 K]
USER    
USER    (1) Final Intermolecular Energy     =   -8.06 kcal/mol
USER        vdW + Hbond + desolv Energy     =   -7.78 kcal/mol
USER        Electrostatic Energy            =   -0.28 kcal/mol
USER    (2) Final Total Internal Energy     =   -1.84 kcal/mol
USER    (3) Torsional Free Energy           =   +2.98 kcal/mol
USER    (4) Unbound System's Energy  [=(2)] =   -1.84 kcal/mol
USER    
USER    
USER  
USER    DPF = D:/Protein_go_brrr/autodock/final/mut_Y35F/heme_Fe/dock.dpf
USER    NEWDPF move	heme_Fe_opt.pdbqt
USER    NEWDPF about	-0.174000 -0.001000 -0.047000
USER    NEWDPF tran0	-3.312710 -9.881281 -12.460195
USER    NEWDPF axisangle0	-0.755993 -0.646561 0.102141 -174.011774
USER    NEWDPF quaternion0	-0.754961 -0.645679 0.102001 -0.052233
USER    NEWDPF dihe0	-129.76 -143.27 14.35 -165.33 -123.44 -107.48 -142.73 47.38 155.62 150.25 
USER  
USER                              x       y       z    vdW   Elec        q     RMS 
ATOM      1  C   UNL d   1      -3.775 -11.852 -12.794 -0.30 -0.01    +0.064    14.930
ATOM      2  C   UNL d   1      -6.408  -7.708 -12.221 -0.19 -0.01    +0.064    14.930
ATOM      3  C   UNL d   1      -2.401  -5.150 -12.909 -0.20 +0.00    +0.064    14.930
ATOM      4  C   UNL d   1       0.184  -9.150 -13.362 -0.15 +0.01    +0.064    14.930
ATOM      5  C   UNL d   1      -4.873 -10.925 -12.486 -0.26 -0.01    +0.066    14.930
ATOM      6  C   UNL d   1      -6.154 -11.308 -12.125 -0.30 +0.00    -0.021    14.930
ATOM      7  C   UNL d   1      -6.885 -10.156 -11.970 -0.28 +0.00    -0.025    14.930
ATOM      8  C   UNL d   1      -6.021  -9.114 -12.242 -0.20 -0.01    +0.066    14.930
ATOM      9  C   UNL d   1      -8.325 -10.073 -11.564 -0.41 -0.01    +0.051    14.930
ATOM     10  C   UNL d   1      -5.581  -6.681 -12.424 -0.17 -0.00    +0.066    14.930
ATOM     11  C   UNL d   1      -6.003  -5.352 -12.511 -0.15 -0.00    -0.021    14.930
ATOM     12  C   UNL d   1      -4.868  -4.596 -12.726 -0.14 +0.00    +0.000    14.930
ATOM     13  C   UNL d   1      -3.803  -5.513 -12.768 -0.16 +0.00    +0.070    14.930
ATOM     14  C   UNL d   1      -7.426  -4.835 -12.461 +0.07 +0.01    +0.052    14.930
ATOM     15  C   UNL d   1      -1.378  -6.032 -13.001 -0.22 +0.00    +0.066    14.930
ATOM     16  C   UNL d   1      -0.044  -5.645 -13.035 -0.26 -0.00    -0.021    14.930
ATOM     17  C   UNL d   1       0.703  -6.797 -13.169 -0.32 +0.00    +0.000    14.930
ATOM     18  C   UNL d   1      -0.194  -7.861 -13.219 -0.27 +0.00    +0.070    14.930
ATOM     19  C   UNL d   1       0.508  -4.247 -12.970 -0.24 +0.02    +0.052    14.930
ATOM     20  C   UNL d   1      -0.727 -10.301 -13.356 -0.25 -0.00    +0.066    14.930
ATOM     21  C   UNL d   1      -0.377 -11.614 -13.701 -0.29 +0.00    -0.025    14.930
ATOM     22  C   UNL d   1      -1.517 -12.369 -13.520 -0.26 +0.00    -0.021    14.930
ATOM     23  C   UNL d   1      -2.515 -11.491 -13.080 -0.21 -0.01    +0.066    14.930
ATOM     24  C   UNL d   1       0.956 -12.139 -14.182 -0.25 -0.00    +0.051    14.930
ATOM     25  N   UNL d   1      -4.795  -9.584 -12.547 -0.11 +0.02    -0.248    14.930
ATOM     26  N   UNL d   1      -4.238  -6.785 -12.592 -0.09 +0.00    -0.248    14.930
ATOM     27  N   UNL d   1      -1.471  -7.396 -13.071 -0.17 -0.00    -0.248    14.930
ATOM     28  N   UNL d   1      -2.039 -10.223 -13.025 -0.18 +0.03    -0.248    14.930
ATOM     29 FE   UNL d   1      -3.137  -8.504 -12.809 -0.05 -0.00    +0.000    14.930
ATOM     30  C   UNL d   1      -6.655 -12.696 -11.916 -0.37 -0.01    +0.052    14.930
ATOM     31  C   UNL d   1      -7.717 -13.048 -12.951 -0.23 -0.01    +0.115    14.930
ATOM     32  C   UNL d   1      -7.370 -12.450 -14.286 -0.07 -0.00    +0.139    14.930
ATOM     33  O   UNL d   1      -8.153 -11.706 -14.859 +0.04 -0.00    -0.650    14.930
ATOM     34  O   UNL d   1      -6.189 -12.730 -14.864 +0.07 -0.01    -0.776    14.930
ATOM     35  H   UNL d   1      -5.913 -13.653 -14.945 +0.04 +0.01    +0.167    14.930
ATOM     36  C   UNL d   1      -1.650 -13.842 -13.802 -0.14 +0.00    +0.052    14.930
ATOM     37  C   UNL d   1      -2.596 -14.057 -14.974 -0.11 +0.01    +0.115    14.930
ATOM     38  C   UNL d   1      -3.593 -15.139 -14.670 -0.19 +0.03    +0.139    14.930
ATOM     39  O   UNL d   1      -3.513 -16.233 -15.209 -0.05 -0.22    -0.650    14.930
ATOM     40  O   UNL d   1      -4.590 -14.907 -13.798 -0.03 -0.11    -0.776    14.930
ATOM     41  H   UNL d   1      -5.000 -14.031 -13.774 +0.05 +0.01    +0.167    14.930
ATOM     42  C   UNL d   1      -4.848  -3.110 -12.893 -0.10 +0.00    +0.004    14.930
ATOM     43  C   UNL d   1      -5.255  -2.300 -11.907 -0.11 +0.00    +0.012    14.930
ATOM     44  C   UNL d   1       2.180  -6.876 -13.226 -0.30 +0.00    +0.004    14.930
ATOM     45  C   UNL d   1       2.805  -7.231 -14.354 -0.26 +0.00    +0.012    14.930
TER
ENDMDL
MODEL       15
USER    Run = 15
USER    Cluster Rank = 28
USER    Number of conformations in this cluster = 1
USER  
USER    RMSD from reference structure       = 18.314 A
USER  
USER    Estimated Free Energy of Binding    =   -5.03 kcal/mol  [=(1)+(2)+(3)-(4)]
USER    Estimated Inhibition Constant, Ki   =  206.48 uM (micromolar)  [Temperature = 298.15 K]
USER    
USER    (1) Final Intermolecular Energy     =   -8.01 kcal/mol
USER        vdW + Hbond + desolv Energy     =   -4.32 kcal/mol
USER        Electrostatic Energy            =   -3.69 kcal/mol
USER    (2) Final Total Internal Energy     =   -1.07 kcal/mol
USER    (3) Torsional Free Energy           =   +2.98 kcal/mol
USER    (4) Unbound System's Energy  [=(2)] =   -1.07 kcal/mol
USER    
USER    
USER  
USER    DPF = D:/Protein_go_brrr/autodock/final/mut_Y35F/heme_Fe/dock.dpf
USER    NEWDPF move	heme_Fe_opt.pdbqt
USER    NEWDPF about	-0.174000 -0.001000 -0.047000
USER    NEWDPF tran0	-19.718406 3.266915 9.007573
USER    NEWDPF axisangle0	-0.429473 0.657066 -0.619529 -148.789289
USER    NEWDPF quaternion0	-0.413642 0.632845 -0.596692 -0.269010
USER    NEWDPF dihe0	166.40 -139.50 -163.75 -157.33 49.07 -87.44 7.76 93.01 -144.15 171.92 
USER  
USER                              x       y       z    vdW   Elec        q     RMS 
ATOM      1  C   UNL d   1     -18.246   4.660   8.686 -0.11 +0.03    +0.064    18.314
ATOM      2  C   UNL d   1     -19.609   1.859  12.524 -0.09 +0.01    +0.064    18.314
ATOM      3  C   UNL d   1     -22.254  -0.819   9.542 -0.11 -0.00    +0.064    18.314
ATOM      4  C   UNL d   1     -21.032   1.941   5.831 -0.12 +0.00    +0.064    18.314
ATOM      5  C   UNL d   1     -18.451   4.170  10.056 -0.12 +0.02    +0.066    18.314
ATOM      6  C   UNL d   1     -17.932   4.766  11.194 -0.09 -0.01    -0.021    18.314
ATOM      7  C   UNL d   1     -18.308   3.986  12.259 -0.10 -0.01    -0.025    18.314
ATOM      8  C   UNL d   1     -19.042   2.942  11.730 -0.13 +0.01    +0.066    18.314
ATOM      9  C   UNL d   1     -17.991   4.247  13.700 -0.07 +0.01    +0.051    18.314
ATOM     10  C   UNL d   1     -20.369   0.873  12.046 -0.12 +0.00    +0.066    18.314
ATOM     11  C   UNL d   1     -20.801  -0.213  12.811 -0.09 -0.00    -0.021    18.314
ATOM     12  C   UNL d   1     -21.552  -1.009  11.970 -0.08 -0.00    +0.000    18.314
ATOM     13  C   UNL d   1     -21.532  -0.366  10.720 -0.09 +0.00    +0.070    18.314
ATOM     14  C   UNL d   1     -20.458  -0.513  14.256 -0.07 -0.00    +0.052    18.314
ATOM     15  C   UNL d   1     -22.196  -0.232   8.323 -0.12 -0.00    +0.066    18.314
ATOM     16  C   UNL d   1     -22.978  -0.637   7.249 -0.08 -0.00    -0.021    18.314
ATOM     17  C   UNL d   1     -22.625   0.156   6.176 -0.09 +0.00    +0.000    18.314
ATOM     18  C   UNL d   1     -21.631   1.024   6.622 -0.11 +0.00    +0.070    18.314
ATOM     19  C   UNL d   1     -24.000  -1.741   7.221 -0.03 +0.00    +0.052    18.314
ATOM     20  C   UNL d   1     -20.027   2.912   6.280 -0.09 +0.01    +0.066    18.314
ATOM     21  C   UNL d   1     -19.257   3.728   5.439 -0.08 -0.00    -0.025    18.314
ATOM     22  C   UNL d   1     -18.479   4.504   6.274 -0.07 -0.01    -0.021    18.314
ATOM     23  C   UNL d   1     -18.799   4.128   7.584 -0.10 +0.02    +0.066    18.314
ATOM     24  C   UNL d   1     -19.243   3.780   3.929 -0.04 +0.01    +0.051    18.314
ATOM     25  N   UNL d   1     -19.135   3.063  10.390 -0.13 -0.06    -0.248    18.314
ATOM     26  N   UNL d   1     -20.804   0.777  10.764 -0.10 -0.01    -0.248    18.314
ATOM     27  N   UNL d   1     -21.398   0.816   7.952 -0.05 +0.00    -0.248    18.314
ATOM     28  N   UNL d   1     -19.711   3.125   7.580 -0.02 -0.07    -0.248    18.314
ATOM     29 FE   UNL d   1     -20.258   1.951   9.170 -0.04 +0.00    +0.000    18.314
ATOM     30  C   UNL d   1     -17.138   6.025  11.271 -0.05 +0.03    +0.052    18.314
ATOM     31  C   UNL d   1     -15.919   5.951  10.358 -0.12 +0.11    +0.115    18.314
ATOM     32  C   UNL d   1     -15.023   7.138  10.580 -0.05 +0.20    +0.139    18.314
ATOM     33  O   UNL d   1     -14.693   7.468  11.710 -0.24 -1.17    -0.650    18.314
ATOM     34  O   UNL d   1     -14.575   7.850   9.532 -0.01 -1.37    -0.776    18.314
ATOM     35  H   UNL d   1     -14.667   7.484   8.641 +0.02 +0.21    +0.167    18.314
ATOM     36  C   UNL d   1     -17.452   5.513   5.833 -0.03 +0.02    +0.052    18.314
ATOM     37  C   UNL d   1     -16.092   4.843   5.714 -0.09 +0.05    +0.115    18.314
ATOM     38  C   UNL d   1     -15.362   4.869   7.027 -0.13 +0.14    +0.139    18.314
ATOM     39  O   UNL d   1     -14.662   5.823   7.334 -0.08 -0.71    -0.650    18.314
ATOM     40  O   UNL d   1     -15.472   3.833   7.877 -0.34 -1.35    -0.776    18.314
ATOM     41  H   UNL d   1     -15.472   2.932   7.523 -0.53 +0.22    +0.167    18.314
ATOM     42  C   UNL d   1     -22.208  -2.293  12.366 -0.03 -0.00    +0.004    18.314
ATOM     43  C   UNL d   1     -21.838  -3.456  11.814 -0.04 -0.00    +0.012    18.314
ATOM     44  C   UNL d   1     -23.215   0.100   4.819 -0.04 +0.00    +0.004    18.314
ATOM     45  C   UNL d   1     -22.557  -0.479   3.810 -0.04 +0.00    +0.012    18.314
TER
ENDMDL
MODEL       25
USER    Run = 25
USER    Cluster Rank = 29
USER    Number of conformations in this cluster = 1
USER  
USER    RMSD from reference structure       = 17.153 A
USER  
USER    Estimated Free Energy of Binding    =   -5.01 kcal/mol  [=(1)+(2)+(3)-(4)]
USER    Estimated Inhibition Constant, Ki   =  211.78 uM (micromolar)  [Temperature = 298.15 K]
USER    
USER    (1) Final Intermolecular Energy     =   -8.00 kcal/mol
USER        vdW + Hbond + desolv Energy     =   -7.11 kcal/mol
USER        Electrostatic Energy            =   -0.89 kcal/mol
USER    (2) Final Total Internal Energy     =   -2.19 kcal/mol
USER    (3) Torsional Free Energy           =   +2.98 kcal/mol
USER    (4) Unbound System's Energy  [=(2)] =   -2.19 kcal/mol
USER    
USER    
USER  
USER    DPF = D:/Protein_go_brrr/autodock/final/mut_Y35F/heme_Fe/dock.dpf
USER    NEWDPF move	heme_Fe_opt.pdbqt
USER    NEWDPF about	-0.174000 -0.001000 -0.047000
USER    NEWDPF tran0	9.098199 14.199152 -11.935781
USER    NEWDPF axisangle0	0.700681 -0.015680 -0.713303 -90.988795
USER    NEWDPF quaternion0	0.499713 -0.011182 -0.508715 -0.700979
USER    NEWDPF dihe0	8.88 174.41 -166.29 -107.57 174.88 95.79 -59.08 6.91 -156.18 20.07 
USER  
USER                              x       y       z    vdW   Elec        q     RMS 
ATOM      1  C   UNL d   1       7.823  15.268 -10.735 -0.20 +0.01    +0.064    17.153
ATOM      2  C   UNL d   1       7.351  12.813 -14.999 -0.13 -0.00    +0.064    17.153
ATOM      3  C   UNL d   1      11.586  10.704 -14.174 -0.17 -0.01    +0.064    17.153
ATOM      4  C   UNL d   1      12.112  13.149 -10.095 -0.26 -0.01    +0.064    17.153
ATOM      5  C   UNL d   1       7.336  14.836 -12.053 -0.22 +0.00    +0.066    17.153
ATOM      6  C   UNL d   1       6.197  15.321 -12.674 -0.17 -0.00    -0.021    17.153
ATOM      7  C   UNL d   1       6.065  14.636 -13.856 -0.14 -0.00    -0.025    17.153
ATOM      8  C   UNL d   1       7.130  13.758 -13.912 -0.18 +0.00    +0.066    17.153
ATOM      9  C   UNL d   1       4.985  14.835 -14.875 -0.08 -0.00    +0.051    17.153
ATOM     10  C   UNL d   1       8.400  11.996 -15.105 -0.10 -0.00    +0.066    17.153
ATOM     11  C   UNL d   1       8.527  11.022 -16.099 -0.10 +0.00    -0.021    17.153
ATOM     12  C   UNL d   1       9.732  10.389 -15.873 -0.10 -0.00    +0.000    17.153
ATOM     13  C   UNL d   1      10.281  11.009 -14.737 -0.07 -0.00    +0.070    17.153
ATOM     14  C   UNL d   1       7.517  10.666 -17.170 -0.08 -0.00    +0.052    17.153
ATOM     15  C   UNL d   1      12.096  11.263 -13.050 -0.19 -0.01    +0.066    17.153
ATOM     16  C   UNL d   1      13.387  11.018 -12.600 -0.25 +0.01    -0.021    17.153
ATOM     17  C   UNL d   1      13.540  11.719 -11.422 -0.18 -0.00    +0.000    17.153
ATOM     18  C   UNL d   1      12.335  12.373 -11.179 -0.21 -0.02    +0.070    17.153
ATOM     19  C   UNL d   1      14.431  10.140 -13.237 -0.19 -0.02    +0.052    17.153
ATOM     20  C   UNL d   1      10.879  13.902  -9.837 -0.26 -0.01    +0.066    17.153
ATOM     21  C   UNL d   1      10.558  14.544  -8.633 -0.35 +0.00    -0.025    17.153
ATOM     22  C   UNL d   1       9.338  15.152  -8.842 -0.33 -0.00    -0.021    17.153
ATOM     23  C   UNL d   1       8.960  14.853 -10.156 -0.22 +0.00    +0.066    17.153
ATOM     24  C   UNL d   1      11.350  14.585  -7.346 -0.30 -0.01    +0.051    17.153
ATOM     25  N   UNL d   1       7.907  13.889 -12.818 -0.17 -0.01    -0.248    17.153
ATOM     26  N   UNL d   1       9.465  11.983 -14.264 -0.03 +0.00    -0.248    17.153
ATOM     27  N   UNL d   1      11.461  12.128 -12.201 -0.15 +0.04    -0.248    17.153
ATOM     28  N   UNL d   1       9.883  14.053 -10.744 -0.18 +0.02    -0.248    17.153
ATOM     29 FE   UNL d   1       9.675  13.018 -12.502 -0.05 -0.00    +0.000    17.153
ATOM     30  C   UNL d   1       5.290  16.396 -12.181 -0.13 +0.00    +0.052    17.153
ATOM     31  C   UNL d   1       4.556  15.949 -10.921 -0.03 +0.02    +0.115    17.153
ATOM     32  C   UNL d   1       4.858  16.877  -9.778 -0.13 +0.03    +0.139    17.153
ATOM     33  O   UNL d   1       4.291  16.746  -8.702 -0.03 -0.21    -0.650    17.153
ATOM     34  O   UNL d   1       5.758  17.863  -9.930 +0.05 -0.11    -0.776    17.153
ATOM     35  H   UNL d   1       6.036  18.369  -9.153 +0.04 +0.03    +0.167    17.153
ATOM     36  C   UNL d   1       8.558  15.934  -7.818 -0.34 +0.01    +0.052    17.153
ATOM     37  C   UNL d   1       8.415  17.378  -8.275 -0.17 +0.02    +0.115    17.153
ATOM     38  C   UNL d   1       7.771  18.219  -7.209 -0.16 +0.05    +0.139    17.153
ATOM     39  O   UNL d   1       8.451  18.871  -6.431 -0.06 -0.16    -0.650    17.153
ATOM     40  O   UNL d   1       6.431  18.256  -7.103 -0.33 -0.63    -0.776    17.153
ATOM     41  H   UNL d   1       5.893  17.806  -7.770 +0.04 +0.10    +0.167    17.153
ATOM     42  C   UNL d   1      10.275   9.263 -16.695 -0.10 -0.00    +0.004    17.153
ATOM     43  C   UNL d   1      10.506   8.061 -16.151 -0.16 -0.00    +0.012    17.153
ATOM     44  C   UNL d   1      14.766  11.777 -10.595 -0.26 -0.00    +0.004    17.153
ATOM     45  C   UNL d   1      15.362  10.656 -10.175 -0.33 -0.01    +0.012    17.153
TER
ENDMDL
MODEL       31
USER    Run = 31
USER    Cluster Rank = 30
USER    Number of conformations in this cluster = 1
USER  
USER    RMSD from reference structure       = 15.088 A
USER  
USER    Estimated Free Energy of Binding    =   -4.97 kcal/mol  [=(1)+(2)+(3)-(4)]
USER    Estimated Inhibition Constant, Ki   =  227.18 uM (micromolar)  [Temperature = 298.15 K]
USER    
USER    (1) Final Intermolecular Energy     =   -7.95 kcal/mol
USER        vdW + Hbond + desolv Energy     =   -6.40 kcal/mol
USER        Electrostatic Energy            =   -1.55 kcal/mol
USER    (2) Final Total Internal Energy     =   -2.35 kcal/mol
USER    (3) Torsional Free Energy           =   +2.98 kcal/mol
USER    (4) Unbound System's Energy  [=(2)] =   -2.35 kcal/mol
USER    
USER    
USER  
USER    DPF = D:/Protein_go_brrr/autodock/final/mut_Y35F/heme_Fe/dock.dpf
USER    NEWDPF move	heme_Fe_opt.pdbqt
USER    NEWDPF about	-0.174000 -0.001000 -0.047000
USER    NEWDPF tran0	-4.391280 -9.614917 12.857862
USER    NEWDPF axisangle0	-0.996447 -0.041956 -0.073025 80.834836
USER    NEWDPF quaternion0	-0.646048 -0.027202 -0.047346 0.761341
USER    NEWDPF dihe0	99.75 82.55 70.44 39.17 -114.89 -93.95 -89.15 -72.95 -178.44 -0.92 
USER  
USER                              x       y       z    vdW   Elec        q     RMS 
ATOM      1  C   UNL d   1      -6.304 -10.359  12.848 -0.20 -0.00    +0.064    15.088
ATOM      2  C   UNL d   1      -2.571 -10.311   9.609 -0.31 -0.01    +0.064    15.088
ATOM      3  C   UNL d   1       0.404  -9.048  13.161 -0.14 -0.02    +0.064    15.088
ATOM      4  C   UNL d   1      -3.213  -8.985  16.291 -0.17 -0.01    +0.064    15.088
ATOM      5  C   UNL d   1      -5.544 -10.381  11.590 -0.16 -0.00    +0.066    15.088
ATOM      6  C   UNL d   1      -6.094 -10.599  10.338 -0.33 +0.00    -0.021    15.088
ATOM      7  C   UNL d   1      -5.056 -10.589   9.439 -0.37 +0.00    -0.025    15.088
ATOM      8  C   UNL d   1      -3.911 -10.366  10.179 -0.28 -0.01    +0.066    15.088
ATOM      9  C   UNL d   1      -5.171 -10.766   7.956 -0.46 -0.01    +0.051    15.088
ATOM     10  C   UNL d   1      -1.456 -10.040  10.291 -0.26 -0.01    +0.066    15.088
ATOM     11  C   UNL d   1      -0.175 -10.108   9.739 -0.26 +0.00    -0.021    15.088
ATOM     12  C   UNL d   1       0.703  -9.765  10.748 -0.19 -0.00    +0.000    15.088
ATOM     13  C   UNL d   1      -0.097  -9.510  11.876 -0.16 -0.02    +0.070    15.088
ATOM     14  C   UNL d   1       0.201 -10.546   8.338 -0.20 -0.01    +0.052    15.088
ATOM     15  C   UNL d   1      -0.355  -8.851  14.264 -0.10 -0.02    +0.066    15.088
ATOM     16  C   UNL d   1       0.145  -8.314  15.444 -0.09 +0.01    -0.021    15.088
ATOM     17  C   UNL d   1      -0.896  -8.298  16.349 -0.11 -0.00    +0.000    15.088
ATOM     18  C   UNL d   1      -2.007  -8.831  15.701 -0.12 -0.01    +0.070    15.088
ATOM     19  C   UNL d   1       1.552  -7.855  15.720 -0.07 -0.02    +0.052    15.088
ATOM     20  C   UNL d   1      -4.420  -9.485  15.623 -0.15 -0.01    +0.066    15.088
ATOM     21  C   UNL d   1      -5.615  -9.837  16.266 -0.10 +0.00    -0.025    15.088
ATOM     22  C   UNL d   1      -6.486 -10.213  15.265 -0.10 +0.00    -0.021    15.088
ATOM     23  C   UNL d   1      -5.790 -10.083  14.057 -0.13 -0.01    +0.066    15.088
ATOM     24  C   UNL d   1      -5.929  -9.827  17.744 -0.05 -0.00    +0.051    15.088
ATOM     25  N   UNL d   1      -4.212 -10.230  11.486 +0.00 +0.01    -0.248    15.088
ATOM     26  N   UNL d   1      -1.412  -9.687  11.600 -0.08 +0.04    -0.248    15.088
ATOM     27  N   UNL d   1      -1.688  -9.131  14.406 +0.07 +0.04    -0.248    15.088
ATOM     28  N   UNL d   1      -4.516  -9.681  14.285 +0.01 +0.02    -0.248    15.088
ATOM     29 FE   UNL d   1      -2.964  -9.684  12.945 -0.05 -0.00    +0.000    15.088
ATOM     30  C   UNL d   1      -7.535 -10.786  10.006 -0.37 +0.00    +0.052    15.088
ATOM     31  C   UNL d   1      -7.922 -12.258  10.087 -0.17 +0.00    +0.115    15.088
ATOM     32  C   UNL d   1      -8.410 -12.599  11.468 -0.14 +0.03    +0.139    15.088
ATOM     33  O   UNL d   1      -7.787 -13.380  12.174 +0.03 -0.06    -0.650    15.088
ATOM     34  O   UNL d   1      -9.539 -12.045  11.940 +0.07 -0.45    -0.776    15.088
ATOM     35  H   UNL d   1      -9.508 -11.145  12.295 +0.03 +0.15    +0.167    15.088
ATOM     36  C   UNL d   1      -7.892 -10.716  15.464 -0.05 +0.00    +0.052    15.088
ATOM     37  C   UNL d   1      -8.876  -9.567  15.301 -0.09 +0.01    +0.115    15.088
ATOM     38  C   UNL d   1      -9.614  -9.672  13.996 -0.06 +0.10    +0.139    15.088
ATOM     39  O   UNL d   1      -9.214  -9.083  13.003 -0.47 -0.61    -0.650    15.088
ATOM     40  O   UNL d   1     -10.730 -10.418  13.915 -0.10 -0.84    -0.776    15.088
ATOM     41  H   UNL d   1     -10.669 -11.319  13.569 +0.01 +0.14    +0.167    15.088
ATOM     42  C   UNL d   1       2.191  -9.714  10.608 -0.16 -0.00    +0.004    15.088
ATOM     43  C   UNL d   1       2.861  -8.568  10.786 -0.21 -0.00    +0.012    15.088
ATOM     44  C   UNL d   1      -0.836  -7.787  17.737 -0.09 -0.00    +0.004    15.088
ATOM     45  C   UNL d   1      -1.171  -6.523  18.017 -0.10 -0.00    +0.012    15.088
TER
ENDMDL
MODEL       91
USER    Run = 91
USER    Cluster Rank = 31
USER    Number of conformations in this cluster = 1
USER  
USER    RMSD from reference structure       = 20.367 A
USER  
USER    Estimated Free Energy of Binding    =   -4.87 kcal/mol  [=(1)+(2)+(3)-(4)]
USER    Estimated Inhibition Constant, Ki   =  270.82 uM (micromolar)  [Temperature = 298.15 K]
USER    
USER    (1) Final Intermolecular Energy     =   -7.85 kcal/mol
USER        vdW + Hbond + desolv Energy     =   -5.95 kcal/mol
USER        Electrostatic Energy            =   -1.90 kcal/mol
USER    (2) Final Total Internal Energy     =   -2.20 kcal/mol
USER    (3) Torsional Free Energy           =   +2.98 kcal/mol
USER    (4) Unbound System's Energy  [=(2)] =   -2.20 kcal/mol
USER    
USER    
USER  
USER    DPF = D:/Protein_go_brrr/autodock/final/mut_Y35F/heme_Fe/dock.dpf
USER    NEWDPF move	heme_Fe_opt.pdbqt
USER    NEWDPF about	-0.174000 -0.001000 -0.047000
USER    NEWDPF tran0	-10.163641 -18.026678 -9.814101
USER    NEWDPF axisangle0	0.044950 0.821949 -0.567784 146.577883
USER    NEWDPF quaternion0	0.043052 0.787236 -0.543805 0.287545
USER    NEWDPF dihe0	-33.60 161.16 43.92 -156.22 16.83 -80.75 -62.67 4.10 -177.75 159.62 
USER  
USER                              x       y       z    vdW   Elec        q     RMS 
ATOM      1  C   UNL d   1      -8.769 -19.247 -10.696 -0.21 +0.00    +0.064    20.367
ATOM      2  C   UNL d   1     -10.892 -19.042  -6.237 -0.10 +0.00    +0.064    20.367
ATOM      3  C   UNL d   1     -14.225 -16.089  -8.036 -0.25 +0.01    +0.064    20.367
ATOM      4  C   UNL d   1     -12.126 -16.189 -12.333 -0.14 +0.01    +0.064    20.367
ATOM      5  C   UNL d   1      -9.009 -19.397  -9.254 -0.17 -0.00    +0.066    20.367
ATOM      6  C   UNL d   1      -8.185 -20.089  -8.382 -0.22 +0.00    -0.021    20.367
ATOM      7  C   UNL d   1      -8.777 -20.035  -7.145 -0.17 +0.00    -0.025    20.367
ATOM      8  C   UNL d   1      -9.942 -19.310  -7.309 -0.13 -0.00    +0.066    20.367
ATOM      9  C   UNL d   1      -8.238 -20.631  -5.881 -0.12 -0.00    +0.051    20.367
ATOM     10  C   UNL d   1     -11.993 -18.298  -6.355 -0.09 +0.01    +0.066    20.367
ATOM     11  C   UNL d   1     -12.943 -18.153  -5.341 -0.10 -0.00    -0.021    20.367
ATOM     12  C   UNL d   1     -13.923 -17.319  -5.841 -0.15 +0.00    +0.000    20.367
ATOM     13  C   UNL d   1     -13.521 -17.002  -7.150 -0.17 +0.01    +0.070    20.367
ATOM     14  C   UNL d   1     -12.952 -18.832  -3.986 -0.04 +0.00    +0.052    20.367
ATOM     15  C   UNL d   1     -13.870 -15.820  -9.314 -0.24 +0.01    +0.066    20.367
ATOM     16  C   UNL d   1     -14.510 -14.866 -10.095 -0.25 -0.00    -0.021    20.367
ATOM     17  C   UNL d   1     -13.908 -14.896 -11.337 -0.19 +0.00    +0.000    20.367
ATOM     18  C   UNL d   1     -12.916 -15.872 -11.285 -0.17 +0.01    +0.070    20.367
ATOM     19  C   UNL d   1     -15.660 -13.978  -9.701 -0.20 +0.01    +0.052    20.367
ATOM     20  C   UNL d   1     -11.031 -17.166 -12.298 -0.11 +0.01    +0.066    20.367
ATOM     21  C   UNL d   1     -10.339 -17.649 -13.418 -0.08 -0.00    -0.025    20.367
ATOM     22  C   UNL d   1      -9.379 -18.509 -12.927 -0.16 -0.00    -0.021    20.367
ATOM     23  C   UNL d   1      -9.526 -18.522 -11.535 -0.19 +0.01    +0.066    20.367
ATOM     24  C   UNL d   1     -10.565 -17.327 -14.877 -0.04 +0.01    +0.051    20.367
ATOM     25  N   UNL d   1     -10.075 -18.915  -8.591 -0.08 +0.00    -0.248    20.367
ATOM     26  N   UNL d   1     -12.349 -17.605  -7.467 +0.07 -0.04    -0.248    20.367
ATOM     27  N   UNL d   1     -12.862 -16.410 -10.029 -0.13 -0.04    -0.248    20.367
ATOM     28  N   UNL d   1     -10.564 -17.736 -11.161 -0.11 -0.02    -0.248    20.367
ATOM     29 FE   UNL d   1     -11.457 -17.670  -9.315 -0.05 +0.00    +0.000    20.367
ATOM     30  C   UNL d   1      -6.888 -20.752  -8.702 -0.25 +0.00    +0.052    20.367
ATOM     31  C   UNL d   1      -7.114 -22.189  -9.157 -0.09 +0.01    +0.115    20.367
ATOM     32  C   UNL d   1      -6.646 -22.372 -10.575 -0.10 +0.03    +0.139    20.367
ATOM     33  O   UNL d   1      -5.900 -21.554 -11.095 -0.02 -0.26    -0.650    20.367
ATOM     34  O   UNL d   1      -7.046 -23.440 -11.285 +0.03 -0.21    -0.776    20.367
ATOM     35  H   UNL d   1      -7.182 -23.346 -12.238 +0.02 +0.07    +0.167    20.367
ATOM     36  C   UNL d   1      -8.409 -19.309 -13.755 -0.11 +0.03    +0.052    20.367
ATOM     37  C   UNL d   1      -8.863 -20.760 -13.820 -0.12 +0.06    +0.115    20.367
ATOM     38  C   UNL d   1      -7.873 -21.602 -14.573 +0.01 +0.16    +0.139    20.367
ATOM     39  O   UNL d   1      -7.870 -21.620 -15.795 -0.45 -0.86    -0.650    20.367
ATOM     40  O   UNL d   1      -6.979 -22.349 -13.902 -0.35 -1.06    -0.776    20.367
ATOM     41  H   UNL d   1      -6.790 -22.139 -12.977 +0.01 +0.15    +0.167    20.367
ATOM     42  C   UNL d   1     -15.150 -16.897  -5.096 -0.12 +0.00    +0.004    20.367
ATOM     43  C   UNL d   1     -15.161 -15.772  -4.368 -0.18 +0.00    +0.012    20.367
ATOM     44  C   UNL d   1     -14.248 -14.033 -12.490 -0.15 +0.00    +0.004    20.367
ATOM     45  C   UNL d   1     -14.981 -14.502 -13.505 -0.08 +0.00    +0.012    20.367
TER
ENDMDL
MODEL       21
USER    Run = 21
USER    Cluster Rank = 32
USER    Number of conformations in this cluster = 1
USER  
USER    RMSD from reference structure       = 16.888 A
USER  
USER    Estimated Free Energy of Binding    =   -4.51 kcal/mol  [=(1)+(2)+(3)-(4)]
USER    Estimated Inhibition Constant, Ki   =  495.42 uM (micromolar)  [Temperature = 298.15 K]
USER    
USER    (1) Final Intermolecular Energy     =   -7.49 kcal/mol
USER        vdW + Hbond + desolv Energy     =   -6.04 kcal/mol
USER        Electrostatic Energy            =   -1.46 kcal/mol
USER    (2) Final Total Internal Energy     =   -2.57 kcal/mol
USER    (3) Torsional Free Energy           =   +2.98 kcal/mol
USER    (4) Unbound System's Energy  [=(2)] =   -2.57 kcal/mol
USER    
USER    
USER  
USER    DPF = D:/Protein_go_brrr/autodock/final/mut_Y35F/heme_Fe/dock.dpf
USER    NEWDPF move	heme_Fe_opt.pdbqt
USER    NEWDPF about	-0.174000 -0.001000 -0.047000
USER    NEWDPF tran0	4.848662 14.990019 -11.749269
USER    NEWDPF axisangle0	0.619081 -0.739716 -0.263740 144.384946
USER    NEWDPF quaternion0	0.589420 -0.704276 -0.251104 0.305820
USER    NEWDPF dihe0	1.67 67.42 65.40 50.57 -78.46 -128.23 72.89 -77.31 -9.73 -34.91 
USER  
USER                              x       y       z    vdW   Elec        q     RMS 
ATOM      1  C   UNL d   1       5.212  16.700 -10.675 -0.14 +0.01    +0.064    16.888
ATOM      2  C   UNL d   1       8.026  13.495 -13.173 -0.21 +0.00    +0.064    16.888
ATOM      3  C   UNL d   1       4.066  11.747 -15.254 -0.20 -0.00    +0.064    16.888
ATOM      4  C   UNL d   1       1.315  14.769 -12.767 -0.18 -0.00    +0.064    16.888
ATOM      5  C   UNL d   1       6.364  15.904 -11.122 -0.12 +0.01    +0.066    16.888
ATOM      6  C   UNL d   1       7.657  16.048 -10.648 -0.17 -0.00    -0.021    16.888
ATOM      7  C   UNL d   1       8.439  15.160 -11.345 -0.21 -0.00    -0.025    16.888
ATOM      8  C   UNL d   1       7.591  14.507 -12.219 -0.23 +0.00    +0.066    16.888
ATOM      9  C   UNL d   1       9.910  14.946 -11.162 -0.18 -0.00    +0.051    16.888
ATOM     10  C   UNL d   1       7.221  12.809 -13.986 -0.20 +0.00    +0.066    16.888
ATOM     11  C   UNL d   1       7.679  11.928 -14.969 -0.08 -0.00    -0.021    16.888
ATOM     12  C   UNL d   1       6.557  11.424 -15.594 -0.15 -0.00    +0.000    16.888
ATOM     13  C   UNL d   1       5.461  12.034 -14.960 -0.20 +0.00    +0.070    16.888
ATOM     14  C   UNL d   1       9.118  11.634 -15.340 -0.11 -0.00    +0.052    16.888
ATOM     15  C   UNL d   1       3.009  12.370 -14.682 -0.14 -0.00    +0.066    16.888
ATOM     16  C   UNL d   1       1.691  11.997 -14.916 -0.13 +0.00    -0.021    16.888
ATOM     17  C   UNL d   1       0.896  12.869 -14.203 -0.13 -0.00    +0.000    16.888
ATOM     18  C   UNL d   1       1.748  13.758 -13.552 -0.13 -0.00    +0.070    16.888
ATOM     19  C   UNL d   1       1.195  10.881 -15.796 -0.12 -0.00    +0.052    16.888
ATOM     20  C   UNL d   1       2.183  15.685 -12.018 -0.16 +0.00    +0.066    16.888
ATOM     21  C   UNL d   1       1.758  16.852 -11.366 -0.08 -0.00    -0.025    16.888
ATOM     22  C   UNL d   1       2.883  17.379 -10.766 -0.08 -0.00    -0.021    16.888
ATOM     23  C   UNL d   1       3.945  16.522 -11.079 -0.14 +0.01    +0.066    16.888
ATOM     24  C   UNL d   1       0.371  17.449 -11.309 -0.03 -0.00    +0.051    16.888
ATOM     25  N   UNL d   1       6.328  14.955 -12.074 -0.16 -0.02    -0.248    16.888
ATOM     26  N   UNL d   1       5.866  12.886 -13.985 -0.19 -0.01    -0.248    16.888
ATOM     27  N   UNL d   1       3.048  13.425 -13.811 -0.11 -0.00    -0.248    16.888
ATOM     28  N   UNL d   1       3.520  15.515 -11.880 -0.15 -0.01    -0.248    16.888
ATOM     29 FE   UNL d   1       4.691  14.201 -12.933 -0.05 +0.00    +0.000    16.888
ATOM     30  C   UNL d   1       8.126  16.967  -9.573 -0.15 +0.01    +0.052    16.888
ATOM     31  C   UNL d   1       7.814  16.392  -8.196 -0.29 +0.03    +0.115    16.888
ATOM     32  C   UNL d   1       6.683  17.146  -7.554 -0.19 +0.08    +0.139    16.888
ATOM     33  O   UNL d   1       6.878  18.234  -7.030 -0.52 -0.45    -0.650    16.888
ATOM     34  O   UNL d   1       5.443  16.629  -7.550 -0.02 -0.53    -0.776    16.888
ATOM     35  H   UNL d   1       4.722  17.140  -7.154 +0.06 +0.16    +0.167    16.888
ATOM     36  C   UNL d   1       2.940  18.661  -9.978 -0.04 +0.00    +0.052    16.888
ATOM     37  C   UNL d   1       2.042  18.552  -8.754 -0.04 +0.01    +0.115    16.888
ATOM     38  C   UNL d   1       2.850  18.287  -7.515 -0.08 +0.06    +0.139    16.888
ATOM     39  O   UNL d   1       2.568  17.359  -6.771 -0.01 -0.41    -0.650    16.888
ATOM     40  O   UNL d   1       3.896  19.077  -7.214 -0.00 -0.51    -0.776    16.888
ATOM     41  H   UNL d   1       4.789  18.708  -7.246 +0.02 +0.13    +0.167    16.888
ATOM     42  C   UNL d   1       6.575  10.445 -16.725 -0.12 -0.00    +0.004    16.888
ATOM     43  C   UNL d   1       6.103   9.201 -16.568 -0.17 -0.00    +0.012    16.888
ATOM     44  C   UNL d   1      -0.583  12.841 -14.132 -0.12 -0.00    +0.004    16.888
ATOM     45  C   UNL d   1      -1.207  12.382 -13.043 -0.16 -0.00    +0.012    16.888
TER
ENDMDL
MODEL       13
USER    Run = 13
USER    Cluster Rank = 33
USER    Number of conformations in this cluster = 1
USER  
USER    RMSD from reference structure       = 18.973 A
USER  
USER    Estimated Free Energy of Binding    =   -4.49 kcal/mol  [=(1)+(2)+(3)-(4)]
USER    Estimated Inhibition Constant, Ki   =  513.76 uM (micromolar)  [Temperature = 298.15 K]
USER    
USER    (1) Final Intermolecular Energy     =   -7.47 kcal/mol
USER        vdW + Hbond + desolv Energy     =   -6.97 kcal/mol
USER        Electrostatic Energy            =   -0.50 kcal/mol
USER    (2) Final Total Internal Energy     =   -2.20 kcal/mol
USER    (3) Torsional Free Energy           =   +2.98 kcal/mol
USER    (4) Unbound System's Energy  [=(2)] =   -2.20 kcal/mol
USER    
USER    
USER  
USER    DPF = D:/Protein_go_brrr/autodock/final/mut_Y35F/heme_Fe/dock.dpf
USER    NEWDPF move	heme_Fe_opt.pdbqt
USER    NEWDPF about	-0.174000 -0.001000 -0.047000
USER    NEWDPF tran0	-11.283282 -18.779833 -6.797195
USER    NEWDPF axisangle0	-0.689699 -0.592441 -0.416327 -148.447318
USER    NEWDPF quaternion0	-0.663719 -0.570124 -0.400644 -0.271883
USER    NEWDPF dihe0	-40.38 167.32 -130.19 -119.18 113.89 -94.74 63.50 8.92 -29.65 138.81 
USER  
USER                              x       y       z    vdW   Elec        q     RMS 
ATOM      1  C   UNL d   1     -11.280 -19.401  -8.753 -0.10 +0.00    +0.064    18.973
ATOM      2  C   UNL d   1     -14.458 -16.919  -5.895 -0.15 +0.01    +0.064    18.973
ATOM      3  C   UNL d   1     -10.939 -16.230  -2.699 -0.17 +0.00    +0.064    18.973
ATOM      4  C   UNL d   1      -7.874 -18.718  -5.401 -0.27 -0.01    +0.064    18.973
ATOM      5  C   UNL d   1     -12.522 -18.838  -8.206 -0.07 +0.00    +0.066    18.973
ATOM      6  C   UNL d   1     -13.768 -18.945  -8.801 -0.04 -0.00    -0.021    18.973
ATOM      7  C   UNL d   1     -14.650 -18.252  -8.009 -0.05 -0.00    -0.025    18.973
ATOM      8  C   UNL d   1     -13.907 -17.749  -6.959 -0.11 +0.01    +0.066    18.973
ATOM      9  C   UNL d   1     -16.122 -18.106  -8.245 -0.03 +0.00    +0.051    18.973
ATOM     10  C   UNL d   1     -13.776 -16.468  -4.840 -0.19 +0.01    +0.066    18.973
ATOM     11  C   UNL d   1     -14.303 -15.581  -3.898 -0.20 -0.00    -0.021    18.973
ATOM     12  C   UNL d   1     -13.302 -15.354  -2.975 -0.28 +0.00    +0.000    18.973
ATOM     13  C   UNL d   1     -12.203 -16.114  -3.411 -0.22 +0.00    +0.070    18.973
ATOM     14  C   UNL d   1     -15.670 -14.929  -3.914 -0.06 +0.00    +0.052    18.973
ATOM     15  C   UNL d   1      -9.861 -16.919  -3.141 -0.18 -0.00    +0.066    18.973
ATOM     16  C   UNL d   1      -8.707 -17.088  -2.386 -0.24 +0.00    -0.021    18.973
ATOM     17  C   UNL d   1      -7.820 -17.802  -3.164 -0.26 -0.00    +0.000    18.973
ATOM     18  C   UNL d   1      -8.454 -18.050  -4.380 -0.23 -0.01    +0.070    18.973
ATOM     19  C   UNL d   1      -8.436 -16.577  -0.996 -0.37 -0.00    +0.052    18.973
ATOM     20  C   UNL d   1      -8.531 -19.050  -6.671 -0.25 -0.00    +0.066    18.973
ATOM     21  C   UNL d   1      -7.887 -19.562  -7.807 -0.24 +0.00    -0.025    18.973
ATOM     22  C   UNL d   1      -8.879 -19.761  -8.745 -0.20 +0.00    -0.021    18.973
ATOM     23  C   UNL d   1     -10.081 -19.359  -8.151 -0.13 +0.00    +0.066    18.973
ATOM     24  C   UNL d   1      -6.417 -19.847  -8.009 -0.13 -0.00    +0.051    18.973
ATOM     25  N   UNL d   1     -12.615 -18.115  -7.076 -0.08 -0.03    -0.248    18.973
ATOM     26  N   UNL d   1     -12.488 -16.787  -4.552 -0.13 -0.03    -0.248    18.973
ATOM     27  N   UNL d   1      -9.724 -17.545  -4.351 -0.15 +0.01    -0.248    18.973
ATOM     28  N   UNL d   1      -9.856 -18.885  -6.901 -0.09 +0.00    -0.248    18.973
ATOM     29 FE   UNL d   1     -11.170 -17.836  -5.727 -0.04 +0.00    +0.000    18.973
ATOM     30  C   UNL d   1     -14.111 -19.686 -10.049 -0.02 +0.00    +0.052    18.973
ATOM     31  C   UNL d   1     -13.775 -21.166  -9.908 -0.00 +0.00    +0.115    18.973
ATOM     32  C   UNL d   1     -12.708 -21.559 -10.892 -0.00 +0.01    +0.139    18.973
ATOM     33  O   UNL d   1     -11.600 -21.905 -10.505 +0.01 -0.04    -0.650    18.973
ATOM     34  O   UNL d   1     -12.964 -21.533 -12.210 +0.00 -0.05    -0.776    18.973
ATOM     35  H   UNL d   1     -12.282 -21.206 -12.814 +0.01 +0.02    +0.167    18.973
ATOM     36  C   UNL d   1      -8.672 -20.262 -10.150 -0.19 +0.00    +0.052    18.973
ATOM     37  C   UNL d   1      -9.255 -19.266 -11.142 -0.19 +0.01    +0.115    18.973
ATOM     38  C   UNL d   1      -9.242 -19.824 -12.537 -0.13 +0.04    +0.139    18.973
ATOM     39  O   UNL d   1      -8.321 -19.577 -13.300 -0.05 -0.32    -0.650    18.973
ATOM     40  O   UNL d   1     -10.255 -20.603 -12.958 +0.03 -0.16    -0.776    18.973
ATOM     41  H   UNL d   1     -10.882 -20.950 -12.308 +0.02 +0.02    +0.167    18.973
ATOM     42  C   UNL d   1     -13.421 -14.452  -1.788 -0.38 -0.00    +0.004    18.973
ATOM     43  C   UNL d   1     -13.243 -13.130  -1.905 -0.52 -0.00    +0.012    18.973
ATOM     44  C   UNL d   1      -6.464 -18.238  -2.764 -0.36 -0.00    +0.004    18.973
ATOM     45  C   UNL d   1      -5.501 -17.342  -2.519 -0.51 -0.00    +0.012    18.973
TER
ENDMDL
MODEL       34
USER    Run = 34
USER    Cluster Rank = 34
USER    Number of conformations in this cluster = 1
USER  
USER    RMSD from reference structure       = 17.264 A
USER  
USER    Estimated Free Energy of Binding    =   -4.23 kcal/mol  [=(1)+(2)+(3)-(4)]
USER    Estimated Inhibition Constant, Ki   =  789.60 uM (micromolar)  [Temperature = 298.15 K]
USER    
USER    (1) Final Intermolecular Energy     =   -7.22 kcal/mol
USER        vdW + Hbond + desolv Energy     =   -7.04 kcal/mol
USER        Electrostatic Energy            =   -0.17 kcal/mol
USER    (2) Final Total Internal Energy     =   -1.83 kcal/mol
USER    (3) Torsional Free Energy           =   +2.98 kcal/mol
USER    (4) Unbound System's Energy  [=(2)] =   -1.83 kcal/mol
USER    
USER    
USER  
USER    DPF = D:/Protein_go_brrr/autodock/final/mut_Y35F/heme_Fe/dock.dpf
USER    NEWDPF move	heme_Fe_opt.pdbqt
USER    NEWDPF about	-0.174000 -0.001000 -0.047000
USER    NEWDPF tran0	1.167051 19.518527 2.114381
USER    NEWDPF axisangle0	-0.026808 -0.839458 -0.542763 -155.017806
USER    NEWDPF quaternion0	-0.026173 -0.819587 -0.529916 -0.216288
USER    NEWDPF dihe0	140.11 165.89 38.67 58.51 -121.89 142.55 41.19 99.29 -21.79 -180.00 
USER  
USER                              x       y       z    vdW   Elec        q     RMS 
ATOM      1  C   UNL d   1       2.770  20.330   1.123 -0.15 -0.01    +0.064    17.264
ATOM      2  C   UNL d   1      -1.377  18.026  -0.265 -0.22 -0.03    +0.064    17.264
ATOM      3  C   UNL d   1      -3.145  18.698   4.150 -0.14 -0.02    +0.064    17.264
ATOM      4  C   UNL d   1       0.900  20.837   5.544 -0.20 -0.01    +0.064    17.264
ATOM      5  C   UNL d   1       1.800  19.545   0.347 -0.13 -0.01    +0.066    17.264
ATOM      6  C   UNL d   1       2.014  19.068  -0.935 -0.18 -0.00    -0.021    17.264
ATOM      7  C   UNL d   1       0.860  18.431  -1.321 -0.22 +0.00    -0.025    17.264
ATOM      8  C   UNL d   1      -0.014  18.544  -0.258 -0.18 -0.02    +0.066    17.264
ATOM      9  C   UNL d   1       0.629  17.740  -2.630 -0.14 -0.01    +0.051    17.264
ATOM     10  C   UNL d   1      -2.221  18.071   0.768 -0.22 -0.02    +0.066    17.264
ATOM     11  C   UNL d   1      -3.557  17.669   0.694 -0.22 +0.01    -0.021    17.264
ATOM     12  C   UNL d   1      -4.094  17.869   1.951 -0.25 -0.00    +0.000    17.264
ATOM     13  C   UNL d   1      -3.049  18.395   2.731 -0.19 -0.02    +0.070    17.264
ATOM     14  C   UNL d   1      -4.304  17.183  -0.531 -0.22 -0.03    +0.052    17.264
ATOM     15  C   UNL d   1      -2.159  19.253   4.893 -0.21 -0.02    +0.066    17.264
ATOM     16  C   UNL d   1      -2.255  19.434   6.267 -0.27 +0.01    -0.021    17.264
ATOM     17  C   UNL d   1      -1.090  20.054   6.671 -0.21 -0.00    +0.000    17.264
ATOM     18  C   UNL d   1      -0.312  20.241   5.531 -0.19 -0.02    +0.070    17.264
ATOM     19  C   UNL d   1      -3.405  19.063   7.164 -0.34 -0.02    +0.052    17.264
ATOM     20  C   UNL d   1       1.774  20.996   4.375 -0.14 -0.01    +0.066    17.264
ATOM     21  C   UNL d   1       2.934  21.782   4.332 -0.14 +0.01    -0.025    17.264
ATOM     22  C   UNL d   1       3.457  21.613   3.067 -0.15 +0.00    -0.021    17.264
ATOM     23  C   UNL d   1       2.598  20.740   2.390 -0.14 -0.01    +0.066    17.264
ATOM     24  C   UNL d   1       3.524  22.654   5.416 -0.14 -0.01    +0.051    17.264
ATOM     25  N   UNL d   1       0.563  19.214   0.759 -0.08 +0.04    -0.248    17.264
ATOM     26  N   UNL d   1      -1.910  18.527   2.008 -0.12 +0.06    -0.248    17.264
ATOM     27  N   UNL d   1      -0.949  19.709   4.444 -0.10 +0.05    -0.248    17.264
ATOM     28  N   UNL d   1       1.548  20.402   3.178 -0.13 +0.03    -0.248    17.264
ATOM     29 FE   UNL d   1      -0.180  19.465   2.595 -0.04 -0.00    +0.000    17.264
ATOM     30  C   UNL d   1       3.258  19.190  -1.747 -0.19 +0.02    +0.052    17.264
ATOM     31  C   UNL d   1       4.386  18.367  -1.134 -0.27 +0.04    +0.115    17.264
ATOM     32  C   UNL d   1       5.683  19.125  -1.194 -0.20 +0.03    +0.139    17.264
ATOM     33  O   UNL d   1       6.654  18.656  -1.770 -0.04 -0.21    -0.650    17.264
ATOM     34  O   UNL d   1       5.786  20.332  -0.611 +0.08 -0.04    -0.776    17.264
ATOM     35  H   UNL d   1       5.044  20.950  -0.675 +0.03 +0.01    +0.167    17.264
ATOM     36  C   UNL d   1       4.688  22.292   2.526 -0.12 -0.00    +0.052    17.264
ATOM     37  C   UNL d   1       4.328  23.682   2.022 -0.03 -0.01    +0.115    17.264
ATOM     38  C   UNL d   1       3.740  23.619   0.641 -0.01 -0.01    +0.139    17.264
ATOM     39  O   UNL d   1       2.824  24.360   0.316 +0.01 +0.04    -0.650    17.264
ATOM     40  O   UNL d   1       4.220  22.736  -0.253 +0.03 +0.02    -0.776    17.264
ATOM     41  H   UNL d   1       5.065  22.299  -0.076 +0.02 -0.00    +0.167    17.264
ATOM     42  C   UNL d   1      -5.511  17.582   2.331 -0.32 -0.00    +0.004    17.264
ATOM     43  C   UNL d   1      -5.883  16.361   2.737 -0.41 -0.00    +0.012    17.264
ATOM     44  C   UNL d   1      -0.737  20.425   8.060 -0.22 -0.00    +0.004    17.264
ATOM     45  C   UNL d   1       0.264  19.811   8.699 -0.36 -0.01    +0.012    17.264
TER
ENDMDL
MODEL       92
USER    Run = 92
USER    Cluster Rank = 35
USER    Number of conformations in this cluster = 1
USER  
USER    RMSD from reference structure       = 17.839 A
USER  
USER    Estimated Free Energy of Binding    =   -4.04 kcal/mol  [=(1)+(2)+(3)-(4)]
USER    Estimated Inhibition Constant, Ki   =    1.09 mM (millimolar)  [Temperature = 298.15 K]
USER    
USER    (1) Final Intermolecular Energy     =   -7.02 kcal/mol
USER        vdW + Hbond + desolv Energy     =   -4.14 kcal/mol
USER        Electrostatic Energy            =   -2.89 kcal/mol
USER    (2) Final Total Internal Energy     =   -2.04 kcal/mol
USER    (3) Torsional Free Energy           =   +2.98 kcal/mol
USER    (4) Unbound System's Energy  [=(2)] =   -2.04 kcal/mol
USER    
USER    
USER  
USER    DPF = D:/Protein_go_brrr/autodock/final/mut_Y35F/heme_Fe/dock.dpf
USER    NEWDPF move	heme_Fe_opt.pdbqt
USER    NEWDPF about	-0.174000 -0.001000 -0.047000
USER    NEWDPF tran0	-13.733381 15.621200 6.817028
USER    NEWDPF axisangle0	-0.658923 -0.674766 -0.332432 86.705981
USER    NEWDPF quaternion0	-0.452345 -0.463221 -0.228212 0.727138
USER    NEWDPF dihe0	-24.37 -165.14 -164.00 -145.49 179.19 -118.09 -70.56 11.80 -172.24 169.02 
USER  
USER                              x       y       z    vdW   Elec        q     RMS 
ATOM      1  C   UNL d   1     -14.195  13.867   7.777 -0.05 +0.00    +0.064    17.839
ATOM      2  C   UNL d   1     -12.951  15.078   3.149 -0.11 -0.01    +0.064    17.839
ATOM      3  C   UNL d   1     -11.472  19.362   4.741 -0.14 -0.01    +0.064    17.839
ATOM      4  C   UNL d   1     -12.766  18.250   9.211 -0.12 -0.05    +0.064    17.839
ATOM      5  C   UNL d   1     -14.059  13.842   6.314 -0.06 +0.00    +0.066    17.839
ATOM      6  C   UNL d   1     -14.488  12.809   5.498 -0.03 -0.00    -0.021    17.839
ATOM      7  C   UNL d   1     -14.139  13.144   4.213 -0.04 +0.00    -0.025    17.839
ATOM      8  C   UNL d   1     -13.510  14.371   4.295 -0.10 -0.01    +0.066    17.839
ATOM      9  C   UNL d   1     -14.416  12.335   2.983 -0.02 +0.00    +0.051    17.839
ATOM     10  C   UNL d   1     -12.391  16.288   3.192 -0.08 -0.01    +0.066    17.839
ATOM     11  C   UNL d   1     -11.762  16.890   2.100 -0.07 +0.00    -0.021    17.839
ATOM     12  C   UNL d   1     -11.312  18.120   2.537 -0.09 -0.00    +0.000    17.839
ATOM     13  C   UNL d   1     -11.686  18.202   3.890 -0.06 -0.01    +0.070    17.839
ATOM     14  C   UNL d   1     -11.540  16.295   0.724 -0.06 -0.01    +0.052    17.839
ATOM     15  C   UNL d   1     -11.783  19.426   6.057 -0.15 -0.02    +0.066    17.839
ATOM     16  C   UNL d   1     -11.655  20.585   6.812 -0.10 +0.01    -0.021    17.839
ATOM     17  C   UNL d   1     -12.025  20.266   8.102 -0.10 -0.00    +0.000    17.839
ATOM     18  C   UNL d   1     -12.366  18.915   8.105 -0.12 -0.05    +0.070    17.839
ATOM     19  C   UNL d   1     -11.181  21.935   6.346 -0.04 -0.02    +0.052    17.839
ATOM     20  C   UNL d   1     -13.192  16.845   9.240 -0.11 -0.03    +0.066    17.839
ATOM     21  C   UNL d   1     -13.415  16.091  10.400 -0.07 +0.01    -0.025    17.839
ATOM     22  C   UNL d   1     -13.833  14.849   9.969 -0.05 +0.00    -0.021    17.839
ATOM     23  C   UNL d   1     -13.843  14.893   8.569 -0.06 -0.00    +0.066    17.839
ATOM     24  C   UNL d   1     -13.242  16.505  11.843 -0.05 -0.02    +0.051    17.839
ATOM     25  N   UNL d   1     -13.472  14.798   5.573 -0.09 +0.02    -0.248    17.839
ATOM     26  N   UNL d   1     -12.336  17.082   4.292 -0.12 +0.06    -0.248    17.839
ATOM     27  N   UNL d   1     -12.260  18.409   6.840 -0.14 +0.11    -0.248    17.839
ATOM     28  N   UNL d   1     -13.407  16.098   8.130 -0.08 +0.05    -0.248    17.839
ATOM     29 FE   UNL d   1     -12.871  16.591   6.213 -0.03 -0.00    +0.000    17.839
ATOM     30  C   UNL d   1     -15.212  11.574   5.912 -0.01 +0.01    +0.052    17.839
ATOM     31  C   UNL d   1     -14.235  10.517   6.415 -0.03 +0.04    +0.115    17.839
ATOM     32  C   UNL d   1     -14.370  10.340   7.902 -0.05 +0.10    +0.139    17.839
ATOM     33  O   UNL d   1     -13.682   9.524   8.498 -0.54 -1.07    -0.650    17.839
ATOM     34  O   UNL d   1     -15.253  11.082   8.592 +0.02 -0.39    -0.776    17.839
ATOM     35  H   UNL d   1     -15.593  10.746   9.433 +0.01 +0.10    +0.167    17.839
ATOM     36  C   UNL d   1     -14.158  13.674  10.852 -0.04 +0.01    +0.052    17.839
ATOM     37  C   UNL d   1     -12.929  12.789  11.001 -0.14 +0.05    +0.115    17.839
ATOM     38  C   UNL d   1     -13.283  11.480  11.650 -0.07 +0.17    +0.139    17.839
ATOM     39  O   UNL d   1     -12.792  11.161  12.723 -0.78 -0.89    -0.650    17.839
ATOM     40  O   UNL d   1     -14.146  10.644  11.046 +0.09 -1.23    -0.776    17.839
ATOM     41  H   UNL d   1     -14.366  10.787  10.115 +0.02 +0.21    +0.167    17.839
ATOM     42  C   UNL d   1     -10.566  19.107   1.697 -0.07 -0.00    +0.004    17.839
ATOM     43  C   UNL d   1      -9.305  19.449   1.992 -0.08 -0.00    +0.012    17.839
ATOM     44  C   UNL d   1     -12.068  21.197   9.252 -0.07 -0.00    +0.004    17.839
ATOM     45  C   UNL d   1     -11.008  21.346  10.053 -0.04 -0.01    +0.012    17.839
TER
ENDMDL
MODEL       39
USER    Run = 39
USER    Cluster Rank = 36
USER    Number of conformations in this cluster = 1
USER  
USER    RMSD from reference structure       = 16.551 A
USER  
USER    Estimated Free Energy of Binding    =   -4.03 kcal/mol  [=(1)+(2)+(3)-(4)]
USER    Estimated Inhibition Constant, Ki   =    1.10 mM (millimolar)  [Temperature = 298.15 K]
USER    
USER    (1) Final Intermolecular Energy     =   -7.02 kcal/mol
USER        vdW + Hbond + desolv Energy     =   -7.04 kcal/mol
USER        Electrostatic Energy            =   +0.03 kcal/mol
USER    (2) Final Total Internal Energy     =   -2.25 kcal/mol
USER    (3) Torsional Free Energy           =   +2.98 kcal/mol
USER    (4) Unbound System's Energy  [=(2)] =   -2.25 kcal/mol
USER    
USER    
USER  
USER    DPF = D:/Protein_go_brrr/autodock/final/mut_Y35F/heme_Fe/dock.dpf
USER    NEWDPF move	heme_Fe_opt.pdbqt
USER    NEWDPF about	-0.174000 -0.001000 -0.047000
USER    NEWDPF tran0	6.029339 15.779345 -11.211299
USER    NEWDPF axisangle0	0.800777 -0.555604 0.223741 -60.339931
USER    NEWDPF quaternion0	0.402444 -0.279228 0.112445 -0.864538
USER    NEWDPF dihe0	25.79 -149.41 171.17 58.32 -104.71 97.28 -69.94 -5.35 -163.98 6.39 
USER  
USER                              x       y       z    vdW   Elec        q     RMS 
ATOM      1  C   UNL d   1       4.223  15.397 -12.108 -0.22 +0.00    +0.064    16.551
ATOM      2  C   UNL d   1       8.683  13.270 -12.220 -0.12 +0.00    +0.064    16.551
ATOM      3  C   UNL d   1       9.904  15.783  -8.313 -0.28 +0.00    +0.064    16.551
ATOM      4  C   UNL d   1       5.630  17.932  -8.248 -0.17 +0.03    +0.064    16.551
ATOM      5  C   UNL d   1       5.394  14.628 -12.551 -0.24 +0.00    +0.066    16.551
ATOM      6  C   UNL d   1       5.450  13.869 -13.708 -0.23 -0.00    -0.021    16.551
ATOM      7  C   UNL d   1       6.687  13.275 -13.737 -0.27 -0.00    -0.025    16.551
ATOM      8  C   UNL d   1       7.341  13.696 -12.594 -0.30 +0.00    +0.066    16.551
ATOM      9  C   UNL d   1       7.210  12.374 -14.813 -0.19 +0.00    +0.051    16.551
ATOM     10  C   UNL d   1       9.358  13.705 -11.154 -0.24 -0.00    +0.066    16.551
ATOM     11  C   UNL d   1      10.596  13.193 -10.759 -0.29 +0.00    -0.021    16.551
ATOM     12  C   UNL d   1      10.962  13.889  -9.624 -0.31 -0.00    +0.000    16.551
ATOM     13  C   UNL d   1       9.914  14.793  -9.379 -0.27 -0.00    +0.070    16.551
ATOM     14  C   UNL d   1      11.362  12.049 -11.391 -0.32 -0.01    +0.052    16.551
ATOM     15  C   UNL d   1       8.875  16.620  -8.041 -0.23 +0.01    +0.066    16.551
ATOM     16  C   UNL d   1       8.943  17.618  -7.078 -0.17 -0.00    -0.021    16.551
ATOM     17  C   UNL d   1       7.711  18.237  -7.055 -0.16 +0.00    +0.000    16.551
ATOM     18  C   UNL d   1       6.916  17.598  -8.004 -0.20 +0.03    +0.070    16.551
ATOM     19  C   UNL d   1      10.112  17.963  -6.194 -0.13 -0.00    +0.052    16.551
ATOM     20  C   UNL d   1       4.783  17.323  -9.281 -0.16 +0.02    +0.066    16.551
ATOM     21  C   UNL d   1       3.401  17.516  -9.412 -0.12 -0.00    -0.025    16.551
ATOM     22  C   UNL d   1       3.023  16.794 -10.525 -0.14 -0.00    -0.021    16.551
ATOM     23  C   UNL d   1       4.182  16.188 -11.024 -0.14 +0.01    +0.066    16.551
ATOM     24  C   UNL d   1       2.475  18.330  -8.538 -0.08 +0.01    +0.051    16.551
ATOM     25  N   UNL d   1       6.555  14.526 -11.880 -0.18 -0.03    -0.248    16.551
ATOM     26  N   UNL d   1       8.932  14.675 -10.306 -0.18 -0.00    -0.248    16.551
ATOM     27  N   UNL d   1       7.645  16.632  -8.641 -0.16 -0.05    -0.248    16.551
ATOM     28  N   UNL d   1       5.245  16.478 -10.234 -0.06 -0.04    -0.248    16.551
ATOM     29 FE   UNL d   1       7.088  15.578 -10.269 -0.06 +0.00    +0.000    16.551
ATOM     30  C   UNL d   1       4.390  13.730 -14.747 -0.15 -0.00    +0.052    16.551
ATOM     31  C   UNL d   1       3.260  12.836 -14.249 -0.14 -0.00    +0.115    16.551
ATOM     32  C   UNL d   1       2.016  13.646 -14.006 -0.13 -0.00    +0.139    16.551
ATOM     33  O   UNL d   1       1.665  13.922 -12.868 -0.03 +0.01    -0.650    16.551
ATOM     34  O   UNL d   1       1.277  14.074 -15.044 +0.02 +0.02    -0.776    16.551
ATOM     35  H   UNL d   1       0.732  14.867 -14.936 +0.02 -0.01    +0.167    16.551
ATOM     36  C   UNL d   1       1.618  16.658 -11.050 -0.11 -0.00    +0.052    16.551
ATOM     37  C   UNL d   1       1.438  17.545 -12.273 -0.03 -0.00    +0.115    16.551
ATOM     38  C   UNL d   1       0.096  17.320 -12.909 -0.02 -0.01    +0.139    16.551
ATOM     39  O   UNL d   1      -0.844  18.062 -12.665 +0.01 +0.03    -0.650    16.551
ATOM     40  O   UNL d   1      -0.081  16.290 -13.756 +0.02 +0.03    -0.776    16.551
ATOM     41  H   UNL d   1       0.440  15.485 -13.632 +0.02 -0.01    +0.167    16.551
ATOM     42  C   UNL d   1      12.222  13.663  -8.850 -0.32 -0.00    +0.004    16.551
ATOM     43  C   UNL d   1      12.226  13.713  -7.512 -0.40 -0.00    +0.012    16.551
ATOM     44  C   UNL d   1       7.325  19.379  -6.195 -0.12 +0.00    +0.004    16.551
ATOM     45  C   UNL d   1       7.076  20.581  -6.725 -0.07 +0.00    +0.012    16.551
TER
ENDMDL


AVSFLD: # AVS field file
AVSFLD: #
AVSFLD: # Created by AutoDock
AVSFLD: #
AVSFLD: ndim=2           # number of dimensions in the field
AVSFLD: nspace=1         # number of physical coordinates
AVSFLD: veclen=7         # vector size
AVSFLD: dim1=45          # atoms
AVSFLD: dim2=36          # conformations
AVSFLD: data=Real       # data type (byte,integer,Real,double)
AVSFLD: field=uniform    # field coordinate layout
AVSFLD: label= x y z vdW Elec q RMS
AVSFLD: variable 1 file = D:/Protein_go_brrr/autodock/final/mut_Y35F/heme_Fe/dock.dlg.pdb filetype = ascii offset = 5 stride = 12
AVSFLD: variable 2 file = D:/Protein_go_brrr/autodock/final/mut_Y35F/heme_Fe/dock.dlg.pdb filetype = ascii offset = 6 stride = 12
AVSFLD: variable 3 file = D:/Protein_go_brrr/autodock/final/mut_Y35F/heme_Fe/dock.dlg.pdb filetype = ascii offset = 7 stride = 12
AVSFLD: variable 4 file = D:/Protein_go_brrr/autodock/final/mut_Y35F/heme_Fe/dock.dlg.pdb filetype = ascii offset = 8 stride = 12
AVSFLD: variable 5 file = D:/Protein_go_brrr/autodock/final/mut_Y35F/heme_Fe/dock.dlg.pdb filetype = ascii offset = 9 stride = 12
AVSFLD: variable 6 file = D:/Protein_go_brrr/autodock/final/mut_Y35F/heme_Fe/dock.dlg.pdb filetype = ascii offset = 10 stride = 12
AVSFLD: variable 7 file = D:/Protein_go_brrr/autodock/final/mut_Y35F/heme_Fe/dock.dlg.pdb filetype = ascii offset = 11 stride = 12
AVSFLD: # end of file

>>> Closing the docking parameter file (DPF)...
This docking finished at:			8:08 49" a.m., 10/06/2025


________________________________________________________________________________

D:/autodockScripts/autodock4.exe: Successful Completion on "ACER"

Real= 20h 11m 39.46s,  CPU= 3m 43.30s,  System= 2m 26.64s
________________________________________________________________________________

