          AutoDock 4.2 Release 4.2.6   
         (C) 1989-2012 The Scripps Research Institute
        AutoDock comes with ABSOLUTELY NO WARRANTY.
        AutoDock is free software, and you are welcome
        to redistribute it under certain conditions;
        for details type 'autodock4 -C'

                     main.cc  $Revision: 1.213 $

                   Compiled on Jul 18 2014 at 15:34:58


This file was created at:			1:22 32" p.m., 10/17/2025
                   on host:		"ACER"
Current Working Directory = "D:\Protein_go_brrr\autodock\final\mut_D99N\heme_Co"

      ________________________________________________________________

                   SETTING UP DEFAULT PARAMETER LIBRARY
      ________________________________________________________________


Random number generator was seeded with values 50500, 1760700152.
Docking parameter file (DPF) used for this docking:		D:/Protein_go_brrr/autodock/final/mut_D99N/heme_Co/dock.dpf
DPF> autodock_parameter_version 4.2       # used by autodock to validate parameter set

	Autodock parameter version 4.2.
DPF> outlev 1                             # diagnostic output level

Output Level = 1  ADT-COMPATIBLE OUTPUT DURING DOCKING.
DPF> intelec                              # calculate internal electrostatics

Electrostatic energies will be calculated for all non-bonds between moving atoms.
DPF> seed pid time                        # seeds for random generator

Random number generator was seeded with values 50500, 1760700152.
DPF> ligand_types A C OA N Fe HD          # atoms types in ligand

DPF> fld mut_D99N_m0.maps.fld             # grid_data_file

Opening Grid Map Dimensions file:		mut_D99N_m0.maps.fld
Grid Point Spacing =				0.703 Angstroms

Even Number of User-specified Grid Points =	126 x-points
						126 y-points
						126 z-points

Coordinates of Central Grid Point of Maps =	(-0.119, -0.072, -0.886)
Macromolecule file used to create Grid Maps =	mut_D99N_m0.pdbqt
Grid Parameter file used to create Grid Maps =	D:/Protein_go_brrr/autodock/final/mut_D99N/heme_Co/grid.gpf
Minimum coordinates in grid = (-44.408, -44.361, -45.175)
Maximum coordinates in grid = (44.170, 44.217, 43.403)

DPF> map mut_D99N_m0.A.map                # atom-specific affinity map

DPF> map mut_D99N_m0.C.map                # atom-specific affinity map

DPF> map mut_D99N_m0.OA.map               # atom-specific affinity map

DPF> map mut_D99N_m0.N.map                # atom-specific affinity map

DPF> map mut_D99N_m0.Fe.map               # atom-specific affinity map

DPF> map mut_D99N_m0.HD.map               # atom-specific affinity map

DPF> elecmap mut_D99N_m0.e.map            # electrostatics map

DPF> desolvmap mut_D99N_m0.d.map          # desolvation map

DPF> move heme_Co_opt.pdbqt               # small molecule

1,4-interactions will be _ignored_ in the non-bonded internal energy calculation.

Ligand PDBQT file = "heme_Co_opt.pdbqt"

INPUT LIGAND PDBQT FILE:
________________________

INPUT-LIGAND-PDBQT: REMARK  12 active torsions:
INPUT-LIGAND-PDBQT: REMARK  status: ('A' for Active; 'I' for Inactive)
INPUT-LIGAND-PDBQT: REMARK    1  A    between atoms: C_6  and  C_10 
INPUT-LIGAND-PDBQT: REMARK    2  A    between atoms: C_10  and  C_11 
INPUT-LIGAND-PDBQT: REMARK    3  A    between atoms: C_11  and  C_12 
INPUT-LIGAND-PDBQT: REMARK    4  A    between atoms: C_12  and  O_14 
INPUT-LIGAND-PDBQT: REMARK    5  A    between atoms: C_17  and  C_20 
INPUT-LIGAND-PDBQT: REMARK    6  A    between atoms: C_24  and  C_27 
INPUT-LIGAND-PDBQT: REMARK    7  A    between atoms: C_31  and  C_34 
INPUT-LIGAND-PDBQT: REMARK    8  A    between atoms: C_34  and  C_35 
INPUT-LIGAND-PDBQT: REMARK    9  A    between atoms: C_35  and  C_36 
INPUT-LIGAND-PDBQT: REMARK   10  A    between atoms: C_36  and  O_38 
INPUT-LIGAND-PDBQT: REMARK   11  A    between atoms: FE_43  and  C_44 
INPUT-LIGAND-PDBQT: REMARK   12  A    between atoms: C_44  and  O_45 
INPUT-LIGAND-PDBQT: ROOT
INPUT-LIGAND-PDBQT: ATOM      1  C   UNL d   1       6.846  35.483  -1.586  0.00  0.00     0.064 A 
INPUT-LIGAND-PDBQT: ATOM      2  C   UNL d   1       8.105  32.823   2.149  0.00  0.00     0.064 C 
INPUT-LIGAND-PDBQT: ATOM      3  C   UNL d   1      12.720  33.414   1.062  0.00  0.00     0.064 A 
INPUT-LIGAND-PDBQT: ATOM      4  C   UNL d   1      11.472  36.449  -2.529  0.00  0.00     0.064 A 
INPUT-LIGAND-PDBQT: ATOM      5  C   UNL d   1       6.850  34.683  -0.507  0.00  0.00     0.066 A 
INPUT-LIGAND-PDBQT: ATOM      6  C   UNL d   1       5.664  34.330   0.166  0.00  0.00    -0.021 A 
INPUT-LIGAND-PDBQT: ATOM      7  C   UNL d   1       6.037  33.577   1.262  0.00  0.00    -0.025 A 
INPUT-LIGAND-PDBQT: ATOM      8  C   UNL d   1       7.432  33.489   1.202  0.00  0.00     0.066 A 
INPUT-LIGAND-PDBQT: ATOM      9  C   UNL d   1       5.127  32.958   2.334  0.00  0.00     0.051 C 
INPUT-LIGAND-PDBQT: ATOM     10  C   UNL d   1       9.537  32.657   2.156  0.00  0.00     0.066 A 
INPUT-LIGAND-PDBQT: ATOM     11  C   UNL d   1      10.289  31.854   3.041  0.00  0.00    -0.021 A 
INPUT-LIGAND-PDBQT: ATOM     12  C   UNL d   1      11.631  32.042   2.699  0.00  0.00     0.000 A 
INPUT-LIGAND-PDBQT: ATOM     13  C   UNL d   1      11.598  32.933   1.626  0.00  0.00     0.070 A 
INPUT-LIGAND-PDBQT: ATOM     14  C   UNL d   1       9.736  30.905   4.073  0.00  0.00     0.052 C 
INPUT-LIGAND-PDBQT: ATOM     15  C   UNL d   1      12.870  34.375  -0.013  0.00  0.00     0.066 A 
INPUT-LIGAND-PDBQT: ATOM     16  C   UNL d   1      14.059  34.940  -0.452  0.00  0.00    -0.021 A 
INPUT-LIGAND-PDBQT: ATOM     17  C   UNL d   1      13.704  35.818  -1.486  0.00  0.00     0.000 A 
INPUT-LIGAND-PDBQT: ATOM     18  C   UNL d   1      12.323  35.706  -1.608  0.00  0.00     0.070 A 
INPUT-LIGAND-PDBQT: ATOM     19  C   UNL d   1      15.432  34.638   0.106  0.00  0.00     0.052 C 
INPUT-LIGAND-PDBQT: ATOM     20  C   UNL d   1      10.120  36.421  -2.607  0.00  0.00     0.066 A 
INPUT-LIGAND-PDBQT: ATOM     21  C   UNL d   1       9.411  37.209  -3.511  0.00  0.00    -0.025 A 
INPUT-LIGAND-PDBQT: ATOM     22  C   UNL d   1       8.076  36.930  -3.282  0.00  0.00    -0.021 A 
INPUT-LIGAND-PDBQT: ATOM     23  C   UNL d   1       8.036  35.987  -2.233  0.00  0.00     0.066 A 
INPUT-LIGAND-PDBQT: ATOM     24  C   UNL d   1       9.976  38.195  -4.530  0.00  0.00     0.051 C 
INPUT-LIGAND-PDBQT: ATOM     25  N   UNL d   1       7.962  34.160   0.113  0.00  0.00    -0.248 N 
INPUT-LIGAND-PDBQT: ATOM     26  N   UNL d   1      10.329  33.260   1.263  0.00  0.00    -0.248 N 
INPUT-LIGAND-PDBQT: ATOM     27  N   UNL d   1      11.857  34.861  -0.695  0.00  0.00    -0.248 N 
INPUT-LIGAND-PDBQT: ATOM     28  N   UNL d   1       9.271  35.678  -1.820  0.00  0.00    -0.248 N 
INPUT-LIGAND-PDBQT: ATOM     29 FE   UNL d   1      10.024  34.533  -0.318  0.00  0.00     0.000 Fe
INPUT-LIGAND-PDBQT: ENDROOT
INPUT-LIGAND-PDBQT: BRANCH   6  30
INPUT-LIGAND-PDBQT: ATOM     30  C   UNL d   1       4.249  34.772  -0.192  0.00  0.00     0.052 C 
INPUT-LIGAND-PDBQT: BRANCH  30  31
INPUT-LIGAND-PDBQT: ATOM     31  C   UNL d   1       3.660  33.865  -1.272  0.00  0.00     0.115 C 
INPUT-LIGAND-PDBQT: BRANCH  31  32
INPUT-LIGAND-PDBQT: ATOM     32  C   UNL d   1       2.237  34.239  -1.627  0.00  0.00     0.139 C 
INPUT-LIGAND-PDBQT: ATOM     33  O   UNL d   1       1.374  33.374  -1.641  0.00  0.00    -0.650 OA
INPUT-LIGAND-PDBQT: BRANCH  32  34
INPUT-LIGAND-PDBQT: ATOM     34  O   UNL d   1       1.874  35.517  -1.885  0.00  0.00    -0.776 OA
INPUT-LIGAND-PDBQT: ATOM     35  H   UNL d   1       2.467  36.277  -1.807  0.00  0.00     0.167 HD
INPUT-LIGAND-PDBQT: ENDBRANCH  32  34
INPUT-LIGAND-PDBQT: ENDBRANCH  31  32
INPUT-LIGAND-PDBQT: ENDBRANCH  30  31
INPUT-LIGAND-PDBQT: ENDBRANCH   6  30
INPUT-LIGAND-PDBQT: BRANCH  29  36
INPUT-LIGAND-PDBQT: ATOM     36  C   UNL d   1       9.893  36.149   1.011  0.00  0.00     0.190 C 
INPUT-LIGAND-PDBQT: BRANCH  36  37
INPUT-LIGAND-PDBQT: ATOM     37  O   UNL d   1      10.463  37.389   1.317  0.00  0.00    -0.399 OA
INPUT-LIGAND-PDBQT: ATOM     38  H   UNL d   1      10.901  37.258   2.204  0.00  0.00     0.209 HD
INPUT-LIGAND-PDBQT: ENDBRANCH  36  37
INPUT-LIGAND-PDBQT: ENDBRANCH  29  36
INPUT-LIGAND-PDBQT: BRANCH  22  39
INPUT-LIGAND-PDBQT: ATOM     39  C   UNL d   1       6.906  37.586  -3.991  0.00  0.00     0.052 C 
INPUT-LIGAND-PDBQT: BRANCH  39  40
INPUT-LIGAND-PDBQT: ATOM     40  C   UNL d   1       6.343  36.659  -5.081  0.00  0.00     0.115 C 
INPUT-LIGAND-PDBQT: BRANCH  40  41
INPUT-LIGAND-PDBQT: ATOM     41  C   UNL d   1       5.088  37.175  -5.753  0.00  0.00     0.139 C 
INPUT-LIGAND-PDBQT: ATOM     42  O   UNL d   1       4.969  37.063  -6.965  0.00  0.00    -0.650 OA
INPUT-LIGAND-PDBQT: BRANCH  41  43
INPUT-LIGAND-PDBQT: ATOM     43  O   UNL d   1       4.056  37.678  -5.040  0.00  0.00    -0.776 OA
INPUT-LIGAND-PDBQT: ATOM     44  H   UNL d   1       4.103  37.816  -4.085  0.00  0.00     0.167 HD
INPUT-LIGAND-PDBQT: ENDBRANCH  41  43
INPUT-LIGAND-PDBQT: ENDBRANCH  40  41
INPUT-LIGAND-PDBQT: ENDBRANCH  39  40
INPUT-LIGAND-PDBQT: ENDBRANCH  22  39
INPUT-LIGAND-PDBQT: BRANCH  12  45
INPUT-LIGAND-PDBQT: ATOM     45  C   UNL d   1      12.932  31.471   3.247  0.00  0.00     0.004 C 
INPUT-LIGAND-PDBQT: ATOM     46  C   UNL d   1      13.165  30.727   4.325  0.00  0.00     0.012 C 
INPUT-LIGAND-PDBQT: ENDBRANCH  12  45
INPUT-LIGAND-PDBQT: BRANCH  17  47
INPUT-LIGAND-PDBQT: ATOM     47  C   UNL d   1      14.559  36.745  -2.286  0.00  0.00     0.004 C 
INPUT-LIGAND-PDBQT: ATOM     48  C   UNL d   1      15.750  37.188  -1.876  0.00  0.00     0.012 C 
INPUT-LIGAND-PDBQT: ENDBRANCH  17  47
INPUT-LIGAND-PDBQT: TORSDOF 12
________________________________________________________________________________

Total charge on ligand                               =	-2.002 e
REMARK  12 active torsions:
REMARK  status: ('A' for Active; 'I' for Inactive)
REMARK    1  A    between atoms: C_6  and  C_10 
REMARK    2  A    between atoms: C_10  and  C_11 
REMARK    3  A    between atoms: C_11  and  C_12 
REMARK    4  A    between atoms: C_12  and  O_14 
REMARK    5  A    between atoms: C_17  and  C_20 
REMARK    6  A    between atoms: C_24  and  C_27 
REMARK    7  A    between atoms: C_31  and  C_34 
REMARK    8  A    between atoms: C_34  and  C_35 
REMARK    9  A    between atoms: C_35  and  C_36 
REMARK   10  A    between atoms: C_36  and  O_38 
REMARK   11  A    between atoms: FE_43  and  C_44 
REMARK   12  A    between atoms: C_44  and  O_45 


Number of Rotatable Bonds in Small Molecule =	12 torsions
Number of atoms in ligand:  48

Number of non-hydrogen atoms in ligand:  45

Number of vibrational degrees of freedom of ligand:  138


Number of torsional degrees of freedom = 12
Estimated loss of torsional free energy upon binding = +3.5796 kcal/mol


DPF> about 8.781 34.984 -0.736            # small molecule center

Small molecule center of rotation =	(+8.781, +34.984, -0.736)

DPF> tran0 random                         # initial coordinates/A or random

Initial translation =			(42.160, 29.016, 20.657) Angstroms
DPF> quaternion0 random                   # initial orientation

Each run will begin with a new, random initial orientation.
Initial quaternion,  (x,y,z,w) =	( -0.167, 0.473, -0.833, -0.233 ),
DPF> dihe0 random                         # initial dihedrals (relative) or random

DPF> torsdof 12                            # torsional degrees of freedom

Number of torsional degrees of freedom = 12
Free energy coefficient for torsional degrees of freedom = 0.2983, the factory default value.

Estimated loss of torsional free energy upon binding = +3.5796 kcal/mol

DPF> rmstol 2.0                           # cluster_tolerance/A

Maximum RMS tolerance for conformational cluster analysis = 2.00 Angstroms
DPF> extnrg 1000.0                        # external grid energy

External grid energy (beyond grid map walls) = 1000.00

DPF> e0max 0.0 10000                      # max initial energy; max number of retries

Using user-specified maximum number of retries for simanneal initialization, 10000 retries.
If the simanneal initial energy is greater than e0max, 0.000,
then a new, random initial state will be created.

DPF> ga_pop_size 150                      # number of individuals in population

A population of 150 individuals will be used
DPF> ga_num_evals 25000000                # maximum number of energy evaluations

There will be at most 25000000 function evaluations used.
DPF> ga_num_generations 27000             # maximum number of generations

The GA will run for at most 27000 generations.
DPF> ga_elitism 1                         # number of top individuals to survive to next generation

The 1 best will be preserved each GA generation.
DPF> ga_mutation_rate 0.02                # rate of gene mutation

The mutation rate is 0.020000.
DPF> ga_crossover_rate 0.8                # rate of crossover

The crossover rate is 0.800000.
DPF> ga_window_size 10                    # 

The GA's selection window is 10 generations.
DPF> ga_cauchy_alpha 0.0                  # Alpha parameter of Cauchy distribution

The alpha parameter (for the Cauchy distribution) is being set to 0.000000.
DPF> ga_cauchy_beta 1.0                   # Beta parameter Cauchy distribution

The beta parameter (for the Cauchy distribution) is being set to 1.000000.
DPF> set_ga                               # set the above parameters for GA or LGA

DPF> sw_max_its 300                       # iterations of Solis & Wets local search

Solis & Wets algorithms will perform at most 300 iterations.
DPF> sw_max_succ 4                        # consecutive successes before changing rho

Solis & Wets algorithms expand rho every 4 in a row successes.
DPF> sw_max_fail 4                        # consecutive failures before changing rho

Solis & Wets algorithms contract rho every 4 in a row failures.
DPF> sw_rho 1.0                           # size of local search space to sample

rho is set to 1.000000.
DPF> sw_lb_rho 0.01                       # lower bound on rho

rho will never get smaller than 0.010000.
DPF> ls_search_freq 0.06                  # probability of performing local search on individual

Local search will be performed with frequency 0.060000.
DPF> set_psw1                             # set the above pseudo-Solis & Wets parameters

Creating a new Local Search object using the pseudo-Solis-Wets algorithm (pSW1) with the current settings.

DPF> unbound_model bound                  # state of unbound ligand

DPF> ga_run 100                           # do this many hybrid GA-LS runs

centering ligand on specified point: 8.781 34.984 -0.736
Furthest true ligand atom from "about" center is 7.934 Angstroms (maxrad).
Number of requested GA dockings = 100 runs
Unbound model to be used is 'same as bound' [AutoDock 4.2 default].

	BEGINNING GENETIC ALGORITHM DOCKING 1 of 100
Run: 1 Seed: 607660641 1946310496 [ Run 1 of 100 GA/GALS ]
Beginning LAMARCKIAN GENETIC ALGORITHM (LGA), with a maximum of 25000000 energy evaluations.

Final-Value: -8.811


	FINAL GENETIC ALGORITHM DOCKED STATE
	_______________________________________________


Detailed state:  trans -11.812 -6.032 6.134 quatxyzw 0.836923 -0.143641 -0.367218 -0.379575 center 8.781 34.984 -0.736 ntor 12 40.3636 117.7027 -107.9032 121.0161 83.1957 116.7237 39.7998 12.4986 -179.3774 -109.8363 -174.0187 110.6372
State:	-11.812  -6.032   6.134   0.905 -0.155 -0.397 -135.385     40.36  117.70 -107.90  121.02   83.20  116.72   39.80   12.50 -179.38 -109.84 -174.02  110.64

DOCKED: MODEL        1
DOCKED: USER    Run = 1
DOCKED: USER    DPF = D:/Protein_go_brrr/autodock/final/mut_D99N/heme_Co/dock.dpf
DOCKED: USER  
DOCKED: USER    Estimated Free Energy of Binding    =   -2.08 kcal/mol  [=(1)+(2)+(3)-(4)]
DOCKED: USER    Estimated Inhibition Constant, Ki   =   29.94 mM (millimolar)  [Temperature = 298.15 K]
DOCKED: USER    
DOCKED: USER    (1) Final Intermolecular Energy     =   -5.66 kcal/mol
DOCKED: USER        vdW + Hbond + desolv Energy     =   -5.18 kcal/mol
DOCKED: USER        Electrostatic Energy            =   -0.48 kcal/mol
DOCKED: USER    (2) Final Total Internal Energy     =   -3.15 kcal/mol
DOCKED: USER    (3) Torsional Free Energy           =   +3.58 kcal/mol
DOCKED: USER    (4) Unbound System's Energy  [=(2)] =   -3.15 kcal/mol
DOCKED: USER    
DOCKED: USER    
DOCKED: USER    NEWDPF move heme_Co_opt.pdbqt
DOCKED: USER    NEWDPF about 8.781000 34.984000 -0.736000
DOCKED: USER    NEWDPF tran0 -11.812245 -6.032492 6.134444
DOCKED: USER    NEWDPF quaternion0 0.836923 -0.143641 -0.367218 -0.379575
DOCKED: USER    NEWDPF axisangle0 0.904625 -0.155261 -0.396923 -135.385273
DOCKED: USER    NEWDPF quat0 0.904625 -0.155261 -0.396923 -135.385273
DOCKED: USER    NEWDPF dihe0 40.36 117.70 -107.90 121.02 83.20 116.72 39.80 12.50 -179.38 -109.84 -174.02 110.64 
DOCKED: USER  keepresnum = 1 
DOCKED: USER  
DOCKED: REMARK  12 active torsions:
DOCKED: REMARK  status: ('A' for Active; 'I' for Inactive)
DOCKED: REMARK    1  A    between atoms: C_6  and  C_10 
DOCKED: REMARK    2  A    between atoms: C_10  and  C_11 
DOCKED: REMARK    3  A    between atoms: C_11  and  C_12 
DOCKED: REMARK    4  A    between atoms: C_12  and  O_14 
DOCKED: REMARK    5  A    between atoms: C_17  and  C_20 
DOCKED: REMARK    6  A    between atoms: C_24  and  C_27 
DOCKED: REMARK    7  A    between atoms: C_31  and  C_34 
DOCKED: REMARK    8  A    between atoms: C_34  and  C_35 
DOCKED: REMARK    9  A    between atoms: C_35  and  C_36 
DOCKED: REMARK   10  A    between atoms: C_36  and  O_38 
DOCKED: REMARK   11  A    between atoms: FE_43  and  C_44 
DOCKED: REMARK   12  A    between atoms: C_44  and  O_45 
DOCKED: USER                              x       y       z     vdW  Elec       q    Type
DOCKED: USER                           _______ _______ _______ _____ _____    ______ ____
DOCKED: ROOT
DOCKED: ATOM      1  C   UNL d   1     -12.511  -4.912   7.858 -0.10 +0.03    +0.064 A 
DOCKED: ATOM      2  C   UNL d   1     -14.449  -5.761   3.600 -0.08 +0.05    +0.064 C 
DOCKED: ATOM      3  C   UNL d   1     -10.460  -7.978   2.185 -0.14 +0.00    +0.064 A 
DOCKED: ATOM      4  C   UNL d   1      -8.604  -7.462   6.652 -0.29 +0.02    +0.064 A 
DOCKED: ATOM      5  C   UNL d   1     -13.320  -4.949   6.787 -0.10 +0.05    +0.066 A 
DOCKED: ATOM      6  C   UNL d   1     -14.638  -4.453   6.827 -0.07 -0.01    -0.021 A 
DOCKED: ATOM      7  C   UNL d   1     -15.203  -4.723   5.596 -0.06 -0.02    -0.025 A 
DOCKED: ATOM      8  C   UNL d   1     -14.202  -5.356   4.852 +0.01 +0.07    +0.066 A 
DOCKED: ATOM      9  C   UNL d   1     -16.629  -4.403   5.124 -0.03 +0.03    +0.051 C 
DOCKED: ATOM     10  C   UNL d   1     -13.474  -6.397   2.750 -0.09 +0.04    +0.066 A 
DOCKED: ATOM     11  C   UNL d   1     -13.627  -6.718   1.383 -0.06 -0.01    -0.021 A 
DOCKED: ATOM     12  C   UNL d   1     -12.447  -7.359   0.995 -0.07 +0.00    +0.000 A 
DOCKED: ATOM     13  C   UNL d   1     -11.659  -7.371   2.146 -0.10 +0.02    +0.070 A 
DOCKED: ATOM     14  C   UNL d   1     -14.791  -6.341   0.503 -0.03 +0.01    +0.052 C 
DOCKED: ATOM     15  C   UNL d   1      -9.541  -8.130   3.296 -0.20 +0.01    +0.066 A 
DOCKED: ATOM     16  C   UNL d   1      -8.383  -8.894   3.308 -0.25 -0.00    -0.021 A 
DOCKED: ATOM     17  C   UNL d   1      -7.845  -8.750   4.595 -0.34 +0.00    +0.000 A 
DOCKED: ATOM     18  C   UNL d   1      -8.713  -7.894   5.264 -0.26 +0.01    +0.070 A 
DOCKED: ATOM     19  C   UNL d   1      -7.852  -9.700   2.143 -0.21 -0.01    +0.052 C 
DOCKED: ATOM     20  C   UNL d   1      -9.480  -6.700   7.349 -0.26 +0.02    +0.066 A 
DOCKED: ATOM     21  C   UNL d   1      -9.285  -6.381   8.691 -0.29 -0.01    -0.025 A 
DOCKED: ATOM     22  C   UNL d   1     -10.381  -5.622   9.058 -0.20 -0.00    -0.021 A 
DOCKED: ATOM     23  C   UNL d   1     -11.204  -5.525   7.916 -0.16 +0.02    +0.066 A 
DOCKED: ATOM     24  C   UNL d   1      -8.120  -6.796   9.587 -0.23 +0.01    +0.051 C 
DOCKED: ATOM     25  N   UNL d   1     -13.023  -5.505   5.563 -0.05 -0.23    -0.248 N 
DOCKED: ATOM     26  N   UNL d   1     -12.258  -6.739   3.191 -0.06 -0.13    -0.248 N 
DOCKED: ATOM     27  N   UNL d   1      -9.727  -7.569   4.470 -0.12 -0.06    -0.248 N 
DOCKED: ATOM     28  N   UNL d   1     -10.664  -6.178   6.880 -0.14 -0.09    -0.248 N 
DOCKED: ATOM     29 FE   UNL d   1     -11.276  -6.597   4.987 -0.05 +0.00    +0.000 Fe
DOCKED: ENDROOT
DOCKED: BRANCH   6  30
DOCKED: ATOM     30  C   UNL d   1     -15.337  -3.826   8.028 -0.02 +0.02    +0.052 C 
DOCKED: BRANCH  30  31
DOCKED: ATOM     31  C   UNL d   1     -16.049  -4.895   8.855 +0.00 +0.03    +0.115 C 
DOCKED: BRANCH  31  32
DOCKED: ATOM     32  C   UNL d   1     -15.904  -6.278   8.257 +0.00 +0.03    +0.139 C 
DOCKED: ATOM     33  O   UNL d   1     -16.731  -6.674   7.449 +0.01 -0.12    -0.650 OA
DOCKED: BRANCH  32  34
DOCKED: ATOM     34  O   UNL d   1     -14.855  -7.081   8.553 +0.01 -0.15    -0.776 OA
DOCKED: ATOM     35  H   UNL d   1     -14.436  -7.130   9.423 +0.00 +0.03    +0.167 HD
DOCKED: ENDBRANCH  32  34
DOCKED: ENDBRANCH  31  32
DOCKED: ENDBRANCH  30  31
DOCKED: ENDBRANCH   6  30
DOCKED: BRANCH  29  36
DOCKED: ATOM     36  C   UNL d   1     -12.266  -8.317   5.663 -0.04 +0.04    +0.190 C 
DOCKED: BRANCH  36  37
DOCKED: ATOM     37  O   UNL d   1     -13.118  -8.790   6.665 +0.00 -0.07    -0.399 OA
DOCKED: ATOM     38  H   UNL d   1     -13.356  -7.983   7.202 +0.01 +0.04    +0.209 HD
DOCKED: ENDBRANCH  36  37
DOCKED: ENDBRANCH  29  36
DOCKED: BRANCH  22  39
DOCKED: ATOM     39  C   UNL d   1     -10.649  -5.079  10.449 -0.15 +0.01    +0.052 C 
DOCKED: BRANCH  39  40
DOCKED: ATOM     40  C   UNL d   1     -12.160  -5.015  10.725 -0.05 +0.02    +0.115 C 
DOCKED: BRANCH  40  41
DOCKED: ATOM     41  C   UNL d   1     -12.847  -6.364  10.756 -0.02 +0.02    +0.139 C 
DOCKED: ATOM     42  O   UNL d   1     -13.838  -6.515  11.457 +0.00 -0.09    -0.650 OA
DOCKED: BRANCH  41  43
DOCKED: ATOM     43  O   UNL d   1     -12.447  -7.383   9.963 +0.03 -0.13    -0.776 OA
DOCKED: ATOM     44  H   UNL d   1     -12.915  -7.625   9.153 +0.01 +0.03    +0.167 HD
DOCKED: ENDBRANCH  41  43
DOCKED: ENDBRANCH  40  41
DOCKED: ENDBRANCH  39  40
DOCKED: ENDBRANCH  22  39
DOCKED: BRANCH  12  45
DOCKED: ATOM     45  C   UNL d   1     -11.969  -7.942  -0.328 -0.07 -0.00    +0.004 C 
DOCKED: ATOM     46  C   UNL d   1     -10.992  -7.554  -1.142 -0.16 -0.00    +0.012 C 
DOCKED: ENDBRANCH  12  45
DOCKED: BRANCH  17  47
DOCKED: ATOM     47  C   UNL d   1      -6.642  -9.392   5.203 -0.32 +0.00    +0.004 C 
DOCKED: ATOM     48  C   UNL d   1      -5.402  -9.222   4.738 -0.41 -0.00    +0.012 C 
DOCKED: ENDBRANCH  17  47
DOCKED: TORSDOF 12
DOCKED: TER
DOCKED: ENDMDL
________________________________________________________________________________


	BEGINNING GENETIC ALGORITHM DOCKING 2 of 100
Run: 2 Seed: 2098762816 1778952405 [ Run 2 of 100 GA/GALS ]
Beginning LAMARCKIAN GENETIC ALGORITHM (LGA), with a maximum of 25000000 energy evaluations.

Final-Value: -8.674


	FINAL GENETIC ALGORITHM DOCKED STATE
	_______________________________________________


Detailed state:  trans 8.431 13.189 1.031 quatxyzw -0.504376 -0.325085 -0.509243 -0.616925 center 8.781 34.984 -0.736 ntor 12 28.0488 104.6534 -11.5086 93.8954 132.8709 157.5965 85.5999 90.2616 15.7219 -107.6710 -37.8908 -15.2435
State:	  8.431  13.189   1.031  -0.641 -0.413 -0.647 -103.816     28.05  104.65  -11.51   93.90  132.87  157.60   85.60   90.26   15.72 -107.67  -37.89  -15.24

DOCKED: MODEL        2
DOCKED: USER    Run = 2
DOCKED: USER    DPF = D:/Protein_go_brrr/autodock/final/mut_D99N/heme_Co/dock.dpf
DOCKED: USER  
DOCKED: USER    Estimated Free Energy of Binding    =   -3.40 kcal/mol  [=(1)+(2)+(3)-(4)]
DOCKED: USER    Estimated Inhibition Constant, Ki   =    3.23 mM (millimolar)  [Temperature = 298.15 K]
DOCKED: USER    
DOCKED: USER    (1) Final Intermolecular Energy     =   -6.98 kcal/mol
DOCKED: USER        vdW + Hbond + desolv Energy     =   -5.98 kcal/mol
DOCKED: USER        Electrostatic Energy            =   -0.99 kcal/mol
DOCKED: USER    (2) Final Total Internal Energy     =   -1.70 kcal/mol
DOCKED: USER    (3) Torsional Free Energy           =   +3.58 kcal/mol
DOCKED: USER    (4) Unbound System's Energy  [=(2)] =   -1.70 kcal/mol
DOCKED: USER    
DOCKED: USER    
DOCKED: USER    NEWDPF move heme_Co_opt.pdbqt
DOCKED: USER    NEWDPF about 8.781000 34.984000 -0.736000
DOCKED: USER    NEWDPF tran0 8.431145 13.188667 1.031483
DOCKED: USER    NEWDPF quaternion0 -0.504376 -0.325085 -0.509243 -0.616925
DOCKED: USER    NEWDPF axisangle0 -0.640866 -0.413057 -0.647050 -103.816095
DOCKED: USER    NEWDPF quat0 -0.640866 -0.413057 -0.647050 -103.816095
DOCKED: USER    NEWDPF dihe0 28.05 104.65 -11.51 93.90 132.87 157.60 85.60 90.26 15.72 -107.67 -37.89 -15.24 
DOCKED: USER  keepresnum = 1 
DOCKED: USER  
DOCKED: REMARK  12 active torsions:
DOCKED: REMARK  status: ('A' for Active; 'I' for Inactive)
DOCKED: REMARK    1  A    between atoms: C_6  and  C_10 
DOCKED: REMARK    2  A    between atoms: C_10  and  C_11 
DOCKED: REMARK    3  A    between atoms: C_11  and  C_12 
DOCKED: REMARK    4  A    between atoms: C_12  and  O_14 
DOCKED: REMARK    5  A    between atoms: C_17  and  C_20 
DOCKED: REMARK    6  A    between atoms: C_24  and  C_27 
DOCKED: REMARK    7  A    between atoms: C_31  and  C_34 
DOCKED: REMARK    8  A    between atoms: C_34  and  C_35 
DOCKED: REMARK    9  A    between atoms: C_35  and  C_36 
DOCKED: REMARK   10  A    between atoms: C_36  and  O_38 
DOCKED: REMARK   11  A    between atoms: FE_43  and  C_44 
DOCKED: REMARK   12  A    between atoms: C_44  and  O_45 
DOCKED: USER                              x       y       z     vdW  Elec       q    Type
DOCKED: USER                           _______ _______ _______ _____ _____    ______ ____
DOCKED: ROOT
DOCKED: ATOM      1  C   UNL d   1       8.290  12.946  -1.122 -0.11 +0.01    +0.064 A 
DOCKED: ATOM      2  C   UNL d   1       6.507  16.202   1.850 -0.19 +0.00    +0.064 C 
DOCKED: ATOM      3  C   UNL d   1       8.196  13.763   5.595 -0.17 -0.01    +0.064 A 
DOCKED: ATOM      4  C   UNL d   1      10.357  10.631   2.565 -0.12 +0.00    +0.064 A 
DOCKED: ATOM      5  C   UNL d   1       7.648  13.995  -0.583 -0.13 +0.01    +0.066 A 
DOCKED: ATOM      6  C   UNL d   1       7.066  15.003  -1.377 -0.09 -0.00    -0.021 A 
DOCKED: ATOM      7  C   UNL d   1       6.570  15.957  -0.510 -0.11 -0.00    -0.025 A 
DOCKED: ATOM      8  C   UNL d   1       6.856  15.483   0.775 -0.16 +0.00    +0.066 A 
DOCKED: ATOM      9  C   UNL d   1       5.853  17.269  -0.862 -0.08 +0.00    +0.051 C 
DOCKED: ATOM     10  C   UNL d   1       6.736  15.783   3.210 -0.21 -0.00    +0.066 A 
DOCKED: ATOM     11  C   UNL d   1       6.270  16.423   4.380 -0.21 +0.00    -0.021 A 
DOCKED: ATOM     12  C   UNL d   1       6.774  15.688   5.457 -0.22 -0.00    +0.000 A 
DOCKED: ATOM     13  C   UNL d   1       7.496  14.651   4.867 -0.19 -0.01    +0.070 A 
DOCKED: ATOM     14  C   UNL d   1       5.330  17.599   4.439 -0.16 +0.00    +0.052 C 
DOCKED: ATOM     15  C   UNL d   1       9.034  12.666   5.152 -0.10 -0.00    +0.066 A 
DOCKED: ATOM     16  C   UNL d   1       9.846  11.875   5.952 -0.14 -0.00    -0.021 A 
DOCKED: ATOM     17  C   UNL d   1      10.473  10.972   5.082 -0.12 +0.00    +0.000 A 
DOCKED: ATOM     18  C   UNL d   1       9.980  11.273   3.817 -0.08 +0.00    +0.070 A 
DOCKED: ATOM     19  C   UNL d   1       9.991  12.003   7.452 -0.14 +0.00    +0.052 C 
DOCKED: ATOM     20  C   UNL d   1       9.956  10.963   1.314 -0.12 +0.01    +0.066 A 
DOCKED: ATOM     21  C   UNL d   1      10.416  10.293   0.183 -0.09 -0.00    -0.025 A 
DOCKED: ATOM     22  C   UNL d   1       9.815  10.920  -0.893 -0.09 -0.00    -0.021 A 
DOCKED: ATOM     23  C   UNL d   1       9.021  11.958  -0.361 -0.06 +0.02    +0.066 A 
DOCKED: ATOM     24  C   UNL d   1      11.397   9.124   0.128 -0.05 +0.00    +0.051 C 
DOCKED: ATOM     25  N   UNL d   1       7.518  14.267   0.760 -0.11 -0.02    -0.248 N 
DOCKED: ATOM     26  N   UNL d   1       7.426  14.677   3.509 -0.17 +0.01    -0.248 N 
DOCKED: ATOM     27  N   UNL d   1       9.149  12.307   3.893 -0.06 -0.00    -0.248 N 
DOCKED: ATOM     28  N   UNL d   1       9.105  11.989   0.974 -0.10 -0.05    -0.248 N 
DOCKED: ATOM     29 FE   UNL d   1       8.383  13.226   2.417 -0.04 +0.00    +0.000 Fe
DOCKED: ENDROOT
DOCKED: BRANCH   6  30
DOCKED: ATOM     30  C   UNL d   1       7.066  15.075  -2.900 -0.05 +0.00    +0.052 C 
DOCKED: BRANCH  30  31
DOCKED: ATOM     31  C   UNL d   1       6.685  13.722  -3.502 -0.11 +0.03    +0.115 C 
DOCKED: BRANCH  31  32
DOCKED: ATOM     32  C   UNL d   1       6.991  13.642  -4.982 -0.02 +0.05    +0.139 C 
DOCKED: ATOM     33  O   UNL d   1       6.708  14.584  -5.706 +0.01 -0.09    -0.650 OA
DOCKED: BRANCH  32  34
DOCKED: ATOM     34  O   UNL d   1       7.615  12.573  -5.529 -0.32 -0.46    -0.776 OA
DOCKED: ATOM     35  H   UNL d   1       7.616  11.687  -5.141 +0.02 +0.16    +0.167 HD
DOCKED: ENDBRANCH  32  34
DOCKED: ENDBRANCH  31  32
DOCKED: ENDBRANCH  30  31
DOCKED: ENDBRANCH   6  30
DOCKED: BRANCH  29  36
DOCKED: ATOM     36  C   UNL d   1      10.042  14.488   2.198 -0.04 +0.01    +0.190 C 
DOCKED: BRANCH  36  37
DOCKED: ATOM     37  O   UNL d   1      10.529  15.570   1.458 +0.00 -0.01    -0.399 OA
DOCKED: ATOM     38  H   UNL d   1       9.864  15.701   0.726 +0.01 +0.01    +0.209 HD
DOCKED: ENDBRANCH  36  37
DOCKED: ENDBRANCH  29  36
DOCKED: BRANCH  22  39
DOCKED: ATOM     39  C   UNL d   1      10.047  10.577  -2.352 -0.06 +0.01    +0.052 C 
DOCKED: BRANCH  39  40
DOCKED: ATOM     40  C   UNL d   1       9.110   9.442  -2.799 -0.15 +0.03    +0.115 C 
DOCKED: BRANCH  40  41
DOCKED: ATOM     41  C   UNL d   1       7.643   9.814  -2.818 -0.24 +0.07    +0.139 C 
DOCKED: ATOM     42  O   UNL d   1       6.829   9.069  -2.291 -0.60 -0.35    -0.650 OA
DOCKED: BRANCH  41  43
DOCKED: ATOM     43  O   UNL d   1       7.215  10.991  -3.327 -0.18 -0.50    -0.776 OA
DOCKED: ATOM     44  H   UNL d   1       7.823  11.676  -3.634 +0.04 +0.08    +0.167 HD
DOCKED: ENDBRANCH  41  43
DOCKED: ENDBRANCH  40  41
DOCKED: ENDBRANCH  39  40
DOCKED: ENDBRANCH  22  39
DOCKED: BRANCH  12  45
DOCKED: ATOM     45  C   UNL d   1       6.641  15.836   6.967 -0.22 -0.00    +0.004 C 
DOCKED: ATOM     46  C   UNL d   1       5.699  15.401   7.799 -0.30 -0.00    +0.012 C 
DOCKED: ENDBRANCH  12  45
DOCKED: BRANCH  17  47
DOCKED: ATOM     47  C   UNL d   1      11.501   9.927   5.371 -0.08 +0.00    +0.004 C 
DOCKED: ATOM     48  C   UNL d   1      11.260   8.616   5.295 -0.10 +0.00    +0.012 C 
DOCKED: ENDBRANCH  17  47
DOCKED: TORSDOF 12
DOCKED: TER
DOCKED: ENDMDL
________________________________________________________________________________


	BEGINNING GENETIC ALGORITHM DOCKING 3 of 100
Run: 3 Seed: 1596038115 2031645834 [ Run 3 of 100 GA/GALS ]
Beginning LAMARCKIAN GENETIC ALGORITHM (LGA), with a maximum of 25000000 energy evaluations.

Final-Value: -10.328


	FINAL GENETIC ALGORITHM DOCKED STATE
	_______________________________________________


Detailed state:  trans -13.336 1.048 12.716 quatxyzw 0.459901 -0.562680 0.583647 -0.362268 center 8.781 34.984 -0.736 ntor 12 22.8251 106.4893 -148.8289 99.6368 134.8675 81.0380 173.4863 112.6963 68.6818 145.6172 -166.6713 174.1650
State:	-13.336   1.048  12.716   0.493 -0.604  0.626 -137.521     22.83  106.49 -148.83   99.64  134.87   81.04  173.49  112.70   68.68  145.62 -166.67  174.17

DOCKED: MODEL        3
DOCKED: USER    Run = 3
DOCKED: USER    DPF = D:/Protein_go_brrr/autodock/final/mut_D99N/heme_Co/dock.dpf
DOCKED: USER  
DOCKED: USER    Estimated Free Energy of Binding    =   -4.69 kcal/mol  [=(1)+(2)+(3)-(4)]
DOCKED: USER    Estimated Inhibition Constant, Ki   =  363.34 uM (micromolar)  [Temperature = 298.15 K]
DOCKED: USER    
DOCKED: USER    (1) Final Intermolecular Energy     =   -8.27 kcal/mol
DOCKED: USER        vdW + Hbond + desolv Energy     =   -6.30 kcal/mol
DOCKED: USER        Electrostatic Energy            =   -1.98 kcal/mol
DOCKED: USER    (2) Final Total Internal Energy     =   -2.06 kcal/mol
DOCKED: USER    (3) Torsional Free Energy           =   +3.58 kcal/mol
DOCKED: USER    (4) Unbound System's Energy  [=(2)] =   -2.06 kcal/mol
DOCKED: USER    
DOCKED: USER    
DOCKED: USER    NEWDPF move heme_Co_opt.pdbqt
DOCKED: USER    NEWDPF about 8.781000 34.984000 -0.736000
DOCKED: USER    NEWDPF tran0 -13.336148 1.047743 12.715734
DOCKED: USER    NEWDPF quaternion0 0.459901 -0.562680 0.583647 -0.362268
DOCKED: USER    NEWDPF axisangle0 0.493417 -0.603686 0.626181 -137.520893
DOCKED: USER    NEWDPF quat0 0.493417 -0.603686 0.626181 -137.520893
DOCKED: USER    NEWDPF dihe0 22.83 106.49 -148.83 99.64 134.87 81.04 173.49 112.70 68.68 145.62 -166.67 174.17 
DOCKED: USER  keepresnum = 1 
DOCKED: USER  
DOCKED: REMARK  12 active torsions:
DOCKED: REMARK  status: ('A' for Active; 'I' for Inactive)
DOCKED: REMARK    1  A    between atoms: C_6  and  C_10 
DOCKED: REMARK    2  A    between atoms: C_10  and  C_11 
DOCKED: REMARK    3  A    between atoms: C_11  and  C_12 
DOCKED: REMARK    4  A    between atoms: C_12  and  O_14 
DOCKED: REMARK    5  A    between atoms: C_17  and  C_20 
DOCKED: REMARK    6  A    between atoms: C_24  and  C_27 
DOCKED: REMARK    7  A    between atoms: C_31  and  C_34 
DOCKED: REMARK    8  A    between atoms: C_34  and  C_35 
DOCKED: REMARK    9  A    between atoms: C_35  and  C_36 
DOCKED: REMARK   10  A    between atoms: C_36  and  O_38 
DOCKED: REMARK   11  A    between atoms: FE_43  and  C_44 
DOCKED: REMARK   12  A    between atoms: C_44  and  O_45 
DOCKED: USER                              x       y       z     vdW  Elec       q    Type
DOCKED: USER                           _______ _______ _______ _____ _____    ______ ____
DOCKED: ROOT
DOCKED: ATOM      1  C   UNL d   1     -13.307   2.020  10.774 -0.21 +0.02    +0.064 A 
DOCKED: ATOM      2  C   UNL d   1     -10.719  -1.519  12.614 -0.33 +0.02    +0.064 C 
DOCKED: ATOM      3  C   UNL d   1     -12.866  -0.942  16.843 -0.09 +0.03    +0.064 A 
DOCKED: ATOM      4  C   UNL d   1     -15.792   2.415  14.884 -0.08 +0.05    +0.064 A 
DOCKED: ATOM      5  C   UNL d   1     -12.416   1.035  10.976 -0.23 +0.02    +0.066 A 
DOCKED: ATOM      6  C   UNL d   1     -11.624   0.518   9.933 -0.29 -0.01    -0.021 A 
DOCKED: ATOM      7  C   UNL d   1     -10.892  -0.524  10.467 -0.37 -0.01    -0.025 A 
DOCKED: ATOM      8  C   UNL d   1     -11.256  -0.587  11.816 -0.27 +0.02    +0.066 A 
DOCKED: ATOM      9  C   UNL d   1      -9.885  -1.434   9.747 -0.37 +0.01    +0.051 C 
DOCKED: ATOM     10  C   UNL d   1     -11.012  -1.644  14.020 -0.22 +0.02    +0.066 A 
DOCKED: ATOM     11  C   UNL d   1     -10.379  -2.508  14.941 -0.25 -0.01    -0.021 A 
DOCKED: ATOM     12  C   UNL d   1     -11.022  -2.316  16.166 -0.17 +0.00    +0.000 A 
DOCKED: ATOM     13  C   UNL d   1     -11.988  -1.343  15.907 -0.13 +0.03    +0.070 A 
DOCKED: ATOM     14  C   UNL d   1      -9.179  -3.378  14.667 -0.26 +0.01    +0.052 C 
DOCKED: ATOM     15  C   UNL d   1     -13.956   0.008  16.734 -0.06 +0.04    +0.066 A 
DOCKED: ATOM     16  C   UNL d   1     -14.918   0.271  17.699 -0.04 -0.01    -0.021 A 
DOCKED: ATOM     17  C   UNL d   1     -15.766   1.237  17.138 -0.05 +0.00    +0.000 A 
DOCKED: ATOM     18  C   UNL d   1     -15.242   1.500  15.877 -0.05 +0.05    +0.070 A 
DOCKED: ATOM     19  C   UNL d   1     -14.994  -0.379  19.062 -0.01 +0.01    +0.052 C 
DOCKED: ATOM     20  C   UNL d   1     -15.350   2.623  13.621 -0.12 +0.05    +0.066 A 
DOCKED: ATOM     21  C   UNL d   1     -15.985   3.503  12.747 -0.12 -0.01    -0.025 A 
DOCKED: ATOM     22  C   UNL d   1     -15.273   3.432  11.563 -0.15 -0.01    -0.021 A 
DOCKED: ATOM     23  C   UNL d   1     -14.238   2.496  11.772 -0.20 +0.03    +0.066 A 
DOCKED: ATOM     24  C   UNL d   1     -17.222   4.356  13.019 -0.06 +0.02    +0.051 C 
DOCKED: ATOM     25  N   UNL d   1     -12.194   0.371  12.161 -0.16 -0.11    -0.248 N 
DOCKED: ATOM     26  N   UNL d   1     -11.944  -0.898  14.623 -0.10 -0.11    -0.248 N 
DOCKED: ATOM     27  N   UNL d   1     -14.183   0.729  15.659 -0.03 -0.20    -0.248 N 
DOCKED: ATOM     28  N   UNL d   1     -14.283   2.002  13.015 -0.12 -0.18    -0.248 N 
DOCKED: ATOM     29 FE   UNL d   1     -13.249   0.563  14.012 -0.05 +0.00    +0.000 Fe
DOCKED: ENDROOT
DOCKED: BRANCH   6  30
DOCKED: ATOM     30  C   UNL d   1     -11.641   0.960   8.473 -0.28 +0.02    +0.052 C 
DOCKED: BRANCH  30  31
DOCKED: ATOM     31  C   UNL d   1     -12.783   0.280   7.719 -0.15 +0.05    +0.115 C 
DOCKED: BRANCH  31  32
DOCKED: ATOM     32  C   UNL d   1     -12.284  -0.689   6.668 -0.19 +0.13    +0.139 C 
DOCKED: ATOM     33  O   UNL d   1     -11.368  -1.450   6.939 -0.55 -0.58    -0.650 OA
DOCKED: BRANCH  32  34
DOCKED: ATOM     34  O   UNL d   1     -12.854  -0.775   5.444 -0.21 -1.41    -0.776 OA
DOCKED: ATOM     35  H   UNL d   1     -13.415  -0.090   5.055 +0.03 +0.22    +0.167 HD
DOCKED: ENDBRANCH  32  34
DOCKED: ENDBRANCH  31  32
DOCKED: ENDBRANCH  30  31
DOCKED: ENDBRANCH   6  30
DOCKED: BRANCH  29  36
DOCKED: ATOM     36  C   UNL d   1     -14.556  -0.909  13.291 -0.04 +0.06    +0.190 C 
DOCKED: BRANCH  36  37
DOCKED: ATOM     37  O   UNL d   1     -15.594  -1.127  12.380 +0.00 -0.09    -0.399 OA
DOCKED: ATOM     38  H   UNL d   1     -15.809  -0.224  12.014 +0.02 +0.05    +0.209 HD
DOCKED: ENDBRANCH  36  37
DOCKED: ENDBRANCH  29  36
DOCKED: BRANCH  22  39
DOCKED: ATOM     39  C   UNL d   1     -15.614   4.176  10.286 -0.09 +0.02    +0.052 C 
DOCKED: BRANCH  39  40
DOCKED: ATOM     40  C   UNL d   1     -16.663   3.403   9.471 -0.03 +0.02    +0.115 C 
DOCKED: BRANCH  40  41
DOCKED: ATOM     41  C   UNL d   1     -16.461   1.903   9.455 -0.01 +0.03    +0.139 C 
DOCKED: ATOM     42  O   UNL d   1     -16.090   1.359   8.424 +0.02 -0.15    -0.650 OA
DOCKED: BRANCH  41  43
DOCKED: ATOM     43  O   UNL d   1     -16.596   1.156  10.574 +0.03 -0.17    -0.776 OA
DOCKED: ATOM     44  H   UNL d   1     -16.024   0.401  10.766 +0.01 +0.04    +0.167 HD
DOCKED: ENDBRANCH  41  43
DOCKED: ENDBRANCH  40  41
DOCKED: ENDBRANCH  39  40
DOCKED: ENDBRANCH  22  39
DOCKED: BRANCH  12  45
DOCKED: ATOM     45  C   UNL d   1     -10.824  -2.922  17.549 -0.12 +0.00    +0.004 C 
DOCKED: ATOM     46  C   UNL d   1     -10.071  -2.521  18.571 -0.14 +0.00    +0.012 C 
DOCKED: ENDBRANCH  12  45
DOCKED: BRANCH  17  47
DOCKED: ATOM     47  C   UNL d   1     -17.010   1.852  17.690 -0.01 +0.00    +0.004 C 
DOCKED: ATOM     48  C   UNL d   1     -17.109   3.140  18.028 -0.01 +0.00    +0.012 C 
DOCKED: ENDBRANCH  17  47
DOCKED: TORSDOF 12
DOCKED: TER
DOCKED: ENDMDL
________________________________________________________________________________


	BEGINNING GENETIC ALGORITHM DOCKING 4 of 100
Run: 4 Seed: 1606363339 1517519752 [ Run 4 of 100 GA/GALS ]
Beginning LAMARCKIAN GENETIC ALGORITHM (LGA), with a maximum of 25000000 energy evaluations.

Final-Value: -8.746


	FINAL GENETIC ALGORITHM DOCKED STATE
	_______________________________________________


Detailed state:  trans 11.922 -15.174 5.749 quatxyzw 0.411920 0.204339 0.764220 -0.452256 center 8.781 34.984 -0.736 ntor 12 -94.9126 113.3023 -143.1519 98.9077 94.0554 75.9087 141.6742 113.6182 -101.5728 143.9985 -10.1890 -179.9828
State:	 11.922 -15.174   5.749   0.462  0.229  0.857 -126.223    -94.91  113.30 -143.15   98.91   94.06   75.91  141.67  113.62 -101.57  144.00  -10.19 -179.98

DOCKED: MODEL        4
DOCKED: USER    Run = 4
DOCKED: USER    DPF = D:/Protein_go_brrr/autodock/final/mut_D99N/heme_Co/dock.dpf
DOCKED: USER  
DOCKED: USER    Estimated Free Energy of Binding    =   -3.15 kcal/mol  [=(1)+(2)+(3)-(4)]
DOCKED: USER    Estimated Inhibition Constant, Ki   =    4.92 mM (millimolar)  [Temperature = 298.15 K]
DOCKED: USER    
DOCKED: USER    (1) Final Intermolecular Energy     =   -6.73 kcal/mol
DOCKED: USER        vdW + Hbond + desolv Energy     =   -5.93 kcal/mol
DOCKED: USER        Electrostatic Energy            =   -0.80 kcal/mol
DOCKED: USER    (2) Final Total Internal Energy     =   -2.02 kcal/mol
DOCKED: USER    (3) Torsional Free Energy           =   +3.58 kcal/mol
DOCKED: USER    (4) Unbound System's Energy  [=(2)] =   -2.02 kcal/mol
DOCKED: USER    
DOCKED: USER    
DOCKED: USER    NEWDPF move heme_Co_opt.pdbqt
DOCKED: USER    NEWDPF about 8.781000 34.984000 -0.736000
DOCKED: USER    NEWDPF tran0 11.921859 -15.174371 5.748606
DOCKED: USER    NEWDPF quaternion0 0.411920 0.204339 0.764220 -0.452256
DOCKED: USER    NEWDPF axisangle0 0.461852 0.229108 0.856856 -126.222909
DOCKED: USER    NEWDPF quat0 0.461852 0.229108 0.856856 -126.222909
DOCKED: USER    NEWDPF dihe0 -94.91 113.30 -143.15 98.91 94.06 75.91 141.67 113.62 -101.57 144.00 -10.19 -179.98 
DOCKED: USER  keepresnum = 1 
DOCKED: USER  
DOCKED: REMARK  12 active torsions:
DOCKED: REMARK  status: ('A' for Active; 'I' for Inactive)
DOCKED: REMARK    1  A    between atoms: C_6  and  C_10 
DOCKED: REMARK    2  A    between atoms: C_10  and  C_11 
DOCKED: REMARK    3  A    between atoms: C_11  and  C_12 
DOCKED: REMARK    4  A    between atoms: C_12  and  O_14 
DOCKED: REMARK    5  A    between atoms: C_17  and  C_20 
DOCKED: REMARK    6  A    between atoms: C_24  and  C_27 
DOCKED: REMARK    7  A    between atoms: C_31  and  C_34 
DOCKED: REMARK    8  A    between atoms: C_34  and  C_35 
DOCKED: REMARK    9  A    between atoms: C_35  and  C_36 
DOCKED: REMARK   10  A    between atoms: C_36  and  O_38 
DOCKED: REMARK   11  A    between atoms: FE_43  and  C_44 
DOCKED: REMARK   12  A    between atoms: C_44  and  O_45 
DOCKED: USER                              x       y       z     vdW  Elec       q    Type
DOCKED: USER                           _______ _______ _______ _____ _____    ______ ____
DOCKED: ROOT
DOCKED: ATOM      1  C   UNL d   1      11.455 -17.040   4.739 -0.14 +0.01    +0.064 A 
DOCKED: ATOM      2  C   UNL d   1      15.572 -14.833   5.633 -0.02 -0.04    +0.064 C 
DOCKED: ATOM      3  C   UNL d   1      13.216 -11.100   7.463 -0.03 -0.03    +0.064 A 
DOCKED: ATOM      4  C   UNL d   1       9.019 -13.497   6.914 -0.18 -0.02    +0.064 A 
DOCKED: ATOM      5  C   UNL d   1      12.752 -16.695   4.816 -0.14 +0.01    +0.066 A 
DOCKED: ATOM      6  C   UNL d   1      13.783 -17.576   4.435 -0.10 -0.00    -0.021 A 
DOCKED: ATOM      7  C   UNL d   1      14.975 -16.940   4.718 -0.09 +0.00    -0.025 A 
DOCKED: ATOM      8  C   UNL d   1      14.621 -15.692   5.243 -0.09 -0.03    +0.066 A 
DOCKED: ATOM      9  C   UNL d   1      16.401 -17.472   4.508 -0.04 -0.00    +0.051 C 
DOCKED: ATOM     10  C   UNL d   1      15.304 -13.518   6.160 -0.08 -0.04    +0.066 A 
DOCKED: ATOM     11  C   UNL d   1      16.255 -12.518   6.455 -0.12 +0.01    -0.021 A 
DOCKED: ATOM     12  C   UNL d   1      15.541 -11.439   6.984 -0.17 -0.00    +0.000 A 
DOCKED: ATOM     13  C   UNL d   1      14.209 -11.855   6.960 -0.17 -0.03    +0.070 A 
DOCKED: ATOM     14  C   UNL d   1      17.731 -12.574   6.155 -0.12 -0.01    +0.052 C 
DOCKED: ATOM     15  C   UNL d   1      11.800 -11.394   7.567 -0.20 -0.02    +0.066 A 
DOCKED: ATOM     16  C   UNL d   1      10.848 -10.632   8.230 -0.25 +0.01    -0.021 A 
DOCKED: ATOM     17  C   UNL d   1       9.636 -11.321   8.077 -0.24 -0.00    +0.000 A 
DOCKED: ATOM     18  C   UNL d   1       9.943 -12.444   7.315 -0.20 -0.02    +0.070 A 
DOCKED: ATOM     19  C   UNL d   1      11.115  -9.332   8.956 -0.27 -0.02    +0.052 C 
DOCKED: ATOM     20  C   UNL d   1       9.310 -14.640   6.249 -0.17 -0.01    +0.066 A 
DOCKED: ATOM     21  C   UNL d   1       8.340 -15.595   5.951 -0.14 +0.00    -0.025 A 
DOCKED: ATOM     22  C   UNL d   1       9.008 -16.614   5.298 -0.15 +0.00    -0.021 A 
DOCKED: ATOM     23  C   UNL d   1      10.366 -16.233   5.240 -0.13 +0.00    +0.066 A 
DOCKED: ATOM     24  C   UNL d   1       6.852 -15.548   6.290 -0.19 -0.01    +0.051 C 
DOCKED: ATOM     25  N   UNL d   1      13.250 -15.511   5.310 -0.11 +0.05    -0.248 N 
DOCKED: ATOM     26  N   UNL d   1      14.062 -13.089   6.410 -0.08 +0.13    -0.248 N 
DOCKED: ATOM     27  N   UNL d   1      11.246 -12.470   7.056 -0.11 +0.07    -0.248 N 
DOCKED: ATOM     28  N   UNL d   1      10.553 -15.040   5.816 -0.14 +0.02    -0.248 N 
DOCKED: ATOM     29 FE   UNL d   1      12.185 -13.902   6.234 -0.04 -0.00    +0.000 Fe
DOCKED: ENDROOT
DOCKED: BRANCH   6  30
DOCKED: ATOM     30  C   UNL d   1      13.616 -18.995   3.902 -0.06 +0.01    +0.052 C 
DOCKED: BRANCH  30  31
DOCKED: ATOM     31  C   UNL d   1      13.113 -18.971   2.459 -0.06 +0.05    +0.115 C 
DOCKED: BRANCH  31  32
DOCKED: ATOM     32  C   UNL d   1      14.205 -18.619   1.472 +0.04 +0.10    +0.139 C 
DOCKED: ATOM     33  O   UNL d   1      15.370 -18.614   1.842 -0.01 -0.22    -0.650 OA
DOCKED: BRANCH  32  34
DOCKED: ATOM     34  O   UNL d   1      13.940 -18.355   0.172 -0.33 -0.87    -0.776 OA
DOCKED: ATOM     35  H   UNL d   1      14.046 -18.995  -0.546 +0.01 +0.09    +0.167 HD
DOCKED: ENDBRANCH  32  34
DOCKED: ENDBRANCH  31  32
DOCKED: ENDBRANCH  30  31
DOCKED: ENDBRANCH   6  30
DOCKED: BRANCH  29  36
DOCKED: ATOM     36  C   UNL d   1      12.456 -14.915   8.049 -0.02 -0.03    +0.190 C 
DOCKED: BRANCH  36  37
DOCKED: ATOM     37  O   UNL d   1      11.965 -15.976   8.817 +0.00 +0.04    -0.399 OA
DOCKED: ATOM     38  H   UNL d   1      11.225 -16.366   8.273 +0.02 -0.02    +0.209 HD
DOCKED: ENDBRANCH  36  37
DOCKED: ENDBRANCH  29  36
DOCKED: BRANCH  22  39
DOCKED: ATOM     39  C   UNL d   1       8.382 -17.910   4.818 -0.18 -0.00    +0.052 C 
DOCKED: BRANCH  39  40
DOCKED: ATOM     40  C   UNL d   1       8.195 -18.889   5.989 -0.05 -0.00    +0.115 C 
DOCKED: BRANCH  40  41
DOCKED: ATOM     41  C   UNL d   1       9.360 -18.938   6.955 -0.02 -0.00    +0.139 C 
DOCKED: ATOM     42  O   UNL d   1      10.084 -19.924   6.970 +0.01 +0.01    -0.650 OA
DOCKED: BRANCH  41  43
DOCKED: ATOM     43  O   UNL d   1       9.676 -17.885   7.741 +0.03 +0.04    -0.776 OA
DOCKED: ATOM     44  H   UNL d   1      10.587 -17.593   7.876 +0.01 -0.01    +0.167 HD
DOCKED: ENDBRANCH  41  43
DOCKED: ENDBRANCH  40  41
DOCKED: ENDBRANCH  39  40
DOCKED: ENDBRANCH  22  39
DOCKED: BRANCH  12  45
DOCKED: ATOM     45  C   UNL d   1      15.958 -10.064   7.487 -0.22 -0.00    +0.004 C 
DOCKED: ATOM     46  C   UNL d   1      16.071  -8.904   6.846 -0.34 -0.00    +0.012 C 
DOCKED: ENDBRANCH  12  45
DOCKED: BRANCH  17  47
DOCKED: ATOM     47  C   UNL d   1       8.285 -11.008   8.630 -0.34 -0.00    +0.004 C 
DOCKED: ATOM     48  C   UNL d   1       7.522 -10.005   8.189 -0.50 -0.01    +0.012 C 
DOCKED: ENDBRANCH  17  47
DOCKED: TORSDOF 12
DOCKED: TER
DOCKED: ENDMDL
________________________________________________________________________________


	BEGINNING GENETIC ALGORITHM DOCKING 5 of 100
Run: 5 Seed: 568085308 251072981 [ Run 5 of 100 GA/GALS ]
Beginning LAMARCKIAN GENETIC ALGORITHM (LGA), with a maximum of 25000000 energy evaluations.

Final-Value: -8.504


	FINAL GENETIC ALGORITHM DOCKED STATE
	_______________________________________________


Detailed state:  trans 24.338 -5.102 2.891 quatxyzw 0.393354 0.900743 0.091660 0.159790 center 8.781 34.984 -0.736 ntor 12 70.5818 114.3216 16.6687 122.5697 -88.7650 143.3911 -10.9209 82.9188 -136.1767 -109.6663 -6.1877 -19.4428
State:	 24.338  -5.102   2.891   0.398  0.912  0.093 161.611     70.58  114.32   16.67  122.57  -88.76  143.39  -10.92   82.92 -136.18 -109.67   -6.19  -19.44

DOCKED: MODEL        5
DOCKED: USER    Run = 5
DOCKED: USER    DPF = D:/Protein_go_brrr/autodock/final/mut_D99N/heme_Co/dock.dpf
DOCKED: USER  
DOCKED: USER    Estimated Free Energy of Binding    =   -4.24 kcal/mol  [=(1)+(2)+(3)-(4)]
DOCKED: USER    Estimated Inhibition Constant, Ki   =  778.44 uM (micromolar)  [Temperature = 298.15 K]
DOCKED: USER    
DOCKED: USER    (1) Final Intermolecular Energy     =   -7.82 kcal/mol
DOCKED: USER        vdW + Hbond + desolv Energy     =   -4.92 kcal/mol
DOCKED: USER        Electrostatic Energy            =   -2.90 kcal/mol
DOCKED: USER    (2) Final Total Internal Energy     =   -0.68 kcal/mol
DOCKED: USER    (3) Torsional Free Energy           =   +3.58 kcal/mol
DOCKED: USER    (4) Unbound System's Energy  [=(2)] =   -0.68 kcal/mol
DOCKED: USER    
DOCKED: USER    
DOCKED: USER    NEWDPF move heme_Co_opt.pdbqt
DOCKED: USER    NEWDPF about 8.781000 34.984000 -0.736000
DOCKED: USER    NEWDPF tran0 24.338090 -5.101746 2.890970
DOCKED: USER    NEWDPF quaternion0 0.393354 0.900743 0.091660 0.159790
DOCKED: USER    NEWDPF axisangle0 0.398474 0.912467 0.092853 161.610637
DOCKED: USER    NEWDPF quat0 0.398474 0.912467 0.092853 161.610637
DOCKED: USER    NEWDPF dihe0 70.58 114.32 16.67 122.57 -88.76 143.39 -10.92 82.92 -136.18 -109.67 -6.19 -19.44 
DOCKED: USER  keepresnum = 1 
DOCKED: USER  
DOCKED: REMARK  12 active torsions:
DOCKED: REMARK  status: ('A' for Active; 'I' for Inactive)
DOCKED: REMARK    1  A    between atoms: C_6  and  C_10 
DOCKED: REMARK    2  A    between atoms: C_10  and  C_11 
DOCKED: REMARK    3  A    between atoms: C_11  and  C_12 
DOCKED: REMARK    4  A    between atoms: C_12  and  O_14 
DOCKED: REMARK    5  A    between atoms: C_17  and  C_20 
DOCKED: REMARK    6  A    between atoms: C_24  and  C_27 
DOCKED: REMARK    7  A    between atoms: C_31  and  C_34 
DOCKED: REMARK    8  A    between atoms: C_34  and  C_35 
DOCKED: REMARK    9  A    between atoms: C_35  and  C_36 
DOCKED: REMARK   10  A    between atoms: C_36  and  O_38 
DOCKED: REMARK   11  A    between atoms: FE_43  and  C_44 
DOCKED: REMARK   12  A    between atoms: C_44  and  O_45 
DOCKED: USER                              x       y       z     vdW  Elec       q    Type
DOCKED: USER                           _______ _______ _______ _____ _____    ______ ____
DOCKED: ROOT
DOCKED: ATOM      1  C   UNL d   1      26.127  -6.327   3.006 -0.08 +0.04    +0.064 A 
DOCKED: ATOM      2  C   UNL d   1      22.553  -6.178  -0.127 -0.21 +0.01    +0.064 C 
DOCKED: ATOM      3  C   UNL d   1      20.273  -2.961   2.571 -0.11 +0.00    +0.064 A 
DOCKED: ATOM      4  C   UNL d   1      24.085  -2.808   5.589 -0.01 +0.01    +0.064 A 
DOCKED: ATOM      5  C   UNL d   1      25.301  -6.550   1.971 -0.10 +0.03    +0.066 A 
DOCKED: ATOM      6  C   UNL d   1      25.654  -7.398   0.902 -0.09 -0.01    -0.021 A 
DOCKED: ATOM      7  C   UNL d   1      24.624  -7.333  -0.015 -0.10 -0.01    -0.025 A 
DOCKED: ATOM      8  C   UNL d   1      23.679  -6.462   0.540 -0.14 +0.02    +0.066 A 
DOCKED: ATOM      9  C   UNL d   1      24.517  -8.056  -1.366 -0.07 +0.01    +0.051 C 
DOCKED: ATOM     10  C   UNL d   1      21.514  -5.315   0.376 -0.22 +0.01    +0.066 A 
DOCKED: ATOM     11  C   UNL d   1      20.249  -5.088  -0.210 -0.38 +0.00    -0.021 A 
DOCKED: ATOM     12  C   UNL d   1      19.604  -4.149   0.599 -0.31 -0.00    +0.000 A 
DOCKED: ATOM     13  C   UNL d   1      20.514  -3.883   1.622 -0.18 +0.00    +0.070 A 
DOCKED: ATOM     14  C   UNL d   1      19.680  -5.803  -1.409 -0.33 -0.01    +0.052 C 
DOCKED: ATOM     15  C   UNL d   1      21.118  -2.524   3.665 -0.05 +0.00    +0.066 A 
DOCKED: ATOM     16  C   UNL d   1      20.869  -1.463   4.524 -0.02 -0.00    -0.021 A 
DOCKED: ATOM     17  C   UNL d   1      21.967  -1.414   5.395 -0.01 +0.00    +0.000 A 
DOCKED: ATOM     18  C   UNL d   1      22.794  -2.463   5.007 -0.02 +0.01    +0.070 A 
DOCKED: ATOM     19  C   UNL d   1      19.648  -0.572   4.487 -0.03 +0.00    +0.052 C 
DOCKED: ATOM     20  C   UNL d   1      24.946  -3.768   5.174 -0.02 +0.02    +0.066 A 
DOCKED: ATOM     21  C   UNL d   1      26.176  -3.982   5.792 -0.01 -0.01    -0.025 A 
DOCKED: ATOM     22  C   UNL d   1      26.774  -5.010   5.087 -0.03 -0.01    -0.021 A 
DOCKED: ATOM     23  C   UNL d   1      25.878  -5.367   4.058 -0.06 +0.03    +0.066 A 
DOCKED: ATOM     24  C   UNL d   1      26.762  -3.230   6.984 -0.00 +0.01    +0.051 C 
DOCKED: ATOM     25  N   UNL d   1      24.071  -5.966   1.772 -0.09 -0.09    -0.248 N 
DOCKED: ATOM     26  N   UNL d   1      21.645  -4.630   1.517 -0.12 -0.03    -0.248 N 
DOCKED: ATOM     27  N   UNL d   1      22.271  -3.083   3.955 -0.02 -0.03    -0.248 N 
DOCKED: ATOM     28  N   UNL d   1      24.771  -4.617   4.105 -0.04 -0.09    -0.248 N 
DOCKED: ATOM     29 FE   UNL d   1      23.120  -4.440   2.931 -0.02 +0.00    +0.000 Fe
DOCKED: ENDROOT
DOCKED: BRANCH   6  30
DOCKED: ATOM     30  C   UNL d   1      26.962  -8.165   0.744 -0.05 +0.02    +0.052 C 
DOCKED: BRANCH  30  31
DOCKED: ATOM     31  C   UNL d   1      26.962  -9.415   1.624 -0.07 +0.07    +0.115 C 
DOCKED: BRANCH  31  32
DOCKED: ATOM     32  C   UNL d   1      25.634 -10.140   1.596 -0.08 +0.11    +0.139 C 
DOCKED: ATOM     33  O   UNL d   1      25.190 -10.622   2.628 -0.38 -1.02    -0.650 OA
DOCKED: BRANCH  32  34
DOCKED: ATOM     34  O   UNL d   1      24.890 -10.233   0.469 -0.00 -0.31    -0.776 OA
DOCKED: ATOM     35  H   UNL d   1      25.157 -10.727  -0.319 +0.02 +0.04    +0.167 HD
DOCKED: ENDBRANCH  32  34
DOCKED: ENDBRANCH  31  32
DOCKED: ENDBRANCH  30  31
DOCKED: ENDBRANCH   6  30
DOCKED: BRANCH  29  36
DOCKED: ATOM     36  C   UNL d   1      24.110  -3.053   1.709 -0.02 +0.02    +0.190 C 
DOCKED: BRANCH  36  37
DOCKED: ATOM     37  O   UNL d   1      25.113  -2.938   0.741 -0.00 -0.04    -0.399 OA
DOCKED: ATOM     38  H   UNL d   1      25.442  -3.869   0.600 +0.01 +0.03    +0.209 HD
DOCKED: ENDBRANCH  36  37
DOCKED: ENDBRANCH  29  36
DOCKED: BRANCH  22  39
DOCKED: ATOM     39  C   UNL d   1      28.159  -5.569   5.353 -0.02 +0.02    +0.052 C 
DOCKED: BRANCH  39  40
DOCKED: ATOM     40  C   UNL d   1      28.122  -6.588   6.504 -0.03 +0.05    +0.115 C 
DOCKED: BRANCH  40  41
DOCKED: ATOM     41  C   UNL d   1      27.314  -7.834   6.209 +0.02 +0.15    +0.139 C 
DOCKED: ATOM     42  O   UNL d   1      26.595  -8.301   7.081 -0.53 -0.95    -0.650 OA
DOCKED: BRANCH  41  43
DOCKED: ATOM     43  O   UNL d   1      27.298  -8.396   4.981 -0.11 -1.13    -0.776 OA
DOCKED: ATOM     44  H   UNL d   1      28.007  -8.261   4.338 +0.00 +0.13    +0.167 HD
DOCKED: ENDBRANCH  41  43
DOCKED: ENDBRANCH  40  41
DOCKED: ENDBRANCH  39  40
DOCKED: ENDBRANCH  22  39
DOCKED: BRANCH  12  45
DOCKED: ATOM     45  C   UNL d   1      18.232  -3.490   0.534 -0.40 -0.00    +0.004 C 
DOCKED: ATOM     46  C   UNL d   1      17.186  -3.586   1.350 -0.40 -0.00    +0.012 C 
DOCKED: ENDBRANCH  12  45
DOCKED: BRANCH  17  47
DOCKED: ATOM     47  C   UNL d   1      22.277  -0.441   6.485 -0.00 +0.00    +0.004 C 
DOCKED: ATOM     48  C   UNL d   1      23.269   0.450   6.418 +0.00 +0.00    +0.012 C 
DOCKED: ENDBRANCH  17  47
DOCKED: TORSDOF 12
DOCKED: TER
DOCKED: ENDMDL
________________________________________________________________________________


	BEGINNING GENETIC ALGORITHM DOCKING 6 of 100
Run: 6 Seed: 137362624 1512376013 [ Run 6 of 100 GA/GALS ]
Beginning LAMARCKIAN GENETIC ALGORITHM (LGA), with a maximum of 25000000 energy evaluations.

Final-Value: -10.509


	FINAL GENETIC ALGORITHM DOCKED STATE
	_______________________________________________


Detailed state:  trans 5.915 0.050 -17.083 quatxyzw -0.527480 0.056855 0.010638 -0.847596 center 8.781 34.984 -0.736 ntor 12 -47.8403 96.3539 118.4329 90.9161 136.6519 117.1170 -145.4397 -63.8455 -14.2040 82.7526 -157.5861 -178.9829
State:	  5.915   0.050 -17.083  -0.994  0.107  0.020 -64.098    -47.84   96.35  118.43   90.92  136.65  117.12 -145.44  -63.85  -14.20   82.75 -157.59 -178.98

DOCKED: MODEL        6
DOCKED: USER    Run = 6
DOCKED: USER    DPF = D:/Protein_go_brrr/autodock/final/mut_D99N/heme_Co/dock.dpf
DOCKED: USER  
DOCKED: USER    Estimated Free Energy of Binding    =   -4.63 kcal/mol  [=(1)+(2)+(3)-(4)]
DOCKED: USER    Estimated Inhibition Constant, Ki   =  401.30 uM (micromolar)  [Temperature = 298.15 K]
DOCKED: USER    
DOCKED: USER    (1) Final Intermolecular Energy     =   -8.21 kcal/mol
DOCKED: USER        vdW + Hbond + desolv Energy     =   -6.20 kcal/mol
DOCKED: USER        Electrostatic Energy            =   -2.01 kcal/mol
DOCKED: USER    (2) Final Total Internal Energy     =   -2.30 kcal/mol
DOCKED: USER    (3) Torsional Free Energy           =   +3.58 kcal/mol
DOCKED: USER    (4) Unbound System's Energy  [=(2)] =   -2.30 kcal/mol
DOCKED: USER    
DOCKED: USER    
DOCKED: USER    NEWDPF move heme_Co_opt.pdbqt
DOCKED: USER    NEWDPF about 8.781000 34.984000 -0.736000
DOCKED: USER    NEWDPF tran0 5.915287 0.049673 -17.082730
DOCKED: USER    NEWDPF quaternion0 -0.527480 0.056855 0.010638 -0.847596
DOCKED: USER    NEWDPF axisangle0 -0.994041 0.107144 0.020048 -64.097658
DOCKED: USER    NEWDPF quat0 -0.994041 0.107144 0.020048 -64.097658
DOCKED: USER    NEWDPF dihe0 -47.84 96.35 118.43 90.92 136.65 117.12 -145.44 -63.85 -14.20 82.75 -157.59 -178.98 
DOCKED: USER  keepresnum = 1 
DOCKED: USER  
DOCKED: REMARK  12 active torsions:
DOCKED: REMARK  status: ('A' for Active; 'I' for Inactive)
DOCKED: REMARK    1  A    between atoms: C_6  and  C_10 
DOCKED: REMARK    2  A    between atoms: C_10  and  C_11 
DOCKED: REMARK    3  A    between atoms: C_11  and  C_12 
DOCKED: REMARK    4  A    between atoms: C_12  and  O_14 
DOCKED: REMARK    5  A    between atoms: C_17  and  C_20 
DOCKED: REMARK    6  A    between atoms: C_24  and  C_27 
DOCKED: REMARK    7  A    between atoms: C_31  and  C_34 
DOCKED: REMARK    8  A    between atoms: C_34  and  C_35 
DOCKED: REMARK    9  A    between atoms: C_35  and  C_36 
DOCKED: REMARK   10  A    between atoms: C_36  and  O_38 
DOCKED: REMARK   11  A    between atoms: FE_43  and  C_44 
DOCKED: REMARK   12  A    between atoms: C_44  and  O_45 
DOCKED: USER                              x       y       z     vdW  Elec       q    Type
DOCKED: USER                           _______ _______ _______ _____ _____    ______ ____
DOCKED: ROOT
DOCKED: ATOM      1  C   UNL d   1       3.882  -0.409 -17.692 -0.16 +0.02    +0.064 A 
DOCKED: ATOM      2  C   UNL d   1       5.658   1.703 -13.819 -0.27 +0.01    +0.064 C 
DOCKED: ATOM      3  C   UNL d   1      10.104   0.798 -15.319 -0.10 +0.02    +0.064 A 
DOCKED: ATOM      4  C   UNL d   1       8.321  -1.019 -19.464 -0.10 +0.01    +0.064 A 
DOCKED: ATOM      5  C   UNL d   1       4.040   0.202 -16.506 -0.21 +0.02    +0.066 A 
DOCKED: ATOM      6  C   UNL d   1       2.947   0.698 -15.769 -0.27 -0.01    -0.021 A 
DOCKED: ATOM      7  C   UNL d   1       3.470   1.330 -14.658 -0.29 -0.01    -0.025 A 
DOCKED: ATOM      8  C   UNL d   1       4.857   1.179 -14.756 -0.21 +0.01    +0.066 A 
DOCKED: ATOM      9  C   UNL d   1       2.705   2.054 -13.539 -0.25 +0.01    +0.051 C 
DOCKED: ATOM     10  C   UNL d   1       7.094   1.576 -13.822 -0.21 +0.01    +0.066 A 
DOCKED: ATOM     11  C   UNL d   1       7.979   1.981 -12.799 -0.28 -0.00    -0.021 A 
DOCKED: ATOM     12  C   UNL d   1       9.268   1.702 -13.261 -0.22 +0.00    +0.000 A 
DOCKED: ATOM     13  C   UNL d   1       9.075   1.137 -14.522 -0.08 +0.02    +0.070 A 
DOCKED: ATOM     14  C   UNL d   1       7.592   2.507 -11.441 -0.34 +0.01    +0.052 C 
DOCKED: ATOM     15  C   UNL d   1      10.086   0.256 -16.663 -0.07 +0.03    +0.066 A 
DOCKED: ATOM     16  C   UNL d   1      11.186   0.063 -17.487 -0.06 -0.01    -0.021 A 
DOCKED: ATOM     17  C   UNL d   1      10.676  -0.459 -18.685 -0.06 +0.00    +0.000 A 
DOCKED: ATOM     18  C   UNL d   1       9.303  -0.560 -18.490 -0.08 +0.02    +0.070 A 
DOCKED: ATOM     19  C   UNL d   1      12.620   0.371 -17.121 -0.04 +0.01    +0.052 C 
DOCKED: ATOM     20  C   UNL d   1       6.974  -1.045 -19.328 -0.13 +0.02    +0.066 A 
DOCKED: ATOM     21  C   UNL d   1       6.131  -1.475 -20.350 -0.12 -0.01    -0.025 A 
DOCKED: ATOM     22  C   UNL d   1       4.846  -1.338 -19.857 -0.08 -0.01    -0.021 A 
DOCKED: ATOM     23  C   UNL d   1       4.970  -0.815 -18.553 -0.19 +0.02    +0.066 A 
DOCKED: ATOM     24  C   UNL d   1       6.529  -1.974 -21.737 -0.14 +0.01    +0.051 C 
DOCKED: ATOM     25  N   UNL d   1       5.238   0.479 -15.888 -0.10 -0.07    -0.248 N 
DOCKED: ATOM     26  N   UNL d   1       7.758   1.010 -14.836 -0.10 -0.07    -0.248 N 
DOCKED: ATOM     27  N   UNL d   1       8.984  -0.097 -17.286 -0.07 -0.09    -0.248 N 
DOCKED: ATOM     28  N   UNL d   1       6.256  -0.634 -18.229 -0.11 -0.07    -0.248 N 
DOCKED: ATOM     29 FE   UNL d   1       7.221   0.172 -16.631 -0.04 +0.00    +0.000 Fe
DOCKED: ENDROOT
DOCKED: BRANCH   6  30
DOCKED: ATOM     30  C   UNL d   1       1.476   0.633 -16.168 -0.15 +0.03    +0.052 C 
DOCKED: BRANCH  30  31
DOCKED: ATOM     31  C   UNL d   1       1.181   1.623 -17.294 -0.16 +0.08    +0.115 C 
DOCKED: BRANCH  31  32
DOCKED: ATOM     32  C   UNL d   1      -0.134   1.336 -17.985 -0.11 +0.18    +0.139 C 
DOCKED: ATOM     33  O   UNL d   1      -1.171   1.782 -17.515 -0.01 -0.87    -0.650 OA
DOCKED: BRANCH  32  34
DOCKED: ATOM     34  O   UNL d   1      -0.199   0.636 -19.142 -0.55 -1.18    -0.776 OA
DOCKED: ATOM     35  H   UNL d   1       0.320   0.842 -19.932 +0.02 +0.14    +0.167 HD
DOCKED: ENDBRANCH  32  34
DOCKED: ENDBRANCH  31  32
DOCKED: ENDBRANCH  30  31
DOCKED: ENDBRANCH   6  30
DOCKED: BRANCH  29  36
DOCKED: ATOM     36  C   UNL d   1       7.078   2.084 -17.479 -0.02 +0.03    +0.190 C 
DOCKED: BRANCH  36  37
DOCKED: ATOM     37  O   UNL d   1       6.189   2.957 -18.114 +0.00 -0.06    -0.399 OA
DOCKED: ATOM     38  H   UNL d   1       5.432   2.380 -18.414 +0.02 +0.04    +0.209 HD
DOCKED: ENDBRANCH  36  37
DOCKED: ENDBRANCH  29  36
DOCKED: BRANCH  22  39
DOCKED: ATOM     39  C   UNL d   1       3.573  -1.633 -20.627 -0.21 +0.01    +0.052 C 
DOCKED: BRANCH  39  40
DOCKED: ATOM     40  C   UNL d   1       3.255  -0.492 -21.608 -0.07 +0.03    +0.115 C 
DOCKED: BRANCH  40  41
DOCKED: ATOM     41  C   UNL d   1       2.155   0.441 -21.146 -0.05 +0.04    +0.139 C 
DOCKED: ATOM     42  O   UNL d   1       2.390   1.248 -20.258 +0.03 -0.21    -0.650 OA
DOCKED: BRANCH  41  43
DOCKED: ATOM     43  O   UNL d   1       0.946   0.467 -21.748 +0.04 -0.30    -0.776 OA
DOCKED: ATOM     44  H   UNL d   1       0.121   0.339 -21.262 +0.03 +0.10    +0.167 HD
DOCKED: ENDBRANCH  41  43
DOCKED: ENDBRANCH  40  41
DOCKED: ENDBRANCH  39  40
DOCKED: ENDBRANCH  22  39
DOCKED: BRANCH  12  45
DOCKED: ATOM     45  C   UNL d   1      10.652   1.885 -12.652 -0.22 +0.00    +0.004 C 
DOCKED: ATOM     46  C   UNL d   1      11.328   1.124 -11.795 -0.33 +0.00    +0.012 C 
DOCKED: ENDBRANCH  12  45
DOCKED: BRANCH  17  47
DOCKED: ATOM     47  C   UNL d   1      11.385  -0.800 -19.954 -0.02 +0.00    +0.004 C 
DOCKED: ATOM     48  C   UNL d   1      11.483  -2.042 -20.433 -0.04 +0.00    +0.012 C 
DOCKED: ENDBRANCH  17  47
DOCKED: TORSDOF 12
DOCKED: TER
DOCKED: ENDMDL
________________________________________________________________________________


	BEGINNING GENETIC ALGORITHM DOCKING 7 of 100
Run: 7 Seed: 735532130 147440077 [ Run 7 of 100 GA/GALS ]
Beginning LAMARCKIAN GENETIC ALGORITHM (LGA), with a maximum of 25000000 energy evaluations.

Final-Value: -8.950


	FINAL GENETIC ALGORITHM DOCKED STATE
	_______________________________________________


Detailed state:  trans 3.289 -2.777 18.049 quatxyzw -0.659703 -0.481458 -0.336283 0.468939 center 8.781 34.984 -0.736 ntor 12 -168.5595 97.2873 74.0203 -13.6103 -87.9753 137.6065 39.7396 -54.5082 155.7399 -154.9230 -156.0902 -3.2852
State:	  3.289  -2.777  18.049  -0.747 -0.545 -0.381 124.069   -168.56   97.29   74.02  -13.61  -87.98  137.61   39.74  -54.51  155.74 -154.92 -156.09   -3.29

DOCKED: MODEL        7
DOCKED: USER    Run = 7
DOCKED: USER    DPF = D:/Protein_go_brrr/autodock/final/mut_D99N/heme_Co/dock.dpf
DOCKED: USER  
DOCKED: USER    Estimated Free Energy of Binding    =   -3.07 kcal/mol  [=(1)+(2)+(3)-(4)]
DOCKED: USER    Estimated Inhibition Constant, Ki   =    5.62 mM (millimolar)  [Temperature = 298.15 K]
DOCKED: USER    
DOCKED: USER    (1) Final Intermolecular Energy     =   -6.65 kcal/mol
DOCKED: USER        vdW + Hbond + desolv Energy     =   -5.00 kcal/mol
DOCKED: USER        Electrostatic Energy            =   -1.65 kcal/mol
DOCKED: USER    (2) Final Total Internal Energy     =   -2.30 kcal/mol
DOCKED: USER    (3) Torsional Free Energy           =   +3.58 kcal/mol
DOCKED: USER    (4) Unbound System's Energy  [=(2)] =   -2.30 kcal/mol
DOCKED: USER    
DOCKED: USER    
DOCKED: USER    NEWDPF move heme_Co_opt.pdbqt
DOCKED: USER    NEWDPF about 8.781000 34.984000 -0.736000
DOCKED: USER    NEWDPF tran0 3.288790 -2.777109 18.048967
DOCKED: USER    NEWDPF quaternion0 -0.659703 -0.481458 -0.336283 0.468939
DOCKED: USER    NEWDPF axisangle0 -0.746921 -0.545110 -0.380742 124.069068
DOCKED: USER    NEWDPF quat0 -0.746921 -0.545110 -0.380742 124.069068
DOCKED: USER    NEWDPF dihe0 -168.56 97.29 74.02 -13.61 -87.98 137.61 39.74 -54.51 155.74 -154.92 -156.09 -3.29 
DOCKED: USER  keepresnum = 1 
DOCKED: USER  
DOCKED: REMARK  12 active torsions:
DOCKED: REMARK  status: ('A' for Active; 'I' for Inactive)
DOCKED: REMARK    1  A    between atoms: C_6  and  C_10 
DOCKED: REMARK    2  A    between atoms: C_10  and  C_11 
DOCKED: REMARK    3  A    between atoms: C_11  and  C_12 
DOCKED: REMARK    4  A    between atoms: C_12  and  O_14 
DOCKED: REMARK    5  A    between atoms: C_17  and  C_20 
DOCKED: REMARK    6  A    between atoms: C_24  and  C_27 
DOCKED: REMARK    7  A    between atoms: C_31  and  C_34 
DOCKED: REMARK    8  A    between atoms: C_34  and  C_35 
DOCKED: REMARK    9  A    between atoms: C_35  and  C_36 
DOCKED: REMARK   10  A    between atoms: C_36  and  O_38 
DOCKED: REMARK   11  A    between atoms: FE_43  and  C_44 
DOCKED: REMARK   12  A    between atoms: C_44  and  O_45 
DOCKED: USER                              x       y       z     vdW  Elec       q    Type
DOCKED: USER                           _______ _______ _______ _____ _____    ______ ____
DOCKED: ROOT
DOCKED: ATOM      1  C   UNL d   1       2.087  -4.414  18.818 -0.04 +0.06    +0.064 A 
DOCKED: ATOM      2  C   UNL d   1       4.971  -4.062  15.054 -0.10 -0.01    +0.064 C 
DOCKED: ATOM      3  C   UNL d   1       5.618   0.589  15.938 -0.16 -0.00    +0.064 A 
DOCKED: ATOM      4  C   UNL d   1       2.987   0.168  20.008 -0.13 +0.01    +0.064 A 
DOCKED: ATOM      5  C   UNL d   1       2.798  -4.651  17.704 -0.06 +0.05    +0.066 A 
DOCKED: ATOM      6  C   UNL d   1       2.920  -5.943  17.156 -0.05 -0.01    -0.021 A 
DOCKED: ATOM      7  C   UNL d   1       3.776  -5.839  16.077 -0.06 -0.00    -0.025 A 
DOCKED: ATOM      8  C   UNL d   1       4.127  -4.487  16.003 -0.07 +0.01    +0.066 A 
DOCKED: ATOM      9  C   UNL d   1       4.256  -6.960  15.143 -0.12 -0.02    +0.051 C 
DOCKED: ATOM     10  C   UNL d   1       5.368  -2.687  14.884 -0.08 -0.01    +0.066 A 
DOCKED: ATOM     11  C   UNL d   1       6.137  -2.155  13.825 -0.16 +0.01    -0.021 A 
DOCKED: ATOM     12  C   UNL d   1       6.307  -0.797  14.106 -0.17 -0.00    +0.000 A 
DOCKED: ATOM     13  C   UNL d   1       5.621  -0.598  15.305 -0.13 -0.00    +0.070 A 
DOCKED: ATOM     14  C   UNL d   1       6.586  -2.893  12.591 -0.26 -0.05    +0.052 C 
DOCKED: ATOM     15  C   UNL d   1       5.010   0.956  17.201 -0.13 -0.00    +0.066 A 
DOCKED: ATOM     16  C   UNL d   1       5.166   2.161  17.871 -0.21 +0.01    -0.021 A 
DOCKED: ATOM     17  C   UNL d   1       4.411   2.043  19.047 -0.28 -0.00    +0.000 A 
DOCKED: ATOM     18  C   UNL d   1       3.838   0.777  18.993 -0.18 +0.00    +0.070 A 
DOCKED: ATOM     19  C   UNL d   1       5.995   3.331  17.389 -0.29 -0.03    +0.052 C 
DOCKED: ATOM     20  C   UNL d   1       2.489  -1.091  20.018 -0.11 +0.03    +0.066 A 
DOCKED: ATOM     21  C   UNL d   1       1.712  -1.575  21.068 -0.07 -0.01    -0.025 A 
DOCKED: ATOM     22  C   UNL d   1       1.413  -2.884  20.739 -0.06 -0.01    -0.021 A 
DOCKED: ATOM     23  C   UNL d   1       2.038  -3.141  19.500 -0.04 +0.06    +0.066 A 
DOCKED: ATOM     24  C   UNL d   1       1.290  -0.832  22.333 -0.03 +0.01    +0.051 C 
DOCKED: ATOM     25  N   UNL d   1       3.531  -3.726  16.995 -0.06 -0.14    -0.248 N 
DOCKED: ATOM     26  N   UNL d   1       5.007  -1.729  15.744 -0.05 -0.02    -0.248 N 
DOCKED: ATOM     27  N   UNL d   1       4.240   0.147  17.895 -0.13 -0.03    -0.248 N 
DOCKED: ATOM     28  N   UNL d   1       2.692  -2.059  19.061 -0.07 -0.23    -0.248 N 
DOCKED: ATOM     29 FE   UNL d   1       3.904  -1.675  17.475 -0.03 +0.00    +0.000 Fe
DOCKED: ENDROOT
DOCKED: BRANCH   6  30
DOCKED: ATOM     30  C   UNL d   1       2.302  -7.225  17.703 -0.02 +0.01    +0.052 C 
DOCKED: BRANCH  30  31
DOCKED: ATOM     31  C   UNL d   1       3.012  -7.659  18.985 +0.00 +0.01    +0.115 C 
DOCKED: BRANCH  31  32
DOCKED: ATOM     32  C   UNL d   1       4.441  -7.163  19.050 +0.01 +0.00    +0.139 C 
DOCKED: ATOM     33  O   UNL d   1       5.338  -7.853  18.589 +0.01 +0.05    -0.650 OA
DOCKED: BRANCH  32  34
DOCKED: ATOM     34  O   UNL d   1       4.756  -5.951  19.562 +0.01 -0.04    -0.776 OA
DOCKED: ATOM     35  H   UNL d   1       5.640  -5.560  19.528 +0.00 +0.00    +0.167 HD
DOCKED: ENDBRANCH  32  34
DOCKED: ENDBRANCH  31  32
DOCKED: ENDBRANCH  30  31
DOCKED: ENDBRANCH   6  30
DOCKED: BRANCH  29  36
DOCKED: ATOM     36  C   UNL d   1       5.570  -2.348  18.555 -0.01 +0.02    +0.190 C 
DOCKED: BRANCH  36  37
DOCKED: ATOM     37  O   UNL d   1       6.139  -3.489  19.130 +0.01 -0.01    -0.399 OA
DOCKED: ATOM     38  H   UNL d   1       5.395  -4.152  19.174 +0.01 +0.01    +0.209 HD
DOCKED: ENDBRANCH  36  37
DOCKED: ENDBRANCH  29  36
DOCKED: BRANCH  22  39
DOCKED: ATOM     39  C   UNL d   1       0.625  -3.851  21.603 -0.02 +0.02    +0.052 C 
DOCKED: BRANCH  39  40
DOCKED: ATOM     40  C   UNL d   1      -0.842  -3.913  21.149 -0.04 +0.04    +0.115 C 
DOCKED: BRANCH  40  41
DOCKED: ATOM     41  C   UNL d   1      -1.081  -3.416  19.738 -0.01 +0.14    +0.139 C 
DOCKED: ATOM     42  O   UNL d   1      -0.902  -4.177  18.798 -0.05 -0.94    -0.650 OA
DOCKED: BRANCH  41  43
DOCKED: ATOM     43  O   UNL d   1      -1.570  -2.180  19.494 -0.51 -0.79    -0.776 OA
DOCKED: ATOM     44  H   UNL d   1      -1.015  -1.390  19.510 -0.24 +0.16    +0.167 HD
DOCKED: ENDBRANCH  41  43
DOCKED: ENDBRANCH  40  41
DOCKED: ENDBRANCH  39  40
DOCKED: ENDBRANCH  22  39
DOCKED: BRANCH  12  45
DOCKED: ATOM     45  C   UNL d   1       7.019   0.334  13.375 -0.13 -0.00    +0.004 C 
DOCKED: ATOM     46  C   UNL d   1       7.995   0.301  12.472 -0.31 -0.00    +0.012 C 
DOCKED: ENDBRANCH  12  45
DOCKED: BRANCH  17  47
DOCKED: ATOM     47  C   UNL d   1       4.257   3.003  20.181 -0.21 -0.00    +0.004 C 
DOCKED: ATOM     48  C   UNL d   1       4.775   2.799  21.395 -0.16 -0.00    +0.012 C 
DOCKED: ENDBRANCH  17  47
DOCKED: TORSDOF 12
DOCKED: TER
DOCKED: ENDMDL
________________________________________________________________________________


	BEGINNING GENETIC ALGORITHM DOCKING 8 of 100
Run: 8 Seed: 1258463312 194027445 [ Run 8 of 100 GA/GALS ]
Beginning LAMARCKIAN GENETIC ALGORITHM (LGA), with a maximum of 25000000 energy evaluations.

Final-Value: -10.261


	FINAL GENETIC ALGORITHM DOCKED STATE
	_______________________________________________


Detailed state:  trans 15.490 -9.079 7.811 quatxyzw 0.152329 -0.059457 -0.899442 -0.405297 center 8.781 34.984 -0.736 ntor 12 -162.2249 123.7613 59.2608 117.0898 57.8047 126.6122 24.9180 -179.0823 -169.1024 -54.3832 -176.3848 167.3137
State:	 15.490  -9.079   7.811   0.167 -0.065 -0.984 -132.181   -162.22  123.76   59.26  117.09   57.80  126.61   24.92 -179.08 -169.10  -54.38 -176.38  167.31

DOCKED: MODEL        8
DOCKED: USER    Run = 8
DOCKED: USER    DPF = D:/Protein_go_brrr/autodock/final/mut_D99N/heme_Co/dock.dpf
DOCKED: USER  
DOCKED: USER    Estimated Free Energy of Binding    =   -4.53 kcal/mol  [=(1)+(2)+(3)-(4)]
DOCKED: USER    Estimated Inhibition Constant, Ki   =  479.52 uM (micromolar)  [Temperature = 298.15 K]
DOCKED: USER    
DOCKED: USER    (1) Final Intermolecular Energy     =   -8.11 kcal/mol
DOCKED: USER        vdW + Hbond + desolv Energy     =   -7.03 kcal/mol
DOCKED: USER        Electrostatic Energy            =   -1.08 kcal/mol
DOCKED: USER    (2) Final Total Internal Energy     =   -2.15 kcal/mol
DOCKED: USER    (3) Torsional Free Energy           =   +3.58 kcal/mol
DOCKED: USER    (4) Unbound System's Energy  [=(2)] =   -2.15 kcal/mol
DOCKED: USER    
DOCKED: USER    
DOCKED: USER    NEWDPF move heme_Co_opt.pdbqt
DOCKED: USER    NEWDPF about 8.781000 34.984000 -0.736000
DOCKED: USER    NEWDPF tran0 15.489924 -9.078829 7.811245
DOCKED: USER    NEWDPF quaternion0 0.152329 -0.059457 -0.899442 -0.405297
DOCKED: USER    NEWDPF axisangle0 0.166628 -0.065039 -0.983873 -132.180577
DOCKED: USER    NEWDPF quat0 0.166628 -0.065039 -0.983873 -132.180577
DOCKED: USER    NEWDPF dihe0 -162.22 123.76 59.26 117.09 57.80 126.61 24.92 -179.08 -169.10 -54.38 -176.38 167.31 
DOCKED: USER  keepresnum = 1 
DOCKED: USER  
DOCKED: REMARK  12 active torsions:
DOCKED: REMARK  status: ('A' for Active; 'I' for Inactive)
DOCKED: REMARK    1  A    between atoms: C_6  and  C_10 
DOCKED: REMARK    2  A    between atoms: C_10  and  C_11 
DOCKED: REMARK    3  A    between atoms: C_11  and  C_12 
DOCKED: REMARK    4  A    between atoms: C_12  and  O_14 
DOCKED: REMARK    5  A    between atoms: C_17  and  C_20 
DOCKED: REMARK    6  A    between atoms: C_24  and  C_27 
DOCKED: REMARK    7  A    between atoms: C_31  and  C_34 
DOCKED: REMARK    8  A    between atoms: C_34  and  C_35 
DOCKED: REMARK    9  A    between atoms: C_35  and  C_36 
DOCKED: REMARK   10  A    between atoms: C_36  and  O_38 
DOCKED: REMARK   11  A    between atoms: FE_43  and  C_44 
DOCKED: REMARK   12  A    between atoms: C_44  and  O_45 
DOCKED: USER                              x       y       z     vdW  Elec       q    Type
DOCKED: USER                           _______ _______ _______ _____ _____    ______ ____
DOCKED: ROOT
DOCKED: ATOM      1  C   UNL d   1      17.328  -7.950   7.559 -0.20 -0.01    +0.064 A 
DOCKED: ATOM      2  C   UNL d   1      13.446  -7.186  10.197 -0.23 -0.02    +0.064 C 
DOCKED: ATOM      3  C   UNL d   1      11.332 -11.009   8.262 -0.18 -0.02    +0.064 A 
DOCKED: ATOM      4  C   UNL d   1      15.427 -12.033   5.844 -0.10 -0.05    +0.064 A 
DOCKED: ATOM      5  C   UNL d   1      16.409  -7.440   8.395 -0.19 -0.01    +0.066 A 
DOCKED: ATOM      6  C   UNL d   1      16.683  -6.330   9.218 -0.13 +0.00    -0.021 A 
DOCKED: ATOM      7  C   UNL d   1      15.561  -6.127   9.998 -0.16 +0.01    -0.025 A 
DOCKED: ATOM      8  C   UNL d   1      14.646  -7.110   9.606 -0.20 -0.02    +0.066 A 
DOCKED: ATOM      9  C   UNL d   1      15.344  -5.053  11.075 -0.16 -0.01    +0.051 C 
DOCKED: ATOM     10  C   UNL d   1      12.431  -8.145   9.842 -0.22 -0.03    +0.066 A 
DOCKED: ATOM     11  C   UNL d   1      11.105  -8.188  10.324 -0.22 +0.01    -0.021 A 
DOCKED: ATOM     12  C   UNL d   1      10.510  -9.310   9.741 -0.20 -0.00    +0.000 A 
DOCKED: ATOM     13  C   UNL d   1      11.510  -9.860   8.938 -0.19 -0.03    +0.070 A 
DOCKED: ATOM     14  C   UNL d   1      10.443  -7.162  11.207 -0.21 -0.04    +0.052 C 
DOCKED: ATOM     15  C   UNL d   1      12.268 -11.741   7.432 -0.18 -0.02    +0.066 A 
DOCKED: ATOM     16  C   UNL d   1      12.068 -12.998   6.878 -0.16 +0.01    -0.021 A 
DOCKED: ATOM     17  C   UNL d   1      13.247 -13.299   6.182 -0.19 -0.00    +0.000 A 
DOCKED: ATOM     18  C   UNL d   1      14.070 -12.191   6.352 -0.21 -0.04    +0.070 A 
DOCKED: ATOM     19  C   UNL d   1      10.815 -13.832   7.027 -0.16 -0.01    +0.052 C 
DOCKED: ATOM     20  C   UNL d   1      16.277 -11.003   6.069 -0.25 -0.03    +0.066 A 
DOCKED: ATOM     21  C   UNL d   1      17.572 -10.982   5.555 -0.29 +0.01    -0.025 A 
DOCKED: ATOM     22  C   UNL d   1      18.134  -9.803   6.009 -0.29 -0.00    -0.021 A 
DOCKED: ATOM     23  C   UNL d   1      17.151  -9.164   6.794 -0.24 -0.01    +0.066 A 
DOCKED: ATOM     24  C   UNL d   1      18.248 -12.042   4.690 -0.27 -0.01    +0.051 C 
DOCKED: ATOM     25  N   UNL d   1      15.142  -7.933   8.610 -0.11 +0.09    -0.248 N 
DOCKED: ATOM     26  N   UNL d   1      12.653  -9.123   8.956 -0.07 +0.12    -0.248 N 
DOCKED: ATOM     27  N   UNL d   1      13.467 -11.296   7.127 -0.13 +0.11    -0.248 N 
DOCKED: ATOM     28  N   UNL d   1      16.026  -9.888   6.834 -0.18 +0.08    -0.248 N 
DOCKED: ATOM     29 FE   UNL d   1      14.258  -9.715   7.822 -0.05 -0.00    +0.000 Fe
DOCKED: ENDROOT
DOCKED: BRANCH   6  30
DOCKED: ATOM     30  C   UNL d   1      17.997  -5.561   9.301 -0.07 -0.00    +0.052 C 
DOCKED: BRANCH  30  31
DOCKED: ATOM     31  C   UNL d   1      18.889  -6.137  10.400 -0.01 -0.00    +0.115 C 
DOCKED: BRANCH  31  32
DOCKED: ATOM     32  C   UNL d   1      18.346  -7.433  10.963 -0.00 -0.00    +0.139 C 
DOCKED: ATOM     33  O   UNL d   1      17.812  -7.434  12.061 +0.01 +0.03    -0.650 OA
DOCKED: BRANCH  32  34
DOCKED: ATOM     34  O   UNL d   1      18.390  -8.593  10.266 +0.03 +0.01    -0.776 OA
DOCKED: ATOM     35  H   UNL d   1      17.895  -9.389  10.502 +0.01 -0.01    +0.167 HD
DOCKED: ENDBRANCH  32  34
DOCKED: ENDBRANCH  31  32
DOCKED: ENDBRANCH  30  31
DOCKED: ENDBRANCH   6  30
DOCKED: BRANCH  29  36
DOCKED: ATOM     36  C   UNL d   1      15.060 -10.713   9.482 -0.04 -0.04    +0.190 C 
DOCKED: BRANCH  36  37
DOCKED: ATOM     37  O   UNL d   1      16.114 -10.677  10.402 +0.00 +0.05    -0.399 OA
DOCKED: ATOM     38  H   UNL d   1      16.550  -9.791  10.257 +0.02 -0.02    +0.209 HD
DOCKED: ENDBRANCH  36  37
DOCKED: ENDBRANCH  29  36
DOCKED: BRANCH  22  39
DOCKED: ATOM     39  C   UNL d   1      19.561  -9.353   5.753 -0.20 +0.02    +0.052 C 
DOCKED: BRANCH  39  40
DOCKED: ATOM     40  C   UNL d   1      20.492  -9.834   6.878 -0.15 +0.04    +0.115 C 
DOCKED: BRANCH  40  41
DOCKED: ATOM     41  C   UNL d   1      21.615 -10.738   6.416 -0.03 +0.10    +0.139 C 
DOCKED: ATOM     42  O   UNL d   1      21.386 -11.594   5.573 -0.03 -0.37    -0.650 OA
DOCKED: BRANCH  41  43
DOCKED: ATOM     43  O   UNL d   1      22.886 -10.567   6.844 -0.21 -1.09    -0.776 OA
DOCKED: ATOM     44  H   UNL d   1      23.145 -10.696   7.765 +0.00 +0.15    +0.167 HD
DOCKED: ENDBRANCH  41  43
DOCKED: ENDBRANCH  40  41
DOCKED: ENDBRANCH  39  40
DOCKED: ENDBRANCH  22  39
DOCKED: BRANCH  12  45
DOCKED: ATOM     45  C   UNL d   1       9.114  -9.912   9.834 -0.26 -0.00    +0.004 C 
DOCKED: ATOM     46  C   UNL d   1       8.128  -9.954   8.943 -0.34 -0.01    +0.012 C 
DOCKED: ENDBRANCH  12  45
DOCKED: BRANCH  17  47
DOCKED: ATOM     47  C   UNL d   1      13.630 -14.541   5.445 -0.16 -0.00    +0.004 C 
DOCKED: ATOM     48  C   UNL d   1      12.766 -15.275   4.740 -0.26 -0.00    +0.012 C 
DOCKED: ENDBRANCH  17  47
DOCKED: TORSDOF 12
DOCKED: TER
DOCKED: ENDMDL
________________________________________________________________________________


	BEGINNING GENETIC ALGORITHM DOCKING 9 of 100
Run: 9 Seed: 158215703 1267163007 [ Run 9 of 100 GA/GALS ]
Beginning LAMARCKIAN GENETIC ALGORITHM (LGA), with a maximum of 25000000 energy evaluations.

Final-Value: -9.106


	FINAL GENETIC ALGORITHM DOCKED STATE
	_______________________________________________


Detailed state:  trans -5.961 7.763 -17.948 quatxyzw -0.812262 -0.535436 -0.024847 -0.230047 center 8.781 34.984 -0.736 ntor 12 89.2698 100.3677 32.6444 116.9825 137.5961 125.3442 -141.9603 124.2950 -128.5226 17.4876 -168.5737 -178.5495
State:	 -5.961   7.763 -17.948  -0.835 -0.550 -0.026 -153.400     89.27  100.37   32.64  116.98  137.60  125.34 -141.96  124.30 -128.52   17.49 -168.57 -178.55

DOCKED: MODEL        9
DOCKED: USER    Run = 9
DOCKED: USER    DPF = D:/Protein_go_brrr/autodock/final/mut_D99N/heme_Co/dock.dpf
DOCKED: USER  
DOCKED: USER    Estimated Free Energy of Binding    =   -3.13 kcal/mol  [=(1)+(2)+(3)-(4)]
DOCKED: USER    Estimated Inhibition Constant, Ki   =    5.10 mM (millimolar)  [Temperature = 298.15 K]
DOCKED: USER    
DOCKED: USER    (1) Final Intermolecular Energy     =   -6.71 kcal/mol
DOCKED: USER        vdW + Hbond + desolv Energy     =   -3.80 kcal/mol
DOCKED: USER        Electrostatic Energy            =   -2.91 kcal/mol
DOCKED: USER    (2) Final Total Internal Energy     =   -2.40 kcal/mol
DOCKED: USER    (3) Torsional Free Energy           =   +3.58 kcal/mol
DOCKED: USER    (4) Unbound System's Energy  [=(2)] =   -2.40 kcal/mol
DOCKED: USER    
DOCKED: USER    
DOCKED: USER    NEWDPF move heme_Co_opt.pdbqt
DOCKED: USER    NEWDPF about 8.781000 34.984000 -0.736000
DOCKED: USER    NEWDPF tran0 -5.961194 7.762979 -17.948368
DOCKED: USER    NEWDPF quaternion0 -0.812262 -0.535436 -0.024847 -0.230047
DOCKED: USER    NEWDPF axisangle0 -0.834648 -0.550192 -0.025531 -153.400334
DOCKED: USER    NEWDPF quat0 -0.834648 -0.550192 -0.025531 -153.400334
DOCKED: USER    NEWDPF dihe0 89.27 100.37 32.64 116.98 137.60 125.34 -141.96 124.30 -128.52 17.49 -168.57 -178.55 
DOCKED: USER  keepresnum = 1 
DOCKED: USER  
DOCKED: REMARK  12 active torsions:
DOCKED: REMARK  status: ('A' for Active; 'I' for Inactive)
DOCKED: REMARK    1  A    between atoms: C_6  and  C_10 
DOCKED: REMARK    2  A    between atoms: C_10  and  C_11 
DOCKED: REMARK    3  A    between atoms: C_11  and  C_12 
DOCKED: REMARK    4  A    between atoms: C_12  and  O_14 
DOCKED: REMARK    5  A    between atoms: C_17  and  C_20 
DOCKED: REMARK    6  A    between atoms: C_24  and  C_27 
DOCKED: REMARK    7  A    between atoms: C_31  and  C_34 
DOCKED: REMARK    8  A    between atoms: C_34  and  C_35 
DOCKED: REMARK    9  A    between atoms: C_35  and  C_36 
DOCKED: REMARK   10  A    between atoms: C_36  and  O_38 
DOCKED: REMARK   11  A    between atoms: FE_43  and  C_44 
DOCKED: REMARK   12  A    between atoms: C_44  and  O_45 
DOCKED: USER                              x       y       z     vdW  Elec       q    Type
DOCKED: USER                           _______ _______ _______ _____ _____    ______ ____
DOCKED: ROOT
DOCKED: ATOM      1  C   UNL d   1      -6.169   5.602 -17.917 -0.20 +0.04    +0.064 A 
DOCKED: ATOM      2  C   UNL d   1      -8.747   9.031 -19.968 -0.12 -0.01    +0.064 C 
DOCKED: ATOM      3  C   UNL d   1      -6.040  12.368 -17.880 -0.11 -0.01    +0.064 A 
DOCKED: ATOM      4  C   UNL d   1      -3.156   8.885 -16.084 -0.09 +0.00    +0.064 A 
DOCKED: ATOM      5  C   UNL d   1      -7.095   6.294 -18.602 -0.17 +0.03    +0.066 A 
DOCKED: ATOM      6  C   UNL d   1      -8.049   5.658 -19.420 -0.15 -0.01    -0.021 A 
DOCKED: ATOM      7  C   UNL d   1      -8.780   6.659 -20.031 -0.09 -0.00    -0.025 A 
DOCKED: ATOM      8  C   UNL d   1      -8.252   7.860 -19.547 -0.10 -0.00    +0.066 A 
DOCKED: ATOM      9  C   UNL d   1      -9.933   6.505 -21.034 -0.04 -0.00    +0.051 C 
DOCKED: ATOM     10  C   UNL d   1      -8.286  10.316 -19.506 -0.12 -0.01    +0.066 A 
DOCKED: ATOM     11  C   UNL d   1      -8.856  11.573 -19.802 -0.10 +0.01    -0.021 A 
DOCKED: ATOM     12  C   UNL d   1      -8.049  12.528 -19.177 -0.10 -0.00    +0.000 A 
DOCKED: ATOM     13  C   UNL d   1      -7.057  11.785 -18.538 -0.13 -0.01    +0.070 A 
DOCKED: ATOM     14  C   UNL d   1     -10.140  11.816 -20.553 -0.07 -0.02    +0.052 C 
DOCKED: ATOM     15  C   UNL d   1      -4.907  11.758 -17.210 -0.06 -0.01    +0.066 A 
DOCKED: ATOM     16  C   UNL d   1      -3.813  12.421 -16.673 -0.07 +0.00    -0.021 A 
DOCKED: ATOM     17  C   UNL d   1      -2.978  11.421 -16.157 -0.07 -0.00    +0.000 A 
DOCKED: ATOM     18  C   UNL d   1      -3.639  10.223 -16.405 -0.10 -0.00    +0.070 A 
DOCKED: ATOM     19  C   UNL d   1      -3.610  13.920 -16.673 -0.03 -0.00    +0.052 C 
DOCKED: ATOM     20  C   UNL d   1      -3.740   7.702 -16.393 -0.11 +0.01    +0.066 A 
DOCKED: ATOM     21  C   UNL d   1      -3.161   6.479 -16.062 -0.15 -0.01    -0.025 A 
DOCKED: ATOM     22  C   UNL d   1      -4.022   5.514 -16.553 -0.17 -0.01    -0.021 A 
DOCKED: ATOM     23  C   UNL d   1      -5.086   6.202 -17.173 -0.16 +0.03    +0.066 A 
DOCKED: ATOM     24  C   UNL d   1      -1.842   6.240 -15.333 -0.07 +0.01    +0.051 C 
DOCKED: ATOM     25  N   UNL d   1      -7.211   7.664 -18.655 -0.10 -0.02    -0.248 N 
DOCKED: ATOM     26  N   UNL d   1      -7.234  10.445 -18.691 -0.12 +0.04    -0.248 N 
DOCKED: ATOM     27  N   UNL d   1      -4.770  10.459 -17.060 -0.06 +0.02    -0.248 N 
DOCKED: ATOM     28  N   UNL d   1      -4.918   7.527 -17.081 -0.09 -0.04    -0.248 N 
DOCKED: ATOM     29 FE   UNL d   1      -5.916   9.142 -17.809 -0.05 -0.00    +0.000 Fe
DOCKED: ENDROOT
DOCKED: BRANCH   6  30
DOCKED: ATOM     30  C   UNL d   1      -8.188   4.159 -19.660 +0.09 +0.05    +0.052 C 
DOCKED: BRANCH  30  31
DOCKED: ATOM     31  C   UNL d   1      -7.237   3.701 -20.766 -0.06 +0.12    +0.115 C 
DOCKED: BRANCH  31  32
DOCKED: ATOM     32  C   UNL d   1      -5.822   4.193 -20.551 -0.06 +0.13    +0.139 C 
DOCKED: ATOM     33  O   UNL d   1      -5.047   3.521 -19.886 -0.28 -1.04    -0.650 OA
DOCKED: BRANCH  32  34
DOCKED: ATOM     34  O   UNL d   1      -5.367   5.337 -21.112 +0.03 -0.34    -0.776 OA
DOCKED: ATOM     35  H   UNL d   1      -5.484   6.216 -20.727 +0.02 +0.05    +0.167 HD
DOCKED: ENDBRANCH  32  34
DOCKED: ENDBRANCH  31  32
DOCKED: ENDBRANCH  30  31
DOCKED: ENDBRANCH   6  30
DOCKED: BRANCH  29  36
DOCKED: ATOM     36  C   UNL d   1      -4.821   9.043 -19.594 -0.03 +0.01    +0.190 C 
DOCKED: BRANCH  36  37
DOCKED: ATOM     37  O   UNL d   1      -4.470   8.183 -20.639 +0.01 -0.05    -0.399 OA
DOCKED: ATOM     38  H   UNL d   1      -4.732   7.274 -20.322 +0.02 +0.04    +0.209 HD
DOCKED: ENDBRANCH  36  37
DOCKED: ENDBRANCH  29  36
DOCKED: BRANCH  22  39
DOCKED: ATOM     39  C   UNL d   1      -3.795   4.016 -16.483 -0.24 +0.04    +0.052 C 
DOCKED: BRANCH  39  40
DOCKED: ATOM     40  C   UNL d   1      -2.774   3.571 -17.543 -0.12 +0.10    +0.115 C 
DOCKED: BRANCH  40  41
DOCKED: ATOM     41  C   UNL d   1      -2.693   2.072 -17.742 -0.15 +0.19    +0.139 C 
DOCKED: ATOM     42  O   UNL d   1      -1.814   1.440 -17.174 +0.02 -1.10    -0.650 OA
DOCKED: BRANCH  41  43
DOCKED: ATOM     43  O   UNL d   1      -3.619   1.401 -18.462 +0.06 -1.46    -0.776 OA
DOCKED: ATOM     44  H   UNL d   1      -4.003   1.756 -19.274 +0.02 +0.31    +0.167 HD
DOCKED: ENDBRANCH  41  43
DOCKED: ENDBRANCH  40  41
DOCKED: ENDBRANCH  39  40
DOCKED: ENDBRANCH  22  39
DOCKED: BRANCH  12  45
DOCKED: ATOM     45  C   UNL d   1      -8.112  14.048 -19.095 -0.04 -0.00    +0.004 C 
DOCKED: ATOM     46  C   UNL d   1      -8.419  14.848 -18.078 -0.04 -0.00    +0.012 C 
DOCKED: ENDBRANCH  12  45
DOCKED: BRANCH  17  47
DOCKED: ATOM     47  C   UNL d   1      -1.632  11.537 -15.519 -0.03 -0.00    +0.004 C 
DOCKED: ATOM     48  C   UNL d   1      -1.388  11.208 -14.248 -0.03 -0.00    +0.012 C 
DOCKED: ENDBRANCH  17  47
DOCKED: TORSDOF 12
DOCKED: TER
DOCKED: ENDMDL
________________________________________________________________________________


	BEGINNING GENETIC ALGORITHM DOCKING 10 of 100
Run: 10 Seed: 1819312458 808833707 [ Run 10 of 100 GA/GALS ]
Beginning LAMARCKIAN GENETIC ALGORITHM (LGA), with a maximum of 25000000 energy evaluations.

Final-Value: -10.317


	FINAL GENETIC ALGORITHM DOCKED STATE
	_______________________________________________


Detailed state:  trans -13.310 1.064 12.704 quatxyzw 0.463812 -0.569728 0.579809 -0.352293 center 8.781 34.984 -0.736 ntor 12 10.7744 89.1849 -150.3538 95.4459 136.9917 93.2586 179.8092 123.7695 75.5086 147.6048 -168.1650 166.9280
State:	-13.310   1.064  12.704   0.496 -0.609  0.620 -138.745     10.77   89.18 -150.35   95.45  136.99   93.26  179.81  123.77   75.51  147.60 -168.16  166.93

DOCKED: MODEL       10
DOCKED: USER    Run = 10
DOCKED: USER    DPF = D:/Protein_go_brrr/autodock/final/mut_D99N/heme_Co/dock.dpf
DOCKED: USER  
DOCKED: USER    Estimated Free Energy of Binding    =   -4.63 kcal/mol  [=(1)+(2)+(3)-(4)]
DOCKED: USER    Estimated Inhibition Constant, Ki   =  406.56 uM (micromolar)  [Temperature = 298.15 K]
DOCKED: USER    
DOCKED: USER    (1) Final Intermolecular Energy     =   -8.21 kcal/mol
DOCKED: USER        vdW + Hbond + desolv Energy     =   -6.33 kcal/mol
DOCKED: USER        Electrostatic Energy            =   -1.87 kcal/mol
DOCKED: USER    (2) Final Total Internal Energy     =   -2.11 kcal/mol
DOCKED: USER    (3) Torsional Free Energy           =   +3.58 kcal/mol
DOCKED: USER    (4) Unbound System's Energy  [=(2)] =   -2.11 kcal/mol
DOCKED: USER    
DOCKED: USER    
DOCKED: USER    NEWDPF move heme_Co_opt.pdbqt
DOCKED: USER    NEWDPF about 8.781000 34.984000 -0.736000
DOCKED: USER    NEWDPF tran0 -13.310272 1.063549 12.704373
DOCKED: USER    NEWDPF quaternion0 0.463812 -0.569728 0.579809 -0.352293
DOCKED: USER    NEWDPF axisangle0 0.495584 -0.608755 0.619527 -138.744793
DOCKED: USER    NEWDPF quat0 0.495584 -0.608755 0.619527 -138.744793
DOCKED: USER    NEWDPF dihe0 10.77 89.18 -150.35 95.45 136.99 93.26 179.81 123.77 75.51 147.60 -168.16 166.93 
DOCKED: USER  keepresnum = 1 
DOCKED: USER  
DOCKED: REMARK  12 active torsions:
DOCKED: REMARK  status: ('A' for Active; 'I' for Inactive)
DOCKED: REMARK    1  A    between atoms: C_6  and  C_10 
DOCKED: REMARK    2  A    between atoms: C_10  and  C_11 
DOCKED: REMARK    3  A    between atoms: C_11  and  C_12 
DOCKED: REMARK    4  A    between atoms: C_12  and  O_14 
DOCKED: REMARK    5  A    between atoms: C_17  and  C_20 
DOCKED: REMARK    6  A    between atoms: C_24  and  C_27 
DOCKED: REMARK    7  A    between atoms: C_31  and  C_34 
DOCKED: REMARK    8  A    between atoms: C_34  and  C_35 
DOCKED: REMARK    9  A    between atoms: C_35  and  C_36 
DOCKED: REMARK   10  A    between atoms: C_36  and  O_38 
DOCKED: REMARK   11  A    between atoms: FE_43  and  C_44 
DOCKED: REMARK   12  A    between atoms: C_44  and  O_45 
DOCKED: USER                              x       y       z     vdW  Elec       q    Type
DOCKED: USER                           _______ _______ _______ _____ _____    ______ ____
DOCKED: ROOT
DOCKED: ATOM      1  C   UNL d   1     -13.272   2.084  10.788 -0.21 +0.02    +0.064 A 
DOCKED: ATOM      2  C   UNL d   1     -10.674  -1.482  12.562 -0.34 +0.02    +0.064 C 
DOCKED: ATOM      3  C   UNL d   1     -12.860  -1.023  16.786 -0.09 +0.02    +0.064 A 
DOCKED: ATOM      4  C   UNL d   1     -15.793   2.361  14.885 -0.08 +0.05    +0.064 A 
DOCKED: ATOM      5  C   UNL d   1     -12.376   1.100  10.973 -0.23 +0.02    +0.066 A 
DOCKED: ATOM      6  C   UNL d   1     -11.572   0.614   9.923 -0.30 -0.01    -0.021 A 
DOCKED: ATOM      7  C   UNL d   1     -10.837  -0.436  10.438 -0.39 -0.01    -0.025 A 
DOCKED: ATOM      8  C   UNL d   1     -11.211  -0.535  11.783 -0.28 +0.02    +0.066 A 
DOCKED: ATOM      9  C   UNL d   1      -9.818  -1.322   9.705 -0.29 +0.01    +0.051 C 
DOCKED: ATOM     10  C   UNL d   1     -10.978  -1.644  13.962 -0.22 +0.02    +0.066 A 
DOCKED: ATOM     11  C   UNL d   1     -10.347  -2.526  14.866 -0.26 -0.01    -0.021 A 
DOCKED: ATOM     12  C   UNL d   1     -11.001  -2.368  16.091 -0.17 +0.00    +0.000 A 
DOCKED: ATOM     13  C   UNL d   1     -11.972  -1.396  15.847 -0.13 +0.03    +0.070 A 
DOCKED: ATOM     14  C   UNL d   1      -9.139  -3.381  14.581 -0.24 +0.01    +0.052 C 
DOCKED: ATOM     15  C   UNL d   1     -13.956  -0.078  16.691 -0.07 +0.03    +0.066 A 
DOCKED: ATOM     16  C   UNL d   1     -14.927   0.154  17.654 -0.04 -0.01    -0.021 A 
DOCKED: ATOM     17  C   UNL d   1     -15.777   1.128  17.110 -0.05 +0.00    +0.000 A 
DOCKED: ATOM     18  C   UNL d   1     -15.245   1.426  15.859 -0.06 +0.05    +0.070 A 
DOCKED: ATOM     19  C   UNL d   1     -15.010  -0.530  19.000 -0.01 +0.01    +0.052 C 
DOCKED: ATOM     20  C   UNL d   1     -15.343   2.603  13.631 -0.12 +0.05    +0.066 A 
DOCKED: ATOM     21  C   UNL d   1     -15.976   3.500  12.774 -0.12 -0.01    -0.025 A 
DOCKED: ATOM     22  C   UNL d   1     -15.254   3.463  11.595 -0.15 -0.01    -0.021 A 
DOCKED: ATOM     23  C   UNL d   1     -14.215   2.528  11.789 -0.20 +0.03    +0.066 A 
DOCKED: ATOM     24  C   UNL d   1     -17.221   4.337  13.056 -0.06 +0.02    +0.051 C 
DOCKED: ATOM     25  N   UNL d   1     -12.159   0.408  12.143 -0.16 -0.11    -0.248 N 
DOCKED: ATOM     26  N   UNL d   1     -11.920  -0.919  14.575 -0.10 -0.11    -0.248 N 
DOCKED: ATOM     27  N   UNL d   1     -14.178   0.667  15.631 -0.05 -0.19    -0.248 N 
DOCKED: ATOM     28  N   UNL d   1     -14.266   2.004  13.019 -0.12 -0.18    -0.248 N 
DOCKED: ATOM     29 FE   UNL d   1     -13.230   0.548  13.989 -0.05 +0.00    +0.000 Fe
DOCKED: ENDROOT
DOCKED: BRANCH   6  30
DOCKED: ATOM     30  C   UNL d   1     -11.580   1.092   8.475 -0.28 +0.02    +0.052 C 
DOCKED: BRANCH  30  31
DOCKED: ATOM     31  C   UNL d   1     -12.688   0.395   7.686 -0.16 +0.05    +0.115 C 
DOCKED: BRANCH  31  32
DOCKED: ATOM     32  C   UNL d   1     -12.148  -0.652   6.735 -0.19 +0.12    +0.139 C 
DOCKED: ATOM     33  O   UNL d   1     -11.362  -1.491   7.148 -0.51 -0.53    -0.650 OA
DOCKED: BRANCH  32  34
DOCKED: ATOM     34  O   UNL d   1     -12.545  -0.720   5.443 -0.28 -1.35    -0.776 OA
DOCKED: ATOM     35  H   UNL d   1     -13.116  -0.068   5.014 +0.03 +0.23    +0.167 HD
DOCKED: ENDBRANCH  32  34
DOCKED: ENDBRANCH  31  32
DOCKED: ENDBRANCH  30  31
DOCKED: ENDBRANCH   6  30
DOCKED: BRANCH  29  36
DOCKED: ATOM     36  C   UNL d   1     -14.521  -0.914  13.221 -0.04 +0.06    +0.190 C 
DOCKED: BRANCH  36  37
DOCKED: ATOM     37  O   UNL d   1     -15.422  -1.171  12.182 +0.00 -0.09    -0.399 OA
DOCKED: ATOM     38  H   UNL d   1     -15.730  -0.271  11.882 +0.02 +0.05    +0.209 HD
DOCKED: ENDBRANCH  36  37
DOCKED: ENDBRANCH  29  36
DOCKED: BRANCH  22  39
DOCKED: ATOM     39  C   UNL d   1     -15.590   4.236  10.333 -0.07 +0.02    +0.052 C 
DOCKED: BRANCH  39  40
DOCKED: ATOM     40  C   UNL d   1     -16.486   3.399   9.406 -0.04 +0.03    +0.115 C 
DOCKED: BRANCH  40  41
DOCKED: ATOM     41  C   UNL d   1     -16.143   1.924   9.369 -0.01 +0.03    +0.139 C 
DOCKED: ATOM     42  O   UNL d   1     -15.454   1.493   8.456 +0.03 -0.17    -0.650 OA
DOCKED: BRANCH  41  43
DOCKED: ATOM     43  O   UNL d   1     -16.505   1.086  10.365 +0.03 -0.17    -0.776 OA
DOCKED: ATOM     44  H   UNL d   1     -15.947   0.353  10.656 +0.01 +0.04    +0.167 HD
DOCKED: ENDBRANCH  41  43
DOCKED: ENDBRANCH  40  41
DOCKED: ENDBRANCH  39  40
DOCKED: ENDBRANCH  22  39
DOCKED: BRANCH  12  45
DOCKED: ATOM     45  C   UNL d   1     -10.810  -3.007  17.460 -0.12 +0.00    +0.004 C 
DOCKED: ATOM     46  C   UNL d   1     -10.014  -2.668  18.470 -0.14 +0.00    +0.012 C 
DOCKED: ENDBRANCH  12  45
DOCKED: BRANCH  17  47
DOCKED: ATOM     47  C   UNL d   1     -17.030   1.720  17.667 -0.01 +0.00    +0.004 C 
DOCKED: ATOM     48  C   UNL d   1     -17.153   3.008  17.997 -0.01 +0.00    +0.012 C 
DOCKED: ENDBRANCH  17  47
DOCKED: TORSDOF 12
DOCKED: TER
DOCKED: ENDMDL
________________________________________________________________________________


	BEGINNING GENETIC ALGORITHM DOCKING 11 of 100
Run: 11 Seed: 1045040576 613693286 [ Run 11 of 100 GA/GALS ]
Beginning LAMARCKIAN GENETIC ALGORITHM (LGA), with a maximum of 25000000 energy evaluations.

Final-Value: -9.319


	FINAL GENETIC ALGORITHM DOCKED STATE
	_______________________________________________


Detailed state:  trans -1.206 17.413 9.756 quatxyzw 0.133808 -0.811129 -0.551986 -0.139557 center 8.781 34.984 -0.736 ntor 12 -162.9417 100.4839 166.7446 -107.7972 133.6136 133.4623 42.0291 124.0009 150.3912 -118.3946 -150.6667 -44.9905
State:	 -1.206  17.413   9.756   0.135 -0.819 -0.557 -163.956   -162.94  100.48  166.74 -107.80  133.61  133.46   42.03  124.00  150.39 -118.39 -150.67  -44.99

DOCKED: MODEL       11
DOCKED: USER    Run = 11
DOCKED: USER    DPF = D:/Protein_go_brrr/autodock/final/mut_D99N/heme_Co/dock.dpf
DOCKED: USER  
DOCKED: USER    Estimated Free Energy of Binding    =   -3.45 kcal/mol  [=(1)+(2)+(3)-(4)]
DOCKED: USER    Estimated Inhibition Constant, Ki   =    2.97 mM (millimolar)  [Temperature = 298.15 K]
DOCKED: USER    
DOCKED: USER    (1) Final Intermolecular Energy     =   -7.03 kcal/mol
DOCKED: USER        vdW + Hbond + desolv Energy     =   -7.11 kcal/mol
DOCKED: USER        Electrostatic Energy            =   +0.08 kcal/mol
DOCKED: USER    (2) Final Total Internal Energy     =   -2.29 kcal/mol
DOCKED: USER    (3) Torsional Free Energy           =   +3.58 kcal/mol
DOCKED: USER    (4) Unbound System's Energy  [=(2)] =   -2.29 kcal/mol
DOCKED: USER    
DOCKED: USER    
DOCKED: USER    NEWDPF move heme_Co_opt.pdbqt
DOCKED: USER    NEWDPF about 8.781000 34.984000 -0.736000
DOCKED: USER    NEWDPF tran0 -1.206114 17.413127 9.755699
DOCKED: USER    NEWDPF quaternion0 0.133808 -0.811129 -0.551986 -0.139557
DOCKED: USER    NEWDPF axisangle0 0.135130 -0.819145 -0.557441 -163.955519
DOCKED: USER    NEWDPF quat0 0.135130 -0.819145 -0.557441 -163.955519
DOCKED: USER    NEWDPF dihe0 -162.94 100.48 166.74 -107.80 133.61 133.46 42.03 124.00 150.39 -118.39 -150.67 -44.99 
DOCKED: USER  keepresnum = 1 
DOCKED: USER  
DOCKED: REMARK  12 active torsions:
DOCKED: REMARK  status: ('A' for Active; 'I' for Inactive)
DOCKED: REMARK    1  A    between atoms: C_6  and  C_10 
DOCKED: REMARK    2  A    between atoms: C_10  and  C_11 
DOCKED: REMARK    3  A    between atoms: C_11  and  C_12 
DOCKED: REMARK    4  A    between atoms: C_12  and  O_14 
DOCKED: REMARK    5  A    between atoms: C_17  and  C_20 
DOCKED: REMARK    6  A    between atoms: C_24  and  C_27 
DOCKED: REMARK    7  A    between atoms: C_31  and  C_34 
DOCKED: REMARK    8  A    between atoms: C_34  and  C_35 
DOCKED: REMARK    9  A    between atoms: C_35  and  C_36 
DOCKED: REMARK   10  A    between atoms: C_36  and  O_38 
DOCKED: REMARK   11  A    between atoms: FE_43  and  C_44 
DOCKED: REMARK   12  A    between atoms: C_44  and  O_45 
DOCKED: USER                              x       y       z     vdW  Elec       q    Type
DOCKED: USER                           _______ _______ _______ _____ _____    ______ ____
DOCKED: ROOT
DOCKED: ATOM      1  C   UNL d   1       0.871  17.579  10.368 -0.04 +0.00    +0.064 A 
DOCKED: ATOM      2  C   UNL d   1      -1.524  19.373   6.672 -0.17 +0.01    +0.064 C 
DOCKED: ATOM      3  C   UNL d   1      -5.424  16.937   7.969 -0.27 +0.00    +0.064 A 
DOCKED: ATOM      4  C   UNL d   1      -3.117  15.396  11.965 -0.06 -0.02    +0.064 A 
DOCKED: ATOM      5  C   UNL d   1       0.514  18.220   9.242 -0.13 +0.00    +0.066 A 
DOCKED: ATOM      6  C   UNL d   1       1.382  19.112   8.583 -0.12 -0.00    -0.021 A 
DOCKED: ATOM      7  C   UNL d   1       0.674  19.647   7.525 -0.12 -0.00    -0.025 A 
DOCKED: ATOM      8  C   UNL d   1      -0.589  19.046   7.573 -0.18 +0.01    +0.066 A 
DOCKED: ATOM      9  C   UNL d   1       1.154  20.685   6.499 -0.07 +0.00    +0.051 C 
DOCKED: ATOM     10  C   UNL d   1      -2.841  18.789   6.627 -0.14 +0.01    +0.066 A 
DOCKED: ATOM     11  C   UNL d   1      -3.817  18.984   5.626 -0.16 -0.00    -0.021 A 
DOCKED: ATOM     12  C   UNL d   1      -4.943  18.259   6.028 -0.24 +0.00    +0.000 A 
DOCKED: ATOM     13  C   UNL d   1      -4.567  17.667   7.233 -0.23 +0.01    +0.070 A 
DOCKED: ATOM     14  C   UNL d   1      -3.632  19.738   4.335 -0.13 +0.01    +0.052 C 
DOCKED: ATOM     15  C   UNL d   1      -5.222  16.300   9.255 -0.27 -0.00    +0.066 A 
DOCKED: ATOM     16  C   UNL d   1      -6.193  15.682  10.030 -0.26 +0.00    -0.021 A 
DOCKED: ATOM     17  C   UNL d   1      -5.533  15.238  11.185 -0.24 -0.00    +0.000 A 
DOCKED: ATOM     18  C   UNL d   1      -4.203  15.606  11.015 -0.22 -0.02    +0.070 A 
DOCKED: ATOM     19  C   UNL d   1      -7.653  15.544   9.660 -0.30 -0.01    +0.052 C 
DOCKED: ATOM     20  C   UNL d   1      -1.836  15.821  11.859 -0.19 -0.01    +0.066 A 
DOCKED: ATOM     21  C   UNL d   1      -0.891  15.587  12.857 -0.24 +0.01    -0.025 A 
DOCKED: ATOM     22  C   UNL d   1       0.276  16.180  12.411 -0.17 +0.00    -0.021 A 
DOCKED: ATOM     23  C   UNL d   1      -0.020  16.761  11.159 -0.06 -0.00    +0.066 A 
DOCKED: ATOM     24  C   UNL d   1      -1.095  14.853  14.179 -0.26 -0.01    +0.051 C 
DOCKED: ATOM     25  N   UNL d   1      -0.714  18.153   8.624 -0.16 -0.01    -0.248 N 
DOCKED: ATOM     26  N   UNL d   1      -3.278  17.942   7.566 -0.15 -0.02    -0.248 N 
DOCKED: ATOM     27  N   UNL d   1      -4.060  16.263   9.869 -0.17 +0.03    -0.248 N 
DOCKED: ATOM     28  N   UNL d   1      -1.298  16.547  10.823 -0.13 +0.02    -0.248 N 
DOCKED: ATOM     29 FE   UNL d   1      -2.484  17.150   9.286 -0.05 -0.00    +0.000 Fe
DOCKED: ENDROOT
DOCKED: BRANCH   6  30
DOCKED: ATOM     30  C   UNL d   1       2.797  19.487   9.010 -0.08 +0.00    +0.052 C 
DOCKED: BRANCH  30  31
DOCKED: ATOM     31  C   UNL d   1       2.773  20.261  10.328 -0.02 -0.00    +0.115 C 
DOCKED: BRANCH  31  32
DOCKED: ATOM     32  C   UNL d   1       1.520  21.095  10.485 -0.01 -0.00    +0.139 C 
DOCKED: ATOM     33  O   UNL d   1       1.494  22.230  10.034 +0.00 +0.00    -0.650 OA
DOCKED: BRANCH  32  34
DOCKED: ATOM     34  O   UNL d   1       0.402  20.606  11.070 +0.01 +0.01    -0.776 OA
DOCKED: ATOM     35  H   UNL d   1      -0.464  21.035  11.031 +0.01 -0.00    +0.167 HD
DOCKED: ENDBRANCH  32  34
DOCKED: ENDBRANCH  31  32
DOCKED: ENDBRANCH  30  31
DOCKED: ENDBRANCH   6  30
DOCKED: BRANCH  29  36
DOCKED: ATOM     36  C   UNL d   1      -2.962  18.913  10.316 -0.03 -0.01    +0.190 C 
DOCKED: BRANCH  36  37
DOCKED: ATOM     37  O   UNL d   1      -2.403  20.081  10.845 +0.00 +0.01    -0.399 OA
DOCKED: ATOM     38  H   UNL d   1      -1.418  19.922  10.832 +0.02 -0.00    +0.209 HD
DOCKED: ENDBRANCH  36  37
DOCKED: ENDBRANCH  29  36
DOCKED: BRANCH  22  39
DOCKED: ATOM     39  C   UNL d   1       1.583  16.239  13.180 -0.13 -0.01    +0.052 C 
DOCKED: BRANCH  39  40
DOCKED: ATOM     40  C   UNL d   1       2.054  14.825  13.558 -0.22 -0.02    +0.115 C 
DOCKED: BRANCH  40  41
DOCKED: ATOM     41  C   UNL d   1       2.206  13.882  12.383 -0.32 -0.02    +0.139 C 
DOCKED: ATOM     42  O   UNL d   1       1.304  13.099  12.124 -0.19 +0.07    -0.650 OA
DOCKED: BRANCH  41  43
DOCKED: ATOM     43  O   UNL d   1       3.276  13.941  11.559 +0.04 +0.12    -0.776 OA
DOCKED: ATOM     44  H   UNL d   1       3.434  13.287  10.866 -0.26 -0.06    +0.167 HD
DOCKED: ENDBRANCH  41  43
DOCKED: ENDBRANCH  40  41
DOCKED: ENDBRANCH  39  40
DOCKED: ENDBRANCH  22  39
DOCKED: BRANCH  12  45
DOCKED: ATOM     45  C   UNL d   1      -6.316  18.044   5.405 -0.16 +0.00    +0.004 C 
DOCKED: ATOM     46  C   UNL d   1      -7.526  18.391   5.835 -0.17 +0.00    +0.012 C 
DOCKED: ENDBRANCH  12  45
DOCKED: BRANCH  17  47
DOCKED: ATOM     47  C   UNL d   1      -6.083  14.563  12.398 -0.25 -0.00    +0.004 C 
DOCKED: ATOM     48  C   UNL d   1      -5.815  13.296  12.722 -0.40 -0.00    +0.012 C 
DOCKED: ENDBRANCH  17  47
DOCKED: TORSDOF 12
DOCKED: TER
DOCKED: ENDMDL
________________________________________________________________________________


	BEGINNING GENETIC ALGORITHM DOCKING 12 of 100
Run: 12 Seed: 1587688864 1699161708 [ Run 12 of 100 GA/GALS ]
Beginning LAMARCKIAN GENETIC ALGORITHM (LGA), with a maximum of 25000000 energy evaluations.

Final-Value: -9.304


	FINAL GENETIC ALGORITHM DOCKED STATE
	_______________________________________________


Detailed state:  trans -8.003 7.021 20.882 quatxyzw 0.608361 -0.075299 0.402538 -0.679846 center 8.781 34.984 -0.736 ntor 12 -43.6500 120.5298 69.0876 -7.4176 135.6704 77.4416 -156.0952 -69.5976 -24.4929 139.3607 -142.4360 177.6337
State:	 -8.003   7.021  20.882   0.830 -0.103  0.549 -94.337    -43.65  120.53   69.09   -7.42  135.67   77.44 -156.10  -69.60  -24.49  139.36 -142.44  177.63

DOCKED: MODEL       12
DOCKED: USER    Run = 12
DOCKED: USER    DPF = D:/Protein_go_brrr/autodock/final/mut_D99N/heme_Co/dock.dpf
DOCKED: USER  
DOCKED: USER    Estimated Free Energy of Binding    =   -3.18 kcal/mol  [=(1)+(2)+(3)-(4)]
DOCKED: USER    Estimated Inhibition Constant, Ki   =    4.64 mM (millimolar)  [Temperature = 298.15 K]
DOCKED: USER    
DOCKED: USER    (1) Final Intermolecular Energy     =   -6.76 kcal/mol
DOCKED: USER        vdW + Hbond + desolv Energy     =   -5.56 kcal/mol
DOCKED: USER        Electrostatic Energy            =   -1.20 kcal/mol
DOCKED: USER    (2) Final Total Internal Energy     =   -2.54 kcal/mol
DOCKED: USER    (3) Torsional Free Energy           =   +3.58 kcal/mol
DOCKED: USER    (4) Unbound System's Energy  [=(2)] =   -2.54 kcal/mol
DOCKED: USER    
DOCKED: USER    
DOCKED: USER    NEWDPF move heme_Co_opt.pdbqt
DOCKED: USER    NEWDPF about 8.781000 34.984000 -0.736000
DOCKED: USER    NEWDPF tran0 -8.003114 7.021080 20.881978
DOCKED: USER    NEWDPF quaternion0 0.608361 -0.075299 0.402538 -0.679846
DOCKED: USER    NEWDPF axisangle0 0.829558 -0.102677 0.548900 -94.336790
DOCKED: USER    NEWDPF quat0 0.829558 -0.102677 0.548900 -94.336790
DOCKED: USER    NEWDPF dihe0 -43.65 120.53 69.09 -7.42 135.67 77.44 -156.10 -69.60 -24.49 139.36 -142.44 177.63 
DOCKED: USER  keepresnum = 1 
DOCKED: USER  
DOCKED: REMARK  12 active torsions:
DOCKED: REMARK  status: ('A' for Active; 'I' for Inactive)
DOCKED: REMARK    1  A    between atoms: C_6  and  C_10 
DOCKED: REMARK    2  A    between atoms: C_10  and  C_11 
DOCKED: REMARK    3  A    between atoms: C_11  and  C_12 
DOCKED: REMARK    4  A    between atoms: C_12  and  O_14 
DOCKED: REMARK    5  A    between atoms: C_17  and  C_20 
DOCKED: REMARK    6  A    between atoms: C_24  and  C_27 
DOCKED: REMARK    7  A    between atoms: C_31  and  C_34 
DOCKED: REMARK    8  A    between atoms: C_34  and  C_35 
DOCKED: REMARK    9  A    between atoms: C_35  and  C_36 
DOCKED: REMARK   10  A    between atoms: C_36  and  O_38 
DOCKED: REMARK   11  A    between atoms: FE_43  and  C_44 
DOCKED: REMARK   12  A    between atoms: C_44  and  O_45 
DOCKED: USER                              x       y       z     vdW  Elec       q    Type
DOCKED: USER                           _______ _______ _______ _____ _____    ______ ____
DOCKED: ROOT
DOCKED: ATOM      1  C   UNL d   1      -9.937   6.862  19.907 -0.09 +0.02    +0.064 A 
DOCKED: ATOM      2  C   UNL d   1      -5.954   4.291  19.542 -0.36 -0.00    +0.064 C 
DOCKED: ATOM      3  C   UNL d   1      -3.686   7.321  22.458 -0.03 -0.05    +0.064 A 
DOCKED: ATOM      4  C   UNL d   1      -7.845   9.745  23.153 -0.05 -0.01    +0.064 A 
DOCKED: ATOM      5  C   UNL d   1      -9.005   5.957  19.565 -0.19 +0.02    +0.066 A 
DOCKED: ATOM      6  C   UNL d   1      -9.307   4.842  18.759 -0.27 -0.01    -0.021 A 
DOCKED: ATOM      7  C   UNL d   1      -8.154   4.087  18.675 -0.34 -0.00    -0.025 A 
DOCKED: ATOM      8  C   UNL d   1      -7.194   4.782  19.419 -0.30 +0.00    +0.066 A 
DOCKED: ATOM      9  C   UNL d   1      -7.948   2.761  17.928 -0.38 +0.01    +0.051 C 
DOCKED: ATOM     10  C   UNL d   1      -4.894   4.948  20.264 -0.26 -0.01    +0.066 A 
DOCKED: ATOM     11  C   UNL d   1      -3.538   4.556  20.314 -0.33 +0.00    -0.021 A 
DOCKED: ATOM     12  C   UNL d   1      -2.899   5.459  21.168 -0.24 -0.00    +0.000 A 
DOCKED: ATOM     13  C   UNL d   1      -3.905   6.340  21.565 -0.17 -0.03    +0.070 A 
DOCKED: ATOM     14  C   UNL d   1      -2.899   3.449  19.516 -0.28 -0.01    +0.052 C 
DOCKED: ATOM     15  C   UNL d   1      -4.616   8.282  23.016 -0.02 -0.05    +0.066 A 
DOCKED: ATOM     16  C   UNL d   1      -4.357   9.177  24.044 -0.06 +0.01    -0.021 A 
DOCKED: ATOM     17  C   UNL d   1      -5.555   9.877  24.250 -0.06 -0.00    +0.000 A 
DOCKED: ATOM     18  C   UNL d   1      -6.448   9.363  23.316 -0.08 -0.03    +0.070 A 
DOCKED: ATOM     19  C   UNL d   1      -3.036   9.327  24.764 -0.05 -0.02    +0.052 C 
DOCKED: ATOM     20  C   UNL d   1      -8.756   9.200  22.312 -0.07 -0.01    +0.066 A 
DOCKED: ATOM     21  C   UNL d   1     -10.081   9.629  22.271 -0.03 +0.00    -0.025 A 
DOCKED: ATOM     22  C   UNL d   1     -10.701   8.835  21.324 -0.06 -0.00    -0.021 A 
DOCKED: ATOM     23  C   UNL d   1      -9.719   7.946  20.838 -0.11 +0.01    +0.066 A 
DOCKED: ATOM     24  C   UNL d   1     -10.730  10.728  23.108 -0.01 -0.00    +0.051 C 
DOCKED: ATOM     25  N   UNL d   1      -7.692   5.947  19.976 -0.16 -0.03    -0.248 N 
DOCKED: ATOM     26  N   UNL d   1      -5.098   6.063  20.974 -0.13 +0.06    -0.248 N 
DOCKED: ATOM     27  N   UNL d   1      -5.864   8.394  22.619 -0.04 +0.12    -0.248 N 
DOCKED: ATOM     28  N   UNL d   1      -8.541   8.162  21.435 -0.10 -0.00    -0.248 N 
DOCKED: ATOM     29 FE   UNL d   1      -6.727   7.245  21.376 -0.04 -0.00    +0.000 Fe
DOCKED: ENDROOT
DOCKED: BRANCH   6  30
DOCKED: ATOM     30  C   UNL d   1     -10.669   4.486  18.171 -0.26 +0.04    +0.052 C 
DOCKED: BRANCH  30  31
DOCKED: ATOM     31  C   UNL d   1     -11.708   4.329  19.280 -0.12 +0.07    +0.115 C 
DOCKED: BRANCH  31  32
DOCKED: ATOM     32  C   UNL d   1     -13.115   4.610  18.797 -0.09 +0.12    +0.139 C 
DOCKED: ATOM     33  O   UNL d   1     -13.685   3.788  18.096 -0.29 -1.01    -0.650 OA
DOCKED: BRANCH  32  34
DOCKED: ATOM     34  O   UNL d   1     -13.787   5.728  19.158 +0.04 -0.39    -0.776 OA
DOCKED: ATOM     35  H   UNL d   1     -13.854   6.053  20.066 +0.02 +0.05    +0.167 HD
DOCKED: ENDBRANCH  32  34
DOCKED: ENDBRANCH  31  32
DOCKED: ENDBRANCH  30  31
DOCKED: ENDBRANCH   6  30
DOCKED: BRANCH  29  36
DOCKED: ATOM     36  C   UNL d   1      -7.332   5.902  22.868 -0.02 -0.01    +0.190 C 
DOCKED: BRANCH  36  37
DOCKED: ATOM     37  O   UNL d   1      -8.437   5.503  23.626 +0.01 +0.01    -0.399 OA
DOCKED: ATOM     38  H   UNL d   1      -9.209   6.001  23.236 +0.02 +0.00    +0.209 HD
DOCKED: ENDBRANCH  36  37
DOCKED: ENDBRANCH  29  36
DOCKED: BRANCH  22  39
DOCKED: ATOM     39  C   UNL d   1     -12.173   8.889  20.958 -0.03 +0.00    +0.052 C 
DOCKED: BRANCH  39  40
DOCKED: ATOM     40  C   UNL d   1     -13.015   8.107  21.979 -0.00 +0.01    +0.115 C 
DOCKED: BRANCH  40  41
DOCKED: ATOM     41  C   UNL d   1     -12.460   6.744  22.333 +0.00 +0.01    +0.139 C 
DOCKED: ATOM     42  O   UNL d   1     -11.419   6.668  22.971 +0.01 -0.03    -0.650 OA
DOCKED: BRANCH  41  43
DOCKED: ATOM     43  O   UNL d   1     -13.129   5.606  22.040 +0.02 -0.10    -0.776 OA
DOCKED: ATOM     44  H   UNL d   1     -13.173   5.246  21.145 +0.01 +0.04    +0.167 HD
DOCKED: ENDBRANCH  41  43
DOCKED: ENDBRANCH  40  41
DOCKED: ENDBRANCH  39  40
DOCKED: ENDBRANCH  22  39
DOCKED: BRANCH  12  45
DOCKED: ATOM     45  C   UNL d   1      -1.457   5.602  21.637 -0.25 -0.00    +0.004 C 
DOCKED: ATOM     46  C   UNL d   1      -0.441   4.745  21.587 -0.28 -0.00    +0.012 C 
DOCKED: ENDBRANCH  12  45
DOCKED: BRANCH  17  47
DOCKED: ATOM     47  C   UNL d   1      -5.889  10.917  25.268 -0.02 -0.00    +0.004 C 
DOCKED: ATOM     48  C   UNL d   1      -6.162  12.188  24.962 -0.01 -0.00    +0.012 C 
DOCKED: ENDBRANCH  17  47
DOCKED: TORSDOF 12
DOCKED: TER
DOCKED: ENDMDL
________________________________________________________________________________


	BEGINNING GENETIC ALGORITHM DOCKING 13 of 100
Run: 13 Seed: 200037206 1966151602 [ Run 13 of 100 GA/GALS ]
Beginning LAMARCKIAN GENETIC ALGORITHM (LGA), with a maximum of 25000000 energy evaluations.

Final-Value: -9.533


	FINAL GENETIC ALGORITHM DOCKED STATE
	_______________________________________________


Detailed state:  trans -15.212 2.422 12.385 quatxyzw -0.948828 0.239885 0.193149 0.069821 center 8.781 34.984 -0.736 ntor 12 162.1194 116.7980 -33.5109 88.4604 153.5990 142.2256 -130.7877 -22.6021 -136.3263 145.3319 -178.4605 20.1751
State:	-15.212   2.422  12.385  -0.951  0.240  0.194 171.993    162.12  116.80  -33.51   88.46  153.60  142.23 -130.79  -22.60 -136.33  145.33 -178.46   20.18

DOCKED: MODEL       13
DOCKED: USER    Run = 13
DOCKED: USER    DPF = D:/Protein_go_brrr/autodock/final/mut_D99N/heme_Co/dock.dpf
DOCKED: USER  
DOCKED: USER    Estimated Free Energy of Binding    =   -3.63 kcal/mol  [=(1)+(2)+(3)-(4)]
DOCKED: USER    Estimated Inhibition Constant, Ki   =    2.20 mM (millimolar)  [Temperature = 298.15 K]
DOCKED: USER    
DOCKED: USER    (1) Final Intermolecular Energy     =   -7.21 kcal/mol
DOCKED: USER        vdW + Hbond + desolv Energy     =   -5.36 kcal/mol
DOCKED: USER        Electrostatic Energy            =   -1.84 kcal/mol
DOCKED: USER    (2) Final Total Internal Energy     =   -2.33 kcal/mol
DOCKED: USER    (3) Torsional Free Energy           =   +3.58 kcal/mol
DOCKED: USER    (4) Unbound System's Energy  [=(2)] =   -2.33 kcal/mol
DOCKED: USER    
DOCKED: USER    
DOCKED: USER    NEWDPF move heme_Co_opt.pdbqt
DOCKED: USER    NEWDPF about 8.781000 34.984000 -0.736000
DOCKED: USER    NEWDPF tran0 -15.212204 2.422437 12.385370
DOCKED: USER    NEWDPF quaternion0 -0.948828 0.239885 0.193149 0.069821
DOCKED: USER    NEWDPF axisangle0 -0.951149 0.240471 0.193622 171.992605
DOCKED: USER    NEWDPF quat0 -0.951149 0.240471 0.193622 171.992605
DOCKED: USER    NEWDPF dihe0 162.12 116.80 -33.51 88.46 153.60 142.23 -130.79 -22.60 -136.33 145.33 -178.46 20.18 
DOCKED: USER  keepresnum = 1 
DOCKED: USER  
DOCKED: REMARK  12 active torsions:
DOCKED: REMARK  status: ('A' for Active; 'I' for Inactive)
DOCKED: REMARK    1  A    between atoms: C_6  and  C_10 
DOCKED: REMARK    2  A    between atoms: C_10  and  C_11 
DOCKED: REMARK    3  A    between atoms: C_11  and  C_12 
DOCKED: REMARK    4  A    between atoms: C_12  and  O_14 
DOCKED: REMARK    5  A    between atoms: C_17  and  C_20 
DOCKED: REMARK    6  A    between atoms: C_24  and  C_27 
DOCKED: REMARK    7  A    between atoms: C_31  and  C_34 
DOCKED: REMARK    8  A    between atoms: C_34  and  C_35 
DOCKED: REMARK    9  A    between atoms: C_35  and  C_36 
DOCKED: REMARK   10  A    between atoms: C_36  and  O_38 
DOCKED: REMARK   11  A    between atoms: FE_43  and  C_44 
DOCKED: REMARK   12  A    between atoms: C_44  and  O_45 
DOCKED: USER                              x       y       z     vdW  Elec       q    Type
DOCKED: USER                           _______ _______ _______ _____ _____    ______ ____
DOCKED: ROOT
DOCKED: ATOM      1  C   UNL d   1     -16.654   2.953  13.920 -0.05 +0.03    +0.064 A 
DOCKED: ATOM      2  C   UNL d   1     -15.989   4.525   9.482 -0.07 +0.02    +0.064 C 
DOCKED: ATOM      3  C   UNL d   1     -12.067   1.825   9.074 -0.10 +0.02    +0.064 A 
DOCKED: ATOM      4  C   UNL d   1     -12.942  -0.086  13.461 -0.14 +0.03    +0.064 A 
DOCKED: ATOM      5  C   UNL d   1     -16.740   3.608  12.751 -0.06 +0.02    +0.066 A 
DOCKED: ATOM      6  C   UNL d   1     -17.819   4.462  12.450 -0.03 -0.00    -0.021 A 
DOCKED: ATOM      7  C   UNL d   1     -17.632   4.897  11.153 -0.04 -0.01    -0.025 A 
DOCKED: ATOM      8  C   UNL d   1     -16.440   4.304  10.724 -0.07 +0.02    +0.066 A 
DOCKED: ATOM      9  C   UNL d   1     -18.533   5.835  10.335 -0.02 +0.01    +0.051 C 
DOCKED: ATOM     10  C   UNL d   1     -14.760   3.979   8.962 -0.05 +0.02    +0.066 A 
DOCKED: ATOM     11  C   UNL d   1     -14.161   4.284   7.720 -0.12 -0.00    -0.021 A 
DOCKED: ATOM     12  C   UNL d   1     -13.017   3.486   7.629 -0.20 +0.00    +0.000 A 
DOCKED: ATOM     13  C   UNL d   1     -12.996   2.765   8.823 -0.16 +0.02    +0.070 A 
DOCKED: ATOM     14  C   UNL d   1     -14.615   5.340   6.746 -0.12 +0.01    +0.052 C 
DOCKED: ATOM     15  C   UNL d   1     -11.927   0.955  10.224 -0.22 +0.02    +0.066 A 
DOCKED: ATOM     16  C   UNL d   1     -11.030  -0.095  10.358 -0.38 -0.01    -0.021 A 
DOCKED: ATOM     17  C   UNL d   1     -11.280  -0.651  11.620 -0.31 +0.00    +0.000 A 
DOCKED: ATOM     18  C   UNL d   1     -12.302   0.117  12.167 -0.20 +0.03    +0.070 A 
DOCKED: ATOM     19  C   UNL d   1     -10.012  -0.515   9.321 -0.40 +0.02    +0.052 C 
DOCKED: ATOM     20  C   UNL d   1     -13.994   0.594  13.976 -0.09 +0.04    +0.066 A 
DOCKED: ATOM     21  C   UNL d   1     -14.544   0.282  15.217 -0.07 -0.01    -0.025 A 
DOCKED: ATOM     22  C   UNL d   1     -15.598   1.161  15.390 -0.07 -0.01    -0.021 A 
DOCKED: ATOM     23  C   UNL d   1     -15.647   1.964  14.230 -0.09 +0.04    +0.066 A 
DOCKED: ATOM     24  C   UNL d   1     -14.101  -0.813  16.184 -0.07 +0.02    +0.051 C 
DOCKED: ATOM     25  N   UNL d   1     -15.863   3.505  11.695 -0.07 -0.10    -0.248 N 
DOCKED: ATOM     26  N   UNL d   1     -14.019   3.105   9.651 -0.10 -0.09    -0.248 N 
DOCKED: ATOM     27  N   UNL d   1     -12.683   1.045  11.296 -0.14 -0.10    -0.248 N 
DOCKED: ATOM     28  N   UNL d   1     -14.679   1.622  13.371 -0.09 -0.16    -0.248 N 
DOCKED: ATOM     29 FE   UNL d   1     -14.179   2.201  11.487 -0.03 +0.00    +0.000 Fe
DOCKED: ENDROOT
DOCKED: BRANCH   6  30
DOCKED: ATOM     30  C   UNL d   1     -19.011   4.772  13.349 -0.01 +0.01    +0.052 C 
DOCKED: BRANCH  30  31
DOCKED: ATOM     31  C   UNL d   1     -20.182   3.843  13.027 +0.00 +0.01    +0.115 C 
DOCKED: BRANCH  31  32
DOCKED: ATOM     32  C   UNL d   1     -19.739   2.415  12.794 +0.00 +0.02    +0.139 C 
DOCKED: ATOM     33  O   UNL d   1     -19.852   1.596  13.694 +0.00 -0.08    -0.650 OA
DOCKED: BRANCH  32  34
DOCKED: ATOM     34  O   UNL d   1     -19.262   1.997  11.598 +0.01 -0.10    -0.776 OA
DOCKED: ATOM     35  H   UNL d   1     -18.700   1.220  11.478 +0.00 +0.02    +0.167 HD
DOCKED: ENDBRANCH  32  34
DOCKED: ENDBRANCH  31  32
DOCKED: ENDBRANCH  30  31
DOCKED: ENDBRANCH   6  30
DOCKED: BRANCH  29  36
DOCKED: ATOM     36  C   UNL d   1     -15.509   0.797  10.678 -0.01 +0.05    +0.190 C 
DOCKED: BRANCH  36  37
DOCKED: ATOM     37  O   UNL d   1     -16.869   0.517  10.513 +0.01 -0.08    -0.399 OA
DOCKED: ATOM     38  H   UNL d   1     -17.342   1.308  10.896 +0.01 +0.04    +0.209 HD
DOCKED: ENDBRANCH  36  37
DOCKED: ENDBRANCH  29  36
DOCKED: BRANCH  22  39
DOCKED: ATOM     39  C   UNL d   1     -16.544   1.179  16.576 -0.03 +0.02    +0.052 C 
DOCKED: BRANCH  39  40
DOCKED: ATOM     40  C   UNL d   1     -16.510   2.548  17.275 -0.04 +0.05    +0.115 C 
DOCKED: BRANCH  40  41
DOCKED: ATOM     41  C   UNL d   1     -15.129   3.158  17.389 +0.19 +0.16    +0.139 C 
DOCKED: ATOM     42  O   UNL d   1     -14.886   4.201  16.799 -0.28 -1.13    -0.650 OA
DOCKED: BRANCH  41  43
DOCKED: ATOM     43  O   UNL d   1     -14.183   2.629  18.195 -0.34 -0.80    -0.776 OA
DOCKED: ATOM     44  H   UNL d   1     -14.401   2.121  18.988 +0.01 +0.09    +0.167 HD
DOCKED: ENDBRANCH  41  43
DOCKED: ENDBRANCH  40  41
DOCKED: ENDBRANCH  39  40
DOCKED: ENDBRANCH  22  39
DOCKED: BRANCH  12  45
DOCKED: ATOM     45  C   UNL d   1     -11.938   3.337   6.565 -0.32 +0.00    +0.004 C 
DOCKED: ATOM     46  C   UNL d   1     -10.871   4.087   6.302 -0.45 +0.00    +0.012 C 
DOCKED: ENDBRANCH  12  45
DOCKED: BRANCH  17  47
DOCKED: ATOM     47  C   UNL d   1     -10.664  -1.843  12.277 -0.32 +0.00    +0.004 C 
DOCKED: ATOM     48  C   UNL d   1     -10.206  -1.839  13.531 -0.28 +0.00    +0.012 C 
DOCKED: ENDBRANCH  17  47
DOCKED: TORSDOF 12
DOCKED: TER
DOCKED: ENDMDL
________________________________________________________________________________


	BEGINNING GENETIC ALGORITHM DOCKING 14 of 100
Run: 14 Seed: 625270186 834665405 [ Run 14 of 100 GA/GALS ]
Beginning LAMARCKIAN GENETIC ALGORITHM (LGA), with a maximum of 25000000 energy evaluations.

Final-Value: -11.020


	FINAL GENETIC ALGORITHM DOCKED STATE
	_______________________________________________


Detailed state:  trans 2.137 0.116 -20.799 quatxyzw 0.761497 -0.279916 0.353526 -0.465605 center 8.781 34.984 -0.736 ntor 12 162.2950 118.9301 -40.9241 -140.1182 -99.1450 129.8443 -118.1418 -72.8822 -119.6840 -110.5291 178.6080 135.1763
State:	  2.137   0.116 -20.799   0.860 -0.316  0.399 -124.501    162.29  118.93  -40.92 -140.12  -99.14  129.84 -118.14  -72.88 -119.68 -110.53  178.61  135.18

DOCKED: MODEL       14
DOCKED: USER    Run = 14
DOCKED: USER    DPF = D:/Protein_go_brrr/autodock/final/mut_D99N/heme_Co/dock.dpf
DOCKED: USER  
DOCKED: USER    Estimated Free Energy of Binding    =   -4.13 kcal/mol  [=(1)+(2)+(3)-(4)]
DOCKED: USER    Estimated Inhibition Constant, Ki   =  937.22 uM (micromolar)  [Temperature = 298.15 K]
DOCKED: USER    
DOCKED: USER    (1) Final Intermolecular Energy     =   -7.71 kcal/mol
DOCKED: USER        vdW + Hbond + desolv Energy     =   -5.11 kcal/mol
DOCKED: USER        Electrostatic Energy            =   -2.60 kcal/mol
DOCKED: USER    (2) Final Total Internal Energy     =   -3.31 kcal/mol
DOCKED: USER    (3) Torsional Free Energy           =   +3.58 kcal/mol
DOCKED: USER    (4) Unbound System's Energy  [=(2)] =   -3.31 kcal/mol
DOCKED: USER    
DOCKED: USER    
DOCKED: USER    NEWDPF move heme_Co_opt.pdbqt
DOCKED: USER    NEWDPF about 8.781000 34.984000 -0.736000
DOCKED: USER    NEWDPF tran0 2.137183 0.116083 -20.799363
DOCKED: USER    NEWDPF quaternion0 0.761497 -0.279916 0.353526 -0.465605
DOCKED: USER    NEWDPF axisangle0 0.860456 -0.316292 0.399467 -124.501171
DOCKED: USER    NEWDPF quat0 0.860456 -0.316292 0.399467 -124.501171
DOCKED: USER    NEWDPF dihe0 162.29 118.93 -40.92 -140.12 -99.14 129.84 -118.14 -72.88 -119.68 -110.53 178.61 135.18 
DOCKED: USER  keepresnum = 1 
DOCKED: USER  
DOCKED: REMARK  12 active torsions:
DOCKED: REMARK  status: ('A' for Active; 'I' for Inactive)
DOCKED: REMARK    1  A    between atoms: C_6  and  C_10 
DOCKED: REMARK    2  A    between atoms: C_10  and  C_11 
DOCKED: REMARK    3  A    between atoms: C_11  and  C_12 
DOCKED: REMARK    4  A    between atoms: C_12  and  O_14 
DOCKED: REMARK    5  A    between atoms: C_17  and  C_20 
DOCKED: REMARK    6  A    between atoms: C_24  and  C_27 
DOCKED: REMARK    7  A    between atoms: C_31  and  C_34 
DOCKED: REMARK    8  A    between atoms: C_34  and  C_35 
DOCKED: REMARK    9  A    between atoms: C_35  and  C_36 
DOCKED: REMARK   10  A    between atoms: C_36  and  O_38 
DOCKED: REMARK   11  A    between atoms: FE_43  and  C_44 
DOCKED: REMARK   12  A    between atoms: C_44  and  O_45 
DOCKED: USER                              x       y       z     vdW  Elec       q    Type
DOCKED: USER                           _______ _______ _______ _____ _____    ______ ____
DOCKED: ROOT
DOCKED: ATOM      1  C   UNL d   1       0.376   0.871 -21.821 -0.03 +0.03    +0.064 A 
DOCKED: ATOM      2  C   UNL d   1       4.170  -1.550 -23.357 -0.06 +0.01    +0.064 C 
DOCKED: ATOM      3  C   UNL d   1       6.160  -1.254 -19.023 -0.06 +0.02    +0.064 A 
DOCKED: ATOM      4  C   UNL d   1       2.129   0.881 -17.333 -0.03 +0.03    +0.064 A 
DOCKED: ATOM      5  C   UNL d   1       1.282   0.219 -22.569 -0.03 +0.02    +0.066 A 
DOCKED: ATOM      6  C   UNL d   1       1.032  -0.131 -23.910 -0.02 -0.00    -0.021 A 
DOCKED: ATOM      7  C   UNL d   1       2.127  -0.853 -24.344 -0.02 -0.00    -0.025 A 
DOCKED: ATOM      8  C   UNL d   1       3.005  -0.898 -23.255 -0.03 +0.01    +0.066 A 
DOCKED: ATOM      9  C   UNL d   1       2.353  -1.484 -25.726 -0.01 +0.00    +0.051 C 
DOCKED: ATOM     10  C   UNL d   1       5.147  -1.627 -22.300 -0.10 +0.01    +0.066 A 
DOCKED: ATOM     11  C   UNL d   1       6.446  -2.174 -22.390 -0.13 -0.00    -0.021 A 
DOCKED: ATOM     12  C   UNL d   1       7.005  -2.071 -21.113 -0.14 +0.00    +0.000 A 
DOCKED: ATOM     13  C   UNL d   1       6.014  -1.460 -20.344 -0.10 +0.01    +0.070 A 
DOCKED: ATOM     14  C   UNL d   1       7.121  -2.667 -23.643 -0.10 +0.00    +0.052 C 
DOCKED: ATOM     15  C   UNL d   1       5.224  -0.687 -18.072 -0.21 +0.02    +0.066 A 
DOCKED: ATOM     16  C   UNL d   1       5.381  -0.636 -16.694 -0.30 -0.01    -0.021 A 
DOCKED: ATOM     17  C   UNL d   1       4.220  -0.023 -16.202 -0.29 +0.00    +0.000 A 
DOCKED: ATOM     18  C   UNL d   1       3.451   0.267 -17.324 -0.16 +0.02    +0.070 A 
DOCKED: ATOM     19  C   UNL d   1       6.579  -1.152 -15.928 -0.31 +0.02    +0.052 C 
DOCKED: ATOM     20  C   UNL d   1       1.326   1.094 -18.403 -0.08 +0.04    +0.066 A 
DOCKED: ATOM     21  C   UNL d   1       0.059   1.660 -18.280 -0.12 -0.02    -0.025 A 
DOCKED: ATOM     22  C   UNL d   1      -0.459   1.697 -19.562 -0.08 -0.02    -0.021 A 
DOCKED: ATOM     23  C   UNL d   1       0.522   1.135 -20.408 -0.07 +0.04    +0.066 A 
DOCKED: ATOM     24  C   UNL d   1      -0.634   2.126 -17.002 -0.20 +0.05    +0.051 C 
DOCKED: ATOM     25  N   UNL d   1       2.510  -0.237 -22.144 -0.01 -0.06    -0.248 N 
DOCKED: ATOM     26  N   UNL d   1       4.913  -1.141 -21.076 -0.07 -0.05    -0.248 N 
DOCKED: ATOM     27  N   UNL d   1       4.067  -0.169 -18.417 -0.12 -0.07    -0.248 N 
DOCKED: ATOM     28  N   UNL d   1       1.602   0.767 -19.710 -0.07 -0.13    -0.248 N 
DOCKED: ATOM     29 FE   UNL d   1       3.332  -0.199 -20.169 -0.03 +0.00    +0.000 Fe
DOCKED: ENDROOT
DOCKED: BRANCH   6  30
DOCKED: ATOM     30  C   UNL d   1      -0.241   0.150 -24.701 -0.01 +0.01    +0.052 C 
DOCKED: BRANCH  30  31
DOCKED: ATOM     31  C   UNL d   1      -1.158  -1.073 -24.695 -0.02 +0.02    +0.115 C 
DOCKED: BRANCH  31  32
DOCKED: ATOM     32  C   UNL d   1      -1.544  -1.498 -23.295 -0.06 +0.05    +0.139 C 
DOCKED: ATOM     33  O   UNL d   1      -2.704  -1.379 -22.929 +0.01 -0.26    -0.650 OA
DOCKED: BRANCH  32  34
DOCKED: ATOM     34  O   UNL d   1      -0.652  -2.055 -22.442 -0.01 -0.31    -0.776 OA
DOCKED: ATOM     35  H   UNL d   1      -0.751  -2.063 -21.480 +0.02 +0.11    +0.167 HD
DOCKED: ENDBRANCH  32  34
DOCKED: ENDBRANCH  31  32
DOCKED: ENDBRANCH  30  31
DOCKED: ENDBRANCH   6  30
DOCKED: BRANCH  29  36
DOCKED: ATOM     36  C   UNL d   1       2.402  -2.054 -19.868 -0.24 +0.07    +0.190 C 
DOCKED: BRANCH  36  37
DOCKED: ATOM     37  O   UNL d   1       1.339  -2.851 -20.304 -0.08 -0.21    -0.399 OA
DOCKED: ATOM     38  H   UNL d   1       0.944  -2.353 -21.073 +0.04 +0.10    +0.209 HD
DOCKED: ENDBRANCH  36  37
DOCKED: ENDBRANCH  29  36
DOCKED: BRANCH  22  39
DOCKED: ATOM     39  C   UNL d   1      -1.845   2.184 -19.937 -0.06 +0.04    +0.052 C 
DOCKED: BRANCH  39  40
DOCKED: ATOM     40  C   UNL d   1      -2.621   1.089 -20.688 -0.08 +0.11    +0.115 C 
DOCKED: BRANCH  40  41
DOCKED: ATOM     41  C   UNL d   1      -2.900  -0.152 -19.867 -0.09 +0.23    +0.139 C 
DOCKED: ATOM     42  O   UNL d   1      -3.636  -0.074 -18.893 -0.38 -1.43    -0.650 OA
DOCKED: BRANCH  41  43
DOCKED: ATOM     43  O   UNL d   1      -2.428  -1.365 -20.232 +0.20 -1.27    -0.776 OA
DOCKED: ATOM     44  H   UNL d   1      -2.341  -1.632 -21.156 +0.02 +0.15    +0.167 HD
DOCKED: ENDBRANCH  41  43
DOCKED: ENDBRANCH  40  41
DOCKED: ENDBRANCH  39  40
DOCKED: ENDBRANCH  22  39
DOCKED: BRANCH  12  45
DOCKED: ATOM     45  C   UNL d   1       8.361  -2.460 -20.539 -0.18 +0.00    +0.004 C 
DOCKED: ATOM     46  C   UNL d   1       8.700  -2.865 -19.318 -0.25 +0.00    +0.012 C 
DOCKED: ENDBRANCH  12  45
DOCKED: BRANCH  17  47
DOCKED: ATOM     47  C   UNL d   1       3.804   0.239 -14.792 -0.45 +0.00    +0.004 C 
DOCKED: ATOM     48  C   UNL d   1       2.684  -0.245 -14.251 -0.51 +0.00    +0.012 C 
DOCKED: ENDBRANCH  17  47
DOCKED: TORSDOF 12
DOCKED: TER
DOCKED: ENDMDL
________________________________________________________________________________


	BEGINNING GENETIC ALGORITHM DOCKING 15 of 100
Run: 15 Seed: 1106908377 995242531 [ Run 15 of 100 GA/GALS ]
Beginning LAMARCKIAN GENETIC ALGORITHM (LGA), with a maximum of 25000000 energy evaluations.

Final-Value: -9.384


	FINAL GENETIC ALGORITHM DOCKED STATE
	_______________________________________________


Detailed state:  trans 22.892 -5.199 2.196 quatxyzw 0.456722 0.713780 0.249700 0.468587 center 8.781 34.984 -0.736 ntor 12 176.6189 119.6602 57.0038 116.9633 -85.6555 138.6868 -126.7632 -153.4936 -138.5965 106.0374 -175.8259 16.5649
State:	 22.892  -5.199   2.196   0.517  0.808  0.283 124.115    176.62  119.66   57.00  116.96  -85.66  138.69 -126.76 -153.49 -138.60  106.04 -175.83   16.56

DOCKED: MODEL       15
DOCKED: USER    Run = 15
DOCKED: USER    DPF = D:/Protein_go_brrr/autodock/final/mut_D99N/heme_Co/dock.dpf
DOCKED: USER  
DOCKED: USER    Estimated Free Energy of Binding    =   -3.50 kcal/mol  [=(1)+(2)+(3)-(4)]
DOCKED: USER    Estimated Inhibition Constant, Ki   =    2.70 mM (millimolar)  [Temperature = 298.15 K]
DOCKED: USER    
DOCKED: USER    (1) Final Intermolecular Energy     =   -7.08 kcal/mol
DOCKED: USER        vdW + Hbond + desolv Energy     =   -5.50 kcal/mol
DOCKED: USER        Electrostatic Energy            =   -1.58 kcal/mol
DOCKED: USER    (2) Final Total Internal Energy     =   -2.30 kcal/mol
DOCKED: USER    (3) Torsional Free Energy           =   +3.58 kcal/mol
DOCKED: USER    (4) Unbound System's Energy  [=(2)] =   -2.30 kcal/mol
DOCKED: USER    
DOCKED: USER    
DOCKED: USER    NEWDPF move heme_Co_opt.pdbqt
DOCKED: USER    NEWDPF about 8.781000 34.984000 -0.736000
DOCKED: USER    NEWDPF tran0 22.891557 -5.199287 2.195503
DOCKED: USER    NEWDPF quaternion0 0.456722 0.713780 0.249700 0.468587
DOCKED: USER    NEWDPF axisangle0 0.516994 0.807975 0.282653 124.114790
DOCKED: USER    NEWDPF quat0 0.516994 0.807975 0.282653 124.114790
DOCKED: USER    NEWDPF dihe0 176.62 119.66 57.00 116.96 -85.66 138.69 -126.76 -153.49 -138.60 106.04 -175.83 16.56 
DOCKED: USER  keepresnum = 1 
DOCKED: USER  
DOCKED: REMARK  12 active torsions:
DOCKED: REMARK  status: ('A' for Active; 'I' for Inactive)
DOCKED: REMARK    1  A    between atoms: C_6  and  C_10 
DOCKED: REMARK    2  A    between atoms: C_10  and  C_11 
DOCKED: REMARK    3  A    between atoms: C_11  and  C_12 
DOCKED: REMARK    4  A    between atoms: C_12  and  O_14 
DOCKED: REMARK    5  A    between atoms: C_17  and  C_20 
DOCKED: REMARK    6  A    between atoms: C_24  and  C_27 
DOCKED: REMARK    7  A    between atoms: C_31  and  C_34 
DOCKED: REMARK    8  A    between atoms: C_34  and  C_35 
DOCKED: REMARK    9  A    between atoms: C_35  and  C_36 
DOCKED: REMARK   10  A    between atoms: C_36  and  O_38 
DOCKED: REMARK   11  A    between atoms: FE_43  and  C_44 
DOCKED: REMARK   12  A    between atoms: C_44  and  O_45 
DOCKED: USER                              x       y       z     vdW  Elec       q    Type
DOCKED: USER                           _______ _______ _______ _____ _____    ______ ____
DOCKED: ROOT
DOCKED: ATOM      1  C   UNL d   1      23.986  -6.446   0.795 -0.13 +0.02    +0.064 A 
DOCKED: ATOM      2  C   UNL d   1      19.802  -4.209   0.485 -0.32 -0.01    +0.064 C 
DOCKED: ATOM      3  C   UNL d   1      20.142  -2.862   5.057 -0.06 +0.00    +0.064 A 
DOCKED: ATOM      4  C   UNL d   1      24.593  -4.810   5.287 -0.06 +0.03    +0.064 A 
DOCKED: ATOM      5  C   UNL d   1      22.801  -5.965   0.385 -0.17 +0.01    +0.066 A 
DOCKED: ATOM      6  C   UNL d   1      22.362  -6.094  -0.947 -0.20 -0.00    -0.021 A 
DOCKED: ATOM      7  C   UNL d   1      21.158  -5.423  -1.037 -0.31 -0.00    -0.025 A 
DOCKED: ATOM      8  C   UNL d   1      20.906  -4.928   0.247 -0.27 +0.00    +0.066 A 
DOCKED: ATOM      9  C   UNL d   1      20.268  -5.246  -2.276 -0.25 +0.00    +0.051 C 
DOCKED: ATOM     10  C   UNL d   1      19.446  -3.681   1.779 -0.17 -0.00    +0.066 A 
DOCKED: ATOM     11  C   UNL d   1      18.237  -3.040   2.125 -0.25 +0.00    -0.021 A 
DOCKED: ATOM     12  C   UNL d   1      18.361  -2.661   3.464 -0.22 -0.00    +0.000 A 
DOCKED: ATOM     13  C   UNL d   1      19.628  -3.108   3.839 -0.13 +0.00    +0.070 A 
DOCKED: ATOM     14  C   UNL d   1      17.020  -2.896   1.247 -0.44 -0.01    +0.052 C 
DOCKED: ATOM     15  C   UNL d   1      21.446  -3.202   5.592 -0.04 +0.01    +0.066 A 
DOCKED: ATOM     16  C   UNL d   1      21.969  -2.791   6.809 -0.01 -0.00    -0.021 A 
DOCKED: ATOM     17  C   UNL d   1      23.254  -3.348   6.879 -0.02 +0.00    +0.000 A 
DOCKED: ATOM     18  C   UNL d   1      23.407  -4.072   5.701 -0.05 +0.02    +0.070 A 
DOCKED: ATOM     19  C   UNL d   1      21.258  -1.917   7.819 -0.00 +0.00    +0.052 C 
DOCKED: ATOM     20  C   UNL d   1      24.797  -5.449   4.110 -0.04 +0.04    +0.066 A 
DOCKED: ATOM     21  C   UNL d   1      25.996  -6.094   3.812 -0.05 -0.02    -0.025 A 
DOCKED: ATOM     22  C   UNL d   1      25.839  -6.600   2.534 -0.09 -0.01    -0.021 A 
DOCKED: ATOM     23  C   UNL d   1      24.547  -6.226   2.108 -0.09 +0.03    +0.066 A 
DOCKED: ATOM     24  C   UNL d   1      27.237  -6.205   4.692 -0.06 +0.03    +0.051 C 
DOCKED: ATOM     25  N   UNL d   1      21.905  -5.253   1.150 -0.14 -0.04    -0.248 N 
DOCKED: ATOM     26  N   UNL d   1      20.260  -3.774   2.836 -0.12 -0.01    -0.248 N 
DOCKED: ATOM     27  N   UNL d   1      22.323  -3.938   4.946 -0.04 -0.05    -0.248 N 
DOCKED: ATOM     28  N   UNL d   1      23.914  -5.527   3.058 -0.09 -0.11    -0.248 N 
DOCKED: ATOM     29 FE   UNL d   1      22.129  -4.558   3.160 -0.03 +0.00    +0.000 Fe
DOCKED: ENDROOT
DOCKED: BRANCH   6  30
DOCKED: ATOM     30  C   UNL d   1      23.115  -6.764  -2.092 -0.14 +0.01    +0.052 C 
DOCKED: BRANCH  30  31
DOCKED: ATOM     31  C   UNL d   1      23.969  -5.743  -2.843 -0.07 +0.01    +0.115 C 
DOCKED: BRANCH  31  32
DOCKED: ATOM     32  C   UNL d   1      24.632  -4.749  -1.913 -0.03 +0.01    +0.139 C 
DOCKED: ATOM     33  O   UNL d   1      25.821  -4.865  -1.658 +0.01 -0.06    -0.650 OA
DOCKED: BRANCH  32  34
DOCKED: ATOM     34  O   UNL d   1      23.958  -3.699  -1.388 +0.04 -0.06    -0.776 OA
DOCKED: ATOM     35  H   UNL d   1      24.316  -3.106  -0.713 +0.01 +0.01    +0.167 HD
DOCKED: ENDBRANCH  32  34
DOCKED: ENDBRANCH  31  32
DOCKED: ENDBRANCH  30  31
DOCKED: ENDBRANCH   6  30
DOCKED: BRANCH  29  36
DOCKED: ATOM     36  C   UNL d   1      22.994  -2.830   2.348 -0.02 +0.02    +0.190 C 
DOCKED: BRANCH  36  37
DOCKED: ATOM     37  O   UNL d   1      23.561  -2.312   1.179 +0.00 -0.03    -0.399 OA
DOCKED: ATOM     38  H   UNL d   1      23.426  -3.023   0.492 +0.02 +0.02    +0.209 HD
DOCKED: ENDBRANCH  36  37
DOCKED: ENDBRANCH  29  36
DOCKED: BRANCH  22  39
DOCKED: ATOM     39  C   UNL d   1      26.901  -7.345   1.747 -0.07 +0.02    +0.052 C 
DOCKED: BRANCH  39  40
DOCKED: ATOM     40  C   UNL d   1      26.439  -8.777   1.432 -0.09 +0.07    +0.115 C 
DOCKED: BRANCH  40  41
DOCKED: ATOM     41  C   UNL d   1      26.590  -9.750   2.582 -0.00 +0.16    +0.139 C 
DOCKED: ATOM     42  O   UNL d   1      27.296  -9.446   3.533 -0.19 -0.81    -0.650 OA
DOCKED: BRANCH  41  43
DOCKED: ATOM     43  O   UNL d   1      25.896 -10.908   2.628 -0.55 -0.98    -0.776 OA
DOCKED: ATOM     44  H   UNL d   1      26.010 -11.608   1.972 +0.01 +0.11    +0.167 HD
DOCKED: ENDBRANCH  41  43
DOCKED: ENDBRANCH  40  41
DOCKED: ENDBRANCH  39  40
DOCKED: ENDBRANCH  22  39
DOCKED: BRANCH  12  45
DOCKED: ATOM     45  C   UNL d   1      17.427  -1.949   4.433 -0.26 -0.00    +0.004 C 
DOCKED: ATOM     46  C   UNL d   1      16.756  -2.409   5.486 -0.32 -0.00    +0.012 C 
DOCKED: ENDBRANCH  12  45
DOCKED: BRANCH  17  47
DOCKED: ATOM     47  C   UNL d   1      24.305  -3.193   7.929 -0.01 +0.00    +0.004 C 
DOCKED: ATOM     48  C   UNL d   1      25.416  -2.472   7.759 -0.00 +0.00    +0.012 C 
DOCKED: ENDBRANCH  17  47
DOCKED: TORSDOF 12
DOCKED: TER
DOCKED: ENDMDL
________________________________________________________________________________


	BEGINNING GENETIC ALGORITHM DOCKING 16 of 100
Run: 16 Seed: 1150040952 700531940 [ Run 16 of 100 GA/GALS ]
Beginning LAMARCKIAN GENETIC ALGORITHM (LGA), with a maximum of 25000000 energy evaluations.

Final-Value: -11.818


	FINAL GENETIC ALGORITHM DOCKED STATE
	_______________________________________________


Detailed state:  trans -14.588 6.130 7.520 quatxyzw 0.468488 0.627917 0.510559 -0.354356 center 8.781 34.984 -0.736 ntor 12 34.5189 142.7355 -19.0383 -87.0841 -79.8406 174.6150 -168.3615 114.9225 -59.7781 -70.8720 9.1398 144.6314
State:	-14.588   6.130   7.520   0.501  0.671  0.546 -138.492     34.52  142.74  -19.04  -87.08  -79.84  174.61 -168.36  114.92  -59.78  -70.87    9.14  144.63

DOCKED: MODEL       16
DOCKED: USER    Run = 16
DOCKED: USER    DPF = D:/Protein_go_brrr/autodock/final/mut_D99N/heme_Co/dock.dpf
DOCKED: USER  
DOCKED: USER    Estimated Free Energy of Binding    =   -7.36 kcal/mol  [=(1)+(2)+(3)-(4)]
DOCKED: USER    Estimated Inhibition Constant, Ki   =    4.06 uM (micromolar)  [Temperature = 298.15 K]
DOCKED: USER    
DOCKED: USER    (1) Final Intermolecular Energy     =  -10.93 kcal/mol
DOCKED: USER        vdW + Hbond + desolv Energy     =   -8.01 kcal/mol
DOCKED: USER        Electrostatic Energy            =   -2.92 kcal/mol
DOCKED: USER    (2) Final Total Internal Energy     =   -0.88 kcal/mol
DOCKED: USER    (3) Torsional Free Energy           =   +3.58 kcal/mol
DOCKED: USER    (4) Unbound System's Energy  [=(2)] =   -0.88 kcal/mol
DOCKED: USER    
DOCKED: USER    
DOCKED: USER    NEWDPF move heme_Co_opt.pdbqt
DOCKED: USER    NEWDPF about 8.781000 34.984000 -0.736000
DOCKED: USER    NEWDPF tran0 -14.588047 6.129535 7.519587
DOCKED: USER    NEWDPF quaternion0 0.468488 0.627917 0.510559 -0.354356
DOCKED: USER    NEWDPF axisangle0 0.500997 0.671490 0.545988 -138.491984
DOCKED: USER    NEWDPF quat0 0.500997 0.671490 0.545988 -138.491984
DOCKED: USER    NEWDPF dihe0 34.52 142.74 -19.04 -87.08 -79.84 174.61 -168.36 114.92 -59.78 -70.87 9.14 144.63 
DOCKED: USER  keepresnum = 1 
DOCKED: USER  
DOCKED: REMARK  12 active torsions:
DOCKED: REMARK  status: ('A' for Active; 'I' for Inactive)
DOCKED: REMARK    1  A    between atoms: C_6  and  C_10 
DOCKED: REMARK    2  A    between atoms: C_10  and  C_11 
DOCKED: REMARK    3  A    between atoms: C_11  and  C_12 
DOCKED: REMARK    4  A    between atoms: C_12  and  O_14 
DOCKED: REMARK    5  A    between atoms: C_17  and  C_20 
DOCKED: REMARK    6  A    between atoms: C_24  and  C_27 
DOCKED: REMARK    7  A    between atoms: C_31  and  C_34 
DOCKED: REMARK    8  A    between atoms: C_34  and  C_35 
DOCKED: REMARK    9  A    between atoms: C_35  and  C_36 
DOCKED: REMARK   10  A    between atoms: C_36  and  O_38 
DOCKED: REMARK   11  A    between atoms: FE_43  and  C_44 
DOCKED: REMARK   12  A    between atoms: C_44  and  O_45 
DOCKED: USER                              x       y       z     vdW  Elec       q    Type
DOCKED: USER                           _______ _______ _______ _____ _____    ______ ____
DOCKED: ROOT
DOCKED: ATOM      1  C   UNL d   1     -14.660   4.048   8.134 -0.09 +0.02    +0.064 A 
DOCKED: ATOM      2  C   UNL d   1     -12.204   6.293   4.738 -0.31 -0.01    +0.064 C 
DOCKED: ATOM      3  C   UNL d   1     -14.504  10.366   5.714 -0.12 -0.01    +0.064 A 
DOCKED: ATOM      4  C   UNL d   1     -16.746   8.190   9.443 -0.07 +0.00    +0.064 A 
DOCKED: ATOM      5  C   UNL d   1     -13.846   4.354   7.110 -0.12 +0.01    +0.066 A 
DOCKED: ATOM      6  C   UNL d   1     -12.937   3.421   6.574 -0.16 -0.00    -0.021 A 
DOCKED: ATOM      7  C   UNL d   1     -12.211   4.084   5.604 -0.24 -0.00    -0.025 A 
DOCKED: ATOM      8  C   UNL d   1     -12.719   5.388   5.579 -0.21 +0.00    +0.066 A 
DOCKED: ATOM      9  C   UNL d   1     -11.080   3.526   4.727 -0.15 +0.01    +0.051 C 
DOCKED: ATOM     10  C   UNL d   1     -12.679   7.650   4.622 -0.11 -0.01    +0.066 A 
DOCKED: ATOM     11  C   UNL d   1     -12.277   8.606   3.664 -0.36 +0.00    -0.021 A 
DOCKED: ATOM     12  C   UNL d   1     -12.966   9.783   3.970 -0.41 -0.00    +0.000 A 
DOCKED: ATOM     13  C   UNL d   1     -13.745   9.455   5.080 -0.22 -0.01    +0.070 A 
DOCKED: ATOM     14  C   UNL d   1     -11.367   8.362   2.488 -0.36 +0.00    +0.052 C 
DOCKED: ATOM     15  C   UNL d   1     -15.326  10.214   6.899 -0.07 -0.01    +0.066 A 
DOCKED: ATOM     16  C   UNL d   1     -15.971  11.231   7.588 -0.07 +0.01    -0.021 A 
DOCKED: ATOM     17  C   UNL d   1     -16.617  10.609   8.666 -0.06 -0.00    +0.000 A 
DOCKED: ATOM     18  C   UNL d   1     -16.327   9.254   8.539 -0.06 -0.00    +0.070 A 
DOCKED: ATOM     19  C   UNL d   1     -15.950  12.696   7.213 -0.08 -0.03    +0.052 C 
DOCKED: ATOM     20  C   UNL d   1     -16.405   6.880   9.388 -0.06 +0.01    +0.066 A 
DOCKED: ATOM     21  C   UNL d   1     -16.842   5.959  10.337 -0.04 -0.01    -0.025 A 
DOCKED: ATOM     22  C   UNL d   1     -16.280   4.750   9.969 -0.07 -0.01    -0.021 A 
DOCKED: ATOM     23  C   UNL d   1     -15.512   4.999   8.811 -0.03 +0.02    +0.066 A 
DOCKED: ATOM     24  C   UNL d   1     -17.734   6.220  11.548 -0.05 +0.01    +0.051 C 
DOCKED: ATOM     25  N   UNL d   1     -13.737   5.581   6.497 -0.08 -0.02    -0.248 N 
DOCKED: ATOM     26  N   UNL d   1     -13.612   8.150   5.439 -0.13 +0.03    -0.248 N 
DOCKED: ATOM     27  N   UNL d   1     -15.531   9.060   7.493 -0.03 +0.02    -0.248 N 
DOCKED: ATOM     28  N   UNL d   1     -15.584   6.288   8.458 -0.07 -0.05    -0.248 N 
DOCKED: ATOM     29 FE   UNL d   1     -14.689   7.422   7.027 -0.03 +0.00    +0.000 Fe
DOCKED: ENDROOT
DOCKED: BRANCH   6  30
DOCKED: ATOM     30  C   UNL d   1     -12.729   1.983   7.038 -0.19 +0.02    +0.052 C 
DOCKED: BRANCH  30  31
DOCKED: ATOM     31  C   UNL d   1     -13.592   1.024   6.219 -0.11 +0.06    +0.115 C 
DOCKED: BRANCH  31  32
DOCKED: ATOM     32  C   UNL d   1     -12.765   0.019   5.447 -0.14 +0.16    +0.139 C 
DOCKED: ATOM     33  O   UNL d   1     -12.055  -0.769   6.054 -0.40 -0.81    -0.650 OA
DOCKED: BRANCH  32  34
DOCKED: ATOM     34  O   UNL d   1     -12.820  -0.070   4.097 -0.44 -1.38    -0.776 OA
DOCKED: ATOM     35  H   UNL d   1     -13.005   0.677   3.510 +0.04 +0.16    +0.167 HD
DOCKED: ENDBRANCH  32  34
DOCKED: ENDBRANCH  31  32
DOCKED: ENDBRANCH  30  31
DOCKED: ENDBRANCH   6  30
DOCKED: BRANCH  29  36
DOCKED: ATOM     36  C   UNL d   1     -13.056   7.772   8.293 -0.31 -0.00    +0.190 C 
DOCKED: BRANCH  36  37
DOCKED: ATOM     37  O   UNL d   1     -11.728   7.399   8.529 -0.26 +0.02    -0.399 OA
DOCKED: ATOM     38  H   UNL d   1     -11.369   7.151   7.632 -0.39 -0.07    +0.209 HD
DOCKED: ENDBRANCH  36  37
DOCKED: ENDBRANCH  29  36
DOCKED: BRANCH  22  39
DOCKED: ATOM     39  C   UNL d   1     -16.423   3.445  10.730 -0.07 +0.01    +0.052 C 
DOCKED: BRANCH  39  40
DOCKED: ATOM     40  C   UNL d   1     -15.068   2.999  11.304 -0.13 +0.05    +0.115 C 
DOCKED: BRANCH  40  41
DOCKED: ATOM     41  C   UNL d   1     -14.909   3.241  12.790 -0.20 +0.10    +0.139 C 
DOCKED: ATOM     42  O   UNL d   1     -14.175   4.140  13.175 -0.61 -0.77    -0.650 OA
DOCKED: BRANCH  41  43
DOCKED: ATOM     43  O   UNL d   1     -15.624   2.546  13.703 +0.02 -0.50    -0.776 OA
DOCKED: ATOM     44  H   UNL d   1     -16.385   2.002  13.462 +0.02 +0.07    +0.167 HD
DOCKED: ENDBRANCH  41  43
DOCKED: ENDBRANCH  40  41
DOCKED: ENDBRANCH  39  40
DOCKED: ENDBRANCH  22  39
DOCKED: BRANCH  12  45
DOCKED: ATOM     45  C   UNL d   1     -12.992  11.166   3.333 -0.43 -0.00    +0.004 C 
DOCKED: ATOM     46  C   UNL d   1     -12.315  12.271   3.634 -0.40 -0.00    +0.012 C 
DOCKED: ENDBRANCH  12  45
DOCKED: BRANCH  17  47
DOCKED: ATOM     47  C   UNL d   1     -17.411  11.210   9.779 -0.05 -0.00    +0.004 C 
DOCKED: ATOM     48  C   UNL d   1     -16.928  11.402  11.009 -0.08 -0.00    +0.012 C 
DOCKED: ENDBRANCH  17  47
DOCKED: TORSDOF 12
DOCKED: TER
DOCKED: ENDMDL
________________________________________________________________________________


	BEGINNING GENETIC ALGORITHM DOCKING 17 of 100
Run: 17 Seed: 1392297231 1745241635 [ Run 17 of 100 GA/GALS ]
Beginning LAMARCKIAN GENETIC ALGORITHM (LGA), with a maximum of 25000000 energy evaluations.

Final-Value: -10.461


	FINAL GENETIC ALGORITHM DOCKED STATE
	_______________________________________________


Detailed state:  trans 15.406 -9.070 7.728 quatxyzw 0.136844 -0.058764 -0.900256 -0.409096 center 8.781 34.984 -0.736 ntor 12 -102.0879 107.0787 87.1308 128.3742 62.4333 133.0847 50.6199 63.7778 -127.6371 48.0595 -177.5547 -165.4763
State:	 15.406  -9.070   7.728   0.150 -0.064 -0.987 -131.704   -102.09  107.08   87.13  128.37   62.43  133.08   50.62   63.78 -127.64   48.06 -177.55 -165.48

DOCKED: MODEL       17
DOCKED: USER    Run = 17
DOCKED: USER    DPF = D:/Protein_go_brrr/autodock/final/mut_D99N/heme_Co/dock.dpf
DOCKED: USER  
DOCKED: USER    Estimated Free Energy of Binding    =   -4.35 kcal/mol  [=(1)+(2)+(3)-(4)]
DOCKED: USER    Estimated Inhibition Constant, Ki   =  646.14 uM (micromolar)  [Temperature = 298.15 K]
DOCKED: USER    
DOCKED: USER    (1) Final Intermolecular Energy     =   -7.93 kcal/mol
DOCKED: USER        vdW + Hbond + desolv Energy     =   -6.95 kcal/mol
DOCKED: USER        Electrostatic Energy            =   -0.98 kcal/mol
DOCKED: USER    (2) Final Total Internal Energy     =   -2.53 kcal/mol
DOCKED: USER    (3) Torsional Free Energy           =   +3.58 kcal/mol
DOCKED: USER    (4) Unbound System's Energy  [=(2)] =   -2.53 kcal/mol
DOCKED: USER    
DOCKED: USER    
DOCKED: USER    NEWDPF move heme_Co_opt.pdbqt
DOCKED: USER    NEWDPF about 8.781000 34.984000 -0.736000
DOCKED: USER    NEWDPF tran0 15.406088 -9.070023 7.727515
DOCKED: USER    NEWDPF quaternion0 0.136844 -0.058764 -0.900256 -0.409096
DOCKED: USER    NEWDPF axisangle0 0.149968 -0.064400 -0.986591 -131.703867
DOCKED: USER    NEWDPF quat0 0.149968 -0.064400 -0.986591 -131.703867
DOCKED: USER    NEWDPF dihe0 -102.09 107.08 87.13 128.37 62.43 133.08 50.62 63.78 -127.64 48.06 -177.55 -165.48 
DOCKED: USER  keepresnum = 1 
DOCKED: USER  
DOCKED: REMARK  12 active torsions:
DOCKED: REMARK  status: ('A' for Active; 'I' for Inactive)
DOCKED: REMARK    1  A    between atoms: C_6  and  C_10 
DOCKED: REMARK    2  A    between atoms: C_10  and  C_11 
DOCKED: REMARK    3  A    between atoms: C_11  and  C_12 
DOCKED: REMARK    4  A    between atoms: C_12  and  O_14 
DOCKED: REMARK    5  A    between atoms: C_17  and  C_20 
DOCKED: REMARK    6  A    between atoms: C_24  and  C_27 
DOCKED: REMARK    7  A    between atoms: C_31  and  C_34 
DOCKED: REMARK    8  A    between atoms: C_34  and  C_35 
DOCKED: REMARK    9  A    between atoms: C_35  and  C_36 
DOCKED: REMARK   10  A    between atoms: C_36  and  O_38 
DOCKED: REMARK   11  A    between atoms: FE_43  and  C_44 
DOCKED: REMARK   12  A    between atoms: C_44  and  O_45 
DOCKED: USER                              x       y       z     vdW  Elec       q    Type
DOCKED: USER                           _______ _______ _______ _____ _____    ______ ____
DOCKED: ROOT
DOCKED: ATOM      1  C   UNL d   1      17.231  -7.937   7.408 -0.21 -0.01    +0.064 A 
DOCKED: ATOM      2  C   UNL d   1      13.424  -7.156  10.148 -0.24 -0.02    +0.064 C 
DOCKED: ATOM      3  C   UNL d   1      11.272 -11.012   8.323 -0.17 -0.02    +0.064 A 
DOCKED: ATOM      4  C   UNL d   1      15.300 -12.049   5.799 -0.07 -0.05    +0.064 A 
DOCKED: ATOM      5  C   UNL d   1      16.334  -7.420   8.264 -0.21 -0.02    +0.066 A 
DOCKED: ATOM      6  C   UNL d   1      16.626  -6.299   9.065 -0.14 +0.00    -0.021 A 
DOCKED: ATOM      7  C   UNL d   1      15.527  -6.091   9.875 -0.17 +0.01    -0.025 A 
DOCKED: ATOM      8  C   UNL d   1      14.605  -7.082   9.521 -0.20 -0.02    +0.066 A 
DOCKED: ATOM      9  C   UNL d   1      15.336  -5.005  10.945 -0.17 -0.01    +0.051 C 
DOCKED: ATOM     10  C   UNL d   1      12.403  -8.125   9.835 -0.22 -0.03    +0.066 A 
DOCKED: ATOM     11  C   UNL d   1      11.092  -8.168  10.356 -0.22 +0.01    -0.021 A 
DOCKED: ATOM     12  C   UNL d   1      10.486  -9.299   9.804 -0.20 -0.00    +0.000 A 
DOCKED: ATOM     13  C   UNL d   1      11.464  -9.855   8.979 -0.20 -0.03    +0.070 A 
DOCKED: ATOM     14  C   UNL d   1      10.451  -7.133  11.246 -0.21 -0.04    +0.052 C 
DOCKED: ATOM     15  C   UNL d   1      12.187 -11.751   7.475 -0.17 -0.02    +0.066 A 
DOCKED: ATOM     16  C   UNL d   1      11.977 -13.015   6.943 -0.16 +0.01    -0.021 A 
DOCKED: ATOM     17  C   UNL d   1      13.137 -13.320   6.216 -0.19 -0.00    +0.000 A 
DOCKED: ATOM     18  C   UNL d   1      13.959 -12.206   6.349 -0.21 -0.04    +0.070 A 
DOCKED: ATOM     19  C   UNL d   1      10.733 -13.853   7.138 -0.16 -0.01    +0.052 C 
DOCKED: ATOM     20  C   UNL d   1      16.152 -11.012   5.987 -0.26 -0.03    +0.066 A 
DOCKED: ATOM     21  C   UNL d   1      17.431 -10.992   5.435 -0.31 +0.01    -0.025 A 
DOCKED: ATOM     22  C   UNL d   1      18.001  -9.805   5.858 -0.30 -0.00    -0.021 A 
DOCKED: ATOM     23  C   UNL d   1      17.037  -9.160   6.663 -0.25 -0.01    +0.066 A 
DOCKED: ATOM     24  C   UNL d   1      18.087 -12.060   4.564 -0.25 -0.02    +0.051 C 
DOCKED: ATOM     25  N   UNL d   1      15.077  -7.916   8.522 -0.09 +0.10    -0.248 N 
DOCKED: ATOM     26  N   UNL d   1      12.603  -9.112   8.955 -0.07 +0.12    -0.248 N 
DOCKED: ATOM     27  N   UNL d   1      13.374 -11.304   7.130 -0.14 +0.11    -0.248 N 
DOCKED: ATOM     28  N   UNL d   1      15.918  -9.889   6.746 -0.18 +0.08    -0.248 N 
DOCKED: ATOM     29 FE   UNL d   1      14.178  -9.711   7.782 -0.05 -0.00    +0.000 Fe
DOCKED: ENDROOT
DOCKED: BRANCH   6  30
DOCKED: ATOM     30  C   UNL d   1      17.938  -5.523   9.100 -0.08 -0.00    +0.052 C 
DOCKED: BRANCH  30  31
DOCKED: ATOM     31  C   UNL d   1      18.853  -6.063  10.199 -0.01 -0.00    +0.115 C 
DOCKED: BRANCH  31  32
DOCKED: ATOM     32  C   UNL d   1      19.012  -7.567  10.130 -0.01 +0.00    +0.139 C 
DOCKED: ATOM     33  O   UNL d   1      18.126  -8.285  10.571 +0.02 +0.02    -0.650 OA
DOCKED: BRANCH  32  34
DOCKED: ATOM     34  O   UNL d   1      20.086  -8.150   9.550 +0.04 -0.08    -0.776 OA
DOCKED: ATOM     35  H   UNL d   1      20.067  -8.594   8.691 +0.02 +0.03    +0.167 HD
DOCKED: ENDBRANCH  32  34
DOCKED: ENDBRANCH  31  32
DOCKED: ENDBRANCH  30  31
DOCKED: ENDBRANCH   6  30
DOCKED: BRANCH  29  36
DOCKED: ATOM     36  C   UNL d   1      15.033 -10.685   9.430 -0.04 -0.04    +0.190 C 
DOCKED: BRANCH  36  37
DOCKED: ATOM     37  O   UNL d   1      16.057 -10.582  10.377 +0.00 +0.05    -0.399 OA
DOCKED: ATOM     38  H   UNL d   1      16.587  -9.784  10.096 +0.02 -0.02    +0.209 HD
DOCKED: ENDBRANCH  36  37
DOCKED: ENDBRANCH  29  36
DOCKED: BRANCH  22  39
DOCKED: ATOM     39  C   UNL d   1      19.417  -9.352   5.555 -0.16 +0.02    +0.052 C 
DOCKED: BRANCH  39  40
DOCKED: ATOM     40  C   UNL d   1      20.440 -10.305   6.195 -0.16 +0.05    +0.115 C 
DOCKED: BRANCH  40  41
DOCKED: ATOM     41  C   UNL d   1      21.614  -9.611   6.852 -0.08 +0.10    +0.139 C 
DOCKED: ATOM     42  O   UNL d   1      22.654 -10.231   7.026 -0.08 -0.77    -0.650 OA
DOCKED: BRANCH  41  43
DOCKED: ATOM     43  O   UNL d   1      21.575  -8.299   7.173 -0.00 -0.45    -0.776 OA
DOCKED: ATOM     44  H   UNL d   1      21.308  -7.986   8.047 +0.02 +0.06    +0.167 HD
DOCKED: ENDBRANCH  41  43
DOCKED: ENDBRANCH  40  41
DOCKED: ENDBRANCH  39  40
DOCKED: ENDBRANCH  22  39
DOCKED: BRANCH  12  45
DOCKED: ATOM     45  C   UNL d   1       9.096  -9.906   9.946 -0.25 -0.00    +0.004 C 
DOCKED: ATOM     46  C   UNL d   1       8.157 -10.141   9.033 -0.32 -0.01    +0.012 C 
DOCKED: ENDBRANCH  12  45
DOCKED: BRANCH  17  47
DOCKED: ATOM     47  C   UNL d   1      13.504 -14.569   5.484 -0.18 -0.00    +0.004 C 
DOCKED: ATOM     48  C   UNL d   1      12.642 -15.267   4.740 -0.26 -0.00    +0.012 C 
DOCKED: ENDBRANCH  17  47
DOCKED: TORSDOF 12
DOCKED: TER
DOCKED: ENDMDL
________________________________________________________________________________


	BEGINNING GENETIC ALGORITHM DOCKING 18 of 100
Run: 18 Seed: 1883345466 1077413671 [ Run 18 of 100 GA/GALS ]
Beginning LAMARCKIAN GENETIC ALGORITHM (LGA), with a maximum of 25000000 energy evaluations.

Final-Value: -11.140


	FINAL GENETIC ALGORITHM DOCKED STATE
	_______________________________________________


Detailed state:  trans -14.937 4.958 4.624 quatxyzw -0.168733 0.239699 0.891761 -0.344726 center 8.781 34.984 -0.736 ntor 12 155.5461 98.9255 -14.8693 116.5348 -95.0631 122.3156 157.6751 168.1292 -60.1934 -3.6157 -163.8772 149.7947
State:	-14.937   4.958   4.624  -0.180  0.255  0.950 -139.670    155.55   98.93  -14.87  116.53  -95.06  122.32  157.68  168.13  -60.19   -3.62 -163.88  149.79

DOCKED: MODEL       18
DOCKED: USER    Run = 18
DOCKED: USER    DPF = D:/Protein_go_brrr/autodock/final/mut_D99N/heme_Co/dock.dpf
DOCKED: USER  
DOCKED: USER    Estimated Free Energy of Binding    =   -5.14 kcal/mol  [=(1)+(2)+(3)-(4)]
DOCKED: USER    Estimated Inhibition Constant, Ki   =  170.74 uM (micromolar)  [Temperature = 298.15 K]
DOCKED: USER    
DOCKED: USER    (1) Final Intermolecular Energy     =   -8.72 kcal/mol
DOCKED: USER        vdW + Hbond + desolv Energy     =   -6.63 kcal/mol
DOCKED: USER        Electrostatic Energy            =   -2.09 kcal/mol
DOCKED: USER    (2) Final Total Internal Energy     =   -2.42 kcal/mol
DOCKED: USER    (3) Torsional Free Energy           =   +3.58 kcal/mol
DOCKED: USER    (4) Unbound System's Energy  [=(2)] =   -2.42 kcal/mol
DOCKED: USER    
DOCKED: USER    
DOCKED: USER    NEWDPF move heme_Co_opt.pdbqt
DOCKED: USER    NEWDPF about 8.781000 34.984000 -0.736000
DOCKED: USER    NEWDPF tran0 -14.936623 4.957594 4.623925
DOCKED: USER    NEWDPF quaternion0 -0.168733 0.239699 0.891761 -0.344726
DOCKED: USER    NEWDPF axisangle0 -0.179751 0.255351 0.949992 -139.669917
DOCKED: USER    NEWDPF quat0 -0.179751 0.255351 0.949992 -139.669917
DOCKED: USER    NEWDPF dihe0 155.55 98.93 -14.87 116.53 -95.06 122.32 157.68 168.13 -60.19 -3.62 -163.88 149.79 
DOCKED: USER  keepresnum = 1 
DOCKED: USER  
DOCKED: REMARK  12 active torsions:
DOCKED: REMARK  status: ('A' for Active; 'I' for Inactive)
DOCKED: REMARK    1  A    between atoms: C_6  and  C_10 
DOCKED: REMARK    2  A    between atoms: C_10  and  C_11 
DOCKED: REMARK    3  A    between atoms: C_11  and  C_12 
DOCKED: REMARK    4  A    between atoms: C_12  and  O_14 
DOCKED: REMARK    5  A    between atoms: C_17  and  C_20 
DOCKED: REMARK    6  A    between atoms: C_24  and  C_27 
DOCKED: REMARK    7  A    between atoms: C_31  and  C_34 
DOCKED: REMARK    8  A    between atoms: C_34  and  C_35 
DOCKED: REMARK    9  A    between atoms: C_35  and  C_36 
DOCKED: REMARK   10  A    between atoms: C_36  and  O_38 
DOCKED: REMARK   11  A    between atoms: FE_43  and  C_44 
DOCKED: REMARK   12  A    between atoms: C_44  and  O_45 
DOCKED: USER                              x       y       z     vdW  Elec       q    Type
DOCKED: USER                           _______ _______ _______ _____ _____    ______ ____
DOCKED: ROOT
DOCKED: ATOM      1  C   UNL d   1     -13.804   3.139   4.977 -0.11 +0.01    +0.064 A 
DOCKED: ATOM      2  C   UNL d   1     -13.348   7.565   6.656 -0.23 -0.01    +0.064 C 
DOCKED: ATOM      3  C   UNL d   1     -16.867   9.055   3.788 -0.14 -0.00    +0.064 A 
DOCKED: ATOM      4  C   UNL d   1     -17.611   4.471   2.340 -0.21 +0.01    +0.064 A 
DOCKED: ATOM      5  C   UNL d   1     -13.396   4.246   5.620 -0.13 +0.01    +0.066 A 
DOCKED: ATOM      6  C   UNL d   1     -12.405   4.207   6.621 -0.24 -0.00    -0.021 A 
DOCKED: ATOM      7  C   UNL d   1     -12.293   5.490   7.120 -0.34 -0.00    -0.025 A 
DOCKED: ATOM      8  C   UNL d   1     -13.208   6.259   6.393 -0.21 -0.00    +0.066 A 
DOCKED: ATOM      9  C   UNL d   1     -11.366   5.988   8.239 -0.43 -0.00    +0.051 C 
DOCKED: ATOM     10  C   UNL d   1     -14.243   8.441   5.942 -0.15 -0.01    +0.066 A 
DOCKED: ATOM     11  C   UNL d   1     -14.335   9.843   6.075 -0.16 +0.00    -0.021 A 
DOCKED: ATOM     12  C   UNL d   1     -15.366  10.252   5.224 -0.09 -0.00    +0.000 A 
DOCKED: ATOM     13  C   UNL d   1     -15.817   9.074   4.629 -0.10 -0.01    +0.070 A 
DOCKED: ATOM     14  C   UNL d   1     -13.425  10.724   6.892 -0.36 -0.02    +0.052 C 
DOCKED: ATOM     15  C   UNL d   1     -17.495   7.928   3.127 -0.17 -0.00    +0.066 A 
DOCKED: ATOM     16  C   UNL d   1     -18.668   7.959   2.385 -0.20 -0.00    -0.021 A 
DOCKED: ATOM     17  C   UNL d   1     -18.888   6.638   1.967 -0.24 +0.00    +0.000 A 
DOCKED: ATOM     18  C   UNL d   1     -17.819   5.907   2.475 -0.22 +0.01    +0.070 A 
DOCKED: ATOM     19  C   UNL d   1     -19.502   9.191   2.113 -0.17 +0.00    +0.052 C 
DOCKED: ATOM     20  C   UNL d   1     -16.627   3.725   2.897 -0.17 +0.01    +0.066 A 
DOCKED: ATOM     21  C   UNL d   1     -16.552   2.344   2.724 -0.16 -0.01    -0.025 A 
DOCKED: ATOM     22  C   UNL d   1     -15.448   1.937   3.450 -0.13 -0.01    -0.021 A 
DOCKED: ATOM     23  C   UNL d   1     -14.906   3.096   4.044 -0.12 +0.01    +0.066 A 
DOCKED: ATOM     24  C   UNL d   1     -17.499   1.453   1.924 -0.13 +0.01    +0.051 C 
DOCKED: ATOM     25  N   UNL d   1     -13.901   5.515   5.452 -0.08 -0.01    -0.248 N 
DOCKED: ATOM     26  N   UNL d   1     -15.100   7.987   5.021 -0.06 +0.01    -0.248 N 
DOCKED: ATOM     27  N   UNL d   1     -17.026   6.702   3.186 -0.07 -0.01    -0.248 N 
DOCKED: ATOM     28  N   UNL d   1     -15.618   4.180   3.714 -0.07 -0.04    -0.248 N 
DOCKED: ATOM     29 FE   UNL d   1     -15.556   6.141   4.250 -0.04 +0.00    +0.000 Fe
DOCKED: ENDROOT
DOCKED: BRANCH   6  30
DOCKED: ATOM     30  C   UNL d   1     -11.666   2.971   7.121 -0.28 +0.01    +0.052 C 
DOCKED: BRANCH  30  31
DOCKED: ATOM     31  C   UNL d   1     -12.534   2.189   8.107 -0.19 +0.03    +0.115 C 
DOCKED: BRANCH  31  32
DOCKED: ATOM     32  C   UNL d   1     -12.851   0.793   7.616 -0.14 +0.06    +0.139 C 
DOCKED: ATOM     33  O   UNL d   1     -12.070   0.228   6.866 -0.35 -0.43    -0.650 OA
DOCKED: BRANCH  32  34
DOCKED: ATOM     34  O   UNL d   1     -13.957   0.125   8.020 +0.07 -0.31    -0.776 OA
DOCKED: ATOM     35  H   UNL d   1     -14.413  -0.543   7.489 +0.02 +0.08    +0.167 HD
DOCKED: ENDBRANCH  32  34
DOCKED: ENDBRANCH  31  32
DOCKED: ENDBRANCH  30  31
DOCKED: ENDBRANCH   6  30
DOCKED: BRANCH  29  36
DOCKED: ATOM     36  C   UNL d   1     -16.769   5.747   5.915 -0.04 +0.02    +0.190 C 
DOCKED: BRANCH  36  37
DOCKED: ATOM     37  O   UNL d   1     -16.895   4.910   7.028 -0.00 -0.05    -0.399 OA
DOCKED: ATOM     38  H   UNL d   1     -16.265   4.156   6.855 +0.02 +0.03    +0.209 HD
DOCKED: ENDBRANCH  36  37
DOCKED: ENDBRANCH  29  36
DOCKED: BRANCH  22  39
DOCKED: ATOM     39  C   UNL d   1     -14.983   0.502   3.612 -0.13 +0.04    +0.052 C 
DOCKED: BRANCH  39  40
DOCKED: ATOM     40  C   UNL d   1     -15.243   0.006   5.044 -0.07 +0.08    +0.115 C 
DOCKED: BRANCH  40  41
DOCKED: ATOM     41  C   UNL d   1     -15.015  -1.478   5.242 +0.14 +0.18    +0.139 C 
DOCKED: ATOM     42  O   UNL d   1     -15.587  -2.274   4.511 -0.03 -0.85    -0.650 OA
DOCKED: BRANCH  41  43
DOCKED: ATOM     43  O   UNL d   1     -14.130  -1.946   6.150 -0.23 -1.13    -0.776 OA
DOCKED: ATOM     44  H   UNL d   1     -13.519  -1.368   6.625 +0.03 +0.18    +0.167 HD
DOCKED: ENDBRANCH  41  43
DOCKED: ENDBRANCH  40  41
DOCKED: ENDBRANCH  39  40
DOCKED: ENDBRANCH  22  39
DOCKED: BRANCH  12  45
DOCKED: ATOM     45  C   UNL d   1     -15.961  11.614   4.894 -0.07 -0.00    +0.004 C 
DOCKED: ATOM     46  C   UNL d   1     -15.869  12.356   3.793 -0.09 -0.00    +0.012 C 
DOCKED: ENDBRANCH  12  45
DOCKED: BRANCH  17  47
DOCKED: ATOM     47  C   UNL d   1     -20.027   6.060   1.195 -0.19 +0.00    +0.004 C 
DOCKED: ATOM     48  C   UNL d   1     -20.858   5.137   1.686 -0.14 +0.00    +0.012 C 
DOCKED: ENDBRANCH  17  47
DOCKED: TORSDOF 12
DOCKED: TER
DOCKED: ENDMDL
________________________________________________________________________________


	BEGINNING GENETIC ALGORITHM DOCKING 19 of 100
Run: 19 Seed: 262207323 1136474953 [ Run 19 of 100 GA/GALS ]
Beginning LAMARCKIAN GENETIC ALGORITHM (LGA), with a maximum of 25000000 energy evaluations.

Final-Value: -10.185


	FINAL GENETIC ALGORITHM DOCKED STATE
	_______________________________________________


Detailed state:  trans 18.161 -1.189 0.348 quatxyzw 0.396642 0.496297 0.608036 0.476085 center 8.781 34.984 -0.736 ntor 12 122.4123 104.2395 -59.1613 153.7220 71.3906 114.6820 -124.9079 -27.4617 -122.0354 -165.2251 180.0000 167.3757
State:	 18.161  -1.189   0.348   0.451  0.564  0.691 123.140    122.41  104.24  -59.16  153.72   71.39  114.68 -124.91  -27.46 -122.04 -165.23  180.00  167.38

DOCKED: MODEL       19
DOCKED: USER    Run = 19
DOCKED: USER    DPF = D:/Protein_go_brrr/autodock/final/mut_D99N/heme_Co/dock.dpf
DOCKED: USER  
DOCKED: USER    Estimated Free Energy of Binding    =   -2.74 kcal/mol  [=(1)+(2)+(3)-(4)]
DOCKED: USER    Estimated Inhibition Constant, Ki   =    9.87 mM (millimolar)  [Temperature = 298.15 K]
DOCKED: USER    
DOCKED: USER    (1) Final Intermolecular Energy     =   -6.32 kcal/mol
DOCKED: USER        vdW + Hbond + desolv Energy     =   -6.29 kcal/mol
DOCKED: USER        Electrostatic Energy            =   -0.03 kcal/mol
DOCKED: USER    (2) Final Total Internal Energy     =   -3.87 kcal/mol
DOCKED: USER    (3) Torsional Free Energy           =   +3.58 kcal/mol
DOCKED: USER    (4) Unbound System's Energy  [=(2)] =   -3.87 kcal/mol
DOCKED: USER    
DOCKED: USER    
DOCKED: USER    NEWDPF move heme_Co_opt.pdbqt
DOCKED: USER    NEWDPF about 8.781000 34.984000 -0.736000
DOCKED: USER    NEWDPF tran0 18.160713 -1.188838 0.347806
DOCKED: USER    NEWDPF quaternion0 0.396642 0.496297 0.608036 0.476085
DOCKED: USER    NEWDPF axisangle0 0.451038 0.564359 0.691421 123.139977
DOCKED: USER    NEWDPF quat0 0.451038 0.564359 0.691421 123.139977
DOCKED: USER    NEWDPF dihe0 122.41 104.24 -59.16 153.72 71.39 114.68 -124.91 -27.46 -122.04 -165.23 180.00 167.38 
DOCKED: USER  keepresnum = 1 
DOCKED: USER  
DOCKED: REMARK  12 active torsions:
DOCKED: REMARK  status: ('A' for Active; 'I' for Inactive)
DOCKED: REMARK    1  A    between atoms: C_6  and  C_10 
DOCKED: REMARK    2  A    between atoms: C_10  and  C_11 
DOCKED: REMARK    3  A    between atoms: C_11  and  C_12 
DOCKED: REMARK    4  A    between atoms: C_12  and  O_14 
DOCKED: REMARK    5  A    between atoms: C_17  and  C_20 
DOCKED: REMARK    6  A    between atoms: C_24  and  C_27 
DOCKED: REMARK    7  A    between atoms: C_31  and  C_34 
DOCKED: REMARK    8  A    between atoms: C_34  and  C_35 
DOCKED: REMARK    9  A    between atoms: C_35  and  C_36 
DOCKED: REMARK   10  A    between atoms: C_36  and  O_38 
DOCKED: REMARK   11  A    between atoms: FE_43  and  C_44 
DOCKED: REMARK   12  A    between atoms: C_44  and  O_45 
DOCKED: USER                              x       y       z     vdW  Elec       q    Type
DOCKED: USER                           _______ _______ _______ _____ _____    ______ ____
DOCKED: ROOT
DOCKED: ATOM      1  C   UNL d   1      19.087  -1.691  -1.551 -0.21 -0.01    +0.064 A 
DOCKED: ATOM      2  C   UNL d   1      16.244   1.884  -0.230 -0.14 -0.00    +0.064 C 
DOCKED: ATOM      3  C   UNL d   1      15.737  -0.069   4.101 -0.23 -0.00    +0.064 A 
DOCKED: ATOM      4  C   UNL d   1      18.944  -3.526   2.903 -0.18 -0.00    +0.064 A 
DOCKED: ATOM      5  C   UNL d   1      18.318  -0.590  -1.520 -0.17 -0.01    +0.066 A 
DOCKED: ATOM      6  C   UNL d   1      18.257   0.309  -2.603 -0.12 +0.00    -0.021 A 
DOCKED: ATOM      7  C   UNL d   1      17.448   1.356  -2.205 -0.09 +0.00    -0.025 A 
DOCKED: ATOM      8  C   UNL d   1      17.039   1.043  -0.905 -0.14 -0.01    +0.066 A 
DOCKED: ATOM      9  C   UNL d   1      17.068   2.610  -3.007 -0.02 +0.00    +0.051 C 
DOCKED: ATOM     10  C   UNL d   1      15.750   1.635   1.102 -0.12 -0.00    +0.066 A 
DOCKED: ATOM     11  C   UNL d   1      14.803   2.407   1.809 -0.17 -0.00    -0.021 A 
DOCKED: ATOM     12  C   UNL d   1      14.671   1.813   3.067 -0.22 +0.00    +0.000 A 
DOCKED: ATOM     13  C   UNL d   1      15.535   0.718   3.030 -0.16 -0.00    +0.070 A 
DOCKED: ATOM     14  C   UNL d   1      14.019   3.573   1.265 -0.13 +0.00    +0.052 C 
DOCKED: ATOM     15  C   UNL d   1      16.627  -1.204   4.254 -0.20 -0.01    +0.066 A 
DOCKED: ATOM     16  C   UNL d   1      16.896  -1.886   5.433 -0.26 +0.00    -0.021 A 
DOCKED: ATOM     17  C   UNL d   1      17.822  -2.882   5.093 -0.24 -0.00    +0.000 A 
DOCKED: ATOM     18  C   UNL d   1      18.033  -2.740   3.725 -0.21 -0.00    +0.070 A 
DOCKED: ATOM     19  C   UNL d   1      16.289  -1.576   6.783 -0.23 +0.00    +0.052 C 
DOCKED: ATOM     20  C   UNL d   1      19.229  -3.350   1.590 -0.21 -0.01    +0.066 A 
DOCKED: ATOM     21  C   UNL d   1      20.152  -4.149   0.917 -0.25 +0.00    -0.025 A 
DOCKED: ATOM     22  C   UNL d   1      20.192  -3.662  -0.377 -0.24 +0.00    -0.021 A 
DOCKED: ATOM     23  C   UNL d   1      19.295  -2.574  -0.426 -0.19 -0.01    +0.066 A 
DOCKED: ATOM     24  C   UNL d   1      20.970  -5.306   1.483 -0.11 +0.01    +0.051 C 
DOCKED: ATOM     25  N   UNL d   1      17.558  -0.160  -0.457 -0.08 +0.03    -0.248 N 
DOCKED: ATOM     26  N   UNL d   1      16.144   0.579   1.822 -0.07 +0.00    -0.248 N 
DOCKED: ATOM     27  N   UNL d   1      17.328  -1.712   3.265 -0.14 +0.02    -0.248 N 
DOCKED: ATOM     28  N   UNL d   1      18.711  -2.381   0.764 -0.10 +0.03    -0.248 N 
DOCKED: ATOM     29 FE   UNL d   1      17.438  -0.985   1.513 -0.04 -0.00    +0.000 Fe
DOCKED: ENDROOT
DOCKED: BRANCH   6  30
DOCKED: ATOM     30  C   UNL d   1      19.011   0.196  -3.923 -0.22 -0.00    +0.052 C 
DOCKED: BRANCH  30  31
DOCKED: ATOM     31  C   UNL d   1      20.299   1.018  -3.878 -0.08 +0.00    +0.115 C 
DOCKED: BRANCH  31  32
DOCKED: ATOM     32  C   UNL d   1      21.194   0.625  -2.722 -0.04 +0.00    +0.139 C 
DOCKED: ATOM     33  O   UNL d   1      22.204  -0.029  -2.939 +0.01 -0.02    -0.650 OA
DOCKED: BRANCH  32  34
DOCKED: ATOM     34  O   UNL d   1      20.940   1.016  -1.452 +0.02 -0.00    -0.776 OA
DOCKED: ATOM     35  H   UNL d   1      20.761   0.408  -0.721 +0.01 -0.00    +0.167 HD
DOCKED: ENDBRANCH  32  34
DOCKED: ENDBRANCH  31  32
DOCKED: ENDBRANCH  30  31
DOCKED: ENDBRANCH   6  30
DOCKED: BRANCH  29  36
DOCKED: ATOM     36  C   UNL d   1      19.053   0.256   2.009 -0.02 -0.00    +0.190 C 
DOCKED: BRANCH  36  37
DOCKED: ATOM     37  O   UNL d   1      20.268   0.751   1.525 +0.00 -0.00    -0.399 OA
DOCKED: ATOM     38  H   UNL d   1      20.439   0.236   0.687 +0.01 -0.00    +0.209 HD
DOCKED: ENDBRANCH  36  37
DOCKED: ENDBRANCH  29  36
DOCKED: BRANCH  22  39
DOCKED: ATOM     39  C   UNL d   1      21.095  -4.176  -1.482 -0.25 +0.00    +0.052 C 
DOCKED: BRANCH  39  40
DOCKED: ATOM     40  C   UNL d   1      22.421  -3.398  -1.507 -0.09 +0.01    +0.115 C 
DOCKED: BRANCH  40  41
DOCKED: ATOM     41  C   UNL d   1      22.625  -2.474  -0.325 -0.03 +0.01    +0.139 C 
DOCKED: ATOM     42  O   UNL d   1      23.482  -2.743   0.505 +0.02 -0.05    -0.650 OA
DOCKED: BRANCH  41  43
DOCKED: ATOM     43  O   UNL d   1      21.945  -1.312  -0.205 +0.03 -0.02    -0.776 OA
DOCKED: ATOM     44  H   UNL d   1      21.923  -0.649  -0.908 +0.01 +0.00    +0.167 HD
DOCKED: ENDBRANCH  41  43
DOCKED: ENDBRANCH  40  41
DOCKED: ENDBRANCH  39  40
DOCKED: ENDBRANCH  22  39
DOCKED: BRANCH  12  45
DOCKED: ATOM     45  C   UNL d   1      13.820   2.140   4.286 -0.27 +0.00    +0.004 C 
DOCKED: ATOM     46  C   UNL d   1      13.240   1.341   5.177 -0.36 +0.00    +0.012 C 
DOCKED: ENDBRANCH  12  45
DOCKED: BRANCH  17  47
DOCKED: ATOM     47  C   UNL d   1      18.518  -3.875   5.964 -0.16 +0.00    +0.004 C 
DOCKED: ATOM     48  C   UNL d   1      17.885  -4.652   6.847 -0.23 -0.00    +0.012 C 
DOCKED: ENDBRANCH  17  47
DOCKED: TORSDOF 12
DOCKED: TER
DOCKED: ENDMDL
________________________________________________________________________________


	BEGINNING GENETIC ALGORITHM DOCKING 20 of 100
Run: 20 Seed: 1068236824 640000099 [ Run 20 of 100 GA/GALS ]
Beginning LAMARCKIAN GENETIC ALGORITHM (LGA), with a maximum of 25000000 energy evaluations.

Final-Value: -8.577


	FINAL GENETIC ALGORITHM DOCKED STATE
	_______________________________________________


Detailed state:  trans 8.257 13.522 4.738 quatxyzw -0.379137 -0.261533 -0.537843 -0.706102 center 8.781 34.984 -0.736 ntor 12 39.8851 96.0641 -162.3600 90.5111 132.7470 83.0135 -57.9042 120.4250 73.5612 152.2658 -12.0728 166.3974
State:	  8.257  13.522   4.738  -0.535 -0.369 -0.760 -90.163     39.89   96.06 -162.36   90.51  132.75   83.01  -57.90  120.42   73.56  152.27  -12.07  166.40

DOCKED: MODEL       20
DOCKED: USER    Run = 20
DOCKED: USER    DPF = D:/Protein_go_brrr/autodock/final/mut_D99N/heme_Co/dock.dpf
DOCKED: USER  
DOCKED: USER    Estimated Free Energy of Binding    =   -2.32 kcal/mol  [=(1)+(2)+(3)-(4)]
DOCKED: USER    Estimated Inhibition Constant, Ki   =   19.98 mM (millimolar)  [Temperature = 298.15 K]
DOCKED: USER    
DOCKED: USER    (1) Final Intermolecular Energy     =   -5.90 kcal/mol
DOCKED: USER        vdW + Hbond + desolv Energy     =   -5.83 kcal/mol
DOCKED: USER        Electrostatic Energy            =   -0.06 kcal/mol
DOCKED: USER    (2) Final Total Internal Energy     =   -2.68 kcal/mol
DOCKED: USER    (3) Torsional Free Energy           =   +3.58 kcal/mol
DOCKED: USER    (4) Unbound System's Energy  [=(2)] =   -2.68 kcal/mol
DOCKED: USER    
DOCKED: USER    
DOCKED: USER    NEWDPF move heme_Co_opt.pdbqt
DOCKED: USER    NEWDPF about 8.781000 34.984000 -0.736000
DOCKED: USER    NEWDPF tran0 8.257259 13.521699 4.737653
DOCKED: USER    NEWDPF quaternion0 -0.379137 -0.261533 -0.537843 -0.706102
DOCKED: USER    NEWDPF axisangle0 -0.535422 -0.369340 -0.759547 -90.162676
DOCKED: USER    NEWDPF quat0 -0.535422 -0.369340 -0.759547 -90.162676
DOCKED: USER    NEWDPF dihe0 39.89 96.06 -162.36 90.51 132.75 83.01 -57.90 120.42 73.56 152.27 -12.07 166.40 
DOCKED: USER  keepresnum = 1 
DOCKED: USER  
DOCKED: REMARK  12 active torsions:
DOCKED: REMARK  status: ('A' for Active; 'I' for Inactive)
DOCKED: REMARK    1  A    between atoms: C_6  and  C_10 
DOCKED: REMARK    2  A    between atoms: C_10  and  C_11 
DOCKED: REMARK    3  A    between atoms: C_11  and  C_12 
DOCKED: REMARK    4  A    between atoms: C_12  and  O_14 
DOCKED: REMARK    5  A    between atoms: C_17  and  C_20 
DOCKED: REMARK    6  A    between atoms: C_24  and  C_27 
DOCKED: REMARK    7  A    between atoms: C_31  and  C_34 
DOCKED: REMARK    8  A    between atoms: C_34  and  C_35 
DOCKED: REMARK    9  A    between atoms: C_35  and  C_36 
DOCKED: REMARK   10  A    between atoms: C_36  and  O_38 
DOCKED: REMARK   11  A    between atoms: FE_43  and  C_44 
DOCKED: REMARK   12  A    between atoms: C_44  and  O_45 
DOCKED: USER                              x       y       z     vdW  Elec       q    Type
DOCKED: USER                           _______ _______ _______ _____ _____    ______ ____
DOCKED: ROOT
DOCKED: ATOM      1  C   UNL d   1       8.152  13.980   2.618 -0.19 +0.00    +0.064 A 
DOCKED: ATOM      2  C   UNL d   1       6.106  15.968   6.422 -0.24 -0.01    +0.064 C 
DOCKED: ATOM      3  C   UNL d   1       7.944  12.569   9.233 -0.24 -0.01    +0.064 A 
DOCKED: ATOM      4  C   UNL d   1      10.357  10.743   5.425 -0.09 +0.00    +0.064 A 
DOCKED: ATOM      5  C   UNL d   1       7.428  14.752   3.445 -0.23 -0.00    +0.066 A 
DOCKED: ATOM      6  C   UNL d   1       6.778  15.920   3.001 -0.20 +0.00    -0.021 A 
DOCKED: ATOM      7  C   UNL d   1       6.205  16.505   4.113 -0.21 +0.00    -0.025 A 
DOCKED: ATOM      8  C   UNL d   1       6.516  15.661   5.185 -0.22 -0.01    +0.066 A 
DOCKED: ATOM      9  C   UNL d   1       5.395  17.808   4.180 -0.15 +0.00    +0.051 C 
DOCKED: ATOM     10  C   UNL d   1       6.355  15.148   7.581 -0.22 -0.01    +0.066 A 
DOCKED: ATOM     11  C   UNL d   1       5.834  15.341   8.879 -0.23 +0.00    -0.021 A 
DOCKED: ATOM     12  C   UNL d   1       6.383  14.334   9.678 -0.23 -0.00    +0.000 A 
DOCKED: ATOM     13  C   UNL d   1       7.185  13.595   8.808 -0.25 -0.01    +0.070 A 
DOCKED: ATOM     14  C   UNL d   1       4.807  16.367   9.285 -0.13 -0.00    +0.052 C 
DOCKED: ATOM     15  C   UNL d   1       8.866  11.736   8.486 -0.20 -0.00    +0.066 A 
DOCKED: ATOM     16  C   UNL d   1       9.728  10.786   9.014 -0.14 -0.00    -0.021 A 
DOCKED: ATOM     17  C   UNL d   1      10.429  10.258   7.920 -0.11 +0.00    +0.000 A 
DOCKED: ATOM     18  C   UNL d   1       9.923  10.918   6.805 -0.11 +0.00    +0.070 A 
DOCKED: ATOM     19  C   UNL d   1       9.851  10.430  10.479 -0.11 +0.00    +0.052 C 
DOCKED: ATOM     20  C   UNL d   1       9.943  11.435   4.336 -0.05 +0.00    +0.066 A 
DOCKED: ATOM     21  C   UNL d   1      10.461  11.200   3.064 -0.11 -0.00    -0.025 A 
DOCKED: ATOM     22  C   UNL d   1       9.823  12.099   2.230 -0.15 -0.00    -0.021 A 
DOCKED: ATOM     23  C   UNL d   1       8.948  12.852   3.042 -0.18 +0.00    +0.066 A 
DOCKED: ATOM     24  C   UNL d   1      11.527  10.182   2.666 -0.06 +0.00    +0.051 C 
DOCKED: ATOM     25  N   UNL d   1       7.268  14.564   4.799 -0.13 +0.04    -0.248 N 
DOCKED: ATOM     26  N   UNL d   1       7.124  14.055   7.530 -0.18 +0.05    -0.248 N 
DOCKED: ATOM     27  N   UNL d   1       9.017  11.812   7.183 -0.14 -0.00    -0.248 N 
DOCKED: ATOM     28  N   UNL d   1       9.020  12.454   4.318 -0.05 +0.00    -0.248 N 
DOCKED: ATOM     29 FE   UNL d   1       8.195  13.105   6.059 -0.06 -0.00    +0.000 Fe
DOCKED: ENDROOT
DOCKED: BRANCH   6  30
DOCKED: ATOM     30  C   UNL d   1       6.785  16.481   1.583 -0.15 +0.00    +0.052 C 
DOCKED: BRANCH  30  31
DOCKED: ATOM     31  C   UNL d   1       5.927  15.617   0.659 -0.15 +0.01    +0.115 C 
DOCKED: BRANCH  31  32
DOCKED: ATOM     32  C   UNL d   1       6.759  14.812  -0.316 -0.16 +0.01    +0.139 C 
DOCKED: ATOM     33  O   UNL d   1       6.216  13.975  -1.022 -0.02 -0.07    -0.650 OA
DOCKED: BRANCH  32  34
DOCKED: ATOM     34  O   UNL d   1       8.087  15.023  -0.471 +0.04 -0.05    -0.776 OA
DOCKED: ATOM     35  H   UNL d   1       8.687  15.264   0.249 +0.02 +0.01    +0.167 HD
DOCKED: ENDBRANCH  32  34
DOCKED: ENDBRANCH  31  32
DOCKED: ENDBRANCH  30  31
DOCKED: ENDBRANCH   6  30
DOCKED: BRANCH  29  36
DOCKED: ATOM     36  C   UNL d   1       9.757  14.481   6.312 -0.05 -0.00    +0.190 C 
DOCKED: BRANCH  36  37
DOCKED: ATOM     37  O   UNL d   1      10.838  15.072   5.651 -0.00 +0.00    -0.399 OA
DOCKED: ATOM     38  H   UNL d   1      11.009  14.485   4.862 +0.02 +0.00    +0.209 HD
DOCKED: ENDBRANCH  36  37
DOCKED: ENDBRANCH  29  36
DOCKED: BRANCH  22  39
DOCKED: ATOM     39  C   UNL d   1      10.091  12.264   0.745 -0.10 +0.01    +0.052 C 
DOCKED: BRANCH  39  40
DOCKED: ATOM     40  C   UNL d   1      11.157  13.345   0.504 -0.02 +0.01    +0.115 C 
DOCKED: BRANCH  40  41
DOCKED: ATOM     41  C   UNL d   1      11.132  14.482   1.503 -0.01 +0.00    +0.139 C 
DOCKED: ATOM     42  O   UNL d   1      10.617  15.546   1.186 +0.01 -0.02    -0.650 OA
DOCKED: BRANCH  41  43
DOCKED: ATOM     43  O   UNL d   1      11.585  14.328   2.767 +0.02 -0.02    -0.776 OA
DOCKED: ATOM     44  H   UNL d   1      11.287  14.886   3.497 +0.01 +0.00    +0.167 HD
DOCKED: ENDBRANCH  41  43
DOCKED: ENDBRANCH  40  41
DOCKED: ENDBRANCH  39  40
DOCKED: ENDBRANCH  22  39
DOCKED: BRANCH  12  45
DOCKED: ATOM     45  C   UNL d   1       6.227  13.975  11.149 -0.22 -0.00    +0.004 C 
DOCKED: ATOM     46  C   UNL d   1       5.282  13.279  11.776 -0.30 -0.00    +0.012 C 
DOCKED: ENDBRANCH  12  45
DOCKED: BRANCH  17  47
DOCKED: ATOM     47  C   UNL d   1      11.529   9.249   7.888 -0.06 +0.00    +0.004 C 
DOCKED: ATOM     48  C   UNL d   1      11.387   8.019   7.388 -0.09 +0.00    +0.012 C 
DOCKED: ENDBRANCH  17  47
DOCKED: TORSDOF 12
DOCKED: TER
DOCKED: ENDMDL
________________________________________________________________________________


	BEGINNING GENETIC ALGORITHM DOCKING 21 of 100
Run: 21 Seed: 1092488503 1865936499 [ Run 21 of 100 GA/GALS ]
Beginning LAMARCKIAN GENETIC ALGORITHM (LGA), with a maximum of 25000000 energy evaluations.

Final-Value: -10.632


	FINAL GENETIC ALGORITHM DOCKED STATE
	_______________________________________________


Detailed state:  trans 2.403 -0.198 -20.852 quatxyzw 0.740962 -0.248033 0.402631 -0.476805 center 8.781 34.984 -0.736 ntor 12 -171.8181 124.4276 25.9792 -117.4028 -93.8929 131.1295 36.8293 143.2081 179.1970 -58.6477 -167.3421 157.4979
State:	  2.403  -0.198 -20.852   0.843 -0.282  0.458 -123.046   -171.82  124.43   25.98 -117.40  -93.89  131.13   36.83  143.21  179.20  -58.65 -167.34  157.50

DOCKED: MODEL       21
DOCKED: USER    Run = 21
DOCKED: USER    DPF = D:/Protein_go_brrr/autodock/final/mut_D99N/heme_Co/dock.dpf
DOCKED: USER  
DOCKED: USER    Estimated Free Energy of Binding    =   -4.80 kcal/mol  [=(1)+(2)+(3)-(4)]
DOCKED: USER    Estimated Inhibition Constant, Ki   =  301.69 uM (micromolar)  [Temperature = 298.15 K]
DOCKED: USER    
DOCKED: USER    (1) Final Intermolecular Energy     =   -8.38 kcal/mol
DOCKED: USER        vdW + Hbond + desolv Energy     =   -5.63 kcal/mol
DOCKED: USER        Electrostatic Energy            =   -2.75 kcal/mol
DOCKED: USER    (2) Final Total Internal Energy     =   -2.25 kcal/mol
DOCKED: USER    (3) Torsional Free Energy           =   +3.58 kcal/mol
DOCKED: USER    (4) Unbound System's Energy  [=(2)] =   -2.25 kcal/mol
DOCKED: USER    
DOCKED: USER    
DOCKED: USER    NEWDPF move heme_Co_opt.pdbqt
DOCKED: USER    NEWDPF about 8.781000 34.984000 -0.736000
DOCKED: USER    NEWDPF tran0 2.402529 -0.198223 -20.852167
DOCKED: USER    NEWDPF quaternion0 0.740962 -0.248033 0.402631 -0.476805
DOCKED: USER    NEWDPF axisangle0 0.842952 -0.282173 0.458051 -123.046159
DOCKED: USER    NEWDPF quat0 0.842952 -0.282173 0.458051 -123.046159
DOCKED: USER    NEWDPF dihe0 -171.82 124.43 25.98 -117.40 -93.89 131.13 36.83 143.21 179.20 -58.65 -167.34 157.50 
DOCKED: USER  keepresnum = 1 
DOCKED: USER  
DOCKED: REMARK  12 active torsions:
DOCKED: REMARK  status: ('A' for Active; 'I' for Inactive)
DOCKED: REMARK    1  A    between atoms: C_6  and  C_10 
DOCKED: REMARK    2  A    between atoms: C_10  and  C_11 
DOCKED: REMARK    3  A    between atoms: C_11  and  C_12 
DOCKED: REMARK    4  A    between atoms: C_12  and  O_14 
DOCKED: REMARK    5  A    between atoms: C_17  and  C_20 
DOCKED: REMARK    6  A    between atoms: C_24  and  C_27 
DOCKED: REMARK    7  A    between atoms: C_31  and  C_34 
DOCKED: REMARK    8  A    between atoms: C_34  and  C_35 
DOCKED: REMARK    9  A    between atoms: C_35  and  C_36 
DOCKED: REMARK   10  A    between atoms: C_36  and  O_38 
DOCKED: REMARK   11  A    between atoms: FE_43  and  C_44 
DOCKED: REMARK   12  A    between atoms: C_44  and  O_45 
DOCKED: USER                              x       y       z     vdW  Elec       q    Type
DOCKED: USER                           _______ _______ _______ _____ _____    ______ ____
DOCKED: ROOT
DOCKED: ATOM      1  C   UNL d   1       0.652   0.330 -22.024 -0.04 +0.02    +0.064 A 
DOCKED: ATOM      2  C   UNL d   1       4.692  -1.911 -23.149 -0.09 +0.01    +0.064 C 
DOCKED: ATOM      3  C   UNL d   1       6.407  -1.100 -18.764 -0.13 +0.02    +0.064 A 
DOCKED: ATOM      4  C   UNL d   1       2.143   0.852 -17.471 -0.03 +0.03    +0.064 A 
DOCKED: ATOM      5  C   UNL d   1       1.644  -0.310 -22.664 -0.03 +0.02    +0.066 A 
DOCKED: ATOM      6  C   UNL d   1       1.496  -0.791 -23.980 -0.02 -0.00    -0.021 A 
DOCKED: ATOM      7  C   UNL d   1       2.663  -1.460 -24.293 -0.02 -0.00    -0.025 A 
DOCKED: ATOM      8  C   UNL d   1       3.478  -1.345 -23.162 -0.04 +0.01    +0.066 A 
DOCKED: ATOM      9  C   UNL d   1       3.011  -2.185 -25.602 -0.01 +0.00    +0.051 C 
DOCKED: ATOM     10  C   UNL d   1       5.611  -1.824 -22.041 -0.11 +0.01    +0.066 A 
DOCKED: ATOM     11  C   UNL d   1       6.949  -2.275 -22.017 -0.13 -0.00    -0.021 A 
DOCKED: ATOM     12  C   UNL d   1       7.426  -2.022 -20.728 -0.14 +0.00    +0.000 A 
DOCKED: ATOM     13  C   UNL d   1       6.352  -1.427 -20.067 -0.10 +0.02    +0.070 A 
DOCKED: ATOM     14  C   UNL d   1       7.728  -2.819 -23.187 -0.12 +0.00    +0.052 C 
DOCKED: ATOM     15  C   UNL d   1       5.381  -0.529 -17.914 -0.20 +0.02    +0.066 A 
DOCKED: ATOM     16  C   UNL d   1       5.455  -0.351 -16.540 -0.27 -0.01    -0.021 A 
DOCKED: ATOM     17  C   UNL d   1       4.227   0.210 -16.162 -0.26 +0.00    +0.000 A 
DOCKED: ATOM     18  C   UNL d   1       3.504   0.345 -17.342 -0.16 +0.02    +0.070 A 
DOCKED: ATOM     19  C   UNL d   1       6.642  -0.706 -15.672 -0.29 +0.02    +0.052 C 
DOCKED: ATOM     20  C   UNL d   1       1.389   0.913 -18.595 -0.08 +0.04    +0.066 A 
DOCKED: ATOM     21  C   UNL d   1       0.079   1.388 -18.586 -0.12 -0.03    -0.025 A 
DOCKED: ATOM     22  C   UNL d   1      -0.367   1.276 -19.890 -0.10 -0.02    -0.021 A 
DOCKED: ATOM     23  C   UNL d   1       0.698   0.723 -20.634 -0.09 +0.04    +0.066 A 
DOCKED: ATOM     24  C   UNL d   1      -0.716   1.904 -17.390 -0.16 +0.06    +0.051 C 
DOCKED: ATOM     25  N   UNL d   1       2.875  -0.633 -22.140 -0.02 -0.05    -0.248 N 
DOCKED: ATOM     26  N   UNL d   1       5.274  -1.257 -20.878 -0.08 -0.05    -0.248 N 
DOCKED: ATOM     27  N   UNL d   1       4.210  -0.133 -18.361 -0.11 -0.07    -0.248 N 
DOCKED: ATOM     28  N   UNL d   1       1.761   0.499 -19.852 -0.08 -0.12    -0.248 N 
DOCKED: ATOM     29 FE   UNL d   1       3.579  -0.366 -20.138 -0.03 +0.00    +0.000 Fe
DOCKED: ENDROOT
DOCKED: BRANCH   6  30
DOCKED: ATOM     30  C   UNL d   1       0.253  -0.676 -24.856 -0.01 +0.01    +0.052 C 
DOCKED: BRANCH  30  31
DOCKED: ATOM     31  C   UNL d   1      -0.739  -1.793 -24.530 -0.03 +0.02    +0.115 C 
DOCKED: BRANCH  31  32
DOCKED: ATOM     32  C   UNL d   1      -0.208  -2.748 -23.483 -0.09 +0.03    +0.139 C 
DOCKED: ATOM     33  O   UNL d   1       0.385  -3.756 -23.835 -0.01 -0.08    -0.650 OA
DOCKED: BRANCH  32  34
DOCKED: ATOM     34  O   UNL d   1      -0.327  -2.499 -22.158 -0.01 -0.31    -0.776 OA
DOCKED: ATOM     35  H   UNL d   1       0.048  -3.058 -21.464 -0.06 +0.07    +0.167 HD
DOCKED: ENDBRANCH  32  34
DOCKED: ENDBRANCH  31  32
DOCKED: ENDBRANCH  30  31
DOCKED: ENDBRANCH   6  30
DOCKED: BRANCH  29  36
DOCKED: ATOM     36  C   UNL d   1       2.771  -2.255 -19.721 -0.15 +0.06    +0.190 C 
DOCKED: BRANCH  36  37
DOCKED: ATOM     37  O   UNL d   1       1.807  -3.174 -20.150 -0.17 -0.17    -0.399 OA
DOCKED: ATOM     38  H   UNL d   1       1.501  -2.830 -21.036 +0.04 +0.08    +0.209 HD
DOCKED: ENDBRANCH  36  37
DOCKED: ENDBRANCH  29  36
DOCKED: BRANCH  22  39
DOCKED: ATOM     39  C   UNL d   1      -1.762   1.622 -20.376 -0.07 +0.04    +0.052 C 
DOCKED: BRANCH  39  40
DOCKED: ATOM     40  C   UNL d   1      -2.608   0.350 -20.547 -0.12 +0.13    +0.115 C 
DOCKED: BRANCH  40  41
DOCKED: ATOM     41  C   UNL d   1      -3.802   0.265 -19.619 -0.11 +0.23    +0.139 C 
DOCKED: ATOM     42  O   UNL d   1      -3.633  -0.072 -18.456 -0.33 -1.62    -0.650 OA
DOCKED: BRANCH  41  43
DOCKED: ATOM     43  O   UNL d   1      -5.039   0.635 -20.018 -0.01 -1.45    -0.776 OA
DOCKED: ATOM     44  H   UNL d   1      -5.344   0.532 -20.929 +0.02 +0.21    +0.167 HD
DOCKED: ENDBRANCH  41  43
DOCKED: ENDBRANCH  40  41
DOCKED: ENDBRANCH  39  40
DOCKED: ENDBRANCH  22  39
DOCKED: BRANCH  12  45
DOCKED: ATOM     45  C   UNL d   1       8.771  -2.257 -20.055 -0.19 +0.00    +0.004 C 
DOCKED: ATOM     46  C   UNL d   1       9.077  -2.901 -18.932 -0.31 +0.01    +0.012 C 
DOCKED: ENDBRANCH  12  45
DOCKED: BRANCH  17  47
DOCKED: ATOM     47  C   UNL d   1       3.715   0.558 -14.803 -0.41 +0.00    +0.004 C 
DOCKED: ATOM     48  C   UNL d   1       2.661  -0.037 -14.237 -0.54 +0.00    +0.012 C 
DOCKED: ENDBRANCH  17  47
DOCKED: TORSDOF 12
DOCKED: TER
DOCKED: ENDMDL
________________________________________________________________________________


	BEGINNING GENETIC ALGORITHM DOCKING 22 of 100
Run: 22 Seed: 1978543460 1452708682 [ Run 22 of 100 GA/GALS ]
Beginning LAMARCKIAN GENETIC ALGORITHM (LGA), with a maximum of 25000000 energy evaluations.

Final-Value: -10.069


	FINAL GENETIC ALGORITHM DOCKED STATE
	_______________________________________________


Detailed state:  trans 7.389 13.607 7.841 quatxyzw 0.307113 0.825588 0.305149 -0.361898 center 8.781 34.984 -0.736 ntor 12 53.3221 127.5517 -145.6267 104.8072 72.0949 96.3391 39.7641 105.8357 165.0519 139.5183 -160.4529 -180.0000
State:	  7.389  13.607   7.841   0.329  0.886  0.327 -137.566     53.32  127.55 -145.63  104.81   72.09   96.34   39.76  105.84  165.05  139.52 -160.45 -180.00

DOCKED: MODEL       22
DOCKED: USER    Run = 22
DOCKED: USER    DPF = D:/Protein_go_brrr/autodock/final/mut_D99N/heme_Co/dock.dpf
DOCKED: USER  
DOCKED: USER    Estimated Free Energy of Binding    =   -2.55 kcal/mol  [=(1)+(2)+(3)-(4)]
DOCKED: USER    Estimated Inhibition Constant, Ki   =   13.54 mM (millimolar)  [Temperature = 298.15 K]
DOCKED: USER    
DOCKED: USER    (1) Final Intermolecular Energy     =   -6.13 kcal/mol
DOCKED: USER        vdW + Hbond + desolv Energy     =   -6.25 kcal/mol
DOCKED: USER        Electrostatic Energy            =   +0.12 kcal/mol
DOCKED: USER    (2) Final Total Internal Energy     =   -3.94 kcal/mol
DOCKED: USER    (3) Torsional Free Energy           =   +3.58 kcal/mol
DOCKED: USER    (4) Unbound System's Energy  [=(2)] =   -3.94 kcal/mol
DOCKED: USER    
DOCKED: USER    
DOCKED: USER    NEWDPF move heme_Co_opt.pdbqt
DOCKED: USER    NEWDPF about 8.781000 34.984000 -0.736000
DOCKED: USER    NEWDPF tran0 7.389408 13.607131 7.841362
DOCKED: USER    NEWDPF quaternion0 0.307113 0.825588 0.305149 -0.361898
DOCKED: USER    NEWDPF axisangle0 0.329444 0.885617 0.327336 -137.566405
DOCKED: USER    NEWDPF quat0 0.329444 0.885617 0.327336 -137.566405
DOCKED: USER    NEWDPF dihe0 53.32 127.55 -145.63 104.81 72.09 96.34 39.76 105.84 165.05 139.52 -160.45 -180.00 
DOCKED: USER  keepresnum = 1 
DOCKED: USER  
DOCKED: REMARK  12 active torsions:
DOCKED: REMARK  status: ('A' for Active; 'I' for Inactive)
DOCKED: REMARK    1  A    between atoms: C_6  and  C_10 
DOCKED: REMARK    2  A    between atoms: C_10  and  C_11 
DOCKED: REMARK    3  A    between atoms: C_11  and  C_12 
DOCKED: REMARK    4  A    between atoms: C_12  and  O_14 
DOCKED: REMARK    5  A    between atoms: C_17  and  C_20 
DOCKED: REMARK    6  A    between atoms: C_24  and  C_27 
DOCKED: REMARK    7  A    between atoms: C_31  and  C_34 
DOCKED: REMARK    8  A    between atoms: C_34  and  C_35 
DOCKED: REMARK    9  A    between atoms: C_35  and  C_36 
DOCKED: REMARK   10  A    between atoms: C_36  and  O_38 
DOCKED: REMARK   11  A    between atoms: FE_43  and  C_44 
DOCKED: REMARK   12  A    between atoms: C_44  and  O_45 
DOCKED: USER                              x       y       z     vdW  Elec       q    Type
DOCKED: USER                           _______ _______ _______ _____ _____    ______ ____
DOCKED: ROOT
DOCKED: ATOM      1  C   UNL d   1       7.928  12.271   9.466 -0.25 -0.00    +0.064 A 
DOCKED: ATOM      2  C   UNL d   1       9.407  12.576   4.957 -0.13 -0.00    +0.064 C 
DOCKED: ATOM      3  C   UNL d   1       6.187  15.999   4.094 -0.24 -0.00    +0.064 A 
DOCKED: ATOM      4  C   UNL d   1       4.923  15.977   8.791 -0.06 -0.00    +0.064 A 
DOCKED: ATOM      5  C   UNL d   1       8.544  12.078   8.288 -0.23 -0.00    +0.066 A 
DOCKED: ATOM      6  C   UNL d   1       9.623  11.183   8.147 -0.16 -0.00    -0.021 A 
DOCKED: ATOM      7  C   UNL d   1      10.063  11.293   6.843 -0.14 -0.00    -0.025 A 
DOCKED: ATOM      8  C   UNL d   1       9.224  12.236   6.240 -0.07 -0.00    +0.066 A 
DOCKED: ATOM      9  C   UNL d   1      11.227  10.545   6.175 -0.08 +0.00    +0.051 C 
DOCKED: ATOM     10  C   UNL d   1       8.578  13.517   4.246 -0.19 -0.00    +0.066 A 
DOCKED: ATOM     11  C   UNL d   1       8.630  13.812   2.866 -0.18 -0.00    -0.021 A 
DOCKED: ATOM     12  C   UNL d   1       7.678  14.810   2.641 -0.21 +0.00    +0.000 A 
DOCKED: ATOM     13  C   UNL d   1       7.109  15.041   3.893 -0.24 -0.01    +0.070 A 
DOCKED: ATOM     14  C   UNL d   1       9.472  13.106   1.834 -0.14 +0.00    +0.052 C 
DOCKED: ATOM     15  C   UNL d   1       5.536  16.407   5.323 -0.26 -0.00    +0.066 A 
DOCKED: ATOM     16  C   UNL d   1       4.700  17.502   5.488 -0.21 -0.00    -0.021 A 
DOCKED: ATOM     17  C   UNL d   1       4.335  17.501   6.842 -0.21 +0.00    +0.000 A 
DOCKED: ATOM     18  C   UNL d   1       4.966  16.391   7.394 -0.11 -0.00    +0.070 A 
DOCKED: ATOM     19  C   UNL d   1       4.297  18.470   4.398 -0.12 +0.00    +0.052 C 
DOCKED: ATOM     20  C   UNL d   1       5.596  14.953   9.368 -0.24 -0.01    +0.066 A 
DOCKED: ATOM     21  C   UNL d   1       5.502  14.675  10.730 -0.20 +0.00    -0.025 A 
DOCKED: ATOM     22  C   UNL d   1       6.335  13.594  10.949 -0.20 +0.00    -0.021 A 
DOCKED: ATOM     23  C   UNL d   1       6.911  13.270   9.701 -0.24 -0.01    +0.066 A 
DOCKED: ATOM     24  C   UNL d   1       4.674  15.416  11.777 -0.14 -0.00    +0.051 C 
DOCKED: ATOM     25  N   UNL d   1       8.270  12.735   7.110 -0.18 +0.01    -0.248 N 
DOCKED: ATOM     26  N   UNL d   1       7.615  14.219   4.852 -0.17 +0.03    -0.248 N 
DOCKED: ATOM     27  N   UNL d   1       5.696  15.781   6.468 -0.18 +0.03    -0.248 N 
DOCKED: ATOM     28  N   UNL d   1       6.468  14.092   8.743 -0.21 +0.05    -0.248 N 
DOCKED: ATOM     29 FE   UNL d   1       6.906  14.348   6.773 -0.06 -0.00    +0.000 Fe
DOCKED: ENDROOT
DOCKED: BRANCH   6  30
DOCKED: ATOM     30  C   UNL d   1      10.246  10.329   9.246 -0.11 +0.00    +0.052 C 
DOCKED: BRANCH  30  31
DOCKED: ATOM     31  C   UNL d   1      11.131  11.182  10.154 -0.03 +0.00    +0.115 C 
DOCKED: BRANCH  31  32
DOCKED: ATOM     32  C   UNL d   1      11.490  12.512   9.525 -0.02 +0.00    +0.139 C 
DOCKED: ATOM     33  O   UNL d   1      12.498  12.599   8.840 +0.01 -0.00    -0.650 OA
DOCKED: BRANCH  32  34
DOCKED: ATOM     34  O   UNL d   1      10.702  13.604   9.657 +0.02 +0.01    -0.776 OA
DOCKED: ATOM     35  H   UNL d   1      10.349  13.921  10.499 +0.01 -0.00    +0.167 HD
DOCKED: ENDBRANCH  32  34
DOCKED: ENDBRANCH  31  32
DOCKED: ENDBRANCH  30  31
DOCKED: ENDBRANCH   6  30
DOCKED: BRANCH  29  36
DOCKED: ATOM     36  C   UNL d   1       8.483  15.637   7.267 -0.06 -0.01    +0.190 C 
DOCKED: BRANCH  36  37
DOCKED: ATOM     37  O   UNL d   1       9.389  15.950   8.286 -0.00 +0.01    -0.399 OA
DOCKED: ATOM     38  H   UNL d   1       9.345  15.177   8.915 +0.02 -0.01    +0.209 HD
DOCKED: ENDBRANCH  36  37
DOCKED: ENDBRANCH  29  36
DOCKED: BRANCH  22  39
DOCKED: ATOM     39  C   UNL d   1       6.609  12.952  12.296 -0.21 -0.00    +0.052 C 
DOCKED: BRANCH  39  40
DOCKED: ATOM     40  C   UNL d   1       7.617  13.790  13.101 -0.09 -0.00    +0.115 C 
DOCKED: BRANCH  40  41
DOCKED: ATOM     41  C   UNL d   1       8.827  14.241  12.310 -0.03 -0.00    +0.139 C 
DOCKED: ATOM     42  O   UNL d   1       9.936  13.837  12.629 +0.01 +0.02    -0.650 OA
DOCKED: BRANCH  41  43
DOCKED: ATOM     43  O   UNL d   1       8.706  15.011  11.205 +0.03 +0.03    -0.776 OA
DOCKED: ATOM     44  H   UNL d   1       9.240  14.869  10.413 +0.02 -0.01    +0.167 HD
DOCKED: ENDBRANCH  41  43
DOCKED: ENDBRANCH  40  41
DOCKED: ENDBRANCH  39  40
DOCKED: ENDBRANCH  22  39
DOCKED: BRANCH  12  45
DOCKED: ATOM     45  C   UNL d   1       7.230  15.554   1.390 -0.19 +0.00    +0.004 C 
DOCKED: ATOM     46  C   UNL d   1       6.206  15.333   0.571 -0.24 +0.00    +0.012 C 
DOCKED: ENDBRANCH  12  45
DOCKED: BRANCH  17  47
DOCKED: ATOM     47  C   UNL d   1       3.502  18.478   7.606 -0.15 +0.00    +0.004 C 
DOCKED: ATOM     48  C   UNL d   1       2.297  18.890   7.206 -0.19 +0.00    +0.012 C 
DOCKED: ENDBRANCH  17  47
DOCKED: TORSDOF 12
DOCKED: TER
DOCKED: ENDMDL
________________________________________________________________________________


	BEGINNING GENETIC ALGORITHM DOCKING 23 of 100
Run: 23 Seed: 327431847 2131615089 [ Run 23 of 100 GA/GALS ]
Beginning LAMARCKIAN GENETIC ALGORITHM (LGA), with a maximum of 25000000 energy evaluations.

Final-Value: -10.340


	FINAL GENETIC ALGORITHM DOCKED STATE
	_______________________________________________


Detailed state:  trans 16.091 -0.462 3.934 quatxyzw 0.198516 0.704467 0.116541 -0.671369 center 8.781 34.984 -0.736 ntor 12 -165.0090 121.4066 -80.8222 139.3849 118.0543 134.4562 21.5425 -62.3290 -170.6874 -8.9492 180.0000 180.0000
State:	 16.091  -0.462   3.934   0.268  0.951  0.157 -95.654   -165.01  121.41  -80.82  139.38  118.05  134.46   21.54  -62.33 -170.69   -8.95  180.00  180.00

DOCKED: MODEL       23
DOCKED: USER    Run = 23
DOCKED: USER    DPF = D:/Protein_go_brrr/autodock/final/mut_D99N/heme_Co/dock.dpf
DOCKED: USER  
DOCKED: USER    Estimated Free Energy of Binding    =   -4.68 kcal/mol  [=(1)+(2)+(3)-(4)]
DOCKED: USER    Estimated Inhibition Constant, Ki   =  372.87 uM (micromolar)  [Temperature = 298.15 K]
DOCKED: USER    
DOCKED: USER    (1) Final Intermolecular Energy     =   -8.26 kcal/mol
DOCKED: USER        vdW + Hbond + desolv Energy     =   -7.51 kcal/mol
DOCKED: USER        Electrostatic Energy            =   -0.75 kcal/mol
DOCKED: USER    (2) Final Total Internal Energy     =   -2.08 kcal/mol
DOCKED: USER    (3) Torsional Free Energy           =   +3.58 kcal/mol
DOCKED: USER    (4) Unbound System's Energy  [=(2)] =   -2.08 kcal/mol
DOCKED: USER    
DOCKED: USER    
DOCKED: USER    NEWDPF move heme_Co_opt.pdbqt
DOCKED: USER    NEWDPF about 8.781000 34.984000 -0.736000
DOCKED: USER    NEWDPF tran0 16.090866 -0.462383 3.934260
DOCKED: USER    NEWDPF quaternion0 0.198516 0.704467 0.116541 -0.671369
DOCKED: USER    NEWDPF axisangle0 0.267858 0.950539 0.157249 -95.654388
DOCKED: USER    NEWDPF quat0 0.267858 0.950539 0.157249 -95.654388
DOCKED: USER    NEWDPF dihe0 -165.01 121.41 -80.82 139.38 118.05 134.46 21.54 -62.33 -170.69 -8.95 180.00 180.00 
DOCKED: USER  keepresnum = 1 
DOCKED: USER  
DOCKED: REMARK  12 active torsions:
DOCKED: REMARK  status: ('A' for Active; 'I' for Inactive)
DOCKED: REMARK    1  A    between atoms: C_6  and  C_10 
DOCKED: REMARK    2  A    between atoms: C_10  and  C_11 
DOCKED: REMARK    3  A    between atoms: C_11  and  C_12 
DOCKED: REMARK    4  A    between atoms: C_12  and  O_14 
DOCKED: REMARK    5  A    between atoms: C_17  and  C_20 
DOCKED: REMARK    6  A    between atoms: C_24  and  C_27 
DOCKED: REMARK    7  A    between atoms: C_31  and  C_34 
DOCKED: REMARK    8  A    between atoms: C_34  and  C_35 
DOCKED: REMARK    9  A    between atoms: C_35  and  C_36 
DOCKED: REMARK   10  A    between atoms: C_36  and  O_38 
DOCKED: REMARK   11  A    between atoms: FE_43  and  C_44 
DOCKED: REMARK   12  A    between atoms: C_44  and  O_45 
DOCKED: USER                              x       y       z     vdW  Elec       q    Type
DOCKED: USER                           _______ _______ _______ _____ _____    ______ ____
DOCKED: ROOT
DOCKED: ATOM      1  C   UNL d   1      15.347  -0.773   5.951 -0.06 +0.00    +0.064 A 
DOCKED: ATOM      2  C   UNL d   1      18.700  -2.985   3.406 -0.21 -0.00    +0.064 C 
DOCKED: ATOM      3  C   UNL d   1      17.604  -0.332  -0.414 -0.15 -0.01    +0.064 A 
DOCKED: ATOM      4  C   UNL d   1      14.439   2.205   2.272 -0.19 +0.00    +0.064 A 
DOCKED: ATOM      5  C   UNL d   1      16.319  -1.597   5.525 -0.20 -0.00    +0.066 A 
DOCKED: ATOM      6  C   UNL d   1      16.967  -2.499   6.392 -0.27 +0.00    -0.021 A 
DOCKED: ATOM      7  C   UNL d   1      17.954  -3.122   5.654 -0.20 +0.00    -0.025 A 
DOCKED: ATOM      8  C   UNL d   1      17.856  -2.586   4.366 -0.20 -0.00    +0.066 A 
DOCKED: ATOM      9  C   UNL d   1      18.959  -4.182   6.130 -0.16 +0.00    +0.051 C 
DOCKED: ATOM     10  C   UNL d   1      18.659  -2.509   2.045 -0.18 -0.00    +0.066 A 
DOCKED: ATOM     11  C   UNL d   1      19.423  -2.990   0.960 -0.20 +0.00    -0.021 A 
DOCKED: ATOM     12  C   UNL d   1      19.080  -2.201  -0.142 -0.18 -0.00    +0.000 A 
DOCKED: ATOM     13  C   UNL d   1      18.126  -1.309   0.348 -0.14 -0.01    +0.070 A 
DOCKED: ATOM     14  C   UNL d   1      20.341  -4.185   0.975 -0.27 -0.00    +0.052 C 
DOCKED: ATOM     15  C   UNL d   1      16.653   0.703  -0.058 -0.15 -0.00    +0.066 A 
DOCKED: ATOM     16  C   UNL d   1      16.263   1.771  -0.853 -0.15 +0.00    -0.021 A 
DOCKED: ATOM     17  C   UNL d   1      15.352   2.507  -0.082 -0.15 -0.00    +0.000 A 
DOCKED: ATOM     18  C   UNL d   1      15.245   1.817   1.121 -0.15 -0.00    +0.070 A 
DOCKED: ATOM     19  C   UNL d   1      16.753   2.043  -2.258 -0.07 -0.00    +0.052 C 
DOCKED: ATOM     20  C   UNL d   1      14.385   1.598   3.482 -0.23 +0.00    +0.066 A 
DOCKED: ATOM     21  C   UNL d   1      13.599   2.086   4.524 -0.24 -0.00    -0.025 A 
DOCKED: ATOM     22  C   UNL d   1      13.818   1.230   5.588 -0.28 -0.00    -0.021 A 
DOCKED: ATOM     23  C   UNL d   1      14.744   0.263   5.143 -0.24 +0.00    +0.066 A 
DOCKED: ATOM     24  C   UNL d   1      12.699   3.318   4.513 -0.14 +0.01    +0.051 C 
DOCKED: ATOM     25  N   UNL d   1      16.848  -1.643   4.256 -0.16 +0.03    -0.248 N 
DOCKED: ATOM     26  N   UNL d   1      17.831  -1.533   1.656 -0.09 +0.02    -0.248 N 
DOCKED: ATOM     27  N   UNL d   1      16.056   0.765   1.111 -0.08 +0.01    -0.248 N 
DOCKED: ATOM     28  N   UNL d   1      15.091   0.483   3.870 -0.17 +0.00    -0.248 N 
DOCKED: ATOM     29 FE   UNL d   1      16.426  -0.366   2.592 -0.05 -0.00    +0.000 Fe
DOCKED: ENDROOT
DOCKED: BRANCH   6  30
DOCKED: ATOM     30  C   UNL d   1      16.694  -2.684   7.881 -0.22 -0.00    +0.052 C 
DOCKED: BRANCH  30  31
DOCKED: ATOM     31  C   UNL d   1      17.673  -1.858   8.714 -0.10 -0.00    +0.115 C 
DOCKED: BRANCH  31  32
DOCKED: ATOM     32  C   UNL d   1      18.527  -0.944   7.862 -0.04 +0.00    +0.139 C 
DOCKED: ATOM     33  O   UNL d   1      19.711  -1.202   7.704 +0.02 -0.01    -0.650 OA
DOCKED: BRANCH  32  34
DOCKED: ATOM     34  O   UNL d   1      18.011   0.132   7.223 +0.04 -0.02    -0.776 OA
DOCKED: ATOM     35  H   UNL d   1      18.485   0.647   6.556 +0.02 +0.00    +0.167 HD
DOCKED: ENDBRANCH  32  34
DOCKED: ENDBRANCH  31  32
DOCKED: ENDBRANCH  30  31
DOCKED: ENDBRANCH   6  30
DOCKED: BRANCH  29  36
DOCKED: ATOM     36  C   UNL d   1      17.946   0.885   3.311 -0.03 -0.00    +0.190 C 
DOCKED: BRANCH  36  37
DOCKED: ATOM     37  O   UNL d   1      18.683   1.197   4.458 +0.00 -0.00    -0.399 OA
DOCKED: ATOM     38  H   UNL d   1      18.430   0.498   5.123 +0.03 +0.00    +0.209 HD
DOCKED: ENDBRANCH  36  37
DOCKED: ENDBRANCH  29  36
DOCKED: BRANCH  22  39
DOCKED: ATOM     39  C   UNL d   1      13.219   1.379   6.974 -0.31 +0.01    +0.052 C 
DOCKED: BRANCH  39  40
DOCKED: ATOM     40  C   UNL d   1      13.975   2.448   7.781 -0.15 +0.03    +0.115 C 
DOCKED: BRANCH  40  41
DOCKED: ATOM     41  C   UNL d   1      13.254   2.915   9.028 -0.13 +0.07    +0.139 C 
DOCKED: ATOM     42  O   UNL d   1      13.238   2.194  10.015 -0.33 -0.31    -0.650 OA
DOCKED: BRANCH  41  43
DOCKED: ATOM     43  O   UNL d   1      12.701   4.146   9.111 -0.35 -0.61    -0.776 OA
DOCKED: ATOM     44  H   UNL d   1      13.231   4.946   9.222 +0.02 +0.07    +0.167 HD
DOCKED: ENDBRANCH  41  43
DOCKED: ENDBRANCH  40  41
DOCKED: ENDBRANCH  39  40
DOCKED: ENDBRANCH  22  39
DOCKED: BRANCH  12  45
DOCKED: ATOM     45  C   UNL d   1      19.528  -2.200  -1.598 -0.27 -0.00    +0.004 C 
DOCKED: ATOM     46  C   UNL d   1      18.818  -2.177  -2.722 -0.38 -0.00    +0.012 C 
DOCKED: ENDBRANCH  12  45
DOCKED: BRANCH  17  47
DOCKED: ATOM     47  C   UNL d   1      14.656   3.791  -0.395 -0.14 +0.00    +0.004 C 
DOCKED: ATOM     48  C   UNL d   1      13.416   3.856  -0.885 -0.20 +0.00    +0.012 C 
DOCKED: ENDBRANCH  17  47
DOCKED: TORSDOF 12
DOCKED: TER
DOCKED: ENDMDL
________________________________________________________________________________


	BEGINNING GENETIC ALGORITHM DOCKING 24 of 100
Run: 24 Seed: 1561461740 897907164 [ Run 24 of 100 GA/GALS ]
Beginning LAMARCKIAN GENETIC ALGORITHM (LGA), with a maximum of 25000000 energy evaluations.

Final-Value: -9.855


	FINAL GENETIC ALGORITHM DOCKED STATE
	_______________________________________________


Detailed state:  trans -3.656 17.995 7.497 quatxyzw 0.003652 -0.451665 -0.210750 -0.866931 center 8.781 34.984 -0.736 ntor 12 -12.3693 100.8944 -60.9914 84.5470 76.0799 139.6357 34.6649 64.1325 -127.2345 -77.0986 180.0000 13.9848
State:	 -3.656  17.995   7.497   0.007 -0.906 -0.423 -59.792    -12.37  100.89  -60.99   84.55   76.08  139.64   34.66   64.13 -127.23  -77.10  180.00   13.98

DOCKED: MODEL       24
DOCKED: USER    Run = 24
DOCKED: USER    DPF = D:/Protein_go_brrr/autodock/final/mut_D99N/heme_Co/dock.dpf
DOCKED: USER  
DOCKED: USER    Estimated Free Energy of Binding    =   -3.66 kcal/mol  [=(1)+(2)+(3)-(4)]
DOCKED: USER    Estimated Inhibition Constant, Ki   =    2.08 mM (millimolar)  [Temperature = 298.15 K]
DOCKED: USER    
DOCKED: USER    (1) Final Intermolecular Energy     =   -7.24 kcal/mol
DOCKED: USER        vdW + Hbond + desolv Energy     =   -6.86 kcal/mol
DOCKED: USER        Electrostatic Energy            =   -0.38 kcal/mol
DOCKED: USER    (2) Final Total Internal Energy     =   -2.62 kcal/mol
DOCKED: USER    (3) Torsional Free Energy           =   +3.58 kcal/mol
DOCKED: USER    (4) Unbound System's Energy  [=(2)] =   -2.62 kcal/mol
DOCKED: USER    
DOCKED: USER    
DOCKED: USER    NEWDPF move heme_Co_opt.pdbqt
DOCKED: USER    NEWDPF about 8.781000 34.984000 -0.736000
DOCKED: USER    NEWDPF tran0 -3.656308 17.994785 7.497448
DOCKED: USER    NEWDPF quaternion0 0.003652 -0.451665 -0.210750 -0.866931
DOCKED: USER    NEWDPF axisangle0 0.007327 -0.906180 -0.422829 -59.792020
DOCKED: USER    NEWDPF quat0 0.007327 -0.906180 -0.422829 -59.792020
DOCKED: USER    NEWDPF dihe0 -12.37 100.89 -60.99 84.55 76.08 139.64 34.66 64.13 -127.23 -77.10 180.00 13.98 
DOCKED: USER  keepresnum = 1 
DOCKED: USER  
DOCKED: REMARK  12 active torsions:
DOCKED: REMARK  status: ('A' for Active; 'I' for Inactive)
DOCKED: REMARK    1  A    between atoms: C_6  and  C_10 
DOCKED: REMARK    2  A    between atoms: C_10  and  C_11 
DOCKED: REMARK    3  A    between atoms: C_11  and  C_12 
DOCKED: REMARK    4  A    between atoms: C_12  and  O_14 
DOCKED: REMARK    5  A    between atoms: C_17  and  C_20 
DOCKED: REMARK    6  A    between atoms: C_24  and  C_27 
DOCKED: REMARK    7  A    between atoms: C_31  and  C_34 
DOCKED: REMARK    8  A    between atoms: C_34  and  C_35 
DOCKED: REMARK    9  A    between atoms: C_35  and  C_36 
DOCKED: REMARK   10  A    between atoms: C_36  and  O_38 
DOCKED: REMARK   11  A    between atoms: FE_43  and  C_44 
DOCKED: REMARK   12  A    between atoms: C_44  and  O_45 
DOCKED: USER                              x       y       z     vdW  Elec       q    Type
DOCKED: USER                           _______ _______ _______ _____ _____    ______ ____
DOCKED: ROOT
DOCKED: ATOM      1  C   UNL d   1      -3.782  19.006   5.580 -0.15 +0.01    +0.064 A 
DOCKED: ATOM      2  C   UNL d   1      -7.043  16.806   8.252 -0.18 -0.00    +0.064 C 
DOCKED: ATOM      3  C   UNL d   1      -3.654  15.443  11.332 -0.17 -0.02    +0.064 A 
DOCKED: ATOM      4  C   UNL d   1      -0.365  18.007   8.827 -0.16 +0.00    +0.064 A 
DOCKED: ATOM      5  C   UNL d   1      -4.917  18.475   6.065 -0.19 +0.01    +0.066 A 
DOCKED: ATOM      6  C   UNL d   1      -6.169  18.714   5.467 -0.17 -0.01    -0.021 A 
DOCKED: ATOM      7  C   UNL d   1      -7.114  18.092   6.259 -0.14 -0.01    -0.025 A 
DOCKED: ATOM      8  C   UNL d   1      -6.397  17.487   7.296 -0.18 +0.01    +0.066 A 
DOCKED: ATOM      9  C   UNL d   1      -8.637  18.061   6.060 -0.12 +0.01    +0.051 C 
DOCKED: ATOM     10  C   UNL d   1      -6.388  16.128   9.343 -0.23 -0.01    +0.066 A 
DOCKED: ATOM     11  C   UNL d   1      -6.995  15.282  10.296 -0.28 +0.00    -0.021 A 
DOCKED: ATOM     12  C   UNL d   1      -5.983  14.896  11.180 -0.27 -0.00    +0.000 A 
DOCKED: ATOM     13  C   UNL d   1      -4.835  15.522  10.694 -0.24 -0.01    +0.070 A 
DOCKED: ATOM     14  C   UNL d   1      -8.426  14.811  10.288 -0.32 -0.02    +0.052 C 
DOCKED: ATOM     15  C   UNL d   1      -2.387  16.065  11.002 -0.25 -0.01    +0.066 A 
DOCKED: ATOM     16  C   UNL d   1      -1.239  16.061  11.782 -0.23 +0.00    -0.021 A 
DOCKED: ATOM     17  C   UNL d   1      -0.289  16.801  11.065 -0.14 -0.00    +0.000 A 
DOCKED: ATOM     18  C   UNL d   1      -0.928  17.186   9.892 -0.06 +0.00    +0.070 A 
DOCKED: ATOM     19  C   UNL d   1      -1.096  15.382  13.126 -0.28 -0.01    +0.052 C 
DOCKED: ATOM     20  C   UNL d   1      -0.994  18.466   7.719 -0.23 +0.01    +0.066 A 
DOCKED: ATOM     21  C   UNL d   1      -0.356  19.279   6.785 -0.19 -0.00    -0.025 A 
DOCKED: ATOM     22  C   UNL d   1      -1.309  19.559   5.822 -0.16 -0.00    -0.021 A 
DOCKED: ATOM     23  C   UNL d   1      -2.493  18.908   6.226 -0.16 +0.01    +0.066 A 
DOCKED: ATOM     24  C   UNL d   1       1.085  19.782   6.817 -0.14 +0.00    +0.051 C 
DOCKED: ATOM     25  N   UNL d   1      -5.033  17.702   7.198 -0.15 -0.03    -0.248 N 
DOCKED: ATOM     26  N   UNL d   1      -5.070  16.221   9.552 -0.16 +0.02    -0.248 N 
DOCKED: ATOM     27  N   UNL d   1      -2.185  16.756   9.902 -0.18 +0.02    -0.248 N 
DOCKED: ATOM     28  N   UNL d   1      -2.308  18.247   7.375 -0.16 -0.03    -0.248 N 
DOCKED: ATOM     29 FE   UNL d   1      -3.522  17.202   8.628 -0.05 -0.00    +0.000 Fe
DOCKED: ENDROOT
DOCKED: BRANCH   6  30
DOCKED: ATOM     30  C   UNL d   1      -6.440  19.573   4.236 -0.12 +0.02    +0.052 C 
DOCKED: BRANCH  30  31
DOCKED: ATOM     31  C   UNL d   1      -6.854  20.986   4.647 -0.03 +0.02    +0.115 C 
DOCKED: BRANCH  31  32
DOCKED: ATOM     32  C   UNL d   1      -5.892  21.603   5.638 -0.01 +0.01    +0.139 C 
DOCKED: ATOM     33  O   UNL d   1      -6.129  21.525   6.834 +0.01 -0.03    -0.650 OA
DOCKED: BRANCH  32  34
DOCKED: ATOM     34  O   UNL d   1      -4.743  22.203   5.246 +0.02 -0.07    -0.776 OA
DOCKED: ATOM     35  H   UNL d   1      -4.341  22.089   4.374 +0.01 +0.02    +0.167 HD
DOCKED: ENDBRANCH  32  34
DOCKED: ENDBRANCH  31  32
DOCKED: ENDBRANCH  30  31
DOCKED: ENDBRANCH   6  30
DOCKED: BRANCH  29  36
DOCKED: ATOM     36  C   UNL d   1      -4.046  18.968   9.630 -0.03 -0.00    +0.190 C 
DOCKED: BRANCH  36  37
DOCKED: ATOM     37  O   UNL d   1      -4.741  20.172   9.477 +0.00 +0.00    -0.399 OA
DOCKED: ATOM     38  H   UNL d   1      -4.925  20.239   8.499 +0.02 +0.00    +0.209 HD
DOCKED: ENDBRANCH  36  37
DOCKED: ENDBRANCH  29  36
DOCKED: BRANCH  22  39
DOCKED: ATOM     39  C   UNL d   1      -1.103  20.458   4.617 -0.11 +0.01    +0.052 C 
DOCKED: BRANCH  39  40
DOCKED: ATOM     40  C   UNL d   1      -1.214  19.651   3.313 -0.17 +0.02    +0.115 C 
DOCKED: BRANCH  40  41
DOCKED: ATOM     41  C   UNL d   1      -2.573  19.720   2.649 -0.12 +0.03    +0.139 C 
DOCKED: ATOM     42  O   UNL d   1      -2.906  18.834   1.874 -0.02 -0.23    -0.650 OA
DOCKED: BRANCH  41  43
DOCKED: ATOM     43  O   UNL d   1      -3.465  20.688   2.955 +0.05 -0.16    -0.776 OA
DOCKED: ATOM     44  H   UNL d   1      -3.755  20.859   3.860 +0.03 +0.03    +0.167 HD
DOCKED: ENDBRANCH  41  43
DOCKED: ENDBRANCH  40  41
DOCKED: ENDBRANCH  39  40
DOCKED: ENDBRANCH  22  39
DOCKED: BRANCH  12  45
DOCKED: ATOM     45  C   UNL d   1      -5.965  13.996  12.409 -0.32 -0.00    +0.004 C 
DOCKED: ATOM     46  C   UNL d   1      -5.993  12.670  12.512 -0.47 -0.00    +0.012 C 
DOCKED: ENDBRANCH  12  45
DOCKED: BRANCH  17  47
DOCKED: ATOM     47  C   UNL d   1       1.105  17.184  11.442 -0.11 -0.00    +0.004 C 
DOCKED: ATOM     48  C   UNL d   1       2.036  16.302  11.814 -0.16 -0.00    +0.012 C 
DOCKED: ENDBRANCH  17  47
DOCKED: TORSDOF 12
DOCKED: TER
DOCKED: ENDMDL
________________________________________________________________________________


	BEGINNING GENETIC ALGORITHM DOCKING 25 of 100
Run: 25 Seed: 26481803 1246482391 [ Run 25 of 100 GA/GALS ]
Beginning LAMARCKIAN GENETIC ALGORITHM (LGA), with a maximum of 25000000 energy evaluations.

Final-Value: -9.620


	FINAL GENETIC ALGORITHM DOCKED STATE
	_______________________________________________


Detailed state:  trans -13.402 -5.858 1.752 quatxyzw -0.944404 0.274093 0.091373 0.156922 center 8.781 34.984 -0.736 ntor 12 -166.7244 125.8845 13.0865 -15.5497 117.2328 129.7360 40.1294 122.7760 175.9373 -130.6360 -167.5156 -13.0490
State:	-13.402  -5.858   1.752  -0.956  0.278  0.093 161.943   -166.72  125.88   13.09  -15.55  117.23  129.74   40.13  122.78  175.94 -130.64 -167.52  -13.05

DOCKED: MODEL       25
DOCKED: USER    Run = 25
DOCKED: USER    DPF = D:/Protein_go_brrr/autodock/final/mut_D99N/heme_Co/dock.dpf
DOCKED: USER  
DOCKED: USER    Estimated Free Energy of Binding    =   -3.76 kcal/mol  [=(1)+(2)+(3)-(4)]
DOCKED: USER    Estimated Inhibition Constant, Ki   =    1.76 mM (millimolar)  [Temperature = 298.15 K]
DOCKED: USER    
DOCKED: USER    (1) Final Intermolecular Energy     =   -7.34 kcal/mol
DOCKED: USER        vdW + Hbond + desolv Energy     =   -5.12 kcal/mol
DOCKED: USER        Electrostatic Energy            =   -2.21 kcal/mol
DOCKED: USER    (2) Final Total Internal Energy     =   -2.28 kcal/mol
DOCKED: USER    (3) Torsional Free Energy           =   +3.58 kcal/mol
DOCKED: USER    (4) Unbound System's Energy  [=(2)] =   -2.28 kcal/mol
DOCKED: USER    
DOCKED: USER    
DOCKED: USER    NEWDPF move heme_Co_opt.pdbqt
DOCKED: USER    NEWDPF about 8.781000 34.984000 -0.736000
DOCKED: USER    NEWDPF tran0 -13.401970 -5.858188 1.751927
DOCKED: USER    NEWDPF quaternion0 -0.944404 0.274093 0.091373 0.156922
DOCKED: USER    NEWDPF axisangle0 -0.956251 0.277531 0.092520 161.943438
DOCKED: USER    NEWDPF quat0 -0.956251 0.277531 0.092520 161.943438
DOCKED: USER    NEWDPF dihe0 -166.72 125.88 13.09 -15.55 117.23 129.74 40.13 122.78 175.94 -130.64 -167.52 -13.05 
DOCKED: USER  keepresnum = 1 
DOCKED: USER  
DOCKED: REMARK  12 active torsions:
DOCKED: REMARK  status: ('A' for Active; 'I' for Inactive)
DOCKED: REMARK    1  A    between atoms: C_6  and  C_10 
DOCKED: REMARK    2  A    between atoms: C_10  and  C_11 
DOCKED: REMARK    3  A    between atoms: C_11  and  C_12 
DOCKED: REMARK    4  A    between atoms: C_12  and  O_14 
DOCKED: REMARK    5  A    between atoms: C_17  and  C_20 
DOCKED: REMARK    6  A    between atoms: C_24  and  C_27 
DOCKED: REMARK    7  A    between atoms: C_31  and  C_34 
DOCKED: REMARK    8  A    between atoms: C_34  and  C_35 
DOCKED: REMARK    9  A    between atoms: C_35  and  C_36 
DOCKED: REMARK   10  A    between atoms: C_36  and  O_38 
DOCKED: REMARK   11  A    between atoms: FE_43  and  C_44 
DOCKED: REMARK   12  A    between atoms: C_44  and  O_45 
DOCKED: USER                              x       y       z     vdW  Elec       q    Type
DOCKED: USER                           _______ _______ _______ _____ _____    ______ ____
DOCKED: ROOT
DOCKED: ATOM      1  C   UNL d   1     -15.038  -4.991   2.886 -0.05 +0.06    +0.064 A 
DOCKED: ATOM      2  C   UNL d   1     -13.654  -4.470  -1.633 -0.14 +0.01    +0.064 C 
DOCKED: ATOM      3  C   UNL d   1      -9.818  -7.196  -0.812 -0.21 -0.03    +0.064 A 
DOCKED: ATOM      4  C   UNL d   1     -11.413  -8.060   3.701 -0.10 +0.01    +0.064 A 
DOCKED: ATOM      5  C   UNL d   1     -14.923  -4.619   1.601 -0.06 +0.05    +0.066 A 
DOCKED: ATOM      6  C   UNL d   1     -15.912  -3.854   0.953 -0.07 -0.01    -0.021 A 
DOCKED: ATOM      7  C   UNL d   1     -15.516  -3.725  -0.364 -0.09 -0.01    -0.025 A 
DOCKED: ATOM      8  C   UNL d   1     -14.296  -4.402  -0.459 -0.09 +0.02    +0.066 A 
DOCKED: ATOM      9  C   UNL d   1     -16.249  -2.996  -1.501 -0.14 +0.01    +0.051 C 
DOCKED: ATOM     10  C   UNL d   1     -12.382  -5.121  -1.821 -0.13 +0.01    +0.066 A 
DOCKED: ATOM     11  C   UNL d   1     -11.592  -5.107  -2.991 -0.22 +0.00    -0.021 A 
DOCKED: ATOM     12  C   UNL d   1     -10.477  -5.906  -2.723 -0.25 -0.00    +0.000 A 
DOCKED: ATOM     13  C   UNL d   1     -10.663  -6.337  -1.409 -0.17 -0.01    +0.070 A 
DOCKED: ATOM     14  C   UNL d   1     -11.855  -4.299  -4.236 -0.37 +0.00    +0.052 C 
DOCKED: ATOM     15  C   UNL d   1      -9.885  -7.783   0.512 -0.21 -0.02    +0.066 A 
DOCKED: ATOM     16  C   UNL d   1      -9.057  -8.777   1.015 -0.23 +0.01    -0.021 A 
DOCKED: ATOM     17  C   UNL d   1      -9.515  -9.031   2.315 -0.15 -0.00    +0.000 A 
DOCKED: ATOM     18  C   UNL d   1     -10.579  -8.157   2.510 -0.12 +0.01    +0.070 A 
DOCKED: ATOM     19  C   UNL d   1      -7.910  -9.423   0.270 +0.04 -0.04    +0.052 C 
DOCKED: ATOM     20  C   UNL d   1     -12.505  -7.279   3.882 -0.10 +0.03    +0.066 A 
DOCKED: ATOM     21  C   UNL d   1     -13.248  -7.300   5.060 -0.07 -0.01    -0.025 A 
DOCKED: ATOM     22  C   UNL d   1     -14.283  -6.404   4.865 -0.08 -0.01    -0.021 A 
DOCKED: ATOM     23  C   UNL d   1     -14.126  -5.885   3.562 -0.05 +0.05    +0.066 A 
DOCKED: ATOM     24  C   UNL d   1     -12.996  -8.147   6.305 -0.04 +0.01    +0.051 C 
DOCKED: ATOM     25  N   UNL d   1     -13.901  -4.960   0.744 -0.06 -0.15    -0.248 N 
DOCKED: ATOM     26  N   UNL d   1     -11.786  -5.816  -0.847 -0.06 -0.02    -0.248 N 
DOCKED: ATOM     27  N   UNL d   1     -10.790  -7.451   1.405 -0.08 -0.01    -0.248 N 
DOCKED: ATOM     28  N   UNL d   1     -13.053  -6.414   2.962 -0.08 -0.15    -0.248 N 
DOCKED: ATOM     29 FE   UNL d   1     -12.254  -6.279   1.098 -0.03 +0.00    +0.000 Fe
DOCKED: ENDROOT
DOCKED: BRANCH   6  30
DOCKED: ATOM     30  C   UNL d   1     -17.214  -3.346   1.563 -0.04 +0.02    +0.052 C 
DOCKED: BRANCH  30  31
DOCKED: ATOM     31  C   UNL d   1     -18.288  -4.433   1.519 -0.00 +0.02    +0.115 C 
DOCKED: BRANCH  31  32
DOCKED: ATOM     32  C   UNL d   1     -17.833  -5.663   0.762 +0.00 +0.02    +0.139 C 
DOCKED: ATOM     33  O   UNL d   1     -18.026  -5.733  -0.443 +0.01 -0.07    -0.650 OA
DOCKED: BRANCH  32  34
DOCKED: ATOM     34  O   UNL d   1     -17.172  -6.676   1.370 +0.01 -0.13    -0.776 OA
DOCKED: ATOM     35  H   UNL d   1     -16.758  -7.413   0.901 +0.00 +0.02    +0.167 HD
DOCKED: ENDBRANCH  32  34
DOCKED: ENDBRANCH  31  32
DOCKED: ENDBRANCH  30  31
DOCKED: ENDBRANCH   6  30
DOCKED: BRANCH  29  36
DOCKED: ATOM     36  C   UNL d   1     -13.497  -7.829   0.428 -0.01 +0.01    +0.190 C 
DOCKED: BRANCH  36  37
DOCKED: ATOM     37  O   UNL d   1     -14.838  -8.202   0.293 +0.00 -0.03    -0.399 OA
DOCKED: ATOM     38  H   UNL d   1     -15.355  -7.363   0.453 +0.01 +0.03    +0.209 HD
DOCKED: ENDBRANCH  36  37
DOCKED: ENDBRANCH  29  36
DOCKED: BRANCH  22  39
DOCKED: ATOM     39  C   UNL d   1     -15.395  -6.115   5.856 -0.04 +0.02    +0.052 C 
DOCKED: BRANCH  39  40
DOCKED: ATOM     40  C   UNL d   1     -14.983  -4.991   6.821 -0.05 +0.06    +0.115 C 
DOCKED: BRANCH  40  41
DOCKED: ATOM     41  C   UNL d   1     -14.300  -3.814   6.156 +0.21 +0.18    +0.139 C 
DOCKED: ATOM     42  O   UNL d   1     -13.080  -3.737   6.183 -0.35 -1.09    -0.650 OA
DOCKED: BRANCH  41  43
DOCKED: ATOM     43  O   UNL d   1     -14.997  -2.892   5.456 -0.24 -1.24    -0.776 OA
DOCKED: ATOM     44  H   UNL d   1     -15.949  -2.768   5.564 +0.01 +0.14    +0.167 HD
DOCKED: ENDBRANCH  41  43
DOCKED: ENDBRANCH  40  41
DOCKED: ENDBRANCH  39  40
DOCKED: ENDBRANCH  22  39
DOCKED: BRANCH  12  45
DOCKED: ATOM     45  C   UNL d   1      -9.256  -6.295  -3.545 -0.40 -0.00    +0.004 C 
DOCKED: ATOM     46  C   UNL d   1      -9.079  -6.344  -4.863 -0.55 -0.00    +0.012 C 
DOCKED: ENDBRANCH  12  45
DOCKED: BRANCH  17  47
DOCKED: ATOM     47  C   UNL d   1      -9.049 -10.043   3.310 -0.12 -0.00    +0.004 C 
DOCKED: ATOM     48  C   UNL d   1      -8.165  -9.777   4.274 -0.20 +0.00    +0.012 C 
DOCKED: ENDBRANCH  17  47
DOCKED: TORSDOF 12
DOCKED: TER
DOCKED: ENDMDL
________________________________________________________________________________


	BEGINNING GENETIC ALGORITHM DOCKING 26 of 100
Run: 26 Seed: 1748358215 229099401 [ Run 26 of 100 GA/GALS ]
Beginning LAMARCKIAN GENETIC ALGORITHM (LGA), with a maximum of 25000000 energy evaluations.

Final-Value: -9.625


	FINAL GENETIC ALGORITHM DOCKED STATE
	_______________________________________________


Detailed state:  trans 20.358 -10.937 -4.514 quatxyzw -0.393805 -0.480274 0.758549 0.197124 center 8.781 34.984 -0.736 ntor 12 145.3442 110.3840 -82.4301 63.0889 -90.4642 110.1287 -119.3586 0.7678 -125.2522 169.7972 179.4068 -178.2052
State:	 20.358 -10.937  -4.514  -0.402 -0.490  0.774 157.262    145.34  110.38  -82.43   63.09  -90.46  110.13 -119.36    0.77 -125.25  169.80  179.41 -178.21

DOCKED: MODEL       26
DOCKED: USER    Run = 26
DOCKED: USER    DPF = D:/Protein_go_brrr/autodock/final/mut_D99N/heme_Co/dock.dpf
DOCKED: USER  
DOCKED: USER    Estimated Free Energy of Binding    =   -2.39 kcal/mol  [=(1)+(2)+(3)-(4)]
DOCKED: USER    Estimated Inhibition Constant, Ki   =   17.82 mM (millimolar)  [Temperature = 298.15 K]
DOCKED: USER    
DOCKED: USER    (1) Final Intermolecular Energy     =   -5.97 kcal/mol
DOCKED: USER        vdW + Hbond + desolv Energy     =   -5.84 kcal/mol
DOCKED: USER        Electrostatic Energy            =   -0.12 kcal/mol
DOCKED: USER    (2) Final Total Internal Energy     =   -3.66 kcal/mol
DOCKED: USER    (3) Torsional Free Energy           =   +3.58 kcal/mol
DOCKED: USER    (4) Unbound System's Energy  [=(2)] =   -3.66 kcal/mol
DOCKED: USER    
DOCKED: USER    
DOCKED: USER    NEWDPF move heme_Co_opt.pdbqt
DOCKED: USER    NEWDPF about 8.781000 34.984000 -0.736000
DOCKED: USER    NEWDPF tran0 20.358110 -10.936854 -4.514005
DOCKED: USER    NEWDPF quaternion0 -0.393805 -0.480274 0.758549 0.197124
DOCKED: USER    NEWDPF axisangle0 -0.401687 -0.489886 0.773731 157.262340
DOCKED: USER    NEWDPF quat0 -0.401687 -0.489886 0.773731 157.262340
DOCKED: USER    NEWDPF dihe0 145.34 110.38 -82.43 63.09 -90.46 110.13 -119.36 0.77 -125.25 169.80 179.41 -178.21 
DOCKED: USER  keepresnum = 1 
DOCKED: USER  
DOCKED: REMARK  12 active torsions:
DOCKED: REMARK  status: ('A' for Active; 'I' for Inactive)
DOCKED: REMARK    1  A    between atoms: C_6  and  C_10 
DOCKED: REMARK    2  A    between atoms: C_10  and  C_11 
DOCKED: REMARK    3  A    between atoms: C_11  and  C_12 
DOCKED: REMARK    4  A    between atoms: C_12  and  O_14 
DOCKED: REMARK    5  A    between atoms: C_17  and  C_20 
DOCKED: REMARK    6  A    between atoms: C_24  and  C_27 
DOCKED: REMARK    7  A    between atoms: C_31  and  C_34 
DOCKED: REMARK    8  A    between atoms: C_34  and  C_35 
DOCKED: REMARK    9  A    between atoms: C_35  and  C_36 
DOCKED: REMARK   10  A    between atoms: C_36  and  O_38 
DOCKED: REMARK   11  A    between atoms: FE_43  and  C_44 
DOCKED: REMARK   12  A    between atoms: C_44  and  O_45 
DOCKED: USER                              x       y       z     vdW  Elec       q    Type
DOCKED: USER                           _______ _______ _______ _____ _____    ______ ____
DOCKED: ROOT
DOCKED: ATOM      1  C   UNL d   1      22.227 -10.569  -3.472 -0.08 +0.00    +0.064 A 
DOCKED: ATOM      2  C   UNL d   1      18.131 -12.544  -2.084 -0.23 -0.00    +0.064 C 
DOCKED: ATOM      3  C   UNL d   1      16.150 -11.490  -6.302 -0.06 +0.00    +0.064 A 
DOCKED: ATOM      4  C   UNL d   1      20.435  -9.814  -7.881 -0.18 +0.01    +0.064 A 
DOCKED: ATOM      5  C   UNL d   1      21.243 -11.153  -2.770 -0.11 +0.00    +0.066 A 
DOCKED: ATOM      6  C   UNL d   1      21.455 -11.680  -1.480 -0.17 -0.00    -0.021 A 
DOCKED: ATOM      7  C   UNL d   1      20.269 -12.272  -1.092 -0.22 +0.00    -0.025 A 
DOCKED: ATOM      8  C   UNL d   1      19.380 -12.068  -2.153 -0.23 -0.00    +0.066 A 
DOCKED: ATOM      9  C   UNL d   1      19.970 -13.006   0.224 -0.23 -0.00    +0.051 C 
DOCKED: ATOM     10  C   UNL d   1      17.139 -12.361  -3.114 -0.24 -0.01    +0.066 A 
DOCKED: ATOM     11  C   UNL d   1      15.774 -12.713  -3.043 -0.27 +0.00    -0.021 A 
DOCKED: ATOM     12  C   UNL d   1      15.219 -12.391  -4.285 -0.26 -0.00    +0.000 A 
DOCKED: ATOM     13  C   UNL d   1      16.281 -11.856  -5.015 -0.19 -0.00    +0.070 A 
DOCKED: ATOM     14  C   UNL d   1      15.048 -13.232  -1.828 -0.24 -0.01    +0.052 C 
DOCKED: ATOM     15  C   UNL d   1      17.148 -10.971  -7.217 -0.21 +0.01    +0.066 A 
DOCKED: ATOM     16  C   UNL d   1      16.982 -10.750  -8.577 -0.25 -0.00    -0.021 A 
DOCKED: ATOM     17  C   UNL d   1      18.216 -10.268  -9.037 -0.19 +0.00    +0.000 A 
DOCKED: ATOM     18  C   UNL d   1      19.035 -10.218  -7.914 -0.20 +0.01    +0.070 A 
DOCKED: ATOM     19  C   UNL d   1      15.709 -10.995  -9.356 -0.28 +0.00    +0.052 C 
DOCKED: ATOM     20  C   UNL d   1      21.275  -9.839  -6.819 -0.13 +0.01    +0.066 A 
DOCKED: ATOM     21  C   UNL d   1      22.612  -9.460  -6.920 -0.08 -0.00    -0.025 A 
DOCKED: ATOM     22  C   UNL d   1      23.147  -9.639  -5.657 -0.06 -0.00    -0.021 A 
DOCKED: ATOM     23  C   UNL d   1      22.104 -10.135  -4.845 -0.05 +0.01    +0.066 A 
DOCKED: ATOM     24  C   UNL d   1      23.350  -8.969  -8.162 -0.05 +0.00    +0.051 C 
DOCKED: ATOM     25  N   UNL d   1      19.955 -11.372  -3.203 -0.06 +0.00    -0.248 N 
DOCKED: ATOM     26  N   UNL d   1      17.427 -11.786  -4.287 -0.17 +0.01    -0.248 N 
DOCKED: ATOM     27  N   UNL d   1      18.375 -10.673  -6.854 -0.11 -0.06    -0.248 N 
DOCKED: ATOM     28  N   UNL d   1      20.971 -10.260  -5.545 +0.05 -0.03    -0.248 N 
DOCKED: ATOM     29 FE   UNL d   1      19.121 -11.000  -5.138 -0.05 +0.00    +0.000 Fe
DOCKED: ENDROOT
DOCKED: BRANCH   6  30
DOCKED: ATOM     30  C   UNL d   1      22.767 -11.679  -0.702 -0.13 +0.01    +0.052 C 
DOCKED: BRANCH  30  31
DOCKED: ATOM     31  C   UNL d   1      23.497 -13.010  -0.879 -0.03 +0.01    +0.115 C 
DOCKED: BRANCH  31  32
DOCKED: ATOM     32  C   UNL d   1      23.677 -13.381  -2.336 -0.01 +0.01    +0.139 C 
DOCKED: ATOM     33  O   UNL d   1      24.797 -13.371  -2.824 +0.00 -0.04    -0.650 OA
DOCKED: BRANCH  32  34
DOCKED: ATOM     34  O   UNL d   1      22.639 -13.772  -3.110 +0.02 -0.03    -0.776 OA
DOCKED: ATOM     35  H   UNL d   1      22.527 -13.520  -4.037 +0.01 +0.01    +0.167 HD
DOCKED: ENDBRANCH  32  34
DOCKED: ENDBRANCH  31  32
DOCKED: ENDBRANCH  30  31
DOCKED: ENDBRANCH   6  30
DOCKED: BRANCH  29  36
DOCKED: ATOM     36  C   UNL d   1      19.754 -12.930  -5.658 -0.04 +0.01    +0.190 C 
DOCKED: BRANCH  36  37
DOCKED: ATOM     37  O   UNL d   1      20.836 -13.811  -5.563 -0.00 -0.01    -0.399 OA
DOCKED: ATOM     38  H   UNL d   1      21.553 -13.289  -5.106 +0.01 +0.01    +0.209 HD
DOCKED: ENDBRANCH  36  37
DOCKED: ENDBRANCH  29  36
DOCKED: BRANCH  22  39
DOCKED: ATOM     39  C   UNL d   1      24.597  -9.408  -5.274 -0.02 +0.00    +0.052 C 
DOCKED: BRANCH  39  40
DOCKED: ATOM     40  C   UNL d   1      25.479 -10.567  -5.766 -0.00 +0.01    +0.115 C 
DOCKED: BRANCH  40  41
DOCKED: ATOM     41  C   UNL d   1      24.713 -11.813  -6.158 -0.00 +0.01    +0.139 C 
DOCKED: ATOM     42  O   UNL d   1      25.049 -12.432  -7.158 +0.00 -0.02    -0.650 OA
DOCKED: BRANCH  41  43
DOCKED: ATOM     43  O   UNL d   1      23.722 -12.310  -5.386 +0.01 -0.03    -0.776 OA
DOCKED: ATOM     44  H   UNL d   1      23.894 -12.801  -4.572 +0.00 +0.01    +0.167 HD
DOCKED: ENDBRANCH  41  43
DOCKED: ENDBRANCH  40  41
DOCKED: ENDBRANCH  39  40
DOCKED: ENDBRANCH  22  39
DOCKED: BRANCH  12  45
DOCKED: ATOM     45  C   UNL d   1      13.812 -12.509  -4.856 -0.38 -0.00    +0.004 C 
DOCKED: ATOM     46  C   UNL d   1      12.651 -12.047  -4.400 -0.51 -0.00    +0.012 C 
DOCKED: ENDBRANCH  12  45
DOCKED: BRANCH  17  47
DOCKED: ATOM     47  C   UNL d   1      18.647  -9.921 -10.424 -0.14 +0.00    +0.004 C 
DOCKED: ATOM     48  C   UNL d   1      19.560 -10.615 -11.108 -0.08 +0.00    +0.012 C 
DOCKED: ENDBRANCH  17  47
DOCKED: TORSDOF 12
DOCKED: TER
DOCKED: ENDMDL
________________________________________________________________________________


	BEGINNING GENETIC ALGORITHM DOCKING 27 of 100
Run: 27 Seed: 1249180347 465596334 [ Run 27 of 100 GA/GALS ]
Beginning LAMARCKIAN GENETIC ALGORITHM (LGA), with a maximum of 25000000 energy evaluations.

Final-Value: -9.238


	FINAL GENETIC ALGORITHM DOCKED STATE
	_______________________________________________


Detailed state:  trans -4.210 16.272 10.626 quatxyzw -0.186100 0.544404 0.452530 -0.681328 center 8.781 34.984 -0.736 ntor 12 19.3707 105.4391 -151.2867 119.6305 -98.9180 78.3405 -129.0315 116.2970 34.7712 150.0338 -34.2749 172.9747
State:	 -4.210  16.272  10.626  -0.254  0.744  0.618 -94.105     19.37  105.44 -151.29  119.63  -98.92   78.34 -129.03  116.30   34.77  150.03  -34.27  172.97

DOCKED: MODEL       27
DOCKED: USER    Run = 27
DOCKED: USER    DPF = D:/Protein_go_brrr/autodock/final/mut_D99N/heme_Co/dock.dpf
DOCKED: USER  
DOCKED: USER    Estimated Free Energy of Binding    =   -3.77 kcal/mol  [=(1)+(2)+(3)-(4)]
DOCKED: USER    Estimated Inhibition Constant, Ki   =    1.72 mM (millimolar)  [Temperature = 298.15 K]
DOCKED: USER    
DOCKED: USER    (1) Final Intermolecular Energy     =   -7.35 kcal/mol
DOCKED: USER        vdW + Hbond + desolv Energy     =   -7.69 kcal/mol
DOCKED: USER        Electrostatic Energy            =   +0.34 kcal/mol
DOCKED: USER    (2) Final Total Internal Energy     =   -1.89 kcal/mol
DOCKED: USER    (3) Torsional Free Energy           =   +3.58 kcal/mol
DOCKED: USER    (4) Unbound System's Energy  [=(2)] =   -1.89 kcal/mol
DOCKED: USER    
DOCKED: USER    
DOCKED: USER    NEWDPF move heme_Co_opt.pdbqt
DOCKED: USER    NEWDPF about 8.781000 34.984000 -0.736000
DOCKED: USER    NEWDPF tran0 -4.209586 16.271982 10.626284
DOCKED: USER    NEWDPF quaternion0 -0.186100 0.544404 0.452530 -0.681328
DOCKED: USER    NEWDPF axisangle0 -0.254242 0.743743 0.618229 -94.104949
DOCKED: USER    NEWDPF quat0 -0.254242 0.743743 0.618229 -94.104949
DOCKED: USER    NEWDPF dihe0 19.37 105.44 -151.29 119.63 -98.92 78.34 -129.03 116.30 34.77 150.03 -34.27 172.97 
DOCKED: USER  keepresnum = 1 
DOCKED: USER  
DOCKED: REMARK  12 active torsions:
DOCKED: REMARK  status: ('A' for Active; 'I' for Inactive)
DOCKED: REMARK    1  A    between atoms: C_6  and  C_10 
DOCKED: REMARK    2  A    between atoms: C_10  and  C_11 
DOCKED: REMARK    3  A    between atoms: C_11  and  C_12 
DOCKED: REMARK    4  A    between atoms: C_12  and  O_14 
DOCKED: REMARK    5  A    between atoms: C_17  and  C_20 
DOCKED: REMARK    6  A    between atoms: C_24  and  C_27 
DOCKED: REMARK    7  A    between atoms: C_31  and  C_34 
DOCKED: REMARK    8  A    between atoms: C_34  and  C_35 
DOCKED: REMARK    9  A    between atoms: C_35  and  C_36 
DOCKED: REMARK   10  A    between atoms: C_36  and  O_38 
DOCKED: REMARK   11  A    between atoms: FE_43  and  C_44 
DOCKED: REMARK   12  A    between atoms: C_44  and  O_45 
DOCKED: USER                              x       y       z     vdW  Elec       q    Type
DOCKED: USER                           _______ _______ _______ _____ _____    ______ ____
DOCKED: ROOT
DOCKED: ATOM      1  C   UNL d   1      -5.101  15.097  12.220 -0.17 -0.02    +0.064 A 
DOCKED: ATOM      2  C   UNL d   1      -0.783  17.019  11.700 -0.15 -0.00    +0.064 C 
DOCKED: ATOM      3  C   UNL d   1      -1.901  18.426   7.273 -0.21 +0.01    +0.064 A 
DOCKED: ATOM      4  C   UNL d   1      -6.444  16.811   7.921 -0.15 +0.00    +0.064 A 
DOCKED: ATOM      5  C   UNL d   1      -3.827  15.487  12.389 -0.13 -0.02    +0.066 A 
DOCKED: ATOM      6  C   UNL d   1      -3.149  15.314  13.612 -0.19 +0.01    -0.021 A 
DOCKED: ATOM      7  C   UNL d   1      -1.905  15.894  13.463 -0.19 +0.01    -0.025 A 
DOCKED: ATOM      8  C   UNL d   1      -1.870  16.381  12.152 -0.16 -0.01    +0.066 A 
DOCKED: ATOM      9  C   UNL d   1      -0.781  15.994  14.506 -0.20 -0.01    +0.051 C 
DOCKED: ATOM     10  C   UNL d   1      -0.647  17.531  10.359 -0.15 -0.00    +0.066 A 
DOCKED: ATOM     11  C   UNL d   1       0.517  18.084   9.782 -0.08 -0.00    -0.021 A 
DOCKED: ATOM     12  C   UNL d   1       0.164  18.482   8.489 -0.19 +0.00    +0.000 A 
DOCKED: ATOM     13  C   UNL d   1      -1.181  18.132   8.370 -0.23 +0.00    +0.070 A 
DOCKED: ATOM     14  C   UNL d   1       1.888  18.131  10.407 -0.10 +0.00    +0.052 C 
DOCKED: ATOM     15  C   UNL d   1      -3.306  18.187   7.003 -0.18 +0.01    +0.066 A 
DOCKED: ATOM     16  C   UNL d   1      -4.023  18.646   5.907 -0.17 -0.00    -0.021 A 
DOCKED: ATOM     17  C   UNL d   1      -5.334  18.185   6.091 -0.24 +0.00    +0.000 A 
DOCKED: ATOM     18  C   UNL d   1      -5.309  17.464   7.280 -0.24 +0.01    +0.070 A 
DOCKED: ATOM     19  C   UNL d   1      -3.459  19.474   4.774 -0.14 +0.01    +0.052 C 
DOCKED: ATOM     20  C   UNL d   1      -6.463  16.179   9.119 -0.23 -0.01    +0.066 A 
DOCKED: ATOM     21  C   UNL d   1      -7.625  15.621   9.647 -0.26 +0.01    -0.025 A 
DOCKED: ATOM     22  C   UNL d   1      -7.262  15.094  10.873 -0.25 +0.00    -0.021 A 
DOCKED: ATOM     23  C   UNL d   1      -5.888  15.369  11.038 -0.20 -0.01    +0.066 A 
DOCKED: ATOM     24  C   UNL d   1      -9.019  15.609   9.024 +0.01 -0.04    +0.051 C 
DOCKED: ATOM     25  N   UNL d   1      -3.046  16.137  11.462 -0.13 +0.05    -0.248 N 
DOCKED: ATOM     26  N   UNL d   1      -1.655  17.506   9.481 -0.16 +0.00    -0.248 N 
DOCKED: ATOM     27  N   UNL d   1      -4.092  17.512   7.811 -0.16 -0.02    -0.248 N 
DOCKED: ATOM     28  N   UNL d   1      -5.401  16.028   9.980 -0.14 +0.03    -0.248 N 
DOCKED: ATOM     29 FE   UNL d   1      -3.603  16.864   9.528 -0.05 -0.00    +0.000 Fe
DOCKED: ENDROOT
DOCKED: BRANCH   6  30
DOCKED: ATOM     30  C   UNL d   1      -3.713  14.691  14.885 -0.28 -0.01    +0.052 C 
DOCKED: BRANCH  30  31
DOCKED: ATOM     31  C   UNL d   1      -4.371  13.346  14.579 -0.30 -0.04    +0.115 C 
DOCKED: BRANCH  31  32
DOCKED: ATOM     32  C   UNL d   1      -5.556  13.065  15.477 -0.23 -0.03    +0.139 C 
DOCKED: ATOM     33  O   UNL d   1      -6.688  13.234  15.049 -0.02 +0.16    -0.650 OA
DOCKED: BRANCH  32  34
DOCKED: ATOM     34  O   UNL d   1      -5.406  12.583  16.733 -0.62 +0.24    -0.776 OA
DOCKED: ATOM     35  H   UNL d   1      -4.570  12.582  17.219 -0.25 -0.12    +0.167 HD
DOCKED: ENDBRANCH  32  34
DOCKED: ENDBRANCH  31  32
DOCKED: ENDBRANCH  30  31
DOCKED: ENDBRANCH   6  30
DOCKED: BRANCH  29  36
DOCKED: ATOM     36  C   UNL d   1      -4.165  18.643  10.483 -0.03 -0.01    +0.190 C 
DOCKED: BRANCH  36  37
DOCKED: ATOM     37  O   UNL d   1      -5.167  19.216  11.273 +0.00 +0.02    -0.399 OA
DOCKED: ATOM     38  H   UNL d   1      -5.894  18.532  11.301 +0.02 -0.02    +0.209 HD
DOCKED: ENDBRANCH  36  37
DOCKED: ENDBRANCH  29  36
DOCKED: BRANCH  22  39
DOCKED: ATOM     39  C   UNL d   1      -8.203  14.423  11.855 -0.26 -0.01    +0.052 C 
DOCKED: BRANCH  39  40
DOCKED: ATOM     40  C   UNL d   1      -8.884  15.467  12.756 -0.10 -0.03    +0.115 C 
DOCKED: BRANCH  40  41
DOCKED: ATOM     41  C   UNL d   1      -8.004  16.644  13.122 -0.03 -0.03    +0.139 C 
DOCKED: ATOM     42  O   UNL d   1      -7.543  16.717  14.252 +0.03 +0.10    -0.650 OA
DOCKED: BRANCH  41  43
DOCKED: ATOM     43  O   UNL d   1      -7.642  17.572  12.209 +0.04 +0.13    -0.776 OA
DOCKED: ATOM     44  H   UNL d   1      -6.778  18.003  12.220 +0.01 -0.02    +0.167 HD
DOCKED: ENDBRANCH  41  43
DOCKED: ENDBRANCH  40  41
DOCKED: ENDBRANCH  39  40
DOCKED: ENDBRANCH  22  39
DOCKED: BRANCH  12  45
DOCKED: ATOM     45  C   UNL d   1       0.943  19.132   7.354 -0.21 +0.00    +0.004 C 
DOCKED: ATOM     46  C   UNL d   1       1.321  18.647   6.174 -0.30 +0.00    +0.012 C 
DOCKED: ENDBRANCH  12  45
DOCKED: BRANCH  17  47
DOCKED: ATOM     47  C   UNL d   1      -6.554  18.425   5.264 -0.19 +0.00    +0.004 C 
DOCKED: ATOM     48  C   UNL d   1      -7.660  19.009   5.733 -0.13 +0.00    +0.012 C 
DOCKED: ENDBRANCH  17  47
DOCKED: TORSDOF 12
DOCKED: TER
DOCKED: ENDMDL
________________________________________________________________________________


	BEGINNING GENETIC ALGORITHM DOCKING 28 of 100
Run: 28 Seed: 858961925 433747399 [ Run 28 of 100 GA/GALS ]
Beginning LAMARCKIAN GENETIC ALGORITHM (LGA), with a maximum of 25000000 energy evaluations.

Final-Value: -12.041


	FINAL GENETIC ALGORITHM DOCKED STATE
	_______________________________________________


Detailed state:  trans -14.659 5.988 7.613 quatxyzw -0.396738 -0.661726 -0.523687 0.361206 center 8.781 34.984 -0.736 ntor 12 34.1736 21.8616 40.2128 -80.4435 -85.2758 173.7971 -160.5179 -68.6344 -65.9423 -61.5378 -5.2403 140.0781
State:	-14.659   5.988   7.613  -0.425 -0.710 -0.562 137.651     34.17   21.86   40.21  -80.44  -85.28  173.80 -160.52  -68.63  -65.94  -61.54   -5.24  140.08

DOCKED: MODEL       28
DOCKED: USER    Run = 28
DOCKED: USER    DPF = D:/Protein_go_brrr/autodock/final/mut_D99N/heme_Co/dock.dpf
DOCKED: USER  
DOCKED: USER    Estimated Free Energy of Binding    =   -7.65 kcal/mol  [=(1)+(2)+(3)-(4)]
DOCKED: USER    Estimated Inhibition Constant, Ki   =    2.48 uM (micromolar)  [Temperature = 298.15 K]
DOCKED: USER    
DOCKED: USER    (1) Final Intermolecular Energy     =  -11.23 kcal/mol
DOCKED: USER        vdW + Hbond + desolv Energy     =   -8.32 kcal/mol
DOCKED: USER        Electrostatic Energy            =   -2.90 kcal/mol
DOCKED: USER    (2) Final Total Internal Energy     =   -0.81 kcal/mol
DOCKED: USER    (3) Torsional Free Energy           =   +3.58 kcal/mol
DOCKED: USER    (4) Unbound System's Energy  [=(2)] =   -0.81 kcal/mol
DOCKED: USER    
DOCKED: USER    
DOCKED: USER    NEWDPF move heme_Co_opt.pdbqt
DOCKED: USER    NEWDPF about 8.781000 34.984000 -0.736000
DOCKED: USER    NEWDPF tran0 -14.658948 5.988470 7.612500
DOCKED: USER    NEWDPF quaternion0 -0.396738 -0.661726 -0.523687 0.361206
DOCKED: USER    NEWDPF axisangle0 -0.425462 -0.709637 -0.561603 137.651461
DOCKED: USER    NEWDPF quat0 -0.425462 -0.709637 -0.561603 137.651461
DOCKED: USER    NEWDPF dihe0 34.17 21.86 40.21 -80.44 -85.28 173.80 -160.52 -68.63 -65.94 -61.54 -5.24 140.08 
DOCKED: USER  keepresnum = 1 
DOCKED: USER  
DOCKED: REMARK  12 active torsions:
DOCKED: REMARK  status: ('A' for Active; 'I' for Inactive)
DOCKED: REMARK    1  A    between atoms: C_6  and  C_10 
DOCKED: REMARK    2  A    between atoms: C_10  and  C_11 
DOCKED: REMARK    3  A    between atoms: C_11  and  C_12 
DOCKED: REMARK    4  A    between atoms: C_12  and  O_14 
DOCKED: REMARK    5  A    between atoms: C_17  and  C_20 
DOCKED: REMARK    6  A    between atoms: C_24  and  C_27 
DOCKED: REMARK    7  A    between atoms: C_31  and  C_34 
DOCKED: REMARK    8  A    between atoms: C_34  and  C_35 
DOCKED: REMARK    9  A    between atoms: C_35  and  C_36 
DOCKED: REMARK   10  A    between atoms: C_36  and  O_38 
DOCKED: REMARK   11  A    between atoms: FE_43  and  C_44 
DOCKED: REMARK   12  A    between atoms: C_44  and  O_45 
DOCKED: USER                              x       y       z     vdW  Elec       q    Type
DOCKED: USER                           _______ _______ _______ _____ _____    ______ ____
DOCKED: ROOT
DOCKED: ATOM      1  C   UNL d   1     -14.524   3.963   8.384 -0.09 +0.02    +0.064 A 
DOCKED: ATOM      2  C   UNL d   1     -12.111   6.255   4.988 -0.29 -0.01    +0.064 C 
DOCKED: ATOM      3  C   UNL d   1     -14.954  10.063   5.486 -0.09 -0.01    +0.064 A 
DOCKED: ATOM      4  C   UNL d   1     -17.188   7.891   9.221 -0.04 +0.00    +0.064 A 
DOCKED: ATOM      5  C   UNL d   1     -13.679   4.296   7.395 -0.14 +0.01    +0.066 A 
DOCKED: ATOM      6  C   UNL d   1     -12.627   3.450   6.995 -0.21 -0.00    -0.021 A 
DOCKED: ATOM      7  C   UNL d   1     -11.916   4.129   6.025 -0.28 -0.00    -0.025 A 
DOCKED: ATOM      8  C   UNL d   1     -12.574   5.353   5.863 -0.23 +0.00    +0.066 A 
DOCKED: ATOM      9  C   UNL d   1     -10.663   3.658   5.271 -0.14 +0.00    +0.051 C 
DOCKED: ATOM     10  C   UNL d   1     -12.737   7.529   4.734 -0.20 -0.01    +0.066 A 
DOCKED: ATOM     11  C   UNL d   1     -12.383   8.458   3.732 -0.31 +0.00    -0.021 A 
DOCKED: ATOM     12  C   UNL d   1     -13.230   9.557   3.898 -0.37 -0.00    +0.000 A 
DOCKED: ATOM     13  C   UNL d   1     -14.044   9.213   4.977 -0.19 -0.01    +0.070 A 
DOCKED: ATOM     14  C   UNL d   1     -11.366   8.248   2.640 -0.50 +0.00    +0.052 C 
DOCKED: ATOM     15  C   UNL d   1     -15.837   9.893   6.623 -0.05 -0.01    +0.066 A 
DOCKED: ATOM     16  C   UNL d   1     -16.651  10.866   7.185 -0.03 +0.00    -0.021 A 
DOCKED: ATOM     17  C   UNL d   1     -17.295  10.245   8.265 -0.02 -0.00    +0.000 A 
DOCKED: ATOM     18  C   UNL d   1     -16.835   8.933   8.265 -0.03 -0.00    +0.070 A 
DOCKED: ATOM     19  C   UNL d   1     -16.779  12.292   6.697 -0.03 -0.01    +0.052 C 
DOCKED: ATOM     20  C   UNL d   1     -16.688   6.634   9.293 -0.06 +0.01    +0.066 A 
DOCKED: ATOM     21  C   UNL d   1     -17.079   5.734  10.282 -0.06 -0.01    -0.025 A 
DOCKED: ATOM     22  C   UNL d   1     -16.349   4.583  10.048 -0.07 -0.01    -0.021 A 
DOCKED: ATOM     23  C   UNL d   1     -15.533   4.844   8.927 -0.05 +0.02    +0.066 A 
DOCKED: ATOM     24  C   UNL d   1     -18.085   5.965  11.407 -0.04 +0.01    +0.051 C 
DOCKED: ATOM     25  N   UNL d   1     -13.674   5.481   6.695 -0.09 -0.02    -0.248 N 
DOCKED: ATOM     26  N   UNL d   1     -13.782   7.964   5.446 -0.12 +0.02    -0.248 N 
DOCKED: ATOM     27  N   UNL d   1     -15.945   8.767   7.292 -0.02 +0.01    -0.248 N 
DOCKED: ATOM     28  N   UNL d   1     -15.734   6.085   8.468 -0.06 -0.05    -0.248 N 
DOCKED: ATOM     29 FE   UNL d   1     -14.879   7.220   7.013 -0.03 +0.00    +0.000 Fe
DOCKED: ENDROOT
DOCKED: BRANCH   6  30
DOCKED: ATOM     30  C   UNL d   1     -12.281   2.086   7.584 -0.25 +0.01    +0.052 C 
DOCKED: BRANCH  30  31
DOCKED: ATOM     31  C   UNL d   1     -13.217   1.011   7.034 -0.12 +0.05    +0.115 C 
DOCKED: BRANCH  31  32
DOCKED: ATOM     32  C   UNL d   1     -12.499   0.025   6.137 -0.15 +0.12    +0.139 C 
DOCKED: ATOM     33  O   UNL d   1     -11.703  -0.763   6.627 -0.45 -0.64    -0.650 OA
DOCKED: BRANCH  32  34
DOCKED: ATOM     34  O   UNL d   1     -12.745  -0.048   4.809 -0.48 -1.16    -0.776 OA
DOCKED: ATOM     35  H   UNL d   1     -13.023   0.703   4.265 +0.04 +0.16    +0.167 HD
DOCKED: ENDBRANCH  32  34
DOCKED: ENDBRANCH  31  32
DOCKED: ENDBRANCH  30  31
DOCKED: ENDBRANCH   6  30
DOCKED: BRANCH  29  36
DOCKED: ATOM     36  C   UNL d   1     -13.399   7.862   8.351 -0.22 +0.00    +0.190 C 
DOCKED: BRANCH  36  37
DOCKED: ATOM     37  O   UNL d   1     -12.061   7.669   8.710 -0.73 -0.01    -0.399 OA
DOCKED: ATOM     38  H   UNL d   1     -12.084   6.964   9.416 -0.44 -0.05    +0.209 HD
DOCKED: ENDBRANCH  36  37
DOCKED: ENDBRANCH  29  36
DOCKED: BRANCH  22  39
DOCKED: ATOM     39  C   UNL d   1     -16.390   3.327  10.899 -0.07 +0.01    +0.052 C 
DOCKED: BRANCH  39  40
DOCKED: ATOM     40  C   UNL d   1     -15.007   3.036  11.503 -0.15 +0.05    +0.115 C 
DOCKED: BRANCH  40  41
DOCKED: ATOM     41  C   UNL d   1     -14.939   3.181  13.009 -0.20 +0.11    +0.139 C 
DOCKED: ATOM     42  O   UNL d   1     -15.522   2.371  13.715 -0.01 -0.42    -0.650 OA
DOCKED: BRANCH  41  43
DOCKED: ATOM     43  O   UNL d   1     -14.180   4.132  13.597 -0.15 -1.29    -0.776 OA
DOCKED: ATOM     44  H   UNL d   1     -14.180   5.052  13.304 -0.29 +0.18    +0.167 HD
DOCKED: ENDBRANCH  41  43
DOCKED: ENDBRANCH  40  41
DOCKED: ENDBRANCH  39  40
DOCKED: ENDBRANCH  22  39
DOCKED: BRANCH  12  45
DOCKED: ATOM     45  C   UNL d   1     -13.376  10.877   3.152 -0.40 -0.00    +0.004 C 
DOCKED: ATOM     46  C   UNL d   1     -12.773  12.048   3.339 -0.39 -0.00    +0.012 C 
DOCKED: ENDBRANCH  12  45
DOCKED: BRANCH  17  47
DOCKED: ATOM     47  C   UNL d   1     -18.237  10.819   9.272 -0.02 -0.00    +0.004 C 
DOCKED: ATOM     48  C   UNL d   1     -17.901  11.059  10.542 -0.03 -0.00    +0.012 C 
DOCKED: ENDBRANCH  17  47
DOCKED: TORSDOF 12
DOCKED: TER
DOCKED: ENDMDL
________________________________________________________________________________


	BEGINNING GENETIC ALGORITHM DOCKING 29 of 100
Run: 29 Seed: 1896834018 798184110 [ Run 29 of 100 GA/GALS ]
Beginning LAMARCKIAN GENETIC ALGORITHM (LGA), with a maximum of 25000000 energy evaluations.

Final-Value: -9.923


	FINAL GENETIC ALGORITHM DOCKED STATE
	_______________________________________________


Detailed state:  trans -14.226 -5.182 1.745 quatxyzw 0.950454 -0.244233 -0.094299 -0.167615 center 8.781 34.984 -0.736 ntor 12 -81.6454 114.0803 -31.3643 2.6505 109.6254 139.5311 -124.9691 177.3676 -177.9056 165.5729 5.2501 16.3331
State:	-14.226  -5.182   1.745   0.964 -0.248 -0.096 -160.702    -81.65  114.08  -31.36    2.65  109.63  139.53 -124.97  177.37 -177.91  165.57    5.25   16.33

DOCKED: MODEL       29
DOCKED: USER    Run = 29
DOCKED: USER    DPF = D:/Protein_go_brrr/autodock/final/mut_D99N/heme_Co/dock.dpf
DOCKED: USER  
DOCKED: USER    Estimated Free Energy of Binding    =   -4.68 kcal/mol  [=(1)+(2)+(3)-(4)]
DOCKED: USER    Estimated Inhibition Constant, Ki   =  368.06 uM (micromolar)  [Temperature = 298.15 K]
DOCKED: USER    
DOCKED: USER    (1) Final Intermolecular Energy     =   -8.26 kcal/mol
DOCKED: USER        vdW + Hbond + desolv Energy     =   -5.62 kcal/mol
DOCKED: USER        Electrostatic Energy            =   -2.65 kcal/mol
DOCKED: USER    (2) Final Total Internal Energy     =   -1.66 kcal/mol
DOCKED: USER    (3) Torsional Free Energy           =   +3.58 kcal/mol
DOCKED: USER    (4) Unbound System's Energy  [=(2)] =   -1.66 kcal/mol
DOCKED: USER    
DOCKED: USER    
DOCKED: USER    NEWDPF move heme_Co_opt.pdbqt
DOCKED: USER    NEWDPF about 8.781000 34.984000 -0.736000
DOCKED: USER    NEWDPF tran0 -14.225975 -5.182038 1.744728
DOCKED: USER    NEWDPF quaternion0 0.950454 -0.244233 -0.094299 -0.167615
DOCKED: USER    NEWDPF axisangle0 0.964094 -0.247738 -0.095652 -160.701658
DOCKED: USER    NEWDPF quat0 0.964094 -0.247738 -0.095652 -160.701658
DOCKED: USER    NEWDPF dihe0 -81.65 114.08 -31.36 2.65 109.63 139.53 -124.97 177.37 -177.91 165.57 5.25 16.33 
DOCKED: USER  keepresnum = 1 
DOCKED: USER  
DOCKED: REMARK  12 active torsions:
DOCKED: REMARK  status: ('A' for Active; 'I' for Inactive)
DOCKED: REMARK    1  A    between atoms: C_6  and  C_10 
DOCKED: REMARK    2  A    between atoms: C_10  and  C_11 
DOCKED: REMARK    3  A    between atoms: C_11  and  C_12 
DOCKED: REMARK    4  A    between atoms: C_12  and  O_14 
DOCKED: REMARK    5  A    between atoms: C_17  and  C_20 
DOCKED: REMARK    6  A    between atoms: C_24  and  C_27 
DOCKED: REMARK    7  A    between atoms: C_31  and  C_34 
DOCKED: REMARK    8  A    between atoms: C_34  and  C_35 
DOCKED: REMARK    9  A    between atoms: C_35  and  C_36 
DOCKED: REMARK   10  A    between atoms: C_36  and  O_38 
DOCKED: REMARK   11  A    between atoms: FE_43  and  C_44 
DOCKED: REMARK   12  A    between atoms: C_44  and  O_45 
DOCKED: USER                              x       y       z     vdW  Elec       q    Type
DOCKED: USER                           _______ _______ _______ _____ _____    ______ ____
DOCKED: ROOT
DOCKED: ATOM      1  C   UNL d   1     -15.890  -4.402   2.902 -0.05 +0.05    +0.064 A 
DOCKED: ATOM      2  C   UNL d   1     -14.628  -3.851  -1.649 -0.15 +0.01    +0.064 C 
DOCKED: ATOM      3  C   UNL d   1     -10.617  -6.331  -0.876 -0.17 -0.01    +0.064 A 
DOCKED: ATOM      4  C   UNL d   1     -12.070  -7.236   3.677 -0.11 +0.03    +0.064 A 
DOCKED: ATOM      5  C   UNL d   1     -15.822  -4.039   1.611 -0.06 +0.04    +0.066 A 
DOCKED: ATOM      6  C   UNL d   1     -16.868  -3.343   0.974 -0.04 -0.01    -0.021 A 
DOCKED: ATOM      7  C   UNL d   1     -16.507  -3.206  -0.351 -0.07 -0.01    -0.025 A 
DOCKED: ATOM      8  C   UNL d   1     -15.249  -3.809  -0.464 -0.08 +0.02    +0.066 A 
DOCKED: ATOM      9  C   UNL d   1     -17.304  -2.536  -1.481 -0.12 +0.01    +0.051 C 
DOCKED: ATOM     10  C   UNL d   1     -13.322  -4.427  -1.856 -0.14 +0.01    +0.066 A 
DOCKED: ATOM     11  C   UNL d   1     -12.557  -4.379  -3.041 -0.24 -0.00    -0.021 A 
DOCKED: ATOM     12  C   UNL d   1     -11.391  -5.106  -2.787 -0.23 -0.00    +0.000 A 
DOCKED: ATOM     13  C   UNL d   1     -11.525  -5.532  -1.465 -0.14 +0.00    +0.070 A 
DOCKED: ATOM     14  C   UNL d   1     -12.893  -3.603  -4.289 -0.27 +0.01    +0.052 C 
DOCKED: ATOM     15  C   UNL d   1     -10.623  -6.905   0.455 -0.17 -0.00    +0.066 A 
DOCKED: ATOM     16  C   UNL d   1      -9.727  -7.840   0.952 -0.23 +0.00    -0.021 A 
DOCKED: ATOM     17  C   UNL d   1     -10.143  -8.106   2.264 -0.17 +0.00    +0.000 A 
DOCKED: ATOM     18  C   UNL d   1     -11.254  -7.296   2.471 -0.13 +0.02    +0.070 A 
DOCKED: ATOM     19  C   UNL d   1      -8.557  -8.424   0.191 -0.25 -0.03    +0.052 C 
DOCKED: ATOM     20  C   UNL d   1     -13.204  -6.521   3.871 -0.08 +0.04    +0.066 A 
DOCKED: ATOM     21  C   UNL d   1     -13.920  -6.573   5.065 -0.08 -0.01    -0.025 A 
DOCKED: ATOM     22  C   UNL d   1     -15.011  -5.743   4.881 -0.07 -0.01    -0.021 A 
DOCKED: ATOM     23  C   UNL d   1     -14.912  -5.232   3.569 -0.05 +0.06    +0.066 A 
DOCKED: ATOM     24  C   UNL d   1     -13.593  -7.388   6.313 -0.04 +0.02    +0.051 C 
DOCKED: ATOM     25  N   UNL d   1     -14.798  -4.328   0.738 -0.06 -0.16    -0.248 N 
DOCKED: ATOM     26  N   UNL d   1     -12.666  -5.073  -0.886 -0.06 -0.05    -0.248 N 
DOCKED: ATOM     27  N   UNL d   1     -11.529  -6.617   1.362 -0.09 -0.07    -0.248 N 
DOCKED: ATOM     28  N   UNL d   1     -13.820  -5.702   2.954 -0.03 -0.22    -0.248 N 
DOCKED: ATOM     29 FE   UNL d   1     -13.067  -5.540   1.072 -0.03 +0.00    +0.000 Fe
DOCKED: ENDROOT
DOCKED: BRANCH   6  30
DOCKED: ATOM     30  C   UNL d   1     -18.187  -2.908   1.605 -0.02 +0.01    +0.052 C 
DOCKED: BRANCH  30  31
DOCKED: ATOM     31  C   UNL d   1     -18.055  -1.515   2.220 -0.03 +0.03    +0.115 C 
DOCKED: BRANCH  31  32
DOCKED: ATOM     32  C   UNL d   1     -16.669  -0.934   2.041 -0.09 +0.07    +0.139 C 
DOCKED: ATOM     33  O   UNL d   1     -16.490  -0.049   1.218 +0.01 -0.23    -0.650 OA
DOCKED: BRANCH  32  34
DOCKED: ATOM     34  O   UNL d   1     -15.621  -1.331   2.800 -0.13 -0.82    -0.776 OA
DOCKED: ATOM     35  H   UNL d   1     -15.405  -0.957   3.666 +0.01 +0.19    +0.167 HD
DOCKED: ENDBRANCH  32  34
DOCKED: ENDBRANCH  31  32
DOCKED: ENDBRANCH  30  31
DOCKED: ENDBRANCH   6  30
DOCKED: BRANCH  29  36
DOCKED: ATOM     36  C   UNL d   1     -14.227  -7.170   0.444 -0.01 +0.03    +0.190 C 
DOCKED: BRANCH  36  37
DOCKED: ATOM     37  O   UNL d   1     -15.544  -7.574   0.205 +0.00 -0.04    -0.399 OA
DOCKED: ATOM     38  H   UNL d   1     -16.100  -6.770   0.408 +0.01 +0.03    +0.209 HD
DOCKED: ENDBRANCH  36  37
DOCKED: ENDBRANCH  29  36
DOCKED: BRANCH  22  39
DOCKED: ATOM     39  C   UNL d   1     -16.120  -5.510   5.890 -0.02 +0.02    +0.052 C 
DOCKED: BRANCH  39  40
DOCKED: ATOM     40  C   UNL d   1     -16.164  -4.034   6.318 -0.03 +0.06    +0.115 C 
DOCKED: BRANCH  40  41
DOCKED: ATOM     41  C   UNL d   1     -14.882  -3.270   6.057 +0.05 +0.16    +0.139 C 
DOCKED: ATOM     42  O   UNL d   1     -13.810  -3.785   6.341 -0.49 -0.89    -0.650 OA
DOCKED: BRANCH  41  43
DOCKED: ATOM     43  O   UNL d   1     -14.885  -2.069   5.438 -0.12 -1.20    -0.776 OA
DOCKED: ATOM     44  H   UNL d   1     -15.590  -1.796   4.836 +0.01 +0.19    +0.167 HD
DOCKED: ENDBRANCH  41  43
DOCKED: ENDBRANCH  40  41
DOCKED: ENDBRANCH  39  40
DOCKED: ENDBRANCH  22  39
DOCKED: BRANCH  12  45
DOCKED: ATOM     45  C   UNL d   1     -10.164  -5.430  -3.629 -0.40 -0.00    +0.004 C 
DOCKED: ATOM     46  C   UNL d   1      -9.904  -5.184  -4.910 -0.52 -0.00    +0.012 C 
DOCKED: ENDBRANCH  12  45
DOCKED: BRANCH  17  47
DOCKED: ATOM     47  C   UNL d   1      -9.597  -9.077   3.260 -0.16 +0.00    +0.004 C 
DOCKED: ATOM     48  C   UNL d   1      -8.607  -8.785   4.107 -0.28 +0.00    +0.012 C 
DOCKED: ENDBRANCH  17  47
DOCKED: TORSDOF 12
DOCKED: TER
DOCKED: ENDMDL
________________________________________________________________________________


	BEGINNING GENETIC ALGORITHM DOCKING 30 of 100
Run: 30 Seed: 911723568 1694517060 [ Run 30 of 100 GA/GALS ]
Beginning LAMARCKIAN GENETIC ALGORITHM (LGA), with a maximum of 25000000 energy evaluations.

Final-Value: -10.321


	FINAL GENETIC ALGORITHM DOCKED STATE
	_______________________________________________


Detailed state:  trans 3.597 1.236 -19.413 quatxyzw -0.860734 0.234831 0.266085 0.364952 center 8.781 34.984 -0.736 ntor 12 160.6560 48.5340 61.1384 -99.4951 119.1271 171.0425 -121.1344 -49.0419 -123.2671 175.0306 180.0000 -180.0000
State:	  3.597   1.236 -19.413  -0.925  0.252  0.286 137.191    160.66   48.53   61.14  -99.50  119.13  171.04 -121.13  -49.04 -123.27  175.03  180.00 -180.00

DOCKED: MODEL       30
DOCKED: USER    Run = 30
DOCKED: USER    DPF = D:/Protein_go_brrr/autodock/final/mut_D99N/heme_Co/dock.dpf
DOCKED: USER  
DOCKED: USER    Estimated Free Energy of Binding    =   -3.81 kcal/mol  [=(1)+(2)+(3)-(4)]
DOCKED: USER    Estimated Inhibition Constant, Ki   =    1.61 mM (millimolar)  [Temperature = 298.15 K]
DOCKED: USER    
DOCKED: USER    (1) Final Intermolecular Energy     =   -7.39 kcal/mol
DOCKED: USER        vdW + Hbond + desolv Energy     =   -5.13 kcal/mol
DOCKED: USER        Electrostatic Energy            =   -2.26 kcal/mol
DOCKED: USER    (2) Final Total Internal Energy     =   -2.93 kcal/mol
DOCKED: USER    (3) Torsional Free Energy           =   +3.58 kcal/mol
DOCKED: USER    (4) Unbound System's Energy  [=(2)] =   -2.93 kcal/mol
DOCKED: USER    
DOCKED: USER    
DOCKED: USER    NEWDPF move heme_Co_opt.pdbqt
DOCKED: USER    NEWDPF about 8.781000 34.984000 -0.736000
DOCKED: USER    NEWDPF tran0 3.596924 1.236399 -19.413058
DOCKED: USER    NEWDPF quaternion0 -0.860734 0.234831 0.266085 0.364952
DOCKED: USER    NEWDPF axisangle0 -0.924500 0.252228 0.285797 137.190717
DOCKED: USER    NEWDPF quat0 -0.924500 0.252228 0.285797 137.190717
DOCKED: USER    NEWDPF dihe0 160.66 48.53 61.14 -99.50 119.13 171.04 -121.13 -49.04 -123.27 175.03 180.00 -180.00 
DOCKED: USER  keepresnum = 1 
DOCKED: USER  
DOCKED: REMARK  12 active torsions:
DOCKED: REMARK  status: ('A' for Active; 'I' for Inactive)
DOCKED: REMARK    1  A    between atoms: C_6  and  C_10 
DOCKED: REMARK    2  A    between atoms: C_10  and  C_11 
DOCKED: REMARK    3  A    between atoms: C_11  and  C_12 
DOCKED: REMARK    4  A    between atoms: C_12  and  O_14 
DOCKED: REMARK    5  A    between atoms: C_17  and  C_20 
DOCKED: REMARK    6  A    between atoms: C_24  and  C_27 
DOCKED: REMARK    7  A    between atoms: C_31  and  C_34 
DOCKED: REMARK    8  A    between atoms: C_34  and  C_35 
DOCKED: REMARK    9  A    between atoms: C_35  and  C_36 
DOCKED: REMARK   10  A    between atoms: C_36  and  O_38 
DOCKED: REMARK   11  A    between atoms: FE_43  and  C_44 
DOCKED: REMARK   12  A    between atoms: C_44  and  O_45 
DOCKED: USER                              x       y       z     vdW  Elec       q    Type
DOCKED: USER                           _______ _______ _______ _____ _____    ______ ____
DOCKED: ROOT
DOCKED: ATOM      1  C   UNL d   1       2.580   2.511 -17.979 -0.04 +0.02    +0.064 A 
DOCKED: ATOM      2  C   UNL d   1       1.729   1.536 -22.555 -0.01 +0.01    +0.064 C 
DOCKED: ATOM      3  C   UNL d   1       5.742  -1.047 -22.789 -0.05 +0.01    +0.064 A 
DOCKED: ATOM      4  C   UNL d   1       6.431  -0.385 -18.019 -0.15 +0.02    +0.064 A 
DOCKED: ATOM      5  C   UNL d   1       2.071   2.464 -19.222 -0.02 +0.02    +0.066 A 
DOCKED: ATOM      6  C   UNL d   1       0.835   3.056 -19.546 -0.01 -0.01    -0.021 A 
DOCKED: ATOM      7  C   UNL d   1       0.582   2.750 -20.869 -0.00 -0.01    -0.025 A 
DOCKED: ATOM      8  C   UNL d   1       1.682   2.000 -21.300 -0.00 +0.02    +0.066 A 
DOCKED: ATOM      9  C   UNL d   1      -0.644   3.141 -21.709 +0.00 +0.02    +0.051 C 
DOCKED: ATOM     10  C   UNL d   1       2.831   0.779 -23.095 -0.01 +0.01    +0.066 A 
DOCKED: ATOM     11  C   UNL d   1       3.005   0.384 -24.439 -0.01 -0.00    -0.021 A 
DOCKED: ATOM     12  C   UNL d   1       4.185  -0.364 -24.480 -0.01 +0.00    +0.000 A 
DOCKED: ATOM     13  C   UNL d   1       4.648  -0.360 -23.164 -0.02 +0.01    +0.070 A 
DOCKED: ATOM     14  C   UNL d   1       2.141   0.787 -25.606 +0.00 +0.01    +0.052 C 
DOCKED: ATOM     15  C   UNL d   1       6.329  -1.195 -21.472 -0.10 +0.01    +0.066 A 
DOCKED: ATOM     16  C   UNL d   1       7.376  -2.038 -21.127 -0.14 -0.00    -0.021 A 
DOCKED: ATOM     17  C   UNL d   1       7.577  -1.852 -19.752 -0.16 +0.00    +0.000 A 
DOCKED: ATOM     18  C   UNL d   1       6.644  -0.895 -19.368 -0.12 +0.02    +0.070 A 
DOCKED: ATOM     19  C   UNL d   1       8.115  -2.952 -22.079 -0.14 +0.00    +0.052 C 
DOCKED: ATOM     20  C   UNL d   1       5.475   0.481 -17.607 -0.10 +0.02    +0.066 A 
DOCKED: ATOM     21  C   UNL d   1       5.348   0.869 -16.275 -0.13 -0.01    -0.025 A 
DOCKED: ATOM     22  C   UNL d   1       4.263   1.727 -16.238 -0.10 -0.01    -0.021 A 
DOCKED: ATOM     23  C   UNL d   1       3.771   1.810 -17.558 -0.06 +0.02    +0.066 A 
DOCKED: ATOM     24  C   UNL d   1       6.205   0.429 -15.091 -0.26 +0.01    +0.051 C 
DOCKED: ATOM     25  N   UNL d   1       2.623   1.813 -20.302 -0.00 -0.07    -0.248 N 
DOCKED: ATOM     26  N   UNL d   1       3.859   0.379 -22.339 -0.00 -0.04    -0.248 N 
DOCKED: ATOM     27  N   UNL d   1       5.898  -0.548 -20.412 -0.05 -0.05    -0.248 N 
DOCKED: ATOM     28  N   UNL d   1       4.500   1.056 -18.389 -0.03 -0.06    -0.248 N 
DOCKED: ATOM     29 FE   UNL d   1       4.358   0.563 -20.357 -0.02 +0.00    +0.000 Fe
DOCKED: ENDROOT
DOCKED: BRANCH   6  30
DOCKED: ATOM     30  C   UNL d   1      -0.091   3.807 -18.596 -0.03 +0.02    +0.052 C 
DOCKED: BRANCH  30  31
DOCKED: ATOM     31  C   UNL d   1      -1.173   2.875 -18.051 -0.09 +0.09    +0.115 C 
DOCKED: BRANCH  31  32
DOCKED: ATOM     32  C   UNL d   1      -0.595   1.640 -17.395 -0.10 +0.18    +0.139 C 
DOCKED: ATOM     33  O   UNL d   1      -0.661   1.517 -16.181 -0.19 -0.82    -0.650 OA
DOCKED: BRANCH  32  34
DOCKED: ATOM     34  O   UNL d   1      -0.045   0.635 -18.117 -0.18 -1.43    -0.776 OA
DOCKED: ATOM     35  H   UNL d   1       0.605   0.009 -17.769 -0.45 +0.24    +0.167 HD
DOCKED: ENDBRANCH  32  34
DOCKED: ENDBRANCH  31  32
DOCKED: ENDBRANCH  30  31
DOCKED: ENDBRANCH   6  30
DOCKED: BRANCH  29  36
DOCKED: ATOM     36  C   UNL d   1       3.084  -1.035 -19.889 -0.19 +0.06    +0.190 C 
DOCKED: BRANCH  36  37
DOCKED: ATOM     37  O   UNL d   1       1.739  -1.415 -19.860 -0.16 -0.21    -0.399 OA
DOCKED: ATOM     38  H   UNL d   1       1.319  -0.821 -19.176 -0.50 +0.15    +0.209 HD
DOCKED: ENDBRANCH  36  37
DOCKED: ENDBRANCH  29  36
DOCKED: BRANCH  22  39
DOCKED: ATOM     39  C   UNL d   1       3.697   2.375 -14.989 -0.19 +0.01    +0.052 C 
DOCKED: BRANCH  39  40
DOCKED: ATOM     40  C   UNL d   1       2.831   1.375 -14.203 -0.35 +0.04    +0.115 C 
DOCKED: BRANCH  40  41
DOCKED: ATOM     41  C   UNL d   1       2.530   0.091 -14.947 -0.40 +0.06    +0.139 C 
DOCKED: ATOM     42  O   UNL d   1       3.301  -0.853 -14.847 -0.08 -0.24    -0.650 OA
DOCKED: BRANCH  41  43
DOCKED: ATOM     43  O   UNL d   1       1.387  -0.072 -15.649 +0.16 -0.50    -0.776 OA
DOCKED: ATOM     44  H   UNL d   1       1.196   0.429 -16.453 -0.11 +0.12    +0.167 HD
DOCKED: ENDBRANCH  41  43
DOCKED: ENDBRANCH  40  41
DOCKED: ENDBRANCH  39  40
DOCKED: ENDBRANCH  22  39
DOCKED: BRANCH  12  45
DOCKED: ATOM     45  C   UNL d   1       4.933  -1.063 -25.607 -0.01 +0.00    +0.004 C 
DOCKED: ATOM     46  C   UNL d   1       5.073  -2.357 -25.882 -0.02 +0.00    +0.012 C 
DOCKED: ENDBRANCH  12  45
DOCKED: BRANCH  17  47
DOCKED: ATOM     47  C   UNL d   1       8.525  -2.539 -18.825 -0.30 +0.00    +0.004 C 
DOCKED: ATOM     48  C   UNL d   1       9.707  -2.030 -18.469 -0.22 +0.01    +0.012 C 
DOCKED: ENDBRANCH  17  47
DOCKED: TORSDOF 12
DOCKED: TER
DOCKED: ENDMDL
________________________________________________________________________________


	BEGINNING GENETIC ALGORITHM DOCKING 31 of 100
Run: 31 Seed: 836814814 1052842174 [ Run 31 of 100 GA/GALS ]
Beginning LAMARCKIAN GENETIC ALGORITHM (LGA), with a maximum of 25000000 energy evaluations.

Final-Value: -9.772


	FINAL GENETIC ALGORITHM DOCKED STATE
	_______________________________________________


Detailed state:  trans -2.921 18.122 7.794 quatxyzw -0.021420 0.523161 0.283559 0.803392 center 8.781 34.984 -0.736 ntor 12 -82.8362 108.2149 135.4746 93.6245 91.8282 136.0543 -8.7124 -113.7925 80.1133 -75.1326 39.1609 0.2151
State:	 -2.921  18.122   7.794  -0.036  0.879  0.476 73.090    -82.84  108.21  135.47   93.62   91.83  136.05   -8.71 -113.79   80.11  -75.13   39.16    0.22

DOCKED: MODEL       31
DOCKED: USER    Run = 31
DOCKED: USER    DPF = D:/Protein_go_brrr/autodock/final/mut_D99N/heme_Co/dock.dpf
DOCKED: USER  
DOCKED: USER    Estimated Free Energy of Binding    =   -3.93 kcal/mol  [=(1)+(2)+(3)-(4)]
DOCKED: USER    Estimated Inhibition Constant, Ki   =    1.32 mM (millimolar)  [Temperature = 298.15 K]
DOCKED: USER    
DOCKED: USER    (1) Final Intermolecular Energy     =   -7.51 kcal/mol
DOCKED: USER        vdW + Hbond + desolv Energy     =   -6.81 kcal/mol
DOCKED: USER        Electrostatic Energy            =   -0.70 kcal/mol
DOCKED: USER    (2) Final Total Internal Energy     =   -2.26 kcal/mol
DOCKED: USER    (3) Torsional Free Energy           =   +3.58 kcal/mol
DOCKED: USER    (4) Unbound System's Energy  [=(2)] =   -2.26 kcal/mol
DOCKED: USER    
DOCKED: USER    
DOCKED: USER    NEWDPF move heme_Co_opt.pdbqt
DOCKED: USER    NEWDPF about 8.781000 34.984000 -0.736000
DOCKED: USER    NEWDPF tran0 -2.920622 18.122211 7.793584
DOCKED: USER    NEWDPF quaternion0 -0.021420 0.523161 0.283559 0.803392
DOCKED: USER    NEWDPF axisangle0 -0.035972 0.878596 0.476208 73.089509
DOCKED: USER    NEWDPF quat0 -0.035972 0.878596 0.476208 73.089509
DOCKED: USER    NEWDPF dihe0 -82.84 108.21 135.47 93.62 91.83 136.05 -8.71 -113.79 80.11 -75.13 39.16 0.22 
DOCKED: USER  keepresnum = 1 
DOCKED: USER  
DOCKED: REMARK  12 active torsions:
DOCKED: REMARK  status: ('A' for Active; 'I' for Inactive)
DOCKED: REMARK    1  A    between atoms: C_6  and  C_10 
DOCKED: REMARK    2  A    between atoms: C_10  and  C_11 
DOCKED: REMARK    3  A    between atoms: C_11  and  C_12 
DOCKED: REMARK    4  A    between atoms: C_12  and  O_14 
DOCKED: REMARK    5  A    between atoms: C_17  and  C_20 
DOCKED: REMARK    6  A    between atoms: C_24  and  C_27 
DOCKED: REMARK    7  A    between atoms: C_31  and  C_34 
DOCKED: REMARK    8  A    between atoms: C_34  and  C_35 
DOCKED: REMARK    9  A    between atoms: C_35  and  C_36 
DOCKED: REMARK   10  A    between atoms: C_36  and  O_38 
DOCKED: REMARK   11  A    between atoms: FE_43  and  C_44 
DOCKED: REMARK   12  A    between atoms: C_44  and  O_45 
DOCKED: USER                              x       y       z     vdW  Elec       q    Type
DOCKED: USER                           _______ _______ _______ _____ _____    ______ ____
DOCKED: ROOT
DOCKED: ATOM      1  C   UNL d   1      -2.544  19.243   5.972 -0.13 +0.01    +0.064 A 
DOCKED: ATOM      2  C   UNL d   1      -6.514  17.391   7.821 -0.19 +0.00    +0.064 C 
DOCKED: ATOM      3  C   UNL d   1      -3.985  15.395  11.349 -0.19 -0.02    +0.064 A 
DOCKED: ATOM      4  C   UNL d   1       0.028  17.594   9.698 -0.02 +0.00    +0.064 A 
DOCKED: ATOM      5  C   UNL d   1      -3.810  18.853   6.198 -0.15 +0.01    +0.066 A 
DOCKED: ATOM      6  C   UNL d   1      -4.883  19.301   5.402 -0.13 -0.01    -0.021 A 
DOCKED: ATOM      7  C   UNL d   1      -6.035  18.779   5.957 -0.15 -0.01    -0.025 A 
DOCKED: ATOM      8  C   UNL d   1      -5.615  18.022   7.056 -0.18 +0.01    +0.066 A 
DOCKED: ATOM      9  C   UNL d   1      -7.482  18.976   5.482 -0.14 +0.01    +0.051 C 
DOCKED: ATOM     10  C   UNL d   1      -6.174  16.569   8.956 -0.21 -0.00    +0.066 A 
DOCKED: ATOM     11  C   UNL d   1      -7.057  15.768   9.713 -0.25 +0.00    -0.021 A 
DOCKED: ATOM     12  C   UNL d   1      -6.293  15.195  10.732 -0.27 -0.00    +0.000 A 
DOCKED: ATOM     13  C   UNL d   1      -5.001  15.676  10.515 -0.24 -0.01    +0.070 A 
DOCKED: ATOM     14  C   UNL d   1      -8.510  15.508   9.406 -0.19 -0.02    +0.052 C 
DOCKED: ATOM     15  C   UNL d   1      -2.608  15.847  11.306 -0.19 -0.02    +0.066 A 
DOCKED: ATOM     16  C   UNL d   1      -1.642  15.637  12.280 -0.22 +0.01    -0.021 A 
DOCKED: ATOM     17  C   UNL d   1      -0.483  16.271  11.809 -0.20 -0.00    +0.000 A 
DOCKED: ATOM     18  C   UNL d   1      -0.831  16.806  10.573 -0.11 -0.00    +0.070 A 
DOCKED: ATOM     19  C   UNL d   1      -1.848  14.874  13.569 -0.23 -0.02    +0.052 C 
DOCKED: ATOM     20  C   UNL d   1      -0.312  18.196   8.534 -0.21 +0.00    +0.066 A 
DOCKED: ATOM     21  C   UNL d   1       0.593  18.958   7.799 -0.18 -0.00    -0.025 A 
DOCKED: ATOM     22  C   UNL d   1      -0.112  19.423   6.704 -0.18 -0.00    -0.021 A 
DOCKED: ATOM     23  C   UNL d   1      -1.427  18.927   6.832 -0.20 +0.01    +0.066 A 
DOCKED: ATOM     24  C   UNL d   1       2.054  19.248   8.133 -0.13 +0.00    +0.051 C 
DOCKED: ATOM     25  N   UNL d   1      -4.241  18.046   7.226 -0.13 -0.03    -0.248 N 
DOCKED: ATOM     26  N   UNL d   1      -4.920  16.461   9.408 -0.15 +0.02    -0.248 N 
DOCKED: ATOM     27  N   UNL d   1      -2.111  16.559  10.320 -0.18 +0.02    -0.248 N 
DOCKED: ATOM     28  N   UNL d   1      -1.553  18.185   7.940 -0.18 -0.02    -0.248 N 
DOCKED: ATOM     29 FE   UNL d   1      -3.110  17.260   8.863 -0.05 -0.00    +0.000 Fe
DOCKED: ENDROOT
DOCKED: BRANCH   6  30
DOCKED: ATOM     30  C   UNL d   1      -4.799  20.254   4.215 -0.09 +0.01    +0.052 C 
DOCKED: BRANCH  30  31
DOCKED: ATOM     31  C   UNL d   1      -5.394  19.607   2.964 -0.07 +0.06    +0.115 C 
DOCKED: BRANCH  31  32
DOCKED: ATOM     32  C   UNL d   1      -4.331  19.089   2.020 -0.13 +0.08    +0.139 C 
DOCKED: ATOM     33  O   UNL d   1      -4.461  19.259   0.817 -0.03 -0.39    -0.650 OA
DOCKED: BRANCH  32  34
DOCKED: ATOM     34  O   UNL d   1      -3.208  18.482   2.468 +0.04 -0.34    -0.776 OA
DOCKED: ATOM     35  H   UNL d   1      -2.399  18.950   2.717 +0.04 +0.05    +0.167 HD
DOCKED: ENDBRANCH  32  34
DOCKED: ENDBRANCH  31  32
DOCKED: ENDBRANCH  30  31
DOCKED: ENDBRANCH   6  30
DOCKED: BRANCH  29  36
DOCKED: ATOM     36  C   UNL d   1      -3.581  19.025   9.890 -0.03 -0.00    +0.190 C 
DOCKED: BRANCH  36  37
DOCKED: ATOM     37  O   UNL d   1      -4.022  20.339   9.702 +0.00 +0.00    -0.399 OA
DOCKED: ATOM     38  H   UNL d   1      -4.065  20.457   8.712 +0.02 +0.00    +0.209 HD
DOCKED: ENDBRANCH  36  37
DOCKED: ENDBRANCH  29  36
DOCKED: BRANCH  22  39
DOCKED: ATOM     39  C   UNL d   1       0.435  20.346   5.632 -0.11 +0.00    +0.052 C 
DOCKED: BRANCH  39  40
DOCKED: ATOM     40  C   UNL d   1       0.794  19.553   4.364 -0.18 +0.01    +0.115 C 
DOCKED: BRANCH  40  41
DOCKED: ATOM     41  C   UNL d   1      -0.254  19.612   3.273 -0.18 +0.02    +0.139 C 
DOCKED: ATOM     42  O   UNL d   1      -1.028  20.558   3.236 +0.02 -0.08    -0.650 OA
DOCKED: BRANCH  41  43
DOCKED: ATOM     43  O   UNL d   1      -0.304  18.690   2.285 -0.00 -0.12    -0.776 OA
DOCKED: ATOM     44  H   UNL d   1      -1.137  18.352   1.932 +0.04 +0.04    +0.167 HD
DOCKED: ENDBRANCH  41  43
DOCKED: ENDBRANCH  40  41
DOCKED: ENDBRANCH  39  40
DOCKED: ENDBRANCH  22  39
DOCKED: BRANCH  12  45
DOCKED: ATOM     45  C   UNL d   1      -6.628  14.238  11.868 -0.32 -0.00    +0.004 C 
DOCKED: ATOM     46  C   UNL d   1      -6.691  12.909  11.891 -0.48 -0.00    +0.012 C 
DOCKED: ENDBRANCH  12  45
DOCKED: BRANCH  17  47
DOCKED: ATOM     47  C   UNL d   1       0.850  16.430  12.463 -0.16 -0.00    +0.004 C 
DOCKED: ATOM     48  C   UNL d   1       1.703  15.420  12.654 -0.23 -0.00    +0.012 C 
DOCKED: ENDBRANCH  17  47
DOCKED: TORSDOF 12
DOCKED: TER
DOCKED: ENDMDL
________________________________________________________________________________


	BEGINNING GENETIC ALGORITHM DOCKING 32 of 100
Run: 32 Seed: 400459225 1108301421 [ Run 32 of 100 GA/GALS ]
Beginning LAMARCKIAN GENETIC ALGORITHM (LGA), with a maximum of 25000000 energy evaluations.

Final-Value: -9.505


	FINAL GENETIC ALGORITHM DOCKED STATE
	_______________________________________________


Detailed state:  trans 18.472 -1.840 1.076 quatxyzw 0.382362 0.485860 0.578231 0.532342 center 8.781 34.984 -0.736 ntor 12 166.5331 114.6833 27.5417 37.1512 144.5711 144.6938 -126.9088 132.5910 -136.8144 44.4242 -179.2017 4.6718
State:	 18.472  -1.840   1.076   0.452  0.574  0.683 115.672    166.53  114.68   27.54   37.15  144.57  144.69 -126.91  132.59 -136.81   44.42 -179.20    4.67

DOCKED: MODEL       32
DOCKED: USER    Run = 32
DOCKED: USER    DPF = D:/Protein_go_brrr/autodock/final/mut_D99N/heme_Co/dock.dpf
DOCKED: USER  
DOCKED: USER    Estimated Free Energy of Binding    =   -3.77 kcal/mol  [=(1)+(2)+(3)-(4)]
DOCKED: USER    Estimated Inhibition Constant, Ki   =    1.72 mM (millimolar)  [Temperature = 298.15 K]
DOCKED: USER    
DOCKED: USER    (1) Final Intermolecular Energy     =   -7.35 kcal/mol
DOCKED: USER        vdW + Hbond + desolv Energy     =   -7.25 kcal/mol
DOCKED: USER        Electrostatic Energy            =   -0.10 kcal/mol
DOCKED: USER    (2) Final Total Internal Energy     =   -2.15 kcal/mol
DOCKED: USER    (3) Torsional Free Energy           =   +3.58 kcal/mol
DOCKED: USER    (4) Unbound System's Energy  [=(2)] =   -2.15 kcal/mol
DOCKED: USER    
DOCKED: USER    
DOCKED: USER    NEWDPF move heme_Co_opt.pdbqt
DOCKED: USER    NEWDPF about 8.781000 34.984000 -0.736000
DOCKED: USER    NEWDPF tran0 18.471967 -1.839976 1.076330
DOCKED: USER    NEWDPF quaternion0 0.382362 0.485860 0.578231 0.532342
DOCKED: USER    NEWDPF axisangle0 0.451681 0.573944 0.683061 115.672358
DOCKED: USER    NEWDPF quat0 0.451681 0.573944 0.683061 115.672358
DOCKED: USER    NEWDPF dihe0 166.53 114.68 27.54 37.15 144.57 144.69 -126.91 132.59 -136.81 44.42 -179.20 4.67 
DOCKED: USER  keepresnum = 1 
DOCKED: USER  
DOCKED: REMARK  12 active torsions:
DOCKED: REMARK  status: ('A' for Active; 'I' for Inactive)
DOCKED: REMARK    1  A    between atoms: C_6  and  C_10 
DOCKED: REMARK    2  A    between atoms: C_10  and  C_11 
DOCKED: REMARK    3  A    between atoms: C_11  and  C_12 
DOCKED: REMARK    4  A    between atoms: C_12  and  O_14 
DOCKED: REMARK    5  A    between atoms: C_17  and  C_20 
DOCKED: REMARK    6  A    between atoms: C_24  and  C_27 
DOCKED: REMARK    7  A    between atoms: C_31  and  C_34 
DOCKED: REMARK    8  A    between atoms: C_34  and  C_35 
DOCKED: REMARK    9  A    between atoms: C_35  and  C_36 
DOCKED: REMARK   10  A    between atoms: C_36  and  O_38 
DOCKED: REMARK   11  A    between atoms: FE_43  and  C_44 
DOCKED: REMARK   12  A    between atoms: C_44  and  O_45 
DOCKED: USER                              x       y       z     vdW  Elec       q    Type
DOCKED: USER                           _______ _______ _______ _____ _____    ______ ____
DOCKED: ROOT
DOCKED: ATOM      1  C   UNL d   1      19.301  -2.172  -0.903 -0.18 -0.01    +0.064 A 
DOCKED: ATOM      2  C   UNL d   1      16.217   1.036   0.773 -0.15 -0.00    +0.064 C 
DOCKED: ATOM      3  C   UNL d   1      16.232  -1.120   5.036 -0.22 -0.00    +0.064 A 
DOCKED: ATOM      4  C   UNL d   1      19.674  -4.177   3.463 -0.10 +0.01    +0.064 A 
DOCKED: ATOM      5  C   UNL d   1      18.430  -1.158  -0.769 -0.16 -0.01    +0.066 A 
DOCKED: ATOM      6  C   UNL d   1      18.198  -0.231  -1.803 -0.17 +0.00    -0.021 A 
DOCKED: ATOM      7  C   UNL d   1      17.319   0.711  -1.304 -0.12 +0.00    -0.025 A 
DOCKED: ATOM      8  C   UNL d   1      17.041   0.309   0.007 -0.14 -0.01    +0.066 A 
DOCKED: ATOM      9  C   UNL d   1      16.756   1.948  -2.020 -0.06 -0.00    +0.051 C 
DOCKED: ATOM     10  C   UNL d   1      15.851   0.687   2.123 -0.10 -0.00    +0.066 A 
DOCKED: ATOM     11  C   UNL d   1      14.886   1.330   2.928 -0.22 -0.00    -0.021 A 
DOCKED: ATOM     12  C   UNL d   1      14.908   0.678   4.164 -0.29 -0.00    +0.000 A 
DOCKED: ATOM     13  C   UNL d   1      15.873  -0.319   4.018 -0.20 -0.00    +0.070 A 
DOCKED: ATOM     14  C   UNL d   1      13.950   2.428   2.494 -0.24 +0.00    +0.052 C 
DOCKED: ATOM     15  C   UNL d   1      17.241  -2.161   5.076 -0.22 -0.01    +0.066 A 
DOCKED: ATOM     16  C   UNL d   1      17.664  -2.855   6.201 -0.22 +0.00    -0.021 A 
DOCKED: ATOM     17  C   UNL d   1      18.658  -3.736   5.752 -0.14 +0.00    +0.000 A 
DOCKED: ATOM     18  C   UNL d   1      18.751  -3.521   4.381 -0.14 +0.00    +0.070 A 
DOCKED: ATOM     19  C   UNL d   1      17.131  -2.661   7.603 -0.23 -0.00    +0.052 C 
DOCKED: ATOM     20  C   UNL d   1      19.842  -3.924   2.143 -0.16 -0.00    +0.066 A 
DOCKED: ATOM     21  C   UNL d   1      20.788  -4.596   1.372 -0.23 -0.00    -0.025 A 
DOCKED: ATOM     22  C   UNL d   1      20.684  -4.059   0.102 -0.22 +0.00    -0.021 A 
DOCKED: ATOM     23  C   UNL d   1      19.679  -3.070   0.164 -0.19 -0.01    +0.066 A 
DOCKED: ATOM     24  C   UNL d   1      21.758  -5.683   1.827 -0.09 +0.01    +0.051 C 
DOCKED: ATOM     25  N   UNL d   1      17.710  -0.849   0.363 -0.08 +0.02    -0.248 N 
DOCKED: ATOM     26  N   UNL d   1      16.402  -0.348   2.765 -0.09 +0.01    -0.248 N 
DOCKED: ATOM     27  N   UNL d   1      17.914  -2.556   4.018 -0.15 +0.02    -0.248 N 
DOCKED: ATOM     28  N   UNL d   1      19.169  -2.983   1.399 -0.12 +0.02    -0.248 N 
DOCKED: ATOM     29 FE   UNL d   1      17.820  -1.756   2.298 -0.04 -0.00    +0.000 Fe
DOCKED: ENDROOT
DOCKED: BRANCH   6  30
DOCKED: ATOM     30  C   UNL d   1      18.860  -0.215  -3.177 -0.23 -0.01    +0.052 C 
DOCKED: BRANCH  30  31
DOCKED: ATOM     31  C   UNL d   1      20.070   0.719  -3.179 -0.09 -0.00    +0.115 C 
DOCKED: BRANCH  31  32
DOCKED: ATOM     32  C   UNL d   1      20.894   0.599  -1.915 -0.03 -0.00    +0.139 C 
DOCKED: ATOM     33  O   UNL d   1      21.949  -0.017  -1.943 +0.01 -0.01    -0.650 OA
DOCKED: BRANCH  32  34
DOCKED: ATOM     34  O   UNL d   1      20.524   1.195  -0.758 +0.02 +0.00    -0.776 OA
DOCKED: ATOM     35  H   UNL d   1      20.872   0.955   0.112 +0.01 +0.00    +0.167 HD
DOCKED: ENDBRANCH  32  34
DOCKED: ENDBRANCH  31  32
DOCKED: ENDBRANCH  30  31
DOCKED: ENDBRANCH   6  30
DOCKED: BRANCH  29  36
DOCKED: ATOM     36  C   UNL d   1      19.334  -0.373   2.735 -0.02 -0.00    +0.190 C 
DOCKED: BRANCH  36  37
DOCKED: ATOM     37  O   UNL d   1      20.165   0.590   2.154 +0.00 -0.00    -0.399 OA
DOCKED: ATOM     38  H   UNL d   1      19.903   0.608   1.191 +0.01 -0.00    +0.209 HD
DOCKED: ENDBRANCH  36  37
DOCKED: ENDBRANCH  29  36
DOCKED: BRANCH  22  39
DOCKED: ATOM     39  C   UNL d   1      21.549  -4.435  -1.086 -0.20 +0.00    +0.052 C 
DOCKED: BRANCH  39  40
DOCKED: ATOM     40  C   UNL d   1      20.757  -5.295  -2.085 -0.31 +0.01    +0.115 C 
DOCKED: BRANCH  40  41
DOCKED: ATOM     41  C   UNL d   1      21.555  -6.418  -2.713 -0.24 +0.02    +0.139 C 
DOCKED: ATOM     42  O   UNL d   1      22.173  -6.207  -3.747 -0.03 -0.10    -0.650 OA
DOCKED: BRANCH  41  43
DOCKED: ATOM     43  O   UNL d   1      21.675  -7.625  -2.116 +0.01 -0.02    -0.776 OA
DOCKED: ATOM     44  H   UNL d   1      20.967  -8.016  -1.589 -0.45 -0.03    +0.167 HD
DOCKED: ENDBRANCH  41  43
DOCKED: ENDBRANCH  40  41
DOCKED: ENDBRANCH  39  40
DOCKED: ENDBRANCH  22  39
DOCKED: BRANCH  12  45
DOCKED: ATOM     45  C   UNL d   1      14.120   0.870   5.453 -0.34 +0.00    +0.004 C 
DOCKED: ATOM     46  C   UNL d   1      12.891   1.335   5.655 -0.37 +0.00    +0.012 C 
DOCKED: ENDBRANCH  12  45
DOCKED: BRANCH  17  47
DOCKED: ATOM     47  C   UNL d   1      19.513  -4.684   6.528 -0.15 +0.00    +0.004 C 
DOCKED: ATOM     48  C   UNL d   1      19.566  -5.996   6.286 -0.21 +0.00    +0.012 C 
DOCKED: ENDBRANCH  17  47
DOCKED: TORSDOF 12
DOCKED: TER
DOCKED: ENDMDL
________________________________________________________________________________


	BEGINNING GENETIC ALGORITHM DOCKING 33 of 100
Run: 33 Seed: 237734291 1931251815 [ Run 33 of 100 GA/GALS ]
Beginning LAMARCKIAN GENETIC ALGORITHM (LGA), with a maximum of 25000000 energy evaluations.

Final-Value: -10.794


	FINAL GENETIC ALGORITHM DOCKED STATE
	_______________________________________________


Detailed state:  trans -10.380 -4.178 11.057 quatxyzw -0.385183 0.472624 -0.446559 0.654864 center 8.781 34.984 -0.736 ntor 12 55.4492 97.3242 -99.5933 117.8579 62.6611 144.0591 -161.5635 -118.8977 -11.4049 59.0240 -175.7844 155.9444
State:	-10.380  -4.178  11.057  -0.510  0.625 -0.591 98.181     55.45   97.32  -99.59  117.86   62.66  144.06 -161.56 -118.90  -11.40   59.02 -175.78  155.94

DOCKED: MODEL       33
DOCKED: USER    Run = 33
DOCKED: USER    DPF = D:/Protein_go_brrr/autodock/final/mut_D99N/heme_Co/dock.dpf
DOCKED: USER  
DOCKED: USER    Estimated Free Energy of Binding    =   -5.05 kcal/mol  [=(1)+(2)+(3)-(4)]
DOCKED: USER    Estimated Inhibition Constant, Ki   =  199.80 uM (micromolar)  [Temperature = 298.15 K]
DOCKED: USER    
DOCKED: USER    (1) Final Intermolecular Energy     =   -8.63 kcal/mol
DOCKED: USER        vdW + Hbond + desolv Energy     =   -6.07 kcal/mol
DOCKED: USER        Electrostatic Energy            =   -2.55 kcal/mol
DOCKED: USER    (2) Final Total Internal Energy     =   -2.17 kcal/mol
DOCKED: USER    (3) Torsional Free Energy           =   +3.58 kcal/mol
DOCKED: USER    (4) Unbound System's Energy  [=(2)] =   -2.17 kcal/mol
DOCKED: USER    
DOCKED: USER    
DOCKED: USER    NEWDPF move heme_Co_opt.pdbqt
DOCKED: USER    NEWDPF about 8.781000 34.984000 -0.736000
DOCKED: USER    NEWDPF tran0 -10.380280 -4.178138 11.056766
DOCKED: USER    NEWDPF quaternion0 -0.385183 0.472624 -0.446559 0.654864
DOCKED: USER    NEWDPF axisangle0 -0.509672 0.625373 -0.590884 98.181390
DOCKED: USER    NEWDPF quat0 -0.509672 0.625373 -0.590884 98.181390
DOCKED: USER    NEWDPF dihe0 55.45 97.32 -99.59 117.86 62.66 144.06 -161.56 -118.90 -11.40 59.02 -175.78 155.94 
DOCKED: USER  keepresnum = 1 
DOCKED: USER  
DOCKED: REMARK  12 active torsions:
DOCKED: REMARK  status: ('A' for Active; 'I' for Inactive)
DOCKED: REMARK    1  A    between atoms: C_6  and  C_10 
DOCKED: REMARK    2  A    between atoms: C_10  and  C_11 
DOCKED: REMARK    3  A    between atoms: C_11  and  C_12 
DOCKED: REMARK    4  A    between atoms: C_12  and  O_14 
DOCKED: REMARK    5  A    between atoms: C_17  and  C_20 
DOCKED: REMARK    6  A    between atoms: C_24  and  C_27 
DOCKED: REMARK    7  A    between atoms: C_31  and  C_34 
DOCKED: REMARK    8  A    between atoms: C_34  and  C_35 
DOCKED: REMARK    9  A    between atoms: C_35  and  C_36 
DOCKED: REMARK   10  A    between atoms: C_36  and  O_38 
DOCKED: REMARK   11  A    between atoms: FE_43  and  C_44 
DOCKED: REMARK   12  A    between atoms: C_44  and  O_45 
DOCKED: USER                              x       y       z     vdW  Elec       q    Type
DOCKED: USER                           _______ _______ _______ _____ _____    ______ ____
DOCKED: ROOT
DOCKED: ATOM      1  C   UNL d   1     -10.919  -3.666   9.016 -0.23 +0.02    +0.064 A 
DOCKED: ATOM      2  C   UNL d   1      -9.227  -7.658  10.968 -0.14 +0.02    +0.064 C 
DOCKED: ATOM      3  C   UNL d   1      -8.777  -5.452  15.182 -0.11 +0.01    +0.064 A 
DOCKED: ATOM      4  C   UNL d   1     -10.862  -1.477  13.309 -0.26 +0.02    +0.064 A 
DOCKED: ATOM      5  C   UNL d   1     -10.456  -4.908   9.231 -0.20 +0.02    +0.066 A 
DOCKED: ATOM      6  C   UNL d   1     -10.489  -5.901   8.233 -0.21 -0.01    -0.021 A 
DOCKED: ATOM      7  C   UNL d   1     -10.018  -7.064   8.811 -0.16 -0.01    -0.025 A 
DOCKED: ATOM      8  C   UNL d   1      -9.703  -6.727  10.132 -0.15 +0.01    +0.066 A 
DOCKED: ATOM      9  C   UNL d   1      -9.866  -8.446   8.159 -0.14 +0.01    +0.051 C 
DOCKED: ATOM     10  C   UNL d   1      -8.851  -7.399  12.335 -0.09 +0.01    +0.066 A 
DOCKED: ATOM     11  C   UNL d   1      -8.216  -8.298  13.220 -0.06 -0.00    -0.021 A 
DOCKED: ATOM     12  C   UNL d   1      -8.093  -7.627  14.440 -0.05 +0.00    +0.000 A 
DOCKED: ATOM     13  C   UNL d   1      -8.648  -6.369  14.207 -0.08 +0.01    +0.070 A 
DOCKED: ATOM     14  C   UNL d   1      -7.684  -9.665  12.874 -0.08 +0.02    +0.052 C 
DOCKED: ATOM     15  C   UNL d   1      -9.370  -4.131  15.130 -0.18 +0.01    +0.066 A 
DOCKED: ATOM     16  C   UNL d   1      -9.602  -3.289  16.209 -0.21 -0.00    -0.021 A 
DOCKED: ATOM     17  C   UNL d   1     -10.205  -2.142  15.674 -0.28 +0.00    +0.000 A 
DOCKED: ATOM     18  C   UNL d   1     -10.279  -2.368  14.304 -0.26 +0.02    +0.070 A 
DOCKED: ATOM     19  C   UNL d   1      -9.256  -3.595  17.649 -0.15 +0.01    +0.052 C 
DOCKED: ATOM     20  C   UNL d   1     -11.023  -1.711  11.985 -0.23 +0.02    +0.066 A 
DOCKED: ATOM     21  C   UNL d   1     -11.631  -0.790  11.135 -0.24 -0.01    -0.025 A 
DOCKED: ATOM     22  C   UNL d   1     -11.636  -1.382   9.885 -0.20 -0.01    -0.021 A 
DOCKED: ATOM     23  C   UNL d   1     -11.035  -2.650  10.038 -0.19 +0.02    +0.066 A 
DOCKED: ATOM     24  C   UNL d   1     -12.200   0.579  11.499 -0.28 +0.02    +0.051 C 
DOCKED: ATOM     25  N   UNL d   1      -9.958  -5.396  10.418 -0.06 -0.06    -0.248 N 
DOCKED: ATOM     26  N   UNL d   1      -9.055  -6.213  12.918 -0.01 -0.05    -0.248 N 
DOCKED: ATOM     27  N   UNL d   1      -9.800  -3.574  14.019 -0.05 -0.05    -0.248 N 
DOCKED: ATOM     28  N   UNL d   1     -10.665  -2.854  11.308 -0.06 -0.06    -0.248 N 
DOCKED: ATOM     29 FE   UNL d   1      -9.875  -4.428  12.324 -0.03 +0.00    +0.000 Fe
DOCKED: ENDROOT
DOCKED: BRANCH   6  30
DOCKED: ATOM     30  C   UNL d   1     -11.029  -5.747   6.814 -0.18 +0.02    +0.052 C 
DOCKED: BRANCH  30  31
DOCKED: ATOM     31  C   UNL d   1     -12.506  -6.135   6.757 -0.11 +0.05    +0.115 C 
DOCKED: BRANCH  31  32
DOCKED: ATOM     32  C   UNL d   1     -13.167  -5.701   5.466 -0.08 +0.12    +0.139 C 
DOCKED: ATOM     33  O   UNL d   1     -12.853  -6.245   4.418 -0.00 -0.48    -0.650 OA
DOCKED: BRANCH  32  34
DOCKED: ATOM     34  O   UNL d   1     -14.136  -4.757   5.438 -0.28 -1.01    -0.776 OA
DOCKED: ATOM     35  H   UNL d   1     -14.058  -3.885   5.851 +0.03 +0.29    +0.167 HD
DOCKED: ENDBRANCH  32  34
DOCKED: ENDBRANCH  31  32
DOCKED: ENDBRANCH  30  31
DOCKED: ENDBRANCH   6  30
DOCKED: BRANCH  29  36
DOCKED: ATOM     36  C   UNL d   1     -11.795  -5.197  12.672 -0.04 +0.03    +0.190 C 
DOCKED: BRANCH  36  37
DOCKED: ATOM     37  O   UNL d   1     -12.869  -5.836  12.045 -0.00 -0.06    -0.399 OA
DOCKED: ATOM     38  H   UNL d   1     -12.706  -5.715  11.068 +0.01 +0.04    +0.209 HD
DOCKED: ENDBRANCH  36  37
DOCKED: ENDBRANCH  29  36
DOCKED: BRANCH  22  39
DOCKED: ATOM     39  C   UNL d   1     -12.244  -0.784   8.630 -0.19 +0.02    +0.052 C 
DOCKED: BRANCH  39  40
DOCKED: ATOM     40  C   UNL d   1     -13.599  -1.440   8.318 -0.06 +0.05    +0.115 C 
DOCKED: BRANCH  40  41
DOCKED: ATOM     41  C   UNL d   1     -13.715  -1.995   6.913 -0.10 +0.14    +0.139 C 
DOCKED: ATOM     42  O   UNL d   1     -12.698  -2.218   6.272 -0.01 -1.14    -0.650 OA
DOCKED: BRANCH  41  43
DOCKED: ATOM     43  O   UNL d   1     -14.910  -2.333   6.380 -0.18 -0.78    -0.776 OA
DOCKED: ATOM     44  H   UNL d   1     -15.265  -3.230   6.428 +0.01 +0.14    +0.167 HD
DOCKED: ENDBRANCH  41  43
DOCKED: ENDBRANCH  40  41
DOCKED: ENDBRANCH  39  40
DOCKED: ENDBRANCH  22  39
DOCKED: BRANCH  12  45
DOCKED: ATOM     45  C   UNL d   1      -7.501  -8.022  15.787 -0.03 +0.00    +0.004 C 
DOCKED: ATOM     46  C   UNL d   1      -6.398  -7.605  16.403 -0.04 +0.00    +0.012 C 
DOCKED: ENDBRANCH  12  45
DOCKED: BRANCH  17  47
DOCKED: ATOM     47  C   UNL d   1     -10.733  -0.930  16.369 -0.17 +0.00    +0.004 C 
DOCKED: ATOM     48  C   UNL d   1     -10.112  -0.338  17.392 -0.27 +0.01    +0.012 C 
DOCKED: ENDBRANCH  17  47
DOCKED: TORSDOF 12
DOCKED: TER
DOCKED: ENDMDL
________________________________________________________________________________


	BEGINNING GENETIC ALGORITHM DOCKING 34 of 100
Run: 34 Seed: 1672877862 2079392387 [ Run 34 of 100 GA/GALS ]
Beginning LAMARCKIAN GENETIC ALGORITHM (LGA), with a maximum of 25000000 energy evaluations.

Final-Value: -8.976


	FINAL GENETIC ALGORITHM DOCKED STATE
	_______________________________________________


Detailed state:  trans -16.252 4.979 3.721 quatxyzw 0.199198 -0.041465 0.776854 -0.595901 center 8.781 34.984 -0.736 ntor 12 85.9330 102.7272 -72.8211 147.2483 143.0014 149.4382 123.8221 -76.4026 22.4074 -59.0861 178.0148 -150.6663
State:	-16.252   4.979   3.721   0.248 -0.052  0.967 -106.846     85.93  102.73  -72.82  147.25  143.00  149.44  123.82  -76.40   22.41  -59.09  178.01 -150.67

DOCKED: MODEL       34
DOCKED: USER    Run = 34
DOCKED: USER    DPF = D:/Protein_go_brrr/autodock/final/mut_D99N/heme_Co/dock.dpf
DOCKED: USER  
DOCKED: USER    Estimated Free Energy of Binding    =   -4.74 kcal/mol  [=(1)+(2)+(3)-(4)]
DOCKED: USER    Estimated Inhibition Constant, Ki   =  335.40 uM (micromolar)  [Temperature = 298.15 K]
DOCKED: USER    
DOCKED: USER    (1) Final Intermolecular Energy     =   -8.32 kcal/mol
DOCKED: USER        vdW + Hbond + desolv Energy     =   -6.34 kcal/mol
DOCKED: USER        Electrostatic Energy            =   -1.98 kcal/mol
DOCKED: USER    (2) Final Total Internal Energy     =   -0.66 kcal/mol
DOCKED: USER    (3) Torsional Free Energy           =   +3.58 kcal/mol
DOCKED: USER    (4) Unbound System's Energy  [=(2)] =   -0.66 kcal/mol
DOCKED: USER    
DOCKED: USER    
DOCKED: USER    NEWDPF move heme_Co_opt.pdbqt
DOCKED: USER    NEWDPF about 8.781000 34.984000 -0.736000
DOCKED: USER    NEWDPF tran0 -16.251726 4.978515 3.721446
DOCKED: USER    NEWDPF quaternion0 0.199198 -0.041465 0.776854 -0.595901
DOCKED: USER    NEWDPF axisangle0 0.248050 -0.051634 0.967370 -106.846211
DOCKED: USER    NEWDPF quat0 0.248050 -0.051634 0.967370 -106.846211
DOCKED: USER    NEWDPF dihe0 85.93 102.73 -72.82 147.25 143.00 149.44 123.82 -76.40 22.41 -59.09 178.01 -150.67 
DOCKED: USER  keepresnum = 1 
DOCKED: USER  
DOCKED: REMARK  12 active torsions:
DOCKED: REMARK  status: ('A' for Active; 'I' for Inactive)
DOCKED: REMARK    1  A    between atoms: C_6  and  C_10 
DOCKED: REMARK    2  A    between atoms: C_10  and  C_11 
DOCKED: REMARK    3  A    between atoms: C_11  and  C_12 
DOCKED: REMARK    4  A    between atoms: C_12  and  O_14 
DOCKED: REMARK    5  A    between atoms: C_17  and  C_20 
DOCKED: REMARK    6  A    between atoms: C_24  and  C_27 
DOCKED: REMARK    7  A    between atoms: C_31  and  C_34 
DOCKED: REMARK    8  A    between atoms: C_34  and  C_35 
DOCKED: REMARK    9  A    between atoms: C_35  and  C_36 
DOCKED: REMARK   10  A    between atoms: C_36  and  O_38 
DOCKED: REMARK   11  A    between atoms: FE_43  and  C_44 
DOCKED: REMARK   12  A    between atoms: C_44  and  O_45 
DOCKED: USER                              x       y       z     vdW  Elec       q    Type
DOCKED: USER                           _______ _______ _______ _____ _____    ______ ____
DOCKED: ROOT
DOCKED: ATOM      1  C   UNL d   1     -16.536   3.333   2.334 -0.15 +0.01    +0.064 A 
DOCKED: ATOM      2  C   UNL d   1     -13.323   4.112   5.751 -0.16 +0.01    +0.064 C 
DOCKED: ATOM      3  C   UNL d   1     -15.134   8.467   6.513 -0.09 -0.00    +0.064 A 
DOCKED: ATOM      4  C   UNL d   1     -18.665   7.547   3.296 -0.12 +0.00    +0.064 A 
DOCKED: ATOM      5  C   UNL d   1     -15.502   3.240   3.186 -0.17 +0.01    +0.066 A 
DOCKED: ATOM      6  C   UNL d   1     -14.745   2.059   3.317 -0.16 -0.01    -0.021 A 
DOCKED: ATOM      7  C   UNL d   1     -13.829   2.283   4.326 -0.13 -0.01    -0.025 A 
DOCKED: ATOM      8  C   UNL d   1     -14.055   3.595   4.756 -0.11 +0.01    +0.066 A 
DOCKED: ATOM      9  C   UNL d   1     -12.775   1.309   4.875 -0.20 +0.03    +0.051 C 
DOCKED: ATOM     10  C   UNL d   1     -13.466   5.459   6.243 -0.16 +0.00    +0.066 A 
DOCKED: ATOM     11  C   UNL d   1     -12.637   6.106   7.186 -0.32 +0.00    -0.021 A 
DOCKED: ATOM     12  C   UNL d   1     -13.186   7.376   7.386 -0.31 -0.00    +0.000 A 
DOCKED: ATOM     13  C   UNL d   1     -14.297   7.415   6.544 -0.15 -0.00    +0.070 A 
DOCKED: ATOM     14  C   UNL d   1     -11.358   5.564   7.769 -0.43 -0.00    +0.052 C 
DOCKED: ATOM     15  C   UNL d   1     -16.350   8.653   5.747 -0.05 -0.00    +0.066 A 
DOCKED: ATOM     16  C   UNL d   1     -17.247   9.705   5.869 -0.02 +0.00    -0.021 A 
DOCKED: ATOM     17  C   UNL d   1     -18.269   9.443   4.945 -0.04 -0.00    +0.000 A 
DOCKED: ATOM     18  C   UNL d   1     -17.904   8.256   4.318 -0.08 +0.00    +0.070 A 
DOCKED: ATOM     19  C   UNL d   1     -17.106  10.871   6.821 -0.02 -0.01    +0.052 C 
DOCKED: ATOM     20  C   UNL d   1     -18.374   6.349   2.735 -0.18 +0.01    +0.066 A 
DOCKED: ATOM     21  C   UNL d   1     -19.203   5.752   1.787 -0.20 -0.01    -0.025 A 
DOCKED: ATOM     22  C   UNL d   1     -18.599   4.549   1.470 -0.22 -0.00    -0.021 A 
DOCKED: ATOM     23  C   UNL d   1     -17.429   4.466   2.255 -0.21 +0.01    +0.066 A 
DOCKED: ATOM     24  C   UNL d   1     -20.516   6.291   1.226 -0.19 +0.02    +0.051 C 
DOCKED: ATOM     25  N   UNL d   1     -15.082   4.213   4.064 -0.07 -0.04    -0.248 N 
DOCKED: ATOM     26  N   UNL d   1     -14.433   6.277   5.812 -0.07 -0.01    -0.248 N 
DOCKED: ATOM     27  N   UNL d   1     -16.772   7.798   4.842 -0.05 -0.00    -0.248 N 
DOCKED: ATOM     28  N   UNL d   1     -17.291   5.553   3.023 -0.10 -0.03    -0.248 N 
DOCKED: ATOM     29 FE   UNL d   1     -15.980   6.112   4.473 -0.03 +0.00    +0.000 Fe
DOCKED: ENDROOT
DOCKED: BRANCH   6  30
DOCKED: ATOM     30  C   UNL d   1     -14.957   0.754   2.557 -0.13 +0.03    +0.052 C 
DOCKED: BRANCH  30  31
DOCKED: ATOM     31  C   UNL d   1     -15.762  -0.234   3.401 -0.10 +0.08    +0.115 C 
DOCKED: BRANCH  31  32
DOCKED: ATOM     32  C   UNL d   1     -15.586  -1.665   2.940 +0.02 +0.17    +0.139 C 
DOCKED: ATOM     33  O   UNL d   1     -14.944  -1.894   1.925 -0.44 -0.97    -0.650 OA
DOCKED: BRANCH  32  34
DOCKED: ATOM     34  O   UNL d   1     -16.077  -2.711   3.643 -0.04 -0.83    -0.776 OA
DOCKED: ATOM     35  H   UNL d   1     -16.995  -3.013   3.600 +0.01 +0.10    +0.167 HD
DOCKED: ENDBRANCH  32  34
DOCKED: ENDBRANCH  31  32
DOCKED: ENDBRANCH  30  31
DOCKED: ENDBRANCH   6  30
DOCKED: BRANCH  29  36
DOCKED: ATOM     36  C   UNL d   1     -17.129   5.129   5.924 -0.03 +0.02    +0.190 C 
DOCKED: BRANCH  36  37
DOCKED: ATOM     37  O   UNL d   1     -17.417   3.865   6.450 +0.00 -0.05    -0.399 OA
DOCKED: ATOM     38  H   UNL d   1     -16.998   3.221   5.813 +0.02 +0.03    +0.209 HD
DOCKED: ENDBRANCH  36  37
DOCKED: ENDBRANCH  29  36
DOCKED: BRANCH  22  39
DOCKED: ATOM     39  C   UNL d   1     -19.156   3.511   0.513 -0.15 +0.01    +0.052 C 
DOCKED: BRANCH  39  40
DOCKED: ATOM     40  C   UNL d   1     -20.628   3.208   0.837 -0.12 +0.03    +0.115 C 
DOCKED: BRANCH  40  41
DOCKED: ATOM     41  C   UNL d   1     -21.602   3.605  -0.252 -0.12 +0.06    +0.139 C 
DOCKED: ATOM     42  O   UNL d   1     -21.514   3.081  -1.353 -0.02 -0.29    -0.650 OA
DOCKED: BRANCH  41  43
DOCKED: ATOM     43  O   UNL d   1     -22.623   4.458  -0.015 -0.01 -0.44    -0.776 OA
DOCKED: ATOM     44  H   UNL d   1     -23.359   4.238   0.569 +0.01 +0.06    +0.167 HD
DOCKED: ENDBRANCH  41  43
DOCKED: ENDBRANCH  40  41
DOCKED: ENDBRANCH  39  40
DOCKED: ENDBRANCH  22  39
DOCKED: BRANCH  12  45
DOCKED: ATOM     45  C   UNL d   1     -12.779   8.557   8.257 -0.53 -0.00    +0.004 C 
DOCKED: ATOM     46  C   UNL d   1     -12.772   9.862   7.998 -0.47 -0.00    +0.012 C 
DOCKED: ENDBRANCH  12  45
DOCKED: BRANCH  17  47
DOCKED: ATOM     47  C   UNL d   1     -19.530  10.196   4.678 -0.02 -0.00    +0.004 C 
DOCKED: ATOM     48  C   UNL d   1     -19.845  10.708   3.486 -0.04 +0.00    +0.012 C 
DOCKED: ENDBRANCH  17  47
DOCKED: TORSDOF 12
DOCKED: TER
DOCKED: ENDMDL
________________________________________________________________________________


	BEGINNING GENETIC ALGORITHM DOCKING 35 of 100
Run: 35 Seed: 381486474 1083936143 [ Run 35 of 100 GA/GALS ]
Beginning LAMARCKIAN GENETIC ALGORITHM (LGA), with a maximum of 25000000 energy evaluations.

Final-Value: -8.889


	FINAL GENETIC ALGORITHM DOCKED STATE
	_______________________________________________


Detailed state:  trans 8.919 0.098 -15.768 quatxyzw 0.503658 -0.190835 0.057645 0.840588 center 8.781 34.984 -0.736 ntor 12 -146.6183 112.1747 -145.7459 18.6710 137.0959 76.2594 -129.4676 111.2111 91.8924 146.3600 -4.5375 -180.0000
State:	  8.919   0.098 -15.768   0.930 -0.352  0.106 65.596   -146.62  112.17 -145.75   18.67  137.10   76.26 -129.47  111.21   91.89  146.36   -4.54 -180.00

DOCKED: MODEL       35
DOCKED: USER    Run = 35
DOCKED: USER    DPF = D:/Protein_go_brrr/autodock/final/mut_D99N/heme_Co/dock.dpf
DOCKED: USER  
DOCKED: USER    Estimated Free Energy of Binding    =   -3.42 kcal/mol  [=(1)+(2)+(3)-(4)]
DOCKED: USER    Estimated Inhibition Constant, Ki   =    3.10 mM (millimolar)  [Temperature = 298.15 K]
DOCKED: USER    
DOCKED: USER    (1) Final Intermolecular Energy     =   -7.00 kcal/mol
DOCKED: USER        vdW + Hbond + desolv Energy     =   -6.28 kcal/mol
DOCKED: USER        Electrostatic Energy            =   -0.72 kcal/mol
DOCKED: USER    (2) Final Total Internal Energy     =   -1.89 kcal/mol
DOCKED: USER    (3) Torsional Free Energy           =   +3.58 kcal/mol
DOCKED: USER    (4) Unbound System's Energy  [=(2)] =   -1.89 kcal/mol
DOCKED: USER    
DOCKED: USER    
DOCKED: USER    NEWDPF move heme_Co_opt.pdbqt
DOCKED: USER    NEWDPF about 8.781000 34.984000 -0.736000
DOCKED: USER    NEWDPF tran0 8.919208 0.097620 -15.768087
DOCKED: USER    NEWDPF quaternion0 0.503658 -0.190835 0.057645 0.840588
DOCKED: USER    NEWDPF axisangle0 0.929815 -0.352305 0.106420 65.595553
DOCKED: USER    NEWDPF quat0 0.929815 -0.352305 0.106420 65.595553
DOCKED: USER    NEWDPF dihe0 -146.62 112.17 -145.75 18.67 137.10 76.26 -129.47 111.21 91.89 146.36 -4.54 -180.00 
DOCKED: USER  keepresnum = 1 
DOCKED: USER  
DOCKED: REMARK  12 active torsions:
DOCKED: REMARK  status: ('A' for Active; 'I' for Inactive)
DOCKED: REMARK    1  A    between atoms: C_6  and  C_10 
DOCKED: REMARK    2  A    between atoms: C_10  and  C_11 
DOCKED: REMARK    3  A    between atoms: C_11  and  C_12 
DOCKED: REMARK    4  A    between atoms: C_12  and  O_14 
DOCKED: REMARK    5  A    between atoms: C_17  and  C_20 
DOCKED: REMARK    6  A    between atoms: C_24  and  C_27 
DOCKED: REMARK    7  A    between atoms: C_31  and  C_34 
DOCKED: REMARK    8  A    between atoms: C_34  and  C_35 
DOCKED: REMARK    9  A    between atoms: C_35  and  C_36 
DOCKED: REMARK   10  A    between atoms: C_36  and  O_38 
DOCKED: REMARK   11  A    between atoms: FE_43  and  C_44 
DOCKED: REMARK   12  A    between atoms: C_44  and  O_45 
DOCKED: USER                              x       y       z     vdW  Elec       q    Type
DOCKED: USER                           _______ _______ _______ _____ _____    ______ ____
DOCKED: ROOT
DOCKED: ATOM      1  C   UNL d   1       6.768   0.199 -16.050 -0.18 +0.02    +0.064 A 
DOCKED: ATOM      2  C   UNL d   1       9.596   1.622 -12.502 -0.30 +0.01    +0.064 C 
DOCKED: ATOM      3  C   UNL d   1      13.376  -0.321 -14.684 -0.09 +0.01    +0.064 A 
DOCKED: ATOM      4  C   UNL d   1      10.577  -1.447 -18.501 -0.09 +0.03    +0.064 A 
DOCKED: ATOM      5  C   UNL d   1       7.257   0.699 -14.903 -0.15 +0.02    +0.066 A 
DOCKED: ATOM      6  C   UNL d   1       6.454   1.425 -14.002 -0.25 -0.00    -0.021 A 
DOCKED: ATOM      7  C   UNL d   1       7.284   1.855 -12.986 -0.27 -0.00    -0.025 A 
DOCKED: ATOM      8  C   UNL d   1       8.554   1.359 -13.301 -0.20 +0.01    +0.066 A 
DOCKED: ATOM      9  C   UNL d   1       6.912   2.701 -11.759 -0.25 +0.01    +0.051 C 
DOCKED: ATOM     10  C   UNL d   1      10.933   1.133 -12.731 -0.22 +0.01    +0.066 A 
DOCKED: ATOM     11  C   UNL d   1      12.037   1.255 -11.860 -0.22 -0.00    -0.021 A 
DOCKED: ATOM     12  C   UNL d   1      13.125   0.677 -12.519 -0.16 +0.00    +0.000 A 
DOCKED: ATOM     13  C   UNL d   1      12.603   0.234 -13.735 -0.14 +0.02    +0.070 A 
DOCKED: ATOM     14  C   UNL d   1      12.009   1.805 -10.457 -0.23 +0.01    +0.052 C 
DOCKED: ATOM     15  C   UNL d   1      13.015  -0.784 -16.010 -0.07 +0.02    +0.066 A 
DOCKED: ATOM     16  C   UNL d   1      13.890  -1.216 -16.997 -0.04 -0.01    -0.021 A 
DOCKED: ATOM     17  C   UNL d   1      13.087  -1.539 -18.101 -0.05 +0.00    +0.000 A 
DOCKED: ATOM     18  C   UNL d   1      11.780  -1.295 -17.692 -0.07 +0.04    +0.070 A 
DOCKED: ATOM     19  C   UNL d   1      15.394  -1.299 -16.862 -0.01 +0.01    +0.052 C 
DOCKED: ATOM     20  C   UNL d   1       9.306  -1.134 -18.154 -0.13 +0.03    +0.066 A 
DOCKED: ATOM     21  C   UNL d   1       8.236  -1.292 -19.032 -0.16 -0.01    -0.025 A 
DOCKED: ATOM     22  C   UNL d   1       7.120  -0.853 -18.342 -0.18 -0.01    -0.021 A 
DOCKED: ATOM     23  C   UNL d   1       7.571  -0.434 -17.072 -0.19 +0.02    +0.066 A 
DOCKED: ATOM     24  C   UNL d   1       8.276  -1.816 -20.464 -0.15 +0.01    +0.051 C 
DOCKED: ATOM     25  N   UNL d   1       8.566   0.634 -14.481 -0.00 -0.08    -0.248 N 
DOCKED: ATOM     26  N   UNL d   1      11.266   0.461 -13.838 -0.10 -0.07    -0.248 N 
DOCKED: ATOM     27  N   UNL d   1      11.778  -0.818 -16.452 -0.01 -0.15    -0.248 N 
DOCKED: ATOM     28  N   UNL d   1       8.893  -0.601 -16.955 -0.09 -0.12    -0.248 N 
DOCKED: ATOM     29 FE   UNL d   1      10.265  -0.136 -15.527 -0.04 +0.00    +0.000 Fe
DOCKED: ENDROOT
DOCKED: BRANCH   6  30
DOCKED: ATOM     30  C   UNL d   1       4.974   1.754 -14.165 -0.26 +0.01    +0.052 C 
DOCKED: BRANCH  30  31
DOCKED: ATOM     31  C   UNL d   1       4.111   0.552 -13.781 -0.37 +0.02    +0.115 C 
DOCKED: BRANCH  31  32
DOCKED: ATOM     32  C   UNL d   1       3.830  -0.357 -14.959 -0.41 +0.04    +0.139 C 
DOCKED: ATOM     33  O   UNL d   1       4.472  -1.388 -15.089 -0.31 -0.26    -0.650 OA
DOCKED: BRANCH  32  34
DOCKED: ATOM     34  O   UNL d   1       2.851  -0.088 -15.854 +0.06 -0.27    -0.776 OA
DOCKED: ATOM     35  H   UNL d   1       2.367  -0.763 -16.349 -0.45 +0.03    +0.167 HD
DOCKED: ENDBRANCH  32  34
DOCKED: ENDBRANCH  31  32
DOCKED: ENDBRANCH  30  31
DOCKED: ENDBRANCH   6  30
DOCKED: BRANCH  29  36
DOCKED: ATOM     36  C   UNL d   1      10.494   1.783 -16.339 -0.04 +0.04    +0.190 C 
DOCKED: BRANCH  36  37
DOCKED: ATOM     37  O   UNL d   1       9.993   2.645 -17.320 -0.00 -0.06    -0.399 OA
DOCKED: ATOM     38  H   UNL d   1       9.284   2.119 -17.785 +0.01 +0.03    +0.209 HD
DOCKED: ENDBRANCH  36  37
DOCKED: ENDBRANCH  29  36
DOCKED: BRANCH  22  39
DOCKED: ATOM     39  C   UNL d   1       5.712  -0.780 -18.902 -0.20 +0.01    +0.052 C 
DOCKED: BRANCH  39  40
DOCKED: ATOM     40  C   UNL d   1       5.547   0.458 -19.799 -0.06 +0.02    +0.115 C 
DOCKED: BRANCH  40  41
DOCKED: ATOM     41  C   UNL d   1       6.246   1.699 -19.284 -0.01 +0.02    +0.139 C 
DOCKED: ATOM     42  O   UNL d   1       5.576   2.638 -18.877 +0.02 -0.10    -0.650 OA
DOCKED: BRANCH  41  43
DOCKED: ATOM     43  O   UNL d   1       7.592   1.766 -19.181 +0.03 -0.11    -0.776 OA
DOCKED: ATOM     44  H   UNL d   1       8.036   2.179 -18.429 +0.01 +0.02    +0.167 HD
DOCKED: ENDBRANCH  41  43
DOCKED: ENDBRANCH  40  41
DOCKED: ENDBRANCH  39  40
DOCKED: ENDBRANCH  22  39
DOCKED: BRANCH  12  45
DOCKED: ATOM     45  C   UNL d   1      14.584   0.475 -12.135 -0.09 +0.00    +0.004 C 
DOCKED: ATOM     46  C   UNL d   1      15.204   0.642 -10.970 -0.14 +0.00    +0.012 C 
DOCKED: ENDBRANCH  12  45
DOCKED: BRANCH  17  47
DOCKED: ATOM     47  C   UNL d   1      13.483  -1.996 -19.467 -0.01 +0.00    +0.004 C 
DOCKED: ATOM     48  C   UNL d   1      13.175  -3.197 -19.961 -0.02 +0.00    +0.012 C 
DOCKED: ENDBRANCH  17  47
DOCKED: TORSDOF 12
DOCKED: TER
DOCKED: ENDMDL
________________________________________________________________________________


	BEGINNING GENETIC ALGORITHM DOCKING 36 of 100
Run: 36 Seed: 1710668585 1357092896 [ Run 36 of 100 GA/GALS ]
Beginning LAMARCKIAN GENETIC ALGORITHM (LGA), with a maximum of 25000000 energy evaluations.

Final-Value: -10.672


	FINAL GENETIC ALGORITHM DOCKED STATE
	_______________________________________________


Detailed state:  trans -18.438 9.879 1.689 quatxyzw 0.147762 -0.112540 0.372045 -0.909441 center 8.781 34.984 -0.736 ntor 12 -170.5123 104.0254 -95.9214 -95.6847 138.6016 132.5746 -152.1406 69.2425 -58.7086 -44.2334 -146.4986 -8.4867
State:	-18.438   9.879   1.689   0.355 -0.271  0.895 -49.143   -170.51  104.03  -95.92  -95.68  138.60  132.57 -152.14   69.24  -58.71  -44.23 -146.50   -8.49

DOCKED: MODEL       36
DOCKED: USER    Run = 36
DOCKED: USER    DPF = D:/Protein_go_brrr/autodock/final/mut_D99N/heme_Co/dock.dpf
DOCKED: USER  
DOCKED: USER    Estimated Free Energy of Binding    =   -5.01 kcal/mol  [=(1)+(2)+(3)-(4)]
DOCKED: USER    Estimated Inhibition Constant, Ki   =  213.71 uM (micromolar)  [Temperature = 298.15 K]
DOCKED: USER    
DOCKED: USER    (1) Final Intermolecular Energy     =   -8.59 kcal/mol
DOCKED: USER        vdW + Hbond + desolv Energy     =   -6.24 kcal/mol
DOCKED: USER        Electrostatic Energy            =   -2.34 kcal/mol
DOCKED: USER    (2) Final Total Internal Energy     =   -2.09 kcal/mol
DOCKED: USER    (3) Torsional Free Energy           =   +3.58 kcal/mol
DOCKED: USER    (4) Unbound System's Energy  [=(2)] =   -2.09 kcal/mol
DOCKED: USER    
DOCKED: USER    
DOCKED: USER    NEWDPF move heme_Co_opt.pdbqt
DOCKED: USER    NEWDPF about 8.781000 34.984000 -0.736000
DOCKED: USER    NEWDPF tran0 -18.438004 9.878706 1.688819
DOCKED: USER    NEWDPF quaternion0 0.147762 -0.112540 0.372045 -0.909441
DOCKED: USER    NEWDPF axisangle0 0.355341 -0.270639 0.894699 -49.143481
DOCKED: USER    NEWDPF quat0 0.355341 -0.270639 0.894699 -49.143481
DOCKED: USER    NEWDPF dihe0 -170.51 104.03 -95.92 -95.68 138.60 132.57 -152.14 69.24 -58.71 -44.23 -146.50 -8.49 
DOCKED: USER  keepresnum = 1 
DOCKED: USER  
DOCKED: REMARK  12 active torsions:
DOCKED: REMARK  status: ('A' for Active; 'I' for Inactive)
DOCKED: REMARK    1  A    between atoms: C_6  and  C_10 
DOCKED: REMARK    2  A    between atoms: C_10  and  C_11 
DOCKED: REMARK    3  A    between atoms: C_11  and  C_12 
DOCKED: REMARK    4  A    between atoms: C_12  and  O_14 
DOCKED: REMARK    5  A    between atoms: C_17  and  C_20 
DOCKED: REMARK    6  A    between atoms: C_24  and  C_27 
DOCKED: REMARK    7  A    between atoms: C_31  and  C_34 
DOCKED: REMARK    8  A    between atoms: C_34  and  C_35 
DOCKED: REMARK    9  A    between atoms: C_35  and  C_36 
DOCKED: REMARK   10  A    between atoms: C_36  and  O_38 
DOCKED: REMARK   11  A    between atoms: FE_43  and  C_44 
DOCKED: REMARK   12  A    between atoms: C_44  and  O_45 
DOCKED: USER                              x       y       z     vdW  Elec       q    Type
DOCKED: USER                           _______ _______ _______ _____ _____    ______ ____
DOCKED: ROOT
DOCKED: ATOM      1  C   UNL d   1     -20.062   9.272   0.381 -0.19 +0.02    +0.064 A 
DOCKED: ATOM      2  C   UNL d   1     -17.649   6.958   3.762 -0.14 +0.00    +0.064 C 
DOCKED: ATOM      3  C   UNL d   1     -14.745  10.713   4.312 -0.14 -0.01    +0.064 A 
DOCKED: ATOM      4  C   UNL d   1     -17.430  13.238   1.137 -0.13 -0.01    +0.064 A 
DOCKED: ATOM      5  C   UNL d   1     -19.594   8.351   1.239 -0.21 +0.01    +0.066 A 
DOCKED: ATOM      6  C   UNL d   1     -20.234   7.111   1.427 -0.18 -0.01    -0.021 A 
DOCKED: ATOM      7  C   UNL d   1     -19.543   6.453   2.425 -0.15 -0.00    -0.025 A 
DOCKED: ATOM      8  C   UNL d   1     -18.502   7.312   2.792 -0.17 +0.00    +0.066 A 
DOCKED: ATOM      9  C   UNL d   1     -19.840   5.069   3.022 -0.09 +0.01    +0.051 C 
DOCKED: ATOM     10  C   UNL d   1     -16.532   7.765   4.189 -0.08 -0.00    +0.066 A 
DOCKED: ATOM     11  C   UNL d   1     -15.521   7.391   5.101 -0.08 +0.00    -0.021 A 
DOCKED: ATOM     12  C   UNL d   1     -14.686   8.503   5.239 -0.15 -0.00    +0.000 A 
DOCKED: ATOM     13  C   UNL d   1     -15.240   9.465   4.395 -0.14 -0.01    +0.070 A 
DOCKED: ATOM     14  C   UNL d   1     -15.331   6.026   5.712 -0.10 +0.00    +0.052 C 
DOCKED: ATOM     15  C   UNL d   1     -15.221  11.841   3.536 -0.12 -0.01    +0.066 A 
DOCKED: ATOM     16  C   UNL d   1     -14.751  13.145   3.606 -0.10 +0.00    -0.021 A 
DOCKED: ATOM     17  C   UNL d   1     -15.524  13.877   2.694 -0.08 -0.00    +0.000 A 
DOCKED: ATOM     18  C   UNL d   1     -16.396  12.956   2.125 -0.13 -0.01    +0.070 A 
DOCKED: ATOM     19  C   UNL d   1     -13.631  13.626   4.501 -0.16 -0.02    +0.052 C 
DOCKED: ATOM     20  C   UNL d   1     -18.347  12.376   0.634 -0.17 -0.01    +0.066 A 
DOCKED: ATOM     21  C   UNL d   1     -19.315  12.774  -0.285 -0.11 -0.00    -0.025 A 
DOCKED: ATOM     22  C   UNL d   1     -20.070  11.645  -0.543 -0.19 -0.00    -0.021 A 
DOCKED: ATOM     23  C   UNL d   1     -19.528  10.609   0.246 -0.18 +0.00    +0.066 A 
DOCKED: ATOM     24  C   UNL d   1     -19.524  14.167  -0.873 -0.10 +0.00    +0.051 C 
DOCKED: ATOM     25  N   UNL d   1     -18.505   8.493   2.069 -0.15 +0.00    -0.248 N 
DOCKED: ATOM     26  N   UNL d   1     -16.323   8.999   3.718 -0.11 +0.02    -0.248 N 
DOCKED: ATOM     27  N   UNL d   1     -16.208  11.760   2.672 -0.10 +0.04    -0.248 N 
DOCKED: ATOM     28  N   UNL d   1     -18.486  11.048   0.962 -0.02 +0.04    -0.248 N 
DOCKED: ATOM     29 FE   UNL d   1     -17.290  10.225   2.386 -0.04 -0.00    +0.000 Fe
DOCKED: ENDROOT
DOCKED: BRANCH   6  30
DOCKED: ATOM     30  C   UNL d   1     -21.502   6.627   0.730 -0.05 +0.03    +0.052 C 
DOCKED: BRANCH  30  31
DOCKED: ATOM     31  C   UNL d   1     -22.683   7.534   1.072 -0.10 +0.06    +0.115 C 
DOCKED: BRANCH  31  32
DOCKED: ATOM     32  C   UNL d   1     -23.279   8.193  -0.153 -0.01 +0.15    +0.139 C 
DOCKED: ATOM     33  O   UNL d   1     -24.021   7.550  -0.880 -0.44 -1.04    -0.650 OA
DOCKED: BRANCH  32  34
DOCKED: ATOM     34  O   UNL d   1     -23.054   9.495  -0.449 -0.11 -0.58    -0.776 OA
DOCKED: ATOM     35  H   UNL d   1     -23.476   9.967  -1.180 +0.02 +0.12    +0.167 HD
DOCKED: ENDBRANCH  32  34
DOCKED: ENDBRANCH  31  32
DOCKED: ENDBRANCH  30  31
DOCKED: ENDBRANCH   6  30
DOCKED: BRANCH  29  36
DOCKED: ATOM     36  C   UNL d   1     -18.655  10.770   3.881 -0.04 -0.01    +0.190 C 
DOCKED: BRANCH  36  37
DOCKED: ATOM     37  O   UNL d   1     -19.970  10.575   4.314 -0.00 -0.00    -0.399 OA
DOCKED: ATOM     38  H   UNL d   1     -20.412  10.073   3.573 +0.02 +0.01    +0.209 HD
DOCKED: ENDBRANCH  36  37
DOCKED: ENDBRANCH  29  36
DOCKED: BRANCH  22  39
DOCKED: ATOM     39  C   UNL d   1     -21.285  11.588  -1.450 -0.14 +0.01    +0.052 C 
DOCKED: BRANCH  39  40
DOCKED: ATOM     40  C   UNL d   1     -20.880  11.180  -2.876 -0.20 +0.02    +0.115 C 
DOCKED: BRANCH  40  41
DOCKED: ATOM     41  C   UNL d   1     -21.704  10.053  -3.462 +0.03 +0.12    +0.139 C 
DOCKED: ATOM     42  O   UNL d   1     -21.206   9.325  -4.309 -0.50 -0.65    -0.650 OA
DOCKED: BRANCH  41  43
DOCKED: ATOM     43  O   UNL d   1     -22.948   9.775  -3.013 -0.21 -1.01    -0.776 OA
DOCKED: ATOM     44  H   UNL d   1     -23.113   9.159  -2.287 +0.01 +0.33    +0.167 HD
DOCKED: ENDBRANCH  41  43
DOCKED: ENDBRANCH  40  41
DOCKED: ENDBRANCH  39  40
DOCKED: ENDBRANCH  22  39
DOCKED: BRANCH  12  45
DOCKED: ATOM     45  C   UNL d   1     -13.425   8.759   6.053 -0.28 -0.00    +0.004 C 
DOCKED: ATOM     46  C   UNL d   1     -13.243   9.453   7.174 -0.39 -0.00    +0.012 C 
DOCKED: ENDBRANCH  12  45
DOCKED: BRANCH  17  47
DOCKED: ATOM     47  C   UNL d   1     -15.509  15.340   2.390 -0.06 -0.00    +0.004 C 
DOCKED: ATOM     48  C   UNL d   1     -15.188  15.841   1.194 -0.09 -0.00    +0.012 C 
DOCKED: ENDBRANCH  17  47
DOCKED: TORSDOF 12
DOCKED: TER
DOCKED: ENDMDL
________________________________________________________________________________


	BEGINNING GENETIC ALGORITHM DOCKING 37 of 100
Run: 37 Seed: 796836275 1259934563 [ Run 37 of 100 GA/GALS ]
Beginning LAMARCKIAN GENETIC ALGORITHM (LGA), with a maximum of 25000000 energy evaluations.

Final-Value: -9.148


	FINAL GENETIC ALGORITHM DOCKED STATE
	_______________________________________________


Detailed state:  trans 4.141 2.666 -16.607 quatxyzw 0.252340 -0.213301 0.738010 -0.588361 center 8.781 34.984 -0.736 ntor 12 -60.8064 119.5855 -71.6247 -131.3669 138.0281 88.1510 174.4377 -39.0011 -105.4926 -123.3435 4.3025 132.9832
State:	  4.141   2.666 -16.607   0.312 -0.264  0.913 -107.918    -60.81  119.59  -71.62 -131.37  138.03   88.15  174.44  -39.00 -105.49 -123.34    4.30  132.98

DOCKED: MODEL       37
DOCKED: USER    Run = 37
DOCKED: USER    DPF = D:/Protein_go_brrr/autodock/final/mut_D99N/heme_Co/dock.dpf
DOCKED: USER  
DOCKED: USER    Estimated Free Energy of Binding    =   -3.93 kcal/mol  [=(1)+(2)+(3)-(4)]
DOCKED: USER    Estimated Inhibition Constant, Ki   =    1.31 mM (millimolar)  [Temperature = 298.15 K]
DOCKED: USER    
DOCKED: USER    (1) Final Intermolecular Energy     =   -7.51 kcal/mol
DOCKED: USER        vdW + Hbond + desolv Energy     =   -5.58 kcal/mol
DOCKED: USER        Electrostatic Energy            =   -1.93 kcal/mol
DOCKED: USER    (2) Final Total Internal Energy     =   -1.64 kcal/mol
DOCKED: USER    (3) Torsional Free Energy           =   +3.58 kcal/mol
DOCKED: USER    (4) Unbound System's Energy  [=(2)] =   -1.64 kcal/mol
DOCKED: USER    
DOCKED: USER    
DOCKED: USER    NEWDPF move heme_Co_opt.pdbqt
DOCKED: USER    NEWDPF about 8.781000 34.984000 -0.736000
DOCKED: USER    NEWDPF tran0 4.140903 2.666137 -16.606550
DOCKED: USER    NEWDPF quaternion0 0.252340 -0.213301 0.738010 -0.588361
DOCKED: USER    NEWDPF axisangle0 0.312071 -0.263791 0.912703 -107.918435
DOCKED: USER    NEWDPF quat0 0.312071 -0.263791 0.912703 -107.918435
DOCKED: USER    NEWDPF dihe0 -60.81 119.59 -71.62 -131.37 138.03 88.15 174.44 -39.00 -105.49 -123.34 4.30 132.98 
DOCKED: USER  keepresnum = 1 
DOCKED: USER  
DOCKED: REMARK  12 active torsions:
DOCKED: REMARK  status: ('A' for Active; 'I' for Inactive)
DOCKED: REMARK    1  A    between atoms: C_6  and  C_10 
DOCKED: REMARK    2  A    between atoms: C_10  and  C_11 
DOCKED: REMARK    3  A    between atoms: C_11  and  C_12 
DOCKED: REMARK    4  A    between atoms: C_12  and  O_14 
DOCKED: REMARK    5  A    between atoms: C_17  and  C_20 
DOCKED: REMARK    6  A    between atoms: C_24  and  C_27 
DOCKED: REMARK    7  A    between atoms: C_31  and  C_34 
DOCKED: REMARK    8  A    between atoms: C_34  and  C_35 
DOCKED: REMARK    9  A    between atoms: C_35  and  C_36 
DOCKED: REMARK   10  A    between atoms: C_36  and  O_38 
DOCKED: REMARK   11  A    between atoms: FE_43  and  C_44 
DOCKED: REMARK   12  A    between atoms: C_44  and  O_45 
DOCKED: USER                              x       y       z     vdW  Elec       q    Type
DOCKED: USER                           _______ _______ _______ _____ _____    ______ ____
DOCKED: ROOT
DOCKED: ATOM      1  C   UNL d   1       3.899   1.606 -18.486 -0.04 +0.02    +0.064 A 
DOCKED: ATOM      2  C   UNL d   1       6.723   0.855 -14.734 -0.22 +0.02    +0.064 C 
DOCKED: ATOM      3  C   UNL d   1       5.181   4.903 -12.717 -0.07 +0.01    +0.064 A 
DOCKED: ATOM      4  C   UNL d   1       2.008   5.493 -16.357 -0.07 +0.01    +0.064 A 
DOCKED: ATOM      5  C   UNL d   1       4.811   1.122 -17.626 -0.07 +0.02    +0.066 A 
DOCKED: ATOM      6  C   UNL d   1       5.451  -0.115 -17.833 -0.17 -0.01    -0.021 A 
DOCKED: ATOM      7  C   UNL d   1       6.252  -0.339 -16.730 -0.23 -0.01    -0.025 A 
DOCKED: ATOM      8  C   UNL d   1       6.079   0.778 -15.906 -0.14 +0.02    +0.066 A 
DOCKED: ATOM      9  C   UNL d   1       7.150  -1.553 -16.449 -0.28 +0.02    +0.051 C 
DOCKED: ATOM     10  C   UNL d   1       6.627   1.976 -13.833 -0.20 +0.01    +0.066 A 
DOCKED: ATOM     11  C   UNL d   1       7.383   2.181 -12.658 -0.29 -0.00    -0.021 A 
DOCKED: ATOM     12  C   UNL d   1       6.916   3.370 -12.092 -0.21 +0.00    +0.000 A 
DOCKED: ATOM     13  C   UNL d   1       5.922   3.809 -12.967 -0.04 +0.01    +0.070 A 
DOCKED: ATOM     14  C   UNL d   1       8.534   1.334 -12.179 -0.35 +0.01    +0.052 C 
DOCKED: ATOM     15  C   UNL d   1       4.086   5.467 -13.481 -0.11 +0.01    +0.066 A 
DOCKED: ATOM     16  C   UNL d   1       3.267   6.517 -13.093 -0.12 -0.00    -0.021 A 
DOCKED: ATOM     17  C   UNL d   1       2.348   6.690 -14.138 -0.06 +0.00    +0.000 A 
DOCKED: ATOM     18  C   UNL d   1       2.692   5.738 -15.093 -0.05 +0.01    +0.070 A 
DOCKED: ATOM     19  C   UNL d   1       3.382   7.286 -11.796 -0.14 +0.01    +0.052 C 
DOCKED: ATOM     20  C   UNL d   1       2.270   4.518 -17.260 -0.04 +0.02    +0.066 A 
DOCKED: ATOM     21  C   UNL d   1       1.518   4.361 -18.423 -0.01 -0.01    -0.025 A 
DOCKED: ATOM     22  C   UNL d   1       2.059   3.266 -19.071 -0.01 -0.01    -0.021 A 
DOCKED: ATOM     23  C   UNL d   1       3.114   2.798 -18.259 -0.01 +0.02    +0.066 A 
DOCKED: ATOM     24  C   UNL d   1       0.330   5.201 -18.885 -0.01 +0.01    +0.051 C 
DOCKED: ATOM     25  N   UNL d   1       5.196   1.702 -16.439 -0.02 -0.05    -0.248 N 
DOCKED: ATOM     26  N   UNL d   1       5.787   2.994 -14.048 -0.06 -0.04    -0.248 N 
DOCKED: ATOM     27  N   UNL d   1       3.711   5.008 -14.655 -0.06 -0.05    -0.248 N 
DOCKED: ATOM     28  N   UNL d   1       3.243   3.552 -17.161 -0.01 -0.06    -0.248 N 
DOCKED: ATOM     29 FE   UNL d   1       4.408   3.454 -15.497 -0.02 +0.00    +0.000 Fe
DOCKED: ENDROOT
DOCKED: BRANCH   6  30
DOCKED: ATOM     30  C   UNL d   1       5.231  -1.069 -19.003 -0.09 +0.02    +0.052 C 
DOCKED: BRANCH  30  31
DOCKED: ATOM     31  C   UNL d   1       6.168  -0.724 -20.160 -0.11 +0.02    +0.115 C 
DOCKED: BRANCH  31  32
DOCKED: ATOM     32  C   UNL d   1       7.605  -1.106 -19.873 -0.12 +0.03    +0.139 C 
DOCKED: ATOM     33  O   UNL d   1       7.849  -2.198 -19.382 -0.05 -0.17    -0.650 OA
DOCKED: BRANCH  32  34
DOCKED: ATOM     34  O   UNL d   1       8.640  -0.293 -20.188 +0.05 -0.12    -0.776 OA
DOCKED: ATOM     35  H   UNL d   1       8.886  -0.052 -21.092 +0.02 +0.02    +0.167 HD
DOCKED: ENDBRANCH  32  34
DOCKED: ENDBRANCH  31  32
DOCKED: ENDBRANCH  30  31
DOCKED: ENDBRANCH   6  30
DOCKED: BRANCH  29  36
DOCKED: ATOM     36  C   UNL d   1       3.015   2.191 -14.569 -0.19 +0.06    +0.190 C 
DOCKED: BRANCH  36  37
DOCKED: ATOM     37  O   UNL d   1       1.923   1.356 -14.826 -0.32 -0.20    -0.399 OA
DOCKED: ATOM     38  H   UNL d   1       1.856   1.321 -15.821 +0.08 +0.11    +0.209 HD
DOCKED: ENDBRANCH  36  37
DOCKED: ENDBRANCH  29  36
DOCKED: BRANCH  22  39
DOCKED: ATOM     39  C   UNL d   1       1.544   2.667 -20.366 -0.01 +0.02    +0.052 C 
DOCKED: BRANCH  39  40
DOCKED: ATOM     40  C   UNL d   1       1.255   1.167 -20.194 -0.07 +0.06    +0.115 C 
DOCKED: BRANCH  40  41
DOCKED: ATOM     41  C   UNL d   1       0.384   0.832 -19.001 +0.02 +0.15    +0.139 C 
DOCKED: ATOM     42  O   UNL d   1      -0.810   0.632 -19.169 -0.48 -1.22    -0.650 OA
DOCKED: BRANCH  41  43
DOCKED: ATOM     43  O   UNL d   1       0.907   0.661 -17.766 -0.06 -0.78    -0.776 OA
DOCKED: ATOM     44  H   UNL d   1       1.509  -0.064 -17.553 -0.47 +0.09    +0.167 HD
DOCKED: ENDBRANCH  41  43
DOCKED: ENDBRANCH  40  41
DOCKED: ENDBRANCH  39  40
DOCKED: ENDBRANCH  22  39
DOCKED: BRANCH  12  45
DOCKED: ATOM     45  C   UNL d   1       7.305   4.149 -10.842 -0.27 +0.00    +0.004 C 
DOCKED: ATOM     46  C   UNL d   1       6.552   4.786  -9.950 -0.26 +0.00    +0.012 C 
DOCKED: ENDBRANCH  12  45
DOCKED: BRANCH  17  47
DOCKED: ATOM     47  C   UNL d   1       1.192   7.629 -14.247 -0.11 +0.00    +0.004 C 
DOCKED: ATOM     48  C   UNL d   1       1.112   8.596 -15.164 -0.04 +0.00    +0.012 C 
DOCKED: ENDBRANCH  17  47
DOCKED: TORSDOF 12
DOCKED: TER
DOCKED: ENDMDL
________________________________________________________________________________


	BEGINNING GENETIC ALGORITHM DOCKING 38 of 100
Run: 38 Seed: 2020543915 1338291254 [ Run 38 of 100 GA/GALS ]
Beginning LAMARCKIAN GENETIC ALGORITHM (LGA), with a maximum of 25000000 energy evaluations.

Final-Value: -9.960


	FINAL GENETIC ALGORITHM DOCKED STATE
	_______________________________________________


Detailed state:  trans -14.483 5.251 7.841 quatxyzw -0.895509 -0.013665 0.398457 -0.197758 center 8.781 34.984 -0.736 ntor 12 -57.9319 109.9233 -32.7223 137.2644 4.8398 131.5297 -5.1158 113.9121 -72.9748 -97.3445 -155.5472 -14.5474
State:	-14.483   5.251   7.841  -0.914 -0.014  0.406 -157.188    -57.93  109.92  -32.72  137.26    4.84  131.53   -5.12  113.91  -72.97  -97.34 -155.55  -14.55

DOCKED: MODEL       38
DOCKED: USER    Run = 38
DOCKED: USER    DPF = D:/Protein_go_brrr/autodock/final/mut_D99N/heme_Co/dock.dpf
DOCKED: USER  
DOCKED: USER    Estimated Free Energy of Binding    =   -4.38 kcal/mol  [=(1)+(2)+(3)-(4)]
DOCKED: USER    Estimated Inhibition Constant, Ki   =  620.58 uM (micromolar)  [Temperature = 298.15 K]
DOCKED: USER    
DOCKED: USER    (1) Final Intermolecular Energy     =   -7.95 kcal/mol
DOCKED: USER        vdW + Hbond + desolv Energy     =   -6.85 kcal/mol
DOCKED: USER        Electrostatic Energy            =   -1.10 kcal/mol
DOCKED: USER    (2) Final Total Internal Energy     =   -2.01 kcal/mol
DOCKED: USER    (3) Torsional Free Energy           =   +3.58 kcal/mol
DOCKED: USER    (4) Unbound System's Energy  [=(2)] =   -2.01 kcal/mol
DOCKED: USER    
DOCKED: USER    
DOCKED: USER    NEWDPF move heme_Co_opt.pdbqt
DOCKED: USER    NEWDPF about 8.781000 34.984000 -0.736000
DOCKED: USER    NEWDPF tran0 -14.482514 5.251273 7.840623
DOCKED: USER    NEWDPF quaternion0 -0.895509 -0.013665 0.398457 -0.197758
DOCKED: USER    NEWDPF axisangle0 -0.913551 -0.013941 0.406485 -157.188245
DOCKED: USER    NEWDPF quat0 -0.913551 -0.013941 0.406485 -157.188245
DOCKED: USER    NEWDPF dihe0 -57.93 109.92 -32.72 137.26 4.84 131.53 -5.12 113.91 -72.97 -97.34 -155.55 -14.55 
DOCKED: USER  keepresnum = 1 
DOCKED: USER  
DOCKED: REMARK  12 active torsions:
DOCKED: REMARK  status: ('A' for Active; 'I' for Inactive)
DOCKED: REMARK    1  A    between atoms: C_6  and  C_10 
DOCKED: REMARK    2  A    between atoms: C_10  and  C_11 
DOCKED: REMARK    3  A    between atoms: C_11  and  C_12 
DOCKED: REMARK    4  A    between atoms: C_12  and  O_14 
DOCKED: REMARK    5  A    between atoms: C_17  and  C_20 
DOCKED: REMARK    6  A    between atoms: C_24  and  C_27 
DOCKED: REMARK    7  A    between atoms: C_31  and  C_34 
DOCKED: REMARK    8  A    between atoms: C_34  and  C_35 
DOCKED: REMARK    9  A    between atoms: C_35  and  C_36 
DOCKED: REMARK   10  A    between atoms: C_36  and  O_38 
DOCKED: REMARK   11  A    between atoms: FE_43  and  C_44 
DOCKED: REMARK   12  A    between atoms: C_44  and  O_45 
DOCKED: USER                              x       y       z     vdW  Elec       q    Type
DOCKED: USER                           _______ _______ _______ _____ _____    ______ ____
DOCKED: ROOT
DOCKED: ATOM      1  C   UNL d   1     -15.258   4.147   9.543 +0.02 +0.02    +0.064 A 
DOCKED: ATOM      2  C   UNL d   1     -16.730   8.110   7.365 -0.04 +0.00    +0.064 C 
DOCKED: ATOM      3  C   UNL d   1     -12.880   8.032   4.538 -0.20 -0.01    +0.064 A 
DOCKED: ATOM      4  C   UNL d   1     -11.553   3.776   6.483 -0.31 +0.01    +0.064 A 
DOCKED: ATOM      5  C   UNL d   1     -15.924   5.256   9.180 -0.03 +0.02    +0.066 A 
DOCKED: ATOM      6  C   UNL d   1     -17.170   5.596   9.742 -0.05 -0.00    -0.021 A 
DOCKED: ATOM      7  C   UNL d   1     -17.604   6.734   9.090 -0.03 -0.00    -0.025 A 
DOCKED: ATOM      8  C   UNL d   1     -16.597   7.048   8.171 -0.05 +0.01    +0.066 A 
DOCKED: ATOM      9  C   UNL d   1     -18.913   7.507   9.313 -0.01 +0.00    +0.051 C 
DOCKED: ATOM     10  C   UNL d   1     -15.737   8.526   6.407 -0.06 -0.00    +0.066 A 
DOCKED: ATOM     11  C   UNL d   1     -15.753   9.706   5.633 -0.07 +0.00    -0.021 A 
DOCKED: ATOM     12  C   UNL d   1     -14.617   9.660   4.821 -0.17 -0.00    +0.000 A 
DOCKED: ATOM     13  C   UNL d   1     -13.986   8.465   5.167 -0.18 -0.01    +0.070 A 
DOCKED: ATOM     14  C   UNL d   1     -16.746  10.835   5.748 -0.04 -0.01    +0.052 C 
DOCKED: ATOM     15  C   UNL d   1     -12.132   6.805   4.730 -0.13 -0.01    +0.066 A 
DOCKED: ATOM     16  C   UNL d   1     -11.081   6.350   3.947 -0.38 +0.00    -0.021 A 
DOCKED: ATOM     17  C   UNL d   1     -10.696   5.122   4.503 -0.43 +0.00    +0.000 A 
DOCKED: ATOM     18  C   UNL d   1     -11.536   4.932   5.595 -0.31 +0.00    +0.070 A 
DOCKED: ATOM     19  C   UNL d   1     -10.505   7.070   2.748 -0.51 +0.00    +0.052 C 
DOCKED: ATOM     20  C   UNL d   1     -12.415   3.529   7.498 -0.22 +0.01    +0.066 A 
DOCKED: ATOM     21  C   UNL d   1     -12.354   2.363   8.259 -0.18 -0.01    -0.025 A 
DOCKED: ATOM     22  C   UNL d   1     -13.392   2.456   9.168 -0.17 -0.01    -0.021 A 
DOCKED: ATOM     23  C   UNL d   1     -14.048   3.678   8.907 -0.06 +0.02    +0.066 A 
DOCKED: ATOM     24  C   UNL d   1     -11.367   1.208   8.115 -0.25 +0.02    +0.051 C 
DOCKED: ATOM     25  N   UNL d   1     -15.542   6.153   8.208 -0.06 -0.04    -0.248 N 
DOCKED: ATOM     26  N   UNL d   1     -14.635   7.808   6.166 -0.06 +0.01    -0.248 N 
DOCKED: ATOM     27  N   UNL d   1     -12.398   5.939   5.682 -0.15 +0.02    -0.248 N 
DOCKED: ATOM     28  N   UNL d   1     -13.461   4.329   7.895 -0.11 -0.05    -0.248 N 
DOCKED: ATOM     29 FE   UNL d   1     -13.875   6.037   6.872 -0.04 +0.00    +0.000 Fe
DOCKED: ENDROOT
DOCKED: BRANCH   6  30
DOCKED: ATOM     30  C   UNL d   1     -17.937   4.808  10.799 -0.03 +0.01    +0.052 C 
DOCKED: BRANCH  30  31
DOCKED: ATOM     31  C   UNL d   1     -18.501   3.519  10.204 -0.00 +0.02    +0.115 C 
DOCKED: BRANCH  31  32
DOCKED: ATOM     32  C   UNL d   1     -17.726   2.294  10.639 -0.00 +0.03    +0.139 C 
DOCKED: ATOM     33  O   UNL d   1     -17.419   1.451   9.809 +0.01 -0.12    -0.650 OA
DOCKED: BRANCH  32  34
DOCKED: ATOM     34  O   UNL d   1     -17.316   2.121  11.917 +0.03 -0.18    -0.776 OA
DOCKED: ATOM     35  H   UNL d   1     -16.700   2.710  12.375 +0.02 +0.05    +0.167 HD
DOCKED: ENDBRANCH  32  34
DOCKED: ENDBRANCH  31  32
DOCKED: ENDBRANCH  30  31
DOCKED: ENDBRANCH   6  30
DOCKED: BRANCH  29  36
DOCKED: ATOM     36  C   UNL d   1     -15.135   4.980   5.572 -0.07 +0.02    +0.190 C 
DOCKED: BRANCH  36  37
DOCKED: ATOM     37  O   UNL d   1     -16.292   4.195   5.535 -0.01 -0.05    -0.399 OA
DOCKED: ATOM     38  H   UNL d   1     -16.566   4.096   6.489 +0.02 +0.03    +0.209 HD
DOCKED: ENDBRANCH  36  37
DOCKED: ENDBRANCH  29  36
DOCKED: BRANCH  22  39
DOCKED: ATOM     39  C   UNL d   1     -13.767   1.395  10.185 -0.13 +0.02    +0.052 C 
DOCKED: BRANCH  39  40
DOCKED: ATOM     40  C   UNL d   1     -12.957   1.573  11.480 -0.25 +0.05    +0.115 C 
DOCKED: BRANCH  40  41
DOCKED: ATOM     41  C   UNL d   1     -13.441   2.697  12.371 -0.30 +0.11    +0.139 C 
DOCKED: ATOM     42  O   UNL d   1     -12.775   3.719  12.462 -0.36 -0.55    -0.650 OA
DOCKED: BRANCH  41  43
DOCKED: ATOM     43  O   UNL d   1     -14.635   2.639  13.002 -0.04 -0.60    -0.776 OA
DOCKED: ATOM     44  H   UNL d   1     -15.375   2.118  12.665 +0.03 +0.08    +0.167 HD
DOCKED: ENDBRANCH  41  43
DOCKED: ENDBRANCH  40  41
DOCKED: ENDBRANCH  39  40
DOCKED: ENDBRANCH  22  39
DOCKED: BRANCH  12  45
DOCKED: ATOM     45  C   UNL d   1     -14.047  10.611   3.777 -0.31 -0.00    +0.004 C 
DOCKED: ATOM     46  C   UNL d   1     -12.826  11.122   3.645 -0.43 -0.00    +0.012 C 
DOCKED: ENDBRANCH  12  45
DOCKED: BRANCH  17  47
DOCKED: ATOM     47  C   UNL d   1      -9.661   4.149   4.042 -0.30 +0.00    +0.004 C 
DOCKED: ATOM     48  C   UNL d   1      -9.135   4.158   2.815 -0.46 +0.00    +0.012 C 
DOCKED: ENDBRANCH  17  47
DOCKED: TORSDOF 12
DOCKED: TER
DOCKED: ENDMDL
________________________________________________________________________________


	BEGINNING GENETIC ALGORITHM DOCKING 39 of 100
Run: 39 Seed: 1944581892 842142608 [ Run 39 of 100 GA/GALS ]
Beginning LAMARCKIAN GENETIC ALGORITHM (LGA), with a maximum of 25000000 energy evaluations.

Final-Value: -9.688


	FINAL GENETIC ALGORITHM DOCKED STATE
	_______________________________________________


Detailed state:  trans -14.746 5.422 9.122 quatxyzw 0.603686 0.332132 -0.579843 0.434779 center 8.781 34.984 -0.736 ntor 12 123.6881 107.4971 -38.6236 121.1853 -94.5867 165.7660 -146.5646 -173.1628 -144.4824 42.3798 -4.9714 -147.5357
State:	-14.746   5.422   9.122   0.670  0.369 -0.644 128.457    123.69  107.50  -38.62  121.19  -94.59  165.77 -146.56 -173.16 -144.48   42.38   -4.97 -147.54

DOCKED: MODEL       39
DOCKED: USER    Run = 39
DOCKED: USER    DPF = D:/Protein_go_brrr/autodock/final/mut_D99N/heme_Co/dock.dpf
DOCKED: USER  
DOCKED: USER    Estimated Free Energy of Binding    =   -5.35 kcal/mol  [=(1)+(2)+(3)-(4)]
DOCKED: USER    Estimated Inhibition Constant, Ki   =  120.22 uM (micromolar)  [Temperature = 298.15 K]
DOCKED: USER    
DOCKED: USER    (1) Final Intermolecular Energy     =   -8.93 kcal/mol
DOCKED: USER        vdW + Hbond + desolv Energy     =   -6.15 kcal/mol
DOCKED: USER        Electrostatic Energy            =   -2.78 kcal/mol
DOCKED: USER    (2) Final Total Internal Energy     =   -0.76 kcal/mol
DOCKED: USER    (3) Torsional Free Energy           =   +3.58 kcal/mol
DOCKED: USER    (4) Unbound System's Energy  [=(2)] =   -0.76 kcal/mol
DOCKED: USER    
DOCKED: USER    
DOCKED: USER    NEWDPF move heme_Co_opt.pdbqt
DOCKED: USER    NEWDPF about 8.781000 34.984000 -0.736000
DOCKED: USER    NEWDPF tran0 -14.745672 5.421894 9.121666
DOCKED: USER    NEWDPF quaternion0 0.603686 0.332132 -0.579843 0.434779
DOCKED: USER    NEWDPF axisangle0 0.670363 0.368816 -0.643886 128.457490
DOCKED: USER    NEWDPF quat0 0.670363 0.368816 -0.643886 128.457490
DOCKED: USER    NEWDPF dihe0 123.69 107.50 -38.62 121.19 -94.59 165.77 -146.56 -173.16 -144.48 42.38 -4.97 -147.54 
DOCKED: USER  keepresnum = 1 
DOCKED: USER  
DOCKED: REMARK  12 active torsions:
DOCKED: REMARK  status: ('A' for Active; 'I' for Inactive)
DOCKED: REMARK    1  A    between atoms: C_6  and  C_10 
DOCKED: REMARK    2  A    between atoms: C_10  and  C_11 
DOCKED: REMARK    3  A    between atoms: C_11  and  C_12 
DOCKED: REMARK    4  A    between atoms: C_12  and  O_14 
DOCKED: REMARK    5  A    between atoms: C_17  and  C_20 
DOCKED: REMARK    6  A    between atoms: C_24  and  C_27 
DOCKED: REMARK    7  A    between atoms: C_31  and  C_34 
DOCKED: REMARK    8  A    between atoms: C_34  and  C_35 
DOCKED: REMARK    9  A    between atoms: C_35  and  C_36 
DOCKED: REMARK   10  A    between atoms: C_36  and  O_38 
DOCKED: REMARK   11  A    between atoms: FE_43  and  C_44 
DOCKED: REMARK   12  A    between atoms: C_44  and  O_45 
DOCKED: USER                              x       y       z     vdW  Elec       q    Type
DOCKED: USER                           _______ _______ _______ _____ _____    ______ ____
DOCKED: ROOT
DOCKED: ATOM      1  C   UNL d   1     -14.164   3.351   9.420 -0.12 +0.02    +0.064 A 
DOCKED: ATOM      2  C   UNL d   1     -17.448   6.080  11.512 -0.06 +0.01    +0.064 C 
DOCKED: ATOM      3  C   UNL d   1     -15.940   9.869   9.021 -0.11 -0.01    +0.064 A 
DOCKED: ATOM      4  C   UNL d   1     -12.836   7.019   6.591 -0.19 -0.01    +0.064 A 
DOCKED: ATOM      5  C   UNL d   1     -15.148   3.827  10.201 +0.07 +0.03    +0.066 A 
DOCKED: ATOM      6  C   UNL d   1     -15.903   2.989  11.044 -0.07 -0.01    -0.021 A 
DOCKED: ATOM      7  C   UNL d   1     -16.870   3.782  11.632 -0.05 -0.01    -0.025 A 
DOCKED: ATOM      8  C   UNL d   1     -16.652   5.072  11.135 -0.03 +0.02    +0.066 A 
DOCKED: ATOM      9  C   UNL d   1     -17.963   3.356  12.623 -0.01 +0.01    +0.051 C 
DOCKED: ATOM     10  C   UNL d   1     -17.285   7.444  11.075 -0.05 +0.01    +0.066 A 
DOCKED: ATOM     11  C   UNL d   1     -17.996   8.571  11.541 -0.04 -0.00    -0.021 A 
DOCKED: ATOM     12  C   UNL d   1     -17.534   9.663  10.801 -0.05 -0.00    +0.000 A 
DOCKED: ATOM     13  C   UNL d   1     -16.569   9.125   9.949 -0.08 -0.00    +0.070 A 
DOCKED: ATOM     14  C   UNL d   1     -18.978   8.595  12.684 -0.01 +0.00    +0.052 C 
DOCKED: ATOM     15  C   UNL d   1     -14.961   9.469   8.031 -0.15 -0.01    +0.066 A 
DOCKED: ATOM     16  C   UNL d   1     -14.458  10.257   7.005 -0.18 +0.01    -0.021 A 
DOCKED: ATOM     17  C   UNL d   1     -13.564   9.439   6.300 -0.27 -0.00    +0.000 A 
DOCKED: ATOM     18  C   UNL d   1     -13.579   8.217   6.964 -0.24 -0.01    +0.070 A 
DOCKED: ATOM     19  C   UNL d   1     -14.831  11.699   6.744 -0.15 -0.02    +0.052 C 
DOCKED: ATOM     20  C   UNL d   1     -12.901   5.796   7.169 -0.26 +0.00    +0.066 A 
DOCKED: ATOM     21  C   UNL d   1     -12.164   4.711   6.697 -0.30 -0.00    -0.025 A 
DOCKED: ATOM     22  C   UNL d   1     -12.504   3.647   7.512 -0.24 -0.00    -0.021 A 
DOCKED: ATOM     23  C   UNL d   1     -13.448   4.136   8.440 -0.07 +0.02    +0.066 A 
DOCKED: ATOM     24  C   UNL d   1     -11.197   4.685   5.516 -0.40 +0.00    +0.051 C 
DOCKED: ATOM     25  N   UNL d   1     -15.588   5.130  10.251 +0.13 -0.11    -0.248 N 
DOCKED: ATOM     26  N   UNL d   1     -16.379   7.794  10.155 -0.05 -0.04    -0.248 N 
DOCKED: ATOM     27  N   UNL d   1     -14.445   8.261   7.971 -0.13 +0.01    -0.248 N 
DOCKED: ATOM     28  N   UNL d   1     -13.693   5.435   8.234 -0.06 -0.06    -0.248 N 
DOCKED: ATOM     29 FE   UNL d   1     -14.980   6.786   9.042 -0.05 +0.00    +0.000 Fe
DOCKED: ENDROOT
DOCKED: BRANCH   6  30
DOCKED: ATOM     30  C   UNL d   1     -15.746   1.481  11.206 -0.04 +0.01    +0.052 C 
DOCKED: BRANCH  30  31
DOCKED: ATOM     31  C   UNL d   1     -14.568   1.159  12.124 -0.10 +0.05    +0.115 C 
DOCKED: BRANCH  31  32
DOCKED: ATOM     32  C   UNL d   1     -14.387   2.192  13.215 -0.16 +0.11    +0.139 C 
DOCKED: ATOM     33  O   UNL d   1     -15.048   2.106  14.240 -0.01 -0.56    -0.650 OA
DOCKED: BRANCH  32  34
DOCKED: ATOM     34  O   UNL d   1     -13.477   3.189  13.116 -0.31 -1.05    -0.776 OA
DOCKED: ATOM     35  H   UNL d   1     -13.699   4.130  13.125 -0.12 +0.23    +0.167 HD
DOCKED: ENDBRANCH  32  34
DOCKED: ENDBRANCH  31  32
DOCKED: ENDBRANCH  30  31
DOCKED: ENDBRANCH   6  30
DOCKED: BRANCH  29  36
DOCKED: ATOM     36  C   UNL d   1     -16.475   6.205   7.692 -0.04 +0.02    +0.190 C 
DOCKED: BRANCH  36  37
DOCKED: ATOM     37  O   UNL d   1     -17.580   5.360   7.550 +0.00 -0.04    -0.399 OA
DOCKED: ATOM     38  H   UNL d   1     -17.592   4.811   8.383 +0.01 +0.03    +0.209 HD
DOCKED: ENDBRANCH  36  37
DOCKED: ENDBRANCH  29  36
DOCKED: BRANCH  22  39
DOCKED: ATOM     39  C   UNL d   1     -11.996   2.225   7.360 -0.27 +0.01    +0.052 C 
DOCKED: BRANCH  39  40
DOCKED: ATOM     40  C   UNL d   1     -12.071   1.776   5.892 -0.13 +0.04    +0.115 C 
DOCKED: BRANCH  40  41
DOCKED: ATOM     41  C   UNL d   1     -12.450   0.322   5.702 -0.11 +0.12    +0.139 C 
DOCKED: ATOM     42  O   UNL d   1     -12.060  -0.508   6.511 -0.40 -0.61    -0.650 OA
DOCKED: BRANCH  41  43
DOCKED: ATOM     43  O   UNL d   1     -13.281  -0.072   4.712 -0.38 -1.14    -0.776 OA
DOCKED: ATOM     44  H   UNL d   1     -14.000   0.484   4.385 +0.03 +0.15    +0.167 HD
DOCKED: ENDBRANCH  41  43
DOCKED: ENDBRANCH  40  41
DOCKED: ENDBRANCH  39  40
DOCKED: ENDBRANCH  22  39
DOCKED: BRANCH  12  45
DOCKED: ATOM     45  C   UNL d   1     -17.878  11.146  10.813 -0.03 -0.00    +0.004 C 
DOCKED: ATOM     46  C   UNL d   1     -17.150  12.201  11.170 -0.06 -0.00    +0.012 C 
DOCKED: ENDBRANCH  12  45
DOCKED: BRANCH  17  47
DOCKED: ATOM     47  C   UNL d   1     -12.777   9.729   5.064 -0.39 -0.00    +0.004 C 
DOCKED: ATOM     48  C   UNL d   1     -12.952   9.082   3.910 -0.44 -0.00    +0.012 C 
DOCKED: ENDBRANCH  17  47
DOCKED: TORSDOF 12
DOCKED: TER
DOCKED: ENDMDL
________________________________________________________________________________


	BEGINNING GENETIC ALGORITHM DOCKING 40 of 100
Run: 40 Seed: 2130678735 1511037581 [ Run 40 of 100 GA/GALS ]
Beginning LAMARCKIAN GENETIC ALGORITHM (LGA), with a maximum of 25000000 energy evaluations.

Final-Value: -9.498


	FINAL GENETIC ALGORITHM DOCKED STATE
	_______________________________________________


Detailed state:  trans 0.061 17.812 0.596 quatxyzw 0.602410 -0.271158 -0.000350 0.750717 center 8.781 34.984 -0.736 ntor 12 -160.4863 99.5084 -103.4552 117.7767 83.3378 137.1938 42.3168 -45.6755 151.4218 42.7244 -154.4046 164.9793
State:	  0.061  17.812   0.596   0.912 -0.410 -0.001 82.695   -160.49   99.51 -103.46  117.78   83.34  137.19   42.32  -45.68  151.42   42.72 -154.40  164.98

DOCKED: MODEL       40
DOCKED: USER    Run = 40
DOCKED: USER    DPF = D:/Protein_go_brrr/autodock/final/mut_D99N/heme_Co/dock.dpf
DOCKED: USER  
DOCKED: USER    Estimated Free Energy of Binding    =   -3.72 kcal/mol  [=(1)+(2)+(3)-(4)]
DOCKED: USER    Estimated Inhibition Constant, Ki   =    1.87 mM (millimolar)  [Temperature = 298.15 K]
DOCKED: USER    
DOCKED: USER    (1) Final Intermolecular Energy     =   -7.30 kcal/mol
DOCKED: USER        vdW + Hbond + desolv Energy     =   -6.28 kcal/mol
DOCKED: USER        Electrostatic Energy            =   -1.02 kcal/mol
DOCKED: USER    (2) Final Total Internal Energy     =   -2.20 kcal/mol
DOCKED: USER    (3) Torsional Free Energy           =   +3.58 kcal/mol
DOCKED: USER    (4) Unbound System's Energy  [=(2)] =   -2.20 kcal/mol
DOCKED: USER    
DOCKED: USER    
DOCKED: USER    NEWDPF move heme_Co_opt.pdbqt
DOCKED: USER    NEWDPF about 8.781000 34.984000 -0.736000
DOCKED: USER    NEWDPF tran0 0.061180 17.811573 0.595574
DOCKED: USER    NEWDPF quaternion0 0.602410 -0.271158 -0.000350 0.750717
DOCKED: USER    NEWDPF axisangle0 0.911879 -0.410458 -0.000530 82.695019
DOCKED: USER    NEWDPF quat0 0.911879 -0.410458 -0.000530 82.695019
DOCKED: USER    NEWDPF dihe0 -160.49 99.51 -103.46 117.78 83.34 137.19 42.32 -45.68 151.42 42.72 -154.40 164.98 
DOCKED: USER  keepresnum = 1 
DOCKED: USER  
DOCKED: REMARK  12 active torsions:
DOCKED: REMARK  status: ('A' for Active; 'I' for Inactive)
DOCKED: REMARK    1  A    between atoms: C_6  and  C_10 
DOCKED: REMARK    2  A    between atoms: C_10  and  C_11 
DOCKED: REMARK    3  A    between atoms: C_11  and  C_12 
DOCKED: REMARK    4  A    between atoms: C_12  and  O_14 
DOCKED: REMARK    5  A    between atoms: C_17  and  C_20 
DOCKED: REMARK    6  A    between atoms: C_24  and  C_27 
DOCKED: REMARK    7  A    between atoms: C_31  and  C_34 
DOCKED: REMARK    8  A    between atoms: C_34  and  C_35 
DOCKED: REMARK    9  A    between atoms: C_35  and  C_36 
DOCKED: REMARK   10  A    between atoms: C_36  and  O_38 
DOCKED: REMARK   11  A    between atoms: FE_43  and  C_44 
DOCKED: REMARK   12  A    between atoms: C_44  and  O_45 
DOCKED: USER                              x       y       z     vdW  Elec       q    Type
DOCKED: USER                           _______ _______ _______ _____ _____    ______ ____
DOCKED: ROOT
DOCKED: ATOM      1  C   UNL d   1      -2.098  17.811   0.825 -0.11 +0.02    +0.064 A 
DOCKED: ATOM      2  C   UNL d   1       1.365  20.049   3.192 -0.15 +0.00    +0.064 C 
DOCKED: ATOM      3  C   UNL d   1       4.666  17.723   0.639 -0.12 +0.00    +0.064 A 
DOCKED: ATOM      4  C   UNL d   1       1.148  15.713  -2.054 -0.22 -0.00    +0.064 A 
DOCKED: ATOM      5  C   UNL d   1      -1.394  18.566   1.684 -0.14 +0.01    +0.066 A 
DOCKED: ATOM      6  C   UNL d   1      -2.017  19.465   2.572 -0.15 -0.00    -0.021 A 
DOCKED: ATOM      7  C   UNL d   1      -1.006  20.128   3.240 -0.13 -0.00    -0.025 A 
DOCKED: ATOM      8  C   UNL d   1       0.188  19.595   2.744 -0.18 +0.01    +0.066 A 
DOCKED: ATOM      9  C   UNL d   1      -1.144  21.225   4.307 -0.06 +0.00    +0.051 C 
DOCKED: ATOM     10  C   UNL d   1       2.644  19.543   2.759 -0.13 +0.00    +0.066 A 
DOCKED: ATOM     11  C   UNL d   1       3.908  19.878   3.292 -0.09 -0.00    -0.021 A 
DOCKED: ATOM     12  C   UNL d   1       4.852  19.183   2.531 -0.10 +0.00    +0.000 A 
DOCKED: ATOM     13  C   UNL d   1       4.096  18.467   1.603 -0.11 +0.00    +0.070 A 
DOCKED: ATOM     14  C   UNL d   1       4.166  20.732   4.506 -0.05 +0.00    +0.052 C 
DOCKED: ATOM     15  C   UNL d   1       4.042  16.965  -0.428 -0.11 +0.00    +0.066 A 
DOCKED: ATOM     16  C   UNL d   1       4.693  16.335  -1.480 -0.13 -0.00    -0.021 A 
DOCKED: ATOM     17  C   UNL d   1       3.682  15.756  -2.260 -0.17 -0.00    +0.000 A 
DOCKED: ATOM     18  C   UNL d   1       2.491  16.065  -1.612 -0.19 +0.00    +0.070 A 
DOCKED: ATOM     19  C   UNL d   1       6.190  16.309  -1.695 -0.07 +0.00    +0.052 C 
DOCKED: ATOM     20  C   UNL d   1      -0.028  16.076  -1.487 -0.22 +0.00    +0.066 A 
DOCKED: ATOM     21  C   UNL d   1      -1.258  15.706  -2.026 -0.29 -0.00    -0.025 A 
DOCKED: ATOM     22  C   UNL d   1      -2.212  16.272  -1.201 -0.26 -0.01    -0.021 A 
DOCKED: ATOM     23  C   UNL d   1      -1.511  16.975  -0.198 -0.16 +0.01    +0.066 A 
DOCKED: ATOM     24  C   UNL d   1      -1.513  14.870  -3.278 -0.31 +0.00    +0.051 C 
DOCKED: ATOM     25  N   UNL d   1      -0.022  18.621   1.782 -0.17 -0.03    -0.248 N 
DOCKED: ATOM     26  N   UNL d   1       2.759  18.642   1.778 -0.08 -0.01    -0.248 N 
DOCKED: ATOM     27  N   UNL d   1       2.742  16.812  -0.542 -0.07 -0.01    -0.248 N 
DOCKED: ATOM     28  N   UNL d   1      -0.189  16.861  -0.370 -0.17 -0.01    -0.248 N 
DOCKED: ATOM     29 FE   UNL d   1       1.439  17.661   0.550 -0.06 +0.00    +0.000 Fe
DOCKED: ENDROOT
DOCKED: BRANCH   6  30
DOCKED: ATOM     30  C   UNL d   1      -3.514  19.724   2.703 -0.14 +0.02    +0.052 C 
DOCKED: BRANCH  30  31
DOCKED: ATOM     31  C   UNL d   1      -4.041  20.462   1.474 -0.06 +0.04    +0.115 C 
DOCKED: BRANCH  31  32
DOCKED: ATOM     32  C   UNL d   1      -2.997  21.362   0.849 -0.01 +0.02    +0.139 C 
DOCKED: ATOM     33  O   UNL d   1      -2.870  22.507   1.255 +0.01 -0.07    -0.650 OA
DOCKED: BRANCH  32  34
DOCKED: ATOM     34  O   UNL d   1      -2.160  20.924  -0.120 +0.04 -0.11    -0.776 OA
DOCKED: ATOM     35  H   UNL d   1      -1.354  21.386  -0.392 +0.01 +0.02    +0.167 HD
DOCKED: ENDBRANCH  32  34
DOCKED: ENDBRANCH  31  32
DOCKED: ENDBRANCH  30  31
DOCKED: ENDBRANCH   6  30
DOCKED: BRANCH  29  36
DOCKED: ATOM     36  C   UNL d   1       1.339  19.349  -0.689 -0.07 +0.01    +0.190 C 
DOCKED: BRANCH  36  37
DOCKED: ATOM     37  O   UNL d   1       0.550  20.463  -0.992 -0.00 -0.02    -0.399 OA
DOCKED: ATOM     38  H   UNL d   1      -0.329  20.281  -0.556 +0.03 +0.02    +0.209 HD
DOCKED: ENDBRANCH  36  37
DOCKED: ENDBRANCH  29  36
DOCKED: BRANCH  22  39
DOCKED: ATOM     39  C   UNL d   1      -3.713  16.192  -1.407 -0.30 +0.03    +0.052 C 
DOCKED: BRANCH  39  40
DOCKED: ATOM     40  C   UNL d   1      -4.220  17.416  -2.187 -0.13 +0.07    +0.115 C 
DOCKED: BRANCH  40  41
DOCKED: ATOM     41  C   UNL d   1      -5.572  17.929  -1.737 +0.08 +0.12    +0.139 C 
DOCKED: ATOM     42  O   UNL d   1      -5.626  18.808  -0.889 -0.48 -0.57    -0.650 OA
DOCKED: BRANCH  41  43
DOCKED: ATOM     43  O   UNL d   1      -6.719  17.502  -2.310 -0.54 -0.67    -0.776 OA
DOCKED: ATOM     44  H   UNL d   1      -7.166  17.997  -3.009 +0.03 +0.08    +0.167 HD
DOCKED: ENDBRANCH  41  43
DOCKED: ENDBRANCH  40  41
DOCKED: ENDBRANCH  39  40
DOCKED: ENDBRANCH  22  39
DOCKED: BRANCH  12  45
DOCKED: ATOM     45  C   UNL d   1       6.371  19.098   2.587 -0.06 +0.00    +0.004 C 
DOCKED: ATOM     46  C   UNL d   1       7.170  18.100   2.958 -0.06 +0.00    +0.012 C 
DOCKED: ENDBRANCH  12  45
DOCKED: BRANCH  17  47
DOCKED: ATOM     47  C   UNL d   1       3.783  15.008  -3.549 -0.21 -0.00    +0.004 C 
DOCKED: ATOM     48  C   UNL d   1       4.451  13.860  -3.684 -0.23 -0.00    +0.012 C 
DOCKED: ENDBRANCH  17  47
DOCKED: TORSDOF 12
DOCKED: TER
DOCKED: ENDMDL
________________________________________________________________________________


	BEGINNING GENETIC ALGORITHM DOCKING 41 of 100
Run: 41 Seed: 992157159 1052285948 [ Run 41 of 100 GA/GALS ]
Beginning LAMARCKIAN GENETIC ALGORITHM (LGA), with a maximum of 25000000 energy evaluations.

Final-Value: -10.685


	FINAL GENETIC ALGORITHM DOCKED STATE
	_______________________________________________


Detailed state:  trans 2.467 -0.225 -20.826 quatxyzw 0.741720 -0.240607 0.406427 -0.476210 center 8.781 34.984 -0.736 ntor 12 -179.8873 118.4478 25.8877 -112.2908 -97.4912 137.9025 -130.3409 140.6617 -144.4414 -56.8423 -172.3756 160.1826
State:	  2.467  -0.225 -20.826   0.844 -0.274  0.462 -123.124   -179.89  118.45   25.89 -112.29  -97.49  137.90 -130.34  140.66 -144.44  -56.84 -172.38  160.18

DOCKED: MODEL       41
DOCKED: USER    Run = 41
DOCKED: USER    DPF = D:/Protein_go_brrr/autodock/final/mut_D99N/heme_Co/dock.dpf
DOCKED: USER  
DOCKED: USER    Estimated Free Energy of Binding    =   -4.91 kcal/mol  [=(1)+(2)+(3)-(4)]
DOCKED: USER    Estimated Inhibition Constant, Ki   =  253.18 uM (micromolar)  [Temperature = 298.15 K]
DOCKED: USER    
DOCKED: USER    (1) Final Intermolecular Energy     =   -8.49 kcal/mol
DOCKED: USER        vdW + Hbond + desolv Energy     =   -5.64 kcal/mol
DOCKED: USER        Electrostatic Energy            =   -2.84 kcal/mol
DOCKED: USER    (2) Final Total Internal Energy     =   -2.20 kcal/mol
DOCKED: USER    (3) Torsional Free Energy           =   +3.58 kcal/mol
DOCKED: USER    (4) Unbound System's Energy  [=(2)] =   -2.20 kcal/mol
DOCKED: USER    
DOCKED: USER    
DOCKED: USER    NEWDPF move heme_Co_opt.pdbqt
DOCKED: USER    NEWDPF about 8.781000 34.984000 -0.736000
DOCKED: USER    NEWDPF tran0 2.466798 -0.225098 -20.825886
DOCKED: USER    NEWDPF quaternion0 0.741720 -0.240607 0.406427 -0.476210
DOCKED: USER    NEWDPF axisangle0 0.843505 -0.273625 0.462200 -123.123621
DOCKED: USER    NEWDPF quat0 0.843505 -0.273625 0.462200 -123.123621
DOCKED: USER    NEWDPF dihe0 -179.89 118.45 25.89 -112.29 -97.49 137.90 -130.34 140.66 -144.44 -56.84 -172.38 160.18 
DOCKED: USER  keepresnum = 1 
DOCKED: USER  
DOCKED: REMARK  12 active torsions:
DOCKED: REMARK  status: ('A' for Active; 'I' for Inactive)
DOCKED: REMARK    1  A    between atoms: C_6  and  C_10 
DOCKED: REMARK    2  A    between atoms: C_10  and  C_11 
DOCKED: REMARK    3  A    between atoms: C_11  and  C_12 
DOCKED: REMARK    4  A    between atoms: C_12  and  O_14 
DOCKED: REMARK    5  A    between atoms: C_17  and  C_20 
DOCKED: REMARK    6  A    between atoms: C_24  and  C_27 
DOCKED: REMARK    7  A    between atoms: C_31  and  C_34 
DOCKED: REMARK    8  A    between atoms: C_34  and  C_35 
DOCKED: REMARK    9  A    between atoms: C_35  and  C_36 
DOCKED: REMARK   10  A    between atoms: C_36  and  O_38 
DOCKED: REMARK   11  A    between atoms: FE_43  and  C_44 
DOCKED: REMARK   12  A    between atoms: C_44  and  O_45 
DOCKED: USER                              x       y       z     vdW  Elec       q    Type
DOCKED: USER                           _______ _______ _______ _____ _____    ______ ____
DOCKED: ROOT
DOCKED: ATOM      1  C   UNL d   1       0.706   0.268 -21.997 -0.04 +0.02    +0.064 A 
DOCKED: ATOM      2  C   UNL d   1       4.778  -1.917 -23.116 -0.09 +0.01    +0.064 C 
DOCKED: ATOM      3  C   UNL d   1       6.489  -1.052 -18.739 -0.14 +0.02    +0.064 A 
DOCKED: ATOM      4  C   UNL d   1       2.197   0.842 -17.451 -0.03 +0.03    +0.064 A 
DOCKED: ATOM      5  C   UNL d   1       1.707  -0.360 -22.636 -0.03 +0.02    +0.066 A 
DOCKED: ATOM      6  C   UNL d   1       1.564  -0.851 -23.948 -0.02 -0.00    -0.021 A 
DOCKED: ATOM      7  C   UNL d   1       2.741  -1.504 -24.260 -0.02 -0.00    -0.025 A 
DOCKED: ATOM      8  C   UNL d   1       3.556  -1.370 -23.131 -0.04 +0.01    +0.066 A 
DOCKED: ATOM      9  C   UNL d   1       3.098  -2.232 -25.565 -0.01 +0.00    +0.051 C 
DOCKED: ATOM     10  C   UNL d   1       5.698  -1.809 -22.011 -0.11 +0.01    +0.066 A 
DOCKED: ATOM     11  C   UNL d   1       7.042  -2.239 -21.986 -0.14 -0.00    -0.021 A 
DOCKED: ATOM     12  C   UNL d   1       7.518  -1.971 -20.700 -0.15 +0.00    +0.000 A 
DOCKED: ATOM     13  C   UNL d   1       6.436  -1.387 -20.040 -0.11 +0.01    +0.070 A 
DOCKED: ATOM     14  C   UNL d   1       7.828  -2.777 -23.154 -0.12 +0.00    +0.052 C 
DOCKED: ATOM     15  C   UNL d   1       5.455  -0.492 -17.891 -0.19 +0.02    +0.066 A 
DOCKED: ATOM     16  C   UNL d   1       5.529  -0.303 -16.518 -0.26 -0.01    -0.021 A 
DOCKED: ATOM     17  C   UNL d   1       4.293   0.241 -16.141 -0.25 +0.00    +0.000 A 
DOCKED: ATOM     18  C   UNL d   1       3.565   0.357 -17.321 -0.16 +0.02    +0.070 A 
DOCKED: ATOM     19  C   UNL d   1       6.723  -0.635 -15.650 -0.28 +0.02    +0.052 C 
DOCKED: ATOM     20  C   UNL d   1       1.440   0.884 -18.573 -0.08 +0.04    +0.066 A 
DOCKED: ATOM     21  C   UNL d   1       0.123   1.339 -18.565 -0.13 -0.03    -0.025 A 
DOCKED: ATOM     22  C   UNL d   1      -0.323   1.212 -19.868 -0.10 -0.02    -0.021 A 
DOCKED: ATOM     23  C   UNL d   1       0.748   0.671 -20.610 -0.09 +0.04    +0.066 A 
DOCKED: ATOM     24  C   UNL d   1      -0.678   1.850 -17.371 -0.15 +0.06    +0.051 C 
DOCKED: ATOM     25  N   UNL d   1       2.944  -0.661 -22.112 -0.02 -0.05    -0.248 N 
DOCKED: ATOM     26  N   UNL d   1       5.354  -1.239 -20.850 -0.08 -0.05    -0.248 N 
DOCKED: ATOM     27  N   UNL d   1       4.277  -0.116 -18.338 -0.11 -0.07    -0.248 N 
DOCKED: ATOM     28  N   UNL d   1       1.817   0.469 -19.829 -0.08 -0.12    -0.248 N 
DOCKED: ATOM     29 FE   UNL d   1       3.647  -0.370 -20.112 -0.03 +0.00    +0.000 Fe
DOCKED: ENDROOT
DOCKED: BRANCH   6  30
DOCKED: ATOM     30  C   UNL d   1       0.318  -0.761 -24.823 -0.02 +0.01    +0.052 C 
DOCKED: BRANCH  30  31
DOCKED: ATOM     31  C   UNL d   1      -0.599  -1.959 -24.576 -0.03 +0.02    +0.115 C 
DOCKED: BRANCH  31  32
DOCKED: ATOM     32  C   UNL d   1      -0.555  -2.434 -23.140 -0.10 +0.04    +0.139 C 
DOCKED: ATOM     33  O   UNL d   1      -1.446  -2.106 -22.371 -0.04 -0.30    -0.650 OA
DOCKED: BRANCH  32  34
DOCKED: ATOM     34  O   UNL d   1       0.420  -3.255 -22.685 +0.00 -0.17    -0.776 OA
DOCKED: ATOM     35  H   UNL d   1       0.511  -3.533 -21.763 -0.07 +0.04    +0.167 HD
DOCKED: ENDBRANCH  32  34
DOCKED: ENDBRANCH  31  32
DOCKED: ENDBRANCH  30  31
DOCKED: ENDBRANCH   6  30
DOCKED: BRANCH  29  36
DOCKED: ATOM     36  C   UNL d   1       2.869  -2.269 -19.683 -0.07 +0.06    +0.190 C 
DOCKED: BRANCH  36  37
DOCKED: ATOM     37  O   UNL d   1       1.990  -3.247 -20.160 -0.27 -0.15    -0.399 OA
DOCKED: ATOM     38  H   UNL d   1       1.690  -2.910 -21.050 +0.05 +0.07    +0.209 HD
DOCKED: ENDBRANCH  36  37
DOCKED: ENDBRANCH  29  36
DOCKED: BRANCH  22  39
DOCKED: ATOM     39  C   UNL d   1      -1.724   1.534 -20.353 -0.08 +0.05    +0.052 C 
DOCKED: BRANCH  39  40
DOCKED: ATOM     40  C   UNL d   1      -2.572   0.255 -20.451 -0.12 +0.14    +0.115 C 
DOCKED: BRANCH  40  41
DOCKED: ATOM     41  C   UNL d   1      -3.779   0.234 -19.537 -0.10 +0.24    +0.139 C 
DOCKED: ATOM     42  O   UNL d   1      -3.634  -0.071 -18.361 -0.29 -1.64    -0.650 OA
DOCKED: BRANCH  41  43
DOCKED: ATOM     43  O   UNL d   1      -5.000   0.627 -19.963 +0.00 -1.47    -0.776 OA
DOCKED: ATOM     44  H   UNL d   1      -5.295   0.505 -20.875 +0.02 +0.21    +0.167 HD
DOCKED: ENDBRANCH  41  43
DOCKED: ENDBRANCH  40  41
DOCKED: ENDBRANCH  39  40
DOCKED: ENDBRANCH  22  39
DOCKED: BRANCH  12  45
DOCKED: ATOM     45  C   UNL d   1       8.868  -2.180 -20.027 -0.19 +0.00    +0.004 C 
DOCKED: ATOM     46  C   UNL d   1       9.199  -2.886 -18.950 -0.30 +0.01    +0.012 C 
DOCKED: ENDBRANCH  12  45
DOCKED: BRANCH  17  47
DOCKED: ATOM     47  C   UNL d   1       3.777   0.589 -14.784 -0.40 +0.00    +0.004 C 
DOCKED: ATOM     48  C   UNL d   1       2.693   0.030 -14.241 -0.55 +0.00    +0.012 C 
DOCKED: ENDBRANCH  17  47
DOCKED: TORSDOF 12
DOCKED: TER
DOCKED: ENDMDL
________________________________________________________________________________


	BEGINNING GENETIC ALGORITHM DOCKING 42 of 100
Run: 42 Seed: 1392254306 1560817638 [ Run 42 of 100 GA/GALS ]
Beginning LAMARCKIAN GENETIC ALGORITHM (LGA), with a maximum of 25000000 energy evaluations.

Final-Value: -8.879


	FINAL GENETIC ALGORITHM DOCKED STATE
	_______________________________________________


Detailed state:  trans 19.244 -11.826 6.382 quatxyzw -0.066052 -0.961111 0.165010 -0.211363 center 8.781 34.984 -0.736 ntor 12 180.0000 -63.5394 59.8966 -91.9658 -107.6396 108.5313 63.0221 -78.0612 68.1147 -7.9449 0.4479 5.6230
State:	 19.244 -11.826   6.382  -0.068 -0.983  0.169 -155.596    180.00  -63.54   59.90  -91.97 -107.64  108.53   63.02  -78.06   68.11   -7.94    0.45    5.62

DOCKED: MODEL       42
DOCKED: USER    Run = 42
DOCKED: USER    DPF = D:/Protein_go_brrr/autodock/final/mut_D99N/heme_Co/dock.dpf
DOCKED: USER  
DOCKED: USER    Estimated Free Energy of Binding    =   -3.11 kcal/mol  [=(1)+(2)+(3)-(4)]
DOCKED: USER    Estimated Inhibition Constant, Ki   =    5.26 mM (millimolar)  [Temperature = 298.15 K]
DOCKED: USER    
DOCKED: USER    (1) Final Intermolecular Energy     =   -6.69 kcal/mol
DOCKED: USER        vdW + Hbond + desolv Energy     =   -4.56 kcal/mol
DOCKED: USER        Electrostatic Energy            =   -2.12 kcal/mol
DOCKED: USER    (2) Final Total Internal Energy     =   -2.19 kcal/mol
DOCKED: USER    (3) Torsional Free Energy           =   +3.58 kcal/mol
DOCKED: USER    (4) Unbound System's Energy  [=(2)] =   -2.19 kcal/mol
DOCKED: USER    
DOCKED: USER    
DOCKED: USER    NEWDPF move heme_Co_opt.pdbqt
DOCKED: USER    NEWDPF about 8.781000 34.984000 -0.736000
DOCKED: USER    NEWDPF tran0 19.244397 -11.825722 6.381554
DOCKED: USER    NEWDPF quaternion0 -0.066052 -0.961111 0.165010 -0.211363
DOCKED: USER    NEWDPF axisangle0 -0.067578 -0.983327 0.168824 -155.595509
DOCKED: USER    NEWDPF quat0 -0.067578 -0.983327 0.168824 -155.595509
DOCKED: USER    NEWDPF dihe0 180.00 -63.54 59.90 -91.97 -107.64 108.53 63.02 -78.06 68.11 -7.94 0.45 5.62 
DOCKED: USER  keepresnum = 1 
DOCKED: USER  
DOCKED: REMARK  12 active torsions:
DOCKED: REMARK  status: ('A' for Active; 'I' for Inactive)
DOCKED: REMARK    1  A    between atoms: C_6  and  C_10 
DOCKED: REMARK    2  A    between atoms: C_10  and  C_11 
DOCKED: REMARK    3  A    between atoms: C_11  and  C_12 
DOCKED: REMARK    4  A    between atoms: C_12  and  O_14 
DOCKED: REMARK    5  A    between atoms: C_17  and  C_20 
DOCKED: REMARK    6  A    between atoms: C_24  and  C_27 
DOCKED: REMARK    7  A    between atoms: C_31  and  C_34 
DOCKED: REMARK    8  A    between atoms: C_34  and  C_35 
DOCKED: REMARK    9  A    between atoms: C_35  and  C_36 
DOCKED: REMARK   10  A    between atoms: C_36  and  O_38 
DOCKED: REMARK   11  A    between atoms: FE_43  and  C_44 
DOCKED: REMARK   12  A    between atoms: C_44  and  O_45 
DOCKED: USER                              x       y       z     vdW  Elec       q    Type
DOCKED: USER                           _______ _______ _______ _____ _____    ______ ____
DOCKED: ROOT
DOCKED: ATOM      1  C   UNL d   1      21.382 -11.493   6.193 -0.12 +0.03    +0.064 A 
DOCKED: ATOM      2  C   UNL d   1      18.495 -14.818   4.397 -0.09 -0.02    +0.064 C 
DOCKED: ATOM      3  C   UNL d   1      14.832 -13.042   6.898 -0.09 -0.03    +0.064 A 
DOCKED: ATOM      4  C   UNL d   1      17.669  -9.405   8.446 -0.06 -0.00    +0.064 A 
DOCKED: ATOM      5  C   UNL d   1      20.871 -12.554   5.547 -0.10 +0.02    +0.066 A 
DOCKED: ATOM      6  C   UNL d   1      21.632 -13.312   4.637 -0.09 -0.01    -0.021 A 
DOCKED: ATOM      7  C   UNL d   1      20.783 -14.262   4.101 -0.05 -0.00    -0.025 A 
DOCKED: ATOM      8  C   UNL d   1      19.546 -14.052   4.720 -0.06 -0.00    +0.066 A 
DOCKED: ATOM      9  C   UNL d   1      21.110 -15.331   3.047 -0.03 +0.00    +0.051 C 
DOCKED: ATOM     10  C   UNL d   1      17.191 -14.694   4.999 +0.01 -0.04    +0.066 A 
DOCKED: ATOM     11  C   UNL d   1      16.088 -15.554   4.808 -0.05 +0.01    -0.021 A 
DOCKED: ATOM     12  C   UNL d   1      15.035 -15.015   5.552 -0.04 -0.00    +0.000 A 
DOCKED: ATOM     13  C   UNL d   1      15.575 -13.876   6.150 -0.07 -0.04    +0.070 A 
DOCKED: ATOM     14  C   UNL d   1      16.091 -16.850   4.039 -0.10 -0.01    +0.052 C 
DOCKED: ATOM     15  C   UNL d   1      15.212 -11.801   7.545 -0.09 -0.02    +0.066 A 
DOCKED: ATOM     16  C   UNL d   1      14.360 -10.911   8.183 -0.12 +0.01    -0.021 A 
DOCKED: ATOM     17  C   UNL d   1      15.173  -9.859   8.629 -0.12 -0.00    +0.000 A 
DOCKED: ATOM     18  C   UNL d   1      16.464 -10.200   8.241 -0.08 -0.01    +0.070 A 
DOCKED: ATOM     19  C   UNL d   1      12.865 -11.085   8.337 -0.14 -0.02    +0.052 C 
DOCKED: ATOM     20  C   UNL d   1      18.920  -9.675   8.002 -0.05 +0.00    +0.066 A 
DOCKED: ATOM     21  C   UNL d   1      19.991  -8.815   8.232 -0.06 -0.00    -0.025 A 
DOCKED: ATOM     22  C   UNL d   1      21.081  -9.405   7.619 -0.11 -0.01    -0.021 A 
DOCKED: ATOM     23  C   UNL d   1      20.615 -10.600   7.031 -0.11 +0.02    +0.066 A 
DOCKED: ATOM     24  C   UNL d   1      19.974  -7.485   8.981 -0.04 +0.01    +0.051 C 
DOCKED: ATOM     25  N   UNL d   1      19.572 -13.004   5.624 -0.03 -0.01    -0.248 N 
DOCKED: ATOM     26  N   UNL d   1      16.894 -13.715   5.860 -0.05 +0.13    -0.248 N 
DOCKED: ATOM     27  N   UNL d   1      16.445 -11.348   7.572 -0.03 +0.05    -0.248 N 
DOCKED: ATOM     28  N   UNL d   1      19.306 -10.766   7.259 -0.03 -0.03    -0.248 N 
DOCKED: ATOM     29 FE   UNL d   1      17.919 -12.125   6.657 -0.02 -0.00    +0.000 Fe
DOCKED: ENDROOT
DOCKED: BRANCH   6  30
DOCKED: ATOM     30  C   UNL d   1      23.087 -13.073   4.246 -0.11 +0.03    +0.052 C 
DOCKED: BRANCH  30  31
DOCKED: ATOM     31  C   UNL d   1      24.029 -13.736   5.252 -0.05 +0.06    +0.115 C 
DOCKED: BRANCH  31  32
DOCKED: ATOM     32  C   UNL d   1      24.839 -12.726   6.036 -0.07 +0.13    +0.139 C 
DOCKED: ATOM     33  O   UNL d   1      25.672 -12.045   5.457 -0.06 -1.03    -0.650 OA
DOCKED: BRANCH  32  34
DOCKED: ATOM     34  O   UNL d   1      24.638 -12.515   7.357 -0.10 -0.58    -0.776 OA
DOCKED: ATOM     35  H   UNL d   1      25.174 -11.922   7.901 +0.01 +0.13    +0.167 HD
DOCKED: ENDBRANCH  32  34
DOCKED: ENDBRANCH  31  32
DOCKED: ENDBRANCH  30  31
DOCKED: ENDBRANCH   6  30
DOCKED: BRANCH  29  36
DOCKED: ATOM     36  C   UNL d   1      17.560 -11.021   4.911 -0.30 -0.06    +0.190 C 
DOCKED: BRANCH  36  37
DOCKED: ATOM     37  O   UNL d   1      18.193 -10.247   3.933 -0.34 -0.01    -0.399 OA
DOCKED: ATOM     38  H   UNL d   1      17.454  -9.924   3.345 -0.45 -0.03    +0.209 HD
DOCKED: ENDBRANCH  36  37
DOCKED: ENDBRANCH  29  36
DOCKED: BRANCH  22  39
DOCKED: ATOM     39  C   UNL d   1      22.478  -8.815   7.550 -0.07 +0.04    +0.052 C 
DOCKED: BRANCH  39  40
DOCKED: ATOM     40  C   UNL d   1      23.434  -9.573   8.486 -0.07 +0.08    +0.115 C 
DOCKED: BRANCH  40  41
DOCKED: ATOM     41  C   UNL d   1      24.900  -9.278   8.254 -0.05 +0.14    +0.139 C 
DOCKED: ATOM     42  O   UNL d   1      25.307  -8.130   8.376 -0.07 -0.51    -0.650 OA
DOCKED: BRANCH  41  43
DOCKED: ATOM     43  O   UNL d   1      25.791 -10.261   8.000 -0.03 -0.85    -0.776 OA
DOCKED: ATOM     44  H   UNL d   1      25.764 -10.791   7.192 +0.00 +0.28    +0.167 HD
DOCKED: ENDBRANCH  41  43
DOCKED: ENDBRANCH  40  41
DOCKED: ENDBRANCH  39  40
DOCKED: ENDBRANCH  22  39
DOCKED: BRANCH  12  45
DOCKED: ATOM     45  C   UNL d   1      13.594 -15.452   5.780 -0.14 -0.00    +0.004 C 
DOCKED: ATOM     46  C   UNL d   1      12.462 -15.025   5.228 -0.24 -0.00    +0.012 C 
DOCKED: ENDBRANCH  12  45
DOCKED: BRANCH  17  47
DOCKED: ATOM     47  C   UNL d   1      14.797  -8.591   9.322 -0.17 -0.00    +0.004 C 
DOCKED: ATOM     48  C   UNL d   1      15.199  -7.383   8.919 -0.25 -0.00    +0.012 C 
DOCKED: ENDBRANCH  17  47
DOCKED: TORSDOF 12
DOCKED: TER
DOCKED: ENDMDL
________________________________________________________________________________


	BEGINNING GENETIC ALGORITHM DOCKING 43 of 100
Run: 43 Seed: 1987010674 1183887840 [ Run 43 of 100 GA/GALS ]
Beginning LAMARCKIAN GENETIC ALGORITHM (LGA), with a maximum of 25000000 energy evaluations.

Final-Value: -9.958


	FINAL GENETIC ALGORITHM DOCKED STATE
	_______________________________________________


Detailed state:  trans -14.199 -5.171 1.863 quatxyzw -0.949604 0.247343 0.095748 0.167053 center 8.781 34.984 -0.736 ntor 12 -80.9615 115.6141 -37.3964 6.5498 108.8202 150.8160 -125.6452 162.9092 -179.2845 180.0000 6.6366 8.0325
State:	-14.199  -5.171   1.863  -0.963  0.251  0.097 160.767    -80.96  115.61  -37.40    6.55  108.82  150.82 -125.65  162.91 -179.28  180.00    6.64    8.03

DOCKED: MODEL       43
DOCKED: USER    Run = 43
DOCKED: USER    DPF = D:/Protein_go_brrr/autodock/final/mut_D99N/heme_Co/dock.dpf
DOCKED: USER  
DOCKED: USER    Estimated Free Energy of Binding    =   -4.72 kcal/mol  [=(1)+(2)+(3)-(4)]
DOCKED: USER    Estimated Inhibition Constant, Ki   =  346.45 uM (micromolar)  [Temperature = 298.15 K]
DOCKED: USER    
DOCKED: USER    (1) Final Intermolecular Energy     =   -8.30 kcal/mol
DOCKED: USER        vdW + Hbond + desolv Energy     =   -5.56 kcal/mol
DOCKED: USER        Electrostatic Energy            =   -2.74 kcal/mol
DOCKED: USER    (2) Final Total Internal Energy     =   -1.66 kcal/mol
DOCKED: USER    (3) Torsional Free Energy           =   +3.58 kcal/mol
DOCKED: USER    (4) Unbound System's Energy  [=(2)] =   -1.66 kcal/mol
DOCKED: USER    
DOCKED: USER    
DOCKED: USER    NEWDPF move heme_Co_opt.pdbqt
DOCKED: USER    NEWDPF about 8.781000 34.984000 -0.736000
DOCKED: USER    NEWDPF tran0 -14.198705 -5.171228 1.862759
DOCKED: USER    NEWDPF quaternion0 -0.949604 0.247343 0.095748 0.167053
DOCKED: USER    NEWDPF axisangle0 -0.963138 0.250868 0.097112 160.767002
DOCKED: USER    NEWDPF quat0 -0.963138 0.250868 0.097112 160.767002
DOCKED: USER    NEWDPF dihe0 -80.96 115.61 -37.40 6.55 108.82 150.82 -125.65 162.91 -179.28 180.00 6.64 8.03 
DOCKED: USER  keepresnum = 1 
DOCKED: USER  
DOCKED: REMARK  12 active torsions:
DOCKED: REMARK  status: ('A' for Active; 'I' for Inactive)
DOCKED: REMARK    1  A    between atoms: C_6  and  C_10 
DOCKED: REMARK    2  A    between atoms: C_10  and  C_11 
DOCKED: REMARK    3  A    between atoms: C_11  and  C_12 
DOCKED: REMARK    4  A    between atoms: C_12  and  O_14 
DOCKED: REMARK    5  A    between atoms: C_17  and  C_20 
DOCKED: REMARK    6  A    between atoms: C_24  and  C_27 
DOCKED: REMARK    7  A    between atoms: C_31  and  C_34 
DOCKED: REMARK    8  A    between atoms: C_34  and  C_35 
DOCKED: REMARK    9  A    between atoms: C_35  and  C_36 
DOCKED: REMARK   10  A    between atoms: C_36  and  O_38 
DOCKED: REMARK   11  A    between atoms: FE_43  and  C_44 
DOCKED: REMARK   12  A    between atoms: C_44  and  O_45 
DOCKED: USER                              x       y       z     vdW  Elec       q    Type
DOCKED: USER                           _______ _______ _______ _____ _____    ______ ____
DOCKED: ROOT
DOCKED: ATOM      1  C   UNL d   1     -15.855  -4.381   3.024 -0.05 +0.05    +0.064 A 
DOCKED: ATOM      2  C   UNL d   1     -14.597  -3.835  -1.529 -0.15 +0.01    +0.064 C 
DOCKED: ATOM      3  C   UNL d   1     -10.602  -6.343  -0.765 -0.17 -0.01    +0.064 A 
DOCKED: ATOM      4  C   UNL d   1     -12.053  -7.241   3.790 -0.11 +0.03    +0.064 A 
DOCKED: ATOM      5  C   UNL d   1     -15.787  -4.017   1.733 -0.06 +0.05    +0.066 A 
DOCKED: ATOM      6  C   UNL d   1     -16.829  -3.313   1.098 -0.05 -0.01    -0.021 A 
DOCKED: ATOM      7  C   UNL d   1     -16.469  -3.177  -0.228 -0.07 -0.01    -0.025 A 
DOCKED: ATOM      8  C   UNL d   1     -15.216  -3.789  -0.343 -0.09 +0.02    +0.066 A 
DOCKED: ATOM      9  C   UNL d   1     -17.264  -2.501  -1.356 -0.12 +0.01    +0.051 C 
DOCKED: ATOM     10  C   UNL d   1     -13.295  -4.419  -1.738 -0.13 +0.01    +0.066 A 
DOCKED: ATOM     11  C   UNL d   1     -12.532  -4.375  -2.925 -0.24 -0.00    -0.021 A 
DOCKED: ATOM     12  C   UNL d   1     -11.370  -5.110  -2.673 -0.23 -0.00    +0.000 A 
DOCKED: ATOM     13  C   UNL d   1     -11.505  -5.537  -1.351 -0.14 +0.00    +0.070 A 
DOCKED: ATOM     14  C   UNL d   1     -12.864  -3.596  -4.172 -0.27 +0.01    +0.052 C 
DOCKED: ATOM     15  C   UNL d   1     -10.610  -6.918   0.566 -0.17 -0.00    +0.066 A 
DOCKED: ATOM     16  C   UNL d   1      -9.719  -7.860   1.060 -0.23 +0.00    -0.021 A 
DOCKED: ATOM     17  C   UNL d   1     -10.135  -8.124   2.373 -0.17 +0.00    +0.000 A 
DOCKED: ATOM     18  C   UNL d   1     -11.240  -7.306   2.582 -0.13 +0.02    +0.070 A 
DOCKED: ATOM     19  C   UNL d   1      -8.555  -8.451   0.297 -0.27 -0.03    +0.052 C 
DOCKED: ATOM     20  C   UNL d   1     -13.182  -6.519   3.986 -0.08 +0.04    +0.066 A 
DOCKED: ATOM     21  C   UNL d   1     -13.897  -6.567   5.181 -0.08 -0.01    -0.025 A 
DOCKED: ATOM     22  C   UNL d   1     -14.983  -5.730   4.999 -0.07 -0.01    -0.021 A 
DOCKED: ATOM     23  C   UNL d   1     -14.882  -5.218   3.688 -0.05 +0.06    +0.066 A 
DOCKED: ATOM     24  C   UNL d   1     -13.574  -7.386   6.428 -0.04 +0.02    +0.051 C 
DOCKED: ATOM     25  N   UNL d   1     -14.766  -4.312   0.858 -0.06 -0.17    -0.248 N 
DOCKED: ATOM     26  N   UNL d   1     -12.642  -5.071  -0.770 -0.06 -0.06    -0.248 N 
DOCKED: ATOM     27  N   UNL d   1     -11.512  -6.625   1.475 -0.09 -0.07    -0.248 N 
DOCKED: ATOM     28  N   UNL d   1     -13.795  -5.695   3.071 -0.02 -0.22    -0.248 N 
DOCKED: ATOM     29 FE   UNL d   1     -13.044  -5.537   1.188 -0.03 +0.00    +0.000 Fe
DOCKED: ENDROOT
DOCKED: BRANCH   6  30
DOCKED: ATOM     30  C   UNL d   1     -18.144  -2.870   1.731 -0.02 +0.01    +0.052 C 
DOCKED: BRANCH  30  31
DOCKED: ATOM     31  C   UNL d   1     -18.011  -1.464   2.317 -0.03 +0.03    +0.115 C 
DOCKED: BRANCH  31  32
DOCKED: ATOM     32  C   UNL d   1     -16.619  -0.896   2.144 -0.09 +0.07    +0.139 C 
DOCKED: ATOM     33  O   UNL d   1     -16.421  -0.039   1.296 +0.01 -0.24    -0.650 OA
DOCKED: BRANCH  32  34
DOCKED: ATOM     34  O   UNL d   1     -15.587  -1.272   2.935 -0.10 -0.84    -0.776 OA
DOCKED: ATOM     35  H   UNL d   1     -15.391  -0.878   3.796 +0.02 +0.19    +0.167 HD
DOCKED: ENDBRANCH  32  34
DOCKED: ENDBRANCH  31  32
DOCKED: ENDBRANCH  30  31
DOCKED: ENDBRANCH   6  30
DOCKED: BRANCH  29  36
DOCKED: ATOM     36  C   UNL d   1     -14.215  -7.158   0.560 -0.01 +0.03    +0.190 C 
DOCKED: BRANCH  36  37
DOCKED: ATOM     37  O   UNL d   1     -15.510  -7.510   0.164 +0.00 -0.04    -0.399 OA
DOCKED: ATOM     38  H   UNL d   1     -16.022  -6.654   0.171 +0.01 +0.03    +0.209 HD
DOCKED: ENDBRANCH  36  37
DOCKED: ENDBRANCH  29  36
DOCKED: BRANCH  22  39
DOCKED: ATOM     39  C   UNL d   1     -16.088  -5.490   6.011 -0.02 +0.02    +0.052 C 
DOCKED: BRANCH  39  40
DOCKED: ATOM     40  C   UNL d   1     -15.992  -4.071   6.594 -0.03 +0.06    +0.115 C 
DOCKED: BRANCH  40  41
DOCKED: ATOM     41  C   UNL d   1     -14.773  -3.292   6.146 +0.06 +0.16    +0.139 C 
DOCKED: ATOM     42  O   UNL d   1     -13.659  -3.739   6.381 -0.47 -0.92    -0.650 OA
DOCKED: BRANCH  41  43
DOCKED: ATOM     43  O   UNL d   1     -14.881  -2.160   5.417 -0.11 -1.24    -0.776 OA
DOCKED: ATOM     44  H   UNL d   1     -15.604  -2.011   4.793 +0.01 +0.20    +0.167 HD
DOCKED: ENDBRANCH  41  43
DOCKED: ENDBRANCH  40  41
DOCKED: ENDBRANCH  39  40
DOCKED: ENDBRANCH  22  39
DOCKED: BRANCH  12  45
DOCKED: ATOM     45  C   UNL d   1     -10.147  -5.442  -3.518 -0.39 -0.00    +0.004 C 
DOCKED: ATOM     46  C   UNL d   1      -9.859  -5.138  -4.780 -0.51 -0.00    +0.012 C 
DOCKED: ENDBRANCH  12  45
DOCKED: BRANCH  17  47
DOCKED: ATOM     47  C   UNL d   1      -9.595  -9.099   3.367 -0.16 +0.00    +0.004 C 
DOCKED: ATOM     48  C   UNL d   1      -8.591  -8.820   4.202 -0.28 +0.00    +0.012 C 
DOCKED: ENDBRANCH  17  47
DOCKED: TORSDOF 12
DOCKED: TER
DOCKED: ENDMDL
________________________________________________________________________________


	BEGINNING GENETIC ALGORITHM DOCKING 44 of 100
Run: 44 Seed: 842460220 1826438390 [ Run 44 of 100 GA/GALS ]
Beginning LAMARCKIAN GENETIC ALGORITHM (LGA), with a maximum of 25000000 energy evaluations.

Final-Value: -8.764


	FINAL GENETIC ALGORITHM DOCKED STATE
	_______________________________________________


Detailed state:  trans 19.549 -3.302 2.540 quatxyzw 0.516141 0.237586 -0.777388 0.269850 center 8.781 34.984 -0.736 ntor 12 68.7886 -5.1989 -57.0174 -92.5368 122.8233 -71.2084 104.5264 -81.3591 0.0745 -22.6477 8.4222 -16.6930
State:	 19.549  -3.302   2.540   0.536  0.247 -0.807 148.689     68.79   -5.20  -57.02  -92.54  122.82  -71.21  104.53  -81.36    0.07  -22.65    8.42  -16.69

DOCKED: MODEL       44
DOCKED: USER    Run = 44
DOCKED: USER    DPF = D:/Protein_go_brrr/autodock/final/mut_D99N/heme_Co/dock.dpf
DOCKED: USER  
DOCKED: USER    Estimated Free Energy of Binding    =   -4.71 kcal/mol  [=(1)+(2)+(3)-(4)]
DOCKED: USER    Estimated Inhibition Constant, Ki   =  353.61 uM (micromolar)  [Temperature = 298.15 K]
DOCKED: USER    
DOCKED: USER    (1) Final Intermolecular Energy     =   -8.29 kcal/mol
DOCKED: USER        vdW + Hbond + desolv Energy     =   -6.91 kcal/mol
DOCKED: USER        Electrostatic Energy            =   -1.38 kcal/mol
DOCKED: USER    (2) Final Total Internal Energy     =   -0.48 kcal/mol
DOCKED: USER    (3) Torsional Free Energy           =   +3.58 kcal/mol
DOCKED: USER    (4) Unbound System's Energy  [=(2)] =   -0.48 kcal/mol
DOCKED: USER    
DOCKED: USER    
DOCKED: USER    NEWDPF move heme_Co_opt.pdbqt
DOCKED: USER    NEWDPF about 8.781000 34.984000 -0.736000
DOCKED: USER    NEWDPF tran0 19.548837 -3.302069 2.540232
DOCKED: USER    NEWDPF quaternion0 0.516141 0.237586 -0.777388 0.269850
DOCKED: USER    NEWDPF axisangle0 0.536027 0.246740 -0.807338 148.689290
DOCKED: USER    NEWDPF quat0 0.536027 0.246740 -0.807338 148.689290
DOCKED: USER    NEWDPF dihe0 68.79 -5.20 -57.02 -92.54 122.82 -71.21 104.53 -81.36 0.07 -22.65 8.42 -16.69 
DOCKED: USER  keepresnum = 1 
DOCKED: USER  
DOCKED: REMARK  12 active torsions:
DOCKED: REMARK  status: ('A' for Active; 'I' for Inactive)
DOCKED: REMARK    1  A    between atoms: C_6  and  C_10 
DOCKED: REMARK    2  A    between atoms: C_10  and  C_11 
DOCKED: REMARK    3  A    between atoms: C_11  and  C_12 
DOCKED: REMARK    4  A    between atoms: C_12  and  O_14 
DOCKED: REMARK    5  A    between atoms: C_17  and  C_20 
DOCKED: REMARK    6  A    between atoms: C_24  and  C_27 
DOCKED: REMARK    7  A    between atoms: C_31  and  C_34 
DOCKED: REMARK    8  A    between atoms: C_34  and  C_35 
DOCKED: REMARK    9  A    between atoms: C_35  and  C_36 
DOCKED: REMARK   10  A    between atoms: C_36  and  O_38 
DOCKED: REMARK   11  A    between atoms: FE_43  and  C_44 
DOCKED: REMARK   12  A    between atoms: C_44  and  O_45 
DOCKED: USER                              x       y       z     vdW  Elec       q    Type
DOCKED: USER                           _______ _______ _______ _____ _____    ______ ____
DOCKED: ROOT
DOCKED: ATOM      1  C   UNL d   1      20.875  -4.881   3.220 -0.20 +0.01    +0.064 A 
DOCKED: ATOM      2  C   UNL d   1      17.458  -2.411   5.418 -0.25 -0.00    +0.064 C 
DOCKED: ATOM      3  C   UNL d   1      16.882   0.317   1.539 -0.11 -0.00    +0.064 A 
DOCKED: ATOM      4  C   UNL d   1      20.097  -2.436  -0.859 -0.14 -0.00    +0.064 A 
DOCKED: ATOM      5  C   UNL d   1      20.009  -4.383   4.118 -0.12 +0.01    +0.066 A 
DOCKED: ATOM      6  C   UNL d   1      19.826  -4.971   5.385 -0.14 -0.00    -0.021 A 
DOCKED: ATOM      7  C   UNL d   1      18.817  -4.265   6.010 -0.13 -0.00    -0.025 A 
DOCKED: ATOM      8  C   UNL d   1      18.439  -3.266   5.105 -0.15 +0.00    +0.066 A 
DOCKED: ATOM      9  C   UNL d   1      18.220  -4.508   7.404 -0.16 -0.00    +0.051 C 
DOCKED: ATOM     10  C   UNL d   1      17.020  -1.337   4.563 -0.20 -0.00    +0.066 A 
DOCKED: ATOM     11  C   UNL d   1      16.094  -0.322   4.890 -0.24 +0.00    -0.021 A 
DOCKED: ATOM     12  C   UNL d   1      15.948   0.462   3.742 -0.19 -0.00    +0.000 A 
DOCKED: ATOM     13  C   UNL d   1      16.802  -0.123   2.807 -0.13 -0.00    +0.070 A 
DOCKED: ATOM     14  C   UNL d   1      15.477  -0.080   6.243 -0.25 +0.00    +0.052 C 
DOCKED: ATOM     15  C   UNL d   1      17.667  -0.198   0.434 -0.11 -0.00    +0.066 A 
DOCKED: ATOM     16  C   UNL d   1      17.595   0.214  -0.889 -0.15 +0.00    -0.021 A 
DOCKED: ATOM     17  C   UNL d   1      18.518  -0.579  -1.585 -0.18 -0.00    +0.000 A 
DOCKED: ATOM     18  C   UNL d   1      19.096  -1.403  -0.625 -0.12 -0.01    +0.070 A 
DOCKED: ATOM     19  C   UNL d   1      16.687   1.300  -1.422 -0.13 -0.01    +0.052 C 
DOCKED: ATOM     20  C   UNL d   1      20.609  -3.307   0.043 -0.14 -0.00    +0.066 A 
DOCKED: ATOM     21  C   UNL d   1      21.541  -4.281  -0.309 -0.16 -0.00    -0.025 A 
DOCKED: ATOM     22  C   UNL d   1      21.806  -4.982   0.853 -0.21 -0.00    -0.021 A 
DOCKED: ATOM     23  C   UNL d   1      21.007  -4.405   1.862 -0.20 +0.01    +0.066 A 
DOCKED: ATOM     24  C   UNL d   1      22.136  -4.544  -1.690 -0.17 +0.00    +0.051 C 
DOCKED: ATOM     25  N   UNL d   1      19.166  -3.313   3.927 -0.11 -0.01    -0.248 N 
DOCKED: ATOM     26  N   UNL d   1      17.491  -1.176   3.322 -0.10 +0.01    -0.248 N 
DOCKED: ATOM     27  N   UNL d   1      18.543  -1.170   0.560 -0.05 +0.02    -0.248 N 
DOCKED: ATOM     28  N   UNL d   1      20.279  -3.392   1.376 -0.10 +0.00    -0.248 N 
DOCKED: ATOM     29 FE   UNL d   1      18.839  -2.179   2.142 -0.03 -0.00    +0.000 Fe
DOCKED: ENDROOT
DOCKED: BRANCH   6  30
DOCKED: ATOM     30  C   UNL d   1      20.537  -6.207   5.926 -0.21 +0.02    +0.052 C 
DOCKED: BRANCH  30  31
DOCKED: ATOM     31  C   UNL d   1      21.786  -5.808   6.710 -0.11 +0.04    +0.115 C 
DOCKED: BRANCH  31  32
DOCKED: ATOM     32  C   UNL d   1      22.502  -7.002   7.304 -0.04 +0.08    +0.139 C 
DOCKED: ATOM     33  O   UNL d   1      21.874  -8.025   7.535 -0.02 -0.35    -0.650 OA
DOCKED: BRANCH  32  34
DOCKED: ATOM     34  O   UNL d   1      23.833  -6.994   7.545 -0.01 -0.55    -0.776 OA
DOCKED: ATOM     35  H   UNL d   1      24.266  -6.414   8.186 +0.01 +0.08    +0.167 HD
DOCKED: ENDBRANCH  32  34
DOCKED: ENDBRANCH  31  32
DOCKED: ENDBRANCH  30  31
DOCKED: ENDBRANCH   6  30
DOCKED: BRANCH  29  36
DOCKED: ATOM     36  C   UNL d   1      17.362  -3.585   1.655 -0.20 -0.05    +0.190 C 
DOCKED: BRANCH  36  37
DOCKED: ATOM     37  O   UNL d   1      16.050  -3.706   1.187 -0.27 +0.09    -0.399 OA
DOCKED: ATOM     38  H   UNL d   1      15.555  -4.161   1.924 -0.33 -0.06    +0.209 HD
DOCKED: ENDBRANCH  36  37
DOCKED: ENDBRANCH  29  36
DOCKED: BRANCH  22  39
DOCKED: ATOM     39  C   UNL d   1      22.728  -6.182   0.965 -0.13 +0.01    +0.052 C 
DOCKED: BRANCH  39  40
DOCKED: ATOM     40  C   UNL d   1      24.185  -5.731   1.156 -0.11 +0.03    +0.115 C 
DOCKED: BRANCH  40  41
DOCKED: ATOM     41  C   UNL d   1      25.048  -6.713   1.920 -0.10 +0.07    +0.139 C 
DOCKED: ATOM     42  O   UNL d   1      25.156  -7.860   1.510 -0.04 -0.40    -0.650 OA
DOCKED: BRANCH  41  43
DOCKED: ATOM     43  O   UNL d   1      25.774  -6.333   2.995 -0.01 -0.47    -0.776 OA
DOCKED: ATOM     44  H   UNL d   1      26.365  -5.569   2.979 +0.01 +0.06    +0.167 HD
DOCKED: ENDBRANCH  41  43
DOCKED: ENDBRANCH  40  41
DOCKED: ENDBRANCH  39  40
DOCKED: ENDBRANCH  22  39
DOCKED: BRANCH  12  45
DOCKED: ATOM     45  C   UNL d   1      15.119   1.701   3.429 -0.20 +0.00    +0.004 C 
DOCKED: ATOM     46  C   UNL d   1      13.970   1.830   2.772 -0.30 +0.00    +0.012 C 
DOCKED: ENDBRANCH  12  45
DOCKED: BRANCH  17  47
DOCKED: ATOM     47  C   UNL d   1      18.827  -0.626  -3.046 -0.28 -0.00    +0.004 C 
DOCKED: ATOM     48  C   UNL d   1      19.892  -0.036  -3.594 -0.18 -0.00    +0.012 C 
DOCKED: ENDBRANCH  17  47
DOCKED: TORSDOF 12
DOCKED: TER
DOCKED: ENDMDL
________________________________________________________________________________


	BEGINNING GENETIC ALGORITHM DOCKING 45 of 100
Run: 45 Seed: 540793842 260506268 [ Run 45 of 100 GA/GALS ]
Beginning LAMARCKIAN GENETIC ALGORITHM (LGA), with a maximum of 25000000 energy evaluations.

Final-Value: -9.735


	FINAL GENETIC ALGORITHM DOCKED STATE
	_______________________________________________


Detailed state:  trans 19.821 -3.860 2.829 quatxyzw -0.376658 -0.824634 -0.422020 0.002694 center 8.781 34.984 -0.736 ntor 12 -10.4321 113.7160 92.0337 117.7095 -91.4561 137.5723 32.3106 98.3105 179.1953 82.3127 -176.8179 -180.0000
State:	 19.821  -3.860   2.829  -0.377 -0.825 -0.422 179.691    -10.43  113.72   92.03  117.71  -91.46  137.57   32.31   98.31  179.20   82.31 -176.82 -180.00

DOCKED: MODEL       45
DOCKED: USER    Run = 45
DOCKED: USER    DPF = D:/Protein_go_brrr/autodock/final/mut_D99N/heme_Co/dock.dpf
DOCKED: USER  
DOCKED: USER    Estimated Free Energy of Binding    =   -3.36 kcal/mol  [=(1)+(2)+(3)-(4)]
DOCKED: USER    Estimated Inhibition Constant, Ki   =    3.44 mM (millimolar)  [Temperature = 298.15 K]
DOCKED: USER    
DOCKED: USER    (1) Final Intermolecular Energy     =   -6.94 kcal/mol
DOCKED: USER        vdW + Hbond + desolv Energy     =   -6.17 kcal/mol
DOCKED: USER        Electrostatic Energy            =   -0.77 kcal/mol
DOCKED: USER    (2) Final Total Internal Energy     =   -2.79 kcal/mol
DOCKED: USER    (3) Torsional Free Energy           =   +3.58 kcal/mol
DOCKED: USER    (4) Unbound System's Energy  [=(2)] =   -2.79 kcal/mol
DOCKED: USER    
DOCKED: USER    
DOCKED: USER    NEWDPF move heme_Co_opt.pdbqt
DOCKED: USER    NEWDPF about 8.781000 34.984000 -0.736000
DOCKED: USER    NEWDPF tran0 19.821397 -3.860423 2.828739
DOCKED: USER    NEWDPF quaternion0 -0.376658 -0.824634 -0.422020 0.002694
DOCKED: USER    NEWDPF axisangle0 -0.376660 -0.824637 -0.422021 179.691339
DOCKED: USER    NEWDPF quat0 -0.376660 -0.824637 -0.422021 179.691339
DOCKED: USER    NEWDPF dihe0 -10.43 113.72 92.03 117.71 -91.46 137.57 32.31 98.31 179.20 82.31 -176.82 -180.00 
DOCKED: USER  keepresnum = 1 
DOCKED: USER  
DOCKED: REMARK  12 active torsions:
DOCKED: REMARK  status: ('A' for Active; 'I' for Inactive)
DOCKED: REMARK    1  A    between atoms: C_6  and  C_10 
DOCKED: REMARK    2  A    between atoms: C_10  and  C_11 
DOCKED: REMARK    3  A    between atoms: C_11  and  C_12 
DOCKED: REMARK    4  A    between atoms: C_12  and  O_14 
DOCKED: REMARK    5  A    between atoms: C_17  and  C_20 
DOCKED: REMARK    6  A    between atoms: C_24  and  C_27 
DOCKED: REMARK    7  A    between atoms: C_31  and  C_34 
DOCKED: REMARK    8  A    between atoms: C_34  and  C_35 
DOCKED: REMARK    9  A    between atoms: C_35  and  C_36 
DOCKED: REMARK   10  A    between atoms: C_36  and  O_38 
DOCKED: REMARK   11  A    between atoms: FE_43  and  C_44 
DOCKED: REMARK   12  A    between atoms: C_44  and  O_45 
DOCKED: USER                              x       y       z     vdW  Elec       q    Type
DOCKED: USER                           _______ _______ _______ _____ _____    ______ ____
DOCKED: ROOT
DOCKED: ATOM      1  C   UNL d   1      21.242  -5.477   3.118 +0.24 +0.02    +0.064 A 
DOCKED: ATOM      2  C   UNL d   1      19.898  -3.058  -0.749 -0.24 -0.01    +0.064 C 
DOCKED: ATOM      3  C   UNL d   1      16.608  -0.722   1.810 +0.05 -0.00    +0.064 A 
DOCKED: ATOM      4  C   UNL d   1      18.223  -2.899   5.849 -0.15 -0.00    +0.064 A 
DOCKED: ATOM      5  C   UNL d   1      21.092  -5.014   1.866 -0.21 +0.01    +0.066 A 
DOCKED: ATOM      6  C   UNL d   1      21.940  -5.413   0.814 -0.21 -0.00    -0.021 A 
DOCKED: ATOM      7  C   UNL d   1      21.560  -4.691  -0.300 -0.19 -0.00    -0.025 A 
DOCKED: ATOM      8  C   UNL d   1      20.487  -3.895   0.115 -0.20 -0.00    +0.066 A 
DOCKED: ATOM      9  C   UNL d   1      22.174  -4.738  -1.707 -0.17 +0.00    +0.051 C 
DOCKED: ATOM     10  C   UNL d   1      18.772  -2.220  -0.420 -0.19 -0.01    +0.066 A 
DOCKED: ATOM     11  C   UNL d   1      18.022  -1.426  -1.315 -0.26 +0.00    -0.021 A 
DOCKED: ATOM     12  C   UNL d   1      17.066  -0.759  -0.543 -0.26 -0.00    +0.000 A 
DOCKED: ATOM     13  C   UNL d   1      17.296  -1.203   0.759 -0.18 -0.01    +0.070 A 
DOCKED: ATOM     14  C   UNL d   1      18.163  -1.396  -2.815 -0.36 -0.01    +0.052 C 
DOCKED: ATOM     15  C   UNL d   1      16.749  -1.029   3.220 -0.19 -0.00    +0.066 A 
DOCKED: ATOM     16  C   UNL d   1      16.105  -0.388   4.270 -0.24 +0.00    -0.021 A 
DOCKED: ATOM     17  C   UNL d   1      16.570  -1.011   5.437 -0.24 -0.00    +0.000 A 
DOCKED: ATOM     18  C   UNL d   1      17.450  -1.997   5.004 -0.20 -0.00    +0.070 A 
DOCKED: ATOM     19  C   UNL d   1      15.115   0.746   4.130 -0.27 -0.00    +0.052 C 
DOCKED: ATOM     20  C   UNL d   1      19.149  -3.807   5.456 -0.12 +0.01    +0.066 A 
DOCKED: ATOM     21  C   UNL d   1      19.853  -4.592   6.366 -0.12 -0.00    -0.025 A 
DOCKED: ATOM     22  C   UNL d   1      20.710  -5.366   5.605 -0.18 -0.01    -0.021 A 
DOCKED: ATOM     23  C   UNL d   1      20.493  -5.003   4.259 -0.18 +0.01    +0.066 A 
DOCKED: ATOM     24  C   UNL d   1      19.730  -4.592   7.887 -0.06 +0.00    +0.051 C 
DOCKED: ATOM     25  N   UNL d   1      20.172  -4.079   1.450 -0.15 +0.01    -0.248 N 
DOCKED: ATOM     26  N   UNL d   1      18.290  -2.129   0.824 -0.11 +0.03    -0.248 N 
DOCKED: ATOM     27  N   UNL d   1      17.555  -1.958   3.681 -0.14 +0.02    -0.248 N 
DOCKED: ATOM     28  N   UNL d   1      19.551  -4.057   4.165 -0.12 -0.03    -0.248 N 
DOCKED: ATOM     29 FE   UNL d   1      18.787  -2.958   2.634 -0.05 -0.00    +0.000 Fe
DOCKED: ENDROOT
DOCKED: BRANCH   6  30
DOCKED: ATOM     30  C   UNL d   1      23.112  -6.385   0.910 -0.16 +0.02    +0.052 C 
DOCKED: BRANCH  30  31
DOCKED: ATOM     31  C   UNL d   1      24.414  -5.631   1.178 -0.10 +0.03    +0.115 C 
DOCKED: BRANCH  31  32
DOCKED: ATOM     32  C   UNL d   1      24.216  -4.131   1.213 -0.04 +0.02    +0.139 C 
DOCKED: ATOM     33  O   UNL d   1      24.454  -3.470   0.214 +0.02 -0.07    -0.650 OA
DOCKED: BRANCH  32  34
DOCKED: ATOM     34  O   UNL d   1      23.735  -3.496   2.308 +0.03 -0.12    -0.776 OA
DOCKED: ATOM     35  H   UNL d   1      23.301  -3.942   3.048 +0.02 +0.03    +0.167 HD
DOCKED: ENDBRANCH  32  34
DOCKED: ENDBRANCH  31  32
DOCKED: ENDBRANCH  30  31
DOCKED: ENDBRANCH   6  30
DOCKED: BRANCH  29  36
DOCKED: ATOM     36  C   UNL d   1      20.309  -1.535   2.866 -0.03 +0.00    +0.190 C 
DOCKED: BRANCH  36  37
DOCKED: ATOM     37  O   UNL d   1      21.690  -1.351   2.742 +0.00 -0.02    -0.399 OA
DOCKED: ATOM     38  H   UNL d   1      22.038  -2.229   2.422 +0.02 +0.01    +0.209 HD
DOCKED: ENDBRANCH  36  37
DOCKED: ENDBRANCH  29  36
DOCKED: BRANCH  22  39
DOCKED: ATOM     39  C   UNL d   1      21.726  -6.352   6.153 -0.15 +0.02    +0.052 C 
DOCKED: BRANCH  39  40
DOCKED: ATOM     40  C   UNL d   1      22.974  -5.615   6.666 -0.08 +0.05    +0.115 C 
DOCKED: BRANCH  40  41
DOCKED: ATOM     41  C   UNL d   1      24.170  -5.693   5.741 -0.02 +0.09    +0.139 C 
DOCKED: ATOM     42  O   UNL d   1      25.226  -6.141   6.164 -0.04 -0.51    -0.650 OA
DOCKED: BRANCH  41  43
DOCKED: ATOM     43  O   UNL d   1      24.079  -5.361   4.434 +0.00 -0.41    -0.776 OA
DOCKED: ATOM     44  H   UNL d   1      24.350  -4.497   4.098 +0.02 +0.05    +0.167 HD
DOCKED: ENDBRANCH  41  43
DOCKED: ENDBRANCH  40  41
DOCKED: ENDBRANCH  39  40
DOCKED: ENDBRANCH  22  39
DOCKED: BRANCH  12  45
DOCKED: ATOM     45  C   UNL d   1      15.958   0.227  -0.886 -0.29 -0.00    +0.004 C 
DOCKED: ATOM     46  C   UNL d   1      14.636   0.078  -0.885 -0.34 -0.00    +0.012 C 
DOCKED: ENDBRANCH  12  45
DOCKED: BRANCH  17  47
DOCKED: ATOM     47  C   UNL d   1      16.273  -0.700   6.867 -0.22 +0.00    +0.004 C 
DOCKED: ATOM     48  C   UNL d   1      17.183  -0.227   7.723 -0.12 +0.00    +0.012 C 
DOCKED: ENDBRANCH  17  47
DOCKED: TORSDOF 12
DOCKED: TER
DOCKED: ENDMDL
________________________________________________________________________________


	BEGINNING GENETIC ALGORITHM DOCKING 46 of 100
Run: 46 Seed: 531360784 1198345743 [ Run 46 of 100 GA/GALS ]
Beginning LAMARCKIAN GENETIC ALGORITHM (LGA), with a maximum of 25000000 energy evaluations.

Final-Value: -11.376


	FINAL GENETIC ALGORITHM DOCKED STATE
	_______________________________________________


Detailed state:  trans -9.700 16.302 -6.065 quatxyzw -0.580969 -0.129458 0.542454 0.592840 center 8.781 34.984 -0.736 ntor 12 176.1629 147.9136 86.7154 84.2344 -79.8199 141.0822 -132.7081 -24.0957 -85.7213 99.8115 -173.5702 -151.6019
State:	 -9.700  16.302  -6.065  -0.721 -0.161  0.674 107.282    176.16  147.91   86.72   84.23  -79.82  141.08 -132.71  -24.10  -85.72   99.81 -173.57 -151.60

DOCKED: MODEL       46
DOCKED: USER    Run = 46
DOCKED: USER    DPF = D:/Protein_go_brrr/autodock/final/mut_D99N/heme_Co/dock.dpf
DOCKED: USER  
DOCKED: USER    Estimated Free Energy of Binding    =   -5.37 kcal/mol  [=(1)+(2)+(3)-(4)]
DOCKED: USER    Estimated Inhibition Constant, Ki   =  115.00 uM (micromolar)  [Temperature = 298.15 K]
DOCKED: USER    
DOCKED: USER    (1) Final Intermolecular Energy     =   -8.95 kcal/mol
DOCKED: USER        vdW + Hbond + desolv Energy     =   -7.02 kcal/mol
DOCKED: USER        Electrostatic Energy            =   -1.94 kcal/mol
DOCKED: USER    (2) Final Total Internal Energy     =   -2.42 kcal/mol
DOCKED: USER    (3) Torsional Free Energy           =   +3.58 kcal/mol
DOCKED: USER    (4) Unbound System's Energy  [=(2)] =   -2.42 kcal/mol
DOCKED: USER    
DOCKED: USER    
DOCKED: USER    NEWDPF move heme_Co_opt.pdbqt
DOCKED: USER    NEWDPF about 8.781000 34.984000 -0.736000
DOCKED: USER    NEWDPF tran0 -9.699831 16.302130 -6.064890
DOCKED: USER    NEWDPF quaternion0 -0.580969 -0.129458 0.542454 0.592840
DOCKED: USER    NEWDPF axisangle0 -0.721413 -0.160753 0.673588 107.282383
DOCKED: USER    NEWDPF quat0 -0.721413 -0.160753 0.673588 107.282383
DOCKED: USER    NEWDPF dihe0 176.16 147.91 86.72 84.23 -79.82 141.08 -132.71 -24.10 -85.72 99.81 -173.57 -151.60 
DOCKED: USER  keepresnum = 1 
DOCKED: USER  
DOCKED: REMARK  12 active torsions:
DOCKED: REMARK  status: ('A' for Active; 'I' for Inactive)
DOCKED: REMARK    1  A    between atoms: C_6  and  C_10 
DOCKED: REMARK    2  A    between atoms: C_10  and  C_11 
DOCKED: REMARK    3  A    between atoms: C_11  and  C_12 
DOCKED: REMARK    4  A    between atoms: C_12  and  O_14 
DOCKED: REMARK    5  A    between atoms: C_17  and  C_20 
DOCKED: REMARK    6  A    between atoms: C_24  and  C_27 
DOCKED: REMARK    7  A    between atoms: C_31  and  C_34 
DOCKED: REMARK    8  A    between atoms: C_34  and  C_35 
DOCKED: REMARK    9  A    between atoms: C_35  and  C_36 
DOCKED: REMARK   10  A    between atoms: C_36  and  O_38 
DOCKED: REMARK   11  A    between atoms: FE_43  and  C_44 
DOCKED: REMARK   12  A    between atoms: C_44  and  O_45 
DOCKED: USER                              x       y       z     vdW  Elec       q    Type
DOCKED: USER                           _______ _______ _______ _____ _____    ______ ____
DOCKED: ROOT
DOCKED: ATOM      1  C   UNL d   1      -9.630  17.829  -4.522 -0.01 +0.01    +0.064 A 
DOCKED: ATOM      2  C   UNL d   1     -13.046  14.812  -5.879 -0.21 -0.00    +0.064 C 
DOCKED: ATOM      3  C   UNL d   1     -10.314  13.284  -9.489 -0.18 -0.01    +0.064 A 
DOCKED: ATOM      4  C   UNL d   1      -6.665  16.077  -7.893 -0.11 +0.00    +0.064 A 
DOCKED: ATOM      5  C   UNL d   1     -10.778  17.143  -4.650 -0.03 +0.00    +0.066 A 
DOCKED: ATOM      6  C   UNL d   1     -11.827  17.262  -3.718 -0.05 -0.00    -0.021 A 
DOCKED: ATOM      7  C   UNL d   1     -12.806  16.368  -4.103 -0.12 -0.00    -0.025 A 
DOCKED: ATOM      8  C   UNL d   1     -12.320  15.754  -5.263 -0.12 -0.00    +0.066 A 
DOCKED: ATOM      9  C   UNL d   1     -14.153  16.091  -3.417 -0.17 -0.00    +0.051 C 
DOCKED: ATOM     10  C   UNL d   1     -12.640  14.145  -7.091 -0.18 -0.01    +0.066 A 
DOCKED: ATOM     11  C   UNL d   1     -13.415  13.252  -7.863 -0.25 +0.00    -0.021 A 
DOCKED: ATOM     12  C   UNL d   1     -12.595  12.825  -8.911 -0.27 -0.00    +0.000 A 
DOCKED: ATOM     13  C   UNL d   1     -11.389  13.496  -8.709 -0.19 -0.01    +0.070 A 
DOCKED: ATOM     14  C   UNL d   1     -14.869  12.919  -7.649 -0.27 -0.01    +0.052 C 
DOCKED: ATOM     15  C   UNL d   1      -8.982  13.848  -9.393 -0.20 -0.00    +0.066 A 
DOCKED: ATOM     16  C   UNL d   1      -7.875  13.477 -10.143 -0.25 +0.00    -0.021 A 
DOCKED: ATOM     17  C   UNL d   1      -6.820  14.278  -9.685 -0.18 -0.00    +0.000 A 
DOCKED: ATOM     18  C   UNL d   1      -7.372  15.090  -8.699 -0.13 +0.00    +0.070 A 
DOCKED: ATOM     19  C   UNL d   1      -7.862  12.418 -11.222 -0.32 -0.01    +0.052 C 
DOCKED: ATOM     20  C   UNL d   1      -7.161  16.815  -6.872 -0.09 +0.01    +0.066 A 
DOCKED: ATOM     21  C   UNL d   1      -6.373  17.707  -6.147 -0.07 -0.00    -0.025 A 
DOCKED: ATOM     22  C   UNL d   1      -7.208  18.248  -5.187 -0.04 -0.00    -0.021 A 
DOCKED: ATOM     23  C   UNL d   1      -8.472  17.646  -5.367 -0.03 +0.01    +0.066 A 
DOCKED: ATOM     24  C   UNL d   1      -4.891  18.013  -6.346 -0.05 +0.01    +0.051 C 
DOCKED: ATOM     25  N   UNL d   1     -11.068  16.219  -5.627 -0.02 -0.01    -0.248 N 
DOCKED: ATOM     26  N   UNL d   1     -11.436  14.336  -7.641 -0.08 +0.02    -0.248 N 
DOCKED: ATOM     27  N   UNL d   1      -8.654  14.785  -8.531 -0.08 +0.00    -0.248 N 
DOCKED: ATOM     28  N   UNL d   1      -8.447  16.777  -6.384 -0.03 -0.02    -0.248 N 
DOCKED: ATOM     29 FE   UNL d   1      -9.787  15.462  -7.165 -0.03 +0.00    +0.000 Fe
DOCKED: ENDROOT
DOCKED: BRANCH   6  30
DOCKED: ATOM     30  C   UNL d   1     -11.840  18.140  -2.470 -0.03 +0.00    +0.052 C 
DOCKED: BRANCH  30  31
DOCKED: ATOM     31  C   UNL d   1     -11.272  17.380  -1.273 -0.07 +0.02    +0.115 C 
DOCKED: BRANCH  31  32
DOCKED: ATOM     32  C   UNL d   1      -9.785  17.604  -1.099 -0.10 +0.06    +0.139 C 
DOCKED: ATOM     33  O   UNL d   1      -9.392  18.437  -0.296 -0.01 -0.35    -0.650 OA
DOCKED: BRANCH  32  34
DOCKED: ATOM     34  O   UNL d   1      -8.866  16.874  -1.774 +0.03 -0.50    -0.776 OA
DOCKED: ATOM     35  H   UNL d   1      -7.917  17.061  -1.774 +0.03 +0.17    +0.167 HD
DOCKED: ENDBRANCH  32  34
DOCKED: ENDBRANCH  31  32
DOCKED: ENDBRANCH  30  31
DOCKED: ENDBRANCH   6  30
DOCKED: BRANCH  29  36
DOCKED: ATOM     36  C   UNL d   1      -9.188  13.998  -5.788 -0.34 +0.01    +0.190 C 
DOCKED: BRANCH  36  37
DOCKED: ATOM     37  O   UNL d   1      -9.228  13.662  -4.431 -0.23 +0.00    -0.399 OA
DOCKED: ATOM     38  H   UNL d   1     -10.111  13.996  -4.110 -0.10 -0.02    +0.209 HD
DOCKED: ENDBRANCH  36  37
DOCKED: ENDBRANCH  29  36
DOCKED: BRANCH  22  39
DOCKED: ATOM     39  C   UNL d   1      -6.792  19.240  -4.117 -0.02 +0.01    +0.052 C 
DOCKED: BRANCH  39  40
DOCKED: ATOM     40  C   UNL d   1      -5.537  18.746  -3.378 -0.05 +0.04    +0.115 C 
DOCKED: BRANCH  40  41
DOCKED: ATOM     41  C   UNL d   1      -5.820  17.809  -2.223 -0.05 +0.11    +0.139 C 
DOCKED: ATOM     42  O   UNL d   1      -5.450  16.646  -2.291 -0.90 -0.68    -0.650 OA
DOCKED: BRANCH  41  43
DOCKED: ATOM     43  O   UNL d   1      -6.393  18.245  -1.079 -0.36 -0.98    -0.776 OA
DOCKED: ATOM     44  H   UNL d   1      -7.347  18.214  -0.932 +0.01 +0.20    +0.167 HD
DOCKED: ENDBRANCH  41  43
DOCKED: ENDBRANCH  40  41
DOCKED: ENDBRANCH  39  40
DOCKED: ENDBRANCH  22  39
DOCKED: BRANCH  12  45
DOCKED: ATOM     45  C   UNL d   1     -12.818  11.880 -10.084 -0.34 -0.00    +0.004 C 
DOCKED: ATOM     46  C   UNL d   1     -13.486  12.053 -11.221 -0.32 -0.01    +0.012 C 
DOCKED: ENDBRANCH  12  45
DOCKED: BRANCH  17  47
DOCKED: ATOM     47  C   UNL d   1      -5.379  14.276 -10.080 -0.17 -0.00    +0.004 C 
DOCKED: ATOM     48  C   UNL d   1      -4.416  13.707  -9.351 -0.27 -0.00    +0.012 C 
DOCKED: ENDBRANCH  17  47
DOCKED: TORSDOF 12
DOCKED: TER
DOCKED: ENDMDL
________________________________________________________________________________


	BEGINNING GENETIC ALGORITHM DOCKING 47 of 100
Run: 47 Seed: 1622515647 1029593348 [ Run 47 of 100 GA/GALS ]
Beginning LAMARCKIAN GENETIC ALGORITHM (LGA), with a maximum of 25000000 energy evaluations.

Final-Value: -9.191


	FINAL GENETIC ALGORITHM DOCKED STATE
	_______________________________________________


Detailed state:  trans -9.543 -4.871 13.392 quatxyzw -0.644611 0.251928 0.713500 -0.109208 center 8.781 34.984 -0.736 ntor 12 63.1837 125.9882 -38.7010 39.6539 97.4539 102.2411 37.2333 -29.0454 156.7204 -130.1534 -160.8393 133.2299
State:	 -9.543  -4.871  13.392  -0.648  0.253  0.718 -167.461     63.18  125.99  -38.70   39.65   97.45  102.24   37.23  -29.05  156.72 -130.15 -160.84  133.23

DOCKED: MODEL       47
DOCKED: USER    Run = 47
DOCKED: USER    DPF = D:/Protein_go_brrr/autodock/final/mut_D99N/heme_Co/dock.dpf
DOCKED: USER  
DOCKED: USER    Estimated Free Energy of Binding    =   -2.29 kcal/mol  [=(1)+(2)+(3)-(4)]
DOCKED: USER    Estimated Inhibition Constant, Ki   =   20.97 mM (millimolar)  [Temperature = 298.15 K]
DOCKED: USER    
DOCKED: USER    (1) Final Intermolecular Energy     =   -5.87 kcal/mol
DOCKED: USER        vdW + Hbond + desolv Energy     =   -5.72 kcal/mol
DOCKED: USER        Electrostatic Energy            =   -0.15 kcal/mol
DOCKED: USER    (2) Final Total Internal Energy     =   -3.32 kcal/mol
DOCKED: USER    (3) Torsional Free Energy           =   +3.58 kcal/mol
DOCKED: USER    (4) Unbound System's Energy  [=(2)] =   -3.32 kcal/mol
DOCKED: USER    
DOCKED: USER    
DOCKED: USER    NEWDPF move heme_Co_opt.pdbqt
DOCKED: USER    NEWDPF about 8.781000 34.984000 -0.736000
DOCKED: USER    NEWDPF tran0 -9.542835 -4.871161 13.392307
DOCKED: USER    NEWDPF quaternion0 -0.644611 0.251928 0.713500 -0.109208
DOCKED: USER    NEWDPF axisangle0 -0.648490 0.253444 0.717793 -167.460668
DOCKED: USER    NEWDPF quat0 -0.648490 0.253444 0.717793 -167.460668
DOCKED: USER    NEWDPF dihe0 63.18 125.99 -38.70 39.65 97.45 102.24 37.23 -29.05 156.72 -130.15 -160.84 133.23 
DOCKED: USER  keepresnum = 1 
DOCKED: USER  
DOCKED: REMARK  12 active torsions:
DOCKED: REMARK  status: ('A' for Active; 'I' for Inactive)
DOCKED: REMARK    1  A    between atoms: C_6  and  C_10 
DOCKED: REMARK    2  A    between atoms: C_10  and  C_11 
DOCKED: REMARK    3  A    between atoms: C_11  and  C_12 
DOCKED: REMARK    4  A    between atoms: C_12  and  O_14 
DOCKED: REMARK    5  A    between atoms: C_17  and  C_20 
DOCKED: REMARK    6  A    between atoms: C_24  and  C_27 
DOCKED: REMARK    7  A    between atoms: C_31  and  C_34 
DOCKED: REMARK    8  A    between atoms: C_34  and  C_35 
DOCKED: REMARK    9  A    between atoms: C_35  and  C_36 
DOCKED: REMARK   10  A    between atoms: C_36  and  O_38 
DOCKED: REMARK   11  A    between atoms: FE_43  and  C_44 
DOCKED: REMARK   12  A    between atoms: C_44  and  O_45 
DOCKED: USER                              x       y       z     vdW  Elec       q    Type
DOCKED: USER                           _______ _______ _______ _____ _____    ______ ____
DOCKED: ROOT
DOCKED: ATOM      1  C   UNL d   1      -8.767  -5.393  15.352 -0.12 +0.01    +0.064 A 
DOCKED: ATOM      2  C   UNL d   1     -10.901  -1.478  13.700 -0.28 +0.02    +0.064 C 
DOCKED: ATOM      3  C   UNL d   1     -10.915  -3.304   9.284 -0.22 +0.02    +0.064 A 
DOCKED: ATOM      4  C   UNL d   1      -9.087  -7.467  11.014 -0.13 +0.02    +0.064 A 
DOCKED: ATOM      5  C   UNL d   1      -9.316  -4.175  15.219 -0.18 +0.01    +0.066 A 
DOCKED: ATOM      6  C   UNL d   1      -9.556  -3.338  16.326 -0.20 -0.00    -0.021 A 
DOCKED: ATOM      7  C   UNL d   1     -10.196  -2.213  15.844 -0.26 -0.01    -0.025 A 
DOCKED: ATOM      8  C   UNL d   1     -10.305  -2.404  14.462 -0.26 +0.02    +0.066 A 
DOCKED: ATOM      9  C   UNL d   1     -10.694  -0.997  16.640 -0.23 +0.02    +0.051 C 
DOCKED: ATOM     10  C   UNL d   1     -11.035  -1.576  12.268 -0.24 +0.02    +0.066 A 
DOCKED: ATOM     11  C   UNL d   1     -11.524  -0.578  11.396 -0.27 -0.01    -0.021 A 
DOCKED: ATOM     12  C   UNL d   1     -11.513  -1.136  10.115 -0.24 +0.00    +0.000 A 
DOCKED: ATOM     13  C   UNL d   1     -11.009  -2.424  10.297 -0.20 +0.02    +0.070 A 
DOCKED: ATOM     14  C   UNL d   1     -11.880   0.837  11.771 -0.32 +0.02    +0.052 C 
DOCKED: ATOM     15  C   UNL d   1     -10.469  -4.683   9.303 -0.19 +0.02    +0.066 A 
DOCKED: ATOM     16  C   UNL d   1     -10.533  -5.583   8.249 -0.23 -0.01    -0.021 A 
DOCKED: ATOM     17  C   UNL d   1     -10.009  -6.786   8.744 -0.19 +0.00    +0.000 A 
DOCKED: ATOM     18  C   UNL d   1      -9.650  -6.519  10.061 -0.16 +0.02    +0.070 A 
DOCKED: ATOM     19  C   UNL d   1     -11.070  -5.280   6.868 -0.08 +0.03    +0.052 C 
DOCKED: ATOM     20  C   UNL d   1      -8.810  -7.254  12.323 -0.10 +0.01    +0.066 A 
DOCKED: ATOM     21  C   UNL d   1      -8.304  -8.255  13.148 -0.06 -0.01    -0.025 A 
DOCKED: ATOM     22  C   UNL d   1      -8.174  -7.678  14.398 -0.05 -0.00    -0.021 A 
DOCKED: ATOM     23  C   UNL d   1      -8.622  -6.346  14.275 -0.08 +0.01    +0.066 A 
DOCKED: ATOM     24  C   UNL d   1      -7.978  -9.698  12.770 -0.08 +0.02    +0.051 C 
DOCKED: ATOM     25  N   UNL d   1      -9.762  -3.608  14.046 -0.05 -0.05    -0.248 N 
DOCKED: ATOM     26  N   UNL d   1     -10.668  -2.669  11.590 -0.07 -0.06    -0.248 N 
DOCKED: ATOM     27  N   UNL d   1      -9.966  -5.266  10.368 -0.06 -0.06    -0.248 N 
DOCKED: ATOM     28  N   UNL d   1      -9.010  -6.086  13.021 +0.01 -0.05    -0.248 N 
DOCKED: ATOM     29 FE   UNL d   1      -9.868  -4.489  12.099 -0.03 +0.00    +0.000 Fe
DOCKED: ENDROOT
DOCKED: BRANCH   6  30
DOCKED: ATOM     30  C   UNL d   1      -9.254  -3.653  17.787 -0.14 +0.01    +0.052 C 
DOCKED: BRANCH  30  31
DOCKED: ATOM     31  C   UNL d   1     -10.295  -4.617  18.355 -0.04 +0.01    +0.115 C 
DOCKED: BRANCH  31  32
DOCKED: ATOM     32  C   UNL d   1     -11.616  -4.539  17.620 -0.02 +0.02    +0.139 C 
DOCKED: ATOM     33  O   UNL d   1     -12.487  -3.784  18.027 +0.02 -0.09    -0.650 OA
DOCKED: BRANCH  32  34
DOCKED: ATOM     34  O   UNL d   1     -11.851  -5.245  16.490 +0.02 -0.09    -0.776 OA
DOCKED: ATOM     35  H   UNL d   1     -11.807  -6.210  16.433 +0.01 +0.02    +0.167 HD
DOCKED: ENDBRANCH  32  34
DOCKED: ENDBRANCH  31  32
DOCKED: ENDBRANCH  30  31
DOCKED: ENDBRANCH   6  30
DOCKED: BRANCH  29  36
DOCKED: ATOM     36  C   UNL d   1     -11.775  -5.174  12.636 -0.04 +0.03    +0.190 C 
DOCKED: BRANCH  36  37
DOCKED: ATOM     37  O   UNL d   1     -12.467  -5.882  13.624 -0.00 -0.05    -0.399 OA
DOCKED: ATOM     38  H   UNL d   1     -11.828  -5.949  14.388 +0.01 +0.03    +0.209 HD
DOCKED: ENDBRANCH  36  37
DOCKED: ENDBRANCH  29  36
DOCKED: BRANCH  22  39
DOCKED: ATOM     39  C   UNL d   1      -7.706  -8.392  15.653 -0.02 +0.01    +0.052 C 
DOCKED: BRANCH  39  40
DOCKED: ATOM     40  C   UNL d   1      -8.737  -8.236  16.783 -0.01 +0.01    +0.115 C 
DOCKED: BRANCH  40  41
DOCKED: ATOM     41  C   UNL d   1     -10.174  -8.440  16.350 -0.00 +0.01    +0.139 C 
DOCKED: ATOM     42  O   UNL d   1     -10.771  -9.444  16.713 +0.00 -0.04    -0.650 OA
DOCKED: BRANCH  41  43
DOCKED: ATOM     43  O   UNL d   1     -10.845  -7.502  15.646 +0.01 -0.08    -0.776 OA
DOCKED: ATOM     44  H   UNL d   1     -10.683  -6.556  15.756 +0.01 +0.02    +0.167 HD
DOCKED: ENDBRANCH  41  43
DOCKED: ENDBRANCH  40  41
DOCKED: ENDBRANCH  39  40
DOCKED: ENDBRANCH  22  39
DOCKED: BRANCH  12  45
DOCKED: ATOM     45  C   UNL d   1     -11.901  -0.597   8.745 -0.26 +0.00    +0.004 C 
DOCKED: ATOM     46  C   UNL d   1     -11.849   0.639   8.253 -0.28 +0.00    +0.012 C 
DOCKED: ENDBRANCH  12  45
DOCKED: BRANCH  17  47
DOCKED: ATOM     47  C   UNL d   1      -9.887  -8.118   8.079 -0.17 +0.00    +0.004 C 
DOCKED: ATOM     48  C   UNL d   1      -8.961  -8.401   7.160 -0.25 +0.00    +0.012 C 
DOCKED: ENDBRANCH  17  47
DOCKED: TORSDOF 12
DOCKED: TER
DOCKED: ENDMDL
________________________________________________________________________________


	BEGINNING GENETIC ALGORITHM DOCKING 48 of 100
Run: 48 Seed: 894398380 1257458863 [ Run 48 of 100 GA/GALS ]
Beginning LAMARCKIAN GENETIC ALGORITHM (LGA), with a maximum of 25000000 energy evaluations.

Final-Value: -10.170


	FINAL GENETIC ALGORITHM DOCKED STATE
	_______________________________________________


Detailed state:  trans 19.299 -3.184 3.646 quatxyzw 0.061905 0.806716 0.081466 -0.582014 center 8.781 34.984 -0.736 ntor 12 -59.0955 89.6899 -76.9450 68.3831 -99.2659 118.1807 49.7873 -9.1458 156.6949 178.4620 -154.4771 -180.0000
State:	 19.299  -3.184   3.646   0.076  0.992  0.100 -108.815    -59.10   89.69  -76.94   68.38  -99.27  118.18   49.79   -9.15  156.69  178.46 -154.48 -180.00

DOCKED: MODEL       48
DOCKED: USER    Run = 48
DOCKED: USER    DPF = D:/Protein_go_brrr/autodock/final/mut_D99N/heme_Co/dock.dpf
DOCKED: USER  
DOCKED: USER    Estimated Free Energy of Binding    =   -3.31 kcal/mol  [=(1)+(2)+(3)-(4)]
DOCKED: USER    Estimated Inhibition Constant, Ki   =    3.74 mM (millimolar)  [Temperature = 298.15 K]
DOCKED: USER    
DOCKED: USER    (1) Final Intermolecular Energy     =   -6.89 kcal/mol
DOCKED: USER        vdW + Hbond + desolv Energy     =   -6.85 kcal/mol
DOCKED: USER        Electrostatic Energy            =   -0.04 kcal/mol
DOCKED: USER    (2) Final Total Internal Energy     =   -3.28 kcal/mol
DOCKED: USER    (3) Torsional Free Energy           =   +3.58 kcal/mol
DOCKED: USER    (4) Unbound System's Energy  [=(2)] =   -3.28 kcal/mol
DOCKED: USER    
DOCKED: USER    
DOCKED: USER    NEWDPF move heme_Co_opt.pdbqt
DOCKED: USER    NEWDPF about 8.781000 34.984000 -0.736000
DOCKED: USER    NEWDPF tran0 19.298566 -3.183849 3.645962
DOCKED: USER    NEWDPF quaternion0 0.061905 0.806716 0.081466 -0.582014
DOCKED: USER    NEWDPF axisangle0 0.076127 0.992053 0.100182 -108.815377
DOCKED: USER    NEWDPF quat0 0.076127 0.992053 0.100182 -108.815377
DOCKED: USER    NEWDPF dihe0 -59.10 89.69 -76.94 68.38 -99.27 118.18 49.79 -9.15 156.69 178.46 -154.48 -180.00 
DOCKED: USER  keepresnum = 1 
DOCKED: USER  
DOCKED: REMARK  12 active torsions:
DOCKED: REMARK  status: ('A' for Active; 'I' for Inactive)
DOCKED: REMARK    1  A    between atoms: C_6  and  C_10 
DOCKED: REMARK    2  A    between atoms: C_10  and  C_11 
DOCKED: REMARK    3  A    between atoms: C_11  and  C_12 
DOCKED: REMARK    4  A    between atoms: C_12  and  O_14 
DOCKED: REMARK    5  A    between atoms: C_17  and  C_20 
DOCKED: REMARK    6  A    between atoms: C_24  and  C_27 
DOCKED: REMARK    7  A    between atoms: C_31  and  C_34 
DOCKED: REMARK    8  A    between atoms: C_34  and  C_35 
DOCKED: REMARK    9  A    between atoms: C_35  and  C_36 
DOCKED: REMARK   10  A    between atoms: C_36  and  O_38 
DOCKED: REMARK   11  A    between atoms: FE_43  and  C_44 
DOCKED: REMARK   12  A    between atoms: C_44  and  O_45 
DOCKED: USER                              x       y       z     vdW  Elec       q    Type
DOCKED: USER                           _______ _______ _______ _____ _____    ______ ____
DOCKED: ROOT
DOCKED: ATOM      1  C   UNL d   1      19.104  -3.123   5.808 -0.10 +0.00    +0.064 A 
DOCKED: ATOM      2  C   UNL d   1      22.239  -5.260   2.942 +0.00 +0.02    +0.064 C 
DOCKED: ATOM      3  C   UNL d   1      19.757  -3.847  -0.889 -0.30 -0.01    +0.064 A 
DOCKED: ATOM      4  C   UNL d   1      16.757  -1.332   1.999 -0.15 -0.00    +0.064 A 
DOCKED: ATOM      5  C   UNL d   1      20.122  -3.841   5.308 -0.11 +0.01    +0.066 A 
DOCKED: ATOM      6  C   UNL d   1      21.133  -4.378   6.129 -0.08 -0.00    -0.021 A 
DOCKED: ATOM      7  C   UNL d   1      22.052  -4.977   5.291 -0.13 -0.01    -0.025 A 
DOCKED: ATOM      8  C   UNL d   1      21.555  -4.795   3.996 -0.17 +0.02    +0.066 A 
DOCKED: ATOM      9  C   UNL d   1      23.353  -5.697   5.679 -0.04 +0.03    +0.051 C 
DOCKED: ATOM     10  C   UNL d   1      21.794  -5.143   1.576 -0.18 +0.01    +0.066 A 
DOCKED: ATOM     11  C   UNL d   1      22.393  -5.730   0.440 -0.20 -0.00    -0.021 A 
DOCKED: ATOM     12  C   UNL d   1      21.647  -5.305  -0.663 -0.24 +0.00    +0.000 A 
DOCKED: ATOM     13  C   UNL d   1      20.643  -4.503  -0.119 -0.25 -0.00    +0.070 A 
DOCKED: ATOM     14  C   UNL d   1      23.542  -6.706   0.442 -0.18 +0.01    +0.052 C 
DOCKED: ATOM     15  C   UNL d   1      18.694  -2.941  -0.500 -0.23 -0.01    +0.066 A 
DOCKED: ATOM     16  C   UNL d   1      17.906  -2.182  -1.354 -0.33 +0.01    -0.021 A 
DOCKED: ATOM     17  C   UNL d   1      17.041  -1.453  -0.526 -0.32 -0.00    +0.000 A 
DOCKED: ATOM     18  C   UNL d   1      17.359  -1.839   0.772 -0.24 -0.01    +0.070 A 
DOCKED: ATOM     19  C   UNL d   1      18.002  -2.178  -2.863 -0.46 -0.01    +0.052 C 
DOCKED: ATOM     20  C   UNL d   1      17.108  -1.627   3.273 -0.19 -0.01    +0.066 A 
DOCKED: ATOM     21  C   UNL d   1      16.478  -1.048   4.372 -0.21 +0.00    -0.025 A 
DOCKED: ATOM     22  C   UNL d   1      17.114  -1.567   5.484 -0.22 +0.00    -0.021 A 
DOCKED: ATOM     23  C   UNL d   1      18.117  -2.436   5.005 -0.16 -0.00    +0.066 A 
DOCKED: ATOM     24  C   UNL d   1      15.338  -0.033   4.363 -0.31 -0.00    +0.051 C 
DOCKED: ATOM     25  N   UNL d   1      20.358  -4.100   3.977 -0.12 -0.03    -0.248 N 
DOCKED: ATOM     26  N   UNL d   1      20.700  -4.452   1.239 -0.16 -0.00    -0.248 N 
DOCKED: ATOM     27  N   UNL d   1      18.368  -2.703   0.751 -0.15 +0.04    -0.248 N 
DOCKED: ATOM     28  N   UNL d   1      18.119  -2.473   3.667 -0.13 +0.01    -0.248 N 
DOCKED: ATOM     29 FE   UNL d   1      19.302  -3.359   2.270 -0.05 -0.00    +0.000 Fe
DOCKED: ENDROOT
DOCKED: BRANCH   6  30
DOCKED: ATOM     30  C   UNL d   1      21.241  -4.242   7.645 -0.03 +0.01    +0.052 C 
DOCKED: BRANCH  30  31
DOCKED: ATOM     31  C   UNL d   1      21.591  -2.805   8.031 -0.01 +0.01    +0.115 C 
DOCKED: BRANCH  31  32
DOCKED: ATOM     32  C   UNL d   1      22.317  -2.070   6.925 -0.00 +0.01    +0.139 C 
DOCKED: ATOM     33  O   UNL d   1      23.513  -2.260   6.761 +0.01 -0.07    -0.650 OA
DOCKED: BRANCH  32  34
DOCKED: ATOM     34  O   UNL d   1      21.673  -1.239   6.073 +0.01 -0.04    -0.776 OA
DOCKED: ATOM     35  H   UNL d   1      20.983  -1.521   5.456 +0.01 +0.01    +0.167 HD
DOCKED: ENDBRANCH  32  34
DOCKED: ENDBRANCH  31  32
DOCKED: ENDBRANCH  30  31
DOCKED: ENDBRANCH   6  30
DOCKED: BRANCH  29  36
DOCKED: ATOM     36  C   UNL d   1      20.612  -1.723   2.310 -0.03 +0.00    +0.190 C 
DOCKED: BRANCH  36  37
DOCKED: ATOM     37  O   UNL d   1      21.305  -0.871   3.176 +0.00 -0.01    -0.399 OA
DOCKED: ATOM     38  H   UNL d   1      20.794  -0.905   4.032 +0.02 +0.01    +0.209 HD
DOCKED: ENDBRANCH  36  37
DOCKED: ENDBRANCH  29  36
DOCKED: BRANCH  22  39
DOCKED: ATOM     39  C   UNL d   1      16.813  -1.195   6.924 -0.22 +0.00    +0.052 C 
DOCKED: BRANCH  39  40
DOCKED: ATOM     40  C   UNL d   1      17.459   0.154   7.282 -0.07 +0.00    +0.115 C 
DOCKED: BRANCH  40  41
DOCKED: ATOM     41  C   UNL d   1      18.371   0.714   6.211 -0.02 +0.00    +0.139 C 
DOCKED: ATOM     42  O   UNL d   1      18.215   1.867   5.835 +0.02 -0.01    -0.650 OA
DOCKED: BRANCH  41  43
DOCKED: ATOM     43  O   UNL d   1      19.410   0.003   5.720 +0.04 -0.01    -0.776 OA
DOCKED: ATOM     44  H   UNL d   1      20.203  -0.183   6.238 +0.01 +0.00    +0.167 HD
DOCKED: ENDBRANCH  41  43
DOCKED: ENDBRANCH  40  41
DOCKED: ENDBRANCH  39  40
DOCKED: ENDBRANCH  22  39
DOCKED: BRANCH  12  45
DOCKED: ATOM     45  C   UNL d   1      21.754  -5.579  -2.157 -0.29 +0.00    +0.004 C 
DOCKED: ATOM     46  C   UNL d   1      21.694  -6.722  -2.835 -0.28 +0.00    +0.012 C 
DOCKED: ENDBRANCH  12  45
DOCKED: BRANCH  17  47
DOCKED: ATOM     47  C   UNL d   1      16.017  -0.427  -0.884 -0.35 -0.00    +0.004 C 
DOCKED: ATOM     48  C   UNL d   1      16.040   0.828  -0.427 -0.24 -0.00    +0.012 C 
DOCKED: ENDBRANCH  17  47
DOCKED: TORSDOF 12
DOCKED: TER
DOCKED: ENDMDL
________________________________________________________________________________


	BEGINNING GENETIC ALGORITHM DOCKING 49 of 100
Run: 49 Seed: 1917905060 1900057011 [ Run 49 of 100 GA/GALS ]
Beginning LAMARCKIAN GENETIC ALGORITHM (LGA), with a maximum of 25000000 energy evaluations.

Final-Value: -11.056


	FINAL GENETIC ALGORITHM DOCKED STATE
	_______________________________________________


Detailed state:  trans -13.555 2.609 9.731 quatxyzw 0.072382 0.506226 -0.789095 0.340332 center 8.781 34.984 -0.736 ntor 12 155.6923 105.2550 103.2378 109.7712 136.7837 88.9438 -128.5071 -74.8649 -102.2325 137.9527 177.0901 -175.3832
State:	-13.555   2.609   9.731   0.077  0.538 -0.839 140.206    155.69  105.25  103.24  109.77  136.78   88.94 -128.51  -74.86 -102.23  137.95  177.09 -175.38

DOCKED: MODEL       49
DOCKED: USER    Run = 49
DOCKED: USER    DPF = D:/Protein_go_brrr/autodock/final/mut_D99N/heme_Co/dock.dpf
DOCKED: USER  
DOCKED: USER    Estimated Free Energy of Binding    =   -4.20 kcal/mol  [=(1)+(2)+(3)-(4)]
DOCKED: USER    Estimated Inhibition Constant, Ki   =  838.45 uM (micromolar)  [Temperature = 298.15 K]
DOCKED: USER    
DOCKED: USER    (1) Final Intermolecular Energy     =   -7.78 kcal/mol
DOCKED: USER        vdW + Hbond + desolv Energy     =   -5.69 kcal/mol
DOCKED: USER        Electrostatic Energy            =   -2.08 kcal/mol
DOCKED: USER    (2) Final Total Internal Energy     =   -3.28 kcal/mol
DOCKED: USER    (3) Torsional Free Energy           =   +3.58 kcal/mol
DOCKED: USER    (4) Unbound System's Energy  [=(2)] =   -3.28 kcal/mol
DOCKED: USER    
DOCKED: USER    
DOCKED: USER    NEWDPF move heme_Co_opt.pdbqt
DOCKED: USER    NEWDPF about 8.781000 34.984000 -0.736000
DOCKED: USER    NEWDPF tran0 -13.555249 2.608877 9.730570
DOCKED: USER    NEWDPF quaternion0 0.072382 0.506226 -0.789095 0.340332
DOCKED: USER    NEWDPF axisangle0 0.076978 0.538363 -0.839190 140.205756
DOCKED: USER    NEWDPF quat0 0.076978 0.538363 -0.839190 140.205756
DOCKED: USER    NEWDPF dihe0 155.69 105.25 103.24 109.77 136.78 88.94 -128.51 -74.86 -102.23 137.95 177.09 -175.38 
DOCKED: USER  keepresnum = 1 
DOCKED: USER  
DOCKED: REMARK  12 active torsions:
DOCKED: REMARK  status: ('A' for Active; 'I' for Inactive)
DOCKED: REMARK    1  A    between atoms: C_6  and  C_10 
DOCKED: REMARK    2  A    between atoms: C_10  and  C_11 
DOCKED: REMARK    3  A    between atoms: C_11  and  C_12 
DOCKED: REMARK    4  A    between atoms: C_12  and  O_14 
DOCKED: REMARK    5  A    between atoms: C_17  and  C_20 
DOCKED: REMARK    6  A    between atoms: C_24  and  C_27 
DOCKED: REMARK    7  A    between atoms: C_31  and  C_34 
DOCKED: REMARK    8  A    between atoms: C_34  and  C_35 
DOCKED: REMARK    9  A    between atoms: C_35  and  C_36 
DOCKED: REMARK   10  A    between atoms: C_36  and  O_38 
DOCKED: REMARK   11  A    between atoms: FE_43  and  C_44 
DOCKED: REMARK   12  A    between atoms: C_44  and  O_45 
DOCKED: USER                              x       y       z     vdW  Elec       q    Type
DOCKED: USER                           _______ _______ _______ _____ _____    ______ ____
DOCKED: ROOT
DOCKED: ATOM      1  C   UNL d   1     -11.930   1.937   8.456 -0.07 +0.02    +0.064 A 
DOCKED: ATOM      2  C   UNL d   1     -13.364   0.586  12.784 -0.17 +0.03    +0.064 C 
DOCKED: ATOM      3  C   UNL d   1     -16.637   4.067  12.827 -0.08 +0.02    +0.064 A 
DOCKED: ATOM      4  C   UNL d   1     -15.452   5.221   8.253 -0.08 +0.01    +0.064 A 
DOCKED: ATOM      5  C   UNL d   1     -12.057   1.336   9.650 -0.20 +0.02    +0.066 A 
DOCKED: ATOM      6  C   UNL d   1     -11.303   0.197   9.998 -0.33 -0.01    -0.021 A 
DOCKED: ATOM      7  C   UNL d   1     -11.740  -0.204  11.245 -0.26 -0.01    -0.025 A 
DOCKED: ATOM      8  C   UNL d   1     -12.729   0.715  11.612 -0.20 +0.03    +0.066 A 
DOCKED: ATOM      9  C   UNL d   1     -11.255  -1.405  12.072 -0.27 +0.02    +0.051 C 
DOCKED: ATOM     10  C   UNL d   1     -14.376   1.498  13.258 -0.13 +0.04    +0.066 A 
DOCKED: ATOM     11  C   UNL d   1     -14.979   1.499  14.534 -0.10 -0.02    -0.021 A 
DOCKED: ATOM     12  C   UNL d   1     -15.927   2.526  14.521 -0.09 +0.00    +0.000 A 
DOCKED: ATOM     13  C   UNL d   1     -15.823   3.082  13.246 -0.11 +0.04    +0.070 A 
DOCKED: ATOM     14  C   UNL d   1     -14.593   0.630  15.704 -0.07 +0.03    +0.052 C 
DOCKED: ATOM     15  C   UNL d   1     -16.703   4.719  11.534 -0.06 +0.02    +0.066 A 
DOCKED: ATOM     16  C   UNL d   1     -17.665   5.629  11.119 -0.04 -0.00    -0.021 A 
DOCKED: ATOM     17  C   UNL d   1     -17.329   5.963   9.799 -0.05 +0.00    +0.000 A 
DOCKED: ATOM     18  C   UNL d   1     -16.174   5.240   9.518 -0.04 +0.02    +0.070 A 
DOCKED: ATOM     19  C   UNL d   1     -18.822   6.126  11.958 -0.02 +0.01    +0.052 C 
DOCKED: ATOM     20  C   UNL d   1     -14.378   4.461   7.928 -0.10 +0.02    +0.066 A 
DOCKED: ATOM     21  C   UNL d   1     -13.792   4.505   6.665 -0.13 -0.00    -0.025 A 
DOCKED: ATOM     22  C   UNL d   1     -12.755   3.589   6.703 -0.19 -0.00    -0.021 A 
DOCKED: ATOM     23  C   UNL d   1     -12.769   3.020   7.994 -0.19 +0.02    +0.066 A 
DOCKED: ATOM     24  C   UNL d   1     -14.210   5.361   5.473 -0.14 +0.00    +0.051 C 
DOCKED: ATOM     25  N   UNL d   1     -12.942   1.683  10.646 -0.13 -0.09    -0.248 N 
DOCKED: ATOM     26  N   UNL d   1     -14.846   2.496  12.503 -0.11 -0.14    -0.248 N 
DOCKED: ATOM     27  N   UNL d   1     -15.848   4.487  10.563 -0.04 -0.10    -0.248 N 
DOCKED: ATOM     28  N   UNL d   1     -13.751   3.543   8.738 -0.09 -0.07    -0.248 N 
DOCKED: ATOM     29 FE   UNL d   1     -14.480   3.170  10.599 -0.04 +0.00    +0.000 Fe
DOCKED: ENDROOT
DOCKED: BRANCH   6  30
DOCKED: ATOM     30  C   UNL d   1     -10.272  -0.511   9.126 -0.37 +0.02    +0.052 C 
DOCKED: BRANCH  30  31
DOCKED: ATOM     31  C   UNL d   1     -10.889  -1.735   8.450 -0.33 +0.05    +0.115 C 
DOCKED: BRANCH  31  32
DOCKED: ATOM     32  C   UNL d   1     -11.786  -1.361   7.289 -0.18 +0.11    +0.139 C 
DOCKED: ATOM     33  O   UNL d   1     -11.370  -1.480   6.146 -0.32 -0.81    -0.650 OA
DOCKED: BRANCH  32  34
DOCKED: ATOM     34  O   UNL d   1     -13.060  -0.943   7.472 +0.04 -0.51    -0.776 OA
DOCKED: ATOM     35  H   UNL d   1     -13.528  -0.346   6.872 +0.03 +0.12    +0.167 HD
DOCKED: ENDBRANCH  32  34
DOCKED: ENDBRANCH  31  32
DOCKED: ENDBRANCH  30  31
DOCKED: ENDBRANCH   6  30
DOCKED: BRANCH  29  36
DOCKED: ATOM     36  C   UNL d   1     -15.740   1.680   9.832 -0.01 +0.05    +0.190 C 
DOCKED: BRANCH  36  37
DOCKED: ATOM     37  O   UNL d   1     -15.941   0.853   8.722 +0.01 -0.10    -0.399 OA
DOCKED: ATOM     38  H   UNL d   1     -15.286   1.175   8.041 +0.02 +0.06    +0.209 HD
DOCKED: ENDBRANCH  36  37
DOCKED: ENDBRANCH  29  36
DOCKED: BRANCH  22  39
DOCKED: ATOM     39  C   UNL d   1     -11.848   3.239   5.539 -0.23 +0.01    +0.052 C 
DOCKED: BRANCH  39  40
DOCKED: ATOM     40  C   UNL d   1     -12.593   2.371   4.512 -0.17 +0.04    +0.115 C 
DOCKED: BRANCH  40  41
DOCKED: ATOM     41  C   UNL d   1     -13.356   1.209   5.113 -0.13 +0.08    +0.139 C 
DOCKED: ATOM     42  O   UNL d   1     -14.282   1.434   5.879 +0.04 -0.28    -0.650 OA
DOCKED: BRANCH  41  43
DOCKED: ATOM     43  O   UNL d   1     -13.099  -0.069   4.757 -0.42 -1.16    -0.776 OA
DOCKED: ATOM     44  H   UNL d   1     -12.675  -0.699   5.354 +0.03 +0.31    +0.167 HD
DOCKED: ENDBRANCH  41  43
DOCKED: ENDBRANCH  40  41
DOCKED: ENDBRANCH  39  40
DOCKED: ENDBRANCH  22  39
DOCKED: BRANCH  12  45
DOCKED: ATOM     45  C   UNL d   1     -16.899   3.055  15.566 -0.05 +0.00    +0.004 C 
DOCKED: ATOM     46  C   UNL d   1     -16.830   4.129  16.349 -0.05 +0.01    +0.012 C 
DOCKED: ENDBRANCH  12  45
DOCKED: BRANCH  17  47
DOCKED: ATOM     47  C   UNL d   1     -18.040   6.847   8.828 -0.02 +0.00    +0.004 C 
DOCKED: ATOM     48  C   UNL d   1     -17.527   7.986   8.357 -0.03 +0.00    +0.012 C 
DOCKED: ENDBRANCH  17  47
DOCKED: TORSDOF 12
DOCKED: TER
DOCKED: ENDMDL
________________________________________________________________________________


	BEGINNING GENETIC ALGORITHM DOCKING 50 of 100
Run: 50 Seed: 1682006863 1865046960 [ Run 50 of 100 GA/GALS ]
Beginning LAMARCKIAN GENETIC ALGORITHM (LGA), with a maximum of 25000000 energy evaluations.

Final-Value: -9.550


	FINAL GENETIC ALGORITHM DOCKED STATE
	_______________________________________________


Detailed state:  trans 21.344 -10.536 -2.827 quatxyzw -0.664757 -0.504723 0.425469 0.349755 center 8.781 34.984 -0.736 ntor 12 -89.0572 101.0340 37.6610 116.3704 127.1195 136.9679 56.7483 151.6614 -122.0842 16.2529 180.0000 161.4421
State:	 21.344 -10.536  -2.827  -0.710 -0.539  0.454 139.055    -89.06  101.03   37.66  116.37  127.12  136.97   56.75  151.66 -122.08   16.25  180.00  161.44

DOCKED: MODEL       50
DOCKED: USER    Run = 50
DOCKED: USER    DPF = D:/Protein_go_brrr/autodock/final/mut_D99N/heme_Co/dock.dpf
DOCKED: USER  
DOCKED: USER    Estimated Free Energy of Binding    =   -3.31 kcal/mol  [=(1)+(2)+(3)-(4)]
DOCKED: USER    Estimated Inhibition Constant, Ki   =    3.76 mM (millimolar)  [Temperature = 298.15 K]
DOCKED: USER    
DOCKED: USER    (1) Final Intermolecular Energy     =   -6.89 kcal/mol
DOCKED: USER        vdW + Hbond + desolv Energy     =   -5.36 kcal/mol
DOCKED: USER        Electrostatic Energy            =   -1.53 kcal/mol
DOCKED: USER    (2) Final Total Internal Energy     =   -2.66 kcal/mol
DOCKED: USER    (3) Torsional Free Energy           =   +3.58 kcal/mol
DOCKED: USER    (4) Unbound System's Energy  [=(2)] =   -2.66 kcal/mol
DOCKED: USER    
DOCKED: USER    
DOCKED: USER    NEWDPF move heme_Co_opt.pdbqt
DOCKED: USER    NEWDPF about 8.781000 34.984000 -0.736000
DOCKED: USER    NEWDPF tran0 21.344191 -10.535722 -2.826931
DOCKED: USER    NEWDPF quaternion0 -0.664757 -0.504723 0.425469 0.349755
DOCKED: USER    NEWDPF axisangle0 -0.709572 -0.538750 0.454153 139.055311
DOCKED: USER    NEWDPF quat0 -0.709572 -0.538750 0.454153 139.055311
DOCKED: USER    NEWDPF dihe0 -89.06 101.03 37.66 116.37 127.12 136.97 56.75 151.66 -122.08 16.25 180.00 161.44 
DOCKED: USER  keepresnum = 1 
DOCKED: USER  
DOCKED: REMARK  12 active torsions:
DOCKED: REMARK  status: ('A' for Active; 'I' for Inactive)
DOCKED: REMARK    1  A    between atoms: C_6  and  C_10 
DOCKED: REMARK    2  A    between atoms: C_10  and  C_11 
DOCKED: REMARK    3  A    between atoms: C_11  and  C_12 
DOCKED: REMARK    4  A    between atoms: C_12  and  O_14 
DOCKED: REMARK    5  A    between atoms: C_17  and  C_20 
DOCKED: REMARK    6  A    between atoms: C_24  and  C_27 
DOCKED: REMARK    7  A    between atoms: C_31  and  C_34 
DOCKED: REMARK    8  A    between atoms: C_34  and  C_35 
DOCKED: REMARK    9  A    between atoms: C_35  and  C_36 
DOCKED: REMARK   10  A    between atoms: C_36  and  O_38 
DOCKED: REMARK   11  A    between atoms: FE_43  and  C_44 
DOCKED: REMARK   12  A    between atoms: C_44  and  O_45 
DOCKED: USER                              x       y       z     vdW  Elec       q    Type
DOCKED: USER                           _______ _______ _______ _____ _____    ______ ____
DOCKED: ROOT
DOCKED: ATOM      1  C   UNL d   1      21.760 -10.621  -0.697 -0.15 +0.00    +0.064 A 
DOCKED: ATOM      2  C   UNL d   1      18.551 -12.837  -3.417 -0.15 -0.00    +0.064 C 
DOCKED: ATOM      3  C   UNL d   1      19.947 -10.287  -7.209 -0.16 +0.01    +0.064 A 
DOCKED: ATOM      4  C   UNL d   1      23.490  -8.287  -4.542 -0.07 +0.01    +0.064 A 
DOCKED: ATOM      5  C   UNL d   1      20.756 -11.388  -1.154 -0.14 -0.00    +0.066 A 
DOCKED: ATOM      6  C   UNL d   1      20.119 -12.346  -0.341 -0.24 +0.00    -0.021 A 
DOCKED: ATOM      7  C   UNL d   1      19.204 -13.002  -1.142 -0.21 +0.00    -0.025 A 
DOCKED: ATOM      8  C   UNL d   1      19.311 -12.405  -2.403 -0.19 -0.00    +0.066 A 
DOCKED: ATOM      9  C   UNL d   1      18.260 -14.148  -0.749 -0.16 -0.01    +0.051 C 
DOCKED: ATOM     10  C   UNL d   1      18.572 -12.268  -4.742 -0.13 +0.00    +0.066 A 
DOCKED: ATOM     11  C   UNL d   1      17.703 -12.582  -5.809 -0.12 -0.00    -0.021 A 
DOCKED: ATOM     12  C   UNL d   1      18.130 -11.821  -6.901 -0.15 +0.00    +0.000 A 
DOCKED: ATOM     13  C   UNL d   1      19.217 -11.092  -6.417 -0.10 +0.01    +0.070 A 
DOCKED: ATOM     14  C   UNL d   1      16.493 -13.478  -5.741 -0.09 +0.00    +0.052 C 
DOCKED: ATOM     15  C   UNL d   1      21.126  -9.506  -6.890 -0.15 +0.01    +0.066 A 
DOCKED: ATOM     16  C   UNL d   1      21.919  -8.808  -7.789 -0.14 -0.00    -0.021 A 
DOCKED: ATOM     17  C   UNL d   1      22.944  -8.232  -7.025 -0.10 +0.00    +0.000 A 
DOCKED: ATOM     18  C   UNL d   1      22.684  -8.611  -5.712 -0.11 +0.01    +0.070 A 
DOCKED: ATOM     19  C   UNL d   1      21.684  -8.720  -9.281 -0.12 +0.00    +0.052 C 
DOCKED: ATOM     20  C   UNL d   1      23.306  -8.715  -3.270 -0.08 +0.01    +0.066 A 
DOCKED: ATOM     21  C   UNL d   1      24.170  -8.365  -2.235 -0.06 -0.00    -0.025 A 
DOCKED: ATOM     22  C   UNL d   1      23.680  -9.000  -1.109 -0.13 -0.00    -0.021 A 
DOCKED: ATOM     23  C   UNL d   1      22.538  -9.721  -1.518 -0.17 +0.00    +0.066 A 
DOCKED: ATOM     24  C   UNL d   1      25.415  -7.485  -2.319 -0.03 +0.01    +0.051 C 
DOCKED: ATOM     25  N   UNL d   1      20.260 -11.398  -2.438 -0.14 +0.01    -0.248 N 
DOCKED: ATOM     26  N   UNL d   1      19.448 -11.322  -5.097 -0.04 -0.02    -0.248 N 
DOCKED: ATOM     27  N   UNL d   1      21.611  -9.394  -5.673 -0.03 -0.03    -0.248 N 
DOCKED: ATOM     28  N   UNL d   1      22.310  -9.554  -2.826 -0.08 -0.01    -0.248 N 
DOCKED: ATOM     29 FE   UNL d   1      20.978 -10.335  -4.149 -0.04 +0.00    +0.000 Fe
DOCKED: ENDROOT
DOCKED: BRANCH   6  30
DOCKED: ATOM     30  C   UNL d   1      20.441 -12.663   1.115 -0.25 +0.00    +0.052 C 
DOCKED: BRANCH  30  31
DOCKED: ATOM     31  C   UNL d   1      21.393 -13.855   1.208 -0.08 +0.01    +0.115 C 
DOCKED: BRANCH  31  32
DOCKED: ATOM     32  C   UNL d   1      22.666 -13.639   0.419 -0.05 +0.02    +0.139 C 
DOCKED: ATOM     33  O   UNL d   1      22.632 -13.683  -0.802 +0.03 -0.05    -0.650 OA
DOCKED: BRANCH  32  34
DOCKED: ATOM     34  O   UNL d   1      23.843 -13.350   1.021 +0.03 -0.18    -0.776 OA
DOCKED: ATOM     35  H   UNL d   1      24.172 -12.452   1.170 +0.02 +0.06    +0.167 HD
DOCKED: ENDBRANCH  32  34
DOCKED: ENDBRANCH  31  32
DOCKED: ENDBRANCH  30  31
DOCKED: ENDBRANCH   6  30
DOCKED: BRANCH  29  36
DOCKED: ATOM     36  C   UNL d   1      22.244 -11.970  -4.494 -0.03 +0.01    +0.190 C 
DOCKED: BRANCH  36  37
DOCKED: ATOM     37  O   UNL d   1      22.803 -13.095  -3.880 -0.00 -0.02    -0.399 OA
DOCKED: ATOM     38  H   UNL d   1      22.620 -12.973  -2.907 +0.02 +0.01    +0.209 HD
DOCKED: ENDBRANCH  36  37
DOCKED: ENDBRANCH  29  36
DOCKED: BRANCH  22  39
DOCKED: ATOM     39  C   UNL d   1      24.316  -8.964   0.268 -0.15 +0.02    +0.052 C 
DOCKED: BRANCH  39  40
DOCKED: ATOM     40  C   UNL d   1      25.179 -10.215   0.500 -0.10 +0.05    +0.115 C 
DOCKED: BRANCH  40  41
DOCKED: ATOM     41  C   UNL d   1      25.648 -10.395   1.929 -0.07 +0.13    +0.139 C 
DOCKED: ATOM     42  O   UNL d   1      26.487  -9.631   2.384 -0.29 -0.69    -0.650 OA
DOCKED: BRANCH  41  43
DOCKED: ATOM     43  O   UNL d   1      25.100 -11.323   2.744 -0.37 -1.00    -0.776 OA
DOCKED: ATOM     44  H   UNL d   1      24.914 -12.225   2.453 +0.01 +0.12    +0.167 HD
DOCKED: ENDBRANCH  41  43
DOCKED: ENDBRANCH  40  41
DOCKED: ENDBRANCH  39  40
DOCKED: ENDBRANCH  22  39
DOCKED: BRANCH  12  45
DOCKED: ATOM     45  C   UNL d   1      17.628 -11.685  -8.332 -0.16 +0.00    +0.004 C 
DOCKED: ATOM     46  C   UNL d   1      16.986 -10.687  -8.933 -0.27 +0.00    +0.012 C 
DOCKED: ENDBRANCH  12  45
DOCKED: BRANCH  17  47
DOCKED: ATOM     47  C   UNL d   1      24.122  -7.425  -7.463 -0.06 +0.00    +0.004 C 
DOCKED: ATOM     48  C   UNL d   1      24.214  -6.103  -7.294 -0.08 +0.00    +0.012 C 
DOCKED: ENDBRANCH  17  47
DOCKED: TORSDOF 12
DOCKED: TER
DOCKED: ENDMDL
________________________________________________________________________________


	BEGINNING GENETIC ALGORITHM DOCKING 51 of 100
Run: 51 Seed: 1072063498 1959803399 [ Run 51 of 100 GA/GALS ]
Beginning LAMARCKIAN GENETIC ALGORITHM (LGA), with a maximum of 25000000 energy evaluations.

Final-Value: -10.509


	FINAL GENETIC ALGORITHM DOCKED STATE
	_______________________________________________


Detailed state:  trans 5.370 2.782 -16.104 quatxyzw -0.467968 0.238004 -0.652826 0.546057 center 8.781 34.984 -0.736 ntor 12 -180.0000 -107.0710 111.8315 6.3267 -65.6374 -141.2897 28.2332 -73.5288 -133.9310 126.8717 -178.8790 -163.4019
State:	  5.370   2.782 -16.104  -0.559  0.284 -0.779 113.806   -180.00 -107.07  111.83    6.33  -65.64 -141.29   28.23  -73.53 -133.93  126.87 -178.88 -163.40

DOCKED: MODEL       51
DOCKED: USER    Run = 51
DOCKED: USER    DPF = D:/Protein_go_brrr/autodock/final/mut_D99N/heme_Co/dock.dpf
DOCKED: USER  
DOCKED: USER    Estimated Free Energy of Binding    =   -4.83 kcal/mol  [=(1)+(2)+(3)-(4)]
DOCKED: USER    Estimated Inhibition Constant, Ki   =  286.89 uM (micromolar)  [Temperature = 298.15 K]
DOCKED: USER    
DOCKED: USER    (1) Final Intermolecular Energy     =   -8.41 kcal/mol
DOCKED: USER        vdW + Hbond + desolv Energy     =   -6.60 kcal/mol
DOCKED: USER        Electrostatic Energy            =   -1.81 kcal/mol
DOCKED: USER    (2) Final Total Internal Energy     =   -2.10 kcal/mol
DOCKED: USER    (3) Torsional Free Energy           =   +3.58 kcal/mol
DOCKED: USER    (4) Unbound System's Energy  [=(2)] =   -2.10 kcal/mol
DOCKED: USER    
DOCKED: USER    
DOCKED: USER    NEWDPF move heme_Co_opt.pdbqt
DOCKED: USER    NEWDPF about 8.781000 34.984000 -0.736000
DOCKED: USER    NEWDPF tran0 5.369782 2.782007 -16.103996
DOCKED: USER    NEWDPF quaternion0 -0.467968 0.238004 -0.652826 0.546057
DOCKED: USER    NEWDPF axisangle0 -0.558602 0.284100 -0.779263 113.806112
DOCKED: USER    NEWDPF quat0 -0.558602 0.284100 -0.779263 113.806112
DOCKED: USER    NEWDPF dihe0 -180.00 -107.07 111.83 6.33 -65.64 -141.29 28.23 -73.53 -133.93 126.87 -178.88 -163.40 
DOCKED: USER  keepresnum = 1 
DOCKED: USER  
DOCKED: REMARK  12 active torsions:
DOCKED: REMARK  status: ('A' for Active; 'I' for Inactive)
DOCKED: REMARK    1  A    between atoms: C_6  and  C_10 
DOCKED: REMARK    2  A    between atoms: C_10  and  C_11 
DOCKED: REMARK    3  A    between atoms: C_11  and  C_12 
DOCKED: REMARK    4  A    between atoms: C_12  and  O_14 
DOCKED: REMARK    5  A    between atoms: C_17  and  C_20 
DOCKED: REMARK    6  A    between atoms: C_24  and  C_27 
DOCKED: REMARK    7  A    between atoms: C_31  and  C_34 
DOCKED: REMARK    8  A    between atoms: C_34  and  C_35 
DOCKED: REMARK    9  A    between atoms: C_35  and  C_36 
DOCKED: REMARK   10  A    between atoms: C_36  and  O_38 
DOCKED: REMARK   11  A    between atoms: FE_43  and  C_44 
DOCKED: REMARK   12  A    between atoms: C_44  and  O_45 
DOCKED: USER                              x       y       z     vdW  Elec       q    Type
DOCKED: USER                           _______ _______ _______ _____ _____    ______ ____
DOCKED: ROOT
DOCKED: ATOM      1  C   UNL d   1       4.538   2.387 -18.071 -0.02 +0.01    +0.064 A 
DOCKED: ATOM      2  C   UNL d   1       8.382   0.707 -15.831 -0.15 +0.02    +0.064 C 
DOCKED: ATOM      3  C   UNL d   1       7.605   3.691 -12.181 -0.16 +0.01    +0.064 A 
DOCKED: ATOM      4  C   UNL d   1       3.462   5.149 -14.271 -0.10 +0.01    +0.064 A 
DOCKED: ATOM      5  C   UNL d   1       5.666   1.735 -17.743 -0.03 +0.01    +0.066 A 
DOCKED: ATOM      6  C   UNL d   1       6.191   0.703 -18.545 -0.06 -0.00    -0.021 A 
DOCKED: ATOM      7  C   UNL d   1       7.294   0.203 -17.879 -0.10 -0.01    -0.025 A 
DOCKED: ATOM      8  C   UNL d   1       7.403   0.962 -16.709 -0.09 +0.02    +0.066 A 
DOCKED: ATOM      9  C   UNL d   1       8.218  -0.944 -18.315 -0.18 +0.02    +0.051 C 
DOCKED: ATOM     10  C   UNL d   1       8.588   1.452 -14.614 -0.14 +0.02    +0.066 A 
DOCKED: ATOM     11  C   UNL d   1       9.676   1.326 -13.723 -0.19 -0.00    -0.021 A 
DOCKED: ATOM     12  C   UNL d   1       9.426   2.210 -12.670 -0.22 +0.00    +0.000 A 
DOCKED: ATOM     13  C   UNL d   1       8.215   2.817 -13.002 -0.16 +0.01    +0.070 A 
DOCKED: ATOM     14  C   UNL d   1      10.908   0.482 -13.931 -0.11 +0.02    +0.052 C 
DOCKED: ATOM     15  C   UNL d   1       6.334   4.369 -12.340 -0.08 +0.01    +0.066 A 
DOCKED: ATOM     16  C   UNL d   1       5.692   5.149 -11.389 -0.03 -0.00    -0.021 A 
DOCKED: ATOM     17  C   UNL d   1       4.495   5.569 -11.986 -0.14 +0.00    +0.000 A 
DOCKED: ATOM     18  C   UNL d   1       4.510   5.025 -13.266 -0.10 +0.01    +0.070 A 
DOCKED: ATOM     19  C   UNL d   1       6.218   5.451 -10.003 -0.23 +0.01    +0.052 C 
DOCKED: ATOM     20  C   UNL d   1       3.414   4.559 -15.490 -0.07 +0.01    +0.066 A 
DOCKED: ATOM     21  C   UNL d   1       2.335   4.725 -16.355 -0.07 -0.01    -0.025 A 
DOCKED: ATOM     22  C   UNL d   1       2.631   3.964 -17.471 -0.03 -0.01    -0.021 A 
DOCKED: ATOM     23  C   UNL d   1       3.880   3.356 -17.224 -0.02 +0.01    +0.066 A 
DOCKED: ATOM     24  C   UNL d   1       1.074   5.553 -16.122 +0.03 +0.01    +0.051 C 
DOCKED: ATOM     25  N   UNL d   1       6.411   1.922 -16.601 -0.01 -0.05    -0.248 N 
DOCKED: ATOM     26  N   UNL d   1       7.738   2.399 -14.204 -0.07 -0.04    -0.248 N 
DOCKED: ATOM     27  N   UNL d   1       5.605   4.292 -13.431 -0.04 -0.04    -0.248 N 
DOCKED: ATOM     28  N   UNL d   1       4.357   3.712 -16.025 -0.02 -0.05    -0.248 N 
DOCKED: ATOM     29 FE   UNL d   1       5.981   3.179 -14.924 -0.02 +0.00    +0.000 Fe
DOCKED: ENDROOT
DOCKED: BRANCH   6  30
DOCKED: ATOM     30  C   UNL d   1       5.603   0.175 -19.849 -0.08 +0.01    +0.052 C 
DOCKED: BRANCH  30  31
DOCKED: ATOM     31  C   UNL d   1       4.718  -1.042 -19.586 -0.12 +0.03    +0.115 C 
DOCKED: BRANCH  31  32
DOCKED: ATOM     32  C   UNL d   1       3.806  -0.846 -18.393 -0.17 +0.04    +0.139 C 
DOCKED: ATOM     33  O   UNL d   1       4.099  -1.357 -17.323 -0.48 -0.32    -0.650 OA
DOCKED: BRANCH  32  34
DOCKED: ATOM     34  O   UNL d   1       2.694  -0.077 -18.459 +0.05 -0.25    -0.776 OA
DOCKED: ATOM     35  H   UNL d   1       2.060   0.024 -17.737 -0.42 +0.06    +0.167 HD
DOCKED: ENDBRANCH  32  34
DOCKED: ENDBRANCH  31  32
DOCKED: ENDBRANCH  30  31
DOCKED: ENDBRANCH   6  30
DOCKED: BRANCH  29  36
DOCKED: ATOM     36  C   UNL d   1       4.931   1.553 -14.118 -0.22 +0.04    +0.190 C 
DOCKED: BRANCH  36  37
DOCKED: ATOM     37  O   UNL d   1       5.092   0.246 -13.647 -0.19 -0.08    -0.399 OA
DOCKED: ATOM     38  H   UNL d   1       4.501   0.188 -12.845 -0.33 +0.00    +0.209 HD
DOCKED: ENDBRANCH  36  37
DOCKED: ENDBRANCH  29  36
DOCKED: BRANCH  22  39
DOCKED: ATOM     39  C   UNL d   1       1.728   3.782 -18.676 -0.01 +0.01    +0.052 C 
DOCKED: BRANCH  39  40
DOCKED: ATOM     40  C   UNL d   1       0.408   3.107 -18.269 -0.05 +0.06    +0.115 C 
DOCKED: BRANCH  40  41
DOCKED: ATOM     41  C   UNL d   1       0.575   1.748 -17.624 -0.14 +0.11    +0.139 C 
DOCKED: ATOM     42  O   UNL d   1       1.148   1.663 -16.547 -0.06 -0.43    -0.650 OA
DOCKED: BRANCH  41  43
DOCKED: ATOM     43  O   UNL d   1       0.030   0.634 -18.162 -0.22 -1.37    -0.776 OA
DOCKED: ATOM     44  H   UNL d   1       0.565  -0.112 -18.463 -0.53 +0.26    +0.167 HD
DOCKED: ENDBRANCH  41  43
DOCKED: ENDBRANCH  40  41
DOCKED: ENDBRANCH  39  40
DOCKED: ENDBRANCH  22  39
DOCKED: BRANCH  12  45
DOCKED: ATOM     45  C   UNL d   1      10.198   2.564 -11.405 -0.21 +0.00    +0.004 C 
DOCKED: ATOM     46  C   UNL d   1      11.341   2.082 -10.925 -0.21 +0.00    +0.012 C 
DOCKED: ENDBRANCH  12  45
DOCKED: BRANCH  17  47
DOCKED: ATOM     47  C   UNL d   1       3.376   6.377 -11.415 -0.23 +0.00    +0.004 C 
DOCKED: ATOM     48  C   UNL d   1       2.353   5.846 -10.741 -0.38 +0.00    +0.012 C 
DOCKED: ENDBRANCH  17  47
DOCKED: TORSDOF 12
DOCKED: TER
DOCKED: ENDMDL
________________________________________________________________________________


	BEGINNING GENETIC ALGORITHM DOCKING 52 of 100
Run: 52 Seed: 105696966 1478196851 [ Run 52 of 100 GA/GALS ]
Beginning LAMARCKIAN GENETIC ALGORITHM (LGA), with a maximum of 25000000 energy evaluations.

Final-Value: -9.704


	FINAL GENETIC ALGORITHM DOCKED STATE
	_______________________________________________


Detailed state:  trans 1.372 0.471 -20.097 quatxyzw 0.428959 -0.042334 0.185626 0.883032 center 8.781 34.984 -0.736 ntor 12 -7.8936 109.0071 -144.6961 -78.4054 139.5583 90.8301 -134.6502 116.8971 179.9043 -140.2234 5.1126 -18.9315
State:	  1.372   0.471 -20.097   0.914 -0.090  0.396 55.979     -7.89  109.01 -144.70  -78.41  139.56   90.83 -134.65  116.90  179.90 -140.22    5.11  -18.93

DOCKED: MODEL       52
DOCKED: USER    Run = 52
DOCKED: USER    DPF = D:/Protein_go_brrr/autodock/final/mut_D99N/heme_Co/dock.dpf
DOCKED: USER  
DOCKED: USER    Estimated Free Energy of Binding    =   -4.18 kcal/mol  [=(1)+(2)+(3)-(4)]
DOCKED: USER    Estimated Inhibition Constant, Ki   =  870.10 uM (micromolar)  [Temperature = 298.15 K]
DOCKED: USER    
DOCKED: USER    (1) Final Intermolecular Energy     =   -7.75 kcal/mol
DOCKED: USER        vdW + Hbond + desolv Energy     =   -4.90 kcal/mol
DOCKED: USER        Electrostatic Energy            =   -2.85 kcal/mol
DOCKED: USER    (2) Final Total Internal Energy     =   -1.95 kcal/mol
DOCKED: USER    (3) Torsional Free Energy           =   +3.58 kcal/mol
DOCKED: USER    (4) Unbound System's Energy  [=(2)] =   -1.95 kcal/mol
DOCKED: USER    
DOCKED: USER    
DOCKED: USER    NEWDPF move heme_Co_opt.pdbqt
DOCKED: USER    NEWDPF about 8.781000 34.984000 -0.736000
DOCKED: USER    NEWDPF tran0 1.371911 0.470901 -20.097262
DOCKED: USER    NEWDPF quaternion0 0.428959 -0.042334 0.185626 0.883032
DOCKED: USER    NEWDPF axisangle0 0.914014 -0.090204 0.395528 55.979482
DOCKED: USER    NEWDPF quat0 0.914014 -0.090204 0.395528 55.979482
DOCKED: USER    NEWDPF dihe0 -7.89 109.01 -144.70 -78.41 139.56 90.83 -134.65 116.90 179.90 -140.22 5.11 -18.93 
DOCKED: USER  keepresnum = 1 
DOCKED: USER  
DOCKED: REMARK  12 active torsions:
DOCKED: REMARK  status: ('A' for Active; 'I' for Inactive)
DOCKED: REMARK    1  A    between atoms: C_6  and  C_10 
DOCKED: REMARK    2  A    between atoms: C_10  and  C_11 
DOCKED: REMARK    3  A    between atoms: C_11  and  C_12 
DOCKED: REMARK    4  A    between atoms: C_12  and  O_14 
DOCKED: REMARK    5  A    between atoms: C_17  and  C_20 
DOCKED: REMARK    6  A    between atoms: C_24  and  C_27 
DOCKED: REMARK    7  A    between atoms: C_31  and  C_34 
DOCKED: REMARK    8  A    between atoms: C_34  and  C_35 
DOCKED: REMARK    9  A    between atoms: C_35  and  C_36 
DOCKED: REMARK   10  A    between atoms: C_36  and  O_38 
DOCKED: REMARK   11  A    between atoms: FE_43  and  C_44 
DOCKED: REMARK   12  A    between atoms: C_44  and  O_45 
DOCKED: USER                              x       y       z     vdW  Elec       q    Type
DOCKED: USER                           _______ _______ _______ _____ _____    ______ ____
DOCKED: ROOT
DOCKED: ATOM      1  C   UNL d   1      -0.476   0.826 -21.181 -0.06 +0.04    +0.064 A 
DOCKED: ATOM      2  C   UNL d   1       0.790   1.641 -16.670 -0.22 +0.05    +0.064 C 
DOCKED: ATOM      3  C   UNL d   1       4.988  -0.514 -17.421 -0.23 +0.02    +0.064 A 
DOCKED: ATOM      4  C   UNL d   1       3.875  -1.014 -22.129 -0.07 +0.01    +0.064 A 
DOCKED: ATOM      5  C   UNL d   1      -0.453   1.174 -19.884 -0.09 +0.06    +0.066 A 
DOCKED: ATOM      6  C   UNL d   1      -1.499   1.907 -19.288 -0.09 -0.02    -0.021 A 
DOCKED: ATOM      7  C   UNL d   1      -1.116   2.160 -17.986 -0.13 -0.03    -0.025 A 
DOCKED: ATOM      8  C   UNL d   1       0.138   1.558 -17.837 -0.12 +0.07    +0.066 A 
DOCKED: ATOM      9  C   UNL d   1      -1.889   2.938 -16.910 -0.19 +0.04    +0.051 C 
DOCKED: ATOM     10  C   UNL d   1       2.072   1.031 -16.417 -0.16 +0.03    +0.066 A 
DOCKED: ATOM     11  C   UNL d   1       2.742   0.961 -15.176 -0.31 -0.01    -0.021 A 
DOCKED: ATOM     12  C   UNL d   1       3.962   0.325 -15.423 -0.31 +0.00    +0.000 A 
DOCKED: ATOM     13  C   UNL d   1       3.940   0.042 -16.789 -0.21 +0.02    +0.070 A 
DOCKED: ATOM     14  C   UNL d   1       2.194   1.394 -13.840 -0.12 +0.02    +0.052 C 
DOCKED: ATOM     15  C   UNL d   1       5.156  -0.825 -18.827 -0.17 +0.02    +0.066 A 
DOCKED: ATOM     16  C   UNL d   1       6.321  -1.265 -19.439 -0.10 -0.01    -0.021 A 
DOCKED: ATOM     17  C   UNL d   1       6.006  -1.409 -20.798 -0.14 +0.00    +0.000 A 
DOCKED: ATOM     18  C   UNL d   1       4.664  -1.059 -20.904 -0.11 +0.01    +0.070 A 
DOCKED: ATOM     19  C   UNL d   1       7.637  -1.521 -18.739 -0.24 +0.02    +0.052 C 
DOCKED: ATOM     20  C   UNL d   1       2.595  -0.596 -22.271 -0.04 +0.01    +0.066 A 
DOCKED: ATOM     21  C   UNL d   1       1.955  -0.564 -23.508 -0.02 -0.00    -0.025 A 
DOCKED: ATOM     22  C   UNL d   1       0.689  -0.065 -23.262 -0.02 -0.01    -0.021 A 
DOCKED: ATOM     23  C   UNL d   1       0.623   0.196 -21.877 -0.05 +0.03    +0.066 A 
DOCKED: ATOM     24  C   UNL d   1       2.528  -0.971 -24.863 -0.01 +0.01    +0.051 C 
DOCKED: ATOM     25  N   UNL d   1       0.571   0.935 -18.996 -0.10 -0.24    -0.248 N 
DOCKED: ATOM     26  N   UNL d   1       2.773   0.419 -17.377 -0.02 -0.08    -0.248 N 
DOCKED: ATOM     27  N   UNL d   1       4.199  -0.688 -19.717 -0.10 -0.06    -0.248 N 
DOCKED: ATOM     28  N   UNL d   1       1.775  -0.121 -21.274 -0.04 -0.09    -0.248 N 
DOCKED: ATOM     29 FE   UNL d   1       2.491   0.074 -19.381 -0.03 +0.00    +0.000 Fe
DOCKED: ENDROOT
DOCKED: BRANCH   6  30
DOCKED: ATOM     30  C   UNL d   1      -2.766   2.405 -19.974 -0.07 +0.05    +0.052 C 
DOCKED: BRANCH  30  31
DOCKED: ATOM     31  C   UNL d   1      -3.872   1.354 -19.890 -0.06 +0.17    +0.115 C 
DOCKED: BRANCH  31  32
DOCKED: ATOM     32  C   UNL d   1      -3.413   0.088 -19.199 +0.15 +0.28    +0.139 C 
DOCKED: ATOM     33  O   UNL d   1      -3.635  -0.060 -18.006 -0.14 -1.71    -0.650 OA
DOCKED: BRANCH  32  34
DOCKED: ATOM     34  O   UNL d   1      -2.803  -0.916 -19.871 -0.14 -1.45    -0.776 OA
DOCKED: ATOM     35  H   UNL d   1      -2.765  -0.980 -20.835 +0.02 +0.18    +0.167 HD
DOCKED: ENDBRANCH  32  34
DOCKED: ENDBRANCH  31  32
DOCKED: ENDBRANCH  30  31
DOCKED: ENDBRANCH   6  30
DOCKED: BRANCH  29  36
DOCKED: ATOM     36  C   UNL d   1       3.152   2.018 -19.806 -0.01 +0.05    +0.190 C 
DOCKED: BRANCH  36  37
DOCKED: ATOM     37  O   UNL d   1       2.974   3.087 -20.691 +0.01 -0.08    -0.399 OA
DOCKED: ATOM     38  H   UNL d   1       2.329   2.750 -21.374 +0.01 +0.04    +0.209 HD
DOCKED: ENDBRANCH  36  37
DOCKED: ENDBRANCH  29  36
DOCKED: BRANCH  22  39
DOCKED: ATOM     39  C   UNL d   1      -0.370   0.204 -24.313 -0.01 +0.01    +0.052 C 
DOCKED: BRANCH  39  40
DOCKED: ATOM     40  C   UNL d   1      -1.128  -1.087 -24.664 -0.02 +0.02    +0.115 C 
DOCKED: BRANCH  40  41
DOCKED: ATOM     41  C   UNL d   1      -1.311  -2.039 -23.501 -0.08 +0.04    +0.139 C 
DOCKED: ATOM     42  O   UNL d   1      -0.626  -3.051 -23.441 -0.03 -0.14    -0.650 OA
DOCKED: BRANCH  41  43
DOCKED: ATOM     43  O   UNL d   1      -2.151  -1.759 -22.480 -0.00 -0.37    -0.776 OA
DOCKED: ATOM     44  H   UNL d   1      -1.923  -1.934 -21.557 +0.02 +0.12    +0.167 HD
DOCKED: ENDBRANCH  41  43
DOCKED: ENDBRANCH  40  41
DOCKED: ENDBRANCH  39  40
DOCKED: ENDBRANCH  22  39
DOCKED: BRANCH  12  45
DOCKED: ATOM     45  C   UNL d   1       5.130  -0.064 -14.527 -0.43 +0.00    +0.004 C 
DOCKED: ATOM     46  C   UNL d   1       6.200   0.630 -14.150 -0.31 +0.00    +0.012 C 
DOCKED: ENDBRANCH  12  45
DOCKED: BRANCH  17  47
DOCKED: ATOM     47  C   UNL d   1       6.882  -1.791 -21.945 -0.14 +0.00    +0.004 C 
DOCKED: ATOM     48  C   UNL d   1       6.688  -2.884 -22.687 -0.15 +0.00    +0.012 C 
DOCKED: ENDBRANCH  17  47
DOCKED: TORSDOF 12
DOCKED: TER
DOCKED: ENDMDL
________________________________________________________________________________


	BEGINNING GENETIC ALGORITHM DOCKING 53 of 100
Run: 53 Seed: 1049114927 553147663 [ Run 53 of 100 GA/GALS ]
Beginning LAMARCKIAN GENETIC ALGORITHM (LGA), with a maximum of 25000000 energy evaluations.

Final-Value: -10.418


	FINAL GENETIC ALGORITHM DOCKED STATE
	_______________________________________________


Detailed state:  trans 2.485 0.062 -20.101 quatxyzw -0.369462 0.442252 -0.082895 -0.813044 center 8.781 34.984 -0.736 ntor 12 -141.8543 104.3200 -16.6614 62.0696 136.0905 165.5882 139.1251 -121.6296 -92.1580 -86.4310 -10.8088 -11.4547
State:	  2.485   0.062 -20.101  -0.635  0.760 -0.142 -71.211   -141.85  104.32  -16.66   62.07  136.09  165.59  139.13 -121.63  -92.16  -86.43  -10.81  -11.45

DOCKED: MODEL       53
DOCKED: USER    Run = 53
DOCKED: USER    DPF = D:/Protein_go_brrr/autodock/final/mut_D99N/heme_Co/dock.dpf
DOCKED: USER  
DOCKED: USER    Estimated Free Energy of Binding    =   -6.02 kcal/mol  [=(1)+(2)+(3)-(4)]
DOCKED: USER    Estimated Inhibition Constant, Ki   =   38.61 uM (micromolar)  [Temperature = 298.15 K]
DOCKED: USER    
DOCKED: USER    (1) Final Intermolecular Energy     =   -9.60 kcal/mol
DOCKED: USER        vdW + Hbond + desolv Energy     =   -6.17 kcal/mol
DOCKED: USER        Electrostatic Energy            =   -3.43 kcal/mol
DOCKED: USER    (2) Final Total Internal Energy     =   -0.82 kcal/mol
DOCKED: USER    (3) Torsional Free Energy           =   +3.58 kcal/mol
DOCKED: USER    (4) Unbound System's Energy  [=(2)] =   -0.82 kcal/mol
DOCKED: USER    
DOCKED: USER    
DOCKED: USER    NEWDPF move heme_Co_opt.pdbqt
DOCKED: USER    NEWDPF about 8.781000 34.984000 -0.736000
DOCKED: USER    NEWDPF tran0 2.484762 0.061575 -20.100943
DOCKED: USER    NEWDPF quaternion0 -0.369462 0.442252 -0.082895 -0.813044
DOCKED: USER    NEWDPF axisangle0 -0.634593 0.759618 -0.142381 -71.211260
DOCKED: USER    NEWDPF quat0 -0.634593 0.759618 -0.142381 -71.211260
DOCKED: USER    NEWDPF dihe0 -141.85 104.32 -16.66 62.07 136.09 165.59 139.13 -121.63 -92.16 -86.43 -10.81 -11.45 
DOCKED: USER  keepresnum = 1 
DOCKED: USER  
DOCKED: REMARK  12 active torsions:
DOCKED: REMARK  status: ('A' for Active; 'I' for Inactive)
DOCKED: REMARK    1  A    between atoms: C_6  and  C_10 
DOCKED: REMARK    2  A    between atoms: C_10  and  C_11 
DOCKED: REMARK    3  A    between atoms: C_11  and  C_12 
DOCKED: REMARK    4  A    between atoms: C_12  and  O_14 
DOCKED: REMARK    5  A    between atoms: C_17  and  C_20 
DOCKED: REMARK    6  A    between atoms: C_24  and  C_27 
DOCKED: REMARK    7  A    between atoms: C_31  and  C_34 
DOCKED: REMARK    8  A    between atoms: C_34  and  C_35 
DOCKED: REMARK    9  A    between atoms: C_35  and  C_36 
DOCKED: REMARK   10  A    between atoms: C_36  and  O_38 
DOCKED: REMARK   11  A    between atoms: FE_43  and  C_44 
DOCKED: REMARK   12  A    between atoms: C_44  and  O_45 
DOCKED: USER                              x       y       z     vdW  Elec       q    Type
DOCKED: USER                           _______ _______ _______ _____ _____    ______ ____
DOCKED: ROOT
DOCKED: ATOM      1  C   UNL d   1       0.574   0.862 -19.450 -0.12 +0.06    +0.064 A 
DOCKED: ATOM      2  C   UNL d   1       4.749   0.354 -17.231 -0.17 +0.02    +0.064 C 
DOCKED: ATOM      3  C   UNL d   1       6.533  -1.928 -21.030 -0.06 +0.01    +0.064 A 
DOCKED: ATOM      4  C   UNL d   1       2.406  -1.081 -23.461 -0.03 +0.01    +0.064 A 
DOCKED: ATOM      5  C   UNL d   1       1.572   0.859 -18.551 -0.08 +0.04    +0.066 A 
DOCKED: ATOM      6  C   UNL d   1       1.459   1.510 -17.307 -0.16 -0.01    -0.021 A 
DOCKED: ATOM      7  C   UNL d   1       2.681   1.378 -16.676 -0.16 -0.01    -0.025 A 
DOCKED: ATOM      8  C   UNL d   1       3.481   0.640 -17.555 -0.14 +0.02    +0.066 A 
DOCKED: ATOM      9  C   UNL d   1       3.095   1.922 -15.300 -0.22 +0.02    +0.051 C 
DOCKED: ATOM     10  C   UNL d   1       5.638  -0.422 -18.058 -0.17 +0.02    +0.066 A 
DOCKED: ATOM     11  C   UNL d   1       6.931  -0.875 -17.715 -0.23 -0.01    -0.021 A 
DOCKED: ATOM     12  C   UNL d   1       7.426  -1.541 -18.839 -0.20 +0.00    +0.000 A 
DOCKED: ATOM     13  C   UNL d   1       6.398  -1.456 -19.778 -0.09 +0.02    +0.070 A 
DOCKED: ATOM     14  C   UNL d   1       7.589  -0.752 -16.365 -0.26 +0.02    +0.052 C 
DOCKED: ATOM     15  C   UNL d   1       5.599  -1.879 -22.138 -0.11 +0.01    +0.066 A 
DOCKED: ATOM     16  C   UNL d   1       5.856  -2.256 -23.448 -0.09 -0.00    -0.021 A 
DOCKED: ATOM     17  C   UNL d   1       4.669  -2.012 -24.154 -0.04 +0.00    +0.000 A 
DOCKED: ATOM     18  C   UNL d   1       3.773  -1.518 -23.211 -0.05 +0.01    +0.070 A 
DOCKED: ATOM     19  C   UNL d   1       7.166  -2.811 -23.961 -0.09 +0.00    +0.052 C 
DOCKED: ATOM     20  C   UNL d   1       1.546  -0.518 -22.579 -0.04 +0.02    +0.066 A 
DOCKED: ATOM     21  C   UNL d   1       0.267  -0.106 -22.947 -0.03 -0.01    -0.025 A 
DOCKED: ATOM     22  C   UNL d   1      -0.295   0.432 -21.804 -0.06 -0.01    -0.021 A 
DOCKED: ATOM     23  C   UNL d   1       0.681   0.331 -20.790 -0.10 +0.04    +0.066 A 
DOCKED: ATOM     24  C   UNL d   1      -0.381  -0.201 -24.326 -0.02 +0.01    +0.051 C 
DOCKED: ATOM     25  N   UNL d   1       2.818   0.300 -18.722 -0.08 -0.08    -0.248 N 
DOCKED: ATOM     26  N   UNL d   1       5.297  -0.828 -19.286 -0.10 -0.06    -0.248 N 
DOCKED: ATOM     27  N   UNL d   1       4.371  -1.424 -22.028 -0.06 -0.04    -0.248 N 
DOCKED: ATOM     28  N   UNL d   1       1.797  -0.241 -21.255 -0.05 -0.09    -0.248 N 
DOCKED: ATOM     29 FE   UNL d   1       3.637  -0.613 -20.474 -0.03 +0.00    +0.000 Fe
DOCKED: ENDROOT
DOCKED: BRANCH   6  30
DOCKED: ATOM     30  C   UNL d   1       0.253   2.289 -16.794 -0.17 +0.04    +0.052 C 
DOCKED: BRANCH  30  31
DOCKED: ATOM     31  C   UNL d   1      -0.876   1.336 -16.404 -0.20 +0.17    +0.115 C 
DOCKED: BRANCH  31  32
DOCKED: ATOM     32  C   UNL d   1      -0.739   0.830 -14.984 -0.31 +0.17    +0.139 C 
DOCKED: ATOM     33  O   UNL d   1       0.097   1.329 -14.246 -0.48 -0.61    -0.650 OA
DOCKED: BRANCH  32  34
DOCKED: ATOM     34  O   UNL d   1      -1.550  -0.131 -14.483 -0.38 -1.06    -0.776 OA
DOCKED: ATOM     35  H   UNL d   1      -1.843  -0.171 -13.562 -0.33 +0.12    +0.167 HD
DOCKED: ENDBRANCH  32  34
DOCKED: ENDBRANCH  31  32
DOCKED: ENDBRANCH  30  31
DOCKED: ENDBRANCH   6  30
DOCKED: BRANCH  29  36
DOCKED: ATOM     36  C   UNL d   1       4.286   1.301 -21.031 -0.01 +0.03    +0.190 C 
DOCKED: BRANCH  36  37
DOCKED: ATOM     37  O   UNL d   1       4.436   2.608 -20.557 +0.00 -0.06    -0.399 OA
DOCKED: ATOM     38  H   UNL d   1       3.972   2.615 -19.674 +0.01 +0.04    +0.209 HD
DOCKED: ENDBRANCH  36  37
DOCKED: ENDBRANCH  29  36
DOCKED: BRANCH  22  39
DOCKED: ATOM     39  C   UNL d   1      -1.671   1.066 -21.715 -0.04 +0.03    +0.052 C 
DOCKED: BRANCH  39  40
DOCKED: ATOM     40  C   UNL d   1      -2.732   0.012 -21.357 -0.09 +0.09    +0.115 C 
DOCKED: BRANCH  40  41
DOCKED: ATOM     41  C   UNL d   1      -2.926  -0.199 -19.870 -0.09 +0.23    +0.139 C 
DOCKED: ATOM     42  O   UNL d   1      -2.500   0.637 -19.086 -0.07 -1.28    -0.650 OA
DOCKED: BRANCH  41  43
DOCKED: ATOM     43  O   UNL d   1      -3.634  -1.244 -19.387 -0.42 -1.54    -0.776 OA
DOCKED: ATOM     44  H   UNL d   1      -4.166  -1.817 -19.955 +0.04 +0.20    +0.167 HD
DOCKED: ENDBRANCH  41  43
DOCKED: ENDBRANCH  40  41
DOCKED: ENDBRANCH  39  40
DOCKED: ENDBRANCH  22  39
DOCKED: BRANCH  12  45
DOCKED: ATOM     45  C   UNL d   1       8.738  -2.259 -19.126 -0.26 +0.00    +0.004 C 
DOCKED: ATOM     46  C   UNL d   1       9.352  -3.237 -18.465 -0.29 +0.01    +0.012 C 
DOCKED: ENDBRANCH  12  45
DOCKED: BRANCH  17  47
DOCKED: ATOM     47  C   UNL d   1       4.375  -2.167 -25.610 -0.02 +0.00    +0.004 C 
DOCKED: ATOM     48  C   UNL d   1       3.503  -3.053 -26.095 -0.02 +0.00    +0.012 C 
DOCKED: ENDBRANCH  17  47
DOCKED: TORSDOF 12
DOCKED: TER
DOCKED: ENDMDL
________________________________________________________________________________


	BEGINNING GENETIC ALGORITHM DOCKING 54 of 100
Run: 54 Seed: 489512146 2080465282 [ Run 54 of 100 GA/GALS ]
Beginning LAMARCKIAN GENETIC ALGORITHM (LGA), with a maximum of 25000000 energy evaluations.

Final-Value: -9.940


	FINAL GENETIC ALGORITHM DOCKED STATE
	_______________________________________________


Detailed state:  trans -8.261 -4.759 -20.285 quatxyzw 0.160719 0.016093 -0.591739 -0.789782 center 8.781 34.984 -0.736 ntor 12 -138.3230 -176.7478 69.3128 -96.0227 -73.5422 136.3501 81.9776 -2.6706 58.5913 77.5450 -28.3519 -176.6404
State:	 -8.261  -4.759 -20.285   0.262  0.026 -0.965 -75.670   -138.32 -176.75   69.31  -96.02  -73.54  136.35   81.98   -2.67   58.59   77.54  -28.35 -176.64

DOCKED: MODEL       54
DOCKED: USER    Run = 54
DOCKED: USER    DPF = D:/Protein_go_brrr/autodock/final/mut_D99N/heme_Co/dock.dpf
DOCKED: USER  
DOCKED: USER    Estimated Free Energy of Binding    =   -4.13 kcal/mol  [=(1)+(2)+(3)-(4)]
DOCKED: USER    Estimated Inhibition Constant, Ki   =  934.04 uM (micromolar)  [Temperature = 298.15 K]
DOCKED: USER    
DOCKED: USER    (1) Final Intermolecular Energy     =   -7.71 kcal/mol
DOCKED: USER        vdW + Hbond + desolv Energy     =   -4.39 kcal/mol
DOCKED: USER        Electrostatic Energy            =   -3.32 kcal/mol
DOCKED: USER    (2) Final Total Internal Energy     =   -2.23 kcal/mol
DOCKED: USER    (3) Torsional Free Energy           =   +3.58 kcal/mol
DOCKED: USER    (4) Unbound System's Energy  [=(2)] =   -2.23 kcal/mol
DOCKED: USER    
DOCKED: USER    
DOCKED: USER    NEWDPF move heme_Co_opt.pdbqt
DOCKED: USER    NEWDPF about 8.781000 34.984000 -0.736000
DOCKED: USER    NEWDPF tran0 -8.261195 -4.758747 -20.285052
DOCKED: USER    NEWDPF quaternion0 0.160719 0.016093 -0.591739 -0.789782
DOCKED: USER    NEWDPF axisangle0 0.262019 0.026236 -0.964706 -75.669695
DOCKED: USER    NEWDPF quat0 0.262019 0.026236 -0.964706 -75.669695
DOCKED: USER    NEWDPF dihe0 -138.32 -176.75 69.31 -96.02 -73.54 136.35 81.98 -2.67 58.59 77.54 -28.35 -176.64 
DOCKED: USER  keepresnum = 1 
DOCKED: USER  
DOCKED: REMARK  12 active torsions:
DOCKED: REMARK  status: ('A' for Active; 'I' for Inactive)
DOCKED: REMARK    1  A    between atoms: C_6  and  C_10 
DOCKED: REMARK    2  A    between atoms: C_10  and  C_11 
DOCKED: REMARK    3  A    between atoms: C_11  and  C_12 
DOCKED: REMARK    4  A    between atoms: C_12  and  O_14 
DOCKED: REMARK    5  A    between atoms: C_17  and  C_20 
DOCKED: REMARK    6  A    between atoms: C_24  and  C_27 
DOCKED: REMARK    7  A    between atoms: C_31  and  C_34 
DOCKED: REMARK    8  A    between atoms: C_34  and  C_35 
DOCKED: REMARK    9  A    between atoms: C_35  and  C_36 
DOCKED: REMARK   10  A    between atoms: C_36  and  O_38 
DOCKED: REMARK   11  A    between atoms: FE_43  and  C_44 
DOCKED: REMARK   12  A    between atoms: C_44  and  O_45 
DOCKED: USER                              x       y       z     vdW  Elec       q    Type
DOCKED: USER                           _______ _______ _______ _____ _____    ______ ____
DOCKED: ROOT
DOCKED: ATOM      1  C   UNL d   1      -8.231  -2.604 -20.556 -0.06 +0.03    +0.064 A 
DOCKED: ATOM      2  C   UNL d   1     -10.970  -5.454 -17.912 -0.16 +0.00    +0.064 C 
DOCKED: ATOM      3  C   UNL d   1      -8.855  -9.300 -19.799 -0.07 +0.00    +0.064 A 
DOCKED: ATOM      4  C   UNL d   1      -5.784  -6.407 -22.221 -0.06 +0.01    +0.064 A 
DOCKED: ATOM      5  C   UNL d   1      -9.160  -3.101 -19.722 -0.08 +0.02    +0.066 A 
DOCKED: ATOM      6  C   UNL d   1      -9.957  -2.270 -18.912 -0.14 -0.01    -0.021 A 
DOCKED: ATOM      7  C   UNL d   1     -10.734  -3.102 -18.130 -0.16 -0.01    -0.025 A 
DOCKED: ATOM      8  C   UNL d   1     -10.389  -4.405 -18.508 -0.13 +0.01    +0.066 A 
DOCKED: ATOM      9  C   UNL d   1     -11.764  -2.703 -17.063 -0.22 +0.01    +0.051 C 
DOCKED: ATOM     10  C   UNL d   1     -10.699  -6.828 -18.253 -0.08 +0.00    +0.066 A 
DOCKED: ATOM     11  C   UNL d   1     -11.374  -7.968 -17.765 -0.10 -0.00    -0.021 A 
DOCKED: ATOM     12  C   UNL d   1     -10.740  -9.075 -18.335 -0.07 +0.00    +0.000 A 
DOCKED: ATOM     13  C   UNL d   1      -9.735  -8.531 -19.135 -0.10 +0.00    +0.070 A 
DOCKED: ATOM     14  C   UNL d   1     -12.602  -7.971 -16.891 -0.08 +0.01    +0.052 C 
DOCKED: ATOM     15  C   UNL d   1      -7.729  -8.908 -20.624 -0.06 +0.00    +0.066 A 
DOCKED: ATOM     16  C   UNL d   1      -6.770  -9.753 -21.164 -0.04 -0.00    -0.021 A 
DOCKED: ATOM     17  C   UNL d   1      -5.881  -8.923 -21.862 -0.06 +0.00    +0.000 A 
DOCKED: ATOM     18  C   UNL d   1      -6.379  -7.634 -21.706 -0.06 +0.00    +0.070 A 
DOCKED: ATOM     19  C   UNL d   1      -6.735 -11.257 -21.002 -0.03 -0.00    +0.052 C 
DOCKED: ATOM     20  C   UNL d   1      -6.202  -5.136 -22.010 -0.05 +0.01    +0.066 A 
DOCKED: ATOM     21  C   UNL d   1      -5.524  -4.035 -22.529 -0.04 -0.01    -0.025 A 
DOCKED: ATOM     22  C   UNL d   1      -6.224  -2.926 -22.089 -0.05 -0.01    -0.021 A 
DOCKED: ATOM     23  C   UNL d   1      -7.295  -3.409 -21.308 -0.04 +0.02    +0.066 A 
DOCKED: ATOM     24  C   UNL d   1      -4.261  -4.038 -23.385 -0.04 +0.01    +0.051 C 
DOCKED: ATOM     25  N   UNL d   1      -9.421  -4.434 -19.497 -0.04 -0.04    -0.248 N 
DOCKED: ATOM     26  N   UNL d   1      -9.748  -7.171 -19.129 -0.08 -0.01    -0.248 N 
DOCKED: ATOM     27  N   UNL d   1      -7.463  -7.660 -20.938 -0.03 -0.01    -0.248 N 
DOCKED: ATOM     28  N   UNL d   1      -7.284  -4.746 -21.255 -0.02 -0.05    -0.248 N 
DOCKED: ATOM     29 FE   UNL d   1      -8.382  -6.140 -20.263 -0.02 +0.00    +0.000 Fe
DOCKED: ENDROOT
DOCKED: BRANCH   6  30
DOCKED: ATOM     30  C   UNL d   1      -9.906  -0.747 -18.842 -0.20 +0.03    +0.052 C 
DOCKED: BRANCH  30  31
DOCKED: ATOM     31  C   UNL d   1     -10.113  -0.139 -20.229 -0.12 +0.06    +0.115 C 
DOCKED: BRANCH  31  32
DOCKED: ATOM     32  C   UNL d   1      -8.970   0.765 -20.639 -0.13 +0.12    +0.139 C 
DOCKED: ATOM     33  O   UNL d   1      -8.557   1.605 -19.854 -0.12 -1.11    -0.650 OA
DOCKED: BRANCH  32  34
DOCKED: ATOM     34  O   UNL d   1      -8.353   0.643 -21.837 +0.01 -0.48    -0.776 OA
DOCKED: ATOM     35  H   UNL d   1      -7.404   0.763 -21.975 +0.02 +0.12    +0.167 HD
DOCKED: ENDBRANCH  32  34
DOCKED: ENDBRANCH  31  32
DOCKED: ENDBRANCH  30  31
DOCKED: ENDBRANCH   6  30
DOCKED: BRANCH  29  36
DOCKED: ATOM     36  C   UNL d   1      -7.121  -5.980 -18.595 -0.20 +0.01    +0.190 C 
DOCKED: BRANCH  36  37
DOCKED: ATOM     37  O   UNL d   1      -6.705  -5.097 -17.594 -0.19 -0.09    -0.399 OA
DOCKED: ATOM     38  H   UNL d   1      -7.498  -4.993 -16.998 -0.40 +0.01    +0.209 HD
DOCKED: ENDBRANCH  36  37
DOCKED: ENDBRANCH  29  36
DOCKED: BRANCH  22  39
DOCKED: ATOM     39  C   UNL d   1      -5.840  -1.482 -22.355 -0.04 +0.02    +0.052 C 
DOCKED: BRANCH  39  40
DOCKED: ATOM     40  C   UNL d   1      -4.651  -1.066 -21.474 -0.09 +0.08    +0.115 C 
DOCKED: BRANCH  40  41
DOCKED: ATOM     41  C   UNL d   1      -5.007  -0.113 -20.353 -0.09 +0.19    +0.139 C 
DOCKED: ATOM     42  O   UNL d   1      -4.553  -0.308 -19.234 -0.14 -1.19    -0.650 OA
DOCKED: BRANCH  41  43
DOCKED: ATOM     43  O   UNL d   1      -5.744   0.999 -20.572 -0.21 -1.41    -0.776 OA
DOCKED: ATOM     44  H   UNL d   1      -6.700   0.969 -20.713 +0.01 +0.31    +0.167 HD
DOCKED: ENDBRANCH  41  43
DOCKED: ENDBRANCH  40  41
DOCKED: ENDBRANCH  39  40
DOCKED: ENDBRANCH  22  39
DOCKED: BRANCH  12  45
DOCKED: ATOM     45  C   UNL d   1     -10.977 -10.576 -18.230 -0.07 +0.00    +0.004 C 
DOCKED: ATOM     46  C   UNL d   1     -10.309 -11.514 -17.565 -0.08 +0.00    +0.012 C 
DOCKED: ENDBRANCH  12  45
DOCKED: BRANCH  17  47
DOCKED: ATOM     47  C   UNL d   1      -4.622  -9.270 -22.587 -0.07 +0.00    +0.004 C 
DOCKED: ATOM     48  C   UNL d   1      -3.408  -9.188 -22.037 -0.11 -0.00    +0.012 C 
DOCKED: ENDBRANCH  17  47
DOCKED: TORSDOF 12
DOCKED: TER
DOCKED: ENDMDL
________________________________________________________________________________


	BEGINNING GENETIC ALGORITHM DOCKING 55 of 100
Run: 55 Seed: 269647107 1683548406 [ Run 55 of 100 GA/GALS ]
Beginning LAMARCKIAN GENETIC ALGORITHM (LGA), with a maximum of 25000000 energy evaluations.

Final-Value: -9.770


	FINAL GENETIC ALGORITHM DOCKED STATE
	_______________________________________________


Detailed state:  trans -13.634 0.397 13.903 quatxyzw -0.819675 0.018138 0.570188 -0.051857 center 8.781 34.984 -0.736 ntor 12 -14.9796 108.0786 133.3535 127.4719 -33.8874 151.1116 -128.3477 -55.2668 161.0871 -98.8701 10.9085 -11.0947
State:	-13.634   0.397  13.903  -0.821  0.018  0.571 -174.055    -14.98  108.08  133.35  127.47  -33.89  151.11 -128.35  -55.27  161.09  -98.87   10.91  -11.09

DOCKED: MODEL       55
DOCKED: USER    Run = 55
DOCKED: USER    DPF = D:/Protein_go_brrr/autodock/final/mut_D99N/heme_Co/dock.dpf
DOCKED: USER  
DOCKED: USER    Estimated Free Energy of Binding    =   -3.78 kcal/mol  [=(1)+(2)+(3)-(4)]
DOCKED: USER    Estimated Inhibition Constant, Ki   =    1.69 mM (millimolar)  [Temperature = 298.15 K]
DOCKED: USER    
DOCKED: USER    (1) Final Intermolecular Energy     =   -7.36 kcal/mol
DOCKED: USER        vdW + Hbond + desolv Energy     =   -5.52 kcal/mol
DOCKED: USER        Electrostatic Energy            =   -1.85 kcal/mol
DOCKED: USER    (2) Final Total Internal Energy     =   -2.41 kcal/mol
DOCKED: USER    (3) Torsional Free Energy           =   +3.58 kcal/mol
DOCKED: USER    (4) Unbound System's Energy  [=(2)] =   -2.41 kcal/mol
DOCKED: USER    
DOCKED: USER    
DOCKED: USER    NEWDPF move heme_Co_opt.pdbqt
DOCKED: USER    NEWDPF about 8.781000 34.984000 -0.736000
DOCKED: USER    NEWDPF tran0 -13.633652 0.396734 13.902972
DOCKED: USER    NEWDPF quaternion0 -0.819675 0.018138 0.570188 -0.051857
DOCKED: USER    NEWDPF axisangle0 -0.820780 0.018162 0.570956 -174.054999
DOCKED: USER    NEWDPF quat0 -0.820780 0.018162 0.570956 -174.054999
DOCKED: USER    NEWDPF dihe0 -14.98 108.08 133.35 127.47 -33.89 151.11 -128.35 -55.27 161.09 -98.87 10.91 -11.09 
DOCKED: USER  keepresnum = 1 
DOCKED: USER  
DOCKED: REMARK  12 active torsions:
DOCKED: REMARK  status: ('A' for Active; 'I' for Inactive)
DOCKED: REMARK    1  A    between atoms: C_6  and  C_10 
DOCKED: REMARK    2  A    between atoms: C_10  and  C_11 
DOCKED: REMARK    3  A    between atoms: C_11  and  C_12 
DOCKED: REMARK    4  A    between atoms: C_12  and  O_14 
DOCKED: REMARK    5  A    between atoms: C_17  and  C_20 
DOCKED: REMARK    6  A    between atoms: C_24  and  C_27 
DOCKED: REMARK    7  A    between atoms: C_31  and  C_34 
DOCKED: REMARK    8  A    between atoms: C_34  and  C_35 
DOCKED: REMARK    9  A    between atoms: C_35  and  C_36 
DOCKED: REMARK   10  A    between atoms: C_36  and  O_38 
DOCKED: REMARK   11  A    between atoms: FE_43  and  C_44 
DOCKED: REMARK   12  A    between atoms: C_44  and  O_45 
DOCKED: USER                              x       y       z     vdW  Elec       q    Type
DOCKED: USER                           _______ _______ _______ _____ _____    ______ ____
DOCKED: ROOT
DOCKED: ATOM      1  C   UNL d   1     -13.561  -0.246  15.976 -0.06 +0.04    +0.064 A 
DOCKED: ATOM      2  C   UNL d   1     -16.369   2.830  13.682 -0.08 +0.03    +0.064 C 
DOCKED: ATOM      3  C   UNL d   1     -13.796   2.263   9.695 -0.13 +0.02    +0.064 A 
DOCKED: ATOM      4  C   UNL d   1     -11.152  -1.170  11.906 -0.26 +0.02    +0.064 A 
DOCKED: ATOM      5  C   UNL d   1     -14.495   0.663  15.652 -0.03 +0.05    +0.066 A 
DOCKED: ATOM      6  C   UNL d   1     -15.505   1.050  16.554 -0.06 -0.01    -0.021 A 
DOCKED: ATOM      7  C   UNL d   1     -16.330   1.926  15.875 -0.05 -0.01    -0.025 A 
DOCKED: ATOM      8  C   UNL d   1     -15.780   2.048  14.595 -0.08 +0.04    +0.066 A 
DOCKED: ATOM      9  C   UNL d   1     -17.593   2.628  16.398 -0.01 +0.02    +0.051 C 
DOCKED: ATOM     10  C   UNL d   1     -15.861   3.038  12.349 -0.10 +0.03    +0.066 A 
DOCKED: ATOM     11  C   UNL d   1     -16.352   3.951  11.391 -0.08 -0.01    -0.021 A 
DOCKED: ATOM     12  C   UNL d   1     -15.582   3.768  10.240 -0.09 +0.00    +0.000 A 
DOCKED: ATOM     13  C   UNL d   1     -14.671   2.768  10.583 -0.12 +0.03    +0.070 A 
DOCKED: ATOM     14  C   UNL d   1     -17.424   4.987  11.615 -0.06 +0.01    +0.052 C 
DOCKED: ATOM     15  C   UNL d   1     -12.826   1.199   9.863 -0.16 +0.02    +0.066 A 
DOCKED: ATOM     16  C   UNL d   1     -12.052   0.626   8.865 -0.23 -0.01    -0.021 A 
DOCKED: ATOM     17  C   UNL d   1     -11.289  -0.367   9.497 -0.32 +0.00    +0.000 A 
DOCKED: ATOM     18  C   UNL d   1     -11.648  -0.309  10.839 -0.24 +0.02    +0.070 A 
DOCKED: ATOM     19  C   UNL d   1     -12.066   1.025   7.406 -0.24 +0.02    +0.052 C 
DOCKED: ATOM     20  C   UNL d   1     -11.549  -1.190  13.201 -0.19 +0.02    +0.066 A 
DOCKED: ATOM     21  C   UNL d   1     -11.023  -2.090  14.125 -0.22 -0.01    -0.025 A 
DOCKED: ATOM     22  C   UNL d   1     -11.678  -1.827  15.315 -0.16 -0.01    -0.021 A 
DOCKED: ATOM     23  C   UNL d   1     -12.586  -0.780  15.052 -0.12 +0.03    +0.066 A 
DOCKED: ATOM     24  C   UNL d   1      -9.963  -3.161  13.884 -0.19 +0.01    +0.051 C 
DOCKED: ATOM     25  N   UNL d   1     -14.638   1.281  14.431 -0.06 -0.19    -0.248 N 
DOCKED: ATOM     26  N   UNL d   1     -14.805   2.367  11.876 -0.08 -0.11    -0.248 N 
DOCKED: ATOM     27  N   UNL d   1     -12.587   0.614  11.016 -0.11 -0.09    -0.248 N 
DOCKED: ATOM     28  N   UNL d   1     -12.513  -0.393  13.773 -0.10 -0.12    -0.248 N 
DOCKED: ATOM     29 FE   UNL d   1     -13.550   0.926  12.624 -0.04 +0.00    +0.000 Fe
DOCKED: ENDROOT
DOCKED: BRANCH   6  30
DOCKED: ATOM     30  C   UNL d   1     -15.704   0.532  17.974 -0.03 +0.02    +0.052 C 
DOCKED: BRANCH  30  31
DOCKED: ATOM     31  C   UNL d   1     -15.038   1.464  18.985 -0.03 +0.04    +0.115 C 
DOCKED: BRANCH  31  32
DOCKED: ATOM     32  C   UNL d   1     -13.969   2.330  18.354 +0.01 +0.13    +0.139 C 
DOCKED: ATOM     33  O   UNL d   1     -14.216   3.499  18.097 -0.51 -0.85    -0.650 OA
DOCKED: BRANCH  32  34
DOCKED: ATOM     34  O   UNL d   1     -12.722   1.865  18.107 +0.12 -0.78    -0.776 OA
DOCKED: ATOM     35  H   UNL d   1     -12.339   1.084  18.531 +0.03 +0.10    +0.167 HD
DOCKED: ENDBRANCH  32  34
DOCKED: ENDBRANCH  31  32
DOCKED: ENDBRANCH  30  31
DOCKED: ENDBRANCH   6  30
DOCKED: BRANCH  29  36
DOCKED: ATOM     36  C   UNL d   1     -14.979  -0.544  12.185 -0.02 +0.05    +0.190 C 
DOCKED: BRANCH  36  37
DOCKED: ATOM     37  O   UNL d   1     -16.107  -1.190  12.700 +0.00 -0.08    -0.399 OA
DOCKED: ATOM     38  H   UNL d   1     -16.202  -0.838  13.629 +0.01 +0.05    +0.209 HD
DOCKED: ENDBRANCH  36  37
DOCKED: ENDBRANCH  29  36
DOCKED: BRANCH  22  39
DOCKED: ATOM     39  C   UNL d   1     -11.483  -2.589  16.613 -0.11 +0.01    +0.052 C 
DOCKED: BRANCH  39  40
DOCKED: ATOM     40  C   UNL d   1     -10.373  -1.944  17.459 -0.18 +0.03    +0.115 C 
DOCKED: BRANCH  40  41
DOCKED: ATOM     41  C   UNL d   1     -10.782  -0.662  18.154 -0.17 +0.05    +0.139 C 
DOCKED: ATOM     42  O   UNL d   1     -11.383  -0.723  19.217 +0.01 -0.17    -0.650 OA
DOCKED: BRANCH  41  43
DOCKED: ATOM     43  O   UNL d   1     -10.425   0.550  17.675 +0.03 -0.43    -0.776 OA
DOCKED: ATOM     44  H   UNL d   1     -11.027   1.306  17.674 +0.06 +0.14    +0.167 HD
DOCKED: ENDBRANCH  41  43
DOCKED: ENDBRANCH  40  41
DOCKED: ENDBRANCH  39  40
DOCKED: ENDBRANCH  22  39
DOCKED: BRANCH  12  45
DOCKED: ATOM     45  C   UNL d   1     -15.588   4.432   8.869 -0.09 +0.00    +0.004 C 
DOCKED: ATOM     46  C   UNL d   1     -14.644   5.126   8.239 -0.11 +0.00    +0.012 C 
DOCKED: ENDBRANCH  12  45
DOCKED: BRANCH  17  47
DOCKED: ATOM     47  C   UNL d   1     -10.327  -1.348   8.912 -0.42 +0.00    +0.004 C 
DOCKED: ATOM     48  C   UNL d   1     -10.643  -2.193   7.928 -0.44 +0.01    +0.012 C 
DOCKED: ENDBRANCH  17  47
DOCKED: TORSDOF 12
DOCKED: TER
DOCKED: ENDMDL
________________________________________________________________________________


	BEGINNING GENETIC ALGORITHM DOCKING 56 of 100
Run: 56 Seed: 814383593 556745024 [ Run 56 of 100 GA/GALS ]
Beginning LAMARCKIAN GENETIC ALGORITHM (LGA), with a maximum of 25000000 energy evaluations.

Final-Value: -9.238


	FINAL GENETIC ALGORITHM DOCKED STATE
	_______________________________________________


Detailed state:  trans 18.214 -11.733 -4.587 quatxyzw -0.899469 -0.253699 0.265888 0.236425 center 8.781 34.984 -0.736 ntor 12 -104.1869 87.9095 -148.1250 14.3700 134.6950 93.6867 79.2158 117.9632 -20.1237 145.1257 22.9024 173.7037
State:	 18.214 -11.733  -4.587  -0.926 -0.261  0.274 152.649   -104.19   87.91 -148.13   14.37  134.69   93.69   79.22  117.96  -20.12  145.13   22.90  173.70

DOCKED: MODEL       56
DOCKED: USER    Run = 56
DOCKED: USER    DPF = D:/Protein_go_brrr/autodock/final/mut_D99N/heme_Co/dock.dpf
DOCKED: USER  
DOCKED: USER    Estimated Free Energy of Binding    =   -3.66 kcal/mol  [=(1)+(2)+(3)-(4)]
DOCKED: USER    Estimated Inhibition Constant, Ki   =    2.08 mM (millimolar)  [Temperature = 298.15 K]
DOCKED: USER    
DOCKED: USER    (1) Final Intermolecular Energy     =   -7.24 kcal/mol
DOCKED: USER        vdW + Hbond + desolv Energy     =   -6.88 kcal/mol
DOCKED: USER        Electrostatic Energy            =   -0.36 kcal/mol
DOCKED: USER    (2) Final Total Internal Energy     =   -2.00 kcal/mol
DOCKED: USER    (3) Torsional Free Energy           =   +3.58 kcal/mol
DOCKED: USER    (4) Unbound System's Energy  [=(2)] =   -2.00 kcal/mol
DOCKED: USER    
DOCKED: USER    
DOCKED: USER    NEWDPF move heme_Co_opt.pdbqt
DOCKED: USER    NEWDPF about 8.781000 34.984000 -0.736000
DOCKED: USER    NEWDPF tran0 18.213718 -11.733430 -4.586750
DOCKED: USER    NEWDPF quaternion0 -0.899469 -0.253699 0.265888 0.236425
DOCKED: USER    NEWDPF axisangle0 -0.925713 -0.261101 0.273646 152.648774
DOCKED: USER    NEWDPF quat0 -0.925713 -0.261101 0.273646 152.648774
DOCKED: USER    NEWDPF dihe0 -104.19 87.91 -148.13 14.37 134.69 93.69 79.22 117.96 -20.12 145.13 22.90 173.70 
DOCKED: USER  keepresnum = 1 
DOCKED: USER  
DOCKED: REMARK  12 active torsions:
DOCKED: REMARK  status: ('A' for Active; 'I' for Inactive)
DOCKED: REMARK    1  A    between atoms: C_6  and  C_10 
DOCKED: REMARK    2  A    between atoms: C_10  and  C_11 
DOCKED: REMARK    3  A    between atoms: C_11  and  C_12 
DOCKED: REMARK    4  A    between atoms: C_12  and  O_14 
DOCKED: REMARK    5  A    between atoms: C_17  and  C_20 
DOCKED: REMARK    6  A    between atoms: C_24  and  C_27 
DOCKED: REMARK    7  A    between atoms: C_31  and  C_34 
DOCKED: REMARK    8  A    between atoms: C_34  and  C_35 
DOCKED: REMARK    9  A    between atoms: C_35  and  C_36 
DOCKED: REMARK   10  A    between atoms: C_36  and  O_38 
DOCKED: REMARK   11  A    between atoms: FE_43  and  C_44 
DOCKED: REMARK   12  A    between atoms: C_44  and  O_45 
DOCKED: USER                              x       y       z     vdW  Elec       q    Type
DOCKED: USER                           _______ _______ _______ _____ _____    ______ ____
DOCKED: ROOT
DOCKED: ATOM      1  C   UNL d   1      17.396 -12.276  -2.649 -0.21 -0.01    +0.064 A 
DOCKED: ATOM      2  C   UNL d   1      15.429 -11.932  -6.964 -0.16 +0.00    +0.064 C 
DOCKED: ATOM      3  C   UNL d   1      19.530 -10.246  -8.742 -0.16 +0.01    +0.064 A 
DOCKED: ATOM      4  C   UNL d   1      21.673 -10.952  -4.432 -0.07 +0.00    +0.064 A 
DOCKED: ATOM      5  C   UNL d   1      16.547 -12.272  -3.690 -0.24 -0.01    +0.066 A 
DOCKED: ATOM      6  C   UNL d   1      15.235 -12.773  -3.585 -0.25 +0.00    -0.021 A 
DOCKED: ATOM      7  C   UNL d   1      14.676 -12.692  -4.846 -0.23 +0.00    -0.025 A 
DOCKED: ATOM      8  C   UNL d   1      15.664 -12.130  -5.661 -0.16 -0.00    +0.066 A 
DOCKED: ATOM      9  C   UNL d   1      13.267 -13.123  -5.282 -0.34 +0.00    +0.051 C 
DOCKED: ATOM     10  C   UNL d   1      16.375 -11.336  -7.875 -0.20 +0.00    +0.066 A 
DOCKED: ATOM     11  C   UNL d   1      16.139 -10.974  -9.219 -0.24 -0.00    -0.021 A 
DOCKED: ATOM     12  C   UNL d   1      17.350 -10.481  -9.712 -0.17 +0.00    +0.000 A 
DOCKED: ATOM     13  C   UNL d   1      18.229 -10.568  -8.632 -0.19 +0.01    +0.070 A 
DOCKED: ATOM     14  C   UNL d   1      14.813 -11.014  -9.934 -0.27 -0.00    +0.052 C 
DOCKED: ATOM     15  C   UNL d   1      20.585 -10.324  -7.750 -0.13 +0.01    +0.066 A 
DOCKED: ATOM     16  C   UNL d   1      21.939 -10.114  -7.969 -0.07 -0.00    -0.021 A 
DOCKED: ATOM     17  C   UNL d   1      22.561 -10.319  -6.730 -0.06 +0.00    +0.000 A 
DOCKED: ATOM     18  C   UNL d   1      21.532 -10.622  -5.845 -0.08 +0.01    +0.070 A 
DOCKED: ATOM     19  C   UNL d   1      22.565  -9.743  -9.295 -0.05 +0.00    +0.052 C 
DOCKED: ATOM     20  C   UNL d   1      20.698 -11.334  -3.573 -0.05 +0.00    +0.066 A 
DOCKED: ATOM     21  C   UNL d   1      20.963 -11.660  -2.245 -0.17 +0.00    -0.025 A 
DOCKED: ATOM     22  C   UNL d   1      19.744 -12.018  -1.698 -0.25 +0.00    -0.021 A 
DOCKED: ATOM     23  C   UNL d   1      18.790 -11.903  -2.732 -0.21 -0.00    +0.066 A 
DOCKED: ATOM     24  C   UNL d   1      22.315 -11.651  -1.536 -0.13 +0.00    +0.051 C 
DOCKED: ATOM     25  N   UNL d   1      16.832 -11.854  -4.970 -0.15 +0.01    -0.248 N 
DOCKED: ATOM     26  N   UNL d   1      17.624 -11.032  -7.506 -0.14 -0.03    -0.248 N 
DOCKED: ATOM     27  N   UNL d   1      20.373 -10.646  -6.493 -0.10 -0.03    -0.248 N 
DOCKED: ATOM     28  N   UNL d   1      19.364 -11.491  -3.869 +0.04 -0.01    -0.248 N 
DOCKED: ATOM     29 FE   UNL d   1      18.709 -11.214  -5.774 -0.05 +0.00    +0.000 Fe
DOCKED: ENDROOT
DOCKED: BRANCH   6  30
DOCKED: ATOM     30  C   UNL d   1      14.588 -13.376  -2.343 -0.36 -0.00    +0.052 C 
DOCKED: BRANCH  30  31
DOCKED: ATOM     31  C   UNL d   1      13.557 -12.413  -1.753 -0.43 -0.01    +0.115 C 
DOCKED: BRANCH  31  32
DOCKED: ATOM     32  C   UNL d   1      12.536 -13.120  -0.889 -0.34 +0.04    +0.139 C 
DOCKED: ATOM     33  O   UNL d   1      11.957 -14.104  -1.325 -0.13 -0.40    -0.650 OA
DOCKED: BRANCH  32  34
DOCKED: ATOM     34  O   UNL d   1      12.273 -12.725   0.379 -0.24 +0.05    -0.776 OA
DOCKED: ATOM     35  H   UNL d   1      12.538 -13.218   1.168 -0.19 -0.02    +0.167 HD
DOCKED: ENDBRANCH  32  34
DOCKED: ENDBRANCH  31  32
DOCKED: ENDBRANCH  30  31
DOCKED: ENDBRANCH   6  30
DOCKED: BRANCH  29  36
DOCKED: ATOM     36  C   UNL d   1      19.077 -13.229  -6.218 -0.03 +0.01    +0.190 C 
DOCKED: BRANCH  36  37
DOCKED: ATOM     37  O   UNL d   1      19.225 -14.491  -5.633 +0.00 -0.01    -0.399 OA
DOCKED: ATOM     38  H   UNL d   1      19.525 -14.306  -4.699 +0.02 +0.00    +0.209 HD
DOCKED: ENDBRANCH  36  37
DOCKED: ENDBRANCH  29  36
DOCKED: BRANCH  22  39
DOCKED: ATOM     39  C   UNL d   1      19.526 -12.506  -0.278 -0.25 -0.00    +0.052 C 
DOCKED: BRANCH  39  40
DOCKED: ATOM     40  C   UNL d   1      19.780 -14.019  -0.180 -0.12 -0.00    +0.115 C 
DOCKED: BRANCH  40  41
DOCKED: ATOM     41  C   UNL d   1      19.249 -14.820  -1.350 -0.05 -0.00    +0.139 C 
DOCKED: ATOM     42  O   UNL d   1      18.223 -15.472  -1.212 +0.02 +0.02    -0.650 OA
DOCKED: BRANCH  41  43
DOCKED: ATOM     43  O   UNL d   1      19.829 -14.766  -2.569 +0.05 -0.00    -0.776 OA
DOCKED: ATOM     44  H   UNL d   1      19.317 -14.774  -3.389 +0.02 +0.00    +0.167 HD
DOCKED: ENDBRANCH  41  43
DOCKED: ENDBRANCH  40  41
DOCKED: ENDBRANCH  39  40
DOCKED: ENDBRANCH  22  39
DOCKED: BRANCH  12  45
DOCKED: ATOM     45  C   UNL d   1      17.771  -9.924 -11.065 -0.15 +0.00    +0.004 C 
DOCKED: ATOM     46  C   UNL d   1      17.053  -9.654 -12.152 -0.17 -0.00    +0.012 C 
DOCKED: ENDBRANCH  12  45
DOCKED: BRANCH  17  47
DOCKED: ATOM     47  C   UNL d   1      24.012 -10.292  -6.375 -0.02 +0.00    +0.004 C 
DOCKED: ATOM     48  C   UNL d   1      24.559  -9.368  -5.581 -0.03 +0.00    +0.012 C 
DOCKED: ENDBRANCH  17  47
DOCKED: TORSDOF 12
DOCKED: TER
DOCKED: ENDMDL
________________________________________________________________________________


	BEGINNING GENETIC ALGORITHM DOCKING 57 of 100
Run: 57 Seed: 1642984359 1685935240 [ Run 57 of 100 GA/GALS ]
Beginning LAMARCKIAN GENETIC ALGORITHM (LGA), with a maximum of 25000000 energy evaluations.

Final-Value: -9.931


	FINAL GENETIC ALGORITHM DOCKED STATE
	_______________________________________________


Detailed state:  trans -16.919 6.855 3.413 quatxyzw 0.392376 -0.261725 0.321534 -0.821071 center 8.781 34.984 -0.736 ntor 12 -49.0059 83.7721 138.8658 125.6742 115.6522 131.5285 -107.9787 -16.7317 -5.5278 83.2095 178.5348 158.6694
State:	-16.919   6.855   3.413   0.687 -0.459  0.563 -69.616    -49.01   83.77  138.87  125.67  115.65  131.53 -107.98  -16.73   -5.53   83.21  178.53  158.67

DOCKED: MODEL       57
DOCKED: USER    Run = 57
DOCKED: USER    DPF = D:/Protein_go_brrr/autodock/final/mut_D99N/heme_Co/dock.dpf
DOCKED: USER  
DOCKED: USER    Estimated Free Energy of Binding    =   -4.00 kcal/mol  [=(1)+(2)+(3)-(4)]
DOCKED: USER    Estimated Inhibition Constant, Ki   =    1.18 mM (millimolar)  [Temperature = 298.15 K]
DOCKED: USER    
DOCKED: USER    (1) Final Intermolecular Energy     =   -7.58 kcal/mol
DOCKED: USER        vdW + Hbond + desolv Energy     =   -6.33 kcal/mol
DOCKED: USER        Electrostatic Energy            =   -1.25 kcal/mol
DOCKED: USER    (2) Final Total Internal Energy     =   -2.35 kcal/mol
DOCKED: USER    (3) Torsional Free Energy           =   +3.58 kcal/mol
DOCKED: USER    (4) Unbound System's Energy  [=(2)] =   -2.35 kcal/mol
DOCKED: USER    
DOCKED: USER    
DOCKED: USER    NEWDPF move heme_Co_opt.pdbqt
DOCKED: USER    NEWDPF about 8.781000 34.984000 -0.736000
DOCKED: USER    NEWDPF tran0 -16.919411 6.855182 3.413170
DOCKED: USER    NEWDPF quaternion0 0.392376 -0.261725 0.321534 -0.821071
DOCKED: USER    NEWDPF axisangle0 0.687382 -0.458501 0.563279 -69.615746
DOCKED: USER    NEWDPF quat0 0.687382 -0.458501 0.563279 -69.615746
DOCKED: USER    NEWDPF dihe0 -49.01 83.77 138.87 125.67 115.65 131.53 -107.98 -16.73 -5.53 83.21 178.53 158.67 
DOCKED: USER  keepresnum = 1 
DOCKED: USER  
DOCKED: REMARK  12 active torsions:
DOCKED: REMARK  status: ('A' for Active; 'I' for Inactive)
DOCKED: REMARK    1  A    between atoms: C_6  and  C_10 
DOCKED: REMARK    2  A    between atoms: C_10  and  C_11 
DOCKED: REMARK    3  A    between atoms: C_11  and  C_12 
DOCKED: REMARK    4  A    between atoms: C_12  and  O_14 
DOCKED: REMARK    5  A    between atoms: C_17  and  C_20 
DOCKED: REMARK    6  A    between atoms: C_24  and  C_27 
DOCKED: REMARK    7  A    between atoms: C_31  and  C_34 
DOCKED: REMARK    8  A    between atoms: C_34  and  C_35 
DOCKED: REMARK    9  A    between atoms: C_35  and  C_36 
DOCKED: REMARK   10  A    between atoms: C_36  and  O_38 
DOCKED: REMARK   11  A    between atoms: FE_43  and  C_44 
DOCKED: REMARK   12  A    between atoms: C_44  and  O_45 
DOCKED: USER                              x       y       z     vdW  Elec       q    Type
DOCKED: USER                           _______ _______ _______ _____ _____    ______ ____
DOCKED: ROOT
DOCKED: ATOM      1  C   UNL d   1     -18.404   7.164   1.859 -0.20 +0.01    +0.064 A 
DOCKED: ATOM      2  C   UNL d   1     -16.290   3.244   3.525 -0.15 +0.01    +0.064 C 
DOCKED: ATOM      3  C   UNL d   1     -13.502   5.903   6.351 -0.17 +0.00    +0.064 A 
DOCKED: ATOM      4  C   UNL d   1     -15.910   9.891   4.951 -0.07 -0.01    +0.064 A 
DOCKED: ATOM      5  C   UNL d   1     -18.006   5.900   2.080 -0.25 +0.01    +0.066 A 
DOCKED: ATOM      6  C   UNL d   1     -18.645   4.799   1.476 -0.23 -0.00    -0.021 A 
DOCKED: ATOM      7  C   UNL d   1     -18.043   3.663   1.981 -0.18 -0.00    -0.025 A 
DOCKED: ATOM      8  C   UNL d   1     -17.052   4.120   2.857 -0.18 +0.01    +0.066 A 
DOCKED: ATOM      9  C   UNL d   1     -18.376   2.198   1.660 -0.10 +0.01    +0.051 C 
DOCKED: ATOM     10  C   UNL d   1     -15.230   3.620   4.426 -0.10 +0.01    +0.066 A 
DOCKED: ATOM     11  C   UNL d   1     -14.305   2.753   5.048 -0.09 -0.01    -0.021 A 
DOCKED: ATOM     12  C   UNL d   1     -13.501   3.555   5.863 -0.12 +0.00    +0.000 A 
DOCKED: ATOM     13  C   UNL d   1     -13.986   4.849   5.669 -0.11 +0.01    +0.070 A 
DOCKED: ATOM     14  C   UNL d   1     -14.155   1.276   4.792 -0.11 +0.03    +0.052 C 
DOCKED: ATOM     15  C   UNL d   1     -13.918   7.291   6.314 -0.17 -0.00    +0.066 A 
DOCKED: ATOM     16  C   UNL d   1     -13.474   8.306   7.150 -0.30 +0.00    -0.021 A 
DOCKED: ATOM     17  C   UNL d   1     -14.167   9.458   6.752 -0.20 -0.00    +0.000 A 
DOCKED: ATOM     18  C   UNL d   1     -14.970   9.057   5.689 -0.10 -0.01    +0.070 A 
DOCKED: ATOM     19  C   UNL d   1     -12.450   8.149   8.253 -0.37 -0.00    +0.052 C 
DOCKED: ATOM     20  C   UNL d   1     -16.763   9.505   3.972 -0.12 -0.01    +0.066 A 
DOCKED: ATOM     21  C   UNL d   1     -17.645  10.393   3.362 -0.11 +0.00    -0.025 A 
DOCKED: ATOM     22  C   UNL d   1     -18.357   9.641   2.445 -0.12 +0.00    -0.021 A 
DOCKED: ATOM     23  C   UNL d   1     -17.878   8.318   2.551 -0.18 -0.00    +0.066 A 
DOCKED: ATOM     24  C   UNL d   1     -17.817  11.882   3.651 -0.06 -0.00    +0.051 C 
DOCKED: ATOM     25  N   UNL d   1     -17.003   5.501   2.934 -0.10 -0.03    -0.248 N 
DOCKED: ATOM     26  N   UNL d   1     -14.994   4.893   4.758 -0.06 -0.03    -0.248 N 
DOCKED: ATOM     27  N   UNL d   1     -14.818   7.755   5.476 -0.06 +0.01    -0.248 N 
DOCKED: ATOM     28  N   UNL d   1     -16.914   8.231   3.476 -0.11 +0.01    -0.248 N 
DOCKED: ATOM     29 FE   UNL d   1     -15.847   6.698   4.278 -0.03 +0.00    +0.000 Fe
DOCKED: ENDROOT
DOCKED: BRANCH   6  30
DOCKED: ATOM     30  C   UNL d   1     -19.835   4.848   0.523 -0.12 +0.02    +0.052 C 
DOCKED: BRANCH  30  31
DOCKED: ATOM     31  C   UNL d   1     -21.139   4.599   1.279 -0.13 +0.04    +0.115 C 
DOCKED: BRANCH  31  32
DOCKED: ATOM     32  C   UNL d   1     -22.360   4.815   0.410 -0.10 +0.07    +0.139 C 
DOCKED: ATOM     33  O   UNL d   1     -23.159   3.903   0.259 -0.01 -0.26    -0.650 OA
DOCKED: BRANCH  32  34
DOCKED: ATOM     34  O   UNL d   1     -22.624   6.007  -0.173 -0.13 -0.84    -0.776 OA
DOCKED: ATOM     35  H   UNL d   1     -22.668   6.848   0.304 +0.01 +0.16    +0.167 HD
DOCKED: ENDBRANCH  32  34
DOCKED: ENDBRANCH  31  32
DOCKED: ENDBRANCH  30  31
DOCKED: ENDBRANCH   6  30
DOCKED: BRANCH  29  36
DOCKED: ATOM     36  C   UNL d   1     -17.354   6.360   5.696 -0.03 +0.01    +0.190 C 
DOCKED: BRANCH  36  37
DOCKED: ATOM     37  O   UNL d   1     -18.706   6.025   5.827 -0.00 -0.03    -0.399 OA
DOCKED: ATOM     38  H   UNL d   1     -19.140   6.382   5.002 +0.02 +0.02    +0.209 HD
DOCKED: ENDBRANCH  36  37
DOCKED: ENDBRANCH  29  36
DOCKED: BRANCH  22  39
DOCKED: ATOM     39  C   UNL d   1     -19.480  10.158   1.566 -0.16 +0.00    +0.052 C 
DOCKED: BRANCH  39  40
DOCKED: ATOM     40  C   UNL d   1     -20.849   9.787   2.160 -0.06 +0.01    +0.115 C 
DOCKED: BRANCH  40  41
DOCKED: ATOM     41  C   UNL d   1     -21.529   8.616   1.481 -0.09 +0.04    +0.139 C 
DOCKED: ATOM     42  O   UNL d   1     -21.820   7.629   2.141 +0.01 -0.18    -0.650 OA
DOCKED: BRANCH  41  43
DOCKED: ATOM     43  O   UNL d   1     -21.901   8.666   0.183 -0.09 -0.56    -0.776 OA
DOCKED: ATOM     44  H   UNL d   1     -21.868   7.894  -0.397 +0.03 +0.23    +0.167 HD
DOCKED: ENDBRANCH  41  43
DOCKED: ENDBRANCH  40  41
DOCKED: ENDBRANCH  39  40
DOCKED: ENDBRANCH  22  39
DOCKED: BRANCH  12  45
DOCKED: ATOM     45  C   UNL d   1     -12.326   3.253   6.783 -0.27 +0.00    +0.004 C 
DOCKED: ATOM     46  C   UNL d   1     -11.059   3.654   6.730 -0.41 +0.00    +0.012 C 
DOCKED: ENDBRANCH  12  45
DOCKED: BRANCH  17  47
DOCKED: ATOM     47  C   UNL d   1     -14.144  10.833   7.332 -0.28 -0.00    +0.004 C 
DOCKED: ATOM     48  C   UNL d   1     -13.348  11.808   6.886 -0.33 -0.01    +0.012 C 
DOCKED: ENDBRANCH  17  47
DOCKED: TORSDOF 12
DOCKED: TER
DOCKED: ENDMDL
________________________________________________________________________________


	BEGINNING GENETIC ALGORITHM DOCKING 58 of 100
Run: 58 Seed: 1262513239 870909420 [ Run 58 of 100 GA/GALS ]
Beginning LAMARCKIAN GENETIC ALGORITHM (LGA), with a maximum of 25000000 energy evaluations.

Final-Value: -8.640


	FINAL GENETIC ALGORITHM DOCKED STATE
	_______________________________________________


Detailed state:  trans 9.073 12.408 5.815 quatxyzw 0.404316 0.473720 0.583587 0.521099 center 8.781 34.984 -0.736 ntor 12 20.5172 120.7408 -180.0000 129.1188 119.9767 142.0829 -43.3906 85.1354 71.5845 -89.8502 54.2672 9.1957
State:	  9.073  12.408   5.815   0.474  0.555  0.684 117.188     20.52  120.74 -180.00  129.12  119.98  142.08  -43.39   85.14   71.58  -89.85   54.27    9.20

DOCKED: MODEL       58
DOCKED: USER    Run = 58
DOCKED: USER    DPF = D:/Protein_go_brrr/autodock/final/mut_D99N/heme_Co/dock.dpf
DOCKED: USER  
DOCKED: USER    Estimated Free Energy of Binding    =   -2.91 kcal/mol  [=(1)+(2)+(3)-(4)]
DOCKED: USER    Estimated Inhibition Constant, Ki   =    7.33 mM (millimolar)  [Temperature = 298.15 K]
DOCKED: USER    
DOCKED: USER    (1) Final Intermolecular Energy     =   -6.49 kcal/mol
DOCKED: USER        vdW + Hbond + desolv Energy     =   -6.12 kcal/mol
DOCKED: USER        Electrostatic Energy            =   -0.37 kcal/mol
DOCKED: USER    (2) Final Total Internal Energy     =   -2.15 kcal/mol
DOCKED: USER    (3) Torsional Free Energy           =   +3.58 kcal/mol
DOCKED: USER    (4) Unbound System's Energy  [=(2)] =   -2.15 kcal/mol
DOCKED: USER    
DOCKED: USER    
DOCKED: USER    NEWDPF move heme_Co_opt.pdbqt
DOCKED: USER    NEWDPF about 8.781000 34.984000 -0.736000
DOCKED: USER    NEWDPF tran0 9.073462 12.408421 5.815039
DOCKED: USER    NEWDPF quaternion0 0.404316 0.473720 0.583587 0.521099
DOCKED: USER    NEWDPF axisangle0 0.473717 0.555035 0.683761 117.187974
DOCKED: USER    NEWDPF quat0 0.473717 0.555035 0.683761 117.187974
DOCKED: USER    NEWDPF dihe0 20.52 120.74 -180.00 129.12 119.98 142.08 -43.39 85.14 71.58 -89.85 54.27 9.20 
DOCKED: USER  keepresnum = 1 
DOCKED: USER  
DOCKED: REMARK  12 active torsions:
DOCKED: REMARK  status: ('A' for Active; 'I' for Inactive)
DOCKED: REMARK    1  A    between atoms: C_6  and  C_10 
DOCKED: REMARK    2  A    between atoms: C_10  and  C_11 
DOCKED: REMARK    3  A    between atoms: C_11  and  C_12 
DOCKED: REMARK    4  A    between atoms: C_12  and  O_14 
DOCKED: REMARK    5  A    between atoms: C_17  and  C_20 
DOCKED: REMARK    6  A    between atoms: C_24  and  C_27 
DOCKED: REMARK    7  A    between atoms: C_31  and  C_34 
DOCKED: REMARK    8  A    between atoms: C_34  and  C_35 
DOCKED: REMARK    9  A    between atoms: C_35  and  C_36 
DOCKED: REMARK   10  A    between atoms: C_36  and  O_38 
DOCKED: REMARK   11  A    between atoms: FE_43  and  C_44 
DOCKED: REMARK   12  A    between atoms: C_44  and  O_45 
DOCKED: USER                              x       y       z     vdW  Elec       q    Type
DOCKED: USER                           _______ _______ _______ _____ _____    ______ ____
DOCKED: ROOT
DOCKED: ATOM      1  C   UNL d   1       9.838  12.012   3.822 -0.12 +0.00    +0.064 A 
DOCKED: ATOM      2  C   UNL d   1       6.956  15.389   5.525 -0.23 -0.01    +0.064 C 
DOCKED: ATOM      3  C   UNL d   1       6.966  13.286   9.815 -0.24 -0.01    +0.064 A 
DOCKED: ATOM      4  C   UNL d   1      10.215  10.044   8.204 -0.10 +0.00    +0.064 A 
DOCKED: ATOM      5  C   UNL d   1       9.021  13.069   3.962 -0.16 -0.00    +0.066 A 
DOCKED: ATOM      6  C   UNL d   1       8.811  13.994   2.921 -0.16 -0.00    -0.021 A 
DOCKED: ATOM      7  C   UNL d   1       7.992  14.984   3.428 -0.17 +0.00    -0.025 A 
DOCKED: ATOM      8  C   UNL d   1       7.725  14.612   4.750 -0.21 -0.01    +0.066 A 
DOCKED: ATOM      9  C   UNL d   1       7.473  16.239   2.709 -0.13 +0.00    +0.051 C 
DOCKED: ATOM     10  C   UNL d   1       6.605  15.075   6.887 -0.09 -0.01    +0.066 A 
DOCKED: ATOM     11  C   UNL d   1       5.692  15.774   7.706 -0.24 +0.00    -0.021 A 
DOCKED: ATOM     12  C   UNL d   1       5.712  15.137   8.950 -0.26 -0.00    +0.000 A 
DOCKED: ATOM     13  C   UNL d   1       6.623  14.092   8.795 -0.26 -0.01    +0.070 A 
DOCKED: ATOM     14  C   UNL d   1       4.801  16.912   7.279 -0.21 -0.00    +0.052 C 
DOCKED: ATOM     15  C   UNL d   1       7.923  12.197   9.845 -0.23 -0.00    +0.066 A 
DOCKED: ATOM     16  C   UNL d   1       8.338  11.497  10.969 -0.17 +0.00    -0.021 A 
DOCKED: ATOM     17  C   UNL d   1       9.277  10.563  10.510 -0.14 +0.00    +0.000 A 
DOCKED: ATOM     18  C   UNL d   1       9.348  10.756   9.135 -0.16 +0.00    +0.070 A 
DOCKED: ATOM     19  C   UNL d   1       7.848  11.734  12.381 -0.15 -0.00    +0.052 C 
DOCKED: ATOM     20  C   UNL d   1      10.365  10.272   6.877 -0.10 +0.00    +0.066 A 
DOCKED: ATOM     21  C   UNL d   1      11.258   9.545   6.094 -0.08 -0.00    -0.025 A 
DOCKED: ATOM     22  C   UNL d   1      11.150  10.071   4.819 -0.09 -0.00    -0.021 A 
DOCKED: ATOM     23  C   UNL d   1      10.197  11.110   4.892 -0.04 +0.00    +0.066 A 
DOCKED: ATOM     24  C   UNL d   1      12.184   8.417   6.541 -0.04 +0.01    +0.051 C 
DOCKED: ATOM     25  N   UNL d   1       8.345  13.427   5.106 -0.16 +0.02    -0.248 N 
DOCKED: ATOM     26  N   UNL d   1       7.120  14.021   7.531 -0.18 +0.05    -0.248 N 
DOCKED: ATOM     27  N   UNL d   1       8.551  11.757   8.778 -0.17 +0.00    -0.248 N 
DOCKED: ATOM     28  N   UNL d   1       9.721  11.236   6.136 -0.10 -0.01    -0.248 N 
DOCKED: ATOM     29 FE   UNL d   1       8.456  12.539   7.050 -0.05 -0.00    +0.000 Fe
DOCKED: ENDROOT
DOCKED: BRANCH   6  30
DOCKED: ATOM     30  C   UNL d   1       9.440  13.961   1.533 -0.10 +0.00    +0.052 C 
DOCKED: BRANCH  30  31
DOCKED: ATOM     31  C   UNL d   1       8.409  14.325   0.466 -0.12 +0.01    +0.115 C 
DOCKED: BRANCH  31  32
DOCKED: ATOM     32  C   UNL d   1       8.030  13.142  -0.399 -0.11 +0.03    +0.139 C 
DOCKED: ATOM     33  O   UNL d   1       7.314  13.316  -1.374 -0.02 -0.11    -0.650 OA
DOCKED: BRANCH  32  34
DOCKED: ATOM     34  O   UNL d   1       8.500  11.896  -0.157 -0.51 -0.35    -0.776 OA
DOCKED: ATOM     35  H   UNL d   1       8.905  11.621   0.677 +0.05 +0.06    +0.167 HD
DOCKED: ENDBRANCH  32  34
DOCKED: ENDBRANCH  31  32
DOCKED: ENDBRANCH  30  31
DOCKED: ENDBRANCH   6  30
DOCKED: BRANCH  29  36
DOCKED: ATOM     36  C   UNL d   1      10.046  13.851   7.434 -0.05 -0.00    +0.190 C 
DOCKED: BRANCH  36  37
DOCKED: ATOM     37  O   UNL d   1      10.934  14.736   6.815 -0.00 +0.00    -0.399 OA
DOCKED: ATOM     38  H   UNL d   1      10.615  14.802   5.872 +0.02 -0.00    +0.209 HD
DOCKED: ENDBRANCH  36  37
DOCKED: ENDBRANCH  29  36
DOCKED: BRANCH  22  39
DOCKED: ATOM     39  C   UNL d   1      11.967   9.638   3.617 -0.05 +0.00    +0.052 C 
DOCKED: BRANCH  39  40
DOCKED: ATOM     40  C   UNL d   1      11.084   8.903   2.596 -0.09 +0.00    +0.115 C 
DOCKED: BRANCH  40  41
DOCKED: ATOM     41  C   UNL d   1      10.343   9.814   1.640 -0.12 +0.01    +0.139 C 
DOCKED: ATOM     42  O   UNL d   1       9.169   9.585   1.383 +0.06 +0.00    -0.650 OA
DOCKED: BRANCH  41  43
DOCKED: ATOM     43  O   UNL d   1      10.917  10.926   1.129 +0.03 -0.05    -0.776 OA
DOCKED: ATOM     44  H   UNL d   1      10.429  11.563   0.592 +0.02 +0.02    +0.167 HD
DOCKED: ENDBRANCH  41  43
DOCKED: ENDBRANCH  40  41
DOCKED: ENDBRANCH  39  40
DOCKED: ENDBRANCH  22  39
DOCKED: BRANCH  12  45
DOCKED: ATOM     45  C   UNL d   1       4.965  15.383  10.254 -0.22 -0.00    +0.004 C 
DOCKED: ATOM     46  C   UNL d   1       4.150  14.592  10.948 -0.27 -0.00    +0.012 C 
DOCKED: ENDBRANCH  12  45
DOCKED: BRANCH  17  47
DOCKED: ATOM     47  C   UNL d   1      10.102   9.583  11.278 -0.09 +0.00    +0.004 C 
DOCKED: ATOM     48  C   UNL d   1       9.780   8.295  11.415 -0.12 +0.00    +0.012 C 
DOCKED: ENDBRANCH  17  47
DOCKED: TORSDOF 12
DOCKED: TER
DOCKED: ENDMDL
________________________________________________________________________________


	BEGINNING GENETIC ALGORITHM DOCKING 59 of 100
Run: 59 Seed: 316949798 1035911260 [ Run 59 of 100 GA/GALS ]
Beginning LAMARCKIAN GENETIC ALGORITHM (LGA), with a maximum of 25000000 energy evaluations.

Final-Value: -9.516


	FINAL GENETIC ALGORITHM DOCKED STATE
	_______________________________________________


Detailed state:  trans 6.780 15.152 5.422 quatxyzw 0.300245 0.124152 0.494980 0.805875 center 8.781 34.984 -0.736 ntor 12 21.5255 113.3985 -138.4371 73.8553 135.6946 111.5688 26.6546 -29.6322 155.0591 -149.6623 -159.9140 147.9160
State:	  6.780  15.152   5.422   0.507  0.210  0.836 72.610     21.53  113.40 -138.44   73.86  135.69  111.57   26.65  -29.63  155.06 -149.66 -159.91  147.92

DOCKED: MODEL       59
DOCKED: USER    Run = 59
DOCKED: USER    DPF = D:/Protein_go_brrr/autodock/final/mut_D99N/heme_Co/dock.dpf
DOCKED: USER  
DOCKED: USER    Estimated Free Energy of Binding    =   -2.45 kcal/mol  [=(1)+(2)+(3)-(4)]
DOCKED: USER    Estimated Inhibition Constant, Ki   =   15.93 mM (millimolar)  [Temperature = 298.15 K]
DOCKED: USER    
DOCKED: USER    (1) Final Intermolecular Energy     =   -6.03 kcal/mol
DOCKED: USER        vdW + Hbond + desolv Energy     =   -6.11 kcal/mol
DOCKED: USER        Electrostatic Energy            =   +0.07 kcal/mol
DOCKED: USER    (2) Final Total Internal Energy     =   -3.48 kcal/mol
DOCKED: USER    (3) Torsional Free Energy           =   +3.58 kcal/mol
DOCKED: USER    (4) Unbound System's Energy  [=(2)] =   -3.48 kcal/mol
DOCKED: USER    
DOCKED: USER    
DOCKED: USER    NEWDPF move heme_Co_opt.pdbqt
DOCKED: USER    NEWDPF about 8.781000 34.984000 -0.736000
DOCKED: USER    NEWDPF tran0 6.779581 15.152162 5.422185
DOCKED: USER    NEWDPF quaternion0 0.300245 0.124152 0.494980 0.805875
DOCKED: USER    NEWDPF axisangle0 0.507097 0.209686 0.835993 72.610402
DOCKED: USER    NEWDPF quat0 0.507097 0.209686 0.835993 72.610402
DOCKED: USER    NEWDPF dihe0 21.53 113.40 -138.44 73.86 135.69 111.57 26.65 -29.63 155.06 -149.66 -159.91 147.92 
DOCKED: USER  keepresnum = 1 
DOCKED: USER  
DOCKED: REMARK  12 active torsions:
DOCKED: REMARK  status: ('A' for Active; 'I' for Inactive)
DOCKED: REMARK    1  A    between atoms: C_6  and  C_10 
DOCKED: REMARK    2  A    between atoms: C_10  and  C_11 
DOCKED: REMARK    3  A    between atoms: C_11  and  C_12 
DOCKED: REMARK    4  A    between atoms: C_12  and  O_14 
DOCKED: REMARK    5  A    between atoms: C_17  and  C_20 
DOCKED: REMARK    6  A    between atoms: C_24  and  C_27 
DOCKED: REMARK    7  A    between atoms: C_31  and  C_34 
DOCKED: REMARK    8  A    between atoms: C_34  and  C_35 
DOCKED: REMARK    9  A    between atoms: C_35  and  C_36 
DOCKED: REMARK   10  A    between atoms: C_36  and  O_38 
DOCKED: REMARK   11  A    between atoms: FE_43  and  C_44 
DOCKED: REMARK   12  A    between atoms: C_44  and  O_45 
DOCKED: USER                              x       y       z     vdW  Elec       q    Type
DOCKED: USER                           _______ _______ _______ _____ _____    ______ ____
DOCKED: ROOT
DOCKED: ATOM      1  C   UNL d   1       6.205  16.200   3.609 -0.22 -0.00    +0.064 A 
DOCKED: ATOM      2  C   UNL d   1       4.851  16.679   8.142 -0.14 -0.00    +0.064 C 
DOCKED: ATOM      3  C   UNL d   1       7.472  12.877   9.366 -0.24 -0.01    +0.064 A 
DOCKED: ATOM      4  C   UNL d   1       9.173  12.601   4.817 -0.09 -0.00    +0.064 A 
DOCKED: ATOM      5  C   UNL d   1       5.614  16.588   4.751 -0.22 -0.00    +0.066 A 
DOCKED: ATOM      6  C   UNL d   1       4.803  17.738   4.820 -0.16 -0.00    -0.021 A 
DOCKED: ATOM      7  C   UNL d   1       4.431  17.885   6.142 -0.19 -0.00    -0.025 A 
DOCKED: ATOM      8  C   UNL d   1       5.017  16.811   6.820 -0.21 -0.00    +0.066 A 
DOCKED: ATOM      9  C   UNL d   1       3.560  18.990   6.758 -0.14 +0.00    +0.051 C 
DOCKED: ATOM     10  C   UNL d   1       5.393  15.593   8.920 -0.18 -0.01    +0.066 A 
DOCKED: ATOM     11  C   UNL d   1       5.139  15.322  10.282 -0.19 +0.00    -0.021 A 
DOCKED: ATOM     12  C   UNL d   1       5.912  14.205  10.611 -0.20 -0.00    +0.000 A 
DOCKED: ATOM     13  C   UNL d   1       6.570  13.872   9.427 -0.20 -0.01    +0.070 A 
DOCKED: ATOM     14  C   UNL d   1       4.146  16.035  11.163 -0.15 -0.00    +0.052 C 
DOCKED: ATOM     15  C   UNL d   1       8.278  12.433   8.246 -0.25 -0.00    +0.066 A 
DOCKED: ATOM     16  C   UNL d   1       9.298  11.493   8.287 -0.18 -0.00    -0.021 A 
DOCKED: ATOM     17  C   UNL d   1       9.793  11.412   6.978 -0.16 +0.00    +0.000 A 
DOCKED: ATOM     18  C   UNL d   1       9.022  12.299   6.235 -0.07 -0.00    +0.070 A 
DOCKED: ATOM     19  C   UNL d   1       9.746  10.739   9.519 -0.13 +0.00    +0.052 C 
DOCKED: ATOM     20  C   UNL d   1       8.493  13.522   4.093 -0.20 -0.00    +0.066 A 
DOCKED: ATOM     21  C   UNL d   1       8.753  13.746   2.743 -0.17 -0.00    -0.025 A 
DOCKED: ATOM     22  C   UNL d   1       7.892  14.759   2.361 -0.18 -0.00    -0.021 A 
DOCKED: ATOM     23  C   UNL d   1       7.152  15.113   3.509 -0.23 -0.00    +0.066 A 
DOCKED: ATOM     24  C   UNL d   1       9.785  13.044   1.864 -0.12 +0.00    +0.051 C 
DOCKED: ATOM     25  N   UNL d   1       5.751  15.988   5.982 -0.18 +0.03    -0.248 N 
DOCKED: ATOM     26  N   UNL d   1       6.212  14.677   8.391 -0.20 +0.04    -0.248 N 
DOCKED: ATOM     27  N   UNL d   1       8.150  12.912   7.029 -0.17 +0.02    -0.248 N 
DOCKED: ATOM     28  N   UNL d   1       7.514  14.369   4.560 -0.16 +0.03    -0.248 N 
DOCKED: ATOM     29 FE   UNL d   1       7.022  14.358   6.533 -0.06 -0.00    +0.000 Fe
DOCKED: ENDROOT
DOCKED: BRANCH   6  30
DOCKED: ATOM     30  C   UNL d   1       4.476  18.690   3.674 -0.11 +0.00    +0.052 C 
DOCKED: BRANCH  30  31
DOCKED: ATOM     31  C   UNL d   1       5.671  19.593   3.368 -0.05 +0.00    +0.115 C 
DOCKED: BRANCH  31  32
DOCKED: ATOM     32  C   UNL d   1       6.560  19.803   4.574 -0.02 +0.00    +0.139 C 
DOCKED: ATOM     33  O   UNL d   1       6.496  20.856   5.191 +0.01 -0.00    -0.650 OA
DOCKED: BRANCH  32  34
DOCKED: ATOM     34  O   UNL d   1       7.395  18.839   5.027 +0.02 +0.00    -0.776 OA
DOCKED: ATOM     35  H   UNL d   1       7.669  18.070   4.509 +0.02 -0.00    +0.167 HD
DOCKED: ENDBRANCH  32  34
DOCKED: ENDBRANCH  31  32
DOCKED: ENDBRANCH  30  31
DOCKED: ENDBRANCH   6  30
DOCKED: BRANCH  29  36
DOCKED: ATOM     36  C   UNL d   1       8.498  15.792   6.933 -0.06 -0.01    +0.190 C 
DOCKED: BRANCH  36  37
DOCKED: ATOM     37  O   UNL d   1       9.079  16.963   6.434 -0.00 +0.01    -0.399 OA
DOCKED: ATOM     38  H   UNL d   1       8.588  17.151   5.586 +0.02 -0.00    +0.209 HD
DOCKED: ENDBRANCH  36  37
DOCKED: ENDBRANCH  29  36
DOCKED: BRANCH  22  39
DOCKED: ATOM     39  C   UNL d   1       7.835  15.391   0.983 -0.12 +0.00    +0.052 C 
DOCKED: BRANCH  39  40
DOCKED: ATOM     40  C   UNL d   1       8.352  16.838   1.028 -0.03 +0.00    +0.115 C 
DOCKED: BRANCH  40  41
DOCKED: ATOM     41  C   UNL d   1       9.307  17.125   2.167 -0.01 +0.00    +0.139 C 
DOCKED: ATOM     42  O   UNL d   1      10.493  17.298   1.925 +0.00 -0.01    -0.650 OA
DOCKED: BRANCH  41  43
DOCKED: ATOM     43  O   UNL d   1       8.871  17.282   3.437 +0.02 -0.00    -0.776 OA
DOCKED: ATOM     44  H   UNL d   1       9.152  18.019   3.995 +0.01 -0.00    +0.167 HD
DOCKED: ENDBRANCH  41  43
DOCKED: ENDBRANCH  40  41
DOCKED: ENDBRANCH  39  40
DOCKED: ENDBRANCH  22  39
DOCKED: BRANCH  12  45
DOCKED: ATOM     45  C   UNL d   1       6.091  13.409  11.897 -0.24 -0.00    +0.004 C 
DOCKED: ATOM     46  C   UNL d   1       5.228  12.659  12.578 -0.33 -0.00    +0.012 C 
DOCKED: ENDBRANCH  12  45
DOCKED: BRANCH  17  47
DOCKED: ATOM     47  C   UNL d   1      10.934  10.613   6.437 -0.11 +0.00    +0.004 C 
DOCKED: ATOM     48  C   UNL d   1      10.786   9.616   5.562 -0.13 +0.00    +0.012 C 
DOCKED: ENDBRANCH  17  47
DOCKED: TORSDOF 12
DOCKED: TER
DOCKED: ENDMDL
________________________________________________________________________________


	BEGINNING GENETIC ALGORITHM DOCKING 60 of 100
Run: 60 Seed: 1622978814 612091674 [ Run 60 of 100 GA/GALS ]
Beginning LAMARCKIAN GENETIC ALGORITHM (LGA), with a maximum of 25000000 energy evaluations.

Final-Value: -10.610


	FINAL GENETIC ALGORITHM DOCKED STATE
	_______________________________________________


Detailed state:  trans -10.514 -4.017 11.177 quatxyzw 0.322056 -0.550611 0.428817 -0.639706 center 8.781 34.984 -0.736 ntor 12 -166.3572 114.1744 -22.5232 117.6233 74.1350 135.9241 26.8019 168.2962 -172.6073 62.0416 -174.9912 155.2210
State:	-10.514  -4.017  11.177   0.419 -0.716  0.558 -100.460   -166.36  114.17  -22.52  117.62   74.14  135.92   26.80  168.30 -172.61   62.04 -174.99  155.22

DOCKED: MODEL       60
DOCKED: USER    Run = 60
DOCKED: USER    DPF = D:/Protein_go_brrr/autodock/final/mut_D99N/heme_Co/dock.dpf
DOCKED: USER  
DOCKED: USER    Estimated Free Energy of Binding    =   -4.29 kcal/mol  [=(1)+(2)+(3)-(4)]
DOCKED: USER    Estimated Inhibition Constant, Ki   =  721.90 uM (micromolar)  [Temperature = 298.15 K]
DOCKED: USER    
DOCKED: USER    (1) Final Intermolecular Energy     =   -7.87 kcal/mol
DOCKED: USER        vdW + Hbond + desolv Energy     =   -5.69 kcal/mol
DOCKED: USER        Electrostatic Energy            =   -2.17 kcal/mol
DOCKED: USER    (2) Final Total Internal Energy     =   -2.74 kcal/mol
DOCKED: USER    (3) Torsional Free Energy           =   +3.58 kcal/mol
DOCKED: USER    (4) Unbound System's Energy  [=(2)] =   -2.74 kcal/mol
DOCKED: USER    
DOCKED: USER    
DOCKED: USER    NEWDPF move heme_Co_opt.pdbqt
DOCKED: USER    NEWDPF about 8.781000 34.984000 -0.736000
DOCKED: USER    NEWDPF tran0 -10.514404 -4.017080 11.176996
DOCKED: USER    NEWDPF quaternion0 0.322056 -0.550611 0.428817 -0.639706
DOCKED: USER    NEWDPF axisangle0 0.419005 -0.716363 0.557905 -100.460240
DOCKED: USER    NEWDPF quat0 0.419005 -0.716363 0.557905 -100.460240
DOCKED: USER    NEWDPF dihe0 -166.36 114.17 -22.52 117.62 74.14 135.92 26.80 168.30 -172.61 62.04 -174.99 155.22 
DOCKED: USER  keepresnum = 1 
DOCKED: USER  
DOCKED: REMARK  12 active torsions:
DOCKED: REMARK  status: ('A' for Active; 'I' for Inactive)
DOCKED: REMARK    1  A    between atoms: C_6  and  C_10 
DOCKED: REMARK    2  A    between atoms: C_10  and  C_11 
DOCKED: REMARK    3  A    between atoms: C_11  and  C_12 
DOCKED: REMARK    4  A    between atoms: C_12  and  O_14 
DOCKED: REMARK    5  A    between atoms: C_17  and  C_20 
DOCKED: REMARK    6  A    between atoms: C_24  and  C_27 
DOCKED: REMARK    7  A    between atoms: C_31  and  C_34 
DOCKED: REMARK    8  A    between atoms: C_34  and  C_35 
DOCKED: REMARK    9  A    between atoms: C_35  and  C_36 
DOCKED: REMARK   10  A    between atoms: C_36  and  O_38 
DOCKED: REMARK   11  A    between atoms: FE_43  and  C_44 
DOCKED: REMARK   12  A    between atoms: C_44  and  O_45 
DOCKED: USER                              x       y       z     vdW  Elec       q    Type
DOCKED: USER                           _______ _______ _______ _____ _____    ______ ____
DOCKED: ROOT
DOCKED: ATOM      1  C   UNL d   1     -10.651  -3.429   9.091 -0.26 +0.02    +0.064 A 
DOCKED: ATOM      2  C   UNL d   1      -9.815  -7.617  11.181 -0.09 +0.01    +0.064 C 
DOCKED: ATOM      3  C   UNL d   1      -9.764  -5.510  15.469 -0.07 +0.01    +0.064 A 
DOCKED: ATOM      4  C   UNL d   1     -11.000  -1.287  13.394 -0.13 +0.02    +0.064 A 
DOCKED: ATOM      5  C   UNL d   1     -10.391  -4.722   9.344 -0.19 +0.02    +0.066 A 
DOCKED: ATOM      6  C   UNL d   1     -10.391  -5.697   8.328 -0.23 -0.01    -0.021 A 
DOCKED: ATOM      7  C   UNL d   1     -10.170  -6.914   8.943 -0.15 -0.01    -0.025 A 
DOCKED: ATOM      8  C   UNL d   1     -10.029  -6.628  10.305 -0.13 +0.01    +0.066 A 
DOCKED: ATOM      9  C   UNL d   1     -10.094  -8.301   8.287 -0.13 +0.01    +0.051 C 
DOCKED: ATOM     10  C   UNL d   1      -9.631  -7.416  12.597 -0.05 +0.01    +0.066 A 
DOCKED: ATOM     11  C   UNL d   1      -9.266  -8.394  13.548 -0.03 -0.00    -0.021 A 
DOCKED: ATOM     12  C   UNL d   1      -9.254  -7.751  14.789 -0.02 +0.00    +0.000 A 
DOCKED: ATOM     13  C   UNL d   1      -9.600  -6.431  14.503 -0.05 +0.01    +0.070 A 
DOCKED: ATOM     14  C   UNL d   1      -8.865  -9.817  13.255 -0.03 +0.01    +0.052 C 
DOCKED: ATOM     15  C   UNL d   1     -10.168  -4.122  15.358 -0.12 +0.01    +0.066 A 
DOCKED: ATOM     16  C   UNL d   1     -10.460  -3.263  16.408 -0.14 -0.00    -0.021 A 
DOCKED: ATOM     17  C   UNL d   1     -10.819  -2.045  15.815 -0.22 +0.00    +0.000 A 
DOCKED: ATOM     18  C   UNL d   1     -10.701  -2.252  14.445 -0.23 +0.02    +0.070 A 
DOCKED: ATOM     19  C   UNL d   1     -10.390  -3.618  17.877 -0.09 +0.01    +0.052 C 
DOCKED: ATOM     20  C   UNL d   1     -10.977  -1.492  12.055 -0.26 +0.02    +0.066 A 
DOCKED: ATOM     21  C   UNL d   1     -11.320  -0.496  11.144 -0.30 -0.01    -0.025 A 
DOCKED: ATOM     22  C   UNL d   1     -11.200  -1.076   9.894 -0.29 -0.01    -0.021 A 
DOCKED: ATOM     23  C   UNL d   1     -10.799  -2.412  10.107 -0.23 +0.02    +0.066 A 
DOCKED: ATOM     24  C   UNL d   1     -11.759   0.934  11.449 -0.33 +0.02    +0.051 C 
DOCKED: ATOM     25  N   UNL d   1     -10.155  -5.277  10.582 -0.03 -0.06    -0.248 N 
DOCKED: ATOM     26  N   UNL d   1      -9.773  -6.217  13.171 -0.04 -0.04    -0.248 N 
DOCKED: ATOM     27  N   UNL d   1     -10.341  -3.509  14.209 -0.10 -0.05    -0.248 N 
DOCKED: ATOM     28  N   UNL d   1     -10.664  -2.669  11.414 -0.08 -0.06    -0.248 N 
DOCKED: ATOM     29 FE   UNL d   1     -10.254  -4.337  12.501 -0.04 +0.00    +0.000 Fe
DOCKED: ENDROOT
DOCKED: BRANCH   6  30
DOCKED: ATOM     30  C   UNL d   1     -10.673  -5.467   6.847 -0.10 +0.02    +0.052 C 
DOCKED: BRANCH  30  31
DOCKED: ATOM     31  C   UNL d   1     -12.163  -5.640   6.551 -0.11 +0.07    +0.115 C 
DOCKED: BRANCH  31  32
DOCKED: ATOM     32  C   UNL d   1     -12.979  -5.859   7.807 -0.06 +0.05    +0.139 C 
DOCKED: ATOM     33  O   UNL d   1     -13.362  -6.985   8.086 +0.02 -0.16    -0.650 OA
DOCKED: BRANCH  32  34
DOCKED: ATOM     34  O   UNL d   1     -13.262  -4.850   8.663 +0.04 -0.27    -0.776 OA
DOCKED: ATOM     35  H   UNL d   1     -13.664  -4.972   9.534 +0.02 +0.04    +0.167 HD
DOCKED: ENDBRANCH  32  34
DOCKED: ENDBRANCH  31  32
DOCKED: ENDBRANCH  30  31
DOCKED: ENDBRANCH   6  30
DOCKED: BRANCH  29  36
DOCKED: ATOM     36  C   UNL d   1     -12.286  -4.851  12.523 -0.03 +0.03    +0.190 C 
DOCKED: BRANCH  36  37
DOCKED: ATOM     37  O   UNL d   1     -13.349  -5.228  11.695 -0.00 -0.07    -0.399 OA
DOCKED: ATOM     38  H   UNL d   1     -12.959  -5.264  10.778 +0.02 +0.04    +0.209 HD
DOCKED: ENDBRANCH  36  37
DOCKED: ENDBRANCH  29  36
DOCKED: BRANCH  22  39
DOCKED: ATOM     39  C   UNL d   1     -11.519  -0.397   8.576 -0.29 +0.02    +0.052 C 
DOCKED: BRANCH  39  40
DOCKED: ATOM     40  C   UNL d   1     -12.871  -0.884   8.028 -0.13 +0.06    +0.115 C 
DOCKED: BRANCH  40  41
DOCKED: ATOM     41  C   UNL d   1     -12.805  -1.473   6.635 -0.08 +0.16    +0.139 C 
DOCKED: ATOM     42  O   UNL d   1     -12.300  -0.821   5.732 -0.30 -1.00    -0.650 OA
DOCKED: BRANCH  41  43
DOCKED: ATOM     43  O   UNL d   1     -13.211  -2.736   6.378 -0.19 -1.35    -0.776 OA
DOCKED: ATOM     44  H   UNL d   1     -13.344  -3.391   7.075 +0.02 +0.16    +0.167 HD
DOCKED: ENDBRANCH  41  43
DOCKED: ENDBRANCH  40  41
DOCKED: ENDBRANCH  39  40
DOCKED: ENDBRANCH  22  39
DOCKED: BRANCH  12  45
DOCKED: ATOM     45  C   UNL d   1      -8.939  -8.226  16.201 -0.01 +0.00    +0.004 C 
DOCKED: ATOM     46  C   UNL d   1      -7.903  -7.963  16.992 -0.02 +0.00    +0.012 C 
DOCKED: ENDBRANCH  12  45
DOCKED: BRANCH  17  47
DOCKED: ATOM     47  C   UNL d   1     -11.292  -0.778  16.449 -0.19 +0.00    +0.004 C 
DOCKED: ATOM     48  C   UNL d   1     -10.640  -0.159  17.436 -0.25 +0.01    +0.012 C 
DOCKED: ENDBRANCH  17  47
DOCKED: TORSDOF 12
DOCKED: TER
DOCKED: ENDMDL
________________________________________________________________________________


	BEGINNING GENETIC ALGORITHM DOCKING 61 of 100
Run: 61 Seed: 1558503551 132031150 [ Run 61 of 100 GA/GALS ]
Beginning LAMARCKIAN GENETIC ALGORITHM (LGA), with a maximum of 25000000 energy evaluations.

Final-Value: -11.071


	FINAL GENETIC ALGORITHM DOCKED STATE
	_______________________________________________


Detailed state:  trans -9.544 16.430 -5.620 quatxyzw -0.578633 -0.133198 0.531742 0.603898 center 8.781 34.984 -0.736 ntor 12 33.9947 -179.9059 128.2765 79.3114 -78.6252 108.4764 34.4196 0.7083 163.1645 155.8994 -160.6514 -170.8871
State:	 -9.544  16.430  -5.620  -0.726 -0.167  0.667 105.701     33.99 -179.91  128.28   79.31  -78.63  108.48   34.42    0.71  163.16  155.90 -160.65 -170.89

DOCKED: MODEL       61
DOCKED: USER    Run = 61
DOCKED: USER    DPF = D:/Protein_go_brrr/autodock/final/mut_D99N/heme_Co/dock.dpf
DOCKED: USER  
DOCKED: USER    Estimated Free Energy of Binding    =   -4.69 kcal/mol  [=(1)+(2)+(3)-(4)]
DOCKED: USER    Estimated Inhibition Constant, Ki   =  367.88 uM (micromolar)  [Temperature = 298.15 K]
DOCKED: USER    
DOCKED: USER    (1) Final Intermolecular Energy     =   -8.26 kcal/mol
DOCKED: USER        vdW + Hbond + desolv Energy     =   -6.90 kcal/mol
DOCKED: USER        Electrostatic Energy            =   -1.37 kcal/mol
DOCKED: USER    (2) Final Total Internal Energy     =   -2.81 kcal/mol
DOCKED: USER    (3) Torsional Free Energy           =   +3.58 kcal/mol
DOCKED: USER    (4) Unbound System's Energy  [=(2)] =   -2.81 kcal/mol
DOCKED: USER    
DOCKED: USER    
DOCKED: USER    NEWDPF move heme_Co_opt.pdbqt
DOCKED: USER    NEWDPF about 8.781000 34.984000 -0.736000
DOCKED: USER    NEWDPF tran0 -9.543867 16.430436 -5.619543
DOCKED: USER    NEWDPF quaternion0 -0.578633 -0.133198 0.531742 0.603898
DOCKED: USER    NEWDPF axisangle0 -0.725958 -0.167111 0.667127 105.700853
DOCKED: USER    NEWDPF quat0 -0.725958 -0.167111 0.667127 105.700853
DOCKED: USER    NEWDPF dihe0 33.99 -179.91 128.28 79.31 -78.63 108.48 34.42 0.71 163.16 155.90 -160.65 -170.89 
DOCKED: USER  keepresnum = 1 
DOCKED: USER  
DOCKED: REMARK  12 active torsions:
DOCKED: REMARK  status: ('A' for Active; 'I' for Inactive)
DOCKED: REMARK    1  A    between atoms: C_6  and  C_10 
DOCKED: REMARK    2  A    between atoms: C_10  and  C_11 
DOCKED: REMARK    3  A    between atoms: C_11  and  C_12 
DOCKED: REMARK    4  A    between atoms: C_12  and  O_14 
DOCKED: REMARK    5  A    between atoms: C_17  and  C_20 
DOCKED: REMARK    6  A    between atoms: C_24  and  C_27 
DOCKED: REMARK    7  A    between atoms: C_31  and  C_34 
DOCKED: REMARK    8  A    between atoms: C_34  and  C_35 
DOCKED: REMARK    9  A    between atoms: C_35  and  C_36 
DOCKED: REMARK   10  A    between atoms: C_36  and  O_38 
DOCKED: REMARK   11  A    between atoms: FE_43  and  C_44 
DOCKED: REMARK   12  A    between atoms: C_44  and  O_45 
DOCKED: USER                              x       y       z     vdW  Elec       q    Type
DOCKED: USER                           _______ _______ _______ _____ _____    ______ ____
DOCKED: ROOT
DOCKED: ATOM      1  C   UNL d   1      -9.532  17.972  -4.090 -0.01 +0.01    +0.064 A 
DOCKED: ATOM      2  C   UNL d   1     -12.846  14.844  -5.448 -0.22 -0.00    +0.064 C 
DOCKED: ATOM      3  C   UNL d   1     -10.040  13.366  -9.022 -0.13 -0.00    +0.064 A 
DOCKED: ATOM      4  C   UNL d   1      -6.489  16.280  -7.421 -0.12 +0.00    +0.064 A 
DOCKED: ATOM      5  C   UNL d   1     -10.658  17.251  -4.221 -0.03 +0.01    +0.066 A 
DOCKED: ATOM      6  C   UNL d   1     -11.718  17.347  -3.298 -0.05 -0.00    -0.021 A 
DOCKED: ATOM      7  C   UNL d   1     -12.667  16.421  -3.684 -0.12 -0.00    -0.025 A 
DOCKED: ATOM      8  C   UNL d   1     -12.154  15.811  -4.834 -0.13 +0.00    +0.066 A 
DOCKED: ATOM      9  C   UNL d   1     -14.011  16.110  -3.007 -0.17 -0.00    +0.051 C 
DOCKED: ATOM     10  C   UNL d   1     -12.410  14.178  -6.650 -0.21 -0.00    +0.066 A 
DOCKED: ATOM     11  C   UNL d   1     -13.151  13.256  -7.420 -0.29 +0.00    -0.021 A 
DOCKED: ATOM     12  C   UNL d   1     -12.311  12.844  -8.458 -0.27 -0.00    +0.000 A 
DOCKED: ATOM     13  C   UNL d   1     -11.127  13.552  -8.253 -0.18 -0.01    +0.070 A 
DOCKED: ATOM     14  C   UNL d   1     -14.597  12.881  -7.216 -0.30 -0.01    +0.052 C 
DOCKED: ATOM     15  C   UNL d   1      -8.726  13.970  -8.920 -0.20 -0.00    +0.066 A 
DOCKED: ATOM     16  C   UNL d   1      -7.602  13.626  -9.657 -0.23 +0.00    -0.021 A 
DOCKED: ATOM     17  C   UNL d   1      -6.574  14.462  -9.197 -0.19 +0.00    +0.000 A 
DOCKED: ATOM     18  C   UNL d   1      -7.159  15.265  -8.224 -0.15 +0.00    +0.070 A 
DOCKED: ATOM     19  C   UNL d   1      -7.548  12.558 -10.727 -0.35 -0.00    +0.052 C 
DOCKED: ATOM     20  C   UNL d   1      -7.015  17.012  -6.410 -0.08 +0.01    +0.066 A 
DOCKED: ATOM     21  C   UNL d   1      -6.259  17.932  -5.687 -0.06 -0.00    -0.025 A 
DOCKED: ATOM     22  C   UNL d   1      -7.118  18.457  -4.739 -0.04 -0.00    -0.021 A 
DOCKED: ATOM     23  C   UNL d   1      -8.362  17.816  -4.924 -0.03 +0.01    +0.066 A 
DOCKED: ATOM     24  C   UNL d   1      -4.786  18.281  -5.877 -0.07 +0.01    +0.051 C 
DOCKED: ATOM     25  N   UNL d   1     -10.913  16.310  -5.193 -0.03 -0.01    -0.248 N 
DOCKED: ATOM     26  N   UNL d   1     -11.208  14.400  -7.192 -0.08 +0.01    -0.248 N 
DOCKED: ATOM     27  N   UNL d   1      -8.433  14.924  -8.064 -0.08 -0.00    -0.248 N 
DOCKED: ATOM     28  N   UNL d   1      -8.303  16.939  -5.933 -0.03 -0.03    -0.248 N 
DOCKED: ATOM     29 FE   UNL d   1      -9.597  15.578  -6.712 -0.03 +0.00    +0.000 Fe
DOCKED: ENDROOT
DOCKED: BRANCH   6  30
DOCKED: ATOM     30  C   UNL d   1     -11.768  18.235  -2.059 -0.03 +0.01    +0.052 C 
DOCKED: BRANCH  30  31
DOCKED: ATOM     31  C   UNL d   1     -10.912  17.643  -0.940 -0.07 +0.03    +0.115 C 
DOCKED: BRANCH  31  32
DOCKED: ATOM     32  C   UNL d   1     -10.620  16.174  -1.152 -0.18 +0.04    +0.139 C 
DOCKED: ATOM     33  O   UNL d   1     -11.331  15.336  -0.618 -0.01 -0.09    -0.650 OA
DOCKED: BRANCH  32  34
DOCKED: ATOM     34  O   UNL d   1      -9.619  15.751  -1.959 +0.05 -0.28    -0.776 OA
DOCKED: ATOM     35  H   UNL d   1      -8.803  16.245  -2.118 +0.05 +0.10    +0.167 HD
DOCKED: ENDBRANCH  32  34
DOCKED: ENDBRANCH  31  32
DOCKED: ENDBRANCH  30  31
DOCKED: ENDBRANCH   6  30
DOCKED: BRANCH  29  36
DOCKED: ATOM     36  C   UNL d   1      -8.966  14.145  -5.318 -0.30 +0.02    +0.190 C 
DOCKED: BRANCH  36  37
DOCKED: ATOM     37  O   UNL d   1      -8.564  13.986  -3.988 -0.20 -0.08    -0.399 OA
DOCKED: ATOM     38  H   UNL d   1      -9.378  14.189  -3.448 -0.16 -0.01    +0.209 HD
DOCKED: ENDBRANCH  36  37
DOCKED: ENDBRANCH  29  36
DOCKED: BRANCH  22  39
DOCKED: ATOM     39  C   UNL d   1      -6.740  19.470  -3.674 -0.02 +0.01    +0.052 C 
DOCKED: BRANCH  39  40
DOCKED: ATOM     40  C   UNL d   1      -5.811  18.835  -2.626 -0.07 +0.05    +0.115 C 
DOCKED: BRANCH  40  41
DOCKED: ATOM     41  C   UNL d   1      -6.023  17.349  -2.422 +0.05 +0.12    +0.139 C 
DOCKED: ATOM     42  O   UNL d   1      -5.051  16.619  -2.291 -0.80 -0.63    -0.650 OA
DOCKED: BRANCH  41  43
DOCKED: ATOM     43  O   UNL d   1      -7.260  16.819  -2.292 -0.35 -0.77    -0.776 OA
DOCKED: ATOM     44  H   UNL d   1      -7.533  16.019  -2.759 +0.05 +0.13    +0.167 HD
DOCKED: ENDBRANCH  41  43
DOCKED: ENDBRANCH  40  41
DOCKED: ENDBRANCH  39  40
DOCKED: ENDBRANCH  22  39
DOCKED: BRANCH  12  45
DOCKED: ATOM     45  C   UNL d   1     -12.495  11.883  -9.625 -0.23 -0.00    +0.004 C 
DOCKED: ATOM     46  C   UNL d   1     -13.228  11.992 -10.730 -0.33 -0.00    +0.012 C 
DOCKED: ENDBRANCH  12  45
DOCKED: BRANCH  17  47
DOCKED: ATOM     47  C   UNL d   1      -5.131  14.499  -9.580 -0.19 -0.00    +0.004 C 
DOCKED: ATOM     48  C   UNL d   1      -4.160  13.945  -8.851 -0.30 -0.00    +0.012 C 
DOCKED: ENDBRANCH  17  47
DOCKED: TORSDOF 12
DOCKED: TER
DOCKED: ENDMDL
________________________________________________________________________________


	BEGINNING GENETIC ALGORITHM DOCKING 62 of 100
Run: 62 Seed: 1800302178 3346171 [ Run 62 of 100 GA/GALS ]
Beginning LAMARCKIAN GENETIC ALGORITHM (LGA), with a maximum of 25000000 energy evaluations.

Final-Value: -11.570


	FINAL GENETIC ALGORITHM DOCKED STATE
	_______________________________________________


Detailed state:  trans -13.307 2.460 9.510 quatxyzw 0.077682 0.498943 -0.793117 0.340569 center 8.781 34.984 -0.736 ntor 12 -154.3274 123.7020 -123.8941 111.5790 136.1230 124.3437 52.5668 108.8788 -121.2459 111.3859 176.8845 -168.0508
State:	-13.307   2.460   9.510   0.083  0.531 -0.844 140.177   -154.33  123.70 -123.89  111.58  136.12  124.34   52.57  108.88 -121.25  111.39  176.88 -168.05

DOCKED: MODEL       62
DOCKED: USER    Run = 62
DOCKED: USER    DPF = D:/Protein_go_brrr/autodock/final/mut_D99N/heme_Co/dock.dpf
DOCKED: USER  
DOCKED: USER    Estimated Free Energy of Binding    =   -4.70 kcal/mol  [=(1)+(2)+(3)-(4)]
DOCKED: USER    Estimated Inhibition Constant, Ki   =  360.48 uM (micromolar)  [Temperature = 298.15 K]
DOCKED: USER    
DOCKED: USER    (1) Final Intermolecular Energy     =   -8.28 kcal/mol
DOCKED: USER        vdW + Hbond + desolv Energy     =   -5.90 kcal/mol
DOCKED: USER        Electrostatic Energy            =   -2.38 kcal/mol
DOCKED: USER    (2) Final Total Internal Energy     =   -3.29 kcal/mol
DOCKED: USER    (3) Torsional Free Energy           =   +3.58 kcal/mol
DOCKED: USER    (4) Unbound System's Energy  [=(2)] =   -3.29 kcal/mol
DOCKED: USER    
DOCKED: USER    
DOCKED: USER    NEWDPF move heme_Co_opt.pdbqt
DOCKED: USER    NEWDPF about 8.781000 34.984000 -0.736000
DOCKED: USER    NEWDPF tran0 -13.306703 2.459977 9.510000
DOCKED: USER    NEWDPF quaternion0 0.077682 0.498943 -0.793117 0.340569
DOCKED: USER    NEWDPF axisangle0 0.082621 0.530666 -0.843544 140.176859
DOCKED: USER    NEWDPF quat0 0.082621 0.530666 -0.843544 140.176859
DOCKED: USER    NEWDPF dihe0 -154.33 123.70 -123.89 111.58 136.12 124.34 52.57 108.88 -121.25 111.39 176.88 -168.05 
DOCKED: USER  keepresnum = 1 
DOCKED: USER  
DOCKED: REMARK  12 active torsions:
DOCKED: REMARK  status: ('A' for Active; 'I' for Inactive)
DOCKED: REMARK    1  A    between atoms: C_6  and  C_10 
DOCKED: REMARK    2  A    between atoms: C_10  and  C_11 
DOCKED: REMARK    3  A    between atoms: C_11  and  C_12 
DOCKED: REMARK    4  A    between atoms: C_12  and  O_14 
DOCKED: REMARK    5  A    between atoms: C_17  and  C_20 
DOCKED: REMARK    6  A    between atoms: C_24  and  C_27 
DOCKED: REMARK    7  A    between atoms: C_31  and  C_34 
DOCKED: REMARK    8  A    between atoms: C_34  and  C_35 
DOCKED: REMARK    9  A    between atoms: C_35  and  C_36 
DOCKED: REMARK   10  A    between atoms: C_36  and  O_38 
DOCKED: REMARK   11  A    between atoms: FE_43  and  C_44 
DOCKED: REMARK   12  A    between atoms: C_44  and  O_45 
DOCKED: USER                              x       y       z     vdW  Elec       q    Type
DOCKED: USER                           _______ _______ _______ _____ _____    ______ ____
DOCKED: ROOT
DOCKED: ATOM      1  C   UNL d   1     -11.681   1.758   8.253 -0.14 +0.02    +0.064 A 
DOCKED: ATOM      2  C   UNL d   1     -13.132   0.495  12.602 -0.19 +0.03    +0.064 C 
DOCKED: ATOM      3  C   UNL d   1     -16.391   3.990  12.570 -0.09 +0.03    +0.064 A 
DOCKED: ATOM      4  C   UNL d   1     -15.189   5.051   7.977 -0.08 +0.01    +0.064 A 
DOCKED: ATOM      5  C   UNL d   1     -11.814   1.179   9.458 -0.18 +0.02    +0.066 A 
DOCKED: ATOM      6  C   UNL d   1     -11.065   0.045   9.829 -0.36 -0.01    -0.021 A 
DOCKED: ATOM      7  C   UNL d   1     -11.507  -0.331  11.083 -0.28 -0.01    -0.025 A 
DOCKED: ATOM      8  C   UNL d   1     -12.493   0.599  11.430 -0.21 +0.03    +0.066 A 
DOCKED: ATOM      9  C   UNL d   1     -11.029  -1.517  11.934 -0.30 +0.01    +0.051 C 
DOCKED: ATOM     10  C   UNL d   1     -14.141   1.420  13.056 -0.14 +0.04    +0.066 A 
DOCKED: ATOM     11  C   UNL d   1     -14.747   1.448  14.330 -0.06 -0.02    -0.021 A 
DOCKED: ATOM     12  C   UNL d   1     -15.691   2.478  14.295 -0.11 +0.00    +0.000 A 
DOCKED: ATOM     13  C   UNL d   1     -15.581   3.010  13.009 -0.13 +0.04    +0.070 A 
DOCKED: ATOM     14  C   UNL d   1     -14.368   0.600  15.518 -0.05 +0.04    +0.052 C 
DOCKED: ATOM     15  C   UNL d   1     -16.451   4.616  11.264 -0.07 +0.02    +0.066 A 
DOCKED: ATOM     16  C   UNL d   1     -17.408   5.523  10.830 -0.05 -0.00    -0.021 A 
DOCKED: ATOM     17  C   UNL d   1     -17.067   5.830   9.505 -0.06 +0.00    +0.000 A 
DOCKED: ATOM     18  C   UNL d   1     -15.915   5.097   9.240 -0.03 +0.02    +0.070 A 
DOCKED: ATOM     19  C   UNL d   1     -18.564   6.040  11.656 -0.02 +0.01    +0.052 C 
DOCKED: ATOM     20  C   UNL d   1     -14.117   4.281   7.670 -0.11 +0.01    +0.066 A 
DOCKED: ATOM     21  C   UNL d   1     -13.527   4.298   6.408 -0.13 -0.00    -0.025 A 
DOCKED: ATOM     22  C   UNL d   1     -12.495   3.379   6.467 -0.21 -0.00    -0.021 A 
DOCKED: ATOM     23  C   UNL d   1     -12.514   2.834   7.768 -0.18 +0.01    +0.066 A 
DOCKED: ATOM     24  C   UNL d   1     -13.939   5.133   5.198 -0.14 +0.00    +0.051 C 
DOCKED: ATOM     25  N   UNL d   1     -12.699   1.550  10.444 -0.13 -0.08    -0.248 N 
DOCKED: ATOM     26  N   UNL d   1     -14.605   2.406  12.281 -0.12 -0.14    -0.248 N 
DOCKED: ATOM     27  N   UNL d   1     -15.594   4.363  10.300 -0.05 -0.10    -0.248 N 
DOCKED: ATOM     28  N   UNL d   1     -13.496   3.376   8.499 -0.10 -0.07    -0.248 N 
DOCKED: ATOM     29 FE   UNL d   1     -14.231   3.041  10.365 -0.04 +0.00    +0.000 Fe
DOCKED: ENDROOT
DOCKED: BRANCH   6  30
DOCKED: ATOM     30  C   UNL d   1     -10.035  -0.684   8.974 -0.33 +0.02    +0.052 C 
DOCKED: BRANCH  30  31
DOCKED: ATOM     31  C   UNL d   1     -10.654  -1.921   8.323 -0.37 +0.05    +0.115 C 
DOCKED: BRANCH  31  32
DOCKED: ATOM     32  C   UNL d   1     -11.870  -1.585   7.487 -0.23 +0.10    +0.139 C 
DOCKED: ATOM     33  O   UNL d   1     -12.934  -1.353   8.040 +0.03 -0.36    -0.650 OA
DOCKED: BRANCH  32  34
DOCKED: ATOM     34  O   UNL d   1     -11.808  -1.486   6.138 -0.17 -1.07    -0.776 OA
DOCKED: ATOM     35  H   UNL d   1     -12.447  -1.000   5.599 +0.03 +0.31    +0.167 HD
DOCKED: ENDBRANCH  32  34
DOCKED: ENDBRANCH  31  32
DOCKED: ENDBRANCH  30  31
DOCKED: ENDBRANCH   6  30
DOCKED: BRANCH  29  36
DOCKED: ATOM     36  C   UNL d   1     -15.495   1.542   9.623 -0.01 +0.05    +0.190 C 
DOCKED: BRANCH  36  37
DOCKED: ATOM     37  O   UNL d   1     -15.504   0.363   8.870 +0.01 -0.11    -0.399 OA
DOCKED: ATOM     38  H   UNL d   1     -14.542   0.122   8.761 +0.03 +0.07    +0.209 HD
DOCKED: ENDBRANCH  36  37
DOCKED: ENDBRANCH  29  36
DOCKED: BRANCH  22  39
DOCKED: ATOM     39  C   UNL d   1     -11.586   3.003   5.312 -0.08 +0.01    +0.052 C 
DOCKED: BRANCH  39  40
DOCKED: ATOM     40  C   UNL d   1     -12.377   2.274   4.213 -0.17 +0.04    +0.115 C 
DOCKED: BRANCH  40  41
DOCKED: ATOM     41  C   UNL d   1     -12.752   0.847   4.555 -0.18 +0.12    +0.139 C 
DOCKED: ATOM     42  O   UNL d   1     -12.248  -0.071   3.924 -0.54 -1.08    -0.650 OA
DOCKED: BRANCH  41  43
DOCKED: ATOM     43  O   UNL d   1     -13.563   0.556   5.596 -0.01 -0.58    -0.776 OA
DOCKED: ATOM     44  H   UNL d   1     -13.269   0.030   6.352 +0.04 +0.13    +0.167 HD
DOCKED: ENDBRANCH  41  43
DOCKED: ENDBRANCH  40  41
DOCKED: ENDBRANCH  39  40
DOCKED: ENDBRANCH  22  39
DOCKED: BRANCH  12  45
DOCKED: ATOM     45  C   UNL d   1     -16.664   3.032  15.327 -0.07 +0.00    +0.004 C 
DOCKED: ATOM     46  C   UNL d   1     -16.606   4.136  16.066 -0.07 +0.01    +0.012 C 
DOCKED: ENDBRANCH  12  45
DOCKED: BRANCH  17  47
DOCKED: ATOM     47  C   UNL d   1     -17.772   6.698   8.515 -0.03 +0.00    +0.004 C 
DOCKED: ATOM     48  C   UNL d   1     -17.259   7.833   8.033 -0.03 +0.00    +0.012 C 
DOCKED: ENDBRANCH  17  47
DOCKED: TORSDOF 12
DOCKED: TER
DOCKED: ENDMDL
________________________________________________________________________________


	BEGINNING GENETIC ALGORITHM DOCKING 63 of 100
Run: 63 Seed: 1692788444 2004699327 [ Run 63 of 100 GA/GALS ]
Beginning LAMARCKIAN GENETIC ALGORITHM (LGA), with a maximum of 25000000 energy evaluations.

Final-Value: -10.316


	FINAL GENETIC ALGORITHM DOCKED STATE
	_______________________________________________


Detailed state:  trans -12.029 -6.142 5.763 quatxyzw 0.824915 -0.137182 -0.347789 -0.423957 center 8.781 34.984 -0.736 ntor 12 -21.3798 111.3350 141.9607 115.4566 75.4122 146.3171 -110.3905 -73.2178 165.1569 -109.9116 17.1232 -0.1933
State:	-12.029  -6.142   5.763   0.911 -0.151 -0.384 -129.831    -21.38  111.34  141.96  115.46   75.41  146.32 -110.39  -73.22  165.16 -109.91   17.12   -0.19

DOCKED: MODEL       63
DOCKED: USER    Run = 63
DOCKED: USER    DPF = D:/Protein_go_brrr/autodock/final/mut_D99N/heme_Co/dock.dpf
DOCKED: USER  
DOCKED: USER    Estimated Free Energy of Binding    =   -4.34 kcal/mol  [=(1)+(2)+(3)-(4)]
DOCKED: USER    Estimated Inhibition Constant, Ki   =  655.53 uM (micromolar)  [Temperature = 298.15 K]
DOCKED: USER    
DOCKED: USER    (1) Final Intermolecular Energy     =   -7.92 kcal/mol
DOCKED: USER        vdW + Hbond + desolv Energy     =   -5.60 kcal/mol
DOCKED: USER        Electrostatic Energy            =   -2.32 kcal/mol
DOCKED: USER    (2) Final Total Internal Energy     =   -2.39 kcal/mol
DOCKED: USER    (3) Torsional Free Energy           =   +3.58 kcal/mol
DOCKED: USER    (4) Unbound System's Energy  [=(2)] =   -2.39 kcal/mol
DOCKED: USER    
DOCKED: USER    
DOCKED: USER    NEWDPF move heme_Co_opt.pdbqt
DOCKED: USER    NEWDPF about 8.781000 34.984000 -0.736000
DOCKED: USER    NEWDPF tran0 -12.029443 -6.142392 5.763469
DOCKED: USER    NEWDPF quaternion0 0.824915 -0.137182 -0.347789 -0.423957
DOCKED: USER    NEWDPF axisangle0 0.910821 -0.151468 -0.384008 -129.830734
DOCKED: USER    NEWDPF quat0 0.910821 -0.151468 -0.384008 -129.830734
DOCKED: USER    NEWDPF dihe0 -21.38 111.34 141.96 115.46 75.41 146.32 -110.39 -73.22 165.16 -109.91 17.12 -0.19 
DOCKED: USER  keepresnum = 1 
DOCKED: USER  
DOCKED: REMARK  12 active torsions:
DOCKED: REMARK  status: ('A' for Active; 'I' for Inactive)
DOCKED: REMARK    1  A    between atoms: C_6  and  C_10 
DOCKED: REMARK    2  A    between atoms: C_10  and  C_11 
DOCKED: REMARK    3  A    between atoms: C_11  and  C_12 
DOCKED: REMARK    4  A    between atoms: C_12  and  O_14 
DOCKED: REMARK    5  A    between atoms: C_17  and  C_20 
DOCKED: REMARK    6  A    between atoms: C_24  and  C_27 
DOCKED: REMARK    7  A    between atoms: C_31  and  C_34 
DOCKED: REMARK    8  A    between atoms: C_34  and  C_35 
DOCKED: REMARK    9  A    between atoms: C_35  and  C_36 
DOCKED: REMARK   10  A    between atoms: C_36  and  O_38 
DOCKED: REMARK   11  A    between atoms: FE_43  and  C_44 
DOCKED: REMARK   12  A    between atoms: C_44  and  O_45 
DOCKED: USER                              x       y       z     vdW  Elec       q    Type
DOCKED: USER                           _______ _______ _______ _____ _____    ______ ____
DOCKED: ROOT
DOCKED: ATOM      1  C   UNL d   1     -12.803  -4.921   7.384 -0.10 +0.04    +0.064 A 
DOCKED: ATOM      2  C   UNL d   1     -14.656  -6.230   3.205 -0.07 +0.04    +0.064 C 
DOCKED: ATOM      3  C   UNL d   1     -10.540  -8.335   1.997 -0.10 +0.00    +0.064 A 
DOCKED: ATOM      4  C   UNL d   1      -8.753  -7.345   6.412 -0.24 +0.02    +0.064 A 
DOCKED: ATOM      5  C   UNL d   1     -13.599  -5.093   6.316 -0.09 +0.05    +0.066 A 
DOCKED: ATOM      6  C   UNL d   1     -14.942  -4.668   6.310 -0.06 -0.01    -0.021 A 
DOCKED: ATOM      7  C   UNL d   1     -15.482  -5.071   5.104 -0.06 -0.02    -0.025 A 
DOCKED: ATOM      8  C   UNL d   1     -14.441  -5.709   4.420 -0.08 +0.05    +0.066 A 
DOCKED: ATOM      9  C   UNL d   1     -16.920  -4.871   4.601 -0.02 +0.02    +0.051 C 
DOCKED: ATOM     10  C   UNL d   1     -13.640  -6.880   2.415 -0.07 +0.03    +0.066 A 
DOCKED: ATOM     11  C   UNL d   1     -13.764  -7.323   1.080 -0.03 -0.00    -0.021 A 
DOCKED: ATOM     12  C   UNL d   1     -12.548  -7.929   0.752 -0.04 +0.00    +0.000 A 
DOCKED: ATOM     13  C   UNL d   1     -11.771  -7.801   1.903 -0.08 +0.01    +0.070 A 
DOCKED: ATOM     14  C   UNL d   1     -14.940  -7.086   0.167 -0.01 +0.01    +0.052 C 
DOCKED: ATOM     15  C   UNL d   1      -9.624  -8.343   3.121 -0.18 +0.00    +0.066 A 
DOCKED: ATOM     16  C   UNL d   1      -8.426  -9.038   3.201 -0.23 +0.00    -0.021 A 
DOCKED: ATOM     17  C   UNL d   1      -7.908  -8.758   4.473 -0.33 +0.00    +0.000 A 
DOCKED: ATOM     18  C   UNL d   1      -8.826  -7.897   5.065 -0.25 +0.01    +0.070 A 
DOCKED: ATOM     19  C   UNL d   1      -7.843  -9.909   2.110 -0.21 -0.01    +0.052 C 
DOCKED: ATOM     20  C   UNL d   1      -9.675  -6.577   7.039 -0.22 +0.02    +0.066 A 
DOCKED: ATOM     21  C   UNL d   1      -9.508  -6.136   8.350 -0.29 -0.01    -0.025 A 
DOCKED: ATOM     22  C   UNL d   1     -10.647  -5.410   8.648 -0.21 -0.01    -0.021 A 
DOCKED: ATOM     23  C   UNL d   1     -11.464  -5.455   7.498 -0.15 +0.03    +0.066 A 
DOCKED: ATOM     24  C   UNL d   1      -8.330  -6.409   9.281 -0.29 +0.01    +0.051 C 
DOCKED: ATOM     25  N   UNL d   1     -13.262  -5.732   5.145 -0.07 -0.22    -0.248 N 
DOCKED: ATOM     26  N   UNL d   1     -12.412  -7.117   2.888 -0.07 -0.09    -0.248 N 
DOCKED: ATOM     27  N   UNL d   1      -9.850  -7.696   4.242 -0.13 -0.06    -0.248 N 
DOCKED: ATOM     28  N   UNL d   1     -10.881  -6.161   6.523 -0.10 -0.11    -0.248 N 
DOCKED: ATOM     29 FE   UNL d   1     -11.453  -6.771   4.670 -0.04 +0.00    +0.000 Fe
DOCKED: ENDROOT
DOCKED: BRANCH   6  30
DOCKED: ATOM     30  C   UNL d   1     -15.684  -3.981   7.451 -0.02 +0.02    +0.052 C 
DOCKED: BRANCH  30  31
DOCKED: ATOM     31  C   UNL d   1     -15.783  -2.477   7.199 -0.02 +0.06    +0.115 C 
DOCKED: BRANCH  31  32
DOCKED: ATOM     32  C   UNL d   1     -14.808  -2.003   6.143 -0.02 +0.16    +0.139 C 
DOCKED: ATOM     33  O   UNL d   1     -15.232  -1.468   5.130 +0.00 -0.79    -0.650 OA
DOCKED: BRANCH  32  34
DOCKED: ATOM     34  O   UNL d   1     -13.468  -2.109   6.304 -0.15 -1.30    -0.776 OA
DOCKED: ATOM     35  H   UNL d   1     -13.025  -2.142   7.163 +0.03 +0.16    +0.167 HD
DOCKED: ENDBRANCH  32  34
DOCKED: ENDBRANCH  31  32
DOCKED: ENDBRANCH  30  31
DOCKED: ENDBRANCH   6  30
DOCKED: BRANCH  29  36
DOCKED: ATOM     36  C   UNL d   1     -12.354  -8.480   5.484 -0.04 +0.04    +0.190 C 
DOCKED: BRANCH  36  37
DOCKED: ATOM     37  O   UNL d   1     -13.475  -8.915   6.198 +0.00 -0.07    -0.399 OA
DOCKED: ATOM     38  H   UNL d   1     -13.999  -8.087   6.384 +0.01 +0.05    +0.209 HD
DOCKED: ENDBRANCH  36  37
DOCKED: ENDBRANCH  29  36
DOCKED: BRANCH  22  39
DOCKED: ATOM     39  C   UNL d   1     -10.956  -4.768   9.987 -0.16 +0.01    +0.052 C 
DOCKED: BRANCH  39  40
DOCKED: ATOM     40  C   UNL d   1     -10.668  -3.258   9.944 -0.21 +0.03    +0.115 C 
DOCKED: BRANCH  40  41
DOCKED: ATOM     41  C   UNL d   1     -11.549  -2.481   8.988 -0.19 +0.05    +0.139 C 
DOCKED: ATOM     42  O   UNL d   1     -12.751  -2.414   9.203 +0.05 -0.24    -0.650 OA
DOCKED: BRANCH  41  43
DOCKED: ATOM     43  O   UNL d   1     -11.033  -1.786   7.951 -0.17 -0.43    -0.776 OA
DOCKED: ATOM     44  H   UNL d   1     -11.507  -1.666   7.118 +0.05 +0.14    +0.167 HD
DOCKED: ENDBRANCH  41  43
DOCKED: ENDBRANCH  40  41
DOCKED: ENDBRANCH  39  40
DOCKED: ENDBRANCH  22  39
DOCKED: BRANCH  12  45
DOCKED: ATOM     45  C   UNL d   1     -12.028  -8.594  -0.516 -0.06 -0.00    +0.004 C 
DOCKED: ATOM     46  C   UNL d   1     -11.135  -8.176  -1.409 -0.12 -0.01    +0.012 C 
DOCKED: ENDBRANCH  12  45
DOCKED: BRANCH  17  47
DOCKED: ATOM     47  C   UNL d   1      -6.676  -9.279   5.138 -0.35 +0.00    +0.004 C 
DOCKED: ATOM     48  C   UNL d   1      -5.460  -9.213   4.592 -0.39 -0.00    +0.012 C 
DOCKED: ENDBRANCH  17  47
DOCKED: TORSDOF 12
DOCKED: TER
DOCKED: ENDMDL
________________________________________________________________________________


	BEGINNING GENETIC ALGORITHM DOCKING 64 of 100
Run: 64 Seed: 1868703265 1077089789 [ Run 64 of 100 GA/GALS ]
Beginning LAMARCKIAN GENETIC ALGORITHM (LGA), with a maximum of 25000000 energy evaluations.

Final-Value: -8.964


	FINAL GENETIC ALGORITHM DOCKED STATE
	_______________________________________________


Detailed state:  trans 22.500 -5.086 2.094 quatxyzw 0.458997 0.662921 0.291932 0.514425 center 8.781 34.984 -0.736 ntor 12 -153.7824 114.8431 107.8454 112.1558 138.1311 130.9424 47.3643 178.0296 165.1714 98.3694 -166.2612 -14.6429
State:	 22.500  -5.086   2.094   0.535  0.773  0.340 118.082   -153.78  114.84  107.85  112.16  138.13  130.94   47.36  178.03  165.17   98.37 -166.26  -14.64

DOCKED: MODEL       64
DOCKED: USER    Run = 64
DOCKED: USER    DPF = D:/Protein_go_brrr/autodock/final/mut_D99N/heme_Co/dock.dpf
DOCKED: USER  
DOCKED: USER    Estimated Free Energy of Binding    =   -3.06 kcal/mol  [=(1)+(2)+(3)-(4)]
DOCKED: USER    Estimated Inhibition Constant, Ki   =    5.67 mM (millimolar)  [Temperature = 298.15 K]
DOCKED: USER    
DOCKED: USER    (1) Final Intermolecular Energy     =   -6.64 kcal/mol
DOCKED: USER        vdW + Hbond + desolv Energy     =   -5.32 kcal/mol
DOCKED: USER        Electrostatic Energy            =   -1.32 kcal/mol
DOCKED: USER    (2) Final Total Internal Energy     =   -2.32 kcal/mol
DOCKED: USER    (3) Torsional Free Energy           =   +3.58 kcal/mol
DOCKED: USER    (4) Unbound System's Energy  [=(2)] =   -2.32 kcal/mol
DOCKED: USER    
DOCKED: USER    
DOCKED: USER    NEWDPF move heme_Co_opt.pdbqt
DOCKED: USER    NEWDPF about 8.781000 34.984000 -0.736000
DOCKED: USER    NEWDPF tran0 22.499733 -5.086071 2.094459
DOCKED: USER    NEWDPF quaternion0 0.458997 0.662921 0.291932 0.514425
DOCKED: USER    NEWDPF axisangle0 0.535252 0.773054 0.340432 118.081914
DOCKED: USER    NEWDPF quat0 0.535252 0.773054 0.340432 118.081914
DOCKED: USER    NEWDPF dihe0 -153.78 114.84 107.85 112.16 138.13 130.94 47.36 178.03 165.17 98.37 -166.26 -14.64 
DOCKED: USER  keepresnum = 1 
DOCKED: USER  
DOCKED: REMARK  12 active torsions:
DOCKED: REMARK  status: ('A' for Active; 'I' for Inactive)
DOCKED: REMARK    1  A    between atoms: C_6  and  C_10 
DOCKED: REMARK    2  A    between atoms: C_10  and  C_11 
DOCKED: REMARK    3  A    between atoms: C_11  and  C_12 
DOCKED: REMARK    4  A    between atoms: C_12  and  O_14 
DOCKED: REMARK    5  A    between atoms: C_17  and  C_20 
DOCKED: REMARK    6  A    between atoms: C_24  and  C_27 
DOCKED: REMARK    7  A    between atoms: C_31  and  C_34 
DOCKED: REMARK    8  A    between atoms: C_34  and  C_35 
DOCKED: REMARK    9  A    between atoms: C_35  and  C_36 
DOCKED: REMARK   10  A    between atoms: C_36  and  O_38 
DOCKED: REMARK   11  A    between atoms: FE_43  and  C_44 
DOCKED: REMARK   12  A    between atoms: C_44  and  O_45 
DOCKED: USER                              x       y       z     vdW  Elec       q    Type
DOCKED: USER                           _______ _______ _______ _____ _____    ______ ____
DOCKED: ROOT
DOCKED: ATOM      1  C   UNL d   1      23.401  -6.209   0.469 -0.15 +0.01    +0.064 A 
DOCKED: ATOM      2  C   UNL d   1      19.374  -3.697   0.770 -0.27 -0.01    +0.064 C 
DOCKED: ATOM      3  C   UNL d   1      20.134  -2.968   5.430 -0.06 +0.00    +0.064 A 
DOCKED: ATOM      4  C   UNL d   1      24.441  -5.199   5.065 -0.04 +0.03    +0.064 A 
DOCKED: ATOM      5  C   UNL d   1      22.227  -5.607   0.217 -0.19 +0.01    +0.066 A 
DOCKED: ATOM      6  C   UNL d   1      21.686  -5.539  -1.082 -0.25 -0.00    -0.021 A 
DOCKED: ATOM      7  C   UNL d   1      20.529  -4.789  -0.993 -0.34 +0.00    -0.025 A 
DOCKED: ATOM      8  C   UNL d   1      20.405  -4.447   0.358 -0.26 -0.00    +0.066 A 
DOCKED: ATOM      9  C   UNL d   1      19.568  -4.401  -2.126 -0.15 -0.00    +0.051 C 
DOCKED: ATOM     10  C   UNL d   1      19.150  -3.318   2.142 -0.19 -0.00    +0.066 A 
DOCKED: ATOM     11  C   UNL d   1      18.016  -2.653   2.660 -0.26 +0.00    -0.021 A 
DOCKED: ATOM     12  C   UNL d   1      18.263  -2.457   4.021 -0.20 -0.00    +0.000 A 
DOCKED: ATOM     13  C   UNL d   1      19.518  -3.025   4.236 -0.12 +0.00    +0.070 A 
DOCKED: ATOM     14  C   UNL d   1      16.754  -2.324   1.905 -0.32 -0.01    +0.052 C 
DOCKED: ATOM     15  C   UNL d   1      21.445  -3.453   5.814 -0.04 +0.01    +0.066 A 
DOCKED: ATOM     16  C   UNL d   1      22.082  -3.233   7.027 -0.02 -0.00    -0.021 A 
DOCKED: ATOM     17  C   UNL d   1      23.325  -3.873   6.926 -0.03 +0.00    +0.000 A 
DOCKED: ATOM     18  C   UNL d   1      23.342  -4.449   5.660 -0.06 +0.02    +0.070 A 
DOCKED: ATOM     19  C   UNL d   1      21.508  -2.454   8.190 -0.01 +0.00    +0.052 C 
DOCKED: ATOM     20  C   UNL d   1      24.514  -5.695   3.806 -0.02 +0.04    +0.066 A 
DOCKED: ATOM     21  C   UNL d   1      25.640  -6.368   3.337 -0.00 -0.02    -0.025 A 
DOCKED: ATOM     22  C   UNL d   1      25.357  -6.697   2.023 -0.09 -0.01    -0.021 A 
DOCKED: ATOM     23  C   UNL d   1      24.068  -6.193   1.751 -0.10 +0.03    +0.066 A 
DOCKED: ATOM     24  C   UNL d   1      26.930  -6.667   4.096 -0.07 +0.04    +0.051 C 
DOCKED: ATOM     25  N   UNL d   1      21.440  -4.945   1.132 -0.16 -0.02    -0.248 N 
DOCKED: ATOM     26  N   UNL d   1      20.029  -3.595   3.112 -0.11 -0.01    -0.248 N 
DOCKED: ATOM     27  N   UNL d   1      22.219  -4.153   5.015 -0.05 -0.05    -0.248 N 
DOCKED: ATOM     28  N   UNL d   1      23.555  -5.583   2.826 -0.09 -0.11    -0.248 N 
DOCKED: ATOM     29 FE   UNL d   1      21.855  -4.528   3.188 -0.03 +0.00    +0.000 Fe
DOCKED: ENDROOT
DOCKED: BRANCH   6  30
DOCKED: ATOM     30  C   UNL d   1      22.306  -6.102  -2.356 -0.22 +0.00    +0.052 C 
DOCKED: BRANCH  30  31
DOCKED: ATOM     31  C   UNL d   1      23.354  -5.140  -2.914 -0.10 +0.01    +0.115 C 
DOCKED: BRANCH  31  32
DOCKED: ATOM     32  C   UNL d   1      23.229  -3.749  -2.332 -0.08 +0.01    +0.139 C 
DOCKED: ATOM     33  O   UNL d   1      22.409  -2.973  -2.799 -0.00 -0.05    -0.650 OA
DOCKED: BRANCH  32  34
DOCKED: ATOM     34  O   UNL d   1      23.967  -3.346  -1.271 +0.04 -0.06    -0.776 OA
DOCKED: ATOM     35  H   UNL d   1      23.724  -2.616  -0.685 +0.01 +0.01    +0.167 HD
DOCKED: ENDBRANCH  32  34
DOCKED: ENDBRANCH  31  32
DOCKED: ENDBRANCH  30  31
DOCKED: ENDBRANCH   6  30
DOCKED: BRANCH  29  36
DOCKED: ATOM     36  C   UNL d   1      22.780  -2.767   2.527 -0.02 +0.02    +0.190 C 
DOCKED: BRANCH  36  37
DOCKED: ATOM     37  O   UNL d   1      23.400  -2.182   1.418 +0.00 -0.03    -0.399 OA
DOCKED: ATOM     38  H   UNL d   1      23.349  -2.875   0.701 +0.02 +0.02    +0.209 HD
DOCKED: ENDBRANCH  36  37
DOCKED: ENDBRANCH  29  36
DOCKED: BRANCH  22  39
DOCKED: ATOM     39  C   UNL d   1      26.305  -7.399   1.069 -0.07 +0.02    +0.052 C 
DOCKED: BRANCH  39  40
DOCKED: ATOM     40  C   UNL d   1      26.186  -8.925   1.211 -0.10 +0.06    +0.115 C 
DOCKED: BRANCH  40  41
DOCKED: ATOM     41  C   UNL d   1      27.074  -9.524   2.282 -0.07 +0.11    +0.139 C 
DOCKED: ATOM     42  O   UNL d   1      28.234  -9.149   2.376 -0.00 -0.32    -0.650 OA
DOCKED: BRANCH  41  43
DOCKED: ATOM     43  O   UNL d   1      26.595 -10.400   3.193 -0.47 -1.25    -0.776 OA
DOCKED: ATOM     44  H   UNL d   1      26.882 -11.322   3.228 +0.00 +0.17    +0.167 HD
DOCKED: ENDBRANCH  41  43
DOCKED: ENDBRANCH  40  41
DOCKED: ENDBRANCH  39  40
DOCKED: ENDBRANCH  22  39
DOCKED: BRANCH  12  45
DOCKED: ATOM     45  C   UNL d   1      17.453  -1.818   5.141 -0.24 -0.00    +0.004 C 
DOCKED: ATOM     46  C   UNL d   1      16.758  -2.372   6.132 -0.34 -0.00    +0.012 C 
DOCKED: ENDBRANCH  12  45
DOCKED: BRANCH  17  47
DOCKED: ATOM     47  C   UNL d   1      24.457  -3.918   7.899 -0.01 +0.00    +0.004 C 
DOCKED: ATOM     48  C   UNL d   1      24.890  -5.043   8.474 -0.02 +0.00    +0.012 C 
DOCKED: ENDBRANCH  17  47
DOCKED: TORSDOF 12
DOCKED: TER
DOCKED: ENDMDL
________________________________________________________________________________


	BEGINNING GENETIC ALGORITHM DOCKING 65 of 100
Run: 65 Seed: 1100149272 570928010 [ Run 65 of 100 GA/GALS ]
Beginning LAMARCKIAN GENETIC ALGORITHM (LGA), with a maximum of 25000000 energy evaluations.

Final-Value: -9.522


	FINAL GENETIC ALGORITHM DOCKED STATE
	_______________________________________________


Detailed state:  trans -16.351 4.379 3.509 quatxyzw -0.108476 -0.037583 -0.782568 0.611889 center 8.781 34.984 -0.736 ntor 12 88.3372 101.9309 -158.4284 -81.2597 137.7473 82.8448 62.4471 119.4416 26.7023 151.4094 178.5880 168.9940
State:	-16.351   4.379   3.509  -0.137 -0.048 -0.989 104.548     88.34  101.93 -158.43  -81.26  137.75   82.84   62.45  119.44   26.70  151.41  178.59  168.99

DOCKED: MODEL       65
DOCKED: USER    Run = 65
DOCKED: USER    DPF = D:/Protein_go_brrr/autodock/final/mut_D99N/heme_Co/dock.dpf
DOCKED: USER  
DOCKED: USER    Estimated Free Energy of Binding    =   -3.89 kcal/mol  [=(1)+(2)+(3)-(4)]
DOCKED: USER    Estimated Inhibition Constant, Ki   =    1.40 mM (millimolar)  [Temperature = 298.15 K]
DOCKED: USER    
DOCKED: USER    (1) Final Intermolecular Energy     =   -7.47 kcal/mol
DOCKED: USER        vdW + Hbond + desolv Energy     =   -5.71 kcal/mol
DOCKED: USER        Electrostatic Energy            =   -1.76 kcal/mol
DOCKED: USER    (2) Final Total Internal Energy     =   -2.05 kcal/mol
DOCKED: USER    (3) Torsional Free Energy           =   +3.58 kcal/mol
DOCKED: USER    (4) Unbound System's Energy  [=(2)] =   -2.05 kcal/mol
DOCKED: USER    
DOCKED: USER    
DOCKED: USER    NEWDPF move heme_Co_opt.pdbqt
DOCKED: USER    NEWDPF about 8.781000 34.984000 -0.736000
DOCKED: USER    NEWDPF tran0 -16.351336 4.378615 3.509399
DOCKED: USER    NEWDPF quaternion0 -0.108476 -0.037583 -0.782568 0.611889
DOCKED: USER    NEWDPF axisangle0 -0.137147 -0.047516 -0.989410 104.547631
DOCKED: USER    NEWDPF quat0 -0.137147 -0.047516 -0.989410 104.547631
DOCKED: USER    NEWDPF dihe0 88.34 101.93 -158.43 -81.26 137.75 82.84 62.45 119.44 26.70 151.41 178.59 168.99 
DOCKED: USER  keepresnum = 1 
DOCKED: USER  
DOCKED: REMARK  12 active torsions:
DOCKED: REMARK  status: ('A' for Active; 'I' for Inactive)
DOCKED: REMARK    1  A    between atoms: C_6  and  C_10 
DOCKED: REMARK    2  A    between atoms: C_10  and  C_11 
DOCKED: REMARK    3  A    between atoms: C_11  and  C_12 
DOCKED: REMARK    4  A    between atoms: C_12  and  O_14 
DOCKED: REMARK    5  A    between atoms: C_17  and  C_20 
DOCKED: REMARK    6  A    between atoms: C_24  and  C_27 
DOCKED: REMARK    7  A    between atoms: C_31  and  C_34 
DOCKED: REMARK    8  A    between atoms: C_34  and  C_35 
DOCKED: REMARK    9  A    between atoms: C_35  and  C_36 
DOCKED: REMARK   10  A    between atoms: C_36  and  O_38 
DOCKED: REMARK   11  A    between atoms: FE_43  and  C_44 
DOCKED: REMARK   12  A    between atoms: C_44  and  O_45 
DOCKED: USER                              x       y       z     vdW  Elec       q    Type
DOCKED: USER                           _______ _______ _______ _____ _____    ______ ____
DOCKED: ROOT
DOCKED: ATOM      1  C   UNL d   1     -16.568   2.449   2.538 -0.14 +0.01    +0.064 A 
DOCKED: ATOM      2  C   UNL d   1     -13.523   4.049   5.821 -0.14 +0.01    +0.064 C 
DOCKED: ATOM      3  C   UNL d   1     -15.369   8.440   5.447 -0.09 -0.00    +0.064 A 
DOCKED: ATOM      4  C   UNL d   1     -18.742   6.746   2.377 -0.20 +0.01    +0.064 A 
DOCKED: ATOM      5  C   UNL d   1     -15.577   2.571   3.436 -0.14 +0.02    +0.066 A 
DOCKED: ATOM      6  C   UNL d   1     -14.826   1.464   3.876 -0.11 -0.01    -0.021 A 
DOCKED: ATOM      7  C   UNL d   1     -13.960   1.930   4.846 -0.10 -0.01    -0.025 A 
DOCKED: ATOM      8  C   UNL d   1     -14.207   3.304   4.943 -0.09 +0.01    +0.066 A 
DOCKED: ATOM      9  C   UNL d   1     -12.933   1.126   5.658 -0.18 +0.03    +0.051 C 
DOCKED: ATOM     10  C   UNL d   1     -13.690   5.473   5.973 -0.14 +0.00    +0.066 A 
DOCKED: ATOM     11  C   UNL d   1     -12.908   6.333   6.774 -0.28 +0.00    -0.021 A 
DOCKED: ATOM     12  C   UNL d   1     -13.465   7.608   6.643 -0.25 -0.00    +0.000 A 
DOCKED: ATOM     13  C   UNL d   1     -14.535   7.434   5.765 -0.13 -0.00    +0.070 A 
DOCKED: ATOM     14  C   UNL d   1     -11.658   5.959   7.528 -0.39 -0.00    +0.052 C 
DOCKED: ATOM     15  C   UNL d   1     -16.548   8.426   4.603 -0.09 -0.00    +0.066 A 
DOCKED: ATOM     16  C   UNL d   1     -17.450   9.466   4.431 -0.07 +0.00    -0.021 A 
DOCKED: ATOM     17  C   UNL d   1     -18.426   8.982   3.548 -0.11 -0.00    +0.000 A 
DOCKED: ATOM     18  C   UNL d   1     -18.031   7.685   3.237 -0.15 +0.00    +0.070 A 
DOCKED: ATOM     19  C   UNL d   1     -17.355  10.826   5.086 -0.03 -0.01    +0.052 C 
DOCKED: ATOM     20  C   UNL d   1     -18.424   5.453   2.129 -0.22 +0.01    +0.066 A 
DOCKED: ATOM     21  C   UNL d   1     -19.206   4.640   1.312 -0.21 -0.01    -0.025 A 
DOCKED: ATOM     22  C   UNL d   1     -18.588   3.403   1.316 -0.11 -0.00    -0.021 A 
DOCKED: ATOM     23  C   UNL d   1     -17.457   3.521   2.152 -0.15 +0.01    +0.066 A 
DOCKED: ATOM     24  C   UNL d   1     -20.491   5.016   0.578 -0.13 +0.02    +0.051 C 
DOCKED: ATOM     25  N   UNL d   1     -15.199   3.729   4.077 -0.08 -0.04    -0.248 N 
DOCKED: ATOM     26  N   UNL d   1     -14.635   6.154   5.317 -0.05 -0.01    -0.248 N 
DOCKED: ATOM     27  N   UNL d   1     -16.926   7.377   3.907 -0.07 -0.00    -0.248 N 
DOCKED: ATOM     28  N   UNL d   1     -17.356   4.760   2.648 -0.14 -0.03    -0.248 N 
DOCKED: ATOM     29 FE   UNL d   1     -16.116   5.660   3.984 -0.03 +0.00    +0.000 Fe
DOCKED: ENDROOT
DOCKED: BRANCH   6  30
DOCKED: ATOM     30  C   UNL d   1     -15.001   0.014   3.437 -0.13 +0.05    +0.052 C 
DOCKED: BRANCH  30  31
DOCKED: ATOM     31  C   UNL d   1     -15.858  -0.753   4.445 -0.06 +0.09    +0.115 C 
DOCKED: BRANCH  31  32
DOCKED: ATOM     32  C   UNL d   1     -15.586  -2.242   4.419 +0.09 +0.19    +0.139 C 
DOCKED: ATOM     33  O   UNL d   1     -15.893  -2.891   3.430 -0.10 -0.80    -0.650 OA
DOCKED: BRANCH  32  34
DOCKED: ATOM     34  O   UNL d   1     -14.966  -2.876   5.441 -0.24 -1.27    -0.776 OA
DOCKED: ATOM     35  H   UNL d   1     -15.415  -3.195   6.235 +0.01 +0.14    +0.167 HD
DOCKED: ENDBRANCH  32  34
DOCKED: ENDBRANCH  31  32
DOCKED: ENDBRANCH  30  31
DOCKED: ENDBRANCH   6  30
DOCKED: BRANCH  29  36
DOCKED: ATOM     36  C   UNL d   1     -17.334   5.034   5.571 -0.03 +0.02    +0.190 C 
DOCKED: BRANCH  36  37
DOCKED: ATOM     37  O   UNL d   1     -18.400   4.187   5.891 -0.00 -0.04    -0.399 OA
DOCKED: ATOM     38  H   UNL d   1     -18.758   3.883   5.010 +0.02 +0.03    +0.209 HD
DOCKED: ENDBRANCH  36  37
DOCKED: ENDBRANCH  29  36
DOCKED: BRANCH  22  39
DOCKED: ATOM     39  C   UNL d   1     -19.098   2.162   0.607 -0.11 +0.01    +0.052 C 
DOCKED: BRANCH  39  40
DOCKED: ATOM     40  C   UNL d   1     -20.034   1.358   1.524 -0.06 +0.02    +0.115 C 
DOCKED: BRANCH  40  41
DOCKED: ATOM     41  C   UNL d   1     -19.661   1.402   2.991 -0.03 +0.02    +0.139 C 
DOCKED: ATOM     42  O   UNL d   1     -19.094   0.442   3.493 +0.01 -0.12    -0.650 OA
DOCKED: BRANCH  41  43
DOCKED: ATOM     43  O   UNL d   1     -19.859   2.509   3.741 +0.02 -0.11    -0.776 OA
DOCKED: ATOM     44  H   UNL d   1     -19.313   2.720   4.509 +0.01 +0.02    +0.167 HD
DOCKED: ENDBRANCH  41  43
DOCKED: ENDBRANCH  40  41
DOCKED: ENDBRANCH  39  40
DOCKED: ENDBRANCH  22  39
DOCKED: BRANCH  12  45
DOCKED: ATOM     45  C   UNL d   1     -13.101   8.966   7.228 -0.36 -0.00    +0.004 C 
DOCKED: ATOM     46  C   UNL d   1     -13.490   9.556   8.356 -0.45 -0.00    +0.012 C 
DOCKED: ENDBRANCH  12  45
DOCKED: BRANCH  17  47
DOCKED: ATOM     47  C   UNL d   1     -19.673   9.636   3.053 -0.09 +0.00    +0.004 C 
DOCKED: ATOM     48  C   UNL d   1     -19.887   9.941   1.770 -0.15 +0.00    +0.012 C 
DOCKED: ENDBRANCH  17  47
DOCKED: TORSDOF 12
DOCKED: TER
DOCKED: ENDMDL
________________________________________________________________________________


	BEGINNING GENETIC ALGORITHM DOCKING 66 of 100
Run: 66 Seed: 1720659642 377284664 [ Run 66 of 100 GA/GALS ]
Beginning LAMARCKIAN GENETIC ALGORITHM (LGA), with a maximum of 25000000 energy evaluations.

Final-Value: -10.373


	FINAL GENETIC ALGORITHM DOCKED STATE
	_______________________________________________


Detailed state:  trans 2.382 0.077 -19.651 quatxyzw -0.481451 -0.031892 -0.174852 -0.858263 center 8.781 34.984 -0.736 ntor 12 46.3910 97.8537 -158.6233 -91.6311 68.1221 85.6874 20.0699 122.0196 -77.8054 149.5996 -26.3551 167.1997
State:	  2.382   0.077 -19.651  -0.938 -0.062 -0.341 -61.756     46.39   97.85 -158.62  -91.63   68.12   85.69   20.07  122.02  -77.81  149.60  -26.36  167.20

DOCKED: MODEL       66
DOCKED: USER    Run = 66
DOCKED: USER    DPF = D:/Protein_go_brrr/autodock/final/mut_D99N/heme_Co/dock.dpf
DOCKED: USER  
DOCKED: USER    Estimated Free Energy of Binding    =   -4.66 kcal/mol  [=(1)+(2)+(3)-(4)]
DOCKED: USER    Estimated Inhibition Constant, Ki   =  381.45 uM (micromolar)  [Temperature = 298.15 K]
DOCKED: USER    
DOCKED: USER    (1) Final Intermolecular Energy     =   -8.24 kcal/mol
DOCKED: USER        vdW + Hbond + desolv Energy     =   -5.83 kcal/mol
DOCKED: USER        Electrostatic Energy            =   -2.41 kcal/mol
DOCKED: USER    (2) Final Total Internal Energy     =   -2.13 kcal/mol
DOCKED: USER    (3) Torsional Free Energy           =   +3.58 kcal/mol
DOCKED: USER    (4) Unbound System's Energy  [=(2)] =   -2.13 kcal/mol
DOCKED: USER    
DOCKED: USER    
DOCKED: USER    NEWDPF move heme_Co_opt.pdbqt
DOCKED: USER    NEWDPF about 8.781000 34.984000 -0.736000
DOCKED: USER    NEWDPF tran0 2.381506 0.077136 -19.651358
DOCKED: USER    NEWDPF quaternion0 -0.481451 -0.031892 -0.174852 -0.858263
DOCKED: USER    NEWDPF axisangle0 -0.938115 -0.062143 -0.340702 -61.755831
DOCKED: USER    NEWDPF quat0 -0.938115 -0.062143 -0.340702 -61.755831
DOCKED: USER    NEWDPF dihe0 46.39 97.85 -158.62 -91.63 68.12 85.69 20.07 122.02 -77.81 149.60 -26.36 167.20 
DOCKED: USER  keepresnum = 1 
DOCKED: USER  
DOCKED: REMARK  12 active torsions:
DOCKED: REMARK  status: ('A' for Active; 'I' for Inactive)
DOCKED: REMARK    1  A    between atoms: C_6  and  C_10 
DOCKED: REMARK    2  A    between atoms: C_10  and  C_11 
DOCKED: REMARK    3  A    between atoms: C_11  and  C_12 
DOCKED: REMARK    4  A    between atoms: C_12  and  O_14 
DOCKED: REMARK    5  A    between atoms: C_17  and  C_20 
DOCKED: REMARK    6  A    between atoms: C_24  and  C_27 
DOCKED: REMARK    7  A    between atoms: C_31  and  C_34 
DOCKED: REMARK    8  A    between atoms: C_34  and  C_35 
DOCKED: REMARK    9  A    between atoms: C_35  and  C_36 
DOCKED: REMARK   10  A    between atoms: C_36  and  O_38 
DOCKED: REMARK   11  A    between atoms: FE_43  and  C_44 
DOCKED: REMARK   12  A    between atoms: C_44  and  O_45 
DOCKED: USER                              x       y       z     vdW  Elec       q    Type
DOCKED: USER                           _______ _______ _______ _____ _____    ______ ____
DOCKED: ROOT
DOCKED: ATOM      1  C   UNL d   1       0.637   0.124 -20.944 -0.11 +0.04    +0.064 A 
DOCKED: ATOM      2  C   UNL d   1       1.361   1.649 -16.499 -0.22 +0.04    +0.064 C 
DOCKED: ATOM      3  C   UNL d   1       5.756  -0.224 -16.532 -0.22 +0.02    +0.064 A 
DOCKED: ATOM      4  C   UNL d   1       5.183  -1.453 -21.203 -0.12 +0.01    +0.064 A 
DOCKED: ATOM      5  C   UNL d   1       0.499   0.646 -19.714 -0.12 +0.06    +0.066 A 
DOCKED: ATOM      6  C   UNL d   1      -0.652   1.362 -19.332 -0.11 -0.02    -0.021 A 
DOCKED: ATOM      7  C   UNL d   1      -0.428   1.821 -18.049 -0.11 -0.03    -0.025 A 
DOCKED: ATOM      8  C   UNL d   1       0.843   1.353 -17.698 -0.15 +0.06    +0.066 A 
DOCKED: ATOM      9  C   UNL d   1      -1.363   2.670 -17.174 -0.17 +0.05    +0.051 C 
DOCKED: ATOM     10  C   UNL d   1       2.648   1.190 -16.040 -0.19 +0.03    +0.066 A 
DOCKED: ATOM     11  C   UNL d   1       3.188   1.347 -14.745 -0.30 -0.01    -0.021 A 
DOCKED: ATOM     12  C   UNL d   1       4.468   0.788 -14.781 -0.30 +0.00    +0.000 A 
DOCKED: ATOM     13  C   UNL d   1       4.610   0.322 -16.089 -0.20 +0.02    +0.070 A 
DOCKED: ATOM     14  C   UNL d   1       2.473   1.909 -13.543 -0.02 +0.02    +0.052 C 
DOCKED: ATOM     15  C   UNL d   1       6.093  -0.708 -17.856 -0.20 +0.02    +0.066 A 
DOCKED: ATOM     16  C   UNL d   1       7.344  -1.128 -18.286 -0.21 -0.01    -0.021 A 
DOCKED: ATOM     17  C   UNL d   1       7.184  -1.481 -19.634 -0.17 +0.00    +0.000 A 
DOCKED: ATOM     18  C   UNL d   1       5.840  -1.264 -19.916 -0.07 +0.02    +0.070 A 
DOCKED: ATOM     19  C   UNL d   1       8.593  -1.174 -17.435 -0.18 +0.03    +0.052 C 
DOCKED: ATOM     20  C   UNL d   1       3.899  -1.168 -21.524 -0.10 +0.01    +0.066 A 
DOCKED: ATOM     21  C   UNL d   1       3.393  -1.359 -22.808 -0.06 -0.00    -0.025 A 
DOCKED: ATOM     22  C   UNL d   1       2.076  -0.941 -22.756 -0.05 -0.00    -0.021 A 
DOCKED: ATOM     23  C   UNL d   1       1.845  -0.499 -21.435 -0.09 +0.02    +0.066 A 
DOCKED: ATOM     24  C   UNL d   1       4.132  -1.897 -24.030 -0.05 +0.01    +0.051 C 
DOCKED: ATOM     25  N   UNL d   1       1.438   0.617 -18.709 -0.08 -0.17    -0.248 N 
DOCKED: ATOM     26  N   UNL d   1       3.488   0.515 -16.832 -0.11 -0.08    -0.248 N 
DOCKED: ATOM     27  N   UNL d   1       5.227  -0.776 -18.843 -0.12 -0.07    -0.248 N 
DOCKED: ATOM     28  N   UNL d   1       2.947  -0.633 -20.687 -0.07 -0.07    -0.248 N 
DOCKED: ATOM     29 FE   UNL d   1       3.444  -0.122 -18.783 -0.04 +0.00    +0.000 Fe
DOCKED: ENDROOT
DOCKED: BRANCH   6  30
DOCKED: ATOM     30  C   UNL d   1      -1.872   1.653 -20.199 -0.08 +0.05    +0.052 C 
DOCKED: BRANCH  30  31
DOCKED: ATOM     31  C   UNL d   1      -2.496   0.352 -20.704 -0.11 +0.12    +0.115 C 
DOCKED: BRANCH  31  32
DOCKED: ATOM     32  C   UNL d   1      -3.712  -0.056 -19.899 -0.17 +0.21    +0.139 C 
DOCKED: ATOM     33  O   UNL d   1      -3.646  -1.028 -19.162 -0.51 -1.42    -0.650 OA
DOCKED: BRANCH  32  34
DOCKED: ATOM     34  O   UNL d   1      -4.864   0.653 -19.932 +0.02 -1.44    -0.776 OA
DOCKED: ATOM     35  H   UNL d   1      -5.254   1.021 -20.737 +0.02 +0.25    +0.167 HD
DOCKED: ENDBRANCH  32  34
DOCKED: ENDBRANCH  31  32
DOCKED: ENDBRANCH  30  31
DOCKED: ENDBRANCH   6  30
DOCKED: BRANCH  29  36
DOCKED: ATOM     36  C   UNL d   1       4.007   1.794 -19.419 -0.01 +0.04    +0.190 C 
DOCKED: BRANCH  36  37
DOCKED: ATOM     37  O   UNL d   1       3.910   2.685 -20.494 +0.01 -0.07    -0.399 OA
DOCKED: ATOM     38  H   UNL d   1       3.610   2.126 -21.264 +0.01 +0.04    +0.209 HD
DOCKED: ENDBRANCH  36  37
DOCKED: ENDBRANCH  29  36
DOCKED: BRANCH  22  39
DOCKED: ATOM     39  C   UNL d   1       1.116  -0.907 -23.930 -0.03 +0.01    +0.052 C 
DOCKED: BRANCH  39  40
DOCKED: ATOM     40  C   UNL d   1       1.166   0.459 -24.634 -0.00 +0.02    +0.115 C 
DOCKED: BRANCH  40  41
DOCKED: ATOM     41  C   UNL d   1       1.368   1.635 -23.701 -0.00 +0.02    +0.139 C 
DOCKED: ATOM     42  O   UNL d   1       0.401   2.307 -23.368 +0.01 -0.13    -0.650 OA
DOCKED: BRANCH  41  43
DOCKED: ATOM     43  O   UNL d   1       2.573   1.911 -23.156 +0.01 -0.12    -0.776 OA
DOCKED: ATOM     44  H   UNL d   1       2.668   2.363 -22.307 +0.00 +0.03    +0.167 HD
DOCKED: ENDBRANCH  41  43
DOCKED: ENDBRANCH  40  41
DOCKED: ENDBRANCH  39  40
DOCKED: ENDBRANCH  22  39
DOCKED: BRANCH  12  45
DOCKED: ATOM     45  C   UNL d   1       5.561   0.625 -13.733 -0.34 +0.00    +0.004 C 
DOCKED: ATOM     46  C   UNL d   1       6.664   1.336 -13.514 -0.34 +0.00    +0.012 C 
DOCKED: ENDBRANCH  12  45
DOCKED: BRANCH  17  47
DOCKED: ATOM     47  C   UNL d   1       8.201  -1.941 -20.626 -0.17 +0.00    +0.004 C 
DOCKED: ATOM     48  C   UNL d   1       9.112  -2.882 -20.366 -0.20 +0.00    +0.012 C 
DOCKED: ENDBRANCH  17  47
DOCKED: TORSDOF 12
DOCKED: TER
DOCKED: ENDMDL
________________________________________________________________________________


	BEGINNING GENETIC ALGORITHM DOCKING 67 of 100
Run: 67 Seed: 1614920876 1403357484 [ Run 67 of 100 GA/GALS ]
Beginning LAMARCKIAN GENETIC ALGORITHM (LGA), with a maximum of 25000000 energy evaluations.

Final-Value: -9.293


	FINAL GENETIC ALGORITHM DOCKED STATE
	_______________________________________________


Detailed state:  trans 1.135 0.456 -20.532 quatxyzw 0.408373 -0.159136 0.180812 0.880463 center 8.781 34.984 -0.736 ntor 12 48.4809 108.8401 95.6120 116.6204 106.5264 80.9821 -180.0000 148.3757 -139.3913 132.9461 -21.8888 34.6705
State:	  1.135   0.456 -20.532   0.861 -0.336  0.381 56.604     48.48  108.84   95.61  116.62  106.53   80.98 -180.00  148.38 -139.39  132.95  -21.89   34.67

DOCKED: MODEL       67
DOCKED: USER    Run = 67
DOCKED: USER    DPF = D:/Protein_go_brrr/autodock/final/mut_D99N/heme_Co/dock.dpf
DOCKED: USER  
DOCKED: USER    Estimated Free Energy of Binding    =   -3.76 kcal/mol  [=(1)+(2)+(3)-(4)]
DOCKED: USER    Estimated Inhibition Constant, Ki   =    1.76 mM (millimolar)  [Temperature = 298.15 K]
DOCKED: USER    
DOCKED: USER    (1) Final Intermolecular Energy     =   -7.34 kcal/mol
DOCKED: USER        vdW + Hbond + desolv Energy     =   -4.61 kcal/mol
DOCKED: USER        Electrostatic Energy            =   -2.72 kcal/mol
DOCKED: USER    (2) Final Total Internal Energy     =   -1.96 kcal/mol
DOCKED: USER    (3) Torsional Free Energy           =   +3.58 kcal/mol
DOCKED: USER    (4) Unbound System's Energy  [=(2)] =   -1.96 kcal/mol
DOCKED: USER    
DOCKED: USER    
DOCKED: USER    NEWDPF move heme_Co_opt.pdbqt
DOCKED: USER    NEWDPF about 8.781000 34.984000 -0.736000
DOCKED: USER    NEWDPF tran0 1.134936 0.456027 -20.532212
DOCKED: USER    NEWDPF quaternion0 0.408373 -0.159136 0.180812 0.880463
DOCKED: USER    NEWDPF axisangle0 0.861337 -0.335647 0.381366 56.603590
DOCKED: USER    NEWDPF quat0 0.861337 -0.335647 0.381366 56.603590
DOCKED: USER    NEWDPF dihe0 48.48 108.84 95.61 116.62 106.53 80.98 -180.00 148.38 -139.39 132.95 -21.89 34.67 
DOCKED: USER  keepresnum = 1 
DOCKED: USER  
DOCKED: REMARK  12 active torsions:
DOCKED: REMARK  status: ('A' for Active; 'I' for Inactive)
DOCKED: REMARK    1  A    between atoms: C_6  and  C_10 
DOCKED: REMARK    2  A    between atoms: C_10  and  C_11 
DOCKED: REMARK    3  A    between atoms: C_11  and  C_12 
DOCKED: REMARK    4  A    between atoms: C_12  and  O_14 
DOCKED: REMARK    5  A    between atoms: C_17  and  C_20 
DOCKED: REMARK    6  A    between atoms: C_24  and  C_27 
DOCKED: REMARK    7  A    between atoms: C_31  and  C_34 
DOCKED: REMARK    8  A    between atoms: C_34  and  C_35 
DOCKED: REMARK    9  A    between atoms: C_35  and  C_36 
DOCKED: REMARK   10  A    between atoms: C_36  and  O_38 
DOCKED: REMARK   11  A    between atoms: FE_43  and  C_44 
DOCKED: REMARK   12  A    between atoms: C_44  and  O_45 
DOCKED: USER                              x       y       z     vdW  Elec       q    Type
DOCKED: USER                           _______ _______ _______ _____ _____    ______ ____
DOCKED: ROOT
DOCKED: ATOM      1  C   UNL d   1      -0.845   1.061 -21.187 -0.05 +0.04    +0.064 A 
DOCKED: ATOM      2  C   UNL d   1       1.365   1.369 -16.988 -0.20 +0.04    +0.064 C 
DOCKED: ATOM      3  C   UNL d   1       5.090  -1.064 -18.728 -0.08 +0.02    +0.064 A 
DOCKED: ATOM      4  C   UNL d   1       3.022  -1.056 -23.131 -0.03 +0.01    +0.064 A 
DOCKED: ATOM      5  C   UNL d   1      -0.531   1.292 -19.901 -0.09 +0.06    +0.066 A 
DOCKED: ATOM      6  C   UNL d   1      -1.358   2.057 -19.056 -0.09 -0.02    -0.021 A 
DOCKED: ATOM      7  C   UNL d   1      -0.701   2.162 -17.845 -0.13 -0.02    -0.025 A 
DOCKED: ATOM      8  C   UNL d   1       0.490   1.444 -17.999 -0.14 +0.06    +0.066 A 
DOCKED: ATOM      9  C   UNL d   1      -1.163   2.908 -16.584 -0.17 +0.04    +0.051 C 
DOCKED: ATOM     10  C   UNL d   1       2.602   0.632 -17.044 -0.11 +0.02    +0.066 A 
DOCKED: ATOM     11  C   UNL d   1       3.494   0.397 -15.975 -0.26 -0.01    -0.021 A 
DOCKED: ATOM     12  C   UNL d   1       4.570  -0.318 -16.510 -0.30 +0.00    +0.000 A 
DOCKED: ATOM     13  C   UNL d   1       4.249  -0.477 -17.858 -0.22 +0.02    +0.070 A 
DOCKED: ATOM     14  C   UNL d   1       3.268   0.758 -14.529 -0.41 +0.02    +0.052 C 
DOCKED: ATOM     15  C   UNL d   1       4.944  -1.265 -20.156 -0.09 +0.02    +0.066 A 
DOCKED: ATOM     16  C   UNL d   1       5.914  -1.749 -21.023 -0.05 -0.00    -0.021 A 
DOCKED: ATOM     17  C   UNL d   1       5.323  -1.746 -22.294 -0.11 +0.00    +0.000 A 
DOCKED: ATOM     18  C   UNL d   1       4.029  -1.275 -22.099 -0.08 +0.01    +0.070 A 
DOCKED: ATOM     19  C   UNL d   1       7.309  -2.177 -20.627 -0.14 +0.01    +0.052 C 
DOCKED: ATOM     20  C   UNL d   1       1.789  -0.518 -22.978 -0.03 +0.01    +0.066 A 
DOCKED: ATOM     21  C   UNL d   1       0.924  -0.325 -24.053 -0.02 -0.00    -0.025 A 
DOCKED: ATOM     22  C   UNL d   1      -0.211   0.257 -23.518 -0.02 -0.01    -0.021 A 
DOCKED: ATOM     23  C   UNL d   1       0.025   0.403 -22.134 -0.04 +0.03    +0.066 A 
DOCKED: ATOM     24  C   UNL d   1       1.173  -0.660 -25.521 -0.01 +0.01    +0.051 C 
DOCKED: ATOM     25  N   UNL d   1       0.619   0.890 -19.261 -0.10 -0.22    -0.248 N 
DOCKED: ATOM     26  N   UNL d   1       3.034   0.048 -18.167 -0.05 -0.08    -0.248 N 
DOCKED: ATOM     27  N   UNL d   1       3.848  -0.970 -20.819 -0.07 -0.06    -0.248 N 
DOCKED: ATOM     28  N   UNL d   1       1.235  -0.064 -21.804 -0.03 -0.09    -0.248 N 
DOCKED: ATOM     29 FE   UNL d   1       2.328  -0.096 -20.089 -0.03 +0.00    +0.000 Fe
DOCKED: ENDROOT
DOCKED: BRANCH   6  30
DOCKED: ATOM     30  C   UNL d   1      -2.678   2.721 -19.432 -0.08 +0.05    +0.052 C 
DOCKED: BRANCH  30  31
DOCKED: ATOM     31  C   UNL d   1      -3.710   1.670 -19.841 -0.08 +0.16    +0.115 C 
DOCKED: BRANCH  31  32
DOCKED: ATOM     32  C   UNL d   1      -3.634   0.423 -18.986 -0.01 +0.27    +0.139 C 
DOCKED: ATOM     33  O   UNL d   1      -3.635   0.527 -17.769 +0.08 -1.51    -0.650 OA
DOCKED: BRANCH  32  34
DOCKED: ATOM     34  O   UNL d   1      -3.613  -0.818 -19.527 -0.35 -1.47    -0.776 OA
DOCKED: ATOM     35  H   UNL d   1      -3.075  -1.069 -20.291 +0.02 +0.24    +0.167 HD
DOCKED: ENDBRANCH  32  34
DOCKED: ENDBRANCH  31  32
DOCKED: ENDBRANCH  30  31
DOCKED: ENDBRANCH   6  30
DOCKED: BRANCH  29  36
DOCKED: ATOM     36  C   UNL d   1       3.085   1.813 -20.509 -0.01 +0.04    +0.190 C 
DOCKED: BRANCH  36  37
DOCKED: ATOM     37  O   UNL d   1       2.933   2.909 -21.364 +0.00 -0.07    -0.399 OA
DOCKED: ATOM     38  H   UNL d   1       2.240   2.625 -22.024 +0.01 +0.04    +0.209 HD
DOCKED: ENDBRANCH  36  37
DOCKED: ENDBRANCH  29  36
DOCKED: BRANCH  22  39
DOCKED: ATOM     39  C   UNL d   1      -1.425   0.707 -24.309 -0.01 +0.01    +0.052 C 
DOCKED: BRANCH  39  40
DOCKED: ATOM     40  C   UNL d   1      -2.722   0.286 -23.599 -0.01 +0.04    +0.115 C 
DOCKED: BRANCH  40  41
DOCKED: ATOM     41  C   UNL d   1      -2.793  -1.185 -23.248 -0.04 +0.05    +0.139 C 
DOCKED: ATOM     42  O   UNL d   1      -2.979  -2.004 -24.137 +0.01 -0.16    -0.650 OA
DOCKED: BRANCH  41  43
DOCKED: ATOM     43  O   UNL d   1      -2.569  -1.627 -21.991 -0.01 -0.46    -0.776 OA
DOCKED: ATOM     44  H   UNL d   1      -3.285  -1.880 -21.393 +0.02 +0.12    +0.167 HD
DOCKED: ENDBRANCH  41  43
DOCKED: ENDBRANCH  40  41
DOCKED: ENDBRANCH  39  40
DOCKED: ENDBRANCH  22  39
DOCKED: BRANCH  12  45
DOCKED: ATOM     45  C   UNL d   1       5.847  -0.882 -15.901 -0.42 +0.00    +0.004 C 
DOCKED: ATOM     46  C   UNL d   1       6.203  -2.138 -15.647 -0.40 +0.00    +0.012 C 
DOCKED: ENDBRANCH  12  45
DOCKED: BRANCH  17  47
DOCKED: ATOM     47  C   UNL d   1       5.911  -2.102 -23.620 -0.08 +0.00    +0.004 C 
DOCKED: ATOM     48  C   UNL d   1       5.971  -3.350 -24.089 -0.11 +0.00    +0.012 C 
DOCKED: ENDBRANCH  17  47
DOCKED: TORSDOF 12
DOCKED: TER
DOCKED: ENDMDL
________________________________________________________________________________


	BEGINNING GENETIC ALGORITHM DOCKING 68 of 100
Run: 68 Seed: 1674205373 1685475107 [ Run 68 of 100 GA/GALS ]
Beginning LAMARCKIAN GENETIC ALGORITHM (LGA), with a maximum of 25000000 energy evaluations.

Final-Value: -9.548


	FINAL GENETIC ALGORITHM DOCKED STATE
	_______________________________________________


Detailed state:  trans 0.950 3.454 -18.905 quatxyzw 0.379307 -0.143192 0.721033 -0.561902 center 8.781 34.984 -0.736 ntor 12 -145.4787 111.2179 36.2135 -103.0441 -78.3447 115.2410 62.4349 -52.0344 -126.1757 -171.0851 -173.5580 177.0198
State:	  0.950   3.454 -18.905   0.459 -0.173  0.872 -111.625   -145.48  111.22   36.21 -103.04  -78.34  115.24   62.43  -52.03 -126.18 -171.09 -173.56  177.02

DOCKED: MODEL       68
DOCKED: USER    Run = 68
DOCKED: USER    DPF = D:/Protein_go_brrr/autodock/final/mut_D99N/heme_Co/dock.dpf
DOCKED: USER  
DOCKED: USER    Estimated Free Energy of Binding    =   -2.89 kcal/mol  [=(1)+(2)+(3)-(4)]
DOCKED: USER    Estimated Inhibition Constant, Ki   =    7.61 mM (millimolar)  [Temperature = 298.15 K]
DOCKED: USER    
DOCKED: USER    (1) Final Intermolecular Energy     =   -6.47 kcal/mol
DOCKED: USER        vdW + Hbond + desolv Energy     =   -2.77 kcal/mol
DOCKED: USER        Electrostatic Energy            =   -3.70 kcal/mol
DOCKED: USER    (2) Final Total Internal Energy     =   -3.08 kcal/mol
DOCKED: USER    (3) Torsional Free Energy           =   +3.58 kcal/mol
DOCKED: USER    (4) Unbound System's Energy  [=(2)] =   -3.08 kcal/mol
DOCKED: USER    
DOCKED: USER    
DOCKED: USER    NEWDPF move heme_Co_opt.pdbqt
DOCKED: USER    NEWDPF about 8.781000 34.984000 -0.736000
DOCKED: USER    NEWDPF tran0 0.949851 3.454024 -18.904770
DOCKED: USER    NEWDPF quaternion0 0.379307 -0.143192 0.721033 -0.561902
DOCKED: USER    NEWDPF axisangle0 0.458541 -0.173104 0.871651 -111.625115
DOCKED: USER    NEWDPF quat0 0.458541 -0.173104 0.871651 -111.625115
DOCKED: USER    NEWDPF dihe0 -145.48 111.22 36.21 -103.04 -78.34 115.24 62.43 -52.03 -126.18 -171.09 -173.56 177.02 
DOCKED: USER  keepresnum = 1 
DOCKED: USER  
DOCKED: REMARK  12 active torsions:
DOCKED: REMARK  status: ('A' for Active; 'I' for Inactive)
DOCKED: REMARK    1  A    between atoms: C_6  and  C_10 
DOCKED: REMARK    2  A    between atoms: C_10  and  C_11 
DOCKED: REMARK    3  A    between atoms: C_11  and  C_12 
DOCKED: REMARK    4  A    between atoms: C_12  and  O_14 
DOCKED: REMARK    5  A    between atoms: C_17  and  C_20 
DOCKED: REMARK    6  A    between atoms: C_24  and  C_27 
DOCKED: REMARK    7  A    between atoms: C_31  and  C_34 
DOCKED: REMARK    8  A    between atoms: C_34  and  C_35 
DOCKED: REMARK    9  A    between atoms: C_35  and  C_36 
DOCKED: REMARK   10  A    between atoms: C_36  and  O_38 
DOCKED: REMARK   11  A    between atoms: FE_43  and  C_44 
DOCKED: REMARK   12  A    between atoms: C_44  and  O_45 
DOCKED: USER                              x       y       z     vdW  Elec       q    Type
DOCKED: USER                           _______ _______ _______ _____ _____    ______ ____
DOCKED: ROOT
DOCKED: ATOM      1  C   UNL d   1       0.319   2.471 -20.735 -0.01 +0.03    +0.064 A 
DOCKED: ATOM      2  C   UNL d   1       4.104   1.862 -17.922 -0.05 +0.01    +0.064 C 
DOCKED: ATOM      3  C   UNL d   1       2.768   5.594 -15.254 -0.06 +0.01    +0.064 A 
DOCKED: ATOM      4  C   UNL d   1      -1.306   5.997 -17.881 -0.02 +0.02    +0.064 A 
DOCKED: ATOM      5  C   UNL d   1       1.471   2.053 -20.184 -0.02 +0.03    +0.066 A 
DOCKED: ATOM      6  C   UNL d   1       2.151   0.910 -20.650 -0.05 -0.01    -0.021 A 
DOCKED: ATOM      7  C   UNL d   1       3.236   0.725 -19.815 -0.07 -0.01    -0.025 A 
DOCKED: ATOM      8  C   UNL d   1       3.181   1.771 -18.887 -0.04 +0.02    +0.066 A 
DOCKED: ATOM      9  C   UNL d   1       4.292  -0.389 -19.876 -0.15 +0.01    +0.051 C 
DOCKED: ATOM     10  C   UNL d   1       4.144   2.917 -16.940 -0.03 +0.01    +0.066 A 
DOCKED: ATOM     11  C   UNL d   1       5.162   3.147 -15.990 -0.04 -0.00    -0.021 A 
DOCKED: ATOM     12  C   UNL d   1       4.749   4.244 -15.228 -0.06 +0.00    +0.000 A 
DOCKED: ATOM     13  C   UNL d   1       3.519   4.608 -15.776 -0.06 +0.01    +0.070 A 
DOCKED: ATOM     14  C   UNL d   1       6.478   2.417 -15.897 -0.07 +0.01    +0.052 C 
DOCKED: ATOM     15  C   UNL d   1       1.458   6.065 -15.659 -0.02 +0.01    +0.066 A 
DOCKED: ATOM     16  C   UNL d   1       0.674   6.992 -14.987 -0.10 -0.00    -0.021 A 
DOCKED: ATOM     17  C   UNL d   1      -0.504   7.110 -15.740 -0.10 +0.00    +0.000 A 
DOCKED: ATOM     18  C   UNL d   1      -0.336   6.255 -16.824 -0.06 +0.01    +0.070 A 
DOCKED: ATOM     19  C   UNL d   1       1.056   7.701 -13.707 -0.10 -0.00    +0.052 C 
DOCKED: ATOM     20  C   UNL d   1      -1.201   5.107 -18.897 +0.00 +0.02    +0.066 A 
DOCKED: ATOM     21  C   UNL d   1      -2.217   4.923 -19.832 +0.00 -0.01    -0.025 A 
DOCKED: ATOM     22  C   UNL d   1      -1.764   3.933 -20.685 +0.00 -0.01    -0.021 A 
DOCKED: ATOM     23  C   UNL d   1      -0.490   3.550 -20.217 +0.00 +0.03    +0.066 A 
DOCKED: ATOM     24  C   UNL d   1      -3.562   5.642 -19.900 -0.01 +0.02    +0.051 C 
DOCKED: ATOM     25  N   UNL d   1       2.101   2.612 -19.096 -0.00 -0.08    -0.248 N 
DOCKED: ATOM     26  N   UNL d   1       3.181   3.840 -16.846 -0.02 -0.06    -0.248 N 
DOCKED: ATOM     27  N   UNL d   1       0.830   5.627 -16.727 -0.05 -0.05    -0.248 N 
DOCKED: ATOM     28  N   UNL d   1      -0.146   4.256 -19.133 +0.01 -0.09    -0.248 N 
DOCKED: ATOM     29 FE   UNL d   1       1.425   4.209 -17.843 -0.01 +0.00    +0.000 Fe
DOCKED: ENDROOT
DOCKED: BRANCH   6  30
DOCKED: ATOM     30  C   UNL d   1       1.721  -0.001 -21.794 -0.07 +0.02    +0.052 C 
DOCKED: BRANCH  30  31
DOCKED: ATOM     31  C   UNL d   1       0.820  -1.123 -21.279 -0.17 +0.06    +0.115 C 
DOCKED: BRANCH  31  32
DOCKED: ATOM     32  C   UNL d   1      -0.337  -0.601 -20.454 +0.03 +0.16    +0.139 C 
DOCKED: ATOM     33  O   UNL d   1      -0.115  -0.074 -19.374 -0.36 -1.22    -0.650 OA
DOCKED: BRANCH  32  34
DOCKED: ATOM     34  O   UNL d   1      -1.615  -0.655 -20.895 -0.05 -0.84    -0.776 OA
DOCKED: ATOM     35  H   UNL d   1      -2.300  -0.014 -20.658 +0.02 +0.19    +0.167 HD
DOCKED: ENDBRANCH  32  34
DOCKED: ENDBRANCH  31  32
DOCKED: ENDBRANCH  30  31
DOCKED: ENDBRANCH   6  30
DOCKED: BRANCH  29  36
DOCKED: ATOM     36  C   UNL d   1       0.464   2.747 -16.689 -0.05 +0.12    +0.190 C 
DOCKED: BRANCH  36  37
DOCKED: ATOM     37  O   UNL d   1      -0.266   1.558 -16.780 -0.18 -0.47    -0.399 OA
DOCKED: ATOM     38  H   UNL d   1      -0.361   1.389 -17.759 +0.05 +0.29    +0.209 HD
DOCKED: ENDBRANCH  36  37
DOCKED: ENDBRANCH  29  36
DOCKED: BRANCH  22  39
DOCKED: ATOM     39  C   UNL d   1      -2.546   3.346 -21.845 +0.00 +0.02    +0.052 C 
DOCKED: BRANCH  39  40
DOCKED: ATOM     40  C   UNL d   1      -3.531   2.274 -21.349 -0.03 +0.08    +0.115 C 
DOCKED: BRANCH  40  41
DOCKED: ATOM     41  C   UNL d   1      -3.561   2.102 -19.845 -0.08 +0.17    +0.139 C 
DOCKED: ATOM     42  O   UNL d   1      -4.288   2.821 -19.175 -0.20 -1.26    -0.650 OA
DOCKED: BRANCH  41  43
DOCKED: ATOM     43  O   UNL d   1      -2.871   1.116 -19.228 -0.01 -1.23    -0.776 OA
DOCKED: ATOM     44  H   UNL d   1      -1.967   0.882 -19.476 +0.02 +0.26    +0.167 HD
DOCKED: ENDBRANCH  41  43
DOCKED: ENDBRANCH  40  41
DOCKED: ENDBRANCH  39  40
DOCKED: ENDBRANCH  22  39
DOCKED: BRANCH  12  45
DOCKED: ATOM     45  C   UNL d   1       5.380   4.997 -14.065 -0.07 +0.00    +0.004 C 
DOCKED: ATOM     46  C   UNL d   1       5.022   5.072 -12.786 -0.12 +0.00    +0.012 C 
DOCKED: ENDBRANCH  12  45
DOCKED: BRANCH  17  47
DOCKED: ATOM     47  C   UNL d   1      -1.734   7.912 -15.468 -0.12 +0.00    +0.004 C 
DOCKED: ATOM     48  C   UNL d   1      -2.851   7.397 -14.949 -0.22 +0.00    +0.012 C 
DOCKED: ENDBRANCH  17  47
DOCKED: TORSDOF 12
DOCKED: TER
DOCKED: ENDMDL
________________________________________________________________________________


	BEGINNING GENETIC ALGORITHM DOCKING 69 of 100
Run: 69 Seed: 1654388039 2099480336 [ Run 69 of 100 GA/GALS ]
Beginning LAMARCKIAN GENETIC ALGORITHM (LGA), with a maximum of 25000000 energy evaluations.

Final-Value: -8.325


	FINAL GENETIC ALGORITHM DOCKED STATE
	_______________________________________________


Detailed state:  trans 8.348 13.218 6.815 quatxyzw 0.410735 0.522217 0.582020 0.468869 center 8.781 34.984 -0.736 ntor 12 -74.9056 140.3575 124.6633 139.5875 112.7897 83.6885 -77.3432 -37.1468 28.8064 -148.4731 15.7162 153.6286
State:	  8.348  13.218   6.815   0.465  0.591  0.659 124.078    -74.91  140.36  124.66  139.59  112.79   83.69  -77.34  -37.15   28.81 -148.47   15.72  153.63

DOCKED: MODEL       69
DOCKED: USER    Run = 69
DOCKED: USER    DPF = D:/Protein_go_brrr/autodock/final/mut_D99N/heme_Co/dock.dpf
DOCKED: USER  
DOCKED: USER    Estimated Free Energy of Binding    =   -2.64 kcal/mol  [=(1)+(2)+(3)-(4)]
DOCKED: USER    Estimated Inhibition Constant, Ki   =   11.62 mM (millimolar)  [Temperature = 298.15 K]
DOCKED: USER    
DOCKED: USER    (1) Final Intermolecular Energy     =   -6.22 kcal/mol
DOCKED: USER        vdW + Hbond + desolv Energy     =   -5.95 kcal/mol
DOCKED: USER        Electrostatic Energy            =   -0.27 kcal/mol
DOCKED: USER    (2) Final Total Internal Energy     =   -2.11 kcal/mol
DOCKED: USER    (3) Torsional Free Energy           =   +3.58 kcal/mol
DOCKED: USER    (4) Unbound System's Energy  [=(2)] =   -2.11 kcal/mol
DOCKED: USER    
DOCKED: USER    
DOCKED: USER    NEWDPF move heme_Co_opt.pdbqt
DOCKED: USER    NEWDPF about 8.781000 34.984000 -0.736000
DOCKED: USER    NEWDPF tran0 8.347591 13.218393 6.814540
DOCKED: USER    NEWDPF quaternion0 0.410735 0.522217 0.582020 0.468869
DOCKED: USER    NEWDPF axisangle0 0.465018 0.591234 0.658939 124.078176
DOCKED: USER    NEWDPF quat0 0.465018 0.591234 0.658939 124.078176
DOCKED: USER    NEWDPF dihe0 -74.91 140.36 124.66 139.59 112.79 83.69 -77.34 -37.15 28.81 -148.47 15.72 153.63 
DOCKED: USER  keepresnum = 1 
DOCKED: USER  
DOCKED: REMARK  12 active torsions:
DOCKED: REMARK  status: ('A' for Active; 'I' for Inactive)
DOCKED: REMARK    1  A    between atoms: C_6  and  C_10 
DOCKED: REMARK    2  A    between atoms: C_10  and  C_11 
DOCKED: REMARK    3  A    between atoms: C_11  and  C_12 
DOCKED: REMARK    4  A    between atoms: C_12  and  O_14 
DOCKED: REMARK    5  A    between atoms: C_17  and  C_20 
DOCKED: REMARK    6  A    between atoms: C_24  and  C_27 
DOCKED: REMARK    7  A    between atoms: C_31  and  C_34 
DOCKED: REMARK    8  A    between atoms: C_34  and  C_35 
DOCKED: REMARK    9  A    between atoms: C_35  and  C_36 
DOCKED: REMARK   10  A    between atoms: C_36  and  O_38 
DOCKED: REMARK   11  A    between atoms: FE_43  and  C_44 
DOCKED: REMARK   12  A    between atoms: C_44  and  O_45 
DOCKED: USER                              x       y       z     vdW  Elec       q    Type
DOCKED: USER                           _______ _______ _______ _____ _____    ______ ____
DOCKED: ROOT
DOCKED: ATOM      1  C   UNL d   1       9.275  12.593   4.953 -0.10 -0.00    +0.064 A 
DOCKED: ATOM      2  C   UNL d   1       6.358  16.194   6.017 -0.22 -0.01    +0.064 C 
DOCKED: ATOM      3  C   UNL d   1       5.918  14.567  10.488 -0.17 -0.01    +0.064 A 
DOCKED: ATOM      4  C   UNL d   1       9.197  11.102   9.535 -0.16 +0.00    +0.064 A 
DOCKED: ATOM      5  C   UNL d   1       8.482  13.676   4.905 -0.19 -0.00    +0.066 A 
DOCKED: ATOM      6  C   UNL d   1       8.394  14.488   3.758 -0.17 +0.00    -0.021 A 
DOCKED: ATOM      7  C   UNL d   1       7.565  15.544   4.080 -0.17 +0.00    -0.025 A 
DOCKED: ATOM      8  C   UNL d   1       7.169  15.323   5.403 -0.18 -0.01    +0.066 A 
DOCKED: ATOM      9  C   UNL d   1       7.152  16.724   3.187 -0.13 -0.00    +0.051 C 
DOCKED: ATOM     10  C   UNL d   1       5.877  16.037   7.367 -0.20 -0.01    +0.066 A 
DOCKED: ATOM     11  C   UNL d   1       4.917  16.840   8.019 -0.15 +0.00    -0.021 A 
DOCKED: ATOM     12  C   UNL d   1       4.805  16.340   9.320 -0.13 -0.00    +0.000 A 
DOCKED: ATOM     13  C   UNL d   1       5.693  15.266   9.361 -0.20 -0.01    +0.070 A 
DOCKED: ATOM     14  C   UNL d   1       4.103  17.943   7.394 -0.16 +0.00    +0.052 C 
DOCKED: ATOM     15  C   UNL d   1       6.834  13.468  10.721 -0.18 -0.01    +0.066 A 
DOCKED: ATOM     16  C   UNL d   1       7.125  12.885  11.946 -0.18 +0.00    -0.021 A 
DOCKED: ATOM     17  C   UNL d   1       8.072  11.886  11.677 -0.16 -0.00    +0.000 A 
DOCKED: ATOM     18  C   UNL d   1       8.272  11.928  10.301 -0.19 -0.00    +0.070 A 
DOCKED: ATOM     19  C   UNL d   1       6.518  13.283  13.273 -0.18 -0.00    +0.052 C 
DOCKED: ATOM     20  C   UNL d   1       9.472  11.183   8.211 -0.16 +0.00    +0.066 A 
DOCKED: ATOM     21  C   UNL d   1      10.408  10.356   7.595 -0.11 -0.00    -0.025 A 
DOCKED: ATOM     22  C   UNL d   1      10.431  10.743   6.267 -0.12 -0.00    -0.021 A 
DOCKED: ATOM     23  C   UNL d   1       9.509  11.804   6.142 -0.02 +0.00    +0.066 A 
DOCKED: ATOM     24  C   UNL d   1      11.255   9.263   8.242 -0.07 +0.00    +0.051 C 
DOCKED: ATOM     25  N   UNL d   1       7.717  14.169   5.938 -0.15 +0.04    -0.248 N 
DOCKED: ATOM     26  N   UNL d   1       6.299  15.048   8.163 -0.17 +0.04    -0.248 N 
DOCKED: ATOM     27  N   UNL d   1       7.542  12.902   9.769 -0.16 +0.03    -0.248 N 
DOCKED: ATOM     28  N   UNL d   1       8.927  12.074   7.316 -0.14 +0.00    -0.248 N 
DOCKED: ATOM     29 FE   UNL d   1       7.626  13.495   7.966 -0.05 -0.00    +0.000 Fe
DOCKED: ENDROOT
DOCKED: BRANCH   6  30
DOCKED: ATOM     30  C   UNL d   1       9.145  14.291   2.445 -0.12 +0.00    +0.052 C 
DOCKED: BRANCH  30  31
DOCKED: ATOM     31  C   UNL d   1       8.243  13.628   1.405 -0.14 +0.01    +0.115 C 
DOCKED: BRANCH  31  32
DOCKED: ATOM     32  C   UNL d   1       9.027  12.838   0.379 -0.13 +0.02    +0.139 C 
DOCKED: ATOM     33  O   UNL d   1       8.498  11.891  -0.183 -0.56 -0.30    -0.650 OA
DOCKED: BRANCH  32  34
DOCKED: ATOM     34  O   UNL d   1      10.289  13.176   0.026 +0.02 -0.06    -0.776 OA
DOCKED: ATOM     35  H   UNL d   1      10.509  13.888  -0.590 +0.01 +0.01    +0.167 HD
DOCKED: ENDBRANCH  32  34
DOCKED: ENDBRANCH  31  32
DOCKED: ENDBRANCH  30  31
DOCKED: ENDBRANCH   6  30
DOCKED: BRANCH  29  36
DOCKED: ATOM     36  C   UNL d   1       9.215  14.806   8.355 -0.04 -0.01    +0.190 C 
DOCKED: BRANCH  36  37
DOCKED: ATOM     37  O   UNL d   1      10.582  14.998   8.129 -0.00 +0.01    -0.399 OA
DOCKED: ATOM     38  H   UNL d   1      10.769  14.523   7.272 +0.01 -0.00    +0.209 HD
DOCKED: ENDBRANCH  36  37
DOCKED: ENDBRANCH  29  36
DOCKED: BRANCH  22  39
DOCKED: ATOM     39  C   UNL d   1      11.340  10.166   5.198 -0.08 +0.00    +0.052 C 
DOCKED: BRANCH  39  40
DOCKED: ATOM     40  C   UNL d   1      12.476  11.147   4.864 -0.02 +0.00    +0.115 C 
DOCKED: BRANCH  40  41
DOCKED: ATOM     41  C   UNL d   1      12.833  12.096   5.989 -0.01 +0.00    +0.139 C 
DOCKED: ATOM     42  O   UNL d   1      13.818  11.865   6.677 +0.00 -0.01    -0.650 OA
DOCKED: BRANCH  41  43
DOCKED: ATOM     43  O   UNL d   1      12.143  13.239   6.200 +0.01 -0.01    -0.776 OA
DOCKED: ATOM     44  H   UNL d   1      11.812  13.492   7.071 +0.01 +0.00    +0.167 HD
DOCKED: ENDBRANCH  41  43
DOCKED: ENDBRANCH  40  41
DOCKED: ENDBRANCH  39  40
DOCKED: ENDBRANCH  22  39
DOCKED: BRANCH  12  45
DOCKED: ATOM     45  C   UNL d   1       3.952  16.741  10.516 -0.10 -0.00    +0.004 C 
DOCKED: ATOM     46  C   UNL d   1       3.193  16.005  11.325 -0.13 -0.00    +0.012 C 
DOCKED: ENDBRANCH  12  45
DOCKED: BRANCH  17  47
DOCKED: ATOM     47  C   UNL d   1       8.794  10.978  12.617 -0.15 -0.00    +0.004 C 
DOCKED: ATOM     48  C   UNL d   1       8.346   9.769  12.965 -0.17 +0.00    +0.012 C 
DOCKED: ENDBRANCH  17  47
DOCKED: TORSDOF 12
DOCKED: TER
DOCKED: ENDMDL
________________________________________________________________________________


	BEGINNING GENETIC ALGORITHM DOCKING 70 of 100
Run: 70 Seed: 1795743329 1144162377 [ Run 70 of 100 GA/GALS ]
Beginning LAMARCKIAN GENETIC ALGORITHM (LGA), with a maximum of 25000000 energy evaluations.

Final-Value: -9.230


	FINAL GENETIC ALGORITHM DOCKED STATE
	_______________________________________________


Detailed state:  trans 8.814 12.388 6.533 quatxyzw -0.400155 -0.713341 -0.550973 -0.165676 center 8.781 34.984 -0.736 ntor 12 -158.6733 112.3022 98.2222 -107.9999 102.5890 134.6019 27.4655 -118.1582 -171.8913 -100.4211 -178.5088 -38.5820
State:	  8.814  12.388   6.533  -0.406 -0.723 -0.559 -160.927   -158.67  112.30   98.22 -108.00  102.59  134.60   27.47 -118.16 -171.89 -100.42 -178.51  -38.58

DOCKED: MODEL       70
DOCKED: USER    Run = 70
DOCKED: USER    DPF = D:/Protein_go_brrr/autodock/final/mut_D99N/heme_Co/dock.dpf
DOCKED: USER  
DOCKED: USER    Estimated Free Energy of Binding    =   -3.46 kcal/mol  [=(1)+(2)+(3)-(4)]
DOCKED: USER    Estimated Inhibition Constant, Ki   =    2.89 mM (millimolar)  [Temperature = 298.15 K]
DOCKED: USER    
DOCKED: USER    (1) Final Intermolecular Energy     =   -7.04 kcal/mol
DOCKED: USER        vdW + Hbond + desolv Energy     =   -6.47 kcal/mol
DOCKED: USER        Electrostatic Energy            =   -0.57 kcal/mol
DOCKED: USER    (2) Final Total Internal Energy     =   -2.19 kcal/mol
DOCKED: USER    (3) Torsional Free Energy           =   +3.58 kcal/mol
DOCKED: USER    (4) Unbound System's Energy  [=(2)] =   -2.19 kcal/mol
DOCKED: USER    
DOCKED: USER    
DOCKED: USER    NEWDPF move heme_Co_opt.pdbqt
DOCKED: USER    NEWDPF about 8.781000 34.984000 -0.736000
DOCKED: USER    NEWDPF tran0 8.813748 12.387667 6.533280
DOCKED: USER    NEWDPF quaternion0 -0.400155 -0.713341 -0.550973 -0.165676
DOCKED: USER    NEWDPF axisangle0 -0.405763 -0.723338 -0.558694 -160.926958
DOCKED: USER    NEWDPF quat0 -0.405763 -0.723338 -0.558694 -160.926958
DOCKED: USER    NEWDPF dihe0 -158.67 112.30 98.22 -108.00 102.59 134.60 27.47 -118.16 -171.89 -100.42 -178.51 -38.58 
DOCKED: USER  keepresnum = 1 
DOCKED: USER  
DOCKED: REMARK  12 active torsions:
DOCKED: REMARK  status: ('A' for Active; 'I' for Inactive)
DOCKED: REMARK    1  A    between atoms: C_6  and  C_10 
DOCKED: REMARK    2  A    between atoms: C_10  and  C_11 
DOCKED: REMARK    3  A    between atoms: C_11  and  C_12 
DOCKED: REMARK    4  A    between atoms: C_12  and  O_14 
DOCKED: REMARK    5  A    between atoms: C_17  and  C_20 
DOCKED: REMARK    6  A    between atoms: C_24  and  C_27 
DOCKED: REMARK    7  A    between atoms: C_31  and  C_34 
DOCKED: REMARK    8  A    between atoms: C_34  and  C_35 
DOCKED: REMARK    9  A    between atoms: C_35  and  C_36 
DOCKED: REMARK   10  A    between atoms: C_36  and  O_38 
DOCKED: REMARK   11  A    between atoms: FE_43  and  C_44 
DOCKED: REMARK   12  A    between atoms: C_44  and  O_45 
DOCKED: USER                              x       y       z     vdW  Elec       q    Type
DOCKED: USER                           _______ _______ _______ _____ _____    ______ ____
DOCKED: ROOT
DOCKED: ATOM      1  C   UNL d   1      10.225  10.892   5.836 -0.07 +0.00    +0.064 A 
DOCKED: ATOM      2  C   UNL d   1       8.198  14.619   3.688 -0.19 -0.00    +0.064 C 
DOCKED: ATOM      3  C   UNL d   1       5.537  15.455   7.568 -0.25 -0.01    +0.064 A 
DOCKED: ATOM      4  C   UNL d   1       7.869  11.892   9.919 -0.25 -0.00    +0.064 A 
DOCKED: ATOM      5  C   UNL d   1       9.840  11.826   4.951 -0.08 +0.00    +0.066 A 
DOCKED: ATOM      6  C   UNL d   1      10.453  11.958   3.690 -0.10 -0.00    -0.021 A 
DOCKED: ATOM      7  C   UNL d   1       9.877  13.055   3.080 -0.11 -0.00    -0.025 A 
DOCKED: ATOM      8  C   UNL d   1       8.927  13.536   3.988 -0.16 -0.00    +0.066 A 
DOCKED: ATOM      9  C   UNL d   1      10.199  13.642   1.697 -0.07 +0.00    +0.051 C 
DOCKED: ATOM     10  C   UNL d   1       7.180  15.169   4.547 -0.21 -0.01    +0.066 A 
DOCKED: ATOM     11  C   UNL d   1       6.286  16.216   4.233 -0.23 +0.00    -0.021 A 
DOCKED: ATOM     12  C   UNL d   1       5.519  16.436   5.380 -0.29 -0.00    +0.000 A 
DOCKED: ATOM     13  C   UNL d   1       5.991  15.503   6.303 -0.19 -0.01    +0.070 A 
DOCKED: ATOM     14  C   UNL d   1       6.127  16.880   2.889 -0.17 +0.00    +0.052 C 
DOCKED: ATOM     15  C   UNL d   1       5.948  14.596   8.661 -0.26 -0.01    +0.066 A 
DOCKED: ATOM     16  C   UNL d   1       5.541  14.695   9.983 -0.24 +0.00    -0.021 A 
DOCKED: ATOM     17  C   UNL d   1       6.213  13.671  10.666 -0.19 -0.00    +0.000 A 
DOCKED: ATOM     18  C   UNL d   1       6.966  13.014   9.699 -0.23 -0.01    +0.070 A 
DOCKED: ATOM     19  C   UNL d   1       4.569  15.719  10.527 -0.16 -0.00    +0.052 C 
DOCKED: ATOM     20  C   UNL d   1       8.677  11.293   9.012 -0.22 +0.00    +0.066 A 
DOCKED: ATOM     21  C   UNL d   1       9.529  10.245   9.352 -0.15 -0.00    -0.025 A 
DOCKED: ATOM     22  C   UNL d   1      10.200   9.916   8.188 -0.11 -0.00    -0.021 A 
DOCKED: ATOM     23  C   UNL d   1       9.729  10.796   7.190 -0.12 +0.00    +0.066 A 
DOCKED: ATOM     24  C   UNL d   1       9.710   9.599  10.723 -0.12 +0.00    +0.051 C 
DOCKED: ATOM     25  N   UNL d   1       8.878  12.790   5.153 -0.07 +0.01    -0.248 N 
DOCKED: ATOM     26  N   UNL d   1       6.956  14.700   5.780 -0.11 +0.06    -0.248 N 
DOCKED: ATOM     27  N   UNL d   1       6.807  13.611   8.522 -0.21 +0.05    -0.248 N 
DOCKED: ATOM     28  N   UNL d   1       8.809  11.633   7.685 -0.14 -0.00    -0.248 N 
DOCKED: ATOM     29 FE   UNL d   1       7.783  13.222   6.939 -0.06 -0.00    +0.000 Fe
DOCKED: ENDROOT
DOCKED: BRANCH   6  30
DOCKED: ATOM     30  C   UNL d   1      11.597  11.112   3.141 -0.05 +0.00    +0.052 C 
DOCKED: BRANCH  30  31
DOCKED: ATOM     31  C   UNL d   1      12.942  11.785   3.414 -0.01 +0.00    +0.115 C 
DOCKED: BRANCH  31  32
DOCKED: ATOM     32  C   UNL d   1      12.805  13.021   4.277 -0.01 +0.00    +0.139 C 
DOCKED: ATOM     33  O   UNL d   1      12.852  14.125   3.757 +0.00 -0.01    -0.650 OA
DOCKED: BRANCH  32  34
DOCKED: ATOM     34  O   UNL d   1      12.581  12.944   5.610 +0.01 -0.01    -0.776 OA
DOCKED: ATOM     35  H   UNL d   1      12.255  13.677   6.150 +0.01 +0.00    +0.167 HD
DOCKED: ENDBRANCH  32  34
DOCKED: ENDBRANCH  31  32
DOCKED: ENDBRANCH  30  31
DOCKED: ENDBRANCH   6  30
DOCKED: BRANCH  29  36
DOCKED: ATOM     36  C   UNL d   1       9.354  14.509   7.457 -0.06 -0.01    +0.190 C 
DOCKED: BRANCH  36  37
DOCKED: ATOM     37  O   UNL d   1      10.699  14.787   7.195 -0.00 +0.01    -0.399 OA
DOCKED: ATOM     38  H   UNL d   1      10.977  14.102   6.525 +0.02 -0.00    +0.209 HD
DOCKED: ENDBRANCH  36  37
DOCKED: ENDBRANCH  29  36
DOCKED: BRANCH  22  39
DOCKED: ATOM     39  C   UNL d   1      11.280   8.858   8.064 -0.07 +0.01    +0.052 C 
DOCKED: BRANCH  39  40
DOCKED: ATOM     40  C   UNL d   1      10.716   7.466   8.390 -0.11 +0.03    +0.115 C 
DOCKED: BRANCH  40  41
DOCKED: ATOM     41  C   UNL d   1       9.830   6.882   7.309 -0.17 +0.05    +0.139 C 
DOCKED: ATOM     42  O   UNL d   1       9.909   7.319   6.170 +0.03 -0.14    -0.650 OA
DOCKED: BRANCH  41  43
DOCKED: ATOM     43  O   UNL d   1       9.015   5.831   7.550 -0.39 -0.67    -0.776 OA
DOCKED: ATOM     44  H   UNL d   1       8.059   5.928   7.653 +0.07 +0.11    +0.167 HD
DOCKED: ENDBRANCH  41  43
DOCKED: ENDBRANCH  40  41
DOCKED: ENDBRANCH  39  40
DOCKED: ENDBRANCH  22  39
DOCKED: BRANCH  12  45
DOCKED: ATOM     45  C   UNL d   1       4.388  17.404   5.703 -0.24 +0.00    +0.004 C 
DOCKED: ATOM     46  C   UNL d   1       4.321  18.393   6.589 -0.17 +0.00    +0.012 C 
DOCKED: ENDBRANCH  12  45
DOCKED: BRANCH  17  47
DOCKED: ATOM     47  C   UNL d   1       6.213  13.335  12.121 -0.24 -0.00    +0.004 C 
DOCKED: ATOM     48  C   UNL d   1       5.246  12.633  12.716 -0.32 -0.00    +0.012 C 
DOCKED: ENDBRANCH  17  47
DOCKED: TORSDOF 12
DOCKED: TER
DOCKED: ENDMDL
________________________________________________________________________________


	BEGINNING GENETIC ALGORITHM DOCKING 71 of 100
Run: 71 Seed: 250350096 1596196075 [ Run 71 of 100 GA/GALS ]
Beginning LAMARCKIAN GENETIC ALGORITHM (LGA), with a maximum of 25000000 energy evaluations.

Final-Value: -9.544


	FINAL GENETIC ALGORITHM DOCKED STATE
	_______________________________________________


Detailed state:  trans 7.388 13.614 7.805 quatxyzw -0.308512 -0.825479 -0.304089 0.361848 center 8.781 34.984 -0.736 ntor 12 55.3543 116.4780 141.8465 104.0123 74.7295 121.4718 38.5737 -35.4220 167.3236 127.6089 -162.2661 -179.8963
State:	  7.388  13.614   7.805  -0.331 -0.885 -0.326 137.573     55.35  116.48  141.85  104.01   74.73  121.47   38.57  -35.42  167.32  127.61 -162.27 -179.90

DOCKED: MODEL       71
DOCKED: USER    Run = 71
DOCKED: USER    DPF = D:/Protein_go_brrr/autodock/final/mut_D99N/heme_Co/dock.dpf
DOCKED: USER  
DOCKED: USER    Estimated Free Energy of Binding    =   -2.56 kcal/mol  [=(1)+(2)+(3)-(4)]
DOCKED: USER    Estimated Inhibition Constant, Ki   =   13.28 mM (millimolar)  [Temperature = 298.15 K]
DOCKED: USER    
DOCKED: USER    (1) Final Intermolecular Energy     =   -6.14 kcal/mol
DOCKED: USER        vdW + Hbond + desolv Energy     =   -6.26 kcal/mol
DOCKED: USER        Electrostatic Energy            =   +0.12 kcal/mol
DOCKED: USER    (2) Final Total Internal Energy     =   -3.40 kcal/mol
DOCKED: USER    (3) Torsional Free Energy           =   +3.58 kcal/mol
DOCKED: USER    (4) Unbound System's Energy  [=(2)] =   -3.40 kcal/mol
DOCKED: USER    
DOCKED: USER    
DOCKED: USER    NEWDPF move heme_Co_opt.pdbqt
DOCKED: USER    NEWDPF about 8.781000 34.984000 -0.736000
DOCKED: USER    NEWDPF tran0 7.387885 13.614055 7.804761
DOCKED: USER    NEWDPF quaternion0 -0.308512 -0.825479 -0.304089 0.361848
DOCKED: USER    NEWDPF axisangle0 -0.330938 -0.885482 -0.326192 137.572521
DOCKED: USER    NEWDPF quat0 -0.330938 -0.885482 -0.326192 137.572521
DOCKED: USER    NEWDPF dihe0 55.35 116.48 141.85 104.01 74.73 121.47 38.57 -35.42 167.32 127.61 -162.27 -179.90 
DOCKED: USER  keepresnum = 1 
DOCKED: USER  
DOCKED: REMARK  12 active torsions:
DOCKED: REMARK  status: ('A' for Active; 'I' for Inactive)
DOCKED: REMARK    1  A    between atoms: C_6  and  C_10 
DOCKED: REMARK    2  A    between atoms: C_10  and  C_11 
DOCKED: REMARK    3  A    between atoms: C_11  and  C_12 
DOCKED: REMARK    4  A    between atoms: C_12  and  O_14 
DOCKED: REMARK    5  A    between atoms: C_17  and  C_20 
DOCKED: REMARK    6  A    between atoms: C_24  and  C_27 
DOCKED: REMARK    7  A    between atoms: C_31  and  C_34 
DOCKED: REMARK    8  A    between atoms: C_34  and  C_35 
DOCKED: REMARK    9  A    between atoms: C_35  and  C_36 
DOCKED: REMARK   10  A    between atoms: C_36  and  O_38 
DOCKED: REMARK   11  A    between atoms: FE_43  and  C_44 
DOCKED: REMARK   12  A    between atoms: C_44  and  O_45 
DOCKED: USER                              x       y       z     vdW  Elec       q    Type
DOCKED: USER                           _______ _______ _______ _____ _____    ______ ____
DOCKED: ROOT
DOCKED: ATOM      1  C   UNL d   1       7.925  12.277   9.430 -0.25 -0.00    +0.064 A 
DOCKED: ATOM      2  C   UNL d   1       9.398  12.575   4.918 -0.12 -0.00    +0.064 C 
DOCKED: ATOM      3  C   UNL d   1       6.188  16.008   4.057 -0.24 -0.00    +0.064 A 
DOCKED: ATOM      4  C   UNL d   1       4.930  15.992   8.757 -0.05 -0.00    +0.064 A 
DOCKED: ATOM      5  C   UNL d   1       8.538  12.081   8.251 -0.23 -0.00    +0.066 A 
DOCKED: ATOM      6  C   UNL d   1       9.614  11.183   8.109 -0.16 -0.00    -0.021 A 
DOCKED: ATOM      7  C   UNL d   1      10.052  11.291   6.803 -0.13 -0.00    -0.025 A 
DOCKED: ATOM      8  C   UNL d   1       9.216  12.236   6.201 -0.07 -0.00    +0.066 A 
DOCKED: ATOM      9  C   UNL d   1      11.213  10.539   6.134 -0.09 +0.00    +0.051 C 
DOCKED: ATOM     10  C   UNL d   1       8.571  13.518   4.207 -0.19 -0.00    +0.066 A 
DOCKED: ATOM     11  C   UNL d   1       8.621  13.812   2.827 -0.18 -0.00    -0.021 A 
DOCKED: ATOM     12  C   UNL d   1       7.672  14.813   2.603 -0.21 +0.00    +0.000 A 
DOCKED: ATOM     13  C   UNL d   1       7.106  15.046   3.856 -0.24 -0.01    +0.070 A 
DOCKED: ATOM     14  C   UNL d   1       9.460  13.103   1.795 -0.14 +0.00    +0.052 C 
DOCKED: ATOM     15  C   UNL d   1       5.539  16.418   5.288 -0.25 -0.00    +0.066 A 
DOCKED: ATOM     16  C   UNL d   1       4.707  17.516   5.453 -0.21 -0.00    -0.021 A 
DOCKED: ATOM     17  C   UNL d   1       4.344  17.517   6.807 -0.21 +0.00    +0.000 A 
DOCKED: ATOM     18  C   UNL d   1       4.972  16.406   7.359 -0.12 -0.00    +0.070 A 
DOCKED: ATOM     19  C   UNL d   1       4.306  18.484   4.363 -0.12 +0.00    +0.052 C 
DOCKED: ATOM     20  C   UNL d   1       5.601  14.967   9.333 -0.24 -0.01    +0.066 A 
DOCKED: ATOM     21  C   UNL d   1       5.508  14.690  10.696 -0.20 +0.00    -0.025 A 
DOCKED: ATOM     22  C   UNL d   1       6.338  13.606  10.914 -0.19 +0.00    -0.021 A 
DOCKED: ATOM     23  C   UNL d   1       6.911  13.280   9.666 -0.25 -0.01    +0.066 A 
DOCKED: ATOM     24  C   UNL d   1       4.684  15.434  11.743 -0.14 -0.00    +0.051 C 
DOCKED: ATOM     25  N   UNL d   1       8.265  12.739   7.073 -0.18 +0.01    -0.248 N 
DOCKED: ATOM     26  N   UNL d   1       7.610  14.223   4.814 -0.17 +0.03    -0.248 N 
DOCKED: ATOM     27  N   UNL d   1       5.700  15.792   6.432 -0.18 +0.03    -0.248 N 
DOCKED: ATOM     28  N   UNL d   1       6.469  14.103   8.707 -0.21 +0.05    -0.248 N 
DOCKED: ATOM     29 FE   UNL d   1       6.905  14.355   6.737 -0.06 -0.00    +0.000 Fe
DOCKED: ENDROOT
DOCKED: BRANCH   6  30
DOCKED: ATOM     30  C   UNL d   1      10.236  10.328   9.207 -0.11 +0.00    +0.052 C 
DOCKED: BRANCH  30  31
DOCKED: ATOM     31  C   UNL d   1      11.160  11.170  10.086 -0.03 +0.00    +0.115 C 
DOCKED: BRANCH  31  32
DOCKED: ATOM     32  C   UNL d   1      11.497  12.504   9.456 -0.02 +0.00    +0.139 C 
DOCKED: ATOM     33  O   UNL d   1      12.489  12.602   8.749 +0.01 -0.00    -0.650 OA
DOCKED: BRANCH  32  34
DOCKED: ATOM     34  O   UNL d   1      10.706  13.591   9.612 +0.02 +0.01    -0.776 OA
DOCKED: ATOM     35  H   UNL d   1      10.394  13.919  10.466 +0.01 -0.00    +0.167 HD
DOCKED: ENDBRANCH  32  34
DOCKED: ENDBRANCH  31  32
DOCKED: ENDBRANCH  30  31
DOCKED: ENDBRANCH   6  30
DOCKED: BRANCH  29  36
DOCKED: ATOM     36  C   UNL d   1       8.487  15.640   7.228 -0.06 -0.01    +0.190 C 
DOCKED: BRANCH  36  37
DOCKED: ATOM     37  O   UNL d   1       9.623  15.751   8.037 -0.00 +0.01    -0.399 OA
DOCKED: ATOM     38  H   UNL d   1       9.689  14.873   8.507 +0.02 -0.01    +0.209 HD
DOCKED: ENDBRANCH  36  37
DOCKED: ENDBRANCH  29  36
DOCKED: BRANCH  22  39
DOCKED: ATOM     39  C   UNL d   1       6.612  12.964  12.261 -0.21 -0.00    +0.052 C 
DOCKED: BRANCH  39  40
DOCKED: ATOM     40  C   UNL d   1       7.622  13.801  13.065 -0.09 -0.00    +0.115 C 
DOCKED: BRANCH  40  41
DOCKED: ATOM     41  C   UNL d   1       8.952  14.010  12.372 -0.03 -0.00    +0.139 C 
DOCKED: ATOM     42  O   UNL d   1       9.186  15.086  11.839 +0.01 +0.02    -0.650 OA
DOCKED: BRANCH  41  43
DOCKED: ATOM     43  O   UNL d   1       9.923  13.071  12.400 +0.02 +0.02    -0.776 OA
DOCKED: ATOM     44  H   UNL d   1      10.545  12.945  11.671 +0.01 -0.00    +0.167 HD
DOCKED: ENDBRANCH  41  43
DOCKED: ENDBRANCH  40  41
DOCKED: ENDBRANCH  39  40
DOCKED: ENDBRANCH  22  39
DOCKED: BRANCH  12  45
DOCKED: ATOM     45  C   UNL d   1       7.225  15.558   1.352 -0.18 +0.00    +0.004 C 
DOCKED: ATOM     46  C   UNL d   1       6.207  15.330   0.527 -0.24 +0.00    +0.012 C 
DOCKED: ENDBRANCH  12  45
DOCKED: BRANCH  17  47
DOCKED: ATOM     47  C   UNL d   1       3.515  18.497   7.572 -0.15 +0.00    +0.004 C 
DOCKED: ATOM     48  C   UNL d   1       2.290  18.874   7.200 -0.19 +0.00    +0.012 C 
DOCKED: ENDBRANCH  17  47
DOCKED: TORSDOF 12
DOCKED: TER
DOCKED: ENDMDL
________________________________________________________________________________


	BEGINNING GENETIC ALGORITHM DOCKING 72 of 100
Run: 72 Seed: 1355712253 318401415 [ Run 72 of 100 GA/GALS ]
Beginning LAMARCKIAN GENETIC ALGORITHM (LGA), with a maximum of 25000000 energy evaluations.

Final-Value: -10.550


	FINAL GENETIC ALGORITHM DOCKED STATE
	_______________________________________________


Detailed state:  trans 16.089 -0.462 3.945 quatxyzw 0.203543 0.704436 0.114957 -0.670168 center 8.781 34.984 -0.736 ntor 12 158.5935 123.3021 30.7552 138.8417 114.9698 135.9866 -137.9605 111.2003 -133.6186 -13.3385 -172.7935 -179.0557
State:	 16.089  -0.462   3.945   0.274  0.949  0.155 -95.840    158.59  123.30   30.76  138.84  114.97  135.99 -137.96  111.20 -133.62  -13.34 -172.79 -179.06

DOCKED: MODEL       72
DOCKED: USER    Run = 72
DOCKED: USER    DPF = D:/Protein_go_brrr/autodock/final/mut_D99N/heme_Co/dock.dpf
DOCKED: USER  
DOCKED: USER    Estimated Free Energy of Binding    =   -4.88 kcal/mol  [=(1)+(2)+(3)-(4)]
DOCKED: USER    Estimated Inhibition Constant, Ki   =  262.85 uM (micromolar)  [Temperature = 298.15 K]
DOCKED: USER    
DOCKED: USER    (1) Final Intermolecular Energy     =   -8.46 kcal/mol
DOCKED: USER        vdW + Hbond + desolv Energy     =   -7.61 kcal/mol
DOCKED: USER        Electrostatic Energy            =   -0.86 kcal/mol
DOCKED: USER    (2) Final Total Internal Energy     =   -2.09 kcal/mol
DOCKED: USER    (3) Torsional Free Energy           =   +3.58 kcal/mol
DOCKED: USER    (4) Unbound System's Energy  [=(2)] =   -2.09 kcal/mol
DOCKED: USER    
DOCKED: USER    
DOCKED: USER    NEWDPF move heme_Co_opt.pdbqt
DOCKED: USER    NEWDPF about 8.781000 34.984000 -0.736000
DOCKED: USER    NEWDPF tran0 16.089143 -0.461928 3.944650
DOCKED: USER    NEWDPF quaternion0 0.203543 0.704436 0.114957 -0.670168
DOCKED: USER    NEWDPF axisangle0 0.274240 0.949107 0.154885 -95.839873
DOCKED: USER    NEWDPF quat0 0.274240 0.949107 0.154885 -95.839873
DOCKED: USER    NEWDPF dihe0 158.59 123.30 30.76 138.84 114.97 135.99 -137.96 111.20 -133.62 -13.34 -172.79 -179.06 
DOCKED: USER  keepresnum = 1 
DOCKED: USER  
DOCKED: REMARK  12 active torsions:
DOCKED: REMARK  status: ('A' for Active; 'I' for Inactive)
DOCKED: REMARK    1  A    between atoms: C_6  and  C_10 
DOCKED: REMARK    2  A    between atoms: C_10  and  C_11 
DOCKED: REMARK    3  A    between atoms: C_11  and  C_12 
DOCKED: REMARK    4  A    between atoms: C_12  and  O_14 
DOCKED: REMARK    5  A    between atoms: C_17  and  C_20 
DOCKED: REMARK    6  A    between atoms: C_24  and  C_27 
DOCKED: REMARK    7  A    between atoms: C_31  and  C_34 
DOCKED: REMARK    8  A    between atoms: C_34  and  C_35 
DOCKED: REMARK    9  A    between atoms: C_35  and  C_36 
DOCKED: REMARK   10  A    between atoms: C_36  and  O_38 
DOCKED: REMARK   11  A    between atoms: FE_43  and  C_44 
DOCKED: REMARK   12  A    between atoms: C_44  and  O_45 
DOCKED: USER                              x       y       z     vdW  Elec       q    Type
DOCKED: USER                           _______ _______ _______ _____ _____    ______ ____
DOCKED: ROOT
DOCKED: ATOM      1  C   UNL d   1      15.350  -0.776   5.962 -0.06 +0.00    +0.064 A 
DOCKED: ATOM      2  C   UNL d   1      18.674  -3.005   3.394 -0.21 -0.00    +0.064 C 
DOCKED: ATOM      3  C   UNL d   1      17.588  -0.323  -0.408 -0.15 -0.01    +0.064 A 
DOCKED: ATOM      4  C   UNL d   1      14.456   2.228   2.302 -0.19 +0.00    +0.064 A 
DOCKED: ATOM      5  C   UNL d   1      16.313  -1.607   5.529 -0.20 -0.00    +0.066 A 
DOCKED: ATOM      6  C   UNL d   1      16.955  -2.519   6.390 -0.28 +0.00    -0.021 A 
DOCKED: ATOM      7  C   UNL d   1      17.934  -3.146   5.645 -0.20 +0.00    -0.025 A 
DOCKED: ATOM      8  C   UNL d   1      17.837  -2.603   4.359 -0.21 -0.00    +0.066 A 
DOCKED: ATOM      9  C   UNL d   1      18.932  -4.218   6.112 -0.16 +0.00    +0.051 C 
DOCKED: ATOM     10  C   UNL d   1      18.632  -2.522   2.037 -0.18 -0.00    +0.066 A 
DOCKED: ATOM     11  C   UNL d   1      19.388  -3.004   0.946 -0.20 +0.00    -0.021 A 
DOCKED: ATOM     12  C   UNL d   1      19.049  -2.207  -0.151 -0.19 -0.00    +0.000 A 
DOCKED: ATOM     13  C   UNL d   1      18.104  -1.309   0.347 -0.14 -0.01    +0.070 A 
DOCKED: ATOM     14  C   UNL d   1      20.295  -4.207   0.952 -0.28 -0.00    +0.052 C 
DOCKED: ATOM     15  C   UNL d   1      16.648   0.718  -0.044 -0.15 -0.00    +0.066 A 
DOCKED: ATOM     16  C   UNL d   1      16.265   1.794  -0.832 -0.15 +0.00    -0.021 A 
DOCKED: ATOM     17  C   UNL d   1      15.364   2.534  -0.054 -0.15 -0.00    +0.000 A 
DOCKED: ATOM     18  C   UNL d   1      15.254   1.839   1.146 -0.14 -0.00    +0.070 A 
DOCKED: ATOM     19  C   UNL d   1      16.752   2.069  -2.238 -0.07 -0.00    +0.052 C 
DOCKED: ATOM     20  C   UNL d   1      14.400   1.616   3.509 -0.23 +0.00    +0.066 A 
DOCKED: ATOM     21  C   UNL d   1      13.623   2.105   4.556 -0.24 -0.00    -0.025 A 
DOCKED: ATOM     22  C   UNL d   1      13.838   1.243   5.615 -0.28 -0.00    -0.021 A 
DOCKED: ATOM     23  C   UNL d   1      14.753   0.269   5.162 -0.24 +0.00    +0.066 A 
DOCKED: ATOM     24  C   UNL d   1      12.733   3.346   4.554 -0.16 +0.01    +0.051 C 
DOCKED: ATOM     25  N   UNL d   1      16.837  -1.651   4.257 -0.16 +0.03    -0.248 N 
DOCKED: ATOM     26  N   UNL d   1      17.812  -1.537   1.655 -0.09 +0.02    -0.248 N 
DOCKED: ATOM     27  N   UNL d   1      16.055   0.780   1.128 -0.08 +0.01    -0.248 N 
DOCKED: ATOM     28  N   UNL d   1      15.098   0.492   3.888 -0.17 +0.00    -0.248 N 
DOCKED: ATOM     29 FE   UNL d   1      16.420  -0.362   2.602 -0.05 -0.00    +0.000 Fe
DOCKED: ENDROOT
DOCKED: BRANCH   6  30
DOCKED: ATOM     30  C   UNL d   1      16.686  -2.709   7.878 -0.22 -0.00    +0.052 C 
DOCKED: BRANCH  30  31
DOCKED: ATOM     31  C   UNL d   1      17.554  -1.763   8.707 -0.11 +0.00    +0.115 C 
DOCKED: BRANCH  31  32
DOCKED: ATOM     32  C   UNL d   1      17.579  -0.359   8.142 -0.08 +0.01    +0.139 C 
DOCKED: ATOM     33  O   UNL d   1      16.773   0.466   8.545 -0.06 -0.04    -0.650 OA
DOCKED: BRANCH  32  34
DOCKED: ATOM     34  O   UNL d   1      18.502   0.032   7.232 +0.04 -0.02    -0.776 OA
DOCKED: ATOM     35  H   UNL d   1      18.369   0.749   6.597 +0.02 +0.00    +0.167 HD
DOCKED: ENDBRANCH  32  34
DOCKED: ENDBRANCH  31  32
DOCKED: ENDBRANCH  30  31
DOCKED: ENDBRANCH   6  30
DOCKED: BRANCH  29  36
DOCKED: ATOM     36  C   UNL d   1      17.954   0.872   3.322 -0.03 -0.00    +0.190 C 
DOCKED: BRANCH  36  37
DOCKED: ATOM     37  O   UNL d   1      18.713   1.156   4.461 +0.00 -0.00    -0.399 OA
DOCKED: ATOM     38  H   UNL d   1      18.497   0.423   5.103 +0.03 +0.00    +0.209 HD
DOCKED: ENDBRANCH  36  37
DOCKED: ENDBRANCH  29  36
DOCKED: BRANCH  22  39
DOCKED: ATOM     39  C   UNL d   1      13.244   1.390   7.004 -0.31 +0.01    +0.052 C 
DOCKED: BRANCH  39  40
DOCKED: ATOM     40  C   UNL d   1      13.997   2.465   7.805 -0.15 +0.03    +0.115 C 
DOCKED: BRANCH  40  41
DOCKED: ATOM     41  C   UNL d   1      13.235   3.005   8.997 -0.12 +0.07    +0.139 C 
DOCKED: ATOM     42  O   UNL d   1      12.823   4.156   8.972 -0.32 -0.47    -0.650 OA
DOCKED: BRANCH  41  43
DOCKED: ATOM     43  O   UNL d   1      12.921   2.222  10.053 -0.32 -0.52    -0.776 OA
DOCKED: ATOM     44  H   UNL d   1      13.516   1.539  10.388 +0.02 +0.05    +0.167 HD
DOCKED: ENDBRANCH  41  43
DOCKED: ENDBRANCH  40  41
DOCKED: ENDBRANCH  39  40
DOCKED: ENDBRANCH  22  39
DOCKED: BRANCH  12  45
DOCKED: ATOM     45  C   UNL d   1      19.492  -2.203  -1.608 -0.28 -0.00    +0.004 C 
DOCKED: ATOM     46  C   UNL d   1      18.777  -2.177  -2.730 -0.39 -0.00    +0.012 C 
DOCKED: ENDBRANCH  12  45
DOCKED: BRANCH  17  47
DOCKED: ATOM     47  C   UNL d   1      14.678   3.826  -0.358 -0.13 +0.00    +0.004 C 
DOCKED: ATOM     48  C   UNL d   1      13.460   3.904  -0.899 -0.19 +0.00    +0.012 C 
DOCKED: ENDBRANCH  17  47
DOCKED: TORSDOF 12
DOCKED: TER
DOCKED: ENDMDL
________________________________________________________________________________


	BEGINNING GENETIC ALGORITHM DOCKING 73 of 100
Run: 73 Seed: 132812702 997876875 [ Run 73 of 100 GA/GALS ]
Beginning LAMARCKIAN GENETIC ALGORITHM (LGA), with a maximum of 25000000 energy evaluations.

Final-Value: -9.347


	FINAL GENETIC ALGORITHM DOCKED STATE
	_______________________________________________


Detailed state:  trans -4.656 1.262 21.047 quatxyzw -0.101766 0.581365 0.761028 0.269249 center 8.781 34.984 -0.736 ntor 12 -169.4640 129.8127 -3.4333 120.4741 135.6205 126.3050 35.4170 147.6865 -179.9935 -97.0889 -169.6034 -49.7776
State:	 -4.656   1.262  21.047  -0.106  0.604  0.790 148.761   -169.46  129.81   -3.43  120.47  135.62  126.31   35.42  147.69 -179.99  -97.09 -169.60  -49.78

DOCKED: MODEL       73
DOCKED: USER    Run = 73
DOCKED: USER    DPF = D:/Protein_go_brrr/autodock/final/mut_D99N/heme_Co/dock.dpf
DOCKED: USER  
DOCKED: USER    Estimated Free Energy of Binding    =   -3.56 kcal/mol  [=(1)+(2)+(3)-(4)]
DOCKED: USER    Estimated Inhibition Constant, Ki   =    2.44 mM (millimolar)  [Temperature = 298.15 K]
DOCKED: USER    
DOCKED: USER    (1) Final Intermolecular Energy     =   -7.14 kcal/mol
DOCKED: USER        vdW + Hbond + desolv Energy     =   -5.68 kcal/mol
DOCKED: USER        Electrostatic Energy            =   -1.46 kcal/mol
DOCKED: USER    (2) Final Total Internal Energy     =   -2.20 kcal/mol
DOCKED: USER    (3) Torsional Free Energy           =   +3.58 kcal/mol
DOCKED: USER    (4) Unbound System's Energy  [=(2)] =   -2.20 kcal/mol
DOCKED: USER    
DOCKED: USER    
DOCKED: USER    NEWDPF move heme_Co_opt.pdbqt
DOCKED: USER    NEWDPF about 8.781000 34.984000 -0.736000
DOCKED: USER    NEWDPF tran0 -4.655733 1.261648 21.046890
DOCKED: USER    NEWDPF quaternion0 -0.101766 0.581365 0.761028 0.269249
DOCKED: USER    NEWDPF axisangle0 -0.105668 0.603657 0.790210 148.760786
DOCKED: USER    NEWDPF quat0 -0.105668 0.603657 0.790210 148.760786
DOCKED: USER    NEWDPF dihe0 -169.46 129.81 -3.43 120.47 135.62 126.31 35.42 147.69 -179.99 -97.09 -169.60 -49.78 
DOCKED: USER  keepresnum = 1 
DOCKED: USER  
DOCKED: REMARK  12 active torsions:
DOCKED: REMARK  status: ('A' for Active; 'I' for Inactive)
DOCKED: REMARK    1  A    between atoms: C_6  and  C_10 
DOCKED: REMARK    2  A    between atoms: C_10  and  C_11 
DOCKED: REMARK    3  A    between atoms: C_11  and  C_12 
DOCKED: REMARK    4  A    between atoms: C_12  and  O_14 
DOCKED: REMARK    5  A    between atoms: C_17  and  C_20 
DOCKED: REMARK    6  A    between atoms: C_24  and  C_27 
DOCKED: REMARK    7  A    between atoms: C_31  and  C_34 
DOCKED: REMARK    8  A    between atoms: C_34  and  C_35 
DOCKED: REMARK    9  A    between atoms: C_35  and  C_36 
DOCKED: REMARK   10  A    between atoms: C_36  and  O_38 
DOCKED: REMARK   11  A    between atoms: FE_43  and  C_44 
DOCKED: REMARK   12  A    between atoms: C_44  and  O_45 
DOCKED: USER                              x       y       z     vdW  Elec       q    Type
DOCKED: USER                           _______ _______ _______ _____ _____    ______ ____
DOCKED: ROOT
DOCKED: ATOM      1  C   UNL d   1      -2.498   1.489  20.952 -0.10 -0.00    +0.064 A 
DOCKED: ATOM      2  C   UNL d   1      -6.072   4.400  19.784 -0.32 -0.00    +0.064 C 
DOCKED: ATOM      3  C   UNL d   1      -9.241   0.955  20.740 -0.08 +0.01    +0.064 A 
DOCKED: ATOM      4  C   UNL d   1      -5.635  -1.910  22.305 -0.06 +0.01    +0.064 A 
DOCKED: ATOM      5  C   UNL d   1      -3.240   2.525  20.528 -0.19 -0.00    +0.066 A 
DOCKED: ATOM      6  C   UNL d   1      -2.668   3.774  20.213 -0.36 +0.00    -0.021 A 
DOCKED: ATOM      7  C   UNL d   1      -3.712   4.621  19.897 -0.38 +0.00    -0.025 A 
DOCKED: ATOM      8  C   UNL d   1      -4.873   3.850  20.017 -0.28 -0.00    +0.066 A 
DOCKED: ATOM      9  C   UNL d   1      -3.634   6.103  19.496 -0.44 -0.02    +0.051 C 
DOCKED: ATOM     10  C   UNL d   1      -7.318   3.680  19.857 -0.21 +0.01    +0.066 A 
DOCKED: ATOM     11  C   UNL d   1      -8.594   4.161  19.490 -0.22 -0.00    -0.021 A 
DOCKED: ATOM     12  C   UNL d   1      -9.498   3.134  19.775 -0.15 +0.00    +0.000 A 
DOCKED: ATOM     13  C   UNL d   1      -8.709   2.102  20.282 -0.11 +0.01    +0.070 A 
DOCKED: ATOM     14  C   UNL d   1      -8.892   5.479  18.824 -0.29 +0.01    +0.052 C 
DOCKED: ATOM     15  C   UNL d   1      -8.583  -0.189  21.341 -0.08 +0.01    +0.066 A 
DOCKED: ATOM     16  C   UNL d   1      -9.205  -1.282  21.927 -0.05 -0.00    -0.021 A 
DOCKED: ATOM     17  C   UNL d   1      -8.169  -2.110  22.382 -0.04 +0.00    +0.000 A 
DOCKED: ATOM     18  C   UNL d   1      -6.992  -1.462  22.021 -0.07 +0.01    +0.070 A 
DOCKED: ATOM     19  C   UNL d   1     -10.700  -1.490  22.029 -0.02 +0.01    +0.052 C 
DOCKED: ATOM     20  C   UNL d   1      -4.478  -1.256  22.041 -0.09 +0.01    +0.066 A 
DOCKED: ATOM     21  C   UNL d   1      -3.234  -1.773  22.396 -0.05 -0.00    -0.025 A 
DOCKED: ATOM     22  C   UNL d   1      -2.309  -0.828  21.992 -0.09 -0.00    -0.021 A 
DOCKED: ATOM     23  C   UNL d   1      -3.041   0.233  21.417 -0.13 +0.00    +0.066 A 
DOCKED: ATOM     24  C   UNL d   1      -2.941  -3.094  23.102 -0.01 +0.01    +0.051 C 
DOCKED: ATOM     25  N   UNL d   1      -4.610   2.546  20.401 -0.15 -0.01    -0.248 N 
DOCKED: ATOM     26  N   UNL d   1      -7.385   2.412  20.278 -0.09 -0.04    -0.248 N 
DOCKED: ATOM     27  N   UNL d   1      -7.277  -0.307  21.430 -0.05 -0.04    -0.248 N 
DOCKED: ATOM     28  N   UNL d   1      -4.355  -0.021  21.448 -0.11 -0.02    -0.248 N 
DOCKED: ATOM     29 FE   UNL d   1      -6.020   1.033  20.946 -0.04 +0.00    +0.000 Fe
DOCKED: ENDROOT
DOCKED: BRANCH   6  30
DOCKED: ATOM     30  C   UNL d   1      -1.191   4.145  20.296 -0.35 -0.01    +0.052 C 
DOCKED: BRANCH  30  31
DOCKED: ATOM     31  C   UNL d   1      -0.828   4.590  21.712 -0.22 -0.02    +0.115 C 
DOCKED: BRANCH  31  32
DOCKED: ATOM     32  C   UNL d   1      -2.023   4.592  22.641 -0.08 -0.02    +0.139 C 
DOCKED: ATOM     33  O   UNL d   1      -2.657   5.624  22.803 +0.04 +0.17    -0.650 OA
DOCKED: BRANCH  32  34
DOCKED: ATOM     34  O   UNL d   1      -2.446   3.469  23.267 +0.06 +0.07    -0.776 OA
DOCKED: ATOM     35  H   UNL d   1      -3.255   3.413  23.795 +0.02 -0.01    +0.167 HD
DOCKED: ENDBRANCH  32  34
DOCKED: ENDBRANCH  31  32
DOCKED: ENDBRANCH  30  31
DOCKED: ENDBRANCH   6  30
DOCKED: BRANCH  29  36
DOCKED: ATOM     36  C   UNL d   1      -6.061   1.916  22.847 -0.03 +0.01    +0.190 C 
DOCKED: BRANCH  36  37
DOCKED: ATOM     37  O   UNL d   1      -5.290   2.656  23.749 +0.00 +0.01    -0.399 OA
DOCKED: ATOM     38  H   UNL d   1      -4.541   3.026  23.203 +0.03 -0.01    +0.209 HD
DOCKED: ENDBRANCH  36  37
DOCKED: ENDBRANCH  29  36
DOCKED: BRANCH  22  39
DOCKED: ATOM     39  C   UNL d   1      -0.810  -0.916  22.208 -0.07 +0.01    +0.052 C 
DOCKED: BRANCH  39  40
DOCKED: ATOM     40  C   UNL d   1      -0.267  -2.263  21.704 -0.05 +0.03    +0.115 C 
DOCKED: BRANCH  40  41
DOCKED: ATOM     41  C   UNL d   1      -0.119  -2.353  20.199 -0.12 +0.12    +0.139 C 
DOCKED: ATOM     42  O   UNL d   1      -1.118  -2.476  19.506 -0.41 -0.83    -0.650 OA
DOCKED: BRANCH  41  43
DOCKED: ATOM     43  O   UNL d   1       1.082  -2.214  19.594 +0.04 -1.06    -0.776 OA
DOCKED: ATOM     44  H   UNL d   1       1.902  -2.093  20.090 +0.02 +0.12    +0.167 HD
DOCKED: ENDBRANCH  41  43
DOCKED: ENDBRANCH  40  41
DOCKED: ENDBRANCH  39  40
DOCKED: ENDBRANCH  22  39
DOCKED: BRANCH  12  45
DOCKED: ATOM     45  C   UNL d   1     -11.007   3.004  19.611 -0.14 +0.00    +0.004 C 
DOCKED: ATOM     46  C   UNL d   1     -11.726   2.233  18.800 -0.12 +0.01    +0.012 C 
DOCKED: ENDBRANCH  12  45
DOCKED: BRANCH  17  47
DOCKED: ATOM     47  C   UNL d   1      -8.238  -3.392  23.145 -0.02 +0.00    +0.004 C 
DOCKED: ATOM     48  C   UNL d   1      -7.847  -4.568  22.649 -0.02 +0.00    +0.012 C 
DOCKED: ENDBRANCH  17  47
DOCKED: TORSDOF 12
DOCKED: TER
DOCKED: ENDMDL
________________________________________________________________________________


	BEGINNING GENETIC ALGORITHM DOCKING 74 of 100
Run: 74 Seed: 1120696483 1552158659 [ Run 74 of 100 GA/GALS ]
Beginning LAMARCKIAN GENETIC ALGORITHM (LGA), with a maximum of 25000000 energy evaluations.

Final-Value: -11.232


	FINAL GENETIC ALGORITHM DOCKED STATE
	_______________________________________________


Detailed state:  trans 2.318 0.372 -20.840 quatxyzw 0.746492 -0.300460 0.379396 -0.456653 center 8.781 34.984 -0.736 ntor 12 -174.0286 93.9447 -23.7398 -127.0715 -94.4204 110.6837 39.4443 -31.2472 177.4010 -131.5981 -159.5835 149.6148
State:	  2.318   0.372 -20.840   0.839 -0.338  0.426 -125.657   -174.03   93.94  -23.74 -127.07  -94.42  110.68   39.44  -31.25  177.40 -131.60 -159.58  149.61

DOCKED: MODEL       74
DOCKED: USER    Run = 74
DOCKED: USER    DPF = D:/Protein_go_brrr/autodock/final/mut_D99N/heme_Co/dock.dpf
DOCKED: USER  
DOCKED: USER    Estimated Free Energy of Binding    =   -4.25 kcal/mol  [=(1)+(2)+(3)-(4)]
DOCKED: USER    Estimated Inhibition Constant, Ki   =  766.77 uM (micromolar)  [Temperature = 298.15 K]
DOCKED: USER    
DOCKED: USER    (1) Final Intermolecular Energy     =   -7.83 kcal/mol
DOCKED: USER        vdW + Hbond + desolv Energy     =   -5.04 kcal/mol
DOCKED: USER        Electrostatic Energy            =   -2.79 kcal/mol
DOCKED: USER    (2) Final Total Internal Energy     =   -3.40 kcal/mol
DOCKED: USER    (3) Torsional Free Energy           =   +3.58 kcal/mol
DOCKED: USER    (4) Unbound System's Energy  [=(2)] =   -3.40 kcal/mol
DOCKED: USER    
DOCKED: USER    
DOCKED: USER    NEWDPF move heme_Co_opt.pdbqt
DOCKED: USER    NEWDPF about 8.781000 34.984000 -0.736000
DOCKED: USER    NEWDPF tran0 2.317793 0.372460 -20.840307
DOCKED: USER    NEWDPF quaternion0 0.746492 -0.300460 0.379396 -0.456653
DOCKED: USER    NEWDPF axisangle0 0.839090 -0.337730 0.426458 -125.657263
DOCKED: USER    NEWDPF quat0 0.839090 -0.337730 0.426458 -125.657263
DOCKED: USER    NEWDPF dihe0 -174.03 93.94 -23.74 -127.07 -94.42 110.68 39.44 -31.25 177.40 -131.60 -159.58 149.61 
DOCKED: USER  keepresnum = 1 
DOCKED: USER  
DOCKED: REMARK  12 active torsions:
DOCKED: REMARK  status: ('A' for Active; 'I' for Inactive)
DOCKED: REMARK    1  A    between atoms: C_6  and  C_10 
DOCKED: REMARK    2  A    between atoms: C_10  and  C_11 
DOCKED: REMARK    3  A    between atoms: C_11  and  C_12 
DOCKED: REMARK    4  A    between atoms: C_12  and  O_14 
DOCKED: REMARK    5  A    between atoms: C_17  and  C_20 
DOCKED: REMARK    6  A    between atoms: C_24  and  C_27 
DOCKED: REMARK    7  A    between atoms: C_31  and  C_34 
DOCKED: REMARK    8  A    between atoms: C_34  and  C_35 
DOCKED: REMARK    9  A    between atoms: C_35  and  C_36 
DOCKED: REMARK   10  A    between atoms: C_36  and  O_38 
DOCKED: REMARK   11  A    between atoms: FE_43  and  C_44 
DOCKED: REMARK   12  A    between atoms: C_44  and  O_45 
DOCKED: USER                              x       y       z     vdW  Elec       q    Type
DOCKED: USER                           _______ _______ _______ _____ _____    ______ ____
DOCKED: ROOT
DOCKED: ATOM      1  C   UNL d   1       0.644   1.142 -21.990 -0.02 +0.02    +0.064 A 
DOCKED: ATOM      2  C   UNL d   1       4.519  -1.314 -23.241 -0.05 +0.01    +0.064 C 
DOCKED: ATOM      3  C   UNL d   1       6.185  -1.034 -18.771 -0.12 +0.02    +0.064 A 
DOCKED: ATOM      4  C   UNL d   1       2.060   1.139 -17.384 -0.09 +0.03    +0.064 A 
DOCKED: ATOM      5  C   UNL d   1       1.598   0.482 -22.668 -0.02 +0.02    +0.066 A 
DOCKED: ATOM      6  C   UNL d   1       1.444   0.133 -24.024 -0.01 -0.00    -0.021 A 
DOCKED: ATOM      7  C   UNL d   1       2.561  -0.599 -24.376 -0.01 -0.00    -0.025 A 
DOCKED: ATOM      8  C   UNL d   1       3.355  -0.651 -23.225 -0.02 +0.01    +0.066 A 
DOCKED: ATOM      9  C   UNL d   1       2.883  -1.232 -25.738 -0.01 +0.00    +0.051 C 
DOCKED: ATOM     10  C   UNL d   1       5.414  -1.399 -22.114 -0.09 +0.01    +0.066 A 
DOCKED: ATOM     11  C   UNL d   1       6.711  -1.958 -22.107 -0.13 -0.00    -0.021 A 
DOCKED: ATOM     12  C   UNL d   1       7.175  -1.860 -20.792 -0.13 +0.00    +0.000 A 
DOCKED: ATOM     13  C   UNL d   1       6.136  -1.239 -20.099 -0.10 +0.01    +0.070 A 
DOCKED: ATOM     14  C   UNL d   1       7.473  -2.459 -23.307 -0.10 +0.00    +0.052 C 
DOCKED: ATOM     15  C   UNL d   1       5.187  -0.458 -17.892 -0.20 +0.02    +0.066 A 
DOCKED: ATOM     16  C   UNL d   1       5.241  -0.407 -16.506 -0.28 -0.01    -0.021 A 
DOCKED: ATOM     17  C   UNL d   1       4.053   0.217 -16.101 -0.27 +0.00    +0.000 A 
DOCKED: ATOM     18  C   UNL d   1       3.372   0.514 -17.277 -0.15 +0.02    +0.070 A 
DOCKED: ATOM     19  C   UNL d   1       6.374  -0.933 -15.653 -0.35 +0.02    +0.052 C 
DOCKED: ATOM     20  C   UNL d   1       1.341   1.360 -18.510 -0.11 +0.04    +0.066 A 
DOCKED: ATOM     21  C   UNL d   1       0.073   1.937 -18.482 -0.11 -0.02    -0.025 A 
DOCKED: ATOM     22  C   UNL d   1      -0.348   1.978 -19.799 -0.06 -0.01    -0.021 A 
DOCKED: ATOM     23  C   UNL d   1       0.687   1.407 -20.570 -0.05 +0.03    +0.066 A 
DOCKED: ATOM     24  C   UNL d   1      -0.708   2.410 -17.259 -0.17 +0.05    +0.051 C 
DOCKED: ATOM     25  N   UNL d   1       2.786   0.015 -22.153 -0.01 -0.05    -0.248 N 
DOCKED: ATOM     26  N   UNL d   1       5.095  -0.910 -20.911 -0.06 -0.05    -0.248 N 
DOCKED: ATOM     27  N   UNL d   1       4.063   0.071 -18.322 -0.10 -0.07    -0.248 N 
DOCKED: ATOM     28  N   UNL d   1       1.710   1.029 -19.794 -0.05 -0.12    -0.248 N 
DOCKED: ATOM     29 FE   UNL d   1       3.459   0.047 -20.123 -0.02 +0.00    +0.000 Fe
DOCKED: ENDROOT
DOCKED: BRANCH   6  30
DOCKED: ATOM     30  C   UNL d   1       0.236   0.425 -24.908 -0.01 +0.01    +0.052 C 
DOCKED: BRANCH  30  31
DOCKED: ATOM     31  C   UNL d   1      -0.920  -0.513 -24.564 -0.01 +0.02    +0.115 C 
DOCKED: BRANCH  31  32
DOCKED: ATOM     32  C   UNL d   1      -0.536  -1.547 -23.527 -0.06 +0.04    +0.139 C 
DOCKED: ATOM     33  O   UNL d   1      -0.079  -2.620 -23.890 -0.00 -0.12    -0.650 OA
DOCKED: BRANCH  32  34
DOCKED: ATOM     34  O   UNL d   1      -0.638  -1.304 -22.200 +0.01 -0.37    -0.776 OA
DOCKED: ATOM     35  H   UNL d   1      -0.378  -1.931 -21.511 +0.02 +0.10    +0.167 HD
DOCKED: ENDBRANCH  32  34
DOCKED: ENDBRANCH  31  32
DOCKED: ENDBRANCH  30  31
DOCKED: ENDBRANCH   6  30
DOCKED: BRANCH  29  36
DOCKED: ATOM     36  C   UNL d   1       2.493  -1.799 -19.892 -0.23 +0.07    +0.190 C 
DOCKED: BRANCH  36  37
DOCKED: ATOM     37  O   UNL d   1       1.310  -2.482 -20.191 -0.09 -0.23    -0.399 OA
DOCKED: ATOM     38  H   UNL d   1       0.644  -1.767 -20.394 +0.01 +0.17    +0.209 HD
DOCKED: ENDBRANCH  36  37
DOCKED: ENDBRANCH  29  36
DOCKED: BRANCH  22  39
DOCKED: ATOM     39  C   UNL d   1      -1.698   2.478 -20.276 -0.04 +0.04    +0.052 C 
DOCKED: BRANCH  39  40
DOCKED: ATOM     40  C   UNL d   1      -2.571   1.308 -20.760 -0.07 +0.10    +0.115 C 
DOCKED: BRANCH  40  41
DOCKED: ATOM     41  C   UNL d   1      -2.523   0.083 -19.871 -0.05 +0.23    +0.139 C 
DOCKED: ATOM     42  O   UNL d   1      -3.487  -0.184 -19.168 -0.34 -1.38    -0.650 OA
DOCKED: BRANCH  41  43
DOCKED: ATOM     43  O   UNL d   1      -1.477  -0.773 -19.897 +0.09 -1.65    -0.776 OA
DOCKED: ATOM     44  H   UNL d   1      -0.844  -0.797 -20.626 +0.02 +0.20    +0.167 HD
DOCKED: ENDBRANCH  41  43
DOCKED: ENDBRANCH  40  41
DOCKED: ENDBRANCH  39  40
DOCKED: ENDBRANCH  22  39
DOCKED: BRANCH  12  45
DOCKED: ATOM     45  C   UNL d   1       8.481  -2.261 -20.119 -0.20 +0.00    +0.004 C 
DOCKED: ATOM     46  C   UNL d   1       8.704  -2.880 -18.963 -0.29 +0.00    +0.012 C 
DOCKED: ENDBRANCH  12  45
DOCKED: BRANCH  17  47
DOCKED: ATOM     47  C   UNL d   1       3.536   0.484 -14.725 -0.43 +0.00    +0.004 C 
DOCKED: ATOM     48  C   UNL d   1       2.420  -0.062 -14.238 -0.49 +0.00    +0.012 C 
DOCKED: ENDBRANCH  17  47
DOCKED: TORSDOF 12
DOCKED: TER
DOCKED: ENDMDL
________________________________________________________________________________


	BEGINNING GENETIC ALGORITHM DOCKING 75 of 100
Run: 75 Seed: 1075230330 994133156 [ Run 75 of 100 GA/GALS ]
Beginning LAMARCKIAN GENETIC ALGORITHM (LGA), with a maximum of 25000000 energy evaluations.

Final-Value: -10.617


	FINAL GENETIC ALGORITHM DOCKED STATE
	_______________________________________________


Detailed state:  trans -15.430 5.205 4.793 quatxyzw 0.169522 -0.351044 -0.826807 0.405489 center 8.781 34.984 -0.736 ntor 12 161.5576 121.3374 -99.7247 115.8807 -92.2604 136.7984 -128.6876 -179.4273 -143.1619 33.5494 -179.0086 -4.9243
State:	-15.430   5.205   4.793   0.185 -0.384 -0.905 132.156    161.56  121.34  -99.72  115.88  -92.26  136.80 -128.69 -179.43 -143.16   33.55 -179.01   -4.92

DOCKED: MODEL       75
DOCKED: USER    Run = 75
DOCKED: USER    DPF = D:/Protein_go_brrr/autodock/final/mut_D99N/heme_Co/dock.dpf
DOCKED: USER  
DOCKED: USER    Estimated Free Energy of Binding    =   -4.88 kcal/mol  [=(1)+(2)+(3)-(4)]
DOCKED: USER    Estimated Inhibition Constant, Ki   =  265.04 uM (micromolar)  [Temperature = 298.15 K]
DOCKED: USER    
DOCKED: USER    (1) Final Intermolecular Energy     =   -8.46 kcal/mol
DOCKED: USER        vdW + Hbond + desolv Energy     =   -6.77 kcal/mol
DOCKED: USER        Electrostatic Energy            =   -1.69 kcal/mol
DOCKED: USER    (2) Final Total Internal Energy     =   -2.16 kcal/mol
DOCKED: USER    (3) Torsional Free Energy           =   +3.58 kcal/mol
DOCKED: USER    (4) Unbound System's Energy  [=(2)] =   -2.16 kcal/mol
DOCKED: USER    
DOCKED: USER    
DOCKED: USER    NEWDPF move heme_Co_opt.pdbqt
DOCKED: USER    NEWDPF about 8.781000 34.984000 -0.736000
DOCKED: USER    NEWDPF tran0 -15.429538 5.205325 4.793226
DOCKED: USER    NEWDPF quaternion0 0.169522 -0.351044 -0.826807 0.405489
DOCKED: USER    NEWDPF axisangle0 0.185453 -0.384032 -0.904503 132.156502
DOCKED: USER    NEWDPF quat0 0.185453 -0.384032 -0.904503 132.156502
DOCKED: USER    NEWDPF dihe0 161.56 121.34 -99.72 115.88 -92.26 136.80 -128.69 -179.43 -143.16 33.55 -179.01 -4.92 
DOCKED: USER  keepresnum = 1 
DOCKED: USER  
DOCKED: REMARK  12 active torsions:
DOCKED: REMARK  status: ('A' for Active; 'I' for Inactive)
DOCKED: REMARK    1  A    between atoms: C_6  and  C_10 
DOCKED: REMARK    2  A    between atoms: C_10  and  C_11 
DOCKED: REMARK    3  A    between atoms: C_11  and  C_12 
DOCKED: REMARK    4  A    between atoms: C_12  and  O_14 
DOCKED: REMARK    5  A    between atoms: C_17  and  C_20 
DOCKED: REMARK    6  A    between atoms: C_24  and  C_27 
DOCKED: REMARK    7  A    between atoms: C_31  and  C_34 
DOCKED: REMARK    8  A    between atoms: C_34  and  C_35 
DOCKED: REMARK    9  A    between atoms: C_35  and  C_36 
DOCKED: REMARK   10  A    between atoms: C_36  and  O_38 
DOCKED: REMARK   11  A    between atoms: FE_43  and  C_44 
DOCKED: REMARK   12  A    between atoms: C_44  and  O_45 
DOCKED: USER                              x       y       z     vdW  Elec       q    Type
DOCKED: USER                           _______ _______ _______ _____ _____    ______ ____
DOCKED: ROOT
DOCKED: ATOM      1  C   UNL d   1     -14.640   3.316   5.516 -0.06 +0.01    +0.064 A 
DOCKED: ATOM      2  C   UNL d   1     -13.296   7.822   6.226 -0.16 -0.01    +0.064 C 
DOCKED: ATOM      3  C   UNL d   1     -16.599   9.335   3.124 -0.17 -0.01    +0.064 A 
DOCKED: ATOM      4  C   UNL d   1     -18.245   4.780   2.674 -0.16 +0.01    +0.064 A 
DOCKED: ATOM      5  C   UNL d   1     -14.006   4.433   5.910 -0.10 +0.01    +0.066 A 
DOCKED: ATOM      6  C   UNL d   1     -12.996   4.412   6.892 -0.20 -0.00    -0.021 A 
DOCKED: ATOM      7  C   UNL d   1     -12.626   5.724   7.111 -0.31 -0.00    -0.025 A 
DOCKED: ATOM      8  C   UNL d   1     -13.413   6.488   6.242 -0.19 -0.00    +0.066 A 
DOCKED: ATOM      9  C   UNL d   1     -11.574   6.255   8.097 -0.46 -0.00    +0.051 C 
DOCKED: ATOM     10  C   UNL d   1     -14.044   8.687   5.348 -0.18 -0.01    +0.066 A 
DOCKED: ATOM     11  C   UNL d   1     -13.867  10.078   5.184 -0.22 +0.00    -0.021 A 
DOCKED: ATOM     12  C   UNL d   1     -14.841  10.493   4.271 -0.17 -0.00    +0.000 A 
DOCKED: ATOM     13  C   UNL d   1     -15.529   9.326   3.937 -0.16 -0.01    +0.070 A 
DOCKED: ATOM     14  C   UNL d   1     -12.774  10.917   5.794 -0.39 -0.02    +0.052 C 
DOCKED: ATOM     15  C   UNL d   1     -17.455   8.238   2.716 -0.20 -0.00    +0.066 A 
DOCKED: ATOM     16  C   UNL d   1     -18.633   8.339   1.989 -0.21 -0.00    -0.021 A 
DOCKED: ATOM     17  C   UNL d   1     -19.112   7.028   1.859 -0.23 +0.00    +0.000 A 
DOCKED: ATOM     18  C   UNL d   1     -18.177   6.226   2.505 -0.21 +0.01    +0.070 A 
DOCKED: ATOM     19  C   UNL d   1     -19.234   9.625   1.468 -0.18 -0.00    +0.052 C 
DOCKED: ATOM     20  C   UNL d   1     -17.394   3.990   3.371 -0.12 +0.01    +0.066 A 
DOCKED: ATOM     21  C   UNL d   1     -17.585   2.615   3.491 -0.09 -0.00    -0.025 A 
DOCKED: ATOM     22  C   UNL d   1     -16.544   2.162   4.281 -0.06 -0.01    -0.021 A 
DOCKED: ATOM     23  C   UNL d   1     -15.771   3.294   4.616 -0.07 +0.01    +0.066 A 
DOCKED: ATOM     24  C   UNL d   1     -18.715   1.777   2.900 -0.07 +0.01    +0.051 C 
DOCKED: ATOM     25  N   UNL d   1     -14.273   5.713   5.482 -0.07 -0.01    -0.248 N 
DOCKED: ATOM     26  N   UNL d   1     -15.010   8.226   4.546 -0.02 +0.01    -0.248 N 
DOCKED: ATOM     27  N   UNL d   1     -17.220   6.983   3.029 -0.08 -0.01    -0.248 N 
DOCKED: ATOM     28  N   UNL d   1     -16.283   4.403   4.069 -0.07 -0.03    -0.248 N 
DOCKED: ATOM     29 FE   UNL d   1     -15.834   6.382   4.182 -0.04 +0.00    +0.000 Fe
DOCKED: ENDROOT
DOCKED: BRANCH   6  30
DOCKED: ATOM     30  C   UNL d   1     -12.479   3.187   7.639 -0.24 +0.01    +0.052 C 
DOCKED: BRANCH  30  31
DOCKED: ATOM     31  C   UNL d   1     -13.204   3.025   8.974 -0.17 +0.03    +0.115 C 
DOCKED: BRANCH  31  32
DOCKED: ATOM     32  C   UNL d   1     -14.655   3.449   8.898 -0.10 +0.04    +0.139 C 
DOCKED: ATOM     33  O   UNL d   1     -15.527   2.597   8.813 +0.02 -0.16    -0.650 OA
DOCKED: BRANCH  32  34
DOCKED: ATOM     34  O   UNL d   1     -15.027   4.748   8.971 -0.43 -0.31    -0.776 OA
DOCKED: ATOM     35  H   UNL d   1     -15.862   5.095   8.626 +0.03 +0.04    +0.167 HD
DOCKED: ENDBRANCH  32  34
DOCKED: ENDBRANCH  31  32
DOCKED: ENDBRANCH  30  31
DOCKED: ENDBRANCH   6  30
DOCKED: BRANCH  29  36
DOCKED: ATOM     36  C   UNL d   1     -17.024   6.578   5.897 -0.03 +0.01    +0.190 C 
DOCKED: BRANCH  36  37
DOCKED: ATOM     37  O   UNL d   1     -17.126   6.180   7.234 -0.00 -0.03    -0.399 OA
DOCKED: ATOM     38  H   UNL d   1     -16.267   5.711   7.428 +0.03 +0.02    +0.209 HD
DOCKED: ENDBRANCH  36  37
DOCKED: ENDBRANCH  29  36
DOCKED: BRANCH  22  39
DOCKED: ATOM     39  C   UNL d   1     -16.347   0.729   4.740 -0.04 +0.02    +0.052 C 
DOCKED: BRANCH  39  40
DOCKED: ATOM     40  C   UNL d   1     -15.366  -0.007   3.813 -0.10 +0.09    +0.115 C 
DOCKED: BRANCH  40  41
DOCKED: ATOM     41  C   UNL d   1     -15.584  -1.503   3.733 -0.01 +0.17    +0.139 C 
DOCKED: ATOM     42  O   UNL d   1     -15.844  -2.125   4.753 -0.02 -0.70    -0.650 OA
DOCKED: BRANCH  41  43
DOCKED: ATOM     43  O   UNL d   1     -15.587  -2.158   2.551 -0.35 -1.00    -0.776 OA
DOCKED: ATOM     44  H   UNL d   1     -16.397  -2.330   2.054 +0.02 +0.11    +0.167 HD
DOCKED: ENDBRANCH  41  43
DOCKED: ENDBRANCH  40  41
DOCKED: ENDBRANCH  39  40
DOCKED: ENDBRANCH  22  39
DOCKED: BRANCH  12  45
DOCKED: ATOM     45  C   UNL d   1     -15.186  11.846   3.664 -0.16 -0.00    +0.004 C 
DOCKED: ATOM     46  C   UNL d   1     -14.996  12.318   2.435 -0.26 -0.00    +0.012 C 
DOCKED: ENDBRANCH  12  45
DOCKED: BRANCH  17  47
DOCKED: ATOM     47  C   UNL d   1     -20.373   6.531   1.230 -0.20 +0.00    +0.004 C 
DOCKED: ATOM     48  C   UNL d   1     -21.361   5.953   1.916 -0.12 +0.00    +0.012 C 
DOCKED: ENDBRANCH  17  47
DOCKED: TORSDOF 12
DOCKED: TER
DOCKED: ENDMDL
________________________________________________________________________________


	BEGINNING GENETIC ALGORITHM DOCKING 76 of 100
Run: 76 Seed: 2136928643 290773277 [ Run 76 of 100 GA/GALS ]
Beginning LAMARCKIAN GENETIC ALGORITHM (LGA), with a maximum of 25000000 energy evaluations.

Final-Value: -10.178


	FINAL GENETIC ALGORITHM DOCKED STATE
	_______________________________________________


Detailed state:  trans 1.890 0.134 -19.790 quatxyzw 0.477661 -0.022331 0.156285 0.864243 center 8.781 34.984 -0.736 ntor 12 109.3206 95.4301 -140.9056 -49.3918 65.9993 132.7082 -123.7143 26.7921 87.4791 -60.9827 31.9777 10.8239
State:	  1.890   0.134 -19.790   0.949 -0.044  0.311 60.407    109.32   95.43 -140.91  -49.39   66.00  132.71 -123.71   26.79   87.48  -60.98   31.98   10.82

DOCKED: MODEL       76
DOCKED: USER    Run = 76
DOCKED: USER    DPF = D:/Protein_go_brrr/autodock/final/mut_D99N/heme_Co/dock.dpf
DOCKED: USER  
DOCKED: USER    Estimated Free Energy of Binding    =   -4.31 kcal/mol  [=(1)+(2)+(3)-(4)]
DOCKED: USER    Estimated Inhibition Constant, Ki   =  690.66 uM (micromolar)  [Temperature = 298.15 K]
DOCKED: USER    
DOCKED: USER    (1) Final Intermolecular Energy     =   -7.89 kcal/mol
DOCKED: USER        vdW + Hbond + desolv Energy     =   -5.89 kcal/mol
DOCKED: USER        Electrostatic Energy            =   -2.00 kcal/mol
DOCKED: USER    (2) Final Total Internal Energy     =   -2.29 kcal/mol
DOCKED: USER    (3) Torsional Free Energy           =   +3.58 kcal/mol
DOCKED: USER    (4) Unbound System's Energy  [=(2)] =   -2.29 kcal/mol
DOCKED: USER    
DOCKED: USER    
DOCKED: USER    NEWDPF move heme_Co_opt.pdbqt
DOCKED: USER    NEWDPF about 8.781000 34.984000 -0.736000
DOCKED: USER    NEWDPF tran0 1.889875 0.134186 -19.789828
DOCKED: USER    NEWDPF quaternion0 0.477661 -0.022331 0.156285 0.864243
DOCKED: USER    NEWDPF axisangle0 0.949484 -0.044390 0.310661 60.407157
DOCKED: USER    NEWDPF quat0 0.949484 -0.044390 0.310661 60.407157
DOCKED: USER    NEWDPF dihe0 109.32 95.43 -140.91 -49.39 66.00 132.71 -123.71 26.79 87.48 -60.98 31.98 10.82 
DOCKED: USER  keepresnum = 1 
DOCKED: USER  
DOCKED: REMARK  12 active torsions:
DOCKED: REMARK  status: ('A' for Active; 'I' for Inactive)
DOCKED: REMARK    1  A    between atoms: C_6  and  C_10 
DOCKED: REMARK    2  A    between atoms: C_10  and  C_11 
DOCKED: REMARK    3  A    between atoms: C_11  and  C_12 
DOCKED: REMARK    4  A    between atoms: C_12  and  O_14 
DOCKED: REMARK    5  A    between atoms: C_17  and  C_20 
DOCKED: REMARK    6  A    between atoms: C_24  and  C_27 
DOCKED: REMARK    7  A    between atoms: C_31  and  C_34 
DOCKED: REMARK    8  A    between atoms: C_34  and  C_35 
DOCKED: REMARK    9  A    between atoms: C_35  and  C_36 
DOCKED: REMARK   10  A    between atoms: C_36  and  O_38 
DOCKED: REMARK   11  A    between atoms: FE_43  and  C_44 
DOCKED: REMARK   12  A    between atoms: C_44  and  O_45 
DOCKED: USER                              x       y       z     vdW  Elec       q    Type
DOCKED: USER                           _______ _______ _______ _____ _____    ______ ____
DOCKED: ROOT
DOCKED: ATOM      1  C   UNL d   1       0.016   0.249 -20.881 -0.11 +0.05    +0.064 A 
DOCKED: ATOM      2  C   UNL d   1       1.252   1.624 -16.500 -0.22 +0.04    +0.064 C 
DOCKED: ATOM      3  C   UNL d   1       5.580  -0.319 -17.071 -0.21 +0.02    +0.064 A 
DOCKED: ATOM      4  C   UNL d   1       4.474  -1.393 -21.685 -0.11 +0.01    +0.064 A 
DOCKED: ATOM      5  C   UNL d   1       0.023   0.736 -19.629 -0.05 +0.07    +0.066 A 
DOCKED: ATOM      6  C   UNL d   1      -1.065   1.458 -19.101 -0.10 -0.03    -0.021 A 
DOCKED: ATOM      7  C   UNL d   1      -0.692   1.873 -17.838 -0.11 -0.03    -0.025 A 
DOCKED: ATOM      8  C   UNL d   1       0.600   1.374 -17.643 -0.16 +0.06    +0.066 A 
DOCKED: ATOM      9  C   UNL d   1      -1.509   2.710 -16.841 -0.19 +0.05    +0.051 C 
DOCKED: ATOM     10  C   UNL d   1       2.573   1.130 -16.199 -0.19 +0.03    +0.066 A 
DOCKED: ATOM     11  C   UNL d   1       3.254   1.238 -14.967 -0.28 -0.01    -0.021 A 
DOCKED: ATOM     12  C   UNL d   1       4.511   0.660 -15.161 -0.27 +0.00    +0.000 A 
DOCKED: ATOM     13  C   UNL d   1       4.500   0.232 -16.488 -0.20 +0.02    +0.070 A 
DOCKED: ATOM     14  C   UNL d   1       2.686   1.774 -13.678 -0.29 +0.01    +0.052 C 
DOCKED: ATOM     15  C   UNL d   1       5.759  -0.767 -18.438 -0.19 +0.02    +0.066 A 
DOCKED: ATOM     16  C   UNL d   1       6.947  -1.193 -19.015 -0.17 -0.01    -0.021 A 
DOCKED: ATOM     17  C   UNL d   1       6.634  -1.502 -20.346 -0.13 +0.00    +0.000 A 
DOCKED: ATOM     18  C   UNL d   1       5.271  -1.255 -20.472 -0.11 +0.02    +0.070 A 
DOCKED: ATOM     19  C   UNL d   1       8.281  -1.286 -18.309 -0.22 +0.02    +0.052 C 
DOCKED: ATOM     20  C   UNL d   1       3.168  -1.077 -21.853 -0.08 +0.01    +0.066 A 
DOCKED: ATOM     21  C   UNL d   1       2.521  -1.220 -23.079 -0.05 -0.00    -0.025 A 
DOCKED: ATOM     22  C   UNL d   1       1.226  -0.782 -22.870 -0.05 -0.01    -0.021 A 
DOCKED: ATOM     23  C   UNL d   1       1.150  -0.378 -21.520 -0.09 +0.03    +0.066 A 
DOCKED: ATOM     24  C   UNL d   1       3.111  -1.731 -24.390 -0.03 +0.01    +0.051 C 
DOCKED: ATOM     25  N   UNL d   1       1.066   0.660 -18.734 -0.10 -0.21    -0.248 N 
DOCKED: ATOM     26  N   UNL d   1       3.307   0.466 -17.098 -0.10 -0.08    -0.248 N 
DOCKED: ATOM     27  N   UNL d   1       4.790  -0.790 -19.325 -0.11 -0.07    -0.248 N 
DOCKED: ATOM     28  N   UNL d   1       2.324  -0.553 -20.902 -0.07 -0.08    -0.248 N 
DOCKED: ATOM     29 FE   UNL d   1       3.037  -0.109 -19.050 -0.04 +0.00    +0.000 Fe
DOCKED: ENDROOT
DOCKED: BRANCH   6  30
DOCKED: ATOM     30  C   UNL d   1      -2.367   1.796 -19.820 -0.10 +0.05    +0.052 C 
DOCKED: BRANCH  30  31
DOCKED: ATOM     31  C   UNL d   1      -3.552   1.122 -19.129 -0.10 +0.20    +0.115 C 
DOCKED: BRANCH  31  32
DOCKED: ATOM     32  C   UNL d   1      -3.907  -0.208 -19.757 -0.14 +0.22    +0.139 C 
DOCKED: ATOM     33  O   UNL d   1      -3.635  -1.243 -19.166 -0.51 -1.42    -0.650 OA
DOCKED: BRANCH  32  34
DOCKED: ATOM     34  O   UNL d   1      -4.562  -0.293 -20.938 +0.01 -0.78    -0.776 OA
DOCKED: ATOM     35  H   UNL d   1      -4.145  -0.538 -21.775 +0.03 +0.12    +0.167 HD
DOCKED: ENDBRANCH  32  34
DOCKED: ENDBRANCH  31  32
DOCKED: ENDBRANCH  30  31
DOCKED: ENDBRANCH   6  30
DOCKED: BRANCH  29  36
DOCKED: ATOM     36  C   UNL d   1       3.565   1.817 -19.689 -0.01 +0.04    +0.190 C 
DOCKED: BRANCH  36  37
DOCKED: ATOM     37  O   UNL d   1       3.033   3.006 -20.197 +0.01 -0.08    -0.399 OA
DOCKED: ATOM     38  H   UNL d   1       2.131   2.757 -20.542 +0.01 +0.05    +0.209 HD
DOCKED: ENDBRANCH  36  37
DOCKED: ENDBRANCH  29  36
DOCKED: BRANCH  22  39
DOCKED: ATOM     39  C   UNL d   1       0.144  -0.696 -23.930 -0.03 +0.01    +0.052 C 
DOCKED: BRANCH  39  40
DOCKED: ATOM     40  C   UNL d   1      -0.970  -1.719 -23.652 -0.06 +0.03    +0.115 C 
DOCKED: BRANCH  40  41
DOCKED: ATOM     41  C   UNL d   1      -2.306  -1.104 -23.290 -0.05 +0.05    +0.139 C 
DOCKED: ATOM     42  O   UNL d   1      -3.313  -1.797 -23.322 +0.01 -0.22    -0.650 OA
DOCKED: BRANCH  41  43
DOCKED: ATOM     43  O   UNL d   1      -2.405   0.169 -22.847 +0.04 -0.33    -0.776 OA
DOCKED: ATOM     44  H   UNL d   1      -2.946   0.414 -22.085 +0.02 +0.10    +0.167 HD
DOCKED: ENDBRANCH  41  43
DOCKED: ENDBRANCH  40  41
DOCKED: ENDBRANCH  39  40
DOCKED: ENDBRANCH  22  39
DOCKED: BRANCH  12  45
DOCKED: ATOM     45  C   UNL d   1       5.708   0.447 -14.244 -0.35 +0.00    +0.004 C 
DOCKED: ATOM     46  C   UNL d   1       6.436   1.320 -13.553 -0.34 +0.00    +0.012 C 
DOCKED: ENDBRANCH  12  45
DOCKED: BRANCH  17  47
DOCKED: ATOM     47  C   UNL d   1       7.527  -1.947 -21.458 -0.15 +0.00    +0.004 C 
DOCKED: ATOM     48  C   UNL d   1       8.470  -2.882 -21.316 -0.17 +0.00    +0.012 C 
DOCKED: ENDBRANCH  17  47
DOCKED: TORSDOF 12
DOCKED: TER
DOCKED: ENDMDL
________________________________________________________________________________


	BEGINNING GENETIC ALGORITHM DOCKING 77 of 100
Run: 77 Seed: 1759759669 150502015 [ Run 77 of 100 GA/GALS ]
Beginning LAMARCKIAN GENETIC ALGORITHM (LGA), with a maximum of 25000000 energy evaluations.

Final-Value: -8.624


	FINAL GENETIC ALGORITHM DOCKED STATE
	_______________________________________________


Detailed state:  trans -7.404 1.378 20.830 quatxyzw 0.361694 0.040394 0.089366 -0.927124 center 8.781 34.984 -0.736 ntor 12 -136.4609 87.9921 84.9668 121.2760 -99.9449 137.4207 46.9677 -162.1995 148.5235 -50.2576 -153.8107 -36.0985
State:	 -7.404   1.378  20.830   0.965  0.108  0.238 -44.018   -136.46   87.99   84.97  121.28  -99.94  137.42   46.97 -162.20  148.52  -50.26 -153.81  -36.10

DOCKED: MODEL       77
DOCKED: USER    Run = 77
DOCKED: USER    DPF = D:/Protein_go_brrr/autodock/final/mut_D99N/heme_Co/dock.dpf
DOCKED: USER  
DOCKED: USER    Estimated Free Energy of Binding    =   -2.80 kcal/mol  [=(1)+(2)+(3)-(4)]
DOCKED: USER    Estimated Inhibition Constant, Ki   =    8.92 mM (millimolar)  [Temperature = 298.15 K]
DOCKED: USER    
DOCKED: USER    (1) Final Intermolecular Energy     =   -6.38 kcal/mol
DOCKED: USER        vdW + Hbond + desolv Energy     =   -5.03 kcal/mol
DOCKED: USER        Electrostatic Energy            =   -1.34 kcal/mol
DOCKED: USER    (2) Final Total Internal Energy     =   -2.25 kcal/mol
DOCKED: USER    (3) Torsional Free Energy           =   +3.58 kcal/mol
DOCKED: USER    (4) Unbound System's Energy  [=(2)] =   -2.25 kcal/mol
DOCKED: USER    
DOCKED: USER    
DOCKED: USER    NEWDPF move heme_Co_opt.pdbqt
DOCKED: USER    NEWDPF about 8.781000 34.984000 -0.736000
DOCKED: USER    NEWDPF tran0 -7.404110 1.378072 20.830485
DOCKED: USER    NEWDPF quaternion0 0.361694 0.040394 0.089366 -0.927124
DOCKED: USER    NEWDPF axisangle0 0.965151 0.107787 0.238465 -44.018162
DOCKED: USER    NEWDPF quat0 0.965151 0.107787 0.238465 -44.018162
DOCKED: USER    NEWDPF dihe0 -136.46 87.99 84.97 121.28 -99.94 137.42 46.97 -162.20 148.52 -50.26 -153.81 -36.10 
DOCKED: USER  keepresnum = 1 
DOCKED: USER  
DOCKED: REMARK  12 active torsions:
DOCKED: REMARK  status: ('A' for Active; 'I' for Inactive)
DOCKED: REMARK    1  A    between atoms: C_6  and  C_10 
DOCKED: REMARK    2  A    between atoms: C_10  and  C_11 
DOCKED: REMARK    3  A    between atoms: C_11  and  C_12 
DOCKED: REMARK    4  A    between atoms: C_12  and  O_14 
DOCKED: REMARK    5  A    between atoms: C_17  and  C_20 
DOCKED: REMARK    6  A    between atoms: C_24  and  C_27 
DOCKED: REMARK    7  A    between atoms: C_31  and  C_34 
DOCKED: REMARK    8  A    between atoms: C_34  and  C_35 
DOCKED: REMARK    9  A    between atoms: C_35  and  C_36 
DOCKED: REMARK   10  A    between atoms: C_36  and  O_38 
DOCKED: REMARK   11  A    between atoms: FE_43  and  C_44 
DOCKED: REMARK   12  A    between atoms: C_44  and  O_45 
DOCKED: USER                              x       y       z     vdW  Elec       q    Type
DOCKED: USER                           _______ _______ _______ _____ _____    ______ ____
DOCKED: ROOT
DOCKED: ATOM      1  C   UNL d   1      -9.489   1.925  20.564 -0.08 +0.01    +0.064 A 
DOCKED: ATOM      2  C   UNL d   1      -7.370  -2.229  21.493 -0.09 +0.01    +0.064 C 
DOCKED: ATOM      3  C   UNL d   1      -3.076  -0.181  21.048 -0.13 +0.00    +0.064 A 
DOCKED: ATOM      4  C   UNL d   1      -5.215   4.150  20.478 -0.20 -0.00    +0.064 A 
DOCKED: ATOM      5  C   UNL d   1      -9.225   0.632  20.815 -0.08 +0.01    +0.066 A 
DOCKED: ATOM      6  C   UNL d   1     -10.246  -0.300  21.082 -0.06 -0.00    -0.021 A 
DOCKED: ATOM      7  C   UNL d   1      -9.624  -1.499  21.374 -0.06 -0.00    -0.025 A 
DOCKED: ATOM      8  C   UNL d   1      -8.253  -1.251  21.255 -0.07 +0.01    +0.066 A 
DOCKED: ATOM      9  C   UNL d   1     -10.283  -2.835  21.751 -0.02 +0.00    +0.051 C 
DOCKED: ATOM     10  C   UNL d   1      -5.941  -2.074  21.371 -0.10 +0.01    +0.066 A 
DOCKED: ATOM     11  C   UNL d   1      -4.971  -3.095  21.470 -0.08 -0.00    -0.021 A 
DOCKED: ATOM     12  C   UNL d   1      -3.728  -2.471  21.332 -0.11 +0.00    +0.000 A 
DOCKED: ATOM     13  C   UNL d   1      -4.032  -1.121  21.148 -0.16 +0.01    +0.070 A 
DOCKED: ATOM     14  C   UNL d   1      -5.240  -4.573  21.591 -0.03 +0.01    +0.052 C 
DOCKED: ATOM     15  C   UNL d   1      -3.210   1.256  20.907 -0.17 -0.00    +0.066 A 
DOCKED: ATOM     16  C   UNL d   1      -2.182   2.187  20.955 -0.20 +0.00    -0.021 A 
DOCKED: ATOM     17  C   UNL d   1      -2.794   3.438  20.794 -0.28 -0.00    +0.000 A 
DOCKED: ATOM     18  C   UNL d   1      -4.150   3.169  20.643 -0.23 -0.00    +0.070 A 
DOCKED: ATOM     19  C   UNL d   1      -0.716   1.866  21.147 -0.09 +0.00    +0.052 C 
DOCKED: ATOM     20  C   UNL d   1      -6.548   3.918  20.416 -0.17 +0.00    +0.066 A 
DOCKED: ATOM     21  C   UNL d   1      -7.477   4.949  20.292 -0.18 -0.00    -0.025 A 
DOCKED: ATOM     22  C   UNL d   1      -8.716   4.336  20.285 -0.12 -0.00    -0.021 A 
DOCKED: ATOM     23  C   UNL d   1      -8.481   2.951  20.418 -0.11 +0.01    +0.066 A 
DOCKED: ATOM     24  C   UNL d   1      -7.200   6.448  20.206 -0.09 +0.01    +0.051 C 
DOCKED: ATOM     25  N   UNL d   1      -7.976   0.060  20.904 -0.05 -0.04    -0.248 N 
DOCKED: ATOM     26  N   UNL d   1      -5.372  -0.892  21.115 -0.09 -0.04    -0.248 N 
DOCKED: ATOM     27  N   UNL d   1      -4.365   1.862  20.746 -0.13 -0.01    -0.248 N 
DOCKED: ATOM     28  N   UNL d   1      -7.170   2.694  20.499 -0.09 -0.03    -0.248 N 
DOCKED: ATOM     29 FE   UNL d   1      -6.065   1.017  20.819 -0.04 +0.00    +0.000 Fe
DOCKED: ENDROOT
DOCKED: BRANCH   6  30
DOCKED: ATOM     30  C   UNL d   1     -11.744  -0.019  21.133 -0.02 +0.01    +0.052 C 
DOCKED: BRANCH  30  31
DOCKED: ATOM     31  C   UNL d   1     -12.089   0.833  22.354 -0.01 +0.01    +0.115 C 
DOCKED: BRANCH  31  32
DOCKED: ATOM     32  C   UNL d   1     -11.199   0.532  23.539 -0.00 +0.01    +0.139 C 
DOCKED: ATOM     33  O   UNL d   1     -11.459  -0.420  24.260 +0.00 -0.04    -0.650 OA
DOCKED: BRANCH  32  34
DOCKED: ATOM     34  O   UNL d   1     -10.087   1.257  23.805 +0.01 -0.05    -0.776 OA
DOCKED: ATOM     35  H   UNL d   1      -9.254   0.880  24.120 +0.00 +0.01    +0.167 HD
DOCKED: ENDBRANCH  32  34
DOCKED: ENDBRANCH  31  32
DOCKED: ENDBRANCH  30  31
DOCKED: ENDBRANCH   6  30
DOCKED: BRANCH  29  36
DOCKED: ATOM     36  C   UNL d   1      -6.229   1.277  22.893 -0.04 +0.01    +0.190 C 
DOCKED: BRANCH  36  37
DOCKED: ATOM     37  O   UNL d   1      -7.147   1.271  23.948 -0.00 -0.01    -0.399 OA
DOCKED: ATOM     38  H   UNL d   1      -8.025   1.487  23.525 +0.01 +0.01    +0.209 HD
DOCKED: ENDBRANCH  36  37
DOCKED: ENDBRANCH  29  36
DOCKED: BRANCH  22  39
DOCKED: ATOM     39  C   UNL d   1     -10.052   5.052  20.221 -0.12 +0.01    +0.052 C 
DOCKED: BRANCH  39  40
DOCKED: ATOM     40  C   UNL d   1     -10.214   5.780  18.876 -0.15 +0.04    +0.115 C 
DOCKED: BRANCH  40  41
DOCKED: ATOM     41  C   UNL d   1     -11.456   5.394  18.102 -0.21 +0.13    +0.139 C 
DOCKED: ATOM     42  O   UNL d   1     -11.975   4.306  18.307 +0.09 -0.82    -0.650 OA
DOCKED: BRANCH  41  43
DOCKED: ATOM     43  O   UNL d   1     -12.060   6.255  17.252 -0.32 -0.85    -0.776 OA
DOCKED: ATOM     44  H   UNL d   1     -11.840   6.296  16.312 -0.18 +0.22    +0.167 HD
DOCKED: ENDBRANCH  41  43
DOCKED: ENDBRANCH  40  41
DOCKED: ENDBRANCH  39  40
DOCKED: ENDBRANCH  22  39
DOCKED: BRANCH  12  45
DOCKED: ATOM     45  C   UNL d   1      -2.298  -2.993  21.334 -0.08 +0.00    +0.004 C 
DOCKED: ATOM     46  C   UNL d   1      -1.394  -3.046  20.360 -0.15 +0.01    +0.012 C 
DOCKED: ENDBRANCH  12  45
DOCKED: BRANCH  17  47
DOCKED: ATOM     47  C   UNL d   1      -2.194   4.805  20.826 -0.32 -0.00    +0.004 C 
DOCKED: ATOM     48  C   UNL d   1      -2.573   5.757  21.681 -0.23 -0.00    +0.012 C 
DOCKED: ENDBRANCH  17  47
DOCKED: TORSDOF 12
DOCKED: TER
DOCKED: ENDMDL
________________________________________________________________________________


	BEGINNING GENETIC ALGORITHM DOCKING 78 of 100
Run: 78 Seed: 1540430827 1145923012 [ Run 78 of 100 GA/GALS ]
Beginning LAMARCKIAN GENETIC ALGORITHM (LGA), with a maximum of 25000000 energy evaluations.

Final-Value: -10.531


	FINAL GENETIC ALGORITHM DOCKED STATE
	_______________________________________________


Detailed state:  trans -13.249 1.962 9.795 quatxyzw 0.031246 0.505182 -0.773522 0.381415 center 8.781 34.984 -0.736 ntor 12 168.1108 91.3954 66.3601 115.5212 136.3739 116.2722 176.2002 -34.4150 -101.8906 129.9105 -175.5072 -157.6039
State:	-13.249   1.962   9.795   0.034  0.546 -0.837 135.157    168.11   91.40   66.36  115.52  136.37  116.27  176.20  -34.42 -101.89  129.91 -175.51 -157.60

DOCKED: MODEL       78
DOCKED: USER    Run = 78
DOCKED: USER    DPF = D:/Protein_go_brrr/autodock/final/mut_D99N/heme_Co/dock.dpf
DOCKED: USER  
DOCKED: USER    Estimated Free Energy of Binding    =   -4.54 kcal/mol  [=(1)+(2)+(3)-(4)]
DOCKED: USER    Estimated Inhibition Constant, Ki   =  466.12 uM (micromolar)  [Temperature = 298.15 K]
DOCKED: USER    
DOCKED: USER    (1) Final Intermolecular Energy     =   -8.12 kcal/mol
DOCKED: USER        vdW + Hbond + desolv Energy     =   -5.79 kcal/mol
DOCKED: USER        Electrostatic Energy            =   -2.33 kcal/mol
DOCKED: USER    (2) Final Total Internal Energy     =   -2.41 kcal/mol
DOCKED: USER    (3) Torsional Free Energy           =   +3.58 kcal/mol
DOCKED: USER    (4) Unbound System's Energy  [=(2)] =   -2.41 kcal/mol
DOCKED: USER    
DOCKED: USER    
DOCKED: USER    NEWDPF move heme_Co_opt.pdbqt
DOCKED: USER    NEWDPF about 8.781000 34.984000 -0.736000
DOCKED: USER    NEWDPF tran0 -13.248797 1.961632 9.795081
DOCKED: USER    NEWDPF quaternion0 0.031246 0.505182 -0.773522 0.381415
DOCKED: USER    NEWDPF axisangle0 0.033801 0.546495 -0.836780 135.157227
DOCKED: USER    NEWDPF quat0 0.033801 0.546495 -0.836780 135.157227
DOCKED: USER    NEWDPF dihe0 168.11 91.40 66.36 115.52 136.37 116.27 176.20 -34.42 -101.89 129.91 -175.51 -157.60 
DOCKED: USER  keepresnum = 1 
DOCKED: USER  
DOCKED: REMARK  12 active torsions:
DOCKED: REMARK  status: ('A' for Active; 'I' for Inactive)
DOCKED: REMARK    1  A    between atoms: C_6  and  C_10 
DOCKED: REMARK    2  A    between atoms: C_10  and  C_11 
DOCKED: REMARK    3  A    between atoms: C_11  and  C_12 
DOCKED: REMARK    4  A    between atoms: C_12  and  O_14 
DOCKED: REMARK    5  A    between atoms: C_17  and  C_20 
DOCKED: REMARK    6  A    between atoms: C_24  and  C_27 
DOCKED: REMARK    7  A    between atoms: C_31  and  C_34 
DOCKED: REMARK    8  A    between atoms: C_34  and  C_35 
DOCKED: REMARK    9  A    between atoms: C_35  and  C_36 
DOCKED: REMARK   10  A    between atoms: C_36  and  O_38 
DOCKED: REMARK   11  A    between atoms: FE_43  and  C_44 
DOCKED: REMARK   12  A    between atoms: C_44  and  O_45 
DOCKED: USER                              x       y       z     vdW  Elec       q    Type
DOCKED: USER                           _______ _______ _______ _____ _____    ______ ____
DOCKED: ROOT
DOCKED: ATOM      1  C   UNL d   1     -11.791   1.304   8.327 -0.23 +0.02    +0.064 A 
DOCKED: ATOM      2  C   UNL d   1     -12.815  -0.215  12.714 -0.18 +0.03    +0.064 C 
DOCKED: ATOM      3  C   UNL d   1     -15.937   3.360  13.264 -0.11 +0.04    +0.064 A 
DOCKED: ATOM      4  C   UNL d   1     -15.192   4.702   8.648 -0.00 +0.02    +0.064 A 
DOCKED: ATOM      5  C   UNL d   1     -11.815   0.648   9.498 -0.24 +0.02    +0.066 A 
DOCKED: ATOM      6  C   UNL d   1     -11.071  -0.530   9.711 -0.34 -0.01    -0.021 A 
DOCKED: ATOM      7  C   UNL d   1     -11.389  -0.979  10.978 -0.26 -0.01    -0.025 A 
DOCKED: ATOM      8  C   UNL d   1     -12.301  -0.048  11.489 -0.19 +0.02    +0.066 A 
DOCKED: ATOM      9  C   UNL d   1     -10.865  -2.234  11.692 -0.21 +0.01    +0.051 C 
DOCKED: ATOM     10  C   UNL d   1     -13.738   0.703  13.334 -0.12 +0.04    +0.066 A 
DOCKED: ATOM     11  C   UNL d   1     -14.205   0.659  14.666 -0.07 -0.01    -0.021 A 
DOCKED: ATOM     12  C   UNL d   1     -15.111   1.715  14.800 -0.08 +0.00    +0.000 A 
DOCKED: ATOM     13  C   UNL d   1     -15.120   2.330  13.548 -0.13 +0.05    +0.070 A 
DOCKED: ATOM     14  C   UNL d   1     -13.732  -0.278  15.747 -0.08 +0.03    +0.052 C 
DOCKED: ATOM     15  C   UNL d   1     -16.114   4.077  12.016 -0.10 +0.03    +0.066 A 
DOCKED: ATOM     16  C   UNL d   1     -17.079   5.036  11.748 -0.07 -0.01    -0.021 A 
DOCKED: ATOM     17  C   UNL d   1     -16.870   5.425  10.417 -0.06 +0.00    +0.000 A 
DOCKED: ATOM     18  C   UNL d   1     -15.778   4.681   9.982 +0.02 +0.03    +0.070 A 
DOCKED: ATOM     19  C   UNL d   1     -18.124   5.527  12.726 -0.03 +0.01    +0.052 C 
DOCKED: ATOM     20  C   UNL d   1     -14.187   3.926   8.177 -0.11 +0.02    +0.066 A 
DOCKED: ATOM     21  C   UNL d   1     -13.733   4.014   6.862 -0.12 -0.00    -0.025 A 
DOCKED: ATOM     22  C   UNL d   1     -12.733   3.066   6.749 -0.18 -0.00    -0.021 A 
DOCKED: ATOM     23  C   UNL d   1     -12.633   2.434   8.006 -0.17 +0.02    +0.066 A 
DOCKED: ATOM     24  C   UNL d   1     -14.242   4.941   5.762 -0.13 +0.01    +0.051 C 
DOCKED: ATOM     25  N   UNL d   1     -12.578   0.973  10.597 -0.12 -0.08    -0.248 N 
DOCKED: ATOM     26  N   UNL d   1     -14.248   1.752  12.680 -0.11 -0.15    -0.248 N 
DOCKED: ATOM     27  N   UNL d   1     -15.373   3.867  10.951 -0.06 -0.10    -0.248 N 
DOCKED: ATOM     28  N   UNL d   1     -13.513   2.950   8.873 -0.10 -0.07    -0.248 N 
DOCKED: ATOM     29 FE   UNL d   1     -14.057   2.507  10.781 -0.04 +0.00    +0.000 Fe
DOCKED: ENDROOT
DOCKED: BRANCH   6  30
DOCKED: ATOM     30  C   UNL d   1     -10.162  -1.226   8.704 -0.26 +0.02    +0.052 C 
DOCKED: BRANCH  30  31
DOCKED: ATOM     31  C   UNL d   1     -10.942  -2.273   7.910 -0.34 +0.06    +0.115 C 
DOCKED: BRANCH  31  32
DOCKED: ATOM     32  C   UNL d   1     -11.826  -1.654   6.850 -0.17 +0.14    +0.139 C 
DOCKED: ATOM     33  O   UNL d   1     -11.370  -0.788   6.118 -0.35 -0.74    -0.650 OA
DOCKED: BRANCH  32  34
DOCKED: ATOM     34  O   UNL d   1     -13.101  -2.062   6.650 -0.10 -1.02    -0.776 OA
DOCKED: ATOM     35  H   UNL d   1     -13.761  -1.561   6.152 +0.02 +0.24    +0.167 HD
DOCKED: ENDBRANCH  32  34
DOCKED: ENDBRANCH  31  32
DOCKED: ENDBRANCH  30  31
DOCKED: ENDBRANCH   6  30
DOCKED: BRANCH  29  36
DOCKED: ATOM     36  C   UNL d   1     -15.443   1.098  10.083 -0.01 +0.05    +0.190 C 
DOCKED: BRANCH  36  37
DOCKED: ATOM     37  O   UNL d   1     -15.603   0.049   9.173 +0.01 -0.10    -0.399 OA
DOCKED: ATOM     38  H   UNL d   1     -14.900   0.200   8.481 +0.02 +0.07    +0.209 HD
DOCKED: ENDBRANCH  36  37
DOCKED: ENDBRANCH  29  36
DOCKED: BRANCH  22  39
DOCKED: ATOM     39  C   UNL d   1     -11.964   2.746   5.480 -0.18 +0.01    +0.052 C 
DOCKED: BRANCH  39  40
DOCKED: ATOM     40  C   UNL d   1     -12.928   2.362   4.345 -0.17 +0.04    +0.115 C 
DOCKED: BRANCH  40  41
DOCKED: ATOM     41  C   UNL d   1     -13.859   1.215   4.676 -0.12 +0.08    +0.139 C 
DOCKED: ATOM     42  O   UNL d   1     -15.029   1.453   4.942 +0.03 -0.27    -0.650 OA
DOCKED: BRANCH  41  43
DOCKED: ATOM     43  O   UNL d   1     -13.456  -0.072   4.602 -0.32 -1.14    -0.776 OA
DOCKED: ATOM     44  H   UNL d   1     -12.853  -0.465   5.246 +0.04 +0.29    +0.167 HD
DOCKED: ENDBRANCH  41  43
DOCKED: ENDBRANCH  40  41
DOCKED: ENDBRANCH  39  40
DOCKED: ENDBRANCH  22  39
DOCKED: BRANCH  12  45
DOCKED: ATOM     45  C   UNL d   1     -15.949   2.222  15.966 -0.08 +0.00    +0.004 C 
DOCKED: ATOM     46  C   UNL d   1     -15.815   3.309  16.721 -0.06 +0.01    +0.012 C 
DOCKED: ENDBRANCH  12  45
DOCKED: BRANCH  17  47
DOCKED: ATOM     47  C   UNL d   1     -17.646   6.378   9.568 -0.04 +0.00    +0.004 C 
DOCKED: ATOM     48  C   UNL d   1     -17.146   7.527   9.105 -0.06 +0.00    +0.012 C 
DOCKED: ENDBRANCH  17  47
DOCKED: TORSDOF 12
DOCKED: TER
DOCKED: ENDMDL
________________________________________________________________________________


	BEGINNING GENETIC ALGORITHM DOCKING 79 of 100
Run: 79 Seed: 871088318 1116042094 [ Run 79 of 100 GA/GALS ]
Beginning LAMARCKIAN GENETIC ALGORITHM (LGA), with a maximum of 25000000 energy evaluations.

Final-Value: -10.522


	FINAL GENETIC ALGORITHM DOCKED STATE
	_______________________________________________


Detailed state:  trans -10.238 -4.486 11.124 quatxyzw -0.448001 0.432013 -0.466260 0.628698 center 8.781 34.984 -0.736 ntor 12 38.9086 115.1135 57.1436 115.0937 78.7206 132.3491 -135.5183 10.0388 -34.4123 -30.9284 -150.2617 -20.3838
State:	-10.238  -4.486  11.124  -0.576  0.556 -0.600 102.092     38.91  115.11   57.14  115.09   78.72  132.35 -135.52   10.04  -34.41  -30.93 -150.26  -20.38

DOCKED: MODEL       79
DOCKED: USER    Run = 79
DOCKED: USER    DPF = D:/Protein_go_brrr/autodock/final/mut_D99N/heme_Co/dock.dpf
DOCKED: USER  
DOCKED: USER    Estimated Free Energy of Binding    =   -5.22 kcal/mol  [=(1)+(2)+(3)-(4)]
DOCKED: USER    Estimated Inhibition Constant, Ki   =  148.92 uM (micromolar)  [Temperature = 298.15 K]
DOCKED: USER    
DOCKED: USER    (1) Final Intermolecular Energy     =   -8.80 kcal/mol
DOCKED: USER        vdW + Hbond + desolv Energy     =   -6.30 kcal/mol
DOCKED: USER        Electrostatic Energy            =   -2.50 kcal/mol
DOCKED: USER    (2) Final Total Internal Energy     =   -1.72 kcal/mol
DOCKED: USER    (3) Torsional Free Energy           =   +3.58 kcal/mol
DOCKED: USER    (4) Unbound System's Energy  [=(2)] =   -1.72 kcal/mol
DOCKED: USER    
DOCKED: USER    
DOCKED: USER    NEWDPF move heme_Co_opt.pdbqt
DOCKED: USER    NEWDPF about 8.781000 34.984000 -0.736000
DOCKED: USER    NEWDPF tran0 -10.238140 -4.486304 11.124079
DOCKED: USER    NEWDPF quaternion0 -0.448001 0.432013 -0.466260 0.628698
DOCKED: USER    NEWDPF axisangle0 -0.576096 0.555537 -0.599576 102.091713
DOCKED: USER    NEWDPF quat0 -0.576096 0.555537 -0.599576 102.091713
DOCKED: USER    NEWDPF dihe0 38.91 115.11 57.14 115.09 78.72 132.35 -135.52 10.04 -34.41 -30.93 -150.26 -20.38 
DOCKED: USER  keepresnum = 1 
DOCKED: USER  
DOCKED: REMARK  12 active torsions:
DOCKED: REMARK  status: ('A' for Active; 'I' for Inactive)
DOCKED: REMARK    1  A    between atoms: C_6  and  C_10 
DOCKED: REMARK    2  A    between atoms: C_10  and  C_11 
DOCKED: REMARK    3  A    between atoms: C_11  and  C_12 
DOCKED: REMARK    4  A    between atoms: C_12  and  O_14 
DOCKED: REMARK    5  A    between atoms: C_17  and  C_20 
DOCKED: REMARK    6  A    between atoms: C_24  and  C_27 
DOCKED: REMARK    7  A    between atoms: C_31  and  C_34 
DOCKED: REMARK    8  A    between atoms: C_34  and  C_35 
DOCKED: REMARK    9  A    between atoms: C_35  and  C_36 
DOCKED: REMARK   10  A    between atoms: C_36  and  O_38 
DOCKED: REMARK   11  A    between atoms: FE_43  and  C_44 
DOCKED: REMARK   12  A    between atoms: C_44  and  O_45 
DOCKED: USER                              x       y       z     vdW  Elec       q    Type
DOCKED: USER                           _______ _______ _______ _____ _____    ______ ____
DOCKED: ROOT
DOCKED: ATOM      1  C   UNL d   1     -10.989  -3.969   9.153 -0.20 +0.02    +0.064 A 
DOCKED: ATOM      2  C   UNL d   1      -8.626  -7.762  10.778 -0.19 +0.02    +0.064 C 
DOCKED: ATOM      3  C   UNL d   1      -8.179  -5.696  15.063 -0.12 +0.01    +0.064 A 
DOCKED: ATOM      4  C   UNL d   1     -10.923  -1.978  13.541 -0.23 +0.02    +0.064 A 
DOCKED: ATOM      5  C   UNL d   1     -10.345  -5.141   9.272 -0.19 +0.02    +0.066 A 
DOCKED: ATOM      6  C   UNL d   1     -10.313  -6.086   8.227 -0.22 -0.01    -0.021 A 
DOCKED: ATOM      7  C   UNL d   1      -9.646  -7.194   8.712 -0.20 -0.01    -0.025 A 
DOCKED: ATOM      8  C   UNL d   1      -9.285  -6.872  10.025 -0.18 +0.02    +0.066 A 
DOCKED: ATOM      9  C   UNL d   1      -9.353  -8.512   7.979 -0.18 +0.02    +0.051 C 
DOCKED: ATOM     10  C   UNL d   1      -8.191  -7.511  12.129 -0.13 +0.02    +0.066 A 
DOCKED: ATOM     11  C   UNL d   1      -7.376  -8.348  12.922 -0.11 -0.01    -0.021 A 
DOCKED: ATOM     12  C   UNL d   1      -7.258  -7.719  14.165 -0.07 +0.00    +0.000 A 
DOCKED: ATOM     13  C   UNL d   1      -7.997  -6.543  14.034 -0.10 +0.01    +0.070 A 
DOCKED: ATOM     14  C   UNL d   1      -6.688  -9.611  12.471 -0.13 +0.03    +0.052 C 
DOCKED: ATOM     15  C   UNL d   1      -8.951  -4.470  15.119 -0.17 +0.01    +0.066 A 
DOCKED: ATOM     16  C   UNL d   1      -9.218  -3.717  16.253 -0.20 -0.00    -0.021 A 
DOCKED: ATOM     17  C   UNL d   1     -10.011  -2.644  15.820 -0.26 +0.00    +0.000 A 
DOCKED: ATOM     18  C   UNL d   1     -10.152  -2.820  14.447 -0.23 +0.02    +0.070 A 
DOCKED: ATOM     19  C   UNL d   1      -8.730  -4.032  17.650 -0.11 +0.01    +0.052 C 
DOCKED: ATOM     20  C   UNL d   1     -11.145  -2.177  12.220 -0.18 +0.02    +0.066 A 
DOCKED: ATOM     21  C   UNL d   1     -11.935  -1.315  11.461 -0.17 -0.01    -0.025 A 
DOCKED: ATOM     22  C   UNL d   1     -11.948  -1.848  10.185 -0.14 -0.01    -0.021 A 
DOCKED: ATOM     23  C   UNL d   1     -11.170  -3.024  10.232 -0.15 +0.02    +0.066 A 
DOCKED: ATOM     24  C   UNL d   1     -12.658  -0.057  11.933 -0.20 +0.02    +0.051 C 
DOCKED: ATOM     25  N   UNL d   1      -9.700  -5.605  10.396 -0.02 -0.06    -0.248 N 
DOCKED: ATOM     26  N   UNL d   1      -8.514  -6.392  12.785 -0.06 -0.05    -0.248 N 
DOCKED: ATOM     27  N   UNL d   1      -9.533  -3.933  14.070 -0.00 -0.04    -0.248 N 
DOCKED: ATOM     28  N   UNL d   1     -10.684  -3.228  11.462 -0.02 -0.06    -0.248 N 
DOCKED: ATOM     29 FE   UNL d   1      -9.613  -4.716  12.340 -0.02 +0.00    +0.000 Fe
DOCKED: ENDROOT
DOCKED: BRANCH   6  30
DOCKED: ATOM     30  C   UNL d   1     -10.970  -5.949   6.857 -0.20 +0.02    +0.052 C 
DOCKED: BRANCH  30  31
DOCKED: ATOM     31  C   UNL d   1     -12.492  -5.927   6.992 -0.11 +0.05    +0.115 C 
DOCKED: BRANCH  31  32
DOCKED: ATOM     32  C   UNL d   1     -13.146  -4.993   5.997 +0.03 +0.14    +0.139 C 
DOCKED: ATOM     33  O   UNL d   1     -13.561  -5.437   4.937 -0.05 -0.72    -0.650 OA
DOCKED: BRANCH  32  34
DOCKED: ATOM     34  O   UNL d   1     -13.333  -3.679   6.263 -0.42 -1.27    -0.776 OA
DOCKED: ATOM     35  H   UNL d   1     -12.721  -3.136   6.779 +0.02 +0.20    +0.167 HD
DOCKED: ENDBRANCH  32  34
DOCKED: ENDBRANCH  31  32
DOCKED: ENDBRANCH  30  31
DOCKED: ENDBRANCH   6  30
DOCKED: BRANCH  29  36
DOCKED: ATOM     36  C   UNL d   1     -11.378  -5.762  12.773 -0.04 +0.03    +0.190 C 
DOCKED: BRANCH  36  37
DOCKED: ATOM     37  O   UNL d   1     -12.486  -6.372  12.177 -0.00 -0.06    -0.399 OA
DOCKED: ATOM     38  H   UNL d   1     -12.338  -6.270  11.196 +0.02 +0.03    +0.209 HD
DOCKED: ENDBRANCH  36  37
DOCKED: ENDBRANCH  29  36
DOCKED: BRANCH  22  39
DOCKED: ATOM     39  C   UNL d   1     -12.722  -1.289   9.006 -0.12 +0.02    +0.052 C 
DOCKED: BRANCH  39  40
DOCKED: ATOM     40  C   UNL d   1     -11.960  -0.118   8.363 -0.22 +0.05    +0.115 C 
DOCKED: BRANCH  40  41
DOCKED: ATOM     41  C   UNL d   1     -12.079  -0.049   6.855 -0.15 +0.10    +0.139 C 
DOCKED: ATOM     42  O   UNL d   1     -12.058   1.042   6.302 -0.08 -0.35    -0.650 OA
DOCKED: BRANCH  41  43
DOCKED: ATOM     43  O   UNL d   1     -12.121  -1.165   6.094 -0.20 -1.08    -0.776 OA
DOCKED: ATOM     44  H   UNL d   1     -12.837  -1.810   6.157 +0.02 +0.29    +0.167 HD
DOCKED: ENDBRANCH  41  43
DOCKED: ENDBRANCH  40  41
DOCKED: ENDBRANCH  39  40
DOCKED: ENDBRANCH  22  39
DOCKED: BRANCH  12  45
DOCKED: ATOM     45  C   UNL d   1      -6.522  -8.083  15.447 -0.04 +0.00    +0.004 C 
DOCKED: ATOM     46  C   UNL d   1      -5.417  -7.573  15.986 -0.05 +0.00    +0.012 C 
DOCKED: ENDBRANCH  12  45
DOCKED: BRANCH  17  47
DOCKED: ATOM     47  C   UNL d   1     -10.649  -1.549  16.610 -0.26 +0.00    +0.004 C 
DOCKED: ATOM     48  C   UNL d   1      -9.966  -0.715  17.398 -0.28 +0.00    +0.012 C 
DOCKED: ENDBRANCH  17  47
DOCKED: TORSDOF 12
DOCKED: TER
DOCKED: ENDMDL
________________________________________________________________________________


	BEGINNING GENETIC ALGORITHM DOCKING 80 of 100
Run: 80 Seed: 1132093577 562852115 [ Run 80 of 100 GA/GALS ]
Beginning LAMARCKIAN GENETIC ALGORITHM (LGA), with a maximum of 25000000 energy evaluations.

Final-Value: -11.463


	FINAL GENETIC ALGORITHM DOCKED STATE
	_______________________________________________


Detailed state:  trans -14.711 6.595 7.649 quatxyzw -0.514246 -0.603088 -0.477082 0.379774 center 8.781 34.984 -0.736 ntor 12 70.7874 15.4934 -69.0167 -108.7358 -84.9893 154.2857 179.4231 -160.7824 46.8132 93.6222 128.7360 -148.4367
State:	-14.711   6.595   7.649  -0.556 -0.652 -0.516 135.361     70.79   15.49  -69.02 -108.74  -84.99  154.29  179.42 -160.78   46.81   93.62  128.74 -148.44

DOCKED: MODEL       80
DOCKED: USER    Run = 80
DOCKED: USER    DPF = D:/Protein_go_brrr/autodock/final/mut_D99N/heme_Co/dock.dpf
DOCKED: USER  
DOCKED: USER    Estimated Free Energy of Binding    =   -7.44 kcal/mol  [=(1)+(2)+(3)-(4)]
DOCKED: USER    Estimated Inhibition Constant, Ki   =    3.50 uM (micromolar)  [Temperature = 298.15 K]
DOCKED: USER    
DOCKED: USER    (1) Final Intermolecular Energy     =  -11.02 kcal/mol
DOCKED: USER        vdW + Hbond + desolv Energy     =   -8.46 kcal/mol
DOCKED: USER        Electrostatic Energy            =   -2.56 kcal/mol
DOCKED: USER    (2) Final Total Internal Energy     =   -0.44 kcal/mol
DOCKED: USER    (3) Torsional Free Energy           =   +3.58 kcal/mol
DOCKED: USER    (4) Unbound System's Energy  [=(2)] =   -0.44 kcal/mol
DOCKED: USER    
DOCKED: USER    
DOCKED: USER    NEWDPF move heme_Co_opt.pdbqt
DOCKED: USER    NEWDPF about 8.781000 34.984000 -0.736000
DOCKED: USER    NEWDPF tran0 -14.711438 6.594789 7.648763
DOCKED: USER    NEWDPF quaternion0 -0.514246 -0.603088 -0.477082 0.379774
DOCKED: USER    NEWDPF axisangle0 -0.555894 -0.651932 -0.515720 135.360571
DOCKED: USER    NEWDPF quat0 -0.555894 -0.651932 -0.515720 135.360571
DOCKED: USER    NEWDPF dihe0 70.79 15.49 -69.02 -108.74 -84.99 154.29 179.42 -160.78 46.81 93.62 128.74 -148.44 
DOCKED: USER  keepresnum = 1 
DOCKED: USER  
DOCKED: REMARK  12 active torsions:
DOCKED: REMARK  status: ('A' for Active; 'I' for Inactive)
DOCKED: REMARK    1  A    between atoms: C_6  and  C_10 
DOCKED: REMARK    2  A    between atoms: C_10  and  C_11 
DOCKED: REMARK    3  A    between atoms: C_11  and  C_12 
DOCKED: REMARK    4  A    between atoms: C_12  and  O_14 
DOCKED: REMARK    5  A    between atoms: C_17  and  C_20 
DOCKED: REMARK    6  A    between atoms: C_24  and  C_27 
DOCKED: REMARK    7  A    between atoms: C_31  and  C_34 
DOCKED: REMARK    8  A    between atoms: C_34  and  C_35 
DOCKED: REMARK    9  A    between atoms: C_35  and  C_36 
DOCKED: REMARK   10  A    between atoms: C_36  and  O_38 
DOCKED: REMARK   11  A    between atoms: FE_43  and  C_44 
DOCKED: REMARK   12  A    between atoms: C_44  and  O_45 
DOCKED: USER                              x       y       z     vdW  Elec       q    Type
DOCKED: USER                           _______ _______ _______ _____ _____    ______ ____
DOCKED: ROOT
DOCKED: ATOM      1  C   UNL d   1     -15.036   4.544   8.286 -0.08 +0.02    +0.064 A 
DOCKED: ATOM      2  C   UNL d   1     -12.408   6.429   4.800 -0.25 -0.01    +0.064 C 
DOCKED: ATOM      3  C   UNL d   1     -14.130  10.773   5.800 -0.16 -0.02    +0.064 A 
DOCKED: ATOM      4  C   UNL d   1     -16.526   8.931   9.611 -0.08 -0.00    +0.064 A 
DOCKED: ATOM      5  C   UNL d   1     -14.219   4.735   7.236 -0.10 +0.01    +0.066 A 
DOCKED: ATOM      6  C   UNL d   1     -13.455   3.688   6.684 -0.12 -0.00    -0.021 A 
DOCKED: ATOM      7  C   UNL d   1     -12.678   4.245   5.688 -0.20 -0.00    -0.025 A 
DOCKED: ATOM      8  C   UNL d   1     -13.012   5.604   5.664 -0.20 +0.00    +0.066 A 
DOCKED: ATOM      9  C   UNL d   1     -11.654   3.540   4.786 -0.28 +0.01    +0.051 C 
DOCKED: ATOM     10  C   UNL d   1     -12.706   7.835   4.684 -0.15 -0.01    +0.066 A 
DOCKED: ATOM     11  C   UNL d   1     -12.211   8.725   3.706 -0.39 +0.00    -0.021 A 
DOCKED: ATOM     12  C   UNL d   1     -12.732   9.984   4.019 -0.42 -0.00    +0.000 A 
DOCKED: ATOM     13  C   UNL d   1     -13.514   9.767   5.154 -0.24 -0.01    +0.070 A 
DOCKED: ATOM     14  C   UNL d   1     -11.375   8.357   2.507 -0.37 +0.00    +0.052 C 
DOCKED: ATOM     15  C   UNL d   1     -14.929  10.737   7.008 -0.11 -0.02    +0.066 A 
DOCKED: ATOM     16  C   UNL d   1     -15.417  11.833   7.706 -0.11 +0.01    -0.021 A 
DOCKED: ATOM     17  C   UNL d   1     -16.107  11.307   8.807 -0.10 -0.00    +0.000 A 
DOCKED: ATOM     18  C   UNL d   1     -15.999   9.926   8.685 -0.09 -0.01    +0.070 A 
DOCKED: ATOM     19  C   UNL d   1     -15.217  13.280   7.316 -0.03 -0.05    +0.052 C 
DOCKED: ATOM     20  C   UNL d   1     -16.361   7.588   9.560 -0.08 +0.01    +0.066 A 
DOCKED: ATOM     21  C   UNL d   1     -16.885   6.736  10.530 -0.01 -0.01    -0.025 A 
DOCKED: ATOM     22  C   UNL d   1     -16.496   5.462  10.158 -0.05 -0.01    -0.021 A 
DOCKED: ATOM     23  C   UNL d   1     -15.737   5.602   8.977 -0.06 +0.02    +0.066 A 
DOCKED: ATOM     24  C   UNL d   1     -17.701   7.119  11.762 -0.06 +0.01    +0.051 C 
DOCKED: ATOM     25  N   UNL d   1     -13.969   5.934   6.608 -0.08 -0.01    -0.248 N 
DOCKED: ATOM     26  N   UNL d   1     -13.542   8.458   5.521 -0.14 +0.03    -0.248 N 
DOCKED: ATOM     27  N   UNL d   1     -15.266   9.623   7.620 -0.05 +0.04    -0.248 N 
DOCKED: ATOM     28  N   UNL d   1     -15.650   6.887   8.613 -0.07 -0.04    -0.248 N 
DOCKED: ATOM     29 FE   UNL d   1     -14.658   7.886   7.146 -0.03 -0.00    +0.000 Fe
DOCKED: ENDROOT
DOCKED: BRANCH   6  30
DOCKED: ATOM     30  C   UNL d   1     -13.422   2.239   7.157 -0.12 +0.01    +0.052 C 
DOCKED: BRANCH  30  31
DOCKED: ATOM     31  C   UNL d   1     -12.033   1.637   6.948 -0.19 +0.04    +0.115 C 
DOCKED: BRANCH  31  32
DOCKED: ATOM     32  C   UNL d   1     -12.089   0.250   6.345 -0.11 +0.11    +0.139 C 
DOCKED: ATOM     33  O   UNL d   1     -12.769   0.055   5.348 -0.38 -0.76    -0.650 OA
DOCKED: BRANCH  32  34
DOCKED: ATOM     34  O   UNL d   1     -11.370  -0.781   6.846 -0.51 -0.73    -0.776 OA
DOCKED: ATOM     35  H   UNL d   1     -11.518  -1.174   7.717 +0.06 +0.11    +0.167 HD
DOCKED: ENDBRANCH  32  34
DOCKED: ENDBRANCH  31  32
DOCKED: ENDBRANCH  30  31
DOCKED: ENDBRANCH   6  30
DOCKED: BRANCH  29  36
DOCKED: ATOM     36  C   UNL d   1     -12.957   8.029   8.363 -0.27 -0.00    +0.190 C 
DOCKED: BRANCH  36  37
DOCKED: ATOM     37  O   UNL d   1     -11.820   7.326   8.775 -0.38 +0.00    -0.399 OA
DOCKED: ATOM     38  H   UNL d   1     -12.069   6.931   9.657 -0.48 -0.07    +0.209 HD
DOCKED: ENDBRANCH  36  37
DOCKED: ENDBRANCH  29  36
DOCKED: BRANCH  22  39
DOCKED: ATOM     39  C   UNL d   1     -16.786   4.192  10.936 -0.07 +0.01    +0.052 C 
DOCKED: BRANCH  39  40
DOCKED: ATOM     40  C   UNL d   1     -16.465   4.383  12.427 -0.09 +0.04    +0.115 C 
DOCKED: BRANCH  40  41
DOCKED: ATOM     41  C   UNL d   1     -15.058   3.986  12.819 -0.17 +0.10    +0.139 C 
DOCKED: ATOM     42  O   UNL d   1     -14.442   3.195  12.119 -0.08 -0.40    -0.650 OA
DOCKED: BRANCH  41  43
DOCKED: ATOM     43  O   UNL d   1     -14.429   4.548  13.876 -0.05 -1.17    -0.776 OA
DOCKED: ATOM     44  H   UNL d   1     -14.224   5.491  13.916 -0.49 +0.18    +0.167 HD
DOCKED: ENDBRANCH  41  43
DOCKED: ENDBRANCH  40  41
DOCKED: ENDBRANCH  39  40
DOCKED: ENDBRANCH  22  39
DOCKED: BRANCH  12  45
DOCKED: ATOM     45  C   UNL d   1     -12.597  11.354   3.369 -0.41 -0.00    +0.004 C 
DOCKED: ATOM     46  C   UNL d   1     -12.075  12.486   3.835 -0.42 -0.00    +0.012 C 
DOCKED: ENDBRANCH  12  45
DOCKED: BRANCH  17  47
DOCKED: ATOM     47  C   UNL d   1     -16.783  12.014   9.936 -0.09 -0.00    +0.004 C 
DOCKED: ATOM     48  C   UNL d   1     -16.290  12.064  11.175 -0.12 -0.01    +0.012 C 
DOCKED: ENDBRANCH  17  47
DOCKED: TORSDOF 12
DOCKED: TER
DOCKED: ENDMDL
________________________________________________________________________________


	BEGINNING GENETIC ALGORITHM DOCKING 81 of 100
Run: 81 Seed: 1225412493 428439626 [ Run 81 of 100 GA/GALS ]
Beginning LAMARCKIAN GENETIC ALGORITHM (LGA), with a maximum of 25000000 energy evaluations.

Final-Value: -9.212


	FINAL GENETIC ALGORITHM DOCKED STATE
	_______________________________________________


Detailed state:  trans -1.111 -4.966 18.013 quatxyzw 0.728106 -0.019331 -0.555731 -0.400813 center 8.781 34.984 -0.736 ntor 12 -170.0604 123.3765 40.5170 126.8814 -10.4438 129.2480 30.9593 138.2212 -180.0000 -168.2447 -174.8556 1.0409
State:	 -1.111  -4.966  18.013   0.795 -0.021 -0.607 -132.742   -170.06  123.38   40.52  126.88  -10.44  129.25   30.96  138.22 -180.00 -168.24 -174.86    1.04

DOCKED: MODEL       81
DOCKED: USER    Run = 81
DOCKED: USER    DPF = D:/Protein_go_brrr/autodock/final/mut_D99N/heme_Co/dock.dpf
DOCKED: USER  
DOCKED: USER    Estimated Free Energy of Binding    =   -3.46 kcal/mol  [=(1)+(2)+(3)-(4)]
DOCKED: USER    Estimated Inhibition Constant, Ki   =    2.92 mM (millimolar)  [Temperature = 298.15 K]
DOCKED: USER    
DOCKED: USER    (1) Final Intermolecular Energy     =   -7.04 kcal/mol
DOCKED: USER        vdW + Hbond + desolv Energy     =   -5.33 kcal/mol
DOCKED: USER        Electrostatic Energy            =   -1.71 kcal/mol
DOCKED: USER    (2) Final Total Internal Energy     =   -2.18 kcal/mol
DOCKED: USER    (3) Torsional Free Energy           =   +3.58 kcal/mol
DOCKED: USER    (4) Unbound System's Energy  [=(2)] =   -2.18 kcal/mol
DOCKED: USER    
DOCKED: USER    
DOCKED: USER    NEWDPF move heme_Co_opt.pdbqt
DOCKED: USER    NEWDPF about 8.781000 34.984000 -0.736000
DOCKED: USER    NEWDPF tran0 -1.110974 -4.966213 18.013317
DOCKED: USER    NEWDPF quaternion0 0.728106 -0.019331 -0.555731 -0.400813
DOCKED: USER    NEWDPF axisangle0 0.794737 -0.021100 -0.606587 -132.741913
DOCKED: USER    NEWDPF quat0 0.794737 -0.021100 -0.606587 -132.741913
DOCKED: USER    NEWDPF dihe0 -170.06 123.38 40.52 126.88 -10.44 129.25 30.96 138.22 -180.00 -168.24 -174.86 1.04 
DOCKED: USER  keepresnum = 1 
DOCKED: USER  
DOCKED: REMARK  12 active torsions:
DOCKED: REMARK  status: ('A' for Active; 'I' for Inactive)
DOCKED: REMARK    1  A    between atoms: C_6  and  C_10 
DOCKED: REMARK    2  A    between atoms: C_10  and  C_11 
DOCKED: REMARK    3  A    between atoms: C_11  and  C_12 
DOCKED: REMARK    4  A    between atoms: C_12  and  O_14 
DOCKED: REMARK    5  A    between atoms: C_17  and  C_20 
DOCKED: REMARK    6  A    between atoms: C_24  and  C_27 
DOCKED: REMARK    7  A    between atoms: C_31  and  C_34 
DOCKED: REMARK    8  A    between atoms: C_34  and  C_35 
DOCKED: REMARK    9  A    between atoms: C_35  and  C_36 
DOCKED: REMARK   10  A    between atoms: C_36  and  O_38 
DOCKED: REMARK   11  A    between atoms: FE_43  and  C_44 
DOCKED: REMARK   12  A    between atoms: C_44  and  O_45 
DOCKED: USER                              x       y       z     vdW  Elec       q    Type
DOCKED: USER                           _______ _______ _______ _____ _____    ______ ____
DOCKED: ROOT
DOCKED: ATOM      1  C   UNL d   1      -0.940  -3.910  19.903 -0.07 +0.05    +0.064 A 
DOCKED: ATOM      2  C   UNL d   1      -4.650  -4.803  17.066 -0.21 +0.02    +0.064 C 
DOCKED: ATOM      3  C   UNL d   1      -1.746  -6.778  13.827 -0.21 +0.01    +0.064 A 
DOCKED: ATOM      4  C   UNL d   1       2.006  -6.226  16.873 -0.06 +0.02    +0.064 A 
DOCKED: ATOM      5  C   UNL d   1      -2.162  -3.976  19.350 -0.13 +0.05    +0.066 A 
DOCKED: ATOM      6  C   UNL d   1      -3.317  -3.554  20.037 -0.14 -0.01    -0.021 A 
DOCKED: ATOM      7  C   UNL d   1      -4.393  -3.836  19.218 -0.15 -0.01    -0.025 A 
DOCKED: ATOM      8  C   UNL d   1      -3.848  -4.403  18.061 -0.19 +0.03    +0.066 A 
DOCKED: ATOM      9  C   UNL d   1      -5.883  -3.588  19.500 -0.03 +0.01    +0.051 C 
DOCKED: ATOM     10  C   UNL d   1      -4.179  -5.373  15.829 -0.20 +0.02    +0.066 A 
DOCKED: ATOM     11  C   UNL d   1      -4.957  -5.682  14.692 -0.27 -0.00    -0.021 A 
DOCKED: ATOM     12  C   UNL d   1      -4.084  -6.253  13.761 -0.26 +0.00    +0.000 A 
DOCKED: ATOM     13  C   UNL d   1      -2.840  -6.238  14.392 -0.17 +0.01    +0.070 A 
DOCKED: ATOM     14  C   UNL d   1      -6.415  -5.357  14.493 -0.29 +0.01    +0.052 C 
DOCKED: ATOM     15  C   UNL d   1      -0.401  -6.897  14.355 -0.16 +0.01    +0.066 A 
DOCKED: ATOM     16  C   UNL d   1       0.650  -7.596  13.780 -0.22 +0.00    -0.021 A 
DOCKED: ATOM     17  C   UNL d   1       1.734  -7.442  14.656 -0.14 -0.00    +0.000 A 
DOCKED: ATOM     18  C   UNL d   1       1.261  -6.643  15.692 -0.09 +0.02    +0.070 A 
DOCKED: ATOM     19  C   UNL d   1       0.588  -8.355  12.473 -0.14 -0.01    +0.052 C 
DOCKED: ATOM     20  C   UNL d   1       1.543  -5.523  17.934 -0.00 +0.05    +0.066 A 
DOCKED: ATOM     21  C   UNL d   1       2.347  -5.213  19.029 -0.04 -0.01    -0.025 A 
DOCKED: ATOM     22  C   UNL d   1       1.532  -4.520  19.906 -0.05 -0.01    -0.021 A 
DOCKED: ATOM     23  C   UNL d   1       0.258  -4.452  19.303 +0.13 +0.07    +0.066 A 
DOCKED: ATOM     24  C   UNL d   1       3.814  -5.576  19.239 -0.01 +0.01    +0.051 C 
DOCKED: ATOM     25  N   UNL d   1      -2.468  -4.497  18.113 -0.12 -0.19    -0.248 N 
DOCKED: ATOM     26  N   UNL d   1      -2.888  -5.654  15.619 -0.11 -0.09    -0.248 N 
DOCKED: ATOM     27  N   UNL d   1      -0.022  -6.363  15.495 -0.08 -0.10    -0.248 N 
DOCKED: ATOM     28  N   UNL d   1       0.260  -5.059  18.111 +0.08 -0.34    -0.248 N 
DOCKED: ATOM     29 FE   UNL d   1      -1.170  -5.484  16.728 -0.04 +0.00    +0.000 Fe
DOCKED: ENDROOT
DOCKED: BRANCH   6  30
DOCKED: ATOM     30  C   UNL d   1      -3.377  -2.982  21.449 -0.08 +0.01    +0.052 C 
DOCKED: BRANCH  30  31
DOCKED: ATOM     31  C   UNL d   1      -3.581  -4.099  22.473 -0.01 +0.01    +0.115 C 
DOCKED: BRANCH  31  32
DOCKED: ATOM     32  C   UNL d   1      -3.714  -5.459  21.823 -0.01 +0.02    +0.139 C 
DOCKED: ATOM     33  O   UNL d   1      -4.826  -5.934  21.646 +0.01 -0.06    -0.650 OA
DOCKED: BRANCH  32  34
DOCKED: ATOM     34  O   UNL d   1      -2.639  -6.154  21.384 +0.02 -0.11    -0.776 OA
DOCKED: ATOM     35  H   UNL d   1      -2.692  -6.986  20.895 +0.01 +0.02    +0.167 HD
DOCKED: ENDBRANCH  32  34
DOCKED: ENDBRANCH  31  32
DOCKED: ENDBRANCH  30  31
DOCKED: ENDBRANCH   6  30
DOCKED: BRANCH  29  36
DOCKED: ATOM     36  C   UNL d   1      -1.641  -7.265  17.729 -0.02 +0.05    +0.190 C 
DOCKED: BRANCH  36  37
DOCKED: ATOM     37  O   UNL d   1      -2.065  -7.771  18.962 +0.00 -0.06    -0.399 OA
DOCKED: ATOM     38  H   UNL d   1      -2.331  -6.968  19.491 +0.01 +0.04    +0.209 HD
DOCKED: ENDBRANCH  36  37
DOCKED: ENDBRANCH  29  36
DOCKED: BRANCH  22  39
DOCKED: ATOM     39  C   UNL d   1       1.944  -4.012  21.275 -0.02 +0.01    +0.052 C 
DOCKED: BRANCH  39  40
DOCKED: ATOM     40  C   UNL d   1       2.216  -2.499  21.233 -0.03 +0.04    +0.115 C 
DOCKED: BRANCH  40  41
DOCKED: ATOM     41  C   UNL d   1       1.878  -1.840  19.912 -0.07 +0.11    +0.139 C 
DOCKED: ATOM     42  O   UNL d   1       2.695  -1.870  19.002 -0.36 -0.61    -0.650 OA
DOCKED: BRANCH  41  43
DOCKED: ATOM     43  O   UNL d   1       0.664  -1.294  19.681 -0.01 -0.88    -0.776 OA
DOCKED: ATOM     44  H   UNL d   1       0.229  -0.708  20.315 +0.01 +0.09    +0.167 HD
DOCKED: ENDBRANCH  41  43
DOCKED: ENDBRANCH  40  41
DOCKED: ENDBRANCH  39  40
DOCKED: ENDBRANCH  22  39
DOCKED: BRANCH  12  45
DOCKED: ATOM     45  C   UNL d   1      -4.278  -6.790  12.349 -0.44 +0.00    +0.004 C 
DOCKED: ATOM     46  C   UNL d   1      -3.747  -6.399  11.194 -0.57 -0.00    +0.012 C 
DOCKED: ENDBRANCH  12  45
DOCKED: BRANCH  17  47
DOCKED: ATOM     47  C   UNL d   1       3.107  -8.025  14.587 -0.18 -0.00    +0.004 C 
DOCKED: ATOM     48  C   UNL d   1       3.374  -9.221  14.057 -0.22 -0.01    +0.012 C 
DOCKED: ENDBRANCH  17  47
DOCKED: TORSDOF 12
DOCKED: TER
DOCKED: ENDMDL
________________________________________________________________________________


	BEGINNING GENETIC ALGORITHM DOCKING 82 of 100
Run: 82 Seed: 7654725 685775842 [ Run 82 of 100 GA/GALS ]
Beginning LAMARCKIAN GENETIC ALGORITHM (LGA), with a maximum of 25000000 energy evaluations.

Final-Value: -9.783


	FINAL GENETIC ALGORITHM DOCKED STATE
	_______________________________________________


Detailed state:  trans -12.328 -0.939 10.828 quatxyzw -0.101482 0.554018 -0.654171 0.504802 center 8.781 34.984 -0.736 ntor 12 130.6221 158.0674 -170.5292 116.9417 80.7142 115.3134 -120.5743 149.6070 -125.0521 -11.2899 177.6113 175.6980
State:	-12.328  -0.939  10.828  -0.118  0.642 -0.758 119.364    130.62  158.07 -170.53  116.94   80.71  115.31 -120.57  149.61 -125.05  -11.29  177.61  175.70

DOCKED: MODEL       82
DOCKED: USER    Run = 82
DOCKED: USER    DPF = D:/Protein_go_brrr/autodock/final/mut_D99N/heme_Co/dock.dpf
DOCKED: USER  
DOCKED: USER    Estimated Free Energy of Binding    =   -4.26 kcal/mol  [=(1)+(2)+(3)-(4)]
DOCKED: USER    Estimated Inhibition Constant, Ki   =  757.64 uM (micromolar)  [Temperature = 298.15 K]
DOCKED: USER    
DOCKED: USER    (1) Final Intermolecular Energy     =   -7.84 kcal/mol
DOCKED: USER        vdW + Hbond + desolv Energy     =   -5.40 kcal/mol
DOCKED: USER        Electrostatic Energy            =   -2.43 kcal/mol
DOCKED: USER    (2) Final Total Internal Energy     =   -1.95 kcal/mol
DOCKED: USER    (3) Torsional Free Energy           =   +3.58 kcal/mol
DOCKED: USER    (4) Unbound System's Energy  [=(2)] =   -1.95 kcal/mol
DOCKED: USER    
DOCKED: USER    
DOCKED: USER    NEWDPF move heme_Co_opt.pdbqt
DOCKED: USER    NEWDPF about 8.781000 34.984000 -0.736000
DOCKED: USER    NEWDPF tran0 -12.328081 -0.939323 10.828330
DOCKED: USER    NEWDPF quaternion0 -0.101482 0.554018 -0.654171 0.504802
DOCKED: USER    NEWDPF axisangle0 -0.117560 0.641793 -0.757814 119.363606
DOCKED: USER    NEWDPF quat0 -0.117560 0.641793 -0.757814 119.363606
DOCKED: USER    NEWDPF dihe0 130.62 158.07 -170.53 116.94 80.71 115.31 -120.57 149.61 -125.05 -11.29 177.61 175.70 
DOCKED: USER  keepresnum = 1 
DOCKED: USER  
DOCKED: REMARK  12 active torsions:
DOCKED: REMARK  status: ('A' for Active; 'I' for Inactive)
DOCKED: REMARK    1  A    between atoms: C_6  and  C_10 
DOCKED: REMARK    2  A    between atoms: C_10  and  C_11 
DOCKED: REMARK    3  A    between atoms: C_11  and  C_12 
DOCKED: REMARK    4  A    between atoms: C_12  and  O_14 
DOCKED: REMARK    5  A    between atoms: C_17  and  C_20 
DOCKED: REMARK    6  A    between atoms: C_24  and  C_27 
DOCKED: REMARK    7  A    between atoms: C_31  and  C_34 
DOCKED: REMARK    8  A    between atoms: C_34  and  C_35 
DOCKED: REMARK    9  A    between atoms: C_35  and  C_36 
DOCKED: REMARK   10  A    between atoms: C_36  and  O_38 
DOCKED: REMARK   11  A    between atoms: FE_43  and  C_44 
DOCKED: REMARK   12  A    between atoms: C_44  and  O_45 
DOCKED: USER                              x       y       z     vdW  Elec       q    Type
DOCKED: USER                           _______ _______ _______ _____ _____    ______ ____
DOCKED: ROOT
DOCKED: ATOM      1  C   UNL d   1     -11.442  -1.235   8.868 -0.24 +0.03    +0.064 A 
DOCKED: ATOM      2  C   UNL d   1     -11.571  -3.963  12.760 -0.09 +0.01    +0.064 C 
DOCKED: ATOM      3  C   UNL d   1     -13.732  -0.462  15.189 -0.08 +0.03    +0.064 A 
DOCKED: ATOM      4  C   UNL d   1     -13.960   2.200  11.124 -0.17 +0.03    +0.064 A 
DOCKED: ATOM      5  C   UNL d   1     -11.286  -2.224   9.763 -0.20 +0.02    +0.066 A 
DOCKED: ATOM      6  C   UNL d   1     -10.743  -3.474   9.408 -0.25 -0.01    -0.021 A 
DOCKED: ATOM      7  C   UNL d   1     -10.804  -4.270  10.535 -0.10 -0.01    -0.025 A 
DOCKED: ATOM      8  C   UNL d   1     -11.366  -3.467  11.534 -0.11 +0.02    +0.066 A 
DOCKED: ATOM      9  C   UNL d   1     -10.355  -5.732  10.682 -0.13 +0.01    +0.051 C 
DOCKED: ATOM     10  C   UNL d   1     -12.118  -3.205  13.857 -0.07 +0.01    +0.066 A 
DOCKED: ATOM     11  C   UNL d   1     -12.228  -3.624  15.201 -0.05 -0.00    -0.021 A 
DOCKED: ATOM     12  C   UNL d   1     -12.858  -2.583  15.888 -0.05 +0.00    +0.000 A 
DOCKED: ATOM     13  C   UNL d   1     -13.074  -1.603  14.918 -0.08 +0.02    +0.070 A 
DOCKED: ATOM     14  C   UNL d   1     -11.675  -4.898  15.786 -0.04 +0.01    +0.052 C 
DOCKED: ATOM     15  C   UNL d   1     -14.087   0.628  14.302 -0.06 +0.04    +0.066 A 
DOCKED: ATOM     16  C   UNL d   1     -14.895   1.713  14.612 -0.09 -0.02    -0.021 A 
DOCKED: ATOM     17  C   UNL d   1     -14.965   2.482  13.442 -0.16 +0.00    +0.000 A 
DOCKED: ATOM     18  C   UNL d   1     -14.178   1.812  12.512 -0.17 +0.04    +0.070 A 
DOCKED: ATOM     19  C   UNL d   1     -15.544   1.966  15.955 -0.08 +0.04    +0.052 C 
DOCKED: ATOM     20  C   UNL d   1     -13.270   1.520  10.177 -0.15 +0.02    +0.066 A 
DOCKED: ATOM     21  C   UNL d   1     -13.160   1.977   8.865 -0.15 -0.01    -0.025 A 
DOCKED: ATOM     22  C   UNL d   1     -12.415   1.021   8.199 -0.20 -0.01    -0.021 A 
DOCKED: ATOM     23  C   UNL d   1     -12.115   0.015   9.141 -0.19 +0.02    +0.066 A 
DOCKED: ATOM     24  C   UNL d   1     -13.753   3.251   8.270 -0.16 +0.01    +0.051 C 
DOCKED: ATOM     25  N   UNL d   1     -11.669  -2.192  11.085 -0.08 -0.07    -0.248 N 
DOCKED: ATOM     26  N   UNL d   1     -12.575  -1.958  13.703 -0.05 -0.07    -0.248 N 
DOCKED: ATOM     27  N   UNL d   1     -13.695   0.697  13.049 -0.10 -0.14    -0.248 N 
DOCKED: ATOM     28  N   UNL d   1     -12.632   0.312  10.339 -0.08 -0.08    -0.248 N 
DOCKED: ATOM     29 FE   UNL d   1     -12.742  -0.660  12.122 -0.03 +0.00    +0.000 Fe
DOCKED: ENDROOT
DOCKED: BRANCH   6  30
DOCKED: ATOM     30  C   UNL d   1     -10.267  -3.899   8.022 -0.33 +0.02    +0.052 C 
DOCKED: BRANCH  30  31
DOCKED: ATOM     31  C   UNL d   1     -11.349  -4.708   7.307 -0.06 +0.06    +0.115 C 
DOCKED: BRANCH  31  32
DOCKED: ATOM     32  C   UNL d   1     -12.680  -3.988   7.273 -0.11 +0.11    +0.139 C 
DOCKED: ATOM     33  O   UNL d   1     -13.100  -3.552   6.211 -0.34 -1.14    -0.650 OA
DOCKED: BRANCH  32  34
DOCKED: ATOM     34  O   UNL d   1     -13.451  -3.850   8.377 +0.04 -0.35    -0.776 OA
DOCKED: ATOM     35  H   UNL d   1     -13.788  -3.005   8.703 +0.02 +0.07    +0.167 HD
DOCKED: ENDBRANCH  32  34
DOCKED: ENDBRANCH  31  32
DOCKED: ENDBRANCH  30  31
DOCKED: ENDBRANCH   6  30
DOCKED: BRANCH  29  36
DOCKED: ATOM     36  C   UNL d   1     -14.496  -1.631  11.511 -0.01 +0.05    +0.190 C 
DOCKED: BRANCH  36  37
DOCKED: ATOM     37  O   UNL d   1     -15.080  -2.303  10.433 +0.01 -0.09    -0.399 OA
DOCKED: ATOM     38  H   UNL d   1     -14.372  -2.924  10.104 +0.02 +0.05    +0.209 HD
DOCKED: ENDBRANCH  36  37
DOCKED: ENDBRANCH  29  36
DOCKED: BRANCH  22  39
DOCKED: ATOM     39  C   UNL d   1     -12.070   1.047   6.721 -0.19 +0.03    +0.052 C 
DOCKED: BRANCH  39  40
DOCKED: ATOM     40  C   UNL d   1     -13.231   0.487   5.883 -0.15 +0.09    +0.115 C 
DOCKED: BRANCH  40  41
DOCKED: ATOM     41  C   UNL d   1     -13.161   0.833   4.410 -0.16 +0.12    +0.139 C 
DOCKED: ATOM     42  O   UNL d   1     -13.393   1.980   4.054 +0.02 -0.28    -0.650 OA
DOCKED: BRANCH  41  43
DOCKED: ATOM     43  O   UNL d   1     -12.766  -0.071   3.486 -0.32 -1.33    -0.776 OA
DOCKED: ATOM     44  H   UNL d   1     -12.502   0.183   2.592 +0.05 +0.19    +0.167 HD
DOCKED: ENDBRANCH  41  43
DOCKED: ENDBRANCH  40  41
DOCKED: ENDBRANCH  39  40
DOCKED: ENDBRANCH  22  39
DOCKED: BRANCH  12  45
DOCKED: ATOM     45  C   UNL d   1     -13.262  -2.394  17.344 -0.04 +0.00    +0.004 C 
DOCKED: ATOM     46  C   UNL d   1     -12.755  -1.604  18.287 -0.05 +0.00    +0.012 C 
DOCKED: ENDBRANCH  12  45
DOCKED: BRANCH  17  47
DOCKED: ATOM     47  C   UNL d   1     -15.742   3.727  13.165 -0.18 +0.00    +0.004 C 
DOCKED: ATOM     48  C   UNL d   1     -15.595   4.858  13.859 -0.21 +0.01    +0.012 C 
DOCKED: ENDBRANCH  17  47
DOCKED: TORSDOF 12
DOCKED: TER
DOCKED: ENDMDL
________________________________________________________________________________


	BEGINNING GENETIC ALGORITHM DOCKING 83 of 100
Run: 83 Seed: 279780859 1964540128 [ Run 83 of 100 GA/GALS ]
Beginning LAMARCKIAN GENETIC ALGORITHM (LGA), with a maximum of 25000000 energy evaluations.

Final-Value: -10.272


	FINAL GENETIC ALGORITHM DOCKED STATE
	_______________________________________________


Detailed state:  trans -13.252 0.965 13.020 quatxyzw -0.479916 0.552652 -0.569208 0.374511 center 8.781 34.984 -0.736 ntor 12 44.7480 104.5106 -152.0537 120.5344 135.8939 76.9966 -161.3466 117.3260 59.9237 150.3509 179.7308 169.8113
State:	-13.252   0.965  13.020  -0.518  0.596 -0.614 136.012     44.75  104.51 -152.05  120.53  135.89   77.00 -161.35  117.33   59.92  150.35  179.73  169.81

DOCKED: MODEL       83
DOCKED: USER    Run = 83
DOCKED: USER    DPF = D:/Protein_go_brrr/autodock/final/mut_D99N/heme_Co/dock.dpf
DOCKED: USER  
DOCKED: USER    Estimated Free Energy of Binding    =   -4.56 kcal/mol  [=(1)+(2)+(3)-(4)]
DOCKED: USER    Estimated Inhibition Constant, Ki   =  452.51 uM (micromolar)  [Temperature = 298.15 K]
DOCKED: USER    
DOCKED: USER    (1) Final Intermolecular Energy     =   -8.14 kcal/mol
DOCKED: USER        vdW + Hbond + desolv Energy     =   -6.40 kcal/mol
DOCKED: USER        Electrostatic Energy            =   -1.74 kcal/mol
DOCKED: USER    (2) Final Total Internal Energy     =   -2.13 kcal/mol
DOCKED: USER    (3) Torsional Free Energy           =   +3.58 kcal/mol
DOCKED: USER    (4) Unbound System's Energy  [=(2)] =   -2.13 kcal/mol
DOCKED: USER    
DOCKED: USER    
DOCKED: USER    NEWDPF move heme_Co_opt.pdbqt
DOCKED: USER    NEWDPF about 8.781000 34.984000 -0.736000
DOCKED: USER    NEWDPF tran0 -13.251685 0.964899 13.019677
DOCKED: USER    NEWDPF quaternion0 -0.479916 0.552652 -0.569208 0.374511
DOCKED: USER    NEWDPF axisangle0 -0.517585 0.596029 -0.613885 136.011769
DOCKED: USER    NEWDPF quat0 -0.517585 0.596029 -0.613885 136.011769
DOCKED: USER    NEWDPF dihe0 44.75 104.51 -152.05 120.53 135.89 77.00 -161.35 117.33 59.92 150.35 179.73 169.81 
DOCKED: USER  keepresnum = 1 
DOCKED: USER  
DOCKED: REMARK  12 active torsions:
DOCKED: REMARK  status: ('A' for Active; 'I' for Inactive)
DOCKED: REMARK    1  A    between atoms: C_6  and  C_10 
DOCKED: REMARK    2  A    between atoms: C_10  and  C_11 
DOCKED: REMARK    3  A    between atoms: C_11  and  C_12 
DOCKED: REMARK    4  A    between atoms: C_12  and  O_14 
DOCKED: REMARK    5  A    between atoms: C_17  and  C_20 
DOCKED: REMARK    6  A    between atoms: C_24  and  C_27 
DOCKED: REMARK    7  A    between atoms: C_31  and  C_34 
DOCKED: REMARK    8  A    between atoms: C_34  and  C_35 
DOCKED: REMARK    9  A    between atoms: C_35  and  C_36 
DOCKED: REMARK   10  A    between atoms: C_36  and  O_38 
DOCKED: REMARK   11  A    between atoms: FE_43  and  C_44 
DOCKED: REMARK   12  A    between atoms: C_44  and  O_45 
DOCKED: USER                              x       y       z     vdW  Elec       q    Type
DOCKED: USER                           _______ _______ _______ _____ _____    ______ ____
DOCKED: ROOT
DOCKED: ATOM      1  C   UNL d   1     -13.341   1.952  11.088 -0.21 +0.03    +0.064 A 
DOCKED: ATOM      2  C   UNL d   1     -10.627  -1.582  12.747 -0.32 +0.02    +0.064 C 
DOCKED: ATOM      3  C   UNL d   1     -12.531  -1.052  17.097 -0.09 +0.02    +0.064 A 
DOCKED: ATOM      4  C   UNL d   1     -15.587   2.298  15.337 -0.08 +0.05    +0.064 A 
DOCKED: ATOM      5  C   UNL d   1     -12.434   0.972  11.230 -0.23 +0.03    +0.066 A 
DOCKED: ATOM      6  C   UNL d   1     -11.700   0.469  10.138 -0.28 -0.01    -0.021 A 
DOCKED: ATOM      7  C   UNL d   1     -10.931  -0.572  10.621 -0.36 -0.01    -0.025 A 
DOCKED: ATOM      8  C   UNL d   1     -11.216  -0.648  11.989 -0.26 +0.02    +0.066 A 
DOCKED: ATOM      9  C   UNL d   1      -9.961  -1.470   9.838 -0.46 +0.01    +0.051 C 
DOCKED: ATOM     10  C   UNL d   1     -10.838  -1.720  14.166 -0.22 +0.02    +0.066 A 
DOCKED: ATOM     11  C   UNL d   1     -10.147  -2.586  15.042 -0.27 -0.00    -0.021 A 
DOCKED: ATOM     12  C   UNL d   1     -10.720  -2.408  16.304 -0.19 +0.00    +0.000 A 
DOCKED: ATOM     13  C   UNL d   1     -11.706  -1.441  16.109 -0.14 +0.02    +0.070 A 
DOCKED: ATOM     14  C   UNL d   1      -8.959  -3.446  14.693 -0.20 +0.01    +0.052 C 
DOCKED: ATOM     15  C   UNL d   1     -13.632  -0.109  17.059 -0.07 +0.03    +0.066 A 
DOCKED: ATOM     16  C   UNL d   1     -14.538   0.139  18.080 -0.04 -0.01    -0.021 A 
DOCKED: ATOM     17  C   UNL d   1     -15.423   1.103  17.576 -0.05 +0.00    +0.000 A 
DOCKED: ATOM     18  C   UNL d   1     -14.975   1.380  16.289 -0.06 +0.06    +0.070 A 
DOCKED: ATOM     19  C   UNL d   1     -14.531  -0.522  19.440 -0.01 +0.01    +0.052 C 
DOCKED: ATOM     20  C   UNL d   1     -15.221   2.519  14.052 -0.10 +0.06    +0.066 A 
DOCKED: ATOM     21  C   UNL d   1     -15.911   3.401  13.223 -0.13 -0.01    -0.025 A 
DOCKED: ATOM     22  C   UNL d   1     -15.268   3.344  12.000 -0.16 -0.01    -0.021 A 
DOCKED: ATOM     23  C   UNL d   1     -14.217   2.413  12.141 -0.20 +0.04    +0.066 A 
DOCKED: ATOM     24  C   UNL d   1     -17.136   4.242  13.573 -0.06 +0.02    +0.051 C 
DOCKED: ATOM     25  N   UNL d   1     -12.139   0.300  12.395 -0.16 -0.12    -0.248 N 
DOCKED: ATOM     26  N   UNL d   1     -11.738  -0.985  14.828 -0.09 -0.11    -0.248 N 
DOCKED: ATOM     27  N   UNL d   1     -13.925   0.618  16.004 +0.08 -0.20    -0.248 N 
DOCKED: ATOM     28  N   UNL d   1     -14.186   1.910  13.381 -0.11 -0.21    -0.248 N 
DOCKED: ATOM     29 FE   UNL d   1     -13.087   0.471  14.305 -0.05 +0.00    +0.000 Fe
DOCKED: ENDROOT
DOCKED: BRANCH   6  30
DOCKED: ATOM     30  C   UNL d   1     -11.804   0.922   8.686 -0.27 +0.02    +0.052 C 
DOCKED: BRANCH  30  31
DOCKED: ATOM     31  C   UNL d   1     -12.749   0.010   7.905 -0.15 +0.05    +0.115 C 
DOCKED: BRANCH  31  32
DOCKED: ATOM     32  C   UNL d   1     -12.075  -0.637   6.714 -0.19 +0.12    +0.139 C 
DOCKED: ATOM     33  O   UNL d   1     -11.213  -1.483   6.897 -0.53 -0.58    -0.650 OA
DOCKED: BRANCH  32  34
DOCKED: ATOM     34  O   UNL d   1     -12.430  -0.342   5.441 -0.36 -1.09    -0.776 OA
DOCKED: ATOM     35  H   UNL d   1     -12.640   0.548   5.127 +0.04 +0.15    +0.167 HD
DOCKED: ENDBRANCH  32  34
DOCKED: ENDBRANCH  31  32
DOCKED: ENDBRANCH  30  31
DOCKED: ENDBRANCH   6  30
DOCKED: BRANCH  29  36
DOCKED: ATOM     36  C   UNL d   1     -14.423  -1.005  13.648 -0.04 +0.06    +0.190 C 
DOCKED: BRANCH  36  37
DOCKED: ATOM     37  O   UNL d   1     -15.547  -1.211  12.842 +0.00 -0.09    -0.399 OA
DOCKED: ATOM     38  H   UNL d   1     -15.844  -0.296  12.578 +0.02 +0.05    +0.209 HD
DOCKED: ENDBRANCH  36  37
DOCKED: ENDBRANCH  29  36
DOCKED: BRANCH  22  39
DOCKED: ATOM     39  C   UNL d   1     -15.687   4.095  10.750 -0.10 +0.02    +0.052 C 
DOCKED: BRANCH  39  40
DOCKED: ATOM     40  C   UNL d   1     -16.697   3.272   9.934 -0.03 +0.03    +0.115 C 
DOCKED: BRANCH  40  41
DOCKED: ATOM     41  C   UNL d   1     -16.455   1.777   9.967 -0.01 +0.03    +0.139 C 
DOCKED: ATOM     42  O   UNL d   1     -15.966   1.229   8.989 +0.02 -0.15    -0.650 OA
DOCKED: BRANCH  41  43
DOCKED: ATOM     43  O   UNL d   1     -16.684   1.044  11.079 +0.03 -0.17    -0.776 OA
DOCKED: ATOM     44  H   UNL d   1     -16.143   0.281  11.318 +0.01 +0.04    +0.167 HD
DOCKED: ENDBRANCH  41  43
DOCKED: ENDBRANCH  40  41
DOCKED: ENDBRANCH  39  40
DOCKED: ENDBRANCH  22  39
DOCKED: BRANCH  12  45
DOCKED: ATOM     45  C   UNL d   1     -10.438  -3.023  17.669 -0.13 +0.00    +0.004 C 
DOCKED: ATOM     46  C   UNL d   1      -9.941  -2.481  18.777 -0.13 +0.00    +0.012 C 
DOCKED: ENDBRANCH  12  45
DOCKED: BRANCH  17  47
DOCKED: ATOM     47  C   UNL d   1     -16.637   1.704  18.204 -0.02 +0.00    +0.004 C 
DOCKED: ATOM     48  C   UNL d   1     -16.733   2.993  18.539 -0.01 +0.00    +0.012 C 
DOCKED: ENDBRANCH  17  47
DOCKED: TORSDOF 12
DOCKED: TER
DOCKED: ENDMDL
________________________________________________________________________________


	BEGINNING GENETIC ALGORITHM DOCKING 84 of 100
Run: 84 Seed: 2141325718 421484977 [ Run 84 of 100 GA/GALS ]
Beginning LAMARCKIAN GENETIC ALGORITHM (LGA), with a maximum of 25000000 energy evaluations.

Final-Value: -9.735


	FINAL GENETIC ALGORITHM DOCKED STATE
	_______________________________________________


Detailed state:  trans -4.289 17.115 8.821 quatxyzw -0.123192 -0.060714 0.094915 -0.985966 center 8.781 34.984 -0.736 ntor 12 -179.8778 117.0405 -124.1352 108.5006 138.0921 121.0894 37.5101 88.8794 -116.3832 116.9224 -178.4513 -160.8003
State:	 -4.289  17.115   8.821  -0.738 -0.364  0.569 -19.221   -179.88  117.04 -124.14  108.50  138.09  121.09   37.51   88.88 -116.38  116.92 -178.45 -160.80

DOCKED: MODEL       84
DOCKED: USER    Run = 84
DOCKED: USER    DPF = D:/Protein_go_brrr/autodock/final/mut_D99N/heme_Co/dock.dpf
DOCKED: USER  
DOCKED: USER    Estimated Free Energy of Binding    =   -2.85 kcal/mol  [=(1)+(2)+(3)-(4)]
DOCKED: USER    Estimated Inhibition Constant, Ki   =    8.18 mM (millimolar)  [Temperature = 298.15 K]
DOCKED: USER    
DOCKED: USER    (1) Final Intermolecular Energy     =   -6.43 kcal/mol
DOCKED: USER        vdW + Hbond + desolv Energy     =   -6.45 kcal/mol
DOCKED: USER        Electrostatic Energy            =   +0.03 kcal/mol
DOCKED: USER    (2) Final Total Internal Energy     =   -3.31 kcal/mol
DOCKED: USER    (3) Torsional Free Energy           =   +3.58 kcal/mol
DOCKED: USER    (4) Unbound System's Energy  [=(2)] =   -3.31 kcal/mol
DOCKED: USER    
DOCKED: USER    
DOCKED: USER    NEWDPF move heme_Co_opt.pdbqt
DOCKED: USER    NEWDPF about 8.781000 34.984000 -0.736000
DOCKED: USER    NEWDPF tran0 -4.288907 17.115271 8.820785
DOCKED: USER    NEWDPF quaternion0 -0.123192 -0.060714 0.094915 -0.985966
DOCKED: USER    NEWDPF axisangle0 -0.737910 -0.363671 0.568535 -19.220697
DOCKED: USER    NEWDPF quat0 -0.737910 -0.363671 0.568535 -19.220697
DOCKED: USER    NEWDPF dihe0 -179.88 117.04 -124.14 108.50 138.09 121.09 37.51 88.88 -116.38 116.92 -178.45 -160.80 
DOCKED: USER  keepresnum = 1 
DOCKED: USER  
DOCKED: REMARK  12 active torsions:
DOCKED: REMARK  status: ('A' for Active; 'I' for Inactive)
DOCKED: REMARK    1  A    between atoms: C_6  and  C_10 
DOCKED: REMARK    2  A    between atoms: C_10  and  C_11 
DOCKED: REMARK    3  A    between atoms: C_11  and  C_12 
DOCKED: REMARK    4  A    between atoms: C_12  and  O_14 
DOCKED: REMARK    5  A    between atoms: C_17  and  C_20 
DOCKED: REMARK    6  A    between atoms: C_24  and  C_27 
DOCKED: REMARK    7  A    between atoms: C_31  and  C_34 
DOCKED: REMARK    8  A    between atoms: C_34  and  C_35 
DOCKED: REMARK    9  A    between atoms: C_35  and  C_36 
DOCKED: REMARK   10  A    between atoms: C_36  and  O_38 
DOCKED: REMARK   11  A    between atoms: FE_43  and  C_44 
DOCKED: REMARK   12  A    between atoms: C_44  and  O_45 
DOCKED: USER                              x       y       z     vdW  Elec       q    Type
DOCKED: USER                           _______ _______ _______ _____ _____    ______ ____
DOCKED: ROOT
DOCKED: ATOM      1  C   UNL d   1      -6.139  17.002   7.689 -0.19 +0.00    +0.064 A 
DOCKED: ATOM      2  C   UNL d   1      -4.988  15.590  12.082 -0.17 -0.01    +0.064 C 
DOCKED: ATOM      3  C   UNL d   1      -0.437  16.833  11.330 -0.13 -0.00    +0.064 A 
DOCKED: ATOM      4  C   UNL d   1      -1.662  18.638   6.982 -0.20 +0.01    +0.064 A 
DOCKED: ATOM      5  C   UNL d   1      -6.152  16.492   8.932 -0.22 -0.00    +0.066 A 
DOCKED: ATOM      6  C   UNL d   1      -7.343  16.072   9.555 -0.22 +0.00    -0.021 A 
DOCKED: ATOM      7  C   UNL d   1      -7.007  15.684  10.837 -0.19 +0.00    -0.025 A 
DOCKED: ATOM      8  C   UNL d   1      -5.624  15.868  10.936 -0.17 -0.01    +0.066 A 
DOCKED: ATOM      9  C   UNL d   1      -7.941  15.159  11.938 -0.17 -0.01    +0.051 C 
DOCKED: ATOM     10  C   UNL d   1      -3.565  15.723  12.269 -0.13 -0.02    +0.066 A 
DOCKED: ATOM     11  C   UNL d   1      -2.821  15.315  13.397 -0.16 +0.01    -0.021 A 
DOCKED: ATOM     12  C   UNL d   1      -1.496  15.686  13.149 -0.23 -0.00    +0.000 A 
DOCKED: ATOM     13  C   UNL d   1      -1.528  16.279  11.887 -0.18 -0.01    +0.070 A 
DOCKED: ATOM     14  C   UNL d   1      -3.344  14.539  14.578 -0.28 -0.01    +0.052 C 
DOCKED: ATOM     15  C   UNL d   1      -0.302  17.530  10.065 -0.12 +0.00    +0.066 A 
DOCKED: ATOM     16  C   UNL d   1       0.822  18.206   9.614 -0.12 -0.00    -0.021 A 
DOCKED: ATOM     17  C   UNL d   1       0.473  18.730   8.361 -0.17 +0.00    +0.000 A 
DOCKED: ATOM     18  C   UNL d   1      -0.836  18.316   8.139 -0.23 +0.01    +0.070 A 
DOCKED: ATOM     19  C   UNL d   1       2.132  18.325  10.360 -0.10 +0.00    +0.052 C 
DOCKED: ATOM     20  C   UNL d   1      -2.964  18.320   6.784 -0.16 +0.01    +0.066 A 
DOCKED: ATOM     21  C   UNL d   1      -3.661  18.718   5.645 -0.12 -0.01    -0.025 A 
DOCKED: ATOM     22  C   UNL d   1      -4.947  18.235   5.808 -0.24 -0.01    -0.021 A 
DOCKED: ATOM     23  C   UNL d   1      -4.973  17.573   7.053 -0.25 +0.01    +0.066 A 
DOCKED: ATOM     24  C   UNL d   1      -3.134  19.535   4.468 -0.14 +0.01    +0.051 C 
DOCKED: ATOM     25  N   UNL d   1      -5.067  16.362   9.769 -0.13 +0.02    -0.248 N 
DOCKED: ATOM     26  N   UNL d   1      -2.769  16.250  11.332 -0.13 +0.04    -0.248 N 
DOCKED: ATOM     27  N   UNL d   1      -1.276  17.629   9.188 -0.17 -0.01    -0.248 N 
DOCKED: ATOM     28  N   UNL d   1      -3.776  17.624   7.648 -0.17 -0.02    -0.248 N 
DOCKED: ATOM     29 FE   UNL d   1      -3.060  17.034   9.458 -0.05 -0.00    +0.000 Fe
DOCKED: ENDROOT
DOCKED: BRANCH   6  30
DOCKED: ATOM     30  C   UNL d   1      -8.747  16.123   8.962 -0.23 -0.03    +0.052 C 
DOCKED: BRANCH  30  31
DOCKED: ATOM     31  C   UNL d   1      -9.459  17.410   9.378 -0.12 -0.06    +0.115 C 
DOCKED: BRANCH  31  32
DOCKED: ATOM     32  C   UNL d   1      -8.749  18.650   8.879 -0.05 -0.03    +0.139 C 
DOCKED: ATOM     33  O   UNL d   1      -7.918  19.194   9.590 +0.02 +0.07    -0.650 OA
DOCKED: BRANCH  32  34
DOCKED: ATOM     34  O   UNL d   1      -8.969  19.154   7.642 +0.04 +0.08    -0.776 OA
DOCKED: ATOM     35  H   UNL d   1      -8.576  19.974   7.311 +0.02 -0.00    +0.167 HD
DOCKED: ENDBRANCH  32  34
DOCKED: ENDBRANCH  31  32
DOCKED: ENDBRANCH  30  31
DOCKED: ENDBRANCH   6  30
DOCKED: BRANCH  29  36
DOCKED: ATOM     36  C   UNL d   1      -3.656  18.853  10.313 -0.03 -0.01    +0.190 C 
DOCKED: BRANCH  36  37
DOCKED: ATOM     37  O   UNL d   1      -4.742  19.726  10.430 +0.00 +0.01    -0.399 OA
DOCKED: ATOM     38  H   UNL d   1      -5.493  19.265   9.962 +0.02 -0.01    +0.209 HD
DOCKED: ENDBRANCH  36  37
DOCKED: ENDBRANCH  29  36
DOCKED: BRANCH  22  39
DOCKED: ATOM     39  C   UNL d   1      -6.099  18.459   4.846 -0.20 +0.03    +0.052 C 
DOCKED: BRANCH  39  40
DOCKED: ATOM     40  C   UNL d   1      -6.377  19.961   4.673 -0.09 +0.03    +0.115 C 
DOCKED: BRANCH  40  41
DOCKED: ATOM     41  C   UNL d   1      -6.945  20.637   5.903 -0.02 +0.02    +0.139 C 
DOCKED: ATOM     42  O   UNL d   1      -7.914  21.375   5.787 +0.02 -0.05    -0.650 OA
DOCKED: BRANCH  41  43
DOCKED: ATOM     43  O   UNL d   1      -6.466  20.379   7.140 +0.04 -0.04    -0.776 OA
DOCKED: ATOM     44  H   UNL d   1      -7.010  19.989   7.837 +0.02 +0.00    +0.167 HD
DOCKED: ENDBRANCH  41  43
DOCKED: ENDBRANCH  40  41
DOCKED: ENDBRANCH  39  40
DOCKED: ENDBRANCH  22  39
DOCKED: BRANCH  12  45
DOCKED: ATOM     45  C   UNL d   1      -0.208  15.533  13.947 -0.27 -0.00    +0.004 C 
DOCKED: ATOM     46  C   UNL d   1       0.778  14.646  13.838 -0.34 -0.00    +0.012 C 
DOCKED: ENDBRANCH  12  45
DOCKED: BRANCH  17  47
DOCKED: ATOM     47  C   UNL d   1       1.261  19.600   7.438 -0.14 +0.00    +0.004 C 
DOCKED: ATOM     48  C   UNL d   1       1.643  19.222   6.216 -0.22 +0.00    +0.012 C 
DOCKED: ENDBRANCH  17  47
DOCKED: TORSDOF 12
DOCKED: TER
DOCKED: ENDMDL
________________________________________________________________________________


	BEGINNING GENETIC ALGORITHM DOCKING 85 of 100
Run: 85 Seed: 2141686921 1547120052 [ Run 85 of 100 GA/GALS ]
Beginning LAMARCKIAN GENETIC ALGORITHM (LGA), with a maximum of 25000000 energy evaluations.

Final-Value: -9.827


	FINAL GENETIC ALGORITHM DOCKED STATE
	_______________________________________________


Detailed state:  trans -2.991 19.099 4.313 quatxyzw 0.184331 0.155814 0.086755 0.966549 center 8.781 34.984 -0.736 ntor 12 -177.0241 122.9552 -74.6812 34.5814 143.1139 131.4801 30.7426 -127.7969 176.5875 -76.9881 -171.2410 -9.7553
State:	 -2.991  19.099   4.313   0.719  0.608  0.338 29.723   -177.02  122.96  -74.68   34.58  143.11  131.48   30.74 -127.80  176.59  -76.99 -171.24   -9.76

DOCKED: MODEL       85
DOCKED: USER    Run = 85
DOCKED: USER    DPF = D:/Protein_go_brrr/autodock/final/mut_D99N/heme_Co/dock.dpf
DOCKED: USER  
DOCKED: USER    Estimated Free Energy of Binding    =   -4.03 kcal/mol  [=(1)+(2)+(3)-(4)]
DOCKED: USER    Estimated Inhibition Constant, Ki   =    1.11 mM (millimolar)  [Temperature = 298.15 K]
DOCKED: USER    
DOCKED: USER    (1) Final Intermolecular Energy     =   -7.61 kcal/mol
DOCKED: USER        vdW + Hbond + desolv Energy     =   -6.35 kcal/mol
DOCKED: USER        Electrostatic Energy            =   -1.26 kcal/mol
DOCKED: USER    (2) Final Total Internal Energy     =   -2.22 kcal/mol
DOCKED: USER    (3) Torsional Free Energy           =   +3.58 kcal/mol
DOCKED: USER    (4) Unbound System's Energy  [=(2)] =   -2.22 kcal/mol
DOCKED: USER    
DOCKED: USER    
DOCKED: USER    NEWDPF move heme_Co_opt.pdbqt
DOCKED: USER    NEWDPF about 8.781000 34.984000 -0.736000
DOCKED: USER    NEWDPF tran0 -2.991409 19.099312 4.313291
DOCKED: USER    NEWDPF quaternion0 0.184331 0.155814 0.086755 0.966549
DOCKED: USER    NEWDPF axisangle0 0.718692 0.607508 0.338254 29.722651
DOCKED: USER    NEWDPF quat0 0.718692 0.607508 0.338254 29.722651
DOCKED: USER    NEWDPF dihe0 -177.02 122.96 -74.68 34.58 143.11 131.48 30.74 -127.80 176.59 -76.99 -171.24 -9.76 
DOCKED: USER  keepresnum = 1 
DOCKED: USER  
DOCKED: REMARK  12 active torsions:
DOCKED: REMARK  status: ('A' for Active; 'I' for Inactive)
DOCKED: REMARK    1  A    between atoms: C_6  and  C_10 
DOCKED: REMARK    2  A    between atoms: C_10  and  C_11 
DOCKED: REMARK    3  A    between atoms: C_11  and  C_12 
DOCKED: REMARK    4  A    between atoms: C_12  and  O_14 
DOCKED: REMARK    5  A    between atoms: C_17  and  C_20 
DOCKED: REMARK    6  A    between atoms: C_24  and  C_27 
DOCKED: REMARK    7  A    between atoms: C_31  and  C_34 
DOCKED: REMARK    8  A    between atoms: C_34  and  C_35 
DOCKED: REMARK    9  A    between atoms: C_35  and  C_36 
DOCKED: REMARK   10  A    between atoms: C_36  and  O_38 
DOCKED: REMARK   11  A    between atoms: FE_43  and  C_44 
DOCKED: REMARK   12  A    between atoms: C_44  and  O_45 
DOCKED: USER                              x       y       z     vdW  Elec       q    Type
DOCKED: USER                           _______ _______ _______ _____ _____    ______ ____
DOCKED: ROOT
DOCKED: ATOM      1  C   UNL d   1      -4.462  19.444   2.753 -0.12 +0.03    +0.064 A 
DOCKED: ATOM      2  C   UNL d   1      -4.888  18.298   7.349 -0.18 +0.01    +0.064 C 
DOCKED: ATOM      3  C   UNL d   1      -0.141  17.915   7.731 -0.20 +0.01    +0.064 A 
DOCKED: ATOM      4  C   UNL d   1       0.341  19.459   3.143 -0.18 +0.01    +0.064 A 
DOCKED: ATOM      5  C   UNL d   1      -4.929  19.124   3.971 -0.17 +0.03    +0.066 A 
DOCKED: ATOM      6  C   UNL d   1      -6.300  19.189   4.287 -0.11 -0.01    -0.021 A 
DOCKED: ATOM      7  C   UNL d   1      -6.416  18.878   5.628 -0.14 -0.01    -0.025 A 
DOCKED: ATOM      8  C   UNL d   1      -5.113  18.620   6.068 -0.17 +0.01    +0.066 A 
DOCKED: ATOM      9  C   UNL d   1      -7.696  18.821   6.475 -0.12 +0.01    +0.051 C 
DOCKED: ATOM     10  C   UNL d   1      -3.586  17.991   7.886 -0.19 +0.00    +0.066 A 
DOCKED: ATOM     11  C   UNL d   1      -3.301  17.511   9.183 -0.20 +0.00    -0.021 A 
DOCKED: ATOM     12  C   UNL d   1      -1.910  17.404   9.266 -0.25 -0.00    +0.000 A 
DOCKED: ATOM     13  C   UNL d   1      -1.451  17.813   8.014 -0.24 +0.01    +0.070 A 
DOCKED: ATOM     14  C   UNL d   1      -4.310  17.097  10.223 -0.16 -0.00    +0.052 C 
DOCKED: ATOM     15  C   UNL d   1       0.506  18.367   6.515 -0.30 +0.01    +0.066 A 
DOCKED: ATOM     16  C   UNL d   1       1.864  18.586   6.337 -0.24 -0.00    -0.021 A 
DOCKED: ATOM     17  C   UNL d   1       2.008  19.034   5.016 -0.19 +0.00    +0.000 A 
DOCKED: ATOM     18  C   UNL d   1       0.723  19.037   4.485 -0.17 +0.01    +0.070 A 
DOCKED: ATOM     19  C   UNL d   1       2.932  18.371   7.387 -0.13 +0.00    +0.052 C 
DOCKED: ATOM     20  C   UNL d   1      -0.910  19.552   2.633 -0.17 +0.01    +0.066 A 
DOCKED: ATOM     21  C   UNL d   1      -1.153  20.006   1.339 -0.10 -0.00    -0.025 A 
DOCKED: ATOM     22  C   UNL d   1      -2.528  19.985   1.188 -0.08 -0.00    -0.021 A 
DOCKED: ATOM     23  C   UNL d   1      -3.060  19.527   2.412 -0.13 +0.02    +0.066 A 
DOCKED: ATOM     24  C   UNL d   1      -0.128  20.458   0.302 -0.06 +0.00    +0.051 C 
DOCKED: ATOM     25  N   UNL d   1      -4.172  18.759   5.062 -0.11 -0.07    -0.248 N 
DOCKED: ATOM     26  N   UNL d   1      -2.468  18.114   7.163 -0.13 -0.03    -0.248 N 
DOCKED: ATOM     27  N   UNL d   1      -0.150  18.663   5.415 -0.18 -0.04    -0.248 N 
DOCKED: ATOM     28  N   UNL d   1      -2.084  19.266   3.290 -0.08 -0.06    -0.248 N 
DOCKED: ATOM     29 FE   UNL d   1      -2.042  18.709   5.245 -0.06 +0.00    +0.000 Fe
DOCKED: ENDROOT
DOCKED: BRANCH   6  30
DOCKED: ATOM     30  C   UNL d   1      -7.429  19.613   3.354 -0.05 +0.03    +0.052 C 
DOCKED: BRANCH  30  31
DOCKED: ATOM     31  C   UNL d   1      -7.614  21.130   3.389 -0.03 +0.03    +0.115 C 
DOCKED: BRANCH  31  32
DOCKED: ATOM     32  C   UNL d   1      -6.731  21.795   4.422 -0.01 +0.02    +0.139 C 
DOCKED: ATOM     33  O   UNL d   1      -7.199  22.096   5.510 +0.01 -0.05    -0.650 OA
DOCKED: BRANCH  32  34
DOCKED: ATOM     34  O   UNL d   1      -5.416  22.028   4.199 +0.03 -0.10    -0.776 OA
DOCKED: ATOM     35  H   UNL d   1      -4.827  22.465   4.829 +0.01 +0.01    +0.167 HD
DOCKED: ENDBRANCH  32  34
DOCKED: ENDBRANCH  31  32
DOCKED: ENDBRANCH  30  31
DOCKED: ENDBRANCH   6  30
DOCKED: BRANCH  29  36
DOCKED: ATOM     36  C   UNL d   1      -2.158  20.715   5.844 -0.05 +0.02    +0.190 C 
DOCKED: BRANCH  36  37
DOCKED: ATOM     37  O   UNL d   1      -2.963  21.856   5.765 +0.00 -0.03    -0.399 OA
DOCKED: ATOM     38  H   UNL d   1      -3.821  21.538   5.367 +0.02 +0.02    +0.209 HD
DOCKED: ENDBRANCH  36  37
DOCKED: ENDBRANCH  29  36
DOCKED: BRANCH  22  39
DOCKED: ATOM     39  C   UNL d   1      -3.285  20.444  -0.044 -0.03 +0.01    +0.052 C 
DOCKED: BRANCH  39  40
DOCKED: ATOM     40  C   UNL d   1      -3.516  19.269  -1.008 -0.05 +0.04    +0.115 C 
DOCKED: BRANCH  40  41
DOCKED: ATOM     41  C   UNL d   1      -4.879  18.621  -0.889 -0.08 +0.10    +0.139 C 
DOCKED: ATOM     42  O   UNL d   1      -5.742  19.163  -0.212 -0.45 -0.65    -0.650 OA
DOCKED: BRANCH  41  43
DOCKED: ATOM     43  O   UNL d   1      -5.198  17.504  -1.579 -0.41 -0.76    -0.776 OA
DOCKED: ATOM     44  H   UNL d   1      -5.298  17.498  -2.540 +0.03 +0.12    +0.167 HD
DOCKED: ENDBRANCH  41  43
DOCKED: ENDBRANCH  40  41
DOCKED: ENDBRANCH  39  40
DOCKED: ENDBRANCH  22  39
DOCKED: BRANCH  12  45
DOCKED: ATOM     45  C   UNL d   1      -0.968  16.947  10.372 -0.18 -0.00    +0.004 C 
DOCKED: ATOM     46  C   UNL d   1      -1.166  16.112  11.389 -0.25 -0.00    +0.012 C 
DOCKED: ENDBRANCH  12  45
DOCKED: BRANCH  17  47
DOCKED: ATOM     47  C   UNL d   1       3.233  19.483   4.289 -0.15 +0.00    +0.004 C 
DOCKED: ATOM     48  C   UNL d   1       3.674  18.912   3.166 -0.16 +0.00    +0.012 C 
DOCKED: ENDBRANCH  17  47
DOCKED: TORSDOF 12
DOCKED: TER
DOCKED: ENDMDL
________________________________________________________________________________


	BEGINNING GENETIC ALGORITHM DOCKING 86 of 100
Run: 86 Seed: 1651279801 1269729776 [ Run 86 of 100 GA/GALS ]
Beginning LAMARCKIAN GENETIC ALGORITHM (LGA), with a maximum of 25000000 energy evaluations.

Final-Value: -10.024


	FINAL GENETIC ALGORITHM DOCKED STATE
	_______________________________________________


Detailed state:  trans 0.293 18.364 8.622 quatxyzw 0.076769 -0.668427 -0.351065 -0.651202 center 8.781 34.984 -0.736 ntor 12 144.8826 97.9163 -76.0906 -8.6924 120.6482 118.5605 -117.3067 -15.8815 -127.0591 -176.7694 180.0000 173.5935
State:	  0.293  18.364   8.622   0.101 -0.881 -0.463 -98.735    144.88   97.92  -76.09   -8.69  120.65  118.56 -117.31  -15.88 -127.06 -176.77  180.00  173.59

DOCKED: MODEL       86
DOCKED: USER    Run = 86
DOCKED: USER    DPF = D:/Protein_go_brrr/autodock/final/mut_D99N/heme_Co/dock.dpf
DOCKED: USER  
DOCKED: USER    Estimated Free Energy of Binding    =   -2.55 kcal/mol  [=(1)+(2)+(3)-(4)]
DOCKED: USER    Estimated Inhibition Constant, Ki   =   13.46 mM (millimolar)  [Temperature = 298.15 K]
DOCKED: USER    
DOCKED: USER    (1) Final Intermolecular Energy     =   -6.13 kcal/mol
DOCKED: USER        vdW + Hbond + desolv Energy     =   -6.09 kcal/mol
DOCKED: USER        Electrostatic Energy            =   -0.04 kcal/mol
DOCKED: USER    (2) Final Total Internal Energy     =   -3.89 kcal/mol
DOCKED: USER    (3) Torsional Free Energy           =   +3.58 kcal/mol
DOCKED: USER    (4) Unbound System's Energy  [=(2)] =   -3.89 kcal/mol
DOCKED: USER    
DOCKED: USER    
DOCKED: USER    NEWDPF move heme_Co_opt.pdbqt
DOCKED: USER    NEWDPF about 8.781000 34.984000 -0.736000
DOCKED: USER    NEWDPF tran0 0.292594 18.364198 8.622415
DOCKED: USER    NEWDPF quaternion0 0.076769 -0.668427 -0.351065 -0.651202
DOCKED: USER    NEWDPF axisangle0 0.101158 -0.880780 -0.462595 -98.735361
DOCKED: USER    NEWDPF quat0 0.101158 -0.880780 -0.462595 -98.735361
DOCKED: USER    NEWDPF dihe0 144.88 97.92 -76.09 -8.69 120.65 118.56 -117.31 -15.88 -127.06 -176.77 180.00 173.59 
DOCKED: USER  keepresnum = 1 
DOCKED: USER  
DOCKED: REMARK  12 active torsions:
DOCKED: REMARK  status: ('A' for Active; 'I' for Inactive)
DOCKED: REMARK    1  A    between atoms: C_6  and  C_10 
DOCKED: REMARK    2  A    between atoms: C_10  and  C_11 
DOCKED: REMARK    3  A    between atoms: C_11  and  C_12 
DOCKED: REMARK    4  A    between atoms: C_12  and  O_14 
DOCKED: REMARK    5  A    between atoms: C_17  and  C_20 
DOCKED: REMARK    6  A    between atoms: C_24  and  C_27 
DOCKED: REMARK    7  A    between atoms: C_31  and  C_34 
DOCKED: REMARK    8  A    between atoms: C_34  and  C_35 
DOCKED: REMARK    9  A    between atoms: C_35  and  C_36 
DOCKED: REMARK   10  A    between atoms: C_36  and  O_38 
DOCKED: REMARK   11  A    between atoms: FE_43  and  C_44 
DOCKED: REMARK   12  A    between atoms: C_44  and  O_45 
DOCKED: USER                              x       y       z     vdW  Elec       q    Type
DOCKED: USER                           _______ _______ _______ _____ _____    ______ ____
DOCKED: ROOT
DOCKED: ATOM      1  C   UNL d   1       1.526  19.504   7.246 -0.12 +0.00    +0.064 A 
DOCKED: ATOM      2  C   UNL d   1      -3.046  18.205   7.113 -0.23 +0.01    +0.064 C 
DOCKED: ATOM      3  C   UNL d   1      -2.478  15.658  11.116 -0.20 -0.02    +0.064 A 
DOCKED: ATOM      4  C   UNL d   1       2.093  17.282  11.484 -0.08 -0.00    +0.064 A 
DOCKED: ATOM      5  C   UNL d   1       0.245  19.307   6.896 -0.17 +0.01    +0.066 A 
DOCKED: ATOM      6  C   UNL d   1      -0.337  19.957   5.790 -0.14 -0.00    -0.021 A 
DOCKED: ATOM      7  C   UNL d   1      -1.669  19.595   5.770 -0.15 -0.00    -0.025 A 
DOCKED: ATOM      8  C   UNL d   1      -1.840  18.726   6.853 -0.19 +0.01    +0.066 A 
DOCKED: ATOM      9  C   UNL d   1      -2.752  20.041   4.775 -0.12 +0.01    +0.051 C 
DOCKED: ATOM     10  C   UNL d   1      -3.312  17.283   8.189 -0.23 +0.00    +0.066 A 
DOCKED: ATOM     11  C   UNL d   1      -4.520  16.593   8.429 -0.34 +0.00    -0.021 A 
DOCKED: ATOM     12  C   UNL d   1      -4.325  15.855   9.600 -0.35 -0.00    +0.000 A 
DOCKED: ATOM     13  C   UNL d   1      -3.013  16.138   9.979 -0.28 -0.01    +0.070 A 
DOCKED: ATOM     14  C   UNL d   1      -5.733  16.580   7.535 -0.31 +0.00    +0.052 C 
DOCKED: ATOM     15  C   UNL d   1      -1.165  15.890  11.683 -0.21 -0.01    +0.066 A 
DOCKED: ATOM     16  C   UNL d   1      -0.725  15.482  12.935 -0.26 +0.00    -0.021 A 
DOCKED: ATOM     17  C   UNL d   1       0.592  15.950  13.047 -0.18 -0.00    +0.000 A 
DOCKED: ATOM     18  C   UNL d   1       0.859  16.595  11.844 -0.11 -0.00    +0.070 A 
DOCKED: ATOM     19  C   UNL d   1      -1.540  14.695  13.937 -0.33 -0.02    +0.052 C 
DOCKED: ATOM     20  C   UNL d   1       2.344  17.989  10.357 -0.06 +0.00    +0.066 A 
DOCKED: ATOM     21  C   UNL d   1       3.559  18.637  10.141 -0.07 +0.00    -0.025 A 
DOCKED: ATOM     22  C   UNL d   1       3.435  19.262   8.914 -0.07 -0.00    -0.021 A 
DOCKED: ATOM     23  C   UNL d   1       2.137  18.972   8.443 -0.11 +0.00    +0.066 A 
DOCKED: ATOM     24  C   UNL d   1       4.771  18.676  11.067 -0.03 -0.00    +0.051 C 
DOCKED: ATOM     25  N   UNL d   1      -0.670  18.525   7.565 -0.17 -0.02    -0.248 N 
DOCKED: ATOM     26  N   UNL d   1      -2.384  16.957   9.094 -0.20 +0.01    -0.248 N 
DOCKED: ATOM     27  N   UNL d   1      -0.220  16.566  11.068 -0.05 +0.01    -0.248 N 
DOCKED: ATOM     28  N   UNL d   1       1.472  18.204   9.315 -0.06 -0.01    -0.248 N 
DOCKED: ATOM     29 FE   UNL d   1      -0.428  17.488   9.420 -0.05 +0.00    +0.000 Fe
DOCKED: ENDROOT
DOCKED: BRANCH   6  30
DOCKED: ATOM     30  C   UNL d   1       0.349  20.945   4.852 -0.08 +0.00    +0.052 C 
DOCKED: BRANCH  30  31
DOCKED: ATOM     31  C   UNL d   1       0.073  22.383   5.291 -0.01 +0.00    +0.115 C 
DOCKED: BRANCH  31  32
DOCKED: ATOM     32  C   UNL d   1       0.375  22.607   6.757 -0.01 +0.00    +0.139 C 
DOCKED: ATOM     33  O   UNL d   1       1.299  23.342   7.075 +0.00 -0.01    -0.650 OA
DOCKED: BRANCH  32  34
DOCKED: ATOM     34  O   UNL d   1      -0.378  22.056   7.737 +0.02 -0.02    -0.776 OA
DOCKED: ATOM     35  H   UNL d   1      -0.019  21.692   8.559 +0.01 +0.00    +0.167 HD
DOCKED: ENDBRANCH  32  34
DOCKED: ENDBRANCH  31  32
DOCKED: ENDBRANCH  30  31
DOCKED: ENDBRANCH   6  30
DOCKED: BRANCH  29  36
DOCKED: ATOM     36  C   UNL d   1      -1.065  19.251  10.359 -0.04 -0.00    +0.190 C 
DOCKED: BRANCH  36  37
DOCKED: ATOM     37  O   UNL d   1      -0.997  20.645  10.275 -0.00 +0.00    -0.399 OA
DOCKED: ATOM     38  H   UNL d   1      -0.247  20.828   9.642 +0.02 +0.00    +0.209 HD
DOCKED: ENDBRANCH  36  37
DOCKED: ENDBRANCH  29  36
DOCKED: BRANCH  22  39
DOCKED: ATOM     39  C   UNL d   1       4.487  20.142   8.265 -0.03 +0.00    +0.052 C 
DOCKED: BRANCH  39  40
DOCKED: ATOM     40  C   UNL d   1       4.377  21.587   8.776 -0.01 -0.00    +0.115 C 
DOCKED: BRANCH  40  41
DOCKED: ATOM     41  C   UNL d   1       3.237  21.822   9.746 -0.01 -0.00    +0.139 C 
DOCKED: ATOM     42  O   UNL d   1       3.481  22.259  10.861 +0.00 +0.01    -0.650 OA
DOCKED: BRANCH  41  43
DOCKED: ATOM     43  O   UNL d   1       1.948  21.643   9.383 +0.01 -0.00    -0.776 OA
DOCKED: ATOM     44  H   UNL d   1       1.497  22.230   8.762 +0.00 +0.00    +0.167 HD
DOCKED: ENDBRANCH  41  43
DOCKED: ENDBRANCH  40  41
DOCKED: ENDBRANCH  39  40
DOCKED: ENDBRANCH  22  39
DOCKED: BRANCH  12  45
DOCKED: ATOM     45  C   UNL d   1      -5.217  14.906  10.389 -0.31 -0.00    +0.004 C 
DOCKED: ATOM     46  C   UNL d   1      -6.535  14.731  10.361 -0.39 -0.00    +0.012 C 
DOCKED: ENDBRANCH  12  45
DOCKED: BRANCH  17  47
DOCKED: ATOM     47  C   UNL d   1       1.541  15.863  14.197 -0.17 -0.00    +0.004 C 
DOCKED: ATOM     48  C   UNL d   1       2.506  14.946  14.289 -0.22 -0.00    +0.012 C 
DOCKED: ENDBRANCH  17  47
DOCKED: TORSDOF 12
DOCKED: TER
DOCKED: ENDMDL
________________________________________________________________________________


	BEGINNING GENETIC ALGORITHM DOCKING 87 of 100
Run: 87 Seed: 1982490083 1348616999 [ Run 87 of 100 GA/GALS ]
Beginning LAMARCKIAN GENETIC ALGORITHM (LGA), with a maximum of 25000000 energy evaluations.

Final-Value: -10.652


	FINAL GENETIC ALGORITHM DOCKED STATE
	_______________________________________________


Detailed state:  trans 14.066 -10.305 7.081 quatxyzw 0.374382 0.140664 0.906693 -0.134014 center 8.781 34.984 -0.736 ntor 12 -40.4510 134.8381 -61.7494 -99.8665 163.2212 119.8046 49.0120 -179.9735 -134.7525 41.5406 -175.9335 -179.9803
State:	 14.066 -10.305   7.081   0.378  0.142  0.915 -164.597    -40.45  134.84  -61.75  -99.87  163.22  119.80   49.01 -179.97 -134.75   41.54 -175.93 -179.98

DOCKED: MODEL       87
DOCKED: USER    Run = 87
DOCKED: USER    DPF = D:/Protein_go_brrr/autodock/final/mut_D99N/heme_Co/dock.dpf
DOCKED: USER  
DOCKED: USER    Estimated Free Energy of Binding    =   -4.49 kcal/mol  [=(1)+(2)+(3)-(4)]
DOCKED: USER    Estimated Inhibition Constant, Ki   =  510.60 uM (micromolar)  [Temperature = 298.15 K]
DOCKED: USER    
DOCKED: USER    (1) Final Intermolecular Energy     =   -8.07 kcal/mol
DOCKED: USER        vdW + Hbond + desolv Energy     =   -8.09 kcal/mol
DOCKED: USER        Electrostatic Energy            =   +0.02 kcal/mol
DOCKED: USER    (2) Final Total Internal Energy     =   -2.58 kcal/mol
DOCKED: USER    (3) Torsional Free Energy           =   +3.58 kcal/mol
DOCKED: USER    (4) Unbound System's Energy  [=(2)] =   -2.58 kcal/mol
DOCKED: USER    
DOCKED: USER    
DOCKED: USER    NEWDPF move heme_Co_opt.pdbqt
DOCKED: USER    NEWDPF about 8.781000 34.984000 -0.736000
DOCKED: USER    NEWDPF tran0 14.065574 -10.305086 7.081319
DOCKED: USER    NEWDPF quaternion0 0.374382 0.140664 0.906693 -0.134014
DOCKED: USER    NEWDPF axisangle0 0.377790 0.141945 0.914946 -164.596777
DOCKED: USER    NEWDPF quat0 0.377790 0.141945 0.914946 -164.596777
DOCKED: USER    NEWDPF dihe0 -40.45 134.84 -61.75 -99.87 163.22 119.80 49.01 -179.97 -134.75 41.54 -175.93 -179.98 
DOCKED: USER  keepresnum = 1 
DOCKED: USER  
DOCKED: REMARK  12 active torsions:
DOCKED: REMARK  status: ('A' for Active; 'I' for Inactive)
DOCKED: REMARK    1  A    between atoms: C_6  and  C_10 
DOCKED: REMARK    2  A    between atoms: C_10  and  C_11 
DOCKED: REMARK    3  A    between atoms: C_11  and  C_12 
DOCKED: REMARK    4  A    between atoms: C_12  and  O_14 
DOCKED: REMARK    5  A    between atoms: C_17  and  C_20 
DOCKED: REMARK    6  A    between atoms: C_24  and  C_27 
DOCKED: REMARK    7  A    between atoms: C_31  and  C_34 
DOCKED: REMARK    8  A    between atoms: C_34  and  C_35 
DOCKED: REMARK    9  A    between atoms: C_35  and  C_36 
DOCKED: REMARK   10  A    between atoms: C_36  and  O_38 
DOCKED: REMARK   11  A    between atoms: FE_43  and  C_44 
DOCKED: REMARK   12  A    between atoms: C_44  and  O_45 
DOCKED: USER                              x       y       z     vdW  Elec       q    Type
DOCKED: USER                           _______ _______ _______ _____ _____    ______ ____
DOCKED: ROOT
DOCKED: ATOM      1  C   UNL d   1      14.711 -11.572   5.440 -0.24 -0.05    +0.064 A 
DOCKED: ATOM      2  C   UNL d   1      16.893  -8.096   7.842 -0.22 -0.01    +0.064 C 
DOCKED: ATOM      3  C   UNL d   1      12.877  -7.203  10.272 -0.23 -0.02    +0.064 A 
DOCKED: ATOM      4  C   UNL d   1      10.739 -11.000   8.108 -0.21 -0.02    +0.064 A 
DOCKED: ATOM      5  C   UNL d   1      15.591 -10.664   5.892 -0.30 -0.03    +0.066 A 
DOCKED: ATOM      6  C   UNL d   1      16.933 -10.647   5.464 -0.34 +0.01    -0.021 A 
DOCKED: ATOM      7  C   UNL d   1      17.567  -9.651   6.181 -0.29 +0.00    -0.025 A 
DOCKED: ATOM      8  C   UNL d   1      16.583  -9.093   7.003 -0.25 -0.01    +0.066 A 
DOCKED: ATOM      9  C   UNL d   1      19.043  -9.230   6.106 -0.28 +0.01    +0.051 C 
DOCKED: ATOM     10  C   UNL d   1      15.941  -7.443   8.706 -0.18 -0.02    +0.066 A 
DOCKED: ATOM     11  C   UNL d   1      16.172  -6.302   9.505 -0.14 +0.00    -0.021 A 
DOCKED: ATOM     12  C   UNL d   1      14.983  -6.061  10.199 -0.19 -0.00    +0.000 A 
DOCKED: ATOM     13  C   UNL d   1      14.114  -7.062   9.765 -0.21 -0.02    +0.070 A 
DOCKED: ATOM     14  C   UNL d   1      17.420  -5.457   9.515 -0.09 -0.01    +0.052 C 
DOCKED: ATOM     15  C   UNL d   1      11.872  -8.206   9.978 -0.23 -0.03    +0.066 A 
DOCKED: ATOM     16  C   UNL d   1      10.666  -8.382  10.643 -0.18 +0.01    -0.021 A 
DOCKED: ATOM     17  C   UNL d   1      10.047  -9.477  10.024 -0.13 -0.00    +0.000 A 
DOCKED: ATOM     18  C   UNL d   1      10.919  -9.874   9.016 -0.21 -0.03    +0.070 A 
DOCKED: ATOM     19  C   UNL d   1      10.169  -7.538  11.796 -0.17 -0.05    +0.052 C 
DOCKED: ATOM     20  C   UNL d   1      11.611 -11.457   7.178 -0.24 -0.02    +0.066 A 
DOCKED: ATOM     21  C   UNL d   1      11.340 -12.572   6.389 -0.23 +0.01    -0.025 A 
DOCKED: ATOM     22  C   UNL d   1      12.455 -12.744   5.589 -0.27 +0.01    -0.021 A 
DOCKED: ATOM     23  C   UNL d   1      13.364 -11.724   5.942 -0.28 -0.04    +0.066 A 
DOCKED: ATOM     24  C   UNL d   1      10.088 -13.444   6.409 -0.28 -0.01    +0.051 C 
DOCKED: ATOM     25  N   UNL d   1      15.347  -9.697   6.841 -0.14 +0.11    -0.248 N 
DOCKED: ATOM     26  N   UNL d   1      14.677  -7.863   8.821 -0.10 +0.10    -0.248 N 
DOCKED: ATOM     27  N   UNL d   1      12.009  -9.114   9.038 -0.15 +0.11    -0.248 N 
DOCKED: ATOM     28  N   UNL d   1      12.858 -10.944   6.905 -0.01 +0.12    -0.248 N 
DOCKED: ATOM     29 FE   UNL d   1      13.577  -9.390   8.002 -0.02 -0.00    +0.000 Fe
DOCKED: ENDROOT
DOCKED: BRANCH   6  30
DOCKED: ATOM     30  C   UNL d   1      17.583 -11.604   4.470 -0.22 -0.02    +0.052 C 
DOCKED: BRANCH  30  31
DOCKED: ATOM     31  C   UNL d   1      18.201 -12.797   5.199 -0.14 -0.03    +0.115 C 
DOCKED: BRANCH  31  32
DOCKED: ATOM     32  C   UNL d   1      17.297 -13.342   6.283 -0.07 -0.05    +0.139 C 
DOCKED: ATOM     33  O   UNL d   1      17.258 -12.785   7.370 +0.04 +0.12    -0.650 OA
DOCKED: BRANCH  32  34
DOCKED: ATOM     34  O   UNL d   1      16.486 -14.406   6.073 +0.03 +0.36    -0.776 OA
DOCKED: ATOM     35  H   UNL d   1      15.939 -14.526   5.285 -0.15 -0.16    +0.167 HD
DOCKED: ENDBRANCH  32  34
DOCKED: ENDBRANCH  31  32
DOCKED: ENDBRANCH  30  31
DOCKED: ENDBRANCH   6  30
DOCKED: BRANCH  29  36
DOCKED: ATOM     36  C   UNL d   1      14.397 -10.724   9.397 -0.05 -0.05    +0.190 C 
DOCKED: BRANCH  36  37
DOCKED: ATOM     37  O   UNL d   1      15.178 -11.879   9.508 +0.00 +0.07    -0.399 OA
DOCKED: ATOM     38  H   UNL d   1      15.695 -11.923   8.655 +0.03 -0.04    +0.209 HD
DOCKED: ENDBRANCH  36  37
DOCKED: ENDBRANCH  29  36
DOCKED: BRANCH  22  39
DOCKED: ATOM     39  C   UNL d   1      12.657 -13.867   4.590 -0.18 -0.03    +0.052 C 
DOCKED: BRANCH  39  40
DOCKED: ATOM     40  C   UNL d   1      13.069 -15.164   5.307 -0.18 -0.03    +0.115 C 
DOCKED: BRANCH  40  41
DOCKED: ATOM     41  C   UNL d   1      14.062 -16.013   4.541 -0.13 -0.03    +0.139 C 
DOCKED: ATOM     42  O   UNL d   1      13.919 -16.160   3.336 -0.50 -0.32    -0.650 OA
DOCKED: BRANCH  41  43
DOCKED: ATOM     43  O   UNL d   1      15.152 -16.543   5.138 +0.01 +0.16    -0.776 OA
DOCKED: ATOM     44  H   UNL d   1      15.797 -16.004   5.615 +0.01 -0.05    +0.167 HD
DOCKED: ENDBRANCH  41  43
DOCKED: ENDBRANCH  40  41
DOCKED: ENDBRANCH  39  40
DOCKED: ENDBRANCH  22  39
DOCKED: BRANCH  12  45
DOCKED: ATOM     45  C   UNL d   1      14.565  -4.995  11.203 -0.19 -0.00    +0.004 C 
DOCKED: ATOM     46  C   UNL d   1      14.346  -5.077  12.513 -0.10 -0.00    +0.012 C 
DOCKED: ENDBRANCH  12  45
DOCKED: BRANCH  17  47
DOCKED: ATOM     47  C   UNL d   1       8.762 -10.160  10.358 -0.19 -0.00    +0.004 C 
DOCKED: ATOM     48  C   UNL d   1       7.913 -10.625   9.438 -0.29 -0.01    +0.012 C 
DOCKED: ENDBRANCH  17  47
DOCKED: TORSDOF 12
DOCKED: TER
DOCKED: ENDMDL
________________________________________________________________________________


	BEGINNING GENETIC ALGORITHM DOCKING 88 of 100
Run: 88 Seed: 1110310761 267701325 [ Run 88 of 100 GA/GALS ]
Beginning LAMARCKIAN GENETIC ALGORITHM (LGA), with a maximum of 25000000 energy evaluations.

Final-Value: -10.548


	FINAL GENETIC ALGORITHM DOCKED STATE
	_______________________________________________


Detailed state:  trans 1.819 -0.442 -20.564 quatxyzw -0.810522 0.113270 -0.042844 0.573052 center 8.781 34.984 -0.736 ntor 12 -138.2612 78.5645 -104.7230 -37.9167 -91.7621 -153.3110 -153.4190 159.7658 -47.8300 36.2798 -148.4132 -160.7230
State:	  1.819  -0.442 -20.564  -0.989  0.138 -0.052 110.073   -138.26   78.56 -104.72  -37.92  -91.76 -153.31 -153.42  159.77  -47.83   36.28 -148.41 -160.72

DOCKED: MODEL       88
DOCKED: USER    Run = 88
DOCKED: USER    DPF = D:/Protein_go_brrr/autodock/final/mut_D99N/heme_Co/dock.dpf
DOCKED: USER  
DOCKED: USER    Estimated Free Energy of Binding    =   -5.27 kcal/mol  [=(1)+(2)+(3)-(4)]
DOCKED: USER    Estimated Inhibition Constant, Ki   =  136.89 uM (micromolar)  [Temperature = 298.15 K]
DOCKED: USER    
DOCKED: USER    (1) Final Intermolecular Energy     =   -8.85 kcal/mol
DOCKED: USER        vdW + Hbond + desolv Energy     =   -5.31 kcal/mol
DOCKED: USER        Electrostatic Energy            =   -3.54 kcal/mol
DOCKED: USER    (2) Final Total Internal Energy     =   -1.70 kcal/mol
DOCKED: USER    (3) Torsional Free Energy           =   +3.58 kcal/mol
DOCKED: USER    (4) Unbound System's Energy  [=(2)] =   -1.70 kcal/mol
DOCKED: USER    
DOCKED: USER    
DOCKED: USER    NEWDPF move heme_Co_opt.pdbqt
DOCKED: USER    NEWDPF about 8.781000 34.984000 -0.736000
DOCKED: USER    NEWDPF tran0 1.819343 -0.441661 -20.564020
DOCKED: USER    NEWDPF quaternion0 -0.810522 0.113270 -0.042844 0.573052
DOCKED: USER    NEWDPF axisangle0 -0.989021 0.138215 -0.052280 110.073365
DOCKED: USER    NEWDPF quat0 -0.989021 0.138215 -0.052280 110.073365
DOCKED: USER    NEWDPF dihe0 -138.26 78.56 -104.72 -37.92 -91.76 -153.31 -153.42 159.77 -47.83 36.28 -148.41 -160.72 
DOCKED: USER  keepresnum = 1 
DOCKED: USER  
DOCKED: REMARK  12 active torsions:
DOCKED: REMARK  status: ('A' for Active; 'I' for Inactive)
DOCKED: REMARK    1  A    between atoms: C_6  and  C_10 
DOCKED: REMARK    2  A    between atoms: C_10  and  C_11 
DOCKED: REMARK    3  A    between atoms: C_11  and  C_12 
DOCKED: REMARK    4  A    between atoms: C_12  and  O_14 
DOCKED: REMARK    5  A    between atoms: C_17  and  C_20 
DOCKED: REMARK    6  A    between atoms: C_24  and  C_27 
DOCKED: REMARK    7  A    between atoms: C_31  and  C_34 
DOCKED: REMARK    8  A    between atoms: C_34  and  C_35 
DOCKED: REMARK    9  A    between atoms: C_35  and  C_36 
DOCKED: REMARK   10  A    between atoms: C_36  and  O_38 
DOCKED: REMARK   11  A    between atoms: FE_43  and  C_44 
DOCKED: REMARK   12  A    between atoms: C_44  and  O_45 
DOCKED: USER                              x       y       z     vdW  Elec       q    Type
DOCKED: USER                           _______ _______ _______ _____ _____    ______ ____
DOCKED: ROOT
DOCKED: ATOM      1  C   UNL d   1      -0.124   0.458 -20.202 -0.10 +0.06    +0.064 A 
DOCKED: ATOM      2  C   UNL d   1       1.492  -2.372 -23.665 -0.07 +0.01    +0.064 C 
DOCKED: ATOM      3  C   UNL d   1       5.900  -2.161 -21.833 -0.13 +0.01    +0.064 A 
DOCKED: ATOM      4  C   UNL d   1       4.199   0.414 -18.072 -0.13 +0.02    +0.064 A 
DOCKED: ATOM      5  C   UNL d   1       0.001  -0.301 -21.303 -0.12 +0.04    +0.066 A 
DOCKED: ATOM      6  C   UNL d   1      -1.108  -0.661 -22.093 -0.09 -0.01    -0.021 A 
DOCKED: ATOM      7  C   UNL d   1      -0.637  -1.501 -23.083 -0.08 -0.01    -0.025 A 
DOCKED: ATOM      8  C   UNL d   1       0.741  -1.605 -22.865 -0.08 +0.02    +0.066 A 
DOCKED: ATOM      9  C   UNL d   1      -1.441  -2.188 -24.197 -0.06 +0.01    +0.051 C 
DOCKED: ATOM     10  C   UNL d   1       2.920  -2.519 -23.534 -0.06 +0.01    +0.066 A 
DOCKED: ATOM     11  C   UNL d   1       3.784  -3.196 -24.423 -0.06 -0.00    -0.021 A 
DOCKED: ATOM     12  C   UNL d   1       5.063  -3.115 -23.867 -0.10 +0.00    +0.000 A 
DOCKED: ATOM     13  C   UNL d   1       4.888  -2.386 -22.690 -0.11 +0.01    +0.070 A 
DOCKED: ATOM     14  C   UNL d   1       3.405  -3.789 -25.756 -0.02 +0.00    +0.052 C 
DOCKED: ATOM     15  C   UNL d   1       5.886  -1.477 -20.555 -0.12 +0.01    +0.066 A 
DOCKED: ATOM     16  C   UNL d   1       6.936  -1.404 -19.649 -0.16 -0.00    -0.021 A 
DOCKED: ATOM     17  C   UNL d   1       6.449  -0.665 -18.562 -0.18 +0.00    +0.000 A 
DOCKED: ATOM     18  C   UNL d   1       5.142  -0.329 -18.898 -0.14 +0.02    +0.070 A 
DOCKED: ATOM     19  C   UNL d   1       8.305  -2.017 -19.843 -0.20 +0.01    +0.052 C 
DOCKED: ATOM     20  C   UNL d   1       2.898   0.678 -18.341 -0.11 +0.02    +0.066 A 
DOCKED: ATOM     21  C   UNL d   1       2.081   1.372 -17.451 -0.14 -0.01    -0.025 A 
DOCKED: ATOM     22  C   UNL d   1       0.836   1.425 -18.051 -0.15 -0.02    -0.021 A 
DOCKED: ATOM     23  C   UNL d   1       0.953   0.745 -19.282 -0.12 +0.05    +0.066 A 
DOCKED: ATOM     24  C   UNL d   1       2.461   1.939 -16.086 -0.18 +0.02    +0.051 C 
DOCKED: ATOM     25  N   UNL d   1       1.165  -0.867 -21.773 -0.06 -0.10    -0.248 N 
DOCKED: ATOM     26  N   UNL d   1       3.602  -1.979 -22.519 -0.06 -0.04    -0.248 N 
DOCKED: ATOM     27  N   UNL d   1       4.831  -0.855 -20.078 -0.08 -0.06    -0.248 N 
DOCKED: ATOM     28  N   UNL d   1       2.199   0.290 -19.460 -0.09 -0.11    -0.248 N 
DOCKED: ATOM     29 FE   UNL d   1       3.106  -0.858 -20.873 -0.03 +0.00    +0.000 Fe
DOCKED: ENDROOT
DOCKED: BRANCH   6  30
DOCKED: ATOM     30  C   UNL d   1      -2.563  -0.275 -21.847 -0.09 +0.03    +0.052 C 
DOCKED: BRANCH  30  31
DOCKED: ATOM     31  C   UNL d   1      -3.066  -0.883 -20.538 -0.15 +0.14    +0.115 C 
DOCKED: BRANCH  31  32
DOCKED: ATOM     32  C   UNL d   1      -3.746   0.138 -19.651 -0.13 +0.23    +0.139 C 
DOCKED: ATOM     33  O   UNL d   1      -4.884   0.498 -19.912 -0.04 -1.18    -0.650 OA
DOCKED: BRANCH  32  34
DOCKED: ATOM     34  O   UNL d   1      -3.150   0.635 -18.542 -0.03 -1.68    -0.776 OA
DOCKED: ATOM     35  H   UNL d   1      -3.615   0.834 -17.718 +0.04 +0.36    +0.167 HD
DOCKED: ENDBRANCH  32  34
DOCKED: ENDBRANCH  31  32
DOCKED: ENDBRANCH  30  31
DOCKED: ENDBRANCH   6  30
DOCKED: BRANCH  29  36
DOCKED: ATOM     36  C   UNL d   1       2.522  -2.601 -19.865 -0.26 +0.07    +0.190 C 
DOCKED: BRANCH  36  37
DOCKED: ATOM     37  O   UNL d   1       1.981  -3.875 -20.064 -0.27 -0.13    -0.399 OA
DOCKED: ATOM     38  H   UNL d   1       1.337  -3.765 -20.819 -0.01 +0.06    +0.209 HD
DOCKED: ENDBRANCH  36  37
DOCKED: ENDBRANCH  29  36
DOCKED: BRANCH  22  39
DOCKED: ATOM     39  C   UNL d   1      -0.410   2.040 -17.441 -0.18 +0.05    +0.052 C 
DOCKED: BRANCH  39  40
DOCKED: ATOM     40  C   UNL d   1      -0.761   1.348 -16.113 -0.25 +0.16    +0.115 C 
DOCKED: BRANCH  40  41
DOCKED: ATOM     41  C   UNL d   1      -2.242   1.318 -15.797 -0.29 +0.20    +0.139 C 
DOCKED: ATOM     42  O   UNL d   1      -2.843   2.372 -15.648 -0.01 -0.67    -0.650 OA
DOCKED: BRANCH  41  43
DOCKED: ATOM     43  O   UNL d   1      -2.937   0.159 -15.762 +0.03 -1.57    -0.776 OA
DOCKED: ATOM     44  H   UNL d   1      -3.471  -0.149 -16.505 +0.09 +0.41    +0.167 HD
DOCKED: ENDBRANCH  41  43
DOCKED: ENDBRANCH  40  41
DOCKED: ENDBRANCH  39  40
DOCKED: ENDBRANCH  22  39
DOCKED: BRANCH  12  45
DOCKED: ATOM     45  C   UNL d   1       6.426  -3.623 -24.319 -0.11 +0.00    +0.004 C 
DOCKED: ATOM     46  C   UNL d   1       6.794  -4.812 -24.789 -0.10 +0.00    +0.012 C 
DOCKED: ENDBRANCH  12  45
DOCKED: BRANCH  17  47
DOCKED: ATOM     47  C   UNL d   1       7.112  -0.323 -17.268 -0.22 +0.00    +0.004 C 
DOCKED: ATOM     48  C   UNL d   1       6.708  -0.795 -16.086 -0.33 +0.00    +0.012 C 
DOCKED: ENDBRANCH  17  47
DOCKED: TORSDOF 12
DOCKED: TER
DOCKED: ENDMDL
________________________________________________________________________________


	BEGINNING GENETIC ALGORITHM DOCKING 89 of 100
Run: 89 Seed: 408948042 2130919093 [ Run 89 of 100 GA/GALS ]
Beginning LAMARCKIAN GENETIC ALGORITHM (LGA), with a maximum of 25000000 energy evaluations.

Final-Value: -10.095


	FINAL GENETIC ALGORITHM DOCKED STATE
	_______________________________________________


Detailed state:  trans 2.723 -0.172 -20.099 quatxyzw -0.489134 -0.043768 -0.173498 -0.853657 center 8.781 34.984 -0.736 ntor 12 -71.7557 133.0185 124.3325 -60.2590 69.6434 88.3086 169.8903 -40.5984 -94.6092 -146.2007 -8.0165 149.3772
State:	  2.723  -0.172 -20.099  -0.939 -0.084 -0.333 -62.777    -71.76  133.02  124.33  -60.26   69.64   88.31  169.89  -40.60  -94.61 -146.20   -8.02  149.38

DOCKED: MODEL       89
DOCKED: USER    Run = 89
DOCKED: USER    DPF = D:/Protein_go_brrr/autodock/final/mut_D99N/heme_Co/dock.dpf
DOCKED: USER  
DOCKED: USER    Estimated Free Energy of Binding    =   -4.26 kcal/mol  [=(1)+(2)+(3)-(4)]
DOCKED: USER    Estimated Inhibition Constant, Ki   =  756.57 uM (micromolar)  [Temperature = 298.15 K]
DOCKED: USER    
DOCKED: USER    (1) Final Intermolecular Energy     =   -7.84 kcal/mol
DOCKED: USER        vdW + Hbond + desolv Energy     =   -5.48 kcal/mol
DOCKED: USER        Electrostatic Energy            =   -2.36 kcal/mol
DOCKED: USER    (2) Final Total Internal Energy     =   -2.26 kcal/mol
DOCKED: USER    (3) Torsional Free Energy           =   +3.58 kcal/mol
DOCKED: USER    (4) Unbound System's Energy  [=(2)] =   -2.26 kcal/mol
DOCKED: USER    
DOCKED: USER    
DOCKED: USER    NEWDPF move heme_Co_opt.pdbqt
DOCKED: USER    NEWDPF about 8.781000 34.984000 -0.736000
DOCKED: USER    NEWDPF tran0 2.722997 -0.171938 -20.098511
DOCKED: USER    NEWDPF quaternion0 -0.489134 -0.043768 -0.173498 -0.853657
DOCKED: USER    NEWDPF axisangle0 -0.939134 -0.084035 -0.333114 -62.776621
DOCKED: USER    NEWDPF quat0 -0.939134 -0.084035 -0.333114 -62.776621
DOCKED: USER    NEWDPF dihe0 -71.76 133.02 124.33 -60.26 69.64 88.31 169.89 -40.60 -94.61 -146.20 -8.02 149.38 
DOCKED: USER  keepresnum = 1 
DOCKED: USER  
DOCKED: REMARK  12 active torsions:
DOCKED: REMARK  status: ('A' for Active; 'I' for Inactive)
DOCKED: REMARK    1  A    between atoms: C_6  and  C_10 
DOCKED: REMARK    2  A    between atoms: C_10  and  C_11 
DOCKED: REMARK    3  A    between atoms: C_11  and  C_12 
DOCKED: REMARK    4  A    between atoms: C_12  and  O_14 
DOCKED: REMARK    5  A    between atoms: C_17  and  C_20 
DOCKED: REMARK    6  A    between atoms: C_24  and  C_27 
DOCKED: REMARK    7  A    between atoms: C_31  and  C_34 
DOCKED: REMARK    8  A    between atoms: C_34  and  C_35 
DOCKED: REMARK    9  A    between atoms: C_35  and  C_36 
DOCKED: REMARK   10  A    between atoms: C_36  and  O_38 
DOCKED: REMARK   11  A    between atoms: FE_43  and  C_44 
DOCKED: REMARK   12  A    between atoms: C_44  and  O_45 
DOCKED: USER                              x       y       z     vdW  Elec       q    Type
DOCKED: USER                           _______ _______ _______ _____ _____    ______ ____
DOCKED: ROOT
DOCKED: ATOM      1  C   UNL d   1       1.000  -0.174 -21.421 -0.09 +0.03    +0.064 A 
DOCKED: ATOM      2  C   UNL d   1       1.632   1.456 -16.998 -0.19 +0.04    +0.064 C 
DOCKED: ATOM      3  C   UNL d   1       6.048  -0.365 -16.918 -0.21 +0.02    +0.064 A 
DOCKED: ATOM      4  C   UNL d   1       5.568  -1.703 -21.570 -0.11 +0.01    +0.064 A 
DOCKED: ATOM      5  C   UNL d   1       0.835   0.373 -20.205 -0.12 +0.05    +0.066 A 
DOCKED: ATOM      6  C   UNL d   1      -0.330   1.083 -19.857 -0.10 -0.02    -0.021 A 
DOCKED: ATOM      7  C   UNL d   1      -0.133   1.573 -18.581 -0.11 -0.03    -0.025 A 
DOCKED: ATOM      8  C   UNL d   1       1.138   1.128 -18.199 -0.06 +0.05    +0.066 A 
DOCKED: ATOM      9  C   UNL d   1      -1.092   2.430 -17.741 -0.14 +0.05    +0.051 C 
DOCKED: ATOM     10  C   UNL d   1       2.916   1.022 -16.509 -0.16 +0.02    +0.066 A 
DOCKED: ATOM     11  C   UNL d   1       3.432   1.214 -15.208 -0.25 -0.01    -0.021 A 
DOCKED: ATOM     12  C   UNL d   1       4.719   0.670 -15.211 -0.26 +0.00    +0.000 A 
DOCKED: ATOM     13  C   UNL d   1       4.889   0.177 -16.506 -0.19 +0.02    +0.070 A 
DOCKED: ATOM     14  C   UNL d   1       2.691   1.794 -14.031 -0.32 +0.02    +0.052 C 
DOCKED: ATOM     15  C   UNL d   1       6.412  -0.874 -18.225 -0.18 +0.02    +0.066 A 
DOCKED: ATOM     16  C   UNL d   1       7.675  -1.288 -18.625 -0.21 -0.01    -0.021 A 
DOCKED: ATOM     17  C   UNL d   1       7.542  -1.672 -19.967 -0.15 +0.00    +0.000 A 
DOCKED: ATOM     18  C   UNL d   1       6.200  -1.478 -20.276 -0.11 +0.01    +0.070 A 
DOCKED: ATOM     19  C   UNL d   1       8.911  -1.301 -17.753 -0.21 +0.03    +0.052 C 
DOCKED: ATOM     20  C   UNL d   1       4.286  -1.439 -21.918 -0.10 +0.01    +0.066 A 
DOCKED: ATOM     21  C   UNL d   1       3.803  -1.665 -23.205 -0.06 -0.00    -0.025 A 
DOCKED: ATOM     22  C   UNL d   1       2.481  -1.260 -23.184 -0.04 -0.00    -0.021 A 
DOCKED: ATOM     23  C   UNL d   1       2.224  -0.793 -21.878 -0.07 +0.02    +0.066 A 
DOCKED: ATOM     24  C   UNL d   1       4.570  -2.220 -24.403 -0.04 +0.00    +0.051 C 
DOCKED: ATOM     25  N   UNL d   1       1.758   0.377 -19.184 -0.09 -0.14    -0.248 N 
DOCKED: ATOM     26  N   UNL d   1       3.777   0.340 -17.272 -0.11 -0.07    -0.248 N 
DOCKED: ATOM     27  N   UNL d   1       5.564  -0.973 -19.224 -0.08 -0.07    -0.248 N 
DOCKED: ATOM     28  N   UNL d   1       3.314  -0.898 -21.109 -0.06 -0.06    -0.248 N 
DOCKED: ATOM     29 FE   UNL d   1       3.773  -0.340 -19.208 -0.03 +0.00    +0.000 Fe
DOCKED: ENDROOT
DOCKED: BRANCH   6  30
DOCKED: ATOM     30  C   UNL d   1      -1.539   1.341 -20.751 -0.07 +0.04    +0.052 C 
DOCKED: BRANCH  30  31
DOCKED: ATOM     31  C   UNL d   1      -2.399   0.083 -20.868 -0.11 +0.12    +0.115 C 
DOCKED: BRANCH  31  32
DOCKED: ATOM     32  C   UNL d   1      -3.359  -0.070 -19.707 -0.04 +0.24    +0.139 C 
DOCKED: ATOM     33  O   UNL d   1      -3.934   0.915 -19.269 +0.02 -1.19    -0.650 OA
DOCKED: BRANCH  32  34
DOCKED: ATOM     34  O   UNL d   1      -3.641  -1.277 -19.164 -0.47 -1.69    -0.776 OA
DOCKED: ATOM     35  H   UNL d   1      -4.223  -1.933 -19.571 +0.04 +0.23    +0.167 HD
DOCKED: ENDBRANCH  32  34
DOCKED: ENDBRANCH  31  32
DOCKED: ENDBRANCH  30  31
DOCKED: ENDBRANCH   6  30
DOCKED: BRANCH  29  36
DOCKED: ATOM     36  C   UNL d   1       4.325   1.569 -19.878 -0.01 +0.04    +0.190 C 
DOCKED: BRANCH  36  37
DOCKED: ATOM     37  O   UNL d   1       4.203   2.449 -20.958 +0.00 -0.06    -0.399 OA
DOCKED: ATOM     38  H   UNL d   1       3.411   2.122 -21.468 +0.01 +0.04    +0.209 HD
DOCKED: ENDBRANCH  36  37
DOCKED: ENDBRANCH  29  36
DOCKED: BRANCH  22  39
DOCKED: ATOM     39  C   UNL d   1       1.541  -1.264 -24.375 -0.03 +0.01    +0.052 C 
DOCKED: BRANCH  39  40
DOCKED: ATOM     40  C   UNL d   1       1.244   0.172 -24.837 -0.00 +0.02    +0.115 C 
DOCKED: BRANCH  40  41
DOCKED: ATOM     41  C   UNL d   1       2.351   1.163 -24.546 +0.00 +0.02    +0.139 C 
DOCKED: ATOM     42  O   UNL d   1       3.149   1.445 -25.429 +0.00 -0.06    -0.650 OA
DOCKED: BRANCH  41  43
DOCKED: ATOM     43  O   UNL d   1       2.430   1.812 -23.363 +0.01 -0.12    -0.776 OA
DOCKED: ATOM     44  H   UNL d   1       3.247   1.857 -22.849 +0.00 +0.02    +0.167 HD
DOCKED: ENDBRANCH  41  43
DOCKED: ENDBRANCH  40  41
DOCKED: ENDBRANCH  39  40
DOCKED: ENDBRANCH  22  39
DOCKED: BRANCH  12  45
DOCKED: ATOM     45  C   UNL d   1       5.796   0.542 -14.142 -0.31 +0.00    +0.004 C 
DOCKED: ATOM     46  C   UNL d   1       6.540   1.471 -13.548 -0.33 +0.00    +0.012 C 
DOCKED: ENDBRANCH  12  45
DOCKED: BRANCH  17  47
DOCKED: ATOM     47  C   UNL d   1       8.581  -2.142 -20.932 -0.16 +0.00    +0.004 C 
DOCKED: ATOM     48  C   UNL d   1       9.480  -3.087 -20.646 -0.16 +0.00    +0.012 C 
DOCKED: ENDBRANCH  17  47
DOCKED: TORSDOF 12
DOCKED: TER
DOCKED: ENDMDL
________________________________________________________________________________


	BEGINNING GENETIC ALGORITHM DOCKING 90 of 100
Run: 90 Seed: 774340842 1983726389 [ Run 90 of 100 GA/GALS ]
Beginning LAMARCKIAN GENETIC ALGORITHM (LGA), with a maximum of 25000000 energy evaluations.

Final-Value: -10.641


	FINAL GENETIC ALGORITHM DOCKED STATE
	_______________________________________________


Detailed state:  trans -10.376 -4.086 11.135 quatxyzw 0.404848 -0.473078 0.435996 -0.649771 center 8.781 34.984 -0.736 ntor 12 -109.0649 118.9450 -9.9518 118.6294 68.4375 130.8326 2.9631 -19.9897 -69.7073 -32.4218 160.6137 36.3020
State:	-10.376  -4.086  11.135   0.533 -0.622  0.574 -98.951   -109.06  118.95   -9.95  118.63   68.44  130.83    2.96  -19.99  -69.71  -32.42  160.61   36.30

DOCKED: MODEL       90
DOCKED: USER    Run = 90
DOCKED: USER    DPF = D:/Protein_go_brrr/autodock/final/mut_D99N/heme_Co/dock.dpf
DOCKED: USER  
DOCKED: USER    Estimated Free Energy of Binding    =   -5.52 kcal/mol  [=(1)+(2)+(3)-(4)]
DOCKED: USER    Estimated Inhibition Constant, Ki   =   90.05 uM (micromolar)  [Temperature = 298.15 K]
DOCKED: USER    
DOCKED: USER    (1) Final Intermolecular Energy     =   -9.10 kcal/mol
DOCKED: USER        vdW + Hbond + desolv Energy     =   -6.39 kcal/mol
DOCKED: USER        Electrostatic Energy            =   -2.71 kcal/mol
DOCKED: USER    (2) Final Total Internal Energy     =   -1.54 kcal/mol
DOCKED: USER    (3) Torsional Free Energy           =   +3.58 kcal/mol
DOCKED: USER    (4) Unbound System's Energy  [=(2)] =   -1.54 kcal/mol
DOCKED: USER    
DOCKED: USER    
DOCKED: USER    NEWDPF move heme_Co_opt.pdbqt
DOCKED: USER    NEWDPF about 8.781000 34.984000 -0.736000
DOCKED: USER    NEWDPF tran0 -10.376382 -4.086001 11.134765
DOCKED: USER    NEWDPF quaternion0 0.404848 -0.473078 0.435996 -0.649771
DOCKED: USER    NEWDPF axisangle0 0.532604 -0.622365 0.573581 -98.951351
DOCKED: USER    NEWDPF quat0 0.532604 -0.622365 0.573581 -98.951351
DOCKED: USER    NEWDPF dihe0 -109.06 118.95 -9.95 118.63 68.44 130.83 2.96 -19.99 -69.71 -32.42 160.61 36.30 
DOCKED: USER  keepresnum = 1 
DOCKED: USER  
DOCKED: REMARK  12 active torsions:
DOCKED: REMARK  status: ('A' for Active; 'I' for Inactive)
DOCKED: REMARK    1  A    between atoms: C_6  and  C_10 
DOCKED: REMARK    2  A    between atoms: C_10  and  C_11 
DOCKED: REMARK    3  A    between atoms: C_11  and  C_12 
DOCKED: REMARK    4  A    between atoms: C_12  and  O_14 
DOCKED: REMARK    5  A    between atoms: C_17  and  C_20 
DOCKED: REMARK    6  A    between atoms: C_24  and  C_27 
DOCKED: REMARK    7  A    between atoms: C_31  and  C_34 
DOCKED: REMARK    8  A    between atoms: C_34  and  C_35 
DOCKED: REMARK    9  A    between atoms: C_35  and  C_36 
DOCKED: REMARK   10  A    between atoms: C_36  and  O_38 
DOCKED: REMARK   11  A    between atoms: FE_43  and  C_44 
DOCKED: REMARK   12  A    between atoms: C_44  and  O_45 
DOCKED: USER                              x       y       z     vdW  Elec       q    Type
DOCKED: USER                           _______ _______ _______ _____ _____    ______ ____
DOCKED: ROOT
DOCKED: ATOM      1  C   UNL d   1     -10.961  -3.498   9.128 -0.22 +0.02    +0.064 A 
DOCKED: ATOM      2  C   UNL d   1      -9.196  -7.549  10.883 -0.15 +0.02    +0.064 C 
DOCKED: ATOM      3  C   UNL d   1      -8.678  -5.509  15.172 -0.11 +0.01    +0.064 A 
DOCKED: ATOM      4  C   UNL d   1     -10.835  -1.481  13.503 -0.25 +0.02    +0.064 A 
DOCKED: ATOM      5  C   UNL d   1     -10.483  -4.743   9.283 -0.19 +0.02    +0.066 A 
DOCKED: ATOM      6  C   UNL d   1     -10.528  -5.696   8.246 -0.22 -0.01    -0.021 A 
DOCKED: ATOM      7  C   UNL d   1     -10.036  -6.876   8.768 -0.17 -0.01    -0.025 A 
DOCKED: ATOM      8  C   UNL d   1      -9.696  -6.589  10.095 -0.16 +0.01    +0.066 A 
DOCKED: ATOM      9  C   UNL d   1      -9.885  -8.230   8.058 -0.15 +0.01    +0.051 C 
DOCKED: ATOM     10  C   UNL d   1      -8.793  -7.341  12.252 -0.10 +0.01    +0.066 A 
DOCKED: ATOM     11  C   UNL d   1      -8.133  -8.268  13.087 -0.07 -0.00    -0.021 A 
DOCKED: ATOM     12  C   UNL d   1      -7.991  -7.646  14.330 -0.06 +0.00    +0.000 A 
DOCKED: ATOM     13  C   UNL d   1      -8.562  -6.385  14.159 -0.08 +0.01    +0.070 A 
DOCKED: ATOM     14  C   UNL d   1      -7.597  -9.616  12.676 -0.10 +0.02    +0.052 C 
DOCKED: ATOM     15  C   UNL d   1      -9.283  -4.192  15.185 -0.18 +0.01    +0.066 A 
DOCKED: ATOM     16  C   UNL d   1      -9.500  -3.397  16.302 -0.20 -0.00    -0.021 A 
DOCKED: ATOM     17  C   UNL d   1     -10.124  -2.235  15.826 -0.28 +0.00    +0.000 A 
DOCKED: ATOM     18  C   UNL d   1     -10.224  -2.407  14.449 -0.26 +0.02    +0.070 A 
DOCKED: ATOM     19  C   UNL d   1      -9.123  -3.757  17.721 -0.12 +0.01    +0.052 C 
DOCKED: ATOM     20  C   UNL d   1     -11.021  -1.664  12.174 -0.24 +0.02    +0.066 A 
DOCKED: ATOM     21  C   UNL d   1     -11.654  -0.716  11.374 -0.24 -0.01    -0.025 A 
DOCKED: ATOM     22  C   UNL d   1     -11.679  -1.257  10.102 -0.20 -0.01    -0.021 A 
DOCKED: ATOM     23  C   UNL d   1     -11.065  -2.525  10.191 -0.19 +0.02    +0.066 A 
DOCKED: ATOM     24  C   UNL d   1     -12.227   0.632  11.804 -0.28 +0.02    +0.051 C 
DOCKED: ATOM     25  N   UNL d   1      -9.957  -5.274  10.439 -0.04 -0.06    -0.248 N 
DOCKED: ATOM     26  N   UNL d   1      -8.996  -6.182  12.886 +0.02 -0.05    -0.248 N 
DOCKED: ATOM     27  N   UNL d   1      -9.741  -3.596  14.107 -0.05 -0.05    -0.248 N 
DOCKED: ATOM     28  N   UNL d   1     -10.667  -2.776  11.444 -0.07 -0.06    -0.248 N 
DOCKED: ATOM     29 FE   UNL d   1      -9.843  -4.382  12.380 -0.03 +0.00    +0.000 Fe
DOCKED: ENDROOT
DOCKED: BRANCH   6  30
DOCKED: ATOM     30  C   UNL d   1     -11.098  -5.490   6.847 -0.13 +0.03    +0.052 C 
DOCKED: BRANCH  30  31
DOCKED: ATOM     31  C   UNL d   1     -12.317  -6.385   6.626 -0.12 +0.05    +0.115 C 
DOCKED: BRANCH  31  32
DOCKED: ATOM     32  C   UNL d   1     -13.611  -5.601   6.597 -0.09 +0.08    +0.139 C 
DOCKED: ATOM     33  O   UNL d   1     -14.528  -5.927   7.335 +0.01 -0.23    -0.650 OA
DOCKED: BRANCH  32  34
DOCKED: ATOM     34  O   UNL d   1     -13.773  -4.513   5.808 -0.29 -1.09    -0.776 OA
DOCKED: ATOM     35  H   UNL d   1     -13.884  -3.612   6.141 +0.01 +0.27    +0.167 HD
DOCKED: ENDBRANCH  32  34
DOCKED: ENDBRANCH  31  32
DOCKED: ENDBRANCH  30  31
DOCKED: ENDBRANCH   6  30
DOCKED: BRANCH  29  36
DOCKED: ATOM     36  C   UNL d   1     -11.749  -5.182  12.736 -0.04 +0.03    +0.190 C 
DOCKED: BRANCH  36  37
DOCKED: ATOM     37  O   UNL d   1     -12.908  -5.627  12.092 -0.00 -0.06    -0.399 OA
DOCKED: ATOM     38  H   UNL d   1     -12.689  -5.595  11.119 +0.02 +0.04    +0.209 HD
DOCKED: ENDBRANCH  36  37
DOCKED: ENDBRANCH  29  36
DOCKED: BRANCH  22  39
DOCKED: ATOM     39  C   UNL d   1     -12.318  -0.615   8.885 -0.18 +0.02    +0.052 C 
DOCKED: BRANCH  39  40
DOCKED: ATOM     40  C   UNL d   1     -11.417  -0.778   7.649 -0.05 +0.08    +0.115 C 
DOCKED: BRANCH  40  41
DOCKED: ATOM     41  C   UNL d   1     -12.167  -1.043   6.360 -0.12 +0.16    +0.139 C 
DOCKED: ATOM     42  O   UNL d   1     -12.078  -0.241   5.441 -0.45 -0.83    -0.650 OA
DOCKED: BRANCH  41  43
DOCKED: ATOM     43  O   UNL d   1     -12.861  -2.185   6.164 +0.00 -1.47    -0.776 OA
DOCKED: ATOM     44  H   UNL d   1     -12.872  -2.904   6.810 +0.02 +0.20    +0.167 HD
DOCKED: ENDBRANCH  41  43
DOCKED: ENDBRANCH  40  41
DOCKED: ENDBRANCH  39  40
DOCKED: ENDBRANCH  22  39
DOCKED: BRANCH  12  45
DOCKED: ATOM     45  C   UNL d   1      -7.368  -8.089  15.648 -0.03 +0.00    +0.004 C 
DOCKED: ATOM     46  C   UNL d   1      -6.264  -7.677  16.265 -0.04 +0.00    +0.012 C 
DOCKED: ENDBRANCH  12  45
DOCKED: BRANCH  17  47
DOCKED: ATOM     47  C   UNL d   1     -10.648  -1.056  16.579 -0.24 +0.00    +0.004 C 
DOCKED: ATOM     48  C   UNL d   1      -9.962  -0.431  17.539 -0.26 +0.00    +0.012 C 
DOCKED: ENDBRANCH  17  47
DOCKED: TORSDOF 12
DOCKED: TER
DOCKED: ENDMDL
________________________________________________________________________________


	BEGINNING GENETIC ALGORITHM DOCKING 91 of 100
Run: 91 Seed: 2014726290 854749001 [ Run 91 of 100 GA/GALS ]
Beginning LAMARCKIAN GENETIC ALGORITHM (LGA), with a maximum of 25000000 energy evaluations.

Final-Value: -11.103


	FINAL GENETIC ALGORITHM DOCKED STATE
	_______________________________________________


Detailed state:  trans -15.318 5.501 4.764 quatxyzw -0.161638 0.303218 0.843764 -0.412304 center 8.781 34.984 -0.736 ntor 12 158.3819 111.1707 -67.4359 116.8916 -98.5041 141.6018 -126.7950 70.5315 -146.5819 -54.6729 179.9386 7.3216
State:	-15.318   5.501   4.764  -0.177  0.333  0.926 -131.301    158.38  111.17  -67.44  116.89  -98.50  141.60 -126.80   70.53 -146.58  -54.67  179.94    7.32

DOCKED: MODEL       91
DOCKED: USER    Run = 91
DOCKED: USER    DPF = D:/Protein_go_brrr/autodock/final/mut_D99N/heme_Co/dock.dpf
DOCKED: USER  
DOCKED: USER    Estimated Free Energy of Binding    =   -5.42 kcal/mol  [=(1)+(2)+(3)-(4)]
DOCKED: USER    Estimated Inhibition Constant, Ki   =  106.54 uM (micromolar)  [Temperature = 298.15 K]
DOCKED: USER    
DOCKED: USER    (1) Final Intermolecular Energy     =   -9.00 kcal/mol
DOCKED: USER        vdW + Hbond + desolv Energy     =   -7.00 kcal/mol
DOCKED: USER        Electrostatic Energy            =   -2.00 kcal/mol
DOCKED: USER    (2) Final Total Internal Energy     =   -2.10 kcal/mol
DOCKED: USER    (3) Torsional Free Energy           =   +3.58 kcal/mol
DOCKED: USER    (4) Unbound System's Energy  [=(2)] =   -2.10 kcal/mol
DOCKED: USER    
DOCKED: USER    
DOCKED: USER    NEWDPF move heme_Co_opt.pdbqt
DOCKED: USER    NEWDPF about 8.781000 34.984000 -0.736000
DOCKED: USER    NEWDPF tran0 -15.317906 5.500811 4.763707
DOCKED: USER    NEWDPF quaternion0 -0.161638 0.303218 0.843764 -0.412304
DOCKED: USER    NEWDPF axisangle0 -0.177420 0.332824 0.926148 -131.300708
DOCKED: USER    NEWDPF quat0 -0.177420 0.332824 0.926148 -131.300708
DOCKED: USER    NEWDPF dihe0 158.38 111.17 -67.44 116.89 -98.50 141.60 -126.80 70.53 -146.58 -54.67 179.94 7.32 
DOCKED: USER  keepresnum = 1 
DOCKED: USER  
DOCKED: REMARK  12 active torsions:
DOCKED: REMARK  status: ('A' for Active; 'I' for Inactive)
DOCKED: REMARK    1  A    between atoms: C_6  and  C_10 
DOCKED: REMARK    2  A    between atoms: C_10  and  C_11 
DOCKED: REMARK    3  A    between atoms: C_11  and  C_12 
DOCKED: REMARK    4  A    between atoms: C_12  and  O_14 
DOCKED: REMARK    5  A    between atoms: C_17  and  C_20 
DOCKED: REMARK    6  A    between atoms: C_24  and  C_27 
DOCKED: REMARK    7  A    between atoms: C_31  and  C_34 
DOCKED: REMARK    8  A    between atoms: C_34  and  C_35 
DOCKED: REMARK    9  A    between atoms: C_35  and  C_36 
DOCKED: REMARK   10  A    between atoms: C_36  and  O_38 
DOCKED: REMARK   11  A    between atoms: FE_43  and  C_44 
DOCKED: REMARK   12  A    between atoms: C_44  and  O_45 
DOCKED: USER                              x       y       z     vdW  Elec       q    Type
DOCKED: USER                           _______ _______ _______ _____ _____    ______ ____
DOCKED: ROOT
DOCKED: ATOM      1  C   UNL d   1     -14.519   3.558   5.315 -0.08 +0.01    +0.064 A 
DOCKED: ATOM      2  C   UNL d   1     -13.257   7.986   6.503 -0.17 -0.01    +0.064 C 
DOCKED: ATOM      3  C   UNL d   1     -16.506   9.763   3.484 -0.16 -0.01    +0.064 A 
DOCKED: ATOM      4  C   UNL d   1     -18.076   5.255   2.542 -0.19 +0.01    +0.064 A 
DOCKED: ATOM      5  C   UNL d   1     -13.911   4.638   5.834 -0.11 +0.01    +0.066 A 
DOCKED: ATOM      6  C   UNL d   1     -12.925   4.531   6.835 -0.21 -0.00    -0.021 A 
DOCKED: ATOM      7  C   UNL d   1     -12.579   5.819   7.192 -0.32 +0.00    -0.025 A 
DOCKED: ATOM      8  C   UNL d   1     -13.355   6.656   6.384 -0.20 -0.00    +0.066 A 
DOCKED: ATOM      9  C   UNL d   1     -11.559   6.261   8.252 -0.49 -0.00    +0.051 C 
DOCKED: ATOM     10  C   UNL d   1     -13.996   8.926   5.697 -0.18 -0.01    +0.066 A 
DOCKED: ATOM     11  C   UNL d   1     -13.836  10.329   5.676 -0.22 +0.00    -0.021 A 
DOCKED: ATOM     12  C   UNL d   1     -14.793  10.821   4.784 -0.13 -0.00    +0.000 A 
DOCKED: ATOM     13  C   UNL d   1     -15.456   9.685   4.319 -0.13 -0.01    +0.070 A 
DOCKED: ATOM     14  C   UNL d   1     -12.770  11.115   6.394 -0.41 -0.02    +0.052 C 
DOCKED: ATOM     15  C   UNL d   1     -17.336   8.701   2.948 -0.17 -0.01    +0.066 A 
DOCKED: ATOM     16  C   UNL d   1     -18.497   8.860   2.205 -0.15 +0.00    -0.021 A 
DOCKED: ATOM     17  C   UNL d   1     -18.955   7.563   1.933 -0.24 +0.00    +0.000 A 
DOCKED: ATOM     18  C   UNL d   1     -18.024   6.712   2.519 -0.22 +0.01    +0.070 A 
DOCKED: ATOM     19  C   UNL d   1     -19.105  10.184   1.799 -0.16 -0.00    +0.052 C 
DOCKED: ATOM     20  C   UNL d   1     -17.230   4.410   3.178 -0.15 +0.01    +0.066 A 
DOCKED: ATOM     21  C   UNL d   1     -17.404   3.028   3.157 -0.12 -0.00    -0.025 A 
DOCKED: ATOM     22  C   UNL d   1     -16.376   2.511   3.924 -0.09 -0.00    -0.021 A 
DOCKED: ATOM     23  C   UNL d   1     -15.627   3.612   4.389 -0.09 +0.01    +0.066 A 
DOCKED: ATOM     24  C   UNL d   1     -18.507   2.239   2.456 -0.11 +0.01    +0.051 C 
DOCKED: ATOM     25  N   UNL d   1     -14.185   5.951   5.529 -0.07 -0.01    -0.248 N 
DOCKED: ATOM     26  N   UNL d   1     -14.936   8.536   4.829 -0.08 +0.02    -0.248 N 
DOCKED: ATOM     27  N   UNL d   1     -17.091   7.425   3.140 -0.11 -0.00    -0.248 N 
DOCKED: ATOM     28  N   UNL d   1     -16.142   4.764   3.942 -0.06 -0.03    -0.248 N 
DOCKED: ATOM     29 FE   UNL d   1     -15.725   6.728   4.262 -0.04 +0.00    +0.000 Fe
DOCKED: ENDROOT
DOCKED: BRANCH   6  30
DOCKED: ATOM     30  C   UNL d   1     -12.408   3.244   7.468 -0.26 +0.01    +0.052 C 
DOCKED: BRANCH  30  31
DOCKED: ATOM     31  C   UNL d   1     -13.145   2.954   8.776 -0.17 +0.03    +0.115 C 
DOCKED: BRANCH  31  32
DOCKED: ATOM     32  C   UNL d   1     -14.574   3.452   8.755 -0.10 +0.04    +0.139 C 
DOCKED: ATOM     33  O   UNL d   1     -15.486   2.654   8.603 +0.02 -0.16    -0.650 OA
DOCKED: BRANCH  32  34
DOCKED: ATOM     34  O   UNL d   1     -14.882   4.756   8.949 -0.49 -0.33    -0.776 OA
DOCKED: ATOM     35  H   UNL d   1     -15.681   5.182   8.608 +0.03 +0.04    +0.167 HD
DOCKED: ENDBRANCH  32  34
DOCKED: ENDBRANCH  31  32
DOCKED: ENDBRANCH  30  31
DOCKED: ENDBRANCH   6  30
DOCKED: BRANCH  29  36
DOCKED: ATOM     36  C   UNL d   1     -16.958   6.738   5.958 -0.03 +0.01    +0.190 C 
DOCKED: BRANCH  36  37
DOCKED: ATOM     37  O   UNL d   1     -17.052   6.264   7.270 -0.00 -0.03    -0.399 OA
DOCKED: ATOM     38  H   UNL d   1     -16.231   5.711   7.402 +0.03 +0.02    +0.209 HD
DOCKED: ENDBRANCH  36  37
DOCKED: ENDBRANCH  29  36
DOCKED: BRANCH  22  39
DOCKED: ATOM     39  C   UNL d   1     -16.170   1.042   4.242 -0.06 +0.02    +0.052 C 
DOCKED: BRANCH  39  40
DOCKED: ATOM     40  C   UNL d   1     -14.950   0.489   3.487 -0.12 +0.08    +0.115 C 
DOCKED: BRANCH  40  41
DOCKED: ATOM     41  C   UNL d   1     -13.854  -0.052   4.381 +0.13 +0.19    +0.139 C 
DOCKED: ATOM     42  O   UNL d   1     -12.695  -0.021   3.993 -0.48 -1.12    -0.650 OA
DOCKED: BRANCH  41  43
DOCKED: ATOM     43  O   UNL d   1     -14.111  -0.489   5.634 -0.03 -0.88    -0.776 OA
DOCKED: ATOM     44  H   UNL d   1     -14.474   0.085   6.320 +0.02 +0.10    +0.167 HD
DOCKED: ENDBRANCH  41  43
DOCKED: ENDBRANCH  40  41
DOCKED: ENDBRANCH  39  40
DOCKED: ENDBRANCH  22  39
DOCKED: BRANCH  12  45
DOCKED: ATOM     45  C   UNL d   1     -15.143  12.224   4.307 -0.11 -0.00    +0.004 C 
DOCKED: ATOM     46  C   UNL d   1     -14.946  12.812   3.130 -0.16 -0.00    +0.012 C 
DOCKED: ENDBRANCH  12  45
DOCKED: BRANCH  17  47
DOCKED: ATOM     47  C   UNL d   1     -20.192   7.116   1.225 -0.22 +0.00    +0.004 C 
DOCKED: ATOM     48  C   UNL d   1     -21.133   6.358   1.793 -0.14 +0.00    +0.012 C 
DOCKED: ENDBRANCH  17  47
DOCKED: TORSDOF 12
DOCKED: TER
DOCKED: ENDMDL
________________________________________________________________________________


	BEGINNING GENETIC ALGORITHM DOCKING 92 of 100
Run: 92 Seed: 2098756090 549150985 [ Run 92 of 100 GA/GALS ]
Beginning LAMARCKIAN GENETIC ALGORITHM (LGA), with a maximum of 25000000 energy evaluations.

Final-Value: -10.679


	FINAL GENETIC ALGORITHM DOCKED STATE
	_______________________________________________


Detailed state:  trans -14.831 4.704 4.189 quatxyzw 0.124188 -0.232978 -0.902495 0.340297 center 8.781 34.984 -0.736 ntor 12 92.9642 104.0992 -21.0239 116.6676 -99.5798 137.6868 54.4719 153.2217 -44.1834 6.5992 -141.8766 -164.7413
State:	-14.831   4.704   4.189   0.132 -0.248 -0.960 140.210     92.96  104.10  -21.02  116.67  -99.58  137.69   54.47  153.22  -44.18    6.60 -141.88 -164.74

DOCKED: MODEL       92
DOCKED: USER    Run = 92
DOCKED: USER    DPF = D:/Protein_go_brrr/autodock/final/mut_D99N/heme_Co/dock.dpf
DOCKED: USER  
DOCKED: USER    Estimated Free Energy of Binding    =   -6.48 kcal/mol  [=(1)+(2)+(3)-(4)]
DOCKED: USER    Estimated Inhibition Constant, Ki   =   17.83 uM (micromolar)  [Temperature = 298.15 K]
DOCKED: USER    
DOCKED: USER    (1) Final Intermolecular Energy     =  -10.06 kcal/mol
DOCKED: USER        vdW + Hbond + desolv Energy     =   -7.08 kcal/mol
DOCKED: USER        Electrostatic Energy            =   -2.98 kcal/mol
DOCKED: USER    (2) Final Total Internal Energy     =   -0.62 kcal/mol
DOCKED: USER    (3) Torsional Free Energy           =   +3.58 kcal/mol
DOCKED: USER    (4) Unbound System's Energy  [=(2)] =   -0.62 kcal/mol
DOCKED: USER    
DOCKED: USER    
DOCKED: USER    NEWDPF move heme_Co_opt.pdbqt
DOCKED: USER    NEWDPF about 8.781000 34.984000 -0.736000
DOCKED: USER    NEWDPF tran0 -14.830716 4.704452 4.188584
DOCKED: USER    NEWDPF quaternion0 0.124188 -0.232978 -0.902495 0.340297
DOCKED: USER    NEWDPF axisangle0 0.132070 -0.247765 -0.959776 140.210036
DOCKED: USER    NEWDPF quat0 0.132070 -0.247765 -0.959776 140.210036
DOCKED: USER    NEWDPF dihe0 92.96 104.10 -21.02 116.67 -99.58 137.69 54.47 153.22 -44.18 6.60 -141.88 -164.74 
DOCKED: USER  keepresnum = 1 
DOCKED: USER  
DOCKED: REMARK  12 active torsions:
DOCKED: REMARK  status: ('A' for Active; 'I' for Inactive)
DOCKED: REMARK    1  A    between atoms: C_6  and  C_10 
DOCKED: REMARK    2  A    between atoms: C_10  and  C_11 
DOCKED: REMARK    3  A    between atoms: C_11  and  C_12 
DOCKED: REMARK    4  A    between atoms: C_12  and  O_14 
DOCKED: REMARK    5  A    between atoms: C_17  and  C_20 
DOCKED: REMARK    6  A    between atoms: C_24  and  C_27 
DOCKED: REMARK    7  A    between atoms: C_31  and  C_34 
DOCKED: REMARK    8  A    between atoms: C_34  and  C_35 
DOCKED: REMARK    9  A    between atoms: C_35  and  C_36 
DOCKED: REMARK   10  A    between atoms: C_36  and  O_38 
DOCKED: REMARK   11  A    between atoms: FE_43  and  C_44 
DOCKED: REMARK   12  A    between atoms: C_44  and  O_45 
DOCKED: USER                              x       y       z     vdW  Elec       q    Type
DOCKED: USER                           _______ _______ _______ _____ _____    ______ ____
DOCKED: ROOT
DOCKED: ATOM      1  C   UNL d   1     -13.683   2.869   4.365 -0.13 +0.02    +0.064 A 
DOCKED: ATOM      2  C   UNL d   1     -13.069   7.211   6.204 -0.16 -0.01    +0.064 C 
DOCKED: ATOM      3  C   UNL d   1     -16.799   8.840   3.701 -0.14 -0.00    +0.064 A 
DOCKED: ATOM      4  C   UNL d   1     -17.682   4.329   2.108 -0.22 +0.01    +0.064 A 
DOCKED: ATOM      5  C   UNL d   1     -13.219   3.944   5.024 -0.15 +0.01    +0.066 A 
DOCKED: ATOM      6  C   UNL d   1     -12.151   3.857   5.938 -0.24 -0.00    -0.021 A 
DOCKED: ATOM      7  C   UNL d   1     -11.992   5.115   6.485 -0.32 -0.00    -0.025 A 
DOCKED: ATOM      8  C   UNL d   1     -12.958   5.919   5.870 -0.21 -0.00    +0.066 A 
DOCKED: ATOM      9  C   UNL d   1     -10.975   5.559   7.548 -0.38 -0.00    +0.051 C 
DOCKED: ATOM     10  C   UNL d   1     -14.014   8.121   5.606 -0.17 -0.01    +0.066 A 
DOCKED: ATOM     11  C   UNL d   1     -14.087   9.516   5.810 -0.19 +0.00    -0.021 A 
DOCKED: ATOM     12  C   UNL d   1     -15.181   9.966   5.065 -0.11 -0.00    +0.000 A 
DOCKED: ATOM     13  C   UNL d   1     -15.685   8.818   4.454 -0.11 -0.00    +0.070 A 
DOCKED: ATOM     14  C   UNL d   1     -13.109  10.356   6.591 -0.38 -0.02    +0.052 C 
DOCKED: ATOM     15  C   UNL d   1     -17.485   7.746   3.041 -0.17 +0.00    +0.066 A 
DOCKED: ATOM     16  C   UNL d   1     -18.713   7.813   2.398 -0.20 -0.00    -0.021 A 
DOCKED: ATOM     17  C   UNL d   1     -18.973   6.514   1.939 -0.24 +0.00    +0.000 A 
DOCKED: ATOM     18  C   UNL d   1     -17.871   5.758   2.325 -0.23 +0.01    +0.070 A 
DOCKED: ATOM     19  C   UNL d   1     -19.559   9.058   2.251 -0.16 +0.00    +0.052 C 
DOCKED: ATOM     20  C   UNL d   1     -16.661   3.556   2.549 -0.18 +0.01    +0.066 A 
DOCKED: ATOM     21  C   UNL d   1     -16.609   2.185   2.307 -0.11 -0.01    -0.025 A 
DOCKED: ATOM     22  C   UNL d   1     -15.452   1.742   2.921 -0.15 -0.01    -0.021 A 
DOCKED: ATOM     23  C   UNL d   1     -14.857   2.872   3.522 -0.15 +0.02    +0.066 A 
DOCKED: ATOM     24  C   UNL d   1     -17.621   1.334   1.545 -0.06 +0.01    +0.051 C 
DOCKED: ATOM     25  N   UNL d   1     -13.729   5.221   4.956 -0.08 -0.02    -0.248 N 
DOCKED: ATOM     26  N   UNL d   1     -14.945   7.713   4.737 -0.06 +0.01    -0.248 N 
DOCKED: ATOM     27  N   UNL d   1     -17.019   6.518   3.005 -0.05 -0.01    -0.248 N 
DOCKED: ATOM     28  N   UNL d   1     -15.587   3.972   3.301 -0.10 -0.04    -0.248 N 
DOCKED: ATOM     29 FE   UNL d   1     -15.472   5.905   3.921 -0.03 +0.00    +0.000 Fe
DOCKED: ENDROOT
DOCKED: BRANCH   6  30
DOCKED: ATOM     30  C   UNL d   1     -11.381   2.598   6.320 -0.09 +0.01    +0.052 C 
DOCKED: BRANCH  30  31
DOCKED: ATOM     31  C   UNL d   1     -12.331   1.534   6.871 -0.19 +0.04    +0.115 C 
DOCKED: BRANCH  31  32
DOCKED: ATOM     32  C   UNL d   1     -12.072   0.166   6.277 -0.10 +0.11    +0.139 C 
DOCKED: ATOM     33  O   UNL d   1     -12.433  -0.070   5.134 -0.50 -0.86    -0.650 OA
DOCKED: BRANCH  32  34
DOCKED: ATOM     34  O   UNL d   1     -11.408  -0.797   6.957 -0.51 -0.70    -0.776 OA
DOCKED: ATOM     35  H   UNL d   1     -11.830  -1.437   7.546 +0.06 +0.12    +0.167 HD
DOCKED: ENDBRANCH  32  34
DOCKED: ENDBRANCH  31  32
DOCKED: ENDBRANCH  30  31
DOCKED: ENDBRANCH   6  30
DOCKED: BRANCH  29  36
DOCKED: ATOM     36  C   UNL d   1     -16.548   5.437   5.658 -0.05 +0.02    +0.190 C 
DOCKED: BRANCH  36  37
DOCKED: ATOM     37  O   UNL d   1     -16.478   4.710   6.851 -0.00 -0.05    -0.399 OA
DOCKED: ATOM     38  H   UNL d   1     -15.653   4.154   6.764 +0.03 +0.03    +0.209 HD
DOCKED: ENDBRANCH  36  37
DOCKED: ENDBRANCH  29  36
DOCKED: BRANCH  22  39
DOCKED: ATOM     39  C   UNL d   1     -14.983   0.300   2.979 -0.15 +0.04    +0.052 C 
DOCKED: BRANCH  39  40
DOCKED: ATOM     40  C   UNL d   1     -15.986  -0.565   3.761 -0.08 +0.08    +0.115 C 
DOCKED: BRANCH  40  41
DOCKED: ATOM     41  C   UNL d   1     -15.587  -2.020   3.891 +0.14 +0.19    +0.139 C 
DOCKED: ATOM     42  O   UNL d   1     -15.584  -2.731   2.896 -0.30 -0.92    -0.650 OA
DOCKED: BRANCH  41  43
DOCKED: ATOM     43  O   UNL d   1     -15.148  -2.534   5.061 +0.11 -1.29    -0.776 OA
DOCKED: ATOM     44  H   UNL d   1     -14.873  -1.979   5.802 +0.01 +0.22    +0.167 HD
DOCKED: ENDBRANCH  41  43
DOCKED: ENDBRANCH  40  41
DOCKED: ENDBRANCH  39  40
DOCKED: ENDBRANCH  22  39
DOCKED: BRANCH  12  45
DOCKED: ATOM     45  C   UNL d   1     -15.792  11.344   4.847 -0.08 -0.00    +0.004 C 
DOCKED: ATOM     46  C   UNL d   1     -15.787  12.134   3.777 -0.11 -0.00    +0.012 C 
DOCKED: ENDBRANCH  12  45
DOCKED: BRANCH  17  47
DOCKED: ATOM     47  C   UNL d   1     -20.174   5.974   1.235 -0.21 +0.00    +0.004 C 
DOCKED: ATOM     48  C   UNL d   1     -20.918   4.972   1.709 -0.14 +0.00    +0.012 C 
DOCKED: ENDBRANCH  17  47
DOCKED: TORSDOF 12
DOCKED: TER
DOCKED: ENDMDL
________________________________________________________________________________


	BEGINNING GENETIC ALGORITHM DOCKING 93 of 100
Run: 93 Seed: 179917698 885731970 [ Run 93 of 100 GA/GALS ]
Beginning LAMARCKIAN GENETIC ALGORITHM (LGA), with a maximum of 25000000 energy evaluations.

Final-Value: -9.525


	FINAL GENETIC ALGORITHM DOCKED STATE
	_______________________________________________


Detailed state:  trans -3.415 17.478 8.255 quatxyzw 0.049709 0.478137 0.195922 0.854710 center 8.781 34.984 -0.736 ntor 12 128.2628 135.3182 120.2625 103.2606 132.2580 89.9837 -22.2310 -41.6493 55.9697 -140.9996 150.1342 143.5520
State:	 -3.415  17.478   8.255   0.096  0.921  0.377 62.545    128.26  135.32  120.26  103.26  132.26   89.98  -22.23  -41.65   55.97 -141.00  150.13  143.55

DOCKED: MODEL       93
DOCKED: USER    Run = 93
DOCKED: USER    DPF = D:/Protein_go_brrr/autodock/final/mut_D99N/heme_Co/dock.dpf
DOCKED: USER  
DOCKED: USER    Estimated Free Energy of Binding    =   -3.79 kcal/mol  [=(1)+(2)+(3)-(4)]
DOCKED: USER    Estimated Inhibition Constant, Ki   =    1.66 mM (millimolar)  [Temperature = 298.15 K]
DOCKED: USER    
DOCKED: USER    (1) Final Intermolecular Energy     =   -7.37 kcal/mol
DOCKED: USER        vdW + Hbond + desolv Energy     =   -6.79 kcal/mol
DOCKED: USER        Electrostatic Energy            =   -0.58 kcal/mol
DOCKED: USER    (2) Final Total Internal Energy     =   -2.15 kcal/mol
DOCKED: USER    (3) Torsional Free Energy           =   +3.58 kcal/mol
DOCKED: USER    (4) Unbound System's Energy  [=(2)] =   -2.15 kcal/mol
DOCKED: USER    
DOCKED: USER    
DOCKED: USER    NEWDPF move heme_Co_opt.pdbqt
DOCKED: USER    NEWDPF about 8.781000 34.984000 -0.736000
DOCKED: USER    NEWDPF tran0 -3.415227 17.478479 8.254780
DOCKED: USER    NEWDPF quaternion0 0.049709 0.478137 0.195922 0.854710
DOCKED: USER    NEWDPF axisangle0 0.095758 0.921077 0.377422 62.544625
DOCKED: USER    NEWDPF quat0 0.095758 0.921077 0.377422 62.544625
DOCKED: USER    NEWDPF dihe0 128.26 135.32 120.26 103.26 132.26 89.98 -22.23 -41.65 55.97 -141.00 150.13 143.55 
DOCKED: USER  keepresnum = 1 
DOCKED: USER  
DOCKED: REMARK  12 active torsions:
DOCKED: REMARK  status: ('A' for Active; 'I' for Inactive)
DOCKED: REMARK    1  A    between atoms: C_6  and  C_10 
DOCKED: REMARK    2  A    between atoms: C_10  and  C_11 
DOCKED: REMARK    3  A    between atoms: C_11  and  C_12 
DOCKED: REMARK    4  A    between atoms: C_12  and  O_14 
DOCKED: REMARK    5  A    between atoms: C_17  and  C_20 
DOCKED: REMARK    6  A    between atoms: C_24  and  C_27 
DOCKED: REMARK    7  A    between atoms: C_31  and  C_34 
DOCKED: REMARK    8  A    between atoms: C_34  and  C_35 
DOCKED: REMARK    9  A    between atoms: C_35  and  C_36 
DOCKED: REMARK   10  A    between atoms: C_36  and  O_38 
DOCKED: REMARK   11  A    between atoms: FE_43  and  C_44 
DOCKED: REMARK   12  A    between atoms: C_44  and  O_45 
DOCKED: USER                              x       y       z     vdW  Elec       q    Type
DOCKED: USER                           _______ _______ _______ _____ _____    ______ ____
DOCKED: ROOT
DOCKED: ATOM      1  C   UNL d   1      -3.448  18.261   6.229 -0.10 +0.01    +0.064 A 
DOCKED: ATOM      2  C   UNL d   1      -6.859  16.474   9.019 -0.23 -0.01    +0.064 C 
DOCKED: ATOM      3  C   UNL d   1      -3.615  15.394  12.357 -0.12 -0.02    +0.064 A 
DOCKED: ATOM      4  C   UNL d   1      -0.170  17.562   9.692 -0.08 +0.00    +0.064 A 
DOCKED: ATOM      5  C   UNL d   1      -4.613  17.819   6.731 -0.23 +0.01    +0.066 A 
DOCKED: ATOM      6  C   UNL d   1      -5.838  18.019   6.065 -0.23 -0.01    -0.021 A 
DOCKED: ATOM      7  C   UNL d   1      -6.826  17.519   6.889 -0.14 -0.00    -0.025 A 
DOCKED: ATOM      8  C   UNL d   1      -6.162  17.021   8.015 -0.19 +0.00    +0.066 A 
DOCKED: ATOM      9  C   UNL d   1      -8.342  17.504   6.641 -0.03 +0.00    +0.051 C 
DOCKED: ATOM     10  C   UNL d   1      -6.260  15.912  10.205 -0.20 -0.01    +0.066 A 
DOCKED: ATOM     11  C   UNL d   1      -6.923  15.199  11.228 -0.21 +0.00    -0.021 A 
DOCKED: ATOM     12  C   UNL d   1      -5.953  14.893  12.186 -0.20 -0.00    +0.000 A 
DOCKED: ATOM     13  C   UNL d   1      -4.771  15.429  11.672 -0.18 -0.02    +0.070 A 
DOCKED: ATOM     14  C   UNL d   1      -8.367  14.768  11.223 -0.28 -0.02    +0.052 C 
DOCKED: ATOM     15  C   UNL d   1      -2.320  15.941  12.003 -0.17 -0.01    +0.066 A 
DOCKED: ATOM     16  C   UNL d   1      -1.199  15.999  12.820 -0.19 +0.00    -0.021 A 
DOCKED: ATOM     17  C   UNL d   1      -0.204  16.625  12.056 -0.16 -0.00    +0.000 A 
DOCKED: ATOM     18  C   UNL d   1      -0.793  16.886  10.824 -0.13 -0.00    +0.070 A 
DOCKED: ATOM     19  C   UNL d   1      -1.120  15.479  14.238 -0.27 -0.01    +0.052 C 
DOCKED: ATOM     20  C   UNL d   1      -0.749  17.904   8.516 -0.22 +0.00    +0.066 A 
DOCKED: ATOM     21  C   UNL d   1      -0.057  18.585   7.517 -0.25 -0.00    -0.025 A 
DOCKED: ATOM     22  C   UNL d   1      -0.968  18.775   6.495 -0.22 -0.00    -0.021 A 
DOCKED: ATOM     23  C   UNL d   1      -2.184  18.206   6.929 -0.18 +0.01    +0.066 A 
DOCKED: ATOM     24  C   UNL d   1       1.397  19.050   7.543 -0.18 +0.00    +0.051 C 
DOCKED: ATOM     25  N   UNL d   1      -4.789  17.188   7.942 -0.17 -0.01    -0.248 N 
DOCKED: ATOM     26  N   UNL d   1      -4.948  15.995  10.449 -0.13 +0.03    -0.248 N 
DOCKED: ATOM     27  N   UNL d   1      -2.062  16.493  10.838 -0.16 +0.03    -0.248 N 
DOCKED: ATOM     28  N   UNL d   1      -2.057  17.680   8.153 -0.19 -0.01    -0.248 N 
DOCKED: ATOM     29 FE   UNL d   1      -3.342  16.821   9.474 -0.05 -0.00    +0.000 Fe
DOCKED: ENDROOT
DOCKED: BRANCH   6  30
DOCKED: ATOM     30  C   UNL d   1      -6.042  18.734   4.733 -0.19 +0.02    +0.052 C 
DOCKED: BRANCH  30  31
DOCKED: ATOM     31  C   UNL d   1      -7.074  19.853   4.877 -0.08 +0.03    +0.115 C 
DOCKED: BRANCH  31  32
DOCKED: ATOM     32  C   UNL d   1      -8.200  19.732   3.873 -0.08 +0.05    +0.139 C 
DOCKED: ATOM     33  O   UNL d   1      -8.784  20.739   3.501 +0.01 -0.14    -0.650 OA
DOCKED: BRANCH  32  34
DOCKED: ATOM     34  O   UNL d   1      -8.554  18.544   3.331 -0.20 -0.58    -0.776 OA
DOCKED: ATOM     35  H   UNL d   1      -9.447  18.173   3.369 +0.02 +0.08    +0.167 HD
DOCKED: ENDBRANCH  32  34
DOCKED: ENDBRANCH  31  32
DOCKED: ENDBRANCH  30  31
DOCKED: ENDBRANCH   6  30
DOCKED: BRANCH  29  36
DOCKED: ATOM     36  C   UNL d   1      -3.845  18.704  10.244 -0.03 -0.01    +0.190 C 
DOCKED: BRANCH  36  37
DOCKED: ATOM     37  O   UNL d   1      -3.811  20.072   9.954 +0.00 +0.01    -0.399 OA
DOCKED: ATOM     38  H   UNL d   1      -3.749  20.122   8.960 +0.02 +0.00    +0.209 HD
DOCKED: ENDBRANCH  36  37
DOCKED: ENDBRANCH  29  36
DOCKED: BRANCH  22  39
DOCKED: ATOM     39  C   UNL d   1      -0.697  19.520   5.202 -0.20 +0.01    +0.052 C 
DOCKED: BRANCH  39  40
DOCKED: ATOM     40  C   UNL d   1      -1.561  20.789   5.115 -0.07 +0.01    +0.115 C 
DOCKED: BRANCH  40  41
DOCKED: ATOM     41  C   UNL d   1      -1.827  21.456   6.448 -0.03 +0.01    +0.139 C 
DOCKED: ATOM     42  O   UNL d   1      -1.123  22.391   6.801 +0.01 -0.02    -0.650 OA
DOCKED: BRANCH  41  43
DOCKED: ATOM     43  O   UNL d   1      -2.878  21.102   7.222 +0.03 -0.04    -0.776 OA
DOCKED: ATOM     44  H   UNL d   1      -2.778  20.848   8.148 +0.02 +0.01    +0.167 HD
DOCKED: ENDBRANCH  41  43
DOCKED: ENDBRANCH  40  41
DOCKED: ENDBRANCH  39  40
DOCKED: ENDBRANCH  22  39
DOCKED: BRANCH  12  45
DOCKED: ATOM     45  C   UNL d   1      -6.002  14.144  13.511 -0.26 -0.00    +0.004 C 
DOCKED: ATOM     46  C   UNL d   1      -5.747  12.870  13.795 -0.41 -0.00    +0.012 C 
DOCKED: ENDBRANCH  12  45
DOCKED: BRANCH  17  47
DOCKED: ATOM     47  C   UNL d   1       1.187  17.013  12.437 -0.12 -0.00    +0.004 C 
DOCKED: ATOM     48  C   UNL d   1       2.278  16.419  11.947 -0.15 -0.00    +0.012 C 
DOCKED: ENDBRANCH  17  47
DOCKED: TORSDOF 12
DOCKED: TER
DOCKED: ENDMDL
________________________________________________________________________________


	BEGINNING GENETIC ALGORITHM DOCKING 94 of 100
Run: 94 Seed: 456771894 807981791 [ Run 94 of 100 GA/GALS ]
Beginning LAMARCKIAN GENETIC ALGORITHM (LGA), with a maximum of 25000000 energy evaluations.

Final-Value: -10.938


	FINAL GENETIC ALGORITHM DOCKED STATE
	_______________________________________________


Detailed state:  trans -14.869 4.948 4.561 quatxyzw -0.174934 0.232065 0.904424 -0.312348 center 8.781 34.984 -0.736 ntor 12 67.5730 97.8250 -90.2944 115.8965 -101.1728 141.2702 23.0920 180.0000 -169.4861 74.3126 -177.2352 158.3646
State:	-14.869   4.948   4.561  -0.184  0.244  0.952 -143.598     67.57   97.82  -90.29  115.90 -101.17  141.27   23.09  180.00 -169.49   74.31 -177.24  158.36

DOCKED: MODEL       94
DOCKED: USER    Run = 94
DOCKED: USER    DPF = D:/Protein_go_brrr/autodock/final/mut_D99N/heme_Co/dock.dpf
DOCKED: USER  
DOCKED: USER    Estimated Free Energy of Binding    =   -4.50 kcal/mol  [=(1)+(2)+(3)-(4)]
DOCKED: USER    Estimated Inhibition Constant, Ki   =  500.78 uM (micromolar)  [Temperature = 298.15 K]
DOCKED: USER    
DOCKED: USER    (1) Final Intermolecular Energy     =   -8.08 kcal/mol
DOCKED: USER        vdW + Hbond + desolv Energy     =   -6.48 kcal/mol
DOCKED: USER        Electrostatic Energy            =   -1.60 kcal/mol
DOCKED: USER    (2) Final Total Internal Energy     =   -2.86 kcal/mol
DOCKED: USER    (3) Torsional Free Energy           =   +3.58 kcal/mol
DOCKED: USER    (4) Unbound System's Energy  [=(2)] =   -2.86 kcal/mol
DOCKED: USER    
DOCKED: USER    
DOCKED: USER    NEWDPF move heme_Co_opt.pdbqt
DOCKED: USER    NEWDPF about 8.781000 34.984000 -0.736000
DOCKED: USER    NEWDPF tran0 -14.869450 4.947553 4.560615
DOCKED: USER    NEWDPF quaternion0 -0.174934 0.232065 0.904424 -0.312348
DOCKED: USER    NEWDPF axisangle0 -0.184147 0.244287 0.952058 -143.598446
DOCKED: USER    NEWDPF quat0 -0.184147 0.244287 0.952058 -143.598446
DOCKED: USER    NEWDPF dihe0 67.57 97.82 -90.29 115.90 -101.17 141.27 23.09 180.00 -169.49 74.31 -177.24 158.36 
DOCKED: USER  keepresnum = 1 
DOCKED: USER  
DOCKED: REMARK  12 active torsions:
DOCKED: REMARK  status: ('A' for Active; 'I' for Inactive)
DOCKED: REMARK    1  A    between atoms: C_6  and  C_10 
DOCKED: REMARK    2  A    between atoms: C_10  and  C_11 
DOCKED: REMARK    3  A    between atoms: C_11  and  C_12 
DOCKED: REMARK    4  A    between atoms: C_12  and  O_14 
DOCKED: REMARK    5  A    between atoms: C_17  and  C_20 
DOCKED: REMARK    6  A    between atoms: C_24  and  C_27 
DOCKED: REMARK    7  A    between atoms: C_31  and  C_34 
DOCKED: REMARK    8  A    between atoms: C_34  and  C_35 
DOCKED: REMARK    9  A    between atoms: C_35  and  C_36 
DOCKED: REMARK   10  A    between atoms: C_36  and  O_38 
DOCKED: REMARK   11  A    between atoms: FE_43  and  C_44 
DOCKED: REMARK   12  A    between atoms: C_44  and  O_45 
DOCKED: USER                              x       y       z     vdW  Elec       q    Type
DOCKED: USER                           _______ _______ _______ _____ _____    ______ ____
DOCKED: ROOT
DOCKED: ATOM      1  C   UNL d   1     -13.607   3.214   4.902 -0.12 +0.01    +0.064 A 
DOCKED: ATOM      2  C   UNL d   1     -13.465   7.653   6.599 -0.26 -0.01    +0.064 C 
DOCKED: ATOM      3  C   UNL d   1     -17.093   8.899   3.750 -0.13 -0.00    +0.064 A 
DOCKED: ATOM      4  C   UNL d   1     -17.510   4.280   2.284 -0.20 +0.01    +0.064 A 
DOCKED: ATOM      5  C   UNL d   1     -13.278   4.344   5.548 -0.14 +0.01    +0.066 A 
DOCKED: ATOM      6  C   UNL d   1     -12.283   4.373   6.545 -0.26 -0.00    -0.021 A 
DOCKED: ATOM      7  C   UNL d   1     -12.262   5.658   7.050 -0.34 +0.00    -0.025 A 
DOCKED: ATOM      8  C   UNL d   1     -13.232   6.362   6.330 -0.20 -0.00    +0.066 A 
DOCKED: ATOM      9  C   UNL d   1     -11.369   6.216   8.169 -0.49 -0.00    +0.051 C 
DOCKED: ATOM     10  C   UNL d   1     -14.424   8.466   5.893 -0.14 -0.01    +0.066 A 
DOCKED: ATOM     11  C   UNL d   1     -14.616   9.857   6.032 -0.13 +0.00    -0.021 A 
DOCKED: ATOM     12  C   UNL d   1     -15.677  10.195   5.187 -0.08 -0.00    +0.000 A 
DOCKED: ATOM     13  C   UNL d   1     -16.044   8.990   4.587 -0.10 -0.00    +0.070 A 
DOCKED: ATOM     14  C   UNL d   1     -13.768  10.798   6.850 -0.30 -0.02    +0.052 C 
DOCKED: ATOM     15  C   UNL d   1     -17.641   7.733   3.086 -0.18 +0.00    +0.066 A 
DOCKED: ATOM     16  C   UNL d   1     -18.815   7.682   2.348 -0.21 -0.00    -0.021 A 
DOCKED: ATOM     17  C   UNL d   1     -18.941   6.351   1.925 -0.24 +0.00    +0.000 A 
DOCKED: ATOM     18  C   UNL d   1     -17.821   5.696   2.426 -0.22 +0.01    +0.070 A 
DOCKED: ATOM     19  C   UNL d   1     -19.736   8.852   2.084 -0.17 +0.01    +0.052 C 
DOCKED: ATOM     20  C   UNL d   1     -16.473   3.604   2.834 -0.18 +0.01    +0.066 A 
DOCKED: ATOM     21  C   UNL d   1     -16.300   2.233   2.655 -0.17 -0.01    -0.025 A 
DOCKED: ATOM     22  C   UNL d   1     -15.166   1.903   3.374 -0.14 -0.01    -0.021 A 
DOCKED: ATOM     23  C   UNL d   1     -14.707   3.096   3.972 -0.13 +0.02    +0.066 A 
DOCKED: ATOM     24  C   UNL d   1     -17.183   1.280   1.853 -0.10 +0.01    +0.051 C 
DOCKED: ATOM     25  N   UNL d   1     -13.873   5.575   5.388 -0.08 -0.01    -0.248 N 
DOCKED: ATOM     26  N   UNL d   1     -15.249   7.956   4.972 -0.06 +0.01    -0.248 N 
DOCKED: ATOM     27  N   UNL d   1     -17.085   6.543   3.137 -0.07 -0.01    -0.248 N 
DOCKED: ATOM     28  N   UNL d   1     -15.496   4.127   3.649 -0.08 -0.04    -0.248 N 
DOCKED: ATOM     29 FE   UNL d   1     -15.574   6.084   4.194 -0.04 +0.00    +0.000 Fe
DOCKED: ENDROOT
DOCKED: BRANCH   6  30
DOCKED: ATOM     30  C   UNL d   1     -11.455   3.191   7.038 -0.30 +0.01    +0.052 C 
DOCKED: BRANCH  30  31
DOCKED: ATOM     31  C   UNL d   1     -12.118   2.539   8.252 -0.14 +0.03    +0.115 C 
DOCKED: BRANCH  31  32
DOCKED: ATOM     32  C   UNL d   1     -13.502   3.090   8.518 -0.15 +0.04    +0.139 C 
DOCKED: ATOM     33  O   UNL d   1     -13.678   3.841   9.465 -0.06 -0.29    -0.650 OA
DOCKED: BRANCH  32  34
DOCKED: ATOM     34  O   UNL d   1     -14.552   2.814   7.709 +0.06 -0.19    -0.776 OA
DOCKED: ATOM     35  H   UNL d   1     -14.914   1.928   7.571 +0.02 +0.05    +0.167 HD
DOCKED: ENDBRANCH  32  34
DOCKED: ENDBRANCH  31  32
DOCKED: ENDBRANCH  30  31
DOCKED: ENDBRANCH   6  30
DOCKED: BRANCH  29  36
DOCKED: ATOM     36  C   UNL d   1     -16.749   5.598   5.861 -0.04 +0.02    +0.190 C 
DOCKED: BRANCH  36  37
DOCKED: ATOM     37  O   UNL d   1     -16.706   4.966   7.108 -0.00 -0.05    -0.399 OA
DOCKED: ATOM     38  H   UNL d   1     -15.863   4.433   7.097 +0.02 +0.03    +0.209 HD
DOCKED: ENDBRANCH  36  37
DOCKED: ENDBRANCH  29  36
DOCKED: BRANCH  22  39
DOCKED: ATOM     39  C   UNL d   1     -14.598   0.504   3.528 -0.14 +0.04    +0.052 C 
DOCKED: BRANCH  39  40
DOCKED: ATOM     40  C   UNL d   1     -15.001  -0.098   4.884 -0.08 +0.10    +0.115 C 
DOCKED: BRANCH  40  41
DOCKED: ATOM     41  C   UNL d   1     -13.853  -0.272   5.857 -0.07 +0.14    +0.139 C 
DOCKED: ATOM     42  O   UNL d   1     -12.781  -0.695   5.447 -0.27 -1.14    -0.650 OA
DOCKED: BRANCH  41  43
DOCKED: ATOM     43  O   UNL d   1     -13.953   0.109   7.149 +0.05 -0.41    -0.776 OA
DOCKED: ATOM     44  H   UNL d   1     -13.796   1.017   7.437 +0.04 +0.06    +0.167 HD
DOCKED: ENDBRANCH  41  43
DOCKED: ENDBRANCH  40  41
DOCKED: ENDBRANCH  39  40
DOCKED: ENDBRANCH  22  39
DOCKED: BRANCH  12  45
DOCKED: ATOM     45  C   UNL d   1     -16.369  11.512   4.865 -0.06 -0.00    +0.004 C 
DOCKED: ATOM     46  C   UNL d   1     -16.326  12.268   3.771 -0.08 -0.00    +0.012 C 
DOCKED: ENDBRANCH  12  45
DOCKED: BRANCH  17  47
DOCKED: ATOM     47  C   UNL d   1     -20.039   5.695   1.153 -0.17 +0.00    +0.004 C 
DOCKED: ATOM     48  C   UNL d   1     -20.721   4.637   1.597 -0.15 +0.00    +0.012 C 
DOCKED: ENDBRANCH  17  47
DOCKED: TORSDOF 12
DOCKED: TER
DOCKED: ENDMDL
________________________________________________________________________________


	BEGINNING GENETIC ALGORITHM DOCKING 95 of 100
Run: 95 Seed: 1497323877 708917800 [ Run 95 of 100 GA/GALS ]
Beginning LAMARCKIAN GENETIC ALGORITHM (LGA), with a maximum of 25000000 energy evaluations.

Final-Value: -11.401


	FINAL GENETIC ALGORITHM DOCKED STATE
	_______________________________________________


Detailed state:  trans -13.654 2.761 9.339 quatxyzw 0.108544 0.477617 -0.788099 0.372828 center 8.781 34.984 -0.736 ntor 12 -116.2002 102.0629 -155.1233 109.5758 136.0158 111.7976 -7.0006 117.9134 -78.3014 92.2406 165.5881 -172.3700
State:	-13.654   2.761   9.339   0.117  0.515 -0.849 136.220   -116.20  102.06 -155.12  109.58  136.02  111.80   -7.00  117.91  -78.30   92.24  165.59 -172.37

DOCKED: MODEL       95
DOCKED: USER    Run = 95
DOCKED: USER    DPF = D:/Protein_go_brrr/autodock/final/mut_D99N/heme_Co/dock.dpf
DOCKED: USER  
DOCKED: USER    Estimated Free Energy of Binding    =   -5.06 kcal/mol  [=(1)+(2)+(3)-(4)]
DOCKED: USER    Estimated Inhibition Constant, Ki   =  194.63 uM (micromolar)  [Temperature = 298.15 K]
DOCKED: USER    
DOCKED: USER    (1) Final Intermolecular Energy     =   -8.64 kcal/mol
DOCKED: USER        vdW + Hbond + desolv Energy     =   -5.97 kcal/mol
DOCKED: USER        Electrostatic Energy            =   -2.67 kcal/mol
DOCKED: USER    (2) Final Total Internal Energy     =   -2.76 kcal/mol
DOCKED: USER    (3) Torsional Free Energy           =   +3.58 kcal/mol
DOCKED: USER    (4) Unbound System's Energy  [=(2)] =   -2.76 kcal/mol
DOCKED: USER    
DOCKED: USER    
DOCKED: USER    NEWDPF move heme_Co_opt.pdbqt
DOCKED: USER    NEWDPF about 8.781000 34.984000 -0.736000
DOCKED: USER    NEWDPF tran0 -13.653588 2.761266 9.339193
DOCKED: USER    NEWDPF quaternion0 0.108544 0.477617 -0.788099 0.372828
DOCKED: USER    NEWDPF axisangle0 0.116978 0.514729 -0.849335 136.219789
DOCKED: USER    NEWDPF quat0 0.116978 0.514729 -0.849335 136.219789
DOCKED: USER    NEWDPF dihe0 -116.20 102.06 -155.12 109.58 136.02 111.80 -7.00 117.91 -78.30 92.24 165.59 -172.37 
DOCKED: USER  keepresnum = 1 
DOCKED: USER  
DOCKED: REMARK  12 active torsions:
DOCKED: REMARK  status: ('A' for Active; 'I' for Inactive)
DOCKED: REMARK    1  A    between atoms: C_6  and  C_10 
DOCKED: REMARK    2  A    between atoms: C_10  and  C_11 
DOCKED: REMARK    3  A    between atoms: C_11  and  C_12 
DOCKED: REMARK    4  A    between atoms: C_12  and  O_14 
DOCKED: REMARK    5  A    between atoms: C_17  and  C_20 
DOCKED: REMARK    6  A    between atoms: C_24  and  C_27 
DOCKED: REMARK    7  A    between atoms: C_31  and  C_34 
DOCKED: REMARK    8  A    between atoms: C_34  and  C_35 
DOCKED: REMARK    9  A    between atoms: C_35  and  C_36 
DOCKED: REMARK   10  A    between atoms: C_36  and  O_38 
DOCKED: REMARK   11  A    between atoms: FE_43  and  C_44 
DOCKED: REMARK   12  A    between atoms: C_44  and  O_45 
DOCKED: USER                              x       y       z     vdW  Elec       q    Type
DOCKED: USER                           _______ _______ _______ _____ _____    ______ ____
DOCKED: ROOT
DOCKED: ATOM      1  C   UNL d   1     -12.095   1.862   8.123 -0.22 +0.02    +0.064 A 
DOCKED: ATOM      2  C   UNL d   1     -13.657   0.930  12.517 -0.18 +0.03    +0.064 C 
DOCKED: ATOM      3  C   UNL d   1     -16.593   4.694  12.312 -0.08 +0.02    +0.064 A 
DOCKED: ATOM      4  C   UNL d   1     -15.297   5.437   7.683 -0.08 +0.01    +0.064 A 
DOCKED: ATOM      5  C   UNL d   1     -12.280   1.352   9.352 -0.19 +0.02    +0.066 A 
DOCKED: ATOM      6  C   UNL d   1     -11.636   0.174   9.777 -0.28 -0.01    -0.021 A 
DOCKED: ATOM      7  C   UNL d   1     -12.110  -0.104  11.044 -0.21 -0.01    -0.025 A 
DOCKED: ATOM      8  C   UNL d   1     -13.010   0.924  11.344 -0.18 +0.03    +0.066 A 
DOCKED: ATOM      9  C   UNL d   1     -11.740  -1.289  11.949 -0.22 +0.02    +0.051 C 
DOCKED: ATOM     10  C   UNL d   1     -14.580   1.959  12.924 -0.15 +0.04    +0.066 A 
DOCKED: ATOM     11  C   UNL d   1     -15.183   2.098  14.193 -0.10 -0.02    -0.021 A 
DOCKED: ATOM     12  C   UNL d   1     -16.031   3.206  14.106 -0.11 +0.00    +0.000 A 
DOCKED: ATOM     13  C   UNL d   1     -15.874   3.667  12.799 -0.12 +0.04    +0.070 A 
DOCKED: ATOM     14  C   UNL d   1     -14.882   1.274  15.418 -0.09 +0.04    +0.052 C 
DOCKED: ATOM     15  C   UNL d   1     -16.596   5.264  10.980 -0.01 +0.02    +0.066 A 
DOCKED: ATOM     16  C   UNL d   1     -17.468   6.231  10.500 -0.05 -0.00    -0.021 A 
DOCKED: ATOM     17  C   UNL d   1     -17.100   6.447   9.165 -0.06 +0.00    +0.000 A 
DOCKED: ATOM     18  C   UNL d   1     -16.017   5.604   8.939 -0.07 +0.02    +0.070 A 
DOCKED: ATOM     19  C   UNL d   1     -18.575   6.886  11.296 -0.03 +0.01    +0.052 C 
DOCKED: ATOM     20  C   UNL d   1     -14.298   4.562   7.416 -0.10 +0.01    +0.066 A 
DOCKED: ATOM     21  C   UNL d   1     -13.707   4.470   6.157 -0.12 -0.00    -0.025 A 
DOCKED: ATOM     22  C   UNL d   1     -12.761   3.467   6.262 -0.18 -0.00    -0.021 A 
DOCKED: ATOM     23  C   UNL d   1     -12.829   2.985   7.586 -0.18 +0.01    +0.066 A 
DOCKED: ATOM     24  C   UNL d   1     -14.042   5.283   4.910 -0.10 +0.00    +0.051 C 
DOCKED: ATOM     25  N   UNL d   1     -13.130   1.844  10.316 -0.11 -0.08    -0.248 N 
DOCKED: ATOM     26  N   UNL d   1     -14.954   2.947  12.103 -0.11 -0.13    -0.248 N 
DOCKED: ATOM     27  N   UNL d   1     -15.764   4.893  10.032 -0.02 -0.10    -0.248 N 
DOCKED: ATOM     28  N   UNL d   1     -13.760   3.644   8.287 -0.09 -0.06    -0.248 N 
DOCKED: ATOM     29 FE   UNL d   1     -14.524   3.460  10.163 -0.04 +0.00    +0.000 Fe
DOCKED: ENDROOT
DOCKED: BRANCH   6  30
DOCKED: ATOM     30  C   UNL d   1     -10.672  -0.681   8.960 -0.42 +0.02    +0.052 C 
DOCKED: BRANCH  30  31
DOCKED: ATOM     31  C   UNL d   1     -11.317  -2.018   8.597 -0.26 +0.05    +0.115 C 
DOCKED: BRANCH  31  32
DOCKED: ATOM     32  C   UNL d   1     -11.856  -2.035   7.183 -0.17 +0.12    +0.139 C 
DOCKED: ATOM     33  O   UNL d   1     -12.954  -2.524   6.964 -0.20 -0.70    -0.650 OA
DOCKED: BRANCH  32  34
DOCKED: ATOM     34  O   UNL d   1     -11.180  -1.478   6.151 -0.18 -0.92    -0.776 OA
DOCKED: ATOM     35  H   UNL d   1     -11.524  -0.763   5.599 +0.03 +0.23    +0.167 HD
DOCKED: ENDBRANCH  32  34
DOCKED: ENDBRANCH  31  32
DOCKED: ENDBRANCH  30  31
DOCKED: ENDBRANCH   6  30
DOCKED: BRANCH  29  36
DOCKED: ATOM     36  C   UNL d   1     -15.915   2.047   9.482 -0.01 +0.05    +0.190 C 
DOCKED: BRANCH  36  37
DOCKED: ATOM     37  O   UNL d   1     -16.060   0.945   8.634 +0.01 -0.10    -0.399 OA
DOCKED: ATOM     38  H   UNL d   1     -15.224   0.929   8.089 +0.02 +0.06    +0.209 HD
DOCKED: ENDBRANCH  36  37
DOCKED: ENDBRANCH  29  36
DOCKED: BRANCH  22  39
DOCKED: ATOM     39  C   UNL d   1     -11.887   2.960   5.130 -0.16 +0.01    +0.052 C 
DOCKED: BRANCH  39  40
DOCKED: ATOM     40  C   UNL d   1     -12.723   2.163   4.114 -0.18 +0.05    +0.115 C 
DOCKED: BRANCH  40  41
DOCKED: ATOM     41  C   UNL d   1     -12.752   0.670   4.364 -0.18 +0.13    +0.139 C 
DOCKED: ATOM     42  O   UNL d   1     -12.078  -0.068   3.659 -0.50 -1.02    -0.650 OA
DOCKED: BRANCH  41  43
DOCKED: ATOM     43  O   UNL d   1     -13.434   0.136   5.401 -0.14 -0.80    -0.776 OA
DOCKED: ATOM     44  H   UNL d   1     -13.151  -0.672   5.849 +0.02 +0.23    +0.167 HD
DOCKED: ENDBRANCH  41  43
DOCKED: ENDBRANCH  40  41
DOCKED: ENDBRANCH  39  40
DOCKED: ENDBRANCH  22  39
DOCKED: BRANCH  12  45
DOCKED: ATOM     45  C   UNL d   1     -16.953   3.889  15.108 -0.06 +0.00    +0.004 C 
DOCKED: ATOM     46  C   UNL d   1     -16.784   4.997  15.824 -0.07 +0.01    +0.012 C 
DOCKED: ENDBRANCH  12  45
DOCKED: BRANCH  17  47
DOCKED: ATOM     47  C   UNL d   1     -17.724   7.329   8.134 -0.02 +0.00    +0.004 C 
DOCKED: ATOM     48  C   UNL d   1     -17.113   8.392   7.606 -0.03 -0.00    +0.012 C 
DOCKED: ENDBRANCH  17  47
DOCKED: TORSDOF 12
DOCKED: TER
DOCKED: ENDMDL
________________________________________________________________________________


	BEGINNING GENETIC ALGORITHM DOCKING 96 of 100
Run: 96 Seed: 904130294 340143814 [ Run 96 of 100 GA/GALS ]
Beginning LAMARCKIAN GENETIC ALGORITHM (LGA), with a maximum of 25000000 energy evaluations.

Final-Value: -10.612


	FINAL GENETIC ALGORITHM DOCKED STATE
	_______________________________________________


Detailed state:  trans -9.662 16.454 -5.767 quatxyzw 0.569922 0.133293 -0.540794 -0.604122 center 8.781 34.984 -0.736 ntor 12 -162.4840 166.4910 131.4637 82.8189 -84.4997 120.2642 20.7809 -42.1380 -180.0000 147.1751 178.1060 172.7791
State:	 -9.662  16.454  -5.767   0.715  0.167 -0.679 -105.669   -162.48  166.49  131.46   82.82  -84.50  120.26   20.78  -42.14 -180.00  147.18  178.11  172.78

DOCKED: MODEL       96
DOCKED: USER    Run = 96
DOCKED: USER    DPF = D:/Protein_go_brrr/autodock/final/mut_D99N/heme_Co/dock.dpf
DOCKED: USER  
DOCKED: USER    Estimated Free Energy of Binding    =   -4.65 kcal/mol  [=(1)+(2)+(3)-(4)]
DOCKED: USER    Estimated Inhibition Constant, Ki   =  387.50 uM (micromolar)  [Temperature = 298.15 K]
DOCKED: USER    
DOCKED: USER    (1) Final Intermolecular Energy     =   -8.23 kcal/mol
DOCKED: USER        vdW + Hbond + desolv Energy     =   -6.83 kcal/mol
DOCKED: USER        Electrostatic Energy            =   -1.40 kcal/mol
DOCKED: USER    (2) Final Total Internal Energy     =   -2.38 kcal/mol
DOCKED: USER    (3) Torsional Free Energy           =   +3.58 kcal/mol
DOCKED: USER    (4) Unbound System's Energy  [=(2)] =   -2.38 kcal/mol
DOCKED: USER    
DOCKED: USER    
DOCKED: USER    NEWDPF move heme_Co_opt.pdbqt
DOCKED: USER    NEWDPF about 8.781000 34.984000 -0.736000
DOCKED: USER    NEWDPF tran0 -9.661934 16.453790 -5.767497
DOCKED: USER    NEWDPF quaternion0 0.569922 0.133293 -0.540794 -0.604122
DOCKED: USER    NEWDPF axisangle0 0.715181 0.167266 -0.678630 -105.668582
DOCKED: USER    NEWDPF quat0 0.715181 0.167266 -0.678630 -105.668582
DOCKED: USER    NEWDPF dihe0 -162.48 166.49 131.46 82.82 -84.50 120.26 20.78 -42.14 -180.00 147.18 178.11 172.78 
DOCKED: USER  keepresnum = 1 
DOCKED: USER  
DOCKED: REMARK  12 active torsions:
DOCKED: REMARK  status: ('A' for Active; 'I' for Inactive)
DOCKED: REMARK    1  A    between atoms: C_6  and  C_10 
DOCKED: REMARK    2  A    between atoms: C_10  and  C_11 
DOCKED: REMARK    3  A    between atoms: C_11  and  C_12 
DOCKED: REMARK    4  A    between atoms: C_12  and  O_14 
DOCKED: REMARK    5  A    between atoms: C_17  and  C_20 
DOCKED: REMARK    6  A    between atoms: C_24  and  C_27 
DOCKED: REMARK    7  A    between atoms: C_31  and  C_34 
DOCKED: REMARK    8  A    between atoms: C_34  and  C_35 
DOCKED: REMARK    9  A    between atoms: C_35  and  C_36 
DOCKED: REMARK   10  A    between atoms: C_36  and  O_38 
DOCKED: REMARK   11  A    between atoms: FE_43  and  C_44 
DOCKED: REMARK   12  A    between atoms: C_44  and  O_45 
DOCKED: USER                              x       y       z     vdW  Elec       q    Type
DOCKED: USER                           _______ _______ _______ _____ _____    ______ ____
DOCKED: ROOT
DOCKED: ATOM      1  C   UNL d   1      -9.607  18.015  -4.259 -0.01 +0.01    +0.064 A 
DOCKED: ATOM      2  C   UNL d   1     -12.973  14.897  -5.510 -0.21 -0.00    +0.064 C 
DOCKED: ATOM      3  C   UNL d   1     -10.250  13.349  -9.119 -0.15 -0.01    +0.064 A 
DOCKED: ATOM      4  C   UNL d   1      -6.644  16.254  -7.627 -0.11 +0.00    +0.064 A 
DOCKED: ATOM      5  C   UNL d   1     -10.742  17.302  -4.358 -0.03 +0.01    +0.066 A 
DOCKED: ATOM      6  C   UNL d   1     -11.782  17.419  -3.416 -0.04 -0.00    -0.021 A 
DOCKED: ATOM      7  C   UNL d   1     -12.746  16.496  -3.771 -0.11 -0.00    -0.025 A 
DOCKED: ATOM      8  C   UNL d   1     -12.260  15.867  -4.922 -0.12 -0.00    +0.066 A 
DOCKED: ATOM      9  C   UNL d   1     -14.078  16.205  -3.063 -0.16 -0.00    +0.051 C 
DOCKED: ATOM     10  C   UNL d   1     -12.566  14.212  -6.712 -0.20 -0.00    +0.066 A 
DOCKED: ATOM     11  C   UNL d   1     -13.330  13.286  -7.455 -0.28 +0.00    -0.021 A 
DOCKED: ATOM     12  C   UNL d   1     -12.514  12.854  -8.504 -0.27 -0.00    +0.000 A 
DOCKED: ATOM     13  C   UNL d   1     -11.320  13.555  -8.331 -0.19 -0.01    +0.070 A 
DOCKED: ATOM     14  C   UNL d   1     -14.774  12.927  -7.217 -0.28 -0.01    +0.052 C 
DOCKED: ATOM     15  C   UNL d   1      -8.930  13.944  -9.051 -0.20 -0.00    +0.066 A 
DOCKED: ATOM     16  C   UNL d   1      -7.823  13.581  -9.806 -0.24 +0.00    -0.021 A 
DOCKED: ATOM     17  C   UNL d   1      -6.780  14.414  -9.377 -0.18 -0.00    +0.000 A 
DOCKED: ATOM     18  C   UNL d   1      -7.339  15.234  -8.403 -0.14 +0.00    +0.070 A 
DOCKED: ATOM     19  C   UNL d   1      -7.800  12.498 -10.862 -0.34 -0.00    +0.052 C 
DOCKED: ATOM     20  C   UNL d   1      -7.144  17.003  -6.615 -0.08 +0.01    +0.066 A 
DOCKED: ATOM     21  C   UNL d   1      -6.367  17.927  -5.920 -0.06 -0.00    -0.025 A 
DOCKED: ATOM     22  C   UNL d   1      -7.203  18.471  -4.961 -0.03 -0.00    -0.021 A 
DOCKED: ATOM     23  C   UNL d   1      -8.455  17.839  -5.114 -0.03 +0.01    +0.066 A 
DOCKED: ATOM     24  C   UNL d   1      -4.895  18.261  -6.143 -0.06 +0.01    +0.051 C 
DOCKED: ATOM     25  N   UNL d   1     -11.023  16.351  -5.312 -0.02 -0.01    -0.248 N 
DOCKED: ATOM     26  N   UNL d   1     -11.373  14.417  -7.280 -0.08 +0.01    -0.248 N 
DOCKED: ATOM     27  N   UNL d   1      -8.612  14.906  -8.213 -0.08 -0.00    -0.248 N 
DOCKED: ATOM     28  N   UNL d   1      -8.423  16.948  -6.112 -0.03 -0.02    -0.248 N 
DOCKED: ATOM     29 FE   UNL d   1      -9.744  15.588  -6.848 -0.03 +0.00    +0.000 Fe
DOCKED: ENDROOT
DOCKED: BRANCH   6  30
DOCKED: ATOM     30  C   UNL d   1     -11.801  18.323  -2.188 -0.02 +0.01    +0.052 C 
DOCKED: BRANCH  30  31
DOCKED: ATOM     31  C   UNL d   1     -11.396  17.541  -0.939 -0.05 +0.02    +0.115 C 
DOCKED: BRANCH  31  32
DOCKED: ATOM     32  C   UNL d   1     -11.131  16.080  -1.234 -0.17 +0.03    +0.139 C 
DOCKED: ATOM     33  O   UNL d   1     -11.920  15.235  -0.840 -0.01 -0.05    -0.650 OA
DOCKED: BRANCH  32  34
DOCKED: ATOM     34  O   UNL d   1     -10.066  15.677  -1.966 +0.06 -0.19    -0.776 OA
DOCKED: ATOM     35  H   UNL d   1      -9.962  14.787  -2.329 -0.36 +0.00    +0.167 HD
DOCKED: ENDBRANCH  32  34
DOCKED: ENDBRANCH  31  32
DOCKED: ENDBRANCH  30  31
DOCKED: ENDBRANCH   6  30
DOCKED: BRANCH  29  36
DOCKED: ATOM     36  C   UNL d   1      -9.097  14.168  -5.448 -0.31 +0.01    +0.190 C 
DOCKED: BRANCH  36  37
DOCKED: ATOM     37  O   UNL d   1      -8.835  13.985  -4.086 -0.19 -0.05    -0.399 OA
DOCKED: ATOM     38  H   UNL d   1      -9.670  14.274  -3.623 -0.14 -0.01    +0.209 HD
DOCKED: ENDBRANCH  36  37
DOCKED: ENDBRANCH  29  36
DOCKED: BRANCH  22  39
DOCKED: ATOM     39  C   UNL d   1      -6.796  19.494  -3.918 -0.01 +0.01    +0.052 C 
DOCKED: BRANCH  39  40
DOCKED: ATOM     40  C   UNL d   1      -6.202  18.801  -2.681 -0.07 +0.05    +0.115 C 
DOCKED: BRANCH  40  41
DOCKED: ATOM     41  C   UNL d   1      -6.894  17.511  -2.295 -0.06 +0.12    +0.139 C 
DOCKED: ATOM     42  O   UNL d   1      -6.433  16.446  -2.681 -0.62 -0.67    -0.650 OA
DOCKED: BRANCH  41  43
DOCKED: ATOM     43  O   UNL d   1      -7.959  17.497  -1.463 -0.09 -0.77    -0.776 OA
DOCKED: ATOM     44  H   UNL d   1      -8.735  16.943  -1.621 +0.04 +0.12    +0.167 HD
DOCKED: ENDBRANCH  41  43
DOCKED: ENDBRANCH  40  41
DOCKED: ENDBRANCH  39  40
DOCKED: ENDBRANCH  22  39
DOCKED: BRANCH  12  45
DOCKED: ATOM     45  C   UNL d   1     -12.729  11.879  -9.653 -0.28 -0.00    +0.004 C 
DOCKED: ATOM     46  C   UNL d   1     -13.434  12.005 -10.775 -0.32 -0.00    +0.012 C 
DOCKED: ENDBRANCH  12  45
DOCKED: BRANCH  17  47
DOCKED: ATOM     47  C   UNL d   1      -5.345  14.434  -9.789 -0.18 -0.00    +0.004 C 
DOCKED: ATOM     48  C   UNL d   1      -4.351  13.982  -9.020 -0.28 -0.00    +0.012 C 
DOCKED: ENDBRANCH  17  47
DOCKED: TORSDOF 12
DOCKED: TER
DOCKED: ENDMDL
________________________________________________________________________________


	BEGINNING GENETIC ALGORITHM DOCKING 97 of 100
Run: 97 Seed: 1798965561 768781119 [ Run 97 of 100 GA/GALS ]
Beginning LAMARCKIAN GENETIC ALGORITHM (LGA), with a maximum of 25000000 energy evaluations.

Final-Value: -9.248


	FINAL GENETIC ALGORITHM DOCKED STATE
	_______________________________________________


Detailed state:  trans -18.465 10.699 2.053 quatxyzw 0.175142 -0.088383 0.089242 -0.976499 center 8.781 34.984 -0.736 ntor 12 12.2343 99.2346 -151.0399 -102.2832 119.5506 82.8673 138.3646 118.1361 94.0420 145.5673 60.0262 174.1193
State:	-18.465  10.699   2.053   0.813 -0.410  0.414 -24.892     12.23   99.23 -151.04 -102.28  119.55   82.87  138.36  118.14   94.04  145.57   60.03  174.12

DOCKED: MODEL       97
DOCKED: USER    Run = 97
DOCKED: USER    DPF = D:/Protein_go_brrr/autodock/final/mut_D99N/heme_Co/dock.dpf
DOCKED: USER  
DOCKED: USER    Estimated Free Energy of Binding    =   -3.70 kcal/mol  [=(1)+(2)+(3)-(4)]
DOCKED: USER    Estimated Inhibition Constant, Ki   =    1.95 mM (millimolar)  [Temperature = 298.15 K]
DOCKED: USER    
DOCKED: USER    (1) Final Intermolecular Energy     =   -7.28 kcal/mol
DOCKED: USER        vdW + Hbond + desolv Energy     =   -5.46 kcal/mol
DOCKED: USER        Electrostatic Energy            =   -1.82 kcal/mol
DOCKED: USER    (2) Final Total Internal Energy     =   -1.97 kcal/mol
DOCKED: USER    (3) Torsional Free Energy           =   +3.58 kcal/mol
DOCKED: USER    (4) Unbound System's Energy  [=(2)] =   -1.97 kcal/mol
DOCKED: USER    
DOCKED: USER    
DOCKED: USER    NEWDPF move heme_Co_opt.pdbqt
DOCKED: USER    NEWDPF about 8.781000 34.984000 -0.736000
DOCKED: USER    NEWDPF tran0 -18.465121 10.698545 2.052954
DOCKED: USER    NEWDPF quaternion0 0.175142 -0.088383 0.089242 -0.976499
DOCKED: USER    NEWDPF axisangle0 0.812634 -0.410083 0.414074 -24.892458
DOCKED: USER    NEWDPF quat0 0.812634 -0.410083 0.414074 -24.892458
DOCKED: USER    NEWDPF dihe0 12.23 99.23 -151.04 -102.28 119.55 82.87 138.36 118.14 94.04 145.57 60.03 174.12 
DOCKED: USER  keepresnum = 1 
DOCKED: USER  
DOCKED: REMARK  12 active torsions:
DOCKED: REMARK  status: ('A' for Active; 'I' for Inactive)
DOCKED: REMARK    1  A    between atoms: C_6  and  C_10 
DOCKED: REMARK    2  A    between atoms: C_10  and  C_11 
DOCKED: REMARK    3  A    between atoms: C_11  and  C_12 
DOCKED: REMARK    4  A    between atoms: C_12  and  O_14 
DOCKED: REMARK    5  A    between atoms: C_17  and  C_20 
DOCKED: REMARK    6  A    between atoms: C_24  and  C_27 
DOCKED: REMARK    7  A    between atoms: C_31  and  C_34 
DOCKED: REMARK    8  A    between atoms: C_34  and  C_35 
DOCKED: REMARK    9  A    between atoms: C_35  and  C_36 
DOCKED: REMARK   10  A    between atoms: C_36  and  O_38 
DOCKED: REMARK   11  A    between atoms: FE_43  and  C_44 
DOCKED: REMARK   12  A    between atoms: C_44  and  O_45 
DOCKED: USER                              x       y       z     vdW  Elec       q    Type
DOCKED: USER                           _______ _______ _______ _____ _____    ______ ____
DOCKED: ROOT
DOCKED: ATOM      1  C   UNL d   1     -20.321  11.186   1.037 -0.09 +0.00    +0.064 A 
DOCKED: ATOM      2  C   UNL d   1     -19.084   7.575   3.873 -0.08 +0.00    +0.064 C 
DOCKED: ATOM      3  C   UNL d   1     -14.582   9.171   4.003 -0.18 -0.01    +0.064 A 
DOCKED: ATOM      4  C   UNL d   1     -15.906  13.078   1.425 -0.19 -0.01    +0.064 A 
DOCKED: ATOM      5  C   UNL d   1     -20.306  10.062   1.772 -0.09 +0.01    +0.066 A 
DOCKED: ATOM      6  C   UNL d   1     -21.477   9.326   2.037 -0.05 -0.00    -0.021 A 
DOCKED: ATOM      7  C   UNL d   1     -21.116   8.292   2.879 -0.05 -0.00    -0.025 A 
DOCKED: ATOM      8  C   UNL d   1     -19.739   8.432   3.079 -0.08 +0.01    +0.066 A 
DOCKED: ATOM      9  C   UNL d   1     -22.022   7.207   3.481 -0.02 +0.01    +0.051 C 
DOCKED: ATOM     10  C   UNL d   1     -17.664   7.625   4.117 -0.10 +0.00    +0.066 A 
DOCKED: ATOM     11  C   UNL d   1     -16.896   6.675   4.825 -0.08 -0.00    -0.021 A 
DOCKED: ATOM     12  C   UNL d   1     -15.587   7.163   4.845 -0.07 +0.00    +0.000 A 
DOCKED: ATOM     13  C   UNL d   1     -15.650   8.365   4.138 -0.07 -0.00    +0.070 A 
DOCKED: ATOM     14  C   UNL d   1     -17.383   5.351   5.356 -0.06 +0.00    +0.052 C 
DOCKED: ATOM     15  C   UNL d   1     -14.482  10.464   3.355 -0.25 -0.01    +0.066 A 
DOCKED: ATOM     16  C   UNL d   1     -13.385  11.313   3.377 -0.32 +0.00    -0.021 A 
DOCKED: ATOM     17  C   UNL d   1     -13.763  12.442   2.636 -0.27 -0.00    +0.000 A 
DOCKED: ATOM     18  C   UNL d   1     -15.060  12.184   2.206 -0.23 -0.01    +0.070 A 
DOCKED: ATOM     19  C   UNL d   1     -12.072  11.031   4.073 -0.40 -0.01    +0.052 C 
DOCKED: ATOM     20  C   UNL d   1     -17.199  12.886   1.068 -0.12 -0.01    +0.066 A 
DOCKED: ATOM     21  C   UNL d   1     -17.919  13.835   0.346 -0.04 +0.00    -0.025 A 
DOCKED: ATOM     22  C   UNL d   1     -19.187  13.304   0.194 -0.12 -0.00    -0.021 A 
DOCKED: ATOM     23  C   UNL d   1     -19.181  12.053   0.847 -0.14 -0.00    +0.066 A 
DOCKED: ATOM     24  C   UNL d   1     -17.431  15.190  -0.158 -0.08 -0.00    +0.051 C 
DOCKED: ATOM     25  N   UNL d   1     -19.209   9.517   2.401 -0.08 -0.00    -0.248 N 
DOCKED: ATOM     26  N   UNL d   1     -16.895   8.614   3.651 -0.10 +0.01    -0.248 N 
DOCKED: ATOM     27  N   UNL d   1     -15.467  11.011   2.678 -0.16 +0.05    -0.248 N 
DOCKED: ATOM     28  N   UNL d   1     -17.980  11.797   1.379 -0.11 +0.04    -0.248 N 
DOCKED: ATOM     29 FE   UNL d   1     -17.228  10.311   2.545 -0.04 -0.00    +0.000 Fe
DOCKED: ENDROOT
DOCKED: BRANCH   6  30
DOCKED: ATOM     30  C   UNL d   1     -22.888   9.659   1.562 -0.03 +0.01    +0.052 C 
DOCKED: BRANCH  30  31
DOCKED: ATOM     31  C   UNL d   1     -23.663   8.381   1.245 -0.04 +0.04    +0.115 C 
DOCKED: BRANCH  31  32
DOCKED: ATOM     32  C   UNL d   1     -23.458   7.920  -0.182 +0.03 +0.15    +0.139 C 
DOCKED: ATOM     33  O   UNL d   1     -22.613   8.467  -0.875 -0.32 -1.16    -0.650 OA
DOCKED: BRANCH  32  34
DOCKED: ATOM     34  O   UNL d   1     -24.151   6.883  -0.708 -0.26 -1.05    -0.776 OA
DOCKED: ATOM     35  H   UNL d   1     -24.889   6.442  -0.266 +0.01 +0.11    +0.167 HD
DOCKED: ENDBRANCH  32  34
DOCKED: ENDBRANCH  31  32
DOCKED: ENDBRANCH  30  31
DOCKED: ENDBRANCH   6  30
DOCKED: BRANCH  29  36
DOCKED: ATOM     36  C   UNL d   1     -17.874  11.308   4.272 -0.03 -0.02    +0.190 C 
DOCKED: BRANCH  36  37
DOCKED: ATOM     37  O   UNL d   1     -18.677  12.364   4.715 +0.00 +0.03    -0.399 OA
DOCKED: ATOM     38  H   UNL d   1     -18.874  12.898   3.895 +0.01 -0.01    +0.209 HD
DOCKED: ENDBRANCH  36  37
DOCKED: ENDBRANCH  29  36
DOCKED: BRANCH  22  39
DOCKED: ATOM     39  C   UNL d   1     -20.355  13.995  -0.485 -0.07 +0.00    +0.052 C 
DOCKED: BRANCH  39  40
DOCKED: ATOM     40  C   UNL d   1     -21.080  14.929   0.499 -0.01 +0.00    +0.115 C 
DOCKED: BRANCH  40  41
DOCKED: ATOM     41  C   UNL d   1     -21.227  14.369   1.898 -0.00 +0.00    +0.139 C 
DOCKED: ATOM     42  O   UNL d   1     -22.312  13.935   2.258 +0.01 -0.02    -0.650 OA
DOCKED: BRANCH  41  43
DOCKED: ATOM     43  O   UNL d   1     -20.170  14.255   2.733 +0.01 +0.01    -0.776 OA
DOCKED: ATOM     44  H   UNL d   1     -20.077  13.524   3.357 +0.00 -0.00    +0.167 HD
DOCKED: ENDBRANCH  41  43
DOCKED: ENDBRANCH  40  41
DOCKED: ENDBRANCH  39  40
DOCKED: ENDBRANCH  22  39
DOCKED: BRANCH  12  45
DOCKED: ATOM     45  C   UNL d   1     -14.287   6.627   5.429 -0.18 +0.00    +0.004 C 
DOCKED: ATOM     46  C   UNL d   1     -13.553   7.060   6.451 -0.26 -0.00    +0.012 C 
DOCKED: ENDBRANCH  12  45
DOCKED: BRANCH  17  47
DOCKED: ATOM     47  C   UNL d   1     -13.012  13.706   2.375 -0.28 -0.00    +0.004 C 
DOCKED: ATOM     48  C   UNL d   1     -12.324  13.937   1.254 -0.37 -0.00    +0.012 C 
DOCKED: ENDBRANCH  17  47
DOCKED: TORSDOF 12
DOCKED: TER
DOCKED: ENDMDL
________________________________________________________________________________


	BEGINNING GENETIC ALGORITHM DOCKING 98 of 100
Run: 98 Seed: 1132859306 1447703373 [ Run 98 of 100 GA/GALS ]
Beginning LAMARCKIAN GENETIC ALGORITHM (LGA), with a maximum of 25000000 energy evaluations.

Final-Value: -10.688


	FINAL GENETIC ALGORITHM DOCKED STATE
	_______________________________________________


Detailed state:  trans -13.306 1.746 9.922 quatxyzw -0.024032 -0.487657 0.796844 -0.355884 center 8.781 34.984 -0.736 ntor 12 53.5690 131.4340 -128.3776 116.4228 134.9999 104.9875 52.8518 141.6151 141.0079 127.2773 -143.8311 180.0000
State:	-13.306   1.746   9.922  -0.026 -0.522  0.853 -138.305     53.57  131.43 -128.38  116.42  135.00  104.99   52.85  141.62  141.01  127.28 -143.83  180.00

DOCKED: MODEL       98
DOCKED: USER    Run = 98
DOCKED: USER    DPF = D:/Protein_go_brrr/autodock/final/mut_D99N/heme_Co/dock.dpf
DOCKED: USER  
DOCKED: USER    Estimated Free Energy of Binding    =   -3.59 kcal/mol  [=(1)+(2)+(3)-(4)]
DOCKED: USER    Estimated Inhibition Constant, Ki   =    2.32 mM (millimolar)  [Temperature = 298.15 K]
DOCKED: USER    
DOCKED: USER    (1) Final Intermolecular Energy     =   -7.17 kcal/mol
DOCKED: USER        vdW + Hbond + desolv Energy     =   -5.31 kcal/mol
DOCKED: USER        Electrostatic Energy            =   -1.86 kcal/mol
DOCKED: USER    (2) Final Total Internal Energy     =   -3.51 kcal/mol
DOCKED: USER    (3) Torsional Free Energy           =   +3.58 kcal/mol
DOCKED: USER    (4) Unbound System's Energy  [=(2)] =   -3.51 kcal/mol
DOCKED: USER    
DOCKED: USER    
DOCKED: USER    NEWDPF move heme_Co_opt.pdbqt
DOCKED: USER    NEWDPF about 8.781000 34.984000 -0.736000
DOCKED: USER    NEWDPF tran0 -13.306107 1.746274 9.922059
DOCKED: USER    NEWDPF quaternion0 -0.024032 -0.487657 0.796844 -0.355884
DOCKED: USER    NEWDPF axisangle0 -0.025716 -0.521820 0.852668 -138.304705
DOCKED: USER    NEWDPF quat0 -0.025716 -0.521820 0.852668 -138.304705
DOCKED: USER    NEWDPF dihe0 53.57 131.43 -128.38 116.42 135.00 104.99 52.85 141.62 141.01 127.28 -143.83 180.00 
DOCKED: USER  keepresnum = 1 
DOCKED: USER  
DOCKED: REMARK  12 active torsions:
DOCKED: REMARK  status: ('A' for Active; 'I' for Inactive)
DOCKED: REMARK    1  A    between atoms: C_6  and  C_10 
DOCKED: REMARK    2  A    between atoms: C_10  and  C_11 
DOCKED: REMARK    3  A    between atoms: C_11  and  C_12 
DOCKED: REMARK    4  A    between atoms: C_12  and  O_14 
DOCKED: REMARK    5  A    between atoms: C_17  and  C_20 
DOCKED: REMARK    6  A    between atoms: C_24  and  C_27 
DOCKED: REMARK    7  A    between atoms: C_31  and  C_34 
DOCKED: REMARK    8  A    between atoms: C_34  and  C_35 
DOCKED: REMARK    9  A    between atoms: C_35  and  C_36 
DOCKED: REMARK   10  A    between atoms: C_36  and  O_38 
DOCKED: REMARK   11  A    between atoms: FE_43  and  C_44 
DOCKED: REMARK   12  A    between atoms: C_44  and  O_45 
DOCKED: USER                              x       y       z     vdW  Elec       q    Type
DOCKED: USER                           _______ _______ _______ _____ _____    ______ ____
DOCKED: ROOT
DOCKED: ATOM      1  C   UNL d   1     -11.807   1.114   8.483 -0.23 +0.02    +0.064 A 
DOCKED: ATOM      2  C   UNL d   1     -12.739  -0.260  12.939 -0.18 +0.03    +0.064 C 
DOCKED: ATOM      3  C   UNL d   1     -16.082   3.132  13.326 -0.09 +0.03    +0.064 A 
DOCKED: ATOM      4  C   UNL d   1     -15.418   4.301   8.651 -0.06 +0.02    +0.064 A 
DOCKED: ATOM      5  C   UNL d   1     -11.791   0.513   9.685 -0.24 +0.02    +0.066 A 
DOCKED: ATOM      6  C   UNL d   1     -10.974  -0.603   9.951 -0.36 -0.01    -0.021 A 
DOCKED: ATOM      7  C   UNL d   1     -11.265  -1.012  11.238 -0.27 -0.01    -0.025 A 
DOCKED: ATOM      8  C   UNL d   1     -12.234  -0.118  11.707 -0.20 +0.02    +0.066 A 
DOCKED: ATOM      9  C   UNL d   1     -10.663  -2.196  12.009 -0.23 +0.01    +0.051 C 
DOCKED: ATOM     10  C   UNL d   1     -13.719   0.625  13.517 -0.11 +0.04    +0.066 A 
DOCKED: ATOM     11  C   UNL d   1     -14.184   0.615  14.850 -0.07 -0.01    -0.021 A 
DOCKED: ATOM     12  C   UNL d   1     -15.155   1.616  14.936 -0.08 +0.00    +0.000 A 
DOCKED: ATOM     13  C   UNL d   1     -15.201   2.171  13.657 -0.11 +0.05    +0.070 A 
DOCKED: ATOM     14  C   UNL d   1     -13.654  -0.239  15.973 -0.08 +0.03    +0.052 C 
DOCKED: ATOM     15  C   UNL d   1     -16.302   3.777  12.047 -0.08 +0.02    +0.066 A 
DOCKED: ATOM     16  C   UNL d   1     -17.327   4.660  11.735 -0.05 -0.01    -0.021 A 
DOCKED: ATOM     17  C   UNL d   1     -17.141   4.998  10.387 -0.06 +0.00    +0.000 A 
DOCKED: ATOM     18  C   UNL d   1     -16.003   4.305   9.986 -0.05 +0.02    +0.070 A 
DOCKED: ATOM     19  C   UNL d   1     -18.401   5.128  12.691 -0.02 +0.01    +0.052 C 
DOCKED: ATOM     20  C   UNL d   1     -14.365   3.570   8.215 -0.10 +0.02    +0.066 A 
DOCKED: ATOM     21  C   UNL d   1     -13.916   3.624   6.897 -0.09 -0.00    -0.025 A 
DOCKED: ATOM     22  C   UNL d   1     -12.857   2.738   6.827 -0.17 -0.01    -0.021 A 
DOCKED: ATOM     23  C   UNL d   1     -12.719   2.172   8.112 -0.17 +0.02    +0.066 A 
DOCKED: ATOM     24  C   UNL d   1     -14.481   4.465   5.756 -0.11 +0.01    +0.051 C 
DOCKED: ATOM     25  N   UNL d   1     -12.575   0.841  10.768 -0.12 -0.09    -0.248 N 
DOCKED: ATOM     26  N   UNL d   1     -14.293   1.608  12.815 -0.10 -0.15    -0.248 N 
DOCKED: ATOM     27  N   UNL d   1     -15.548   3.565  10.991 -0.07 -0.09    -0.248 N 
DOCKED: ATOM     28  N   UNL d   1     -13.631   2.671   8.955 -0.09 -0.07    -0.248 N 
DOCKED: ATOM     29 FE   UNL d   1     -14.149   2.285  10.883 -0.03 +0.00    +0.000 Fe
DOCKED: ENDROOT
DOCKED: BRANCH   6  30
DOCKED: ATOM     30  C   UNL d   1     -10.022  -1.286   8.976 -0.40 +0.02    +0.052 C 
DOCKED: BRANCH  30  31
DOCKED: ATOM     31  C   UNL d   1     -10.782  -1.803   7.755 -0.27 +0.07    +0.115 C 
DOCKED: BRANCH  31  32
DOCKED: ATOM     32  C   UNL d   1     -12.112  -2.425   8.123 -0.17 +0.08    +0.139 C 
DOCKED: ATOM     33  O   UNL d   1     -12.137  -3.546   8.608 +0.03 -0.27    -0.650 OA
DOCKED: BRANCH  32  34
DOCKED: ATOM     34  O   UNL d   1     -13.281  -1.758   7.977 +0.05 -0.45    -0.776 OA
DOCKED: ATOM     35  H   UNL d   1     -13.547  -1.297   7.170 +0.03 +0.13    +0.167 HD
DOCKED: ENDBRANCH  32  34
DOCKED: ENDBRANCH  31  32
DOCKED: ENDBRANCH  30  31
DOCKED: ENDBRANCH   6  30
DOCKED: BRANCH  29  36
DOCKED: ATOM     36  C   UNL d   1     -15.442   0.759  10.254 -0.01 +0.05    +0.190 C 
DOCKED: BRANCH  36  37
DOCKED: ATOM     37  O   UNL d   1     -15.603  -0.235   9.284 +0.01 -0.10    -0.399 OA
DOCKED: ATOM     38  H   UNL d   1     -14.692  -0.369   8.900 +0.03 +0.07    +0.209 HD
DOCKED: ENDBRANCH  36  37
DOCKED: ENDBRANCH  29  36
DOCKED: BRANCH  22  39
DOCKED: ATOM     39  C   UNL d   1     -12.069   2.408   5.573 -0.19 +0.02    +0.052 C 
DOCKED: BRANCH  39  40
DOCKED: ATOM     40  C   UNL d   1     -12.848   1.424   4.684 -0.18 +0.07    +0.115 C 
DOCKED: BRANCH  40  41
DOCKED: ATOM     41  C   UNL d   1     -13.201   0.116   5.360 -0.10 +0.15    +0.139 C 
DOCKED: ATOM     42  O   UNL d   1     -12.354  -0.761   5.445 -0.35 -1.12    -0.650 OA
DOCKED: BRANCH  41  43
DOCKED: ATOM     43  O   UNL d   1     -14.401  -0.077   5.951 +0.02 -0.59    -0.776 OA
DOCKED: ATOM     44  H   UNL d   1     -14.489  -0.312   6.884 +0.02 +0.10    +0.167 HD
DOCKED: ENDBRANCH  41  43
DOCKED: ENDBRANCH  40  41
DOCKED: ENDBRANCH  39  40
DOCKED: ENDBRANCH  22  39
DOCKED: BRANCH  12  45
DOCKED: ATOM     45  C   UNL d   1     -16.026   2.123  16.078 -0.08 +0.00    +0.004 C 
DOCKED: ATOM     46  C   UNL d   1     -15.971   3.257  16.771 -0.07 +0.01    +0.012 C 
DOCKED: ENDBRANCH  12  45
DOCKED: BRANCH  17  47
DOCKED: ATOM     47  C   UNL d   1     -17.974   5.860   9.497 -0.03 +0.00    +0.004 C 
DOCKED: ATOM     48  C   UNL d   1     -17.557   7.027   9.001 -0.04 +0.00    +0.012 C 
DOCKED: ENDBRANCH  17  47
DOCKED: TORSDOF 12
DOCKED: TER
DOCKED: ENDMDL
________________________________________________________________________________


	BEGINNING GENETIC ALGORITHM DOCKING 99 of 100
Run: 99 Seed: 1999181912 1989295090 [ Run 99 of 100 GA/GALS ]
Beginning LAMARCKIAN GENETIC ALGORITHM (LGA), with a maximum of 25000000 energy evaluations.

Final-Value: -10.680


	FINAL GENETIC ALGORITHM DOCKED STATE
	_______________________________________________


Detailed state:  trans -3.741 -12.980 1.840 quatxyzw -0.904617 0.047860 0.200214 0.373219 center 8.781 34.984 -0.736 ntor 12 -95.7412 113.5323 53.9364 125.8891 -103.4286 124.2643 53.7315 121.3584 -117.5291 18.8654 -176.0231 -180.0000
State:	 -3.741 -12.980   1.840  -0.975  0.052  0.216 136.171    -95.74  113.53   53.94  125.89 -103.43  124.26   53.73  121.36 -117.53   18.87 -176.02 -180.00

DOCKED: MODEL       99
DOCKED: USER    Run = 99
DOCKED: USER    DPF = D:/Protein_go_brrr/autodock/final/mut_D99N/heme_Co/dock.dpf
DOCKED: USER  
DOCKED: USER    Estimated Free Energy of Binding    =   -4.55 kcal/mol  [=(1)+(2)+(3)-(4)]
DOCKED: USER    Estimated Inhibition Constant, Ki   =  462.53 uM (micromolar)  [Temperature = 298.15 K]
DOCKED: USER    
DOCKED: USER    (1) Final Intermolecular Energy     =   -8.13 kcal/mol
DOCKED: USER        vdW + Hbond + desolv Energy     =   -6.93 kcal/mol
DOCKED: USER        Electrostatic Energy            =   -1.20 kcal/mol
DOCKED: USER    (2) Final Total Internal Energy     =   -2.55 kcal/mol
DOCKED: USER    (3) Torsional Free Energy           =   +3.58 kcal/mol
DOCKED: USER    (4) Unbound System's Energy  [=(2)] =   -2.55 kcal/mol
DOCKED: USER    
DOCKED: USER    
DOCKED: USER    NEWDPF move heme_Co_opt.pdbqt
DOCKED: USER    NEWDPF about 8.781000 34.984000 -0.736000
DOCKED: USER    NEWDPF tran0 -3.740961 -12.980015 1.840146
DOCKED: USER    NEWDPF quaternion0 -0.904617 0.047860 0.200214 0.373219
DOCKED: USER    NEWDPF axisangle0 -0.975072 0.051588 0.215807 136.171475
DOCKED: USER    NEWDPF quat0 -0.975072 0.051588 0.215807 136.171475
DOCKED: USER    NEWDPF dihe0 -95.74 113.53 53.94 125.89 -103.43 124.26 53.73 121.36 -117.53 18.87 -176.02 -180.00 
DOCKED: USER  keepresnum = 1 
DOCKED: USER  
DOCKED: REMARK  12 active torsions:
DOCKED: REMARK  status: ('A' for Active; 'I' for Inactive)
DOCKED: REMARK    1  A    between atoms: C_6  and  C_10 
DOCKED: REMARK    2  A    between atoms: C_10  and  C_11 
DOCKED: REMARK    3  A    between atoms: C_11  and  C_12 
DOCKED: REMARK    4  A    between atoms: C_12  and  O_14 
DOCKED: REMARK    5  A    between atoms: C_17  and  C_20 
DOCKED: REMARK    6  A    between atoms: C_24  and  C_27 
DOCKED: REMARK    7  A    between atoms: C_31  and  C_34 
DOCKED: REMARK    8  A    between atoms: C_34  and  C_35 
DOCKED: REMARK    9  A    between atoms: C_35  and  C_36 
DOCKED: REMARK   10  A    between atoms: C_36  and  O_38 
DOCKED: REMARK   11  A    between atoms: FE_43  and  C_44 
DOCKED: REMARK   12  A    between atoms: C_44  and  O_45 
DOCKED: USER                              x       y       z     vdW  Elec       q    Type
DOCKED: USER                           _______ _______ _______ _____ _____    ______ ____
DOCKED: ROOT
DOCKED: ATOM      1  C   UNL d   1      -5.142 -12.323   3.364 -0.10 -0.00    +0.064 A 
DOCKED: ATOM      2  C   UNL d   1      -5.644 -13.164  -1.290 -0.13 -0.05    +0.064 C 
DOCKED: ATOM      3  C   UNL d   1      -0.950 -13.964  -1.689 -0.21 -0.01    +0.064 A 
DOCKED: ATOM      4  C   UNL d   1      -0.472 -13.489   3.129 -0.12 -0.01    +0.064 A 
DOCKED: ATOM      5  C   UNL d   1      -5.618 -12.459   2.115 -0.09 -0.01    +0.066 A 
DOCKED: ATOM      6  C   UNL d   1      -6.994 -12.367   1.825 -0.07 +0.00    -0.021 A 
DOCKED: ATOM      7  C   UNL d   1      -7.136 -12.635   0.478 -0.11 +0.01    -0.025 A 
DOCKED: ATOM      8  C   UNL d   1      -5.841 -12.861  -0.000 -0.14 -0.03    +0.066 A 
DOCKED: ATOM      9  C   UNL d   1      -8.434 -12.679  -0.342 -0.10 -0.04    +0.051 C 
DOCKED: ATOM     10  C   UNL d   1      -4.346 -13.388  -1.877 -0.20 -0.03    +0.066 A 
DOCKED: ATOM     11  C   UNL d   1      -4.061 -13.570  -3.248 -0.27 +0.01    -0.021 A 
DOCKED: ATOM     12  C   UNL d   1      -2.684 -13.797  -3.336 -0.25 -0.00    +0.000 A 
DOCKED: ATOM     13  C   UNL d   1      -2.232 -13.724  -2.018 -0.13 -0.01    +0.070 A 
DOCKED: ATOM     14  C   UNL d   1      -5.037 -13.437  -4.388 -0.34 -0.03    +0.052 C 
DOCKED: ATOM     15  C   UNL d   1      -0.325 -13.983  -0.381 -0.21 -0.01    +0.066 A 
DOCKED: ATOM     16  C   UNL d   1       0.974 -14.381  -0.096 -0.29 +0.00    -0.021 A 
DOCKED: ATOM     17  C   UNL d   1       1.116 -14.248   1.293 -0.34 -0.00    +0.000 A 
DOCKED: ATOM     18  C   UNL d   1      -0.107 -13.762   1.744 -0.21 -0.01    +0.070 A 
DOCKED: ATOM     19  C   UNL d   1       1.990 -14.854  -1.112 -0.32 -0.01    +0.052 C 
DOCKED: ATOM     20  C   UNL d   1      -1.681 -13.099   3.601 +0.10 -0.00    +0.066 A 
DOCKED: ATOM     21  C   UNL d   1      -1.920 -12.903   4.959 -0.12 +0.00    -0.025 A 
DOCKED: ATOM     22  C   UNL d   1      -3.251 -12.538   5.054 -0.19 +0.00    -0.021 A 
DOCKED: ATOM     23  C   UNL d   1      -3.764 -12.541   3.740 -0.14 -0.00    +0.066 A 
DOCKED: ATOM     24  C   UNL d   1      -0.936 -13.075   6.113 -0.30 -0.01    +0.051 C 
DOCKED: ATOM     25  N   UNL d   1      -4.880 -12.753   0.991 -0.08 +0.05    -0.248 N 
DOCKED: ATOM     26  N   UNL d   1      -3.228 -13.421  -1.144 -0.09 +0.04    -0.248 N 
DOCKED: ATOM     27  N   UNL d   1      -0.950 -13.645   0.724 -0.14 +0.02    -0.248 N 
DOCKED: ATOM     28  N   UNL d   1      -2.817 -12.882   2.857 -0.09 +0.01    -0.248 N 
DOCKED: ATOM     29 FE   UNL d   1      -2.798 -13.224   0.853 -0.04 -0.00    +0.000 Fe
DOCKED: ENDROOT
DOCKED: BRANCH   6  30
DOCKED: ATOM     30  C   UNL d   1      -8.119 -12.115   2.824 -0.04 -0.01    +0.052 C 
DOCKED: BRANCH  30  31
DOCKED: ATOM     31  C   UNL d   1      -8.679 -13.438   3.347 -0.00 -0.01    +0.115 C 
DOCKED: BRANCH  31  32
DOCKED: ATOM     32  C   UNL d   1      -7.633 -14.266   4.061 -0.00 -0.00    +0.139 C 
DOCKED: ATOM     33  O   UNL d   1      -6.793 -14.867   3.408 +0.01 +0.03    -0.650 OA
DOCKED: BRANCH  32  34
DOCKED: ATOM     34  O   UNL d   1      -7.565 -14.326   5.412 +0.02 -0.05    -0.776 OA
DOCKED: ATOM     35  H   UNL d   1      -6.942 -13.816   5.948 +0.02 +0.02    +0.167 HD
DOCKED: ENDBRANCH  32  34
DOCKED: ENDBRANCH  31  32
DOCKED: ENDBRANCH  30  31
DOCKED: ENDBRANCH   6  30
DOCKED: BRANCH  29  36
DOCKED: ATOM     36  C   UNL d   1      -3.345 -15.224   1.166 -0.02 -0.02    +0.190 C 
DOCKED: BRANCH  36  37
DOCKED: ATOM     37  O   UNL d   1      -4.295 -16.033   1.797 +0.00 +0.03    -0.399 OA
DOCKED: ATOM     38  H   UNL d   1      -4.920 -15.396   2.243 +0.01 -0.02    +0.209 HD
DOCKED: ENDBRANCH  36  37
DOCKED: ENDBRANCH  29  36
DOCKED: BRANCH  22  39
DOCKED: ATOM     39  C   UNL d   1      -3.998 -12.267   6.346 -0.22 -0.00    +0.052 C 
DOCKED: BRANCH  39  40
DOCKED: ATOM     40  C   UNL d   1      -4.393 -13.586   7.032 -0.12 +0.02    +0.115 C 
DOCKED: BRANCH  40  41
DOCKED: ATOM     41  C   UNL d   1      -5.405 -13.431   8.148 +0.18 +0.10    +0.139 C 
DOCKED: ATOM     42  O   UNL d   1      -5.020 -13.438   9.309 -0.41 -0.70    -0.650 OA
DOCKED: BRANCH  41  43
DOCKED: ATOM     43  O   UNL d   1      -6.712 -13.199   7.895 -0.19 -0.55    -0.776 OA
DOCKED: ATOM     44  H   UNL d   1      -7.260 -13.812   7.388 +0.01 +0.05    +0.167 HD
DOCKED: ENDBRANCH  41  43
DOCKED: ENDBRANCH  40  41
DOCKED: ENDBRANCH  39  40
DOCKED: ENDBRANCH  22  39
DOCKED: BRANCH  12  45
DOCKED: ATOM     45  C   UNL d   1      -1.748 -14.055  -4.509 -0.30 -0.00    +0.004 C 
DOCKED: ATOM     46  C   UNL d   1      -0.716 -13.349  -4.964 -0.45 -0.00    +0.012 C 
DOCKED: ENDBRANCH  12  45
DOCKED: BRANCH  17  47
DOCKED: ATOM     47  C   UNL d   1       2.275 -14.589   2.170 -0.39 -0.00    +0.004 C 
DOCKED: ATOM     48  C   UNL d   1       2.186 -15.401   3.227 -0.29 -0.00    +0.012 C 
DOCKED: ENDBRANCH  17  47
DOCKED: TORSDOF 12
DOCKED: TER
DOCKED: ENDMDL
________________________________________________________________________________


	BEGINNING GENETIC ALGORITHM DOCKING 100 of 100
Run: 100 Seed: 1674613787 9466382 [ Run 100 of 100 GA/GALS ]
Beginning LAMARCKIAN GENETIC ALGORITHM (LGA), with a maximum of 25000000 energy evaluations.

Final-Value: -10.756


	FINAL GENETIC ALGORITHM DOCKED STATE
	_______________________________________________


Detailed state:  trans 19.504 -3.457 1.219 quatxyzw -0.450813 -0.413796 -0.415562 -0.672941 center 8.781 34.984 -0.736 ntor 12 48.9686 123.6028 -144.8242 -48.4027 -80.4830 103.3977 28.1306 116.5246 178.8926 139.5933 -174.1006 173.0812
State:	 19.504  -3.457   1.219  -0.609 -0.559 -0.562 -95.411     48.97  123.60 -144.82  -48.40  -80.48  103.40   28.13  116.52  178.89  139.59 -174.10  173.08

DOCKED: MODEL      100
DOCKED: USER    Run = 100
DOCKED: USER    DPF = D:/Protein_go_brrr/autodock/final/mut_D99N/heme_Co/dock.dpf
DOCKED: USER  
DOCKED: USER    Estimated Free Energy of Binding    =   -3.22 kcal/mol  [=(1)+(2)+(3)-(4)]
DOCKED: USER    Estimated Inhibition Constant, Ki   =    4.35 mM (millimolar)  [Temperature = 298.15 K]
DOCKED: USER    
DOCKED: USER    (1) Final Intermolecular Energy     =   -6.80 kcal/mol
DOCKED: USER        vdW + Hbond + desolv Energy     =   -6.81 kcal/mol
DOCKED: USER        Electrostatic Energy            =   +0.01 kcal/mol
DOCKED: USER    (2) Final Total Internal Energy     =   -3.95 kcal/mol
DOCKED: USER    (3) Torsional Free Energy           =   +3.58 kcal/mol
DOCKED: USER    (4) Unbound System's Energy  [=(2)] =   -3.95 kcal/mol
DOCKED: USER    
DOCKED: USER    
DOCKED: USER    NEWDPF move heme_Co_opt.pdbqt
DOCKED: USER    NEWDPF about 8.781000 34.984000 -0.736000
DOCKED: USER    NEWDPF tran0 19.503971 -3.457450 1.218902
DOCKED: USER    NEWDPF quaternion0 -0.450813 -0.413796 -0.415562 -0.672941
DOCKED: USER    NEWDPF axisangle0 -0.609457 -0.559413 -0.561801 -95.411133
DOCKED: USER    NEWDPF quat0 -0.609457 -0.559413 -0.561801 -95.411133
DOCKED: USER    NEWDPF dihe0 48.97 123.60 -144.82 -48.40 -80.48 103.40 28.13 116.52 178.89 139.59 -174.10 173.08 
DOCKED: USER  keepresnum = 1 
DOCKED: USER  
DOCKED: REMARK  12 active torsions:
DOCKED: REMARK  status: ('A' for Active; 'I' for Inactive)
DOCKED: REMARK    1  A    between atoms: C_6  and  C_10 
DOCKED: REMARK    2  A    between atoms: C_10  and  C_11 
DOCKED: REMARK    3  A    between atoms: C_11  and  C_12 
DOCKED: REMARK    4  A    between atoms: C_12  and  O_14 
DOCKED: REMARK    5  A    between atoms: C_17  and  C_20 
DOCKED: REMARK    6  A    between atoms: C_24  and  C_27 
DOCKED: REMARK    7  A    between atoms: C_31  and  C_34 
DOCKED: REMARK    8  A    between atoms: C_34  and  C_35 
DOCKED: REMARK    9  A    between atoms: C_35  and  C_36 
DOCKED: REMARK   10  A    between atoms: C_36  and  O_38 
DOCKED: REMARK   11  A    between atoms: FE_43  and  C_44 
DOCKED: REMARK   12  A    between atoms: C_44  and  O_45 
DOCKED: USER                              x       y       z     vdW  Elec       q    Type
DOCKED: USER                           _______ _______ _______ _____ _____    ______ ____
DOCKED: ROOT
DOCKED: ATOM      1  C   UNL d   1      19.520  -3.781  -0.928 -0.29 -0.01    +0.064 A 
DOCKED: ATOM      2  C   UNL d   1      16.752  -1.125   1.881 -0.19 -0.00    +0.064 C 
DOCKED: ATOM      3  C   UNL d   1      18.942  -2.871   5.753 -0.10 +0.00    +0.064 A 
DOCKED: ATOM      4  C   UNL d   1      22.037  -5.300   2.891 +0.06 +0.02    +0.064 A 
DOCKED: ATOM      5  C   UNL d   1      18.579  -2.955  -0.443 -0.21 -0.01    +0.066 A 
DOCKED: ATOM      6  C   UNL d   1      17.757  -2.182  -1.287 -0.33 +0.01    -0.021 A 
DOCKED: ATOM      7  C   UNL d   1      16.971  -1.396  -0.466 -0.31 +0.00    -0.025 A 
DOCKED: ATOM      8  C   UNL d   1      17.336  -1.735   0.842 -0.23 -0.01    +0.066 A 
DOCKED: ATOM      9  C   UNL d   1      15.915  -0.361  -0.882 -0.31 -0.01    +0.051 C 
DOCKED: ATOM     10  C   UNL d   1      17.043  -1.426   3.261 -0.20 -0.00    +0.066 A 
DOCKED: ATOM     11  C   UNL d   1      16.368  -0.924   4.395 -0.22 +0.00    -0.021 A 
DOCKED: ATOM     12  C   UNL d   1      17.025  -1.453   5.510 -0.23 -0.00    +0.000 A 
DOCKED: ATOM     13  C   UNL d   1      18.041  -2.246   4.975 -0.16 -0.00    +0.070 A 
DOCKED: ATOM     14  C   UNL d   1      15.123  -0.076   4.388 -0.31 -0.00    +0.052 C 
DOCKED: ATOM     15  C   UNL d   1      20.081  -3.683   5.370 -0.10 +0.01    +0.066 A 
DOCKED: ATOM     16  C   UNL d   1      21.059  -4.181   6.219 -0.07 -0.00    -0.021 A 
DOCKED: ATOM     17  C   UNL d   1      21.955  -4.880   5.398 -0.13 +0.00    +0.000 A 
DOCKED: ATOM     18  C   UNL d   1      21.442  -4.767   4.110 -0.17 +0.02    +0.070 A 
DOCKED: ATOM     19  C   UNL d   1      21.104  -3.981   7.717 -0.03 +0.01    +0.052 C 
DOCKED: ATOM     20  C   UNL d   1      21.603  -5.129   1.619 -0.18 +0.01    +0.066 A 
DOCKED: ATOM     21  C   UNL d   1      22.281  -5.661   0.524 -0.21 -0.00    -0.025 A 
DOCKED: ATOM     22  C   UNL d   1      21.562  -5.264  -0.589 -0.24 -0.00    -0.021 A 
DOCKED: ATOM     23  C   UNL d   1      20.479  -4.493  -0.115 -0.27 -0.00    +0.066 A 
DOCKED: ATOM     24  C   UNL d   1      23.562  -6.490   0.536 -0.17 +0.01    +0.051 C 
DOCKED: ATOM     25  N   UNL d   1      18.325  -2.702   0.886 -0.16 +0.04    -0.248 N 
DOCKED: ATOM     26  N   UNL d   1      18.015  -2.273   3.616 -0.13 +0.01    -0.248 N 
DOCKED: ATOM     27  N   UNL d   1      20.342  -4.022   4.127 -0.11 -0.03    -0.248 N 
DOCKED: ATOM     28  N   UNL d   1      20.502  -4.407   1.221 -0.17 +0.00    -0.248 N 
DOCKED: ATOM     29 FE   UNL d   1      19.395  -3.403   2.600 -0.05 -0.00    +0.000 Fe
DOCKED: ENDROOT
DOCKED: BRANCH   6  30
DOCKED: ATOM     30  C   UNL d   1      17.792  -2.149  -2.811 -0.43 -0.02    +0.052 C 
DOCKED: BRANCH  30  31
DOCKED: ATOM     31  C   UNL d   1      18.764  -1.077  -3.302 -0.24 -0.01    +0.115 C 
DOCKED: BRANCH  31  32
DOCKED: ATOM     32  C   UNL d   1      19.376  -0.287  -2.165 -0.13 -0.01    +0.139 C 
DOCKED: ATOM     33  O   UNL d   1      18.945   0.827  -1.907 +0.02 +0.04    -0.650 OA
DOCKED: BRANCH  32  34
DOCKED: ATOM     34  O   UNL d   1      20.360  -0.794  -1.387 +0.05 +0.02    -0.776 OA
DOCKED: ATOM     35  H   UNL d   1      21.130  -1.272  -1.726 +0.03 +0.00    +0.167 HD
DOCKED: ENDBRANCH  32  34
DOCKED: ENDBRANCH  31  32
DOCKED: ENDBRANCH  30  31
DOCKED: ENDBRANCH   6  30
DOCKED: BRANCH  29  36
DOCKED: ATOM     36  C   UNL d   1      20.619  -1.715   2.387 -0.03 +0.00    +0.190 C 
DOCKED: BRANCH  36  37
DOCKED: ATOM     37  O   UNL d   1      21.393  -1.010   1.460 +0.00 -0.01    -0.399 OA
DOCKED: ATOM     38  H   UNL d   1      21.173  -1.419   0.578 +0.03 +0.00    +0.209 HD
DOCKED: ENDBRANCH  36  37
DOCKED: ENDBRANCH  29  36
DOCKED: BRANCH  22  39
DOCKED: ATOM     39  C   UNL d   1      21.938  -5.557  -2.029 -0.24 +0.00    +0.052 C 
DOCKED: BRANCH  39  40
DOCKED: ATOM     40  C   UNL d   1      22.921  -4.500  -2.559 -0.11 +0.01    +0.115 C 
DOCKED: BRANCH  40  41
DOCKED: ATOM     41  C   UNL d   1      22.536  -3.072  -2.239 -0.09 +0.01    +0.139 C 
DOCKED: ATOM     42  O   UNL d   1      22.082  -2.361  -3.125 -0.00 -0.05    -0.650 OA
DOCKED: BRANCH  41  43
DOCKED: ATOM     43  O   UNL d   1      22.597  -2.585  -0.980 +0.05 -0.04    -0.776 OA
DOCKED: ATOM     44  H   UNL d   1      21.911  -2.014  -0.609 +0.03 +0.00    +0.167 HD
DOCKED: ENDBRANCH  41  43
DOCKED: ENDBRANCH  40  41
DOCKED: ENDBRANCH  39  40
DOCKED: ENDBRANCH  22  39
DOCKED: BRANCH  12  45
DOCKED: ATOM     45  C   UNL d   1      16.798  -1.316   7.009 -0.24 +0.00    +0.004 C 
DOCKED: ATOM     46  C   UNL d   1      16.753  -0.234   7.783 -0.15 +0.00    +0.012 C 
DOCKED: ENDBRANCH  12  45
DOCKED: BRANCH  17  47
DOCKED: ATOM     47  C   UNL d   1      23.232  -5.570   5.750 -0.07 +0.00    +0.004 C 
DOCKED: ATOM     48  C   UNL d   1      24.439  -5.049   5.518 -0.08 +0.01    +0.012 C 
DOCKED: ENDBRANCH  17  47
DOCKED: TORSDOF 12
DOCKED: TER
DOCKED: ENDMDL
________________________________________________________________________________

DPF> analysis                             # perform a ranked cluster analysis


		CLUSTER ANALYSIS OF CONFORMATIONS
		_________________________________

Number of conformations = 100

RMSD cluster analysis will be performed using the ligand atoms only (48 / 48 total atoms).

Outputting structurally similar clusters, ranked in order of increasing energy.


________________________________________________________________________________

Number of distinct conformational clusters found = 57,  out of 100 runs,
Using an rmsd-tolerance of 2.0 A


	CLUSTERING HISTOGRAM
	____________________

________________________________________________________________________________
     |           |     |           |     |                                    
Clus | Lowest    | Run | Mean      | Num | Histogram                          
-ter | Binding   |     | Binding   | in  |                                    
Rank | Energy    |     | Energy    | Clus|    5    10   15   20   25   30   35
_____|___________|_____|___________|_____|____:____|____:____|____:____|____:___
   1 |     -7.65 |  28 |     -7.48 |   3 |###
   2 |     -6.48 |  92 |     -5.05 |   6 |######
   3 |     -6.02 |  53 |     -4.57 |   8 |########
   4 |     -5.52 |  90 |     -5.02 |   4 |####
   5 |     -5.37 |  46 |     -4.90 |   3 |###
   6 |     -5.35 |  39 |     -5.35 |   1 |#
   7 |     -5.06 |  95 |     -4.42 |   5 |#####
   8 |     -5.01 |  36 |     -5.01 |   1 |#
   9 |     -4.91 |  41 |     -4.65 |   3 |###
  10 |     -4.88 |  72 |     -4.78 |   2 |##
  11 |     -4.83 |  51 |     -4.83 |   1 |#
  12 |     -4.74 |  34 |     -4.37 |   2 |##
  13 |     -4.72 |  43 |     -4.39 |   3 |###
  14 |     -4.71 |  44 |     -4.71 |   1 |#
  15 |     -4.69 |   3 |     -4.63 |   3 |###
  16 |     -4.63 |   6 |     -4.63 |   1 |#
  17 |     -4.55 |  99 |     -4.55 |   1 |#
  18 |     -4.53 |   8 |     -4.44 |   2 |##
  19 |     -4.49 |  87 |     -4.49 |   1 |#
  20 |     -4.38 |  38 |     -4.38 |   1 |#
  21 |     -4.34 |  63 |     -3.21 |   2 |##
  22 |     -4.26 |  82 |     -4.26 |   1 |#
  23 |     -4.24 |   5 |     -3.87 |   2 |##
  24 |     -4.13 |  54 |     -4.13 |   1 |#
  25 |     -4.03 |  85 |     -4.03 |   1 |#
  26 |     -3.93 |  37 |     -3.93 |   1 |#
  27 |     -3.93 |  31 |     -3.79 |   2 |##
  28 |     -3.81 |  30 |     -3.81 |   1 |#
  29 |     -3.79 |  93 |     -3.32 |   2 |##
  30 |     -3.78 |  55 |     -3.78 |   1 |#
  31 |     -3.77 |  32 |     -3.25 |   2 |##
  32 |     -3.77 |  27 |     -3.77 |   1 |#
  33 |     -3.72 |  40 |     -3.72 |   1 |#
  34 |     -3.70 |  97 |     -3.70 |   1 |#
  35 |     -3.66 |  56 |     -3.66 |   1 |#
  36 |     -3.63 |  13 |     -3.63 |   1 |#
  37 |     -3.56 |  73 |     -3.56 |   1 |#
  38 |     -3.46 |  70 |     -3.46 |   1 |#
  39 |     -3.46 |  81 |     -3.46 |   1 |#
  40 |     -3.45 |  11 |     -3.00 |   2 |##
  41 |     -3.42 |  35 |     -3.42 |   1 |#
  42 |     -3.40 |   2 |     -3.40 |   1 |#
  43 |     -3.36 |  45 |     -3.30 |   3 |###
  44 |     -3.31 |  50 |     -3.31 |   1 |#
  45 |     -3.18 |  12 |     -3.18 |   1 |#
  46 |     -3.15 |   4 |     -3.15 |   1 |#
  47 |     -3.13 |   9 |     -3.13 |   1 |#
  48 |     -3.11 |  42 |     -3.11 |   1 |#
  49 |     -3.07 |   7 |     -3.07 |   1 |#
  50 |     -3.06 |  64 |     -3.06 |   1 |#
  51 |     -2.91 |  58 |     -2.62 |   3 |###
  52 |     -2.89 |  68 |     -2.89 |   1 |#
  53 |     -2.80 |  77 |     -2.80 |   1 |#
  54 |     -2.56 |  71 |     -2.55 |   2 |##
  55 |     -2.45 |  59 |     -2.45 |   1 |#
  56 |     -2.39 |  26 |     -2.39 |   1 |#
  57 |     -2.29 |  47 |     -2.29 |   1 |#
_____|___________|_____|___________|_____|______________________________________


Number of multi-member conformational clusters found = 21, out of 100 runs.

	RMSD TABLE
	__________

_____________________________________________________________________
     |      |      |           |         |                 |
Rank | Sub- | Run  | Binding   | Cluster | Reference       | Grep
     | Rank |      | Energy    | RMSD    | RMSD            | Pattern
_____|______|______|___________|_________|_________________|___________
   1      1     28       -7.65      0.00     34.80           RANKING
   1      2     80       -7.44      1.18     34.32           RANKING
   1      3     16       -7.36      0.81     34.67           RANKING
   2      1     92       -6.48      0.00     36.17           RANKING
   2      2     91       -5.42      1.47     35.31           RANKING
   2      3     18       -5.14      0.90     36.03           RANKING
   2      4     75       -4.88      1.51     35.79           RANKING
   2      5     94       -4.50      1.24     35.72           RANKING
   2      6     65       -3.89      1.82     36.88           RANKING
   3      1     53       -6.02      0.00     39.73           RANKING
   3      2     88       -5.27      2.00     40.44           RANKING
   3      3     66       -4.66      1.86     38.95           RANKING
   3      4     76       -4.31      1.85     39.32           RANKING
   3      5     89       -4.26      1.78     39.36           RANKING
   3      6     52       -4.18      1.87     39.45           RANKING
   3      7     14       -4.13      1.98     40.28           RANKING
   3      8     67       -3.76      1.76     39.81           RANKING
   4      1     90       -5.52      0.00     42.42           RANKING
   4      2     79       -5.22      0.72     42.40           RANKING
   4      3     33       -5.05      0.68     42.59           RANKING
   4      4     60       -4.29      0.93     42.68           RANKING
   5      1     46       -5.37      0.00     24.20           RANKING
   5      2     61       -4.69      0.83     24.13           RANKING
   5      3     96       -4.65      0.82     24.29           RANKING
   6      1     39       -5.35      0.00     35.78           RANKING
   7      1     95       -5.06      0.00     37.97           RANKING
   7      2     62       -4.70      0.69     38.12           RANKING
   7      3     78       -4.54      1.16     38.49           RANKING
   7      4     49       -4.20      0.73     38.15           RANKING
   7      5     98       -3.59      1.34     38.86           RANKING
   8      1     36       -5.01      0.00     33.50           RANKING
   9      1     41       -4.91      0.00     40.39           RANKING
   9      2     21       -4.80      0.30     40.42           RANKING
   9      3     74       -4.25      0.99     40.04           RANKING
  10      1     72       -4.88      0.00     33.26           RANKING
  10      2     23       -4.68      0.61     33.26           RANKING
  11      1     51       -4.83      0.00     35.07           RANKING
  12      1     34       -4.74      0.00     36.48           RANKING
  12      2     57       -4.00      1.92     35.32           RANKING
  13      1     43       -4.72      0.00     43.17           RANKING
  13      2     29       -4.68      0.14     43.19           RANKING
  13      3     25       -3.76      1.21     43.99           RANKING
  14      1     44       -4.71      0.00     37.17           RANKING
  15      1      3       -4.69      0.00     40.19           RANKING
  15      2     10       -4.63      0.17     40.16           RANKING
  15      3     83       -4.56      0.45     40.26           RANKING
  16      1      6       -4.63      0.00     37.51           RANKING
  17      1     99       -4.55      0.00     47.74           RANKING
  18      1      8       -4.53      0.00     43.07           RANKING
  18      2     17       -4.35      0.85     42.90           RANKING
  19      1     87       -4.49      0.00     43.71           RANKING
  20      1     38       -4.38      0.00     35.53           RANKING
  21      1     63       -4.34      0.00     43.59           RANKING
  21      2      1       -2.08      1.56     44.38           RANKING
  22      1     82       -4.26      0.00     40.56           RANKING
  23      1      5       -4.24      0.00     40.18           RANKING
  23      2     15       -3.50      1.78     39.53           RANKING
  24      1     54       -4.13      0.00     45.59           RANKING
  25      1     85       -4.03      0.00     17.43           RANKING
  26      1     37       -3.93      0.00     35.38           RANKING
  27      1     31       -3.93      0.00     19.58           RANKING
  27      2     24       -3.66      1.53     19.69           RANKING
  28      1     30       -3.81      0.00     38.91           RANKING
  29      1     93       -3.79      0.00     20.31           RANKING
  29      2     84       -2.85      1.84     20.51           RANKING
  30      1     55       -3.78      0.00     40.20           RANKING
  31      1     32       -3.77      0.00     35.53           RANKING
  31      2     19       -2.74      1.30     34.50           RANKING
  32      1     27       -3.77      0.00     22.20           RANKING
  33      1     40       -3.72      0.00     16.53           RANKING
  34      1     97       -3.70      0.00     33.08           RANKING
  35      1     56       -3.66      0.00     45.86           RANKING
  36      1     13       -3.63      0.00     39.29           RANKING
  37      1     73       -3.56      0.00     39.36           RANKING
  38      1     70       -3.46      0.00     20.85           RANKING
  39      1     81       -3.46      0.00     42.11           RANKING
  40      1     11       -3.45      0.00     20.24           RANKING
  40      2     86       -2.55      1.82     18.29           RANKING
  41      1     35       -3.42      0.00     37.04           RANKING
  42      1      2       -3.40      0.00     19.87           RANKING
  43      1     45       -3.36      0.00     37.13           RANKING
  43      2     48       -3.31      1.91     36.48           RANKING
  43      3    100       -3.22      1.79     36.65           RANKING
  44      1     50       -3.31      0.00     45.33           RANKING
  45      1     12       -3.18      0.00     36.18           RANKING
  46      1      4       -3.15      0.00     47.66           RANKING
  47      1      9       -3.13      0.00     33.54           RANKING
  48      1     42       -3.11      0.00     45.48           RANKING
  49      1      7       -3.07      0.00     38.71           RANKING
  50      1     64       -3.06      0.00     39.34           RANKING
  51      1     58       -2.91      0.00     20.72           RANKING
  51      2     69       -2.64      1.63     20.16           RANKING
  51      3     20       -2.32      1.75     19.56           RANKING
  52      1     68       -2.89      0.00     35.99           RANKING
  53      1     77       -2.80      0.00     39.61           RANKING
  54      1     71       -2.56      0.00     19.69           RANKING
  54      2     22       -2.55      0.30     19.61           RANKING
  55      1     59       -2.45      0.00     18.13           RANKING
  56      1     26       -2.39      0.00     45.91           RANKING
  57      1     47       -2.29      0.00     43.38           RANKING
_______________________________________________________________________



	INFORMATION ENTROPY ANALYSIS FOR THIS CLUSTERING
	________________________________________________


Information entropy for this clustering = 0.83  (rmstol = 2.00 Angstrom)

_______________________________________________________________________


	STATISTICAL MECHANICAL ANALYSIS
	_______________________________


Partition function, Q =   100.70            at Temperature, T = 298.15 K
Free energy,        A ~ -2732.58 kcal/mol   at Temperature, T = 298.15 K
Internal energy,    U =    -4.11 kcal/mol   at Temperature, T = 298.15 K
Entropy,            S =     9.15 kcal/mol/K at Temperature, T = 298.15 K

_______________________________________________________________________


	LOWEST ENERGY DOCKED CONFORMATION from EACH CLUSTER
	___________________________________________________



Keeping original residue number (specified in the input PDBQ file) for outputting.

MODEL       28
USER    Run = 28
USER    Cluster Rank = 1
USER    Number of conformations in this cluster = 3
USER  
USER    RMSD from reference structure       = 34.798 A
USER  
USER    Estimated Free Energy of Binding    =   -7.65 kcal/mol  [=(1)+(2)+(3)-(4)]
USER    Estimated Inhibition Constant, Ki   =    2.48 uM (micromolar)  [Temperature = 298.15 K]
USER    
USER    (1) Final Intermolecular Energy     =  -11.23 kcal/mol
USER        vdW + Hbond + desolv Energy     =   -8.32 kcal/mol
USER        Electrostatic Energy            =   -2.90 kcal/mol
USER    (2) Final Total Internal Energy     =   -0.81 kcal/mol
USER    (3) Torsional Free Energy           =   +3.58 kcal/mol
USER    (4) Unbound System's Energy  [=(2)] =   -0.81 kcal/mol
USER    
USER    
USER  
USER    DPF = D:/Protein_go_brrr/autodock/final/mut_D99N/heme_Co/dock.dpf
USER    NEWDPF move	heme_Co_opt.pdbqt
USER    NEWDPF about	8.781000 34.984000 -0.736000
USER    NEWDPF tran0	-14.658948 5.988470 7.612500
USER    NEWDPF axisangle0	-0.425462 -0.709637 -0.561603 137.651461
USER    NEWDPF quaternion0	-0.396738 -0.661726 -0.523687 0.361206
USER    NEWDPF dihe0	34.17 21.86 40.21 -80.44 -85.28 173.80 -160.52 -68.63 -65.94 -61.54 -5.24 140.08 
USER  
USER                              x       y       z    vdW   Elec        q     RMS 
ATOM      1  C   UNL d   1     -14.524   3.963   8.384 -0.09 +0.02    +0.064    34.798
ATOM      2  C   UNL d   1     -12.111   6.255   4.988 -0.29 -0.01    +0.064    34.798
ATOM      3  C   UNL d   1     -14.954  10.063   5.486 -0.09 -0.01    +0.064    34.798
ATOM      4  C   UNL d   1     -17.188   7.891   9.221 -0.04 +0.00    +0.064    34.798
ATOM      5  C   UNL d   1     -13.679   4.296   7.395 -0.14 +0.01    +0.066    34.798
ATOM      6  C   UNL d   1     -12.627   3.450   6.995 -0.21 -0.00    -0.021    34.798
ATOM      7  C   UNL d   1     -11.916   4.129   6.025 -0.28 -0.00    -0.025    34.798
ATOM      8  C   UNL d   1     -12.574   5.353   5.863 -0.23 +0.00    +0.066    34.798
ATOM      9  C   UNL d   1     -10.663   3.658   5.271 -0.14 +0.00    +0.051    34.798
ATOM     10  C   UNL d   1     -12.737   7.529   4.734 -0.20 -0.01    +0.066    34.798
ATOM     11  C   UNL d   1     -12.383   8.458   3.732 -0.31 +0.00    -0.021    34.798
ATOM     12  C   UNL d   1     -13.230   9.557   3.898 -0.37 -0.00    +0.000    34.798
ATOM     13  C   UNL d   1     -14.044   9.213   4.977 -0.19 -0.01    +0.070    34.798
ATOM     14  C   UNL d   1     -11.366   8.248   2.640 -0.50 +0.00    +0.052    34.798
ATOM     15  C   UNL d   1     -15.837   9.893   6.623 -0.05 -0.01    +0.066    34.798
ATOM     16  C   UNL d   1     -16.651  10.866   7.185 -0.03 +0.00    -0.021    34.798
ATOM     17  C   UNL d   1     -17.295  10.245   8.265 -0.02 -0.00    +0.000    34.798
ATOM     18  C   UNL d   1     -16.835   8.933   8.265 -0.03 -0.00    +0.070    34.798
ATOM     19  C   UNL d   1     -16.779  12.292   6.697 -0.03 -0.01    +0.052    34.798
ATOM     20  C   UNL d   1     -16.688   6.634   9.293 -0.06 +0.01    +0.066    34.798
ATOM     21  C   UNL d   1     -17.079   5.734  10.282 -0.06 -0.01    -0.025    34.798
ATOM     22  C   UNL d   1     -16.349   4.583  10.048 -0.07 -0.01    -0.021    34.798
ATOM     23  C   UNL d   1     -15.533   4.844   8.927 -0.05 +0.02    +0.066    34.798
ATOM     24  C   UNL d   1     -18.085   5.965  11.407 -0.04 +0.01    +0.051    34.798
ATOM     25  N   UNL d   1     -13.674   5.481   6.695 -0.09 -0.02    -0.248    34.798
ATOM     26  N   UNL d   1     -13.782   7.964   5.446 -0.12 +0.02    -0.248    34.798
ATOM     27  N   UNL d   1     -15.945   8.767   7.292 -0.02 +0.01    -0.248    34.798
ATOM     28  N   UNL d   1     -15.734   6.085   8.468 -0.06 -0.05    -0.248    34.798
ATOM     29 FE   UNL d   1     -14.879   7.220   7.013 -0.03 +0.00    +0.000    34.798
ATOM     30  C   UNL d   1     -12.281   2.086   7.584 -0.25 +0.01    +0.052    34.798
ATOM     31  C   UNL d   1     -13.217   1.011   7.034 -0.12 +0.05    +0.115    34.798
ATOM     32  C   UNL d   1     -12.499   0.025   6.137 -0.15 +0.12    +0.139    34.798
ATOM     33  O   UNL d   1     -11.703  -0.763   6.627 -0.45 -0.64    -0.650    34.798
ATOM     34  O   UNL d   1     -12.745  -0.048   4.809 -0.48 -1.16    -0.776    34.798
ATOM     35  H   UNL d   1     -13.023   0.703   4.265 +0.04 +0.16    +0.167    34.798
ATOM     36  C   UNL d   1     -13.399   7.862   8.351 -0.22 +0.00    +0.190    34.798
ATOM     37  O   UNL d   1     -12.061   7.669   8.710 -0.73 -0.01    -0.399    34.798
ATOM     38  H   UNL d   1     -12.084   6.964   9.416 -0.44 -0.05    +0.209    34.798
ATOM     39  C   UNL d   1     -16.390   3.327  10.899 -0.07 +0.01    +0.052    34.798
ATOM     40  C   UNL d   1     -15.007   3.036  11.503 -0.15 +0.05    +0.115    34.798
ATOM     41  C   UNL d   1     -14.939   3.181  13.009 -0.20 +0.11    +0.139    34.798
ATOM     42  O   UNL d   1     -15.522   2.371  13.715 -0.01 -0.42    -0.650    34.798
ATOM     43  O   UNL d   1     -14.180   4.132  13.597 -0.15 -1.29    -0.776    34.798
ATOM     44  H   UNL d   1     -14.180   5.052  13.304 -0.29 +0.18    +0.167    34.798
ATOM     45  C   UNL d   1     -13.376  10.877   3.152 -0.40 -0.00    +0.004    34.798
ATOM     46  C   UNL d   1     -12.773  12.048   3.339 -0.39 -0.00    +0.012    34.798
ATOM     47  C   UNL d   1     -18.237  10.819   9.272 -0.02 -0.00    +0.004    34.798
ATOM     48  C   UNL d   1     -17.901  11.059  10.542 -0.03 -0.00    +0.012    34.798
TER
ENDMDL
MODEL       92
USER    Run = 92
USER    Cluster Rank = 2
USER    Number of conformations in this cluster = 6
USER  
USER    RMSD from reference structure       = 36.168 A
USER  
USER    Estimated Free Energy of Binding    =   -6.48 kcal/mol  [=(1)+(2)+(3)-(4)]
USER    Estimated Inhibition Constant, Ki   =   17.83 uM (micromolar)  [Temperature = 298.15 K]
USER    
USER    (1) Final Intermolecular Energy     =  -10.06 kcal/mol
USER        vdW + Hbond + desolv Energy     =   -7.08 kcal/mol
USER        Electrostatic Energy            =   -2.98 kcal/mol
USER    (2) Final Total Internal Energy     =   -0.62 kcal/mol
USER    (3) Torsional Free Energy           =   +3.58 kcal/mol
USER    (4) Unbound System's Energy  [=(2)] =   -0.62 kcal/mol
USER    
USER    
USER  
USER    DPF = D:/Protein_go_brrr/autodock/final/mut_D99N/heme_Co/dock.dpf
USER    NEWDPF move	heme_Co_opt.pdbqt
USER    NEWDPF about	8.781000 34.984000 -0.736000
USER    NEWDPF tran0	-14.830716 4.704452 4.188584
USER    NEWDPF axisangle0	0.132070 -0.247765 -0.959776 140.210036
USER    NEWDPF quaternion0	0.124188 -0.232978 -0.902495 0.340297
USER    NEWDPF dihe0	92.96 104.10 -21.02 116.67 -99.58 137.69 54.47 153.22 -44.18 6.60 -141.88 -164.74 
USER  
USER                              x       y       z    vdW   Elec        q     RMS 
ATOM      1  C   UNL d   1     -13.683   2.869   4.365 -0.13 +0.02    +0.064    36.168
ATOM      2  C   UNL d   1     -13.069   7.211   6.204 -0.16 -0.01    +0.064    36.168
ATOM      3  C   UNL d   1     -16.799   8.840   3.701 -0.14 -0.00    +0.064    36.168
ATOM      4  C   UNL d   1     -17.682   4.329   2.108 -0.22 +0.01    +0.064    36.168
ATOM      5  C   UNL d   1     -13.219   3.944   5.024 -0.15 +0.01    +0.066    36.168
ATOM      6  C   UNL d   1     -12.151   3.857   5.938 -0.24 -0.00    -0.021    36.168
ATOM      7  C   UNL d   1     -11.992   5.115   6.485 -0.32 -0.00    -0.025    36.168
ATOM      8  C   UNL d   1     -12.958   5.919   5.870 -0.21 -0.00    +0.066    36.168
ATOM      9  C   UNL d   1     -10.975   5.559   7.548 -0.38 -0.00    +0.051    36.168
ATOM     10  C   UNL d   1     -14.014   8.121   5.606 -0.17 -0.01    +0.066    36.168
ATOM     11  C   UNL d   1     -14.087   9.516   5.810 -0.19 +0.00    -0.021    36.168
ATOM     12  C   UNL d   1     -15.181   9.966   5.065 -0.11 -0.00    +0.000    36.168
ATOM     13  C   UNL d   1     -15.685   8.818   4.454 -0.11 -0.00    +0.070    36.168
ATOM     14  C   UNL d   1     -13.109  10.356   6.591 -0.38 -0.02    +0.052    36.168
ATOM     15  C   UNL d   1     -17.485   7.746   3.041 -0.17 +0.00    +0.066    36.168
ATOM     16  C   UNL d   1     -18.713   7.813   2.398 -0.20 -0.00    -0.021    36.168
ATOM     17  C   UNL d   1     -18.973   6.514   1.939 -0.24 +0.00    +0.000    36.168
ATOM     18  C   UNL d   1     -17.871   5.758   2.325 -0.23 +0.01    +0.070    36.168
ATOM     19  C   UNL d   1     -19.559   9.058   2.251 -0.16 +0.00    +0.052    36.168
ATOM     20  C   UNL d   1     -16.661   3.556   2.549 -0.18 +0.01    +0.066    36.168
ATOM     21  C   UNL d   1     -16.609   2.185   2.307 -0.11 -0.01    -0.025    36.168
ATOM     22  C   UNL d   1     -15.452   1.742   2.921 -0.15 -0.01    -0.021    36.168
ATOM     23  C   UNL d   1     -14.857   2.872   3.522 -0.15 +0.02    +0.066    36.168
ATOM     24  C   UNL d   1     -17.621   1.334   1.545 -0.06 +0.01    +0.051    36.168
ATOM     25  N   UNL d   1     -13.729   5.221   4.956 -0.08 -0.02    -0.248    36.168
ATOM     26  N   UNL d   1     -14.945   7.713   4.737 -0.06 +0.01    -0.248    36.168
ATOM     27  N   UNL d   1     -17.019   6.518   3.005 -0.05 -0.01    -0.248    36.168
ATOM     28  N   UNL d   1     -15.587   3.972   3.301 -0.10 -0.04    -0.248    36.168
ATOM     29 FE   UNL d   1     -15.472   5.905   3.921 -0.03 +0.00    +0.000    36.168
ATOM     30  C   UNL d   1     -11.381   2.598   6.320 -0.09 +0.01    +0.052    36.168
ATOM     31  C   UNL d   1     -12.331   1.534   6.871 -0.19 +0.04    +0.115    36.168
ATOM     32  C   UNL d   1     -12.072   0.166   6.277 -0.10 +0.11    +0.139    36.168
ATOM     33  O   UNL d   1     -12.433  -0.070   5.134 -0.50 -0.86    -0.650    36.168
ATOM     34  O   UNL d   1     -11.408  -0.797   6.957 -0.51 -0.70    -0.776    36.168
ATOM     35  H   UNL d   1     -11.830  -1.437   7.546 +0.06 +0.12    +0.167    36.168
ATOM     36  C   UNL d   1     -16.548   5.437   5.658 -0.05 +0.02    +0.190    36.168
ATOM     37  O   UNL d   1     -16.478   4.710   6.851 -0.00 -0.05    -0.399    36.168
ATOM     38  H   UNL d   1     -15.653   4.154   6.764 +0.03 +0.03    +0.209    36.168
ATOM     39  C   UNL d   1     -14.983   0.300   2.979 -0.15 +0.04    +0.052    36.168
ATOM     40  C   UNL d   1     -15.986  -0.565   3.761 -0.08 +0.08    +0.115    36.168
ATOM     41  C   UNL d   1     -15.587  -2.020   3.891 +0.14 +0.19    +0.139    36.168
ATOM     42  O   UNL d   1     -15.584  -2.731   2.896 -0.30 -0.92    -0.650    36.168
ATOM     43  O   UNL d   1     -15.148  -2.534   5.061 +0.11 -1.29    -0.776    36.168
ATOM     44  H   UNL d   1     -14.873  -1.979   5.802 +0.01 +0.22    +0.167    36.168
ATOM     45  C   UNL d   1     -15.792  11.344   4.847 -0.08 -0.00    +0.004    36.168
ATOM     46  C   UNL d   1     -15.787  12.134   3.777 -0.11 -0.00    +0.012    36.168
ATOM     47  C   UNL d   1     -20.174   5.974   1.235 -0.21 +0.00    +0.004    36.168
ATOM     48  C   UNL d   1     -20.918   4.972   1.709 -0.14 +0.00    +0.012    36.168
TER
ENDMDL
MODEL       53
USER    Run = 53
USER    Cluster Rank = 3
USER    Number of conformations in this cluster = 8
USER  
USER    RMSD from reference structure       = 39.727 A
USER  
USER    Estimated Free Energy of Binding    =   -6.02 kcal/mol  [=(1)+(2)+(3)-(4)]
USER    Estimated Inhibition Constant, Ki   =   38.61 uM (micromolar)  [Temperature = 298.15 K]
USER    
USER    (1) Final Intermolecular Energy     =   -9.60 kcal/mol
USER        vdW + Hbond + desolv Energy     =   -6.17 kcal/mol
USER        Electrostatic Energy            =   -3.43 kcal/mol
USER    (2) Final Total Internal Energy     =   -0.82 kcal/mol
USER    (3) Torsional Free Energy           =   +3.58 kcal/mol
USER    (4) Unbound System's Energy  [=(2)] =   -0.82 kcal/mol
USER    
USER    
USER  
USER    DPF = D:/Protein_go_brrr/autodock/final/mut_D99N/heme_Co/dock.dpf
USER    NEWDPF move	heme_Co_opt.pdbqt
USER    NEWDPF about	8.781000 34.984000 -0.736000
USER    NEWDPF tran0	2.484762 0.061575 -20.100943
USER    NEWDPF axisangle0	-0.634593 0.759618 -0.142381 -71.211260
USER    NEWDPF quaternion0	-0.369462 0.442252 -0.082895 -0.813044
USER    NEWDPF dihe0	-141.85 104.32 -16.66 62.07 136.09 165.59 139.13 -121.63 -92.16 -86.43 -10.81 -11.45 
USER  
USER                              x       y       z    vdW   Elec        q     RMS 
ATOM      1  C   UNL d   1       0.574   0.862 -19.450 -0.12 +0.06    +0.064    39.727
ATOM      2  C   UNL d   1       4.749   0.354 -17.231 -0.17 +0.02    +0.064    39.727
ATOM      3  C   UNL d   1       6.533  -1.928 -21.030 -0.06 +0.01    +0.064    39.727
ATOM      4  C   UNL d   1       2.406  -1.081 -23.461 -0.03 +0.01    +0.064    39.727
ATOM      5  C   UNL d   1       1.572   0.859 -18.551 -0.08 +0.04    +0.066    39.727
ATOM      6  C   UNL d   1       1.459   1.510 -17.307 -0.16 -0.01    -0.021    39.727
ATOM      7  C   UNL d   1       2.681   1.378 -16.676 -0.16 -0.01    -0.025    39.727
ATOM      8  C   UNL d   1       3.481   0.640 -17.555 -0.14 +0.02    +0.066    39.727
ATOM      9  C   UNL d   1       3.095   1.922 -15.300 -0.22 +0.02    +0.051    39.727
ATOM     10  C   UNL d   1       5.638  -0.422 -18.058 -0.17 +0.02    +0.066    39.727
ATOM     11  C   UNL d   1       6.931  -0.875 -17.715 -0.23 -0.01    -0.021    39.727
ATOM     12  C   UNL d   1       7.426  -1.541 -18.839 -0.20 +0.00    +0.000    39.727
ATOM     13  C   UNL d   1       6.398  -1.456 -19.778 -0.09 +0.02    +0.070    39.727
ATOM     14  C   UNL d   1       7.589  -0.752 -16.365 -0.26 +0.02    +0.052    39.727
ATOM     15  C   UNL d   1       5.599  -1.879 -22.138 -0.11 +0.01    +0.066    39.727
ATOM     16  C   UNL d   1       5.856  -2.256 -23.448 -0.09 -0.00    -0.021    39.727
ATOM     17  C   UNL d   1       4.669  -2.012 -24.154 -0.04 +0.00    +0.000    39.727
ATOM     18  C   UNL d   1       3.773  -1.518 -23.211 -0.05 +0.01    +0.070    39.727
ATOM     19  C   UNL d   1       7.166  -2.811 -23.961 -0.09 +0.00    +0.052    39.727
ATOM     20  C   UNL d   1       1.546  -0.518 -22.579 -0.04 +0.02    +0.066    39.727
ATOM     21  C   UNL d   1       0.267  -0.106 -22.947 -0.03 -0.01    -0.025    39.727
ATOM     22  C   UNL d   1      -0.295   0.432 -21.804 -0.06 -0.01    -0.021    39.727
ATOM     23  C   UNL d   1       0.681   0.331 -20.790 -0.10 +0.04    +0.066    39.727
ATOM     24  C   UNL d   1      -0.381  -0.201 -24.326 -0.02 +0.01    +0.051    39.727
ATOM     25  N   UNL d   1       2.818   0.300 -18.722 -0.08 -0.08    -0.248    39.727
ATOM     26  N   UNL d   1       5.297  -0.828 -19.286 -0.10 -0.06    -0.248    39.727
ATOM     27  N   UNL d   1       4.371  -1.424 -22.028 -0.06 -0.04    -0.248    39.727
ATOM     28  N   UNL d   1       1.797  -0.241 -21.255 -0.05 -0.09    -0.248    39.727
ATOM     29 FE   UNL d   1       3.637  -0.613 -20.474 -0.03 +0.00    +0.000    39.727
ATOM     30  C   UNL d   1       0.253   2.289 -16.794 -0.17 +0.04    +0.052    39.727
ATOM     31  C   UNL d   1      -0.876   1.336 -16.404 -0.20 +0.17    +0.115    39.727
ATOM     32  C   UNL d   1      -0.739   0.830 -14.984 -0.31 +0.17    +0.139    39.727
ATOM     33  O   UNL d   1       0.097   1.329 -14.246 -0.48 -0.61    -0.650    39.727
ATOM     34  O   UNL d   1      -1.550  -0.131 -14.483 -0.38 -1.06    -0.776    39.727
ATOM     35  H   UNL d   1      -1.843  -0.171 -13.562 -0.33 +0.12    +0.167    39.727
ATOM     36  C   UNL d   1       4.286   1.301 -21.031 -0.01 +0.03    +0.190    39.727
ATOM     37  O   UNL d   1       4.436   2.608 -20.557 +0.00 -0.06    -0.399    39.727
ATOM     38  H   UNL d   1       3.972   2.615 -19.674 +0.01 +0.04    +0.209    39.727
ATOM     39  C   UNL d   1      -1.671   1.066 -21.715 -0.04 +0.03    +0.052    39.727
ATOM     40  C   UNL d   1      -2.732   0.012 -21.357 -0.09 +0.09    +0.115    39.727
ATOM     41  C   UNL d   1      -2.926  -0.199 -19.870 -0.09 +0.23    +0.139    39.727
ATOM     42  O   UNL d   1      -2.500   0.637 -19.086 -0.07 -1.28    -0.650    39.727
ATOM     43  O   UNL d   1      -3.634  -1.244 -19.387 -0.42 -1.54    -0.776    39.727
ATOM     44  H   UNL d   1      -4.166  -1.817 -19.955 +0.04 +0.20    +0.167    39.727
ATOM     45  C   UNL d   1       8.738  -2.259 -19.126 -0.26 +0.00    +0.004    39.727
ATOM     46  C   UNL d   1       9.352  -3.237 -18.465 -0.29 +0.01    +0.012    39.727
ATOM     47  C   UNL d   1       4.375  -2.167 -25.610 -0.02 +0.00    +0.004    39.727
ATOM     48  C   UNL d   1       3.503  -3.053 -26.095 -0.02 +0.00    +0.012    39.727
TER
ENDMDL
MODEL       90
USER    Run = 90
USER    Cluster Rank = 4
USER    Number of conformations in this cluster = 4
USER  
USER    RMSD from reference structure       = 42.420 A
USER  
USER    Estimated Free Energy of Binding    =   -5.52 kcal/mol  [=(1)+(2)+(3)-(4)]
USER    Estimated Inhibition Constant, Ki   =   90.05 uM (micromolar)  [Temperature = 298.15 K]
USER    
USER    (1) Final Intermolecular Energy     =   -9.10 kcal/mol
USER        vdW + Hbond + desolv Energy     =   -6.39 kcal/mol
USER        Electrostatic Energy            =   -2.71 kcal/mol
USER    (2) Final Total Internal Energy     =   -1.54 kcal/mol
USER    (3) Torsional Free Energy           =   +3.58 kcal/mol
USER    (4) Unbound System's Energy  [=(2)] =   -1.54 kcal/mol
USER    
USER    
USER  
USER    DPF = D:/Protein_go_brrr/autodock/final/mut_D99N/heme_Co/dock.dpf
USER    NEWDPF move	heme_Co_opt.pdbqt
USER    NEWDPF about	8.781000 34.984000 -0.736000
USER    NEWDPF tran0	-10.376382 -4.086001 11.134765
USER    NEWDPF axisangle0	0.532604 -0.622365 0.573581 -98.951351
USER    NEWDPF quaternion0	0.404848 -0.473078 0.435996 -0.649771
USER    NEWDPF dihe0	-109.06 118.95 -9.95 118.63 68.44 130.83 2.96 -19.99 -69.71 -32.42 160.61 36.30 
USER  
USER                              x       y       z    vdW   Elec        q     RMS 
ATOM      1  C   UNL d   1     -10.961  -3.498   9.128 -0.22 +0.02    +0.064    42.420
ATOM      2  C   UNL d   1      -9.196  -7.549  10.883 -0.15 +0.02    +0.064    42.420
ATOM      3  C   UNL d   1      -8.678  -5.509  15.172 -0.11 +0.01    +0.064    42.420
ATOM      4  C   UNL d   1     -10.835  -1.481  13.503 -0.25 +0.02    +0.064    42.420
ATOM      5  C   UNL d   1     -10.483  -4.743   9.283 -0.19 +0.02    +0.066    42.420
ATOM      6  C   UNL d   1     -10.528  -5.696   8.246 -0.22 -0.01    -0.021    42.420
ATOM      7  C   UNL d   1     -10.036  -6.876   8.768 -0.17 -0.01    -0.025    42.420
ATOM      8  C   UNL d   1      -9.696  -6.589  10.095 -0.16 +0.01    +0.066    42.420
ATOM      9  C   UNL d   1      -9.885  -8.230   8.058 -0.15 +0.01    +0.051    42.420
ATOM     10  C   UNL d   1      -8.793  -7.341  12.252 -0.10 +0.01    +0.066    42.420
ATOM     11  C   UNL d   1      -8.133  -8.268  13.087 -0.07 -0.00    -0.021    42.420
ATOM     12  C   UNL d   1      -7.991  -7.646  14.330 -0.06 +0.00    +0.000    42.420
ATOM     13  C   UNL d   1      -8.562  -6.385  14.159 -0.08 +0.01    +0.070    42.420
ATOM     14  C   UNL d   1      -7.597  -9.616  12.676 -0.10 +0.02    +0.052    42.420
ATOM     15  C   UNL d   1      -9.283  -4.192  15.185 -0.18 +0.01    +0.066    42.420
ATOM     16  C   UNL d   1      -9.500  -3.397  16.302 -0.20 -0.00    -0.021    42.420
ATOM     17  C   UNL d   1     -10.124  -2.235  15.826 -0.28 +0.00    +0.000    42.420
ATOM     18  C   UNL d   1     -10.224  -2.407  14.449 -0.26 +0.02    +0.070    42.420
ATOM     19  C   UNL d   1      -9.123  -3.757  17.721 -0.12 +0.01    +0.052    42.420
ATOM     20  C   UNL d   1     -11.021  -1.664  12.174 -0.24 +0.02    +0.066    42.420
ATOM     21  C   UNL d   1     -11.654  -0.716  11.374 -0.24 -0.01    -0.025    42.420
ATOM     22  C   UNL d   1     -11.679  -1.257  10.102 -0.20 -0.01    -0.021    42.420
ATOM     23  C   UNL d   1     -11.065  -2.525  10.191 -0.19 +0.02    +0.066    42.420
ATOM     24  C   UNL d   1     -12.227   0.632  11.804 -0.28 +0.02    +0.051    42.420
ATOM     25  N   UNL d   1      -9.957  -5.274  10.439 -0.04 -0.06    -0.248    42.420
ATOM     26  N   UNL d   1      -8.996  -6.182  12.886 +0.02 -0.05    -0.248    42.420
ATOM     27  N   UNL d   1      -9.741  -3.596  14.107 -0.05 -0.05    -0.248    42.420
ATOM     28  N   UNL d   1     -10.667  -2.776  11.444 -0.07 -0.06    -0.248    42.420
ATOM     29 FE   UNL d   1      -9.843  -4.382  12.380 -0.03 +0.00    +0.000    42.420
ATOM     30  C   UNL d   1     -11.098  -5.490   6.847 -0.13 +0.03    +0.052    42.420
ATOM     31  C   UNL d   1     -12.317  -6.385   6.626 -0.12 +0.05    +0.115    42.420
ATOM     32  C   UNL d   1     -13.611  -5.601   6.597 -0.09 +0.08    +0.139    42.420
ATOM     33  O   UNL d   1     -14.528  -5.927   7.335 +0.01 -0.23    -0.650    42.420
ATOM     34  O   UNL d   1     -13.773  -4.513   5.808 -0.29 -1.09    -0.776    42.420
ATOM     35  H   UNL d   1     -13.884  -3.612   6.141 +0.01 +0.27    +0.167    42.420
ATOM     36  C   UNL d   1     -11.749  -5.182  12.736 -0.04 +0.03    +0.190    42.420
ATOM     37  O   UNL d   1     -12.908  -5.627  12.092 -0.00 -0.06    -0.399    42.420
ATOM     38  H   UNL d   1     -12.689  -5.595  11.119 +0.02 +0.04    +0.209    42.420
ATOM     39  C   UNL d   1     -12.318  -0.615   8.885 -0.18 +0.02    +0.052    42.420
ATOM     40  C   UNL d   1     -11.417  -0.778   7.649 -0.05 +0.08    +0.115    42.420
ATOM     41  C   UNL d   1     -12.167  -1.043   6.360 -0.12 +0.16    +0.139    42.420
ATOM     42  O   UNL d   1     -12.078  -0.241   5.441 -0.45 -0.83    -0.650    42.420
ATOM     43  O   UNL d   1     -12.861  -2.185   6.164 +0.00 -1.47    -0.776    42.420
ATOM     44  H   UNL d   1     -12.872  -2.904   6.810 +0.02 +0.20    +0.167    42.420
ATOM     45  C   UNL d   1      -7.368  -8.089  15.648 -0.03 +0.00    +0.004    42.420
ATOM     46  C   UNL d   1      -6.264  -7.677  16.265 -0.04 +0.00    +0.012    42.420
ATOM     47  C   UNL d   1     -10.648  -1.056  16.579 -0.24 +0.00    +0.004    42.420
ATOM     48  C   UNL d   1      -9.962  -0.431  17.539 -0.26 +0.00    +0.012    42.420
TER
ENDMDL
MODEL       46
USER    Run = 46
USER    Cluster Rank = 5
USER    Number of conformations in this cluster = 3
USER  
USER    RMSD from reference structure       = 24.200 A
USER  
USER    Estimated Free Energy of Binding    =   -5.37 kcal/mol  [=(1)+(2)+(3)-(4)]
USER    Estimated Inhibition Constant, Ki   =  115.00 uM (micromolar)  [Temperature = 298.15 K]
USER    
USER    (1) Final Intermolecular Energy     =   -8.95 kcal/mol
USER        vdW + Hbond + desolv Energy     =   -7.02 kcal/mol
USER        Electrostatic Energy            =   -1.94 kcal/mol
USER    (2) Final Total Internal Energy     =   -2.42 kcal/mol
USER    (3) Torsional Free Energy           =   +3.58 kcal/mol
USER    (4) Unbound System's Energy  [=(2)] =   -2.42 kcal/mol
USER    
USER    
USER  
USER    DPF = D:/Protein_go_brrr/autodock/final/mut_D99N/heme_Co/dock.dpf
USER    NEWDPF move	heme_Co_opt.pdbqt
USER    NEWDPF about	8.781000 34.984000 -0.736000
USER    NEWDPF tran0	-9.699831 16.302130 -6.064890
USER    NEWDPF axisangle0	-0.721413 -0.160753 0.673588 107.282383
USER    NEWDPF quaternion0	-0.580969 -0.129458 0.542454 0.592840
USER    NEWDPF dihe0	176.16 147.91 86.72 84.23 -79.82 141.08 -132.71 -24.10 -85.72 99.81 -173.57 -151.60 
USER  
USER                              x       y       z    vdW   Elec        q     RMS 
ATOM      1  C   UNL d   1      -9.630  17.829  -4.522 -0.01 +0.01    +0.064    24.200
ATOM      2  C   UNL d   1     -13.046  14.812  -5.879 -0.21 -0.00    +0.064    24.200
ATOM      3  C   UNL d   1     -10.314  13.284  -9.489 -0.18 -0.01    +0.064    24.200
ATOM      4  C   UNL d   1      -6.665  16.077  -7.893 -0.11 +0.00    +0.064    24.200
ATOM      5  C   UNL d   1     -10.778  17.143  -4.650 -0.03 +0.00    +0.066    24.200
ATOM      6  C   UNL d   1     -11.827  17.262  -3.718 -0.05 -0.00    -0.021    24.200
ATOM      7  C   UNL d   1     -12.806  16.368  -4.103 -0.12 -0.00    -0.025    24.200
ATOM      8  C   UNL d   1     -12.320  15.754  -5.263 -0.12 -0.00    +0.066    24.200
ATOM      9  C   UNL d   1     -14.153  16.091  -3.417 -0.17 -0.00    +0.051    24.200
ATOM     10  C   UNL d   1     -12.640  14.145  -7.091 -0.18 -0.01    +0.066    24.200
ATOM     11  C   UNL d   1     -13.415  13.252  -7.863 -0.25 +0.00    -0.021    24.200
ATOM     12  C   UNL d   1     -12.595  12.825  -8.911 -0.27 -0.00    +0.000    24.200
ATOM     13  C   UNL d   1     -11.389  13.496  -8.709 -0.19 -0.01    +0.070    24.200
ATOM     14  C   UNL d   1     -14.869  12.919  -7.649 -0.27 -0.01    +0.052    24.200
ATOM     15  C   UNL d   1      -8.982  13.848  -9.393 -0.20 -0.00    +0.066    24.200
ATOM     16  C   UNL d   1      -7.875  13.477 -10.143 -0.25 +0.00    -0.021    24.200
ATOM     17  C   UNL d   1      -6.820  14.278  -9.685 -0.18 -0.00    +0.000    24.200
ATOM     18  C   UNL d   1      -7.372  15.090  -8.699 -0.13 +0.00    +0.070    24.200
ATOM     19  C   UNL d   1      -7.862  12.418 -11.222 -0.32 -0.01    +0.052    24.200
ATOM     20  C   UNL d   1      -7.161  16.815  -6.872 -0.09 +0.01    +0.066    24.200
ATOM     21  C   UNL d   1      -6.373  17.707  -6.147 -0.07 -0.00    -0.025    24.200
ATOM     22  C   UNL d   1      -7.208  18.248  -5.187 -0.04 -0.00    -0.021    24.200
ATOM     23  C   UNL d   1      -8.472  17.646  -5.367 -0.03 +0.01    +0.066    24.200
ATOM     24  C   UNL d   1      -4.891  18.013  -6.346 -0.05 +0.01    +0.051    24.200
ATOM     25  N   UNL d   1     -11.068  16.219  -5.627 -0.02 -0.01    -0.248    24.200
ATOM     26  N   UNL d   1     -11.436  14.336  -7.641 -0.08 +0.02    -0.248    24.200
ATOM     27  N   UNL d   1      -8.654  14.785  -8.531 -0.08 +0.00    -0.248    24.200
ATOM     28  N   UNL d   1      -8.447  16.777  -6.384 -0.03 -0.02    -0.248    24.200
ATOM     29 FE   UNL d   1      -9.787  15.462  -7.165 -0.03 +0.00    +0.000    24.200
ATOM     30  C   UNL d   1     -11.840  18.140  -2.470 -0.03 +0.00    +0.052    24.200
ATOM     31  C   UNL d   1     -11.272  17.380  -1.273 -0.07 +0.02    +0.115    24.200
ATOM     32  C   UNL d   1      -9.785  17.604  -1.099 -0.10 +0.06    +0.139    24.200
ATOM     33  O   UNL d   1      -9.392  18.437  -0.296 -0.01 -0.35    -0.650    24.200
ATOM     34  O   UNL d   1      -8.866  16.874  -1.774 +0.03 -0.50    -0.776    24.200
ATOM     35  H   UNL d   1      -7.917  17.061  -1.774 +0.03 +0.17    +0.167    24.200
ATOM     36  C   UNL d   1      -9.188  13.998  -5.788 -0.34 +0.01    +0.190    24.200
ATOM     37  O   UNL d   1      -9.228  13.662  -4.431 -0.23 +0.00    -0.399    24.200
ATOM     38  H   UNL d   1     -10.111  13.996  -4.110 -0.10 -0.02    +0.209    24.200
ATOM     39  C   UNL d   1      -6.792  19.240  -4.117 -0.02 +0.01    +0.052    24.200
ATOM     40  C   UNL d   1      -5.537  18.746  -3.378 -0.05 +0.04    +0.115    24.200
ATOM     41  C   UNL d   1      -5.820  17.809  -2.223 -0.05 +0.11    +0.139    24.200
ATOM     42  O   UNL d   1      -5.450  16.646  -2.291 -0.90 -0.68    -0.650    24.200
ATOM     43  O   UNL d   1      -6.393  18.245  -1.079 -0.36 -0.98    -0.776    24.200
ATOM     44  H   UNL d   1      -7.347  18.214  -0.932 +0.01 +0.20    +0.167    24.200
ATOM     45  C   UNL d   1     -12.818  11.880 -10.084 -0.34 -0.00    +0.004    24.200
ATOM     46  C   UNL d   1     -13.486  12.053 -11.221 -0.32 -0.01    +0.012    24.200
ATOM     47  C   UNL d   1      -5.379  14.276 -10.080 -0.17 -0.00    +0.004    24.200
ATOM     48  C   UNL d   1      -4.416  13.707  -9.351 -0.27 -0.00    +0.012    24.200
TER
ENDMDL
MODEL       39
USER    Run = 39
USER    Cluster Rank = 6
USER    Number of conformations in this cluster = 1
USER  
USER    RMSD from reference structure       = 35.779 A
USER  
USER    Estimated Free Energy of Binding    =   -5.35 kcal/mol  [=(1)+(2)+(3)-(4)]
USER    Estimated Inhibition Constant, Ki   =  120.22 uM (micromolar)  [Temperature = 298.15 K]
USER    
USER    (1) Final Intermolecular Energy     =   -8.93 kcal/mol
USER        vdW + Hbond + desolv Energy     =   -6.15 kcal/mol
USER        Electrostatic Energy            =   -2.78 kcal/mol
USER    (2) Final Total Internal Energy     =   -0.76 kcal/mol
USER    (3) Torsional Free Energy           =   +3.58 kcal/mol
USER    (4) Unbound System's Energy  [=(2)] =   -0.76 kcal/mol
USER    
USER    
USER  
USER    DPF = D:/Protein_go_brrr/autodock/final/mut_D99N/heme_Co/dock.dpf
USER    NEWDPF move	heme_Co_opt.pdbqt
USER    NEWDPF about	8.781000 34.984000 -0.736000
USER    NEWDPF tran0	-14.745672 5.421894 9.121666
USER    NEWDPF axisangle0	0.670363 0.368816 -0.643886 128.457490
USER    NEWDPF quaternion0	0.603686 0.332132 -0.579843 0.434779
USER    NEWDPF dihe0	123.69 107.50 -38.62 121.19 -94.59 165.77 -146.56 -173.16 -144.48 42.38 -4.97 -147.54 
USER  
USER                              x       y       z    vdW   Elec        q     RMS 
ATOM      1  C   UNL d   1     -14.164   3.351   9.420 -0.12 +0.02    +0.064    35.779
ATOM      2  C   UNL d   1     -17.448   6.080  11.512 -0.06 +0.01    +0.064    35.779
ATOM      3  C   UNL d   1     -15.940   9.869   9.021 -0.11 -0.01    +0.064    35.779
ATOM      4  C   UNL d   1     -12.836   7.019   6.591 -0.19 -0.01    +0.064    35.779
ATOM      5  C   UNL d   1     -15.148   3.827  10.201 +0.07 +0.03    +0.066    35.779
ATOM      6  C   UNL d   1     -15.903   2.989  11.044 -0.07 -0.01    -0.021    35.779
ATOM      7  C   UNL d   1     -16.870   3.782  11.632 -0.05 -0.01    -0.025    35.779
ATOM      8  C   UNL d   1     -16.652   5.072  11.135 -0.03 +0.02    +0.066    35.779
ATOM      9  C   UNL d   1     -17.963   3.356  12.623 -0.01 +0.01    +0.051    35.779
ATOM     10  C   UNL d   1     -17.285   7.444  11.075 -0.05 +0.01    +0.066    35.779
ATOM     11  C   UNL d   1     -17.996   8.571  11.541 -0.04 -0.00    -0.021    35.779
ATOM     12  C   UNL d   1     -17.534   9.663  10.801 -0.05 -0.00    +0.000    35.779
ATOM     13  C   UNL d   1     -16.569   9.125   9.949 -0.08 -0.00    +0.070    35.779
ATOM     14  C   UNL d   1     -18.978   8.595  12.684 -0.01 +0.00    +0.052    35.779
ATOM     15  C   UNL d   1     -14.961   9.469   8.031 -0.15 -0.01    +0.066    35.779
ATOM     16  C   UNL d   1     -14.458  10.257   7.005 -0.18 +0.01    -0.021    35.779
ATOM     17  C   UNL d   1     -13.564   9.439   6.300 -0.27 -0.00    +0.000    35.779
ATOM     18  C   UNL d   1     -13.579   8.217   6.964 -0.24 -0.01    +0.070    35.779
ATOM     19  C   UNL d   1     -14.831  11.699   6.744 -0.15 -0.02    +0.052    35.779
ATOM     20  C   UNL d   1     -12.901   5.796   7.169 -0.26 +0.00    +0.066    35.779
ATOM     21  C   UNL d   1     -12.164   4.711   6.697 -0.30 -0.00    -0.025    35.779
ATOM     22  C   UNL d   1     -12.504   3.647   7.512 -0.24 -0.00    -0.021    35.779
ATOM     23  C   UNL d   1     -13.448   4.136   8.440 -0.07 +0.02    +0.066    35.779
ATOM     24  C   UNL d   1     -11.197   4.685   5.516 -0.40 +0.00    +0.051    35.779
ATOM     25  N   UNL d   1     -15.588   5.130  10.251 +0.13 -0.11    -0.248    35.779
ATOM     26  N   UNL d   1     -16.379   7.794  10.155 -0.05 -0.04    -0.248    35.779
ATOM     27  N   UNL d   1     -14.445   8.261   7.971 -0.13 +0.01    -0.248    35.779
ATOM     28  N   UNL d   1     -13.693   5.435   8.234 -0.06 -0.06    -0.248    35.779
ATOM     29 FE   UNL d   1     -14.980   6.786   9.042 -0.05 +0.00    +0.000    35.779
ATOM     30  C   UNL d   1     -15.746   1.481  11.206 -0.04 +0.01    +0.052    35.779
ATOM     31  C   UNL d   1     -14.568   1.159  12.124 -0.10 +0.05    +0.115    35.779
ATOM     32  C   UNL d   1     -14.387   2.192  13.215 -0.16 +0.11    +0.139    35.779
ATOM     33  O   UNL d   1     -15.048   2.106  14.240 -0.01 -0.56    -0.650    35.779
ATOM     34  O   UNL d   1     -13.477   3.189  13.116 -0.31 -1.05    -0.776    35.779
ATOM     35  H   UNL d   1     -13.699   4.130  13.125 -0.12 +0.23    +0.167    35.779
ATOM     36  C   UNL d   1     -16.475   6.205   7.692 -0.04 +0.02    +0.190    35.779
ATOM     37  O   UNL d   1     -17.580   5.360   7.550 +0.00 -0.04    -0.399    35.779
ATOM     38  H   UNL d   1     -17.592   4.811   8.383 +0.01 +0.03    +0.209    35.779
ATOM     39  C   UNL d   1     -11.996   2.225   7.360 -0.27 +0.01    +0.052    35.779
ATOM     40  C   UNL d   1     -12.071   1.776   5.892 -0.13 +0.04    +0.115    35.779
ATOM     41  C   UNL d   1     -12.450   0.322   5.702 -0.11 +0.12    +0.139    35.779
ATOM     42  O   UNL d   1     -12.060  -0.508   6.511 -0.40 -0.61    -0.650    35.779
ATOM     43  O   UNL d   1     -13.281  -0.072   4.712 -0.38 -1.14    -0.776    35.779
ATOM     44  H   UNL d   1     -14.000   0.484   4.385 +0.03 +0.15    +0.167    35.779
ATOM     45  C   UNL d   1     -17.878  11.146  10.813 -0.03 -0.00    +0.004    35.779
ATOM     46  C   UNL d   1     -17.150  12.201  11.170 -0.06 -0.00    +0.012    35.779
ATOM     47  C   UNL d   1     -12.777   9.729   5.064 -0.39 -0.00    +0.004    35.779
ATOM     48  C   UNL d   1     -12.952   9.082   3.910 -0.44 -0.00    +0.012    35.779
TER
ENDMDL
MODEL       95
USER    Run = 95
USER    Cluster Rank = 7
USER    Number of conformations in this cluster = 5
USER  
USER    RMSD from reference structure       = 37.966 A
USER  
USER    Estimated Free Energy of Binding    =   -5.06 kcal/mol  [=(1)+(2)+(3)-(4)]
USER    Estimated Inhibition Constant, Ki   =  194.63 uM (micromolar)  [Temperature = 298.15 K]
USER    
USER    (1) Final Intermolecular Energy     =   -8.64 kcal/mol
USER        vdW + Hbond + desolv Energy     =   -5.97 kcal/mol
USER        Electrostatic Energy            =   -2.67 kcal/mol
USER    (2) Final Total Internal Energy     =   -2.76 kcal/mol
USER    (3) Torsional Free Energy           =   +3.58 kcal/mol
USER    (4) Unbound System's Energy  [=(2)] =   -2.76 kcal/mol
USER    
USER    
USER  
USER    DPF = D:/Protein_go_brrr/autodock/final/mut_D99N/heme_Co/dock.dpf
USER    NEWDPF move	heme_Co_opt.pdbqt
USER    NEWDPF about	8.781000 34.984000 -0.736000
USER    NEWDPF tran0	-13.653588 2.761266 9.339193
USER    NEWDPF axisangle0	0.116978 0.514729 -0.849335 136.219789
USER    NEWDPF quaternion0	0.108544 0.477617 -0.788099 0.372828
USER    NEWDPF dihe0	-116.20 102.06 -155.12 109.58 136.02 111.80 -7.00 117.91 -78.30 92.24 165.59 -172.37 
USER  
USER                              x       y       z    vdW   Elec        q     RMS 
ATOM      1  C   UNL d   1     -12.095   1.862   8.123 -0.22 +0.02    +0.064    37.966
ATOM      2  C   UNL d   1     -13.657   0.930  12.517 -0.18 +0.03    +0.064    37.966
ATOM      3  C   UNL d   1     -16.593   4.694  12.312 -0.08 +0.02    +0.064    37.966
ATOM      4  C   UNL d   1     -15.297   5.437   7.683 -0.08 +0.01    +0.064    37.966
ATOM      5  C   UNL d   1     -12.280   1.352   9.352 -0.19 +0.02    +0.066    37.966
ATOM      6  C   UNL d   1     -11.636   0.174   9.777 -0.28 -0.01    -0.021    37.966
ATOM      7  C   UNL d   1     -12.110  -0.104  11.044 -0.21 -0.01    -0.025    37.966
ATOM      8  C   UNL d   1     -13.010   0.924  11.344 -0.18 +0.03    +0.066    37.966
ATOM      9  C   UNL d   1     -11.740  -1.289  11.949 -0.22 +0.02    +0.051    37.966
ATOM     10  C   UNL d   1     -14.580   1.959  12.924 -0.15 +0.04    +0.066    37.966
ATOM     11  C   UNL d   1     -15.183   2.098  14.193 -0.10 -0.02    -0.021    37.966
ATOM     12  C   UNL d   1     -16.031   3.206  14.106 -0.11 +0.00    +0.000    37.966
ATOM     13  C   UNL d   1     -15.874   3.667  12.799 -0.12 +0.04    +0.070    37.966
ATOM     14  C   UNL d   1     -14.882   1.274  15.418 -0.09 +0.04    +0.052    37.966
ATOM     15  C   UNL d   1     -16.596   5.264  10.980 -0.01 +0.02    +0.066    37.966
ATOM     16  C   UNL d   1     -17.468   6.231  10.500 -0.05 -0.00    -0.021    37.966
ATOM     17  C   UNL d   1     -17.100   6.447   9.165 -0.06 +0.00    +0.000    37.966
ATOM     18  C   UNL d   1     -16.017   5.604   8.939 -0.07 +0.02    +0.070    37.966
ATOM     19  C   UNL d   1     -18.575   6.886  11.296 -0.03 +0.01    +0.052    37.966
ATOM     20  C   UNL d   1     -14.298   4.562   7.416 -0.10 +0.01    +0.066    37.966
ATOM     21  C   UNL d   1     -13.707   4.470   6.157 -0.12 -0.00    -0.025    37.966
ATOM     22  C   UNL d   1     -12.761   3.467   6.262 -0.18 -0.00    -0.021    37.966
ATOM     23  C   UNL d   1     -12.829   2.985   7.586 -0.18 +0.01    +0.066    37.966
ATOM     24  C   UNL d   1     -14.042   5.283   4.910 -0.10 +0.00    +0.051    37.966
ATOM     25  N   UNL d   1     -13.130   1.844  10.316 -0.11 -0.08    -0.248    37.966
ATOM     26  N   UNL d   1     -14.954   2.947  12.103 -0.11 -0.13    -0.248    37.966
ATOM     27  N   UNL d   1     -15.764   4.893  10.032 -0.02 -0.10    -0.248    37.966
ATOM     28  N   UNL d   1     -13.760   3.644   8.287 -0.09 -0.06    -0.248    37.966
ATOM     29 FE   UNL d   1     -14.524   3.460  10.163 -0.04 +0.00    +0.000    37.966
ATOM     30  C   UNL d   1     -10.672  -0.681   8.960 -0.42 +0.02    +0.052    37.966
ATOM     31  C   UNL d   1     -11.317  -2.018   8.597 -0.26 +0.05    +0.115    37.966
ATOM     32  C   UNL d   1     -11.856  -2.035   7.183 -0.17 +0.12    +0.139    37.966
ATOM     33  O   UNL d   1     -12.954  -2.524   6.964 -0.20 -0.70    -0.650    37.966
ATOM     34  O   UNL d   1     -11.180  -1.478   6.151 -0.18 -0.92    -0.776    37.966
ATOM     35  H   UNL d   1     -11.524  -0.763   5.599 +0.03 +0.23    +0.167    37.966
ATOM     36  C   UNL d   1     -15.915   2.047   9.482 -0.01 +0.05    +0.190    37.966
ATOM     37  O   UNL d   1     -16.060   0.945   8.634 +0.01 -0.10    -0.399    37.966
ATOM     38  H   UNL d   1     -15.224   0.929   8.089 +0.02 +0.06    +0.209    37.966
ATOM     39  C   UNL d   1     -11.887   2.960   5.130 -0.16 +0.01    +0.052    37.966
ATOM     40  C   UNL d   1     -12.723   2.163   4.114 -0.18 +0.05    +0.115    37.966
ATOM     41  C   UNL d   1     -12.752   0.670   4.364 -0.18 +0.13    +0.139    37.966
ATOM     42  O   UNL d   1     -12.078  -0.068   3.659 -0.50 -1.02    -0.650    37.966
ATOM     43  O   UNL d   1     -13.434   0.136   5.401 -0.14 -0.80    -0.776    37.966
ATOM     44  H   UNL d   1     -13.151  -0.672   5.849 +0.02 +0.23    +0.167    37.966
ATOM     45  C   UNL d   1     -16.953   3.889  15.108 -0.06 +0.00    +0.004    37.966
ATOM     46  C   UNL d   1     -16.784   4.997  15.824 -0.07 +0.01    +0.012    37.966
ATOM     47  C   UNL d   1     -17.724   7.329   8.134 -0.02 +0.00    +0.004    37.966
ATOM     48  C   UNL d   1     -17.113   8.392   7.606 -0.03 -0.00    +0.012    37.966
TER
ENDMDL
MODEL       36
USER    Run = 36
USER    Cluster Rank = 8
USER    Number of conformations in this cluster = 1
USER  
USER    RMSD from reference structure       = 33.500 A
USER  
USER    Estimated Free Energy of Binding    =   -5.01 kcal/mol  [=(1)+(2)+(3)-(4)]
USER    Estimated Inhibition Constant, Ki   =  213.71 uM (micromolar)  [Temperature = 298.15 K]
USER    
USER    (1) Final Intermolecular Energy     =   -8.59 kcal/mol
USER        vdW + Hbond + desolv Energy     =   -6.24 kcal/mol
USER        Electrostatic Energy            =   -2.34 kcal/mol
USER    (2) Final Total Internal Energy     =   -2.09 kcal/mol
USER    (3) Torsional Free Energy           =   +3.58 kcal/mol
USER    (4) Unbound System's Energy  [=(2)] =   -2.09 kcal/mol
USER    
USER    
USER  
USER    DPF = D:/Protein_go_brrr/autodock/final/mut_D99N/heme_Co/dock.dpf
USER    NEWDPF move	heme_Co_opt.pdbqt
USER    NEWDPF about	8.781000 34.984000 -0.736000
USER    NEWDPF tran0	-18.438004 9.878706 1.688819
USER    NEWDPF axisangle0	0.355341 -0.270639 0.894699 -49.143481
USER    NEWDPF quaternion0	0.147762 -0.112540 0.372045 -0.909441
USER    NEWDPF dihe0	-170.51 104.03 -95.92 -95.68 138.60 132.57 -152.14 69.24 -58.71 -44.23 -146.50 -8.49 
USER  
USER                              x       y       z    vdW   Elec        q     RMS 
ATOM      1  C   UNL d   1     -20.062   9.272   0.381 -0.19 +0.02    +0.064    33.500
ATOM      2  C   UNL d   1     -17.649   6.958   3.762 -0.14 +0.00    +0.064    33.500
ATOM      3  C   UNL d   1     -14.745  10.713   4.312 -0.14 -0.01    +0.064    33.500
ATOM      4  C   UNL d   1     -17.430  13.238   1.137 -0.13 -0.01    +0.064    33.500
ATOM      5  C   UNL d   1     -19.594   8.351   1.239 -0.21 +0.01    +0.066    33.500
ATOM      6  C   UNL d   1     -20.234   7.111   1.427 -0.18 -0.01    -0.021    33.500
ATOM      7  C   UNL d   1     -19.543   6.453   2.425 -0.15 -0.00    -0.025    33.500
ATOM      8  C   UNL d   1     -18.502   7.312   2.792 -0.17 +0.00    +0.066    33.500
ATOM      9  C   UNL d   1     -19.840   5.069   3.022 -0.09 +0.01    +0.051    33.500
ATOM     10  C   UNL d   1     -16.532   7.765   4.189 -0.08 -0.00    +0.066    33.500
ATOM     11  C   UNL d   1     -15.521   7.391   5.101 -0.08 +0.00    -0.021    33.500
ATOM     12  C   UNL d   1     -14.686   8.503   5.239 -0.15 -0.00    +0.000    33.500
ATOM     13  C   UNL d   1     -15.240   9.465   4.395 -0.14 -0.01    +0.070    33.500
ATOM     14  C   UNL d   1     -15.331   6.026   5.712 -0.10 +0.00    +0.052    33.500
ATOM     15  C   UNL d   1     -15.221  11.841   3.536 -0.12 -0.01    +0.066    33.500
ATOM     16  C   UNL d   1     -14.751  13.145   3.606 -0.10 +0.00    -0.021    33.500
ATOM     17  C   UNL d   1     -15.524  13.877   2.694 -0.08 -0.00    +0.000    33.500
ATOM     18  C   UNL d   1     -16.396  12.956   2.125 -0.13 -0.01    +0.070    33.500
ATOM     19  C   UNL d   1     -13.631  13.626   4.501 -0.16 -0.02    +0.052    33.500
ATOM     20  C   UNL d   1     -18.347  12.376   0.634 -0.17 -0.01    +0.066    33.500
ATOM     21  C   UNL d   1     -19.315  12.774  -0.285 -0.11 -0.00    -0.025    33.500
ATOM     22  C   UNL d   1     -20.070  11.645  -0.543 -0.19 -0.00    -0.021    33.500
ATOM     23  C   UNL d   1     -19.528  10.609   0.246 -0.18 +0.00    +0.066    33.500
ATOM     24  C   UNL d   1     -19.524  14.167  -0.873 -0.10 +0.00    +0.051    33.500
ATOM     25  N   UNL d   1     -18.505   8.493   2.069 -0.15 +0.00    -0.248    33.500
ATOM     26  N   UNL d   1     -16.323   8.999   3.718 -0.11 +0.02    -0.248    33.500
ATOM     27  N   UNL d   1     -16.208  11.760   2.672 -0.10 +0.04    -0.248    33.500
ATOM     28  N   UNL d   1     -18.486  11.048   0.962 -0.02 +0.04    -0.248    33.500
ATOM     29 FE   UNL d   1     -17.290  10.225   2.386 -0.04 -0.00    +0.000    33.500
ATOM     30  C   UNL d   1     -21.502   6.627   0.730 -0.05 +0.03    +0.052    33.500
ATOM     31  C   UNL d   1     -22.683   7.534   1.072 -0.10 +0.06    +0.115    33.500
ATOM     32  C   UNL d   1     -23.279   8.193  -0.153 -0.01 +0.15    +0.139    33.500
ATOM     33  O   UNL d   1     -24.021   7.550  -0.880 -0.44 -1.04    -0.650    33.500
ATOM     34  O   UNL d   1     -23.054   9.495  -0.449 -0.11 -0.58    -0.776    33.500
ATOM     35  H   UNL d   1     -23.476   9.967  -1.180 +0.02 +0.12    +0.167    33.500
ATOM     36  C   UNL d   1     -18.655  10.770   3.881 -0.04 -0.01    +0.190    33.500
ATOM     37  O   UNL d   1     -19.970  10.575   4.314 -0.00 -0.00    -0.399    33.500
ATOM     38  H   UNL d   1     -20.412  10.073   3.573 +0.02 +0.01    +0.209    33.500
ATOM     39  C   UNL d   1     -21.285  11.588  -1.450 -0.14 +0.01    +0.052    33.500
ATOM     40  C   UNL d   1     -20.880  11.180  -2.876 -0.20 +0.02    +0.115    33.500
ATOM     41  C   UNL d   1     -21.704  10.053  -3.462 +0.03 +0.12    +0.139    33.500
ATOM     42  O   UNL d   1     -21.206   9.325  -4.309 -0.50 -0.65    -0.650    33.500
ATOM     43  O   UNL d   1     -22.948   9.775  -3.013 -0.21 -1.01    -0.776    33.500
ATOM     44  H   UNL d   1     -23.113   9.159  -2.287 +0.01 +0.33    +0.167    33.500
ATOM     45  C   UNL d   1     -13.425   8.759   6.053 -0.28 -0.00    +0.004    33.500
ATOM     46  C   UNL d   1     -13.243   9.453   7.174 -0.39 -0.00    +0.012    33.500
ATOM     47  C   UNL d   1     -15.509  15.340   2.390 -0.06 -0.00    +0.004    33.500
ATOM     48  C   UNL d   1     -15.188  15.841   1.194 -0.09 -0.00    +0.012    33.500
TER
ENDMDL
MODEL       41
USER    Run = 41
USER    Cluster Rank = 9
USER    Number of conformations in this cluster = 3
USER  
USER    RMSD from reference structure       = 40.389 A
USER  
USER    Estimated Free Energy of Binding    =   -4.91 kcal/mol  [=(1)+(2)+(3)-(4)]
USER    Estimated Inhibition Constant, Ki   =  253.18 uM (micromolar)  [Temperature = 298.15 K]
USER    
USER    (1) Final Intermolecular Energy     =   -8.49 kcal/mol
USER        vdW + Hbond + desolv Energy     =   -5.64 kcal/mol
USER        Electrostatic Energy            =   -2.84 kcal/mol
USER    (2) Final Total Internal Energy     =   -2.20 kcal/mol
USER    (3) Torsional Free Energy           =   +3.58 kcal/mol
USER    (4) Unbound System's Energy  [=(2)] =   -2.20 kcal/mol
USER    
USER    
USER  
USER    DPF = D:/Protein_go_brrr/autodock/final/mut_D99N/heme_Co/dock.dpf
USER    NEWDPF move	heme_Co_opt.pdbqt
USER    NEWDPF about	8.781000 34.984000 -0.736000
USER    NEWDPF tran0	2.466798 -0.225098 -20.825886
USER    NEWDPF axisangle0	0.843505 -0.273625 0.462200 -123.123621
USER    NEWDPF quaternion0	0.741720 -0.240607 0.406427 -0.476210
USER    NEWDPF dihe0	-179.89 118.45 25.89 -112.29 -97.49 137.90 -130.34 140.66 -144.44 -56.84 -172.38 160.18 
USER  
USER                              x       y       z    vdW   Elec        q     RMS 
ATOM      1  C   UNL d   1       0.706   0.268 -21.997 -0.04 +0.02    +0.064    40.389
ATOM      2  C   UNL d   1       4.778  -1.917 -23.116 -0.09 +0.01    +0.064    40.389
ATOM      3  C   UNL d   1       6.489  -1.052 -18.739 -0.14 +0.02    +0.064    40.389
ATOM      4  C   UNL d   1       2.197   0.842 -17.451 -0.03 +0.03    +0.064    40.389
ATOM      5  C   UNL d   1       1.707  -0.360 -22.636 -0.03 +0.02    +0.066    40.389
ATOM      6  C   UNL d   1       1.564  -0.851 -23.948 -0.02 -0.00    -0.021    40.389
ATOM      7  C   UNL d   1       2.741  -1.504 -24.260 -0.02 -0.00    -0.025    40.389
ATOM      8  C   UNL d   1       3.556  -1.370 -23.131 -0.04 +0.01    +0.066    40.389
ATOM      9  C   UNL d   1       3.098  -2.232 -25.565 -0.01 +0.00    +0.051    40.389
ATOM     10  C   UNL d   1       5.698  -1.809 -22.011 -0.11 +0.01    +0.066    40.389
ATOM     11  C   UNL d   1       7.042  -2.239 -21.986 -0.14 -0.00    -0.021    40.389
ATOM     12  C   UNL d   1       7.518  -1.971 -20.700 -0.15 +0.00    +0.000    40.389
ATOM     13  C   UNL d   1       6.436  -1.387 -20.040 -0.11 +0.01    +0.070    40.389
ATOM     14  C   UNL d   1       7.828  -2.777 -23.154 -0.12 +0.00    +0.052    40.389
ATOM     15  C   UNL d   1       5.455  -0.492 -17.891 -0.19 +0.02    +0.066    40.389
ATOM     16  C   UNL d   1       5.529  -0.303 -16.518 -0.26 -0.01    -0.021    40.389
ATOM     17  C   UNL d   1       4.293   0.241 -16.141 -0.25 +0.00    +0.000    40.389
ATOM     18  C   UNL d   1       3.565   0.357 -17.321 -0.16 +0.02    +0.070    40.389
ATOM     19  C   UNL d   1       6.723  -0.635 -15.650 -0.28 +0.02    +0.052    40.389
ATOM     20  C   UNL d   1       1.440   0.884 -18.573 -0.08 +0.04    +0.066    40.389
ATOM     21  C   UNL d   1       0.123   1.339 -18.565 -0.13 -0.03    -0.025    40.389
ATOM     22  C   UNL d   1      -0.323   1.212 -19.868 -0.10 -0.02    -0.021    40.389
ATOM     23  C   UNL d   1       0.748   0.671 -20.610 -0.09 +0.04    +0.066    40.389
ATOM     24  C   UNL d   1      -0.678   1.850 -17.371 -0.15 +0.06    +0.051    40.389
ATOM     25  N   UNL d   1       2.944  -0.661 -22.112 -0.02 -0.05    -0.248    40.389
ATOM     26  N   UNL d   1       5.354  -1.239 -20.850 -0.08 -0.05    -0.248    40.389
ATOM     27  N   UNL d   1       4.277  -0.116 -18.338 -0.11 -0.07    -0.248    40.389
ATOM     28  N   UNL d   1       1.817   0.469 -19.829 -0.08 -0.12    -0.248    40.389
ATOM     29 FE   UNL d   1       3.647  -0.370 -20.112 -0.03 +0.00    +0.000    40.389
ATOM     30  C   UNL d   1       0.318  -0.761 -24.823 -0.02 +0.01    +0.052    40.389
ATOM     31  C   UNL d   1      -0.599  -1.959 -24.576 -0.03 +0.02    +0.115    40.389
ATOM     32  C   UNL d   1      -0.555  -2.434 -23.140 -0.10 +0.04    +0.139    40.389
ATOM     33  O   UNL d   1      -1.446  -2.106 -22.371 -0.04 -0.30    -0.650    40.389
ATOM     34  O   UNL d   1       0.420  -3.255 -22.685 +0.00 -0.17    -0.776    40.389
ATOM     35  H   UNL d   1       0.511  -3.533 -21.763 -0.07 +0.04    +0.167    40.389
ATOM     36  C   UNL d   1       2.869  -2.269 -19.683 -0.07 +0.06    +0.190    40.389
ATOM     37  O   UNL d   1       1.990  -3.247 -20.160 -0.27 -0.15    -0.399    40.389
ATOM     38  H   UNL d   1       1.690  -2.910 -21.050 +0.05 +0.07    +0.209    40.389
ATOM     39  C   UNL d   1      -1.724   1.534 -20.353 -0.08 +0.05    +0.052    40.389
ATOM     40  C   UNL d   1      -2.572   0.255 -20.451 -0.12 +0.14    +0.115    40.389
ATOM     41  C   UNL d   1      -3.779   0.234 -19.537 -0.10 +0.24    +0.139    40.389
ATOM     42  O   UNL d   1      -3.634  -0.071 -18.361 -0.29 -1.64    -0.650    40.389
ATOM     43  O   UNL d   1      -5.000   0.627 -19.963 +0.00 -1.47    -0.776    40.389
ATOM     44  H   UNL d   1      -5.295   0.505 -20.875 +0.02 +0.21    +0.167    40.389
ATOM     45  C   UNL d   1       8.868  -2.180 -20.027 -0.19 +0.00    +0.004    40.389
ATOM     46  C   UNL d   1       9.199  -2.886 -18.950 -0.30 +0.01    +0.012    40.389
ATOM     47  C   UNL d   1       3.777   0.589 -14.784 -0.40 +0.00    +0.004    40.389
ATOM     48  C   UNL d   1       2.693   0.030 -14.241 -0.55 +0.00    +0.012    40.389
TER
ENDMDL
MODEL       72
USER    Run = 72
USER    Cluster Rank = 10
USER    Number of conformations in this cluster = 2
USER  
USER    RMSD from reference structure       = 33.264 A
USER  
USER    Estimated Free Energy of Binding    =   -4.88 kcal/mol  [=(1)+(2)+(3)-(4)]
USER    Estimated Inhibition Constant, Ki   =  262.85 uM (micromolar)  [Temperature = 298.15 K]
USER    
USER    (1) Final Intermolecular Energy     =   -8.46 kcal/mol
USER        vdW + Hbond + desolv Energy     =   -7.61 kcal/mol
USER        Electrostatic Energy            =   -0.86 kcal/mol
USER    (2) Final Total Internal Energy     =   -2.09 kcal/mol
USER    (3) Torsional Free Energy           =   +3.58 kcal/mol
USER    (4) Unbound System's Energy  [=(2)] =   -2.09 kcal/mol
USER    
USER    
USER  
USER    DPF = D:/Protein_go_brrr/autodock/final/mut_D99N/heme_Co/dock.dpf
USER    NEWDPF move	heme_Co_opt.pdbqt
USER    NEWDPF about	8.781000 34.984000 -0.736000
USER    NEWDPF tran0	16.089143 -0.461928 3.944650
USER    NEWDPF axisangle0	0.274240 0.949107 0.154885 -95.839873
USER    NEWDPF quaternion0	0.203543 0.704436 0.114957 -0.670168
USER    NEWDPF dihe0	158.59 123.30 30.76 138.84 114.97 135.99 -137.96 111.20 -133.62 -13.34 -172.79 -179.06 
USER  
USER                              x       y       z    vdW   Elec        q     RMS 
ATOM      1  C   UNL d   1      15.350  -0.776   5.962 -0.06 +0.00    +0.064    33.264
ATOM      2  C   UNL d   1      18.674  -3.005   3.394 -0.21 -0.00    +0.064    33.264
ATOM      3  C   UNL d   1      17.588  -0.323  -0.408 -0.15 -0.01    +0.064    33.264
ATOM      4  C   UNL d   1      14.456   2.228   2.302 -0.19 +0.00    +0.064    33.264
ATOM      5  C   UNL d   1      16.313  -1.607   5.529 -0.20 -0.00    +0.066    33.264
ATOM      6  C   UNL d   1      16.955  -2.519   6.390 -0.28 +0.00    -0.021    33.264
ATOM      7  C   UNL d   1      17.934  -3.146   5.645 -0.20 +0.00    -0.025    33.264
ATOM      8  C   UNL d   1      17.837  -2.603   4.359 -0.21 -0.00    +0.066    33.264
ATOM      9  C   UNL d   1      18.932  -4.218   6.112 -0.16 +0.00    +0.051    33.264
ATOM     10  C   UNL d   1      18.632  -2.522   2.037 -0.18 -0.00    +0.066    33.264
ATOM     11  C   UNL d   1      19.388  -3.004   0.946 -0.20 +0.00    -0.021    33.264
ATOM     12  C   UNL d   1      19.049  -2.207  -0.151 -0.19 -0.00    +0.000    33.264
ATOM     13  C   UNL d   1      18.104  -1.309   0.347 -0.14 -0.01    +0.070    33.264
ATOM     14  C   UNL d   1      20.295  -4.207   0.952 -0.28 -0.00    +0.052    33.264
ATOM     15  C   UNL d   1      16.648   0.718  -0.044 -0.15 -0.00    +0.066    33.264
ATOM     16  C   UNL d   1      16.265   1.794  -0.832 -0.15 +0.00    -0.021    33.264
ATOM     17  C   UNL d   1      15.364   2.534  -0.054 -0.15 -0.00    +0.000    33.264
ATOM     18  C   UNL d   1      15.254   1.839   1.146 -0.14 -0.00    +0.070    33.264
ATOM     19  C   UNL d   1      16.752   2.069  -2.238 -0.07 -0.00    +0.052    33.264
ATOM     20  C   UNL d   1      14.400   1.616   3.509 -0.23 +0.00    +0.066    33.264
ATOM     21  C   UNL d   1      13.623   2.105   4.556 -0.24 -0.00    -0.025    33.264
ATOM     22  C   UNL d   1      13.838   1.243   5.615 -0.28 -0.00    -0.021    33.264
ATOM     23  C   UNL d   1      14.753   0.269   5.162 -0.24 +0.00    +0.066    33.264
ATOM     24  C   UNL d   1      12.733   3.346   4.554 -0.16 +0.01    +0.051    33.264
ATOM     25  N   UNL d   1      16.837  -1.651   4.257 -0.16 +0.03    -0.248    33.264
ATOM     26  N   UNL d   1      17.812  -1.537   1.655 -0.09 +0.02    -0.248    33.264
ATOM     27  N   UNL d   1      16.055   0.780   1.128 -0.08 +0.01    -0.248    33.264
ATOM     28  N   UNL d   1      15.098   0.492   3.888 -0.17 +0.00    -0.248    33.264
ATOM     29 FE   UNL d   1      16.420  -0.362   2.602 -0.05 -0.00    +0.000    33.264
ATOM     30  C   UNL d   1      16.686  -2.709   7.878 -0.22 -0.00    +0.052    33.264
ATOM     31  C   UNL d   1      17.554  -1.763   8.707 -0.11 +0.00    +0.115    33.264
ATOM     32  C   UNL d   1      17.579  -0.359   8.142 -0.08 +0.01    +0.139    33.264
ATOM     33  O   UNL d   1      16.773   0.466   8.545 -0.06 -0.04    -0.650    33.264
ATOM     34  O   UNL d   1      18.502   0.032   7.232 +0.04 -0.02    -0.776    33.264
ATOM     35  H   UNL d   1      18.369   0.749   6.597 +0.02 +0.00    +0.167    33.264
ATOM     36  C   UNL d   1      17.954   0.872   3.322 -0.03 -0.00    +0.190    33.264
ATOM     37  O   UNL d   1      18.713   1.156   4.461 +0.00 -0.00    -0.399    33.264
ATOM     38  H   UNL d   1      18.497   0.423   5.103 +0.03 +0.00    +0.209    33.264
ATOM     39  C   UNL d   1      13.244   1.390   7.004 -0.31 +0.01    +0.052    33.264
ATOM     40  C   UNL d   1      13.997   2.465   7.805 -0.15 +0.03    +0.115    33.264
ATOM     41  C   UNL d   1      13.235   3.005   8.997 -0.12 +0.07    +0.139    33.264
ATOM     42  O   UNL d   1      12.823   4.156   8.972 -0.32 -0.47    -0.650    33.264
ATOM     43  O   UNL d   1      12.921   2.222  10.053 -0.32 -0.52    -0.776    33.264
ATOM     44  H   UNL d   1      13.516   1.539  10.388 +0.02 +0.05    +0.167    33.264
ATOM     45  C   UNL d   1      19.492  -2.203  -1.608 -0.28 -0.00    +0.004    33.264
ATOM     46  C   UNL d   1      18.777  -2.177  -2.730 -0.39 -0.00    +0.012    33.264
ATOM     47  C   UNL d   1      14.678   3.826  -0.358 -0.13 +0.00    +0.004    33.264
ATOM     48  C   UNL d   1      13.460   3.904  -0.899 -0.19 +0.00    +0.012    33.264
TER
ENDMDL
MODEL       51
USER    Run = 51
USER    Cluster Rank = 11
USER    Number of conformations in this cluster = 1
USER  
USER    RMSD from reference structure       = 35.075 A
USER  
USER    Estimated Free Energy of Binding    =   -4.83 kcal/mol  [=(1)+(2)+(3)-(4)]
USER    Estimated Inhibition Constant, Ki   =  286.89 uM (micromolar)  [Temperature = 298.15 K]
USER    
USER    (1) Final Intermolecular Energy     =   -8.41 kcal/mol
USER        vdW + Hbond + desolv Energy     =   -6.60 kcal/mol
USER        Electrostatic Energy            =   -1.81 kcal/mol
USER    (2) Final Total Internal Energy     =   -2.10 kcal/mol
USER    (3) Torsional Free Energy           =   +3.58 kcal/mol
USER    (4) Unbound System's Energy  [=(2)] =   -2.10 kcal/mol
USER    
USER    
USER  
USER    DPF = D:/Protein_go_brrr/autodock/final/mut_D99N/heme_Co/dock.dpf
USER    NEWDPF move	heme_Co_opt.pdbqt
USER    NEWDPF about	8.781000 34.984000 -0.736000
USER    NEWDPF tran0	5.369782 2.782007 -16.103996
USER    NEWDPF axisangle0	-0.558602 0.284100 -0.779263 113.806112
USER    NEWDPF quaternion0	-0.467968 0.238004 -0.652826 0.546057
USER    NEWDPF dihe0	-180.00 -107.07 111.83 6.33 -65.64 -141.29 28.23 -73.53 -133.93 126.87 -178.88 -163.40 
USER  
USER                              x       y       z    vdW   Elec        q     RMS 
ATOM      1  C   UNL d   1       4.538   2.387 -18.071 -0.02 +0.01    +0.064    35.075
ATOM      2  C   UNL d   1       8.382   0.707 -15.831 -0.15 +0.02    +0.064    35.075
ATOM      3  C   UNL d   1       7.605   3.691 -12.181 -0.16 +0.01    +0.064    35.075
ATOM      4  C   UNL d   1       3.462   5.149 -14.271 -0.10 +0.01    +0.064    35.075
ATOM      5  C   UNL d   1       5.666   1.735 -17.743 -0.03 +0.01    +0.066    35.075
ATOM      6  C   UNL d   1       6.191   0.703 -18.545 -0.06 -0.00    -0.021    35.075
ATOM      7  C   UNL d   1       7.294   0.203 -17.879 -0.10 -0.01    -0.025    35.075
ATOM      8  C   UNL d   1       7.403   0.962 -16.709 -0.09 +0.02    +0.066    35.075
ATOM      9  C   UNL d   1       8.218  -0.944 -18.315 -0.18 +0.02    +0.051    35.075
ATOM     10  C   UNL d   1       8.588   1.452 -14.614 -0.14 +0.02    +0.066    35.075
ATOM     11  C   UNL d   1       9.676   1.326 -13.723 -0.19 -0.00    -0.021    35.075
ATOM     12  C   UNL d   1       9.426   2.210 -12.670 -0.22 +0.00    +0.000    35.075
ATOM     13  C   UNL d   1       8.215   2.817 -13.002 -0.16 +0.01    +0.070    35.075
ATOM     14  C   UNL d   1      10.908   0.482 -13.931 -0.11 +0.02    +0.052    35.075
ATOM     15  C   UNL d   1       6.334   4.369 -12.340 -0.08 +0.01    +0.066    35.075
ATOM     16  C   UNL d   1       5.692   5.149 -11.389 -0.03 -0.00    -0.021    35.075
ATOM     17  C   UNL d   1       4.495   5.569 -11.986 -0.14 +0.00    +0.000    35.075
ATOM     18  C   UNL d   1       4.510   5.025 -13.266 -0.10 +0.01    +0.070    35.075
ATOM     19  C   UNL d   1       6.218   5.451 -10.003 -0.23 +0.01    +0.052    35.075
ATOM     20  C   UNL d   1       3.414   4.559 -15.490 -0.07 +0.01    +0.066    35.075
ATOM     21  C   UNL d   1       2.335   4.725 -16.355 -0.07 -0.01    -0.025    35.075
ATOM     22  C   UNL d   1       2.631   3.964 -17.471 -0.03 -0.01    -0.021    35.075
ATOM     23  C   UNL d   1       3.880   3.356 -17.224 -0.02 +0.01    +0.066    35.075
ATOM     24  C   UNL d   1       1.074   5.553 -16.122 +0.03 +0.01    +0.051    35.075
ATOM     25  N   UNL d   1       6.411   1.922 -16.601 -0.01 -0.05    -0.248    35.075
ATOM     26  N   UNL d   1       7.738   2.399 -14.204 -0.07 -0.04    -0.248    35.075
ATOM     27  N   UNL d   1       5.605   4.292 -13.431 -0.04 -0.04    -0.248    35.075
ATOM     28  N   UNL d   1       4.357   3.712 -16.025 -0.02 -0.05    -0.248    35.075
ATOM     29 FE   UNL d   1       5.981   3.179 -14.924 -0.02 +0.00    +0.000    35.075
ATOM     30  C   UNL d   1       5.603   0.175 -19.849 -0.08 +0.01    +0.052    35.075
ATOM     31  C   UNL d   1       4.718  -1.042 -19.586 -0.12 +0.03    +0.115    35.075
ATOM     32  C   UNL d   1       3.806  -0.846 -18.393 -0.17 +0.04    +0.139    35.075
ATOM     33  O   UNL d   1       4.099  -1.357 -17.323 -0.48 -0.32    -0.650    35.075
ATOM     34  O   UNL d   1       2.694  -0.077 -18.459 +0.05 -0.25    -0.776    35.075
ATOM     35  H   UNL d   1       2.060   0.024 -17.737 -0.42 +0.06    +0.167    35.075
ATOM     36  C   UNL d   1       4.931   1.553 -14.118 -0.22 +0.04    +0.190    35.075
ATOM     37  O   UNL d   1       5.092   0.246 -13.647 -0.19 -0.08    -0.399    35.075
ATOM     38  H   UNL d   1       4.501   0.188 -12.845 -0.33 +0.00    +0.209    35.075
ATOM     39  C   UNL d   1       1.728   3.782 -18.676 -0.01 +0.01    +0.052    35.075
ATOM     40  C   UNL d   1       0.408   3.107 -18.269 -0.05 +0.06    +0.115    35.075
ATOM     41  C   UNL d   1       0.575   1.748 -17.624 -0.14 +0.11    +0.139    35.075
ATOM     42  O   UNL d   1       1.148   1.663 -16.547 -0.06 -0.43    -0.650    35.075
ATOM     43  O   UNL d   1       0.030   0.634 -18.162 -0.22 -1.37    -0.776    35.075
ATOM     44  H   UNL d   1       0.565  -0.112 -18.463 -0.53 +0.26    +0.167    35.075
ATOM     45  C   UNL d   1      10.198   2.564 -11.405 -0.21 +0.00    +0.004    35.075
ATOM     46  C   UNL d   1      11.341   2.082 -10.925 -0.21 +0.00    +0.012    35.075
ATOM     47  C   UNL d   1       3.376   6.377 -11.415 -0.23 +0.00    +0.004    35.075
ATOM     48  C   UNL d   1       2.353   5.846 -10.741 -0.38 +0.00    +0.012    35.075
TER
ENDMDL
MODEL       34
USER    Run = 34
USER    Cluster Rank = 12
USER    Number of conformations in this cluster = 2
USER  
USER    RMSD from reference structure       = 36.476 A
USER  
USER    Estimated Free Energy of Binding    =   -4.74 kcal/mol  [=(1)+(2)+(3)-(4)]
USER    Estimated Inhibition Constant, Ki   =  335.40 uM (micromolar)  [Temperature = 298.15 K]
USER    
USER    (1) Final Intermolecular Energy     =   -8.32 kcal/mol
USER        vdW + Hbond + desolv Energy     =   -6.34 kcal/mol
USER        Electrostatic Energy            =   -1.98 kcal/mol
USER    (2) Final Total Internal Energy     =   -0.66 kcal/mol
USER    (3) Torsional Free Energy           =   +3.58 kcal/mol
USER    (4) Unbound System's Energy  [=(2)] =   -0.66 kcal/mol
USER    
USER    
USER  
USER    DPF = D:/Protein_go_brrr/autodock/final/mut_D99N/heme_Co/dock.dpf
USER    NEWDPF move	heme_Co_opt.pdbqt
USER    NEWDPF about	8.781000 34.984000 -0.736000
USER    NEWDPF tran0	-16.251726 4.978515 3.721446
USER    NEWDPF axisangle0	0.248050 -0.051634 0.967370 -106.846211
USER    NEWDPF quaternion0	0.199198 -0.041465 0.776854 -0.595901
USER    NEWDPF dihe0	85.93 102.73 -72.82 147.25 143.00 149.44 123.82 -76.40 22.41 -59.09 178.01 -150.67 
USER  
USER                              x       y       z    vdW   Elec        q     RMS 
ATOM      1  C   UNL d   1     -16.536   3.333   2.334 -0.15 +0.01    +0.064    36.476
ATOM      2  C   UNL d   1     -13.323   4.112   5.751 -0.16 +0.01    +0.064    36.476
ATOM      3  C   UNL d   1     -15.134   8.467   6.513 -0.09 -0.00    +0.064    36.476
ATOM      4  C   UNL d   1     -18.665   7.547   3.296 -0.12 +0.00    +0.064    36.476
ATOM      5  C   UNL d   1     -15.502   3.240   3.186 -0.17 +0.01    +0.066    36.476
ATOM      6  C   UNL d   1     -14.745   2.059   3.317 -0.16 -0.01    -0.021    36.476
ATOM      7  C   UNL d   1     -13.829   2.283   4.326 -0.13 -0.01    -0.025    36.476
ATOM      8  C   UNL d   1     -14.055   3.595   4.756 -0.11 +0.01    +0.066    36.476
ATOM      9  C   UNL d   1     -12.775   1.309   4.875 -0.20 +0.03    +0.051    36.476
ATOM     10  C   UNL d   1     -13.466   5.459   6.243 -0.16 +0.00    +0.066    36.476
ATOM     11  C   UNL d   1     -12.637   6.106   7.186 -0.32 +0.00    -0.021    36.476
ATOM     12  C   UNL d   1     -13.186   7.376   7.386 -0.31 -0.00    +0.000    36.476
ATOM     13  C   UNL d   1     -14.297   7.415   6.544 -0.15 -0.00    +0.070    36.476
ATOM     14  C   UNL d   1     -11.358   5.564   7.769 -0.43 -0.00    +0.052    36.476
ATOM     15  C   UNL d   1     -16.350   8.653   5.747 -0.05 -0.00    +0.066    36.476
ATOM     16  C   UNL d   1     -17.247   9.705   5.869 -0.02 +0.00    -0.021    36.476
ATOM     17  C   UNL d   1     -18.269   9.443   4.945 -0.04 -0.00    +0.000    36.476
ATOM     18  C   UNL d   1     -17.904   8.256   4.318 -0.08 +0.00    +0.070    36.476
ATOM     19  C   UNL d   1     -17.106  10.871   6.821 -0.02 -0.01    +0.052    36.476
ATOM     20  C   UNL d   1     -18.374   6.349   2.735 -0.18 +0.01    +0.066    36.476
ATOM     21  C   UNL d   1     -19.203   5.752   1.787 -0.20 -0.01    -0.025    36.476
ATOM     22  C   UNL d   1     -18.599   4.549   1.470 -0.22 -0.00    -0.021    36.476
ATOM     23  C   UNL d   1     -17.429   4.466   2.255 -0.21 +0.01    +0.066    36.476
ATOM     24  C   UNL d   1     -20.516   6.291   1.226 -0.19 +0.02    +0.051    36.476
ATOM     25  N   UNL d   1     -15.082   4.213   4.064 -0.07 -0.04    -0.248    36.476
ATOM     26  N   UNL d   1     -14.433   6.277   5.812 -0.07 -0.01    -0.248    36.476
ATOM     27  N   UNL d   1     -16.772   7.798   4.842 -0.05 -0.00    -0.248    36.476
ATOM     28  N   UNL d   1     -17.291   5.553   3.023 -0.10 -0.03    -0.248    36.476
ATOM     29 FE   UNL d   1     -15.980   6.112   4.473 -0.03 +0.00    +0.000    36.476
ATOM     30  C   UNL d   1     -14.957   0.754   2.557 -0.13 +0.03    +0.052    36.476
ATOM     31  C   UNL d   1     -15.762  -0.234   3.401 -0.10 +0.08    +0.115    36.476
ATOM     32  C   UNL d   1     -15.586  -1.665   2.940 +0.02 +0.17    +0.139    36.476
ATOM     33  O   UNL d   1     -14.944  -1.894   1.925 -0.44 -0.97    -0.650    36.476
ATOM     34  O   UNL d   1     -16.077  -2.711   3.643 -0.04 -0.83    -0.776    36.476
ATOM     35  H   UNL d   1     -16.995  -3.013   3.600 +0.01 +0.10    +0.167    36.476
ATOM     36  C   UNL d   1     -17.129   5.129   5.924 -0.03 +0.02    +0.190    36.476
ATOM     37  O   UNL d   1     -17.417   3.865   6.450 +0.00 -0.05    -0.399    36.476
ATOM     38  H   UNL d   1     -16.998   3.221   5.813 +0.02 +0.03    +0.209    36.476
ATOM     39  C   UNL d   1     -19.156   3.511   0.513 -0.15 +0.01    +0.052    36.476
ATOM     40  C   UNL d   1     -20.628   3.208   0.837 -0.12 +0.03    +0.115    36.476
ATOM     41  C   UNL d   1     -21.602   3.605  -0.252 -0.12 +0.06    +0.139    36.476
ATOM     42  O   UNL d   1     -21.514   3.081  -1.353 -0.02 -0.29    -0.650    36.476
ATOM     43  O   UNL d   1     -22.623   4.458  -0.015 -0.01 -0.44    -0.776    36.476
ATOM     44  H   UNL d   1     -23.359   4.238   0.569 +0.01 +0.06    +0.167    36.476
ATOM     45  C   UNL d   1     -12.779   8.557   8.257 -0.53 -0.00    +0.004    36.476
ATOM     46  C   UNL d   1     -12.772   9.862   7.998 -0.47 -0.00    +0.012    36.476
ATOM     47  C   UNL d   1     -19.530  10.196   4.678 -0.02 -0.00    +0.004    36.476
ATOM     48  C   UNL d   1     -19.845  10.708   3.486 -0.04 +0.00    +0.012    36.476
TER
ENDMDL
MODEL       43
USER    Run = 43
USER    Cluster Rank = 13
USER    Number of conformations in this cluster = 3
USER  
USER    RMSD from reference structure       = 43.170 A
USER  
USER    Estimated Free Energy of Binding    =   -4.72 kcal/mol  [=(1)+(2)+(3)-(4)]
USER    Estimated Inhibition Constant, Ki   =  346.45 uM (micromolar)  [Temperature = 298.15 K]
USER    
USER    (1) Final Intermolecular Energy     =   -8.30 kcal/mol
USER        vdW + Hbond + desolv Energy     =   -5.56 kcal/mol
USER        Electrostatic Energy            =   -2.74 kcal/mol
USER    (2) Final Total Internal Energy     =   -1.66 kcal/mol
USER    (3) Torsional Free Energy           =   +3.58 kcal/mol
USER    (4) Unbound System's Energy  [=(2)] =   -1.66 kcal/mol
USER    
USER    
USER  
USER    DPF = D:/Protein_go_brrr/autodock/final/mut_D99N/heme_Co/dock.dpf
USER    NEWDPF move	heme_Co_opt.pdbqt
USER    NEWDPF about	8.781000 34.984000 -0.736000
USER    NEWDPF tran0	-14.198705 -5.171228 1.862759
USER    NEWDPF axisangle0	-0.963138 0.250868 0.097112 160.767002
USER    NEWDPF quaternion0	-0.949604 0.247343 0.095748 0.167053
USER    NEWDPF dihe0	-80.96 115.61 -37.40 6.55 108.82 150.82 -125.65 162.91 -179.28 180.00 6.64 8.03 
USER  
USER                              x       y       z    vdW   Elec        q     RMS 
ATOM      1  C   UNL d   1     -15.855  -4.381   3.024 -0.05 +0.05    +0.064    43.170
ATOM      2  C   UNL d   1     -14.597  -3.835  -1.529 -0.15 +0.01    +0.064    43.170
ATOM      3  C   UNL d   1     -10.602  -6.343  -0.765 -0.17 -0.01    +0.064    43.170
ATOM      4  C   UNL d   1     -12.053  -7.241   3.790 -0.11 +0.03    +0.064    43.170
ATOM      5  C   UNL d   1     -15.787  -4.017   1.733 -0.06 +0.05    +0.066    43.170
ATOM      6  C   UNL d   1     -16.829  -3.313   1.098 -0.05 -0.01    -0.021    43.170
ATOM      7  C   UNL d   1     -16.469  -3.177  -0.228 -0.07 -0.01    -0.025    43.170
ATOM      8  C   UNL d   1     -15.216  -3.789  -0.343 -0.09 +0.02    +0.066    43.170
ATOM      9  C   UNL d   1     -17.264  -2.501  -1.356 -0.12 +0.01    +0.051    43.170
ATOM     10  C   UNL d   1     -13.295  -4.419  -1.738 -0.13 +0.01    +0.066    43.170
ATOM     11  C   UNL d   1     -12.532  -4.375  -2.925 -0.24 -0.00    -0.021    43.170
ATOM     12  C   UNL d   1     -11.370  -5.110  -2.673 -0.23 -0.00    +0.000    43.170
ATOM     13  C   UNL d   1     -11.505  -5.537  -1.351 -0.14 +0.00    +0.070    43.170
ATOM     14  C   UNL d   1     -12.864  -3.596  -4.172 -0.27 +0.01    +0.052    43.170
ATOM     15  C   UNL d   1     -10.610  -6.918   0.566 -0.17 -0.00    +0.066    43.170
ATOM     16  C   UNL d   1      -9.719  -7.860   1.060 -0.23 +0.00    -0.021    43.170
ATOM     17  C   UNL d   1     -10.135  -8.124   2.373 -0.17 +0.00    +0.000    43.170
ATOM     18  C   UNL d   1     -11.240  -7.306   2.582 -0.13 +0.02    +0.070    43.170
ATOM     19  C   UNL d   1      -8.555  -8.451   0.297 -0.27 -0.03    +0.052    43.170
ATOM     20  C   UNL d   1     -13.182  -6.519   3.986 -0.08 +0.04    +0.066    43.170
ATOM     21  C   UNL d   1     -13.897  -6.567   5.181 -0.08 -0.01    -0.025    43.170
ATOM     22  C   UNL d   1     -14.983  -5.730   4.999 -0.07 -0.01    -0.021    43.170
ATOM     23  C   UNL d   1     -14.882  -5.218   3.688 -0.05 +0.06    +0.066    43.170
ATOM     24  C   UNL d   1     -13.574  -7.386   6.428 -0.04 +0.02    +0.051    43.170
ATOM     25  N   UNL d   1     -14.766  -4.312   0.858 -0.06 -0.17    -0.248    43.170
ATOM     26  N   UNL d   1     -12.642  -5.071  -0.770 -0.06 -0.06    -0.248    43.170
ATOM     27  N   UNL d   1     -11.512  -6.625   1.475 -0.09 -0.07    -0.248    43.170
ATOM     28  N   UNL d   1     -13.795  -5.695   3.071 -0.02 -0.22    -0.248    43.170
ATOM     29 FE   UNL d   1     -13.044  -5.537   1.188 -0.03 +0.00    +0.000    43.170
ATOM     30  C   UNL d   1     -18.144  -2.870   1.731 -0.02 +0.01    +0.052    43.170
ATOM     31  C   UNL d   1     -18.011  -1.464   2.317 -0.03 +0.03    +0.115    43.170
ATOM     32  C   UNL d   1     -16.619  -0.896   2.144 -0.09 +0.07    +0.139    43.170
ATOM     33  O   UNL d   1     -16.421  -0.039   1.296 +0.01 -0.24    -0.650    43.170
ATOM     34  O   UNL d   1     -15.587  -1.272   2.935 -0.10 -0.84    -0.776    43.170
ATOM     35  H   UNL d   1     -15.391  -0.878   3.796 +0.02 +0.19    +0.167    43.170
ATOM     36  C   UNL d   1     -14.215  -7.158   0.560 -0.01 +0.03    +0.190    43.170
ATOM     37  O   UNL d   1     -15.510  -7.510   0.164 +0.00 -0.04    -0.399    43.170
ATOM     38  H   UNL d   1     -16.022  -6.654   0.171 +0.01 +0.03    +0.209    43.170
ATOM     39  C   UNL d   1     -16.088  -5.490   6.011 -0.02 +0.02    +0.052    43.170
ATOM     40  C   UNL d   1     -15.992  -4.071   6.594 -0.03 +0.06    +0.115    43.170
ATOM     41  C   UNL d   1     -14.773  -3.292   6.146 +0.06 +0.16    +0.139    43.170
ATOM     42  O   UNL d   1     -13.659  -3.739   6.381 -0.47 -0.92    -0.650    43.170
ATOM     43  O   UNL d   1     -14.881  -2.160   5.417 -0.11 -1.24    -0.776    43.170
ATOM     44  H   UNL d   1     -15.604  -2.011   4.793 +0.01 +0.20    +0.167    43.170
ATOM     45  C   UNL d   1     -10.147  -5.442  -3.518 -0.39 -0.00    +0.004    43.170
ATOM     46  C   UNL d   1      -9.859  -5.138  -4.780 -0.51 -0.00    +0.012    43.170
ATOM     47  C   UNL d   1      -9.595  -9.099   3.367 -0.16 +0.00    +0.004    43.170
ATOM     48  C   UNL d   1      -8.591  -8.820   4.202 -0.28 +0.00    +0.012    43.170
TER
ENDMDL
MODEL       44
USER    Run = 44
USER    Cluster Rank = 14
USER    Number of conformations in this cluster = 1
USER  
USER    RMSD from reference structure       = 37.165 A
USER  
USER    Estimated Free Energy of Binding    =   -4.71 kcal/mol  [=(1)+(2)+(3)-(4)]
USER    Estimated Inhibition Constant, Ki   =  353.61 uM (micromolar)  [Temperature = 298.15 K]
USER    
USER    (1) Final Intermolecular Energy     =   -8.29 kcal/mol
USER        vdW + Hbond + desolv Energy     =   -6.91 kcal/mol
USER        Electrostatic Energy            =   -1.38 kcal/mol
USER    (2) Final Total Internal Energy     =   -0.48 kcal/mol
USER    (3) Torsional Free Energy           =   +3.58 kcal/mol
USER    (4) Unbound System's Energy  [=(2)] =   -0.48 kcal/mol
USER    
USER    
USER  
USER    DPF = D:/Protein_go_brrr/autodock/final/mut_D99N/heme_Co/dock.dpf
USER    NEWDPF move	heme_Co_opt.pdbqt
USER    NEWDPF about	8.781000 34.984000 -0.736000
USER    NEWDPF tran0	19.548837 -3.302069 2.540232
USER    NEWDPF axisangle0	0.536027 0.246740 -0.807338 148.689290
USER    NEWDPF quaternion0	0.516141 0.237586 -0.777388 0.269850
USER    NEWDPF dihe0	68.79 -5.20 -57.02 -92.54 122.82 -71.21 104.53 -81.36 0.07 -22.65 8.42 -16.69 
USER  
USER                              x       y       z    vdW   Elec        q     RMS 
ATOM      1  C   UNL d   1      20.875  -4.881   3.220 -0.20 +0.01    +0.064    37.165
ATOM      2  C   UNL d   1      17.458  -2.411   5.418 -0.25 -0.00    +0.064    37.165
ATOM      3  C   UNL d   1      16.882   0.317   1.539 -0.11 -0.00    +0.064    37.165
ATOM      4  C   UNL d   1      20.097  -2.436  -0.859 -0.14 -0.00    +0.064    37.165
ATOM      5  C   UNL d   1      20.009  -4.383   4.118 -0.12 +0.01    +0.066    37.165
ATOM      6  C   UNL d   1      19.826  -4.971   5.385 -0.14 -0.00    -0.021    37.165
ATOM      7  C   UNL d   1      18.817  -4.265   6.010 -0.13 -0.00    -0.025    37.165
ATOM      8  C   UNL d   1      18.439  -3.266   5.105 -0.15 +0.00    +0.066    37.165
ATOM      9  C   UNL d   1      18.220  -4.508   7.404 -0.16 -0.00    +0.051    37.165
ATOM     10  C   UNL d   1      17.020  -1.337   4.563 -0.20 -0.00    +0.066    37.165
ATOM     11  C   UNL d   1      16.094  -0.322   4.890 -0.24 +0.00    -0.021    37.165
ATOM     12  C   UNL d   1      15.948   0.462   3.742 -0.19 -0.00    +0.000    37.165
ATOM     13  C   UNL d   1      16.802  -0.123   2.807 -0.13 -0.00    +0.070    37.165
ATOM     14  C   UNL d   1      15.477  -0.080   6.243 -0.25 +0.00    +0.052    37.165
ATOM     15  C   UNL d   1      17.667  -0.198   0.434 -0.11 -0.00    +0.066    37.165
ATOM     16  C   UNL d   1      17.595   0.214  -0.889 -0.15 +0.00    -0.021    37.165
ATOM     17  C   UNL d   1      18.518  -0.579  -1.585 -0.18 -0.00    +0.000    37.165
ATOM     18  C   UNL d   1      19.096  -1.403  -0.625 -0.12 -0.01    +0.070    37.165
ATOM     19  C   UNL d   1      16.687   1.300  -1.422 -0.13 -0.01    +0.052    37.165
ATOM     20  C   UNL d   1      20.609  -3.307   0.043 -0.14 -0.00    +0.066    37.165
ATOM     21  C   UNL d   1      21.541  -4.281  -0.309 -0.16 -0.00    -0.025    37.165
ATOM     22  C   UNL d   1      21.806  -4.982   0.853 -0.21 -0.00    -0.021    37.165
ATOM     23  C   UNL d   1      21.007  -4.405   1.862 -0.20 +0.01    +0.066    37.165
ATOM     24  C   UNL d   1      22.136  -4.544  -1.690 -0.17 +0.00    +0.051    37.165
ATOM     25  N   UNL d   1      19.166  -3.313   3.927 -0.11 -0.01    -0.248    37.165
ATOM     26  N   UNL d   1      17.491  -1.176   3.322 -0.10 +0.01    -0.248    37.165
ATOM     27  N   UNL d   1      18.543  -1.170   0.560 -0.05 +0.02    -0.248    37.165
ATOM     28  N   UNL d   1      20.279  -3.392   1.376 -0.10 +0.00    -0.248    37.165
ATOM     29 FE   UNL d   1      18.839  -2.179   2.142 -0.03 -0.00    +0.000    37.165
ATOM     30  C   UNL d   1      20.537  -6.207   5.926 -0.21 +0.02    +0.052    37.165
ATOM     31  C   UNL d   1      21.786  -5.808   6.710 -0.11 +0.04    +0.115    37.165
ATOM     32  C   UNL d   1      22.502  -7.002   7.304 -0.04 +0.08    +0.139    37.165
ATOM     33  O   UNL d   1      21.874  -8.025   7.535 -0.02 -0.35    -0.650    37.165
ATOM     34  O   UNL d   1      23.833  -6.994   7.545 -0.01 -0.55    -0.776    37.165
ATOM     35  H   UNL d   1      24.266  -6.414   8.186 +0.01 +0.08    +0.167    37.165
ATOM     36  C   UNL d   1      17.362  -3.585   1.655 -0.20 -0.05    +0.190    37.165
ATOM     37  O   UNL d   1      16.050  -3.706   1.187 -0.27 +0.09    -0.399    37.165
ATOM     38  H   UNL d   1      15.555  -4.161   1.924 -0.33 -0.06    +0.209    37.165
ATOM     39  C   UNL d   1      22.728  -6.182   0.965 -0.13 +0.01    +0.052    37.165
ATOM     40  C   UNL d   1      24.185  -5.731   1.156 -0.11 +0.03    +0.115    37.165
ATOM     41  C   UNL d   1      25.048  -6.713   1.920 -0.10 +0.07    +0.139    37.165
ATOM     42  O   UNL d   1      25.156  -7.860   1.510 -0.04 -0.40    -0.650    37.165
ATOM     43  O   UNL d   1      25.774  -6.333   2.995 -0.01 -0.47    -0.776    37.165
ATOM     44  H   UNL d   1      26.365  -5.569   2.979 +0.01 +0.06    +0.167    37.165
ATOM     45  C   UNL d   1      15.119   1.701   3.429 -0.20 +0.00    +0.004    37.165
ATOM     46  C   UNL d   1      13.970   1.830   2.772 -0.30 +0.00    +0.012    37.165
ATOM     47  C   UNL d   1      18.827  -0.626  -3.046 -0.28 -0.00    +0.004    37.165
ATOM     48  C   UNL d   1      19.892  -0.036  -3.594 -0.18 -0.00    +0.012    37.165
TER
ENDMDL
MODEL        3
USER    Run = 3
USER    Cluster Rank = 15
USER    Number of conformations in this cluster = 3
USER  
USER    RMSD from reference structure       = 40.190 A
USER  
USER    Estimated Free Energy of Binding    =   -4.69 kcal/mol  [=(1)+(2)+(3)-(4)]
USER    Estimated Inhibition Constant, Ki   =  363.34 uM (micromolar)  [Temperature = 298.15 K]
USER    
USER    (1) Final Intermolecular Energy     =   -8.27 kcal/mol
USER        vdW + Hbond + desolv Energy     =   -6.30 kcal/mol
USER        Electrostatic Energy            =   -1.98 kcal/mol
USER    (2) Final Total Internal Energy     =   -2.06 kcal/mol
USER    (3) Torsional Free Energy           =   +3.58 kcal/mol
USER    (4) Unbound System's Energy  [=(2)] =   -2.06 kcal/mol
USER    
USER    
USER  
USER    DPF = D:/Protein_go_brrr/autodock/final/mut_D99N/heme_Co/dock.dpf
USER    NEWDPF move	heme_Co_opt.pdbqt
USER    NEWDPF about	8.781000 34.984000 -0.736000
USER    NEWDPF tran0	-13.336148 1.047743 12.715734
USER    NEWDPF axisangle0	0.493417 -0.603686 0.626181 -137.520893
USER    NEWDPF quaternion0	0.459901 -0.562680 0.583647 -0.362268
USER    NEWDPF dihe0	22.83 106.49 -148.83 99.64 134.87 81.04 173.49 112.70 68.68 145.62 -166.67 174.17 
USER  
USER                              x       y       z    vdW   Elec        q     RMS 
ATOM      1  C   UNL d   1     -13.307   2.020  10.774 -0.21 +0.02    +0.064    40.190
ATOM      2  C   UNL d   1     -10.719  -1.519  12.614 -0.33 +0.02    +0.064    40.190
ATOM      3  C   UNL d   1     -12.866  -0.942  16.843 -0.09 +0.03    +0.064    40.190
ATOM      4  C   UNL d   1     -15.792   2.415  14.884 -0.08 +0.05    +0.064    40.190
ATOM      5  C   UNL d   1     -12.416   1.035  10.976 -0.23 +0.02    +0.066    40.190
ATOM      6  C   UNL d   1     -11.624   0.518   9.933 -0.29 -0.01    -0.021    40.190
ATOM      7  C   UNL d   1     -10.892  -0.524  10.467 -0.37 -0.01    -0.025    40.190
ATOM      8  C   UNL d   1     -11.256  -0.587  11.816 -0.27 +0.02    +0.066    40.190
ATOM      9  C   UNL d   1      -9.885  -1.434   9.747 -0.37 +0.01    +0.051    40.190
ATOM     10  C   UNL d   1     -11.012  -1.644  14.020 -0.22 +0.02    +0.066    40.190
ATOM     11  C   UNL d   1     -10.379  -2.508  14.941 -0.25 -0.01    -0.021    40.190
ATOM     12  C   UNL d   1     -11.022  -2.316  16.166 -0.17 +0.00    +0.000    40.190
ATOM     13  C   UNL d   1     -11.988  -1.343  15.907 -0.13 +0.03    +0.070    40.190
ATOM     14  C   UNL d   1      -9.179  -3.378  14.667 -0.26 +0.01    +0.052    40.190
ATOM     15  C   UNL d   1     -13.956   0.008  16.734 -0.06 +0.04    +0.066    40.190
ATOM     16  C   UNL d   1     -14.918   0.271  17.699 -0.04 -0.01    -0.021    40.190
ATOM     17  C   UNL d   1     -15.766   1.237  17.138 -0.05 +0.00    +0.000    40.190
ATOM     18  C   UNL d   1     -15.242   1.500  15.877 -0.05 +0.05    +0.070    40.190
ATOM     19  C   UNL d   1     -14.994  -0.379  19.062 -0.01 +0.01    +0.052    40.190
ATOM     20  C   UNL d   1     -15.350   2.623  13.621 -0.12 +0.05    +0.066    40.190
ATOM     21  C   UNL d   1     -15.985   3.503  12.747 -0.12 -0.01    -0.025    40.190
ATOM     22  C   UNL d   1     -15.273   3.432  11.563 -0.15 -0.01    -0.021    40.190
ATOM     23  C   UNL d   1     -14.238   2.496  11.772 -0.20 +0.03    +0.066    40.190
ATOM     24  C   UNL d   1     -17.222   4.356  13.019 -0.06 +0.02    +0.051    40.190
ATOM     25  N   UNL d   1     -12.194   0.371  12.161 -0.16 -0.11    -0.248    40.190
ATOM     26  N   UNL d   1     -11.944  -0.898  14.623 -0.10 -0.11    -0.248    40.190
ATOM     27  N   UNL d   1     -14.183   0.729  15.659 -0.03 -0.20    -0.248    40.190
ATOM     28  N   UNL d   1     -14.283   2.002  13.015 -0.12 -0.18    -0.248    40.190
ATOM     29 FE   UNL d   1     -13.249   0.563  14.012 -0.05 +0.00    +0.000    40.190
ATOM     30  C   UNL d   1     -11.641   0.960   8.473 -0.28 +0.02    +0.052    40.190
ATOM     31  C   UNL d   1     -12.783   0.280   7.719 -0.15 +0.05    +0.115    40.190
ATOM     32  C   UNL d   1     -12.284  -0.689   6.668 -0.19 +0.13    +0.139    40.190
ATOM     33  O   UNL d   1     -11.368  -1.450   6.939 -0.55 -0.58    -0.650    40.190
ATOM     34  O   UNL d   1     -12.854  -0.775   5.444 -0.21 -1.41    -0.776    40.190
ATOM     35  H   UNL d   1     -13.415  -0.090   5.055 +0.03 +0.22    +0.167    40.190
ATOM     36  C   UNL d   1     -14.556  -0.909  13.291 -0.04 +0.06    +0.190    40.190
ATOM     37  O   UNL d   1     -15.594  -1.127  12.380 +0.00 -0.09    -0.399    40.190
ATOM     38  H   UNL d   1     -15.809  -0.224  12.014 +0.02 +0.05    +0.209    40.190
ATOM     39  C   UNL d   1     -15.614   4.176  10.286 -0.09 +0.02    +0.052    40.190
ATOM     40  C   UNL d   1     -16.663   3.403   9.471 -0.03 +0.02    +0.115    40.190
ATOM     41  C   UNL d   1     -16.461   1.903   9.455 -0.01 +0.03    +0.139    40.190
ATOM     42  O   UNL d   1     -16.090   1.359   8.424 +0.02 -0.15    -0.650    40.190
ATOM     43  O   UNL d   1     -16.596   1.156  10.574 +0.03 -0.17    -0.776    40.190
ATOM     44  H   UNL d   1     -16.024   0.401  10.766 +0.01 +0.04    +0.167    40.190
ATOM     45  C   UNL d   1     -10.824  -2.922  17.549 -0.12 +0.00    +0.004    40.190
ATOM     46  C   UNL d   1     -10.071  -2.521  18.571 -0.14 +0.00    +0.012    40.190
ATOM     47  C   UNL d   1     -17.010   1.852  17.690 -0.01 +0.00    +0.004    40.190
ATOM     48  C   UNL d   1     -17.109   3.140  18.028 -0.01 +0.00    +0.012    40.190
TER
ENDMDL
MODEL        6
USER    Run = 6
USER    Cluster Rank = 16
USER    Number of conformations in this cluster = 1
USER  
USER    RMSD from reference structure       = 37.508 A
USER  
USER    Estimated Free Energy of Binding    =   -4.63 kcal/mol  [=(1)+(2)+(3)-(4)]
USER    Estimated Inhibition Constant, Ki   =  401.30 uM (micromolar)  [Temperature = 298.15 K]
USER    
USER    (1) Final Intermolecular Energy     =   -8.21 kcal/mol
USER        vdW + Hbond + desolv Energy     =   -6.20 kcal/mol
USER        Electrostatic Energy            =   -2.01 kcal/mol
USER    (2) Final Total Internal Energy     =   -2.30 kcal/mol
USER    (3) Torsional Free Energy           =   +3.58 kcal/mol
USER    (4) Unbound System's Energy  [=(2)] =   -2.30 kcal/mol
USER    
USER    
USER  
USER    DPF = D:/Protein_go_brrr/autodock/final/mut_D99N/heme_Co/dock.dpf
USER    NEWDPF move	heme_Co_opt.pdbqt
USER    NEWDPF about	8.781000 34.984000 -0.736000
USER    NEWDPF tran0	5.915287 0.049673 -17.082730
USER    NEWDPF axisangle0	-0.994041 0.107144 0.020048 -64.097658
USER    NEWDPF quaternion0	-0.527480 0.056855 0.010638 -0.847596
USER    NEWDPF dihe0	-47.84 96.35 118.43 90.92 136.65 117.12 -145.44 -63.85 -14.20 82.75 -157.59 -178.98 
USER  
USER                              x       y       z    vdW   Elec        q     RMS 
ATOM      1  C   UNL d   1       3.882  -0.409 -17.692 -0.16 +0.02    +0.064    37.508
ATOM      2  C   UNL d   1       5.658   1.703 -13.819 -0.27 +0.01    +0.064    37.508
ATOM      3  C   UNL d   1      10.104   0.798 -15.319 -0.10 +0.02    +0.064    37.508
ATOM      4  C   UNL d   1       8.321  -1.019 -19.464 -0.10 +0.01    +0.064    37.508
ATOM      5  C   UNL d   1       4.040   0.202 -16.506 -0.21 +0.02    +0.066    37.508
ATOM      6  C   UNL d   1       2.947   0.698 -15.769 -0.27 -0.01    -0.021    37.508
ATOM      7  C   UNL d   1       3.470   1.330 -14.658 -0.29 -0.01    -0.025    37.508
ATOM      8  C   UNL d   1       4.857   1.179 -14.756 -0.21 +0.01    +0.066    37.508
ATOM      9  C   UNL d   1       2.705   2.054 -13.539 -0.25 +0.01    +0.051    37.508
ATOM     10  C   UNL d   1       7.094   1.576 -13.822 -0.21 +0.01    +0.066    37.508
ATOM     11  C   UNL d   1       7.979   1.981 -12.799 -0.28 -0.00    -0.021    37.508
ATOM     12  C   UNL d   1       9.268   1.702 -13.261 -0.22 +0.00    +0.000    37.508
ATOM     13  C   UNL d   1       9.075   1.137 -14.522 -0.08 +0.02    +0.070    37.508
ATOM     14  C   UNL d   1       7.592   2.507 -11.441 -0.34 +0.01    +0.052    37.508
ATOM     15  C   UNL d   1      10.086   0.256 -16.663 -0.07 +0.03    +0.066    37.508
ATOM     16  C   UNL d   1      11.186   0.063 -17.487 -0.06 -0.01    -0.021    37.508
ATOM     17  C   UNL d   1      10.676  -0.459 -18.685 -0.06 +0.00    +0.000    37.508
ATOM     18  C   UNL d   1       9.303  -0.560 -18.490 -0.08 +0.02    +0.070    37.508
ATOM     19  C   UNL d   1      12.620   0.371 -17.121 -0.04 +0.01    +0.052    37.508
ATOM     20  C   UNL d   1       6.974  -1.045 -19.328 -0.13 +0.02    +0.066    37.508
ATOM     21  C   UNL d   1       6.131  -1.475 -20.350 -0.12 -0.01    -0.025    37.508
ATOM     22  C   UNL d   1       4.846  -1.338 -19.857 -0.08 -0.01    -0.021    37.508
ATOM     23  C   UNL d   1       4.970  -0.815 -18.553 -0.19 +0.02    +0.066    37.508
ATOM     24  C   UNL d   1       6.529  -1.974 -21.737 -0.14 +0.01    +0.051    37.508
ATOM     25  N   UNL d   1       5.238   0.479 -15.888 -0.10 -0.07    -0.248    37.508
ATOM     26  N   UNL d   1       7.758   1.010 -14.836 -0.10 -0.07    -0.248    37.508
ATOM     27  N   UNL d   1       8.984  -0.097 -17.286 -0.07 -0.09    -0.248    37.508
ATOM     28  N   UNL d   1       6.256  -0.634 -18.229 -0.11 -0.07    -0.248    37.508
ATOM     29 FE   UNL d   1       7.221   0.172 -16.631 -0.04 +0.00    +0.000    37.508
ATOM     30  C   UNL d   1       1.476   0.633 -16.168 -0.15 +0.03    +0.052    37.508
ATOM     31  C   UNL d   1       1.181   1.623 -17.294 -0.16 +0.08    +0.115    37.508
ATOM     32  C   UNL d   1      -0.134   1.336 -17.985 -0.11 +0.18    +0.139    37.508
ATOM     33  O   UNL d   1      -1.171   1.782 -17.515 -0.01 -0.87    -0.650    37.508
ATOM     34  O   UNL d   1      -0.199   0.636 -19.142 -0.55 -1.18    -0.776    37.508
ATOM     35  H   UNL d   1       0.320   0.842 -19.932 +0.02 +0.14    +0.167    37.508
ATOM     36  C   UNL d   1       7.078   2.084 -17.479 -0.02 +0.03    +0.190    37.508
ATOM     37  O   UNL d   1       6.189   2.957 -18.114 +0.00 -0.06    -0.399    37.508
ATOM     38  H   UNL d   1       5.432   2.380 -18.414 +0.02 +0.04    +0.209    37.508
ATOM     39  C   UNL d   1       3.573  -1.633 -20.627 -0.21 +0.01    +0.052    37.508
ATOM     40  C   UNL d   1       3.255  -0.492 -21.608 -0.07 +0.03    +0.115    37.508
ATOM     41  C   UNL d   1       2.155   0.441 -21.146 -0.05 +0.04    +0.139    37.508
ATOM     42  O   UNL d   1       2.390   1.248 -20.258 +0.03 -0.21    -0.650    37.508
ATOM     43  O   UNL d   1       0.946   0.467 -21.748 +0.04 -0.30    -0.776    37.508
ATOM     44  H   UNL d   1       0.121   0.339 -21.262 +0.03 +0.10    +0.167    37.508
ATOM     45  C   UNL d   1      10.652   1.885 -12.652 -0.22 +0.00    +0.004    37.508
ATOM     46  C   UNL d   1      11.328   1.124 -11.795 -0.33 +0.00    +0.012    37.508
ATOM     47  C   UNL d   1      11.385  -0.800 -19.954 -0.02 +0.00    +0.004    37.508
ATOM     48  C   UNL d   1      11.483  -2.042 -20.433 -0.04 +0.00    +0.012    37.508
TER
ENDMDL
MODEL       99
USER    Run = 99
USER    Cluster Rank = 17
USER    Number of conformations in this cluster = 1
USER  
USER    RMSD from reference structure       = 47.741 A
USER  
USER    Estimated Free Energy of Binding    =   -4.55 kcal/mol  [=(1)+(2)+(3)-(4)]
USER    Estimated Inhibition Constant, Ki   =  462.53 uM (micromolar)  [Temperature = 298.15 K]
USER    
USER    (1) Final Intermolecular Energy     =   -8.13 kcal/mol
USER        vdW + Hbond + desolv Energy     =   -6.93 kcal/mol
USER        Electrostatic Energy            =   -1.20 kcal/mol
USER    (2) Final Total Internal Energy     =   -2.55 kcal/mol
USER    (3) Torsional Free Energy           =   +3.58 kcal/mol
USER    (4) Unbound System's Energy  [=(2)] =   -2.55 kcal/mol
USER    
USER    
USER  
USER    DPF = D:/Protein_go_brrr/autodock/final/mut_D99N/heme_Co/dock.dpf
USER    NEWDPF move	heme_Co_opt.pdbqt
USER    NEWDPF about	8.781000 34.984000 -0.736000
USER    NEWDPF tran0	-3.740961 -12.980015 1.840146
USER    NEWDPF axisangle0	-0.975072 0.051588 0.215807 136.171475
USER    NEWDPF quaternion0	-0.904617 0.047860 0.200214 0.373219
USER    NEWDPF dihe0	-95.74 113.53 53.94 125.89 -103.43 124.26 53.73 121.36 -117.53 18.87 -176.02 -180.00 
USER  
USER                              x       y       z    vdW   Elec        q     RMS 
ATOM      1  C   UNL d   1      -5.142 -12.323   3.364 -0.10 -0.00    +0.064    47.741
ATOM      2  C   UNL d   1      -5.644 -13.164  -1.290 -0.13 -0.05    +0.064    47.741
ATOM      3  C   UNL d   1      -0.950 -13.964  -1.689 -0.21 -0.01    +0.064    47.741
ATOM      4  C   UNL d   1      -0.472 -13.489   3.129 -0.12 -0.01    +0.064    47.741
ATOM      5  C   UNL d   1      -5.618 -12.459   2.115 -0.09 -0.01    +0.066    47.741
ATOM      6  C   UNL d   1      -6.994 -12.367   1.825 -0.07 +0.00    -0.021    47.741
ATOM      7  C   UNL d   1      -7.136 -12.635   0.478 -0.11 +0.01    -0.025    47.741
ATOM      8  C   UNL d   1      -5.841 -12.861  -0.000 -0.14 -0.03    +0.066    47.741
ATOM      9  C   UNL d   1      -8.434 -12.679  -0.342 -0.10 -0.04    +0.051    47.741
ATOM     10  C   UNL d   1      -4.346 -13.388  -1.877 -0.20 -0.03    +0.066    47.741
ATOM     11  C   UNL d   1      -4.061 -13.570  -3.248 -0.27 +0.01    -0.021    47.741
ATOM     12  C   UNL d   1      -2.684 -13.797  -3.336 -0.25 -0.00    +0.000    47.741
ATOM     13  C   UNL d   1      -2.232 -13.724  -2.018 -0.13 -0.01    +0.070    47.741
ATOM     14  C   UNL d   1      -5.037 -13.437  -4.388 -0.34 -0.03    +0.052    47.741
ATOM     15  C   UNL d   1      -0.325 -13.983  -0.381 -0.21 -0.01    +0.066    47.741
ATOM     16  C   UNL d   1       0.974 -14.381  -0.096 -0.29 +0.00    -0.021    47.741
ATOM     17  C   UNL d   1       1.116 -14.248   1.293 -0.34 -0.00    +0.000    47.741
ATOM     18  C   UNL d   1      -0.107 -13.762   1.744 -0.21 -0.01    +0.070    47.741
ATOM     19  C   UNL d   1       1.990 -14.854  -1.112 -0.32 -0.01    +0.052    47.741
ATOM     20  C   UNL d   1      -1.681 -13.099   3.601 +0.10 -0.00    +0.066    47.741
ATOM     21  C   UNL d   1      -1.920 -12.903   4.959 -0.12 +0.00    -0.025    47.741
ATOM     22  C   UNL d   1      -3.251 -12.538   5.054 -0.19 +0.00    -0.021    47.741
ATOM     23  C   UNL d   1      -3.764 -12.541   3.740 -0.14 -0.00    +0.066    47.741
ATOM     24  C   UNL d   1      -0.936 -13.075   6.113 -0.30 -0.01    +0.051    47.741
ATOM     25  N   UNL d   1      -4.880 -12.753   0.991 -0.08 +0.05    -0.248    47.741
ATOM     26  N   UNL d   1      -3.228 -13.421  -1.144 -0.09 +0.04    -0.248    47.741
ATOM     27  N   UNL d   1      -0.950 -13.645   0.724 -0.14 +0.02    -0.248    47.741
ATOM     28  N   UNL d   1      -2.817 -12.882   2.857 -0.09 +0.01    -0.248    47.741
ATOM     29 FE   UNL d   1      -2.798 -13.224   0.853 -0.04 -0.00    +0.000    47.741
ATOM     30  C   UNL d   1      -8.119 -12.115   2.824 -0.04 -0.01    +0.052    47.741
ATOM     31  C   UNL d   1      -8.679 -13.438   3.347 -0.00 -0.01    +0.115    47.741
ATOM     32  C   UNL d   1      -7.633 -14.266   4.061 -0.00 -0.00    +0.139    47.741
ATOM     33  O   UNL d   1      -6.793 -14.867   3.408 +0.01 +0.03    -0.650    47.741
ATOM     34  O   UNL d   1      -7.565 -14.326   5.412 +0.02 -0.05    -0.776    47.741
ATOM     35  H   UNL d   1      -6.942 -13.816   5.948 +0.02 +0.02    +0.167    47.741
ATOM     36  C   UNL d   1      -3.345 -15.224   1.166 -0.02 -0.02    +0.190    47.741
ATOM     37  O   UNL d   1      -4.295 -16.033   1.797 +0.00 +0.03    -0.399    47.741
ATOM     38  H   UNL d   1      -4.920 -15.396   2.243 +0.01 -0.02    +0.209    47.741
ATOM     39  C   UNL d   1      -3.998 -12.267   6.346 -0.22 -0.00    +0.052    47.741
ATOM     40  C   UNL d   1      -4.393 -13.586   7.032 -0.12 +0.02    +0.115    47.741
ATOM     41  C   UNL d   1      -5.405 -13.431   8.148 +0.18 +0.10    +0.139    47.741
ATOM     42  O   UNL d   1      -5.020 -13.438   9.309 -0.41 -0.70    -0.650    47.741
ATOM     43  O   UNL d   1      -6.712 -13.199   7.895 -0.19 -0.55    -0.776    47.741
ATOM     44  H   UNL d   1      -7.260 -13.812   7.388 +0.01 +0.05    +0.167    47.741
ATOM     45  C   UNL d   1      -1.748 -14.055  -4.509 -0.30 -0.00    +0.004    47.741
ATOM     46  C   UNL d   1      -0.716 -13.349  -4.964 -0.45 -0.00    +0.012    47.741
ATOM     47  C   UNL d   1       2.275 -14.589   2.170 -0.39 -0.00    +0.004    47.741
ATOM     48  C   UNL d   1       2.186 -15.401   3.227 -0.29 -0.00    +0.012    47.741
TER
ENDMDL
MODEL        8
USER    Run = 8
USER    Cluster Rank = 18
USER    Number of conformations in this cluster = 2
USER  
USER    RMSD from reference structure       = 43.072 A
USER  
USER    Estimated Free Energy of Binding    =   -4.53 kcal/mol  [=(1)+(2)+(3)-(4)]
USER    Estimated Inhibition Constant, Ki   =  479.52 uM (micromolar)  [Temperature = 298.15 K]
USER    
USER    (1) Final Intermolecular Energy     =   -8.11 kcal/mol
USER        vdW + Hbond + desolv Energy     =   -7.03 kcal/mol
USER        Electrostatic Energy            =   -1.08 kcal/mol
USER    (2) Final Total Internal Energy     =   -2.15 kcal/mol
USER    (3) Torsional Free Energy           =   +3.58 kcal/mol
USER    (4) Unbound System's Energy  [=(2)] =   -2.15 kcal/mol
USER    
USER    
USER  
USER    DPF = D:/Protein_go_brrr/autodock/final/mut_D99N/heme_Co/dock.dpf
USER    NEWDPF move	heme_Co_opt.pdbqt
USER    NEWDPF about	8.781000 34.984000 -0.736000
USER    NEWDPF tran0	15.489924 -9.078829 7.811245
USER    NEWDPF axisangle0	0.166628 -0.065039 -0.983873 -132.180577
USER    NEWDPF quaternion0	0.152329 -0.059457 -0.899442 -0.405297
USER    NEWDPF dihe0	-162.22 123.76 59.26 117.09 57.80 126.61 24.92 -179.08 -169.10 -54.38 -176.38 167.31 
USER  
USER                              x       y       z    vdW   Elec        q     RMS 
ATOM      1  C   UNL d   1      17.328  -7.950   7.559 -0.20 -0.01    +0.064    43.072
ATOM      2  C   UNL d   1      13.446  -7.186  10.197 -0.23 -0.02    +0.064    43.072
ATOM      3  C   UNL d   1      11.332 -11.009   8.262 -0.18 -0.02    +0.064    43.072
ATOM      4  C   UNL d   1      15.427 -12.033   5.844 -0.10 -0.05    +0.064    43.072
ATOM      5  C   UNL d   1      16.409  -7.440   8.395 -0.19 -0.01    +0.066    43.072
ATOM      6  C   UNL d   1      16.683  -6.330   9.218 -0.13 +0.00    -0.021    43.072
ATOM      7  C   UNL d   1      15.561  -6.127   9.998 -0.16 +0.01    -0.025    43.072
ATOM      8  C   UNL d   1      14.646  -7.110   9.606 -0.20 -0.02    +0.066    43.072
ATOM      9  C   UNL d   1      15.344  -5.053  11.075 -0.16 -0.01    +0.051    43.072
ATOM     10  C   UNL d   1      12.431  -8.145   9.842 -0.22 -0.03    +0.066    43.072
ATOM     11  C   UNL d   1      11.105  -8.188  10.324 -0.22 +0.01    -0.021    43.072
ATOM     12  C   UNL d   1      10.510  -9.310   9.741 -0.20 -0.00    +0.000    43.072
ATOM     13  C   UNL d   1      11.510  -9.860   8.938 -0.19 -0.03    +0.070    43.072
ATOM     14  C   UNL d   1      10.443  -7.162  11.207 -0.21 -0.04    +0.052    43.072
ATOM     15  C   UNL d   1      12.268 -11.741   7.432 -0.18 -0.02    +0.066    43.072
ATOM     16  C   UNL d   1      12.068 -12.998   6.878 -0.16 +0.01    -0.021    43.072
ATOM     17  C   UNL d   1      13.247 -13.299   6.182 -0.19 -0.00    +0.000    43.072
ATOM     18  C   UNL d   1      14.070 -12.191   6.352 -0.21 -0.04    +0.070    43.072
ATOM     19  C   UNL d   1      10.815 -13.832   7.027 -0.16 -0.01    +0.052    43.072
ATOM     20  C   UNL d   1      16.277 -11.003   6.069 -0.25 -0.03    +0.066    43.072
ATOM     21  C   UNL d   1      17.572 -10.982   5.555 -0.29 +0.01    -0.025    43.072
ATOM     22  C   UNL d   1      18.134  -9.803   6.009 -0.29 -0.00    -0.021    43.072
ATOM     23  C   UNL d   1      17.151  -9.164   6.794 -0.24 -0.01    +0.066    43.072
ATOM     24  C   UNL d   1      18.248 -12.042   4.690 -0.27 -0.01    +0.051    43.072
ATOM     25  N   UNL d   1      15.142  -7.933   8.610 -0.11 +0.09    -0.248    43.072
ATOM     26  N   UNL d   1      12.653  -9.123   8.956 -0.07 +0.12    -0.248    43.072
ATOM     27  N   UNL d   1      13.467 -11.296   7.127 -0.13 +0.11    -0.248    43.072
ATOM     28  N   UNL d   1      16.026  -9.888   6.834 -0.18 +0.08    -0.248    43.072
ATOM     29 FE   UNL d   1      14.258  -9.715   7.822 -0.05 -0.00    +0.000    43.072
ATOM     30  C   UNL d   1      17.997  -5.561   9.301 -0.07 -0.00    +0.052    43.072
ATOM     31  C   UNL d   1      18.889  -6.137  10.400 -0.01 -0.00    +0.115    43.072
ATOM     32  C   UNL d   1      18.346  -7.433  10.963 -0.00 -0.00    +0.139    43.072
ATOM     33  O   UNL d   1      17.812  -7.434  12.061 +0.01 +0.03    -0.650    43.072
ATOM     34  O   UNL d   1      18.390  -8.593  10.266 +0.03 +0.01    -0.776    43.072
ATOM     35  H   UNL d   1      17.895  -9.389  10.502 +0.01 -0.01    +0.167    43.072
ATOM     36  C   UNL d   1      15.060 -10.713   9.482 -0.04 -0.04    +0.190    43.072
ATOM     37  O   UNL d   1      16.114 -10.677  10.402 +0.00 +0.05    -0.399    43.072
ATOM     38  H   UNL d   1      16.550  -9.791  10.257 +0.02 -0.02    +0.209    43.072
ATOM     39  C   UNL d   1      19.561  -9.353   5.753 -0.20 +0.02    +0.052    43.072
ATOM     40  C   UNL d   1      20.492  -9.834   6.878 -0.15 +0.04    +0.115    43.072
ATOM     41  C   UNL d   1      21.615 -10.738   6.416 -0.03 +0.10    +0.139    43.072
ATOM     42  O   UNL d   1      21.386 -11.594   5.573 -0.03 -0.37    -0.650    43.072
ATOM     43  O   UNL d   1      22.886 -10.567   6.844 -0.21 -1.09    -0.776    43.072
ATOM     44  H   UNL d   1      23.145 -10.696   7.765 +0.00 +0.15    +0.167    43.072
ATOM     45  C   UNL d   1       9.114  -9.912   9.834 -0.26 -0.00    +0.004    43.072
ATOM     46  C   UNL d   1       8.128  -9.954   8.943 -0.34 -0.01    +0.012    43.072
ATOM     47  C   UNL d   1      13.630 -14.541   5.445 -0.16 -0.00    +0.004    43.072
ATOM     48  C   UNL d   1      12.766 -15.275   4.740 -0.26 -0.00    +0.012    43.072
TER
ENDMDL
MODEL       87
USER    Run = 87
USER    Cluster Rank = 19
USER    Number of conformations in this cluster = 1
USER  
USER    RMSD from reference structure       = 43.715 A
USER  
USER    Estimated Free Energy of Binding    =   -4.49 kcal/mol  [=(1)+(2)+(3)-(4)]
USER    Estimated Inhibition Constant, Ki   =  510.60 uM (micromolar)  [Temperature = 298.15 K]
USER    
USER    (1) Final Intermolecular Energy     =   -8.07 kcal/mol
USER        vdW + Hbond + desolv Energy     =   -8.09 kcal/mol
USER        Electrostatic Energy            =   +0.02 kcal/mol
USER    (2) Final Total Internal Energy     =   -2.58 kcal/mol
USER    (3) Torsional Free Energy           =   +3.58 kcal/mol
USER    (4) Unbound System's Energy  [=(2)] =   -2.58 kcal/mol
USER    
USER    
USER  
USER    DPF = D:/Protein_go_brrr/autodock/final/mut_D99N/heme_Co/dock.dpf
USER    NEWDPF move	heme_Co_opt.pdbqt
USER    NEWDPF about	8.781000 34.984000 -0.736000
USER    NEWDPF tran0	14.065574 -10.305086 7.081319
USER    NEWDPF axisangle0	0.377790 0.141945 0.914946 -164.596777
USER    NEWDPF quaternion0	0.374382 0.140664 0.906693 -0.134014
USER    NEWDPF dihe0	-40.45 134.84 -61.75 -99.87 163.22 119.80 49.01 -179.97 -134.75 41.54 -175.93 -179.98 
USER  
USER                              x       y       z    vdW   Elec        q     RMS 
ATOM      1  C   UNL d   1      14.711 -11.572   5.440 -0.24 -0.05    +0.064    43.715
ATOM      2  C   UNL d   1      16.893  -8.096   7.842 -0.22 -0.01    +0.064    43.715
ATOM      3  C   UNL d   1      12.877  -7.203  10.272 -0.23 -0.02    +0.064    43.715
ATOM      4  C   UNL d   1      10.739 -11.000   8.108 -0.21 -0.02    +0.064    43.715
ATOM      5  C   UNL d   1      15.591 -10.664   5.892 -0.30 -0.03    +0.066    43.715
ATOM      6  C   UNL d   1      16.933 -10.647   5.464 -0.34 +0.01    -0.021    43.715
ATOM      7  C   UNL d   1      17.567  -9.651   6.181 -0.29 +0.00    -0.025    43.715
ATOM      8  C   UNL d   1      16.583  -9.093   7.003 -0.25 -0.01    +0.066    43.715
ATOM      9  C   UNL d   1      19.043  -9.230   6.106 -0.28 +0.01    +0.051    43.715
ATOM     10  C   UNL d   1      15.941  -7.443   8.706 -0.18 -0.02    +0.066    43.715
ATOM     11  C   UNL d   1      16.172  -6.302   9.505 -0.14 +0.00    -0.021    43.715
ATOM     12  C   UNL d   1      14.983  -6.061  10.199 -0.19 -0.00    +0.000    43.715
ATOM     13  C   UNL d   1      14.114  -7.062   9.765 -0.21 -0.02    +0.070    43.715
ATOM     14  C   UNL d   1      17.420  -5.457   9.515 -0.09 -0.01    +0.052    43.715
ATOM     15  C   UNL d   1      11.872  -8.206   9.978 -0.23 -0.03    +0.066    43.715
ATOM     16  C   UNL d   1      10.666  -8.382  10.643 -0.18 +0.01    -0.021    43.715
ATOM     17  C   UNL d   1      10.047  -9.477  10.024 -0.13 -0.00    +0.000    43.715
ATOM     18  C   UNL d   1      10.919  -9.874   9.016 -0.21 -0.03    +0.070    43.715
ATOM     19  C   UNL d   1      10.169  -7.538  11.796 -0.17 -0.05    +0.052    43.715
ATOM     20  C   UNL d   1      11.611 -11.457   7.178 -0.24 -0.02    +0.066    43.715
ATOM     21  C   UNL d   1      11.340 -12.572   6.389 -0.23 +0.01    -0.025    43.715
ATOM     22  C   UNL d   1      12.455 -12.744   5.589 -0.27 +0.01    -0.021    43.715
ATOM     23  C   UNL d   1      13.364 -11.724   5.942 -0.28 -0.04    +0.066    43.715
ATOM     24  C   UNL d   1      10.088 -13.444   6.409 -0.28 -0.01    +0.051    43.715
ATOM     25  N   UNL d   1      15.347  -9.697   6.841 -0.14 +0.11    -0.248    43.715
ATOM     26  N   UNL d   1      14.677  -7.863   8.821 -0.10 +0.10    -0.248    43.715
ATOM     27  N   UNL d   1      12.009  -9.114   9.038 -0.15 +0.11    -0.248    43.715
ATOM     28  N   UNL d   1      12.858 -10.944   6.905 -0.01 +0.12    -0.248    43.715
ATOM     29 FE   UNL d   1      13.577  -9.390   8.002 -0.02 -0.00    +0.000    43.715
ATOM     30  C   UNL d   1      17.583 -11.604   4.470 -0.22 -0.02    +0.052    43.715
ATOM     31  C   UNL d   1      18.201 -12.797   5.199 -0.14 -0.03    +0.115    43.715
ATOM     32  C   UNL d   1      17.297 -13.342   6.283 -0.07 -0.05    +0.139    43.715
ATOM     33  O   UNL d   1      17.258 -12.785   7.370 +0.04 +0.12    -0.650    43.715
ATOM     34  O   UNL d   1      16.486 -14.406   6.073 +0.03 +0.36    -0.776    43.715
ATOM     35  H   UNL d   1      15.939 -14.526   5.285 -0.15 -0.16    +0.167    43.715
ATOM     36  C   UNL d   1      14.397 -10.724   9.397 -0.05 -0.05    +0.190    43.715
ATOM     37  O   UNL d   1      15.178 -11.879   9.508 +0.00 +0.07    -0.399    43.715
ATOM     38  H   UNL d   1      15.695 -11.923   8.655 +0.03 -0.04    +0.209    43.715
ATOM     39  C   UNL d   1      12.657 -13.867   4.590 -0.18 -0.03    +0.052    43.715
ATOM     40  C   UNL d   1      13.069 -15.164   5.307 -0.18 -0.03    +0.115    43.715
ATOM     41  C   UNL d   1      14.062 -16.013   4.541 -0.13 -0.03    +0.139    43.715
ATOM     42  O   UNL d   1      13.919 -16.160   3.336 -0.50 -0.32    -0.650    43.715
ATOM     43  O   UNL d   1      15.152 -16.543   5.138 +0.01 +0.16    -0.776    43.715
ATOM     44  H   UNL d   1      15.797 -16.004   5.615 +0.01 -0.05    +0.167    43.715
ATOM     45  C   UNL d   1      14.565  -4.995  11.203 -0.19 -0.00    +0.004    43.715
ATOM     46  C   UNL d   1      14.346  -5.077  12.513 -0.10 -0.00    +0.012    43.715
ATOM     47  C   UNL d   1       8.762 -10.160  10.358 -0.19 -0.00    +0.004    43.715
ATOM     48  C   UNL d   1       7.913 -10.625   9.438 -0.29 -0.01    +0.012    43.715
TER
ENDMDL
MODEL       38
USER    Run = 38
USER    Cluster Rank = 20
USER    Number of conformations in this cluster = 1
USER  
USER    RMSD from reference structure       = 35.531 A
USER  
USER    Estimated Free Energy of Binding    =   -4.38 kcal/mol  [=(1)+(2)+(3)-(4)]
USER    Estimated Inhibition Constant, Ki   =  620.58 uM (micromolar)  [Temperature = 298.15 K]
USER    
USER    (1) Final Intermolecular Energy     =   -7.95 kcal/mol
USER        vdW + Hbond + desolv Energy     =   -6.85 kcal/mol
USER        Electrostatic Energy            =   -1.10 kcal/mol
USER    (2) Final Total Internal Energy     =   -2.01 kcal/mol
USER    (3) Torsional Free Energy           =   +3.58 kcal/mol
USER    (4) Unbound System's Energy  [=(2)] =   -2.01 kcal/mol
USER    
USER    
USER  
USER    DPF = D:/Protein_go_brrr/autodock/final/mut_D99N/heme_Co/dock.dpf
USER    NEWDPF move	heme_Co_opt.pdbqt
USER    NEWDPF about	8.781000 34.984000 -0.736000
USER    NEWDPF tran0	-14.482514 5.251273 7.840623
USER    NEWDPF axisangle0	-0.913551 -0.013941 0.406485 -157.188245
USER    NEWDPF quaternion0	-0.895509 -0.013665 0.398457 -0.197758
USER    NEWDPF dihe0	-57.93 109.92 -32.72 137.26 4.84 131.53 -5.12 113.91 -72.97 -97.34 -155.55 -14.55 
USER  
USER                              x       y       z    vdW   Elec        q     RMS 
ATOM      1  C   UNL d   1     -15.258   4.147   9.543 +0.02 +0.02    +0.064    35.531
ATOM      2  C   UNL d   1     -16.730   8.110   7.365 -0.04 +0.00    +0.064    35.531
ATOM      3  C   UNL d   1     -12.880   8.032   4.538 -0.20 -0.01    +0.064    35.531
ATOM      4  C   UNL d   1     -11.553   3.776   6.483 -0.31 +0.01    +0.064    35.531
ATOM      5  C   UNL d   1     -15.924   5.256   9.180 -0.03 +0.02    +0.066    35.531
ATOM      6  C   UNL d   1     -17.170   5.596   9.742 -0.05 -0.00    -0.021    35.531
ATOM      7  C   UNL d   1     -17.604   6.734   9.090 -0.03 -0.00    -0.025    35.531
ATOM      8  C   UNL d   1     -16.597   7.048   8.171 -0.05 +0.01    +0.066    35.531
ATOM      9  C   UNL d   1     -18.913   7.507   9.313 -0.01 +0.00    +0.051    35.531
ATOM     10  C   UNL d   1     -15.737   8.526   6.407 -0.06 -0.00    +0.066    35.531
ATOM     11  C   UNL d   1     -15.753   9.706   5.633 -0.07 +0.00    -0.021    35.531
ATOM     12  C   UNL d   1     -14.617   9.660   4.821 -0.17 -0.00    +0.000    35.531
ATOM     13  C   UNL d   1     -13.986   8.465   5.167 -0.18 -0.01    +0.070    35.531
ATOM     14  C   UNL d   1     -16.746  10.835   5.748 -0.04 -0.01    +0.052    35.531
ATOM     15  C   UNL d   1     -12.132   6.805   4.730 -0.13 -0.01    +0.066    35.531
ATOM     16  C   UNL d   1     -11.081   6.350   3.947 -0.38 +0.00    -0.021    35.531
ATOM     17  C   UNL d   1     -10.696   5.122   4.503 -0.43 +0.00    +0.000    35.531
ATOM     18  C   UNL d   1     -11.536   4.932   5.595 -0.31 +0.00    +0.070    35.531
ATOM     19  C   UNL d   1     -10.505   7.070   2.748 -0.51 +0.00    +0.052    35.531
ATOM     20  C   UNL d   1     -12.415   3.529   7.498 -0.22 +0.01    +0.066    35.531
ATOM     21  C   UNL d   1     -12.354   2.363   8.259 -0.18 -0.01    -0.025    35.531
ATOM     22  C   UNL d   1     -13.392   2.456   9.168 -0.17 -0.01    -0.021    35.531
ATOM     23  C   UNL d   1     -14.048   3.678   8.907 -0.06 +0.02    +0.066    35.531
ATOM     24  C   UNL d   1     -11.367   1.208   8.115 -0.25 +0.02    +0.051    35.531
ATOM     25  N   UNL d   1     -15.542   6.153   8.208 -0.06 -0.04    -0.248    35.531
ATOM     26  N   UNL d   1     -14.635   7.808   6.166 -0.06 +0.01    -0.248    35.531
ATOM     27  N   UNL d   1     -12.398   5.939   5.682 -0.15 +0.02    -0.248    35.531
ATOM     28  N   UNL d   1     -13.461   4.329   7.895 -0.11 -0.05    -0.248    35.531
ATOM     29 FE   UNL d   1     -13.875   6.037   6.872 -0.04 +0.00    +0.000    35.531
ATOM     30  C   UNL d   1     -17.937   4.808  10.799 -0.03 +0.01    +0.052    35.531
ATOM     31  C   UNL d   1     -18.501   3.519  10.204 -0.00 +0.02    +0.115    35.531
ATOM     32  C   UNL d   1     -17.726   2.294  10.639 -0.00 +0.03    +0.139    35.531
ATOM     33  O   UNL d   1     -17.419   1.451   9.809 +0.01 -0.12    -0.650    35.531
ATOM     34  O   UNL d   1     -17.316   2.121  11.917 +0.03 -0.18    -0.776    35.531
ATOM     35  H   UNL d   1     -16.700   2.710  12.375 +0.02 +0.05    +0.167    35.531
ATOM     36  C   UNL d   1     -15.135   4.980   5.572 -0.07 +0.02    +0.190    35.531
ATOM     37  O   UNL d   1     -16.292   4.195   5.535 -0.01 -0.05    -0.399    35.531
ATOM     38  H   UNL d   1     -16.566   4.096   6.489 +0.02 +0.03    +0.209    35.531
ATOM     39  C   UNL d   1     -13.767   1.395  10.185 -0.13 +0.02    +0.052    35.531
ATOM     40  C   UNL d   1     -12.957   1.573  11.480 -0.25 +0.05    +0.115    35.531
ATOM     41  C   UNL d   1     -13.441   2.697  12.371 -0.30 +0.11    +0.139    35.531
ATOM     42  O   UNL d   1     -12.775   3.719  12.462 -0.36 -0.55    -0.650    35.531
ATOM     43  O   UNL d   1     -14.635   2.639  13.002 -0.04 -0.60    -0.776    35.531
ATOM     44  H   UNL d   1     -15.375   2.118  12.665 +0.03 +0.08    +0.167    35.531
ATOM     45  C   UNL d   1     -14.047  10.611   3.777 -0.31 -0.00    +0.004    35.531
ATOM     46  C   UNL d   1     -12.826  11.122   3.645 -0.43 -0.00    +0.012    35.531
ATOM     47  C   UNL d   1      -9.661   4.149   4.042 -0.30 +0.00    +0.004    35.531
ATOM     48  C   UNL d   1      -9.135   4.158   2.815 -0.46 +0.00    +0.012    35.531
TER
ENDMDL
MODEL       63
USER    Run = 63
USER    Cluster Rank = 21
USER    Number of conformations in this cluster = 2
USER  
USER    RMSD from reference structure       = 43.590 A
USER  
USER    Estimated Free Energy of Binding    =   -4.34 kcal/mol  [=(1)+(2)+(3)-(4)]
USER    Estimated Inhibition Constant, Ki   =  655.53 uM (micromolar)  [Temperature = 298.15 K]
USER    
USER    (1) Final Intermolecular Energy     =   -7.92 kcal/mol
USER        vdW + Hbond + desolv Energy     =   -5.60 kcal/mol
USER        Electrostatic Energy            =   -2.32 kcal/mol
USER    (2) Final Total Internal Energy     =   -2.39 kcal/mol
USER    (3) Torsional Free Energy           =   +3.58 kcal/mol
USER    (4) Unbound System's Energy  [=(2)] =   -2.39 kcal/mol
USER    
USER    
USER  
USER    DPF = D:/Protein_go_brrr/autodock/final/mut_D99N/heme_Co/dock.dpf
USER    NEWDPF move	heme_Co_opt.pdbqt
USER    NEWDPF about	8.781000 34.984000 -0.736000
USER    NEWDPF tran0	-12.029443 -6.142392 5.763469
USER    NEWDPF axisangle0	0.910821 -0.151468 -0.384008 -129.830734
USER    NEWDPF quaternion0	0.824915 -0.137182 -0.347789 -0.423957
USER    NEWDPF dihe0	-21.38 111.34 141.96 115.46 75.41 146.32 -110.39 -73.22 165.16 -109.91 17.12 -0.19 
USER  
USER                              x       y       z    vdW   Elec        q     RMS 
ATOM      1  C   UNL d   1     -12.803  -4.921   7.384 -0.10 +0.04    +0.064    43.590
ATOM      2  C   UNL d   1     -14.656  -6.230   3.205 -0.07 +0.04    +0.064    43.590
ATOM      3  C   UNL d   1     -10.540  -8.335   1.997 -0.10 +0.00    +0.064    43.590
ATOM      4  C   UNL d   1      -8.753  -7.345   6.412 -0.24 +0.02    +0.064    43.590
ATOM      5  C   UNL d   1     -13.599  -5.093   6.316 -0.09 +0.05    +0.066    43.590
ATOM      6  C   UNL d   1     -14.942  -4.668   6.310 -0.06 -0.01    -0.021    43.590
ATOM      7  C   UNL d   1     -15.482  -5.071   5.104 -0.06 -0.02    -0.025    43.590
ATOM      8  C   UNL d   1     -14.441  -5.709   4.420 -0.08 +0.05    +0.066    43.590
ATOM      9  C   UNL d   1     -16.920  -4.871   4.601 -0.02 +0.02    +0.051    43.590
ATOM     10  C   UNL d   1     -13.640  -6.880   2.415 -0.07 +0.03    +0.066    43.590
ATOM     11  C   UNL d   1     -13.764  -7.323   1.080 -0.03 -0.00    -0.021    43.590
ATOM     12  C   UNL d   1     -12.548  -7.929   0.752 -0.04 +0.00    +0.000    43.590
ATOM     13  C   UNL d   1     -11.771  -7.801   1.903 -0.08 +0.01    +0.070    43.590
ATOM     14  C   UNL d   1     -14.940  -7.086   0.167 -0.01 +0.01    +0.052    43.590
ATOM     15  C   UNL d   1      -9.624  -8.343   3.121 -0.18 +0.00    +0.066    43.590
ATOM     16  C   UNL d   1      -8.426  -9.038   3.201 -0.23 +0.00    -0.021    43.590
ATOM     17  C   UNL d   1      -7.908  -8.758   4.473 -0.33 +0.00    +0.000    43.590
ATOM     18  C   UNL d   1      -8.826  -7.897   5.065 -0.25 +0.01    +0.070    43.590
ATOM     19  C   UNL d   1      -7.843  -9.909   2.110 -0.21 -0.01    +0.052    43.590
ATOM     20  C   UNL d   1      -9.675  -6.577   7.039 -0.22 +0.02    +0.066    43.590
ATOM     21  C   UNL d   1      -9.508  -6.136   8.350 -0.29 -0.01    -0.025    43.590
ATOM     22  C   UNL d   1     -10.647  -5.410   8.648 -0.21 -0.01    -0.021    43.590
ATOM     23  C   UNL d   1     -11.464  -5.455   7.498 -0.15 +0.03    +0.066    43.590
ATOM     24  C   UNL d   1      -8.330  -6.409   9.281 -0.29 +0.01    +0.051    43.590
ATOM     25  N   UNL d   1     -13.262  -5.732   5.145 -0.07 -0.22    -0.248    43.590
ATOM     26  N   UNL d   1     -12.412  -7.117   2.888 -0.07 -0.09    -0.248    43.590
ATOM     27  N   UNL d   1      -9.850  -7.696   4.242 -0.13 -0.06    -0.248    43.590
ATOM     28  N   UNL d   1     -10.881  -6.161   6.523 -0.10 -0.11    -0.248    43.590
ATOM     29 FE   UNL d   1     -11.453  -6.771   4.670 -0.04 +0.00    +0.000    43.590
ATOM     30  C   UNL d   1     -15.684  -3.981   7.451 -0.02 +0.02    +0.052    43.590
ATOM     31  C   UNL d   1     -15.783  -2.477   7.199 -0.02 +0.06    +0.115    43.590
ATOM     32  C   UNL d   1     -14.808  -2.003   6.143 -0.02 +0.16    +0.139    43.590
ATOM     33  O   UNL d   1     -15.232  -1.468   5.130 +0.00 -0.79    -0.650    43.590
ATOM     34  O   UNL d   1     -13.468  -2.109   6.304 -0.15 -1.30    -0.776    43.590
ATOM     35  H   UNL d   1     -13.025  -2.142   7.163 +0.03 +0.16    +0.167    43.590
ATOM     36  C   UNL d   1     -12.354  -8.480   5.484 -0.04 +0.04    +0.190    43.590
ATOM     37  O   UNL d   1     -13.475  -8.915   6.198 +0.00 -0.07    -0.399    43.590
ATOM     38  H   UNL d   1     -13.999  -8.087   6.384 +0.01 +0.05    +0.209    43.590
ATOM     39  C   UNL d   1     -10.956  -4.768   9.987 -0.16 +0.01    +0.052    43.590
ATOM     40  C   UNL d   1     -10.668  -3.258   9.944 -0.21 +0.03    +0.115    43.590
ATOM     41  C   UNL d   1     -11.549  -2.481   8.988 -0.19 +0.05    +0.139    43.590
ATOM     42  O   UNL d   1     -12.751  -2.414   9.203 +0.05 -0.24    -0.650    43.590
ATOM     43  O   UNL d   1     -11.033  -1.786   7.951 -0.17 -0.43    -0.776    43.590
ATOM     44  H   UNL d   1     -11.507  -1.666   7.118 +0.05 +0.14    +0.167    43.590
ATOM     45  C   UNL d   1     -12.028  -8.594  -0.516 -0.06 -0.00    +0.004    43.590
ATOM     46  C   UNL d   1     -11.135  -8.176  -1.409 -0.12 -0.01    +0.012    43.590
ATOM     47  C   UNL d   1      -6.676  -9.279   5.138 -0.35 +0.00    +0.004    43.590
ATOM     48  C   UNL d   1      -5.460  -9.213   4.592 -0.39 -0.00    +0.012    43.590
TER
ENDMDL
MODEL       82
USER    Run = 82
USER    Cluster Rank = 22
USER    Number of conformations in this cluster = 1
USER  
USER    RMSD from reference structure       = 40.563 A
USER  
USER    Estimated Free Energy of Binding    =   -4.26 kcal/mol  [=(1)+(2)+(3)-(4)]
USER    Estimated Inhibition Constant, Ki   =  757.64 uM (micromolar)  [Temperature = 298.15 K]
USER    
USER    (1) Final Intermolecular Energy     =   -7.84 kcal/mol
USER        vdW + Hbond + desolv Energy     =   -5.40 kcal/mol
USER        Electrostatic Energy            =   -2.43 kcal/mol
USER    (2) Final Total Internal Energy     =   -1.95 kcal/mol
USER    (3) Torsional Free Energy           =   +3.58 kcal/mol
USER    (4) Unbound System's Energy  [=(2)] =   -1.95 kcal/mol
USER    
USER    
USER  
USER    DPF = D:/Protein_go_brrr/autodock/final/mut_D99N/heme_Co/dock.dpf
USER    NEWDPF move	heme_Co_opt.pdbqt
USER    NEWDPF about	8.781000 34.984000 -0.736000
USER    NEWDPF tran0	-12.328081 -0.939323 10.828330
USER    NEWDPF axisangle0	-0.117560 0.641793 -0.757814 119.363606
USER    NEWDPF quaternion0	-0.101482 0.554018 -0.654171 0.504802
USER    NEWDPF dihe0	130.62 158.07 -170.53 116.94 80.71 115.31 -120.57 149.61 -125.05 -11.29 177.61 175.70 
USER  
USER                              x       y       z    vdW   Elec        q     RMS 
ATOM      1  C   UNL d   1     -11.442  -1.235   8.868 -0.24 +0.03    +0.064    40.563
ATOM      2  C   UNL d   1     -11.571  -3.963  12.760 -0.09 +0.01    +0.064    40.563
ATOM      3  C   UNL d   1     -13.732  -0.462  15.189 -0.08 +0.03    +0.064    40.563
ATOM      4  C   UNL d   1     -13.960   2.200  11.124 -0.17 +0.03    +0.064    40.563
ATOM      5  C   UNL d   1     -11.286  -2.224   9.763 -0.20 +0.02    +0.066    40.563
ATOM      6  C   UNL d   1     -10.743  -3.474   9.408 -0.25 -0.01    -0.021    40.563
ATOM      7  C   UNL d   1     -10.804  -4.270  10.535 -0.10 -0.01    -0.025    40.563
ATOM      8  C   UNL d   1     -11.366  -3.467  11.534 -0.11 +0.02    +0.066    40.563
ATOM      9  C   UNL d   1     -10.355  -5.732  10.682 -0.13 +0.01    +0.051    40.563
ATOM     10  C   UNL d   1     -12.118  -3.205  13.857 -0.07 +0.01    +0.066    40.563
ATOM     11  C   UNL d   1     -12.228  -3.624  15.201 -0.05 -0.00    -0.021    40.563
ATOM     12  C   UNL d   1     -12.858  -2.583  15.888 -0.05 +0.00    +0.000    40.563
ATOM     13  C   UNL d   1     -13.074  -1.603  14.918 -0.08 +0.02    +0.070    40.563
ATOM     14  C   UNL d   1     -11.675  -4.898  15.786 -0.04 +0.01    +0.052    40.563
ATOM     15  C   UNL d   1     -14.087   0.628  14.302 -0.06 +0.04    +0.066    40.563
ATOM     16  C   UNL d   1     -14.895   1.713  14.612 -0.09 -0.02    -0.021    40.563
ATOM     17  C   UNL d   1     -14.965   2.482  13.442 -0.16 +0.00    +0.000    40.563
ATOM     18  C   UNL d   1     -14.178   1.812  12.512 -0.17 +0.04    +0.070    40.563
ATOM     19  C   UNL d   1     -15.544   1.966  15.955 -0.08 +0.04    +0.052    40.563
ATOM     20  C   UNL d   1     -13.270   1.520  10.177 -0.15 +0.02    +0.066    40.563
ATOM     21  C   UNL d   1     -13.160   1.977   8.865 -0.15 -0.01    -0.025    40.563
ATOM     22  C   UNL d   1     -12.415   1.021   8.199 -0.20 -0.01    -0.021    40.563
ATOM     23  C   UNL d   1     -12.115   0.015   9.141 -0.19 +0.02    +0.066    40.563
ATOM     24  C   UNL d   1     -13.753   3.251   8.270 -0.16 +0.01    +0.051    40.563
ATOM     25  N   UNL d   1     -11.669  -2.192  11.085 -0.08 -0.07    -0.248    40.563
ATOM     26  N   UNL d   1     -12.575  -1.958  13.703 -0.05 -0.07    -0.248    40.563
ATOM     27  N   UNL d   1     -13.695   0.697  13.049 -0.10 -0.14    -0.248    40.563
ATOM     28  N   UNL d   1     -12.632   0.312  10.339 -0.08 -0.08    -0.248    40.563
ATOM     29 FE   UNL d   1     -12.742  -0.660  12.122 -0.03 +0.00    +0.000    40.563
ATOM     30  C   UNL d   1     -10.267  -3.899   8.022 -0.33 +0.02    +0.052    40.563
ATOM     31  C   UNL d   1     -11.349  -4.708   7.307 -0.06 +0.06    +0.115    40.563
ATOM     32  C   UNL d   1     -12.680  -3.988   7.273 -0.11 +0.11    +0.139    40.563
ATOM     33  O   UNL d   1     -13.100  -3.552   6.211 -0.34 -1.14    -0.650    40.563
ATOM     34  O   UNL d   1     -13.451  -3.850   8.377 +0.04 -0.35    -0.776    40.563
ATOM     35  H   UNL d   1     -13.788  -3.005   8.703 +0.02 +0.07    +0.167    40.563
ATOM     36  C   UNL d   1     -14.496  -1.631  11.511 -0.01 +0.05    +0.190    40.563
ATOM     37  O   UNL d   1     -15.080  -2.303  10.433 +0.01 -0.09    -0.399    40.563
ATOM     38  H   UNL d   1     -14.372  -2.924  10.104 +0.02 +0.05    +0.209    40.563
ATOM     39  C   UNL d   1     -12.070   1.047   6.721 -0.19 +0.03    +0.052    40.563
ATOM     40  C   UNL d   1     -13.231   0.487   5.883 -0.15 +0.09    +0.115    40.563
ATOM     41  C   UNL d   1     -13.161   0.833   4.410 -0.16 +0.12    +0.139    40.563
ATOM     42  O   UNL d   1     -13.393   1.980   4.054 +0.02 -0.28    -0.650    40.563
ATOM     43  O   UNL d   1     -12.766  -0.071   3.486 -0.32 -1.33    -0.776    40.563
ATOM     44  H   UNL d   1     -12.502   0.183   2.592 +0.05 +0.19    +0.167    40.563
ATOM     45  C   UNL d   1     -13.262  -2.394  17.344 -0.04 +0.00    +0.004    40.563
ATOM     46  C   UNL d   1     -12.755  -1.604  18.287 -0.05 +0.00    +0.012    40.563
ATOM     47  C   UNL d   1     -15.742   3.727  13.165 -0.18 +0.00    +0.004    40.563
ATOM     48  C   UNL d   1     -15.595   4.858  13.859 -0.21 +0.01    +0.012    40.563
TER
ENDMDL
MODEL        5
USER    Run = 5
USER    Cluster Rank = 23
USER    Number of conformations in this cluster = 2
USER  
USER    RMSD from reference structure       = 40.180 A
USER  
USER    Estimated Free Energy of Binding    =   -4.24 kcal/mol  [=(1)+(2)+(3)-(4)]
USER    Estimated Inhibition Constant, Ki   =  778.44 uM (micromolar)  [Temperature = 298.15 K]
USER    
USER    (1) Final Intermolecular Energy     =   -7.82 kcal/mol
USER        vdW + Hbond + desolv Energy     =   -4.92 kcal/mol
USER        Electrostatic Energy            =   -2.90 kcal/mol
USER    (2) Final Total Internal Energy     =   -0.68 kcal/mol
USER    (3) Torsional Free Energy           =   +3.58 kcal/mol
USER    (4) Unbound System's Energy  [=(2)] =   -0.68 kcal/mol
USER    
USER    
USER  
USER    DPF = D:/Protein_go_brrr/autodock/final/mut_D99N/heme_Co/dock.dpf
USER    NEWDPF move	heme_Co_opt.pdbqt
USER    NEWDPF about	8.781000 34.984000 -0.736000
USER    NEWDPF tran0	24.338090 -5.101746 2.890970
USER    NEWDPF axisangle0	0.398474 0.912467 0.092853 161.610637
USER    NEWDPF quaternion0	0.393354 0.900743 0.091660 0.159790
USER    NEWDPF dihe0	70.58 114.32 16.67 122.57 -88.76 143.39 -10.92 82.92 -136.18 -109.67 -6.19 -19.44 
USER  
USER                              x       y       z    vdW   Elec        q     RMS 
ATOM      1  C   UNL d   1      26.127  -6.327   3.006 -0.08 +0.04    +0.064    40.180
ATOM      2  C   UNL d   1      22.553  -6.178  -0.127 -0.21 +0.01    +0.064    40.180
ATOM      3  C   UNL d   1      20.273  -2.961   2.571 -0.11 +0.00    +0.064    40.180
ATOM      4  C   UNL d   1      24.085  -2.808   5.589 -0.01 +0.01    +0.064    40.180
ATOM      5  C   UNL d   1      25.301  -6.550   1.971 -0.10 +0.03    +0.066    40.180
ATOM      6  C   UNL d   1      25.654  -7.398   0.902 -0.09 -0.01    -0.021    40.180
ATOM      7  C   UNL d   1      24.624  -7.333  -0.015 -0.10 -0.01    -0.025    40.180
ATOM      8  C   UNL d   1      23.679  -6.462   0.540 -0.14 +0.02    +0.066    40.180
ATOM      9  C   UNL d   1      24.517  -8.056  -1.366 -0.07 +0.01    +0.051    40.180
ATOM     10  C   UNL d   1      21.514  -5.315   0.376 -0.22 +0.01    +0.066    40.180
ATOM     11  C   UNL d   1      20.249  -5.088  -0.210 -0.38 +0.00    -0.021    40.180
ATOM     12  C   UNL d   1      19.604  -4.149   0.599 -0.31 -0.00    +0.000    40.180
ATOM     13  C   UNL d   1      20.514  -3.883   1.622 -0.18 +0.00    +0.070    40.180
ATOM     14  C   UNL d   1      19.680  -5.803  -1.409 -0.33 -0.01    +0.052    40.180
ATOM     15  C   UNL d   1      21.118  -2.524   3.665 -0.05 +0.00    +0.066    40.180
ATOM     16  C   UNL d   1      20.869  -1.463   4.524 -0.02 -0.00    -0.021    40.180
ATOM     17  C   UNL d   1      21.967  -1.414   5.395 -0.01 +0.00    +0.000    40.180
ATOM     18  C   UNL d   1      22.794  -2.463   5.007 -0.02 +0.01    +0.070    40.180
ATOM     19  C   UNL d   1      19.648  -0.572   4.487 -0.03 +0.00    +0.052    40.180
ATOM     20  C   UNL d   1      24.946  -3.768   5.174 -0.02 +0.02    +0.066    40.180
ATOM     21  C   UNL d   1      26.176  -3.982   5.792 -0.01 -0.01    -0.025    40.180
ATOM     22  C   UNL d   1      26.774  -5.010   5.087 -0.03 -0.01    -0.021    40.180
ATOM     23  C   UNL d   1      25.878  -5.367   4.058 -0.06 +0.03    +0.066    40.180
ATOM     24  C   UNL d   1      26.762  -3.230   6.984 -0.00 +0.01    +0.051    40.180
ATOM     25  N   UNL d   1      24.071  -5.966   1.772 -0.09 -0.09    -0.248    40.180
ATOM     26  N   UNL d   1      21.645  -4.630   1.517 -0.12 -0.03    -0.248    40.180
ATOM     27  N   UNL d   1      22.271  -3.083   3.955 -0.02 -0.03    -0.248    40.180
ATOM     28  N   UNL d   1      24.771  -4.617   4.105 -0.04 -0.09    -0.248    40.180
ATOM     29 FE   UNL d   1      23.120  -4.440   2.931 -0.02 +0.00    +0.000    40.180
ATOM     30  C   UNL d   1      26.962  -8.165   0.744 -0.05 +0.02    +0.052    40.180
ATOM     31  C   UNL d   1      26.962  -9.415   1.624 -0.07 +0.07    +0.115    40.180
ATOM     32  C   UNL d   1      25.634 -10.140   1.596 -0.08 +0.11    +0.139    40.180
ATOM     33  O   UNL d   1      25.190 -10.622   2.628 -0.38 -1.02    -0.650    40.180
ATOM     34  O   UNL d   1      24.890 -10.233   0.469 -0.00 -0.31    -0.776    40.180
ATOM     35  H   UNL d   1      25.157 -10.727  -0.319 +0.02 +0.04    +0.167    40.180
ATOM     36  C   UNL d   1      24.110  -3.053   1.709 -0.02 +0.02    +0.190    40.180
ATOM     37  O   UNL d   1      25.113  -2.938   0.741 -0.00 -0.04    -0.399    40.180
ATOM     38  H   UNL d   1      25.442  -3.869   0.600 +0.01 +0.03    +0.209    40.180
ATOM     39  C   UNL d   1      28.159  -5.569   5.353 -0.02 +0.02    +0.052    40.180
ATOM     40  C   UNL d   1      28.122  -6.588   6.504 -0.03 +0.05    +0.115    40.180
ATOM     41  C   UNL d   1      27.314  -7.834   6.209 +0.02 +0.15    +0.139    40.180
ATOM     42  O   UNL d   1      26.595  -8.301   7.081 -0.53 -0.95    -0.650    40.180
ATOM     43  O   UNL d   1      27.298  -8.396   4.981 -0.11 -1.13    -0.776    40.180
ATOM     44  H   UNL d   1      28.007  -8.261   4.338 +0.00 +0.13    +0.167    40.180
ATOM     45  C   UNL d   1      18.232  -3.490   0.534 -0.40 -0.00    +0.004    40.180
ATOM     46  C   UNL d   1      17.186  -3.586   1.350 -0.40 -0.00    +0.012    40.180
ATOM     47  C   UNL d   1      22.277  -0.441   6.485 -0.00 +0.00    +0.004    40.180
ATOM     48  C   UNL d   1      23.269   0.450   6.418 +0.00 +0.00    +0.012    40.180
TER
ENDMDL
MODEL       54
USER    Run = 54
USER    Cluster Rank = 24
USER    Number of conformations in this cluster = 1
USER  
USER    RMSD from reference structure       = 45.591 A
USER  
USER    Estimated Free Energy of Binding    =   -4.13 kcal/mol  [=(1)+(2)+(3)-(4)]
USER    Estimated Inhibition Constant, Ki   =  934.04 uM (micromolar)  [Temperature = 298.15 K]
USER    
USER    (1) Final Intermolecular Energy     =   -7.71 kcal/mol
USER        vdW + Hbond + desolv Energy     =   -4.39 kcal/mol
USER        Electrostatic Energy            =   -3.32 kcal/mol
USER    (2) Final Total Internal Energy     =   -2.23 kcal/mol
USER    (3) Torsional Free Energy           =   +3.58 kcal/mol
USER    (4) Unbound System's Energy  [=(2)] =   -2.23 kcal/mol
USER    
USER    
USER  
USER    DPF = D:/Protein_go_brrr/autodock/final/mut_D99N/heme_Co/dock.dpf
USER    NEWDPF move	heme_Co_opt.pdbqt
USER    NEWDPF about	8.781000 34.984000 -0.736000
USER    NEWDPF tran0	-8.261195 -4.758747 -20.285052
USER    NEWDPF axisangle0	0.262019 0.026236 -0.964706 -75.669695
USER    NEWDPF quaternion0	0.160719 0.016093 -0.591739 -0.789782
USER    NEWDPF dihe0	-138.32 -176.75 69.31 -96.02 -73.54 136.35 81.98 -2.67 58.59 77.54 -28.35 -176.64 
USER  
USER                              x       y       z    vdW   Elec        q     RMS 
ATOM      1  C   UNL d   1      -8.231  -2.604 -20.556 -0.06 +0.03    +0.064    45.591
ATOM      2  C   UNL d   1     -10.970  -5.454 -17.912 -0.16 +0.00    +0.064    45.591
ATOM      3  C   UNL d   1      -8.855  -9.300 -19.799 -0.07 +0.00    +0.064    45.591
ATOM      4  C   UNL d   1      -5.784  -6.407 -22.221 -0.06 +0.01    +0.064    45.591
ATOM      5  C   UNL d   1      -9.160  -3.101 -19.722 -0.08 +0.02    +0.066    45.591
ATOM      6  C   UNL d   1      -9.957  -2.270 -18.912 -0.14 -0.01    -0.021    45.591
ATOM      7  C   UNL d   1     -10.734  -3.102 -18.130 -0.16 -0.01    -0.025    45.591
ATOM      8  C   UNL d   1     -10.389  -4.405 -18.508 -0.13 +0.01    +0.066    45.591
ATOM      9  C   UNL d   1     -11.764  -2.703 -17.063 -0.22 +0.01    +0.051    45.591
ATOM     10  C   UNL d   1     -10.699  -6.828 -18.253 -0.08 +0.00    +0.066    45.591
ATOM     11  C   UNL d   1     -11.374  -7.968 -17.765 -0.10 -0.00    -0.021    45.591
ATOM     12  C   UNL d   1     -10.740  -9.075 -18.335 -0.07 +0.00    +0.000    45.591
ATOM     13  C   UNL d   1      -9.735  -8.531 -19.135 -0.10 +0.00    +0.070    45.591
ATOM     14  C   UNL d   1     -12.602  -7.971 -16.891 -0.08 +0.01    +0.052    45.591
ATOM     15  C   UNL d   1      -7.729  -8.908 -20.624 -0.06 +0.00    +0.066    45.591
ATOM     16  C   UNL d   1      -6.770  -9.753 -21.164 -0.04 -0.00    -0.021    45.591
ATOM     17  C   UNL d   1      -5.881  -8.923 -21.862 -0.06 +0.00    +0.000    45.591
ATOM     18  C   UNL d   1      -6.379  -7.634 -21.706 -0.06 +0.00    +0.070    45.591
ATOM     19  C   UNL d   1      -6.735 -11.257 -21.002 -0.03 -0.00    +0.052    45.591
ATOM     20  C   UNL d   1      -6.202  -5.136 -22.010 -0.05 +0.01    +0.066    45.591
ATOM     21  C   UNL d   1      -5.524  -4.035 -22.529 -0.04 -0.01    -0.025    45.591
ATOM     22  C   UNL d   1      -6.224  -2.926 -22.089 -0.05 -0.01    -0.021    45.591
ATOM     23  C   UNL d   1      -7.295  -3.409 -21.308 -0.04 +0.02    +0.066    45.591
ATOM     24  C   UNL d   1      -4.261  -4.038 -23.385 -0.04 +0.01    +0.051    45.591
ATOM     25  N   UNL d   1      -9.421  -4.434 -19.497 -0.04 -0.04    -0.248    45.591
ATOM     26  N   UNL d   1      -9.748  -7.171 -19.129 -0.08 -0.01    -0.248    45.591
ATOM     27  N   UNL d   1      -7.463  -7.660 -20.938 -0.03 -0.01    -0.248    45.591
ATOM     28  N   UNL d   1      -7.284  -4.746 -21.255 -0.02 -0.05    -0.248    45.591
ATOM     29 FE   UNL d   1      -8.382  -6.140 -20.263 -0.02 +0.00    +0.000    45.591
ATOM     30  C   UNL d   1      -9.906  -0.747 -18.842 -0.20 +0.03    +0.052    45.591
ATOM     31  C   UNL d   1     -10.113  -0.139 -20.229 -0.12 +0.06    +0.115    45.591
ATOM     32  C   UNL d   1      -8.970   0.765 -20.639 -0.13 +0.12    +0.139    45.591
ATOM     33  O   UNL d   1      -8.557   1.605 -19.854 -0.12 -1.11    -0.650    45.591
ATOM     34  O   UNL d   1      -8.353   0.643 -21.837 +0.01 -0.48    -0.776    45.591
ATOM     35  H   UNL d   1      -7.404   0.763 -21.975 +0.02 +0.12    +0.167    45.591
ATOM     36  C   UNL d   1      -7.121  -5.980 -18.595 -0.20 +0.01    +0.190    45.591
ATOM     37  O   UNL d   1      -6.705  -5.097 -17.594 -0.19 -0.09    -0.399    45.591
ATOM     38  H   UNL d   1      -7.498  -4.993 -16.998 -0.40 +0.01    +0.209    45.591
ATOM     39  C   UNL d   1      -5.840  -1.482 -22.355 -0.04 +0.02    +0.052    45.591
ATOM     40  C   UNL d   1      -4.651  -1.066 -21.474 -0.09 +0.08    +0.115    45.591
ATOM     41  C   UNL d   1      -5.007  -0.113 -20.353 -0.09 +0.19    +0.139    45.591
ATOM     42  O   UNL d   1      -4.553  -0.308 -19.234 -0.14 -1.19    -0.650    45.591
ATOM     43  O   UNL d   1      -5.744   0.999 -20.572 -0.21 -1.41    -0.776    45.591
ATOM     44  H   UNL d   1      -6.700   0.969 -20.713 +0.01 +0.31    +0.167    45.591
ATOM     45  C   UNL d   1     -10.977 -10.576 -18.230 -0.07 +0.00    +0.004    45.591
ATOM     46  C   UNL d   1     -10.309 -11.514 -17.565 -0.08 +0.00    +0.012    45.591
ATOM     47  C   UNL d   1      -4.622  -9.270 -22.587 -0.07 +0.00    +0.004    45.591
ATOM     48  C   UNL d   1      -3.408  -9.188 -22.037 -0.11 -0.00    +0.012    45.591
TER
ENDMDL
MODEL       85
USER    Run = 85
USER    Cluster Rank = 25
USER    Number of conformations in this cluster = 1
USER  
USER    RMSD from reference structure       = 17.426 A
USER  
USER    Estimated Free Energy of Binding    =   -4.03 kcal/mol  [=(1)+(2)+(3)-(4)]
USER    Estimated Inhibition Constant, Ki   =    1.11 mM (millimolar)  [Temperature = 298.15 K]
USER    
USER    (1) Final Intermolecular Energy     =   -7.61 kcal/mol
USER        vdW + Hbond + desolv Energy     =   -6.35 kcal/mol
USER        Electrostatic Energy            =   -1.26 kcal/mol
USER    (2) Final Total Internal Energy     =   -2.22 kcal/mol
USER    (3) Torsional Free Energy           =   +3.58 kcal/mol
USER    (4) Unbound System's Energy  [=(2)] =   -2.22 kcal/mol
USER    
USER    
USER  
USER    DPF = D:/Protein_go_brrr/autodock/final/mut_D99N/heme_Co/dock.dpf
USER    NEWDPF move	heme_Co_opt.pdbqt
USER    NEWDPF about	8.781000 34.984000 -0.736000
USER    NEWDPF tran0	-2.991409 19.099312 4.313291
USER    NEWDPF axisangle0	0.718692 0.607508 0.338254 29.722651
USER    NEWDPF quaternion0	0.184331 0.155814 0.086755 0.966549
USER    NEWDPF dihe0	-177.02 122.96 -74.68 34.58 143.11 131.48 30.74 -127.80 176.59 -76.99 -171.24 -9.76 
USER  
USER                              x       y       z    vdW   Elec        q     RMS 
ATOM      1  C   UNL d   1      -4.462  19.444   2.753 -0.12 +0.03    +0.064    17.426
ATOM      2  C   UNL d   1      -4.888  18.298   7.349 -0.18 +0.01    +0.064    17.426
ATOM      3  C   UNL d   1      -0.141  17.915   7.731 -0.20 +0.01    +0.064    17.426
ATOM      4  C   UNL d   1       0.341  19.459   3.143 -0.18 +0.01    +0.064    17.426
ATOM      5  C   UNL d   1      -4.929  19.124   3.971 -0.17 +0.03    +0.066    17.426
ATOM      6  C   UNL d   1      -6.300  19.189   4.287 -0.11 -0.01    -0.021    17.426
ATOM      7  C   UNL d   1      -6.416  18.878   5.628 -0.14 -0.01    -0.025    17.426
ATOM      8  C   UNL d   1      -5.113  18.620   6.068 -0.17 +0.01    +0.066    17.426
ATOM      9  C   UNL d   1      -7.696  18.821   6.475 -0.12 +0.01    +0.051    17.426
ATOM     10  C   UNL d   1      -3.586  17.991   7.886 -0.19 +0.00    +0.066    17.426
ATOM     11  C   UNL d   1      -3.301  17.511   9.183 -0.20 +0.00    -0.021    17.426
ATOM     12  C   UNL d   1      -1.910  17.404   9.266 -0.25 -0.00    +0.000    17.426
ATOM     13  C   UNL d   1      -1.451  17.813   8.014 -0.24 +0.01    +0.070    17.426
ATOM     14  C   UNL d   1      -4.310  17.097  10.223 -0.16 -0.00    +0.052    17.426
ATOM     15  C   UNL d   1       0.506  18.367   6.515 -0.30 +0.01    +0.066    17.426
ATOM     16  C   UNL d   1       1.864  18.586   6.337 -0.24 -0.00    -0.021    17.426
ATOM     17  C   UNL d   1       2.008  19.034   5.016 -0.19 +0.00    +0.000    17.426
ATOM     18  C   UNL d   1       0.723  19.037   4.485 -0.17 +0.01    +0.070    17.426
ATOM     19  C   UNL d   1       2.932  18.371   7.387 -0.13 +0.00    +0.052    17.426
ATOM     20  C   UNL d   1      -0.910  19.552   2.633 -0.17 +0.01    +0.066    17.426
ATOM     21  C   UNL d   1      -1.153  20.006   1.339 -0.10 -0.00    -0.025    17.426
ATOM     22  C   UNL d   1      -2.528  19.985   1.188 -0.08 -0.00    -0.021    17.426
ATOM     23  C   UNL d   1      -3.060  19.527   2.412 -0.13 +0.02    +0.066    17.426
ATOM     24  C   UNL d   1      -0.128  20.458   0.302 -0.06 +0.00    +0.051    17.426
ATOM     25  N   UNL d   1      -4.172  18.759   5.062 -0.11 -0.07    -0.248    17.426
ATOM     26  N   UNL d   1      -2.468  18.114   7.163 -0.13 -0.03    -0.248    17.426
ATOM     27  N   UNL d   1      -0.150  18.663   5.415 -0.18 -0.04    -0.248    17.426
ATOM     28  N   UNL d   1      -2.084  19.266   3.290 -0.08 -0.06    -0.248    17.426
ATOM     29 FE   UNL d   1      -2.042  18.709   5.245 -0.06 +0.00    +0.000    17.426
ATOM     30  C   UNL d   1      -7.429  19.613   3.354 -0.05 +0.03    +0.052    17.426
ATOM     31  C   UNL d   1      -7.614  21.130   3.389 -0.03 +0.03    +0.115    17.426
ATOM     32  C   UNL d   1      -6.731  21.795   4.422 -0.01 +0.02    +0.139    17.426
ATOM     33  O   UNL d   1      -7.199  22.096   5.510 +0.01 -0.05    -0.650    17.426
ATOM     34  O   UNL d   1      -5.416  22.028   4.199 +0.03 -0.10    -0.776    17.426
ATOM     35  H   UNL d   1      -4.827  22.465   4.829 +0.01 +0.01    +0.167    17.426
ATOM     36  C   UNL d   1      -2.158  20.715   5.844 -0.05 +0.02    +0.190    17.426
ATOM     37  O   UNL d   1      -2.963  21.856   5.765 +0.00 -0.03    -0.399    17.426
ATOM     38  H   UNL d   1      -3.821  21.538   5.367 +0.02 +0.02    +0.209    17.426
ATOM     39  C   UNL d   1      -3.285  20.444  -0.044 -0.03 +0.01    +0.052    17.426
ATOM     40  C   UNL d   1      -3.516  19.269  -1.008 -0.05 +0.04    +0.115    17.426
ATOM     41  C   UNL d   1      -4.879  18.621  -0.889 -0.08 +0.10    +0.139    17.426
ATOM     42  O   UNL d   1      -5.742  19.163  -0.212 -0.45 -0.65    -0.650    17.426
ATOM     43  O   UNL d   1      -5.198  17.504  -1.579 -0.41 -0.76    -0.776    17.426
ATOM     44  H   UNL d   1      -5.298  17.498  -2.540 +0.03 +0.12    +0.167    17.426
ATOM     45  C   UNL d   1      -0.968  16.947  10.372 -0.18 -0.00    +0.004    17.426
ATOM     46  C   UNL d   1      -1.166  16.112  11.389 -0.25 -0.00    +0.012    17.426
ATOM     47  C   UNL d   1       3.233  19.483   4.289 -0.15 +0.00    +0.004    17.426
ATOM     48  C   UNL d   1       3.674  18.912   3.166 -0.16 +0.00    +0.012    17.426
TER
ENDMDL
MODEL       37
USER    Run = 37
USER    Cluster Rank = 26
USER    Number of conformations in this cluster = 1
USER  
USER    RMSD from reference structure       = 35.376 A
USER  
USER    Estimated Free Energy of Binding    =   -3.93 kcal/mol  [=(1)+(2)+(3)-(4)]
USER    Estimated Inhibition Constant, Ki   =    1.31 mM (millimolar)  [Temperature = 298.15 K]
USER    
USER    (1) Final Intermolecular Energy     =   -7.51 kcal/mol
USER        vdW + Hbond + desolv Energy     =   -5.58 kcal/mol
USER        Electrostatic Energy            =   -1.93 kcal/mol
USER    (2) Final Total Internal Energy     =   -1.64 kcal/mol
USER    (3) Torsional Free Energy           =   +3.58 kcal/mol
USER    (4) Unbound System's Energy  [=(2)] =   -1.64 kcal/mol
USER    
USER    
USER  
USER    DPF = D:/Protein_go_brrr/autodock/final/mut_D99N/heme_Co/dock.dpf
USER    NEWDPF move	heme_Co_opt.pdbqt
USER    NEWDPF about	8.781000 34.984000 -0.736000
USER    NEWDPF tran0	4.140903 2.666137 -16.606550
USER    NEWDPF axisangle0	0.312071 -0.263791 0.912703 -107.918435
USER    NEWDPF quaternion0	0.252340 -0.213301 0.738010 -0.588361
USER    NEWDPF dihe0	-60.81 119.59 -71.62 -131.37 138.03 88.15 174.44 -39.00 -105.49 -123.34 4.30 132.98 
USER  
USER                              x       y       z    vdW   Elec        q     RMS 
ATOM      1  C   UNL d   1       3.899   1.606 -18.486 -0.04 +0.02    +0.064    35.376
ATOM      2  C   UNL d   1       6.723   0.855 -14.734 -0.22 +0.02    +0.064    35.376
ATOM      3  C   UNL d   1       5.181   4.903 -12.717 -0.07 +0.01    +0.064    35.376
ATOM      4  C   UNL d   1       2.008   5.493 -16.357 -0.07 +0.01    +0.064    35.376
ATOM      5  C   UNL d   1       4.811   1.122 -17.626 -0.07 +0.02    +0.066    35.376
ATOM      6  C   UNL d   1       5.451  -0.115 -17.833 -0.17 -0.01    -0.021    35.376
ATOM      7  C   UNL d   1       6.252  -0.339 -16.730 -0.23 -0.01    -0.025    35.376
ATOM      8  C   UNL d   1       6.079   0.778 -15.906 -0.14 +0.02    +0.066    35.376
ATOM      9  C   UNL d   1       7.150  -1.553 -16.449 -0.28 +0.02    +0.051    35.376
ATOM     10  C   UNL d   1       6.627   1.976 -13.833 -0.20 +0.01    +0.066    35.376
ATOM     11  C   UNL d   1       7.383   2.181 -12.658 -0.29 -0.00    -0.021    35.376
ATOM     12  C   UNL d   1       6.916   3.370 -12.092 -0.21 +0.00    +0.000    35.376
ATOM     13  C   UNL d   1       5.922   3.809 -12.967 -0.04 +0.01    +0.070    35.376
ATOM     14  C   UNL d   1       8.534   1.334 -12.179 -0.35 +0.01    +0.052    35.376
ATOM     15  C   UNL d   1       4.086   5.467 -13.481 -0.11 +0.01    +0.066    35.376
ATOM     16  C   UNL d   1       3.267   6.517 -13.093 -0.12 -0.00    -0.021    35.376
ATOM     17  C   UNL d   1       2.348   6.690 -14.138 -0.06 +0.00    +0.000    35.376
ATOM     18  C   UNL d   1       2.692   5.738 -15.093 -0.05 +0.01    +0.070    35.376
ATOM     19  C   UNL d   1       3.382   7.286 -11.796 -0.14 +0.01    +0.052    35.376
ATOM     20  C   UNL d   1       2.270   4.518 -17.260 -0.04 +0.02    +0.066    35.376
ATOM     21  C   UNL d   1       1.518   4.361 -18.423 -0.01 -0.01    -0.025    35.376
ATOM     22  C   UNL d   1       2.059   3.266 -19.071 -0.01 -0.01    -0.021    35.376
ATOM     23  C   UNL d   1       3.114   2.798 -18.259 -0.01 +0.02    +0.066    35.376
ATOM     24  C   UNL d   1       0.330   5.201 -18.885 -0.01 +0.01    +0.051    35.376
ATOM     25  N   UNL d   1       5.196   1.702 -16.439 -0.02 -0.05    -0.248    35.376
ATOM     26  N   UNL d   1       5.787   2.994 -14.048 -0.06 -0.04    -0.248    35.376
ATOM     27  N   UNL d   1       3.711   5.008 -14.655 -0.06 -0.05    -0.248    35.376
ATOM     28  N   UNL d   1       3.243   3.552 -17.161 -0.01 -0.06    -0.248    35.376
ATOM     29 FE   UNL d   1       4.408   3.454 -15.497 -0.02 +0.00    +0.000    35.376
ATOM     30  C   UNL d   1       5.231  -1.069 -19.003 -0.09 +0.02    +0.052    35.376
ATOM     31  C   UNL d   1       6.168  -0.724 -20.160 -0.11 +0.02    +0.115    35.376
ATOM     32  C   UNL d   1       7.605  -1.106 -19.873 -0.12 +0.03    +0.139    35.376
ATOM     33  O   UNL d   1       7.849  -2.198 -19.382 -0.05 -0.17    -0.650    35.376
ATOM     34  O   UNL d   1       8.640  -0.293 -20.188 +0.05 -0.12    -0.776    35.376
ATOM     35  H   UNL d   1       8.886  -0.052 -21.092 +0.02 +0.02    +0.167    35.376
ATOM     36  C   UNL d   1       3.015   2.191 -14.569 -0.19 +0.06    +0.190    35.376
ATOM     37  O   UNL d   1       1.923   1.356 -14.826 -0.32 -0.20    -0.399    35.376
ATOM     38  H   UNL d   1       1.856   1.321 -15.821 +0.08 +0.11    +0.209    35.376
ATOM     39  C   UNL d   1       1.544   2.667 -20.366 -0.01 +0.02    +0.052    35.376
ATOM     40  C   UNL d   1       1.255   1.167 -20.194 -0.07 +0.06    +0.115    35.376
ATOM     41  C   UNL d   1       0.384   0.832 -19.001 +0.02 +0.15    +0.139    35.376
ATOM     42  O   UNL d   1      -0.810   0.632 -19.169 -0.48 -1.22    -0.650    35.376
ATOM     43  O   UNL d   1       0.907   0.661 -17.766 -0.06 -0.78    -0.776    35.376
ATOM     44  H   UNL d   1       1.509  -0.064 -17.553 -0.47 +0.09    +0.167    35.376
ATOM     45  C   UNL d   1       7.305   4.149 -10.842 -0.27 +0.00    +0.004    35.376
ATOM     46  C   UNL d   1       6.552   4.786  -9.950 -0.26 +0.00    +0.012    35.376
ATOM     47  C   UNL d   1       1.192   7.629 -14.247 -0.11 +0.00    +0.004    35.376
ATOM     48  C   UNL d   1       1.112   8.596 -15.164 -0.04 +0.00    +0.012    35.376
TER
ENDMDL
MODEL       31
USER    Run = 31
USER    Cluster Rank = 27
USER    Number of conformations in this cluster = 2
USER  
USER    RMSD from reference structure       = 19.582 A
USER  
USER    Estimated Free Energy of Binding    =   -3.93 kcal/mol  [=(1)+(2)+(3)-(4)]
USER    Estimated Inhibition Constant, Ki   =    1.32 mM (millimolar)  [Temperature = 298.15 K]
USER    
USER    (1) Final Intermolecular Energy     =   -7.51 kcal/mol
USER        vdW + Hbond + desolv Energy     =   -6.81 kcal/mol
USER        Electrostatic Energy            =   -0.70 kcal/mol
USER    (2) Final Total Internal Energy     =   -2.26 kcal/mol
USER    (3) Torsional Free Energy           =   +3.58 kcal/mol
USER    (4) Unbound System's Energy  [=(2)] =   -2.26 kcal/mol
USER    
USER    
USER  
USER    DPF = D:/Protein_go_brrr/autodock/final/mut_D99N/heme_Co/dock.dpf
USER    NEWDPF move	heme_Co_opt.pdbqt
USER    NEWDPF about	8.781000 34.984000 -0.736000
USER    NEWDPF tran0	-2.920622 18.122211 7.793584
USER    NEWDPF axisangle0	-0.035972 0.878596 0.476208 73.089509
USER    NEWDPF quaternion0	-0.021420 0.523161 0.283559 0.803392
USER    NEWDPF dihe0	-82.84 108.21 135.47 93.62 91.83 136.05 -8.71 -113.79 80.11 -75.13 39.16 0.22 
USER  
USER                              x       y       z    vdW   Elec        q     RMS 
ATOM      1  C   UNL d   1      -2.544  19.243   5.972 -0.13 +0.01    +0.064    19.582
ATOM      2  C   UNL d   1      -6.514  17.391   7.821 -0.19 +0.00    +0.064    19.582
ATOM      3  C   UNL d   1      -3.985  15.395  11.349 -0.19 -0.02    +0.064    19.582
ATOM      4  C   UNL d   1       0.028  17.594   9.698 -0.02 +0.00    +0.064    19.582
ATOM      5  C   UNL d   1      -3.810  18.853   6.198 -0.15 +0.01    +0.066    19.582
ATOM      6  C   UNL d   1      -4.883  19.301   5.402 -0.13 -0.01    -0.021    19.582
ATOM      7  C   UNL d   1      -6.035  18.779   5.957 -0.15 -0.01    -0.025    19.582
ATOM      8  C   UNL d   1      -5.615  18.022   7.056 -0.18 +0.01    +0.066    19.582
ATOM      9  C   UNL d   1      -7.482  18.976   5.482 -0.14 +0.01    +0.051    19.582
ATOM     10  C   UNL d   1      -6.174  16.569   8.956 -0.21 -0.00    +0.066    19.582
ATOM     11  C   UNL d   1      -7.057  15.768   9.713 -0.25 +0.00    -0.021    19.582
ATOM     12  C   UNL d   1      -6.293  15.195  10.732 -0.27 -0.00    +0.000    19.582
ATOM     13  C   UNL d   1      -5.001  15.676  10.515 -0.24 -0.01    +0.070    19.582
ATOM     14  C   UNL d   1      -8.510  15.508   9.406 -0.19 -0.02    +0.052    19.582
ATOM     15  C   UNL d   1      -2.608  15.847  11.306 -0.19 -0.02    +0.066    19.582
ATOM     16  C   UNL d   1      -1.642  15.637  12.280 -0.22 +0.01    -0.021    19.582
ATOM     17  C   UNL d   1      -0.483  16.271  11.809 -0.20 -0.00    +0.000    19.582
ATOM     18  C   UNL d   1      -0.831  16.806  10.573 -0.11 -0.00    +0.070    19.582
ATOM     19  C   UNL d   1      -1.848  14.874  13.569 -0.23 -0.02    +0.052    19.582
ATOM     20  C   UNL d   1      -0.312  18.196   8.534 -0.21 +0.00    +0.066    19.582
ATOM     21  C   UNL d   1       0.593  18.958   7.799 -0.18 -0.00    -0.025    19.582
ATOM     22  C   UNL d   1      -0.112  19.423   6.704 -0.18 -0.00    -0.021    19.582
ATOM     23  C   UNL d   1      -1.427  18.927   6.832 -0.20 +0.01    +0.066    19.582
ATOM     24  C   UNL d   1       2.054  19.248   8.133 -0.13 +0.00    +0.051    19.582
ATOM     25  N   UNL d   1      -4.241  18.046   7.226 -0.13 -0.03    -0.248    19.582
ATOM     26  N   UNL d   1      -4.920  16.461   9.408 -0.15 +0.02    -0.248    19.582
ATOM     27  N   UNL d   1      -2.111  16.559  10.320 -0.18 +0.02    -0.248    19.582
ATOM     28  N   UNL d   1      -1.553  18.185   7.940 -0.18 -0.02    -0.248    19.582
ATOM     29 FE   UNL d   1      -3.110  17.260   8.863 -0.05 -0.00    +0.000    19.582
ATOM     30  C   UNL d   1      -4.799  20.254   4.215 -0.09 +0.01    +0.052    19.582
ATOM     31  C   UNL d   1      -5.394  19.607   2.964 -0.07 +0.06    +0.115    19.582
ATOM     32  C   UNL d   1      -4.331  19.089   2.020 -0.13 +0.08    +0.139    19.582
ATOM     33  O   UNL d   1      -4.461  19.259   0.817 -0.03 -0.39    -0.650    19.582
ATOM     34  O   UNL d   1      -3.208  18.482   2.468 +0.04 -0.34    -0.776    19.582
ATOM     35  H   UNL d   1      -2.399  18.950   2.717 +0.04 +0.05    +0.167    19.582
ATOM     36  C   UNL d   1      -3.581  19.025   9.890 -0.03 -0.00    +0.190    19.582
ATOM     37  O   UNL d   1      -4.022  20.339   9.702 +0.00 +0.00    -0.399    19.582
ATOM     38  H   UNL d   1      -4.065  20.457   8.712 +0.02 +0.00    +0.209    19.582
ATOM     39  C   UNL d   1       0.435  20.346   5.632 -0.11 +0.00    +0.052    19.582
ATOM     40  C   UNL d   1       0.794  19.553   4.364 -0.18 +0.01    +0.115    19.582
ATOM     41  C   UNL d   1      -0.254  19.612   3.273 -0.18 +0.02    +0.139    19.582
ATOM     42  O   UNL d   1      -1.028  20.558   3.236 +0.02 -0.08    -0.650    19.582
ATOM     43  O   UNL d   1      -0.304  18.690   2.285 -0.00 -0.12    -0.776    19.582
ATOM     44  H   UNL d   1      -1.137  18.352   1.932 +0.04 +0.04    +0.167    19.582
ATOM     45  C   UNL d   1      -6.628  14.238  11.868 -0.32 -0.00    +0.004    19.582
ATOM     46  C   UNL d   1      -6.691  12.909  11.891 -0.48 -0.00    +0.012    19.582
ATOM     47  C   UNL d   1       0.850  16.430  12.463 -0.16 -0.00    +0.004    19.582
ATOM     48  C   UNL d   1       1.703  15.420  12.654 -0.23 -0.00    +0.012    19.582
TER
ENDMDL
MODEL       30
USER    Run = 30
USER    Cluster Rank = 28
USER    Number of conformations in this cluster = 1
USER  
USER    RMSD from reference structure       = 38.912 A
USER  
USER    Estimated Free Energy of Binding    =   -3.81 kcal/mol  [=(1)+(2)+(3)-(4)]
USER    Estimated Inhibition Constant, Ki   =    1.61 mM (millimolar)  [Temperature = 298.15 K]
USER    
USER    (1) Final Intermolecular Energy     =   -7.39 kcal/mol
USER        vdW + Hbond + desolv Energy     =   -5.13 kcal/mol
USER        Electrostatic Energy            =   -2.26 kcal/mol
USER    (2) Final Total Internal Energy     =   -2.93 kcal/mol
USER    (3) Torsional Free Energy           =   +3.58 kcal/mol
USER    (4) Unbound System's Energy  [=(2)] =   -2.93 kcal/mol
USER    
USER    
USER  
USER    DPF = D:/Protein_go_brrr/autodock/final/mut_D99N/heme_Co/dock.dpf
USER    NEWDPF move	heme_Co_opt.pdbqt
USER    NEWDPF about	8.781000 34.984000 -0.736000
USER    NEWDPF tran0	3.596924 1.236399 -19.413058
USER    NEWDPF axisangle0	-0.924500 0.252228 0.285797 137.190717
USER    NEWDPF quaternion0	-0.860734 0.234831 0.266085 0.364952
USER    NEWDPF dihe0	160.66 48.53 61.14 -99.50 119.13 171.04 -121.13 -49.04 -123.27 175.03 180.00 -180.00 
USER  
USER                              x       y       z    vdW   Elec        q     RMS 
ATOM      1  C   UNL d   1       2.580   2.511 -17.979 -0.04 +0.02    +0.064    38.912
ATOM      2  C   UNL d   1       1.729   1.536 -22.555 -0.01 +0.01    +0.064    38.912
ATOM      3  C   UNL d   1       5.742  -1.047 -22.789 -0.05 +0.01    +0.064    38.912
ATOM      4  C   UNL d   1       6.431  -0.385 -18.019 -0.15 +0.02    +0.064    38.912
ATOM      5  C   UNL d   1       2.071   2.464 -19.222 -0.02 +0.02    +0.066    38.912
ATOM      6  C   UNL d   1       0.835   3.056 -19.546 -0.01 -0.01    -0.021    38.912
ATOM      7  C   UNL d   1       0.582   2.750 -20.869 -0.00 -0.01    -0.025    38.912
ATOM      8  C   UNL d   1       1.682   2.000 -21.300 -0.00 +0.02    +0.066    38.912
ATOM      9  C   UNL d   1      -0.644   3.141 -21.709 +0.00 +0.02    +0.051    38.912
ATOM     10  C   UNL d   1       2.831   0.779 -23.095 -0.01 +0.01    +0.066    38.912
ATOM     11  C   UNL d   1       3.005   0.384 -24.439 -0.01 -0.00    -0.021    38.912
ATOM     12  C   UNL d   1       4.185  -0.364 -24.480 -0.01 +0.00    +0.000    38.912
ATOM     13  C   UNL d   1       4.648  -0.360 -23.164 -0.02 +0.01    +0.070    38.912
ATOM     14  C   UNL d   1       2.141   0.787 -25.606 +0.00 +0.01    +0.052    38.912
ATOM     15  C   UNL d   1       6.329  -1.195 -21.472 -0.10 +0.01    +0.066    38.912
ATOM     16  C   UNL d   1       7.376  -2.038 -21.127 -0.14 -0.00    -0.021    38.912
ATOM     17  C   UNL d   1       7.577  -1.852 -19.752 -0.16 +0.00    +0.000    38.912
ATOM     18  C   UNL d   1       6.644  -0.895 -19.368 -0.12 +0.02    +0.070    38.912
ATOM     19  C   UNL d   1       8.115  -2.952 -22.079 -0.14 +0.00    +0.052    38.912
ATOM     20  C   UNL d   1       5.475   0.481 -17.607 -0.10 +0.02    +0.066    38.912
ATOM     21  C   UNL d   1       5.348   0.869 -16.275 -0.13 -0.01    -0.025    38.912
ATOM     22  C   UNL d   1       4.263   1.727 -16.238 -0.10 -0.01    -0.021    38.912
ATOM     23  C   UNL d   1       3.771   1.810 -17.558 -0.06 +0.02    +0.066    38.912
ATOM     24  C   UNL d   1       6.205   0.429 -15.091 -0.26 +0.01    +0.051    38.912
ATOM     25  N   UNL d   1       2.623   1.813 -20.302 -0.00 -0.07    -0.248    38.912
ATOM     26  N   UNL d   1       3.859   0.379 -22.339 -0.00 -0.04    -0.248    38.912
ATOM     27  N   UNL d   1       5.898  -0.548 -20.412 -0.05 -0.05    -0.248    38.912
ATOM     28  N   UNL d   1       4.500   1.056 -18.389 -0.03 -0.06    -0.248    38.912
ATOM     29 FE   UNL d   1       4.358   0.563 -20.357 -0.02 +0.00    +0.000    38.912
ATOM     30  C   UNL d   1      -0.091   3.807 -18.596 -0.03 +0.02    +0.052    38.912
ATOM     31  C   UNL d   1      -1.173   2.875 -18.051 -0.09 +0.09    +0.115    38.912
ATOM     32  C   UNL d   1      -0.595   1.640 -17.395 -0.10 +0.18    +0.139    38.912
ATOM     33  O   UNL d   1      -0.661   1.517 -16.181 -0.19 -0.82    -0.650    38.912
ATOM     34  O   UNL d   1      -0.045   0.635 -18.117 -0.18 -1.43    -0.776    38.912
ATOM     35  H   UNL d   1       0.605   0.009 -17.769 -0.45 +0.24    +0.167    38.912
ATOM     36  C   UNL d   1       3.084  -1.035 -19.889 -0.19 +0.06    +0.190    38.912
ATOM     37  O   UNL d   1       1.739  -1.415 -19.860 -0.16 -0.21    -0.399    38.912
ATOM     38  H   UNL d   1       1.319  -0.821 -19.176 -0.50 +0.15    +0.209    38.912
ATOM     39  C   UNL d   1       3.697   2.375 -14.989 -0.19 +0.01    +0.052    38.912
ATOM     40  C   UNL d   1       2.831   1.375 -14.203 -0.35 +0.04    +0.115    38.912
ATOM     41  C   UNL d   1       2.530   0.091 -14.947 -0.40 +0.06    +0.139    38.912
ATOM     42  O   UNL d   1       3.301  -0.853 -14.847 -0.08 -0.24    -0.650    38.912
ATOM     43  O   UNL d   1       1.387  -0.072 -15.649 +0.16 -0.50    -0.776    38.912
ATOM     44  H   UNL d   1       1.196   0.429 -16.453 -0.11 +0.12    +0.167    38.912
ATOM     45  C   UNL d   1       4.933  -1.063 -25.607 -0.01 +0.00    +0.004    38.912
ATOM     46  C   UNL d   1       5.073  -2.357 -25.882 -0.02 +0.00    +0.012    38.912
ATOM     47  C   UNL d   1       8.525  -2.539 -18.825 -0.30 +0.00    +0.004    38.912
ATOM     48  C   UNL d   1       9.707  -2.030 -18.469 -0.22 +0.01    +0.012    38.912
TER
ENDMDL
MODEL       93
USER    Run = 93
USER    Cluster Rank = 29
USER    Number of conformations in this cluster = 2
USER  
USER    RMSD from reference structure       = 20.308 A
USER  
USER    Estimated Free Energy of Binding    =   -3.79 kcal/mol  [=(1)+(2)+(3)-(4)]
USER    Estimated Inhibition Constant, Ki   =    1.66 mM (millimolar)  [Temperature = 298.15 K]
USER    
USER    (1) Final Intermolecular Energy     =   -7.37 kcal/mol
USER        vdW + Hbond + desolv Energy     =   -6.79 kcal/mol
USER        Electrostatic Energy            =   -0.58 kcal/mol
USER    (2) Final Total Internal Energy     =   -2.15 kcal/mol
USER    (3) Torsional Free Energy           =   +3.58 kcal/mol
USER    (4) Unbound System's Energy  [=(2)] =   -2.15 kcal/mol
USER    
USER    
USER  
USER    DPF = D:/Protein_go_brrr/autodock/final/mut_D99N/heme_Co/dock.dpf
USER    NEWDPF move	heme_Co_opt.pdbqt
USER    NEWDPF about	8.781000 34.984000 -0.736000
USER    NEWDPF tran0	-3.415227 17.478479 8.254780
USER    NEWDPF axisangle0	0.095758 0.921077 0.377422 62.544625
USER    NEWDPF quaternion0	0.049709 0.478137 0.195922 0.854710
USER    NEWDPF dihe0	128.26 135.32 120.26 103.26 132.26 89.98 -22.23 -41.65 55.97 -141.00 150.13 143.55 
USER  
USER                              x       y       z    vdW   Elec        q     RMS 
ATOM      1  C   UNL d   1      -3.448  18.261   6.229 -0.10 +0.01    +0.064    20.308
ATOM      2  C   UNL d   1      -6.859  16.474   9.019 -0.23 -0.01    +0.064    20.308
ATOM      3  C   UNL d   1      -3.615  15.394  12.357 -0.12 -0.02    +0.064    20.308
ATOM      4  C   UNL d   1      -0.170  17.562   9.692 -0.08 +0.00    +0.064    20.308
ATOM      5  C   UNL d   1      -4.613  17.819   6.731 -0.23 +0.01    +0.066    20.308
ATOM      6  C   UNL d   1      -5.838  18.019   6.065 -0.23 -0.01    -0.021    20.308
ATOM      7  C   UNL d   1      -6.826  17.519   6.889 -0.14 -0.00    -0.025    20.308
ATOM      8  C   UNL d   1      -6.162  17.021   8.015 -0.19 +0.00    +0.066    20.308
ATOM      9  C   UNL d   1      -8.342  17.504   6.641 -0.03 +0.00    +0.051    20.308
ATOM     10  C   UNL d   1      -6.260  15.912  10.205 -0.20 -0.01    +0.066    20.308
ATOM     11  C   UNL d   1      -6.923  15.199  11.228 -0.21 +0.00    -0.021    20.308
ATOM     12  C   UNL d   1      -5.953  14.893  12.186 -0.20 -0.00    +0.000    20.308
ATOM     13  C   UNL d   1      -4.771  15.429  11.672 -0.18 -0.02    +0.070    20.308
ATOM     14  C   UNL d   1      -8.367  14.768  11.223 -0.28 -0.02    +0.052    20.308
ATOM     15  C   UNL d   1      -2.320  15.941  12.003 -0.17 -0.01    +0.066    20.308
ATOM     16  C   UNL d   1      -1.199  15.999  12.820 -0.19 +0.00    -0.021    20.308
ATOM     17  C   UNL d   1      -0.204  16.625  12.056 -0.16 -0.00    +0.000    20.308
ATOM     18  C   UNL d   1      -0.793  16.886  10.824 -0.13 -0.00    +0.070    20.308
ATOM     19  C   UNL d   1      -1.120  15.479  14.238 -0.27 -0.01    +0.052    20.308
ATOM     20  C   UNL d   1      -0.749  17.904   8.516 -0.22 +0.00    +0.066    20.308
ATOM     21  C   UNL d   1      -0.057  18.585   7.517 -0.25 -0.00    -0.025    20.308
ATOM     22  C   UNL d   1      -0.968  18.775   6.495 -0.22 -0.00    -0.021    20.308
ATOM     23  C   UNL d   1      -2.184  18.206   6.929 -0.18 +0.01    +0.066    20.308
ATOM     24  C   UNL d   1       1.397  19.050   7.543 -0.18 +0.00    +0.051    20.308
ATOM     25  N   UNL d   1      -4.789  17.188   7.942 -0.17 -0.01    -0.248    20.308
ATOM     26  N   UNL d   1      -4.948  15.995  10.449 -0.13 +0.03    -0.248    20.308
ATOM     27  N   UNL d   1      -2.062  16.493  10.838 -0.16 +0.03    -0.248    20.308
ATOM     28  N   UNL d   1      -2.057  17.680   8.153 -0.19 -0.01    -0.248    20.308
ATOM     29 FE   UNL d   1      -3.342  16.821   9.474 -0.05 -0.00    +0.000    20.308
ATOM     30  C   UNL d   1      -6.042  18.734   4.733 -0.19 +0.02    +0.052    20.308
ATOM     31  C   UNL d   1      -7.074  19.853   4.877 -0.08 +0.03    +0.115    20.308
ATOM     32  C   UNL d   1      -8.200  19.732   3.873 -0.08 +0.05    +0.139    20.308
ATOM     33  O   UNL d   1      -8.784  20.739   3.501 +0.01 -0.14    -0.650    20.308
ATOM     34  O   UNL d   1      -8.554  18.544   3.331 -0.20 -0.58    -0.776    20.308
ATOM     35  H   UNL d   1      -9.447  18.173   3.369 +0.02 +0.08    +0.167    20.308
ATOM     36  C   UNL d   1      -3.845  18.704  10.244 -0.03 -0.01    +0.190    20.308
ATOM     37  O   UNL d   1      -3.811  20.072   9.954 +0.00 +0.01    -0.399    20.308
ATOM     38  H   UNL d   1      -3.749  20.122   8.960 +0.02 +0.00    +0.209    20.308
ATOM     39  C   UNL d   1      -0.697  19.520   5.202 -0.20 +0.01    +0.052    20.308
ATOM     40  C   UNL d   1      -1.561  20.789   5.115 -0.07 +0.01    +0.115    20.308
ATOM     41  C   UNL d   1      -1.827  21.456   6.448 -0.03 +0.01    +0.139    20.308
ATOM     42  O   UNL d   1      -1.123  22.391   6.801 +0.01 -0.02    -0.650    20.308
ATOM     43  O   UNL d   1      -2.878  21.102   7.222 +0.03 -0.04    -0.776    20.308
ATOM     44  H   UNL d   1      -2.778  20.848   8.148 +0.02 +0.01    +0.167    20.308
ATOM     45  C   UNL d   1      -6.002  14.144  13.511 -0.26 -0.00    +0.004    20.308
ATOM     46  C   UNL d   1      -5.747  12.870  13.795 -0.41 -0.00    +0.012    20.308
ATOM     47  C   UNL d   1       1.187  17.013  12.437 -0.12 -0.00    +0.004    20.308
ATOM     48  C   UNL d   1       2.278  16.419  11.947 -0.15 -0.00    +0.012    20.308
TER
ENDMDL
MODEL       55
USER    Run = 55
USER    Cluster Rank = 30
USER    Number of conformations in this cluster = 1
USER  
USER    RMSD from reference structure       = 40.199 A
USER  
USER    Estimated Free Energy of Binding    =   -3.78 kcal/mol  [=(1)+(2)+(3)-(4)]
USER    Estimated Inhibition Constant, Ki   =    1.69 mM (millimolar)  [Temperature = 298.15 K]
USER    
USER    (1) Final Intermolecular Energy     =   -7.36 kcal/mol
USER        vdW + Hbond + desolv Energy     =   -5.52 kcal/mol
USER        Electrostatic Energy            =   -1.85 kcal/mol
USER    (2) Final Total Internal Energy     =   -2.41 kcal/mol
USER    (3) Torsional Free Energy           =   +3.58 kcal/mol
USER    (4) Unbound System's Energy  [=(2)] =   -2.41 kcal/mol
USER    
USER    
USER  
USER    DPF = D:/Protein_go_brrr/autodock/final/mut_D99N/heme_Co/dock.dpf
USER    NEWDPF move	heme_Co_opt.pdbqt
USER    NEWDPF about	8.781000 34.984000 -0.736000
USER    NEWDPF tran0	-13.633652 0.396734 13.902972
USER    NEWDPF axisangle0	-0.820780 0.018162 0.570956 -174.054999
USER    NEWDPF quaternion0	-0.819675 0.018138 0.570188 -0.051857
USER    NEWDPF dihe0	-14.98 108.08 133.35 127.47 -33.89 151.11 -128.35 -55.27 161.09 -98.87 10.91 -11.09 
USER  
USER                              x       y       z    vdW   Elec        q     RMS 
ATOM      1  C   UNL d   1     -13.561  -0.246  15.976 -0.06 +0.04    +0.064    40.199
ATOM      2  C   UNL d   1     -16.369   2.830  13.682 -0.08 +0.03    +0.064    40.199
ATOM      3  C   UNL d   1     -13.796   2.263   9.695 -0.13 +0.02    +0.064    40.199
ATOM      4  C   UNL d   1     -11.152  -1.170  11.906 -0.26 +0.02    +0.064    40.199
ATOM      5  C   UNL d   1     -14.495   0.663  15.652 -0.03 +0.05    +0.066    40.199
ATOM      6  C   UNL d   1     -15.505   1.050  16.554 -0.06 -0.01    -0.021    40.199
ATOM      7  C   UNL d   1     -16.330   1.926  15.875 -0.05 -0.01    -0.025    40.199
ATOM      8  C   UNL d   1     -15.780   2.048  14.595 -0.08 +0.04    +0.066    40.199
ATOM      9  C   UNL d   1     -17.593   2.628  16.398 -0.01 +0.02    +0.051    40.199
ATOM     10  C   UNL d   1     -15.861   3.038  12.349 -0.10 +0.03    +0.066    40.199
ATOM     11  C   UNL d   1     -16.352   3.951  11.391 -0.08 -0.01    -0.021    40.199
ATOM     12  C   UNL d   1     -15.582   3.768  10.240 -0.09 +0.00    +0.000    40.199
ATOM     13  C   UNL d   1     -14.671   2.768  10.583 -0.12 +0.03    +0.070    40.199
ATOM     14  C   UNL d   1     -17.424   4.987  11.615 -0.06 +0.01    +0.052    40.199
ATOM     15  C   UNL d   1     -12.826   1.199   9.863 -0.16 +0.02    +0.066    40.199
ATOM     16  C   UNL d   1     -12.052   0.626   8.865 -0.23 -0.01    -0.021    40.199
ATOM     17  C   UNL d   1     -11.289  -0.367   9.497 -0.32 +0.00    +0.000    40.199
ATOM     18  C   UNL d   1     -11.648  -0.309  10.839 -0.24 +0.02    +0.070    40.199
ATOM     19  C   UNL d   1     -12.066   1.025   7.406 -0.24 +0.02    +0.052    40.199
ATOM     20  C   UNL d   1     -11.549  -1.190  13.201 -0.19 +0.02    +0.066    40.199
ATOM     21  C   UNL d   1     -11.023  -2.090  14.125 -0.22 -0.01    -0.025    40.199
ATOM     22  C   UNL d   1     -11.678  -1.827  15.315 -0.16 -0.01    -0.021    40.199
ATOM     23  C   UNL d   1     -12.586  -0.780  15.052 -0.12 +0.03    +0.066    40.199
ATOM     24  C   UNL d   1      -9.963  -3.161  13.884 -0.19 +0.01    +0.051    40.199
ATOM     25  N   UNL d   1     -14.638   1.281  14.431 -0.06 -0.19    -0.248    40.199
ATOM     26  N   UNL d   1     -14.805   2.367  11.876 -0.08 -0.11    -0.248    40.199
ATOM     27  N   UNL d   1     -12.587   0.614  11.016 -0.11 -0.09    -0.248    40.199
ATOM     28  N   UNL d   1     -12.513  -0.393  13.773 -0.10 -0.12    -0.248    40.199
ATOM     29 FE   UNL d   1     -13.550   0.926  12.624 -0.04 +0.00    +0.000    40.199
ATOM     30  C   UNL d   1     -15.704   0.532  17.974 -0.03 +0.02    +0.052    40.199
ATOM     31  C   UNL d   1     -15.038   1.464  18.985 -0.03 +0.04    +0.115    40.199
ATOM     32  C   UNL d   1     -13.969   2.330  18.354 +0.01 +0.13    +0.139    40.199
ATOM     33  O   UNL d   1     -14.216   3.499  18.097 -0.51 -0.85    -0.650    40.199
ATOM     34  O   UNL d   1     -12.722   1.865  18.107 +0.12 -0.78    -0.776    40.199
ATOM     35  H   UNL d   1     -12.339   1.084  18.531 +0.03 +0.10    +0.167    40.199
ATOM     36  C   UNL d   1     -14.979  -0.544  12.185 -0.02 +0.05    +0.190    40.199
ATOM     37  O   UNL d   1     -16.107  -1.190  12.700 +0.00 -0.08    -0.399    40.199
ATOM     38  H   UNL d   1     -16.202  -0.838  13.629 +0.01 +0.05    +0.209    40.199
ATOM     39  C   UNL d   1     -11.483  -2.589  16.613 -0.11 +0.01    +0.052    40.199
ATOM     40  C   UNL d   1     -10.373  -1.944  17.459 -0.18 +0.03    +0.115    40.199
ATOM     41  C   UNL d   1     -10.782  -0.662  18.154 -0.17 +0.05    +0.139    40.199
ATOM     42  O   UNL d   1     -11.383  -0.723  19.217 +0.01 -0.17    -0.650    40.199
ATOM     43  O   UNL d   1     -10.425   0.550  17.675 +0.03 -0.43    -0.776    40.199
ATOM     44  H   UNL d   1     -11.027   1.306  17.674 +0.06 +0.14    +0.167    40.199
ATOM     45  C   UNL d   1     -15.588   4.432   8.869 -0.09 +0.00    +0.004    40.199
ATOM     46  C   UNL d   1     -14.644   5.126   8.239 -0.11 +0.00    +0.012    40.199
ATOM     47  C   UNL d   1     -10.327  -1.348   8.912 -0.42 +0.00    +0.004    40.199
ATOM     48  C   UNL d   1     -10.643  -2.193   7.928 -0.44 +0.01    +0.012    40.199
TER
ENDMDL
MODEL       32
USER    Run = 32
USER    Cluster Rank = 31
USER    Number of conformations in this cluster = 2
USER  
USER    RMSD from reference structure       = 35.533 A
USER  
USER    Estimated Free Energy of Binding    =   -3.77 kcal/mol  [=(1)+(2)+(3)-(4)]
USER    Estimated Inhibition Constant, Ki   =    1.72 mM (millimolar)  [Temperature = 298.15 K]
USER    
USER    (1) Final Intermolecular Energy     =   -7.35 kcal/mol
USER        vdW + Hbond + desolv Energy     =   -7.25 kcal/mol
USER        Electrostatic Energy            =   -0.10 kcal/mol
USER    (2) Final Total Internal Energy     =   -2.15 kcal/mol
USER    (3) Torsional Free Energy           =   +3.58 kcal/mol
USER    (4) Unbound System's Energy  [=(2)] =   -2.15 kcal/mol
USER    
USER    
USER  
USER    DPF = D:/Protein_go_brrr/autodock/final/mut_D99N/heme_Co/dock.dpf
USER    NEWDPF move	heme_Co_opt.pdbqt
USER    NEWDPF about	8.781000 34.984000 -0.736000
USER    NEWDPF tran0	18.471967 -1.839976 1.076330
USER    NEWDPF axisangle0	0.451681 0.573944 0.683061 115.672358
USER    NEWDPF quaternion0	0.382362 0.485860 0.578231 0.532342
USER    NEWDPF dihe0	166.53 114.68 27.54 37.15 144.57 144.69 -126.91 132.59 -136.81 44.42 -179.20 4.67 
USER  
USER                              x       y       z    vdW   Elec        q     RMS 
ATOM      1  C   UNL d   1      19.301  -2.172  -0.903 -0.18 -0.01    +0.064    35.533
ATOM      2  C   UNL d   1      16.217   1.036   0.773 -0.15 -0.00    +0.064    35.533
ATOM      3  C   UNL d   1      16.232  -1.120   5.036 -0.22 -0.00    +0.064    35.533
ATOM      4  C   UNL d   1      19.674  -4.177   3.463 -0.10 +0.01    +0.064    35.533
ATOM      5  C   UNL d   1      18.430  -1.158  -0.769 -0.16 -0.01    +0.066    35.533
ATOM      6  C   UNL d   1      18.198  -0.231  -1.803 -0.17 +0.00    -0.021    35.533
ATOM      7  C   UNL d   1      17.319   0.711  -1.304 -0.12 +0.00    -0.025    35.533
ATOM      8  C   UNL d   1      17.041   0.309   0.007 -0.14 -0.01    +0.066    35.533
ATOM      9  C   UNL d   1      16.756   1.948  -2.020 -0.06 -0.00    +0.051    35.533
ATOM     10  C   UNL d   1      15.851   0.687   2.123 -0.10 -0.00    +0.066    35.533
ATOM     11  C   UNL d   1      14.886   1.330   2.928 -0.22 -0.00    -0.021    35.533
ATOM     12  C   UNL d   1      14.908   0.678   4.164 -0.29 -0.00    +0.000    35.533
ATOM     13  C   UNL d   1      15.873  -0.319   4.018 -0.20 -0.00    +0.070    35.533
ATOM     14  C   UNL d   1      13.950   2.428   2.494 -0.24 +0.00    +0.052    35.533
ATOM     15  C   UNL d   1      17.241  -2.161   5.076 -0.22 -0.01    +0.066    35.533
ATOM     16  C   UNL d   1      17.664  -2.855   6.201 -0.22 +0.00    -0.021    35.533
ATOM     17  C   UNL d   1      18.658  -3.736   5.752 -0.14 +0.00    +0.000    35.533
ATOM     18  C   UNL d   1      18.751  -3.521   4.381 -0.14 +0.00    +0.070    35.533
ATOM     19  C   UNL d   1      17.131  -2.661   7.603 -0.23 -0.00    +0.052    35.533
ATOM     20  C   UNL d   1      19.842  -3.924   2.143 -0.16 -0.00    +0.066    35.533
ATOM     21  C   UNL d   1      20.788  -4.596   1.372 -0.23 -0.00    -0.025    35.533
ATOM     22  C   UNL d   1      20.684  -4.059   0.102 -0.22 +0.00    -0.021    35.533
ATOM     23  C   UNL d   1      19.679  -3.070   0.164 -0.19 -0.01    +0.066    35.533
ATOM     24  C   UNL d   1      21.758  -5.683   1.827 -0.09 +0.01    +0.051    35.533
ATOM     25  N   UNL d   1      17.710  -0.849   0.363 -0.08 +0.02    -0.248    35.533
ATOM     26  N   UNL d   1      16.402  -0.348   2.765 -0.09 +0.01    -0.248    35.533
ATOM     27  N   UNL d   1      17.914  -2.556   4.018 -0.15 +0.02    -0.248    35.533
ATOM     28  N   UNL d   1      19.169  -2.983   1.399 -0.12 +0.02    -0.248    35.533
ATOM     29 FE   UNL d   1      17.820  -1.756   2.298 -0.04 -0.00    +0.000    35.533
ATOM     30  C   UNL d   1      18.860  -0.215  -3.177 -0.23 -0.01    +0.052    35.533
ATOM     31  C   UNL d   1      20.070   0.719  -3.179 -0.09 -0.00    +0.115    35.533
ATOM     32  C   UNL d   1      20.894   0.599  -1.915 -0.03 -0.00    +0.139    35.533
ATOM     33  O   UNL d   1      21.949  -0.017  -1.943 +0.01 -0.01    -0.650    35.533
ATOM     34  O   UNL d   1      20.524   1.195  -0.758 +0.02 +0.00    -0.776    35.533
ATOM     35  H   UNL d   1      20.872   0.955   0.112 +0.01 +0.00    +0.167    35.533
ATOM     36  C   UNL d   1      19.334  -0.373   2.735 -0.02 -0.00    +0.190    35.533
ATOM     37  O   UNL d   1      20.165   0.590   2.154 +0.00 -0.00    -0.399    35.533
ATOM     38  H   UNL d   1      19.903   0.608   1.191 +0.01 -0.00    +0.209    35.533
ATOM     39  C   UNL d   1      21.549  -4.435  -1.086 -0.20 +0.00    +0.052    35.533
ATOM     40  C   UNL d   1      20.757  -5.295  -2.085 -0.31 +0.01    +0.115    35.533
ATOM     41  C   UNL d   1      21.555  -6.418  -2.713 -0.24 +0.02    +0.139    35.533
ATOM     42  O   UNL d   1      22.173  -6.207  -3.747 -0.03 -0.10    -0.650    35.533
ATOM     43  O   UNL d   1      21.675  -7.625  -2.116 +0.01 -0.02    -0.776    35.533
ATOM     44  H   UNL d   1      20.967  -8.016  -1.589 -0.45 -0.03    +0.167    35.533
ATOM     45  C   UNL d   1      14.120   0.870   5.453 -0.34 +0.00    +0.004    35.533
ATOM     46  C   UNL d   1      12.891   1.335   5.655 -0.37 +0.00    +0.012    35.533
ATOM     47  C   UNL d   1      19.513  -4.684   6.528 -0.15 +0.00    +0.004    35.533
ATOM     48  C   UNL d   1      19.566  -5.996   6.286 -0.21 +0.00    +0.012    35.533
TER
ENDMDL
MODEL       27
USER    Run = 27
USER    Cluster Rank = 32
USER    Number of conformations in this cluster = 1
USER  
USER    RMSD from reference structure       = 22.205 A
USER  
USER    Estimated Free Energy of Binding    =   -3.77 kcal/mol  [=(1)+(2)+(3)-(4)]
USER    Estimated Inhibition Constant, Ki   =    1.72 mM (millimolar)  [Temperature = 298.15 K]
USER    
USER    (1) Final Intermolecular Energy     =   -7.35 kcal/mol
USER        vdW + Hbond + desolv Energy     =   -7.69 kcal/mol
USER        Electrostatic Energy            =   +0.34 kcal/mol
USER    (2) Final Total Internal Energy     =   -1.89 kcal/mol
USER    (3) Torsional Free Energy           =   +3.58 kcal/mol
USER    (4) Unbound System's Energy  [=(2)] =   -1.89 kcal/mol
USER    
USER    
USER  
USER    DPF = D:/Protein_go_brrr/autodock/final/mut_D99N/heme_Co/dock.dpf
USER    NEWDPF move	heme_Co_opt.pdbqt
USER    NEWDPF about	8.781000 34.984000 -0.736000
USER    NEWDPF tran0	-4.209586 16.271982 10.626284
USER    NEWDPF axisangle0	-0.254242 0.743743 0.618229 -94.104949
USER    NEWDPF quaternion0	-0.186100 0.544404 0.452530 -0.681328
USER    NEWDPF dihe0	19.37 105.44 -151.29 119.63 -98.92 78.34 -129.03 116.30 34.77 150.03 -34.27 172.97 
USER  
USER                              x       y       z    vdW   Elec        q     RMS 
ATOM      1  C   UNL d   1      -5.101  15.097  12.220 -0.17 -0.02    +0.064    22.205
ATOM      2  C   UNL d   1      -0.783  17.019  11.700 -0.15 -0.00    +0.064    22.205
ATOM      3  C   UNL d   1      -1.901  18.426   7.273 -0.21 +0.01    +0.064    22.205
ATOM      4  C   UNL d   1      -6.444  16.811   7.921 -0.15 +0.00    +0.064    22.205
ATOM      5  C   UNL d   1      -3.827  15.487  12.389 -0.13 -0.02    +0.066    22.205
ATOM      6  C   UNL d   1      -3.149  15.314  13.612 -0.19 +0.01    -0.021    22.205
ATOM      7  C   UNL d   1      -1.905  15.894  13.463 -0.19 +0.01    -0.025    22.205
ATOM      8  C   UNL d   1      -1.870  16.381  12.152 -0.16 -0.01    +0.066    22.205
ATOM      9  C   UNL d   1      -0.781  15.994  14.506 -0.20 -0.01    +0.051    22.205
ATOM     10  C   UNL d   1      -0.647  17.531  10.359 -0.15 -0.00    +0.066    22.205
ATOM     11  C   UNL d   1       0.517  18.084   9.782 -0.08 -0.00    -0.021    22.205
ATOM     12  C   UNL d   1       0.164  18.482   8.489 -0.19 +0.00    +0.000    22.205
ATOM     13  C   UNL d   1      -1.181  18.132   8.370 -0.23 +0.00    +0.070    22.205
ATOM     14  C   UNL d   1       1.888  18.131  10.407 -0.10 +0.00    +0.052    22.205
ATOM     15  C   UNL d   1      -3.306  18.187   7.003 -0.18 +0.01    +0.066    22.205
ATOM     16  C   UNL d   1      -4.023  18.646   5.907 -0.17 -0.00    -0.021    22.205
ATOM     17  C   UNL d   1      -5.334  18.185   6.091 -0.24 +0.00    +0.000    22.205
ATOM     18  C   UNL d   1      -5.309  17.464   7.280 -0.24 +0.01    +0.070    22.205
ATOM     19  C   UNL d   1      -3.459  19.474   4.774 -0.14 +0.01    +0.052    22.205
ATOM     20  C   UNL d   1      -6.463  16.179   9.119 -0.23 -0.01    +0.066    22.205
ATOM     21  C   UNL d   1      -7.625  15.621   9.647 -0.26 +0.01    -0.025    22.205
ATOM     22  C   UNL d   1      -7.262  15.094  10.873 -0.25 +0.00    -0.021    22.205
ATOM     23  C   UNL d   1      -5.888  15.369  11.038 -0.20 -0.01    +0.066    22.205
ATOM     24  C   UNL d   1      -9.019  15.609   9.024 +0.01 -0.04    +0.051    22.205
ATOM     25  N   UNL d   1      -3.046  16.137  11.462 -0.13 +0.05    -0.248    22.205
ATOM     26  N   UNL d   1      -1.655  17.506   9.481 -0.16 +0.00    -0.248    22.205
ATOM     27  N   UNL d   1      -4.092  17.512   7.811 -0.16 -0.02    -0.248    22.205
ATOM     28  N   UNL d   1      -5.401  16.028   9.980 -0.14 +0.03    -0.248    22.205
ATOM     29 FE   UNL d   1      -3.603  16.864   9.528 -0.05 -0.00    +0.000    22.205
ATOM     30  C   UNL d   1      -3.713  14.691  14.885 -0.28 -0.01    +0.052    22.205
ATOM     31  C   UNL d   1      -4.371  13.346  14.579 -0.30 -0.04    +0.115    22.205
ATOM     32  C   UNL d   1      -5.556  13.065  15.477 -0.23 -0.03    +0.139    22.205
ATOM     33  O   UNL d   1      -6.688  13.234  15.049 -0.02 +0.16    -0.650    22.205
ATOM     34  O   UNL d   1      -5.406  12.583  16.733 -0.62 +0.24    -0.776    22.205
ATOM     35  H   UNL d   1      -4.570  12.582  17.219 -0.25 -0.12    +0.167    22.205
ATOM     36  C   UNL d   1      -4.165  18.643  10.483 -0.03 -0.01    +0.190    22.205
ATOM     37  O   UNL d   1      -5.167  19.216  11.273 +0.00 +0.02    -0.399    22.205
ATOM     38  H   UNL d   1      -5.894  18.532  11.301 +0.02 -0.02    +0.209    22.205
ATOM     39  C   UNL d   1      -8.203  14.423  11.855 -0.26 -0.01    +0.052    22.205
ATOM     40  C   UNL d   1      -8.884  15.467  12.756 -0.10 -0.03    +0.115    22.205
ATOM     41  C   UNL d   1      -8.004  16.644  13.122 -0.03 -0.03    +0.139    22.205
ATOM     42  O   UNL d   1      -7.543  16.717  14.252 +0.03 +0.10    -0.650    22.205
ATOM     43  O   UNL d   1      -7.642  17.572  12.209 +0.04 +0.13    -0.776    22.205
ATOM     44  H   UNL d   1      -6.778  18.003  12.220 +0.01 -0.02    +0.167    22.205
ATOM     45  C   UNL d   1       0.943  19.132   7.354 -0.21 +0.00    +0.004    22.205
ATOM     46  C   UNL d   1       1.321  18.647   6.174 -0.30 +0.00    +0.012    22.205
ATOM     47  C   UNL d   1      -6.554  18.425   5.264 -0.19 +0.00    +0.004    22.205
ATOM     48  C   UNL d   1      -7.660  19.009   5.733 -0.13 +0.00    +0.012    22.205
TER
ENDMDL
MODEL       40
USER    Run = 40
USER    Cluster Rank = 33
USER    Number of conformations in this cluster = 1
USER  
USER    RMSD from reference structure       = 16.534 A
USER  
USER    Estimated Free Energy of Binding    =   -3.72 kcal/mol  [=(1)+(2)+(3)-(4)]
USER    Estimated Inhibition Constant, Ki   =    1.87 mM (millimolar)  [Temperature = 298.15 K]
USER    
USER    (1) Final Intermolecular Energy     =   -7.30 kcal/mol
USER        vdW + Hbond + desolv Energy     =   -6.28 kcal/mol
USER        Electrostatic Energy            =   -1.02 kcal/mol
USER    (2) Final Total Internal Energy     =   -2.20 kcal/mol
USER    (3) Torsional Free Energy           =   +3.58 kcal/mol
USER    (4) Unbound System's Energy  [=(2)] =   -2.20 kcal/mol
USER    
USER    
USER  
USER    DPF = D:/Protein_go_brrr/autodock/final/mut_D99N/heme_Co/dock.dpf
USER    NEWDPF move	heme_Co_opt.pdbqt
USER    NEWDPF about	8.781000 34.984000 -0.736000
USER    NEWDPF tran0	0.061180 17.811573 0.595574
USER    NEWDPF axisangle0	0.911879 -0.410458 -0.000530 82.695019
USER    NEWDPF quaternion0	0.602410 -0.271158 -0.000350 0.750717
USER    NEWDPF dihe0	-160.49 99.51 -103.46 117.78 83.34 137.19 42.32 -45.68 151.42 42.72 -154.40 164.98 
USER  
USER                              x       y       z    vdW   Elec        q     RMS 
ATOM      1  C   UNL d   1      -2.098  17.811   0.825 -0.11 +0.02    +0.064    16.534
ATOM      2  C   UNL d   1       1.365  20.049   3.192 -0.15 +0.00    +0.064    16.534
ATOM      3  C   UNL d   1       4.666  17.723   0.639 -0.12 +0.00    +0.064    16.534
ATOM      4  C   UNL d   1       1.148  15.713  -2.054 -0.22 -0.00    +0.064    16.534
ATOM      5  C   UNL d   1      -1.394  18.566   1.684 -0.14 +0.01    +0.066    16.534
ATOM      6  C   UNL d   1      -2.017  19.465   2.572 -0.15 -0.00    -0.021    16.534
ATOM      7  C   UNL d   1      -1.006  20.128   3.240 -0.13 -0.00    -0.025    16.534
ATOM      8  C   UNL d   1       0.188  19.595   2.744 -0.18 +0.01    +0.066    16.534
ATOM      9  C   UNL d   1      -1.144  21.225   4.307 -0.06 +0.00    +0.051    16.534
ATOM     10  C   UNL d   1       2.644  19.543   2.759 -0.13 +0.00    +0.066    16.534
ATOM     11  C   UNL d   1       3.908  19.878   3.292 -0.09 -0.00    -0.021    16.534
ATOM     12  C   UNL d   1       4.852  19.183   2.531 -0.10 +0.00    +0.000    16.534
ATOM     13  C   UNL d   1       4.096  18.467   1.603 -0.11 +0.00    +0.070    16.534
ATOM     14  C   UNL d   1       4.166  20.732   4.506 -0.05 +0.00    +0.052    16.534
ATOM     15  C   UNL d   1       4.042  16.965  -0.428 -0.11 +0.00    +0.066    16.534
ATOM     16  C   UNL d   1       4.693  16.335  -1.480 -0.13 -0.00    -0.021    16.534
ATOM     17  C   UNL d   1       3.682  15.756  -2.260 -0.17 -0.00    +0.000    16.534
ATOM     18  C   UNL d   1       2.491  16.065  -1.612 -0.19 +0.00    +0.070    16.534
ATOM     19  C   UNL d   1       6.190  16.309  -1.695 -0.07 +0.00    +0.052    16.534
ATOM     20  C   UNL d   1      -0.028  16.076  -1.487 -0.22 +0.00    +0.066    16.534
ATOM     21  C   UNL d   1      -1.258  15.706  -2.026 -0.29 -0.00    -0.025    16.534
ATOM     22  C   UNL d   1      -2.212  16.272  -1.201 -0.26 -0.01    -0.021    16.534
ATOM     23  C   UNL d   1      -1.511  16.975  -0.198 -0.16 +0.01    +0.066    16.534
ATOM     24  C   UNL d   1      -1.513  14.870  -3.278 -0.31 +0.00    +0.051    16.534
ATOM     25  N   UNL d   1      -0.022  18.621   1.782 -0.17 -0.03    -0.248    16.534
ATOM     26  N   UNL d   1       2.759  18.642   1.778 -0.08 -0.01    -0.248    16.534
ATOM     27  N   UNL d   1       2.742  16.812  -0.542 -0.07 -0.01    -0.248    16.534
ATOM     28  N   UNL d   1      -0.189  16.861  -0.370 -0.17 -0.01    -0.248    16.534
ATOM     29 FE   UNL d   1       1.439  17.661   0.550 -0.06 +0.00    +0.000    16.534
ATOM     30  C   UNL d   1      -3.514  19.724   2.703 -0.14 +0.02    +0.052    16.534
ATOM     31  C   UNL d   1      -4.041  20.462   1.474 -0.06 +0.04    +0.115    16.534
ATOM     32  C   UNL d   1      -2.997  21.362   0.849 -0.01 +0.02    +0.139    16.534
ATOM     33  O   UNL d   1      -2.870  22.507   1.255 +0.01 -0.07    -0.650    16.534
ATOM     34  O   UNL d   1      -2.160  20.924  -0.120 +0.04 -0.11    -0.776    16.534
ATOM     35  H   UNL d   1      -1.354  21.386  -0.392 +0.01 +0.02    +0.167    16.534
ATOM     36  C   UNL d   1       1.339  19.349  -0.689 -0.07 +0.01    +0.190    16.534
ATOM     37  O   UNL d   1       0.550  20.463  -0.992 -0.00 -0.02    -0.399    16.534
ATOM     38  H   UNL d   1      -0.329  20.281  -0.556 +0.03 +0.02    +0.209    16.534
ATOM     39  C   UNL d   1      -3.713  16.192  -1.407 -0.30 +0.03    +0.052    16.534
ATOM     40  C   UNL d   1      -4.220  17.416  -2.187 -0.13 +0.07    +0.115    16.534
ATOM     41  C   UNL d   1      -5.572  17.929  -1.737 +0.08 +0.12    +0.139    16.534
ATOM     42  O   UNL d   1      -5.626  18.808  -0.889 -0.48 -0.57    -0.650    16.534
ATOM     43  O   UNL d   1      -6.719  17.502  -2.310 -0.54 -0.67    -0.776    16.534
ATOM     44  H   UNL d   1      -7.166  17.997  -3.009 +0.03 +0.08    +0.167    16.534
ATOM     45  C   UNL d   1       6.371  19.098   2.587 -0.06 +0.00    +0.004    16.534
ATOM     46  C   UNL d   1       7.170  18.100   2.958 -0.06 +0.00    +0.012    16.534
ATOM     47  C   UNL d   1       3.783  15.008  -3.549 -0.21 -0.00    +0.004    16.534
ATOM     48  C   UNL d   1       4.451  13.860  -3.684 -0.23 -0.00    +0.012    16.534
TER
ENDMDL
MODEL       97
USER    Run = 97
USER    Cluster Rank = 34
USER    Number of conformations in this cluster = 1
USER  
USER    RMSD from reference structure       = 33.082 A
USER  
USER    Estimated Free Energy of Binding    =   -3.70 kcal/mol  [=(1)+(2)+(3)-(4)]
USER    Estimated Inhibition Constant, Ki   =    1.95 mM (millimolar)  [Temperature = 298.15 K]
USER    
USER    (1) Final Intermolecular Energy     =   -7.28 kcal/mol
USER        vdW + Hbond + desolv Energy     =   -5.46 kcal/mol
USER        Electrostatic Energy            =   -1.82 kcal/mol
USER    (2) Final Total Internal Energy     =   -1.97 kcal/mol
USER    (3) Torsional Free Energy           =   +3.58 kcal/mol
USER    (4) Unbound System's Energy  [=(2)] =   -1.97 kcal/mol
USER    
USER    
USER  
USER    DPF = D:/Protein_go_brrr/autodock/final/mut_D99N/heme_Co/dock.dpf
USER    NEWDPF move	heme_Co_opt.pdbqt
USER    NEWDPF about	8.781000 34.984000 -0.736000
USER    NEWDPF tran0	-18.465121 10.698545 2.052954
USER    NEWDPF axisangle0	0.812634 -0.410083 0.414074 -24.892458
USER    NEWDPF quaternion0	0.175142 -0.088383 0.089242 -0.976499
USER    NEWDPF dihe0	12.23 99.23 -151.04 -102.28 119.55 82.87 138.36 118.14 94.04 145.57 60.03 174.12 
USER  
USER                              x       y       z    vdW   Elec        q     RMS 
ATOM      1  C   UNL d   1     -20.321  11.186   1.037 -0.09 +0.00    +0.064    33.082
ATOM      2  C   UNL d   1     -19.084   7.575   3.873 -0.08 +0.00    +0.064    33.082
ATOM      3  C   UNL d   1     -14.582   9.171   4.003 -0.18 -0.01    +0.064    33.082
ATOM      4  C   UNL d   1     -15.906  13.078   1.425 -0.19 -0.01    +0.064    33.082
ATOM      5  C   UNL d   1     -20.306  10.062   1.772 -0.09 +0.01    +0.066    33.082
ATOM      6  C   UNL d   1     -21.477   9.326   2.037 -0.05 -0.00    -0.021    33.082
ATOM      7  C   UNL d   1     -21.116   8.292   2.879 -0.05 -0.00    -0.025    33.082
ATOM      8  C   UNL d   1     -19.739   8.432   3.079 -0.08 +0.01    +0.066    33.082
ATOM      9  C   UNL d   1     -22.022   7.207   3.481 -0.02 +0.01    +0.051    33.082
ATOM     10  C   UNL d   1     -17.664   7.625   4.117 -0.10 +0.00    +0.066    33.082
ATOM     11  C   UNL d   1     -16.896   6.675   4.825 -0.08 -0.00    -0.021    33.082
ATOM     12  C   UNL d   1     -15.587   7.163   4.845 -0.07 +0.00    +0.000    33.082
ATOM     13  C   UNL d   1     -15.650   8.365   4.138 -0.07 -0.00    +0.070    33.082
ATOM     14  C   UNL d   1     -17.383   5.351   5.356 -0.06 +0.00    +0.052    33.082
ATOM     15  C   UNL d   1     -14.482  10.464   3.355 -0.25 -0.01    +0.066    33.082
ATOM     16  C   UNL d   1     -13.385  11.313   3.377 -0.32 +0.00    -0.021    33.082
ATOM     17  C   UNL d   1     -13.763  12.442   2.636 -0.27 -0.00    +0.000    33.082
ATOM     18  C   UNL d   1     -15.060  12.184   2.206 -0.23 -0.01    +0.070    33.082
ATOM     19  C   UNL d   1     -12.072  11.031   4.073 -0.40 -0.01    +0.052    33.082
ATOM     20  C   UNL d   1     -17.199  12.886   1.068 -0.12 -0.01    +0.066    33.082
ATOM     21  C   UNL d   1     -17.919  13.835   0.346 -0.04 +0.00    -0.025    33.082
ATOM     22  C   UNL d   1     -19.187  13.304   0.194 -0.12 -0.00    -0.021    33.082
ATOM     23  C   UNL d   1     -19.181  12.053   0.847 -0.14 -0.00    +0.066    33.082
ATOM     24  C   UNL d   1     -17.431  15.190  -0.158 -0.08 -0.00    +0.051    33.082
ATOM     25  N   UNL d   1     -19.209   9.517   2.401 -0.08 -0.00    -0.248    33.082
ATOM     26  N   UNL d   1     -16.895   8.614   3.651 -0.10 +0.01    -0.248    33.082
ATOM     27  N   UNL d   1     -15.467  11.011   2.678 -0.16 +0.05    -0.248    33.082
ATOM     28  N   UNL d   1     -17.980  11.797   1.379 -0.11 +0.04    -0.248    33.082
ATOM     29 FE   UNL d   1     -17.228  10.311   2.545 -0.04 -0.00    +0.000    33.082
ATOM     30  C   UNL d   1     -22.888   9.659   1.562 -0.03 +0.01    +0.052    33.082
ATOM     31  C   UNL d   1     -23.663   8.381   1.245 -0.04 +0.04    +0.115    33.082
ATOM     32  C   UNL d   1     -23.458   7.920  -0.182 +0.03 +0.15    +0.139    33.082
ATOM     33  O   UNL d   1     -22.613   8.467  -0.875 -0.32 -1.16    -0.650    33.082
ATOM     34  O   UNL d   1     -24.151   6.883  -0.708 -0.26 -1.05    -0.776    33.082
ATOM     35  H   UNL d   1     -24.889   6.442  -0.266 +0.01 +0.11    +0.167    33.082
ATOM     36  C   UNL d   1     -17.874  11.308   4.272 -0.03 -0.02    +0.190    33.082
ATOM     37  O   UNL d   1     -18.677  12.364   4.715 +0.00 +0.03    -0.399    33.082
ATOM     38  H   UNL d   1     -18.874  12.898   3.895 +0.01 -0.01    +0.209    33.082
ATOM     39  C   UNL d   1     -20.355  13.995  -0.485 -0.07 +0.00    +0.052    33.082
ATOM     40  C   UNL d   1     -21.080  14.929   0.499 -0.01 +0.00    +0.115    33.082
ATOM     41  C   UNL d   1     -21.227  14.369   1.898 -0.00 +0.00    +0.139    33.082
ATOM     42  O   UNL d   1     -22.312  13.935   2.258 +0.01 -0.02    -0.650    33.082
ATOM     43  O   UNL d   1     -20.170  14.255   2.733 +0.01 +0.01    -0.776    33.082
ATOM     44  H   UNL d   1     -20.077  13.524   3.357 +0.00 -0.00    +0.167    33.082
ATOM     45  C   UNL d   1     -14.287   6.627   5.429 -0.18 +0.00    +0.004    33.082
ATOM     46  C   UNL d   1     -13.553   7.060   6.451 -0.26 -0.00    +0.012    33.082
ATOM     47  C   UNL d   1     -13.012  13.706   2.375 -0.28 -0.00    +0.004    33.082
ATOM     48  C   UNL d   1     -12.324  13.937   1.254 -0.37 -0.00    +0.012    33.082
TER
ENDMDL
MODEL       56
USER    Run = 56
USER    Cluster Rank = 35
USER    Number of conformations in this cluster = 1
USER  
USER    RMSD from reference structure       = 45.858 A
USER  
USER    Estimated Free Energy of Binding    =   -3.66 kcal/mol  [=(1)+(2)+(3)-(4)]
USER    Estimated Inhibition Constant, Ki   =    2.08 mM (millimolar)  [Temperature = 298.15 K]
USER    
USER    (1) Final Intermolecular Energy     =   -7.24 kcal/mol
USER        vdW + Hbond + desolv Energy     =   -6.88 kcal/mol
USER        Electrostatic Energy            =   -0.36 kcal/mol
USER    (2) Final Total Internal Energy     =   -2.00 kcal/mol
USER    (3) Torsional Free Energy           =   +3.58 kcal/mol
USER    (4) Unbound System's Energy  [=(2)] =   -2.00 kcal/mol
USER    
USER    
USER  
USER    DPF = D:/Protein_go_brrr/autodock/final/mut_D99N/heme_Co/dock.dpf
USER    NEWDPF move	heme_Co_opt.pdbqt
USER    NEWDPF about	8.781000 34.984000 -0.736000
USER    NEWDPF tran0	18.213718 -11.733430 -4.586750
USER    NEWDPF axisangle0	-0.925713 -0.261101 0.273646 152.648774
USER    NEWDPF quaternion0	-0.899469 -0.253699 0.265888 0.236425
USER    NEWDPF dihe0	-104.19 87.91 -148.13 14.37 134.69 93.69 79.22 117.96 -20.12 145.13 22.90 173.70 
USER  
USER                              x       y       z    vdW   Elec        q     RMS 
ATOM      1  C   UNL d   1      17.396 -12.276  -2.649 -0.21 -0.01    +0.064    45.858
ATOM      2  C   UNL d   1      15.429 -11.932  -6.964 -0.16 +0.00    +0.064    45.858
ATOM      3  C   UNL d   1      19.530 -10.246  -8.742 -0.16 +0.01    +0.064    45.858
ATOM      4  C   UNL d   1      21.673 -10.952  -4.432 -0.07 +0.00    +0.064    45.858
ATOM      5  C   UNL d   1      16.547 -12.272  -3.690 -0.24 -0.01    +0.066    45.858
ATOM      6  C   UNL d   1      15.235 -12.773  -3.585 -0.25 +0.00    -0.021    45.858
ATOM      7  C   UNL d   1      14.676 -12.692  -4.846 -0.23 +0.00    -0.025    45.858
ATOM      8  C   UNL d   1      15.664 -12.130  -5.661 -0.16 -0.00    +0.066    45.858
ATOM      9  C   UNL d   1      13.267 -13.123  -5.282 -0.34 +0.00    +0.051    45.858
ATOM     10  C   UNL d   1      16.375 -11.336  -7.875 -0.20 +0.00    +0.066    45.858
ATOM     11  C   UNL d   1      16.139 -10.974  -9.219 -0.24 -0.00    -0.021    45.858
ATOM     12  C   UNL d   1      17.350 -10.481  -9.712 -0.17 +0.00    +0.000    45.858
ATOM     13  C   UNL d   1      18.229 -10.568  -8.632 -0.19 +0.01    +0.070    45.858
ATOM     14  C   UNL d   1      14.813 -11.014  -9.934 -0.27 -0.00    +0.052    45.858
ATOM     15  C   UNL d   1      20.585 -10.324  -7.750 -0.13 +0.01    +0.066    45.858
ATOM     16  C   UNL d   1      21.939 -10.114  -7.969 -0.07 -0.00    -0.021    45.858
ATOM     17  C   UNL d   1      22.561 -10.319  -6.730 -0.06 +0.00    +0.000    45.858
ATOM     18  C   UNL d   1      21.532 -10.622  -5.845 -0.08 +0.01    +0.070    45.858
ATOM     19  C   UNL d   1      22.565  -9.743  -9.295 -0.05 +0.00    +0.052    45.858
ATOM     20  C   UNL d   1      20.698 -11.334  -3.573 -0.05 +0.00    +0.066    45.858
ATOM     21  C   UNL d   1      20.963 -11.660  -2.245 -0.17 +0.00    -0.025    45.858
ATOM     22  C   UNL d   1      19.744 -12.018  -1.698 -0.25 +0.00    -0.021    45.858
ATOM     23  C   UNL d   1      18.790 -11.903  -2.732 -0.21 -0.00    +0.066    45.858
ATOM     24  C   UNL d   1      22.315 -11.651  -1.536 -0.13 +0.00    +0.051    45.858
ATOM     25  N   UNL d   1      16.832 -11.854  -4.970 -0.15 +0.01    -0.248    45.858
ATOM     26  N   UNL d   1      17.624 -11.032  -7.506 -0.14 -0.03    -0.248    45.858
ATOM     27  N   UNL d   1      20.373 -10.646  -6.493 -0.10 -0.03    -0.248    45.858
ATOM     28  N   UNL d   1      19.364 -11.491  -3.869 +0.04 -0.01    -0.248    45.858
ATOM     29 FE   UNL d   1      18.709 -11.214  -5.774 -0.05 +0.00    +0.000    45.858
ATOM     30  C   UNL d   1      14.588 -13.376  -2.343 -0.36 -0.00    +0.052    45.858
ATOM     31  C   UNL d   1      13.557 -12.413  -1.753 -0.43 -0.01    +0.115    45.858
ATOM     32  C   UNL d   1      12.536 -13.120  -0.889 -0.34 +0.04    +0.139    45.858
ATOM     33  O   UNL d   1      11.957 -14.104  -1.325 -0.13 -0.40    -0.650    45.858
ATOM     34  O   UNL d   1      12.273 -12.725   0.379 -0.24 +0.05    -0.776    45.858
ATOM     35  H   UNL d   1      12.538 -13.218   1.168 -0.19 -0.02    +0.167    45.858
ATOM     36  C   UNL d   1      19.077 -13.229  -6.218 -0.03 +0.01    +0.190    45.858
ATOM     37  O   UNL d   1      19.225 -14.491  -5.633 +0.00 -0.01    -0.399    45.858
ATOM     38  H   UNL d   1      19.525 -14.306  -4.699 +0.02 +0.00    +0.209    45.858
ATOM     39  C   UNL d   1      19.526 -12.506  -0.278 -0.25 -0.00    +0.052    45.858
ATOM     40  C   UNL d   1      19.780 -14.019  -0.180 -0.12 -0.00    +0.115    45.858
ATOM     41  C   UNL d   1      19.249 -14.820  -1.350 -0.05 -0.00    +0.139    45.858
ATOM     42  O   UNL d   1      18.223 -15.472  -1.212 +0.02 +0.02    -0.650    45.858
ATOM     43  O   UNL d   1      19.829 -14.766  -2.569 +0.05 -0.00    -0.776    45.858
ATOM     44  H   UNL d   1      19.317 -14.774  -3.389 +0.02 +0.00    +0.167    45.858
ATOM     45  C   UNL d   1      17.771  -9.924 -11.065 -0.15 +0.00    +0.004    45.858
ATOM     46  C   UNL d   1      17.053  -9.654 -12.152 -0.17 -0.00    +0.012    45.858
ATOM     47  C   UNL d   1      24.012 -10.292  -6.375 -0.02 +0.00    +0.004    45.858
ATOM     48  C   UNL d   1      24.559  -9.368  -5.581 -0.03 +0.00    +0.012    45.858
TER
ENDMDL
MODEL       13
USER    Run = 13
USER    Cluster Rank = 36
USER    Number of conformations in this cluster = 1
USER  
USER    RMSD from reference structure       = 39.287 A
USER  
USER    Estimated Free Energy of Binding    =   -3.63 kcal/mol  [=(1)+(2)+(3)-(4)]
USER    Estimated Inhibition Constant, Ki   =    2.20 mM (millimolar)  [Temperature = 298.15 K]
USER    
USER    (1) Final Intermolecular Energy     =   -7.21 kcal/mol
USER        vdW + Hbond + desolv Energy     =   -5.36 kcal/mol
USER        Electrostatic Energy            =   -1.84 kcal/mol
USER    (2) Final Total Internal Energy     =   -2.33 kcal/mol
USER    (3) Torsional Free Energy           =   +3.58 kcal/mol
USER    (4) Unbound System's Energy  [=(2)] =   -2.33 kcal/mol
USER    
USER    
USER  
USER    DPF = D:/Protein_go_brrr/autodock/final/mut_D99N/heme_Co/dock.dpf
USER    NEWDPF move	heme_Co_opt.pdbqt
USER    NEWDPF about	8.781000 34.984000 -0.736000
USER    NEWDPF tran0	-15.212204 2.422437 12.385370
USER    NEWDPF axisangle0	-0.951149 0.240471 0.193622 171.992605
USER    NEWDPF quaternion0	-0.948828 0.239885 0.193149 0.069821
USER    NEWDPF dihe0	162.12 116.80 -33.51 88.46 153.60 142.23 -130.79 -22.60 -136.33 145.33 -178.46 20.18 
USER  
USER                              x       y       z    vdW   Elec        q     RMS 
ATOM      1  C   UNL d   1     -16.654   2.953  13.920 -0.05 +0.03    +0.064    39.287
ATOM      2  C   UNL d   1     -15.989   4.525   9.482 -0.07 +0.02    +0.064    39.287
ATOM      3  C   UNL d   1     -12.067   1.825   9.074 -0.10 +0.02    +0.064    39.287
ATOM      4  C   UNL d   1     -12.942  -0.086  13.461 -0.14 +0.03    +0.064    39.287
ATOM      5  C   UNL d   1     -16.740   3.608  12.751 -0.06 +0.02    +0.066    39.287
ATOM      6  C   UNL d   1     -17.819   4.462  12.450 -0.03 -0.00    -0.021    39.287
ATOM      7  C   UNL d   1     -17.632   4.897  11.153 -0.04 -0.01    -0.025    39.287
ATOM      8  C   UNL d   1     -16.440   4.304  10.724 -0.07 +0.02    +0.066    39.287
ATOM      9  C   UNL d   1     -18.533   5.835  10.335 -0.02 +0.01    +0.051    39.287
ATOM     10  C   UNL d   1     -14.760   3.979   8.962 -0.05 +0.02    +0.066    39.287
ATOM     11  C   UNL d   1     -14.161   4.284   7.720 -0.12 -0.00    -0.021    39.287
ATOM     12  C   UNL d   1     -13.017   3.486   7.629 -0.20 +0.00    +0.000    39.287
ATOM     13  C   UNL d   1     -12.996   2.765   8.823 -0.16 +0.02    +0.070    39.287
ATOM     14  C   UNL d   1     -14.615   5.340   6.746 -0.12 +0.01    +0.052    39.287
ATOM     15  C   UNL d   1     -11.927   0.955  10.224 -0.22 +0.02    +0.066    39.287
ATOM     16  C   UNL d   1     -11.030  -0.095  10.358 -0.38 -0.01    -0.021    39.287
ATOM     17  C   UNL d   1     -11.280  -0.651  11.620 -0.31 +0.00    +0.000    39.287
ATOM     18  C   UNL d   1     -12.302   0.117  12.167 -0.20 +0.03    +0.070    39.287
ATOM     19  C   UNL d   1     -10.012  -0.515   9.321 -0.40 +0.02    +0.052    39.287
ATOM     20  C   UNL d   1     -13.994   0.594  13.976 -0.09 +0.04    +0.066    39.287
ATOM     21  C   UNL d   1     -14.544   0.282  15.217 -0.07 -0.01    -0.025    39.287
ATOM     22  C   UNL d   1     -15.598   1.161  15.390 -0.07 -0.01    -0.021    39.287
ATOM     23  C   UNL d   1     -15.647   1.964  14.230 -0.09 +0.04    +0.066    39.287
ATOM     24  C   UNL d   1     -14.101  -0.813  16.184 -0.07 +0.02    +0.051    39.287
ATOM     25  N   UNL d   1     -15.863   3.505  11.695 -0.07 -0.10    -0.248    39.287
ATOM     26  N   UNL d   1     -14.019   3.105   9.651 -0.10 -0.09    -0.248    39.287
ATOM     27  N   UNL d   1     -12.683   1.045  11.296 -0.14 -0.10    -0.248    39.287
ATOM     28  N   UNL d   1     -14.679   1.622  13.371 -0.09 -0.16    -0.248    39.287
ATOM     29 FE   UNL d   1     -14.179   2.201  11.487 -0.03 +0.00    +0.000    39.287
ATOM     30  C   UNL d   1     -19.011   4.772  13.349 -0.01 +0.01    +0.052    39.287
ATOM     31  C   UNL d   1     -20.182   3.843  13.027 +0.00 +0.01    +0.115    39.287
ATOM     32  C   UNL d   1     -19.739   2.415  12.794 +0.00 +0.02    +0.139    39.287
ATOM     33  O   UNL d   1     -19.852   1.596  13.694 +0.00 -0.08    -0.650    39.287
ATOM     34  O   UNL d   1     -19.262   1.997  11.598 +0.01 -0.10    -0.776    39.287
ATOM     35  H   UNL d   1     -18.700   1.220  11.478 +0.00 +0.02    +0.167    39.287
ATOM     36  C   UNL d   1     -15.509   0.797  10.678 -0.01 +0.05    +0.190    39.287
ATOM     37  O   UNL d   1     -16.869   0.517  10.513 +0.01 -0.08    -0.399    39.287
ATOM     38  H   UNL d   1     -17.342   1.308  10.896 +0.01 +0.04    +0.209    39.287
ATOM     39  C   UNL d   1     -16.544   1.179  16.576 -0.03 +0.02    +0.052    39.287
ATOM     40  C   UNL d   1     -16.510   2.548  17.275 -0.04 +0.05    +0.115    39.287
ATOM     41  C   UNL d   1     -15.129   3.158  17.389 +0.19 +0.16    +0.139    39.287
ATOM     42  O   UNL d   1     -14.886   4.201  16.799 -0.28 -1.13    -0.650    39.287
ATOM     43  O   UNL d   1     -14.183   2.629  18.195 -0.34 -0.80    -0.776    39.287
ATOM     44  H   UNL d   1     -14.401   2.121  18.988 +0.01 +0.09    +0.167    39.287
ATOM     45  C   UNL d   1     -11.938   3.337   6.565 -0.32 +0.00    +0.004    39.287
ATOM     46  C   UNL d   1     -10.871   4.087   6.302 -0.45 +0.00    +0.012    39.287
ATOM     47  C   UNL d   1     -10.664  -1.843  12.277 -0.32 +0.00    +0.004    39.287
ATOM     48  C   UNL d   1     -10.206  -1.839  13.531 -0.28 +0.00    +0.012    39.287
TER
ENDMDL
MODEL       73
USER    Run = 73
USER    Cluster Rank = 37
USER    Number of conformations in this cluster = 1
USER  
USER    RMSD from reference structure       = 39.364 A
USER  
USER    Estimated Free Energy of Binding    =   -3.56 kcal/mol  [=(1)+(2)+(3)-(4)]
USER    Estimated Inhibition Constant, Ki   =    2.44 mM (millimolar)  [Temperature = 298.15 K]
USER    
USER    (1) Final Intermolecular Energy     =   -7.14 kcal/mol
USER        vdW + Hbond + desolv Energy     =   -5.68 kcal/mol
USER        Electrostatic Energy            =   -1.46 kcal/mol
USER    (2) Final Total Internal Energy     =   -2.20 kcal/mol
USER    (3) Torsional Free Energy           =   +3.58 kcal/mol
USER    (4) Unbound System's Energy  [=(2)] =   -2.20 kcal/mol
USER    
USER    
USER  
USER    DPF = D:/Protein_go_brrr/autodock/final/mut_D99N/heme_Co/dock.dpf
USER    NEWDPF move	heme_Co_opt.pdbqt
USER    NEWDPF about	8.781000 34.984000 -0.736000
USER    NEWDPF tran0	-4.655733 1.261648 21.046890
USER    NEWDPF axisangle0	-0.105668 0.603657 0.790210 148.760786
USER    NEWDPF quaternion0	-0.101766 0.581365 0.761028 0.269249
USER    NEWDPF dihe0	-169.46 129.81 -3.43 120.47 135.62 126.31 35.42 147.69 -179.99 -97.09 -169.60 -49.78 
USER  
USER                              x       y       z    vdW   Elec        q     RMS 
ATOM      1  C   UNL d   1      -2.498   1.489  20.952 -0.10 -0.00    +0.064    39.364
ATOM      2  C   UNL d   1      -6.072   4.400  19.784 -0.32 -0.00    +0.064    39.364
ATOM      3  C   UNL d   1      -9.241   0.955  20.740 -0.08 +0.01    +0.064    39.364
ATOM      4  C   UNL d   1      -5.635  -1.910  22.305 -0.06 +0.01    +0.064    39.364
ATOM      5  C   UNL d   1      -3.240   2.525  20.528 -0.19 -0.00    +0.066    39.364
ATOM      6  C   UNL d   1      -2.668   3.774  20.213 -0.36 +0.00    -0.021    39.364
ATOM      7  C   UNL d   1      -3.712   4.621  19.897 -0.38 +0.00    -0.025    39.364
ATOM      8  C   UNL d   1      -4.873   3.850  20.017 -0.28 -0.00    +0.066    39.364
ATOM      9  C   UNL d   1      -3.634   6.103  19.496 -0.44 -0.02    +0.051    39.364
ATOM     10  C   UNL d   1      -7.318   3.680  19.857 -0.21 +0.01    +0.066    39.364
ATOM     11  C   UNL d   1      -8.594   4.161  19.490 -0.22 -0.00    -0.021    39.364
ATOM     12  C   UNL d   1      -9.498   3.134  19.775 -0.15 +0.00    +0.000    39.364
ATOM     13  C   UNL d   1      -8.709   2.102  20.282 -0.11 +0.01    +0.070    39.364
ATOM     14  C   UNL d   1      -8.892   5.479  18.824 -0.29 +0.01    +0.052    39.364
ATOM     15  C   UNL d   1      -8.583  -0.189  21.341 -0.08 +0.01    +0.066    39.364
ATOM     16  C   UNL d   1      -9.205  -1.282  21.927 -0.05 -0.00    -0.021    39.364
ATOM     17  C   UNL d   1      -8.169  -2.110  22.382 -0.04 +0.00    +0.000    39.364
ATOM     18  C   UNL d   1      -6.992  -1.462  22.021 -0.07 +0.01    +0.070    39.364
ATOM     19  C   UNL d   1     -10.700  -1.490  22.029 -0.02 +0.01    +0.052    39.364
ATOM     20  C   UNL d   1      -4.478  -1.256  22.041 -0.09 +0.01    +0.066    39.364
ATOM     21  C   UNL d   1      -3.234  -1.773  22.396 -0.05 -0.00    -0.025    39.364
ATOM     22  C   UNL d   1      -2.309  -0.828  21.992 -0.09 -0.00    -0.021    39.364
ATOM     23  C   UNL d   1      -3.041   0.233  21.417 -0.13 +0.00    +0.066    39.364
ATOM     24  C   UNL d   1      -2.941  -3.094  23.102 -0.01 +0.01    +0.051    39.364
ATOM     25  N   UNL d   1      -4.610   2.546  20.401 -0.15 -0.01    -0.248    39.364
ATOM     26  N   UNL d   1      -7.385   2.412  20.278 -0.09 -0.04    -0.248    39.364
ATOM     27  N   UNL d   1      -7.277  -0.307  21.430 -0.05 -0.04    -0.248    39.364
ATOM     28  N   UNL d   1      -4.355  -0.021  21.448 -0.11 -0.02    -0.248    39.364
ATOM     29 FE   UNL d   1      -6.020   1.033  20.946 -0.04 +0.00    +0.000    39.364
ATOM     30  C   UNL d   1      -1.191   4.145  20.296 -0.35 -0.01    +0.052    39.364
ATOM     31  C   UNL d   1      -0.828   4.590  21.712 -0.22 -0.02    +0.115    39.364
ATOM     32  C   UNL d   1      -2.023   4.592  22.641 -0.08 -0.02    +0.139    39.364
ATOM     33  O   UNL d   1      -2.657   5.624  22.803 +0.04 +0.17    -0.650    39.364
ATOM     34  O   UNL d   1      -2.446   3.469  23.267 +0.06 +0.07    -0.776    39.364
ATOM     35  H   UNL d   1      -3.255   3.413  23.795 +0.02 -0.01    +0.167    39.364
ATOM     36  C   UNL d   1      -6.061   1.916  22.847 -0.03 +0.01    +0.190    39.364
ATOM     37  O   UNL d   1      -5.290   2.656  23.749 +0.00 +0.01    -0.399    39.364
ATOM     38  H   UNL d   1      -4.541   3.026  23.203 +0.03 -0.01    +0.209    39.364
ATOM     39  C   UNL d   1      -0.810  -0.916  22.208 -0.07 +0.01    +0.052    39.364
ATOM     40  C   UNL d   1      -0.267  -2.263  21.704 -0.05 +0.03    +0.115    39.364
ATOM     41  C   UNL d   1      -0.119  -2.353  20.199 -0.12 +0.12    +0.139    39.364
ATOM     42  O   UNL d   1      -1.118  -2.476  19.506 -0.41 -0.83    -0.650    39.364
ATOM     43  O   UNL d   1       1.082  -2.214  19.594 +0.04 -1.06    -0.776    39.364
ATOM     44  H   UNL d   1       1.902  -2.093  20.090 +0.02 +0.12    +0.167    39.364
ATOM     45  C   UNL d   1     -11.007   3.004  19.611 -0.14 +0.00    +0.004    39.364
ATOM     46  C   UNL d   1     -11.726   2.233  18.800 -0.12 +0.01    +0.012    39.364
ATOM     47  C   UNL d   1      -8.238  -3.392  23.145 -0.02 +0.00    +0.004    39.364
ATOM     48  C   UNL d   1      -7.847  -4.568  22.649 -0.02 +0.00    +0.012    39.364
TER
ENDMDL
MODEL       70
USER    Run = 70
USER    Cluster Rank = 38
USER    Number of conformations in this cluster = 1
USER  
USER    RMSD from reference structure       = 20.847 A
USER  
USER    Estimated Free Energy of Binding    =   -3.46 kcal/mol  [=(1)+(2)+(3)-(4)]
USER    Estimated Inhibition Constant, Ki   =    2.89 mM (millimolar)  [Temperature = 298.15 K]
USER    
USER    (1) Final Intermolecular Energy     =   -7.04 kcal/mol
USER        vdW + Hbond + desolv Energy     =   -6.47 kcal/mol
USER        Electrostatic Energy            =   -0.57 kcal/mol
USER    (2) Final Total Internal Energy     =   -2.19 kcal/mol
USER    (3) Torsional Free Energy           =   +3.58 kcal/mol
USER    (4) Unbound System's Energy  [=(2)] =   -2.19 kcal/mol
USER    
USER    
USER  
USER    DPF = D:/Protein_go_brrr/autodock/final/mut_D99N/heme_Co/dock.dpf
USER    NEWDPF move	heme_Co_opt.pdbqt
USER    NEWDPF about	8.781000 34.984000 -0.736000
USER    NEWDPF tran0	8.813748 12.387667 6.533280
USER    NEWDPF axisangle0	-0.405763 -0.723338 -0.558694 -160.926958
USER    NEWDPF quaternion0	-0.400155 -0.713341 -0.550973 -0.165676
USER    NEWDPF dihe0	-158.67 112.30 98.22 -108.00 102.59 134.60 27.47 -118.16 -171.89 -100.42 -178.51 -38.58 
USER  
USER                              x       y       z    vdW   Elec        q     RMS 
ATOM      1  C   UNL d   1      10.225  10.892   5.836 -0.07 +0.00    +0.064    20.847
ATOM      2  C   UNL d   1       8.198  14.619   3.688 -0.19 -0.00    +0.064    20.847
ATOM      3  C   UNL d   1       5.537  15.455   7.568 -0.25 -0.01    +0.064    20.847
ATOM      4  C   UNL d   1       7.869  11.892   9.919 -0.25 -0.00    +0.064    20.847
ATOM      5  C   UNL d   1       9.840  11.826   4.951 -0.08 +0.00    +0.066    20.847
ATOM      6  C   UNL d   1      10.453  11.958   3.690 -0.10 -0.00    -0.021    20.847
ATOM      7  C   UNL d   1       9.877  13.055   3.080 -0.11 -0.00    -0.025    20.847
ATOM      8  C   UNL d   1       8.927  13.536   3.988 -0.16 -0.00    +0.066    20.847
ATOM      9  C   UNL d   1      10.199  13.642   1.697 -0.07 +0.00    +0.051    20.847
ATOM     10  C   UNL d   1       7.180  15.169   4.547 -0.21 -0.01    +0.066    20.847
ATOM     11  C   UNL d   1       6.286  16.216   4.233 -0.23 +0.00    -0.021    20.847
ATOM     12  C   UNL d   1       5.519  16.436   5.380 -0.29 -0.00    +0.000    20.847
ATOM     13  C   UNL d   1       5.991  15.503   6.303 -0.19 -0.01    +0.070    20.847
ATOM     14  C   UNL d   1       6.127  16.880   2.889 -0.17 +0.00    +0.052    20.847
ATOM     15  C   UNL d   1       5.948  14.596   8.661 -0.26 -0.01    +0.066    20.847
ATOM     16  C   UNL d   1       5.541  14.695   9.983 -0.24 +0.00    -0.021    20.847
ATOM     17  C   UNL d   1       6.213  13.671  10.666 -0.19 -0.00    +0.000    20.847
ATOM     18  C   UNL d   1       6.966  13.014   9.699 -0.23 -0.01    +0.070    20.847
ATOM     19  C   UNL d   1       4.569  15.719  10.527 -0.16 -0.00    +0.052    20.847
ATOM     20  C   UNL d   1       8.677  11.293   9.012 -0.22 +0.00    +0.066    20.847
ATOM     21  C   UNL d   1       9.529  10.245   9.352 -0.15 -0.00    -0.025    20.847
ATOM     22  C   UNL d   1      10.200   9.916   8.188 -0.11 -0.00    -0.021    20.847
ATOM     23  C   UNL d   1       9.729  10.796   7.190 -0.12 +0.00    +0.066    20.847
ATOM     24  C   UNL d   1       9.710   9.599  10.723 -0.12 +0.00    +0.051    20.847
ATOM     25  N   UNL d   1       8.878  12.790   5.153 -0.07 +0.01    -0.248    20.847
ATOM     26  N   UNL d   1       6.956  14.700   5.780 -0.11 +0.06    -0.248    20.847
ATOM     27  N   UNL d   1       6.807  13.611   8.522 -0.21 +0.05    -0.248    20.847
ATOM     28  N   UNL d   1       8.809  11.633   7.685 -0.14 -0.00    -0.248    20.847
ATOM     29 FE   UNL d   1       7.783  13.222   6.939 -0.06 -0.00    +0.000    20.847
ATOM     30  C   UNL d   1      11.597  11.112   3.141 -0.05 +0.00    +0.052    20.847
ATOM     31  C   UNL d   1      12.942  11.785   3.414 -0.01 +0.00    +0.115    20.847
ATOM     32  C   UNL d   1      12.805  13.021   4.277 -0.01 +0.00    +0.139    20.847
ATOM     33  O   UNL d   1      12.852  14.125   3.757 +0.00 -0.01    -0.650    20.847
ATOM     34  O   UNL d   1      12.581  12.944   5.610 +0.01 -0.01    -0.776    20.847
ATOM     35  H   UNL d   1      12.255  13.677   6.150 +0.01 +0.00    +0.167    20.847
ATOM     36  C   UNL d   1       9.354  14.509   7.457 -0.06 -0.01    +0.190    20.847
ATOM     37  O   UNL d   1      10.699  14.787   7.195 -0.00 +0.01    -0.399    20.847
ATOM     38  H   UNL d   1      10.977  14.102   6.525 +0.02 -0.00    +0.209    20.847
ATOM     39  C   UNL d   1      11.280   8.858   8.064 -0.07 +0.01    +0.052    20.847
ATOM     40  C   UNL d   1      10.716   7.466   8.390 -0.11 +0.03    +0.115    20.847
ATOM     41  C   UNL d   1       9.830   6.882   7.309 -0.17 +0.05    +0.139    20.847
ATOM     42  O   UNL d   1       9.909   7.319   6.170 +0.03 -0.14    -0.650    20.847
ATOM     43  O   UNL d   1       9.015   5.831   7.550 -0.39 -0.67    -0.776    20.847
ATOM     44  H   UNL d   1       8.059   5.928   7.653 +0.07 +0.11    +0.167    20.847
ATOM     45  C   UNL d   1       4.388  17.404   5.703 -0.24 +0.00    +0.004    20.847
ATOM     46  C   UNL d   1       4.321  18.393   6.589 -0.17 +0.00    +0.012    20.847
ATOM     47  C   UNL d   1       6.213  13.335  12.121 -0.24 -0.00    +0.004    20.847
ATOM     48  C   UNL d   1       5.246  12.633  12.716 -0.32 -0.00    +0.012    20.847
TER
ENDMDL
MODEL       81
USER    Run = 81
USER    Cluster Rank = 39
USER    Number of conformations in this cluster = 1
USER  
USER    RMSD from reference structure       = 42.111 A
USER  
USER    Estimated Free Energy of Binding    =   -3.46 kcal/mol  [=(1)+(2)+(3)-(4)]
USER    Estimated Inhibition Constant, Ki   =    2.92 mM (millimolar)  [Temperature = 298.15 K]
USER    
USER    (1) Final Intermolecular Energy     =   -7.04 kcal/mol
USER        vdW + Hbond + desolv Energy     =   -5.33 kcal/mol
USER        Electrostatic Energy            =   -1.71 kcal/mol
USER    (2) Final Total Internal Energy     =   -2.18 kcal/mol
USER    (3) Torsional Free Energy           =   +3.58 kcal/mol
USER    (4) Unbound System's Energy  [=(2)] =   -2.18 kcal/mol
USER    
USER    
USER  
USER    DPF = D:/Protein_go_brrr/autodock/final/mut_D99N/heme_Co/dock.dpf
USER    NEWDPF move	heme_Co_opt.pdbqt
USER    NEWDPF about	8.781000 34.984000 -0.736000
USER    NEWDPF tran0	-1.110974 -4.966213 18.013317
USER    NEWDPF axisangle0	0.794737 -0.021100 -0.606587 -132.741913
USER    NEWDPF quaternion0	0.728106 -0.019331 -0.555731 -0.400813
USER    NEWDPF dihe0	-170.06 123.38 40.52 126.88 -10.44 129.25 30.96 138.22 -180.00 -168.24 -174.86 1.04 
USER  
USER                              x       y       z    vdW   Elec        q     RMS 
ATOM      1  C   UNL d   1      -0.940  -3.910  19.903 -0.07 +0.05    +0.064    42.111
ATOM      2  C   UNL d   1      -4.650  -4.803  17.066 -0.21 +0.02    +0.064    42.111
ATOM      3  C   UNL d   1      -1.746  -6.778  13.827 -0.21 +0.01    +0.064    42.111
ATOM      4  C   UNL d   1       2.006  -6.226  16.873 -0.06 +0.02    +0.064    42.111
ATOM      5  C   UNL d   1      -2.162  -3.976  19.350 -0.13 +0.05    +0.066    42.111
ATOM      6  C   UNL d   1      -3.317  -3.554  20.037 -0.14 -0.01    -0.021    42.111
ATOM      7  C   UNL d   1      -4.393  -3.836  19.218 -0.15 -0.01    -0.025    42.111
ATOM      8  C   UNL d   1      -3.848  -4.403  18.061 -0.19 +0.03    +0.066    42.111
ATOM      9  C   UNL d   1      -5.883  -3.588  19.500 -0.03 +0.01    +0.051    42.111
ATOM     10  C   UNL d   1      -4.179  -5.373  15.829 -0.20 +0.02    +0.066    42.111
ATOM     11  C   UNL d   1      -4.957  -5.682  14.692 -0.27 -0.00    -0.021    42.111
ATOM     12  C   UNL d   1      -4.084  -6.253  13.761 -0.26 +0.00    +0.000    42.111
ATOM     13  C   UNL d   1      -2.840  -6.238  14.392 -0.17 +0.01    +0.070    42.111
ATOM     14  C   UNL d   1      -6.415  -5.357  14.493 -0.29 +0.01    +0.052    42.111
ATOM     15  C   UNL d   1      -0.401  -6.897  14.355 -0.16 +0.01    +0.066    42.111
ATOM     16  C   UNL d   1       0.650  -7.596  13.780 -0.22 +0.00    -0.021    42.111
ATOM     17  C   UNL d   1       1.734  -7.442  14.656 -0.14 -0.00    +0.000    42.111
ATOM     18  C   UNL d   1       1.261  -6.643  15.692 -0.09 +0.02    +0.070    42.111
ATOM     19  C   UNL d   1       0.588  -8.355  12.473 -0.14 -0.01    +0.052    42.111
ATOM     20  C   UNL d   1       1.543  -5.523  17.934 -0.00 +0.05    +0.066    42.111
ATOM     21  C   UNL d   1       2.347  -5.213  19.029 -0.04 -0.01    -0.025    42.111
ATOM     22  C   UNL d   1       1.532  -4.520  19.906 -0.05 -0.01    -0.021    42.111
ATOM     23  C   UNL d   1       0.258  -4.452  19.303 +0.13 +0.07    +0.066    42.111
ATOM     24  C   UNL d   1       3.814  -5.576  19.239 -0.01 +0.01    +0.051    42.111
ATOM     25  N   UNL d   1      -2.468  -4.497  18.113 -0.12 -0.19    -0.248    42.111
ATOM     26  N   UNL d   1      -2.888  -5.654  15.619 -0.11 -0.09    -0.248    42.111
ATOM     27  N   UNL d   1      -0.022  -6.363  15.495 -0.08 -0.10    -0.248    42.111
ATOM     28  N   UNL d   1       0.260  -5.059  18.111 +0.08 -0.34    -0.248    42.111
ATOM     29 FE   UNL d   1      -1.170  -5.484  16.728 -0.04 +0.00    +0.000    42.111
ATOM     30  C   UNL d   1      -3.377  -2.982  21.449 -0.08 +0.01    +0.052    42.111
ATOM     31  C   UNL d   1      -3.581  -4.099  22.473 -0.01 +0.01    +0.115    42.111
ATOM     32  C   UNL d   1      -3.714  -5.459  21.823 -0.01 +0.02    +0.139    42.111
ATOM     33  O   UNL d   1      -4.826  -5.934  21.646 +0.01 -0.06    -0.650    42.111
ATOM     34  O   UNL d   1      -2.639  -6.154  21.384 +0.02 -0.11    -0.776    42.111
ATOM     35  H   UNL d   1      -2.692  -6.986  20.895 +0.01 +0.02    +0.167    42.111
ATOM     36  C   UNL d   1      -1.641  -7.265  17.729 -0.02 +0.05    +0.190    42.111
ATOM     37  O   UNL d   1      -2.065  -7.771  18.962 +0.00 -0.06    -0.399    42.111
ATOM     38  H   UNL d   1      -2.331  -6.968  19.491 +0.01 +0.04    +0.209    42.111
ATOM     39  C   UNL d   1       1.944  -4.012  21.275 -0.02 +0.01    +0.052    42.111
ATOM     40  C   UNL d   1       2.216  -2.499  21.233 -0.03 +0.04    +0.115    42.111
ATOM     41  C   UNL d   1       1.878  -1.840  19.912 -0.07 +0.11    +0.139    42.111
ATOM     42  O   UNL d   1       2.695  -1.870  19.002 -0.36 -0.61    -0.650    42.111
ATOM     43  O   UNL d   1       0.664  -1.294  19.681 -0.01 -0.88    -0.776    42.111
ATOM     44  H   UNL d   1       0.229  -0.708  20.315 +0.01 +0.09    +0.167    42.111
ATOM     45  C   UNL d   1      -4.278  -6.790  12.349 -0.44 +0.00    +0.004    42.111
ATOM     46  C   UNL d   1      -3.747  -6.399  11.194 -0.57 -0.00    +0.012    42.111
ATOM     47  C   UNL d   1       3.107  -8.025  14.587 -0.18 -0.00    +0.004    42.111
ATOM     48  C   UNL d   1       3.374  -9.221  14.057 -0.22 -0.01    +0.012    42.111
TER
ENDMDL
MODEL       11
USER    Run = 11
USER    Cluster Rank = 40
USER    Number of conformations in this cluster = 2
USER  
USER    RMSD from reference structure       = 20.242 A
USER  
USER    Estimated Free Energy of Binding    =   -3.45 kcal/mol  [=(1)+(2)+(3)-(4)]
USER    Estimated Inhibition Constant, Ki   =    2.97 mM (millimolar)  [Temperature = 298.15 K]
USER    
USER    (1) Final Intermolecular Energy     =   -7.03 kcal/mol
USER        vdW + Hbond + desolv Energy     =   -7.11 kcal/mol
USER        Electrostatic Energy            =   +0.08 kcal/mol
USER    (2) Final Total Internal Energy     =   -2.29 kcal/mol
USER    (3) Torsional Free Energy           =   +3.58 kcal/mol
USER    (4) Unbound System's Energy  [=(2)] =   -2.29 kcal/mol
USER    
USER    
USER  
USER    DPF = D:/Protein_go_brrr/autodock/final/mut_D99N/heme_Co/dock.dpf
USER    NEWDPF move	heme_Co_opt.pdbqt
USER    NEWDPF about	8.781000 34.984000 -0.736000
USER    NEWDPF tran0	-1.206114 17.413127 9.755699
USER    NEWDPF axisangle0	0.135130 -0.819145 -0.557441 -163.955519
USER    NEWDPF quaternion0	0.133808 -0.811129 -0.551986 -0.139557
USER    NEWDPF dihe0	-162.94 100.48 166.74 -107.80 133.61 133.46 42.03 124.00 150.39 -118.39 -150.67 -44.99 
USER  
USER                              x       y       z    vdW   Elec        q     RMS 
ATOM      1  C   UNL d   1       0.871  17.579  10.368 -0.04 +0.00    +0.064    20.242
ATOM      2  C   UNL d   1      -1.524  19.373   6.672 -0.17 +0.01    +0.064    20.242
ATOM      3  C   UNL d   1      -5.424  16.937   7.969 -0.27 +0.00    +0.064    20.242
ATOM      4  C   UNL d   1      -3.117  15.396  11.965 -0.06 -0.02    +0.064    20.242
ATOM      5  C   UNL d   1       0.514  18.220   9.242 -0.13 +0.00    +0.066    20.242
ATOM      6  C   UNL d   1       1.382  19.112   8.583 -0.12 -0.00    -0.021    20.242
ATOM      7  C   UNL d   1       0.674  19.647   7.525 -0.12 -0.00    -0.025    20.242
ATOM      8  C   UNL d   1      -0.589  19.046   7.573 -0.18 +0.01    +0.066    20.242
ATOM      9  C   UNL d   1       1.154  20.685   6.499 -0.07 +0.00    +0.051    20.242
ATOM     10  C   UNL d   1      -2.841  18.789   6.627 -0.14 +0.01    +0.066    20.242
ATOM     11  C   UNL d   1      -3.817  18.984   5.626 -0.16 -0.00    -0.021    20.242
ATOM     12  C   UNL d   1      -4.943  18.259   6.028 -0.24 +0.00    +0.000    20.242
ATOM     13  C   UNL d   1      -4.567  17.667   7.233 -0.23 +0.01    +0.070    20.242
ATOM     14  C   UNL d   1      -3.632  19.738   4.335 -0.13 +0.01    +0.052    20.242
ATOM     15  C   UNL d   1      -5.222  16.300   9.255 -0.27 -0.00    +0.066    20.242
ATOM     16  C   UNL d   1      -6.193  15.682  10.030 -0.26 +0.00    -0.021    20.242
ATOM     17  C   UNL d   1      -5.533  15.238  11.185 -0.24 -0.00    +0.000    20.242
ATOM     18  C   UNL d   1      -4.203  15.606  11.015 -0.22 -0.02    +0.070    20.242
ATOM     19  C   UNL d   1      -7.653  15.544   9.660 -0.30 -0.01    +0.052    20.242
ATOM     20  C   UNL d   1      -1.836  15.821  11.859 -0.19 -0.01    +0.066    20.242
ATOM     21  C   UNL d   1      -0.891  15.587  12.857 -0.24 +0.01    -0.025    20.242
ATOM     22  C   UNL d   1       0.276  16.180  12.411 -0.17 +0.00    -0.021    20.242
ATOM     23  C   UNL d   1      -0.020  16.761  11.159 -0.06 -0.00    +0.066    20.242
ATOM     24  C   UNL d   1      -1.095  14.853  14.179 -0.26 -0.01    +0.051    20.242
ATOM     25  N   UNL d   1      -0.714  18.153   8.624 -0.16 -0.01    -0.248    20.242
ATOM     26  N   UNL d   1      -3.278  17.942   7.566 -0.15 -0.02    -0.248    20.242
ATOM     27  N   UNL d   1      -4.060  16.263   9.869 -0.17 +0.03    -0.248    20.242
ATOM     28  N   UNL d   1      -1.298  16.547  10.823 -0.13 +0.02    -0.248    20.242
ATOM     29 FE   UNL d   1      -2.484  17.150   9.286 -0.05 -0.00    +0.000    20.242
ATOM     30  C   UNL d   1       2.797  19.487   9.010 -0.08 +0.00    +0.052    20.242
ATOM     31  C   UNL d   1       2.773  20.261  10.328 -0.02 -0.00    +0.115    20.242
ATOM     32  C   UNL d   1       1.520  21.095  10.485 -0.01 -0.00    +0.139    20.242
ATOM     33  O   UNL d   1       1.494  22.230  10.034 +0.00 +0.00    -0.650    20.242
ATOM     34  O   UNL d   1       0.402  20.606  11.070 +0.01 +0.01    -0.776    20.242
ATOM     35  H   UNL d   1      -0.464  21.035  11.031 +0.01 -0.00    +0.167    20.242
ATOM     36  C   UNL d   1      -2.962  18.913  10.316 -0.03 -0.01    +0.190    20.242
ATOM     37  O   UNL d   1      -2.403  20.081  10.845 +0.00 +0.01    -0.399    20.242
ATOM     38  H   UNL d   1      -1.418  19.922  10.832 +0.02 -0.00    +0.209    20.242
ATOM     39  C   UNL d   1       1.583  16.239  13.180 -0.13 -0.01    +0.052    20.242
ATOM     40  C   UNL d   1       2.054  14.825  13.558 -0.22 -0.02    +0.115    20.242
ATOM     41  C   UNL d   1       2.206  13.882  12.383 -0.32 -0.02    +0.139    20.242
ATOM     42  O   UNL d   1       1.304  13.099  12.124 -0.19 +0.07    -0.650    20.242
ATOM     43  O   UNL d   1       3.276  13.941  11.559 +0.04 +0.12    -0.776    20.242
ATOM     44  H   UNL d   1       3.434  13.287  10.866 -0.26 -0.06    +0.167    20.242
ATOM     45  C   UNL d   1      -6.316  18.044   5.405 -0.16 +0.00    +0.004    20.242
ATOM     46  C   UNL d   1      -7.526  18.391   5.835 -0.17 +0.00    +0.012    20.242
ATOM     47  C   UNL d   1      -6.083  14.563  12.398 -0.25 -0.00    +0.004    20.242
ATOM     48  C   UNL d   1      -5.815  13.296  12.722 -0.40 -0.00    +0.012    20.242
TER
ENDMDL
MODEL       35
USER    Run = 35
USER    Cluster Rank = 41
USER    Number of conformations in this cluster = 1
USER  
USER    RMSD from reference structure       = 37.037 A
USER  
USER    Estimated Free Energy of Binding    =   -3.42 kcal/mol  [=(1)+(2)+(3)-(4)]
USER    Estimated Inhibition Constant, Ki   =    3.10 mM (millimolar)  [Temperature = 298.15 K]
USER    
USER    (1) Final Intermolecular Energy     =   -7.00 kcal/mol
USER        vdW + Hbond + desolv Energy     =   -6.28 kcal/mol
USER        Electrostatic Energy            =   -0.72 kcal/mol
USER    (2) Final Total Internal Energy     =   -1.89 kcal/mol
USER    (3) Torsional Free Energy           =   +3.58 kcal/mol
USER    (4) Unbound System's Energy  [=(2)] =   -1.89 kcal/mol
USER    
USER    
USER  
USER    DPF = D:/Protein_go_brrr/autodock/final/mut_D99N/heme_Co/dock.dpf
USER    NEWDPF move	heme_Co_opt.pdbqt
USER    NEWDPF about	8.781000 34.984000 -0.736000
USER    NEWDPF tran0	8.919208 0.097620 -15.768087
USER    NEWDPF axisangle0	0.929815 -0.352305 0.106420 65.595553
USER    NEWDPF quaternion0	0.503658 -0.190835 0.057645 0.840588
USER    NEWDPF dihe0	-146.62 112.17 -145.75 18.67 137.10 76.26 -129.47 111.21 91.89 146.36 -4.54 -180.00 
USER  
USER                              x       y       z    vdW   Elec        q     RMS 
ATOM      1  C   UNL d   1       6.768   0.199 -16.050 -0.18 +0.02    +0.064    37.037
ATOM      2  C   UNL d   1       9.596   1.622 -12.502 -0.30 +0.01    +0.064    37.037
ATOM      3  C   UNL d   1      13.376  -0.321 -14.684 -0.09 +0.01    +0.064    37.037
ATOM      4  C   UNL d   1      10.577  -1.447 -18.501 -0.09 +0.03    +0.064    37.037
ATOM      5  C   UNL d   1       7.257   0.699 -14.903 -0.15 +0.02    +0.066    37.037
ATOM      6  C   UNL d   1       6.454   1.425 -14.002 -0.25 -0.00    -0.021    37.037
ATOM      7  C   UNL d   1       7.284   1.855 -12.986 -0.27 -0.00    -0.025    37.037
ATOM      8  C   UNL d   1       8.554   1.359 -13.301 -0.20 +0.01    +0.066    37.037
ATOM      9  C   UNL d   1       6.912   2.701 -11.759 -0.25 +0.01    +0.051    37.037
ATOM     10  C   UNL d   1      10.933   1.133 -12.731 -0.22 +0.01    +0.066    37.037
ATOM     11  C   UNL d   1      12.037   1.255 -11.860 -0.22 -0.00    -0.021    37.037
ATOM     12  C   UNL d   1      13.125   0.677 -12.519 -0.16 +0.00    +0.000    37.037
ATOM     13  C   UNL d   1      12.603   0.234 -13.735 -0.14 +0.02    +0.070    37.037
ATOM     14  C   UNL d   1      12.009   1.805 -10.457 -0.23 +0.01    +0.052    37.037
ATOM     15  C   UNL d   1      13.015  -0.784 -16.010 -0.07 +0.02    +0.066    37.037
ATOM     16  C   UNL d   1      13.890  -1.216 -16.997 -0.04 -0.01    -0.021    37.037
ATOM     17  C   UNL d   1      13.087  -1.539 -18.101 -0.05 +0.00    +0.000    37.037
ATOM     18  C   UNL d   1      11.780  -1.295 -17.692 -0.07 +0.04    +0.070    37.037
ATOM     19  C   UNL d   1      15.394  -1.299 -16.862 -0.01 +0.01    +0.052    37.037
ATOM     20  C   UNL d   1       9.306  -1.134 -18.154 -0.13 +0.03    +0.066    37.037
ATOM     21  C   UNL d   1       8.236  -1.292 -19.032 -0.16 -0.01    -0.025    37.037
ATOM     22  C   UNL d   1       7.120  -0.853 -18.342 -0.18 -0.01    -0.021    37.037
ATOM     23  C   UNL d   1       7.571  -0.434 -17.072 -0.19 +0.02    +0.066    37.037
ATOM     24  C   UNL d   1       8.276  -1.816 -20.464 -0.15 +0.01    +0.051    37.037
ATOM     25  N   UNL d   1       8.566   0.634 -14.481 -0.00 -0.08    -0.248    37.037
ATOM     26  N   UNL d   1      11.266   0.461 -13.838 -0.10 -0.07    -0.248    37.037
ATOM     27  N   UNL d   1      11.778  -0.818 -16.452 -0.01 -0.15    -0.248    37.037
ATOM     28  N   UNL d   1       8.893  -0.601 -16.955 -0.09 -0.12    -0.248    37.037
ATOM     29 FE   UNL d   1      10.265  -0.136 -15.527 -0.04 +0.00    +0.000    37.037
ATOM     30  C   UNL d   1       4.974   1.754 -14.165 -0.26 +0.01    +0.052    37.037
ATOM     31  C   UNL d   1       4.111   0.552 -13.781 -0.37 +0.02    +0.115    37.037
ATOM     32  C   UNL d   1       3.830  -0.357 -14.959 -0.41 +0.04    +0.139    37.037
ATOM     33  O   UNL d   1       4.472  -1.388 -15.089 -0.31 -0.26    -0.650    37.037
ATOM     34  O   UNL d   1       2.851  -0.088 -15.854 +0.06 -0.27    -0.776    37.037
ATOM     35  H   UNL d   1       2.367  -0.763 -16.349 -0.45 +0.03    +0.167    37.037
ATOM     36  C   UNL d   1      10.494   1.783 -16.339 -0.04 +0.04    +0.190    37.037
ATOM     37  O   UNL d   1       9.993   2.645 -17.320 -0.00 -0.06    -0.399    37.037
ATOM     38  H   UNL d   1       9.284   2.119 -17.785 +0.01 +0.03    +0.209    37.037
ATOM     39  C   UNL d   1       5.712  -0.780 -18.902 -0.20 +0.01    +0.052    37.037
ATOM     40  C   UNL d   1       5.547   0.458 -19.799 -0.06 +0.02    +0.115    37.037
ATOM     41  C   UNL d   1       6.246   1.699 -19.284 -0.01 +0.02    +0.139    37.037
ATOM     42  O   UNL d   1       5.576   2.638 -18.877 +0.02 -0.10    -0.650    37.037
ATOM     43  O   UNL d   1       7.592   1.766 -19.181 +0.03 -0.11    -0.776    37.037
ATOM     44  H   UNL d   1       8.036   2.179 -18.429 +0.01 +0.02    +0.167    37.037
ATOM     45  C   UNL d   1      14.584   0.475 -12.135 -0.09 +0.00    +0.004    37.037
ATOM     46  C   UNL d   1      15.204   0.642 -10.970 -0.14 +0.00    +0.012    37.037
ATOM     47  C   UNL d   1      13.483  -1.996 -19.467 -0.01 +0.00    +0.004    37.037
ATOM     48  C   UNL d   1      13.175  -3.197 -19.961 -0.02 +0.00    +0.012    37.037
TER
ENDMDL
MODEL        2
USER    Run = 2
USER    Cluster Rank = 42
USER    Number of conformations in this cluster = 1
USER  
USER    RMSD from reference structure       = 19.874 A
USER  
USER    Estimated Free Energy of Binding    =   -3.40 kcal/mol  [=(1)+(2)+(3)-(4)]
USER    Estimated Inhibition Constant, Ki   =    3.23 mM (millimolar)  [Temperature = 298.15 K]
USER    
USER    (1) Final Intermolecular Energy     =   -6.98 kcal/mol
USER        vdW + Hbond + desolv Energy     =   -5.98 kcal/mol
USER        Electrostatic Energy            =   -0.99 kcal/mol
USER    (2) Final Total Internal Energy     =   -1.70 kcal/mol
USER    (3) Torsional Free Energy           =   +3.58 kcal/mol
USER    (4) Unbound System's Energy  [=(2)] =   -1.70 kcal/mol
USER    
USER    
USER  
USER    DPF = D:/Protein_go_brrr/autodock/final/mut_D99N/heme_Co/dock.dpf
USER    NEWDPF move	heme_Co_opt.pdbqt
USER    NEWDPF about	8.781000 34.984000 -0.736000
USER    NEWDPF tran0	8.431145 13.188667 1.031483
USER    NEWDPF axisangle0	-0.640866 -0.413057 -0.647050 -103.816095
USER    NEWDPF quaternion0	-0.504376 -0.325085 -0.509243 -0.616925
USER    NEWDPF dihe0	28.05 104.65 -11.51 93.90 132.87 157.60 85.60 90.26 15.72 -107.67 -37.89 -15.24 
USER  
USER                              x       y       z    vdW   Elec        q     RMS 
ATOM      1  C   UNL d   1       8.290  12.946  -1.122 -0.11 +0.01    +0.064    19.874
ATOM      2  C   UNL d   1       6.507  16.202   1.850 -0.19 +0.00    +0.064    19.874
ATOM      3  C   UNL d   1       8.196  13.763   5.595 -0.17 -0.01    +0.064    19.874
ATOM      4  C   UNL d   1      10.357  10.631   2.565 -0.12 +0.00    +0.064    19.874
ATOM      5  C   UNL d   1       7.648  13.995  -0.583 -0.13 +0.01    +0.066    19.874
ATOM      6  C   UNL d   1       7.066  15.003  -1.377 -0.09 -0.00    -0.021    19.874
ATOM      7  C   UNL d   1       6.570  15.957  -0.510 -0.11 -0.00    -0.025    19.874
ATOM      8  C   UNL d   1       6.856  15.483   0.775 -0.16 +0.00    +0.066    19.874
ATOM      9  C   UNL d   1       5.853  17.269  -0.862 -0.08 +0.00    +0.051    19.874
ATOM     10  C   UNL d   1       6.736  15.783   3.210 -0.21 -0.00    +0.066    19.874
ATOM     11  C   UNL d   1       6.270  16.423   4.380 -0.21 +0.00    -0.021    19.874
ATOM     12  C   UNL d   1       6.774  15.688   5.457 -0.22 -0.00    +0.000    19.874
ATOM     13  C   UNL d   1       7.496  14.651   4.867 -0.19 -0.01    +0.070    19.874
ATOM     14  C   UNL d   1       5.330  17.599   4.439 -0.16 +0.00    +0.052    19.874
ATOM     15  C   UNL d   1       9.034  12.666   5.152 -0.10 -0.00    +0.066    19.874
ATOM     16  C   UNL d   1       9.846  11.875   5.952 -0.14 -0.00    -0.021    19.874
ATOM     17  C   UNL d   1      10.473  10.972   5.082 -0.12 +0.00    +0.000    19.874
ATOM     18  C   UNL d   1       9.980  11.273   3.817 -0.08 +0.00    +0.070    19.874
ATOM     19  C   UNL d   1       9.991  12.003   7.452 -0.14 +0.00    +0.052    19.874
ATOM     20  C   UNL d   1       9.956  10.963   1.314 -0.12 +0.01    +0.066    19.874
ATOM     21  C   UNL d   1      10.416  10.293   0.183 -0.09 -0.00    -0.025    19.874
ATOM     22  C   UNL d   1       9.815  10.920  -0.893 -0.09 -0.00    -0.021    19.874
ATOM     23  C   UNL d   1       9.021  11.958  -0.361 -0.06 +0.02    +0.066    19.874
ATOM     24  C   UNL d   1      11.397   9.124   0.128 -0.05 +0.00    +0.051    19.874
ATOM     25  N   UNL d   1       7.518  14.267   0.760 -0.11 -0.02    -0.248    19.874
ATOM     26  N   UNL d   1       7.426  14.677   3.509 -0.17 +0.01    -0.248    19.874
ATOM     27  N   UNL d   1       9.149  12.307   3.893 -0.06 -0.00    -0.248    19.874
ATOM     28  N   UNL d   1       9.105  11.989   0.974 -0.10 -0.05    -0.248    19.874
ATOM     29 FE   UNL d   1       8.383  13.226   2.417 -0.04 +0.00    +0.000    19.874
ATOM     30  C   UNL d   1       7.066  15.075  -2.900 -0.05 +0.00    +0.052    19.874
ATOM     31  C   UNL d   1       6.685  13.722  -3.502 -0.11 +0.03    +0.115    19.874
ATOM     32  C   UNL d   1       6.991  13.642  -4.982 -0.02 +0.05    +0.139    19.874
ATOM     33  O   UNL d   1       6.708  14.584  -5.706 +0.01 -0.09    -0.650    19.874
ATOM     34  O   UNL d   1       7.615  12.573  -5.529 -0.32 -0.46    -0.776    19.874
ATOM     35  H   UNL d   1       7.616  11.687  -5.141 +0.02 +0.16    +0.167    19.874
ATOM     36  C   UNL d   1      10.042  14.488   2.198 -0.04 +0.01    +0.190    19.874
ATOM     37  O   UNL d   1      10.529  15.570   1.458 +0.00 -0.01    -0.399    19.874
ATOM     38  H   UNL d   1       9.864  15.701   0.726 +0.01 +0.01    +0.209    19.874
ATOM     39  C   UNL d   1      10.047  10.577  -2.352 -0.06 +0.01    +0.052    19.874
ATOM     40  C   UNL d   1       9.110   9.442  -2.799 -0.15 +0.03    +0.115    19.874
ATOM     41  C   UNL d   1       7.643   9.814  -2.818 -0.24 +0.07    +0.139    19.874
ATOM     42  O   UNL d   1       6.829   9.069  -2.291 -0.60 -0.35    -0.650    19.874
ATOM     43  O   UNL d   1       7.215  10.991  -3.327 -0.18 -0.50    -0.776    19.874
ATOM     44  H   UNL d   1       7.823  11.676  -3.634 +0.04 +0.08    +0.167    19.874
ATOM     45  C   UNL d   1       6.641  15.836   6.967 -0.22 -0.00    +0.004    19.874
ATOM     46  C   UNL d   1       5.699  15.401   7.799 -0.30 -0.00    +0.012    19.874
ATOM     47  C   UNL d   1      11.501   9.927   5.371 -0.08 +0.00    +0.004    19.874
ATOM     48  C   UNL d   1      11.260   8.616   5.295 -0.10 +0.00    +0.012    19.874
TER
ENDMDL
MODEL       45
USER    Run = 45
USER    Cluster Rank = 43
USER    Number of conformations in this cluster = 3
USER  
USER    RMSD from reference structure       = 37.128 A
USER  
USER    Estimated Free Energy of Binding    =   -3.36 kcal/mol  [=(1)+(2)+(3)-(4)]
USER    Estimated Inhibition Constant, Ki   =    3.44 mM (millimolar)  [Temperature = 298.15 K]
USER    
USER    (1) Final Intermolecular Energy     =   -6.94 kcal/mol
USER        vdW + Hbond + desolv Energy     =   -6.17 kcal/mol
USER        Electrostatic Energy            =   -0.77 kcal/mol
USER    (2) Final Total Internal Energy     =   -2.79 kcal/mol
USER    (3) Torsional Free Energy           =   +3.58 kcal/mol
USER    (4) Unbound System's Energy  [=(2)] =   -2.79 kcal/mol
USER    
USER    
USER  
USER    DPF = D:/Protein_go_brrr/autodock/final/mut_D99N/heme_Co/dock.dpf
USER    NEWDPF move	heme_Co_opt.pdbqt
USER    NEWDPF about	8.781000 34.984000 -0.736000
USER    NEWDPF tran0	19.821397 -3.860423 2.828739
USER    NEWDPF axisangle0	-0.376660 -0.824637 -0.422021 179.691339
USER    NEWDPF quaternion0	-0.376658 -0.824634 -0.422020 0.002694
USER    NEWDPF dihe0	-10.43 113.72 92.03 117.71 -91.46 137.57 32.31 98.31 179.20 82.31 -176.82 -180.00 
USER  
USER                              x       y       z    vdW   Elec        q     RMS 
ATOM      1  C   UNL d   1      21.242  -5.477   3.118 +0.24 +0.02    +0.064    37.128
ATOM      2  C   UNL d   1      19.898  -3.058  -0.749 -0.24 -0.01    +0.064    37.128
ATOM      3  C   UNL d   1      16.608  -0.722   1.810 +0.05 -0.00    +0.064    37.128
ATOM      4  C   UNL d   1      18.223  -2.899   5.849 -0.15 -0.00    +0.064    37.128
ATOM      5  C   UNL d   1      21.092  -5.014   1.866 -0.21 +0.01    +0.066    37.128
ATOM      6  C   UNL d   1      21.940  -5.413   0.814 -0.21 -0.00    -0.021    37.128
ATOM      7  C   UNL d   1      21.560  -4.691  -0.300 -0.19 -0.00    -0.025    37.128
ATOM      8  C   UNL d   1      20.487  -3.895   0.115 -0.20 -0.00    +0.066    37.128
ATOM      9  C   UNL d   1      22.174  -4.738  -1.707 -0.17 +0.00    +0.051    37.128
ATOM     10  C   UNL d   1      18.772  -2.220  -0.420 -0.19 -0.01    +0.066    37.128
ATOM     11  C   UNL d   1      18.022  -1.426  -1.315 -0.26 +0.00    -0.021    37.128
ATOM     12  C   UNL d   1      17.066  -0.759  -0.543 -0.26 -0.00    +0.000    37.128
ATOM     13  C   UNL d   1      17.296  -1.203   0.759 -0.18 -0.01    +0.070    37.128
ATOM     14  C   UNL d   1      18.163  -1.396  -2.815 -0.36 -0.01    +0.052    37.128
ATOM     15  C   UNL d   1      16.749  -1.029   3.220 -0.19 -0.00    +0.066    37.128
ATOM     16  C   UNL d   1      16.105  -0.388   4.270 -0.24 +0.00    -0.021    37.128
ATOM     17  C   UNL d   1      16.570  -1.011   5.437 -0.24 -0.00    +0.000    37.128
ATOM     18  C   UNL d   1      17.450  -1.997   5.004 -0.20 -0.00    +0.070    37.128
ATOM     19  C   UNL d   1      15.115   0.746   4.130 -0.27 -0.00    +0.052    37.128
ATOM     20  C   UNL d   1      19.149  -3.807   5.456 -0.12 +0.01    +0.066    37.128
ATOM     21  C   UNL d   1      19.853  -4.592   6.366 -0.12 -0.00    -0.025    37.128
ATOM     22  C   UNL d   1      20.710  -5.366   5.605 -0.18 -0.01    -0.021    37.128
ATOM     23  C   UNL d   1      20.493  -5.003   4.259 -0.18 +0.01    +0.066    37.128
ATOM     24  C   UNL d   1      19.730  -4.592   7.887 -0.06 +0.00    +0.051    37.128
ATOM     25  N   UNL d   1      20.172  -4.079   1.450 -0.15 +0.01    -0.248    37.128
ATOM     26  N   UNL d   1      18.290  -2.129   0.824 -0.11 +0.03    -0.248    37.128
ATOM     27  N   UNL d   1      17.555  -1.958   3.681 -0.14 +0.02    -0.248    37.128
ATOM     28  N   UNL d   1      19.551  -4.057   4.165 -0.12 -0.03    -0.248    37.128
ATOM     29 FE   UNL d   1      18.787  -2.958   2.634 -0.05 -0.00    +0.000    37.128
ATOM     30  C   UNL d   1      23.112  -6.385   0.910 -0.16 +0.02    +0.052    37.128
ATOM     31  C   UNL d   1      24.414  -5.631   1.178 -0.10 +0.03    +0.115    37.128
ATOM     32  C   UNL d   1      24.216  -4.131   1.213 -0.04 +0.02    +0.139    37.128
ATOM     33  O   UNL d   1      24.454  -3.470   0.214 +0.02 -0.07    -0.650    37.128
ATOM     34  O   UNL d   1      23.735  -3.496   2.308 +0.03 -0.12    -0.776    37.128
ATOM     35  H   UNL d   1      23.301  -3.942   3.048 +0.02 +0.03    +0.167    37.128
ATOM     36  C   UNL d   1      20.309  -1.535   2.866 -0.03 +0.00    +0.190    37.128
ATOM     37  O   UNL d   1      21.690  -1.351   2.742 +0.00 -0.02    -0.399    37.128
ATOM     38  H   UNL d   1      22.038  -2.229   2.422 +0.02 +0.01    +0.209    37.128
ATOM     39  C   UNL d   1      21.726  -6.352   6.153 -0.15 +0.02    +0.052    37.128
ATOM     40  C   UNL d   1      22.974  -5.615   6.666 -0.08 +0.05    +0.115    37.128
ATOM     41  C   UNL d   1      24.170  -5.693   5.741 -0.02 +0.09    +0.139    37.128
ATOM     42  O   UNL d   1      25.226  -6.141   6.164 -0.04 -0.51    -0.650    37.128
ATOM     43  O   UNL d   1      24.079  -5.361   4.434 +0.00 -0.41    -0.776    37.128
ATOM     44  H   UNL d   1      24.350  -4.497   4.098 +0.02 +0.05    +0.167    37.128
ATOM     45  C   UNL d   1      15.958   0.227  -0.886 -0.29 -0.00    +0.004    37.128
ATOM     46  C   UNL d   1      14.636   0.078  -0.885 -0.34 -0.00    +0.012    37.128
ATOM     47  C   UNL d   1      16.273  -0.700   6.867 -0.22 +0.00    +0.004    37.128
ATOM     48  C   UNL d   1      17.183  -0.227   7.723 -0.12 +0.00    +0.012    37.128
TER
ENDMDL
MODEL       50
USER    Run = 50
USER    Cluster Rank = 44
USER    Number of conformations in this cluster = 1
USER  
USER    RMSD from reference structure       = 45.330 A
USER  
USER    Estimated Free Energy of Binding    =   -3.31 kcal/mol  [=(1)+(2)+(3)-(4)]
USER    Estimated Inhibition Constant, Ki   =    3.76 mM (millimolar)  [Temperature = 298.15 K]
USER    
USER    (1) Final Intermolecular Energy     =   -6.89 kcal/mol
USER        vdW + Hbond + desolv Energy     =   -5.36 kcal/mol
USER        Electrostatic Energy            =   -1.53 kcal/mol
USER    (2) Final Total Internal Energy     =   -2.66 kcal/mol
USER    (3) Torsional Free Energy           =   +3.58 kcal/mol
USER    (4) Unbound System's Energy  [=(2)] =   -2.66 kcal/mol
USER    
USER    
USER  
USER    DPF = D:/Protein_go_brrr/autodock/final/mut_D99N/heme_Co/dock.dpf
USER    NEWDPF move	heme_Co_opt.pdbqt
USER    NEWDPF about	8.781000 34.984000 -0.736000
USER    NEWDPF tran0	21.344191 -10.535722 -2.826931
USER    NEWDPF axisangle0	-0.709572 -0.538750 0.454153 139.055311
USER    NEWDPF quaternion0	-0.664757 -0.504723 0.425469 0.349755
USER    NEWDPF dihe0	-89.06 101.03 37.66 116.37 127.12 136.97 56.75 151.66 -122.08 16.25 180.00 161.44 
USER  
USER                              x       y       z    vdW   Elec        q     RMS 
ATOM      1  C   UNL d   1      21.760 -10.621  -0.697 -0.15 +0.00    +0.064    45.330
ATOM      2  C   UNL d   1      18.551 -12.837  -3.417 -0.15 -0.00    +0.064    45.330
ATOM      3  C   UNL d   1      19.947 -10.287  -7.209 -0.16 +0.01    +0.064    45.330
ATOM      4  C   UNL d   1      23.490  -8.287  -4.542 -0.07 +0.01    +0.064    45.330
ATOM      5  C   UNL d   1      20.756 -11.388  -1.154 -0.14 -0.00    +0.066    45.330
ATOM      6  C   UNL d   1      20.119 -12.346  -0.341 -0.24 +0.00    -0.021    45.330
ATOM      7  C   UNL d   1      19.204 -13.002  -1.142 -0.21 +0.00    -0.025    45.330
ATOM      8  C   UNL d   1      19.311 -12.405  -2.403 -0.19 -0.00    +0.066    45.330
ATOM      9  C   UNL d   1      18.260 -14.148  -0.749 -0.16 -0.01    +0.051    45.330
ATOM     10  C   UNL d   1      18.572 -12.268  -4.742 -0.13 +0.00    +0.066    45.330
ATOM     11  C   UNL d   1      17.703 -12.582  -5.809 -0.12 -0.00    -0.021    45.330
ATOM     12  C   UNL d   1      18.130 -11.821  -6.901 -0.15 +0.00    +0.000    45.330
ATOM     13  C   UNL d   1      19.217 -11.092  -6.417 -0.10 +0.01    +0.070    45.330
ATOM     14  C   UNL d   1      16.493 -13.478  -5.741 -0.09 +0.00    +0.052    45.330
ATOM     15  C   UNL d   1      21.126  -9.506  -6.890 -0.15 +0.01    +0.066    45.330
ATOM     16  C   UNL d   1      21.919  -8.808  -7.789 -0.14 -0.00    -0.021    45.330
ATOM     17  C   UNL d   1      22.944  -8.232  -7.025 -0.10 +0.00    +0.000    45.330
ATOM     18  C   UNL d   1      22.684  -8.611  -5.712 -0.11 +0.01    +0.070    45.330
ATOM     19  C   UNL d   1      21.684  -8.720  -9.281 -0.12 +0.00    +0.052    45.330
ATOM     20  C   UNL d   1      23.306  -8.715  -3.270 -0.08 +0.01    +0.066    45.330
ATOM     21  C   UNL d   1      24.170  -8.365  -2.235 -0.06 -0.00    -0.025    45.330
ATOM     22  C   UNL d   1      23.680  -9.000  -1.109 -0.13 -0.00    -0.021    45.330
ATOM     23  C   UNL d   1      22.538  -9.721  -1.518 -0.17 +0.00    +0.066    45.330
ATOM     24  C   UNL d   1      25.415  -7.485  -2.319 -0.03 +0.01    +0.051    45.330
ATOM     25  N   UNL d   1      20.260 -11.398  -2.438 -0.14 +0.01    -0.248    45.330
ATOM     26  N   UNL d   1      19.448 -11.322  -5.097 -0.04 -0.02    -0.248    45.330
ATOM     27  N   UNL d   1      21.611  -9.394  -5.673 -0.03 -0.03    -0.248    45.330
ATOM     28  N   UNL d   1      22.310  -9.554  -2.826 -0.08 -0.01    -0.248    45.330
ATOM     29 FE   UNL d   1      20.978 -10.335  -4.149 -0.04 +0.00    +0.000    45.330
ATOM     30  C   UNL d   1      20.441 -12.663   1.115 -0.25 +0.00    +0.052    45.330
ATOM     31  C   UNL d   1      21.393 -13.855   1.208 -0.08 +0.01    +0.115    45.330
ATOM     32  C   UNL d   1      22.666 -13.639   0.419 -0.05 +0.02    +0.139    45.330
ATOM     33  O   UNL d   1      22.632 -13.683  -0.802 +0.03 -0.05    -0.650    45.330
ATOM     34  O   UNL d   1      23.843 -13.350   1.021 +0.03 -0.18    -0.776    45.330
ATOM     35  H   UNL d   1      24.172 -12.452   1.170 +0.02 +0.06    +0.167    45.330
ATOM     36  C   UNL d   1      22.244 -11.970  -4.494 -0.03 +0.01    +0.190    45.330
ATOM     37  O   UNL d   1      22.803 -13.095  -3.880 -0.00 -0.02    -0.399    45.330
ATOM     38  H   UNL d   1      22.620 -12.973  -2.907 +0.02 +0.01    +0.209    45.330
ATOM     39  C   UNL d   1      24.316  -8.964   0.268 -0.15 +0.02    +0.052    45.330
ATOM     40  C   UNL d   1      25.179 -10.215   0.500 -0.10 +0.05    +0.115    45.330
ATOM     41  C   UNL d   1      25.648 -10.395   1.929 -0.07 +0.13    +0.139    45.330
ATOM     42  O   UNL d   1      26.487  -9.631   2.384 -0.29 -0.69    -0.650    45.330
ATOM     43  O   UNL d   1      25.100 -11.323   2.744 -0.37 -1.00    -0.776    45.330
ATOM     44  H   UNL d   1      24.914 -12.225   2.453 +0.01 +0.12    +0.167    45.330
ATOM     45  C   UNL d   1      17.628 -11.685  -8.332 -0.16 +0.00    +0.004    45.330
ATOM     46  C   UNL d   1      16.986 -10.687  -8.933 -0.27 +0.00    +0.012    45.330
ATOM     47  C   UNL d   1      24.122  -7.425  -7.463 -0.06 +0.00    +0.004    45.330
ATOM     48  C   UNL d   1      24.214  -6.103  -7.294 -0.08 +0.00    +0.012    45.330
TER
ENDMDL
MODEL       12
USER    Run = 12
USER    Cluster Rank = 45
USER    Number of conformations in this cluster = 1
USER  
USER    RMSD from reference structure       = 36.175 A
USER  
USER    Estimated Free Energy of Binding    =   -3.18 kcal/mol  [=(1)+(2)+(3)-(4)]
USER    Estimated Inhibition Constant, Ki   =    4.64 mM (millimolar)  [Temperature = 298.15 K]
USER    
USER    (1) Final Intermolecular Energy     =   -6.76 kcal/mol
USER        vdW + Hbond + desolv Energy     =   -5.56 kcal/mol
USER        Electrostatic Energy            =   -1.20 kcal/mol
USER    (2) Final Total Internal Energy     =   -2.54 kcal/mol
USER    (3) Torsional Free Energy           =   +3.58 kcal/mol
USER    (4) Unbound System's Energy  [=(2)] =   -2.54 kcal/mol
USER    
USER    
USER  
USER    DPF = D:/Protein_go_brrr/autodock/final/mut_D99N/heme_Co/dock.dpf
USER    NEWDPF move	heme_Co_opt.pdbqt
USER    NEWDPF about	8.781000 34.984000 -0.736000
USER    NEWDPF tran0	-8.003114 7.021080 20.881978
USER    NEWDPF axisangle0	0.829558 -0.102677 0.548900 -94.336790
USER    NEWDPF quaternion0	0.608361 -0.075299 0.402538 -0.679846
USER    NEWDPF dihe0	-43.65 120.53 69.09 -7.42 135.67 77.44 -156.10 -69.60 -24.49 139.36 -142.44 177.63 
USER  
USER                              x       y       z    vdW   Elec        q     RMS 
ATOM      1  C   UNL d   1      -9.937   6.862  19.907 -0.09 +0.02    +0.064    36.175
ATOM      2  C   UNL d   1      -5.954   4.291  19.542 -0.36 -0.00    +0.064    36.175
ATOM      3  C   UNL d   1      -3.686   7.321  22.458 -0.03 -0.05    +0.064    36.175
ATOM      4  C   UNL d   1      -7.845   9.745  23.153 -0.05 -0.01    +0.064    36.175
ATOM      5  C   UNL d   1      -9.005   5.957  19.565 -0.19 +0.02    +0.066    36.175
ATOM      6  C   UNL d   1      -9.307   4.842  18.759 -0.27 -0.01    -0.021    36.175
ATOM      7  C   UNL d   1      -8.154   4.087  18.675 -0.34 -0.00    -0.025    36.175
ATOM      8  C   UNL d   1      -7.194   4.782  19.419 -0.30 +0.00    +0.066    36.175
ATOM      9  C   UNL d   1      -7.948   2.761  17.928 -0.38 +0.01    +0.051    36.175
ATOM     10  C   UNL d   1      -4.894   4.948  20.264 -0.26 -0.01    +0.066    36.175
ATOM     11  C   UNL d   1      -3.538   4.556  20.314 -0.33 +0.00    -0.021    36.175
ATOM     12  C   UNL d   1      -2.899   5.459  21.168 -0.24 -0.00    +0.000    36.175
ATOM     13  C   UNL d   1      -3.905   6.340  21.565 -0.17 -0.03    +0.070    36.175
ATOM     14  C   UNL d   1      -2.899   3.449  19.516 -0.28 -0.01    +0.052    36.175
ATOM     15  C   UNL d   1      -4.616   8.282  23.016 -0.02 -0.05    +0.066    36.175
ATOM     16  C   UNL d   1      -4.357   9.177  24.044 -0.06 +0.01    -0.021    36.175
ATOM     17  C   UNL d   1      -5.555   9.877  24.250 -0.06 -0.00    +0.000    36.175
ATOM     18  C   UNL d   1      -6.448   9.363  23.316 -0.08 -0.03    +0.070    36.175
ATOM     19  C   UNL d   1      -3.036   9.327  24.764 -0.05 -0.02    +0.052    36.175
ATOM     20  C   UNL d   1      -8.756   9.200  22.312 -0.07 -0.01    +0.066    36.175
ATOM     21  C   UNL d   1     -10.081   9.629  22.271 -0.03 +0.00    -0.025    36.175
ATOM     22  C   UNL d   1     -10.701   8.835  21.324 -0.06 -0.00    -0.021    36.175
ATOM     23  C   UNL d   1      -9.719   7.946  20.838 -0.11 +0.01    +0.066    36.175
ATOM     24  C   UNL d   1     -10.730  10.728  23.108 -0.01 -0.00    +0.051    36.175
ATOM     25  N   UNL d   1      -7.692   5.947  19.976 -0.16 -0.03    -0.248    36.175
ATOM     26  N   UNL d   1      -5.098   6.063  20.974 -0.13 +0.06    -0.248    36.175
ATOM     27  N   UNL d   1      -5.864   8.394  22.619 -0.04 +0.12    -0.248    36.175
ATOM     28  N   UNL d   1      -8.541   8.162  21.435 -0.10 -0.00    -0.248    36.175
ATOM     29 FE   UNL d   1      -6.727   7.245  21.376 -0.04 -0.00    +0.000    36.175
ATOM     30  C   UNL d   1     -10.669   4.486  18.171 -0.26 +0.04    +0.052    36.175
ATOM     31  C   UNL d   1     -11.708   4.329  19.280 -0.12 +0.07    +0.115    36.175
ATOM     32  C   UNL d   1     -13.115   4.610  18.797 -0.09 +0.12    +0.139    36.175
ATOM     33  O   UNL d   1     -13.685   3.788  18.096 -0.29 -1.01    -0.650    36.175
ATOM     34  O   UNL d   1     -13.787   5.728  19.158 +0.04 -0.39    -0.776    36.175
ATOM     35  H   UNL d   1     -13.854   6.053  20.066 +0.02 +0.05    +0.167    36.175
ATOM     36  C   UNL d   1      -7.332   5.902  22.868 -0.02 -0.01    +0.190    36.175
ATOM     37  O   UNL d   1      -8.437   5.503  23.626 +0.01 +0.01    -0.399    36.175
ATOM     38  H   UNL d   1      -9.209   6.001  23.236 +0.02 +0.00    +0.209    36.175
ATOM     39  C   UNL d   1     -12.173   8.889  20.958 -0.03 +0.00    +0.052    36.175
ATOM     40  C   UNL d   1     -13.015   8.107  21.979 -0.00 +0.01    +0.115    36.175
ATOM     41  C   UNL d   1     -12.460   6.744  22.333 +0.00 +0.01    +0.139    36.175
ATOM     42  O   UNL d   1     -11.419   6.668  22.971 +0.01 -0.03    -0.650    36.175
ATOM     43  O   UNL d   1     -13.129   5.606  22.040 +0.02 -0.10    -0.776    36.175
ATOM     44  H   UNL d   1     -13.173   5.246  21.145 +0.01 +0.04    +0.167    36.175
ATOM     45  C   UNL d   1      -1.457   5.602  21.637 -0.25 -0.00    +0.004    36.175
ATOM     46  C   UNL d   1      -0.441   4.745  21.587 -0.28 -0.00    +0.012    36.175
ATOM     47  C   UNL d   1      -5.889  10.917  25.268 -0.02 -0.00    +0.004    36.175
ATOM     48  C   UNL d   1      -6.162  12.188  24.962 -0.01 -0.00    +0.012    36.175
TER
ENDMDL
MODEL        4
USER    Run = 4
USER    Cluster Rank = 46
USER    Number of conformations in this cluster = 1
USER  
USER    RMSD from reference structure       = 47.657 A
USER  
USER    Estimated Free Energy of Binding    =   -3.15 kcal/mol  [=(1)+(2)+(3)-(4)]
USER    Estimated Inhibition Constant, Ki   =    4.92 mM (millimolar)  [Temperature = 298.15 K]
USER    
USER    (1) Final Intermolecular Energy     =   -6.73 kcal/mol
USER        vdW + Hbond + desolv Energy     =   -5.93 kcal/mol
USER        Electrostatic Energy            =   -0.80 kcal/mol
USER    (2) Final Total Internal Energy     =   -2.02 kcal/mol
USER    (3) Torsional Free Energy           =   +3.58 kcal/mol
USER    (4) Unbound System's Energy  [=(2)] =   -2.02 kcal/mol
USER    
USER    
USER  
USER    DPF = D:/Protein_go_brrr/autodock/final/mut_D99N/heme_Co/dock.dpf
USER    NEWDPF move	heme_Co_opt.pdbqt
USER    NEWDPF about	8.781000 34.984000 -0.736000
USER    NEWDPF tran0	11.921859 -15.174371 5.748606
USER    NEWDPF axisangle0	0.461852 0.229108 0.856856 -126.222909
USER    NEWDPF quaternion0	0.411920 0.204339 0.764220 -0.452256
USER    NEWDPF dihe0	-94.91 113.30 -143.15 98.91 94.06 75.91 141.67 113.62 -101.57 144.00 -10.19 -179.98 
USER  
USER                              x       y       z    vdW   Elec        q     RMS 
ATOM      1  C   UNL d   1      11.455 -17.040   4.739 -0.14 +0.01    +0.064    47.657
ATOM      2  C   UNL d   1      15.572 -14.833   5.633 -0.02 -0.04    +0.064    47.657
ATOM      3  C   UNL d   1      13.216 -11.100   7.463 -0.03 -0.03    +0.064    47.657
ATOM      4  C   UNL d   1       9.019 -13.497   6.914 -0.18 -0.02    +0.064    47.657
ATOM      5  C   UNL d   1      12.752 -16.695   4.816 -0.14 +0.01    +0.066    47.657
ATOM      6  C   UNL d   1      13.783 -17.576   4.435 -0.10 -0.00    -0.021    47.657
ATOM      7  C   UNL d   1      14.975 -16.940   4.718 -0.09 +0.00    -0.025    47.657
ATOM      8  C   UNL d   1      14.621 -15.692   5.243 -0.09 -0.03    +0.066    47.657
ATOM      9  C   UNL d   1      16.401 -17.472   4.508 -0.04 -0.00    +0.051    47.657
ATOM     10  C   UNL d   1      15.304 -13.518   6.160 -0.08 -0.04    +0.066    47.657
ATOM     11  C   UNL d   1      16.255 -12.518   6.455 -0.12 +0.01    -0.021    47.657
ATOM     12  C   UNL d   1      15.541 -11.439   6.984 -0.17 -0.00    +0.000    47.657
ATOM     13  C   UNL d   1      14.209 -11.855   6.960 -0.17 -0.03    +0.070    47.657
ATOM     14  C   UNL d   1      17.731 -12.574   6.155 -0.12 -0.01    +0.052    47.657
ATOM     15  C   UNL d   1      11.800 -11.394   7.567 -0.20 -0.02    +0.066    47.657
ATOM     16  C   UNL d   1      10.848 -10.632   8.230 -0.25 +0.01    -0.021    47.657
ATOM     17  C   UNL d   1       9.636 -11.321   8.077 -0.24 -0.00    +0.000    47.657
ATOM     18  C   UNL d   1       9.943 -12.444   7.315 -0.20 -0.02    +0.070    47.657
ATOM     19  C   UNL d   1      11.115  -9.332   8.956 -0.27 -0.02    +0.052    47.657
ATOM     20  C   UNL d   1       9.310 -14.640   6.249 -0.17 -0.01    +0.066    47.657
ATOM     21  C   UNL d   1       8.340 -15.595   5.951 -0.14 +0.00    -0.025    47.657
ATOM     22  C   UNL d   1       9.008 -16.614   5.298 -0.15 +0.00    -0.021    47.657
ATOM     23  C   UNL d   1      10.366 -16.233   5.240 -0.13 +0.00    +0.066    47.657
ATOM     24  C   UNL d   1       6.852 -15.548   6.290 -0.19 -0.01    +0.051    47.657
ATOM     25  N   UNL d   1      13.250 -15.511   5.310 -0.11 +0.05    -0.248    47.657
ATOM     26  N   UNL d   1      14.062 -13.089   6.410 -0.08 +0.13    -0.248    47.657
ATOM     27  N   UNL d   1      11.246 -12.470   7.056 -0.11 +0.07    -0.248    47.657
ATOM     28  N   UNL d   1      10.553 -15.040   5.816 -0.14 +0.02    -0.248    47.657
ATOM     29 FE   UNL d   1      12.185 -13.902   6.234 -0.04 -0.00    +0.000    47.657
ATOM     30  C   UNL d   1      13.616 -18.995   3.902 -0.06 +0.01    +0.052    47.657
ATOM     31  C   UNL d   1      13.113 -18.971   2.459 -0.06 +0.05    +0.115    47.657
ATOM     32  C   UNL d   1      14.205 -18.619   1.472 +0.04 +0.10    +0.139    47.657
ATOM     33  O   UNL d   1      15.370 -18.614   1.842 -0.01 -0.22    -0.650    47.657
ATOM     34  O   UNL d   1      13.940 -18.355   0.172 -0.33 -0.87    -0.776    47.657
ATOM     35  H   UNL d   1      14.046 -18.995  -0.546 +0.01 +0.09    +0.167    47.657
ATOM     36  C   UNL d   1      12.456 -14.915   8.049 -0.02 -0.03    +0.190    47.657
ATOM     37  O   UNL d   1      11.965 -15.976   8.817 +0.00 +0.04    -0.399    47.657
ATOM     38  H   UNL d   1      11.225 -16.366   8.273 +0.02 -0.02    +0.209    47.657
ATOM     39  C   UNL d   1       8.382 -17.910   4.818 -0.18 -0.00    +0.052    47.657
ATOM     40  C   UNL d   1       8.195 -18.889   5.989 -0.05 -0.00    +0.115    47.657
ATOM     41  C   UNL d   1       9.360 -18.938   6.955 -0.02 -0.00    +0.139    47.657
ATOM     42  O   UNL d   1      10.084 -19.924   6.970 +0.01 +0.01    -0.650    47.657
ATOM     43  O   UNL d   1       9.676 -17.885   7.741 +0.03 +0.04    -0.776    47.657
ATOM     44  H   UNL d   1      10.587 -17.593   7.876 +0.01 -0.01    +0.167    47.657
ATOM     45  C   UNL d   1      15.958 -10.064   7.487 -0.22 -0.00    +0.004    47.657
ATOM     46  C   UNL d   1      16.071  -8.904   6.846 -0.34 -0.00    +0.012    47.657
ATOM     47  C   UNL d   1       8.285 -11.008   8.630 -0.34 -0.00    +0.004    47.657
ATOM     48  C   UNL d   1       7.522 -10.005   8.189 -0.50 -0.01    +0.012    47.657
TER
ENDMDL
MODEL        9
USER    Run = 9
USER    Cluster Rank = 47
USER    Number of conformations in this cluster = 1
USER  
USER    RMSD from reference structure       = 33.536 A
USER  
USER    Estimated Free Energy of Binding    =   -3.13 kcal/mol  [=(1)+(2)+(3)-(4)]
USER    Estimated Inhibition Constant, Ki   =    5.10 mM (millimolar)  [Temperature = 298.15 K]
USER    
USER    (1) Final Intermolecular Energy     =   -6.71 kcal/mol
USER        vdW + Hbond + desolv Energy     =   -3.80 kcal/mol
USER        Electrostatic Energy            =   -2.91 kcal/mol
USER    (2) Final Total Internal Energy     =   -2.40 kcal/mol
USER    (3) Torsional Free Energy           =   +3.58 kcal/mol
USER    (4) Unbound System's Energy  [=(2)] =   -2.40 kcal/mol
USER    
USER    
USER  
USER    DPF = D:/Protein_go_brrr/autodock/final/mut_D99N/heme_Co/dock.dpf
USER    NEWDPF move	heme_Co_opt.pdbqt
USER    NEWDPF about	8.781000 34.984000 -0.736000
USER    NEWDPF tran0	-5.961194 7.762979 -17.948368
USER    NEWDPF axisangle0	-0.834648 -0.550192 -0.025531 -153.400334
USER    NEWDPF quaternion0	-0.812262 -0.535436 -0.024847 -0.230047
USER    NEWDPF dihe0	89.27 100.37 32.64 116.98 137.60 125.34 -141.96 124.30 -128.52 17.49 -168.57 -178.55 
USER  
USER                              x       y       z    vdW   Elec        q     RMS 
ATOM      1  C   UNL d   1      -6.169   5.602 -17.917 -0.20 +0.04    +0.064    33.536
ATOM      2  C   UNL d   1      -8.747   9.031 -19.968 -0.12 -0.01    +0.064    33.536
ATOM      3  C   UNL d   1      -6.040  12.368 -17.880 -0.11 -0.01    +0.064    33.536
ATOM      4  C   UNL d   1      -3.156   8.885 -16.084 -0.09 +0.00    +0.064    33.536
ATOM      5  C   UNL d   1      -7.095   6.294 -18.602 -0.17 +0.03    +0.066    33.536
ATOM      6  C   UNL d   1      -8.049   5.658 -19.420 -0.15 -0.01    -0.021    33.536
ATOM      7  C   UNL d   1      -8.780   6.659 -20.031 -0.09 -0.00    -0.025    33.536
ATOM      8  C   UNL d   1      -8.252   7.860 -19.547 -0.10 -0.00    +0.066    33.536
ATOM      9  C   UNL d   1      -9.933   6.505 -21.034 -0.04 -0.00    +0.051    33.536
ATOM     10  C   UNL d   1      -8.286  10.316 -19.506 -0.12 -0.01    +0.066    33.536
ATOM     11  C   UNL d   1      -8.856  11.573 -19.802 -0.10 +0.01    -0.021    33.536
ATOM     12  C   UNL d   1      -8.049  12.528 -19.177 -0.10 -0.00    +0.000    33.536
ATOM     13  C   UNL d   1      -7.057  11.785 -18.538 -0.13 -0.01    +0.070    33.536
ATOM     14  C   UNL d   1     -10.140  11.816 -20.553 -0.07 -0.02    +0.052    33.536
ATOM     15  C   UNL d   1      -4.907  11.758 -17.210 -0.06 -0.01    +0.066    33.536
ATOM     16  C   UNL d   1      -3.813  12.421 -16.673 -0.07 +0.00    -0.021    33.536
ATOM     17  C   UNL d   1      -2.978  11.421 -16.157 -0.07 -0.00    +0.000    33.536
ATOM     18  C   UNL d   1      -3.639  10.223 -16.405 -0.10 -0.00    +0.070    33.536
ATOM     19  C   UNL d   1      -3.610  13.920 -16.673 -0.03 -0.00    +0.052    33.536
ATOM     20  C   UNL d   1      -3.740   7.702 -16.393 -0.11 +0.01    +0.066    33.536
ATOM     21  C   UNL d   1      -3.161   6.479 -16.062 -0.15 -0.01    -0.025    33.536
ATOM     22  C   UNL d   1      -4.022   5.514 -16.553 -0.17 -0.01    -0.021    33.536
ATOM     23  C   UNL d   1      -5.086   6.202 -17.173 -0.16 +0.03    +0.066    33.536
ATOM     24  C   UNL d   1      -1.842   6.240 -15.333 -0.07 +0.01    +0.051    33.536
ATOM     25  N   UNL d   1      -7.211   7.664 -18.655 -0.10 -0.02    -0.248    33.536
ATOM     26  N   UNL d   1      -7.234  10.445 -18.691 -0.12 +0.04    -0.248    33.536
ATOM     27  N   UNL d   1      -4.770  10.459 -17.060 -0.06 +0.02    -0.248    33.536
ATOM     28  N   UNL d   1      -4.918   7.527 -17.081 -0.09 -0.04    -0.248    33.536
ATOM     29 FE   UNL d   1      -5.916   9.142 -17.809 -0.05 -0.00    +0.000    33.536
ATOM     30  C   UNL d   1      -8.188   4.159 -19.660 +0.09 +0.05    +0.052    33.536
ATOM     31  C   UNL d   1      -7.237   3.701 -20.766 -0.06 +0.12    +0.115    33.536
ATOM     32  C   UNL d   1      -5.822   4.193 -20.551 -0.06 +0.13    +0.139    33.536
ATOM     33  O   UNL d   1      -5.047   3.521 -19.886 -0.28 -1.04    -0.650    33.536
ATOM     34  O   UNL d   1      -5.367   5.337 -21.112 +0.03 -0.34    -0.776    33.536
ATOM     35  H   UNL d   1      -5.484   6.216 -20.727 +0.02 +0.05    +0.167    33.536
ATOM     36  C   UNL d   1      -4.821   9.043 -19.594 -0.03 +0.01    +0.190    33.536
ATOM     37  O   UNL d   1      -4.470   8.183 -20.639 +0.01 -0.05    -0.399    33.536
ATOM     38  H   UNL d   1      -4.732   7.274 -20.322 +0.02 +0.04    +0.209    33.536
ATOM     39  C   UNL d   1      -3.795   4.016 -16.483 -0.24 +0.04    +0.052    33.536
ATOM     40  C   UNL d   1      -2.774   3.571 -17.543 -0.12 +0.10    +0.115    33.536
ATOM     41  C   UNL d   1      -2.693   2.072 -17.742 -0.15 +0.19    +0.139    33.536
ATOM     42  O   UNL d   1      -1.814   1.440 -17.174 +0.02 -1.10    -0.650    33.536
ATOM     43  O   UNL d   1      -3.619   1.401 -18.462 +0.06 -1.46    -0.776    33.536
ATOM     44  H   UNL d   1      -4.003   1.756 -19.274 +0.02 +0.31    +0.167    33.536
ATOM     45  C   UNL d   1      -8.112  14.048 -19.095 -0.04 -0.00    +0.004    33.536
ATOM     46  C   UNL d   1      -8.419  14.848 -18.078 -0.04 -0.00    +0.012    33.536
ATOM     47  C   UNL d   1      -1.632  11.537 -15.519 -0.03 -0.00    +0.004    33.536
ATOM     48  C   UNL d   1      -1.388  11.208 -14.248 -0.03 -0.00    +0.012    33.536
TER
ENDMDL
MODEL       42
USER    Run = 42
USER    Cluster Rank = 48
USER    Number of conformations in this cluster = 1
USER  
USER    RMSD from reference structure       = 45.480 A
USER  
USER    Estimated Free Energy of Binding    =   -3.11 kcal/mol  [=(1)+(2)+(3)-(4)]
USER    Estimated Inhibition Constant, Ki   =    5.26 mM (millimolar)  [Temperature = 298.15 K]
USER    
USER    (1) Final Intermolecular Energy     =   -6.69 kcal/mol
USER        vdW + Hbond + desolv Energy     =   -4.56 kcal/mol
USER        Electrostatic Energy            =   -2.12 kcal/mol
USER    (2) Final Total Internal Energy     =   -2.19 kcal/mol
USER    (3) Torsional Free Energy           =   +3.58 kcal/mol
USER    (4) Unbound System's Energy  [=(2)] =   -2.19 kcal/mol
USER    
USER    
USER  
USER    DPF = D:/Protein_go_brrr/autodock/final/mut_D99N/heme_Co/dock.dpf
USER    NEWDPF move	heme_Co_opt.pdbqt
USER    NEWDPF about	8.781000 34.984000 -0.736000
USER    NEWDPF tran0	19.244397 -11.825722 6.381554
USER    NEWDPF axisangle0	-0.067578 -0.983327 0.168824 -155.595509
USER    NEWDPF quaternion0	-0.066052 -0.961111 0.165010 -0.211363
USER    NEWDPF dihe0	180.00 -63.54 59.90 -91.97 -107.64 108.53 63.02 -78.06 68.11 -7.94 0.45 5.62 
USER  
USER                              x       y       z    vdW   Elec        q     RMS 
ATOM      1  C   UNL d   1      21.382 -11.493   6.193 -0.12 +0.03    +0.064    45.480
ATOM      2  C   UNL d   1      18.495 -14.818   4.397 -0.09 -0.02    +0.064    45.480
ATOM      3  C   UNL d   1      14.832 -13.042   6.898 -0.09 -0.03    +0.064    45.480
ATOM      4  C   UNL d   1      17.669  -9.405   8.446 -0.06 -0.00    +0.064    45.480
ATOM      5  C   UNL d   1      20.871 -12.554   5.547 -0.10 +0.02    +0.066    45.480
ATOM      6  C   UNL d   1      21.632 -13.312   4.637 -0.09 -0.01    -0.021    45.480
ATOM      7  C   UNL d   1      20.783 -14.262   4.101 -0.05 -0.00    -0.025    45.480
ATOM      8  C   UNL d   1      19.546 -14.052   4.720 -0.06 -0.00    +0.066    45.480
ATOM      9  C   UNL d   1      21.110 -15.331   3.047 -0.03 +0.00    +0.051    45.480
ATOM     10  C   UNL d   1      17.191 -14.694   4.999 +0.01 -0.04    +0.066    45.480
ATOM     11  C   UNL d   1      16.088 -15.554   4.808 -0.05 +0.01    -0.021    45.480
ATOM     12  C   UNL d   1      15.035 -15.015   5.552 -0.04 -0.00    +0.000    45.480
ATOM     13  C   UNL d   1      15.575 -13.876   6.150 -0.07 -0.04    +0.070    45.480
ATOM     14  C   UNL d   1      16.091 -16.850   4.039 -0.10 -0.01    +0.052    45.480
ATOM     15  C   UNL d   1      15.212 -11.801   7.545 -0.09 -0.02    +0.066    45.480
ATOM     16  C   UNL d   1      14.360 -10.911   8.183 -0.12 +0.01    -0.021    45.480
ATOM     17  C   UNL d   1      15.173  -9.859   8.629 -0.12 -0.00    +0.000    45.480
ATOM     18  C   UNL d   1      16.464 -10.200   8.241 -0.08 -0.01    +0.070    45.480
ATOM     19  C   UNL d   1      12.865 -11.085   8.337 -0.14 -0.02    +0.052    45.480
ATOM     20  C   UNL d   1      18.920  -9.675   8.002 -0.05 +0.00    +0.066    45.480
ATOM     21  C   UNL d   1      19.991  -8.815   8.232 -0.06 -0.00    -0.025    45.480
ATOM     22  C   UNL d   1      21.081  -9.405   7.619 -0.11 -0.01    -0.021    45.480
ATOM     23  C   UNL d   1      20.615 -10.600   7.031 -0.11 +0.02    +0.066    45.480
ATOM     24  C   UNL d   1      19.974  -7.485   8.981 -0.04 +0.01    +0.051    45.480
ATOM     25  N   UNL d   1      19.572 -13.004   5.624 -0.03 -0.01    -0.248    45.480
ATOM     26  N   UNL d   1      16.894 -13.715   5.860 -0.05 +0.13    -0.248    45.480
ATOM     27  N   UNL d   1      16.445 -11.348   7.572 -0.03 +0.05    -0.248    45.480
ATOM     28  N   UNL d   1      19.306 -10.766   7.259 -0.03 -0.03    -0.248    45.480
ATOM     29 FE   UNL d   1      17.919 -12.125   6.657 -0.02 -0.00    +0.000    45.480
ATOM     30  C   UNL d   1      23.087 -13.073   4.246 -0.11 +0.03    +0.052    45.480
ATOM     31  C   UNL d   1      24.029 -13.736   5.252 -0.05 +0.06    +0.115    45.480
ATOM     32  C   UNL d   1      24.839 -12.726   6.036 -0.07 +0.13    +0.139    45.480
ATOM     33  O   UNL d   1      25.672 -12.045   5.457 -0.06 -1.03    -0.650    45.480
ATOM     34  O   UNL d   1      24.638 -12.515   7.357 -0.10 -0.58    -0.776    45.480
ATOM     35  H   UNL d   1      25.174 -11.922   7.901 +0.01 +0.13    +0.167    45.480
ATOM     36  C   UNL d   1      17.560 -11.021   4.911 -0.30 -0.06    +0.190    45.480
ATOM     37  O   UNL d   1      18.193 -10.247   3.933 -0.34 -0.01    -0.399    45.480
ATOM     38  H   UNL d   1      17.454  -9.924   3.345 -0.45 -0.03    +0.209    45.480
ATOM     39  C   UNL d   1      22.478  -8.815   7.550 -0.07 +0.04    +0.052    45.480
ATOM     40  C   UNL d   1      23.434  -9.573   8.486 -0.07 +0.08    +0.115    45.480
ATOM     41  C   UNL d   1      24.900  -9.278   8.254 -0.05 +0.14    +0.139    45.480
ATOM     42  O   UNL d   1      25.307  -8.130   8.376 -0.07 -0.51    -0.650    45.480
ATOM     43  O   UNL d   1      25.791 -10.261   8.000 -0.03 -0.85    -0.776    45.480
ATOM     44  H   UNL d   1      25.764 -10.791   7.192 +0.00 +0.28    +0.167    45.480
ATOM     45  C   UNL d   1      13.594 -15.452   5.780 -0.14 -0.00    +0.004    45.480
ATOM     46  C   UNL d   1      12.462 -15.025   5.228 -0.24 -0.00    +0.012    45.480
ATOM     47  C   UNL d   1      14.797  -8.591   9.322 -0.17 -0.00    +0.004    45.480
ATOM     48  C   UNL d   1      15.199  -7.383   8.919 -0.25 -0.00    +0.012    45.480
TER
ENDMDL
MODEL        7
USER    Run = 7
USER    Cluster Rank = 49
USER    Number of conformations in this cluster = 1
USER  
USER    RMSD from reference structure       = 38.711 A
USER  
USER    Estimated Free Energy of Binding    =   -3.07 kcal/mol  [=(1)+(2)+(3)-(4)]
USER    Estimated Inhibition Constant, Ki   =    5.62 mM (millimolar)  [Temperature = 298.15 K]
USER    
USER    (1) Final Intermolecular Energy     =   -6.65 kcal/mol
USER        vdW + Hbond + desolv Energy     =   -5.00 kcal/mol
USER        Electrostatic Energy            =   -1.65 kcal/mol
USER    (2) Final Total Internal Energy     =   -2.30 kcal/mol
USER    (3) Torsional Free Energy           =   +3.58 kcal/mol
USER    (4) Unbound System's Energy  [=(2)] =   -2.30 kcal/mol
USER    
USER    
USER  
USER    DPF = D:/Protein_go_brrr/autodock/final/mut_D99N/heme_Co/dock.dpf
USER    NEWDPF move	heme_Co_opt.pdbqt
USER    NEWDPF about	8.781000 34.984000 -0.736000
USER    NEWDPF tran0	3.288790 -2.777109 18.048967
USER    NEWDPF axisangle0	-0.746921 -0.545110 -0.380742 124.069068
USER    NEWDPF quaternion0	-0.659703 -0.481458 -0.336283 0.468939
USER    NEWDPF dihe0	-168.56 97.29 74.02 -13.61 -87.98 137.61 39.74 -54.51 155.74 -154.92 -156.09 -3.29 
USER  
USER                              x       y       z    vdW   Elec        q     RMS 
ATOM      1  C   UNL d   1       2.087  -4.414  18.818 -0.04 +0.06    +0.064    38.711
ATOM      2  C   UNL d   1       4.971  -4.062  15.054 -0.10 -0.01    +0.064    38.711
ATOM      3  C   UNL d   1       5.618   0.589  15.938 -0.16 -0.00    +0.064    38.711
ATOM      4  C   UNL d   1       2.987   0.168  20.008 -0.13 +0.01    +0.064    38.711
ATOM      5  C   UNL d   1       2.798  -4.651  17.704 -0.06 +0.05    +0.066    38.711
ATOM      6  C   UNL d   1       2.920  -5.943  17.156 -0.05 -0.01    -0.021    38.711
ATOM      7  C   UNL d   1       3.776  -5.839  16.077 -0.06 -0.00    -0.025    38.711
ATOM      8  C   UNL d   1       4.127  -4.487  16.003 -0.07 +0.01    +0.066    38.711
ATOM      9  C   UNL d   1       4.256  -6.960  15.143 -0.12 -0.02    +0.051    38.711
ATOM     10  C   UNL d   1       5.368  -2.687  14.884 -0.08 -0.01    +0.066    38.711
ATOM     11  C   UNL d   1       6.137  -2.155  13.825 -0.16 +0.01    -0.021    38.711
ATOM     12  C   UNL d   1       6.307  -0.797  14.106 -0.17 -0.00    +0.000    38.711
ATOM     13  C   UNL d   1       5.621  -0.598  15.305 -0.13 -0.00    +0.070    38.711
ATOM     14  C   UNL d   1       6.586  -2.893  12.591 -0.26 -0.05    +0.052    38.711
ATOM     15  C   UNL d   1       5.010   0.956  17.201 -0.13 -0.00    +0.066    38.711
ATOM     16  C   UNL d   1       5.166   2.161  17.871 -0.21 +0.01    -0.021    38.711
ATOM     17  C   UNL d   1       4.411   2.043  19.047 -0.28 -0.00    +0.000    38.711
ATOM     18  C   UNL d   1       3.838   0.777  18.993 -0.18 +0.00    +0.070    38.711
ATOM     19  C   UNL d   1       5.995   3.331  17.389 -0.29 -0.03    +0.052    38.711
ATOM     20  C   UNL d   1       2.489  -1.091  20.018 -0.11 +0.03    +0.066    38.711
ATOM     21  C   UNL d   1       1.712  -1.575  21.068 -0.07 -0.01    -0.025    38.711
ATOM     22  C   UNL d   1       1.413  -2.884  20.739 -0.06 -0.01    -0.021    38.711
ATOM     23  C   UNL d   1       2.038  -3.141  19.500 -0.04 +0.06    +0.066    38.711
ATOM     24  C   UNL d   1       1.290  -0.832  22.333 -0.03 +0.01    +0.051    38.711
ATOM     25  N   UNL d   1       3.531  -3.726  16.995 -0.06 -0.14    -0.248    38.711
ATOM     26  N   UNL d   1       5.007  -1.729  15.744 -0.05 -0.02    -0.248    38.711
ATOM     27  N   UNL d   1       4.240   0.147  17.895 -0.13 -0.03    -0.248    38.711
ATOM     28  N   UNL d   1       2.692  -2.059  19.061 -0.07 -0.23    -0.248    38.711
ATOM     29 FE   UNL d   1       3.904  -1.675  17.475 -0.03 +0.00    +0.000    38.711
ATOM     30  C   UNL d   1       2.302  -7.225  17.703 -0.02 +0.01    +0.052    38.711
ATOM     31  C   UNL d   1       3.012  -7.659  18.985 +0.00 +0.01    +0.115    38.711
ATOM     32  C   UNL d   1       4.441  -7.163  19.050 +0.01 +0.00    +0.139    38.711
ATOM     33  O   UNL d   1       5.338  -7.853  18.589 +0.01 +0.05    -0.650    38.711
ATOM     34  O   UNL d   1       4.756  -5.951  19.562 +0.01 -0.04    -0.776    38.711
ATOM     35  H   UNL d   1       5.640  -5.560  19.528 +0.00 +0.00    +0.167    38.711
ATOM     36  C   UNL d   1       5.570  -2.348  18.555 -0.01 +0.02    +0.190    38.711
ATOM     37  O   UNL d   1       6.139  -3.489  19.130 +0.01 -0.01    -0.399    38.711
ATOM     38  H   UNL d   1       5.395  -4.152  19.174 +0.01 +0.01    +0.209    38.711
ATOM     39  C   UNL d   1       0.625  -3.851  21.603 -0.02 +0.02    +0.052    38.711
ATOM     40  C   UNL d   1      -0.842  -3.913  21.149 -0.04 +0.04    +0.115    38.711
ATOM     41  C   UNL d   1      -1.081  -3.416  19.738 -0.01 +0.14    +0.139    38.711
ATOM     42  O   UNL d   1      -0.902  -4.177  18.798 -0.05 -0.94    -0.650    38.711
ATOM     43  O   UNL d   1      -1.570  -2.180  19.494 -0.51 -0.79    -0.776    38.711
ATOM     44  H   UNL d   1      -1.015  -1.390  19.510 -0.24 +0.16    +0.167    38.711
ATOM     45  C   UNL d   1       7.019   0.334  13.375 -0.13 -0.00    +0.004    38.711
ATOM     46  C   UNL d   1       7.995   0.301  12.472 -0.31 -0.00    +0.012    38.711
ATOM     47  C   UNL d   1       4.257   3.003  20.181 -0.21 -0.00    +0.004    38.711
ATOM     48  C   UNL d   1       4.775   2.799  21.395 -0.16 -0.00    +0.012    38.711
TER
ENDMDL
MODEL       64
USER    Run = 64
USER    Cluster Rank = 50
USER    Number of conformations in this cluster = 1
USER  
USER    RMSD from reference structure       = 39.338 A
USER  
USER    Estimated Free Energy of Binding    =   -3.06 kcal/mol  [=(1)+(2)+(3)-(4)]
USER    Estimated Inhibition Constant, Ki   =    5.67 mM (millimolar)  [Temperature = 298.15 K]
USER    
USER    (1) Final Intermolecular Energy     =   -6.64 kcal/mol
USER        vdW + Hbond + desolv Energy     =   -5.32 kcal/mol
USER        Electrostatic Energy            =   -1.32 kcal/mol
USER    (2) Final Total Internal Energy     =   -2.32 kcal/mol
USER    (3) Torsional Free Energy           =   +3.58 kcal/mol
USER    (4) Unbound System's Energy  [=(2)] =   -2.32 kcal/mol
USER    
USER    
USER  
USER    DPF = D:/Protein_go_brrr/autodock/final/mut_D99N/heme_Co/dock.dpf
USER    NEWDPF move	heme_Co_opt.pdbqt
USER    NEWDPF about	8.781000 34.984000 -0.736000
USER    NEWDPF tran0	22.499733 -5.086071 2.094459
USER    NEWDPF axisangle0	0.535252 0.773054 0.340432 118.081914
USER    NEWDPF quaternion0	0.458997 0.662921 0.291932 0.514425
USER    NEWDPF dihe0	-153.78 114.84 107.85 112.16 138.13 130.94 47.36 178.03 165.17 98.37 -166.26 -14.64 
USER  
USER                              x       y       z    vdW   Elec        q     RMS 
ATOM      1  C   UNL d   1      23.401  -6.209   0.469 -0.15 +0.01    +0.064    39.338
ATOM      2  C   UNL d   1      19.374  -3.697   0.770 -0.27 -0.01    +0.064    39.338
ATOM      3  C   UNL d   1      20.134  -2.968   5.430 -0.06 +0.00    +0.064    39.338
ATOM      4  C   UNL d   1      24.441  -5.199   5.065 -0.04 +0.03    +0.064    39.338
ATOM      5  C   UNL d   1      22.227  -5.607   0.217 -0.19 +0.01    +0.066    39.338
ATOM      6  C   UNL d   1      21.686  -5.539  -1.082 -0.25 -0.00    -0.021    39.338
ATOM      7  C   UNL d   1      20.529  -4.789  -0.993 -0.34 +0.00    -0.025    39.338
ATOM      8  C   UNL d   1      20.405  -4.447   0.358 -0.26 -0.00    +0.066    39.338
ATOM      9  C   UNL d   1      19.568  -4.401  -2.126 -0.15 -0.00    +0.051    39.338
ATOM     10  C   UNL d   1      19.150  -3.318   2.142 -0.19 -0.00    +0.066    39.338
ATOM     11  C   UNL d   1      18.016  -2.653   2.660 -0.26 +0.00    -0.021    39.338
ATOM     12  C   UNL d   1      18.263  -2.457   4.021 -0.20 -0.00    +0.000    39.338
ATOM     13  C   UNL d   1      19.518  -3.025   4.236 -0.12 +0.00    +0.070    39.338
ATOM     14  C   UNL d   1      16.754  -2.324   1.905 -0.32 -0.01    +0.052    39.338
ATOM     15  C   UNL d   1      21.445  -3.453   5.814 -0.04 +0.01    +0.066    39.338
ATOM     16  C   UNL d   1      22.082  -3.233   7.027 -0.02 -0.00    -0.021    39.338
ATOM     17  C   UNL d   1      23.325  -3.873   6.926 -0.03 +0.00    +0.000    39.338
ATOM     18  C   UNL d   1      23.342  -4.449   5.660 -0.06 +0.02    +0.070    39.338
ATOM     19  C   UNL d   1      21.508  -2.454   8.190 -0.01 +0.00    +0.052    39.338
ATOM     20  C   UNL d   1      24.514  -5.695   3.806 -0.02 +0.04    +0.066    39.338
ATOM     21  C   UNL d   1      25.640  -6.368   3.337 -0.00 -0.02    -0.025    39.338
ATOM     22  C   UNL d   1      25.357  -6.697   2.023 -0.09 -0.01    -0.021    39.338
ATOM     23  C   UNL d   1      24.068  -6.193   1.751 -0.10 +0.03    +0.066    39.338
ATOM     24  C   UNL d   1      26.930  -6.667   4.096 -0.07 +0.04    +0.051    39.338
ATOM     25  N   UNL d   1      21.440  -4.945   1.132 -0.16 -0.02    -0.248    39.338
ATOM     26  N   UNL d   1      20.029  -3.595   3.112 -0.11 -0.01    -0.248    39.338
ATOM     27  N   UNL d   1      22.219  -4.153   5.015 -0.05 -0.05    -0.248    39.338
ATOM     28  N   UNL d   1      23.555  -5.583   2.826 -0.09 -0.11    -0.248    39.338
ATOM     29 FE   UNL d   1      21.855  -4.528   3.188 -0.03 +0.00    +0.000    39.338
ATOM     30  C   UNL d   1      22.306  -6.102  -2.356 -0.22 +0.00    +0.052    39.338
ATOM     31  C   UNL d   1      23.354  -5.140  -2.914 -0.10 +0.01    +0.115    39.338
ATOM     32  C   UNL d   1      23.229  -3.749  -2.332 -0.08 +0.01    +0.139    39.338
ATOM     33  O   UNL d   1      22.409  -2.973  -2.799 -0.00 -0.05    -0.650    39.338
ATOM     34  O   UNL d   1      23.967  -3.346  -1.271 +0.04 -0.06    -0.776    39.338
ATOM     35  H   UNL d   1      23.724  -2.616  -0.685 +0.01 +0.01    +0.167    39.338
ATOM     36  C   UNL d   1      22.780  -2.767   2.527 -0.02 +0.02    +0.190    39.338
ATOM     37  O   UNL d   1      23.400  -2.182   1.418 +0.00 -0.03    -0.399    39.338
ATOM     38  H   UNL d   1      23.349  -2.875   0.701 +0.02 +0.02    +0.209    39.338
ATOM     39  C   UNL d   1      26.305  -7.399   1.069 -0.07 +0.02    +0.052    39.338
ATOM     40  C   UNL d   1      26.186  -8.925   1.211 -0.10 +0.06    +0.115    39.338
ATOM     41  C   UNL d   1      27.074  -9.524   2.282 -0.07 +0.11    +0.139    39.338
ATOM     42  O   UNL d   1      28.234  -9.149   2.376 -0.00 -0.32    -0.650    39.338
ATOM     43  O   UNL d   1      26.595 -10.400   3.193 -0.47 -1.25    -0.776    39.338
ATOM     44  H   UNL d   1      26.882 -11.322   3.228 +0.00 +0.17    +0.167    39.338
ATOM     45  C   UNL d   1      17.453  -1.818   5.141 -0.24 -0.00    +0.004    39.338
ATOM     46  C   UNL d   1      16.758  -2.372   6.132 -0.34 -0.00    +0.012    39.338
ATOM     47  C   UNL d   1      24.457  -3.918   7.899 -0.01 +0.00    +0.004    39.338
ATOM     48  C   UNL d   1      24.890  -5.043   8.474 -0.02 +0.00    +0.012    39.338
TER
ENDMDL
MODEL       58
USER    Run = 58
USER    Cluster Rank = 51
USER    Number of conformations in this cluster = 3
USER  
USER    RMSD from reference structure       = 20.718 A
USER  
USER    Estimated Free Energy of Binding    =   -2.91 kcal/mol  [=(1)+(2)+(3)-(4)]
USER    Estimated Inhibition Constant, Ki   =    7.33 mM (millimolar)  [Temperature = 298.15 K]
USER    
USER    (1) Final Intermolecular Energy     =   -6.49 kcal/mol
USER        vdW + Hbond + desolv Energy     =   -6.12 kcal/mol
USER        Electrostatic Energy            =   -0.37 kcal/mol
USER    (2) Final Total Internal Energy     =   -2.15 kcal/mol
USER    (3) Torsional Free Energy           =   +3.58 kcal/mol
USER    (4) Unbound System's Energy  [=(2)] =   -2.15 kcal/mol
USER    
USER    
USER  
USER    DPF = D:/Protein_go_brrr/autodock/final/mut_D99N/heme_Co/dock.dpf
USER    NEWDPF move	heme_Co_opt.pdbqt
USER    NEWDPF about	8.781000 34.984000 -0.736000
USER    NEWDPF tran0	9.073462 12.408421 5.815039
USER    NEWDPF axisangle0	0.473717 0.555035 0.683761 117.187974
USER    NEWDPF quaternion0	0.404316 0.473720 0.583587 0.521099
USER    NEWDPF dihe0	20.52 120.74 -180.00 129.12 119.98 142.08 -43.39 85.14 71.58 -89.85 54.27 9.20 
USER  
USER                              x       y       z    vdW   Elec        q     RMS 
ATOM      1  C   UNL d   1       9.838  12.012   3.822 -0.12 +0.00    +0.064    20.718
ATOM      2  C   UNL d   1       6.956  15.389   5.525 -0.23 -0.01    +0.064    20.718
ATOM      3  C   UNL d   1       6.966  13.286   9.815 -0.24 -0.01    +0.064    20.718
ATOM      4  C   UNL d   1      10.215  10.044   8.204 -0.10 +0.00    +0.064    20.718
ATOM      5  C   UNL d   1       9.021  13.069   3.962 -0.16 -0.00    +0.066    20.718
ATOM      6  C   UNL d   1       8.811  13.994   2.921 -0.16 -0.00    -0.021    20.718
ATOM      7  C   UNL d   1       7.992  14.984   3.428 -0.17 +0.00    -0.025    20.718
ATOM      8  C   UNL d   1       7.725  14.612   4.750 -0.21 -0.01    +0.066    20.718
ATOM      9  C   UNL d   1       7.473  16.239   2.709 -0.13 +0.00    +0.051    20.718
ATOM     10  C   UNL d   1       6.605  15.075   6.887 -0.09 -0.01    +0.066    20.718
ATOM     11  C   UNL d   1       5.692  15.774   7.706 -0.24 +0.00    -0.021    20.718
ATOM     12  C   UNL d   1       5.712  15.137   8.950 -0.26 -0.00    +0.000    20.718
ATOM     13  C   UNL d   1       6.623  14.092   8.795 -0.26 -0.01    +0.070    20.718
ATOM     14  C   UNL d   1       4.801  16.912   7.279 -0.21 -0.00    +0.052    20.718
ATOM     15  C   UNL d   1       7.923  12.197   9.845 -0.23 -0.00    +0.066    20.718
ATOM     16  C   UNL d   1       8.338  11.497  10.969 -0.17 +0.00    -0.021    20.718
ATOM     17  C   UNL d   1       9.277  10.563  10.510 -0.14 +0.00    +0.000    20.718
ATOM     18  C   UNL d   1       9.348  10.756   9.135 -0.16 +0.00    +0.070    20.718
ATOM     19  C   UNL d   1       7.848  11.734  12.381 -0.15 -0.00    +0.052    20.718
ATOM     20  C   UNL d   1      10.365  10.272   6.877 -0.10 +0.00    +0.066    20.718
ATOM     21  C   UNL d   1      11.258   9.545   6.094 -0.08 -0.00    -0.025    20.718
ATOM     22  C   UNL d   1      11.150  10.071   4.819 -0.09 -0.00    -0.021    20.718
ATOM     23  C   UNL d   1      10.197  11.110   4.892 -0.04 +0.00    +0.066    20.718
ATOM     24  C   UNL d   1      12.184   8.417   6.541 -0.04 +0.01    +0.051    20.718
ATOM     25  N   UNL d   1       8.345  13.427   5.106 -0.16 +0.02    -0.248    20.718
ATOM     26  N   UNL d   1       7.120  14.021   7.531 -0.18 +0.05    -0.248    20.718
ATOM     27  N   UNL d   1       8.551  11.757   8.778 -0.17 +0.00    -0.248    20.718
ATOM     28  N   UNL d   1       9.721  11.236   6.136 -0.10 -0.01    -0.248    20.718
ATOM     29 FE   UNL d   1       8.456  12.539   7.050 -0.05 -0.00    +0.000    20.718
ATOM     30  C   UNL d   1       9.440  13.961   1.533 -0.10 +0.00    +0.052    20.718
ATOM     31  C   UNL d   1       8.409  14.325   0.466 -0.12 +0.01    +0.115    20.718
ATOM     32  C   UNL d   1       8.030  13.142  -0.399 -0.11 +0.03    +0.139    20.718
ATOM     33  O   UNL d   1       7.314  13.316  -1.374 -0.02 -0.11    -0.650    20.718
ATOM     34  O   UNL d   1       8.500  11.896  -0.157 -0.51 -0.35    -0.776    20.718
ATOM     35  H   UNL d   1       8.905  11.621   0.677 +0.05 +0.06    +0.167    20.718
ATOM     36  C   UNL d   1      10.046  13.851   7.434 -0.05 -0.00    +0.190    20.718
ATOM     37  O   UNL d   1      10.934  14.736   6.815 -0.00 +0.00    -0.399    20.718
ATOM     38  H   UNL d   1      10.615  14.802   5.872 +0.02 -0.00    +0.209    20.718
ATOM     39  C   UNL d   1      11.967   9.638   3.617 -0.05 +0.00    +0.052    20.718
ATOM     40  C   UNL d   1      11.084   8.903   2.596 -0.09 +0.00    +0.115    20.718
ATOM     41  C   UNL d   1      10.343   9.814   1.640 -0.12 +0.01    +0.139    20.718
ATOM     42  O   UNL d   1       9.169   9.585   1.383 +0.06 +0.00    -0.650    20.718
ATOM     43  O   UNL d   1      10.917  10.926   1.129 +0.03 -0.05    -0.776    20.718
ATOM     44  H   UNL d   1      10.429  11.563   0.592 +0.02 +0.02    +0.167    20.718
ATOM     45  C   UNL d   1       4.965  15.383  10.254 -0.22 -0.00    +0.004    20.718
ATOM     46  C   UNL d   1       4.150  14.592  10.948 -0.27 -0.00    +0.012    20.718
ATOM     47  C   UNL d   1      10.102   9.583  11.278 -0.09 +0.00    +0.004    20.718
ATOM     48  C   UNL d   1       9.780   8.295  11.415 -0.12 +0.00    +0.012    20.718
TER
ENDMDL
MODEL       68
USER    Run = 68
USER    Cluster Rank = 52
USER    Number of conformations in this cluster = 1
USER  
USER    RMSD from reference structure       = 35.991 A
USER  
USER    Estimated Free Energy of Binding    =   -2.89 kcal/mol  [=(1)+(2)+(3)-(4)]
USER    Estimated Inhibition Constant, Ki   =    7.61 mM (millimolar)  [Temperature = 298.15 K]
USER    
USER    (1) Final Intermolecular Energy     =   -6.47 kcal/mol
USER        vdW + Hbond + desolv Energy     =   -2.77 kcal/mol
USER        Electrostatic Energy            =   -3.70 kcal/mol
USER    (2) Final Total Internal Energy     =   -3.08 kcal/mol
USER    (3) Torsional Free Energy           =   +3.58 kcal/mol
USER    (4) Unbound System's Energy  [=(2)] =   -3.08 kcal/mol
USER    
USER    
USER  
USER    DPF = D:/Protein_go_brrr/autodock/final/mut_D99N/heme_Co/dock.dpf
USER    NEWDPF move	heme_Co_opt.pdbqt
USER    NEWDPF about	8.781000 34.984000 -0.736000
USER    NEWDPF tran0	0.949851 3.454024 -18.904770
USER    NEWDPF axisangle0	0.458541 -0.173104 0.871651 -111.625115
USER    NEWDPF quaternion0	0.379307 -0.143192 0.721033 -0.561902
USER    NEWDPF dihe0	-145.48 111.22 36.21 -103.04 -78.34 115.24 62.43 -52.03 -126.18 -171.09 -173.56 177.02 
USER  
USER                              x       y       z    vdW   Elec        q     RMS 
ATOM      1  C   UNL d   1       0.319   2.471 -20.735 -0.01 +0.03    +0.064    35.991
ATOM      2  C   UNL d   1       4.104   1.862 -17.922 -0.05 +0.01    +0.064    35.991
ATOM      3  C   UNL d   1       2.768   5.594 -15.254 -0.06 +0.01    +0.064    35.991
ATOM      4  C   UNL d   1      -1.306   5.997 -17.881 -0.02 +0.02    +0.064    35.991
ATOM      5  C   UNL d   1       1.471   2.053 -20.184 -0.02 +0.03    +0.066    35.991
ATOM      6  C   UNL d   1       2.151   0.910 -20.650 -0.05 -0.01    -0.021    35.991
ATOM      7  C   UNL d   1       3.236   0.725 -19.815 -0.07 -0.01    -0.025    35.991
ATOM      8  C   UNL d   1       3.181   1.771 -18.887 -0.04 +0.02    +0.066    35.991
ATOM      9  C   UNL d   1       4.292  -0.389 -19.876 -0.15 +0.01    +0.051    35.991
ATOM     10  C   UNL d   1       4.144   2.917 -16.940 -0.03 +0.01    +0.066    35.991
ATOM     11  C   UNL d   1       5.162   3.147 -15.990 -0.04 -0.00    -0.021    35.991
ATOM     12  C   UNL d   1       4.749   4.244 -15.228 -0.06 +0.00    +0.000    35.991
ATOM     13  C   UNL d   1       3.519   4.608 -15.776 -0.06 +0.01    +0.070    35.991
ATOM     14  C   UNL d   1       6.478   2.417 -15.897 -0.07 +0.01    +0.052    35.991
ATOM     15  C   UNL d   1       1.458   6.065 -15.659 -0.02 +0.01    +0.066    35.991
ATOM     16  C   UNL d   1       0.674   6.992 -14.987 -0.10 -0.00    -0.021    35.991
ATOM     17  C   UNL d   1      -0.504   7.110 -15.740 -0.10 +0.00    +0.000    35.991
ATOM     18  C   UNL d   1      -0.336   6.255 -16.824 -0.06 +0.01    +0.070    35.991
ATOM     19  C   UNL d   1       1.056   7.701 -13.707 -0.10 -0.00    +0.052    35.991
ATOM     20  C   UNL d   1      -1.201   5.107 -18.897 +0.00 +0.02    +0.066    35.991
ATOM     21  C   UNL d   1      -2.217   4.923 -19.832 +0.00 -0.01    -0.025    35.991
ATOM     22  C   UNL d   1      -1.764   3.933 -20.685 +0.00 -0.01    -0.021    35.991
ATOM     23  C   UNL d   1      -0.490   3.550 -20.217 +0.00 +0.03    +0.066    35.991
ATOM     24  C   UNL d   1      -3.562   5.642 -19.900 -0.01 +0.02    +0.051    35.991
ATOM     25  N   UNL d   1       2.101   2.612 -19.096 -0.00 -0.08    -0.248    35.991
ATOM     26  N   UNL d   1       3.181   3.840 -16.846 -0.02 -0.06    -0.248    35.991
ATOM     27  N   UNL d   1       0.830   5.627 -16.727 -0.05 -0.05    -0.248    35.991
ATOM     28  N   UNL d   1      -0.146   4.256 -19.133 +0.01 -0.09    -0.248    35.991
ATOM     29 FE   UNL d   1       1.425   4.209 -17.843 -0.01 +0.00    +0.000    35.991
ATOM     30  C   UNL d   1       1.721  -0.001 -21.794 -0.07 +0.02    +0.052    35.991
ATOM     31  C   UNL d   1       0.820  -1.123 -21.279 -0.17 +0.06    +0.115    35.991
ATOM     32  C   UNL d   1      -0.337  -0.601 -20.454 +0.03 +0.16    +0.139    35.991
ATOM     33  O   UNL d   1      -0.115  -0.074 -19.374 -0.36 -1.22    -0.650    35.991
ATOM     34  O   UNL d   1      -1.615  -0.655 -20.895 -0.05 -0.84    -0.776    35.991
ATOM     35  H   UNL d   1      -2.300  -0.014 -20.658 +0.02 +0.19    +0.167    35.991
ATOM     36  C   UNL d   1       0.464   2.747 -16.689 -0.05 +0.12    +0.190    35.991
ATOM     37  O   UNL d   1      -0.266   1.558 -16.780 -0.18 -0.47    -0.399    35.991
ATOM     38  H   UNL d   1      -0.361   1.389 -17.759 +0.05 +0.29    +0.209    35.991
ATOM     39  C   UNL d   1      -2.546   3.346 -21.845 +0.00 +0.02    +0.052    35.991
ATOM     40  C   UNL d   1      -3.531   2.274 -21.349 -0.03 +0.08    +0.115    35.991
ATOM     41  C   UNL d   1      -3.561   2.102 -19.845 -0.08 +0.17    +0.139    35.991
ATOM     42  O   UNL d   1      -4.288   2.821 -19.175 -0.20 -1.26    -0.650    35.991
ATOM     43  O   UNL d   1      -2.871   1.116 -19.228 -0.01 -1.23    -0.776    35.991
ATOM     44  H   UNL d   1      -1.967   0.882 -19.476 +0.02 +0.26    +0.167    35.991
ATOM     45  C   UNL d   1       5.380   4.997 -14.065 -0.07 +0.00    +0.004    35.991
ATOM     46  C   UNL d   1       5.022   5.072 -12.786 -0.12 +0.00    +0.012    35.991
ATOM     47  C   UNL d   1      -1.734   7.912 -15.468 -0.12 +0.00    +0.004    35.991
ATOM     48  C   UNL d   1      -2.851   7.397 -14.949 -0.22 +0.00    +0.012    35.991
TER
ENDMDL
MODEL       77
USER    Run = 77
USER    Cluster Rank = 53
USER    Number of conformations in this cluster = 1
USER  
USER    RMSD from reference structure       = 39.613 A
USER  
USER    Estimated Free Energy of Binding    =   -2.80 kcal/mol  [=(1)+(2)+(3)-(4)]
USER    Estimated Inhibition Constant, Ki   =    8.92 mM (millimolar)  [Temperature = 298.15 K]
USER    
USER    (1) Final Intermolecular Energy     =   -6.38 kcal/mol
USER        vdW + Hbond + desolv Energy     =   -5.03 kcal/mol
USER        Electrostatic Energy            =   -1.34 kcal/mol
USER    (2) Final Total Internal Energy     =   -2.25 kcal/mol
USER    (3) Torsional Free Energy           =   +3.58 kcal/mol
USER    (4) Unbound System's Energy  [=(2)] =   -2.25 kcal/mol
USER    
USER    
USER  
USER    DPF = D:/Protein_go_brrr/autodock/final/mut_D99N/heme_Co/dock.dpf
USER    NEWDPF move	heme_Co_opt.pdbqt
USER    NEWDPF about	8.781000 34.984000 -0.736000
USER    NEWDPF tran0	-7.404110 1.378072 20.830485
USER    NEWDPF axisangle0	0.965151 0.107787 0.238465 -44.018162
USER    NEWDPF quaternion0	0.361694 0.040394 0.089366 -0.927124
USER    NEWDPF dihe0	-136.46 87.99 84.97 121.28 -99.94 137.42 46.97 -162.20 148.52 -50.26 -153.81 -36.10 
USER  
USER                              x       y       z    vdW   Elec        q     RMS 
ATOM      1  C   UNL d   1      -9.489   1.925  20.564 -0.08 +0.01    +0.064    39.613
ATOM      2  C   UNL d   1      -7.370  -2.229  21.493 -0.09 +0.01    +0.064    39.613
ATOM      3  C   UNL d   1      -3.076  -0.181  21.048 -0.13 +0.00    +0.064    39.613
ATOM      4  C   UNL d   1      -5.215   4.150  20.478 -0.20 -0.00    +0.064    39.613
ATOM      5  C   UNL d   1      -9.225   0.632  20.815 -0.08 +0.01    +0.066    39.613
ATOM      6  C   UNL d   1     -10.246  -0.300  21.082 -0.06 -0.00    -0.021    39.613
ATOM      7  C   UNL d   1      -9.624  -1.499  21.374 -0.06 -0.00    -0.025    39.613
ATOM      8  C   UNL d   1      -8.253  -1.251  21.255 -0.07 +0.01    +0.066    39.613
ATOM      9  C   UNL d   1     -10.283  -2.835  21.751 -0.02 +0.00    +0.051    39.613
ATOM     10  C   UNL d   1      -5.941  -2.074  21.371 -0.10 +0.01    +0.066    39.613
ATOM     11  C   UNL d   1      -4.971  -3.095  21.470 -0.08 -0.00    -0.021    39.613
ATOM     12  C   UNL d   1      -3.728  -2.471  21.332 -0.11 +0.00    +0.000    39.613
ATOM     13  C   UNL d   1      -4.032  -1.121  21.148 -0.16 +0.01    +0.070    39.613
ATOM     14  C   UNL d   1      -5.240  -4.573  21.591 -0.03 +0.01    +0.052    39.613
ATOM     15  C   UNL d   1      -3.210   1.256  20.907 -0.17 -0.00    +0.066    39.613
ATOM     16  C   UNL d   1      -2.182   2.187  20.955 -0.20 +0.00    -0.021    39.613
ATOM     17  C   UNL d   1      -2.794   3.438  20.794 -0.28 -0.00    +0.000    39.613
ATOM     18  C   UNL d   1      -4.150   3.169  20.643 -0.23 -0.00    +0.070    39.613
ATOM     19  C   UNL d   1      -0.716   1.866  21.147 -0.09 +0.00    +0.052    39.613
ATOM     20  C   UNL d   1      -6.548   3.918  20.416 -0.17 +0.00    +0.066    39.613
ATOM     21  C   UNL d   1      -7.477   4.949  20.292 -0.18 -0.00    -0.025    39.613
ATOM     22  C   UNL d   1      -8.716   4.336  20.285 -0.12 -0.00    -0.021    39.613
ATOM     23  C   UNL d   1      -8.481   2.951  20.418 -0.11 +0.01    +0.066    39.613
ATOM     24  C   UNL d   1      -7.200   6.448  20.206 -0.09 +0.01    +0.051    39.613
ATOM     25  N   UNL d   1      -7.976   0.060  20.904 -0.05 -0.04    -0.248    39.613
ATOM     26  N   UNL d   1      -5.372  -0.892  21.115 -0.09 -0.04    -0.248    39.613
ATOM     27  N   UNL d   1      -4.365   1.862  20.746 -0.13 -0.01    -0.248    39.613
ATOM     28  N   UNL d   1      -7.170   2.694  20.499 -0.09 -0.03    -0.248    39.613
ATOM     29 FE   UNL d   1      -6.065   1.017  20.819 -0.04 +0.00    +0.000    39.613
ATOM     30  C   UNL d   1     -11.744  -0.019  21.133 -0.02 +0.01    +0.052    39.613
ATOM     31  C   UNL d   1     -12.089   0.833  22.354 -0.01 +0.01    +0.115    39.613
ATOM     32  C   UNL d   1     -11.199   0.532  23.539 -0.00 +0.01    +0.139    39.613
ATOM     33  O   UNL d   1     -11.459  -0.420  24.260 +0.00 -0.04    -0.650    39.613
ATOM     34  O   UNL d   1     -10.087   1.257  23.805 +0.01 -0.05    -0.776    39.613
ATOM     35  H   UNL d   1      -9.254   0.880  24.120 +0.00 +0.01    +0.167    39.613
ATOM     36  C   UNL d   1      -6.229   1.277  22.893 -0.04 +0.01    +0.190    39.613
ATOM     37  O   UNL d   1      -7.147   1.271  23.948 -0.00 -0.01    -0.399    39.613
ATOM     38  H   UNL d   1      -8.025   1.487  23.525 +0.01 +0.01    +0.209    39.613
ATOM     39  C   UNL d   1     -10.052   5.052  20.221 -0.12 +0.01    +0.052    39.613
ATOM     40  C   UNL d   1     -10.214   5.780  18.876 -0.15 +0.04    +0.115    39.613
ATOM     41  C   UNL d   1     -11.456   5.394  18.102 -0.21 +0.13    +0.139    39.613
ATOM     42  O   UNL d   1     -11.975   4.306  18.307 +0.09 -0.82    -0.650    39.613
ATOM     43  O   UNL d   1     -12.060   6.255  17.252 -0.32 -0.85    -0.776    39.613
ATOM     44  H   UNL d   1     -11.840   6.296  16.312 -0.18 +0.22    +0.167    39.613
ATOM     45  C   UNL d   1      -2.298  -2.993  21.334 -0.08 +0.00    +0.004    39.613
ATOM     46  C   UNL d   1      -1.394  -3.046  20.360 -0.15 +0.01    +0.012    39.613
ATOM     47  C   UNL d   1      -2.194   4.805  20.826 -0.32 -0.00    +0.004    39.613
ATOM     48  C   UNL d   1      -2.573   5.757  21.681 -0.23 -0.00    +0.012    39.613
TER
ENDMDL
MODEL       71
USER    Run = 71
USER    Cluster Rank = 54
USER    Number of conformations in this cluster = 2
USER  
USER    RMSD from reference structure       = 19.693 A
USER  
USER    Estimated Free Energy of Binding    =   -2.56 kcal/mol  [=(1)+(2)+(3)-(4)]
USER    Estimated Inhibition Constant, Ki   =   13.28 mM (millimolar)  [Temperature = 298.15 K]
USER    
USER    (1) Final Intermolecular Energy     =   -6.14 kcal/mol
USER        vdW + Hbond + desolv Energy     =   -6.26 kcal/mol
USER        Electrostatic Energy            =   +0.12 kcal/mol
USER    (2) Final Total Internal Energy     =   -3.40 kcal/mol
USER    (3) Torsional Free Energy           =   +3.58 kcal/mol
USER    (4) Unbound System's Energy  [=(2)] =   -3.40 kcal/mol
USER    
USER    
USER  
USER    DPF = D:/Protein_go_brrr/autodock/final/mut_D99N/heme_Co/dock.dpf
USER    NEWDPF move	heme_Co_opt.pdbqt
USER    NEWDPF about	8.781000 34.984000 -0.736000
USER    NEWDPF tran0	7.387885 13.614055 7.804761
USER    NEWDPF axisangle0	-0.330938 -0.885482 -0.326192 137.572521
USER    NEWDPF quaternion0	-0.308512 -0.825479 -0.304089 0.361848
USER    NEWDPF dihe0	55.35 116.48 141.85 104.01 74.73 121.47 38.57 -35.42 167.32 127.61 -162.27 -179.90 
USER  
USER                              x       y       z    vdW   Elec        q     RMS 
ATOM      1  C   UNL d   1       7.925  12.277   9.430 -0.25 -0.00    +0.064    19.693
ATOM      2  C   UNL d   1       9.398  12.575   4.918 -0.12 -0.00    +0.064    19.693
ATOM      3  C   UNL d   1       6.188  16.008   4.057 -0.24 -0.00    +0.064    19.693
ATOM      4  C   UNL d   1       4.930  15.992   8.757 -0.05 -0.00    +0.064    19.693
ATOM      5  C   UNL d   1       8.538  12.081   8.251 -0.23 -0.00    +0.066    19.693
ATOM      6  C   UNL d   1       9.614  11.183   8.109 -0.16 -0.00    -0.021    19.693
ATOM      7  C   UNL d   1      10.052  11.291   6.803 -0.13 -0.00    -0.025    19.693
ATOM      8  C   UNL d   1       9.216  12.236   6.201 -0.07 -0.00    +0.066    19.693
ATOM      9  C   UNL d   1      11.213  10.539   6.134 -0.09 +0.00    +0.051    19.693
ATOM     10  C   UNL d   1       8.571  13.518   4.207 -0.19 -0.00    +0.066    19.693
ATOM     11  C   UNL d   1       8.621  13.812   2.827 -0.18 -0.00    -0.021    19.693
ATOM     12  C   UNL d   1       7.672  14.813   2.603 -0.21 +0.00    +0.000    19.693
ATOM     13  C   UNL d   1       7.106  15.046   3.856 -0.24 -0.01    +0.070    19.693
ATOM     14  C   UNL d   1       9.460  13.103   1.795 -0.14 +0.00    +0.052    19.693
ATOM     15  C   UNL d   1       5.539  16.418   5.288 -0.25 -0.00    +0.066    19.693
ATOM     16  C   UNL d   1       4.707  17.516   5.453 -0.21 -0.00    -0.021    19.693
ATOM     17  C   UNL d   1       4.344  17.517   6.807 -0.21 +0.00    +0.000    19.693
ATOM     18  C   UNL d   1       4.972  16.406   7.359 -0.12 -0.00    +0.070    19.693
ATOM     19  C   UNL d   1       4.306  18.484   4.363 -0.12 +0.00    +0.052    19.693
ATOM     20  C   UNL d   1       5.601  14.967   9.333 -0.24 -0.01    +0.066    19.693
ATOM     21  C   UNL d   1       5.508  14.690  10.696 -0.20 +0.00    -0.025    19.693
ATOM     22  C   UNL d   1       6.338  13.606  10.914 -0.19 +0.00    -0.021    19.693
ATOM     23  C   UNL d   1       6.911  13.280   9.666 -0.25 -0.01    +0.066    19.693
ATOM     24  C   UNL d   1       4.684  15.434  11.743 -0.14 -0.00    +0.051    19.693
ATOM     25  N   UNL d   1       8.265  12.739   7.073 -0.18 +0.01    -0.248    19.693
ATOM     26  N   UNL d   1       7.610  14.223   4.814 -0.17 +0.03    -0.248    19.693
ATOM     27  N   UNL d   1       5.700  15.792   6.432 -0.18 +0.03    -0.248    19.693
ATOM     28  N   UNL d   1       6.469  14.103   8.707 -0.21 +0.05    -0.248    19.693
ATOM     29 FE   UNL d   1       6.905  14.355   6.737 -0.06 -0.00    +0.000    19.693
ATOM     30  C   UNL d   1      10.236  10.328   9.207 -0.11 +0.00    +0.052    19.693
ATOM     31  C   UNL d   1      11.160  11.170  10.086 -0.03 +0.00    +0.115    19.693
ATOM     32  C   UNL d   1      11.497  12.504   9.456 -0.02 +0.00    +0.139    19.693
ATOM     33  O   UNL d   1      12.489  12.602   8.749 +0.01 -0.00    -0.650    19.693
ATOM     34  O   UNL d   1      10.706  13.591   9.612 +0.02 +0.01    -0.776    19.693
ATOM     35  H   UNL d   1      10.394  13.919  10.466 +0.01 -0.00    +0.167    19.693
ATOM     36  C   UNL d   1       8.487  15.640   7.228 -0.06 -0.01    +0.190    19.693
ATOM     37  O   UNL d   1       9.623  15.751   8.037 -0.00 +0.01    -0.399    19.693
ATOM     38  H   UNL d   1       9.689  14.873   8.507 +0.02 -0.01    +0.209    19.693
ATOM     39  C   UNL d   1       6.612  12.964  12.261 -0.21 -0.00    +0.052    19.693
ATOM     40  C   UNL d   1       7.622  13.801  13.065 -0.09 -0.00    +0.115    19.693
ATOM     41  C   UNL d   1       8.952  14.010  12.372 -0.03 -0.00    +0.139    19.693
ATOM     42  O   UNL d   1       9.186  15.086  11.839 +0.01 +0.02    -0.650    19.693
ATOM     43  O   UNL d   1       9.923  13.071  12.400 +0.02 +0.02    -0.776    19.693
ATOM     44  H   UNL d   1      10.545  12.945  11.671 +0.01 -0.00    +0.167    19.693
ATOM     45  C   UNL d   1       7.225  15.558   1.352 -0.18 +0.00    +0.004    19.693
ATOM     46  C   UNL d   1       6.207  15.330   0.527 -0.24 +0.00    +0.012    19.693
ATOM     47  C   UNL d   1       3.515  18.497   7.572 -0.15 +0.00    +0.004    19.693
ATOM     48  C   UNL d   1       2.290  18.874   7.200 -0.19 +0.00    +0.012    19.693
TER
ENDMDL
MODEL       59
USER    Run = 59
USER    Cluster Rank = 55
USER    Number of conformations in this cluster = 1
USER  
USER    RMSD from reference structure       = 18.130 A
USER  
USER    Estimated Free Energy of Binding    =   -2.45 kcal/mol  [=(1)+(2)+(3)-(4)]
USER    Estimated Inhibition Constant, Ki   =   15.93 mM (millimolar)  [Temperature = 298.15 K]
USER    
USER    (1) Final Intermolecular Energy     =   -6.03 kcal/mol
USER        vdW + Hbond + desolv Energy     =   -6.11 kcal/mol
USER        Electrostatic Energy            =   +0.07 kcal/mol
USER    (2) Final Total Internal Energy     =   -3.48 kcal/mol
USER    (3) Torsional Free Energy           =   +3.58 kcal/mol
USER    (4) Unbound System's Energy  [=(2)] =   -3.48 kcal/mol
USER    
USER    
USER  
USER    DPF = D:/Protein_go_brrr/autodock/final/mut_D99N/heme_Co/dock.dpf
USER    NEWDPF move	heme_Co_opt.pdbqt
USER    NEWDPF about	8.781000 34.984000 -0.736000
USER    NEWDPF tran0	6.779581 15.152162 5.422185
USER    NEWDPF axisangle0	0.507097 0.209686 0.835993 72.610402
USER    NEWDPF quaternion0	0.300245 0.124152 0.494980 0.805875
USER    NEWDPF dihe0	21.53 113.40 -138.44 73.86 135.69 111.57 26.65 -29.63 155.06 -149.66 -159.91 147.92 
USER  
USER                              x       y       z    vdW   Elec        q     RMS 
ATOM      1  C   UNL d   1       6.205  16.200   3.609 -0.22 -0.00    +0.064    18.130
ATOM      2  C   UNL d   1       4.851  16.679   8.142 -0.14 -0.00    +0.064    18.130
ATOM      3  C   UNL d   1       7.472  12.877   9.366 -0.24 -0.01    +0.064    18.130
ATOM      4  C   UNL d   1       9.173  12.601   4.817 -0.09 -0.00    +0.064    18.130
ATOM      5  C   UNL d   1       5.614  16.588   4.751 -0.22 -0.00    +0.066    18.130
ATOM      6  C   UNL d   1       4.803  17.738   4.820 -0.16 -0.00    -0.021    18.130
ATOM      7  C   UNL d   1       4.431  17.885   6.142 -0.19 -0.00    -0.025    18.130
ATOM      8  C   UNL d   1       5.017  16.811   6.820 -0.21 -0.00    +0.066    18.130
ATOM      9  C   UNL d   1       3.560  18.990   6.758 -0.14 +0.00    +0.051    18.130
ATOM     10  C   UNL d   1       5.393  15.593   8.920 -0.18 -0.01    +0.066    18.130
ATOM     11  C   UNL d   1       5.139  15.322  10.282 -0.19 +0.00    -0.021    18.130
ATOM     12  C   UNL d   1       5.912  14.205  10.611 -0.20 -0.00    +0.000    18.130
ATOM     13  C   UNL d   1       6.570  13.872   9.427 -0.20 -0.01    +0.070    18.130
ATOM     14  C   UNL d   1       4.146  16.035  11.163 -0.15 -0.00    +0.052    18.130
ATOM     15  C   UNL d   1       8.278  12.433   8.246 -0.25 -0.00    +0.066    18.130
ATOM     16  C   UNL d   1       9.298  11.493   8.287 -0.18 -0.00    -0.021    18.130
ATOM     17  C   UNL d   1       9.793  11.412   6.978 -0.16 +0.00    +0.000    18.130
ATOM     18  C   UNL d   1       9.022  12.299   6.235 -0.07 -0.00    +0.070    18.130
ATOM     19  C   UNL d   1       9.746  10.739   9.519 -0.13 +0.00    +0.052    18.130
ATOM     20  C   UNL d   1       8.493  13.522   4.093 -0.20 -0.00    +0.066    18.130
ATOM     21  C   UNL d   1       8.753  13.746   2.743 -0.17 -0.00    -0.025    18.130
ATOM     22  C   UNL d   1       7.892  14.759   2.361 -0.18 -0.00    -0.021    18.130
ATOM     23  C   UNL d   1       7.152  15.113   3.509 -0.23 -0.00    +0.066    18.130
ATOM     24  C   UNL d   1       9.785  13.044   1.864 -0.12 +0.00    +0.051    18.130
ATOM     25  N   UNL d   1       5.751  15.988   5.982 -0.18 +0.03    -0.248    18.130
ATOM     26  N   UNL d   1       6.212  14.677   8.391 -0.20 +0.04    -0.248    18.130
ATOM     27  N   UNL d   1       8.150  12.912   7.029 -0.17 +0.02    -0.248    18.130
ATOM     28  N   UNL d   1       7.514  14.369   4.560 -0.16 +0.03    -0.248    18.130
ATOM     29 FE   UNL d   1       7.022  14.358   6.533 -0.06 -0.00    +0.000    18.130
ATOM     30  C   UNL d   1       4.476  18.690   3.674 -0.11 +0.00    +0.052    18.130
ATOM     31  C   UNL d   1       5.671  19.593   3.368 -0.05 +0.00    +0.115    18.130
ATOM     32  C   UNL d   1       6.560  19.803   4.574 -0.02 +0.00    +0.139    18.130
ATOM     33  O   UNL d   1       6.496  20.856   5.191 +0.01 -0.00    -0.650    18.130
ATOM     34  O   UNL d   1       7.395  18.839   5.027 +0.02 +0.00    -0.776    18.130
ATOM     35  H   UNL d   1       7.669  18.070   4.509 +0.02 -0.00    +0.167    18.130
ATOM     36  C   UNL d   1       8.498  15.792   6.933 -0.06 -0.01    +0.190    18.130
ATOM     37  O   UNL d   1       9.079  16.963   6.434 -0.00 +0.01    -0.399    18.130
ATOM     38  H   UNL d   1       8.588  17.151   5.586 +0.02 -0.00    +0.209    18.130
ATOM     39  C   UNL d   1       7.835  15.391   0.983 -0.12 +0.00    +0.052    18.130
ATOM     40  C   UNL d   1       8.352  16.838   1.028 -0.03 +0.00    +0.115    18.130
ATOM     41  C   UNL d   1       9.307  17.125   2.167 -0.01 +0.00    +0.139    18.130
ATOM     42  O   UNL d   1      10.493  17.298   1.925 +0.00 -0.01    -0.650    18.130
ATOM     43  O   UNL d   1       8.871  17.282   3.437 +0.02 -0.00    -0.776    18.130
ATOM     44  H   UNL d   1       9.152  18.019   3.995 +0.01 -0.00    +0.167    18.130
ATOM     45  C   UNL d   1       6.091  13.409  11.897 -0.24 -0.00    +0.004    18.130
ATOM     46  C   UNL d   1       5.228  12.659  12.578 -0.33 -0.00    +0.012    18.130
ATOM     47  C   UNL d   1      10.934  10.613   6.437 -0.11 +0.00    +0.004    18.130
ATOM     48  C   UNL d   1      10.786   9.616   5.562 -0.13 +0.00    +0.012    18.130
TER
ENDMDL
MODEL       26
USER    Run = 26
USER    Cluster Rank = 56
USER    Number of conformations in this cluster = 1
USER  
USER    RMSD from reference structure       = 45.910 A
USER  
USER    Estimated Free Energy of Binding    =   -2.39 kcal/mol  [=(1)+(2)+(3)-(4)]
USER    Estimated Inhibition Constant, Ki   =   17.82 mM (millimolar)  [Temperature = 298.15 K]
USER    
USER    (1) Final Intermolecular Energy     =   -5.97 kcal/mol
USER        vdW + Hbond + desolv Energy     =   -5.84 kcal/mol
USER        Electrostatic Energy            =   -0.12 kcal/mol
USER    (2) Final Total Internal Energy     =   -3.66 kcal/mol
USER    (3) Torsional Free Energy           =   +3.58 kcal/mol
USER    (4) Unbound System's Energy  [=(2)] =   -3.66 kcal/mol
USER    
USER    
USER  
USER    DPF = D:/Protein_go_brrr/autodock/final/mut_D99N/heme_Co/dock.dpf
USER    NEWDPF move	heme_Co_opt.pdbqt
USER    NEWDPF about	8.781000 34.984000 -0.736000
USER    NEWDPF tran0	20.358110 -10.936854 -4.514005
USER    NEWDPF axisangle0	-0.401687 -0.489886 0.773731 157.262340
USER    NEWDPF quaternion0	-0.393805 -0.480274 0.758549 0.197124
USER    NEWDPF dihe0	145.34 110.38 -82.43 63.09 -90.46 110.13 -119.36 0.77 -125.25 169.80 179.41 -178.21 
USER  
USER                              x       y       z    vdW   Elec        q     RMS 
ATOM      1  C   UNL d   1      22.227 -10.569  -3.472 -0.08 +0.00    +0.064    45.910
ATOM      2  C   UNL d   1      18.131 -12.544  -2.084 -0.23 -0.00    +0.064    45.910
ATOM      3  C   UNL d   1      16.150 -11.490  -6.302 -0.06 +0.00    +0.064    45.910
ATOM      4  C   UNL d   1      20.435  -9.814  -7.881 -0.18 +0.01    +0.064    45.910
ATOM      5  C   UNL d   1      21.243 -11.153  -2.770 -0.11 +0.00    +0.066    45.910
ATOM      6  C   UNL d   1      21.455 -11.680  -1.480 -0.17 -0.00    -0.021    45.910
ATOM      7  C   UNL d   1      20.269 -12.272  -1.092 -0.22 +0.00    -0.025    45.910
ATOM      8  C   UNL d   1      19.380 -12.068  -2.153 -0.23 -0.00    +0.066    45.910
ATOM      9  C   UNL d   1      19.970 -13.006   0.224 -0.23 -0.00    +0.051    45.910
ATOM     10  C   UNL d   1      17.139 -12.361  -3.114 -0.24 -0.01    +0.066    45.910
ATOM     11  C   UNL d   1      15.774 -12.713  -3.043 -0.27 +0.00    -0.021    45.910
ATOM     12  C   UNL d   1      15.219 -12.391  -4.285 -0.26 -0.00    +0.000    45.910
ATOM     13  C   UNL d   1      16.281 -11.856  -5.015 -0.19 -0.00    +0.070    45.910
ATOM     14  C   UNL d   1      15.048 -13.232  -1.828 -0.24 -0.01    +0.052    45.910
ATOM     15  C   UNL d   1      17.148 -10.971  -7.217 -0.21 +0.01    +0.066    45.910
ATOM     16  C   UNL d   1      16.982 -10.750  -8.577 -0.25 -0.00    -0.021    45.910
ATOM     17  C   UNL d   1      18.216 -10.268  -9.037 -0.19 +0.00    +0.000    45.910
ATOM     18  C   UNL d   1      19.035 -10.218  -7.914 -0.20 +0.01    +0.070    45.910
ATOM     19  C   UNL d   1      15.709 -10.995  -9.356 -0.28 +0.00    +0.052    45.910
ATOM     20  C   UNL d   1      21.275  -9.839  -6.819 -0.13 +0.01    +0.066    45.910
ATOM     21  C   UNL d   1      22.612  -9.460  -6.920 -0.08 -0.00    -0.025    45.910
ATOM     22  C   UNL d   1      23.147  -9.639  -5.657 -0.06 -0.00    -0.021    45.910
ATOM     23  C   UNL d   1      22.104 -10.135  -4.845 -0.05 +0.01    +0.066    45.910
ATOM     24  C   UNL d   1      23.350  -8.969  -8.162 -0.05 +0.00    +0.051    45.910
ATOM     25  N   UNL d   1      19.955 -11.372  -3.203 -0.06 +0.00    -0.248    45.910
ATOM     26  N   UNL d   1      17.427 -11.786  -4.287 -0.17 +0.01    -0.248    45.910
ATOM     27  N   UNL d   1      18.375 -10.673  -6.854 -0.11 -0.06    -0.248    45.910
ATOM     28  N   UNL d   1      20.971 -10.260  -5.545 +0.05 -0.03    -0.248    45.910
ATOM     29 FE   UNL d   1      19.121 -11.000  -5.138 -0.05 +0.00    +0.000    45.910
ATOM     30  C   UNL d   1      22.767 -11.679  -0.702 -0.13 +0.01    +0.052    45.910
ATOM     31  C   UNL d   1      23.497 -13.010  -0.879 -0.03 +0.01    +0.115    45.910
ATOM     32  C   UNL d   1      23.677 -13.381  -2.336 -0.01 +0.01    +0.139    45.910
ATOM     33  O   UNL d   1      24.797 -13.371  -2.824 +0.00 -0.04    -0.650    45.910
ATOM     34  O   UNL d   1      22.639 -13.772  -3.110 +0.02 -0.03    -0.776    45.910
ATOM     35  H   UNL d   1      22.527 -13.520  -4.037 +0.01 +0.01    +0.167    45.910
ATOM     36  C   UNL d   1      19.754 -12.930  -5.658 -0.04 +0.01    +0.190    45.910
ATOM     37  O   UNL d   1      20.836 -13.811  -5.563 -0.00 -0.01    -0.399    45.910
ATOM     38  H   UNL d   1      21.553 -13.289  -5.106 +0.01 +0.01    +0.209    45.910
ATOM     39  C   UNL d   1      24.597  -9.408  -5.274 -0.02 +0.00    +0.052    45.910
ATOM     40  C   UNL d   1      25.479 -10.567  -5.766 -0.00 +0.01    +0.115    45.910
ATOM     41  C   UNL d   1      24.713 -11.813  -6.158 -0.00 +0.01    +0.139    45.910
ATOM     42  O   UNL d   1      25.049 -12.432  -7.158 +0.00 -0.02    -0.650    45.910
ATOM     43  O   UNL d   1      23.722 -12.310  -5.386 +0.01 -0.03    -0.776    45.910
ATOM     44  H   UNL d   1      23.894 -12.801  -4.572 +0.00 +0.01    +0.167    45.910
ATOM     45  C   UNL d   1      13.812 -12.509  -4.856 -0.38 -0.00    +0.004    45.910
ATOM     46  C   UNL d   1      12.651 -12.047  -4.400 -0.51 -0.00    +0.012    45.910
ATOM     47  C   UNL d   1      18.647  -9.921 -10.424 -0.14 +0.00    +0.004    45.910
ATOM     48  C   UNL d   1      19.560 -10.615 -11.108 -0.08 +0.00    +0.012    45.910
TER
ENDMDL
MODEL       47
USER    Run = 47
USER    Cluster Rank = 57
USER    Number of conformations in this cluster = 1
USER  
USER    RMSD from reference structure       = 43.379 A
USER  
USER    Estimated Free Energy of Binding    =   -2.29 kcal/mol  [=(1)+(2)+(3)-(4)]
USER    Estimated Inhibition Constant, Ki   =   20.97 mM (millimolar)  [Temperature = 298.15 K]
USER    
USER    (1) Final Intermolecular Energy     =   -5.87 kcal/mol
USER        vdW + Hbond + desolv Energy     =   -5.72 kcal/mol
USER        Electrostatic Energy            =   -0.15 kcal/mol
USER    (2) Final Total Internal Energy     =   -3.32 kcal/mol
USER    (3) Torsional Free Energy           =   +3.58 kcal/mol
USER    (4) Unbound System's Energy  [=(2)] =   -3.32 kcal/mol
USER    
USER    
USER  
USER    DPF = D:/Protein_go_brrr/autodock/final/mut_D99N/heme_Co/dock.dpf
USER    NEWDPF move	heme_Co_opt.pdbqt
USER    NEWDPF about	8.781000 34.984000 -0.736000
USER    NEWDPF tran0	-9.542835 -4.871161 13.392307
USER    NEWDPF axisangle0	-0.648490 0.253444 0.717793 -167.460668
USER    NEWDPF quaternion0	-0.644611 0.251928 0.713500 -0.109208
USER    NEWDPF dihe0	63.18 125.99 -38.70 39.65 97.45 102.24 37.23 -29.05 156.72 -130.15 -160.84 133.23 
USER  
USER                              x       y       z    vdW   Elec        q     RMS 
ATOM      1  C   UNL d   1      -8.767  -5.393  15.352 -0.12 +0.01    +0.064    43.379
ATOM      2  C   UNL d   1     -10.901  -1.478  13.700 -0.28 +0.02    +0.064    43.379
ATOM      3  C   UNL d   1     -10.915  -3.304   9.284 -0.22 +0.02    +0.064    43.379
ATOM      4  C   UNL d   1      -9.087  -7.467  11.014 -0.13 +0.02    +0.064    43.379
ATOM      5  C   UNL d   1      -9.316  -4.175  15.219 -0.18 +0.01    +0.066    43.379
ATOM      6  C   UNL d   1      -9.556  -3.338  16.326 -0.20 -0.00    -0.021    43.379
ATOM      7  C   UNL d   1     -10.196  -2.213  15.844 -0.26 -0.01    -0.025    43.379
ATOM      8  C   UNL d   1     -10.305  -2.404  14.462 -0.26 +0.02    +0.066    43.379
ATOM      9  C   UNL d   1     -10.694  -0.997  16.640 -0.23 +0.02    +0.051    43.379
ATOM     10  C   UNL d   1     -11.035  -1.576  12.268 -0.24 +0.02    +0.066    43.379
ATOM     11  C   UNL d   1     -11.524  -0.578  11.396 -0.27 -0.01    -0.021    43.379
ATOM     12  C   UNL d   1     -11.513  -1.136  10.115 -0.24 +0.00    +0.000    43.379
ATOM     13  C   UNL d   1     -11.009  -2.424  10.297 -0.20 +0.02    +0.070    43.379
ATOM     14  C   UNL d   1     -11.880   0.837  11.771 -0.32 +0.02    +0.052    43.379
ATOM     15  C   UNL d   1     -10.469  -4.683   9.303 -0.19 +0.02    +0.066    43.379
ATOM     16  C   UNL d   1     -10.533  -5.583   8.249 -0.23 -0.01    -0.021    43.379
ATOM     17  C   UNL d   1     -10.009  -6.786   8.744 -0.19 +0.00    +0.000    43.379
ATOM     18  C   UNL d   1      -9.650  -6.519  10.061 -0.16 +0.02    +0.070    43.379
ATOM     19  C   UNL d   1     -11.070  -5.280   6.868 -0.08 +0.03    +0.052    43.379
ATOM     20  C   UNL d   1      -8.810  -7.254  12.323 -0.10 +0.01    +0.066    43.379
ATOM     21  C   UNL d   1      -8.304  -8.255  13.148 -0.06 -0.01    -0.025    43.379
ATOM     22  C   UNL d   1      -8.174  -7.678  14.398 -0.05 -0.00    -0.021    43.379
ATOM     23  C   UNL d   1      -8.622  -6.346  14.275 -0.08 +0.01    +0.066    43.379
ATOM     24  C   UNL d   1      -7.978  -9.698  12.770 -0.08 +0.02    +0.051    43.379
ATOM     25  N   UNL d   1      -9.762  -3.608  14.046 -0.05 -0.05    -0.248    43.379
ATOM     26  N   UNL d   1     -10.668  -2.669  11.590 -0.07 -0.06    -0.248    43.379
ATOM     27  N   UNL d   1      -9.966  -5.266  10.368 -0.06 -0.06    -0.248    43.379
ATOM     28  N   UNL d   1      -9.010  -6.086  13.021 +0.01 -0.05    -0.248    43.379
ATOM     29 FE   UNL d   1      -9.868  -4.489  12.099 -0.03 +0.00    +0.000    43.379
ATOM     30  C   UNL d   1      -9.254  -3.653  17.787 -0.14 +0.01    +0.052    43.379
ATOM     31  C   UNL d   1     -10.295  -4.617  18.355 -0.04 +0.01    +0.115    43.379
ATOM     32  C   UNL d   1     -11.616  -4.539  17.620 -0.02 +0.02    +0.139    43.379
ATOM     33  O   UNL d   1     -12.487  -3.784  18.027 +0.02 -0.09    -0.650    43.379
ATOM     34  O   UNL d   1     -11.851  -5.245  16.490 +0.02 -0.09    -0.776    43.379
ATOM     35  H   UNL d   1     -11.807  -6.210  16.433 +0.01 +0.02    +0.167    43.379
ATOM     36  C   UNL d   1     -11.775  -5.174  12.636 -0.04 +0.03    +0.190    43.379
ATOM     37  O   UNL d   1     -12.467  -5.882  13.624 -0.00 -0.05    -0.399    43.379
ATOM     38  H   UNL d   1     -11.828  -5.949  14.388 +0.01 +0.03    +0.209    43.379
ATOM     39  C   UNL d   1      -7.706  -8.392  15.653 -0.02 +0.01    +0.052    43.379
ATOM     40  C   UNL d   1      -8.737  -8.236  16.783 -0.01 +0.01    +0.115    43.379
ATOM     41  C   UNL d   1     -10.174  -8.440  16.350 -0.00 +0.01    +0.139    43.379
ATOM     42  O   UNL d   1     -10.771  -9.444  16.713 +0.00 -0.04    -0.650    43.379
ATOM     43  O   UNL d   1     -10.845  -7.502  15.646 +0.01 -0.08    -0.776    43.379
ATOM     44  H   UNL d   1     -10.683  -6.556  15.756 +0.01 +0.02    +0.167    43.379
ATOM     45  C   UNL d   1     -11.901  -0.597   8.745 -0.26 +0.00    +0.004    43.379
ATOM     46  C   UNL d   1     -11.849   0.639   8.253 -0.28 +0.00    +0.012    43.379
ATOM     47  C   UNL d   1      -9.887  -8.118   8.079 -0.17 +0.00    +0.004    43.379
ATOM     48  C   UNL d   1      -8.961  -8.401   7.160 -0.25 +0.00    +0.012    43.379
TER
ENDMDL


AVSFLD: # AVS field file
AVSFLD: #
AVSFLD: # Created by AutoDock
AVSFLD: #
AVSFLD: ndim=2           # number of dimensions in the field
AVSFLD: nspace=1         # number of physical coordinates
AVSFLD: veclen=7         # vector size
AVSFLD: dim1=48          # atoms
AVSFLD: dim2=57          # conformations
AVSFLD: data=Real       # data type (byte,integer,Real,double)
AVSFLD: field=uniform    # field coordinate layout
AVSFLD: label= x y z vdW Elec q RMS
AVSFLD: variable 1 file = D:/Protein_go_brrr/autodock/final/mut_D99N/heme_Co/dock.dlg.pdb filetype = ascii offset = 5 stride = 12
AVSFLD: variable 2 file = D:/Protein_go_brrr/autodock/final/mut_D99N/heme_Co/dock.dlg.pdb filetype = ascii offset = 6 stride = 12
AVSFLD: variable 3 file = D:/Protein_go_brrr/autodock/final/mut_D99N/heme_Co/dock.dlg.pdb filetype = ascii offset = 7 stride = 12
AVSFLD: variable 4 file = D:/Protein_go_brrr/autodock/final/mut_D99N/heme_Co/dock.dlg.pdb filetype = ascii offset = 8 stride = 12
AVSFLD: variable 5 file = D:/Protein_go_brrr/autodock/final/mut_D99N/heme_Co/dock.dlg.pdb filetype = ascii offset = 9 stride = 12
AVSFLD: variable 6 file = D:/Protein_go_brrr/autodock/final/mut_D99N/heme_Co/dock.dlg.pdb filetype = ascii offset = 10 stride = 12
AVSFLD: variable 7 file = D:/Protein_go_brrr/autodock/final/mut_D99N/heme_Co/dock.dlg.pdb filetype = ascii offset = 11 stride = 12
AVSFLD: # end of file

>>> Closing the docking parameter file (DPF)...
This docking finished at:			11:03 07" p.m., 10/17/2025


________________________________________________________________________________

D:/autodockScripts/autodock4.exe: Successful Completion on "ACER"

Real= 9h 40m 35.01s,  CPU= 1m 55.33s,  System= 38.45s
________________________________________________________________________________

