          AutoDock 4.2 Release 4.2.6   
         (C) 1989-2012 The Scripps Research Institute
        AutoDock comes with ABSOLUTELY NO WARRANTY.
        AutoDock is free software, and you are welcome
        to redistribute it under certain conditions;
        for details type 'autodock4 -C'

                     main.cc  $Revision: 1.213 $

                   Compiled on Jul 18 2014 at 15:34:58


This file was created at:			0:38 12" a.m., 09/29/2025
                   on host:		"ACER"
Current Working Directory = "D:\Protein_go_brrr\autodock\final\6BB5\heme"

      ________________________________________________________________

                   SETTING UP DEFAULT PARAMETER LIBRARY
      ________________________________________________________________


Random number generator was seeded with values 100036, 1759099092.
Docking parameter file (DPF) used for this docking:		D:/Protein_go_brrr/autodock/final/6BB5/heme/dock.dpf
DPF> autodock_parameter_version 4.2       # used by autodock to validate parameter set

	Autodock parameter version 4.2.
DPF> outlev 1                             # diagnostic output level

Output Level = 1  ADT-COMPATIBLE OUTPUT DURING DOCKING.
DPF> intelec                              # calculate internal electrostatics

Electrostatic energies will be calculated for all non-bonds between moving atoms.
DPF> seed pid time                        # seeds for random generator

Random number generator was seeded with values 100036, 1759099092.
DPF> ligand_types A C NA OA N HD          # atoms types in ligand

DPF> fld opt_6BB5.maps.fld                # grid_data_file

Opening Grid Map Dimensions file:		opt_6BB5.maps.fld
Grid Point Spacing =				0.658 Angstroms

Even Number of User-specified Grid Points =	126 x-points
						124 y-points
						126 z-points

Coordinates of Central Grid Point of Maps =	(23.343, 33.533, 11.432)
Macromolecule file used to create Grid Maps =	opt_6BB5.pdbqt
Grid Parameter file used to create Grid Maps =	D:/Protein_go_brrr/autodock/final/6BB5/heme/grid.gpf
Minimum coordinates in grid = (-18.111, -7.263, -30.022)
Maximum coordinates in grid = (64.797, 74.329, 52.886)

DPF> map opt_6BB5.A.map                   # atom-specific affinity map

DPF> map opt_6BB5.C.map                   # atom-specific affinity map

DPF> map opt_6BB5.NA.map                  # atom-specific affinity map

DPF> map opt_6BB5.OA.map                  # atom-specific affinity map

DPF> map opt_6BB5.N.map                   # atom-specific affinity map

DPF> map opt_6BB5.HD.map                  # atom-specific affinity map

DPF> elecmap opt_6BB5.e.map               # electrostatics map

DPF> desolvmap opt_6BB5.d.map             # desolvation map

DPF> move heme_opt.pdbqt                  # small molecule

1,4-interactions will be _ignored_ in the non-bonded internal energy calculation.

Ligand PDBQT file = "heme_opt.pdbqt"

INPUT LIGAND PDBQT FILE:
________________________

INPUT-LIGAND-PDBQT: REMARK  13 active torsions:
INPUT-LIGAND-PDBQT: REMARK  status: ('A' for Active; 'I' for Inactive)
INPUT-LIGAND-PDBQT: REMARK    1  A    between atoms: O_3  and  C_38 
INPUT-LIGAND-PDBQT: REMARK    2  A    between atoms: O_4  and  C_40 
INPUT-LIGAND-PDBQT: REMARK    3  A    between atoms: O_7  and  C_46 
INPUT-LIGAND-PDBQT: REMARK    4  A    between atoms: O_9  and  C_48 
INPUT-LIGAND-PDBQT: REMARK    5  A    between atoms: C_15  and  C_20 
INPUT-LIGAND-PDBQT: REMARK    6  A    between atoms: C_16  and  C_23 
INPUT-LIGAND-PDBQT: REMARK    7  A    between atoms: C_20  and  C_38 
INPUT-LIGAND-PDBQT: REMARK    8  A    between atoms: C_23  and  C_40 
INPUT-LIGAND-PDBQT: REMARK    9  A    between atoms: C_32  and  C_41 
INPUT-LIGAND-PDBQT: REMARK   10  A    between atoms: C_37  and  C_45 
INPUT-LIGAND-PDBQT: REMARK   11  A    between atoms: C_41  and  C_44 
INPUT-LIGAND-PDBQT: REMARK   12  A    between atoms: C_44  and  C_46 
INPUT-LIGAND-PDBQT: REMARK   13  A    between atoms: C_47  and  C_48 
INPUT-LIGAND-PDBQT: ROOT
INPUT-LIGAND-PDBQT: ATOM      1  O   UNL d   1      -5.458   1.707   0.620  0.00  0.00    -0.289 OA
INPUT-LIGAND-PDBQT: ATOM      2  O   UNL d   1      -2.504  -4.828  -1.607  0.00  0.00    -0.289 OA
INPUT-LIGAND-PDBQT: ATOM      3  N   UNL d   1      -2.063   1.218   0.259  0.00  0.00    -0.247 NA
INPUT-LIGAND-PDBQT: ATOM      4  N   UNL d   1      -1.851  -1.684  -0.343  0.00  0.00    -0.247 NA
INPUT-LIGAND-PDBQT: ATOM      5  N   UNL d   1       0.972  -1.489   0.166  0.00  0.00    -0.354 N 
INPUT-LIGAND-PDBQT: ATOM      6  N   UNL d   1       0.740   1.517   0.808  0.00  0.00    -0.354 N 
INPUT-LIGAND-PDBQT: ATOM      7  C   UNL d   1      -3.467   3.037   1.112  0.00  0.00     0.084 A 
INPUT-LIGAND-PDBQT: ATOM      8  C   UNL d   1      -3.784  -2.753  -1.388  0.00  0.00     0.084 A 
INPUT-LIGAND-PDBQT: ATOM      9  C   UNL d   1      -3.156  -1.511  -0.747  0.00  0.00     0.058 A 
INPUT-LIGAND-PDBQT: ATOM     10  C   UNL d   1      -2.069   2.485   0.818  0.00  0.00     0.058 A 
INPUT-LIGAND-PDBQT: ATOM     11  C   UNL d   1      -4.251   1.865   0.603  0.00  0.00     0.193 A 
INPUT-LIGAND-PDBQT: ATOM     12  C   UNL d   1      -3.288   0.840   0.089  0.00  0.00     0.109 A 
INPUT-LIGAND-PDBQT: ATOM     13  C   UNL d   1      -2.606  -3.674  -1.239  0.00  0.00     0.193 A 
INPUT-LIGAND-PDBQT: ATOM     14  C   UNL d   1      -3.721   3.188   2.614  0.00  0.00     0.026 C 
INPUT-LIGAND-PDBQT: ATOM     15  C   UNL d   1      -3.838  -0.372  -0.551  0.00  0.00     0.055 C 
INPUT-LIGAND-PDBQT: ATOM     16  C   UNL d   1      -4.060  -2.544  -2.880  0.00  0.00     0.026 C 
INPUT-LIGAND-PDBQT: ATOM     17  C   UNL d   1      -1.503  -2.907  -0.585  0.00  0.00     0.109 A 
INPUT-LIGAND-PDBQT: ATOM     18  C   UNL d   1      -0.964   3.229   1.013  0.00  0.00     0.050 C 
INPUT-LIGAND-PDBQT: ATOM     19  C   UNL d   1       0.360   2.835   0.692  0.00  0.00     0.045 A 
INPUT-LIGAND-PDBQT: ATOM     20  C   UNL d   1       0.841  -2.851   0.084  0.00  0.00     0.045 A 
INPUT-LIGAND-PDBQT: ATOM     21  C   UNL d   1      -0.229  -3.570  -0.270  0.00  0.00     0.057 C 
INPUT-LIGAND-PDBQT: ATOM     22  C   UNL d   1       2.967  -2.353   0.755  0.00  0.00    -0.019 A 
INPUT-LIGAND-PDBQT: ATOM     23  C   UNL d   1       2.221  -1.093   0.564  0.00  0.00     0.045 A 
INPUT-LIGAND-PDBQT: ATOM     24  C   UNL d   1       2.145  -3.390   0.468  0.00  0.00    -0.022 A 
INPUT-LIGAND-PDBQT: ATOM     25  C   UNL d   1       2.081   1.375   0.536  0.00  0.00     0.049 A 
INPUT-LIGAND-PDBQT: ATOM     26  C   UNL d   1       1.473   3.562   0.299  0.00  0.00    -0.018 A 
INPUT-LIGAND-PDBQT: ATOM     27  C   UNL d   1       2.552   2.632   0.183  0.00  0.00     0.003 A 
INPUT-LIGAND-PDBQT: ATOM     28  C   UNL d   1       2.739   0.132   0.742  0.00  0.00     0.052 C 
INPUT-LIGAND-PDBQT: ATOM     29  C   UNL d   1       2.440  -4.851   0.501  0.00  0.00     0.046 C 
INPUT-LIGAND-PDBQT: ATOM     30  C   UNL d   1       1.533   5.030   0.044  0.00  0.00     0.046 C 
INPUT-LIGAND-PDBQT: ATOM     31  H   UNL d   1       0.223  -0.870  -0.125  0.00  0.00     0.166 HD
INPUT-LIGAND-PDBQT: ATOM     32  H   UNL d   1       0.112   0.776   1.096  0.00  0.00     0.166 HD
INPUT-LIGAND-PDBQT: ENDROOT
INPUT-LIGAND-PDBQT: BRANCH   7  33
INPUT-LIGAND-PDBQT: ATOM     33  C   UNL d   1      -3.845   4.310   0.347  0.00  0.00     0.141 C 
INPUT-LIGAND-PDBQT: BRANCH  33  34
INPUT-LIGAND-PDBQT: ATOM     34  C   UNL d   1      -3.538   4.215  -1.123  0.00  0.00     0.306 C 
INPUT-LIGAND-PDBQT: ATOM     35  O   UNL d   1      -3.917   3.340  -1.883  0.00  0.00    -0.251 OA
INPUT-LIGAND-PDBQT: BRANCH  34  36
INPUT-LIGAND-PDBQT: ATOM     36  O   UNL d   1      -2.771   5.230  -1.559  0.00  0.00    -0.481 OA
INPUT-LIGAND-PDBQT: ATOM     37  H   UNL d   1      -2.612   5.030  -2.506  0.00  0.00     0.295 HD
INPUT-LIGAND-PDBQT: ENDBRANCH  34  36
INPUT-LIGAND-PDBQT: ENDBRANCH  33  34
INPUT-LIGAND-PDBQT: ENDBRANCH   7  33
INPUT-LIGAND-PDBQT: BRANCH  27  38
INPUT-LIGAND-PDBQT: ATOM     38  C   UNL d   1       3.894   2.967  -0.187  0.00  0.00     0.017 C 
INPUT-LIGAND-PDBQT: ATOM     39  C   UNL d   1       4.701   2.208  -0.944  0.00  0.00     0.092 C 
INPUT-LIGAND-PDBQT: BRANCH  39  40
INPUT-LIGAND-PDBQT: ATOM     40  C   UNL d   1       6.052   2.675  -1.266  0.00  0.00     0.330 C 
INPUT-LIGAND-PDBQT: ATOM     41  O   UNL d   1       6.568   3.731  -0.953  0.00  0.00    -0.246 OA
INPUT-LIGAND-PDBQT: BRANCH  40  42
INPUT-LIGAND-PDBQT: ATOM     42  O   UNL d   1       6.703   1.746  -1.983  0.00  0.00    -0.477 OA
INPUT-LIGAND-PDBQT: ATOM     43  H   UNL d   1       7.581   2.148  -2.146  0.00  0.00     0.295 HD
INPUT-LIGAND-PDBQT: ENDBRANCH  40  42
INPUT-LIGAND-PDBQT: ENDBRANCH  39  40
INPUT-LIGAND-PDBQT: ENDBRANCH  27  38
INPUT-LIGAND-PDBQT: BRANCH   8  44
INPUT-LIGAND-PDBQT: ATOM     44  C   UNL d   1      -5.015  -3.316  -0.670  0.00  0.00     0.141 C 
INPUT-LIGAND-PDBQT: BRANCH  44  45
INPUT-LIGAND-PDBQT: ATOM     45  C   UNL d   1      -4.806  -3.504   0.809  0.00  0.00     0.306 C 
INPUT-LIGAND-PDBQT: ATOM     46  O   UNL d   1      -3.825  -3.985   1.349  0.00  0.00    -0.251 OA
INPUT-LIGAND-PDBQT: BRANCH  45  47
INPUT-LIGAND-PDBQT: ATOM     47  O   UNL d   1      -5.864  -3.098   1.534  0.00  0.00    -0.481 OA
INPUT-LIGAND-PDBQT: ATOM     48  H   UNL d   1      -5.613  -3.283   2.464  0.00  0.00     0.295 HD
INPUT-LIGAND-PDBQT: ENDBRANCH  45  47
INPUT-LIGAND-PDBQT: ENDBRANCH  44  45
INPUT-LIGAND-PDBQT: ENDBRANCH   8  44
INPUT-LIGAND-PDBQT: BRANCH  22  49
INPUT-LIGAND-PDBQT: ATOM     49  C   UNL d   1       4.395  -2.426   1.210  0.00  0.00     0.048 C 
INPUT-LIGAND-PDBQT: BRANCH  49  50
INPUT-LIGAND-PDBQT: ATOM     50  C   UNL d   1       5.372  -2.242   0.049  0.00  0.00     0.125 C 
INPUT-LIGAND-PDBQT: BRANCH  50  51
INPUT-LIGAND-PDBQT: ATOM     51  C   UNL d   1       6.794  -2.339   0.524  0.00  0.00     0.305 C 
INPUT-LIGAND-PDBQT: ATOM     52  O   UNL d   1       7.189  -2.431   1.673  0.00  0.00    -0.251 OA
INPUT-LIGAND-PDBQT: BRANCH  51  53
INPUT-LIGAND-PDBQT: ATOM     53  O   UNL d   1       7.671  -2.302  -0.499  0.00  0.00    -0.481 OA
INPUT-LIGAND-PDBQT: ATOM     54  H   UNL d   1       8.547  -2.365  -0.064  0.00  0.00     0.295 HD
INPUT-LIGAND-PDBQT: ENDBRANCH  51  53
INPUT-LIGAND-PDBQT: ENDBRANCH  50  51
INPUT-LIGAND-PDBQT: ENDBRANCH  49  50
INPUT-LIGAND-PDBQT: ENDBRANCH  22  49
INPUT-LIGAND-PDBQT: TORSDOF 13
________________________________________________________________________________

Total charge on ligand                               =	-0.002 e
REMARK  13 active torsions:
REMARK  status: ('A' for Active; 'I' for Inactive)
REMARK    1  A    between atoms: O_3  and  C_38 
REMARK    2  A    between atoms: O_4  and  C_40 
REMARK    3  A    between atoms: O_7  and  C_46 
REMARK    4  A    between atoms: O_9  and  C_48 
REMARK    5  A    between atoms: C_15  and  C_20 
REMARK    6  A    between atoms: C_16  and  C_23 
REMARK    7  A    between atoms: C_20  and  C_38 
REMARK    8  A    between atoms: C_23  and  C_40 
REMARK    9  A    between atoms: C_32  and  C_41 
REMARK   10  A    between atoms: C_37  and  C_45 
REMARK   11  A    between atoms: C_41  and  C_44 
REMARK   12  A    between atoms: C_44  and  C_46 
REMARK   13  A    between atoms: C_47  and  C_48 


Number of Rotatable Bonds in Small Molecule =	13 torsions
Number of atoms in ligand:  54

Number of non-hydrogen atoms in ligand:  48

Number of vibrational degrees of freedom of ligand:  156


Number of torsional degrees of freedom = 13
Estimated loss of torsional free energy upon binding = +3.8779 kcal/mol


DPF> about 0.153 0.018 -0.028            # small molecule center

Small molecule center of rotation =	(+0.153, +0.018, -0.028)

DPF> tran0 random                         # initial coordinates/A or random

Initial translation =			(1.647, 27.286, -24.704) Angstroms
DPF> quaternion0 random                   # initial orientation

Each run will begin with a new, random initial orientation.
Initial quaternion,  (x,y,z,w) =	( -0.561, 0.637, -0.237, 0.472 ),
DPF> dihe0 random                         # initial dihedrals (relative) or random

DPF> torsdof 13                            # torsional degrees of freedom

Number of torsional degrees of freedom = 13
Free energy coefficient for torsional degrees of freedom = 0.2983, the factory default value.

Estimated loss of torsional free energy upon binding = +3.8779 kcal/mol

DPF> rmstol 2.0                           # cluster_tolerance/A

Maximum RMS tolerance for conformational cluster analysis = 2.00 Angstroms
DPF> extnrg 1000.0                        # external grid energy

External grid energy (beyond grid map walls) = 1000.00

DPF> e0max 0.0 10000                      # max initial energy; max number of retries

Using user-specified maximum number of retries for simanneal initialization, 10000 retries.
If the simanneal initial energy is greater than e0max, 0.000,
then a new, random initial state will be created.

DPF> ga_pop_size 150                      # number of individuals in population

A population of 150 individuals will be used
DPF> ga_num_evals 25000000                # maximum number of energy evaluations

There will be at most 25000000 function evaluations used.
DPF> ga_num_generations 27000             # maximum number of generations

The GA will run for at most 27000 generations.
DPF> ga_elitism 1                         # number of top individuals to survive to next generation

The 1 best will be preserved each GA generation.
DPF> ga_mutation_rate 0.02                # rate of gene mutation

The mutation rate is 0.020000.
DPF> ga_crossover_rate 0.8                # rate of crossover

The crossover rate is 0.800000.
DPF> ga_window_size 10                    # 

The GA's selection window is 10 generations.
DPF> ga_cauchy_alpha 0.0                  # Alpha parameter of Cauchy distribution

The alpha parameter (for the Cauchy distribution) is being set to 0.000000.
DPF> ga_cauchy_beta 1.0                   # Beta parameter Cauchy distribution

The beta parameter (for the Cauchy distribution) is being set to 1.000000.
DPF> set_ga                               # set the above parameters for GA or LGA

DPF> sw_max_its 300                       # iterations of Solis & Wets local search

Solis & Wets algorithms will perform at most 300 iterations.
DPF> sw_max_succ 4                        # consecutive successes before changing rho

Solis & Wets algorithms expand rho every 4 in a row successes.
DPF> sw_max_fail 4                        # consecutive failures before changing rho

Solis & Wets algorithms contract rho every 4 in a row failures.
DPF> sw_rho 1.0                           # size of local search space to sample

rho is set to 1.000000.
DPF> sw_lb_rho 0.01                       # lower bound on rho

rho will never get smaller than 0.010000.
DPF> ls_search_freq 0.06                  # probability of performing local search on individual

Local search will be performed with frequency 0.060000.
DPF> set_psw1                             # set the above pseudo-Solis & Wets parameters

Creating a new Local Search object using the pseudo-Solis-Wets algorithm (pSW1) with the current settings.

DPF> unbound_model bound                  # state of unbound ligand

DPF> ga_run 100                           # do this many hybrid GA-LS runs

centering ligand on specified point: 0.153 0.018 -0.028
Furthest true ligand atom from "about" center is 8.726 Angstroms (maxrad).
Number of requested GA dockings = 100 runs
Unbound model to be used is 'same as bound' [AutoDock 4.2 default].

	BEGINNING GENETIC ALGORITHM DOCKING 1 of 100
Run: 1 Seed: 715373396 349141496 [ Run 1 of 100 GA/GALS ]
Beginning LAMARCKIAN GENETIC ALGORITHM (LGA), with a maximum of 25000000 energy evaluations.

Final-Value: -11.627


	FINAL GENETIC ALGORITHM DOCKED STATE
	_______________________________________________


Detailed state:  trans 25.335 37.756 -4.503 quatxyzw -0.071135 0.286590 0.576995 0.761501 center 0.153 0.018 -0.028 ntor 13 173.2998 -159.2286 9.3127 -70.0657 -149.7265 77.6528 158.0666 -104.9470 11.4426 17.3557 -100.7817 -80.1909 -6.3391
State:	 25.335  37.756  -4.503  -0.110  0.442  0.890 80.807    173.30 -159.23    9.31  -70.07 -149.73   77.65  158.07 -104.95   11.44   17.36 -100.78  -80.19   -6.34

DOCKED: MODEL        1
DOCKED: USER    Run = 1
DOCKED: USER    DPF = D:/Protein_go_brrr/autodock/final/6BB5/heme/dock.dpf
DOCKED: USER  
DOCKED: USER    Estimated Free Energy of Binding    =   -3.54 kcal/mol  [=(1)+(2)+(3)-(4)]
DOCKED: USER    Estimated Inhibition Constant, Ki   =    2.54 mM (millimolar)  [Temperature = 298.15 K]
DOCKED: USER    
DOCKED: USER    (1) Final Intermolecular Energy     =   -7.42 kcal/mol
DOCKED: USER        vdW + Hbond + desolv Energy     =   -7.04 kcal/mol
DOCKED: USER        Electrostatic Energy            =   -0.38 kcal/mol
DOCKED: USER    (2) Final Total Internal Energy     =   -4.21 kcal/mol
DOCKED: USER    (3) Torsional Free Energy           =   +3.88 kcal/mol
DOCKED: USER    (4) Unbound System's Energy  [=(2)] =   -4.21 kcal/mol
DOCKED: USER    
DOCKED: USER    
DOCKED: USER    NEWDPF move heme_opt.pdbqt
DOCKED: USER    NEWDPF about 0.153000 0.018000 -0.028000
DOCKED: USER    NEWDPF tran0 25.335187 37.756400 -4.502528
DOCKED: USER    NEWDPF quaternion0 -0.071135 0.286590 0.576995 0.761501
DOCKED: USER    NEWDPF axisangle0 -0.109749 0.442156 0.890198 80.806682
DOCKED: USER    NEWDPF quat0 -0.109749 0.442156 0.890198 80.806682
DOCKED: USER    NEWDPF dihe0 173.30 -159.23 9.31 -70.07 -149.73 77.65 158.07 -104.95 11.44 17.36 -100.78 -80.19 -6.34 
DOCKED: USER  keepresnum = 1 
DOCKED: USER  
DOCKED: REMARK  13 active torsions:
DOCKED: REMARK  status: ('A' for Active; 'I' for Inactive)
DOCKED: REMARK    1  A    between atoms: O_3  and  C_38 
DOCKED: REMARK    2  A    between atoms: O_4  and  C_40 
DOCKED: REMARK    3  A    between atoms: O_7  and  C_46 
DOCKED: REMARK    4  A    between atoms: O_9  and  C_48 
DOCKED: REMARK    5  A    between atoms: C_15  and  C_20 
DOCKED: REMARK    6  A    between atoms: C_16  and  C_23 
DOCKED: REMARK    7  A    between atoms: C_20  and  C_38 
DOCKED: REMARK    8  A    between atoms: C_23  and  C_40 
DOCKED: REMARK    9  A    between atoms: C_32  and  C_41 
DOCKED: REMARK   10  A    between atoms: C_37  and  C_45 
DOCKED: REMARK   11  A    between atoms: C_41  and  C_44 
DOCKED: REMARK   12  A    between atoms: C_44  and  C_46 
DOCKED: REMARK   13  A    between atoms: C_47  and  C_48 
DOCKED: USER                              x       y       z     vdW  Elec       q    Type
DOCKED: USER                           _______ _______ _______ _____ _____    ______ ____
DOCKED: ROOT
DOCKED: ATOM      1  O   UNL d   1      25.461  43.607  -5.214 -0.05 -0.03    -0.289 OA
DOCKED: ATOM      2  O   UNL d   1      21.642  38.278  -8.875 -0.10 -0.12    -0.289 OA
DOCKED: ATOM      3  N   UNL d   1      25.815  40.247  -4.524 -0.15 -0.03    -0.247 NA
DOCKED: ATOM      4  N   UNL d   1      23.732  38.978  -6.220 -0.11 -0.03    -0.247 NA
DOCKED: ATOM      5  N   UNL d   1      24.111  36.558  -4.714 -0.13 +0.02    -0.354 N 
DOCKED: ATOM      6  N   UNL d   1      26.258  37.888  -2.946 -0.10 -0.02    -0.354 N 
DOCKED: ATOM      7  C   UNL d   1      26.659  42.317  -3.519 -0.14 +0.01    +0.084 A 
DOCKED: ATOM      8  C   UNL d   1      23.050  40.176  -8.237 -0.09 +0.02    +0.084 A 
DOCKED: ATOM      9  C   UNL d   1      23.865  40.144  -6.940 -0.12 +0.01    +0.058 A 
DOCKED: ATOM     10  C   UNL d   1      26.586  40.787  -3.508 -0.15 +0.01    +0.058 A 
DOCKED: ATOM     11  C   UNL d   1      25.808  42.545  -4.731 -0.10 +0.02    +0.193 A 
DOCKED: ATOM     12  C   UNL d   1      25.379  41.213  -5.264 -0.15 +0.01    +0.109 A 
DOCKED: ATOM     13  C   UNL d   1      22.401  38.828  -8.101 -0.09 +0.05    +0.193 A 
DOCKED: ATOM     14  C   UNL d   1      25.963  42.933  -2.302 -0.29 +0.00    +0.026 C 
DOCKED: ATOM     15  C   UNL d   1      24.602  41.184  -6.520 -0.14 +0.01    +0.055 C 
DOCKED: ATOM     16  C   UNL d   1      23.951  40.166  -9.475 -0.04 +0.00    +0.026 C 
DOCKED: ATOM     17  C   UNL d   1      22.892  38.207  -6.834 -0.14 +0.02    +0.109 A 
DOCKED: ATOM     18  C   UNL d   1      27.296  40.055  -2.629 -0.16 +0.00    +0.050 C 
DOCKED: ATOM     19  C   UNL d   1      27.358  38.639  -2.598 -0.16 +0.00    +0.045 A 
DOCKED: ATOM     20  C   UNL d   1      22.990  36.219  -5.426 -0.18 -0.00    +0.045 A 
DOCKED: ATOM     21  C   UNL d   1      22.389  36.891  -6.413 -0.20 +0.00    +0.057 C 
DOCKED: ATOM     22  C   UNL d   1      23.420  34.575  -3.900 -0.31 +0.00    -0.019 A 
DOCKED: ATOM     23  C   UNL d   1      24.449  35.626  -3.769 -0.23 -0.00    +0.045 A 
DOCKED: ATOM     24  C   UNL d   1      22.561  34.931  -4.883 -0.29 +0.00    -0.022 A 
DOCKED: ATOM     25  C   UNL d   1      26.507  36.549  -2.758 -0.19 +0.00    +0.049 A 
DOCKED: ATOM     26  C   UNL d   1      28.360  37.764  -2.209 -0.12 -0.00    -0.018 A 
DOCKED: ATOM     27  C   UNL d   1      27.824  36.444  -2.330 -0.13 +0.00    +0.003 A 
DOCKED: ATOM     28  C   UNL d   1      25.471  35.587  -2.900 -0.24 -0.00    +0.052 C 
DOCKED: ATOM     29  C   UNL d   1      21.369  34.193  -5.393 -0.22 -0.00    +0.046 C 
DOCKED: ATOM     30  C   UNL d   1      29.732  38.128  -1.753 -0.05 +0.00    +0.046 C 
DOCKED: ATOM     31  H   UNL d   1      24.653  37.383  -4.948 +0.04 +0.00    +0.166 HD
DOCKED: ATOM     32  H   UNL d   1      25.381  38.290  -3.256 +0.03 +0.01    +0.166 HD
DOCKED: ENDROOT
DOCKED: BRANCH   7  33
DOCKED: ATOM     33  C   UNL d   1      28.058  42.907  -3.725 -0.04 +0.01    +0.141 C 
DOCKED: BRANCH  33  34
DOCKED: ATOM     34  C   UNL d   1      28.684  42.472  -5.023 -0.01 +0.02    +0.306 C 
DOCKED: ATOM     35  O   UNL d   1      29.455  41.539  -5.174 -0.01 -0.01    -0.251 OA
DOCKED: BRANCH  34  36
DOCKED: ATOM     36  O   UNL d   1      28.304  43.235  -6.063 +0.00 -0.03    -0.481 OA
DOCKED: ATOM     37  H   UNL d   1      27.583  43.797  -5.707 +0.02 +0.02    +0.295 HD
DOCKED: ENDBRANCH  34  36
DOCKED: ENDBRANCH  33  34
DOCKED: ENDBRANCH   7  33
DOCKED: BRANCH  27  38
DOCKED: ATOM     38  C   UNL d   1      28.524  35.237  -2.013 -0.06 +0.00    +0.017 C 
DOCKED: ATOM     39  C   UNL d   1      28.009  34.197  -1.339 -0.08 +0.02    +0.092 C 
DOCKED: BRANCH  39  40
DOCKED: ATOM     40  C   UNL d   1      28.829  33.007  -1.094 -0.04 +0.20    +0.330 C 
DOCKED: ATOM     41  O   UNL d   1      29.727  32.877  -0.284 -0.60 -0.28    -0.246 OA
DOCKED: BRANCH  40  42
DOCKED: ATOM     42  O   UNL d   1      28.451  32.010  -1.909 -0.02 -0.18    -0.477 OA
DOCKED: ATOM     43  H   UNL d   1      27.983  32.467  -2.638 +0.04 +0.04    +0.295 HD
DOCKED: ENDBRANCH  40  42
DOCKED: ENDBRANCH  39  40
DOCKED: ENDBRANCH  27  38
DOCKED: BRANCH   8  44
DOCKED: ATOM     44  C   UNL d   1      21.996  41.285  -8.328 -0.14 +0.04    +0.141 C 
DOCKED: BRANCH  44  45
DOCKED: ATOM     45  C   UNL d   1      21.392  41.642  -6.996 -0.19 +0.08    +0.306 C 
DOCKED: ATOM     46  O   UNL d   1      21.509  42.701  -6.405 -0.23 -0.05    -0.251 OA
DOCKED: BRANCH  45  47
DOCKED: ATOM     47  O   UNL d   1      20.690  40.627  -6.461 -0.13 -0.13    -0.481 OA
DOCKED: ATOM     48  H   UNL d   1      20.241  41.019  -5.682 -0.37 -0.01    +0.295 HD
DOCKED: ENDBRANCH  45  47
DOCKED: ENDBRANCH  44  45
DOCKED: ENDBRANCH   8  44
DOCKED: BRANCH  22  49
DOCKED: ATOM     49  C   UNL d   1      23.366  33.339  -3.050 -0.42 -0.02    +0.048 C 
DOCKED: BRANCH  49  50
DOCKED: ATOM     50  C   UNL d   1      24.165  32.190  -3.665 -0.22 -0.07    +0.125 C 
DOCKED: BRANCH  50  51
DOCKED: ATOM     51  C   UNL d   1      25.633  32.349  -3.385 -0.06 -0.07    +0.305 C 
DOCKED: ATOM     52  O   UNL d   1      26.518  32.605  -4.183 -0.02 +0.03    -0.251 OA
DOCKED: BRANCH  51  53
DOCKED: ATOM     53  O   UNL d   1      25.921  32.159  -2.082 -0.03 +0.05    -0.481 OA
DOCKED: ATOM     54  H   UNL d   1      26.403  31.306  -2.066 +0.08 -0.02    +0.295 HD
DOCKED: ENDBRANCH  51  53
DOCKED: ENDBRANCH  50  51
DOCKED: ENDBRANCH  49  50
DOCKED: ENDBRANCH  22  49
DOCKED: TORSDOF 13
DOCKED: TER
DOCKED: ENDMDL
________________________________________________________________________________


	BEGINNING GENETIC ALGORITHM DOCKING 2 of 100
Run: 2 Seed: 511760745 909311773 [ Run 2 of 100 GA/GALS ]
Beginning LAMARCKIAN GENETIC ALGORITHM (LGA), with a maximum of 25000000 energy evaluations.

Final-Value: -11.038


	FINAL GENETIC ALGORITHM DOCKED STATE
	_______________________________________________


Detailed state:  trans 25.223 37.793 -4.627 quatxyzw 0.077225 -0.293256 -0.606398 -0.735064 center 0.153 0.018 -0.028 ntor 13 108.8635 -156.9853 126.1697 31.6134 177.4621 92.2528 -62.0725 11.4800 -19.6948 -155.6309 -78.3804 -130.0665 10.6950
State:	 25.223  37.793  -4.627   0.114 -0.433 -0.894 -85.375    108.86 -156.99  126.17   31.61  177.46   92.25  -62.07   11.48  -19.69 -155.63  -78.38 -130.07   10.70

DOCKED: MODEL        2
DOCKED: USER    Run = 2
DOCKED: USER    DPF = D:/Protein_go_brrr/autodock/final/6BB5/heme/dock.dpf
DOCKED: USER  
DOCKED: USER    Estimated Free Energy of Binding    =   -2.81 kcal/mol  [=(1)+(2)+(3)-(4)]
DOCKED: USER    Estimated Inhibition Constant, Ki   =    8.77 mM (millimolar)  [Temperature = 298.15 K]
DOCKED: USER    
DOCKED: USER    (1) Final Intermolecular Energy     =   -6.68 kcal/mol
DOCKED: USER        vdW + Hbond + desolv Energy     =   -6.35 kcal/mol
DOCKED: USER        Electrostatic Energy            =   -0.33 kcal/mol
DOCKED: USER    (2) Final Total Internal Energy     =   -4.35 kcal/mol
DOCKED: USER    (3) Torsional Free Energy           =   +3.88 kcal/mol
DOCKED: USER    (4) Unbound System's Energy  [=(2)] =   -4.35 kcal/mol
DOCKED: USER    
DOCKED: USER    
DOCKED: USER    NEWDPF move heme_opt.pdbqt
DOCKED: USER    NEWDPF about 0.153000 0.018000 -0.028000
DOCKED: USER    NEWDPF tran0 25.222918 37.792741 -4.626518
DOCKED: USER    NEWDPF quaternion0 0.077225 -0.293256 -0.606398 -0.735064
DOCKED: USER    NEWDPF axisangle0 0.113901 -0.432533 -0.894395 -85.374785
DOCKED: USER    NEWDPF quat0 0.113901 -0.432533 -0.894395 -85.374785
DOCKED: USER    NEWDPF dihe0 108.86 -156.99 126.17 31.61 177.46 92.25 -62.07 11.48 -19.69 -155.63 -78.38 -130.07 10.70 
DOCKED: USER  keepresnum = 1 
DOCKED: USER  
DOCKED: REMARK  13 active torsions:
DOCKED: REMARK  status: ('A' for Active; 'I' for Inactive)
DOCKED: REMARK    1  A    between atoms: O_3  and  C_38 
DOCKED: REMARK    2  A    between atoms: O_4  and  C_40 
DOCKED: REMARK    3  A    between atoms: O_7  and  C_46 
DOCKED: REMARK    4  A    between atoms: O_9  and  C_48 
DOCKED: REMARK    5  A    between atoms: C_15  and  C_20 
DOCKED: REMARK    6  A    between atoms: C_16  and  C_23 
DOCKED: REMARK    7  A    between atoms: C_20  and  C_38 
DOCKED: REMARK    8  A    between atoms: C_23  and  C_40 
DOCKED: REMARK    9  A    between atoms: C_32  and  C_41 
DOCKED: REMARK   10  A    between atoms: C_37  and  C_45 
DOCKED: REMARK   11  A    between atoms: C_41  and  C_44 
DOCKED: REMARK   12  A    between atoms: C_44  and  C_46 
DOCKED: REMARK   13  A    between atoms: C_47  and  C_48 
DOCKED: USER                              x       y       z     vdW  Elec       q    Type
DOCKED: USER                           _______ _______ _______ _____ _____    ______ ____
DOCKED: ROOT
DOCKED: ATOM      1  O   UNL d   1      25.793  43.633  -5.199 -0.04 -0.03    -0.289 OA
DOCKED: ATOM      2  O   UNL d   1      21.705  38.675  -9.085 -0.11 -0.12    -0.289 OA
DOCKED: ATOM      3  N   UNL d   1      25.883  40.241  -4.577 -0.15 -0.03    -0.247 NA
DOCKED: ATOM      4  N   UNL d   1      23.763  39.164  -6.358 -0.12 -0.03    -0.247 NA
DOCKED: ATOM      5  N   UNL d   1      23.922  36.692  -4.899 -0.12 +0.01    -0.354 N 
DOCKED: ATOM      6  N   UNL d   1      26.107  37.824  -3.043 -0.14 -0.02    -0.354 N 
DOCKED: ATOM      7  C   UNL d   1      26.844  42.223  -3.501 -0.13 +0.01    +0.084 A 
DOCKED: ATOM      8  C   UNL d   1      23.227  40.451  -8.365 -0.07 +0.02    +0.084 A 
DOCKED: ATOM      9  C   UNL d   1      24.000  40.332  -7.047 -0.11 +0.01    +0.058 A 
DOCKED: ATOM     10  C   UNL d   1      26.661  40.702  -3.528 -0.17 +0.01    +0.058 A 
DOCKED: ATOM     11  C   UNL d   1      26.047  42.538  -4.731 -0.09 +0.02    +0.193 A 
DOCKED: ATOM     12  C   UNL d   1      25.539  41.252  -5.307 -0.14 +0.01    +0.109 A 
DOCKED: ATOM     13  C   UNL d   1      22.479  39.151  -8.278 -0.08 +0.05    +0.193 A 
DOCKED: ATOM     14  C   UNL d   1      26.160  42.862  -2.290 -0.27 +0.00    +0.026 C 
DOCKED: ATOM     15  C   UNL d   1      24.798  41.306  -6.583 -0.12 +0.01    +0.055 C 
DOCKED: ATOM     16  C   UNL d   1      24.162  40.402  -9.578 -0.03 +0.00    +0.026 C 
DOCKED: ATOM     17  C   UNL d   1      22.887  38.470  -7.012 -0.14 +0.02    +0.109 A 
DOCKED: ATOM     18  C   UNL d   1      27.290  39.902  -2.647 -0.16 +0.00    +0.050 C 
DOCKED: ATOM     19  C   UNL d   1      27.248  38.485  -2.647 -0.16 +0.00    +0.045 A 
DOCKED: ATOM     20  C   UNL d   1      22.800  36.451  -5.649 -0.18 +0.00    +0.045 A 
DOCKED: ATOM     21  C   UNL d   1      22.278  37.186  -6.636 -0.20 +0.01    +0.057 C 
DOCKED: ATOM     22  C   UNL d   1      23.066  34.747  -4.150 -0.31 +0.00    -0.019 A 
DOCKED: ATOM     23  C   UNL d   1      24.164  35.718  -3.967 -0.21 -0.01    +0.045 A 
DOCKED: ATOM     24  C   UNL d   1      22.263  35.186  -5.149 -0.28 +0.00    -0.022 A 
DOCKED: ATOM     25  C   UNL d   1      26.254  36.466  -2.879 -0.20 +0.00    +0.049 A 
DOCKED: ATOM     26  C   UNL d   1      28.172  37.531  -2.251 -0.13 -0.00    -0.018 A 
DOCKED: ATOM     27  C   UNL d   1      27.546  36.257  -2.418 -0.14 +0.00    +0.003 A 
DOCKED: ATOM     28  C   UNL d   1      25.155  35.585  -3.072 -0.26 -0.00    +0.052 C 
DOCKED: ATOM     29  C   UNL d   1      21.037  34.548  -5.708 -0.27 +0.00    +0.046 C 
DOCKED: ATOM     30  C   UNL d   1      29.554  37.784  -1.750 -0.06 +0.00    +0.046 C 
DOCKED: ATOM     31  H   UNL d   1      24.529  37.479  -5.099 +0.04 +0.00    +0.166 HD
DOCKED: ATOM     32  H   UNL d   1      25.271  38.295  -3.367 +0.03 +0.01    +0.166 HD
DOCKED: ENDROOT
DOCKED: BRANCH   7  33
DOCKED: ATOM     33  C   UNL d   1      28.288  42.713  -3.656 -0.04 +0.01    +0.141 C 
DOCKED: BRANCH  33  34
DOCKED: ATOM     34  C   UNL d   1      29.143  41.758  -4.444 -0.01 +0.02    +0.306 C 
DOCKED: ATOM     35  O   UNL d   1      30.224  41.309  -4.102 -0.01 -0.02    -0.251 OA
DOCKED: BRANCH  34  36
DOCKED: ATOM     36  O   UNL d   1      28.589  41.416  -5.620 +0.00 -0.03    -0.481 OA
DOCKED: ATOM     37  H   UNL d   1      27.860  40.804  -5.381 +0.03 +0.02    +0.295 HD
DOCKED: ENDBRANCH  34  36
DOCKED: ENDBRANCH  33  34
DOCKED: ENDBRANCH   7  33
DOCKED: BRANCH  27  38
DOCKED: ATOM     38  C   UNL d   1      28.148  34.995  -2.110 -0.08 +0.00    +0.017 C 
DOCKED: ATOM     39  C   UNL d   1      28.133  34.403  -0.906 -0.10 +0.03    +0.092 C 
DOCKED: BRANCH  39  40
DOCKED: ATOM     40  C   UNL d   1      28.774  33.098  -0.726 -0.00 +0.25    +0.330 C 
DOCKED: ATOM     41  O   UNL d   1      29.925  32.872  -0.406 -0.63 -0.25    -0.246 OA
DOCKED: BRANCH  40  42
DOCKED: ATOM     42  O   UNL d   1      27.891  32.114  -0.959 -0.11 -0.32    -0.477 OA
DOCKED: ATOM     43  H   UNL d   1      27.214  32.536  -1.528 +0.08 +0.07    +0.295 HD
DOCKED: ENDBRANCH  40  42
DOCKED: ENDBRANCH  39  40
DOCKED: ENDBRANCH  27  38
DOCKED: BRANCH   8  44
DOCKED: ATOM     44  C   UNL d   1      22.260  41.636  -8.459 -0.12 +0.03    +0.141 C 
DOCKED: BRANCH  44  45
DOCKED: ATOM     45  C   UNL d   1      21.996  42.077  -9.874 -0.05 +0.08    +0.306 C 
DOCKED: ATOM     46  O   UNL d   1      22.426  43.081 -10.415 -0.02 -0.04    -0.251 OA
DOCKED: BRANCH  45  47
DOCKED: ATOM     47  O   UNL d   1      21.174  41.237 -10.529 -0.03 -0.23    -0.481 OA
DOCKED: ATOM     48  H   UNL d   1      21.600  40.357 -10.444 +0.04 +0.14    +0.295 HD
DOCKED: ENDBRANCH  45  47
DOCKED: ENDBRANCH  44  45
DOCKED: ENDBRANCH   8  44
DOCKED: BRANCH  22  49
DOCKED: ATOM     49  C   UNL d   1      22.898  33.501  -3.331 -0.46 -0.02    +0.048 C 
DOCKED: BRANCH  49  50
DOCKED: ATOM     50  C   UNL d   1      23.936  32.439  -3.692 -0.24 -0.07    +0.125 C 
DOCKED: BRANCH  50  51
DOCKED: ATOM     51  C   UNL d   1      25.030  32.387  -2.665 -0.02 -0.08    +0.305 C 
DOCKED: ATOM     52  O   UNL d   1      25.095  33.005  -1.616 -0.14 +0.03    -0.251 OA
DOCKED: BRANCH  51  53
DOCKED: ATOM     53  O   UNL d   1      26.021  31.547  -3.025 -0.02 +0.10    -0.481 OA
DOCKED: ATOM     54  H   UNL d   1      26.363  31.203  -2.174 +0.08 -0.03    +0.295 HD
DOCKED: ENDBRANCH  51  53
DOCKED: ENDBRANCH  50  51
DOCKED: ENDBRANCH  49  50
DOCKED: ENDBRANCH  22  49
DOCKED: TORSDOF 13
DOCKED: TER
DOCKED: ENDMDL
________________________________________________________________________________


	BEGINNING GENETIC ALGORITHM DOCKING 3 of 100
Run: 3 Seed: 137749083 1900718263 [ Run 3 of 100 GA/GALS ]
Beginning LAMARCKIAN GENETIC ALGORITHM (LGA), with a maximum of 25000000 energy evaluations.

Final-Value: -11.095


	FINAL GENETIC ALGORITHM DOCKED STATE
	_______________________________________________


Detailed state:  trans 25.048 38.265 -3.889 quatxyzw 0.465720 0.795134 0.144490 -0.360540 center 0.153 0.018 -0.028 ntor 13 130.9410 -69.7156 179.8132 -36.4403 -141.0027 -135.9562 147.1422 39.7740 44.7759 -5.2900 -67.6060 33.3119 16.0542
State:	 25.048  38.265  -3.889   0.499  0.852  0.155 -137.733    130.94  -69.72  179.81  -36.44 -141.00 -135.96  147.14   39.77   44.78   -5.29  -67.61   33.31   16.05

DOCKED: MODEL        3
DOCKED: USER    Run = 3
DOCKED: USER    DPF = D:/Protein_go_brrr/autodock/final/6BB5/heme/dock.dpf
DOCKED: USER  
DOCKED: USER    Estimated Free Energy of Binding    =   -3.15 kcal/mol  [=(1)+(2)+(3)-(4)]
DOCKED: USER    Estimated Inhibition Constant, Ki   =    4.90 mM (millimolar)  [Temperature = 298.15 K]
DOCKED: USER    
DOCKED: USER    (1) Final Intermolecular Energy     =   -7.03 kcal/mol
DOCKED: USER        vdW + Hbond + desolv Energy     =   -6.92 kcal/mol
DOCKED: USER        Electrostatic Energy            =   -0.11 kcal/mol
DOCKED: USER    (2) Final Total Internal Energy     =   -4.07 kcal/mol
DOCKED: USER    (3) Torsional Free Energy           =   +3.88 kcal/mol
DOCKED: USER    (4) Unbound System's Energy  [=(2)] =   -4.07 kcal/mol
DOCKED: USER    
DOCKED: USER    
DOCKED: USER    NEWDPF move heme_opt.pdbqt
DOCKED: USER    NEWDPF about 0.153000 0.018000 -0.028000
DOCKED: USER    NEWDPF tran0 25.048225 38.264943 -3.888539
DOCKED: USER    NEWDPF quaternion0 0.465720 0.795134 0.144490 -0.360540
DOCKED: USER    NEWDPF axisangle0 0.499301 0.852468 0.154909 -137.733304
DOCKED: USER    NEWDPF quat0 0.499301 0.852468 0.154909 -137.733304
DOCKED: USER    NEWDPF dihe0 130.94 -69.72 179.81 -36.44 -141.00 -135.96 147.14 39.77 44.78 -5.29 -67.61 33.31 16.05 
DOCKED: USER  keepresnum = 1 
DOCKED: USER  
DOCKED: REMARK  13 active torsions:
DOCKED: REMARK  status: ('A' for Active; 'I' for Inactive)
DOCKED: REMARK    1  A    between atoms: O_3  and  C_38 
DOCKED: REMARK    2  A    between atoms: O_4  and  C_40 
DOCKED: REMARK    3  A    between atoms: O_7  and  C_46 
DOCKED: REMARK    4  A    between atoms: O_9  and  C_48 
DOCKED: REMARK    5  A    between atoms: C_15  and  C_20 
DOCKED: REMARK    6  A    between atoms: C_16  and  C_23 
DOCKED: REMARK    7  A    between atoms: C_20  and  C_38 
DOCKED: REMARK    8  A    between atoms: C_23  and  C_40 
DOCKED: REMARK    9  A    between atoms: C_32  and  C_41 
DOCKED: REMARK   10  A    between atoms: C_37  and  C_45 
DOCKED: REMARK   11  A    between atoms: C_41  and  C_44 
DOCKED: REMARK   12  A    between atoms: C_44  and  C_46 
DOCKED: REMARK   13  A    between atoms: C_47  and  C_48 
DOCKED: USER                              x       y       z     vdW  Elec       q    Type
DOCKED: USER                           _______ _______ _______ _____ _____    ______ ____
DOCKED: ROOT
DOCKED: ATOM      1  O   UNL d   1      28.300  34.342  -0.924 -0.05 -0.09    -0.289 OA
DOCKED: ATOM      2  O   UNL d   1      21.660  33.646  -4.361 -0.38 +0.06    -0.289 OA
DOCKED: ATOM      3  N   UNL d   1      26.694  36.992  -2.438 -0.16 -0.01    -0.247 NA
DOCKED: ATOM      4  N   UNL d   1      24.356  35.713  -3.752 -0.17 +0.03    -0.247 NA
DOCKED: ATOM      5  N   UNL d   1      23.976  38.146  -5.236 -0.09 -0.03    -0.354 N 
DOCKED: ATOM      6  N   UNL d   1      26.414  39.458  -3.882 -0.12 -0.03    -0.354 N 
DOCKED: ATOM      7  C   UNL d   1      28.885  36.669  -1.389 -0.07 +0.01    +0.084 A 
DOCKED: ATOM      8  C   UNL d   1      23.528  33.630  -2.779 -0.35 -0.02    +0.084 A 
DOCKED: ATOM      9  C   UNL d   1      24.579  34.744  -2.799 -0.26 -0.01    +0.058 A 
DOCKED: ATOM     10  C   UNL d   1      27.898  37.592  -2.109 -0.14 +0.00    +0.058 A 
DOCKED: ATOM     11  C   UNL d   1      28.019  35.446  -1.352 -0.07 +0.03    +0.193 A 
DOCKED: ATOM     12  C   UNL d   1      26.708  35.777  -1.996 -0.15 +0.01    +0.109 A 
DOCKED: ATOM     13  C   UNL d   1      22.686  34.126  -3.921 -0.27 -0.05    +0.193 A 
DOCKED: ATOM     14  C   UNL d   1      30.122  36.375  -2.241 -0.02 +0.00    +0.026 C 
DOCKED: ATOM     15  C   UNL d   1      25.652  34.744  -1.993 -0.24 -0.00    +0.055 C 
DOCKED: ATOM     16  C   UNL d   1      22.689  33.665  -1.498 -0.42 -0.01    +0.026 C 
DOCKED: ATOM     17  C   UNL d   1      23.299  35.391  -4.427 -0.23 -0.02    +0.109 A 
DOCKED: ATOM     18  C   UNL d   1      28.171  38.895  -2.309 -0.15 +0.00    +0.050 C 
DOCKED: ATOM     19  C   UNL d   1      27.287  39.841  -2.889 -0.16 +0.00    +0.045 A 
DOCKED: ATOM     20  C   UNL d   1      23.091  37.330  -5.891 -0.16 +0.00    +0.045 A 
DOCKED: ATOM     21  C   UNL d   1      22.710  36.086  -5.581 -0.23 -0.00    +0.057 C 
DOCKED: ATOM     22  C   UNL d   1      23.232  39.316  -7.011 -0.16 -0.00    -0.019 A 
DOCKED: ATOM     23  C   UNL d   1      24.127  39.367  -5.838 -0.08 +0.01    +0.045 A 
DOCKED: ATOM     24  C   UNL d   1      22.620  38.108  -7.036 -0.17 -0.00    -0.022 A 
DOCKED: ATOM     25  C   UNL d   1      25.721  40.546  -4.361 -0.20 +0.01    +0.049 A 
DOCKED: ATOM     26  C   UNL d   1      27.131  41.204  -2.692 -0.14 -0.00    -0.018 A 
DOCKED: ATOM     27  C   UNL d   1      26.127  41.640  -3.610 -0.20 +0.00    +0.003 A 
DOCKED: ATOM     28  C   UNL d   1      24.874  40.428  -5.496 -0.15 +0.01    +0.052 C 
DOCKED: ATOM     29  C   UNL d   1      21.624  37.587  -8.015 -0.18 +0.01    +0.046 C 
DOCKED: ATOM     30  C   UNL d   1      27.866  42.052  -1.710 -0.15 +0.01    +0.046 C 
DOCKED: ATOM     31  H   UNL d   1      24.393  37.869  -4.354 +0.03 +0.00    +0.166 HD
DOCKED: ATOM     32  H   UNL d   1      26.339  38.509  -4.227 +0.03 +0.01    +0.166 HD
DOCKED: ENDROOT
DOCKED: BRANCH   7  33
DOCKED: ATOM     33  C   UNL d   1      29.270  37.099   0.031 -0.07 +0.02    +0.141 C 
DOCKED: BRANCH  33  34
DOCKED: ATOM     34  C   UNL d   1      28.390  36.477   1.082 -0.08 +0.04    +0.306 C 
DOCKED: ATOM     35  O   UNL d   1      27.325  36.916   1.482 -0.17 -0.01    -0.251 OA
DOCKED: BRANCH  34  36
DOCKED: ATOM     36  O   UNL d   1      28.898  35.332   1.573 -0.01 -0.18    -0.481 OA
DOCKED: ATOM     37  H   UNL d   1      29.100  34.792   0.779 +0.06 +0.15    +0.295 HD
DOCKED: ENDBRANCH  34  36
DOCKED: ENDBRANCH  33  34
DOCKED: ENDBRANCH   7  33
DOCKED: BRANCH  27  38
DOCKED: ATOM     38  C   UNL d   1      25.667  42.989  -3.751 -0.23 +0.00    +0.017 C 
DOCKED: ATOM     39  C   UNL d   1      24.456  43.436  -3.386 -0.33 +0.01    +0.092 C 
DOCKED: BRANCH  39  40
DOCKED: ATOM     40  C   UNL d   1      24.114  44.850  -3.568 -0.15 +0.03    +0.330 C 
DOCKED: ATOM     41  O   UNL d   1      23.518  45.576  -2.796 -0.17 -0.03    -0.246 OA
DOCKED: BRANCH  40  42
DOCKED: ATOM     42  O   UNL d   1      24.568  45.285  -4.754 -0.01 -0.03    -0.477 OA
DOCKED: ATOM     43  H   UNL d   1      23.754  45.423  -5.280 +0.06 +0.02    +0.295 HD
DOCKED: ENDBRANCH  40  42
DOCKED: ENDBRANCH  39  40
DOCKED: ENDBRANCH  27  38
DOCKED: BRANCH   8  44
DOCKED: ATOM     44  C   UNL d   1      24.054  32.219  -3.058 -0.17 -0.07    +0.141 C 
DOCKED: BRANCH  44  45
DOCKED: ATOM     45  C   UNL d   1      24.812  32.113  -4.355 -0.09 -0.15    +0.306 C 
DOCKED: ATOM     46  O   UNL d   1      26.022  32.060  -4.488 -0.03 +0.06    -0.251 OA
DOCKED: BRANCH  45  47
DOCKED: ATOM     47  O   UNL d   1      23.999  32.108  -5.427 -0.07 +0.37    -0.481 OA
DOCKED: ATOM     48  H   UNL d   1      23.094  32.160  -5.052 +0.14 -0.29    +0.295 HD
DOCKED: ENDBRANCH  45  47
DOCKED: ENDBRANCH  44  45
DOCKED: ENDBRANCH   8  44
DOCKED: BRANCH  22  49
DOCKED: ATOM     49  C   UNL d   1      23.070  40.436  -7.997 -0.13 +0.01    +0.048 C 
DOCKED: BRANCH  49  50
DOCKED: ATOM     50  C   UNL d   1      22.393  41.653  -7.368 -0.18 +0.03    +0.125 C 
DOCKED: BRANCH  50  51
DOCKED: ATOM     51  C   UNL d   1      23.343  42.815  -7.290 -0.05 +0.04    +0.305 C 
DOCKED: ATOM     52  O   UNL d   1      24.231  43.102  -8.074 -0.02 -0.02    -0.251 OA
DOCKED: BRANCH  51  53
DOCKED: ATOM     53  O   UNL d   1      23.128  43.569  -6.194 -0.03 -0.06    -0.481 OA
DOCKED: ATOM     54  H   UNL d   1      24.027  43.843  -5.914 +0.07 +0.03    +0.295 HD
DOCKED: ENDBRANCH  51  53
DOCKED: ENDBRANCH  50  51
DOCKED: ENDBRANCH  49  50
DOCKED: ENDBRANCH  22  49
DOCKED: TORSDOF 13
DOCKED: TER
DOCKED: ENDMDL
________________________________________________________________________________


	BEGINNING GENETIC ALGORITHM DOCKING 4 of 100
Run: 4 Seed: 599481631 1988398810 [ Run 4 of 100 GA/GALS ]
Beginning LAMARCKIAN GENETIC ALGORITHM (LGA), with a maximum of 25000000 energy evaluations.

Final-Value: -13.227


	FINAL GENETIC ALGORITHM DOCKED STATE
	_______________________________________________


Detailed state:  trans 11.761 39.030 25.407 quatxyzw 0.749519 -0.484924 0.379692 -0.242700 center 0.153 0.018 -0.028 ntor 13 89.8532 -180.0000 86.1996 62.3806 -133.6311 -59.5817 -59.1168 45.4206 42.9376 -72.3581 -90.7660 21.8628 -2.0617
State:	 11.761  39.030  25.407   0.773 -0.500  0.391 -151.908     89.85 -180.00   86.20   62.38 -133.63  -59.58  -59.12   45.42   42.94  -72.36  -90.77   21.86   -2.06

DOCKED: MODEL        4
DOCKED: USER    Run = 4
DOCKED: USER    DPF = D:/Protein_go_brrr/autodock/final/6BB5/heme/dock.dpf
DOCKED: USER  
DOCKED: USER    Estimated Free Energy of Binding    =   -4.87 kcal/mol  [=(1)+(2)+(3)-(4)]
DOCKED: USER    Estimated Inhibition Constant, Ki   =  267.65 uM (micromolar)  [Temperature = 298.15 K]
DOCKED: USER    
DOCKED: USER    (1) Final Intermolecular Energy     =   -8.75 kcal/mol
DOCKED: USER        vdW + Hbond + desolv Energy     =   -8.77 kcal/mol
DOCKED: USER        Electrostatic Energy            =   +0.01 kcal/mol
DOCKED: USER    (2) Final Total Internal Energy     =   -4.48 kcal/mol
DOCKED: USER    (3) Torsional Free Energy           =   +3.88 kcal/mol
DOCKED: USER    (4) Unbound System's Energy  [=(2)] =   -4.48 kcal/mol
DOCKED: USER    
DOCKED: USER    
DOCKED: USER    NEWDPF move heme_opt.pdbqt
DOCKED: USER    NEWDPF about 0.153000 0.018000 -0.028000
DOCKED: USER    NEWDPF tran0 11.761294 39.030470 25.406587
DOCKED: USER    NEWDPF quaternion0 0.749519 -0.484924 0.379692 -0.242700
DOCKED: USER    NEWDPF axisangle0 0.772620 -0.499870 0.391394 -151.908091
DOCKED: USER    NEWDPF quat0 0.772620 -0.499870 0.391394 -151.908091
DOCKED: USER    NEWDPF dihe0 89.85 -180.00 86.20 62.38 -133.63 -59.58 -59.12 45.42 42.94 -72.36 -90.77 21.86 -2.06 
DOCKED: USER  keepresnum = 1 
DOCKED: USER  
DOCKED: REMARK  13 active torsions:
DOCKED: REMARK  status: ('A' for Active; 'I' for Inactive)
DOCKED: REMARK    1  A    between atoms: O_3  and  C_38 
DOCKED: REMARK    2  A    between atoms: O_4  and  C_40 
DOCKED: REMARK    3  A    between atoms: O_7  and  C_46 
DOCKED: REMARK    4  A    between atoms: O_9  and  C_48 
DOCKED: REMARK    5  A    between atoms: C_15  and  C_20 
DOCKED: REMARK    6  A    between atoms: C_16  and  C_23 
DOCKED: REMARK    7  A    between atoms: C_20  and  C_38 
DOCKED: REMARK    8  A    between atoms: C_23  and  C_40 
DOCKED: REMARK    9  A    between atoms: C_32  and  C_41 
DOCKED: REMARK   10  A    between atoms: C_37  and  C_45 
DOCKED: REMARK   11  A    between atoms: C_41  and  C_44 
DOCKED: REMARK   12  A    between atoms: C_44  and  C_46 
DOCKED: REMARK   13  A    between atoms: C_47  and  C_48 
DOCKED: USER                              x       y       z     vdW  Elec       q    Type
DOCKED: USER                           _______ _______ _______ _____ _____    ______ ____
DOCKED: ROOT
DOCKED: ATOM      1  O   UNL d   1       9.084  40.905  20.500 -0.01 +0.01    -0.289 OA
DOCKED: ATOM      2  O   UNL d   1      15.009  43.624  24.228 -0.10 +0.04    -0.289 OA
DOCKED: ATOM      3  N   UNL d   1      10.229  39.529  23.448 -0.15 +0.05    -0.247 NA
DOCKED: ATOM      4  N   UNL d   1      12.723  41.050  23.989 +0.05 +0.08    -0.247 NA
DOCKED: ATOM      5  N   UNL d   1      13.397  39.065  25.957 -0.02 +0.14    -0.354 N 
DOCKED: ATOM      6  N   UNL d   1      10.816  37.483  25.376 -0.15 +0.11    -0.354 N 
DOCKED: ATOM      7  C   UNL d   1       8.517  38.917  21.804 -0.28 -0.01    +0.084 A 
DOCKED: ATOM      8  C   UNL d   1      12.882  43.304  23.059 -0.12 -0.01    +0.084 A 
DOCKED: ATOM      9  C   UNL d   1      12.116  41.982  23.178 -0.20 -0.01    +0.058 A 
DOCKED: ATOM     10  C   UNL d   1       9.259  38.601  23.106 -0.27 -0.01    +0.058 A 
DOCKED: ATOM     11  C   UNL d   1       9.226  40.197  21.480 -0.12 -0.01    +0.193 A 
DOCKED: ATOM     12  C   UNL d   1      10.221  40.473  22.565 -0.18 -0.01    +0.109 A 
DOCKED: ATOM     13  C   UNL d   1      14.055  42.935  23.922 -0.11 -0.03    +0.193 A 
DOCKED: ATOM     14  C   UNL d   1       8.820  37.893  20.707 -0.57 -0.00    +0.026 C 
DOCKED: ATOM     15  C   UNL d   1      10.979  41.740  22.508 -0.20 -0.01    +0.055 C 
DOCKED: ATOM     16  C   UNL d   1      12.127  44.460  23.722 -0.05 -0.00    +0.026 C 
DOCKED: ATOM     17  C   UNL d   1      13.841  41.542  24.418 -0.18 -0.03    +0.109 A 
DOCKED: ATOM     18  C   UNL d   1       8.913  37.552  23.875 -0.32 -0.01    +0.050 C 
DOCKED: ATOM     19  C   UNL d   1       9.485  37.231  25.133 -0.23 -0.01    +0.045 A 
DOCKED: ATOM     20  C   UNL d   1      14.579  39.757  25.906 -0.23 -0.01    +0.045 A 
DOCKED: ATOM     21  C   UNL d   1      14.858  40.893  25.259 -0.28 -0.01    +0.057 C 
DOCKED: ATOM     22  C   UNL d   1      14.862  37.907  27.216 -0.22 +0.01    -0.019 A 
DOCKED: ATOM     23  C   UNL d   1      13.470  37.933  26.724 -0.28 -0.02    +0.045 A 
DOCKED: ATOM     24  C   UNL d   1      15.513  38.990  26.730 -0.28 +0.00    -0.022 A 
DOCKED: ATOM     25  C   UNL d   1      11.178  37.012  26.617 -0.26 -0.02    +0.049 A 
DOCKED: ATOM     26  C   UNL d   1       8.960  36.615  26.259 -0.23 +0.00    -0.018 A 
DOCKED: ATOM     27  C   UNL d   1      10.029  36.498  27.200 -0.22 -0.00    +0.003 A 
DOCKED: ATOM     28  C   UNL d   1      12.539  37.017  27.029 -0.33 -0.03    +0.052 C 
DOCKED: ATOM     29  C   UNL d   1      16.927  39.408  26.954 -0.29 -0.00    +0.046 C 
DOCKED: ATOM     30  C   UNL d   1       7.551  36.165  26.452 -0.22 +0.00    +0.046 C 
DOCKED: ATOM     31  H   UNL d   1      12.555  39.429  25.524 -0.25 -0.08    +0.166 HD
DOCKED: ATOM     32  H   UNL d   1      11.436  37.918  24.703 -0.24 -0.08    +0.166 HD
DOCKED: ENDROOT
DOCKED: BRANCH   7  33
DOCKED: ATOM     33  C   UNL d   1       7.011  39.158  21.948 -0.24 -0.01    +0.141 C 
DOCKED: BRANCH  33  34
DOCKED: ATOM     34  C   UNL d   1       6.675  40.605  22.183 -0.08 +0.00    +0.306 C 
DOCKED: ATOM     35  O   UNL d   1       6.760  41.202  23.244 -0.03 +0.01    -0.251 OA
DOCKED: BRANCH  34  36
DOCKED: ATOM     36  O   UNL d   1       6.254  41.227  21.068 -0.43 -0.08    -0.481 OA
DOCKED: ATOM     37  H   UNL d   1       7.066  41.620  20.682 +0.09 +0.02    +0.295 HD
DOCKED: ENDBRANCH  34  36
DOCKED: ENDBRANCH  33  34
DOCKED: ENDBRANCH   7  33
DOCKED: BRANCH  27  38
DOCKED: ATOM     38  C   UNL d   1       9.924  35.902  28.498 -0.19 -0.00    +0.017 C 
DOCKED: ATOM     39  C   UNL d   1      10.193  36.521  29.658 -0.06 -0.01    +0.092 C 
DOCKED: BRANCH  39  40
DOCKED: ATOM     40  C   UNL d   1      10.028  35.802  30.924 -0.01 +0.01    +0.330 C 
DOCKED: ATOM     41  O   UNL d   1       9.006  35.329  31.383 -0.02 -0.03    -0.246 OA
DOCKED: BRANCH  40  42
DOCKED: ATOM     42  O   UNL d   1      11.207  35.710  31.559 +0.01 +0.01    -0.477 OA
DOCKED: ATOM     43  H   UNL d   1      11.833  36.165  30.959 +0.04 -0.03    +0.295 HD
DOCKED: ENDBRANCH  40  42
DOCKED: ENDBRANCH  39  40
DOCKED: ENDBRANCH  27  38
DOCKED: BRANCH   8  44
DOCKED: ATOM     44  C   UNL d   1      13.338  43.678  21.645 -0.20 -0.03    +0.141 C 
DOCKED: BRANCH  44  45
DOCKED: ATOM     45  C   UNL d   1      14.827  43.868  21.531 -0.23 -0.07    +0.306 C 
DOCKED: ATOM     46  O   UNL d   1      15.421  44.931  21.469 -0.21 +0.05    -0.251 OA
DOCKED: BRANCH  45  47
DOCKED: ATOM     47  O   UNL d   1      15.492  42.701  21.472 -0.23 +0.17    -0.481 OA
DOCKED: ATOM     48  H   UNL d   1      15.754  42.518  22.400 +0.03 -0.10    +0.295 HD
DOCKED: ENDBRANCH  45  47
DOCKED: ENDBRANCH  44  45
DOCKED: ENDBRANCH   8  44
DOCKED: BRANCH  22  49
DOCKED: ATOM     49  C   UNL d   1      15.425  36.829  28.095 -0.20 -0.01    +0.048 C 
DOCKED: BRANCH  49  50
DOCKED: ATOM     50  C   UNL d   1      15.150  37.099  29.574 -0.14 -0.02    +0.125 C 
DOCKED: BRANCH  50  51
DOCKED: ATOM     51  C   UNL d   1      13.846  36.484  29.998 -0.05 -0.06    +0.305 C 
DOCKED: ATOM     52  O   UNL d   1      13.389  35.406  29.661 -0.14 +0.10    -0.251 OA
DOCKED: BRANCH  51  53
DOCKED: ATOM     53  O   UNL d   1      13.160  37.285  30.837 +0.02 +0.05    -0.481 OA
DOCKED: ATOM     54  H   UNL d   1      13.095  36.763  31.664 +0.03 -0.02    +0.295 HD
DOCKED: ENDBRANCH  51  53
DOCKED: ENDBRANCH  50  51
DOCKED: ENDBRANCH  49  50
DOCKED: ENDBRANCH  22  49
DOCKED: TORSDOF 13
DOCKED: TER
DOCKED: ENDMDL
________________________________________________________________________________


	BEGINNING GENETIC ALGORITHM DOCKING 5 of 100
Run: 5 Seed: 1532192838 295326733 [ Run 5 of 100 GA/GALS ]
Beginning LAMARCKIAN GENETIC ALGORITHM (LGA), with a maximum of 25000000 energy evaluations.

Final-Value: -10.563


	FINAL GENETIC ALGORITHM DOCKED STATE
	_______________________________________________


Detailed state:  trans 21.866 48.392 -2.234 quatxyzw 0.044641 0.485108 -0.615818 0.619229 center 0.153 0.018 -0.028 ntor 13 -176.6188 163.1131 -159.7558 -48.9095 49.5540 -66.0607 132.3986 -175.1473 152.9900 -17.1859 -92.8979 20.7346 -29.1717
State:	 21.866  48.392  -2.234   0.057  0.618 -0.784 103.480   -176.62  163.11 -159.76  -48.91   49.55  -66.06  132.40 -175.15  152.99  -17.19  -92.90   20.73  -29.17

DOCKED: MODEL        5
DOCKED: USER    Run = 5
DOCKED: USER    DPF = D:/Protein_go_brrr/autodock/final/6BB5/heme/dock.dpf
DOCKED: USER  
DOCKED: USER    Estimated Free Energy of Binding    =   -3.10 kcal/mol  [=(1)+(2)+(3)-(4)]
DOCKED: USER    Estimated Inhibition Constant, Ki   =    5.36 mM (millimolar)  [Temperature = 298.15 K]
DOCKED: USER    
DOCKED: USER    (1) Final Intermolecular Energy     =   -6.98 kcal/mol
DOCKED: USER        vdW + Hbond + desolv Energy     =   -6.77 kcal/mol
DOCKED: USER        Electrostatic Energy            =   -0.20 kcal/mol
DOCKED: USER    (2) Final Total Internal Energy     =   -3.59 kcal/mol
DOCKED: USER    (3) Torsional Free Energy           =   +3.88 kcal/mol
DOCKED: USER    (4) Unbound System's Energy  [=(2)] =   -3.59 kcal/mol
DOCKED: USER    
DOCKED: USER    
DOCKED: USER    NEWDPF move heme_opt.pdbqt
DOCKED: USER    NEWDPF about 0.153000 0.018000 -0.028000
DOCKED: USER    NEWDPF tran0 21.866205 48.391657 -2.234095
DOCKED: USER    NEWDPF quaternion0 0.044641 0.485108 -0.615818 0.619229
DOCKED: USER    NEWDPF axisangle0 0.056852 0.617807 -0.784272 103.480221
DOCKED: USER    NEWDPF quat0 0.056852 0.617807 -0.784272 103.480221
DOCKED: USER    NEWDPF dihe0 -176.62 163.11 -159.76 -48.91 49.55 -66.06 132.40 -175.15 152.99 -17.19 -92.90 20.73 -29.17 
DOCKED: USER  keepresnum = 1 
DOCKED: USER  
DOCKED: REMARK  13 active torsions:
DOCKED: REMARK  status: ('A' for Active; 'I' for Inactive)
DOCKED: REMARK    1  A    between atoms: O_3  and  C_38 
DOCKED: REMARK    2  A    between atoms: O_4  and  C_40 
DOCKED: REMARK    3  A    between atoms: O_7  and  C_46 
DOCKED: REMARK    4  A    between atoms: O_9  and  C_48 
DOCKED: REMARK    5  A    between atoms: C_15  and  C_20 
DOCKED: REMARK    6  A    between atoms: C_16  and  C_23 
DOCKED: REMARK    7  A    between atoms: C_20  and  C_38 
DOCKED: REMARK    8  A    between atoms: C_23  and  C_40 
DOCKED: REMARK    9  A    between atoms: C_32  and  C_41 
DOCKED: REMARK   10  A    between atoms: C_37  and  C_45 
DOCKED: REMARK   11  A    between atoms: C_41  and  C_44 
DOCKED: REMARK   12  A    between atoms: C_44  and  C_46 
DOCKED: REMARK   13  A    between atoms: C_47  and  C_48 
DOCKED: USER                              x       y       z     vdW  Elec       q    Type
DOCKED: USER                           _______ _______ _______ _____ _____    ______ ____
DOCKED: ROOT
DOCKED: ATOM      1  O   UNL d   1      21.512  43.919  -6.059 -0.16 -0.03    -0.289 OA
DOCKED: ATOM      2  O   UNL d   1      26.996  45.955  -1.351 -0.04 -0.05    -0.289 OA
DOCKED: ATOM      3  N   UNL d   1      21.323  46.735  -4.076 -0.12 +0.02    -0.247 NA
DOCKED: ATOM      4  N   UNL d   1      23.756  46.543  -2.382 -0.10 -0.02    -0.247 NA
DOCKED: ATOM      5  N   UNL d   1      22.635  48.589  -0.701 -0.05 -0.00    -0.354 N 
DOCKED: ATOM      6  N   UNL d   1      20.105  48.768  -2.453 -0.08 +0.09    -0.354 N 
DOCKED: ATOM      7  C   UNL d   1      19.776  45.573  -5.582 -0.25 -0.00    +0.084 A 
DOCKED: ATOM      8  C   UNL d   1      25.653  45.298  -3.289 -0.09 +0.01    +0.084 A 
DOCKED: ATOM      9  C   UNL d   1      24.196  45.751  -3.420 -0.15 +0.00    +0.058 A 
DOCKED: ATOM     10  C   UNL d   1      20.046  46.728  -4.613 -0.21 -0.01    +0.058 A 
DOCKED: ATOM     11  C   UNL d   1      21.133  44.939  -5.512 -0.17 +0.00    +0.193 A 
DOCKED: ATOM     12  C   UNL d   1      21.987  45.750  -4.587 -0.18 -0.00    +0.109 A 
DOCKED: ATOM     13  C   UNL d   1      25.948  45.948  -1.966 -0.07 +0.03    +0.193 A 
DOCKED: ATOM     14  C   UNL d   1      18.741  44.590  -5.030 -0.32 -0.00    +0.026 C 
DOCKED: ATOM     15  C   UNL d   1      23.404  45.366  -4.433 -0.19 +0.00    +0.055 C 
DOCKED: ATOM     16  C   UNL d   1      26.545  45.934  -4.360 -0.03 +0.00    +0.026 C 
DOCKED: ATOM     17  C   UNL d   1      24.715  46.664  -1.521 +0.00 +0.02    +0.109 A 
DOCKED: ATOM     18  C   UNL d   1      19.130  47.690  -4.393 -0.21 -0.01    +0.050 C 
DOCKED: ATOM     19  C   UNL d   1      19.320  48.837  -3.582 -0.11 -0.01    +0.045 A 
DOCKED: ATOM     20  C   UNL d   1      23.699  48.204   0.073 -0.11 +0.00    +0.045 A 
DOCKED: ATOM     21  C   UNL d   1      24.693  47.363  -0.228 -0.10 +0.01    +0.057 C 
DOCKED: ATOM     22  C   UNL d   1      22.414  49.672   1.261 -0.13 +0.00    -0.019 A 
DOCKED: ATOM     23  C   UNL d   1      21.803  49.474  -0.069 -0.15 -0.00    +0.045 A 
DOCKED: ATOM     24  C   UNL d   1      23.536  48.919   1.338 -0.11 -0.00    -0.022 A 
DOCKED: ATOM     25  C   UNL d   1      20.078  49.962  -1.771 -0.19 -0.01    +0.049 A 
DOCKED: ATOM     26  C   UNL d   1      18.800  50.120  -3.655 -0.12 +0.00    -0.018 A 
DOCKED: ATOM     27  C   UNL d   1      19.298  50.832  -2.520 -0.19 -0.00    +0.003 A 
DOCKED: ATOM     28  C   UNL d   1      20.687  50.086  -0.493 -0.26 -0.01    +0.052 C 
DOCKED: ATOM     29  C   UNL d   1      24.498  48.791   2.470 -0.12 +0.01    +0.046 C 
DOCKED: ATOM     30  C   UNL d   1      17.897  50.655  -4.715 -0.08 -0.01    +0.046 C 
DOCKED: ATOM     31  H   UNL d   1      22.553  48.290  -1.667 +0.04 -0.00    +0.166 HD
DOCKED: ATOM     32  H   UNL d   1      20.593  47.929  -2.161 -0.00 -0.04    +0.166 HD
DOCKED: ENDROOT
DOCKED: BRANCH   7  33
DOCKED: ATOM     33  C   UNL d   1      19.449  45.986  -7.021 -0.12 +0.00    +0.141 C 
DOCKED: BRANCH  33  34
DOCKED: ATOM     34  C   UNL d   1      18.727  44.907  -7.783 -0.13 +0.03    +0.306 C 
DOCKED: ATOM     35  O   UNL d   1      17.536  44.883  -8.044 -0.21 -0.01    -0.251 OA
DOCKED: BRANCH  34  36
DOCKED: ATOM     36  O   UNL d   1      19.546  43.916  -8.178 -0.07 -0.10    -0.481 OA
DOCKED: ATOM     37  H   UNL d   1      20.428  44.172  -7.834 +0.09 +0.04    +0.295 HD
DOCKED: ENDBRANCH  34  36
DOCKED: ENDBRANCH  33  34
DOCKED: ENDBRANCH   7  33
DOCKED: BRANCH  27  38
DOCKED: ATOM     38  C   UNL d   1      18.992  52.194  -2.201 -0.16 -0.00    +0.017 C 
DOCKED: ATOM     39  C   UNL d   1      19.895  53.173  -2.042 -0.13 -0.01    +0.092 C 
DOCKED: BRANCH  39  40
DOCKED: ATOM     40  C   UNL d   1      19.449  54.534  -1.732 -0.00 -0.03    +0.330 C 
DOCKED: ATOM     41  O   UNL d   1      18.835  55.298  -2.453 -0.08 +0.02    -0.246 OA
DOCKED: BRANCH  40  42
DOCKED: ATOM     42  O   UNL d   1      19.806  54.864  -0.481 +0.02 +0.09    -0.477 OA
DOCKED: ATOM     43  H   UNL d   1      20.012  54.003  -0.061 -0.38 -0.12    +0.295 HD
DOCKED: ENDBRANCH  40  42
DOCKED: ENDBRANCH  39  40
DOCKED: ENDBRANCH  27  38
DOCKED: BRANCH   8  44
DOCKED: ATOM     44  C   UNL d   1      25.870  43.782  -3.216 -0.16 +0.02    +0.141 C 
DOCKED: BRANCH  44  45
DOCKED: ATOM     45  C   UNL d   1      25.317  43.163  -1.960 -0.16 +0.06    +0.306 C 
DOCKED: ATOM     46  O   UNL d   1      24.184  42.747  -1.793 -0.31 -0.06    -0.251 OA
DOCKED: BRANCH  45  47
DOCKED: ATOM     47  O   UNL d   1      26.220  43.125  -0.964 -0.10 -0.10    -0.481 OA
DOCKED: ATOM     48  H   UNL d   1      26.896  43.791  -1.216 +0.09 +0.06    +0.295 HD
DOCKED: ENDBRANCH  45  47
DOCKED: ENDBRANCH  44  45
DOCKED: ENDBRANCH   8  44
DOCKED: BRANCH  22  49
DOCKED: ATOM     49  C   UNL d   1      21.841  50.559   2.327 -0.23 -0.00    +0.048 C 
DOCKED: BRANCH  49  50
DOCKED: ATOM     50  C   UNL d   1      22.729  51.773   2.595 -0.12 -0.01    +0.125 C 
DOCKED: BRANCH  50  51
DOCKED: ATOM     51  C   UNL d   1      22.377  52.909   1.676 -0.06 -0.05    +0.305 C 
DOCKED: ATOM     52  O   UNL d   1      22.875  54.020   1.644 -0.06 +0.03    -0.251 OA
DOCKED: BRANCH  51  53
DOCKED: ATOM     53  O   UNL d   1      21.381  52.582   0.829 +0.02 +0.16    -0.481 OA
DOCKED: ATOM     54  H   UNL d   1      20.749  53.327   0.907 -0.48 -0.21    +0.295 HD
DOCKED: ENDBRANCH  51  53
DOCKED: ENDBRANCH  50  51
DOCKED: ENDBRANCH  49  50
DOCKED: ENDBRANCH  22  49
DOCKED: TORSDOF 13
DOCKED: TER
DOCKED: ENDMDL
________________________________________________________________________________


	BEGINNING GENETIC ALGORITHM DOCKING 6 of 100
Run: 6 Seed: 1884290384 1700111192 [ Run 6 of 100 GA/GALS ]
Beginning LAMARCKIAN GENETIC ALGORITHM (LGA), with a maximum of 25000000 energy evaluations.

Final-Value: -10.244


	FINAL GENETIC ALGORITHM DOCKED STATE
	_______________________________________________


Detailed state:  trans 24.533 38.488 -4.648 quatxyzw 0.380362 0.875971 0.057505 -0.291020 center 0.153 0.018 -0.028 ntor 13 172.8987 147.5327 -156.0902 36.5487 -151.6545 -53.2306 131.3104 -78.4800 8.4811 -15.9091 35.3886 -34.0633 130.9014
State:	 24.533  38.488  -4.648   0.398  0.916  0.060 -146.162    172.90  147.53 -156.09   36.55 -151.65  -53.23  131.31  -78.48    8.48  -15.91   35.39  -34.06  130.90

DOCKED: MODEL        6
DOCKED: USER    Run = 6
DOCKED: USER    DPF = D:/Protein_go_brrr/autodock/final/6BB5/heme/dock.dpf
DOCKED: USER  
DOCKED: USER    Estimated Free Energy of Binding    =   -2.48 kcal/mol  [=(1)+(2)+(3)-(4)]
DOCKED: USER    Estimated Inhibition Constant, Ki   =   15.19 mM (millimolar)  [Temperature = 298.15 K]
DOCKED: USER    
DOCKED: USER    (1) Final Intermolecular Energy     =   -6.36 kcal/mol
DOCKED: USER        vdW + Hbond + desolv Energy     =   -6.43 kcal/mol
DOCKED: USER        Electrostatic Energy            =   +0.07 kcal/mol
DOCKED: USER    (2) Final Total Internal Energy     =   -3.88 kcal/mol
DOCKED: USER    (3) Torsional Free Energy           =   +3.88 kcal/mol
DOCKED: USER    (4) Unbound System's Energy  [=(2)] =   -3.88 kcal/mol
DOCKED: USER    
DOCKED: USER    
DOCKED: USER    NEWDPF move heme_opt.pdbqt
DOCKED: USER    NEWDPF about 0.153000 0.018000 -0.028000
DOCKED: USER    NEWDPF tran0 24.533020 38.488067 -4.648283
DOCKED: USER    NEWDPF quaternion0 0.380362 0.875971 0.057505 -0.291020
DOCKED: USER    NEWDPF axisangle0 0.397570 0.915601 0.060106 -146.161880
DOCKED: USER    NEWDPF quat0 0.397570 0.915601 0.060106 -146.161880
DOCKED: USER    NEWDPF dihe0 172.90 147.53 -156.09 36.55 -151.65 -53.23 131.31 -78.48 8.48 -15.91 35.39 -34.06 130.90 
DOCKED: USER  keepresnum = 1 
DOCKED: USER  
DOCKED: REMARK  13 active torsions:
DOCKED: REMARK  status: ('A' for Active; 'I' for Inactive)
DOCKED: REMARK    1  A    between atoms: O_3  and  C_38 
DOCKED: REMARK    2  A    between atoms: O_4  and  C_40 
DOCKED: REMARK    3  A    between atoms: O_7  and  C_46 
DOCKED: REMARK    4  A    between atoms: O_9  and  C_48 
DOCKED: REMARK    5  A    between atoms: C_15  and  C_20 
DOCKED: REMARK    6  A    between atoms: C_16  and  C_23 
DOCKED: REMARK    7  A    between atoms: C_20  and  C_38 
DOCKED: REMARK    8  A    between atoms: C_23  and  C_40 
DOCKED: REMARK    9  A    between atoms: C_32  and  C_41 
DOCKED: REMARK   10  A    between atoms: C_37  and  C_45 
DOCKED: REMARK   11  A    between atoms: C_41  and  C_44 
DOCKED: REMARK   12  A    between atoms: C_44  and  C_46 
DOCKED: REMARK   13  A    between atoms: C_47  and  C_48 
DOCKED: USER                              x       y       z     vdW  Elec       q    Type
DOCKED: USER                           _______ _______ _______ _____ _____    ______ ____
DOCKED: ROOT
DOCKED: ATOM      1  O   UNL d   1      28.998  35.672  -2.023 -0.02 -0.04    -0.289 OA
DOCKED: ATOM      2  O   UNL d   1      22.030  33.407  -3.670 -0.44 +0.11    -0.289 OA
DOCKED: ATOM      3  N   UNL d   1      26.651  37.747  -3.465 -0.16 -0.01    -0.247 NA
DOCKED: ATOM      4  N   UNL d   1      24.366  35.925  -4.003 -0.17 +0.02    -0.247 NA
DOCKED: ATOM      5  N   UNL d   1      23.243  37.977  -5.675 -0.10 -0.03    -0.354 N 
DOCKED: ATOM      6  N   UNL d   1      25.627  39.853  -5.128 -0.10 -0.03    -0.354 N 
DOCKED: ATOM      7  C   UNL d   1      29.034  37.943  -2.928 -0.05 +0.01    +0.084 A 
DOCKED: ATOM      8  C   UNL d   1      24.157  33.946  -2.585 -0.29 -0.02    +0.084 A 
DOCKED: ATOM      9  C   UNL d   1      24.958  35.183  -3.006 -0.22 -0.01    +0.058 A 
DOCKED: ATOM     10  C   UNL d   1      27.765  38.568  -3.515 -0.12 +0.00    +0.058 A 
DOCKED: ATOM     11  C   UNL d   1      28.435  36.630  -2.521 -0.05 +0.01    +0.193 A 
DOCKED: ATOM     12  C   UNL d   1      26.981  36.645  -2.876 -0.16 +0.00    +0.109 A 
DOCKED: ATOM     13  C   UNL d   1      23.019  34.104  -3.554 -0.28 -0.05    +0.193 A 
DOCKED: ATOM     14  C   UNL d   1      30.099  37.690  -3.998 -0.02 +0.00    +0.026 C 
DOCKED: ATOM     15  C   UNL d   1      26.157  35.484  -2.483 -0.22 +0.00    +0.055 C 
DOCKED: ATOM     16  C   UNL d   1      23.613  34.080  -1.160 -0.45 -0.01    +0.026 C 
DOCKED: ATOM     17  C   UNL d   1      23.270  35.337  -4.360 -0.23 -0.02    +0.109 A 
DOCKED: ATOM     18  C   UNL d   1      27.746  39.841  -3.951 -0.12 +0.00    +0.050 C 
DOCKED: ATOM     19  C   UNL d   1      26.602  40.529  -4.431 -0.16 +0.00    +0.045 A 
DOCKED: ATOM     20  C   UNL d   1      22.407  36.936  -5.985 -0.16 +0.00    +0.045 A 
DOCKED: ATOM     21  C   UNL d   1      22.335  35.724  -5.427 -0.25 -0.00    +0.057 C 
DOCKED: ATOM     22  C   UNL d   1      21.943  38.694  -7.369 -0.22 -0.00    -0.019 A 
DOCKED: ATOM     23  C   UNL d   1      23.038  39.082  -6.458 -0.13 +0.01    +0.045 A 
DOCKED: ATOM     24  C   UNL d   1      21.572  37.423  -7.083 -0.21 -0.00    -0.022 A 
DOCKED: ATOM     25  C   UNL d   1      24.661  40.725  -5.575 -0.12 +0.01    +0.049 A 
DOCKED: ATOM     26  C   UNL d   1      26.243  41.868  -4.391 -0.16 -0.00    -0.018 A 
DOCKED: ATOM     27  C   UNL d   1      25.006  41.982  -5.098 -0.18 +0.00    +0.003 A 
DOCKED: ATOM     28  C   UNL d   1      23.632  40.285  -6.451 -0.10 +0.01    +0.052 C 
DOCKED: ATOM     29  C   UNL d   1      20.506  36.597  -7.719 -0.25 +0.02    +0.046 C 
DOCKED: ATOM     30  C   UNL d   1      26.998  42.974  -3.736 -0.11 +0.00    +0.046 C 
DOCKED: ATOM     31  H   UNL d   1      23.879  37.924  -4.887 +0.04 +0.01    +0.166 HD
DOCKED: ATOM     32  H   UNL d   1      25.657  38.857  -5.311 +0.03 +0.01    +0.166 HD
DOCKED: ENDROOT
DOCKED: BRANCH   7  33
DOCKED: ATOM     33  C   UNL d   1      29.621  38.667  -1.711 -0.05 +0.01    +0.141 C 
DOCKED: BRANCH  33  34
DOCKED: ATOM     34  C   UNL d   1      28.629  38.811  -0.589 -0.09 +0.02    +0.306 C 
DOCKED: ATOM     35  O   UNL d   1      27.950  39.795  -0.350 -0.12 -0.02    -0.251 OA
DOCKED: BRANCH  34  36
DOCKED: ATOM     36  O   UNL d   1      28.542  37.705   0.172 -0.04 -0.04    -0.481 OA
DOCKED: ATOM     37  H   UNL d   1      29.055  37.028  -0.319 +0.05 +0.03    +0.295 HD
DOCKED: ENDBRANCH  34  36
DOCKED: ENDBRANCH  33  34
DOCKED: ENDBRANCH   7  33
DOCKED: BRANCH  27  38
DOCKED: ATOM     38  C   UNL d   1      24.287  43.202  -5.311 -0.19 +0.00    +0.017 C 
DOCKED: ATOM     39  C   UNL d   1      23.101  43.304  -5.931 -0.18 +0.01    +0.092 C 
DOCKED: BRANCH  39  40
DOCKED: ATOM     40  C   UNL d   1      22.460  44.614  -6.069 -0.08 +0.02    +0.330 C 
DOCKED: ATOM     41  O   UNL d   1      22.184  45.403  -5.186 -0.11 -0.01    -0.246 OA
DOCKED: BRANCH  40  42
DOCKED: ATOM     42  O   UNL d   1      22.201  44.867  -7.361 +0.01 -0.04    -0.477 OA
DOCKED: ATOM     43  H   UNL d   1      22.931  44.424  -7.839 +0.04 +0.03    +0.295 HD
DOCKED: ENDBRANCH  40  42
DOCKED: ENDBRANCH  39  40
DOCKED: ENDBRANCH  27  38
DOCKED: BRANCH   8  44
DOCKED: ATOM     44  C   UNL d   1      24.865  32.601  -2.784 -0.13 -0.04    +0.141 C 
DOCKED: BRANCH  44  45
DOCKED: ATOM     45  C   UNL d   1      25.114  32.270  -4.232 -0.07 -0.12    +0.306 C 
DOCKED: ATOM     46  O   UNL d   1      26.080  32.600  -4.897 -0.02 +0.05    -0.251 OA
DOCKED: BRANCH  45  47
DOCKED: ATOM     47  O   UNL d   1      24.112  31.557  -4.776 -0.07 +0.45    -0.481 OA
DOCKED: ATOM     48  H   UNL d   1      23.332  31.757  -4.216 +0.11 -0.34    +0.295 HD
DOCKED: ENDBRANCH  45  47
DOCKED: ENDBRANCH  44  45
DOCKED: ENDBRANCH   8  44
DOCKED: BRANCH  22  49
DOCKED: ATOM     49  C   UNL d   1      21.376  39.587  -8.433 -0.13 +0.02    +0.048 C 
DOCKED: BRANCH  49  50
DOCKED: ATOM     50  C   UNL d   1      22.474  40.248  -9.265 -0.09 +0.04    +0.125 C 
DOCKED: BRANCH  50  51
DOCKED: ATOM     51  C   UNL d   1      22.087  41.649  -9.647 -0.06 +0.08    +0.305 C 
DOCKED: ATOM     52  O   UNL d   1      21.410  42.001 -10.596 -0.08 -0.08    -0.251 OA
DOCKED: BRANCH  51  53
DOCKED: ATOM     53  O   UNL d   1      22.598  42.562  -8.797 -0.00 -0.08    -0.481 OA
DOCKED: ATOM     54  H   UNL d   1      21.899  43.246  -8.733 +0.06 +0.05    +0.295 HD
DOCKED: ENDBRANCH  51  53
DOCKED: ENDBRANCH  50  51
DOCKED: ENDBRANCH  49  50
DOCKED: ENDBRANCH  22  49
DOCKED: TORSDOF 13
DOCKED: TER
DOCKED: ENDMDL
________________________________________________________________________________


	BEGINNING GENETIC ALGORITHM DOCKING 7 of 100
Run: 7 Seed: 2125975607 1869496924 [ Run 7 of 100 GA/GALS ]
Beginning LAMARCKIAN GENETIC ALGORITHM (LGA), with a maximum of 25000000 energy evaluations.

Final-Value: -9.888


	FINAL GENETIC ALGORITHM DOCKED STATE
	_______________________________________________


Detailed state:  trans 9.212 12.769 6.551 quatxyzw -0.687305 0.011097 0.557291 -0.465741 center 0.153 0.018 -0.028 ntor 13 112.8114 170.7410 -176.2408 -41.2221 179.0012 -102.2122 85.7779 -84.7278 -19.3561 106.8893 -120.4763 68.9568 -3.4900
State:	  9.212  12.769   6.551  -0.777  0.013  0.630 -124.484    112.81  170.74 -176.24  -41.22  179.00 -102.21   85.78  -84.73  -19.36  106.89 -120.48   68.96   -3.49

DOCKED: MODEL        7
DOCKED: USER    Run = 7
DOCKED: USER    DPF = D:/Protein_go_brrr/autodock/final/6BB5/heme/dock.dpf
DOCKED: USER  
DOCKED: USER    Estimated Free Energy of Binding    =   -3.04 kcal/mol  [=(1)+(2)+(3)-(4)]
DOCKED: USER    Estimated Inhibition Constant, Ki   =    5.89 mM (millimolar)  [Temperature = 298.15 K]
DOCKED: USER    
DOCKED: USER    (1) Final Intermolecular Energy     =   -6.92 kcal/mol
DOCKED: USER        vdW + Hbond + desolv Energy     =   -6.27 kcal/mol
DOCKED: USER        Electrostatic Energy            =   -0.65 kcal/mol
DOCKED: USER    (2) Final Total Internal Energy     =   -2.97 kcal/mol
DOCKED: USER    (3) Torsional Free Energy           =   +3.88 kcal/mol
DOCKED: USER    (4) Unbound System's Energy  [=(2)] =   -2.97 kcal/mol
DOCKED: USER    
DOCKED: USER    
DOCKED: USER    NEWDPF move heme_opt.pdbqt
DOCKED: USER    NEWDPF about 0.153000 0.018000 -0.028000
DOCKED: USER    NEWDPF tran0 9.212453 12.768558 6.550779
DOCKED: USER    NEWDPF quaternion0 -0.687305 0.011097 0.557291 -0.465741
DOCKED: USER    NEWDPF axisangle0 -0.776685 0.012540 0.629764 -124.483608
DOCKED: USER    NEWDPF quat0 -0.776685 0.012540 0.629764 -124.483608
DOCKED: USER    NEWDPF dihe0 112.81 170.74 -176.24 -41.22 179.00 -102.21 85.78 -84.73 -19.36 106.89 -120.48 68.96 -3.49 
DOCKED: USER  keepresnum = 1 
DOCKED: USER  
DOCKED: REMARK  13 active torsions:
DOCKED: REMARK  status: ('A' for Active; 'I' for Inactive)
DOCKED: REMARK    1  A    between atoms: O_3  and  C_38 
DOCKED: REMARK    2  A    between atoms: O_4  and  C_40 
DOCKED: REMARK    3  A    between atoms: O_7  and  C_46 
DOCKED: REMARK    4  A    between atoms: O_9  and  C_48 
DOCKED: REMARK    5  A    between atoms: C_15  and  C_20 
DOCKED: REMARK    6  A    between atoms: C_16  and  C_23 
DOCKED: REMARK    7  A    between atoms: C_20  and  C_38 
DOCKED: REMARK    8  A    between atoms: C_23  and  C_40 
DOCKED: REMARK    9  A    between atoms: C_32  and  C_41 
DOCKED: REMARK   10  A    between atoms: C_37  and  C_45 
DOCKED: REMARK   11  A    between atoms: C_41  and  C_44 
DOCKED: REMARK   12  A    between atoms: C_44  and  C_46 
DOCKED: REMARK   13  A    between atoms: C_47  and  C_48 
DOCKED: USER                              x       y       z     vdW  Elec       q    Type
DOCKED: USER                           _______ _______ _______ _____ _____    ______ ____
DOCKED: ROOT
DOCKED: ATOM      1  O   UNL d   1       5.696   9.408   9.882 -0.02 +0.03    -0.289 OA
DOCKED: ATOM      2  O   UNL d   1      11.989  13.142  11.569 -0.13 -0.30    -0.289 OA
DOCKED: ATOM      3  N   UNL d   1       7.515  11.160   7.534 -0.09 +0.04    -0.247 NA
DOCKED: ATOM      4  N   UNL d   1       9.601  12.516   9.158 -0.13 +0.03    -0.247 NA
DOCKED: ATOM      5  N   UNL d   1      10.181  14.161   6.872 -0.11 -0.00    -0.354 N 
DOCKED: ATOM      6  N   UNL d   1       8.002  12.762   5.200 -0.05 +0.04    -0.354 N 
DOCKED: ATOM      7  C   UNL d   1       5.367   9.980   7.529 -0.04 -0.00    +0.084 A 
DOCKED: ATOM      8  C   UNL d   1      10.230  11.466  11.272 -0.10 -0.01    +0.084 A 
DOCKED: ATOM      9  C   UNL d   1       9.320  11.497  10.040 -0.13 -0.01    +0.058 A 
DOCKED: ATOM     10  C   UNL d   1       6.414  10.805   6.774 -0.10 -0.01    +0.058 A 
DOCKED: ATOM     11  C   UNL d   1       6.081   9.916   8.845 -0.04 -0.02    +0.193 A 
DOCKED: ATOM     12  C   UNL d   1       7.382  10.646   8.713 -0.10 -0.02    +0.109 A 
DOCKED: ATOM     13  C   UNL d   1      11.056  12.678  10.944 -0.13 +0.04    +0.193 A 
DOCKED: ATOM     14  C   UNL d   1       4.055  10.747   7.714 -0.07 -0.00    +0.026 C 
DOCKED: ATOM     15  C   UNL d   1       8.305  10.637   9.865 -0.13 -0.01    +0.055 C 
DOCKED: ATOM     16  C   UNL d   1      11.142  10.235  11.273 -0.03 +0.00    +0.026 C 
DOCKED: ATOM     17  C   UNL d   1      10.569  13.226   9.642 -0.18 +0.01    +0.109 A 
DOCKED: ATOM     18  C   UNL d   1       6.287  11.068   5.459 -0.12 -0.00    +0.050 C 
DOCKED: ATOM     19  C   UNL d   1       7.241  11.749   4.661 -0.14 -0.00    +0.045 A 
DOCKED: ATOM     20  C   UNL d   1      10.921  14.812   7.824 -0.26 +0.01    +0.045 A 
DOCKED: ATOM     21  C   UNL d   1      11.168  14.449   9.087 -0.28 +0.02    +0.057 C 
DOCKED: ATOM     22  C   UNL d   1      10.953  16.039   5.898 -0.34 -0.00    -0.019 A 
DOCKED: ATOM     23  C   UNL d   1      10.142  14.826   5.675 -0.29 +0.01    +0.045 A 
DOCKED: ATOM     24  C   UNL d   1      11.413  16.025   7.171 -0.30 -0.00    -0.022 A 
DOCKED: ATOM     25  C   UNL d   1       8.791  13.340   4.233 -0.22 +0.00    +0.049 A 
DOCKED: ATOM     26  C   UNL d   1       7.571  11.641   3.319 -0.09 -0.00    -0.018 A 
DOCKED: ATOM     27  C   UNL d   1       8.564  12.636   3.059 -0.15 +0.00    +0.003 A 
DOCKED: ATOM     28  C   UNL d   1       9.549  14.509   4.514 -0.35 +0.01    +0.052 C 
DOCKED: ATOM     29  C   UNL d   1      12.280  17.022   7.861 -0.30 +0.01    +0.046 C 
DOCKED: ATOM     30  C   UNL d   1       7.002  10.674   2.337 -0.04 +0.00    +0.046 C 
DOCKED: ATOM     31  H   UNL d   1       9.787  13.243   7.049 -0.11 -0.02    +0.166 HD
DOCKED: ATOM     32  H   UNL d   1       7.942  13.052   6.168 -0.48 -0.08    +0.166 HD
DOCKED: ENDROOT
DOCKED: BRANCH   7  33
DOCKED: ATOM     33  C   UNL d   1       5.122   8.570   6.981 -0.01 -0.00    +0.141 C 
DOCKED: BRANCH  33  34
DOCKED: ATOM     34  C   UNL d   1       6.332   7.997   6.295 -0.00 +0.00    +0.306 C 
DOCKED: ATOM     35  O   UNL d   1       6.370   7.536   5.166 -0.00 -0.01    -0.251 OA
DOCKED: BRANCH  34  36
DOCKED: ATOM     36  O   UNL d   1       7.433   8.036   7.066 +0.00 -0.00    -0.481 OA
DOCKED: ATOM     37  H   UNL d   1       7.659   8.989   7.125 +0.02 -0.00    +0.295 HD
DOCKED: ENDBRANCH  34  36
DOCKED: ENDBRANCH  33  34
DOCKED: ENDBRANCH   7  33
DOCKED: BRANCH  27  38
DOCKED: ATOM     38  C   UNL d   1       9.173  12.881   1.786 -0.13 +0.01    +0.017 C 
DOCKED: ATOM     39  C   UNL d   1      10.098  12.100   1.207 -0.09 +0.03    +0.092 C 
DOCKED: BRANCH  39  40
DOCKED: ATOM     40  C   UNL d   1      10.631  12.455  -0.111 -0.00 +0.20    +0.330 C 
DOCKED: ATOM     41  O   UNL d   1      10.364  11.944  -1.183 -0.08 -0.18    -0.246 OA
DOCKED: BRANCH  40  42
DOCKED: ATOM     42  O   UNL d   1      11.494  13.476  -0.001 +0.03 -0.29    -0.477 OA
DOCKED: ATOM     43  H   UNL d   1      11.387  13.775   0.926 +0.06 +0.13    +0.295 HD
DOCKED: ENDBRANCH  40  42
DOCKED: ENDBRANCH  39  40
DOCKED: ENDBRANCH  27  38
DOCKED: BRANCH   8  44
DOCKED: ATOM     44  C   UNL d   1       9.523  11.632  12.621 -0.06 -0.06    +0.141 C 
DOCKED: BRANCH  44  45
DOCKED: ATOM     45  C   UNL d   1       8.454  10.600  12.863 -0.05 -0.09    +0.306 C 
DOCKED: ATOM     46  O   UNL d   1       8.521   9.410  12.609 -0.02 +0.02    -0.251 OA
DOCKED: BRANCH  45  47
DOCKED: ATOM     47  O   UNL d   1       7.336  11.131  13.391 -0.05 +0.32    -0.481 OA
DOCKED: ATOM     48  H   UNL d   1       7.515  12.094  13.434 -0.12 -0.51    +0.295 HD
DOCKED: ENDBRANCH  45  47
DOCKED: ENDBRANCH  44  45
DOCKED: ENDBRANCH   8  44
DOCKED: BRANCH  22  49
DOCKED: ATOM     49  C   UNL d   1      11.189  17.097   4.860 -0.41 +0.01    +0.048 C 
DOCKED: BRANCH  49  50
DOCKED: ATOM     50  C   UNL d   1      12.392  16.768   3.976 -0.25 +0.03    +0.125 C 
DOCKED: BRANCH  50  51
DOCKED: ATOM     51  C   UNL d   1      12.184  15.470   3.248 -0.08 +0.07    +0.305 C 
DOCKED: ATOM     52  O   UNL d   1      12.505  14.353   3.615 -0.03 -0.05    -0.251 OA
DOCKED: BRANCH  51  53
DOCKED: ATOM     53  O   UNL d   1      11.577  15.651   2.058 -0.07 -0.17    -0.481 OA
DOCKED: ATOM     54  H   UNL d   1      12.057  15.048   1.453 +0.10 +0.10    +0.295 HD
DOCKED: ENDBRANCH  51  53
DOCKED: ENDBRANCH  50  51
DOCKED: ENDBRANCH  49  50
DOCKED: ENDBRANCH  22  49
DOCKED: TORSDOF 13
DOCKED: TER
DOCKED: ENDMDL
________________________________________________________________________________


	BEGINNING GENETIC ALGORITHM DOCKING 8 of 100
Run: 8 Seed: 675541282 1187818759 [ Run 8 of 100 GA/GALS ]
Beginning LAMARCKIAN GENETIC ALGORITHM (LGA), with a maximum of 25000000 energy evaluations.

Final-Value: -12.582


	FINAL GENETIC ALGORITHM DOCKED STATE
	_______________________________________________


Detailed state:  trans 19.280 49.015 -3.392 quatxyzw 0.006757 -0.327287 0.477992 -0.815084 center 0.153 0.018 -0.028 ntor 13 112.2294 174.1898 139.9892 89.3712 -133.0002 -36.3765 -64.4217 -78.5655 25.7424 -156.3400 -110.0931 15.0921 -5.8973
State:	 19.280  49.015  -3.392   0.012 -0.565  0.825 -70.809    112.23  174.19  139.99   89.37 -133.00  -36.38  -64.42  -78.57   25.74 -156.34 -110.09   15.09   -5.90

DOCKED: MODEL        8
DOCKED: USER    Run = 8
DOCKED: USER    DPF = D:/Protein_go_brrr/autodock/final/6BB5/heme/dock.dpf
DOCKED: USER  
DOCKED: USER    Estimated Free Energy of Binding    =   -4.59 kcal/mol  [=(1)+(2)+(3)-(4)]
DOCKED: USER    Estimated Inhibition Constant, Ki   =  432.30 uM (micromolar)  [Temperature = 298.15 K]
DOCKED: USER    
DOCKED: USER    (1) Final Intermolecular Energy     =   -8.47 kcal/mol
DOCKED: USER        vdW + Hbond + desolv Energy     =   -8.39 kcal/mol
DOCKED: USER        Electrostatic Energy            =   -0.08 kcal/mol
DOCKED: USER    (2) Final Total Internal Energy     =   -4.11 kcal/mol
DOCKED: USER    (3) Torsional Free Energy           =   +3.88 kcal/mol
DOCKED: USER    (4) Unbound System's Energy  [=(2)] =   -4.11 kcal/mol
DOCKED: USER    
DOCKED: USER    
DOCKED: USER    NEWDPF move heme_opt.pdbqt
DOCKED: USER    NEWDPF about 0.153000 0.018000 -0.028000
DOCKED: USER    NEWDPF tran0 19.280286 49.015310 -3.391534
DOCKED: USER    NEWDPF quaternion0 0.006757 -0.327287 0.477992 -0.815084
DOCKED: USER    NEWDPF axisangle0 0.011664 -0.564927 0.825058 -70.808738
DOCKED: USER    NEWDPF quat0 0.011664 -0.564927 0.825058 -70.808738
DOCKED: USER    NEWDPF dihe0 112.23 174.19 139.99 89.37 -133.00 -36.38 -64.42 -78.57 25.74 -156.34 -110.09 15.09 -5.90 
DOCKED: USER  keepresnum = 1 
DOCKED: USER  
DOCKED: REMARK  13 active torsions:
DOCKED: REMARK  status: ('A' for Active; 'I' for Inactive)
DOCKED: REMARK    1  A    between atoms: O_3  and  C_38 
DOCKED: REMARK    2  A    between atoms: O_4  and  C_40 
DOCKED: REMARK    3  A    between atoms: O_7  and  C_46 
DOCKED: REMARK    4  A    between atoms: O_9  and  C_48 
DOCKED: REMARK    5  A    between atoms: C_15  and  C_20 
DOCKED: REMARK    6  A    between atoms: C_16  and  C_23 
DOCKED: REMARK    7  A    between atoms: C_20  and  C_38 
DOCKED: REMARK    8  A    between atoms: C_23  and  C_40 
DOCKED: REMARK    9  A    between atoms: C_32  and  C_41 
DOCKED: REMARK   10  A    between atoms: C_37  and  C_45 
DOCKED: REMARK   11  A    between atoms: C_41  and  C_44 
DOCKED: REMARK   12  A    between atoms: C_44  and  C_46 
DOCKED: REMARK   13  A    between atoms: C_47  and  C_48 
DOCKED: USER                              x       y       z     vdW  Elec       q    Type
DOCKED: USER                           _______ _______ _______ _____ _____    ______ ____
DOCKED: ROOT
DOCKED: ATOM      1  O   UNL d   1      15.770  45.375  -6.422 -0.32 +0.08    -0.289 OA
DOCKED: ATOM      2  O   UNL d   1      23.036  44.837  -4.604 -0.14 -0.02    -0.289 OA
DOCKED: ATOM      3  N   UNL d   1      17.460  47.857  -4.725 -0.13 +0.05    -0.247 NA
DOCKED: ATOM      4  N   UNL d   1      20.121  46.641  -4.207 -0.17 +0.04    -0.247 NA
DOCKED: ATOM      5  N   UNL d   1      20.628  48.769  -2.342 -0.08 +0.07    -0.354 N 
DOCKED: ATOM      6  N   UNL d   1      17.858  50.013  -2.870 -0.13 +0.10    -0.354 N 
DOCKED: ATOM      7  C   UNL d   1      15.123  47.481  -5.362 -0.34 -0.02    +0.084 A 
DOCKED: ATOM      8  C   UNL d   1      20.874  44.901  -5.750 -0.22 +0.00    +0.084 A 
DOCKED: ATOM      9  C   UNL d   1      19.769  45.854  -5.282 -0.26 -0.00    +0.058 A 
DOCKED: ATOM     10  C   UNL d   1      16.171  48.359  -4.671 -0.24 -0.01    +0.058 A 
DOCKED: ATOM     11  C   UNL d   1      16.052  46.402  -5.831 -0.23 -0.04    +0.193 A 
DOCKED: ATOM     12  C   UNL d   1      17.443  46.758  -5.406 -0.25 -0.01    +0.109 A 
DOCKED: ATOM     13  C   UNL d   1      21.905  45.265  -4.718 -0.17 +0.00    +0.193 A 
DOCKED: ATOM     14  C   UNL d   1      14.130  46.879  -4.365 -0.52 -0.01    +0.026 C 
DOCKED: ATOM     15  C   UNL d   1      18.549  45.881  -5.840 -0.31 -0.00    +0.055 C 
DOCKED: ATOM     16  C   UNL d   1      21.406  45.284  -7.134 -0.10 +0.00    +0.026 C 
DOCKED: ATOM     17  C   UNL d   1      21.321  46.325  -3.840 -0.22 -0.01    +0.109 A 
DOCKED: ATOM     18  C   UNL d   1      15.848  49.556  -4.146 -0.27 -0.01    +0.050 C 
DOCKED: ATOM     19  C   UNL d   1      16.761  50.472  -3.564 -0.23 -0.01    +0.045 A 
DOCKED: ATOM     20  C   UNL d   1      21.696  47.954  -2.066 -0.19 -0.00    +0.045 A 
DOCKED: ATOM     21  C   UNL d   1      22.094  46.850  -2.705 -0.20 -0.00    +0.057 C 
DOCKED: ATOM     22  C   UNL d   1      21.651  49.655  -0.541 -0.15 +0.00    -0.019 A 
DOCKED: ATOM     23  C   UNL d   1      20.519  49.823  -1.474 -0.18 -0.01    +0.045 A 
DOCKED: ATOM     24  C   UNL d   1      22.344  48.548  -0.897 -0.15 +0.00    -0.022 A 
DOCKED: ATOM     25  C   UNL d   1      18.554  51.063  -2.317 -0.23 -0.01    +0.049 A 
DOCKED: ATOM     26  C   UNL d   1      16.765  51.856  -3.492 -0.20 +0.00    -0.018 A 
DOCKED: ATOM     27  C   UNL d   1      17.909  52.225  -2.719 -0.17 -0.00    +0.003 A 
DOCKED: ATOM     28  C   UNL d   1      19.635  50.831  -1.425 -0.26 -0.01    +0.052 C 
DOCKED: ATOM     29  C   UNL d   1      23.569  47.972  -0.271 -0.12 +0.00    +0.046 C 
DOCKED: ATOM     30  C   UNL d   1      15.769  52.782  -4.103 -0.15 -0.01    +0.046 C 
DOCKED: ATOM     31  H   UNL d   1      20.050  48.619  -3.162 +0.03 -0.04    +0.166 HD
DOCKED: ATOM     32  H   UNL d   1      18.080  49.031  -2.759 -0.30 -0.09    +0.166 HD
DOCKED: ENDROOT
DOCKED: BRANCH   7  33
DOCKED: ATOM     33  C   UNL d   1      14.405  48.127  -6.551 -0.18 -0.02    +0.141 C 
DOCKED: BRANCH  33  34
DOCKED: ATOM     34  C   UNL d   1      15.281  48.232  -7.770 -0.08 -0.03    +0.306 C 
DOCKED: ATOM     35  O   UNL d   1      16.144  49.070  -7.966 -0.03 +0.02    -0.251 OA
DOCKED: BRANCH  34  36
DOCKED: ATOM     36  O   UNL d   1      15.025  47.272  -8.677 -0.04 +0.06    -0.481 OA
DOCKED: ATOM     37  H   UNL d   1      15.356  46.447  -8.263 +0.11 -0.04    +0.295 HD
DOCKED: ENDBRANCH  34  36
DOCKED: ENDBRANCH  33  34
DOCKED: ENDBRANCH   7  33
DOCKED: BRANCH  27  38
DOCKED: ATOM     38  C   UNL d   1      18.283  53.566  -2.387 +0.11 -0.00    +0.017 C 
DOCKED: ATOM     39  C   UNL d   1      19.495  54.105  -2.589 -0.11 -0.01    +0.092 C 
DOCKED: BRANCH  39  40
DOCKED: ATOM     40  C   UNL d   1      19.745  55.501  -2.218 -0.05 -0.03    +0.330 C 
DOCKED: ATOM     41  O   UNL d   1      18.990  56.448  -2.335 -0.05 +0.03    -0.246 OA
DOCKED: BRANCH  40  42
DOCKED: ATOM     42  O   UNL d   1      20.973  55.627  -1.692 -0.02 +0.05    -0.477 OA
DOCKED: ATOM     43  H   UNL d   1      21.297  54.705  -1.631 +0.04 -0.03    +0.295 HD
DOCKED: ENDBRANCH  40  42
DOCKED: ENDBRANCH  39  40
DOCKED: ENDBRANCH  27  38
DOCKED: BRANCH   8  44
DOCKED: ATOM     44  C   UNL d   1      20.532  43.409  -5.680 -0.33 +0.02    +0.141 C 
DOCKED: BRANCH  44  45
DOCKED: ATOM     45  C   UNL d   1      21.307  42.575  -6.666 -0.18 +0.06    +0.306 C 
DOCKED: ATOM     46  O   UNL d   1      20.868  42.041  -7.669 -0.17 -0.08    -0.251 OA
DOCKED: BRANCH  45  47
DOCKED: ATOM     47  O   UNL d   1      22.599  42.435  -6.318 -0.06 -0.09    -0.481 OA
DOCKED: ATOM     48  H   UNL d   1      22.865  43.320  -5.989 +0.10 +0.04    +0.295 HD
DOCKED: ENDBRANCH  45  47
DOCKED: ENDBRANCH  44  45
DOCKED: ENDBRANCH   8  44
DOCKED: BRANCH  22  49
DOCKED: ATOM     49  C   UNL d   1      21.938  50.574   0.610 -0.15 -0.00    +0.048 C 
DOCKED: BRANCH  49  50
DOCKED: ATOM     50  C   UNL d   1      22.848  51.731   0.199 -0.06 -0.01    +0.125 C 
DOCKED: BRANCH  50  51
DOCKED: ATOM     51  C   UNL d   1      22.119  52.698  -0.691 -0.05 -0.03    +0.305 C 
DOCKED: ATOM     52  O   UNL d   1      21.971  52.629  -1.898 -0.03 +0.02    -0.251 OA
DOCKED: BRANCH  51  53
DOCKED: ATOM     53  O   UNL d   1      21.611  53.736   0.002 -0.05 +0.10    -0.481 OA
DOCKED: ATOM     54  H   UNL d   1      20.708  53.442   0.244 -0.50 -0.12    +0.295 HD
DOCKED: ENDBRANCH  51  53
DOCKED: ENDBRANCH  50  51
DOCKED: ENDBRANCH  49  50
DOCKED: ENDBRANCH  22  49
DOCKED: TORSDOF 13
DOCKED: TER
DOCKED: ENDMDL
________________________________________________________________________________


	BEGINNING GENETIC ALGORITHM DOCKING 9 of 100
Run: 9 Seed: 431008552 704197939 [ Run 9 of 100 GA/GALS ]
Beginning LAMARCKIAN GENETIC ALGORITHM (LGA), with a maximum of 25000000 energy evaluations.

Final-Value: -10.335


	FINAL GENETIC ALGORITHM DOCKED STATE
	_______________________________________________


Detailed state:  trans 42.469 20.404 2.987 quatxyzw 0.121633 -0.229928 -0.613219 0.745856 center 0.153 0.018 -0.028 ntor 13 -179.6003 -51.9181 -139.6672 -107.0238 -156.3418 11.5456 128.5143 -102.8326 5.6953 -10.0760 -73.1983 -7.2904 -170.4653
State:	 42.469  20.404   2.987   0.183 -0.345 -0.921 83.535   -179.60  -51.92 -139.67 -107.02 -156.34   11.55  128.51 -102.83    5.70  -10.08  -73.20   -7.29 -170.47

DOCKED: MODEL        9
DOCKED: USER    Run = 9
DOCKED: USER    DPF = D:/Protein_go_brrr/autodock/final/6BB5/heme/dock.dpf
DOCKED: USER  
DOCKED: USER    Estimated Free Energy of Binding    =   -3.91 kcal/mol  [=(1)+(2)+(3)-(4)]
DOCKED: USER    Estimated Inhibition Constant, Ki   =    1.35 mM (millimolar)  [Temperature = 298.15 K]
DOCKED: USER    
DOCKED: USER    (1) Final Intermolecular Energy     =   -7.79 kcal/mol
DOCKED: USER        vdW + Hbond + desolv Energy     =   -7.46 kcal/mol
DOCKED: USER        Electrostatic Energy            =   -0.33 kcal/mol
DOCKED: USER    (2) Final Total Internal Energy     =   -2.54 kcal/mol
DOCKED: USER    (3) Torsional Free Energy           =   +3.88 kcal/mol
DOCKED: USER    (4) Unbound System's Energy  [=(2)] =   -2.54 kcal/mol
DOCKED: USER    
DOCKED: USER    
DOCKED: USER    NEWDPF move heme_opt.pdbqt
DOCKED: USER    NEWDPF about 0.153000 0.018000 -0.028000
DOCKED: USER    NEWDPF tran0 42.469283 20.403895 2.986503
DOCKED: USER    NEWDPF quaternion0 0.121633 -0.229928 -0.613219 0.745856
DOCKED: USER    NEWDPF axisangle0 0.182603 -0.345182 -0.920601 83.534644
DOCKED: USER    NEWDPF quat0 0.182603 -0.345182 -0.920601 83.534644
DOCKED: USER    NEWDPF dihe0 -179.60 -51.92 -139.67 -107.02 -156.34 11.55 128.51 -102.83 5.70 -10.08 -73.20 -7.29 -170.47 
DOCKED: USER  keepresnum = 1 
DOCKED: USER  
DOCKED: REMARK  13 active torsions:
DOCKED: REMARK  status: ('A' for Active; 'I' for Inactive)
DOCKED: REMARK    1  A    between atoms: O_3  and  C_38 
DOCKED: REMARK    2  A    between atoms: O_4  and  C_40 
DOCKED: REMARK    3  A    between atoms: O_7  and  C_46 
DOCKED: REMARK    4  A    between atoms: O_9  and  C_48 
DOCKED: REMARK    5  A    between atoms: C_15  and  C_20 
DOCKED: REMARK    6  A    between atoms: C_16  and  C_23 
DOCKED: REMARK    7  A    between atoms: C_20  and  C_38 
DOCKED: REMARK    8  A    between atoms: C_23  and  C_40 
DOCKED: REMARK    9  A    between atoms: C_32  and  C_41 
DOCKED: REMARK   10  A    between atoms: C_37  and  C_45 
DOCKED: REMARK   11  A    between atoms: C_41  and  C_44 
DOCKED: REMARK   12  A    between atoms: C_44  and  C_46 
DOCKED: REMARK   13  A    between atoms: C_47  and  C_48 
DOCKED: USER                              x       y       z     vdW  Elec       q    Type
DOCKED: USER                           _______ _______ _______ _____ _____    ______ ____
DOCKED: ROOT
DOCKED: ATOM      1  O   UNL d   1      40.158  16.254   6.478 -0.01 -0.02    -0.289 OA
DOCKED: ATOM      2  O   UNL d   1      46.489  16.332   2.442 -0.02 -0.09    -0.289 OA
DOCKED: ATOM      3  N   UNL d   1      41.045  18.896   4.446 -0.08 -0.01    -0.247 NA
DOCKED: ATOM      4  N   UNL d   1      43.775  18.165   3.529 -0.09 -0.10    -0.247 NA
DOCKED: ATOM      5  N   UNL d   1      44.086  20.868   2.600 -0.07 -0.10    -0.354 N 
DOCKED: ATOM      6  N   UNL d   1      41.260  21.623   3.571 -0.10 -0.00    -0.354 N 
DOCKED: ATOM      7  C   UNL d   1      39.245  18.482   6.057 -0.14 -0.01    +0.084 A 
DOCKED: ATOM      8  C   UNL d   1      44.336  15.787   3.470 -0.03 +0.02    +0.084 A 
DOCKED: ATOM      9  C   UNL d   1      43.344  16.895   3.840 -0.07 +0.02    +0.058 A 
DOCKED: ATOM     10  C   UNL d   1      39.923  19.426   5.060 -0.19 -0.01    +0.058 A 
DOCKED: ATOM     11  C   UNL d   1      40.173  17.317   5.885 -0.03 +0.01    +0.193 A 
DOCKED: ATOM     12  C   UNL d   1      41.205  17.682   4.864 -0.07 +0.01    +0.109 A 
DOCKED: ATOM     13  C   UNL d   1      45.426  16.667   2.926 -0.05 +0.07    +0.193 A 
DOCKED: ATOM     14  C   UNL d   1      39.353  18.993   7.496 -0.28 -0.01    +0.026 C 
DOCKED: ATOM     15  C   UNL d   1      42.179  16.649   4.459 -0.05 +0.01    +0.055 C 
DOCKED: ATOM     16  C   UNL d   1      43.804  14.905   2.336 -0.01 +0.00    +0.026 C 
DOCKED: ATOM     17  C   UNL d   1      44.965  18.085   3.026 -0.09 +0.05    +0.109 A 
DOCKED: ATOM     18  C   UNL d   1      39.395  20.628   4.759 -0.35 -0.01    +0.050 C 
DOCKED: ATOM     19  C   UNL d   1      39.904  21.530   3.790 -0.33 -0.01    +0.045 A 
DOCKED: ATOM     20  C   UNL d   1      45.374  20.420   2.456 -0.10 +0.02    +0.045 A 
DOCKED: ATOM     21  C   UNL d   1      45.851  19.180   2.604 -0.11 +0.03    +0.057 C 
DOCKED: ATOM     22  C   UNL d   1      45.323  22.666   2.040 -0.25 -0.00    -0.019 A 
DOCKED: ATOM     23  C   UNL d   1      43.956  22.212   2.369 -0.24 +0.01    +0.045 A 
DOCKED: ATOM     24  C   UNL d   1      46.157  21.600   2.092 -0.16 -0.01    -0.022 A 
DOCKED: ATOM     25  C   UNL d   1      41.536  22.617   2.662 -0.30 +0.00    +0.049 A 
DOCKED: ATOM     26  C   UNL d   1      39.280  22.463   2.976 -0.36 +0.00    -0.018 A 
DOCKED: ATOM     27  C   UNL d   1      40.314  23.133   2.251 -0.34 -0.00    +0.003 A 
DOCKED: ATOM     28  C   UNL d   1      42.876  23.007   2.391 -0.32 +0.01    +0.052 C 
DOCKED: ATOM     29  C   UNL d   1      47.623  21.550   1.829 -0.11 +0.01    +0.046 C 
DOCKED: ATOM     30  C   UNL d   1      37.814  22.717   2.874 -0.11 -0.03    +0.046 C 
DOCKED: ATOM     31  H   UNL d   1      43.322  20.225   2.779 +0.04 +0.04    +0.166 HD
DOCKED: ATOM     32  H   UNL d   1      41.946  21.055   4.055 +0.08 +0.02    +0.166 HD
DOCKED: ENDROOT
DOCKED: BRANCH   7  33
DOCKED: ATOM     33  C   UNL d   1      37.807  18.081   5.710 -0.09 -0.02    +0.141 C 
DOCKED: BRANCH  33  34
DOCKED: ATOM     34  C   UNL d   1      37.684  17.514   4.322 -0.00 -0.04    +0.306 C 
DOCKED: ATOM     35  O   UNL d   1      37.258  18.099   3.340 -0.02 +0.06    -0.251 OA
DOCKED: BRANCH  34  36
DOCKED: ATOM     36  O   UNL d   1      38.105  16.240   4.243 +0.01 +0.02    -0.481 OA
DOCKED: ATOM     37  H   UNL d   1      38.424  16.029   5.146 +0.02 -0.00    +0.295 HD
DOCKED: ENDBRANCH  34  36
DOCKED: ENDBRANCH  33  34
DOCKED: ENDBRANCH   7  33
DOCKED: BRANCH  27  38
DOCKED: ATOM     38  C   UNL d   1      40.108  24.187   1.304 -0.37 -0.00    +0.017 C 
DOCKED: ATOM     39  C   UNL d   1      40.897  24.446   0.250 -0.25 +0.00    +0.092 C 
DOCKED: BRANCH  39  40
DOCKED: ATOM     40  C   UNL d   1      40.564  25.548  -0.656 -0.14 +0.01    +0.330 C 
DOCKED: ATOM     41  O   UNL d   1      39.715  26.405  -0.505 -0.21 -0.00    -0.246 OA
DOCKED: BRANCH  40  42
DOCKED: ATOM     42  O   UNL d   1      41.357  25.511  -1.738 -0.06 -0.02    -0.477 OA
DOCKED: ATOM     43  H   UNL d   1      40.730  25.541  -2.490 +0.05 +0.01    +0.295 HD
DOCKED: ENDBRANCH  40  42
DOCKED: ENDBRANCH  39  40
DOCKED: ENDBRANCH  27  38
DOCKED: BRANCH   8  44
DOCKED: ATOM     44  C   UNL d   1      44.846  14.940   4.640 -0.04 +0.05    +0.141 C 
DOCKED: BRANCH  44  45
DOCKED: ATOM     45  C   UNL d   1      45.562  15.747   5.690 -0.02 +0.22    +0.306 C 
DOCKED: ATOM     46  O   UNL d   1      45.051  16.355   6.614 -0.07 -0.23    -0.251 OA
DOCKED: BRANCH  45  47
DOCKED: ATOM     47  O   UNL d   1      46.895  15.768   5.503 -0.39 -0.44    -0.481 OA
DOCKED: ATOM     48  H   UNL d   1      47.007  15.846   4.531 +0.02 +0.20    +0.295 HD
DOCKED: ENDBRANCH  45  47
DOCKED: ENDBRANCH  44  45
DOCKED: ENDBRANCH   8  44
DOCKED: BRANCH  22  49
DOCKED: ATOM     49  C   UNL d   1      45.685  24.087   1.723 -0.34 +0.01    +0.048 C 
DOCKED: BRANCH  49  50
DOCKED: ATOM     50  C   UNL d   1      46.437  24.753   2.876 -0.46 +0.01    +0.125 C 
DOCKED: BRANCH  50  51
DOCKED: ATOM     51  C   UNL d   1      47.888  24.935   2.535 -0.17 +0.03    +0.305 C 
DOCKED: ATOM     52  O   UNL d   1      48.842  24.336   3.002 -0.24 -0.03    -0.251 OA
DOCKED: BRANCH  51  53
DOCKED: ATOM     53  O   UNL d   1      48.072  25.895   1.608 -0.07 -0.04    -0.481 OA
DOCKED: ATOM     54  H   UNL d   1      47.900  26.730   2.092 -0.27 -0.04    +0.295 HD
DOCKED: ENDBRANCH  51  53
DOCKED: ENDBRANCH  50  51
DOCKED: ENDBRANCH  49  50
DOCKED: ENDBRANCH  22  49
DOCKED: TORSDOF 13
DOCKED: TER
DOCKED: ENDMDL
________________________________________________________________________________


	BEGINNING GENETIC ALGORITHM DOCKING 10 of 100
Run: 10 Seed: 1070192827 989177381 [ Run 10 of 100 GA/GALS ]
Beginning LAMARCKIAN GENETIC ALGORITHM (LGA), with a maximum of 25000000 energy evaluations.

Final-Value: -10.034


	FINAL GENETIC ALGORITHM DOCKED STATE
	_______________________________________________


Detailed state:  trans 43.727 15.714 17.681 quatxyzw -0.719721 0.297239 -0.606852 0.159313 center 0.153 0.018 -0.028 ntor 13 -46.4804 179.8559 -172.2248 13.8333 -173.0886 -48.0740 141.1623 13.0389 -23.7080 -18.7913 54.5963 -19.5606 108.6084
State:	 43.727  15.714  17.681  -0.729  0.301 -0.615 161.666    -46.48  179.86 -172.22   13.83 -173.09  -48.07  141.16   13.04  -23.71  -18.79   54.60  -19.56  108.61

DOCKED: MODEL       10
DOCKED: USER    Run = 10
DOCKED: USER    DPF = D:/Protein_go_brrr/autodock/final/6BB5/heme/dock.dpf
DOCKED: USER  
DOCKED: USER    Estimated Free Energy of Binding    =   -2.72 kcal/mol  [=(1)+(2)+(3)-(4)]
DOCKED: USER    Estimated Inhibition Constant, Ki   =   10.07 mM (millimolar)  [Temperature = 298.15 K]
DOCKED: USER    
DOCKED: USER    (1) Final Intermolecular Energy     =   -6.60 kcal/mol
DOCKED: USER        vdW + Hbond + desolv Energy     =   -6.31 kcal/mol
DOCKED: USER        Electrostatic Energy            =   -0.29 kcal/mol
DOCKED: USER    (2) Final Total Internal Energy     =   -3.43 kcal/mol
DOCKED: USER    (3) Torsional Free Energy           =   +3.88 kcal/mol
DOCKED: USER    (4) Unbound System's Energy  [=(2)] =   -3.43 kcal/mol
DOCKED: USER    
DOCKED: USER    
DOCKED: USER    NEWDPF move heme_opt.pdbqt
DOCKED: USER    NEWDPF about 0.153000 0.018000 -0.028000
DOCKED: USER    NEWDPF tran0 43.726678 15.714441 17.680615
DOCKED: USER    NEWDPF quaternion0 -0.719721 0.297239 -0.606852 0.159313
DOCKED: USER    NEWDPF axisangle0 -0.729033 0.301084 -0.614703 161.665909
DOCKED: USER    NEWDPF quat0 -0.729033 0.301084 -0.614703 161.665909
DOCKED: USER    NEWDPF dihe0 -46.48 179.86 -172.22 13.83 -173.09 -48.07 141.16 13.04 -23.71 -18.79 54.60 -19.56 108.61 
DOCKED: USER  keepresnum = 1 
DOCKED: USER  
DOCKED: REMARK  13 active torsions:
DOCKED: REMARK  status: ('A' for Active; 'I' for Inactive)
DOCKED: REMARK    1  A    between atoms: O_3  and  C_38 
DOCKED: REMARK    2  A    between atoms: O_4  and  C_40 
DOCKED: REMARK    3  A    between atoms: O_7  and  C_46 
DOCKED: REMARK    4  A    between atoms: O_9  and  C_48 
DOCKED: REMARK    5  A    between atoms: C_15  and  C_20 
DOCKED: REMARK    6  A    between atoms: C_16  and  C_23 
DOCKED: REMARK    7  A    between atoms: C_20  and  C_38 
DOCKED: REMARK    8  A    between atoms: C_23  and  C_40 
DOCKED: REMARK    9  A    between atoms: C_32  and  C_41 
DOCKED: REMARK   10  A    between atoms: C_37  and  C_45 
DOCKED: REMARK   11  A    between atoms: C_41  and  C_44 
DOCKED: REMARK   12  A    between atoms: C_44  and  C_46 
DOCKED: REMARK   13  A    between atoms: C_47  and  C_48 
DOCKED: USER                              x       y       z     vdW  Elec       q    Type
DOCKED: USER                           _______ _______ _______ _____ _____    ______ ____
DOCKED: ROOT
DOCKED: ATOM      1  O   UNL d   1      42.695  15.343  11.888 -0.01 -0.05    -0.289 OA
DOCKED: ATOM      2  O   UNL d   1      45.277  21.013  16.081 -0.12 -0.16    -0.289 OA
DOCKED: ATOM      3  N   UNL d   1      43.012  15.138  15.316 -0.06 -0.05    -0.247 NA
DOCKED: ATOM      4  N   UNL d   1      44.365  17.685  16.031 -0.09 -0.07    -0.247 NA
DOCKED: ATOM      5  N   UNL d   1      44.885  16.572  18.630 -0.12 -0.08    -0.354 N 
DOCKED: ATOM      6  N   UNL d   1      43.497  13.925  17.874 -0.07 -0.07    -0.354 N 
DOCKED: ATOM      7  C   UNL d   1      42.425  13.558  13.536 -0.05 +0.01    +0.084 A 
DOCKED: ATOM      8  C   UNL d   1      44.047  19.581  14.522 -0.18 +0.03    +0.084 A 
DOCKED: ATOM      9  C   UNL d   1      43.829  18.096  14.831 -0.15 +0.01    +0.058 A 
DOCKED: ATOM     10  C   UNL d   1      42.660  13.830  15.025 -0.09 +0.01    +0.058 A 
DOCKED: ATOM     11  C   UNL d   1      42.689  14.948  13.040 -0.03 +0.03    +0.193 A 
DOCKED: ATOM     12  C   UNL d   1      43.009  15.817  14.216 -0.09 +0.02    +0.109 A 
DOCKED: ATOM     13  C   UNL d   1      44.838  19.928  15.752 -0.12 +0.08    +0.193 A 
DOCKED: ATOM     14  C   UNL d   1      43.479  12.615  12.951 -0.02 +0.00    +0.026 C 
DOCKED: ATOM     15  C   UNL d   1      43.215  17.260  13.979 -0.16 +0.01    +0.055 C 
DOCKED: ATOM     16  C   UNL d   1      42.732  20.365  14.545 -0.36 +0.00    +0.026 C 
DOCKED: ATOM     17  C   UNL d   1      44.966  18.691  16.580 -0.14 +0.04    +0.109 A 
DOCKED: ATOM     18  C   UNL d   1      42.446  12.881  15.956 -0.11 +0.01    +0.050 C 
DOCKED: ATOM     19  C   UNL d   1      42.555  13.065  17.358 -0.09 +0.01    +0.045 A 
DOCKED: ATOM     20  C   UNL d   1      45.656  17.703  18.700 -0.15 +0.01    +0.045 A 
DOCKED: ATOM     21  C   UNL d   1      45.734  18.719  17.834 -0.17 +0.02    +0.057 C 
DOCKED: ATOM     22  C   UNL d   1      46.054  16.424  20.550 -0.12 -0.00    -0.019 A 
DOCKED: ATOM     23  C   UNL d   1      45.057  15.738  19.703 -0.13 +0.01    +0.045 A 
DOCKED: ATOM     24  C   UNL d   1      46.403  17.587  19.952 -0.15 -0.00    -0.022 A 
DOCKED: ATOM     25  C   UNL d   1      43.490  13.881  19.249 -0.22 +0.01    +0.049 A 
DOCKED: ATOM     26  C   UNL d   1      41.894  12.474  18.423 -0.13 -0.00    -0.018 A 
DOCKED: ATOM     27  C   UNL d   1      42.475  13.008  19.615 -0.23 +0.00    +0.003 A 
DOCKED: ATOM     28  C   UNL d   1      44.480  14.566  20.006 -0.17 +0.01    +0.052 C 
DOCKED: ATOM     29  C   UNL d   1      47.362  18.627  20.422 -0.11 +0.01    +0.046 C 
DOCKED: ATOM     30  C   UNL d   1      40.789  11.476  18.343 -0.11 +0.00    +0.046 C 
DOCKED: ATOM     31  H   UNL d   1      44.209  16.441  17.886 +0.04 +0.04    +0.166 HD
DOCKED: ATOM     32  H   UNL d   1      44.128  14.475  17.302 +0.04 +0.03    +0.166 HD
DOCKED: ENDROOT
DOCKED: BRANCH   7  33
DOCKED: ATOM     33  C   UNL d   1      41.006  13.115  13.166 -0.06 +0.01    +0.141 C 
DOCKED: BRANCH  33  34
DOCKED: ATOM     34  C   UNL d   1      39.978  13.562  14.171 -0.11 +0.03    +0.306 C 
DOCKED: ATOM     35  O   UNL d   1      39.258  12.836  14.835 -0.12 -0.03    -0.251 OA
DOCKED: BRANCH  34  36
DOCKED: ATOM     36  O   UNL d   1      39.915  14.900  14.287 -0.06 +0.01    -0.481 OA
DOCKED: ATOM     37  H   UNL d   1      38.958  15.108  14.219 -0.47 -0.06    +0.295 HD
DOCKED: ENDBRANCH  34  36
DOCKED: ENDBRANCH  33  34
DOCKED: ENDBRANCH   7  33
DOCKED: BRANCH  27  38
DOCKED: ATOM     38  C   UNL d   1      42.095  12.653  20.949 -0.22 +0.00    +0.017 C 
DOCKED: ATOM     39  C   UNL d   1      42.388  13.359  22.052 -0.17 +0.01    +0.092 C 
DOCKED: BRANCH  39  40
DOCKED: ATOM     40  C   UNL d   1      41.924  12.894  23.361 -0.10 +0.00    +0.330 C 
DOCKED: ATOM     41  O   UNL d   1      40.797  12.559  23.675 -0.09 +0.01    -0.246 OA
DOCKED: BRANCH  40  42
DOCKED: ATOM     42  O   UNL d   1      42.945  12.869  24.231 -0.01 -0.02    -0.477 OA
DOCKED: ATOM     43  H   UNL d   1      43.711  13.176  23.703 +0.05 +0.02    +0.295 HD
DOCKED: ENDBRANCH  40  42
DOCKED: ENDBRANCH  39  40
DOCKED: ENDBRANCH  27  38
DOCKED: BRANCH   8  44
DOCKED: ATOM     44  C   UNL d   1      44.849  19.881  13.252 -0.21 +0.06    +0.141 C 
DOCKED: BRANCH  44  45
DOCKED: ATOM     45  C   UNL d   1      46.297  19.481  13.354 -0.16 +0.21    +0.306 C 
DOCKED: ATOM     46  O   UNL d   1      46.796  18.446  12.947 -0.09 -0.16    -0.251 OA
DOCKED: BRANCH  45  47
DOCKED: ATOM     47  O   UNL d   1      47.041  20.401  13.995 -0.67 -0.67    -0.481 OA
DOCKED: ATOM     48  H   UNL d   1      46.392  21.056  14.329 +0.10 +0.32    +0.295 HD
DOCKED: ENDBRANCH  45  47
DOCKED: ENDBRANCH  44  45
DOCKED: ENDBRANCH   8  44
DOCKED: BRANCH  22  49
DOCKED: ATOM     49  C   UNL d   1      46.577  15.877  21.846 -0.11 +0.01    +0.048 C 
DOCKED: BRANCH  49  50
DOCKED: ATOM     50  C   UNL d   1      46.476  14.353  21.902 -0.05 +0.02    +0.125 C 
DOCKED: BRANCH  50  51
DOCKED: ATOM     51  C   UNL d   1      45.706  13.911  23.113 -0.03 +0.03    +0.305 C 
DOCKED: ATOM     52  O   UNL d   1      45.108  14.612  23.910 -0.06 -0.03    -0.251 OA
DOCKED: BRANCH  51  53
DOCKED: ATOM     53  O   UNL d   1      45.740  12.572  23.271 +0.01 -0.04    -0.481 OA
DOCKED: ATOM     54  H   UNL d   1      45.043  12.394  23.937 +0.02 +0.02    +0.295 HD
DOCKED: ENDBRANCH  51  53
DOCKED: ENDBRANCH  50  51
DOCKED: ENDBRANCH  49  50
DOCKED: ENDBRANCH  22  49
DOCKED: TORSDOF 13
DOCKED: TER
DOCKED: ENDMDL
________________________________________________________________________________


	BEGINNING GENETIC ALGORITHM DOCKING 11 of 100
Run: 11 Seed: 366231900 1627069032 [ Run 11 of 100 GA/GALS ]
Beginning LAMARCKIAN GENETIC ALGORITHM (LGA), with a maximum of 25000000 energy evaluations.

Final-Value: -13.375


	FINAL GENETIC ALGORITHM DOCKED STATE
	_______________________________________________


Detailed state:  trans 11.767 39.260 25.311 quatxyzw -0.743429 0.494591 -0.386266 0.231282 center 0.153 0.018 -0.028 ntor 13 102.1778 45.7010 -126.8242 20.6343 -130.8246 -80.0401 127.0844 56.6288 48.0627 -29.2166 -71.3500 -116.5568 11.2489
State:	 11.767  39.260  25.311  -0.764  0.508 -0.397 153.255    102.18   45.70 -126.82   20.63 -130.82  -80.04  127.08   56.63   48.06  -29.22  -71.35 -116.56   11.25

DOCKED: MODEL       11
DOCKED: USER    Run = 11
DOCKED: USER    DPF = D:/Protein_go_brrr/autodock/final/6BB5/heme/dock.dpf
DOCKED: USER  
DOCKED: USER    Estimated Free Energy of Binding    =   -5.86 kcal/mol  [=(1)+(2)+(3)-(4)]
DOCKED: USER    Estimated Inhibition Constant, Ki   =   50.84 uM (micromolar)  [Temperature = 298.15 K]
DOCKED: USER    
DOCKED: USER    (1) Final Intermolecular Energy     =   -9.74 kcal/mol
DOCKED: USER        vdW + Hbond + desolv Energy     =   -9.51 kcal/mol
DOCKED: USER        Electrostatic Energy            =   -0.23 kcal/mol
DOCKED: USER    (2) Final Total Internal Energy     =   -3.64 kcal/mol
DOCKED: USER    (3) Torsional Free Energy           =   +3.88 kcal/mol
DOCKED: USER    (4) Unbound System's Energy  [=(2)] =   -3.64 kcal/mol
DOCKED: USER    
DOCKED: USER    
DOCKED: USER    NEWDPF move heme_opt.pdbqt
DOCKED: USER    NEWDPF about 0.153000 0.018000 -0.028000
DOCKED: USER    NEWDPF tran0 11.766916 39.259657 25.311078
DOCKED: USER    NEWDPF quaternion0 -0.743429 0.494591 -0.386266 0.231282
DOCKED: USER    NEWDPF axisangle0 -0.764148 0.508375 -0.397030 153.254828
DOCKED: USER    NEWDPF quat0 -0.764148 0.508375 -0.397030 153.254828
DOCKED: USER    NEWDPF dihe0 102.18 45.70 -126.82 20.63 -130.82 -80.04 127.08 56.63 48.06 -29.22 -71.35 -116.56 11.25 
DOCKED: USER  keepresnum = 1 
DOCKED: USER  
DOCKED: REMARK  13 active torsions:
DOCKED: REMARK  status: ('A' for Active; 'I' for Inactive)
DOCKED: REMARK    1  A    between atoms: O_3  and  C_38 
DOCKED: REMARK    2  A    between atoms: O_4  and  C_40 
DOCKED: REMARK    3  A    between atoms: O_7  and  C_46 
DOCKED: REMARK    4  A    between atoms: O_9  and  C_48 
DOCKED: REMARK    5  A    between atoms: C_15  and  C_20 
DOCKED: REMARK    6  A    between atoms: C_16  and  C_23 
DOCKED: REMARK    7  A    between atoms: C_20  and  C_38 
DOCKED: REMARK    8  A    between atoms: C_23  and  C_40 
DOCKED: REMARK    9  A    between atoms: C_32  and  C_41 
DOCKED: REMARK   10  A    between atoms: C_37  and  C_45 
DOCKED: REMARK   11  A    between atoms: C_41  and  C_44 
DOCKED: REMARK   12  A    between atoms: C_44  and  C_46 
DOCKED: REMARK   13  A    between atoms: C_47  and  C_48 
DOCKED: USER                              x       y       z     vdW  Elec       q    Type
DOCKED: USER                           _______ _______ _______ _____ _____    ______ ____
DOCKED: ROOT
DOCKED: ATOM      1  O   UNL d   1       9.255  41.231  20.355 +0.12 +0.01    -0.289 OA
DOCKED: ATOM      2  O   UNL d   1      15.087  43.842  24.301 -0.10 +0.03    -0.289 OA
DOCKED: ATOM      3  N   UNL d   1      10.299  39.800  23.315 -0.15 +0.04    -0.247 NA
DOCKED: ATOM      4  N   UNL d   1      12.788  41.291  23.954 -0.06 +0.07    -0.247 NA
DOCKED: ATOM      5  N   UNL d   1      13.385  39.271  25.911 -0.03 +0.14    -0.354 N 
DOCKED: ATOM      6  N   UNL d   1      10.810  37.721  25.228 -0.14 +0.11    -0.354 N 
DOCKED: ATOM      7  C   UNL d   1       8.633  39.228  21.611 -0.27 -0.00    +0.084 A 
DOCKED: ATOM      8  C   UNL d   1      12.994  43.558  23.064 -0.10 -0.01    +0.084 A 
DOCKED: ATOM      9  C   UNL d   1      12.213  42.241  23.140 -0.19 -0.01    +0.058 A 
DOCKED: ATOM     10  C   UNL d   1       9.332  38.886  22.929 -0.26 -0.01    +0.058 A 
DOCKED: ATOM     11  C   UNL d   1       9.361  40.508  21.328 -0.07 -0.01    +0.193 A 
DOCKED: ATOM     12  C   UNL d   1      10.325  40.758  22.447 -0.16 -0.01    +0.109 A 
DOCKED: ATOM     13  C   UNL d   1      14.137  43.166  23.956 -0.10 -0.03    +0.193 A 
DOCKED: ATOM     14  C   UNL d   1       8.960  38.218  20.508 -0.56 +0.00    +0.026 C 
DOCKED: ATOM     15  C   UNL d   1      11.095  42.019  22.432 -0.19 -0.01    +0.055 C 
DOCKED: ATOM     16  C   UNL d   1      12.229  44.710  23.721 -0.04 -0.00    +0.026 C 
DOCKED: ATOM     17  C   UNL d   1      13.896  41.767  24.424 -0.17 -0.02    +0.109 A 
DOCKED: ATOM     18  C   UNL d   1       8.954  37.829  23.672 -0.31 -0.01    +0.050 C 
DOCKED: ATOM     19  C   UNL d   1       9.485  37.484  24.942 -0.25 -0.01    +0.045 A 
DOCKED: ATOM     20  C   UNL d   1      14.574  39.954  25.907 -0.23 -0.01    +0.045 A 
DOCKED: ATOM     21  C   UNL d   1      14.882  41.097  25.285 -0.26 -0.01    +0.057 C 
DOCKED: ATOM     22  C   UNL d   1      14.802  38.082  27.196 -0.26 +0.01    -0.019 A 
DOCKED: ATOM     23  C   UNL d   1      13.426  38.127  26.662 -0.27 -0.02    +0.045 A 
DOCKED: ATOM     24  C   UNL d   1      15.476  39.167  26.746 -0.27 +0.00    -0.022 A 
DOCKED: ATOM     25  C   UNL d   1      11.131  37.229  26.472 -0.25 -0.02    +0.049 A 
DOCKED: ATOM     26  C   UNL d   1       8.921  36.856  26.041 -0.23 +0.00    -0.018 A 
DOCKED: ATOM     27  C   UNL d   1       9.960  36.715  27.012 -0.21 -0.00    +0.003 A 
DOCKED: ATOM     28  C   UNL d   1      12.478  37.215  26.926 -0.32 -0.02    +0.052 C 
DOCKED: ATOM     29  C   UNL d   1      16.886  39.568  27.019 -0.28 -0.00    +0.046 C 
DOCKED: ATOM     30  C   UNL d   1       7.504  36.415  26.185 -0.22 +0.00    +0.046 C 
DOCKED: ATOM     31  H   UNL d   1      12.560  39.650  25.459 -0.23 -0.07    +0.166 HD
DOCKED: ATOM     32  H   UNL d   1      11.454  38.160  24.581 -0.35 -0.08    +0.166 HD
DOCKED: ENDROOT
DOCKED: BRANCH   7  33
DOCKED: ATOM     33  C   UNL d   1       7.124  39.480  21.713 -0.22 -0.00    +0.141 C 
DOCKED: BRANCH  33  34
DOCKED: ATOM     34  C   UNL d   1       6.788  40.942  21.837 -0.08 +0.01    +0.306 C 
DOCKED: ATOM     35  O   UNL d   1       6.902  41.625  22.840 -0.03 +0.01    -0.251 OA
DOCKED: BRANCH  34  36
DOCKED: ATOM     36  O   UNL d   1       6.328  41.467  20.687 -0.52 -0.11    -0.481 OA
DOCKED: ATOM     37  H   UNL d   1       7.134  41.644  20.157 +0.10 +0.03    +0.295 HD
DOCKED: ENDBRANCH  34  36
DOCKED: ENDBRANCH  33  34
DOCKED: ENDBRANCH   7  33
DOCKED: BRANCH  27  38
DOCKED: ATOM     38  C   UNL d   1       9.811  36.102  28.297 -0.19 -0.00    +0.017 C 
DOCKED: ATOM     39  C   UNL d   1      10.183  34.850  28.606 -0.16 -0.00    +0.092 C 
DOCKED: BRANCH  39  40
DOCKED: ATOM     40  C   UNL d   1       9.991  34.346  29.968 -0.06 +0.12    +0.330 C 
DOCKED: ATOM     41  O   UNL d   1      10.707  34.523  30.934 -0.06 -0.02    -0.246 OA
DOCKED: BRANCH  40  42
DOCKED: ATOM     42  O   UNL d   1       8.859  33.627  30.039 -0.34 -0.55    -0.477 OA
DOCKED: ATOM     43  H   UNL d   1       8.427  33.951  30.856 +0.03 +0.14    +0.295 HD
DOCKED: ENDBRANCH  40  42
DOCKED: ENDBRANCH  39  40
DOCKED: ENDBRANCH  27  38
DOCKED: BRANCH   8  44
DOCKED: ATOM     44  C   UNL d   1      13.495  43.949  21.670 -0.18 -0.03    +0.141 C 
DOCKED: BRANCH  44  45
DOCKED: ATOM     45  C   UNL d   1      14.737  43.206  21.255 -0.30 -0.08    +0.306 C 
DOCKED: ATOM     46  O   UNL d   1      14.788  42.091  20.766 -0.47 +0.09    -0.251 OA
DOCKED: BRANCH  45  47
DOCKED: ATOM     47  O   UNL d   1      15.861  43.903  21.505 -0.15 +0.13    -0.481 OA
DOCKED: ATOM     48  H   UNL d   1      15.792  44.153  22.451 +0.13 -0.05    +0.295 HD
DOCKED: ENDBRANCH  45  47
DOCKED: ENDBRANCH  44  45
DOCKED: ENDBRANCH   8  44
DOCKED: BRANCH  22  49
DOCKED: ATOM     49  C   UNL d   1      15.329  36.986  28.075 -0.23 -0.01    +0.048 C 
DOCKED: BRANCH  49  50
DOCKED: ATOM     50  C   UNL d   1      14.744  37.057  29.485 -0.13 -0.02    +0.125 C 
DOCKED: BRANCH  50  51
DOCKED: ATOM     51  C   UNL d   1      13.788  35.922  29.726 -0.10 -0.09    +0.305 C 
DOCKED: ATOM     52  O   UNL d   1      13.980  34.735  29.529 -0.19 +0.11    -0.251 OA
DOCKED: BRANCH  51  53
DOCKED: ATOM     53  O   UNL d   1      12.604  36.353  30.205 +0.00 +0.10    -0.481 OA
DOCKED: ATOM     54  H   UNL d   1      12.213  35.558  30.623 +0.05 -0.05    +0.295 HD
DOCKED: ENDBRANCH  51  53
DOCKED: ENDBRANCH  50  51
DOCKED: ENDBRANCH  49  50
DOCKED: ENDBRANCH  22  49
DOCKED: TORSDOF 13
DOCKED: TER
DOCKED: ENDMDL
________________________________________________________________________________


	BEGINNING GENETIC ALGORITHM DOCKING 12 of 100
Run: 12 Seed: 142775168 894276422 [ Run 12 of 100 GA/GALS ]
Beginning LAMARCKIAN GENETIC ALGORITHM (LGA), with a maximum of 25000000 energy evaluations.

Final-Value: -11.726


	FINAL GENETIC ALGORITHM DOCKED STATE
	_______________________________________________


Detailed state:  trans 31.095 35.200 2.899 quatxyzw -0.049101 -0.676787 0.533767 -0.504619 center 0.153 0.018 -0.028 ntor 13 120.6882 -26.2636 98.5962 -174.6931 -131.9534 5.4500 -35.4108 -77.1734 27.7080 150.4487 -53.2224 153.9030 154.9704
State:	 31.095  35.200   2.899  -0.057 -0.784  0.618 -119.388    120.69  -26.26   98.60 -174.69 -131.95    5.45  -35.41  -77.17   27.71  150.45  -53.22  153.90  154.97

DOCKED: MODEL       12
DOCKED: USER    Run = 12
DOCKED: USER    DPF = D:/Protein_go_brrr/autodock/final/6BB5/heme/dock.dpf
DOCKED: USER  
DOCKED: USER    Estimated Free Energy of Binding    =   -6.22 kcal/mol  [=(1)+(2)+(3)-(4)]
DOCKED: USER    Estimated Inhibition Constant, Ki   =   27.43 uM (micromolar)  [Temperature = 298.15 K]
DOCKED: USER    
DOCKED: USER    (1) Final Intermolecular Energy     =  -10.10 kcal/mol
DOCKED: USER        vdW + Hbond + desolv Energy     =   -9.56 kcal/mol
DOCKED: USER        Electrostatic Energy            =   -0.54 kcal/mol
DOCKED: USER    (2) Final Total Internal Energy     =   -1.62 kcal/mol
DOCKED: USER    (3) Torsional Free Energy           =   +3.88 kcal/mol
DOCKED: USER    (4) Unbound System's Energy  [=(2)] =   -1.62 kcal/mol
DOCKED: USER    
DOCKED: USER    
DOCKED: USER    NEWDPF move heme_opt.pdbqt
DOCKED: USER    NEWDPF about 0.153000 0.018000 -0.028000
DOCKED: USER    NEWDPF tran0 31.095130 35.200125 2.898592
DOCKED: USER    NEWDPF quaternion0 -0.049101 -0.676787 0.533767 -0.504619
DOCKED: USER    NEWDPF axisangle0 -0.056873 -0.783915 0.618257 -119.387826
DOCKED: USER    NEWDPF quat0 -0.056873 -0.783915 0.618257 -119.387826
DOCKED: USER    NEWDPF dihe0 120.69 -26.26 98.60 -174.69 -131.95 5.45 -35.41 -77.17 27.71 150.45 -53.22 153.90 154.97 
DOCKED: USER  keepresnum = 1 
DOCKED: USER  
DOCKED: REMARK  13 active torsions:
DOCKED: REMARK  status: ('A' for Active; 'I' for Inactive)
DOCKED: REMARK    1  A    between atoms: O_3  and  C_38 
DOCKED: REMARK    2  A    between atoms: O_4  and  C_40 
DOCKED: REMARK    3  A    between atoms: O_7  and  C_46 
DOCKED: REMARK    4  A    between atoms: O_9  and  C_48 
DOCKED: REMARK    5  A    between atoms: C_15  and  C_20 
DOCKED: REMARK    6  A    between atoms: C_16  and  C_23 
DOCKED: REMARK    7  A    between atoms: C_20  and  C_38 
DOCKED: REMARK    8  A    between atoms: C_23  and  C_40 
DOCKED: REMARK    9  A    between atoms: C_32  and  C_41 
DOCKED: REMARK   10  A    between atoms: C_37  and  C_45 
DOCKED: REMARK   11  A    between atoms: C_41  and  C_44 
DOCKED: REMARK   12  A    between atoms: C_44  and  C_46 
DOCKED: REMARK   13  A    between atoms: C_47  and  C_48 
DOCKED: USER                              x       y       z     vdW  Elec       q    Type
DOCKED: USER                           _______ _______ _______ _____ _____    ______ ____
DOCKED: ROOT
DOCKED: ATOM      1  O   UNL d   1      32.547  32.087  -1.893 -0.00 -0.06    -0.289 OA
DOCKED: ATOM      2  O   UNL d   1      35.836  32.593   4.839 -0.40 -0.03    -0.289 OA
DOCKED: ATOM      3  N   UNL d   1      31.394  34.176   0.597 -0.04 -0.12    -0.247 NA
DOCKED: ATOM      4  N   UNL d   1      33.104  33.475   2.924 -0.10 -0.08    -0.247 NA
DOCKED: ATOM      5  N   UNL d   1      31.266  34.924   4.594 -0.09 -0.09    -0.354 N 
DOCKED: ATOM      6  N   UNL d   1      29.487  35.630   2.178 -0.03 -0.10    -0.354 N 
DOCKED: ATOM      7  C   UNL d   1      30.590  33.526  -1.625 -0.02 +0.03    +0.084 A 
DOCKED: ATOM      8  C   UNL d   1      35.317  32.554   2.448 -0.25 +0.00    +0.084 A 
DOCKED: ATOM      9  C   UNL d   1      33.954  33.031   1.935 -0.13 +0.01    +0.058 A 
DOCKED: ATOM     10  C   UNL d   1      30.388  34.336  -0.340 -0.05 +0.03    +0.058 A 
DOCKED: ATOM     11  C   UNL d   1      31.899  32.896  -1.255 -0.02 +0.06    +0.193 A 
DOCKED: ATOM     12  C   UNL d   1      32.293  33.389   0.103 -0.05 +0.04    +0.109 A 
DOCKED: ATOM     13  C   UNL d   1      35.070  32.775   3.913 -0.31 +0.02    +0.193 A 
DOCKED: ATOM     14  C   UNL d   1      29.537  32.426  -1.783 -0.05 +0.01    +0.026 C 
DOCKED: ATOM     15  C   UNL d   1      33.603  32.971   0.642 -0.08 +0.01    +0.055 C 
DOCKED: ATOM     16  C   UNL d   1      36.450  33.480   1.994 -0.36 -0.00    +0.026 C 
DOCKED: ATOM     17  C   UNL d   1      33.691  33.329   4.068 -0.29 +0.03    +0.109 A 
DOCKED: ATOM     18  C   UNL d   1      29.356  35.189  -0.203 -0.08 +0.02    +0.050 C 
DOCKED: ATOM     19  C   UNL d   1      29.135  36.039   0.911 -0.09 +0.01    +0.045 A 
DOCKED: ATOM     20  C   UNL d   1      32.033  34.321   5.556 -0.36 +0.01    +0.045 A 
DOCKED: ATOM     21  C   UNL d   1      33.153  33.606   5.409 -0.31 +0.01    +0.057 C 
DOCKED: ATOM     22  C   UNL d   1      30.272  35.368   6.566 -0.37 +0.00    -0.019 A 
DOCKED: ATOM     23  C   UNL d   1      30.180  35.581   5.107 -0.19 +0.00    +0.045 A 
DOCKED: ATOM     24  C   UNL d   1      31.372  34.622   6.825 -0.48 -0.00    -0.022 A 
DOCKED: ATOM     25  C   UNL d   1      29.103  36.565   3.111 -0.15 +0.00    +0.049 A 
DOCKED: ATOM     26  C   UNL d   1      28.540  37.286   1.021 -0.14 -0.00    -0.018 A 
DOCKED: ATOM     27  C   UNL d   1      28.540  37.622   2.410 -0.19 -0.00    +0.003 A 
DOCKED: ATOM     28  C   UNL d   1      29.218  36.295   4.502 -0.24 -0.01    +0.052 C 
DOCKED: ATOM     29  C   UNL d   1      31.894  34.157   8.142 -0.04 -0.01    +0.046 C 
DOCKED: ATOM     30  C   UNL d   1      28.005  38.119  -0.095 -0.12 +0.00    +0.046 C 
DOCKED: ATOM     31  H   UNL d   1      31.552  34.930   3.621 +0.06 +0.05    +0.166 HD
DOCKED: ATOM     32  H   UNL d   1      29.930  34.741   2.376 +0.04 +0.09    +0.166 HD
DOCKED: ENDROOT
DOCKED: BRANCH   7  33
DOCKED: ATOM     33  C   UNL d   1      30.735  34.354  -2.907 +0.00 +0.02    +0.141 C 
DOCKED: BRANCH  33  34
DOCKED: ATOM     34  C   UNL d   1      32.085  35.008  -3.024 +0.01 +0.03    +0.306 C 
DOCKED: ATOM     35  O   UNL d   1      32.454  36.011  -2.436 +0.00 -0.02    -0.251 OA
DOCKED: BRANCH  34  36
DOCKED: ATOM     36  O   UNL d   1      32.902  34.362  -3.875 +0.00 -0.03    -0.481 OA
DOCKED: ATOM     37  H   UNL d   1      33.013  33.470  -3.481 +0.00 +0.03    +0.295 HD
DOCKED: ENDBRANCH  34  36
DOCKED: ENDBRANCH  33  34
DOCKED: ENDBRANCH   7  33
DOCKED: BRANCH  27  38
DOCKED: ATOM     38  C   UNL d   1      28.002  38.825   2.968 -0.33 -0.01    +0.017 C 
DOCKED: ATOM     39  C   UNL d   1      27.246  39.716   2.307 -0.32 -0.01    +0.092 C 
DOCKED: BRANCH  39  40
DOCKED: ATOM     40  C   UNL d   1      26.742  40.903   3.001 -0.29 -0.04    +0.330 C 
DOCKED: ATOM     41  O   UNL d   1      26.966  41.247   4.146 -0.44 +0.07    -0.246 OA
DOCKED: BRANCH  40  42
DOCKED: ATOM     42  O   UNL d   1      25.961  41.621   2.179 -0.20 -0.04    -0.477 OA
DOCKED: ATOM     43  H   UNL d   1      25.356  42.097   2.786 -0.32 -0.05    +0.295 HD
DOCKED: ENDBRANCH  40  42
DOCKED: ENDBRANCH  39  40
DOCKED: ENDBRANCH  27  38
DOCKED: BRANCH   8  44
DOCKED: ATOM     44  C   UNL d   1      35.653  31.087   2.163 -0.24 +0.01    +0.141 C 
DOCKED: BRANCH  44  45
DOCKED: ATOM     45  C   UNL d   1      36.581  30.906   0.991 -0.15 -0.00    +0.306 C 
DOCKED: ATOM     46  O   UNL d   1      36.276  30.936  -0.189 -0.07 -0.01    -0.251 OA
DOCKED: BRANCH  45  47
DOCKED: ATOM     47  O   UNL d   1      37.849  30.668   1.371 -0.12 +0.06    -0.481 OA
DOCKED: ATOM     48  H   UNL d   1      38.222  31.555   1.560 -0.28 -0.11    +0.295 HD
DOCKED: ENDBRANCH  45  47
DOCKED: ENDBRANCH  44  45
DOCKED: ENDBRANCH   8  44
DOCKED: BRANCH  22  49
DOCKED: ATOM     49  C   UNL d   1      29.278  35.895   7.559 -0.48 -0.03    +0.048 C 
DOCKED: BRANCH  49  50
DOCKED: ATOM     50  C   UNL d   1      27.945  35.150   7.480 -0.31 -0.07    +0.125 C 
DOCKED: BRANCH  50  51
DOCKED: ATOM     51  C   UNL d   1      27.530  34.648   8.833 -0.29 -0.09    +0.305 C 
DOCKED: ATOM     52  O   UNL d   1      27.885  33.622   9.387 -0.35 +0.01    -0.251 OA
DOCKED: BRANCH  51  53
DOCKED: ATOM     53  O   UNL d   1      26.655  35.480   9.433 -0.16 +0.31    -0.481 OA
DOCKED: ATOM     54  H   UNL d   1      26.474  36.164   8.755 -0.29 -0.50    +0.295 HD
DOCKED: ENDBRANCH  51  53
DOCKED: ENDBRANCH  50  51
DOCKED: ENDBRANCH  49  50
DOCKED: ENDBRANCH  22  49
DOCKED: TORSDOF 13
DOCKED: TER
DOCKED: ENDMDL
________________________________________________________________________________


	BEGINNING GENETIC ALGORITHM DOCKING 13 of 100
Run: 13 Seed: 1439060441 363540534 [ Run 13 of 100 GA/GALS ]
Beginning LAMARCKIAN GENETIC ALGORITHM (LGA), with a maximum of 25000000 energy evaluations.

Final-Value: -9.989


	FINAL GENETIC ALGORITHM DOCKED STATE
	_______________________________________________


Detailed state:  trans 16.384 22.768 -10.923 quatxyzw 0.760471 0.615689 0.177524 -0.105340 center 0.153 0.018 -0.028 ntor 13 91.1473 13.3123 -100.1386 12.0144 -151.3305 -153.2176 125.6951 -16.3851 23.3261 -28.0924 61.0820 -22.3241 122.7208
State:	 16.384  22.768 -10.923   0.765  0.619  0.179 -167.907     91.15   13.31 -100.14   12.01 -151.33 -153.22  125.70  -16.39   23.33  -28.09   61.08  -22.32  122.72

DOCKED: MODEL       13
DOCKED: USER    Run = 13
DOCKED: USER    DPF = D:/Protein_go_brrr/autodock/final/6BB5/heme/dock.dpf
DOCKED: USER  
DOCKED: USER    Estimated Free Energy of Binding    =   -3.48 kcal/mol  [=(1)+(2)+(3)-(4)]
DOCKED: USER    Estimated Inhibition Constant, Ki   =    2.83 mM (millimolar)  [Temperature = 298.15 K]
DOCKED: USER    
DOCKED: USER    (1) Final Intermolecular Energy     =   -7.35 kcal/mol
DOCKED: USER        vdW + Hbond + desolv Energy     =   -6.96 kcal/mol
DOCKED: USER        Electrostatic Energy            =   -0.39 kcal/mol
DOCKED: USER    (2) Final Total Internal Energy     =   -2.63 kcal/mol
DOCKED: USER    (3) Torsional Free Energy           =   +3.88 kcal/mol
DOCKED: USER    (4) Unbound System's Energy  [=(2)] =   -2.63 kcal/mol
DOCKED: USER    
DOCKED: USER    
DOCKED: USER    NEWDPF move heme_opt.pdbqt
DOCKED: USER    NEWDPF about 0.153000 0.018000 -0.028000
DOCKED: USER    NEWDPF tran0 16.383717 22.768319 -10.922607
DOCKED: USER    NEWDPF quaternion0 0.760471 0.615689 0.177524 -0.105340
DOCKED: USER    NEWDPF axisangle0 0.764726 0.619133 0.178517 -167.906533
DOCKED: USER    NEWDPF quat0 0.764726 0.619133 0.178517 -167.906533
DOCKED: USER    NEWDPF dihe0 91.15 13.31 -100.14 12.01 -151.33 -153.22 125.70 -16.39 23.33 -28.09 61.08 -22.32 122.72 
DOCKED: USER  keepresnum = 1 
DOCKED: USER  
DOCKED: REMARK  13 active torsions:
DOCKED: REMARK  status: ('A' for Active; 'I' for Inactive)
DOCKED: REMARK    1  A    between atoms: O_3  and  C_38 
DOCKED: REMARK    2  A    between atoms: O_4  and  C_40 
DOCKED: REMARK    3  A    between atoms: O_7  and  C_46 
DOCKED: REMARK    4  A    between atoms: O_9  and  C_48 
DOCKED: REMARK    5  A    between atoms: C_15  and  C_20 
DOCKED: REMARK    6  A    between atoms: C_16  and  C_23 
DOCKED: REMARK    7  A    between atoms: C_20  and  C_38 
DOCKED: REMARK    8  A    between atoms: C_23  and  C_40 
DOCKED: REMARK    9  A    between atoms: C_32  and  C_41 
DOCKED: REMARK   10  A    between atoms: C_37  and  C_45 
DOCKED: REMARK   11  A    between atoms: C_41  and  C_44 
DOCKED: REMARK   12  A    between atoms: C_44  and  C_46 
DOCKED: REMARK   13  A    between atoms: C_47  and  C_48 
DOCKED: USER                              x       y       z     vdW  Elec       q    Type
DOCKED: USER                           _______ _______ _______ _____ _____    ______ ____
DOCKED: ROOT
DOCKED: ATOM      1  O   UNL d   1      17.158  16.971 -11.663 -0.05 +0.17    -0.289 OA
DOCKED: ATOM      2  O   UNL d   1      10.921  21.153 -11.687 -0.18 +0.05    -0.289 OA
DOCKED: ATOM      3  N   UNL d   1      17.181  20.363 -11.041 -0.12 +0.17    -0.247 NA
DOCKED: ATOM      4  N   UNL d   1      14.369  21.172 -11.560 -0.11 +0.15    -0.247 NA
DOCKED: ATOM      5  N   UNL d   1      15.253  23.908 -11.556 -0.10 +0.15    -0.354 N 
DOCKED: ATOM      6  N   UNL d   1      18.170  23.059 -11.037 -0.09 +0.11    -0.354 N 
DOCKED: ATOM      7  C   UNL d   1      18.906  18.646 -11.330 -0.07 -0.04    +0.084 A 
DOCKED: ATOM      8  C   UNL d   1      12.645  19.464 -11.281 -0.14 -0.04    +0.084 A 
DOCKED: ATOM      9  C   UNL d   1      14.130  19.840 -11.308 -0.17 -0.04    +0.058 A 
DOCKED: ATOM     10  C   UNL d   1      18.542  20.112 -11.074 -0.10 -0.03    +0.058 A 
DOCKED: ATOM     11  C   UNL d   1      17.509  18.111 -11.418 -0.08 -0.13    +0.193 A 
DOCKED: ATOM     12  C   UNL d   1      16.554  19.244 -11.201 -0.14 -0.09    +0.109 A 
DOCKED: ATOM     13  C   UNL d   1      12.087  20.822 -11.600 -0.14 -0.08    +0.193 A 
DOCKED: ATOM     14  C   UNL d   1      19.597  18.454 -12.682 -0.02 -0.01    +0.026 C 
DOCKED: ATOM     15  C   UNL d   1      15.110  18.937 -11.152 -0.16 -0.05    +0.055 C 
DOCKED: ATOM     16  C   UNL d   1      12.187  19.062  -9.875 -0.32 -0.01    +0.026 C 
DOCKED: ATOM     17  C   UNL d   1      13.235  21.766 -11.753 -0.13 -0.07    +0.109 A 
DOCKED: ATOM     18  C   UNL d   1      19.487  21.036 -10.815 -0.11 -0.02    +0.050 C 
DOCKED: ATOM     19  C   UNL d   1      19.241  22.393 -10.485 -0.15 -0.01    +0.045 A 
DOCKED: ATOM     20  C   UNL d   1      13.972  24.075 -12.015 -0.24 -0.03    +0.045 A 
DOCKED: ATOM     21  C   UNL d   1      12.993  23.170 -12.114 -0.22 -0.04    +0.057 C 
DOCKED: ATOM     22  C   UNL d   1      15.068  26.075 -12.142 -0.26 +0.01    -0.019 A 
DOCKED: ATOM     23  C   UNL d   1      15.991  25.061 -11.595 -0.17 -0.01    +0.045 A 
DOCKED: ATOM     24  C   UNL d   1      13.874  25.486 -12.388 -0.29 +0.01    -0.022 A 
DOCKED: ATOM     25  C   UNL d   1      18.174  24.381 -10.654 -0.15 -0.01    +0.049 A 
DOCKED: ATOM     26  C   UNL d   1      19.937  23.294  -9.694 -0.16 +0.00    -0.018 A 
DOCKED: ATOM     27  C   UNL d   1      19.247  24.543  -9.789 -0.20 -0.00    +0.003 A 
DOCKED: ATOM     28  C   UNL d   1      17.256  25.307 -11.221 -0.09 -0.01    +0.052 C 
DOCKED: ATOM     29  C   UNL d   1      12.627  26.096 -12.930 -0.32 -0.03    +0.046 C 
DOCKED: ATOM     30  C   UNL d   1      21.165  23.015  -8.896 -0.10 -0.01    +0.046 C 
DOCKED: ATOM     31  H   UNL d   1      15.559  23.026 -11.160 +0.05 -0.08    +0.166 HD
DOCKED: ATOM     32  H   UNL d   1      17.507  22.628 -11.669 +0.04 -0.05    +0.166 HD
DOCKED: ENDROOT
DOCKED: BRANCH   7  33
DOCKED: ATOM     33  C   UNL d   1      19.677  17.954 -10.201 -0.08 -0.07    +0.141 C 
DOCKED: BRANCH  33  34
DOCKED: ATOM     34  C   UNL d   1      18.823  17.698  -8.988 -0.09 -0.29    +0.306 C 
DOCKED: ATOM     35  O   UNL d   1      18.763  18.395  -7.990 -0.08 +0.25    -0.251 OA
DOCKED: BRANCH  34  36
DOCKED: ATOM     36  O   UNL d   1      18.088  16.577  -9.099 -0.05 +0.63    -0.481 OA
DOCKED: ATOM     37  H   UNL d   1      17.240  16.876  -9.490 -0.03 -0.54    +0.295 HD
DOCKED: ENDBRANCH  34  36
DOCKED: ENDBRANCH  33  34
DOCKED: ENDBRANCH   7  33
DOCKED: BRANCH  27  38
DOCKED: ATOM     38  C   UNL d   1      19.640  25.754  -9.135 -0.26 -0.00    +0.017 C 
DOCKED: ATOM     39  C   UNL d   1      18.870  26.844  -8.994 -0.26 -0.03    +0.092 C 
DOCKED: BRANCH  39  40
DOCKED: ATOM     40  C   UNL d   1      19.387  28.017  -8.286 -0.27 -0.18    +0.330 C 
DOCKED: ATOM     41  O   UNL d   1      18.750  28.883  -7.717 -0.48 +0.14    -0.246 OA
DOCKED: BRANCH  40  42
DOCKED: ATOM     42  O   UNL d   1      20.728  28.029  -8.330 -0.09 +0.43    -0.477 OA
DOCKED: ATOM     43  H   UNL d   1      20.979  28.703  -7.666 -0.25 -0.62    +0.295 HD
DOCKED: ENDBRANCH  40  42
DOCKED: ENDBRANCH  39  40
DOCKED: ENDBRANCH  27  38
DOCKED: BRANCH   8  44
DOCKED: ATOM     44  C   UNL d   1      12.206  18.430 -12.323 -0.03 -0.03    +0.141 C 
DOCKED: BRANCH  44  45
DOCKED: ATOM     45  C   UNL d   1      12.042  19.011 -13.703 +0.01 -0.04    +0.306 C 
DOCKED: ATOM     46  O   UNL d   1      12.928  19.222 -14.512 +0.00 +0.04    -0.251 OA
DOCKED: BRANCH  45  47
DOCKED: ATOM     47  O   UNL d   1      10.763  19.324 -13.981 +0.01 +0.01    -0.481 OA
DOCKED: ATOM     48  H   UNL d   1      10.612  20.178 -13.524 +0.04 -0.01    +0.295 HD
DOCKED: ENDBRANCH  45  47
DOCKED: ENDBRANCH  44  45
DOCKED: ENDBRANCH   8  44
DOCKED: BRANCH  22  49
DOCKED: ATOM     49  C   UNL d   1      15.440  27.508 -12.386 -0.19 -0.01    +0.048 C 
DOCKED: BRANCH  49  50
DOCKED: ATOM     50  C   UNL d   1      16.859  27.642 -12.939 -0.14 -0.02    +0.125 C 
DOCKED: BRANCH  50  51
DOCKED: ATOM     51  C   UNL d   1      17.729  28.427 -11.999 -0.10 -0.05    +0.305 C 
DOCKED: ATOM     52  O   UNL d   1      17.374  29.224 -11.148 -0.24 +0.05    -0.251 OA
DOCKED: BRANCH  51  53
DOCKED: ATOM     53  O   UNL d   1      19.038  28.171 -12.191 +0.01 +0.08    -0.481 OA
DOCKED: ATOM     54  H   UNL d   1      19.477  28.580 -11.416 +0.08 -0.06    +0.295 HD
DOCKED: ENDBRANCH  51  53
DOCKED: ENDBRANCH  50  51
DOCKED: ENDBRANCH  49  50
DOCKED: ENDBRANCH  22  49
DOCKED: TORSDOF 13
DOCKED: TER
DOCKED: ENDMDL
________________________________________________________________________________


	BEGINNING GENETIC ALGORITHM DOCKING 14 of 100
Run: 14 Seed: 1854901753 1366213029 [ Run 14 of 100 GA/GALS ]
Beginning LAMARCKIAN GENETIC ALGORITHM (LGA), with a maximum of 25000000 energy evaluations.

Final-Value: -11.694


	FINAL GENETIC ALGORITHM DOCKED STATE
	_______________________________________________


Detailed state:  trans 18.838 25.735 -10.001 quatxyzw -0.159856 -0.340618 0.267291 -0.887120 center 0.153 0.018 -0.028 ntor 13 -101.9721 142.5041 164.4946 -164.7280 29.8270 -45.0021 -52.7488 -78.4185 130.8758 -110.6535 -144.2011 11.4931 -15.3722
State:	 18.838  25.735 -10.001  -0.346 -0.738  0.579 -54.973   -101.97  142.50  164.49 -164.73   29.83  -45.00  -52.75  -78.42  130.88 -110.65 -144.20   11.49  -15.37

DOCKED: MODEL       14
DOCKED: USER    Run = 14
DOCKED: USER    DPF = D:/Protein_go_brrr/autodock/final/6BB5/heme/dock.dpf
DOCKED: USER  
DOCKED: USER    Estimated Free Energy of Binding    =   -4.60 kcal/mol  [=(1)+(2)+(3)-(4)]
DOCKED: USER    Estimated Inhibition Constant, Ki   =  426.87 uM (micromolar)  [Temperature = 298.15 K]
DOCKED: USER    
DOCKED: USER    (1) Final Intermolecular Energy     =   -8.47 kcal/mol
DOCKED: USER        vdW + Hbond + desolv Energy     =   -7.68 kcal/mol
DOCKED: USER        Electrostatic Energy            =   -0.80 kcal/mol
DOCKED: USER    (2) Final Total Internal Energy     =   -3.22 kcal/mol
DOCKED: USER    (3) Torsional Free Energy           =   +3.88 kcal/mol
DOCKED: USER    (4) Unbound System's Energy  [=(2)] =   -3.22 kcal/mol
DOCKED: USER    
DOCKED: USER    
DOCKED: USER    NEWDPF move heme_opt.pdbqt
DOCKED: USER    NEWDPF about 0.153000 0.018000 -0.028000
DOCKED: USER    NEWDPF tran0 18.837558 25.734958 -10.000949
DOCKED: USER    NEWDPF quaternion0 -0.159856 -0.340618 0.267291 -0.887120
DOCKED: USER    NEWDPF axisangle0 -0.346353 -0.738004 0.579129 -54.972973
DOCKED: USER    NEWDPF quat0 -0.346353 -0.738004 0.579129 -54.972973
DOCKED: USER    NEWDPF dihe0 -101.97 142.50 164.49 -164.73 29.83 -45.00 -52.75 -78.42 130.88 -110.65 -144.20 11.49 -15.37 
DOCKED: USER  keepresnum = 1 
DOCKED: USER  
DOCKED: REMARK  13 active torsions:
DOCKED: REMARK  status: ('A' for Active; 'I' for Inactive)
DOCKED: REMARK    1  A    between atoms: O_3  and  C_38 
DOCKED: REMARK    2  A    between atoms: O_4  and  C_40 
DOCKED: REMARK    3  A    between atoms: O_7  and  C_46 
DOCKED: REMARK    4  A    between atoms: O_9  and  C_48 
DOCKED: REMARK    5  A    between atoms: C_15  and  C_20 
DOCKED: REMARK    6  A    between atoms: C_16  and  C_23 
DOCKED: REMARK    7  A    between atoms: C_20  and  C_38 
DOCKED: REMARK    8  A    between atoms: C_23  and  C_40 
DOCKED: REMARK    9  A    between atoms: C_32  and  C_41 
DOCKED: REMARK   10  A    between atoms: C_37  and  C_45 
DOCKED: REMARK   11  A    between atoms: C_41  and  C_44 
DOCKED: REMARK   12  A    between atoms: C_44  and  C_46 
DOCKED: REMARK   13  A    between atoms: C_47  and  C_48 
DOCKED: USER                              x       y       z     vdW  Elec       q    Type
DOCKED: USER                           _______ _______ _______ _____ _____    ______ ____
DOCKED: ROOT
DOCKED: ATOM      1  O   UNL d   1      14.266  23.890 -13.234 -0.04 +0.11    -0.289 OA
DOCKED: ATOM      2  O   UNL d   1      20.036  20.119 -10.255 -0.06 +0.12    -0.289 OA
DOCKED: ATOM      3  N   UNL d   1      16.816  25.439 -11.504 -0.08 +0.06    -0.247 NA
DOCKED: ATOM      4  N   UNL d   1      18.424  23.163 -10.474 -0.15 +0.08    -0.247 NA
DOCKED: ATOM      5  N   UNL d   1      19.766  25.018  -8.735 -0.11 +0.09    -0.354 N 
DOCKED: ATOM      6  N   UNL d   1      18.080  27.370  -9.795 -0.05 +0.10    -0.354 N 
DOCKED: ATOM      7  C   UNL d   1      14.685  26.173 -12.468 -0.23 -0.03    +0.084 A 
DOCKED: ATOM      8  C   UNL d   1      18.327  21.068 -11.728 -0.08 -0.03    +0.084 A 
DOCKED: ATOM      9  C   UNL d   1      17.824  22.500 -11.521 -0.14 -0.02    +0.058 A 
DOCKED: ATOM     10  C   UNL d   1      15.964  26.514 -11.696 -0.20 -0.01    +0.058 A 
DOCKED: ATOM     11  C   UNL d   1      14.975  24.720 -12.694 -0.09 -0.07    +0.193 A 
DOCKED: ATOM     12  C   UNL d   1      16.306  24.403 -12.085 -0.12 -0.03    +0.109 A 
DOCKED: ATOM     13  C   UNL d   1      19.297  21.027 -10.581 -0.05 -0.08    +0.193 A 
DOCKED: ATOM     14  C   UNL d   1      13.435  26.299 -11.593 -0.48 -0.02    +0.026 C 
DOCKED: ATOM     15  C   UNL d   1      16.846  23.040 -12.265 -0.12 -0.02    +0.055 C 
DOCKED: ATOM     16  C   UNL d   1      19.107  20.924 -13.038 -0.03 -0.01    +0.026 C 
DOCKED: ATOM     17  C   UNL d   1      19.255  22.355  -9.897 -0.13 -0.04    +0.109 A 
DOCKED: ATOM     18  C   UNL d   1      16.248  27.777 -11.330 -0.22 -0.01    +0.050 C 
DOCKED: ATOM     19  C   UNL d   1      17.441  28.199 -10.689 -0.25 -0.01    +0.045 A 
DOCKED: ATOM     20  C   UNL d   1      20.239  23.835  -8.228 -0.20 -0.01    +0.045 A 
DOCKED: ATOM     21  C   UNL d   1      20.077  22.596  -8.702 -0.21 -0.02    +0.057 C 
DOCKED: ATOM     22  C   UNL d   1      20.923  25.544  -6.875 -0.23 +0.01    -0.019 A 
DOCKED: ATOM     23  C   UNL d   1      20.128  26.106  -7.986 -0.28 -0.02    +0.045 A 
DOCKED: ATOM     24  C   UNL d   1      20.986  24.200  -7.025 -0.18 +0.01    -0.022 A 
DOCKED: ATOM     25  C   UNL d   1      19.158  28.010  -9.228 -0.29 -0.02    +0.049 A 
DOCKED: ATOM     26  C   UNL d   1      18.142  29.394 -10.732 -0.26 +0.00    -0.018 A 
DOCKED: ATOM     27  C   UNL d   1      19.237  29.262  -9.822 -0.25 -0.00    +0.003 A 
DOCKED: ATOM     28  C   UNL d   1      19.881  27.413  -8.160 -0.35 -0.03    +0.052 C 
DOCKED: ATOM     29  C   UNL d   1      21.681  23.198  -6.168 -0.13 -0.01    +0.046 C 
DOCKED: ATOM     30  C   UNL d   1      17.819  30.587 -11.567 -0.22 -0.01    +0.046 C 
DOCKED: ATOM     31  H   UNL d   1      19.273  25.050  -9.621 +0.05 -0.04    +0.166 HD
DOCKED: ATOM     32  H   UNL d   1      17.760  26.436  -9.569 +0.12 -0.04    +0.166 HD
DOCKED: ENDROOT
DOCKED: BRANCH   7  33
DOCKED: ATOM     33  C   UNL d   1      14.512  26.901 -13.805 -0.15 -0.03    +0.141 C 
DOCKED: BRANCH  33  34
DOCKED: ATOM     34  C   UNL d   1      13.255  26.495 -14.527 -0.09 -0.08    +0.306 C 
DOCKED: ATOM     35  O   UNL d   1      12.140  26.952 -14.343 -0.20 +0.08    -0.251 OA
DOCKED: BRANCH  34  36
DOCKED: ATOM     36  O   UNL d   1      13.471  25.537 -15.445 +0.01 +0.09    -0.481 OA
DOCKED: ATOM     37  H   UNL d   1      13.585  24.715 -14.921 +0.05 -0.07    +0.295 HD
DOCKED: ENDBRANCH  34  36
DOCKED: ENDBRANCH  33  34
DOCKED: ENDBRANCH   7  33
DOCKED: BRANCH  27  38
DOCKED: ATOM     38  C   UNL d   1      20.208  30.277  -9.547 -0.22 -0.01    +0.017 C 
DOCKED: ATOM     39  C   UNL d   1      21.537  30.093  -9.533 -0.08 -0.06    +0.092 C 
DOCKED: BRANCH  39  40
DOCKED: ATOM     40  C   UNL d   1      22.428  31.223  -9.253 -0.03 -0.20    +0.330 C 
DOCKED: ATOM     41  O   UNL d   1      22.387  32.339  -9.735 -0.03 +0.07    -0.246 OA
DOCKED: BRANCH  40  42
DOCKED: ATOM     42  O   UNL d   1      23.347  30.872  -8.341 -0.03 +0.46    -0.477 OA
DOCKED: ATOM     43  H   UNL d   1      22.855  30.293  -7.723 -0.36 -0.71    +0.295 HD
DOCKED: ENDBRANCH  40  42
DOCKED: ENDBRANCH  39  40
DOCKED: ENDBRANCH  27  38
DOCKED: BRANCH   8  44
DOCKED: ATOM     44  C   UNL d   1      17.268  19.969 -11.590 -0.13 -0.08    +0.141 C 
DOCKED: BRANCH  44  45
DOCKED: ATOM     45  C   UNL d   1      17.855  18.607 -11.332 -0.08 -0.20    +0.306 C 
DOCKED: ATOM     46  O   UNL d   1      18.074  17.741 -12.161 -0.02 +0.10    -0.251 OA
DOCKED: BRANCH  45  47
DOCKED: ATOM     47  O   UNL d   1      18.111  18.396 -10.028 -0.12 +0.49    -0.481 OA
DOCKED: ATOM     48  H   UNL d   1      18.092  19.289  -9.624 -0.40 -0.37    +0.295 HD
DOCKED: ENDBRANCH  45  47
DOCKED: ENDBRANCH  44  45
DOCKED: ENDBRANCH   8  44
DOCKED: BRANCH  22  49
DOCKED: ATOM     49  C   UNL d   1      21.528  26.364  -5.774 -0.03 -0.03    +0.048 C 
DOCKED: BRANCH  49  50
DOCKED: ATOM     50  C   UNL d   1      23.009  26.649  -6.025 -0.16 -0.10    +0.125 C 
DOCKED: BRANCH  50  51
DOCKED: ATOM     51  C   UNL d   1      23.272  26.871  -7.487 -0.06 -0.20    +0.305 C 
DOCKED: ATOM     52  O   UNL d   1      23.477  26.027  -8.342 -0.02 +0.09    -0.251 OA
DOCKED: BRANCH  51  53
DOCKED: ATOM     53  O   UNL d   1      23.277  28.180  -7.806 +0.04 +0.55    -0.481 OA
DOCKED: ATOM     54  H   UNL d   1      23.345  28.636  -6.940 -0.48 -0.59    +0.295 HD
DOCKED: ENDBRANCH  51  53
DOCKED: ENDBRANCH  50  51
DOCKED: ENDBRANCH  49  50
DOCKED: ENDBRANCH  22  49
DOCKED: TORSDOF 13
DOCKED: TER
DOCKED: ENDMDL
________________________________________________________________________________


	BEGINNING GENETIC ALGORITHM DOCKING 15 of 100
Run: 15 Seed: 790619742 1798859864 [ Run 15 of 100 GA/GALS ]
Beginning LAMARCKIAN GENETIC ALGORITHM (LGA), with a maximum of 25000000 energy evaluations.

Final-Value: -12.603


	FINAL GENETIC ALGORITHM DOCKED STATE
	_______________________________________________


Detailed state:  trans 18.593 47.348 -4.788 quatxyzw -0.909897 0.001823 -0.285776 -0.300693 center 0.153 0.018 -0.028 ntor 13 115.4524 -145.9434 -124.8242 -10.1475 32.6866 -7.0394 136.4963 8.2913 150.1904 -51.3845 62.4443 -73.5722 121.1047
State:	 18.593  47.348  -4.788  -0.954  0.002 -0.300 -145.002    115.45 -145.94 -124.82  -10.15   32.69   -7.04  136.50    8.29  150.19  -51.38   62.44  -73.57  121.10

DOCKED: MODEL       15
DOCKED: USER    Run = 15
DOCKED: USER    DPF = D:/Protein_go_brrr/autodock/final/6BB5/heme/dock.dpf
DOCKED: USER  
DOCKED: USER    Estimated Free Energy of Binding    =   -5.24 kcal/mol  [=(1)+(2)+(3)-(4)]
DOCKED: USER    Estimated Inhibition Constant, Ki   =  145.30 uM (micromolar)  [Temperature = 298.15 K]
DOCKED: USER    
DOCKED: USER    (1) Final Intermolecular Energy     =   -9.11 kcal/mol
DOCKED: USER        vdW + Hbond + desolv Energy     =   -8.82 kcal/mol
DOCKED: USER        Electrostatic Energy            =   -0.30 kcal/mol
DOCKED: USER    (2) Final Total Internal Energy     =   -3.49 kcal/mol
DOCKED: USER    (3) Torsional Free Energy           =   +3.88 kcal/mol
DOCKED: USER    (4) Unbound System's Energy  [=(2)] =   -3.49 kcal/mol
DOCKED: USER    
DOCKED: USER    
DOCKED: USER    NEWDPF move heme_opt.pdbqt
DOCKED: USER    NEWDPF about 0.153000 0.018000 -0.028000
DOCKED: USER    NEWDPF tran0 18.592587 47.347934 -4.788282
DOCKED: USER    NEWDPF quaternion0 -0.909897 0.001823 -0.285776 -0.300693
DOCKED: USER    NEWDPF axisangle0 -0.954049 0.001911 -0.299643 -145.001564
DOCKED: USER    NEWDPF quat0 -0.954049 0.001911 -0.299643 -145.001564
DOCKED: USER    NEWDPF dihe0 115.45 -145.94 -124.82 -10.15 32.69 -7.04 136.50 8.29 150.19 -51.38 62.44 -73.57 121.10 
DOCKED: USER  keepresnum = 1 
DOCKED: USER  
DOCKED: REMARK  13 active torsions:
DOCKED: REMARK  status: ('A' for Active; 'I' for Inactive)
DOCKED: REMARK    1  A    between atoms: O_3  and  C_38 
DOCKED: REMARK    2  A    between atoms: O_4  and  C_40 
DOCKED: REMARK    3  A    between atoms: O_7  and  C_46 
DOCKED: REMARK    4  A    between atoms: O_9  and  C_48 
DOCKED: REMARK    5  A    between atoms: C_15  and  C_20 
DOCKED: REMARK    6  A    between atoms: C_16  and  C_23 
DOCKED: REMARK    7  A    between atoms: C_20  and  C_38 
DOCKED: REMARK    8  A    between atoms: C_23  and  C_40 
DOCKED: REMARK    9  A    between atoms: C_32  and  C_41 
DOCKED: REMARK   10  A    between atoms: C_37  and  C_45 
DOCKED: REMARK   11  A    between atoms: C_41  and  C_44 
DOCKED: REMARK   12  A    between atoms: C_44  and  C_46 
DOCKED: REMARK   13  A    between atoms: C_47  and  C_48 
DOCKED: USER                              x       y       z     vdW  Elec       q    Type
DOCKED: USER                           _______ _______ _______ _____ _____    ______ ____
DOCKED: ROOT
DOCKED: ATOM      1  O   UNL d   1      14.520  47.301  -9.051 -0.04 +0.04    -0.289 OA
DOCKED: ATOM      2  O   UNL d   1      14.730  50.921  -2.475 -0.72 +0.04    -0.289 OA
DOCKED: ATOM      3  N   UNL d   1      17.090  46.910  -6.784 -0.10 +0.02    -0.247 NA
DOCKED: ATOM      4  N   UNL d   1      16.465  48.921  -4.689 -0.10 +0.05    -0.247 NA
DOCKED: ATOM      5  N   UNL d   1      19.125  48.545  -3.664 -0.04 +0.09    -0.354 N 
DOCKED: ATOM      6  N   UNL d   1      19.772  46.474  -5.854 -0.04 +0.01    -0.354 N 
DOCKED: ATOM      7  C   UNL d   1      16.667  46.132  -9.070 -0.14 -0.01    +0.084 A 
DOCKED: ATOM      8  C   UNL d   1      14.123  49.565  -4.420 -0.30 -0.02    +0.084 A 
DOCKED: ATOM      9  C   UNL d   1      15.192  48.787  -5.196 -0.22 -0.01    +0.058 A 
DOCKED: ATOM     10  C   UNL d   1      17.590  46.178  -7.849 -0.16 -0.00    +0.058 A 
DOCKED: ATOM     11  C   UNL d   1      15.548  46.951  -8.500 -0.10 -0.02    +0.193 A 
DOCKED: ATOM     12  C   UNL d   1      15.913  47.341  -7.101 -0.17 -0.01    +0.109 A 
DOCKED: ATOM     13  C   UNL d   1      15.031  50.194  -3.402 -0.25 -0.04    +0.193 A 
DOCKED: ATOM     14  C   UNL d   1      17.263  46.873 -10.269 -0.06 -0.00    +0.026 C 
DOCKED: ATOM     15  C   UNL d   1      14.915  48.081  -6.303 -0.27 -0.01    +0.055 C 
DOCKED: ATOM     16  C   UNL d   1      13.150  48.627  -3.700 -0.39 -0.01    +0.026 C 
DOCKED: ATOM     17  C   UNL d   1      16.424  49.730  -3.679 -0.23 -0.02    +0.109 A 
DOCKED: ATOM     18  C   UNL d   1      18.742  45.482  -7.811 -0.19 +0.00    +0.050 C 
DOCKED: ATOM     19  C   UNL d   1      19.616  45.397  -6.697 -0.19 +0.00    +0.045 A 
DOCKED: ATOM     20  C   UNL d   1      18.743  49.639  -2.932 -0.13 -0.01    +0.045 A 
DOCKED: ATOM     21  C   UNL d   1      17.542  50.222  -2.861 -0.30 -0.02    +0.057 C 
DOCKED: ATOM     22  C   UNL d   1      20.955  49.225  -2.542 -0.13 +0.00    -0.019 A 
DOCKED: ATOM     23  C   UNL d   1      20.444  48.219  -3.494 -0.15 -0.01    +0.045 A 
DOCKED: ATOM     24  C   UNL d   1      19.943  50.062  -2.211 -0.18 +0.00    -0.022 A 
DOCKED: ATOM     25  C   UNL d   1      20.728  46.207  -4.902 -0.19 -0.00    +0.049 A 
DOCKED: ATOM     26  C   UNL d   1      20.465  44.392  -6.261 -0.28 -0.00    -0.018 A 
DOCKED: ATOM     27  C   UNL d   1      21.150  44.902  -5.115 -0.29 -0.00    +0.003 A 
DOCKED: ATOM     28  C   UNL d   1      21.177  47.222  -4.014 -0.19 -0.00    +0.052 C 
DOCKED: ATOM     29  C   UNL d   1      19.961  51.225  -1.279 -0.24 -0.01    +0.046 C 
DOCKED: ATOM     30  C   UNL d   1      20.629  43.040  -6.867 -0.31 +0.01    +0.046 C 
DOCKED: ATOM     31  H   UNL d   1      18.451  48.010  -4.202 -0.01 -0.04    +0.166 HD
DOCKED: ATOM     32  H   UNL d   1      19.272  47.348  -5.962 +0.05 -0.01    +0.166 HD
DOCKED: ENDROOT
DOCKED: BRANCH   7  33
DOCKED: ATOM     33  C   UNL d   1      16.166  44.737  -9.462 -0.25 -0.02    +0.141 C 
DOCKED: BRANCH  33  34
DOCKED: ATOM     34  C   UNL d   1      15.638  44.686 -10.870 -0.11 -0.08    +0.306 C 
DOCKED: ATOM     35  O   UNL d   1      16.293  44.485 -11.878 -0.05 +0.02    -0.251 OA
DOCKED: BRANCH  34  36
DOCKED: ATOM     36  O   UNL d   1      14.310  44.890 -10.933 -0.06 +0.31    -0.481 OA
DOCKED: ATOM     37  H   UNL d   1      13.919  44.105 -10.495 -0.34 -0.44    +0.295 HD
DOCKED: ENDBRANCH  34  36
DOCKED: ENDBRANCH  33  34
DOCKED: ENDBRANCH   7  33
DOCKED: BRANCH  27  38
DOCKED: ATOM     38  C   UNL d   1      22.137  44.190  -4.359 -0.22 +0.00    +0.017 C 
DOCKED: ATOM     39  C   UNL d   1      23.231  44.735  -3.807 -0.29 +0.01    +0.092 C 
DOCKED: BRANCH  39  40
DOCKED: ATOM     40  C   UNL d   1      24.157  43.897  -3.040 -0.22 +0.05    +0.330 C 
DOCKED: ATOM     41  O   UNL d   1      23.999  42.743  -2.690 -0.38 -0.05    -0.246 OA
DOCKED: BRANCH  40  42
DOCKED: ATOM     42  O   UNL d   1      25.274  44.584  -2.756 -0.07 -0.07    -0.477 OA
DOCKED: ATOM     43  H   UNL d   1      24.959  45.503  -2.632 +0.08 +0.04    +0.295 HD
DOCKED: ENDBRANCH  40  42
DOCKED: ENDBRANCH  39  40
DOCKED: ENDBRANCH  27  38
DOCKED: BRANCH   8  44
DOCKED: ATOM     44  C   UNL d   1      13.372  50.634  -5.221 -0.22 -0.03    +0.141 C 
DOCKED: BRANCH  44  45
DOCKED: ATOM     45  C   UNL d   1      13.869  52.031  -4.959 -0.08 -0.06    +0.306 C 
DOCKED: ATOM     46  O   UNL d   1      14.726  52.627  -5.587 -0.03 +0.03    -0.251 OA
DOCKED: BRANCH  45  47
DOCKED: ATOM     47  O   UNL d   1      13.273  52.597  -3.894 -0.10 +0.14    -0.481 OA
DOCKED: ATOM     48  H   UNL d   1      13.416  51.960  -3.162 -0.21 -0.13    +0.295 HD
DOCKED: ENDBRANCH  45  47
DOCKED: ENDBRANCH  44  45
DOCKED: ENDBRANCH   8  44
DOCKED: BRANCH  22  49
DOCKED: ATOM     49  C   UNL d   1      22.375  49.283  -2.059 -0.09 -0.00    +0.048 C 
DOCKED: BRANCH  49  50
DOCKED: ATOM     50  C   UNL d   1      23.367  48.932  -3.167 -0.04 +0.00    +0.125 C 
DOCKED: BRANCH  50  51
DOCKED: ATOM     51  C   UNL d   1      24.133  47.684  -2.826 -0.05 +0.02    +0.305 C 
DOCKED: ATOM     52  O   UNL d   1      24.004  46.980  -1.841 -0.11 -0.03    -0.251 OA
DOCKED: BRANCH  51  53
DOCKED: ATOM     53  O   UNL d   1      25.054  47.386  -3.763 +0.00 -0.03    -0.481 OA
DOCKED: ATOM     54  H   UNL d   1      25.591  46.676  -3.352 +0.04 +0.02    +0.295 HD
DOCKED: ENDBRANCH  51  53
DOCKED: ENDBRANCH  50  51
DOCKED: ENDBRANCH  49  50
DOCKED: ENDBRANCH  22  49
DOCKED: TORSDOF 13
DOCKED: TER
DOCKED: ENDMDL
________________________________________________________________________________


	BEGINNING GENETIC ALGORITHM DOCKING 16 of 100
Run: 16 Seed: 90695162 320242960 [ Run 16 of 100 GA/GALS ]
Beginning LAMARCKIAN GENETIC ALGORITHM (LGA), with a maximum of 25000000 energy evaluations.

Final-Value: -11.221


	FINAL GENETIC ALGORITHM DOCKED STATE
	_______________________________________________


Detailed state:  trans 25.243 37.898 -4.114 quatxyzw -0.872601 -0.210811 -0.345032 0.274006 center 0.153 0.018 -0.028 ntor 13 -178.8150 -179.7520 -99.5378 -60.3647 -98.8917 -24.6726 125.8853 -104.8401 7.9721 -25.5112 -106.0598 6.3183 -11.2427
State:	 25.243  37.898  -4.114  -0.907 -0.219 -0.359 148.194   -178.81 -179.75  -99.54  -60.36  -98.89  -24.67  125.89 -104.84    7.97  -25.51 -106.06    6.32  -11.24

DOCKED: MODEL       16
DOCKED: USER    Run = 16
DOCKED: USER    DPF = D:/Protein_go_brrr/autodock/final/6BB5/heme/dock.dpf
DOCKED: USER  
DOCKED: USER    Estimated Free Energy of Binding    =   -3.04 kcal/mol  [=(1)+(2)+(3)-(4)]
DOCKED: USER    Estimated Inhibition Constant, Ki   =    5.92 mM (millimolar)  [Temperature = 298.15 K]
DOCKED: USER    
DOCKED: USER    (1) Final Intermolecular Energy     =   -6.92 kcal/mol
DOCKED: USER        vdW + Hbond + desolv Energy     =   -6.65 kcal/mol
DOCKED: USER        Electrostatic Energy            =   -0.27 kcal/mol
DOCKED: USER    (2) Final Total Internal Energy     =   -4.30 kcal/mol
DOCKED: USER    (3) Torsional Free Energy           =   +3.88 kcal/mol
DOCKED: USER    (4) Unbound System's Energy  [=(2)] =   -4.30 kcal/mol
DOCKED: USER    
DOCKED: USER    
DOCKED: USER    NEWDPF move heme_opt.pdbqt
DOCKED: USER    NEWDPF about 0.153000 0.018000 -0.028000
DOCKED: USER    NEWDPF tran0 25.243013 37.897807 -4.114377
DOCKED: USER    NEWDPF quaternion0 -0.872601 -0.210811 -0.345032 0.274006
DOCKED: USER    NEWDPF axisangle0 -0.907326 -0.219200 -0.358763 148.194367
DOCKED: USER    NEWDPF quat0 -0.907326 -0.219200 -0.358763 148.194367
DOCKED: USER    NEWDPF dihe0 -178.81 -179.75 -99.54 -60.36 -98.89 -24.67 125.89 -104.84 7.97 -25.51 -106.06 6.32 -11.24 
DOCKED: USER  keepresnum = 1 
DOCKED: USER  
DOCKED: REMARK  13 active torsions:
DOCKED: REMARK  status: ('A' for Active; 'I' for Inactive)
DOCKED: REMARK    1  A    between atoms: O_3  and  C_38 
DOCKED: REMARK    2  A    between atoms: O_4  and  C_40 
DOCKED: REMARK    3  A    between atoms: O_7  and  C_46 
DOCKED: REMARK    4  A    between atoms: O_9  and  C_48 
DOCKED: REMARK    5  A    between atoms: C_15  and  C_20 
DOCKED: REMARK    6  A    between atoms: C_16  and  C_23 
DOCKED: REMARK    7  A    between atoms: C_20  and  C_38 
DOCKED: REMARK    8  A    between atoms: C_23  and  C_40 
DOCKED: REMARK    9  A    between atoms: C_32  and  C_41 
DOCKED: REMARK   10  A    between atoms: C_37  and  C_45 
DOCKED: REMARK   11  A    between atoms: C_41  and  C_44 
DOCKED: REMARK   12  A    between atoms: C_44  and  C_46 
DOCKED: REMARK   13  A    between atoms: C_47  and  C_48 
DOCKED: USER                              x       y       z     vdW  Elec       q    Type
DOCKED: USER                           _______ _______ _______ _____ _____    ______ ____
DOCKED: ROOT
DOCKED: ATOM      1  O   UNL d   1      22.234  33.272  -6.188 +0.04 +0.12    -0.289 OA
DOCKED: ATOM      2  O   UNL d   1      21.455  40.631  -7.464 -0.20 -0.09    -0.289 OA
DOCKED: ATOM      3  N   UNL d   1      24.172  35.655  -4.620 -0.13 +0.02    -0.247 NA
DOCKED: ATOM      4  N   UNL d   1      23.364  38.182  -5.958 -0.13 -0.03    -0.247 NA
DOCKED: ATOM      5  N   UNL d   1      25.664  39.436  -4.774 -0.12 -0.03    -0.354 N 
DOCKED: ATOM      6  N   UNL d   1      26.506  36.806  -3.405 -0.11 -0.01    -0.354 N 
DOCKED: ATOM      7  C   UNL d   1      24.165  33.205  -4.690 -0.15 -0.03    +0.084 A 
DOCKED: ATOM      8  C   UNL d   1      21.122  38.266  -6.926 -0.28 +0.03    +0.084 A 
DOCKED: ATOM      9  C   UNL d   1      22.227  37.457  -6.238 -0.17 +0.01    +0.058 A 
DOCKED: ATOM     10  C   UNL d   1      24.796  34.501  -4.175 -0.14 -0.01    +0.058 A 
DOCKED: ATOM     11  C   UNL d   1      23.062  33.829  -5.492 -0.12 -0.06    +0.193 A 
DOCKED: ATOM     12  C   UNL d   1      23.158  35.317  -5.348 -0.17 -0.01    +0.109 A 
DOCKED: ATOM     13  C   UNL d   1      21.857  39.573  -7.019 -0.19 +0.05    +0.193 A 
DOCKED: ATOM     14  C   UNL d   1      25.099  32.449  -5.639 -0.10 -0.01    +0.026 C 
DOCKED: ATOM     15  C   UNL d   1      22.112  36.146  -5.980 -0.23 +0.00    +0.055 C 
DOCKED: ATOM     16  C   UNL d   1      19.903  38.450  -6.018 -0.38 +0.01    +0.026 C 
DOCKED: ATOM     17  C   UNL d   1      23.206  39.387  -6.404 -0.08 +0.02    +0.109 A 
DOCKED: ATOM     18  C   UNL d   1      25.813  34.486  -3.292 -0.15 -0.00    +0.050 C 
DOCKED: ATOM     19  C   UNL d   1      26.403  35.630  -2.697 -0.17 +0.00    +0.045 A 
DOCKED: ATOM     20  C   UNL d   1      25.273  40.427  -5.637 -0.16 +0.01    +0.045 A 
DOCKED: ATOM     21  C   UNL d   1      24.171  40.496  -6.390 -0.16 +0.01    +0.057 C 
DOCKED: ATOM     22  C   UNL d   1      27.275  41.009  -4.703 -0.09 -0.00    -0.019 A 
DOCKED: ATOM     23  C   UNL d   1      26.861  39.698  -4.163 -0.16 +0.00    +0.045 A 
DOCKED: ATOM     24  C   UNL d   1      26.330  41.436  -5.574 -0.09 -0.00    -0.022 A 
DOCKED: ATOM     25  C   UNL d   1      27.188  37.751  -2.675 -0.18 +0.00    +0.049 A 
DOCKED: ATOM     26  C   UNL d   1      27.000  35.827  -1.462 -0.16 -0.00    -0.018 A 
DOCKED: ATOM     27  C   UNL d   1      27.476  37.175  -1.446 -0.12 +0.00    +0.003 A 
DOCKED: ATOM     28  C   UNL d   1      27.556  38.995  -3.256 -0.17 +0.00    +0.052 C 
DOCKED: ATOM     29  C   UNL d   1      26.291  42.701  -6.362 -0.05 +0.00    +0.046 C 
DOCKED: ATOM     30  C   UNL d   1      27.120  34.829  -0.361 -0.20 +0.01    +0.046 C 
DOCKED: ATOM     31  H   UNL d   1      25.062  38.645  -4.575 +0.03 +0.01    +0.166 HD
DOCKED: ATOM     32  H   UNL d   1      26.158  36.924  -4.349 +0.03 +0.00    +0.166 HD
DOCKED: ENDROOT
DOCKED: BRANCH   7  33
DOCKED: ATOM     33  C   UNL d   1      23.589  32.280  -3.613 -0.23 -0.09    +0.141 C 
DOCKED: BRANCH  33  34
DOCKED: ATOM     34  C   UNL d   1      22.576  32.969  -2.739 -0.25 -0.14    +0.306 C 
DOCKED: ATOM     35  O   UNL d   1      22.683  34.082  -2.251 -0.49 +0.08    -0.251 OA
DOCKED: BRANCH  34  36
DOCKED: ATOM     36  O   UNL d   1      21.478  32.221  -2.529 -0.13 +0.30    -0.481 OA
DOCKED: ATOM     37  H   UNL d   1      21.637  31.401  -3.043 -0.28 -0.46    +0.295 HD
DOCKED: ENDBRANCH  34  36
DOCKED: ENDBRANCH  33  34
DOCKED: ENDBRANCH   7  33
DOCKED: BRANCH  27  38
DOCKED: ATOM     38  C   UNL d   1      28.174  37.790  -0.357 -0.15 +0.00    +0.017 C 
DOCKED: ATOM     39  C   UNL d   1      27.952  39.032   0.101 -0.04 +0.01    +0.092 C 
DOCKED: BRANCH  39  40
DOCKED: ATOM     40  C   UNL d   1      28.726  39.539   1.238 -0.07 +0.01    +0.330 C 
DOCKED: ATOM     41  O   UNL d   1      29.244  38.896   2.131 -0.08 +0.01    -0.246 OA
DOCKED: BRANCH  40  42
DOCKED: ATOM     42  O   UNL d   1      28.813  40.877   1.176 -0.01 -0.04    -0.477 OA
DOCKED: ATOM     43  H   UNL d   1      28.314  41.108   0.366 +0.10 +0.04    +0.295 HD
DOCKED: ENDBRANCH  40  42
DOCKED: ENDBRANCH  39  40
DOCKED: ENDBRANCH  27  38
DOCKED: BRANCH   8  44
DOCKED: ATOM     44  C   UNL d   1      20.708  37.770  -8.316 -0.18 +0.08    +0.141 C 
DOCKED: BRANCH  44  45
DOCKED: ATOM     45  C   UNL d   1      21.709  38.105  -9.389 -0.08 +0.13    +0.306 C 
DOCKED: ATOM     46  O   UNL d   1      22.730  37.491  -9.648 -0.02 -0.05    -0.251 OA
DOCKED: BRANCH  45  47
DOCKED: ATOM     47  O   UNL d   1      21.384  39.220 -10.067 -0.07 -0.27    -0.481 OA
DOCKED: ATOM     48  H   UNL d   1      21.667  39.956  -9.484 +0.06 +0.13    +0.295 HD
DOCKED: ENDBRANCH  45  47
DOCKED: ENDBRANCH  44  45
DOCKED: ENDBRANCH   8  44
DOCKED: BRANCH  22  49
DOCKED: ATOM     49  C   UNL d   1      28.549  41.708  -4.332 -0.04 +0.00    +0.048 C 
DOCKED: BRANCH  49  50
DOCKED: ATOM     50  C   UNL d   1      28.339  42.711  -3.197 -0.05 +0.01    +0.125 C 
DOCKED: BRANCH  50  51
DOCKED: ATOM     51  C   UNL d   1      28.175  42.005  -1.881 -0.06 +0.04    +0.305 C 
DOCKED: ATOM     52  O   UNL d   1      27.167  41.924  -1.202 -0.14 -0.04    -0.251 OA
DOCKED: BRANCH  51  53
DOCKED: ATOM     53  O   UNL d   1      29.324  41.433  -1.470 -0.00 -0.05    -0.481 OA
DOCKED: ATOM     54  H   UNL d   1      29.518  41.874  -0.617 +0.05 +0.04    +0.295 HD
DOCKED: ENDBRANCH  51  53
DOCKED: ENDBRANCH  50  51
DOCKED: ENDBRANCH  49  50
DOCKED: ENDBRANCH  22  49
DOCKED: TORSDOF 13
DOCKED: TER
DOCKED: ENDMDL
________________________________________________________________________________


	BEGINNING GENETIC ALGORITHM DOCKING 17 of 100
Run: 17 Seed: 1490589534 1118541568 [ Run 17 of 100 GA/GALS ]
Beginning LAMARCKIAN GENETIC ALGORITHM (LGA), with a maximum of 25000000 energy evaluations.

Final-Value: -10.377


	FINAL GENETIC ALGORITHM DOCKED STATE
	_______________________________________________


Detailed state:  trans 0.763 30.220 17.606 quatxyzw -0.715716 -0.202533 -0.666568 0.049181 center 0.153 0.018 -0.028 ntor 13 150.0977 -177.1365 -169.3002 52.0102 -142.4198 65.1046 139.0411 -87.2644 11.4800 -9.6134 -96.0913 -63.0696 -8.9901
State:	  0.763  30.220  17.606  -0.717 -0.203 -0.667 174.362    150.10 -177.14 -169.30   52.01 -142.42   65.10  139.04  -87.26   11.48   -9.61  -96.09  -63.07   -8.99

DOCKED: MODEL       17
DOCKED: USER    Run = 17
DOCKED: USER    DPF = D:/Protein_go_brrr/autodock/final/6BB5/heme/dock.dpf
DOCKED: USER  
DOCKED: USER    Estimated Free Energy of Binding    =   -1.80 kcal/mol  [=(1)+(2)+(3)-(4)]
DOCKED: USER    Estimated Inhibition Constant, Ki   =   48.25 mM (millimolar)  [Temperature = 298.15 K]
DOCKED: USER    
DOCKED: USER    (1) Final Intermolecular Energy     =   -5.67 kcal/mol
DOCKED: USER        vdW + Hbond + desolv Energy     =   -5.59 kcal/mol
DOCKED: USER        Electrostatic Energy            =   -0.08 kcal/mol
DOCKED: USER    (2) Final Total Internal Energy     =   -4.70 kcal/mol
DOCKED: USER    (3) Torsional Free Energy           =   +3.88 kcal/mol
DOCKED: USER    (4) Unbound System's Energy  [=(2)] =   -4.70 kcal/mol
DOCKED: USER    
DOCKED: USER    
DOCKED: USER    NEWDPF move heme_opt.pdbqt
DOCKED: USER    NEWDPF about 0.153000 0.018000 -0.028000
DOCKED: USER    NEWDPF tran0 0.763272 30.220176 17.605715
DOCKED: USER    NEWDPF quaternion0 -0.715716 -0.202533 -0.666568 0.049181
DOCKED: USER    NEWDPF axisangle0 -0.716583 -0.202778 -0.667376 174.361949
DOCKED: USER    NEWDPF quat0 -0.716583 -0.202778 -0.667376 174.361949
DOCKED: USER    NEWDPF dihe0 150.10 -177.14 -169.30 52.01 -142.42 65.10 139.04 -87.26 11.48 -9.61 -96.09 -63.07 -8.99 
DOCKED: USER  keepresnum = 1 
DOCKED: USER  
DOCKED: REMARK  13 active torsions:
DOCKED: REMARK  status: ('A' for Active; 'I' for Inactive)
DOCKED: REMARK    1  A    between atoms: O_3  and  C_38 
DOCKED: REMARK    2  A    between atoms: O_4  and  C_40 
DOCKED: REMARK    3  A    between atoms: O_7  and  C_46 
DOCKED: REMARK    4  A    between atoms: O_9  and  C_48 
DOCKED: REMARK    5  A    between atoms: C_15  and  C_20 
DOCKED: REMARK    6  A    between atoms: C_16  and  C_23 
DOCKED: REMARK    7  A    between atoms: C_20  and  C_38 
DOCKED: REMARK    8  A    between atoms: C_23  and  C_40 
DOCKED: REMARK    9  A    between atoms: C_32  and  C_41 
DOCKED: REMARK   10  A    between atoms: C_37  and  C_45 
DOCKED: REMARK   11  A    between atoms: C_41  and  C_44 
DOCKED: REMARK   12  A    between atoms: C_44  and  C_46 
DOCKED: REMARK   13  A    between atoms: C_47  and  C_48 
DOCKED: USER                              x       y       z     vdW  Elec       q    Type
DOCKED: USER                           _______ _______ _______ _____ _____    ______ ____
DOCKED: ROOT
DOCKED: ATOM      1  O   UNL d   1       1.609  26.813  12.870 -0.17 +0.05    -0.289 OA
DOCKED: ATOM      2  O   UNL d   1      -1.940  33.385  13.642 -0.03 +0.01    -0.289 OA
DOCKED: ATOM      3  N   UNL d   1       1.247  28.394  15.913 -0.07 +0.01    -0.247 NA
DOCKED: ATOM      4  N   UNL d   1       0.016  30.999  15.188 -0.05 +0.01    -0.247 NA
DOCKED: ATOM      5  N   UNL d   1       0.638  31.926  17.837 -0.04 +0.04    -0.354 N 
DOCKED: ATOM      6  N   UNL d   1       1.931  29.227  18.575 -0.08 +0.03    -0.354 N 
DOCKED: ATOM      7  C   UNL d   1       2.445  26.404  15.130 -0.27 -0.01    +0.084 A 
DOCKED: ATOM      8  C   UNL d   1      -1.299  31.079  13.129 -0.04 -0.00    +0.084 A 
DOCKED: ATOM      9  C   UNL d   1      -0.377  30.297  14.070 -0.07 -0.00    +0.058 A 
DOCKED: ATOM     10  C   UNL d   1       2.076  27.346  16.280 -0.17 -0.00    +0.058 A 
DOCKED: ATOM     11  C   UNL d   1       1.663  27.094  14.053 -0.15 -0.02    +0.193 A 
DOCKED: ATOM     12  C   UNL d   1       0.961  28.270  14.658 -0.14 -0.00    +0.109 A 
DOCKED: ATOM     13  C   UNL d   1      -1.326  32.369  13.900 -0.04 -0.01    +0.193 A 
DOCKED: ATOM     14  C   UNL d   1       3.934  26.476  14.784 -0.47 -0.00    +0.026 C 
DOCKED: ATOM     15  C   UNL d   1       0.049  29.053  13.800 -0.13 -0.00    +0.055 C 
DOCKED: ATOM     16  C   UNL d   1      -2.713  30.493  13.102 -0.02 -0.00    +0.026 C 
DOCKED: ATOM     17  C   UNL d   1      -0.484  32.191  15.122 -0.09 -0.00    +0.109 A 
DOCKED: ATOM     18  C   UNL d   1       2.465  27.099  17.544 -0.19 -0.00    +0.050 C 
DOCKED: ATOM     19  C   UNL d   1       2.103  27.865  18.681 -0.17 -0.00    +0.045 A 
DOCKED: ATOM     20  C   UNL d   1       0.249  33.107  17.260 -0.13 -0.00    +0.045 A 
DOCKED: ATOM     21  C   UNL d   1      -0.289  33.312  16.053 -0.02 -0.00    +0.057 C 
DOCKED: ATOM     22  C   UNL d   1       1.077  33.542  19.344 -0.23 +0.00    -0.019 A 
DOCKED: ATOM     23  C   UNL d   1       1.151  32.088  19.096 -0.20 -0.01    +0.045 A 
DOCKED: ATOM     24  C   UNL d   1       0.540  34.139  18.254 -0.19 +0.00    -0.022 A 
DOCKED: ATOM     25  C   UNL d   1       1.674  29.779  19.809 -0.14 -0.00    +0.049 A 
DOCKED: ATOM     26  C   UNL d   1       1.916  27.519  20.010 -0.14 +0.00    -0.018 A 
DOCKED: ATOM     27  C   UNL d   1       1.626  28.728  20.714 -0.12 -0.00    +0.003 A 
DOCKED: ATOM     28  C   UNL d   1       1.615  31.189  19.978 -0.22 -0.01    +0.052 C 
DOCKED: ATOM     29  C   UNL d   1       0.253  35.585  18.029 -0.18 -0.01    +0.046 C 
DOCKED: ATOM     30  C   UNL d   1       1.998  26.149  20.593 -0.12 -0.00    +0.046 C 
DOCKED: ATOM     31  H   UNL d   1       0.472  31.037  17.379 +0.05 -0.01    +0.166 HD
DOCKED: ATOM     32  H   UNL d   1       2.027  29.738  17.706 +0.07 -0.02    +0.166 HD
DOCKED: ENDROOT
DOCKED: BRANCH   7  33
DOCKED: ATOM     33  C   UNL d   1       1.974  24.955  15.292 -0.20 -0.02    +0.141 C 
DOCKED: BRANCH  33  34
DOCKED: ATOM     34  C   UNL d   1       0.480  24.843  15.430 -0.05 -0.03    +0.306 C 
DOCKED: ATOM     35  O   UNL d   1      -0.154  24.901  16.470 -0.02 +0.02    -0.251 OA
DOCKED: BRANCH  34  36
DOCKED: ATOM     36  O   UNL d   1      -0.138  24.666  14.249 -0.00 +0.06    -0.481 OA
DOCKED: ATOM     37  H   UNL d   1       0.414  25.159  13.605 +0.11 -0.05    +0.295 HD
DOCKED: ENDBRANCH  34  36
DOCKED: ENDBRANCH  33  34
DOCKED: ENDBRANCH   7  33
DOCKED: BRANCH  27  38
DOCKED: ATOM     38  C   UNL d   1       1.380  28.825  22.121 -0.10 -0.00    +0.017 C 
DOCKED: ATOM     39  C   UNL d   1       1.598  29.916  22.872 +0.01 -0.01    +0.092 C 
DOCKED: BRANCH  39  40
DOCKED: ATOM     40  C   UNL d   1       1.287  29.891  24.304 -0.06 -0.01    +0.330 C 
DOCKED: ATOM     41  O   UNL d   1       1.790  29.191  25.162 -0.06 +0.00    -0.246 OA
DOCKED: BRANCH  40  42
DOCKED: ATOM     42  O   UNL d   1       0.331  30.790  24.584 -0.01 +0.03    -0.477 OA
DOCKED: ATOM     43  H   UNL d   1       0.098  31.166  23.710 +0.03 -0.03    +0.295 HD
DOCKED: ENDBRANCH  40  42
DOCKED: ENDBRANCH  39  40
DOCKED: ENDBRANCH  27  38
DOCKED: BRANCH   8  44
DOCKED: ATOM     44  C   UNL d   1      -0.762  31.299  11.711 -0.08 -0.00    +0.141 C 
DOCKED: BRANCH  44  45
DOCKED: ATOM     45  C   UNL d   1       0.543  32.050  11.679 -0.15 +0.01    +0.306 C 
DOCKED: ATOM     46  O   UNL d   1       1.660  31.564  11.634 -0.32 -0.02    -0.251 OA
DOCKED: BRANCH  45  47
DOCKED: ATOM     47  O   UNL d   1       0.372  33.383  11.735 -0.05 -0.00    -0.481 OA
DOCKED: ATOM     48  H   UNL d   1      -0.579  33.502  11.944 +0.10 +0.00    +0.295 HD
DOCKED: ENDBRANCH  45  47
DOCKED: ENDBRANCH  44  45
DOCKED: ENDBRANCH   8  44
DOCKED: BRANCH  22  49
DOCKED: ATOM     49  C   UNL d   1       1.545  34.207  20.605 -0.27 -0.02    +0.048 C 
DOCKED: BRANCH  49  50
DOCKED: ATOM     50  C   UNL d   1       0.417  34.351  21.625 -0.10 -0.02    +0.125 C 
DOCKED: BRANCH  50  51
DOCKED: ATOM     51  C   UNL d   1       0.265  33.097  22.439 -0.06 -0.06    +0.305 C 
DOCKED: ATOM     52  O   UNL d   1      -0.482  32.158  22.225 -0.04 +0.03    -0.251 OA
DOCKED: BRANCH  51  53
DOCKED: ATOM     53  O   UNL d   1       1.076  33.094  23.516 -0.02 +0.11    -0.481 OA
DOCKED: ATOM     54  H   UNL d   1       1.546  32.236  23.458 -0.28 -0.10    +0.295 HD
DOCKED: ENDBRANCH  51  53
DOCKED: ENDBRANCH  50  51
DOCKED: ENDBRANCH  49  50
DOCKED: ENDBRANCH  22  49
DOCKED: TORSDOF 13
DOCKED: TER
DOCKED: ENDMDL
________________________________________________________________________________


	BEGINNING GENETIC ALGORITHM DOCKING 18 of 100
Run: 18 Seed: 75806619 460935522 [ Run 18 of 100 GA/GALS ]
Beginning LAMARCKIAN GENETIC ALGORITHM (LGA), with a maximum of 25000000 energy evaluations.

Final-Value: -11.719


	FINAL GENETIC ALGORITHM DOCKED STATE
	_______________________________________________


Detailed state:  trans 37.135 29.345 -0.199 quatxyzw -0.078300 -0.190770 0.090829 0.974282 center 0.153 0.018 -0.028 ntor 13 -132.6887 -154.4579 112.4200 -18.0142 35.4961 41.1238 -52.3238 -81.8004 154.2469 -135.3846 -80.2917 -93.6746 -2.3002
State:	 37.135  29.345  -0.199  -0.347 -0.847  0.403 26.045   -132.69 -154.46  112.42  -18.01   35.50   41.12  -52.32  -81.80  154.25 -135.38  -80.29  -93.67   -2.30

DOCKED: MODEL       18
DOCKED: USER    Run = 18
DOCKED: USER    DPF = D:/Protein_go_brrr/autodock/final/6BB5/heme/dock.dpf
DOCKED: USER  
DOCKED: USER    Estimated Free Energy of Binding    =   -3.41 kcal/mol  [=(1)+(2)+(3)-(4)]
DOCKED: USER    Estimated Inhibition Constant, Ki   =    3.17 mM (millimolar)  [Temperature = 298.15 K]
DOCKED: USER    
DOCKED: USER    (1) Final Intermolecular Energy     =   -7.29 kcal/mol
DOCKED: USER        vdW + Hbond + desolv Energy     =   -7.27 kcal/mol
DOCKED: USER        Electrostatic Energy            =   -0.02 kcal/mol
DOCKED: USER    (2) Final Total Internal Energy     =   -4.43 kcal/mol
DOCKED: USER    (3) Torsional Free Energy           =   +3.88 kcal/mol
DOCKED: USER    (4) Unbound System's Energy  [=(2)] =   -4.43 kcal/mol
DOCKED: USER    
DOCKED: USER    
DOCKED: USER    NEWDPF move heme_opt.pdbqt
DOCKED: USER    NEWDPF about 0.153000 0.018000 -0.028000
DOCKED: USER    NEWDPF tran0 37.134781 29.344668 -0.198779
DOCKED: USER    NEWDPF quaternion0 -0.078300 -0.190770 0.090829 0.974282
DOCKED: USER    NEWDPF axisangle0 -0.347488 -0.846621 0.403094 26.044630
DOCKED: USER    NEWDPF quat0 -0.347488 -0.846621 0.403094 26.044630
DOCKED: USER    NEWDPF dihe0 -132.69 -154.46 112.42 -18.01 35.50 41.12 -52.32 -81.80 154.25 -135.38 -80.29 -93.67 -2.30 
DOCKED: USER  keepresnum = 1 
DOCKED: USER  
DOCKED: REMARK  13 active torsions:
DOCKED: REMARK  status: ('A' for Active; 'I' for Inactive)
DOCKED: REMARK    1  A    between atoms: O_3  and  C_38 
DOCKED: REMARK    2  A    between atoms: O_4  and  C_40 
DOCKED: REMARK    3  A    between atoms: O_7  and  C_46 
DOCKED: REMARK    4  A    between atoms: O_9  and  C_48 
DOCKED: REMARK    5  A    between atoms: C_15  and  C_20 
DOCKED: REMARK    6  A    between atoms: C_16  and  C_23 
DOCKED: REMARK    7  A    between atoms: C_20  and  C_38 
DOCKED: REMARK    8  A    between atoms: C_23  and  C_40 
DOCKED: REMARK    9  A    between atoms: C_32  and  C_41 
DOCKED: REMARK   10  A    between atoms: C_37  and  C_45 
DOCKED: REMARK   11  A    between atoms: C_41  and  C_44 
DOCKED: REMARK   12  A    between atoms: C_44  and  C_46 
DOCKED: REMARK   13  A    between atoms: C_47  and  C_48 
DOCKED: USER                              x       y       z     vdW  Elec       q    Type
DOCKED: USER                           _______ _______ _______ _____ _____    ______ ____
DOCKED: ROOT
DOCKED: ATOM      1  O   UNL d   1      32.606  31.689   2.759 -0.09 -0.19    -0.289 OA
DOCKED: ATOM      2  O   UNL d   1      33.148  25.325  -1.189 -0.03 +0.02    -0.289 OA
DOCKED: ATOM      3  N   UNL d   1      35.467  30.782   1.061 -0.10 -0.02    -0.247 NA
DOCKED: ATOM      4  N   UNL d   1      34.845  28.045   0.086 -0.10 -0.01    -0.247 NA
DOCKED: ATOM      5  N   UNL d   1      37.638  27.724  -0.515 -0.07 -0.00    -0.354 N 
DOCKED: ATOM      6  N   UNL d   1      38.278  30.558   0.516 -0.16 +0.03    -0.354 N 
DOCKED: ATOM      7  C   UNL d   1      34.870  32.596   2.597 -0.24 +0.01    +0.084 A 
DOCKED: ATOM      8  C   UNL d   1      32.490  27.487  -0.250 -0.10 +0.01    +0.084 A 
DOCKED: ATOM      9  C   UNL d   1      33.548  28.481   0.240 -0.15 +0.01    +0.058 A 
DOCKED: ATOM     10  C   UNL d   1      35.924  31.909   1.724 -0.22 -0.00    +0.058 A 
DOCKED: ATOM     11  C   UNL d   1      33.732  31.668   2.296 -0.14 +0.06    +0.193 A 
DOCKED: ATOM     12  C   UNL d   1      34.213  30.627   1.333 -0.15 +0.02    +0.109 A 
DOCKED: ATOM     13  C   UNL d   1      33.425  26.391  -0.677 -0.07 -0.01    +0.193 A 
DOCKED: ATOM     14  C   UNL d   1      35.207  32.499   4.087 -0.55 +0.00    +0.026 C 
DOCKED: ATOM     15  C   UNL d   1      33.232  29.651   0.817 -0.20 +0.02    +0.055 C 
DOCKED: ATOM     16  C   UNL d   1      31.748  28.010  -1.484 -0.04 +0.00    +0.026 C 
DOCKED: ATOM     17  C   UNL d   1      34.822  26.852  -0.414 -0.13 -0.00    +0.109 A 
DOCKED: ATOM     18  C   UNL d   1      37.154  32.433   1.563 -0.05 -0.01    +0.050 C 
DOCKED: ATOM     19  C   UNL d   1      38.163  31.915   0.712 -0.17 -0.01    +0.045 A 
DOCKED: ATOM     20  C   UNL d   1      37.208  26.436  -0.700 -0.09 -0.00    +0.045 A 
DOCKED: ATOM     21  C   UNL d   1      35.958  25.961  -0.696 -0.14 -0.00    +0.057 C 
DOCKED: ATOM     22  C   UNL d   1      39.487  26.481  -0.848 -0.21 -0.00    -0.019 A 
DOCKED: ATOM     23  C   UNL d   1      39.000  27.851  -0.586 -0.22 -0.00    +0.045 A 
DOCKED: ATOM     24  C   UNL d   1      38.421  25.649  -0.916 -0.15 +0.00    -0.022 A 
DOCKED: ATOM     25  C   UNL d   1      39.373  30.273  -0.267 -0.26 -0.00    +0.049 A 
DOCKED: ATOM     26  C   UNL d   1      39.187  32.531   0.009 -0.27 +0.00    -0.018 A 
DOCKED: ATOM     27  C   UNL d   1      39.936  31.491  -0.623 -0.25 -0.00    +0.003 A 
DOCKED: ATOM     28  C   UNL d   1      39.789  28.931  -0.479 -0.23 -0.00    +0.052 C 
DOCKED: ATOM     29  C   UNL d   1      38.399  24.180  -1.172 -0.09 -0.00    +0.046 C 
DOCKED: ATOM     30  C   UNL d   1      39.454  33.996  -0.075 -0.30 -0.00    +0.046 C 
DOCKED: ATOM     31  H   UNL d   1      36.980  28.490  -0.419 +0.04 +0.00    +0.166 HD
DOCKED: ATOM     32  H   UNL d   1      37.656  29.876   0.935 +0.06 -0.00    +0.166 HD
DOCKED: ENDROOT
DOCKED: BRANCH   7  33
DOCKED: ATOM     33  C   UNL d   1      34.516  34.031   2.193 -0.20 +0.01    +0.141 C 
DOCKED: BRANCH  33  34
DOCKED: ATOM     34  C   UNL d   1      33.916  34.820   3.326 -0.21 +0.04    +0.306 C 
DOCKED: ATOM     35  O   UNL d   1      34.528  35.491   4.140 -0.52 -0.03    -0.251 OA
DOCKED: BRANCH  34  36
DOCKED: ATOM     36  O   UNL d   1      32.575  34.724   3.371 -0.05 -0.12    -0.481 OA
DOCKED: ATOM     37  H   UNL d   1      32.392  33.770   3.239 +0.13 +0.13    +0.295 HD
DOCKED: ENDBRANCH  34  36
DOCKED: ENDBRANCH  33  34
DOCKED: ENDBRANCH   7  33
DOCKED: BRANCH  27  38
DOCKED: ATOM     38  C   UNL d   1      41.095  31.688  -1.440 -0.23 -0.00    +0.017 C 
DOCKED: ATOM     39  C   UNL d   1      42.299  31.139  -1.221 -0.32 -0.01    +0.092 C 
DOCKED: BRANCH  39  40
DOCKED: ATOM     40  C   UNL d   1      43.404  31.408  -2.146 -0.14 -0.02    +0.330 C 
DOCKED: ATOM     41  O   UNL d   1      43.674  32.459  -2.696 -0.08 +0.01    -0.246 OA
DOCKED: BRANCH  40  42
DOCKED: ATOM     42  O   UNL d   1      44.137  30.298  -2.325 -0.10 +0.07    -0.477 OA
DOCKED: ATOM     43  H   UNL d   1      43.510  29.570  -2.136 +0.07 -0.03    +0.295 HD
DOCKED: ENDBRANCH  40  42
DOCKED: ENDBRANCH  39  40
DOCKED: ENDBRANCH  27  38
DOCKED: BRANCH   8  44
DOCKED: ATOM     44  C   UNL d   1      31.509  26.987   0.815 -0.12 +0.03    +0.141 C 
DOCKED: BRANCH  44  45
DOCKED: ATOM     45  C   UNL d   1      30.421  26.110   0.256 -0.04 +0.03    +0.306 C 
DOCKED: ATOM     46  O   UNL d   1      29.296  26.458  -0.058 -0.04 -0.03    -0.251 OA
DOCKED: BRANCH  45  47
DOCKED: ATOM     47  O   UNL d   1      30.802  24.824   0.147 -0.02 +0.03    -0.481 OA
DOCKED: ATOM     48  H   UNL d   1      31.479  24.825  -0.562 +0.05 -0.02    +0.295 HD
DOCKED: ENDBRANCH  45  47
DOCKED: ENDBRANCH  44  45
DOCKED: ENDBRANCH   8  44
DOCKED: BRANCH  22  49
DOCKED: ATOM     49  C   UNL d   1      40.935  26.115  -0.991 -0.19 +0.00    +0.048 C 
DOCKED: BRANCH  49  50
DOCKED: ATOM     50  C   UNL d   1      41.433  26.314  -2.423 -0.13 +0.00    +0.125 C 
DOCKED: BRANCH  50  51
DOCKED: ATOM     51  C   UNL d   1      42.199  27.600  -2.550 -0.12 +0.01    +0.305 C 
DOCKED: ATOM     52  O   UNL d   1      41.757  28.707  -2.800 -0.08 +0.00    -0.251 OA
DOCKED: BRANCH  51  53
DOCKED: ATOM     53  O   UNL d   1      43.522  27.419  -2.363 -0.10 -0.00    -0.481 OA
DOCKED: ATOM     54  H   UNL d   1      43.930  28.219  -2.757 +0.04 -0.03    +0.295 HD
DOCKED: ENDBRANCH  51  53
DOCKED: ENDBRANCH  50  51
DOCKED: ENDBRANCH  49  50
DOCKED: ENDBRANCH  22  49
DOCKED: TORSDOF 13
DOCKED: TER
DOCKED: ENDMDL
________________________________________________________________________________


	BEGINNING GENETIC ALGORITHM DOCKING 19 of 100
Run: 19 Seed: 156447676 1947254176 [ Run 19 of 100 GA/GALS ]
Beginning LAMARCKIAN GENETIC ALGORITHM (LGA), with a maximum of 25000000 energy evaluations.

Final-Value: -12.511


	FINAL GENETIC ALGORITHM DOCKED STATE
	_______________________________________________


Detailed state:  trans 37.277 13.284 21.894 quatxyzw -0.156696 -0.735507 -0.646324 0.129386 center 0.153 0.018 -0.028 ntor 13 111.1789 -148.0994 -133.3110 -5.1588 179.1830 49.8573 124.8776 -1.9707 -20.7468 -18.4667 -56.1317 -93.3516 7.6234
State:	 37.277  13.284  21.894  -0.158 -0.742 -0.652 165.132    111.18 -148.10 -133.31   -5.16  179.18   49.86  124.88   -1.97  -20.75  -18.47  -56.13  -93.35    7.62

DOCKED: MODEL       19
DOCKED: USER    Run = 19
DOCKED: USER    DPF = D:/Protein_go_brrr/autodock/final/6BB5/heme/dock.dpf
DOCKED: USER  
DOCKED: USER    Estimated Free Energy of Binding    =   -4.13 kcal/mol  [=(1)+(2)+(3)-(4)]
DOCKED: USER    Estimated Inhibition Constant, Ki   =  940.37 uM (micromolar)  [Temperature = 298.15 K]
DOCKED: USER    
DOCKED: USER    (1) Final Intermolecular Energy     =   -8.01 kcal/mol
DOCKED: USER        vdW + Hbond + desolv Energy     =   -7.87 kcal/mol
DOCKED: USER        Electrostatic Energy            =   -0.14 kcal/mol
DOCKED: USER    (2) Final Total Internal Energy     =   -4.50 kcal/mol
DOCKED: USER    (3) Torsional Free Energy           =   +3.88 kcal/mol
DOCKED: USER    (4) Unbound System's Energy  [=(2)] =   -4.50 kcal/mol
DOCKED: USER    
DOCKED: USER    
DOCKED: USER    NEWDPF move heme_opt.pdbqt
DOCKED: USER    NEWDPF about 0.153000 0.018000 -0.028000
DOCKED: USER    NEWDPF tran0 37.277420 13.284129 21.893843
DOCKED: USER    NEWDPF quaternion0 -0.156696 -0.735507 -0.646324 0.129386
DOCKED: USER    NEWDPF axisangle0 -0.158024 -0.741742 -0.651803 165.131735
DOCKED: USER    NEWDPF quat0 -0.158024 -0.741742 -0.651803 165.131735
DOCKED: USER    NEWDPF dihe0 111.18 -148.10 -133.31 -5.16 179.18 49.86 124.88 -1.97 -20.75 -18.47 -56.13 -93.35 7.62 
DOCKED: USER  keepresnum = 1 
DOCKED: USER  
DOCKED: REMARK  13 active torsions:
DOCKED: REMARK  status: ('A' for Active; 'I' for Inactive)
DOCKED: REMARK    1  A    between atoms: O_3  and  C_38 
DOCKED: REMARK    2  A    between atoms: O_4  and  C_40 
DOCKED: REMARK    3  A    between atoms: O_7  and  C_46 
DOCKED: REMARK    4  A    between atoms: O_9  and  C_48 
DOCKED: REMARK    5  A    between atoms: C_15  and  C_20 
DOCKED: REMARK    6  A    between atoms: C_16  and  C_23 
DOCKED: REMARK    7  A    between atoms: C_20  and  C_38 
DOCKED: REMARK    8  A    between atoms: C_23  and  C_40 
DOCKED: REMARK    9  A    between atoms: C_32  and  C_41 
DOCKED: REMARK   10  A    between atoms: C_37  and  C_45 
DOCKED: REMARK   11  A    between atoms: C_41  and  C_44 
DOCKED: REMARK   12  A    between atoms: C_44  and  C_46 
DOCKED: REMARK   13  A    between atoms: C_47  and  C_48 
DOCKED: USER                              x       y       z     vdW  Elec       q    Type
DOCKED: USER                           _______ _______ _______ _____ _____    ______ ____
DOCKED: ROOT
DOCKED: ATOM      1  O   UNL d   1      42.786  11.837  23.415 -0.02 -0.01    -0.289 OA
DOCKED: ATOM      2  O   UNL d   1      38.788  10.231  17.264 -0.02 -0.02    -0.289 OA
DOCKED: ATOM      3  N   UNL d   1      39.499  12.802  23.019 +0.00 +0.05    -0.247 NA
DOCKED: ATOM      4  N   UNL d   1      38.885  12.004  20.223 -0.11 +0.01    -0.247 NA
DOCKED: ATOM      5  N   UNL d   1      36.507  13.613  20.385 -0.10 +0.02    -0.354 N 
DOCKED: ATOM      6  N   UNL d   1      37.162  14.452  23.277 -0.14 +0.15    -0.354 N 
DOCKED: ATOM      7  C   UNL d   1      41.237  13.230  24.693 -0.11 -0.00    +0.084 A 
DOCKED: ATOM      8  C   UNL d   1      40.180  10.160  19.277 -0.05 +0.01    +0.084 A 
DOCKED: ATOM      9  C   UNL d   1      39.934  11.137  20.432 -0.11 +0.00    +0.058 A 
DOCKED: ATOM     10  C   UNL d   1      39.804  13.455  24.201 -0.17 -0.01    +0.058 A 
DOCKED: ATOM     11  C   UNL d   1      41.682  12.320  23.588 -0.07 -0.00    +0.193 A 
DOCKED: ATOM     12  C   UNL d   1      40.532  12.117  22.651 -0.11 -0.01    +0.109 A 
DOCKED: ATOM     13  C   UNL d   1      39.099  10.658  18.359 -0.05 +0.02    +0.193 A 
DOCKED: ATOM     14  C   UNL d   1      42.070  14.514  24.643 -0.21 -0.00    +0.026 C 
DOCKED: ATOM     15  C   UNL d   1      40.709  11.176  21.527 -0.10 +0.00    +0.055 C 
DOCKED: ATOM     16  C   UNL d   1      39.860   8.717  19.676 -0.02 +0.00    +0.026 C 
DOCKED: ATOM     17  C   UNL d   1      38.393  11.781  19.047 -0.12 +0.01    +0.109 A 
DOCKED: ATOM     18  C   UNL d   1      38.914  14.158  24.927 -0.26 -0.01    +0.050 C 
DOCKED: ATOM     19  C   UNL d   1      37.549  14.347  24.595 -0.24 -0.01    +0.045 A 
DOCKED: ATOM     20  C   UNL d   1      36.509  13.329  19.044 -0.19 +0.00    +0.045 A 
DOCKED: ATOM     21  C   UNL d   1      37.306  12.498  18.364 -0.14 +0.01    +0.057 C 
DOCKED: ATOM     22  C   UNL d   1      34.853  14.842  19.475 -0.31 -0.00    -0.019 A 
DOCKED: ATOM     23  C   UNL d   1      35.543  14.517  20.740 -0.26 -0.00    +0.045 A 
DOCKED: ATOM     24  C   UNL d   1      35.429  14.135  18.475 -0.28 -0.00    -0.022 A 
DOCKED: ATOM     25  C   UNL d   1      35.816  14.721  23.189 -0.21 -0.01    +0.049 A 
DOCKED: ATOM     26  C   UNL d   1      36.419  14.516  25.380 -0.23 +0.01    -0.018 A 
DOCKED: ATOM     27  C   UNL d   1      35.325  14.732  24.487 -0.24 -0.00    +0.003 A 
DOCKED: ATOM     28  C   UNL d   1      35.215  15.027  21.938 -0.32 -0.01    +0.052 C 
DOCKED: ATOM     29  C   UNL d   1      35.079  14.113  17.026 -0.32 +0.01    +0.046 C 
DOCKED: ATOM     30  C   UNL d   1      36.357  14.477  26.870 -0.18 -0.02    +0.046 C 
DOCKED: ATOM     31  H   UNL d   1      37.119  13.121  21.027 -0.06 -0.02    +0.166 HD
DOCKED: ATOM     32  H   UNL d   1      37.805  14.378  22.497 -0.42 -0.12    +0.166 HD
DOCKED: ENDROOT
DOCKED: BRANCH   7  33
DOCKED: ATOM     33  C   UNL d   1      41.364  12.531  26.050 -0.03 -0.00    +0.141 C 
DOCKED: BRANCH  33  34
DOCKED: ATOM     34  C   UNL d   1      40.190  11.641  26.355 +0.00 -0.01    +0.306 C 
DOCKED: ATOM     35  O   UNL d   1      39.502  11.675  27.362 -0.00 +0.01    -0.251 OA
DOCKED: BRANCH  34  36
DOCKED: ATOM     36  O   UNL d   1      39.942  10.755  25.374 +0.01 +0.01    -0.481 OA
DOCKED: ATOM     37  H   UNL d   1      39.579  11.296  24.640 +0.03 -0.01    +0.295 HD
DOCKED: ENDBRANCH  34  36
DOCKED: ENDBRANCH  33  34
DOCKED: ENDBRANCH   7  33
DOCKED: BRANCH  27  38
DOCKED: ATOM     38  C   UNL d   1      33.969  14.968  24.884 -0.27 -0.01    +0.017 C 
DOCKED: ATOM     39  C   UNL d   1      33.237  16.038  24.540 -0.28 -0.02    +0.092 C 
DOCKED: BRANCH  39  40
DOCKED: ATOM     40  C   UNL d   1      31.850  16.151  24.999 -0.20 -0.05    +0.330 C 
DOCKED: ATOM     41  O   UNL d   1      31.424  15.984  26.126 -0.20 +0.08    -0.246 OA
DOCKED: BRANCH  40  42
DOCKED: ATOM     42  O   UNL d   1      31.051  16.491  23.976 -0.10 -0.06    -0.477 OA
DOCKED: ATOM     43  H   UNL d   1      31.475  16.074  23.199 +0.11 +0.07    +0.295 HD
DOCKED: ENDBRANCH  40  42
DOCKED: ENDBRANCH  39  40
DOCKED: ENDBRANCH  27  38
DOCKED: BRANCH   8  44
DOCKED: ATOM     44  C   UNL d   1      41.555  10.259  18.610 -0.04 +0.01    +0.141 C 
DOCKED: BRANCH  44  45
DOCKED: ATOM     45  C   UNL d   1      41.755  11.541  17.846 -0.06 +0.04    +0.306 C 
DOCKED: ATOM     46  O   UNL d   1      42.061  12.625  18.311 -0.11 -0.04    -0.251 OA
DOCKED: BRANCH  45  47
DOCKED: ATOM     47  O   UNL d   1      41.528  11.395  16.528 -0.02 -0.05    -0.481 OA
DOCKED: ATOM     48  H   UNL d   1      40.691  10.887  16.475 +0.03 +0.03    +0.295 HD
DOCKED: ENDBRANCH  45  47
DOCKED: ENDBRANCH  44  45
DOCKED: ENDBRANCH   8  44
DOCKED: BRANCH  22  49
DOCKED: ATOM     49  C   UNL d   1      33.718  15.816  19.361 -0.40 +0.01    +0.048 C 
DOCKED: BRANCH  49  50
DOCKED: ATOM     50  C   UNL d   1      32.408  15.227  19.884 -0.22 +0.08    +0.125 C 
DOCKED: BRANCH  50  51
DOCKED: ATOM     51  C   UNL d   1      31.811  16.105  20.946 -0.12 +0.24    +0.305 C 
DOCKED: ATOM     52  O   UNL d   1      32.317  17.079  21.476 -0.27 -0.12    -0.251 OA
DOCKED: BRANCH  51  53
DOCKED: ATOM     53  O   UNL d   1      30.578  15.695  21.306 -0.63 -0.61    -0.481 OA
DOCKED: ATOM     54  H   UNL d   1      30.341  16.282  22.055 +0.10 +0.26    +0.295 HD
DOCKED: ENDBRANCH  51  53
DOCKED: ENDBRANCH  50  51
DOCKED: ENDBRANCH  49  50
DOCKED: ENDBRANCH  22  49
DOCKED: TORSDOF 13
DOCKED: TER
DOCKED: ENDMDL
________________________________________________________________________________


	BEGINNING GENETIC ALGORITHM DOCKING 20 of 100
Run: 20 Seed: 1648752283 1722241320 [ Run 20 of 100 GA/GALS ]
Beginning LAMARCKIAN GENETIC ALGORITHM (LGA), with a maximum of 25000000 energy evaluations.

Final-Value: -10.506


	FINAL GENETIC ALGORITHM DOCKED STATE
	_______________________________________________


Detailed state:  trans 3.872 22.252 20.887 quatxyzw -0.016832 0.714005 -0.007482 0.699898 center 0.153 0.018 -0.028 ntor 13 -63.5724 -114.7056 180.0000 -157.5880 37.5217 -99.4889 -61.4251 -0.4976 122.4972 -148.3690 112.0839 38.1706 50.4389
State:	  3.872  22.252  20.887  -0.024  1.000 -0.010 91.162    -63.57 -114.71  180.00 -157.59   37.52  -99.49  -61.43   -0.50  122.50 -148.37  112.08   38.17   50.44

DOCKED: MODEL       20
DOCKED: USER    Run = 20
DOCKED: USER    DPF = D:/Protein_go_brrr/autodock/final/6BB5/heme/dock.dpf
DOCKED: USER  
DOCKED: USER    Estimated Free Energy of Binding    =   -3.10 kcal/mol  [=(1)+(2)+(3)-(4)]
DOCKED: USER    Estimated Inhibition Constant, Ki   =    5.34 mM (millimolar)  [Temperature = 298.15 K]
DOCKED: USER    
DOCKED: USER    (1) Final Intermolecular Energy     =   -6.98 kcal/mol
DOCKED: USER        vdW + Hbond + desolv Energy     =   -6.87 kcal/mol
DOCKED: USER        Electrostatic Energy            =   -0.11 kcal/mol
DOCKED: USER    (2) Final Total Internal Energy     =   -3.53 kcal/mol
DOCKED: USER    (3) Torsional Free Energy           =   +3.88 kcal/mol
DOCKED: USER    (4) Unbound System's Energy  [=(2)] =   -3.53 kcal/mol
DOCKED: USER    
DOCKED: USER    
DOCKED: USER    NEWDPF move heme_opt.pdbqt
DOCKED: USER    NEWDPF about 0.153000 0.018000 -0.028000
DOCKED: USER    NEWDPF tran0 3.872092 22.251946 20.887296
DOCKED: USER    NEWDPF quaternion0 -0.016832 0.714005 -0.007482 0.699898
DOCKED: USER    NEWDPF axisangle0 -0.023566 0.999667 -0.010475 91.162377
DOCKED: USER    NEWDPF quat0 -0.023566 0.999667 -0.010475 91.162377
DOCKED: USER    NEWDPF dihe0 -63.57 -114.71 180.00 -157.59 37.52 -99.49 -61.43 -0.50 122.50 -148.37 112.08 38.17 50.44 
DOCKED: USER  keepresnum = 1 
DOCKED: USER  
DOCKED: REMARK  13 active torsions:
DOCKED: REMARK  status: ('A' for Active; 'I' for Inactive)
DOCKED: REMARK    1  A    between atoms: O_3  and  C_38 
DOCKED: REMARK    2  A    between atoms: O_4  and  C_40 
DOCKED: REMARK    3  A    between atoms: O_7  and  C_46 
DOCKED: REMARK    4  A    between atoms: O_9  and  C_48 
DOCKED: REMARK    5  A    between atoms: C_15  and  C_20 
DOCKED: REMARK    6  A    between atoms: C_16  and  C_23 
DOCKED: REMARK    7  A    between atoms: C_20  and  C_38 
DOCKED: REMARK    8  A    between atoms: C_23  and  C_40 
DOCKED: REMARK    9  A    between atoms: C_32  and  C_41 
DOCKED: REMARK   10  A    between atoms: C_37  and  C_45 
DOCKED: REMARK   11  A    between atoms: C_41  and  C_44 
DOCKED: REMARK   12  A    between atoms: C_44  and  C_46 
DOCKED: REMARK   13  A    between atoms: C_47  and  C_48 
DOCKED: USER                              x       y       z     vdW  Elec       q    Type
DOCKED: USER                           _______ _______ _______ _____ _____    ______ ____
DOCKED: ROOT
DOCKED: ATOM      1  O   UNL d   1       3.277  23.994  15.287 -0.19 +0.03    -0.289 OA
DOCKED: ATOM      2  O   UNL d   1       5.669  17.499  18.201 -0.11 -0.08    -0.289 OA
DOCKED: ATOM      3  N   UNL d   1       3.588  23.471  18.682 -0.09 -0.02    -0.247 NA
DOCKED: ATOM      4  N   UNL d   1       4.285  20.589  18.868 -0.06 -0.02    -0.247 NA
DOCKED: ATOM      5  N   UNL d   1       3.714  20.728  21.683 -0.05 -0.03    -0.354 N 
DOCKED: ATOM      6  N   UNL d   1       2.973  23.713  21.477 -0.07 -0.01    -0.354 N 
DOCKED: ATOM      7  C   UNL d   1       2.700  25.279  17.284 -0.13 -0.00    +0.084 A 
DOCKED: ATOM      8  C   UNL d   1       5.404  19.583  16.943 -0.23 +0.00    +0.084 A 
DOCKED: ATOM      9  C   UNL d   1       4.709  20.793  17.574 -0.17 +0.00    +0.058 A 
DOCKED: ATOM     10  C   UNL d   1       2.985  24.718  18.681 -0.14 +0.00    +0.058 A 
DOCKED: ATOM     11  C   UNL d   1       3.265  24.136  16.496 -0.19 -0.01    +0.193 A 
DOCKED: ATOM     12  C   UNL d   1       3.795  23.116  17.456 -0.18 +0.00    +0.109 A 
DOCKED: ATOM     13  C   UNL d   1       5.264  18.641  18.106 -0.11 +0.03    +0.193 A 
DOCKED: ATOM     14  C   UNL d   1       1.199  25.382  17.002 -0.09 -0.00    +0.026 C 
DOCKED: ATOM     15  C   UNL d   1       4.487  21.934  16.903 -0.30 -0.00    +0.055 C 
DOCKED: ATOM     16  C   UNL d   1       6.893  19.846  16.700 -0.29 +0.00    +0.026 C 
DOCKED: ATOM     17  C   UNL d   1       4.562  19.370  19.205 -0.10 +0.01    +0.109 A 
DOCKED: ATOM     18  C   UNL d   1       2.743  25.440  19.791 -0.18 +0.00    +0.050 C 
DOCKED: ATOM     19  C   UNL d   1       3.051  25.040  21.116 -0.17 +0.00    +0.045 A 
DOCKED: ATOM     20  C   UNL d   1       3.846  19.372  21.536 -0.07 +0.00    +0.045 A 
DOCKED: ATOM     21  C   UNL d   1       4.245  18.680  20.464 -0.08 +0.01    +0.057 C 
DOCKED: ATOM     22  C   UNL d   1       3.116  19.818  23.654 -0.02 -0.00    -0.019 A 
DOCKED: ATOM     23  C   UNL d   1       3.278  21.093  22.928 -0.07 +0.00    +0.045 A 
DOCKED: ATOM     24  C   UNL d   1       3.455  18.802  22.825 -0.03 -0.00    -0.022 A 
DOCKED: ATOM     25  C   UNL d   1       3.224  23.563  22.821 -0.13 +0.00    +0.049 A 
DOCKED: ATOM     26  C   UNL d   1       3.397  25.764  22.246 -0.24 +0.00    -0.018 A 
DOCKED: ATOM     27  C   UNL d   1       3.524  24.824  23.315 -0.20 -0.00    +0.003 A 
DOCKED: ATOM     28  C   UNL d   1       3.048  22.304  23.458 -0.09 +0.00    +0.052 C 
DOCKED: ATOM     29  C   UNL d   1       3.466  17.337  23.100 -0.02 +0.00    +0.046 C 
DOCKED: ATOM     30  C   UNL d   1       3.600  27.239  22.330 -0.10 -0.00    +0.046 C 
DOCKED: ATOM     31  H   UNL d   1       3.998  21.367  20.948 +0.03 +0.02    +0.166 HD
DOCKED: ATOM     32  H   UNL d   1       2.724  22.971  20.833 +0.03 +0.01    +0.166 HD
DOCKED: ENDROOT
DOCKED: BRANCH   7  33
DOCKED: ATOM     33  C   UNL d   1       3.428  26.582  16.938 -0.24 -0.01    +0.141 C 
DOCKED: BRANCH  33  34
DOCKED: ATOM     34  C   UNL d   1       3.295  26.952  15.486 -0.25 -0.03    +0.306 C 
DOCKED: ATOM     35  O   UNL d   1       2.431  27.663  15.000 -0.24 +0.02    -0.251 OA
DOCKED: BRANCH  34  36
DOCKED: ATOM     36  O   UNL d   1       4.258  26.408  14.722 -0.27 +0.07    -0.481 OA
DOCKED: ATOM     37  H   UNL d   1       3.785  25.778  14.139 -0.30 -0.10    +0.295 HD
DOCKED: ENDBRANCH  34  36
DOCKED: ENDBRANCH  33  34
DOCKED: ENDBRANCH   7  33
DOCKED: BRANCH  27  38
DOCKED: ATOM     38  C   UNL d   1       3.855  25.154  24.668 -0.19 -0.00    +0.017 C 
DOCKED: ATOM     39  C   UNL d   1       5.046  24.939  25.248 -0.20 -0.00    +0.092 C 
DOCKED: BRANCH  39  40
DOCKED: ATOM     40  C   UNL d   1       5.263  25.339  26.641 -0.07 +0.00    +0.330 C 
DOCKED: ATOM     41  O   UNL d   1       5.848  26.325  27.048 -0.11 -0.01    -0.246 OA
DOCKED: BRANCH  40  42
DOCKED: ATOM     42  O   UNL d   1       4.702  24.447  27.471 +0.00 +0.00    -0.477 OA
DOCKED: ATOM     43  H   UNL d   1       5.217  23.628  27.317 +0.05 -0.01    +0.295 HD
DOCKED: ENDBRANCH  40  42
DOCKED: ENDBRANCH  39  40
DOCKED: ENDBRANCH  27  38
DOCKED: BRANCH   8  44
DOCKED: ATOM     44  C   UNL d   1       4.731  19.012  15.691 -0.28 -0.02    +0.141 C 
DOCKED: BRANCH  44  45
DOCKED: ATOM     45  C   UNL d   1       5.641  18.135  14.874 -0.28 -0.03    +0.306 C 
DOCKED: ATOM     46  O   UNL d   1       6.168  18.423  13.813 -0.67 +0.01    -0.251 OA
DOCKED: BRANCH  45  47
DOCKED: ATOM     47  O   UNL d   1       5.819  16.922  15.426 -0.08 +0.02    -0.481 OA
DOCKED: ATOM     48  H   UNL d   1       5.294  16.947  16.255 +0.11 +0.02    +0.295 HD
DOCKED: ENDBRANCH  45  47
DOCKED: ENDBRANCH  44  45
DOCKED: ENDBRANCH   8  44
DOCKED: BRANCH  22  49
DOCKED: ATOM     49  C   UNL d   1       2.636  19.710  25.072 -0.01 +0.00    +0.048 C 
DOCKED: BRANCH  49  50
DOCKED: ATOM     50  C   UNL d   1       3.083  20.902  25.916 -0.01 -0.00    +0.125 C 
DOCKED: BRANCH  50  51
DOCKED: ATOM     51  C   UNL d   1       4.575  20.903  26.096 -0.01 -0.00    +0.305 C 
DOCKED: ATOM     52  O   UNL d   1       5.365  20.040  25.755 -0.04 +0.00    -0.251 OA
DOCKED: BRANCH  51  53
DOCKED: ATOM     53  O   UNL d   1       5.007  22.015  26.723 +0.01 +0.02    -0.481 OA
DOCKED: ATOM     54  H   UNL d   1       4.216  22.342  27.200 +0.03 -0.01    +0.295 HD
DOCKED: ENDBRANCH  51  53
DOCKED: ENDBRANCH  50  51
DOCKED: ENDBRANCH  49  50
DOCKED: ENDBRANCH  22  49
DOCKED: TORSDOF 13
DOCKED: TER
DOCKED: ENDMDL
________________________________________________________________________________


	BEGINNING GENETIC ALGORITHM DOCKING 21 of 100
Run: 21 Seed: 520368629 1716777045 [ Run 21 of 100 GA/GALS ]
Beginning LAMARCKIAN GENETIC ALGORITHM (LGA), with a maximum of 25000000 energy evaluations.

Final-Value: -10.648


	FINAL GENETIC ALGORITHM DOCKED STATE
	_______________________________________________


Detailed state:  trans 47.522 28.135 16.896 quatxyzw -0.121962 0.242621 0.001318 -0.962423 center 0.153 0.018 -0.028 ntor 13 -177.6952 119.0824 -153.1586 76.3417 20.6958 126.8985 136.5593 173.6503 -135.8436 -24.5685 69.8016 22.2710 21.2035
State:	 47.522  28.135  16.896  -0.449  0.893  0.005 -31.514   -177.70  119.08 -153.16   76.34   20.70  126.90  136.56  173.65 -135.84  -24.57   69.80   22.27   21.20

DOCKED: MODEL       21
DOCKED: USER    Run = 21
DOCKED: USER    DPF = D:/Protein_go_brrr/autodock/final/6BB5/heme/dock.dpf
DOCKED: USER  
DOCKED: USER    Estimated Free Energy of Binding    =   -4.87 kcal/mol  [=(1)+(2)+(3)-(4)]
DOCKED: USER    Estimated Inhibition Constant, Ki   =  269.05 uM (micromolar)  [Temperature = 298.15 K]
DOCKED: USER    
DOCKED: USER    (1) Final Intermolecular Energy     =   -8.75 kcal/mol
DOCKED: USER        vdW + Hbond + desolv Energy     =   -8.44 kcal/mol
DOCKED: USER        Electrostatic Energy            =   -0.31 kcal/mol
DOCKED: USER    (2) Final Total Internal Energy     =   -1.90 kcal/mol
DOCKED: USER    (3) Torsional Free Energy           =   +3.88 kcal/mol
DOCKED: USER    (4) Unbound System's Energy  [=(2)] =   -1.90 kcal/mol
DOCKED: USER    
DOCKED: USER    
DOCKED: USER    NEWDPF move heme_opt.pdbqt
DOCKED: USER    NEWDPF about 0.153000 0.018000 -0.028000
DOCKED: USER    NEWDPF tran0 47.522046 28.134894 16.896149
DOCKED: USER    NEWDPF quaternion0 -0.121962 0.242621 0.001318 -0.962423
DOCKED: USER    NEWDPF axisangle0 -0.449126 0.893455 0.004853 -31.513515
DOCKED: USER    NEWDPF quat0 -0.449126 0.893455 0.004853 -31.513515
DOCKED: USER    NEWDPF dihe0 -177.70 119.08 -153.16 76.34 20.70 126.90 136.56 173.65 -135.84 -24.57 69.80 22.27 21.20 
DOCKED: USER  keepresnum = 1 
DOCKED: USER  
DOCKED: REMARK  13 active torsions:
DOCKED: REMARK  status: ('A' for Active; 'I' for Inactive)
DOCKED: REMARK    1  A    between atoms: O_3  and  C_38 
DOCKED: REMARK    2  A    between atoms: O_4  and  C_40 
DOCKED: REMARK    3  A    between atoms: O_7  and  C_46 
DOCKED: REMARK    4  A    between atoms: O_9  and  C_48 
DOCKED: REMARK    5  A    between atoms: C_15  and  C_20 
DOCKED: REMARK    6  A    between atoms: C_16  and  C_23 
DOCKED: REMARK    7  A    between atoms: C_20  and  C_38 
DOCKED: REMARK    8  A    between atoms: C_23  and  C_40 
DOCKED: REMARK    9  A    between atoms: C_32  and  C_41 
DOCKED: REMARK   10  A    between atoms: C_37  and  C_45 
DOCKED: REMARK   11  A    between atoms: C_41  and  C_44 
DOCKED: REMARK   12  A    between atoms: C_44  and  C_46 
DOCKED: REMARK   13  A    between atoms: C_47  and  C_48 
DOCKED: USER                              x       y       z     vdW  Elec       q    Type
DOCKED: USER                           _______ _______ _______ _____ _____    ______ ____
DOCKED: ROOT
DOCKED: ATOM      1  O   UNL d   1      42.770  30.244  19.675 -0.22 -0.12    -0.289 OA
DOCKED: ATOM      2  O   UNL d   1      44.740  23.212  17.926 -0.12 -0.12    -0.289 OA
DOCKED: ATOM      3  N   UNL d   1      45.627  29.492  17.895 -0.08 -0.08    -0.247 NA
DOCKED: ATOM      4  N   UNL d   1      45.712  26.523  17.963 -0.08 -0.11    -0.247 NA
DOCKED: ATOM      5  N   UNL d   1      48.428  26.672  17.032 -0.05 -0.16    -0.354 N 
DOCKED: ATOM      6  N   UNL d   1      48.338  29.753  16.984 -0.05 -0.09    -0.354 N 
DOCKED: ATOM      7  C   UNL d   1      44.674  31.537  18.853 -0.23 +0.03    +0.084 A 
DOCKED: ATOM      8  C   UNL d   1      43.585  25.349  18.225 -0.22 +0.03    +0.084 A 
DOCKED: ATOM      9  C   UNL d   1      44.361  26.670  18.188 -0.19 +0.02    +0.058 A 
DOCKED: ATOM     10  C   UNL d   1      45.804  30.854  18.078 -0.17 +0.02    +0.058 A 
DOCKED: ATOM     11  C   UNL d   1      43.817  30.325  19.060 -0.22 +0.08    +0.193 A 
DOCKED: ATOM     12  C   UNL d   1      44.490  29.155  18.412 -0.20 +0.04    +0.109 A 
DOCKED: ATOM     13  C   UNL d   1      44.751  24.424  18.017 -0.11 +0.08    +0.193 A 
DOCKED: ATOM     14  C   UNL d   1      45.141  32.052  20.217 -0.12 +0.01    +0.026 C 
DOCKED: ATOM     15  C   UNL d   1      43.781  27.859  18.407 -0.17 +0.02    +0.055 C 
DOCKED: ATOM     16  C   UNL d   1      42.632  25.216  17.033 -0.37 +0.01    +0.026 C 
DOCKED: ATOM     17  C   UNL d   1      45.982  25.260  17.880 -0.12 +0.05    +0.109 A 
DOCKED: ATOM     18  C   UNL d   1      46.824  31.559  17.554 -0.13 +0.01    +0.050 C 
DOCKED: ATOM     19  C   UNL d   1      47.867  31.026  16.754 -0.19 +0.01    +0.045 A 
DOCKED: ATOM     20  C   UNL d   1      48.358  25.339  17.342 -0.16 +0.03    +0.045 A 
DOCKED: ATOM     21  C   UNL d   1      47.294  24.618  17.708 -0.16 +0.04    +0.057 C 
DOCKED: ATOM     22  C   UNL d   1      50.516  25.859  16.804 -0.14 -0.01    -0.019 A 
DOCKED: ATOM     23  C   UNL d   1      49.691  27.079  16.695 -0.14 +0.02    +0.045 A 
DOCKED: ATOM     24  C   UNL d   1      49.721  24.832  17.186 -0.15 -0.02    -0.022 A 
DOCKED: ATOM     25  C   UNL d   1      49.403  29.475  16.158 -0.15 +0.01    +0.049 A 
DOCKED: ATOM     26  C   UNL d   1      48.621  31.576  15.728 -0.31 -0.00    -0.018 A 
DOCKED: ATOM     27  C   UNL d   1      49.576  30.585  15.343 -0.28 +0.00    +0.003 A 
DOCKED: ATOM     28  C   UNL d   1      50.156  28.280  16.317 -0.15 +0.01    +0.052 C 
DOCKED: ATOM     29  C   UNL d   1      50.087  23.406  17.418 +0.04 +0.06    +0.046 C 
DOCKED: ATOM     30  C   UNL d   1      48.464  32.937  15.139 -0.26 +0.01    +0.046 C 
DOCKED: ATOM     31  H   UNL d   1      47.593  27.247  16.989 +0.04 +0.07    +0.166 HD
DOCKED: ATOM     32  H   UNL d   1      47.964  29.137  17.696 +0.04 +0.05    +0.166 HD
DOCKED: ENDROOT
DOCKED: BRANCH   7  33
DOCKED: ATOM     33  C   UNL d   1      43.905  32.614  18.079 -0.28 +0.02    +0.141 C 
DOCKED: BRANCH  33  34
DOCKED: ATOM     34  C   UNL d   1      44.532  33.976  18.204 -0.17 +0.04    +0.306 C 
DOCKED: ATOM     35  O   UNL d   1      45.546  34.356  17.644 -0.13 -0.03    -0.251 OA
DOCKED: BRANCH  34  36
DOCKED: ATOM     36  O   UNL d   1      43.846  34.789  19.026 -0.13 +0.01    -0.481 OA
DOCKED: ATOM     37  H   UNL d   1      43.087  34.248  19.332 -0.13 -0.06    +0.295 HD
DOCKED: ENDBRANCH  34  36
DOCKED: ENDBRANCH  33  34
DOCKED: ENDBRANCH   7  33
DOCKED: BRANCH  27  38
DOCKED: ATOM     38  C   UNL d   1      50.566  30.747  14.322 -0.30 +0.00    +0.017 C 
DOCKED: ATOM     39  C   UNL d   1      50.686  29.977  13.230 -0.29 +0.00    +0.092 C 
DOCKED: BRANCH  39  40
DOCKED: ATOM     40  C   UNL d   1      51.736  30.260  12.248 -0.18 -0.02    +0.330 C 
DOCKED: ATOM     41  O   UNL d   1      52.593  29.501  11.836 -0.11 -0.00    -0.246 OA
DOCKED: BRANCH  40  42
DOCKED: ATOM     42  O   UNL d   1      51.638  31.528  11.819 -0.13 +0.09    -0.477 OA
DOCKED: ATOM     43  H   UNL d   1      50.751  31.568  11.407 -0.36 -0.14    +0.295 HD
DOCKED: ENDBRANCH  40  42
DOCKED: ENDBRANCH  39  40
DOCKED: ENDBRANCH  27  38
DOCKED: BRANCH   8  44
DOCKED: ATOM     44  C   UNL d   1      42.869  25.042  19.545 -0.30 +0.05    +0.141 C 
DOCKED: BRANCH  44  45
DOCKED: ATOM     45  C   UNL d   1      43.805  24.619  20.645 -0.17 +0.17    +0.306 C 
DOCKED: ATOM     46  O   UNL d   1      44.326  25.344  21.474 -0.20 -0.24    -0.251 OA
DOCKED: BRANCH  45  47
DOCKED: ATOM     47  O   UNL d   1      44.060  23.298  20.625 -0.50 -0.25    -0.481 OA
DOCKED: ATOM     48  H   UNL d   1      43.924  23.033  19.690 +0.13 +0.13    +0.295 HD
DOCKED: ENDBRANCH  45  47
DOCKED: ENDBRANCH  44  45
DOCKED: ENDBRANCH   8  44
DOCKED: BRANCH  22  49
DOCKED: ATOM     49  C   UNL d   1      51.993  25.815  16.541 -0.09 +0.02    +0.048 C 
DOCKED: BRANCH  49  50
DOCKED: ATOM     50  C   UNL d   1      52.326  26.184  15.096 -0.11 +0.05    +0.125 C 
DOCKED: BRANCH  50  51
DOCKED: ATOM     51  C   UNL d   1      52.794  24.981  14.329 -0.06 +0.16    +0.305 C 
DOCKED: ATOM     52  O   UNL d   1      52.935  24.876  13.123 -0.10 -0.12    -0.251 OA
DOCKED: BRANCH  51  53
DOCKED: ATOM     53  O   UNL d   1      53.058  23.937  15.140 -0.04 -0.32    -0.481 OA
DOCKED: ATOM     54  H   UNL d   1      54.037  23.911  15.184 +0.02 +0.13    +0.295 HD
DOCKED: ENDBRANCH  51  53
DOCKED: ENDBRANCH  50  51
DOCKED: ENDBRANCH  49  50
DOCKED: ENDBRANCH  22  49
DOCKED: TORSDOF 13
DOCKED: TER
DOCKED: ENDMDL
________________________________________________________________________________


	BEGINNING GENETIC ALGORITHM DOCKING 22 of 100
Run: 22 Seed: 1093599723 1237761861 [ Run 22 of 100 GA/GALS ]
Beginning LAMARCKIAN GENETIC ALGORITHM (LGA), with a maximum of 25000000 energy evaluations.

Final-Value: -11.377


	FINAL GENETIC ALGORITHM DOCKED STATE
	_______________________________________________


Detailed state:  trans 19.984 20.328 -0.614 quatxyzw -0.500727 0.449377 -0.639655 -0.371719 center 0.153 0.018 -0.028 ntor 13 146.7296 -138.4676 -66.2598 -124.1726 -138.1500 6.7544 -19.1050 -23.2074 17.7217 2.0261 117.9348 -16.8656 32.1235
State:	 19.984  20.328  -0.614  -0.539  0.484 -0.689 -136.357    146.73 -138.47  -66.26 -124.17 -138.15    6.75  -19.11  -23.21   17.72    2.03  117.93  -16.87   32.12

DOCKED: MODEL       22
DOCKED: USER    Run = 22
DOCKED: USER    DPF = D:/Protein_go_brrr/autodock/final/6BB5/heme/dock.dpf
DOCKED: USER  
DOCKED: USER    Estimated Free Energy of Binding    =   -3.97 kcal/mol  [=(1)+(2)+(3)-(4)]
DOCKED: USER    Estimated Inhibition Constant, Ki   =    1.22 mM (millimolar)  [Temperature = 298.15 K]
DOCKED: USER    
DOCKED: USER    (1) Final Intermolecular Energy     =   -7.85 kcal/mol
DOCKED: USER        vdW + Hbond + desolv Energy     =   -7.49 kcal/mol
DOCKED: USER        Electrostatic Energy            =   -0.36 kcal/mol
DOCKED: USER    (2) Final Total Internal Energy     =   -3.53 kcal/mol
DOCKED: USER    (3) Torsional Free Energy           =   +3.88 kcal/mol
DOCKED: USER    (4) Unbound System's Energy  [=(2)] =   -3.53 kcal/mol
DOCKED: USER    
DOCKED: USER    
DOCKED: USER    NEWDPF move heme_opt.pdbqt
DOCKED: USER    NEWDPF about 0.153000 0.018000 -0.028000
DOCKED: USER    NEWDPF tran0 19.984329 20.327967 -0.613639
DOCKED: USER    NEWDPF quaternion0 -0.500727 0.449377 -0.639655 -0.371719
DOCKED: USER    NEWDPF axisangle0 -0.539375 0.484062 -0.689027 -136.356715
DOCKED: USER    NEWDPF quat0 -0.539375 0.484062 -0.689027 -136.356715
DOCKED: USER    NEWDPF dihe0 146.73 -138.47 -66.26 -124.17 -138.15 6.75 -19.11 -23.21 17.72 2.03 117.93 -16.87 32.12 
DOCKED: USER  keepresnum = 1 
DOCKED: USER  
DOCKED: REMARK  13 active torsions:
DOCKED: REMARK  status: ('A' for Active; 'I' for Inactive)
DOCKED: REMARK    1  A    between atoms: O_3  and  C_38 
DOCKED: REMARK    2  A    between atoms: O_4  and  C_40 
DOCKED: REMARK    3  A    between atoms: O_7  and  C_46 
DOCKED: REMARK    4  A    between atoms: O_9  and  C_48 
DOCKED: REMARK    5  A    between atoms: C_15  and  C_20 
DOCKED: REMARK    6  A    between atoms: C_16  and  C_23 
DOCKED: REMARK    7  A    between atoms: C_20  and  C_38 
DOCKED: REMARK    8  A    between atoms: C_23  and  C_40 
DOCKED: REMARK    9  A    between atoms: C_32  and  C_41 
DOCKED: REMARK   10  A    between atoms: C_37  and  C_45 
DOCKED: REMARK   11  A    between atoms: C_41  and  C_44 
DOCKED: REMARK   12  A    between atoms: C_44  and  C_46 
DOCKED: REMARK   13  A    between atoms: C_47  and  C_48 
DOCKED: USER                              x       y       z     vdW  Elec       q    Type
DOCKED: USER                           _______ _______ _______ _____ _____    ______ ____
DOCKED: ROOT
DOCKED: ATOM      1  O   UNL d   1      21.906  24.850  -3.872 -0.11 +0.09    -0.289 OA
DOCKED: ATOM      2  O   UNL d   1      18.912  24.657   3.012 -0.20 -0.01    -0.289 OA
DOCKED: ATOM      3  N   UNL d   1      20.787  21.937  -2.402 -0.08 +0.04    -0.247 NA
DOCKED: ATOM      4  N   UNL d   1      20.079  22.791   0.354 -0.11 +0.03    -0.247 NA
DOCKED: ATOM      5  N   UNL d   1      19.953  20.013   1.083 -0.05 +0.07    -0.354 N 
DOCKED: ATOM      6  N   UNL d   1      20.707  19.136  -1.774 -0.09 +0.07    -0.354 N 
DOCKED: ATOM      7  C   UNL d   1      21.977  22.482  -4.475 -0.08 -0.02    +0.084 A 
DOCKED: ATOM      8  C   UNL d   1      19.463  25.134   0.675 -0.39 -0.01    +0.084 A 
DOCKED: ATOM      9  C   UNL d   1      19.980  24.025  -0.248 -0.26 -0.01    +0.058 A 
DOCKED: ATOM     10  C   UNL d   1      21.366  21.424  -3.551 -0.13 -0.01    +0.058 A 
DOCKED: ATOM     11  C   UNL d   1      21.625  23.686  -3.653 -0.09 -0.04    +0.193 A 
DOCKED: ATOM     12  C   UNL d   1      20.884  23.226  -2.436 -0.16 -0.02    +0.109 A 
DOCKED: ATOM     13  C   UNL d   1      19.323  24.308   1.923 -0.24 -0.01    +0.193 A 
DOCKED: ATOM     14  C   UNL d   1      23.501  22.365  -4.553 -0.03 -0.00    +0.026 C 
DOCKED: ATOM     15  C   UNL d   1      20.351  24.253  -1.517 -0.28 -0.01    +0.055 C 
DOCKED: ATOM     16  C   UNL d   1      18.075  25.625   0.252 -0.64 -0.00    +0.026 C 
DOCKED: ATOM     17  C   UNL d   1      19.735  22.909   1.596 -0.21 -0.01    +0.109 A 
DOCKED: ATOM     18  C   UNL d   1      21.329  20.124  -3.899 -0.15 -0.01    +0.050 C 
DOCKED: ATOM     19  C   UNL d   1      20.712  19.090  -3.150 -0.15 -0.01    +0.045 A 
DOCKED: ATOM     20  C   UNL d   1      19.867  20.586   2.325 -0.11 -0.00    +0.045 A 
DOCKED: ATOM     21  C   UNL d   1      19.742  21.878   2.645 -0.23 -0.00    +0.057 C 
DOCKED: ATOM     22  C   UNL d   1      20.062  18.323   2.569 -0.10 +0.00    -0.019 A 
DOCKED: ATOM     23  C   UNL d   1      20.073  18.649   1.129 -0.12 -0.01    +0.045 A 
DOCKED: ATOM     24  C   UNL d   1      19.938  19.474   3.272 -0.12 +0.00    -0.022 A 
DOCKED: ATOM     25  C   UNL d   1      20.140  17.995  -1.255 -0.15 -0.01    +0.049 A 
DOCKED: ATOM     26  C   UNL d   1      20.100  17.907  -3.535 -0.18 +0.00    -0.018 A 
DOCKED: ATOM     27  C   UNL d   1      19.724  17.229  -2.334 -0.16 -0.00    +0.003 A 
DOCKED: ATOM     28  C   UNL d   1      20.163  17.742   0.144 -0.13 -0.01    +0.052 C 
DOCKED: ATOM     29  C   UNL d   1      19.868  19.661   4.749 -0.15 +0.00    +0.046 C 
DOCKED: ATOM     30  C   UNL d   1      19.876  17.433  -4.931 -0.20 -0.02    +0.046 C 
DOCKED: ATOM     31  H   UNL d   1      19.852  20.567   0.240 -0.01 -0.03    +0.166 HD
DOCKED: ATOM     32  H   UNL d   1      21.108  19.896  -1.238 +0.03 -0.03    +0.166 HD
DOCKED: ENDROOT
DOCKED: BRANCH   7  33
DOCKED: ATOM     33  C   UNL d   1      21.348  22.580  -5.869 -0.13 -0.03    +0.141 C 
DOCKED: BRANCH  33  34
DOCKED: ATOM     34  C   UNL d   1      19.917  23.046  -5.827 -0.18 -0.06    +0.306 C 
DOCKED: ATOM     35  O   UNL d   1      18.937  22.346  -5.634 -0.31 +0.03    -0.251 OA
DOCKED: BRANCH  34  36
DOCKED: ATOM     36  O   UNL d   1      19.797  24.370  -6.029 -0.12 +0.10    -0.481 OA
DOCKED: ATOM     37  H   UNL d   1      20.584  24.759  -5.591 +0.14 -0.08    +0.295 HD
DOCKED: ENDBRANCH  34  36
DOCKED: ENDBRANCH  33  34
DOCKED: ENDBRANCH   7  33
DOCKED: BRANCH  27  38
DOCKED: ATOM     38  C   UNL d   1      19.073  15.955  -2.275 -0.14 -0.00    +0.017 C 
DOCKED: ATOM     39  C   UNL d   1      18.389  15.483  -1.222 -0.09 -0.01    +0.092 C 
DOCKED: BRANCH  39  40
DOCKED: ATOM     40  C   UNL d   1      17.753  14.165  -1.296 -0.00 -0.02    +0.330 C 
DOCKED: ATOM     41  O   UNL d   1      17.822  13.356  -2.202 -0.01 +0.02    -0.246 OA
DOCKED: BRANCH  40  42
DOCKED: ATOM     42  O   UNL d   1      17.048  13.929  -0.179 +0.01 +0.00    -0.477 OA
DOCKED: ATOM     43  H   UNL d   1      16.609  14.784   0.007 +0.06 +0.00    +0.295 HD
DOCKED: ENDBRANCH  40  42
DOCKED: ENDBRANCH  39  40
DOCKED: ENDBRANCH  27  38
DOCKED: BRANCH   8  44
DOCKED: ATOM     44  C   UNL d   1      20.422  26.308   0.899 -0.42 -0.05    +0.141 C 
DOCKED: BRANCH  44  45
DOCKED: ATOM     45  C   UNL d   1      21.824  25.874   1.234 -0.20 -0.14    +0.306 C 
DOCKED: ATOM     46  O   UNL d   1      22.175  25.245   2.218 -0.16 +0.05    -0.251 OA
DOCKED: BRANCH  45  47
DOCKED: ATOM     47  O   UNL d   1      22.721  26.282   0.318 -0.08 +0.45    -0.481 OA
DOCKED: ATOM     48  H   UNL d   1      23.279  26.936   0.792 -0.41 -0.63    +0.295 HD
DOCKED: ENDBRANCH  45  47
DOCKED: ENDBRANCH  44  45
DOCKED: ENDBRANCH   8  44
DOCKED: BRANCH  22  49
DOCKED: ATOM     49  C   UNL d   1      20.186  16.932   3.119 -0.05 -0.00    +0.048 C 
DOCKED: BRANCH  49  50
DOCKED: ATOM     50  C   UNL d   1      19.189  15.973   2.469 -0.06 -0.00    +0.125 C 
DOCKED: BRANCH  50  51
DOCKED: ATOM     51  C   UNL d   1      17.776  16.410   2.729 -0.06 +0.00    +0.305 C 
DOCKED: ATOM     52  O   UNL d   1      17.354  17.025   3.693 -0.08 -0.01    -0.251 OA
DOCKED: BRANCH  51  53
DOCKED: ATOM     53  O   UNL d   1      16.941  16.031   1.741 -0.18 -0.02    -0.481 OA
DOCKED: ATOM     54  H   UNL d   1      17.067  15.060   1.683 +0.04 +0.01    +0.295 HD
DOCKED: ENDBRANCH  51  53
DOCKED: ENDBRANCH  50  51
DOCKED: ENDBRANCH  49  50
DOCKED: ENDBRANCH  22  49
DOCKED: TORSDOF 13
DOCKED: TER
DOCKED: ENDMDL
________________________________________________________________________________


	BEGINNING GENETIC ALGORITHM DOCKING 23 of 100
Run: 23 Seed: 709684685 14760175 [ Run 23 of 100 GA/GALS ]
Beginning LAMARCKIAN GENETIC ALGORITHM (LGA), with a maximum of 25000000 energy evaluations.

Final-Value: -11.141


	FINAL GENETIC ALGORITHM DOCKED STATE
	_______________________________________________


Detailed state:  trans 23.219 42.147 -6.046 quatxyzw -0.390575 -0.351239 0.850217 -0.034826 center 0.153 0.018 -0.028 ntor 13 123.2567 -121.1530 106.0721 36.7695 -131.8741 -91.2909 -46.4874 -103.0194 28.3258 -142.0958 -95.8478 18.5683 -5.8543
State:	 23.219  42.147  -6.046  -0.391 -0.351  0.851 -176.008    123.26 -121.15  106.07   36.77 -131.87  -91.29  -46.49 -103.02   28.33 -142.10  -95.85   18.57   -5.85

DOCKED: MODEL       23
DOCKED: USER    Run = 23
DOCKED: USER    DPF = D:/Protein_go_brrr/autodock/final/6BB5/heme/dock.dpf
DOCKED: USER  
DOCKED: USER    Estimated Free Energy of Binding    =   -2.57 kcal/mol  [=(1)+(2)+(3)-(4)]
DOCKED: USER    Estimated Inhibition Constant, Ki   =   13.10 mM (millimolar)  [Temperature = 298.15 K]
DOCKED: USER    
DOCKED: USER    (1) Final Intermolecular Energy     =   -6.45 kcal/mol
DOCKED: USER        vdW + Hbond + desolv Energy     =   -6.36 kcal/mol
DOCKED: USER        Electrostatic Energy            =   -0.09 kcal/mol
DOCKED: USER    (2) Final Total Internal Energy     =   -4.69 kcal/mol
DOCKED: USER    (3) Torsional Free Energy           =   +3.88 kcal/mol
DOCKED: USER    (4) Unbound System's Energy  [=(2)] =   -4.69 kcal/mol
DOCKED: USER    
DOCKED: USER    
DOCKED: USER    NEWDPF move heme_opt.pdbqt
DOCKED: USER    NEWDPF about 0.153000 0.018000 -0.028000
DOCKED: USER    NEWDPF tran0 23.218975 42.147286 -6.046401
DOCKED: USER    NEWDPF quaternion0 -0.390575 -0.351239 0.850217 -0.034826
DOCKED: USER    NEWDPF axisangle0 -0.390812 -0.351452 0.850733 -176.008421
DOCKED: USER    NEWDPF quat0 -0.390812 -0.351452 0.850733 -176.008421
DOCKED: USER    NEWDPF dihe0 123.26 -121.15 106.07 36.77 -131.87 -91.29 -46.49 -103.02 28.33 -142.10 -95.85 18.57 -5.85 
DOCKED: USER  keepresnum = 1 
DOCKED: USER  
DOCKED: REMARK  13 active torsions:
DOCKED: REMARK  status: ('A' for Active; 'I' for Inactive)
DOCKED: REMARK    1  A    between atoms: O_3  and  C_38 
DOCKED: REMARK    2  A    between atoms: O_4  and  C_40 
DOCKED: REMARK    3  A    between atoms: O_7  and  C_46 
DOCKED: REMARK    4  A    between atoms: O_9  and  C_48 
DOCKED: REMARK    5  A    between atoms: C_15  and  C_20 
DOCKED: REMARK    6  A    between atoms: C_16  and  C_23 
DOCKED: REMARK    7  A    between atoms: C_20  and  C_38 
DOCKED: REMARK    8  A    between atoms: C_23  and  C_40 
DOCKED: REMARK    9  A    between atoms: C_32  and  C_41 
DOCKED: REMARK   10  A    between atoms: C_37  and  C_45 
DOCKED: REMARK   11  A    between atoms: C_41  and  C_44 
DOCKED: REMARK   12  A    between atoms: C_44  and  C_46 
DOCKED: REMARK   13  A    between atoms: C_47  and  C_48 
DOCKED: USER                              x       y       z     vdW  Elec       q    Type
DOCKED: USER                           _______ _______ _______ _____ _____    ______ ____
DOCKED: ROOT
DOCKED: ATOM      1  O   UNL d   1      27.022  38.638  -3.221 -0.16 -0.02    -0.289 OA
DOCKED: ATOM      2  O   UNL d   1      25.104  45.800  -2.028 -0.08 -0.04    -0.289 OA
DOCKED: ATOM      3  N   UNL d   1      24.814  40.343  -5.250 -0.11 -0.04    -0.247 NA
DOCKED: ATOM      4  N   UNL d   1      24.457  42.936  -3.843 -0.19 -0.04    -0.247 NA
DOCKED: ATOM      5  N   UNL d   1      22.194  43.441  -5.542 -0.10 -0.05    -0.354 N 
DOCKED: ATOM      6  N   UNL d   1      22.559  40.741  -6.983 -0.09 -0.08    -0.354 N 
DOCKED: ATOM      7  C   UNL d   1      25.590  38.023  -5.105 -0.17 +0.00    +0.084 A 
DOCKED: ATOM      8  C   UNL d   1      26.286  43.690  -2.407 -0.16 +0.01    +0.084 A 
DOCKED: ATOM      9  C   UNL d   1      25.677  42.601  -3.297 -0.23 +0.01    +0.058 A 
DOCKED: ATOM     10  C   UNL d   1      24.706  39.071  -5.786 -0.18 +0.01    +0.058 A 
DOCKED: ATOM     11  C   UNL d   1      26.232  38.932  -4.100 -0.16 +0.01    +0.193 A 
DOCKED: ATOM     12  C   UNL d   1      25.698  40.316  -4.306 -0.15 +0.01    +0.109 A 
DOCKED: ATOM     13  C   UNL d   1      25.169  44.689  -2.519 -0.11 +0.03    +0.193 A 
DOCKED: ATOM     14  C   UNL d   1      24.764  36.969  -4.364 -0.28 -0.00    +0.026 C 
DOCKED: ATOM     15  C   UNL d   1      26.259  41.407  -3.484 -0.19 +0.01    +0.055 C 
DOCKED: ATOM     16  C   UNL d   1      27.549  44.291  -3.030 -0.06 +0.00    +0.026 C 
DOCKED: ATOM     17  C   UNL d   1      24.120  44.109  -3.410 -0.26 +0.01    +0.109 A 
DOCKED: ATOM     18  C   UNL d   1      23.966  38.770  -6.870 -0.15 +0.01    +0.050 C 
DOCKED: ATOM     19  C   UNL d   1      23.186  39.691  -7.615 -0.12 +0.01    +0.045 A 
DOCKED: ATOM     20  C   UNL d   1      22.048  44.467  -4.645 -0.23 +0.00    +0.045 A 
DOCKED: ATOM     21  C   UNL d   1      22.878  44.852  -3.670 -0.30 +0.00    +0.057 C 
DOCKED: ATOM     22  C   UNL d   1      20.221  44.420  -6.015 -0.33 -0.00    -0.019 A 
DOCKED: ATOM     23  C   UNL d   1      21.140  43.334  -6.410 -0.29 +0.01    +0.045 A 
DOCKED: ATOM     24  C   UNL d   1      20.765  45.088  -4.970 -0.30 +0.00    -0.022 A 
DOCKED: ATOM     25  C   UNL d   1      21.787  41.450  -7.874 -0.17 +0.01    +0.049 A 
DOCKED: ATOM     26  C   UNL d   1      22.842  39.740  -8.957 -0.09 -0.00    -0.018 A 
DOCKED: ATOM     27  C   UNL d   1      21.975  40.865  -9.119 -0.11 +0.00    +0.003 A 
DOCKED: ATOM     28  C   UNL d   1      20.923  42.485  -7.427 -0.23 +0.01    +0.052 C 
DOCKED: ATOM     29  C   UNL d   1      20.223  46.264  -4.232 -0.31 -0.01    +0.046 C 
DOCKED: ATOM     30  C   UNL d   1      23.292  38.803 -10.027 -0.04 +0.01    +0.046 C 
DOCKED: ATOM     31  H   UNL d   1      23.046  42.893  -5.580 +0.06 +0.03    +0.166 HD
DOCKED: ATOM     32  H   UNL d   1      22.636  40.924  -5.990 +0.12 +0.05    +0.166 HD
DOCKED: ENDROOT
DOCKED: BRANCH   7  33
DOCKED: ATOM     33  C   UNL d   1      26.653  37.377  -6.001 -0.05 +0.00    +0.141 C 
DOCKED: BRANCH  33  34
DOCKED: ATOM     34  C   UNL d   1      27.826  38.284  -6.254 -0.01 +0.01    +0.306 C 
DOCKED: ATOM     35  O   UNL d   1      27.858  39.221  -7.034 -0.01 -0.01    -0.251 OA
DOCKED: BRANCH  34  36
DOCKED: ATOM     36  O   UNL d   1      28.899  37.965  -5.507 +0.00 -0.02    -0.481 OA
DOCKED: ATOM     37  H   UNL d   1      28.586  38.042  -4.581 +0.03 +0.01    +0.295 HD
DOCKED: ENDBRANCH  34  36
DOCKED: ENDBRANCH  33  34
DOCKED: ENDBRANCH   7  33
DOCKED: BRANCH  27  38
DOCKED: ATOM     38  C   UNL d   1      21.372  41.272 -10.352 -0.10 +0.01    +0.017 C 
DOCKED: ATOM     39  C   UNL d   1      21.479  42.492 -10.901 -0.08 +0.02    +0.092 C 
DOCKED: BRANCH  39  40
DOCKED: ATOM     40  C   UNL d   1      20.826  42.776 -12.181 -0.04 +0.08    +0.330 C 
DOCKED: ATOM     41  O   UNL d   1      21.306  42.694 -13.295 -0.01 -0.04    -0.246 OA
DOCKED: BRANCH  40  42
DOCKED: ATOM     42  O   UNL d   1      19.554  43.153 -11.977 -0.07 -0.15    -0.477 OA
DOCKED: ATOM     43  H   UNL d   1      19.633  43.944 -11.404 +0.04 +0.06    +0.295 HD
DOCKED: ENDBRANCH  40  42
DOCKED: ENDBRANCH  39  40
DOCKED: ENDBRANCH  27  38
DOCKED: BRANCH   8  44
DOCKED: ATOM     44  C   UNL d   1      26.522  43.293  -0.946 -0.20 +0.03    +0.141 C 
DOCKED: BRANCH  44  45
DOCKED: ATOM     45  C   UNL d   1      27.369  44.282  -0.191 -0.10 +0.09    +0.306 C 
DOCKED: ATOM     46  O   UNL d   1      28.583  44.266  -0.081 -0.05 -0.07    -0.251 OA
DOCKED: BRANCH  45  47
DOCKED: ATOM     47  O   UNL d   1      26.634  45.233   0.414 -0.07 -0.21    -0.481 OA
DOCKED: ATOM     48  H   UNL d   1      26.349  45.826  -0.314 +0.07 +0.09    +0.295 HD
DOCKED: ENDBRANCH  45  47
DOCKED: ENDBRANCH  44  45
DOCKED: ENDBRANCH   8  44
DOCKED: BRANCH  22  49
DOCKED: ATOM     49  C   UNL d   1      18.903  44.692  -6.679 -0.29 +0.00    +0.048 C 
DOCKED: BRANCH  49  50
DOCKED: ATOM     50  C   UNL d   1      19.047  45.658  -7.855 -0.13 +0.00    +0.125 C 
DOCKED: BRANCH  50  51
DOCKED: ATOM     51  C   UNL d   1      19.430  44.923  -9.108 -0.07 +0.03    +0.305 C 
DOCKED: ATOM     52  O   UNL d   1      20.501  44.949  -9.687 -0.04 -0.03    -0.251 OA
DOCKED: BRANCH  51  53
DOCKED: ATOM     53  O   UNL d   1      18.411  44.183  -9.590 -0.07 -0.09    -0.481 OA
DOCKED: ATOM     54  H   UNL d   1      18.847  43.380  -9.944 +0.07 +0.10    +0.295 HD
DOCKED: ENDBRANCH  51  53
DOCKED: ENDBRANCH  50  51
DOCKED: ENDBRANCH  49  50
DOCKED: ENDBRANCH  22  49
DOCKED: TORSDOF 13
DOCKED: TER
DOCKED: ENDMDL
________________________________________________________________________________


	BEGINNING GENETIC ALGORITHM DOCKING 24 of 100
Run: 24 Seed: 1716015546 575128203 [ Run 24 of 100 GA/GALS ]
Beginning LAMARCKIAN GENETIC ALGORITHM (LGA), with a maximum of 25000000 energy evaluations.

Final-Value: -12.420


	FINAL GENETIC ALGORITHM DOCKED STATE
	_______________________________________________


Detailed state:  trans 36.811 30.047 0.107 quatxyzw -0.962084 0.047376 0.210113 -0.167336 center 0.153 0.018 -0.028 ntor 13 -28.3892 179.8454 85.3997 -51.3259 -177.7218 -64.4442 -47.6739 -133.3878 -22.9861 -121.4207 -105.7560 26.9457 -8.5105
State:	 36.811  30.047   0.107  -0.976  0.048  0.213 -160.734    -28.39  179.85   85.40  -51.33 -177.72  -64.44  -47.67 -133.39  -22.99 -121.42 -105.76   26.95   -8.51

DOCKED: MODEL       24
DOCKED: USER    Run = 24
DOCKED: USER    DPF = D:/Protein_go_brrr/autodock/final/6BB5/heme/dock.dpf
DOCKED: USER  
DOCKED: USER    Estimated Free Energy of Binding    =   -4.67 kcal/mol  [=(1)+(2)+(3)-(4)]
DOCKED: USER    Estimated Inhibition Constant, Ki   =  376.34 uM (micromolar)  [Temperature = 298.15 K]
DOCKED: USER    
DOCKED: USER    (1) Final Intermolecular Energy     =   -8.55 kcal/mol
DOCKED: USER        vdW + Hbond + desolv Energy     =   -8.36 kcal/mol
DOCKED: USER        Electrostatic Energy            =   -0.19 kcal/mol
DOCKED: USER    (2) Final Total Internal Energy     =   -3.87 kcal/mol
DOCKED: USER    (3) Torsional Free Energy           =   +3.88 kcal/mol
DOCKED: USER    (4) Unbound System's Energy  [=(2)] =   -3.87 kcal/mol
DOCKED: USER    
DOCKED: USER    
DOCKED: USER    NEWDPF move heme_opt.pdbqt
DOCKED: USER    NEWDPF about 0.153000 0.018000 -0.028000
DOCKED: USER    NEWDPF tran0 36.810991 30.046645 0.107104
DOCKED: USER    NEWDPF quaternion0 -0.962084 0.047376 0.210113 -0.167336
DOCKED: USER    NEWDPF axisangle0 -0.975844 0.048054 0.213118 -160.734049
DOCKED: USER    NEWDPF quat0 -0.975844 0.048054 0.213118 -160.734049
DOCKED: USER    NEWDPF dihe0 -28.39 179.85 85.40 -51.33 -177.72 -64.44 -47.67 -133.39 -22.99 -121.42 -105.76 26.95 -8.51 
DOCKED: USER  keepresnum = 1 
DOCKED: USER  
DOCKED: REMARK  13 active torsions:
DOCKED: REMARK  status: ('A' for Active; 'I' for Inactive)
DOCKED: REMARK    1  A    between atoms: O_3  and  C_38 
DOCKED: REMARK    2  A    between atoms: O_4  and  C_40 
DOCKED: REMARK    3  A    between atoms: O_7  and  C_46 
DOCKED: REMARK    4  A    between atoms: O_9  and  C_48 
DOCKED: REMARK    5  A    between atoms: C_15  and  C_20 
DOCKED: REMARK    6  A    between atoms: C_16  and  C_23 
DOCKED: REMARK    7  A    between atoms: C_20  and  C_38 
DOCKED: REMARK    8  A    between atoms: C_23  and  C_40 
DOCKED: REMARK    9  A    between atoms: C_32  and  C_41 
DOCKED: REMARK   10  A    between atoms: C_37  and  C_45 
DOCKED: REMARK   11  A    between atoms: C_41  and  C_44 
DOCKED: REMARK   12  A    between atoms: C_44  and  C_46 
DOCKED: REMARK   13  A    between atoms: C_47  and  C_48 
DOCKED: USER                              x       y       z     vdW  Elec       q    Type
DOCKED: USER                           _______ _______ _______ _____ _____    ______ ____
DOCKED: ROOT
DOCKED: ATOM      1  O   UNL d   1      31.196  28.798   1.400 -0.37 -0.27    -0.289 OA
DOCKED: ATOM      2  O   UNL d   1      35.796  34.115   4.038 -0.21 -0.02    -0.289 OA
DOCKED: ATOM      3  N   UNL d   1      34.495  29.064   0.430 -0.09 -0.03    -0.247 NA
DOCKED: ATOM      4  N   UNL d   1      35.390  31.580   1.733 -0.12 -0.02    -0.247 NA
DOCKED: ATOM      5  N   UNL d   1      37.722  31.512   0.052 -0.07 +0.03    -0.354 N 
DOCKED: ATOM      6  N   UNL d   1      36.777  28.912  -1.308 -0.03 -0.01    -0.354 N 
DOCKED: ATOM      7  C   UNL d   1      32.597  27.675  -0.259 -0.10 +0.01    +0.084 A 
DOCKED: ATOM      8  C   UNL d   1      34.215  32.267   3.762 -0.34 +0.02    +0.084 A 
DOCKED: ATOM      9  C   UNL d   1      34.335  31.306   2.574 -0.26 +0.01    +0.058 A 
DOCKED: ATOM     10  C   UNL d   1      34.068  28.064  -0.428 -0.11 +0.00    +0.058 A 
DOCKED: ATOM     11  C   UNL d   1      32.272  28.619   0.860 -0.16 +0.08    +0.193 A 
DOCKED: ATOM     12  C   UNL d   1      33.511  29.386   1.204 -0.19 +0.03    +0.109 A 
DOCKED: ATOM     13  C   UNL d   1      35.375  33.159   3.418 -0.29 +0.01    +0.193 A 
DOCKED: ATOM     14  C   UNL d   1      31.758  28.052  -1.484 -0.04 +0.00    +0.026 C 
DOCKED: ATOM     15  C   UNL d   1      33.456  30.317   2.349 -0.33 +0.02    +0.055 C 
DOCKED: ATOM     16  C   UNL d   1      34.510  31.566   5.092 -0.56 +0.00    +0.026 C 
DOCKED: ATOM     17  C   UNL d   1      35.997  32.639   2.163 -0.23 -0.00    +0.109 A 
DOCKED: ATOM     18  C   UNL d   1      34.875  27.409  -1.284 -0.09 +0.00    +0.050 C 
DOCKED: ATOM     19  C   UNL d   1      36.264  27.642  -1.447 -0.09 +0.00    +0.045 A 
DOCKED: ATOM     20  C   UNL d   1      37.855  32.766   0.589 -0.20 -0.01    +0.045 A 
DOCKED: ATOM     21  C   UNL d   1      37.138  33.343   1.559 -0.24 -0.01    +0.057 C 
DOCKED: ATOM     22  C   UNL d   1      39.443  32.483  -1.029 -0.15 +0.00    -0.019 A 
DOCKED: ATOM     23  C   UNL d   1      38.637  31.250  -0.933 -0.14 -0.00    +0.045 A 
DOCKED: ATOM     24  C   UNL d   1      38.976  33.377  -0.125 -0.24 +0.00    -0.022 A 
DOCKED: ATOM     25  C   UNL d   1      38.122  28.924  -1.595 -0.10 -0.00    +0.049 A 
DOCKED: ATOM     26  C   UNL d   1      37.309  26.801  -1.798 -0.09 +0.00    -0.018 A 
DOCKED: ATOM     27  C   UNL d   1      38.483  27.613  -1.871 -0.11 -0.00    +0.003 A 
DOCKED: ATOM     28  C   UNL d   1      38.840  30.149  -1.673 -0.11 -0.00    +0.052 C 
DOCKED: ATOM     29  C   UNL d   1      39.467  34.754   0.164 -0.29 -0.00    +0.046 C 
DOCKED: ATOM     30  C   UNL d   1      37.226  25.334  -2.048 -0.07 -0.00    +0.046 C 
DOCKED: ATOM     31  H   UNL d   1      37.056  30.846   0.429 +0.06 -0.00    +0.166 HD
DOCKED: ATOM     32  H   UNL d   1      36.215  29.720  -1.066 +0.03 +0.01    +0.166 HD
DOCKED: ENDROOT
DOCKED: BRANCH   7  33
DOCKED: ATOM     33  C   UNL d   1      32.345  26.226   0.169 -0.12 -0.00    +0.141 C 
DOCKED: BRANCH  33  34
DOCKED: ATOM     34  C   UNL d   1      33.516  25.627   0.902 -0.08 -0.08    +0.306 C 
DOCKED: ATOM     35  O   UNL d   1      34.113  24.610   0.595 -0.19 +0.12    -0.251 OA
DOCKED: BRANCH  34  36
DOCKED: ATOM     36  O   UNL d   1      33.873  26.345   1.981 -0.11 +0.14    -0.481 OA
DOCKED: ATOM     37  H   UNL d   1      34.229  25.682   2.611 -0.20 -0.24    +0.295 HD
DOCKED: ENDBRANCH  34  36
DOCKED: ENDBRANCH  33  34
DOCKED: ENDBRANCH   7  33
DOCKED: BRANCH  27  38
DOCKED: ATOM     38  C   UNL d   1      39.790  27.144  -2.219 -0.13 +0.00    +0.017 C 
DOCKED: ATOM     39  C   UNL d   1      40.860  27.157  -1.409 -0.17 +0.00    +0.092 C 
DOCKED: BRANCH  39  40
DOCKED: ATOM     40  C   UNL d   1      42.142  26.629  -1.883 -0.01 +0.02    +0.330 C 
DOCKED: ATOM     41  O   UNL d   1      42.414  25.477  -2.162 -0.11 -0.01    -0.246 OA
DOCKED: BRANCH  40  42
DOCKED: ATOM     42  O   UNL d   1      43.038  27.622  -1.991 -0.00 -0.02    -0.477 OA
DOCKED: ATOM     43  H   UNL d   1      42.540  28.419  -1.714 +0.09 +0.00    +0.295 HD
DOCKED: ENDBRANCH  40  42
DOCKED: ENDBRANCH  39  40
DOCKED: ENDBRANCH  27  38
DOCKED: BRANCH   8  44
DOCKED: ATOM     44  C   UNL d   1      32.910  33.067   3.835 -0.22 +0.05    +0.141 C 
DOCKED: BRANCH  44  45
DOCKED: ATOM     45  C   UNL d   1      32.931  34.142   4.888 -0.22 +0.07    +0.306 C 
DOCKED: ATOM     46  O   UNL d   1      32.559  34.035   6.044 -0.36 -0.03    -0.251 OA
DOCKED: BRANCH  45  47
DOCKED: ATOM     47  O   UNL d   1      33.396  35.314   4.419 -0.16 -0.08    -0.481 OA
DOCKED: ATOM     48  H   UNL d   1      34.348  35.315   4.655 -0.09 +0.04    +0.295 HD
DOCKED: ENDBRANCH  45  47
DOCKED: ENDBRANCH  44  45
DOCKED: ENDBRANCH   8  44
DOCKED: BRANCH  22  49
DOCKED: ATOM     49  C   UNL d   1      40.573  32.678  -1.996 -0.11 -0.00    +0.048 C 
DOCKED: BRANCH  49  50
DOCKED: ATOM     50  C   UNL d   1      41.917  32.278  -1.388 -0.21 -0.01    +0.125 C 
DOCKED: BRANCH  50  51
DOCKED: ATOM     51  C   UNL d   1      42.052  30.784  -1.320 -0.21 -0.02    +0.305 C 
DOCKED: ATOM     52  O   UNL d   1      42.529  30.121  -0.415 -0.45 +0.02    -0.251 OA
DOCKED: BRANCH  51  53
DOCKED: ATOM     53  O   UNL d   1      41.579  30.183  -2.430 -0.01 +0.01    -0.481 OA
DOCKED: ATOM     54  H   UNL d   1      42.311  29.599  -2.716 +0.08 -0.01    +0.295 HD
DOCKED: ENDBRANCH  51  53
DOCKED: ENDBRANCH  50  51
DOCKED: ENDBRANCH  49  50
DOCKED: ENDBRANCH  22  49
DOCKED: TORSDOF 13
DOCKED: TER
DOCKED: ENDMDL
________________________________________________________________________________


	BEGINNING GENETIC ALGORITHM DOCKING 25 of 100
Run: 25 Seed: 348420595 1145652569 [ Run 25 of 100 GA/GALS ]
Beginning LAMARCKIAN GENETIC ALGORITHM (LGA), with a maximum of 25000000 energy evaluations.

Final-Value: -9.417


	FINAL GENETIC ALGORITHM DOCKED STATE
	_______________________________________________


Detailed state:  trans 18.498 29.075 -12.293 quatxyzw -0.282884 0.416666 0.704373 0.500225 center 0.153 0.018 -0.028 ntor 13 171.3806 -27.9941 -119.0363 121.6242 -147.6298 157.0782 121.2720 80.9385 15.9923 -28.8211 110.0107 20.4968 172.7292
State:	 18.498  29.075 -12.293  -0.327  0.481  0.813 119.970    171.38  -27.99 -119.04  121.62 -147.63  157.08  121.27   80.94   15.99  -28.82  110.01   20.50  172.73

DOCKED: MODEL       25
DOCKED: USER    Run = 25
DOCKED: USER    DPF = D:/Protein_go_brrr/autodock/final/6BB5/heme/dock.dpf
DOCKED: USER  
DOCKED: USER    Estimated Free Energy of Binding    =   -2.79 kcal/mol  [=(1)+(2)+(3)-(4)]
DOCKED: USER    Estimated Inhibition Constant, Ki   =    9.03 mM (millimolar)  [Temperature = 298.15 K]
DOCKED: USER    
DOCKED: USER    (1) Final Intermolecular Energy     =   -6.67 kcal/mol
DOCKED: USER        vdW + Hbond + desolv Energy     =   -6.22 kcal/mol
DOCKED: USER        Electrostatic Energy            =   -0.44 kcal/mol
DOCKED: USER    (2) Final Total Internal Energy     =   -2.75 kcal/mol
DOCKED: USER    (3) Torsional Free Energy           =   +3.88 kcal/mol
DOCKED: USER    (4) Unbound System's Energy  [=(2)] =   -2.75 kcal/mol
DOCKED: USER    
DOCKED: USER    
DOCKED: USER    NEWDPF move heme_opt.pdbqt
DOCKED: USER    NEWDPF about 0.153000 0.018000 -0.028000
DOCKED: USER    NEWDPF tran0 18.497657 29.075021 -12.292700
DOCKED: USER    NEWDPF quaternion0 -0.282884 0.416666 0.704373 0.500225
DOCKED: USER    NEWDPF axisangle0 -0.326695 0.481197 0.813462 119.970236
DOCKED: USER    NEWDPF quat0 -0.326695 0.481197 0.813462 119.970236
DOCKED: USER    NEWDPF dihe0 171.38 -27.99 -119.04 121.62 -147.63 157.08 121.27 80.94 15.99 -28.82 110.01 20.50 172.73 
DOCKED: USER  keepresnum = 1 
DOCKED: USER  
DOCKED: REMARK  13 active torsions:
DOCKED: REMARK  status: ('A' for Active; 'I' for Inactive)
DOCKED: REMARK    1  A    between atoms: O_3  and  C_38 
DOCKED: REMARK    2  A    between atoms: O_4  and  C_40 
DOCKED: REMARK    3  A    between atoms: O_7  and  C_46 
DOCKED: REMARK    4  A    between atoms: O_9  and  C_48 
DOCKED: REMARK    5  A    between atoms: C_15  and  C_20 
DOCKED: REMARK    6  A    between atoms: C_16  and  C_23 
DOCKED: REMARK    7  A    between atoms: C_20  and  C_38 
DOCKED: REMARK    8  A    between atoms: C_23  and  C_40 
DOCKED: REMARK    9  A    between atoms: C_32  and  C_41 
DOCKED: REMARK   10  A    between atoms: C_37  and  C_45 
DOCKED: REMARK   11  A    between atoms: C_41  and  C_44 
DOCKED: REMARK   12  A    between atoms: C_44  and  C_46 
DOCKED: REMARK   13  A    between atoms: C_47  and  C_48 
DOCKED: USER                              x       y       z     vdW  Elec       q    Type
DOCKED: USER                           _______ _______ _______ _____ _____    ______ ____
DOCKED: ROOT
DOCKED: ATOM      1  O   UNL d   1      20.666  34.291 -10.607 -0.02 -0.03    -0.289 OA
DOCKED: ATOM      2  O   UNL d   1      18.415  31.832 -17.335 -0.00 +0.00    -0.289 OA
DOCKED: ATOM      3  N   UNL d   1      19.579  31.063 -11.148 -0.04 +0.04    -0.247 NA
DOCKED: ATOM      4  N   UNL d   1      18.637  31.123 -13.965 -0.02 +0.01    -0.247 NA
DOCKED: ATOM      5  N   UNL d   1      17.355  28.593 -13.493 -0.04 +0.04    -0.354 N 
DOCKED: ATOM      6  N   UNL d   1      18.320  28.549 -10.566 -0.09 +0.09    -0.354 N 
DOCKED: ATOM      7  C   UNL d   1      20.213  32.366  -9.171 -0.17 -0.02    +0.084 A 
DOCKED: ATOM      8  C   UNL d   1      19.644  32.786 -15.446 -0.00 +0.00    +0.084 A 
DOCKED: ATOM      9  C   UNL d   1      19.490  32.201 -14.038 -0.01 -0.00    +0.058 A 
DOCKED: ATOM     10  C   UNL d   1      19.719  31.046  -9.770 -0.20 -0.02    +0.058 A 
DOCKED: ATOM     11  C   UNL d   1      20.344  33.127 -10.456 -0.03 -0.01    +0.193 A 
DOCKED: ATOM     12  C   UNL d   1      19.956  32.221 -11.583 -0.03 -0.01    +0.109 A 
DOCKED: ATOM     13  C   UNL d   1      18.690  31.864 -16.152 +0.00 -0.00    +0.193 A 
DOCKED: ATOM     14  C   UNL d   1      19.145  33.038  -8.304 -0.21 -0.00    +0.026 C 
DOCKED: ATOM     15  C   UNL d   1      20.096  32.729 -12.963 -0.02 +0.00    +0.055 C 
DOCKED: ATOM     16  C   UNL d   1      21.052  32.560 -16.004 +0.00 +0.00    +0.026 C 
DOCKED: ATOM     17  C   UNL d   1      18.142  30.909 -15.142 -0.03 -0.00    +0.109 A 
DOCKED: ATOM     18  C   UNL d   1      19.534  29.953  -9.007 -0.34 -0.03    +0.050 C 
DOCKED: ATOM     19  C   UNL d   1      19.161  28.670  -9.483 -0.27 -0.02    +0.045 A 
DOCKED: ATOM     20  C   UNL d   1      16.827  28.899 -14.721 -0.09 -0.00    +0.045 A 
DOCKED: ATOM     21  C   UNL d   1      17.142  29.907 -15.540 -0.07 -0.00    +0.057 C 
DOCKED: ATOM     22  C   UNL d   1      15.792  27.028 -13.918 -0.12 +0.00    -0.019 A 
DOCKED: ATOM     23  C   UNL d   1      16.792  27.479 -12.930 -0.14 -0.01    +0.045 A 
DOCKED: ATOM     24  C   UNL d   1      15.819  27.872 -14.977 -0.09 +0.00    -0.022 A 
DOCKED: ATOM     25  C   UNL d   1      18.020  27.227 -10.799 -0.16 -0.01    +0.049 A 
DOCKED: ATOM     26  C   UNL d   1      19.445  27.393  -9.024 -0.29 +0.01    -0.018 A 
DOCKED: ATOM     27  C   UNL d   1      18.737  26.485  -9.871 -0.22 -0.00    +0.003 A 
DOCKED: ATOM     28  C   UNL d   1      17.045  26.860 -11.767 -0.20 -0.01    +0.052 C 
DOCKED: ATOM     29  C   UNL d   1      15.007  27.827 -16.226 -0.07 -0.00    +0.046 C 
DOCKED: ATOM     30  C   UNL d   1      20.321  27.036  -7.872 -0.32 -0.03    +0.046 C 
DOCKED: ATOM     31  H   UNL d   1      18.137  29.115 -13.112 +0.03 -0.02    +0.166 HD
DOCKED: ATOM     32  H   UNL d   1      17.951  29.340 -11.080 +0.07 -0.03    +0.166 HD
DOCKED: ENDROOT
DOCKED: BRANCH   7  33
DOCKED: ATOM     33  C   UNL d   1      21.562  32.295  -8.447 -0.10 -0.07    +0.141 C 
DOCKED: BRANCH  33  34
DOCKED: ATOM     34  C   UNL d   1      22.695  31.932  -9.368 -0.04 -0.12    +0.306 C 
DOCKED: ATOM     35  O   UNL d   1      23.124  30.809  -9.575 -0.05 +0.12    -0.251 OA
DOCKED: BRANCH  34  36
DOCKED: ATOM     36  O   UNL d   1      23.227  33.003  -9.983 +0.01 +0.08    -0.481 OA
DOCKED: ATOM     37  H   UNL d   1      22.599  33.733  -9.794 +0.03 -0.03    +0.295 HD
DOCKED: ENDBRANCH  34  36
DOCKED: ENDBRANCH  33  34
DOCKED: ENDBRANCH   7  33
DOCKED: BRANCH  27  38
DOCKED: ATOM     38  C   UNL d   1      18.740  25.059  -9.737 -0.21 -0.00    +0.017 C 
DOCKED: ATOM     39  C   UNL d   1      19.112  24.193 -10.691 -0.15 -0.02    +0.092 C 
DOCKED: BRANCH  39  40
DOCKED: ATOM     40  C   UNL d   1      19.086  22.753 -10.421 -0.11 -0.10    +0.330 C 
DOCKED: ATOM     41  O   UNL d   1      18.977  21.847 -11.225 -0.08 +0.08    -0.246 OA
DOCKED: BRANCH  40  42
DOCKED: ATOM     42  O   UNL d   1      19.212  22.528  -9.104 -0.09 +0.19    -0.477 OA
DOCKED: ATOM     43  H   UNL d   1      18.744  21.679  -8.965 -0.44 -0.23    +0.295 HD
DOCKED: ENDBRANCH  40  42
DOCKED: ENDBRANCH  39  40
DOCKED: ENDBRANCH  27  38
DOCKED: BRANCH   8  44
DOCKED: ATOM     44  C   UNL d   1      19.212  34.248 -15.604 +0.00 +0.01    +0.141 C 
DOCKED: BRANCH  44  45
DOCKED: ATOM     45  C   UNL d   1      17.720  34.419 -15.703 +0.00 +0.03    +0.306 C 
DOCKED: ATOM     46  O   UNL d   1      16.921  34.374 -14.784 -0.03 -0.03    -0.251 OA
DOCKED: BRANCH  45  47
DOCKED: ATOM     47  O   UNL d   1      17.306  34.613 -16.968 +0.01 -0.02    -0.481 OA
DOCKED: ATOM     48  H   UNL d   1      17.590  33.806 -17.448 +0.01 +0.01    +0.295 HD
DOCKED: ENDBRANCH  45  47
DOCKED: ENDBRANCH  44  45
DOCKED: ENDBRANCH   8  44
DOCKED: BRANCH  22  49
DOCKED: ATOM     49  C   UNL d   1      14.902  25.834 -13.731 -0.13 -0.01    +0.048 C 
DOCKED: BRANCH  49  50
DOCKED: ATOM     50  C   UNL d   1      13.594  26.204 -13.031 -0.27 -0.05    +0.125 C 
DOCKED: BRANCH  50  51
DOCKED: ATOM     51  C   UNL d   1      13.841  26.577 -11.597 -0.25 -0.17    +0.305 C 
DOCKED: ATOM     52  O   UNL d   1      14.329  27.609 -11.170 -0.60 +0.10    -0.251 OA
DOCKED: BRANCH  51  53
DOCKED: ATOM     53  O   UNL d   1      13.461  25.600 -10.749 -0.25 +0.40    -0.481 OA
DOCKED: ATOM     54  H   UNL d   1      12.507  25.477 -10.939 -0.30 -0.53    +0.295 HD
DOCKED: ENDBRANCH  51  53
DOCKED: ENDBRANCH  50  51
DOCKED: ENDBRANCH  49  50
DOCKED: ENDBRANCH  22  49
DOCKED: TORSDOF 13
DOCKED: TER
DOCKED: ENDMDL
________________________________________________________________________________


	BEGINNING GENETIC ALGORITHM DOCKING 26 of 100
Run: 26 Seed: 203656941 210474892 [ Run 26 of 100 GA/GALS ]
Beginning LAMARCKIAN GENETIC ALGORITHM (LGA), with a maximum of 25000000 energy evaluations.

Final-Value: -10.289


	FINAL GENETIC ALGORITHM DOCKED STATE
	_______________________________________________


Detailed state:  trans 46.570 29.025 17.268 quatxyzw -0.022955 -0.092644 0.909514 -0.404566 center 0.153 0.018 -0.028 ntor 13 -90.5459 5.5541 -112.3891 -173.4647 53.8605 -164.8198 126.7410 -99.6434 143.5760 -45.1584 -45.2970 -55.8322 167.5048
State:	 46.570  29.025  17.268  -0.025 -0.101  0.995 -132.272    -90.55    5.55 -112.39 -173.46   53.86 -164.82  126.74  -99.64  143.58  -45.16  -45.30  -55.83  167.50

DOCKED: MODEL       26
DOCKED: USER    Run = 26
DOCKED: USER    DPF = D:/Protein_go_brrr/autodock/final/6BB5/heme/dock.dpf
DOCKED: USER  
DOCKED: USER    Estimated Free Energy of Binding    =   -4.13 kcal/mol  [=(1)+(2)+(3)-(4)]
DOCKED: USER    Estimated Inhibition Constant, Ki   =  942.77 uM (micromolar)  [Temperature = 298.15 K]
DOCKED: USER    
DOCKED: USER    (1) Final Intermolecular Energy     =   -8.01 kcal/mol
DOCKED: USER        vdW + Hbond + desolv Energy     =   -7.70 kcal/mol
DOCKED: USER        Electrostatic Energy            =   -0.31 kcal/mol
DOCKED: USER    (2) Final Total Internal Energy     =   -2.28 kcal/mol
DOCKED: USER    (3) Torsional Free Energy           =   +3.88 kcal/mol
DOCKED: USER    (4) Unbound System's Energy  [=(2)] =   -2.28 kcal/mol
DOCKED: USER    
DOCKED: USER    
DOCKED: USER    NEWDPF move heme_opt.pdbqt
DOCKED: USER    NEWDPF about 0.153000 0.018000 -0.028000
DOCKED: USER    NEWDPF tran0 46.570173 29.025151 17.267770
DOCKED: USER    NEWDPF quaternion0 -0.022955 -0.092644 0.909514 -0.404566
DOCKED: USER    NEWDPF axisangle0 -0.025101 -0.101305 0.994539 -132.272137
DOCKED: USER    NEWDPF quat0 -0.025101 -0.101305 0.994539 -132.272137
DOCKED: USER    NEWDPF dihe0 -90.55 5.55 -112.39 -173.46 53.86 -164.82 126.74 -99.64 143.58 -45.16 -45.30 -55.83 167.50 
DOCKED: USER  keepresnum = 1 
DOCKED: USER  
DOCKED: REMARK  13 active torsions:
DOCKED: REMARK  status: ('A' for Active; 'I' for Inactive)
DOCKED: REMARK    1  A    between atoms: O_3  and  C_38 
DOCKED: REMARK    2  A    between atoms: O_4  and  C_40 
DOCKED: REMARK    3  A    between atoms: O_7  and  C_46 
DOCKED: REMARK    4  A    between atoms: O_9  and  C_48 
DOCKED: REMARK    5  A    between atoms: C_15  and  C_20 
DOCKED: REMARK    6  A    between atoms: C_16  and  C_23 
DOCKED: REMARK    7  A    between atoms: C_20  and  C_38 
DOCKED: REMARK    8  A    between atoms: C_23  and  C_40 
DOCKED: REMARK    9  A    between atoms: C_32  and  C_41 
DOCKED: REMARK   10  A    between atoms: C_37  and  C_45 
DOCKED: REMARK   11  A    between atoms: C_41  and  C_44 
DOCKED: REMARK   12  A    between atoms: C_44  and  C_46 
DOCKED: REMARK   13  A    between atoms: C_47  and  C_48 
DOCKED: USER                              x       y       z     vdW  Elec       q    Type
DOCKED: USER                           _______ _______ _______ _____ _____    ______ ____
DOCKED: ROOT
DOCKED: ATOM      1  O   UNL d   1      49.027  23.668  17.402 -0.57 -0.36    -0.289 OA
DOCKED: ATOM      2  O   UNL d   1      52.085  30.472  16.536 -0.02 -0.04    -0.289 OA
DOCKED: ATOM      3  N   UNL d   1      47.147  26.555  17.251 -0.06 -0.11    -0.247 NA
DOCKED: ATOM      4  N   UNL d   1      49.198  28.705  17.210 -0.08 -0.07    -0.247 NA
DOCKED: ATOM      5  N   UNL d   1      47.100  30.590  17.767 -0.06 -0.09    -0.354 N 
DOCKED: ATOM      6  N   UNL d   1      44.982  28.352  17.828 -0.05 -0.13    -0.354 N 
DOCKED: ATOM      7  C   UNL d   1      46.659  24.196  17.702 -0.13 +0.05    +0.084 A 
DOCKED: ATOM      8  C   UNL d   1      51.400  28.131  16.320 -0.07 +0.02    +0.084 A 
DOCKED: ATOM      9  C   UNL d   1      49.995  27.686  16.738 -0.12 +0.02    +0.058 A 
DOCKED: ATOM     10  C   UNL d   1      46.159  25.637  17.563 -0.16 +0.03    +0.058 A 
DOCKED: ATOM     11  C   UNL d   1      48.103  24.460  17.395 -0.13 +0.15    +0.193 A 
DOCKED: ATOM     12  C   UNL d   1      48.266  25.922  17.115 -0.11 +0.06    +0.109 A 
DOCKED: ATOM     13  C   UNL d   1      51.266  29.585  16.678 -0.04 +0.04    +0.193 A 
DOCKED: ATOM     14  C   UNL d   1      46.544  23.684  19.140 -0.10 +0.01    +0.026 C 
DOCKED: ATOM     15  C   UNL d   1      49.597  26.405  16.695 -0.16 +0.03    +0.055 C 
DOCKED: ATOM     16  C   UNL d   1      51.607  28.014  14.807 -0.15 +0.01    +0.026 C 
DOCKED: ATOM     17  C   UNL d   1      49.887  29.800  17.213 -0.08 +0.02    +0.109 A 
DOCKED: ATOM     18  C   UNL d   1      44.849  25.938  17.652 -0.22 +0.02    +0.050 C 
DOCKED: ATOM     19  C   UNL d   1      44.286  27.224  17.454 -0.22 +0.02    +0.045 A 
DOCKED: ATOM     20  C   UNL d   1      48.194  31.398  17.937 -0.11 +0.01    +0.045 A 
DOCKED: ATOM     21  C   UNL d   1      49.480  31.131  17.689 -0.09 +0.01    +0.057 C 
DOCKED: ATOM     22  C   UNL d   1      46.324  32.545  18.574 -0.16 -0.00    -0.019 A 
DOCKED: ATOM     23  C   UNL d   1      45.925  31.195  18.126 -0.17 +0.01    +0.045 A 
DOCKED: ATOM     24  C   UNL d   1      47.668  32.659  18.459 -0.11 -0.00    -0.022 A 
DOCKED: ATOM     25  C   UNL d   1      44.217  29.478  17.632 -0.25 +0.01    +0.049 A 
DOCKED: ATOM     26  C   UNL d   1      43.052  27.630  16.970 -0.25 -0.00    -0.018 A 
DOCKED: ATOM     27  C   UNL d   1      43.022  29.056  17.066 -0.29 +0.00    +0.003 A 
DOCKED: ATOM     28  C   UNL d   1      44.660  30.749  18.088 -0.27 +0.02    +0.052 C 
DOCKED: ATOM     29  C   UNL d   1      48.535  33.830  18.774 -0.07 +0.01    +0.046 C 
DOCKED: ATOM     30  C   UNL d   1      41.968  26.750  16.447 -0.35 +0.01    +0.046 C 
DOCKED: ATOM     31  H   UNL d   1      47.184  29.674  17.341 +0.05 +0.05    +0.166 HD
DOCKED: ATOM     32  H   UNL d   1      45.912  28.329  18.228 +0.05 +0.07    +0.166 HD
DOCKED: ENDROOT
DOCKED: BRANCH   7  33
DOCKED: ATOM     33  C   UNL d   1      46.071  23.196  16.700 -0.19 +0.10    +0.141 C 
DOCKED: BRANCH  33  34
DOCKED: ATOM     34  C   UNL d   1      46.388  21.768  17.053 -0.12 +0.25    +0.306 C 
DOCKED: ATOM     35  O   UNL d   1      45.602  20.942  17.485 -0.13 -0.12    -0.251 OA
DOCKED: BRANCH  34  36
DOCKED: ATOM     36  O   UNL d   1      47.679  21.456  16.841 -0.05 -0.82    -0.481 OA
DOCKED: ATOM     37  H   UNL d   1      48.134  21.712  17.671 +0.05 +0.40    +0.295 HD
DOCKED: ENDBRANCH  34  36
DOCKED: ENDBRANCH  33  34
DOCKED: ENDBRANCH   7  33
DOCKED: BRANCH  27  38
DOCKED: ATOM     38  C   UNL d   1      41.919  29.885  16.684 -0.38 +0.00    +0.017 C 
DOCKED: ATOM     39  C   UNL d   1      41.723  31.149  17.090 -0.42 +0.02    +0.092 C 
DOCKED: BRANCH  39  40
DOCKED: ATOM     40  C   UNL d   1      40.558  31.898  16.611 -0.24 +0.05    +0.330 C 
DOCKED: ATOM     41  O   UNL d   1      40.355  33.093  16.701 -0.37 -0.03    -0.246 OA
DOCKED: BRANCH  40  42
DOCKED: ATOM     42  O   UNL d   1      39.688  31.067  16.016 -0.17 -0.08    -0.477 OA
DOCKED: ATOM     43  H   UNL d   1      39.001  31.665  15.656 +0.18 +0.04    +0.295 HD
DOCKED: ENDBRANCH  40  42
DOCKED: ENDBRANCH  39  40
DOCKED: ENDBRANCH  27  38
DOCKED: BRANCH   8  44
DOCKED: ATOM     44  C   UNL d   1      52.555  27.482  17.090 -0.03 +0.03    +0.141 C 
DOCKED: BRANCH  44  45
DOCKED: ATOM     45  C   UNL d   1      53.033  28.308  18.254 -0.00 +0.06    +0.306 C 
DOCKED: ATOM     46  O   UNL d   1      52.540  28.347  19.368 -0.00 -0.05    -0.251 OA
DOCKED: BRANCH  45  47
DOCKED: ATOM     47  O   UNL d   1      54.098  29.068  17.943 +0.00 -0.07    -0.481 OA
DOCKED: ATOM     48  H   UNL d   1      53.757  29.721  17.295 +0.01 +0.04    +0.295 HD
DOCKED: ENDBRANCH  45  47
DOCKED: ENDBRANCH  44  45
DOCKED: ENDBRANCH   8  44
DOCKED: BRANCH  22  49
DOCKED: ATOM     49  C   UNL d   1      45.365  33.581  19.081 -0.27 +0.01    +0.048 C 
DOCKED: BRANCH  49  50
DOCKED: ATOM     50  C   UNL d   1      45.059  33.394  20.567 -0.21 +0.03    +0.125 C 
DOCKED: BRANCH  50  51
DOCKED: ATOM     51  C   UNL d   1      45.097  34.709  21.293 -0.19 +0.01    +0.305 C 
DOCKED: ATOM     52  O   UNL d   1      45.962  35.115  22.049 -0.12 -0.01    -0.251 OA
DOCKED: BRANCH  51  53
DOCKED: ATOM     53  O   UNL d   1      44.010  35.461  21.032 -0.18 +0.07    -0.481 OA
DOCKED: ATOM     54  H   UNL d   1      43.436  34.872  20.498 -0.27 -0.09    +0.295 HD
DOCKED: ENDBRANCH  51  53
DOCKED: ENDBRANCH  50  51
DOCKED: ENDBRANCH  49  50
DOCKED: ENDBRANCH  22  49
DOCKED: TORSDOF 13
DOCKED: TER
DOCKED: ENDMDL
________________________________________________________________________________


	BEGINNING GENETIC ALGORITHM DOCKING 27 of 100
Run: 27 Seed: 2046527219 1644589250 [ Run 27 of 100 GA/GALS ]
Beginning LAMARCKIAN GENETIC ALGORITHM (LGA), with a maximum of 25000000 energy evaluations.

Final-Value: -11.763


	FINAL GENETIC ALGORITHM DOCKED STATE
	_______________________________________________


Detailed state:  trans 16.127 37.424 29.128 quatxyzw 0.827071 0.271951 0.135696 -0.472845 center 0.153 0.018 -0.028 ntor 13 -105.1966 161.4280 174.3727 -96.9039 33.4618 59.1959 127.6349 -41.0540 129.0484 134.0577 -62.2542 -105.6272 31.2418
State:	 16.127  37.424  29.128   0.939  0.309  0.154 -123.562   -105.20  161.43  174.37  -96.90   33.46   59.20  127.63  -41.05  129.05  134.06  -62.25 -105.63   31.24

DOCKED: MODEL       27
DOCKED: USER    Run = 27
DOCKED: USER    DPF = D:/Protein_go_brrr/autodock/final/6BB5/heme/dock.dpf
DOCKED: USER  
DOCKED: USER    Estimated Free Energy of Binding    =   -4.12 kcal/mol  [=(1)+(2)+(3)-(4)]
DOCKED: USER    Estimated Inhibition Constant, Ki   =  955.68 uM (micromolar)  [Temperature = 298.15 K]
DOCKED: USER    
DOCKED: USER    (1) Final Intermolecular Energy     =   -8.00 kcal/mol
DOCKED: USER        vdW + Hbond + desolv Energy     =   -7.27 kcal/mol
DOCKED: USER        Electrostatic Energy            =   -0.72 kcal/mol
DOCKED: USER    (2) Final Total Internal Energy     =   -3.77 kcal/mol
DOCKED: USER    (3) Torsional Free Energy           =   +3.88 kcal/mol
DOCKED: USER    (4) Unbound System's Energy  [=(2)] =   -3.77 kcal/mol
DOCKED: USER    
DOCKED: USER    
DOCKED: USER    NEWDPF move heme_opt.pdbqt
DOCKED: USER    NEWDPF about 0.153000 0.018000 -0.028000
DOCKED: USER    NEWDPF tran0 16.126854 37.424003 29.128064
DOCKED: USER    NEWDPF quaternion0 0.827071 0.271951 0.135696 -0.472845
DOCKED: USER    NEWDPF axisangle0 0.938632 0.308634 0.154000 -123.561794
DOCKED: USER    NEWDPF quat0 0.938632 0.308634 0.154000 -123.561794
DOCKED: USER    NEWDPF dihe0 -105.20 161.43 174.37 -96.90 33.46 59.20 127.63 -41.05 129.05 134.06 -62.25 -105.63 31.24 
DOCKED: USER  keepresnum = 1 
DOCKED: USER  
DOCKED: REMARK  13 active torsions:
DOCKED: REMARK  status: ('A' for Active; 'I' for Inactive)
DOCKED: REMARK    1  A    between atoms: O_3  and  C_38 
DOCKED: REMARK    2  A    between atoms: O_4  and  C_40 
DOCKED: REMARK    3  A    between atoms: O_7  and  C_46 
DOCKED: REMARK    4  A    between atoms: O_9  and  C_48 
DOCKED: REMARK    5  A    between atoms: C_15  and  C_20 
DOCKED: REMARK    6  A    between atoms: C_16  and  C_23 
DOCKED: REMARK    7  A    between atoms: C_20  and  C_38 
DOCKED: REMARK    8  A    between atoms: C_23  and  C_40 
DOCKED: REMARK    9  A    between atoms: C_32  and  C_41 
DOCKED: REMARK   10  A    between atoms: C_37  and  C_45 
DOCKED: REMARK   11  A    between atoms: C_41  and  C_44 
DOCKED: REMARK   12  A    between atoms: C_44  and  C_46 
DOCKED: REMARK   13  A    between atoms: C_47  and  C_48 
DOCKED: USER                              x       y       z     vdW  Elec       q    Type
DOCKED: USER                           _______ _______ _______ _____ _____    ______ ____
DOCKED: ROOT
DOCKED: ATOM      1  O   UNL d   1      12.408  33.037  30.423 -0.13 +0.07    -0.289 OA
DOCKED: ATOM      2  O   UNL d   1      11.642  38.969  25.882 -0.12 +0.09    -0.289 OA
DOCKED: ATOM      3  N   UNL d   1      14.844  35.454  30.080 -0.12 +0.04    -0.247 NA
DOCKED: ATOM      4  N   UNL d   1      13.794  37.178  27.899 -0.16 +0.09    -0.247 NA
DOCKED: ATOM      5  N   UNL d   1      16.403  38.370  27.711 -0.13 +0.04    -0.354 N 
DOCKED: ATOM      6  N   UNL d   1      17.490  36.564  29.961 -0.07 -0.04    -0.354 N 
DOCKED: ATOM      7  C   UNL d   1      14.695  33.301  31.242 -0.12 -0.00    +0.084 A 
DOCKED: ATOM      8  C   UNL d   1      11.371  37.233  27.587 -0.14 -0.03    +0.084 A 
DOCKED: ATOM      9  C   UNL d   1      12.591  36.639  28.299 -0.16 -0.03    +0.058 A 
DOCKED: ATOM     10  C   UNL d   1      15.516  34.541  30.876 -0.18 -0.00    +0.058 A 
DOCKED: ATOM     11  C   UNL d   1      13.434  33.683  30.528 -0.11 -0.05    +0.193 A 
DOCKED: ATOM     12  C   UNL d   1      13.642  35.019  29.884 -0.15 -0.04    +0.109 A 
DOCKED: ATOM     13  C   UNL d   1      12.107  38.182  26.683 -0.15 -0.06    +0.193 A 
DOCKED: ATOM     14  C   UNL d   1      15.260  32.029  30.605 -0.23 -0.00    +0.026 C 
DOCKED: ATOM     15  C   UNL d   1      12.496  35.645  29.195 -0.14 -0.03    +0.055 C 
DOCKED: ATOM     16  C   UNL d   1      10.495  38.046  28.545 -0.05 -0.00    +0.026 C 
DOCKED: ATOM     17  C   UNL d   1      13.568  38.045  26.966 -0.22 -0.04    +0.109 A 
DOCKED: ATOM     18  C   UNL d   1      16.750  34.741  31.376 -0.21 +0.01    +0.050 C 
DOCKED: ATOM     19  C   UNL d   1      17.548  35.893  31.161 -0.11 +0.01    +0.045 A 
DOCKED: ATOM     20  C   UNL d   1      15.819  38.904  26.592 -0.28 -0.01    +0.045 A 
DOCKED: ATOM     21  C   UNL d   1      14.545  38.827  26.194 -0.23 -0.02    +0.057 C 
DOCKED: ATOM     22  C   UNL d   1      18.036  39.456  26.602 -0.26 +0.00    -0.019 A 
DOCKED: ATOM     23  C   UNL d   1      17.741  38.650  27.804 -0.22 +0.00    +0.045 A 
DOCKED: ATOM     24  C   UNL d   1      16.894  39.604  25.890 -0.31 +0.00    -0.022 A 
DOCKED: ATOM     25  C   UNL d   1      18.407  37.590  29.935 -0.17 +0.01    +0.049 A 
DOCKED: ATOM     26  C   UNL d   1      18.500  36.521  31.950 -0.09 -0.00    -0.018 A 
DOCKED: ATOM     27  C   UNL d   1      19.025  37.603  31.178 -0.14 +0.00    +0.003 A 
DOCKED: ATOM     28  C   UNL d   1      18.643  38.328  28.744 -0.25 +0.00    +0.052 C 
DOCKED: ATOM     29  C   UNL d   1      16.681  40.343  24.613 -0.47 -0.01    +0.046 C 
DOCKED: ATOM     30  C   UNL d   1      18.898  36.141  33.336 -0.09 +0.01    +0.046 C 
DOCKED: ATOM     31  H   UNL d   1      15.852  37.893  28.416 +0.06 -0.02    +0.166 HD
DOCKED: ATOM     32  H   UNL d   1      16.879  36.297  29.198 +0.04 +0.01    +0.166 HD
DOCKED: ENDROOT
DOCKED: BRANCH   7  33
DOCKED: ATOM     33  C   UNL d   1      14.428  33.109  32.739 -0.03 +0.00    +0.141 C 
DOCKED: BRANCH  33  34
DOCKED: ATOM     34  C   UNL d   1      13.552  31.919  33.023 +0.00 +0.01    +0.306 C 
DOCKED: ATOM     35  O   UNL d   1      13.929  30.771  33.189 -0.00 -0.01    -0.251 OA
DOCKED: BRANCH  34  36
DOCKED: ATOM     36  O   UNL d   1      12.248  32.238  33.086 +0.01 -0.02    -0.481 OA
DOCKED: ATOM     37  H   UNL d   1      11.993  32.421  32.156 +0.03 +0.01    +0.295 HD
DOCKED: ENDBRANCH  34  36
DOCKED: ENDBRANCH  33  34
DOCKED: ENDBRANCH   7  33
DOCKED: BRANCH  27  38
DOCKED: ATOM     38  C   UNL d   1      20.048  38.505  31.612 -0.09 +0.00    +0.017 C 
DOCKED: ATOM     39  C   UNL d   1      21.293  38.561  31.115 -0.10 +0.00    +0.092 C 
DOCKED: BRANCH  39  40
DOCKED: ATOM     40  C   UNL d   1      22.244  39.546  31.636 -0.00 -0.01    +0.330 C 
DOCKED: ATOM     41  O   UNL d   1      22.609  39.691  32.787 -0.01 +0.00    -0.246 OA
DOCKED: BRANCH  40  42
DOCKED: ATOM     42  O   UNL d   1      22.705  40.316  30.638 +0.02 +0.04    -0.477 OA
DOCKED: ATOM     43  H   UNL d   1      22.504  39.799  29.831 +0.10 -0.03    +0.295 HD
DOCKED: ENDBRANCH  40  42
DOCKED: ENDBRANCH  39  40
DOCKED: ENDBRANCH  27  38
DOCKED: BRANCH   8  44
DOCKED: ATOM     44  C   UNL d   1      10.532  36.241  26.775 -0.26 -0.06    +0.141 C 
DOCKED: BRANCH  44  45
DOCKED: ATOM     45  C   UNL d   1       9.518  35.500  27.605 -0.17 -0.00    +0.306 C 
DOCKED: ATOM     46  O   UNL d   1       8.409  35.895  27.920 -0.14 -0.05    -0.251 OA
DOCKED: BRANCH  45  47
DOCKED: ATOM     47  O   UNL d   1       9.970  34.304  28.023 -0.03 -0.15    -0.481 OA
DOCKED: ATOM     48  H   UNL d   1      10.832  34.192  27.569 -0.41 -0.50    +0.295 HD
DOCKED: ENDBRANCH  45  47
DOCKED: ENDBRANCH  44  45
DOCKED: ENDBRANCH   8  44
DOCKED: BRANCH  22  49
DOCKED: ATOM     49  C   UNL d   1      19.396  39.989  26.258 -0.36 -0.01    +0.048 C 
DOCKED: BRANCH  49  50
DOCKED: ATOM     50  C   UNL d   1      20.013  40.765  27.422 -0.21 -0.01    +0.125 C 
DOCKED: BRANCH  50  51
DOCKED: ATOM     51  C   UNL d   1      21.290  40.119  27.879 -0.23 -0.05    +0.305 C 
DOCKED: ATOM     52  O   UNL d   1      21.485  38.938  28.108 -0.26 +0.05    -0.251 OA
DOCKED: BRANCH  51  53
DOCKED: ATOM     53  O   UNL d   1      22.281  41.019  28.042 -0.12 +0.11    -0.481 OA
DOCKED: ATOM     54  H   UNL d   1      22.121  41.390  28.935 +0.10 -0.05    +0.295 HD
DOCKED: ENDBRANCH  51  53
DOCKED: ENDBRANCH  50  51
DOCKED: ENDBRANCH  49  50
DOCKED: ENDBRANCH  22  49
DOCKED: TORSDOF 13
DOCKED: TER
DOCKED: ENDMDL
________________________________________________________________________________


	BEGINNING GENETIC ALGORITHM DOCKING 28 of 100
Run: 28 Seed: 1267573211 2032971709 [ Run 28 of 100 GA/GALS ]
Beginning LAMARCKIAN GENETIC ALGORITHM (LGA), with a maximum of 25000000 energy evaluations.

Final-Value: -10.088


	FINAL GENETIC ALGORITHM DOCKED STATE
	_______________________________________________


Detailed state:  trans 0.917 26.540 -7.814 quatxyzw 0.148547 0.482222 -0.239845 -0.829379 center 0.153 0.018 -0.028 ntor 13 162.4510 128.6048 105.3400 27.5849 -146.4993 124.4613 -46.4951 52.9717 10.5705 -124.7727 -87.0794 -102.5496 -0.0371
State:	  0.917  26.540  -7.814   0.266  0.863 -0.429 -67.930    162.45  128.60  105.34   27.58 -146.50  124.46  -46.50   52.97   10.57 -124.77  -87.08 -102.55   -0.04

DOCKED: MODEL       28
DOCKED: USER    Run = 28
DOCKED: USER    DPF = D:/Protein_go_brrr/autodock/final/6BB5/heme/dock.dpf
DOCKED: USER  
DOCKED: USER    Estimated Free Energy of Binding    =   -1.66 kcal/mol  [=(1)+(2)+(3)-(4)]
DOCKED: USER    Estimated Inhibition Constant, Ki   =   60.55 mM (millimolar)  [Temperature = 298.15 K]
DOCKED: USER    
DOCKED: USER    (1) Final Intermolecular Energy     =   -5.54 kcal/mol
DOCKED: USER        vdW + Hbond + desolv Energy     =   -5.36 kcal/mol
DOCKED: USER        Electrostatic Energy            =   -0.18 kcal/mol
DOCKED: USER    (2) Final Total Internal Energy     =   -4.55 kcal/mol
DOCKED: USER    (3) Torsional Free Energy           =   +3.88 kcal/mol
DOCKED: USER    (4) Unbound System's Energy  [=(2)] =   -4.55 kcal/mol
DOCKED: USER    
DOCKED: USER    
DOCKED: USER    NEWDPF move heme_opt.pdbqt
DOCKED: USER    NEWDPF about 0.153000 0.018000 -0.028000
DOCKED: USER    NEWDPF tran0 0.917189 26.539511 -7.813997
DOCKED: USER    NEWDPF quaternion0 0.148547 0.482222 -0.239845 -0.829379
DOCKED: USER    NEWDPF axisangle0 0.265887 0.863136 -0.429302 -67.929938
DOCKED: USER    NEWDPF quat0 0.265887 0.863136 -0.429302 -67.929938
DOCKED: USER    NEWDPF dihe0 162.45 128.60 105.34 27.58 -146.50 124.46 -46.50 52.97 10.57 -124.77 -87.08 -102.55 -0.04 
DOCKED: USER  keepresnum = 1 
DOCKED: USER  
DOCKED: REMARK  13 active torsions:
DOCKED: REMARK  status: ('A' for Active; 'I' for Inactive)
DOCKED: REMARK    1  A    between atoms: O_3  and  C_38 
DOCKED: REMARK    2  A    between atoms: O_4  and  C_40 
DOCKED: REMARK    3  A    between atoms: O_7  and  C_46 
DOCKED: REMARK    4  A    between atoms: O_9  and  C_48 
DOCKED: REMARK    5  A    between atoms: C_15  and  C_20 
DOCKED: REMARK    6  A    between atoms: C_16  and  C_23 
DOCKED: REMARK    7  A    between atoms: C_20  and  C_38 
DOCKED: REMARK    8  A    between atoms: C_23  and  C_40 
DOCKED: REMARK    9  A    between atoms: C_32  and  C_41 
DOCKED: REMARK   10  A    between atoms: C_37  and  C_45 
DOCKED: REMARK   11  A    between atoms: C_41  and  C_44 
DOCKED: REMARK   12  A    between atoms: C_44  and  C_46 
DOCKED: REMARK   13  A    between atoms: C_47  and  C_48 
DOCKED: USER                              x       y       z     vdW  Elec       q    Type
DOCKED: USER                           _______ _______ _______ _____ _____    ______ ____
DOCKED: ROOT
DOCKED: ATOM      1  O   UNL d   1      -0.053  29.079  -2.582 -0.07 +0.03    -0.289 OA
DOCKED: ATOM      2  O   UNL d   1      -3.971  23.896  -6.347 -0.00 +0.02    -0.289 OA
DOCKED: ATOM      3  N   UNL d   1       0.845  27.976  -5.725 -0.11 +0.04    -0.247 NA
DOCKED: ATOM      4  N   UNL d   1      -1.075  25.769  -6.248 -0.05 +0.05    -0.247 NA
DOCKED: ATOM      5  N   UNL d   1       0.587  24.971  -8.455 -0.05 +0.23    -0.354 N 
DOCKED: ATOM      6  N   UNL d   1       2.584  27.251  -7.892 -0.13 +0.14    -0.354 N 
DOCKED: ATOM      7  C   UNL d   1       1.862  29.455  -4.055 -0.26 -0.01    +0.084 A 
DOCKED: ATOM      8  C   UNL d   1      -3.226  25.862  -5.094 -0.02 -0.01    +0.084 A 
DOCKED: ATOM      9  C   UNL d   1      -1.823  26.440  -5.307 -0.06 -0.01    +0.058 A 
DOCKED: ATOM     10  C   UNL d   1       1.936  28.775  -5.426 -0.27 -0.01    +0.058 A 
DOCKED: ATOM     11  C   UNL d   1       0.527  28.912  -3.640 -0.12 -0.02    +0.193 A 
DOCKED: ATOM     12  C   UNL d   1       0.002  28.051  -4.747 -0.11 -0.01    +0.109 A 
DOCKED: ATOM     13  C   UNL d   1      -3.121  24.716  -6.061 -0.01 -0.02    +0.193 A 
DOCKED: ATOM     14  C   UNL d   1       2.931  28.929  -3.095 -0.41 -0.00    +0.026 C 
DOCKED: ATOM     15  C   UNL d   1      -1.351  27.477  -4.600 -0.08 -0.01    +0.055 C 
DOCKED: ATOM     16  C   UNL d   1      -4.316  26.820  -5.582 -0.01 -0.00    +0.026 C 
DOCKED: ATOM     17  C   UNL d   1      -1.767  24.768  -6.689 -0.04 -0.02    +0.109 A 
DOCKED: ATOM     18  C   UNL d   1       2.944  29.026  -6.282 -0.36 -0.01    +0.050 C 
DOCKED: ATOM     19  C   UNL d   1       3.053  28.511  -7.598 -0.31 -0.01    +0.045 A 
DOCKED: ATOM     20  C   UNL d   1      -0.265  23.899  -8.402 -0.08 -0.02    +0.045 A 
DOCKED: ATOM     21  C   UNL d   1      -1.361  23.736  -7.654 -0.05 -0.02    +0.057 C 
DOCKED: ATOM     22  C   UNL d   1       1.386  23.455  -9.917 -0.07 +0.02    -0.019 A 
DOCKED: ATOM     23  C   UNL d   1       1.616  24.796  -9.342 -0.05 -0.04    +0.045 A 
DOCKED: ATOM     24  C   UNL d   1       0.271  22.930  -9.357 -0.08 +0.01    -0.022 A 
DOCKED: ATOM     25  C   UNL d   1       2.872  26.920  -9.196 -0.20 -0.02    +0.049 A 
DOCKED: ATOM     26  C   UNL d   1       3.627  29.027  -8.750 -0.34 -0.00    -0.018 A 
DOCKED: ATOM     27  C   UNL d   1       3.493  28.026  -9.761 -0.25 +0.00    +0.003 A 
DOCKED: ATOM     28  C   UNL d   1       2.626  25.609  -9.687 -0.17 -0.04    +0.052 C 
DOCKED: ATOM     29  C   UNL d   1      -0.372  21.611  -9.620 -0.03 -0.01    +0.046 C 
DOCKED: ATOM     30  C   UNL d   1       4.261  30.368  -8.905 -0.34 +0.01    +0.046 C 
DOCKED: ATOM     31  H   UNL d   1       0.395  25.821  -7.936 +0.03 -0.07    +0.166 HD
DOCKED: ATOM     32  H   UNL d   1       2.129  26.650  -7.215 +0.04 -0.10    +0.166 HD
DOCKED: ENDROOT
DOCKED: BRANCH   7  33
DOCKED: ATOM     33  C   UNL d   1       1.834  30.987  -4.082 -0.15 -0.00    +0.141 C 
DOCKED: BRANCH  33  34
DOCKED: ATOM     34  C   UNL d   1       0.677  31.532  -4.876 -0.05 +0.01    +0.306 C 
DOCKED: ATOM     35  O   UNL d   1       0.690  31.825  -6.059 -0.04 -0.01    -0.251 OA
DOCKED: BRANCH  34  36
DOCKED: ATOM     36  O   UNL d   1      -0.436  31.676  -4.136 +0.00 -0.01    -0.481 OA
DOCKED: ATOM     37  H   UNL d   1      -0.297  31.089  -3.363 +0.04 +0.00    +0.295 HD
DOCKED: ENDBRANCH  34  36
DOCKED: ENDBRANCH  33  34
DOCKED: ENDBRANCH   7  33
DOCKED: BRANCH  27  38
DOCKED: ATOM     38  C   UNL d   1       3.968  28.143 -11.107 -0.20 +0.01    +0.017 C 
DOCKED: ATOM     39  C   UNL d   1       4.945  27.401 -11.650 -0.25 +0.03    +0.092 C 
DOCKED: BRANCH  39  40
DOCKED: ATOM     40  C   UNL d   1       5.327  27.608 -13.049 -0.01 +0.27    +0.330 C 
DOCKED: ATOM     41  O   UNL d   1       6.425  27.895 -13.485 -0.15 -0.22    -0.246 OA
DOCKED: BRANCH  40  42
DOCKED: ATOM     42  O   UNL d   1       4.265  27.427 -13.850 -0.42 -0.41    -0.477 OA
DOCKED: ATOM     43  H   UNL d   1       3.912  26.555 -13.578 +0.06 +0.10    +0.295 HD
DOCKED: ENDBRANCH  40  42
DOCKED: ENDBRANCH  39  40
DOCKED: ENDBRANCH  27  38
DOCKED: BRANCH   8  44
DOCKED: ATOM     44  C   UNL d   1      -3.525  25.359  -3.677 -0.02 -0.01    +0.141 C 
DOCKED: BRANCH  44  45
DOCKED: ATOM     45  C   UNL d   1      -4.864  24.682  -3.557 -0.00 -0.01    +0.306 C 
DOCKED: ATOM     46  O   UNL d   1      -5.923  25.212  -3.271 -0.00 +0.01    -0.251 OA
DOCKED: BRANCH  45  47
DOCKED: ATOM     47  O   UNL d   1      -4.793  23.357  -3.778 +0.00 +0.02    -0.481 OA
DOCKED: ATOM     48  H   UNL d   1      -4.698  23.273  -4.751 +0.01 -0.01    +0.295 HD
DOCKED: ENDBRANCH  45  47
DOCKED: ENDBRANCH  44  45
DOCKED: ENDBRANCH   8  44
DOCKED: BRANCH  22  49
DOCKED: ATOM     49  C   UNL d   1       2.278  22.813 -10.939 -0.07 -0.04    +0.048 C 
DOCKED: BRANCH  49  50
DOCKED: ATOM     50  C   UNL d   1       1.941  23.273 -12.357 -0.02 -0.03    +0.125 C 
DOCKED: BRANCH  50  51
DOCKED: ATOM     51  C   UNL d   1       2.798  24.439 -12.760 -0.00 -0.05    +0.305 C 
DOCKED: ATOM     52  O   UNL d   1       4.004  24.556 -12.629 -0.04 +0.06    -0.251 OA
DOCKED: BRANCH  51  53
DOCKED: ATOM     53  O   UNL d   1       2.072  25.431 -13.314 +0.02 -0.00    -0.481 OA
DOCKED: ATOM     54  H   UNL d   1       2.705  25.886 -13.908 +0.03 +0.04    +0.295 HD
DOCKED: ENDBRANCH  51  53
DOCKED: ENDBRANCH  50  51
DOCKED: ENDBRANCH  49  50
DOCKED: ENDBRANCH  22  49
DOCKED: TORSDOF 13
DOCKED: TER
DOCKED: ENDMDL
________________________________________________________________________________


	BEGINNING GENETIC ALGORITHM DOCKING 29 of 100
Run: 29 Seed: 619919919 1611241486 [ Run 29 of 100 GA/GALS ]
Beginning LAMARCKIAN GENETIC ALGORITHM (LGA), with a maximum of 25000000 energy evaluations.

Final-Value: -11.052


	FINAL GENETIC ALGORITHM DOCKED STATE
	_______________________________________________


Detailed state:  trans 26.189 38.690 -2.823 quatxyzw 0.817079 -0.353650 0.454398 0.028913 center 0.153 0.018 -0.028 ntor 13 111.6941 -166.4909 -158.9921 35.7325 -142.2792 -61.1176 134.5570 26.7486 53.1465 -10.6920 -72.6924 -15.8154 -0.2544
State:	 26.189  38.690  -2.823   0.817 -0.354  0.455 176.686    111.69 -166.49 -158.99   35.73 -142.28  -61.12  134.56   26.75   53.15  -10.69  -72.69  -15.82   -0.25

DOCKED: MODEL       29
DOCKED: USER    Run = 29
DOCKED: USER    DPF = D:/Protein_go_brrr/autodock/final/6BB5/heme/dock.dpf
DOCKED: USER  
DOCKED: USER    Estimated Free Energy of Binding    =   -2.43 kcal/mol  [=(1)+(2)+(3)-(4)]
DOCKED: USER    Estimated Inhibition Constant, Ki   =   16.55 mM (millimolar)  [Temperature = 298.15 K]
DOCKED: USER    
DOCKED: USER    (1) Final Intermolecular Energy     =   -6.31 kcal/mol
DOCKED: USER        vdW + Hbond + desolv Energy     =   -6.10 kcal/mol
DOCKED: USER        Electrostatic Energy            =   -0.21 kcal/mol
DOCKED: USER    (2) Final Total Internal Energy     =   -4.74 kcal/mol
DOCKED: USER    (3) Torsional Free Energy           =   +3.88 kcal/mol
DOCKED: USER    (4) Unbound System's Energy  [=(2)] =   -4.74 kcal/mol
DOCKED: USER    
DOCKED: USER    
DOCKED: USER    NEWDPF move heme_opt.pdbqt
DOCKED: USER    NEWDPF about 0.153000 0.018000 -0.028000
DOCKED: USER    NEWDPF tran0 26.188791 38.690341 -2.822814
DOCKED: USER    NEWDPF quaternion0 0.817079 -0.353650 0.454398 0.028913
DOCKED: USER    NEWDPF axisangle0 0.817421 -0.353798 0.454588 176.686406
DOCKED: USER    NEWDPF quat0 0.817421 -0.353798 0.454588 176.686406
DOCKED: USER    NEWDPF dihe0 111.69 -166.49 -158.99 35.73 -142.28 -61.12 134.56 26.75 53.15 -10.69 -72.69 -15.82 -0.25 
DOCKED: USER  keepresnum = 1 
DOCKED: USER  
DOCKED: REMARK  13 active torsions:
DOCKED: REMARK  status: ('A' for Active; 'I' for Inactive)
DOCKED: REMARK    1  A    between atoms: O_3  and  C_38 
DOCKED: REMARK    2  A    between atoms: O_4  and  C_40 
DOCKED: REMARK    3  A    between atoms: O_7  and  C_46 
DOCKED: REMARK    4  A    between atoms: O_9  and  C_48 
DOCKED: REMARK    5  A    between atoms: C_15  and  C_20 
DOCKED: REMARK    6  A    between atoms: C_16  and  C_23 
DOCKED: REMARK    7  A    between atoms: C_20  and  C_38 
DOCKED: REMARK    8  A    between atoms: C_23  and  C_40 
DOCKED: REMARK    9  A    between atoms: C_32  and  C_41 
DOCKED: REMARK   10  A    between atoms: C_37  and  C_45 
DOCKED: REMARK   11  A    between atoms: C_41  and  C_44 
DOCKED: REMARK   12  A    between atoms: C_44  and  C_46 
DOCKED: REMARK   13  A    between atoms: C_47  and  C_48 
DOCKED: USER                              x       y       z     vdW  Elec       q    Type
DOCKED: USER                           _______ _______ _______ _____ _____    ______ ____
DOCKED: ROOT
DOCKED: ATOM      1  O   UNL d   1      23.861  40.639  -7.877 -0.04 -0.04    -0.289 OA
DOCKED: ATOM      2  O   UNL d   1      26.762  44.354  -2.031 -0.07 -0.05    -0.289 OA
DOCKED: ATOM      3  N   UNL d   1      24.999  39.053  -5.033 -0.16 -0.02    -0.247 NA
DOCKED: ATOM      4  N   UNL d   1      26.212  41.261  -3.458 -0.12 -0.03    -0.247 NA
DOCKED: ATOM      5  N   UNL d   1      27.444  39.270  -1.789 +0.02 -0.03    -0.354 N 
DOCKED: ATOM      6  N   UNL d   1      26.198  36.985  -3.441 -0.14 -0.01    -0.354 N 
DOCKED: ATOM      7  C   UNL d   1      24.174  38.306  -7.217 -0.08 +0.01    +0.084 A 
DOCKED: ATOM      8  C   UNL d   1      25.353  43.515  -3.848 -0.18 +0.01    +0.084 A 
DOCKED: ATOM      9  C   UNL d   1      25.369  42.031  -4.228 -0.22 +0.01    +0.058 A 
DOCKED: ATOM     10  C   UNL d   1      24.725  37.955  -5.832 -0.16 +0.00    +0.058 A 
DOCKED: ATOM     11  C   UNL d   1      24.168  39.796  -7.053 -0.08 +0.02    +0.193 A 
DOCKED: ATOM     12  C   UNL d   1      24.665  40.122  -5.679 -0.14 +0.01    +0.109 A 
DOCKED: ATOM     13  C   UNL d   1      26.372  43.452  -2.745 -0.12 +0.03    +0.193 A 
DOCKED: ATOM     14  C   UNL d   1      25.151  37.935  -8.335 -0.03 +0.00    +0.026 C 
DOCKED: ATOM     15  C   UNL d   1      24.660  41.537  -5.255 -0.14 +0.01    +0.055 C 
DOCKED: ATOM     16  C   UNL d   1      24.007  43.935  -3.251 -0.36 +0.00    +0.026 C 
DOCKED: ATOM     17  C   UNL d   1      26.819  42.032  -2.614 -0.15 +0.01    +0.109 A 
DOCKED: ATOM     18  C   UNL d   1      24.835  36.677  -5.422 -0.17 -0.00    +0.050 C 
DOCKED: ATOM     19  C   UNL d   1      25.254  36.260  -4.133 -0.21 -0.00    +0.045 A 
DOCKED: ATOM     20  C   UNL d   1      28.089  40.391  -1.334 -0.12 +0.00    +0.045 A 
DOCKED: ATOM     21  C   UNL d   1      27.855  41.672  -1.634 -0.15 +0.01    +0.057 C 
DOCKED: ATOM     22  C   UNL d   1      29.042  38.549  -0.375 -0.10 -0.00    -0.019 A 
DOCKED: ATOM     23  C   UNL d   1      27.950  38.110  -1.266 -0.14 +0.00    +0.045 A 
DOCKED: ATOM     24  C   UNL d   1      29.118  39.901  -0.418 -0.10 -0.00    -0.022 A 
DOCKED: ATOM     25  C   UNL d   1      26.520  36.356  -2.261 -0.16 +0.00    +0.049 A 
DOCKED: ATOM     26  C   UNL d   1      24.928  35.152  -3.368 -0.23 +0.00    -0.018 A 
DOCKED: ATOM     27  C   UNL d   1      25.716  35.227  -2.178 -0.19 -0.00    +0.003 A 
DOCKED: ATOM     28  C   UNL d   1      27.585  36.832  -1.448 -0.17 +0.00    +0.052 C 
DOCKED: ATOM     29  C   UNL d   1      30.049  40.806   0.314 -0.07 +0.00    +0.046 C 
DOCKED: ATOM     30  C   UNL d   1      23.944  34.087  -3.716 -0.29 -0.01    +0.046 C 
DOCKED: ATOM     31  H   UNL d   1      26.628  39.339  -2.388 +0.04 +0.01    +0.166 HD
DOCKED: ATOM     32  H   UNL d   1      26.614  37.840  -3.790 +0.03 +0.01    +0.166 HD
DOCKED: ENDROOT
DOCKED: BRANCH   7  33
DOCKED: ATOM     33  C   UNL d   1      22.760  37.792  -7.512 -0.11 +0.02    +0.141 C 
DOCKED: BRANCH  33  34
DOCKED: ATOM     34  C   UNL d   1      21.712  38.860  -7.358 -0.16 +0.09    +0.306 C 
DOCKED: ATOM     35  O   UNL d   1      21.124  39.150  -6.330 -0.29 -0.07    -0.251 OA
DOCKED: BRANCH  34  36
DOCKED: ATOM     36  O   UNL d   1      21.460  39.509  -8.509 -0.07 -0.21    -0.481 OA
DOCKED: ATOM     37  H   UNL d   1      22.263  40.049  -8.669 +0.07 +0.09    +0.295 HD
DOCKED: ENDBRANCH  34  36
DOCKED: ENDBRANCH  33  34
DOCKED: ENDBRANCH   7  33
DOCKED: BRANCH  27  38
DOCKED: ATOM     38  C   UNL d   1      25.701  34.267  -1.115 -0.28 +0.00    +0.017 C 
DOCKED: ATOM     39  C   UNL d   1      26.106  34.498   0.143 -0.27 +0.01    +0.092 C 
DOCKED: BRANCH  39  40
DOCKED: ATOM     40  C   UNL d   1      26.023  33.431   1.144 -0.21 +0.07    +0.330 C 
DOCKED: ATOM     41  O   UNL d   1      25.022  32.879   1.560 -0.27 +0.06    -0.246 OA
DOCKED: BRANCH  40  42
DOCKED: ATOM     42  O   UNL d   1      27.251  33.103   1.572 -0.11 -0.53    -0.477 OA
DOCKED: ATOM     43  H   UNL d   1      27.817  33.831   1.242 +0.09 +0.25    +0.295 HD
DOCKED: ENDBRANCH  40  42
DOCKED: ENDBRANCH  39  40
DOCKED: ENDBRANCH  27  38
DOCKED: BRANCH   8  44
DOCKED: ATOM     44  C   UNL d   1      25.797  44.483  -4.950 -0.05 +0.01    +0.141 C 
DOCKED: BRANCH  44  45
DOCKED: ATOM     45  C   UNL d   1      27.208  44.245  -5.418 -0.01 +0.02    +0.306 C 
DOCKED: ATOM     46  O   UNL d   1      27.558  43.513  -6.328 -0.01 -0.02    -0.251 OA
DOCKED: BRANCH  45  47
DOCKED: ATOM     47  O   UNL d   1      28.113  44.924  -4.691 +0.00 -0.04    -0.481 OA
DOCKED: ATOM     48  H   UNL d   1      27.650  45.136  -3.853 +0.03 +0.03    +0.295 HD
DOCKED: ENDBRANCH  45  47
DOCKED: ENDBRANCH  44  45
DOCKED: ENDBRANCH   8  44
DOCKED: BRANCH  22  49
DOCKED: ATOM     49  C   UNL d   1      29.911  37.617   0.417 -0.06 +0.00    +0.048 C 
DOCKED: BRANCH  49  50
DOCKED: ATOM     50  C   UNL d   1      29.255  37.212   1.737 -0.10 +0.01    +0.125 C 
DOCKED: BRANCH  50  51
DOCKED: ATOM     51  C   UNL d   1      28.802  35.780   1.694 -0.07 +0.08    +0.305 C 
DOCKED: ATOM     52  O   UNL d   1      29.190  34.900   0.946 -0.08 -0.12    -0.251 OA
DOCKED: BRANCH  51  53
DOCKED: ATOM     53  O   UNL d   1      27.849  35.525   2.612 -0.03 -0.10    -0.481 OA
DOCKED: ATOM     54  H   UNL d   1      28.037  34.608   2.903 +0.11 +0.15    +0.295 HD
DOCKED: ENDBRANCH  51  53
DOCKED: ENDBRANCH  50  51
DOCKED: ENDBRANCH  49  50
DOCKED: ENDBRANCH  22  49
DOCKED: TORSDOF 13
DOCKED: TER
DOCKED: ENDMDL
________________________________________________________________________________


	BEGINNING GENETIC ALGORITHM DOCKING 30 of 100
Run: 30 Seed: 839028658 788050549 [ Run 30 of 100 GA/GALS ]
Beginning LAMARCKIAN GENETIC ALGORITHM (LGA), with a maximum of 25000000 energy evaluations.

Final-Value: -10.847


	FINAL GENETIC ALGORITHM DOCKED STATE
	_______________________________________________


Detailed state:  trans 17.543 26.230 28.183 quatxyzw 0.316112 0.053243 -0.346473 -0.881587 center 0.153 0.018 -0.028 ntor 13 166.4253 -16.2259 150.0062 37.6756 -145.7199 179.8770 -40.6206 -37.8406 16.6673 76.4709 -93.9045 -74.3620 159.2301
State:	 17.543  26.230  28.183   0.670  0.113 -0.734 -56.331    166.43  -16.23  150.01   37.68 -145.72  179.88  -40.62  -37.84   16.67   76.47  -93.90  -74.36  159.23

DOCKED: MODEL       30
DOCKED: USER    Run = 30
DOCKED: USER    DPF = D:/Protein_go_brrr/autodock/final/6BB5/heme/dock.dpf
DOCKED: USER  
DOCKED: USER    Estimated Free Energy of Binding    =   -5.37 kcal/mol  [=(1)+(2)+(3)-(4)]
DOCKED: USER    Estimated Inhibition Constant, Ki   =  114.85 uM (micromolar)  [Temperature = 298.15 K]
DOCKED: USER    
DOCKED: USER    (1) Final Intermolecular Energy     =   -9.25 kcal/mol
DOCKED: USER        vdW + Hbond + desolv Energy     =   -8.56 kcal/mol
DOCKED: USER        Electrostatic Energy            =   -0.70 kcal/mol
DOCKED: USER    (2) Final Total Internal Energy     =   -1.59 kcal/mol
DOCKED: USER    (3) Torsional Free Energy           =   +3.88 kcal/mol
DOCKED: USER    (4) Unbound System's Energy  [=(2)] =   -1.59 kcal/mol
DOCKED: USER    
DOCKED: USER    
DOCKED: USER    NEWDPF move heme_opt.pdbqt
DOCKED: USER    NEWDPF about 0.153000 0.018000 -0.028000
DOCKED: USER    NEWDPF tran0 17.542634 26.229704 28.182712
DOCKED: USER    NEWDPF quaternion0 0.316112 0.053243 -0.346473 -0.881587
DOCKED: USER    NEWDPF axisangle0 0.669697 0.112799 -0.734018 -56.331300
DOCKED: USER    NEWDPF quat0 0.669697 0.112799 -0.734018 -56.331300
DOCKED: USER    NEWDPF dihe0 166.43 -16.23 150.01 37.68 -145.72 179.88 -40.62 -37.84 16.67 76.47 -93.90 -74.36 159.23 
DOCKED: USER  keepresnum = 1 
DOCKED: USER  
DOCKED: REMARK  13 active torsions:
DOCKED: REMARK  status: ('A' for Active; 'I' for Inactive)
DOCKED: REMARK    1  A    between atoms: O_3  and  C_38 
DOCKED: REMARK    2  A    between atoms: O_4  and  C_40 
DOCKED: REMARK    3  A    between atoms: O_7  and  C_46 
DOCKED: REMARK    4  A    between atoms: O_9  and  C_48 
DOCKED: REMARK    5  A    between atoms: C_15  and  C_20 
DOCKED: REMARK    6  A    between atoms: C_16  and  C_23 
DOCKED: REMARK    7  A    between atoms: C_20  and  C_38 
DOCKED: REMARK    8  A    between atoms: C_23  and  C_40 
DOCKED: REMARK    9  A    between atoms: C_32  and  C_41 
DOCKED: REMARK   10  A    between atoms: C_37  and  C_45 
DOCKED: REMARK   11  A    between atoms: C_41  and  C_44 
DOCKED: REMARK   12  A    between atoms: C_44  and  C_46 
DOCKED: REMARK   13  A    between atoms: C_47  and  C_48 
DOCKED: USER                              x       y       z     vdW  Elec       q    Type
DOCKED: USER                           _______ _______ _______ _____ _____    ______ ____
DOCKED: ROOT
DOCKED: ATOM      1  O   UNL d   1      14.318  30.029  31.332 -0.04 +0.00    -0.289 OA
DOCKED: ATOM      2  O   UNL d   1      12.613  25.988  25.238 -0.28 +0.04    -0.289 OA
DOCKED: ATOM      3  N   UNL d   1      16.609  28.010  29.729 -0.07 -0.01    -0.247 NA
DOCKED: ATOM      4  N   UNL d   1      14.974  26.620  27.674 -0.09 +0.02    -0.247 NA
DOCKED: ATOM      5  N   UNL d   1      17.165  24.798  27.296 -0.12 -0.02    -0.354 N 
DOCKED: ATOM      6  N   UNL d   1      18.847  26.234  29.443 -0.05 -0.04    -0.354 N 
DOCKED: ATOM      7  C   UNL d   1      16.615  29.333  31.792 -0.05 +0.01    +0.084 A 
DOCKED: ATOM      8  C   UNL d   1      12.957  27.759  26.892 -0.24 -0.02    +0.084 A 
DOCKED: ATOM      9  C   UNL d   1      14.151  27.711  27.851 -0.19 -0.01    +0.058 A 
DOCKED: ATOM     10  C   UNL d   1      17.351  28.391  30.834 -0.08 +0.01    +0.058 A 
DOCKED: ATOM     11  C   UNL d   1      15.332  29.431  31.023 -0.05 +0.00    +0.193 A 
DOCKED: ATOM     12  C   UNL d   1      15.462  28.607  29.780 -0.12 -0.00    +0.109 A 
DOCKED: ATOM     13  C   UNL d   1      13.234  26.474  26.162 -0.20 -0.02    +0.193 A 
DOCKED: ATOM     14  C   UNL d   1      16.333  28.671  33.144 -0.02 +0.00    +0.026 C 
DOCKED: ATOM     15  C   UNL d   1      14.347  28.626  28.813 -0.19 -0.01    +0.055 C 
DOCKED: ATOM     16  C   UNL d   1      13.071  28.922  25.902 -0.47 -0.01    +0.026 C 
DOCKED: ATOM     17  C   UNL d   1      14.478  25.878  26.736 -0.14 -0.01    +0.109 A 
DOCKED: ATOM     18  C   UNL d   1      18.640  28.054  31.031 -0.09 +0.01    +0.050 C 
DOCKED: ATOM     19  C   UNL d   1      19.424  27.260  30.156 -0.07 +0.01    +0.045 A 
DOCKED: ATOM     20  C   UNL d   1      16.198  24.159  26.563 -0.23 -0.00    +0.045 A 
DOCKED: ATOM     21  C   UNL d   1      14.972  24.585  26.243 -0.17 -0.00    +0.057 C 
DOCKED: ATOM     22  C   UNL d   1      18.039  22.812  26.690 -0.21 +0.00    -0.019 A 
DOCKED: ATOM     23  C   UNL d   1      18.312  24.062  27.428 -0.24 +0.00    +0.045 A 
DOCKED: ATOM     24  C   UNL d   1      16.786  22.876  26.180 -0.25 +0.00    -0.022 A 
DOCKED: ATOM     25  C   UNL d   1      19.801  25.542  28.734 -0.19 +0.01    +0.049 A 
DOCKED: ATOM     26  C   UNL d   1      20.782  27.258  29.874 -0.13 -0.00    -0.018 A 
DOCKED: ATOM     27  C   UNL d   1      21.011  26.184  28.960 -0.20 +0.00    +0.003 A 
DOCKED: ATOM     28  C   UNL d   1      19.470  24.343  28.045 -0.24 +0.00    +0.052 C 
DOCKED: ATOM     29  C   UNL d   1      16.063  21.868  25.353 -0.34 -0.01    +0.046 C 
DOCKED: ATOM     30  C   UNL d   1      21.805  28.197  30.417 -0.16 +0.02    +0.046 C 
DOCKED: ATOM     31  H   UNL d   1      17.035  25.750  27.622 +0.06 +0.01    +0.166 HD
DOCKED: ATOM     32  H   UNL d   1      17.860  26.010  29.483 +0.04 +0.01    +0.166 HD
DOCKED: ENDROOT
DOCKED: BRANCH   7  33
DOCKED: ATOM     33  C   UNL d   1      17.247  30.718  31.966 -0.11 +0.03    +0.141 C 
DOCKED: BRANCH  33  34
DOCKED: ATOM     34  C   UNL d   1      17.235  31.523  30.694 -0.20 +0.05    +0.306 C 
DOCKED: ATOM     35  O   UNL d   1      18.119  31.558  29.856 -0.29 -0.05    -0.251 OA
DOCKED: BRANCH  34  36
DOCKED: ATOM     36  O   UNL d   1      16.106  32.240  30.545 -0.13 -0.03    -0.481 OA
DOCKED: ATOM     37  H   UNL d   1      15.476  31.844  31.184 +0.08 +0.01    +0.295 HD
DOCKED: ENDBRANCH  34  36
DOCKED: ENDBRANCH  33  34
DOCKED: ENDBRANCH   7  33
DOCKED: BRANCH  27  38
DOCKED: ATOM     38  C   UNL d   1      22.285  25.816  28.421 -0.33 +0.00    +0.017 C 
DOCKED: ATOM     39  C   UNL d   1      22.698  24.560  28.196 -0.26 -0.01    +0.092 C 
DOCKED: BRANCH  39  40
DOCKED: ATOM     40  C   UNL d   1      24.024  24.319  27.621 -0.27 -0.16    +0.330 C 
DOCKED: ATOM     41  O   UNL d   1      24.552  23.247  27.394 -0.33 +0.14    -0.246 OA
DOCKED: BRANCH  40  42
DOCKED: ATOM     42  O   UNL d   1      24.628  25.485  27.347 -0.23 +0.42    -0.477 OA
DOCKED: ATOM     43  H   UNL d   1      25.569  25.241  27.231 -0.09 -0.57    +0.295 HD
DOCKED: ENDBRANCH  40  42
DOCKED: ENDBRANCH  39  40
DOCKED: ENDBRANCH  27  38
DOCKED: BRANCH   8  44
DOCKED: ATOM     44  C   UNL d   1      11.576  27.727  27.555 -0.20 -0.02    +0.141 C 
DOCKED: BRANCH  44  45
DOCKED: ATOM     45  C   UNL d   1      11.575  28.284  28.954 -0.09 -0.02    +0.306 C 
DOCKED: ATOM     46  O   UNL d   1      11.852  27.680  29.976 -0.03 +0.00    -0.251 OA
DOCKED: BRANCH  45  47
DOCKED: ATOM     47  O   UNL d   1      11.196  29.574  28.994 -0.12 +0.02    -0.481 OA
DOCKED: ATOM     48  H   UNL d   1      11.495  29.947  28.138 -0.26 -0.32    +0.295 HD
DOCKED: ENDBRANCH  45  47
DOCKED: ENDBRANCH  44  45
DOCKED: ENDBRANCH   8  44
DOCKED: BRANCH  22  49
DOCKED: ATOM     49  C   UNL d   1      19.012  21.677  26.567 -0.06 -0.01    +0.048 C 
DOCKED: BRANCH  49  50
DOCKED: ATOM     50  C   UNL d   1      19.100  20.861  27.856 -0.09 -0.03    +0.125 C 
DOCKED: BRANCH  50  51
DOCKED: ATOM     51  C   UNL d   1      18.051  19.786  27.885 -0.06 -0.21    +0.305 C 
DOCKED: ATOM     52  O   UNL d   1      16.876  19.886  27.575 -0.12 +0.22    -0.251 OA
DOCKED: BRANCH  51  53
DOCKED: ATOM     53  O   UNL d   1      18.543  18.611  28.325 -0.01 +0.46    -0.481 OA
DOCKED: ATOM     54  H   UNL d   1      18.083  17.941  27.778 -0.52 -0.61    +0.295 HD
DOCKED: ENDBRANCH  51  53
DOCKED: ENDBRANCH  50  51
DOCKED: ENDBRANCH  49  50
DOCKED: ENDBRANCH  22  49
DOCKED: TORSDOF 13
DOCKED: TER
DOCKED: ENDMDL
________________________________________________________________________________


	BEGINNING GENETIC ALGORITHM DOCKING 31 of 100
Run: 31 Seed: 2083483295 336360034 [ Run 31 of 100 GA/GALS ]
Beginning LAMARCKIAN GENETIC ALGORITHM (LGA), with a maximum of 25000000 energy evaluations.

Final-Value: -11.061


	FINAL GENETIC ALGORITHM DOCKED STATE
	_______________________________________________


Detailed state:  trans 45.379 20.971 22.242 quatxyzw 0.616529 0.001179 0.772117 0.154033 center 0.153 0.018 -0.028 ntor 13 110.6347 118.6721 105.5932 -65.7540 178.6146 -44.3567 -46.3148 -24.1574 -20.0172 -127.4189 -68.3205 2.7759 8.3917
State:	 45.379  20.971  22.242   0.624  0.001  0.781 162.279    110.63  118.67  105.59  -65.75  178.61  -44.36  -46.31  -24.16  -20.02 -127.42  -68.32    2.78    8.39

DOCKED: MODEL       31
DOCKED: USER    Run = 31
DOCKED: USER    DPF = D:/Protein_go_brrr/autodock/final/6BB5/heme/dock.dpf
DOCKED: USER  
DOCKED: USER    Estimated Free Energy of Binding    =   -2.72 kcal/mol  [=(1)+(2)+(3)-(4)]
DOCKED: USER    Estimated Inhibition Constant, Ki   =   10.20 mM (millimolar)  [Temperature = 298.15 K]
DOCKED: USER    
DOCKED: USER    (1) Final Intermolecular Energy     =   -6.59 kcal/mol
DOCKED: USER        vdW + Hbond + desolv Energy     =   -6.48 kcal/mol
DOCKED: USER        Electrostatic Energy            =   -0.12 kcal/mol
DOCKED: USER    (2) Final Total Internal Energy     =   -4.47 kcal/mol
DOCKED: USER    (3) Torsional Free Energy           =   +3.88 kcal/mol
DOCKED: USER    (4) Unbound System's Energy  [=(2)] =   -4.47 kcal/mol
DOCKED: USER    
DOCKED: USER    
DOCKED: USER    NEWDPF move heme_opt.pdbqt
DOCKED: USER    NEWDPF about 0.153000 0.018000 -0.028000
DOCKED: USER    NEWDPF tran0 45.379459 20.970635 22.241633
DOCKED: USER    NEWDPF quaternion0 0.616529 0.001179 0.772117 0.154033
DOCKED: USER    NEWDPF axisangle0 0.623975 0.001193 0.781443 162.278612
DOCKED: USER    NEWDPF quat0 0.623975 0.001193 0.781443 162.278612
DOCKED: USER    NEWDPF dihe0 110.63 118.67 105.59 -65.75 178.61 -44.36 -46.31 -24.16 -20.02 -127.42 -68.32 2.78 8.39 
DOCKED: USER  keepresnum = 1 
DOCKED: USER  
DOCKED: REMARK  13 active torsions:
DOCKED: REMARK  status: ('A' for Active; 'I' for Inactive)
DOCKED: REMARK    1  A    between atoms: O_3  and  C_38 
DOCKED: REMARK    2  A    between atoms: O_4  and  C_40 
DOCKED: REMARK    3  A    between atoms: O_7  and  C_46 
DOCKED: REMARK    4  A    between atoms: O_9  and  C_48 
DOCKED: REMARK    5  A    between atoms: C_15  and  C_20 
DOCKED: REMARK    6  A    between atoms: C_16  and  C_23 
DOCKED: REMARK    7  A    between atoms: C_20  and  C_38 
DOCKED: REMARK    8  A    between atoms: C_23  and  C_40 
DOCKED: REMARK    9  A    between atoms: C_32  and  C_41 
DOCKED: REMARK   10  A    between atoms: C_37  and  C_45 
DOCKED: REMARK   11  A    between atoms: C_41  and  C_44 
DOCKED: REMARK   12  A    between atoms: C_44  and  C_46 
DOCKED: REMARK   13  A    between atoms: C_47  and  C_48 
DOCKED: USER                              x       y       z     vdW  Elec       q    Type
DOCKED: USER                           _______ _______ _______ _____ _____    ______ ____
DOCKED: ROOT
DOCKED: ATOM      1  O   UNL d   1      47.480  20.813  16.735 -0.06 -0.42    -0.289 OA
DOCKED: ATOM      2  O   UNL d   1      43.228  25.912  20.244 -0.22 -0.17    -0.289 OA
DOCKED: ATOM      3  N   UNL d   1      46.366  20.406  19.974 -0.09 -0.07    -0.247 NA
DOCKED: ATOM      4  N   UNL d   1      45.058  23.005  20.578 -0.60 -0.12    -0.247 NA
DOCKED: ATOM      5  N   UNL d   1      45.046  22.250  23.352 -0.09 -0.13    -0.354 N 
DOCKED: ATOM      6  N   UNL d   1      46.421  19.564  22.719 -0.06 -0.07    -0.354 N 
DOCKED: ATOM      7  C   UNL d   1      47.883  19.169  18.499 -0.05 +0.04    +0.084 A 
DOCKED: ATOM      8  C   UNL d   1      44.179  24.280  18.687 -0.19 +0.03    +0.084 A 
DOCKED: ATOM      9  C   UNL d   1      44.966  23.071  19.205 -0.16 +0.03    +0.058 A 
DOCKED: ATOM     10  C   UNL d   1      47.202  19.308  19.864 -0.11 +0.02    +0.058 A 
DOCKED: ATOM     11  C   UNL d   1      47.269  20.373  17.851 -0.08 +0.15    +0.193 A 
DOCKED: ATOM     12  C   UNL d   1      46.349  21.024  18.838 -0.12 +0.05    +0.109 A 
DOCKED: ATOM     13  C   UNL d   1      43.874  24.907  20.018 -0.19 +0.10    +0.193 A 
DOCKED: ATOM     14  C   UNL d   1      49.398  19.374  18.589 -0.04 +0.02    +0.026 C 
DOCKED: ATOM     15  C   UNL d   1      45.556  22.185  18.388 -0.17 +0.03    +0.055 C 
DOCKED: ATOM     16  C   UNL d   1      42.862  23.860  18.027 -0.40 +0.01    +0.026 C 
DOCKED: ATOM     17  C   UNL d   1      44.468  24.042  21.081 -0.19 +0.06    +0.109 A 
DOCKED: ATOM     18  C   UNL d   1      47.353  18.376  20.823 -0.11 +0.01    +0.050 C 
DOCKED: ATOM     19  C   UNL d   1      46.699  18.376  22.082 -0.10 +0.01    +0.045 A 
DOCKED: ATOM     20  C   UNL d   1      44.667  23.562  23.463 -0.19 +0.03    +0.045 A 
DOCKED: ATOM     21  C   UNL d   1      44.364  24.432  22.495 -0.24 +0.04    +0.057 C 
DOCKED: ATOM     22  C   UNL d   1      45.016  22.714  25.556 -0.11 -0.01    -0.019 A 
DOCKED: ATOM     23  C   UNL d   1      45.279  21.654  24.562 -0.14 +0.01    +0.045 A 
DOCKED: ATOM     24  C   UNL d   1      44.653  23.841  24.899 -0.16 -0.01    -0.022 A 
DOCKED: ATOM     25  C   UNL d   1      45.870  19.330  23.958 -0.13 +0.01    +0.049 A 
DOCKED: ATOM     26  C   UNL d   1      46.285  17.345  22.911 -0.12 -0.00    -0.018 A 
DOCKED: ATOM     27  C   UNL d   1      45.744  17.954  24.085 -0.15 +0.00    +0.003 A 
DOCKED: ATOM     28  C   UNL d   1      45.642  20.398  24.868 -0.14 +0.01    +0.052 C 
DOCKED: ATOM     29  C   UNL d   1      44.278  25.169  25.463 -0.20 +0.04    +0.046 C 
DOCKED: ATOM     30  C   UNL d   1      46.382  15.884  22.630 -0.11 +0.01    +0.046 C 
DOCKED: ATOM     31  H   UNL d   1      45.061  21.781  22.452 +0.04 +0.06    +0.166 HD
DOCKED: ATOM     32  H   UNL d   1      46.638  20.474  22.330 +0.03 +0.04    +0.166 HD
DOCKED: ENDROOT
DOCKED: BRANCH   7  33
DOCKED: ATOM     33  C   UNL d   1      47.532  17.899  17.716 -0.04 +0.06    +0.141 C 
DOCKED: BRANCH  33  34
DOCKED: ATOM     34  C   UNL d   1      46.167  17.367  18.058 -0.08 +0.09    +0.306 C 
DOCKED: ATOM     35  O   UNL d   1      45.905  16.228  18.406 -0.08 -0.06    -0.251 OA
DOCKED: BRANCH  34  36
DOCKED: ATOM     36  O   UNL d   1      45.204  18.299  17.946 -0.08 -0.12    -0.481 OA
DOCKED: ATOM     37  H   UNL d   1      45.354  18.901  18.706 +0.08 +0.06    +0.295 HD
DOCKED: ENDBRANCH  34  36
DOCKED: ENDBRANCH  33  34
DOCKED: ENDBRANCH   7  33
DOCKED: BRANCH  27  38
DOCKED: ATOM     38  C   UNL d   1      45.214  17.247  25.212 -0.15 +0.00    +0.017 C 
DOCKED: ATOM     39  C   UNL d   1      44.126  17.606  25.909 -0.19 +0.00    +0.092 C 
DOCKED: BRANCH  39  40
DOCKED: ATOM     40  C   UNL d   1      43.676  16.783  27.035 -0.07 +0.01    +0.330 C 
DOCKED: ATOM     41  O   UNL d   1      43.552  15.573  27.069 -0.04 -0.00    -0.246 OA
DOCKED: BRANCH  40  42
DOCKED: ATOM     42  O   UNL d   1      43.407  17.559  28.096 -0.05 -0.04    -0.477 OA
DOCKED: ATOM     43  H   UNL d   1      44.265  17.984  28.299 +0.04 +0.03    +0.295 HD
DOCKED: ENDBRANCH  40  42
DOCKED: ENDBRANCH  39  40
DOCKED: ENDBRANCH  27  38
DOCKED: BRANCH   8  44
DOCKED: ATOM     44  C   UNL d   1      44.965  25.245  17.793 -0.17 +0.06    +0.141 C 
DOCKED: BRANCH  44  45
DOCKED: ATOM     45  C   UNL d   1      44.164  26.448  17.370 -0.15 +0.10    +0.306 C 
DOCKED: ATOM     46  O   UNL d   1      43.476  26.548  16.370 -0.22 -0.07    -0.251 OA
DOCKED: BRANCH  45  47
DOCKED: ATOM     47  O   UNL d   1      44.297  27.480  18.223 -0.05 -0.20    -0.481 OA
DOCKED: ATOM     48  H   UNL d   1      43.753  27.231  19.001 +0.13 +0.15    +0.295 HD
DOCKED: ENDBRANCH  45  47
DOCKED: ENDBRANCH  44  45
DOCKED: ENDBRANCH   8  44
DOCKED: BRANCH  22  49
DOCKED: ATOM     49  C   UNL d   1      45.157  22.533  27.038 -0.09 +0.01    +0.048 C 
DOCKED: BRANCH  49  50
DOCKED: ATOM     50  C   UNL d   1      44.002  21.722  27.625 -0.11 +0.04    +0.125 C 
DOCKED: BRANCH  50  51
DOCKED: ATOM     51  C   UNL d   1      44.482  20.388  28.123 -0.07 +0.07    +0.305 C 
DOCKED: ATOM     52  O   UNL d   1      45.409  19.724  27.694 -0.04 -0.04    -0.251 OA
DOCKED: BRANCH  51  53
DOCKED: ATOM     53  O   UNL d   1      43.742  19.941  29.158 -0.46 -0.14    -0.481 OA
DOCKED: ATOM     54  H   UNL d   1      43.294  19.145  28.803 +0.07 +0.09    +0.295 HD
DOCKED: ENDBRANCH  51  53
DOCKED: ENDBRANCH  50  51
DOCKED: ENDBRANCH  49  50
DOCKED: ENDBRANCH  22  49
DOCKED: TORSDOF 13
DOCKED: TER
DOCKED: ENDMDL
________________________________________________________________________________


	BEGINNING GENETIC ALGORITHM DOCKING 32 of 100
Run: 32 Seed: 788911856 271095096 [ Run 32 of 100 GA/GALS ]
Beginning LAMARCKIAN GENETIC ALGORITHM (LGA), with a maximum of 25000000 energy evaluations.

Final-Value: -10.387


	FINAL GENETIC ALGORITHM DOCKED STATE
	_______________________________________________


Detailed state:  trans 17.767 24.670 -10.730 quatxyzw 0.309903 0.004062 -0.872835 -0.376965 center 0.153 0.018 -0.028 ntor 13 112.5578 -126.0177 -141.9305 137.3620 -131.7773 -80.4016 -77.8800 139.6492 30.2128 -148.6675 -20.9781 -106.5790 125.9372
State:	 17.767  24.670 -10.730   0.335  0.004 -0.942 -135.708    112.56 -126.02 -141.93  137.36 -131.78  -80.40  -77.88  139.65   30.21 -148.67  -20.98 -106.58  125.94

DOCKED: MODEL       32
DOCKED: USER    Run = 32
DOCKED: USER    DPF = D:/Protein_go_brrr/autodock/final/6BB5/heme/dock.dpf
DOCKED: USER  
DOCKED: USER    Estimated Free Energy of Binding    =   -4.31 kcal/mol  [=(1)+(2)+(3)-(4)]
DOCKED: USER    Estimated Inhibition Constant, Ki   =  697.98 uM (micromolar)  [Temperature = 298.15 K]
DOCKED: USER    
DOCKED: USER    (1) Final Intermolecular Energy     =   -8.18 kcal/mol
DOCKED: USER        vdW + Hbond + desolv Energy     =   -7.61 kcal/mol
DOCKED: USER        Electrostatic Energy            =   -0.58 kcal/mol
DOCKED: USER    (2) Final Total Internal Energy     =   -2.20 kcal/mol
DOCKED: USER    (3) Torsional Free Energy           =   +3.88 kcal/mol
DOCKED: USER    (4) Unbound System's Energy  [=(2)] =   -2.20 kcal/mol
DOCKED: USER    
DOCKED: USER    
DOCKED: USER    NEWDPF move heme_opt.pdbqt
DOCKED: USER    NEWDPF about 0.153000 0.018000 -0.028000
DOCKED: USER    NEWDPF tran0 17.766950 24.669543 -10.729827
DOCKED: USER    NEWDPF quaternion0 0.309903 0.004062 -0.872835 -0.376965
DOCKED: USER    NEWDPF axisangle0 0.334587 0.004386 -0.942355 -135.708343
DOCKED: USER    NEWDPF quat0 0.334587 0.004386 -0.942355 -135.708343
DOCKED: USER    NEWDPF dihe0 112.56 -126.02 -141.93 137.36 -131.78 -80.40 -77.88 139.65 30.21 -148.67 -20.98 -106.58 125.94 
DOCKED: USER  keepresnum = 1 
DOCKED: USER  
DOCKED: REMARK  13 active torsions:
DOCKED: REMARK  status: ('A' for Active; 'I' for Inactive)
DOCKED: REMARK    1  A    between atoms: O_3  and  C_38 
DOCKED: REMARK    2  A    between atoms: O_4  and  C_40 
DOCKED: REMARK    3  A    between atoms: O_7  and  C_46 
DOCKED: REMARK    4  A    between atoms: O_9  and  C_48 
DOCKED: REMARK    5  A    between atoms: C_15  and  C_20 
DOCKED: REMARK    6  A    between atoms: C_16  and  C_23 
DOCKED: REMARK    7  A    between atoms: C_20  and  C_38 
DOCKED: REMARK    8  A    between atoms: C_23  and  C_40 
DOCKED: REMARK    9  A    between atoms: C_32  and  C_41 
DOCKED: REMARK   10  A    between atoms: C_37  and  C_45 
DOCKED: REMARK   11  A    between atoms: C_41  and  C_44 
DOCKED: REMARK   12  A    between atoms: C_44  and  C_46 
DOCKED: REMARK   13  A    between atoms: C_47  and  C_48 
DOCKED: USER                              x       y       z     vdW  Elec       q    Type
DOCKED: USER                           _______ _______ _______ _____ _____    ______ ____
DOCKED: ROOT
DOCKED: ATOM      1  O   UNL d   1      21.473  26.983  -6.771 -0.18 +0.28    -0.289 OA
DOCKED: ATOM      2  O   UNL d   1      16.807  30.260 -11.658 -0.17 +0.03    -0.289 OA
DOCKED: ATOM      3  N   UNL d   1      19.566  25.194  -9.020 -0.15 +0.06    -0.247 NA
DOCKED: ATOM      4  N   UNL d   1      17.862  27.277 -10.280 -0.06 +0.06    -0.247 NA
DOCKED: ATOM      5  N   UNL d   1      16.238  25.165 -11.360 +0.03 +0.10    -0.354 N 
DOCKED: ATOM      6  N   UNL d   1      18.000  23.011 -10.034 -0.12 +0.12    -0.354 N 
DOCKED: ATOM      7  C   UNL d   1      21.044  24.607  -7.155 -0.16 -0.02    +0.084 A 
DOCKED: ATOM      8  C   UNL d   1      18.730  29.561 -10.314 -0.21 -0.02    +0.084 A 
DOCKED: ATOM      9  C   UNL d   1      18.877  28.106  -9.857 -0.23 -0.02    +0.058 A 
DOCKED: ATOM     10  C   UNL d   1      20.105  24.157  -8.279 -0.21 -0.01    +0.058 A 
DOCKED: ATOM     11  C   UNL d   1      20.954  26.083  -7.406 -0.17 -0.09    +0.193 A 
DOCKED: ATOM     12  C   UNL d   1      20.049  26.309  -8.577 -0.22 -0.04    +0.109 A 
DOCKED: ATOM     13  C   UNL d   1      17.424  29.412 -11.044 -0.23 -0.04    +0.193 A 
DOCKED: ATOM     14  C   UNL d   1      20.469  24.304  -5.770 -0.28 -0.01    +0.026 C 
DOCKED: ATOM     15  C   UNL d   1      19.881  27.691  -9.069 -0.27 -0.03    +0.055 C 
DOCKED: ATOM     16  C   UNL d   1      19.815  29.952 -11.322 -0.09 -0.01    +0.026 C 
DOCKED: ATOM     17  C   UNL d   1      17.002  27.983 -10.942 -0.20 -0.02    +0.109 A 
DOCKED: ATOM     18  C   UNL d   1      19.913  22.853  -8.554 -0.22 -0.01    +0.050 C 
DOCKED: ATOM     19  C   UNL d   1      19.132  22.344  -9.623 -0.12 -0.02    +0.045 A 
DOCKED: ATOM     20  C   UNL d   1      15.451  26.245 -11.664 -0.23 -0.01    +0.045 A 
DOCKED: ATOM     21  C   UNL d   1      15.727  27.546 -11.530 -0.23 -0.01    +0.057 C 
DOCKED: ATOM     22  C   UNL d   1      14.306  24.333 -12.165 -0.22 +0.01    -0.019 A 
DOCKED: ATOM     23  C   UNL d   1      15.632  23.967 -11.628 -0.21 -0.02    +0.045 A 
DOCKED: ATOM     24  C   UNL d   1      14.206  25.684 -12.185 -0.31 +0.01    -0.022 A 
DOCKED: ATOM     25  C   UNL d   1      17.350  22.299 -11.016 -0.20 -0.02    +0.049 A 
DOCKED: ATOM     26  C   UNL d   1      19.241  21.189 -10.381 -0.08 +0.01    -0.018 A 
DOCKED: ATOM     27  C   UNL d   1      18.124  21.175 -11.272 -0.13 -0.00    +0.003 A 
DOCKED: ATOM     28  C   UNL d   1      16.074  22.707 -11.489 -0.25 -0.02    +0.052 C 
DOCKED: ATOM     29  C   UNL d   1      13.068  26.528 -12.650 -0.33 -0.02    +0.046 C 
DOCKED: ATOM     30  C   UNL d   1      20.316  20.160 -10.287 -0.09 -0.02    +0.046 C 
DOCKED: ATOM     31  H   UNL d   1      17.196  25.283 -11.047 +0.05 -0.04    +0.166 HD
DOCKED: ATOM     32  H   UNL d   1      17.685  23.883  -9.628 +0.05 -0.04    +0.166 HD
DOCKED: ENDROOT
DOCKED: BRANCH   7  33
DOCKED: ATOM     33  C   UNL d   1      22.494  24.128  -7.279 -0.05 -0.04    +0.141 C 
DOCKED: BRANCH  33  34
DOCKED: ATOM     34  C   UNL d   1      23.284  24.926  -8.281 -0.01 -0.08    +0.306 C 
DOCKED: ATOM     35  O   UNL d   1      23.231  24.816  -9.494 -0.01 +0.05    -0.251 OA
DOCKED: BRANCH  34  36
DOCKED: ATOM     36  O   UNL d   1      24.099  25.825  -7.700 +0.00 +0.16    -0.481 OA
DOCKED: ATOM     37  H   UNL d   1      23.495  26.503  -7.329 +0.05 -0.16    +0.295 HD
DOCKED: ENDBRANCH  34  36
DOCKED: ENDBRANCH  33  34
DOCKED: ENDBRANCH   7  33
DOCKED: BRANCH  27  38
DOCKED: ATOM     38  C   UNL d   1      17.841  20.145 -12.225 -0.08 -0.01    +0.017 C 
DOCKED: ATOM     39  C   UNL d   1      16.824  19.274 -12.146 -0.09 -0.05    +0.092 C 
DOCKED: BRANCH  39  40
DOCKED: ATOM     40  C   UNL d   1      16.634  18.274 -13.200 -0.00 -0.11    +0.330 C 
DOCKED: ATOM     41  O   UNL d   1      16.080  18.422 -14.273 -0.00 +0.05    -0.246 OA
DOCKED: BRANCH  40  42
DOCKED: ATOM     42  O   UNL d   1      17.181  17.105 -12.833 +0.01 +0.17    -0.477 OA
DOCKED: ATOM     43  H   UNL d   1      16.772  16.918 -11.963 +0.03 -0.16    +0.295 HD
DOCKED: ENDBRANCH  40  42
DOCKED: ENDBRANCH  39  40
DOCKED: ENDBRANCH  27  38
DOCKED: BRANCH   8  44
DOCKED: ATOM     44  C   UNL d   1      18.616  30.598  -9.192 -0.35 -0.06    +0.141 C 
DOCKED: BRANCH  44  45
DOCKED: ATOM     45  C   UNL d   1      18.912  32.002  -9.648 -0.11 -0.09    +0.306 C 
DOCKED: ATOM     46  O   UNL d   1      19.771  32.745  -9.205 -0.16 +0.05    -0.251 OA
DOCKED: BRANCH  45  47
DOCKED: ATOM     47  O   UNL d   1      18.085  32.410 -10.628 -0.05 +0.09    -0.481 OA
DOCKED: ATOM     48  H   UNL d   1      17.215  32.022 -10.395 -0.28 -0.09    +0.295 HD
DOCKED: ENDBRANCH  45  47
DOCKED: ENDBRANCH  44  45
DOCKED: ENDBRANCH   8  44
DOCKED: BRANCH  22  49
DOCKED: ATOM     49  C   UNL d   1      13.265  23.340 -12.591 -0.19 -0.03    +0.048 C 
DOCKED: BRANCH  49  50
DOCKED: ATOM     50  C   UNL d   1      13.153  22.176 -11.607 -0.19 -0.09    +0.125 C 
DOCKED: BRANCH  50  51
DOCKED: ATOM     51  C   UNL d   1      11.834  21.473 -11.755 -0.16 -0.15    +0.305 C 
DOCKED: ATOM     52  O   UNL d   1      11.634  20.273 -11.822 -0.12 +0.04    -0.251 OA
DOCKED: BRANCH  51  53
DOCKED: ATOM     53  O   UNL d   1      10.805  22.341 -11.824 -0.10 +0.43    -0.481 OA
DOCKED: ATOM     54  H   UNL d   1      11.006  23.005 -11.131 -0.33 -0.64    +0.295 HD
DOCKED: ENDBRANCH  51  53
DOCKED: ENDBRANCH  50  51
DOCKED: ENDBRANCH  49  50
DOCKED: ENDBRANCH  22  49
DOCKED: TORSDOF 13
DOCKED: TER
DOCKED: ENDMDL
________________________________________________________________________________


	BEGINNING GENETIC ALGORITHM DOCKING 33 of 100
Run: 33 Seed: 1940979075 877010162 [ Run 33 of 100 GA/GALS ]
Beginning LAMARCKIAN GENETIC ALGORITHM (LGA), with a maximum of 25000000 energy evaluations.

Final-Value: -10.048


	FINAL GENETIC ALGORITHM DOCKED STATE
	_______________________________________________


Detailed state:  trans 42.600 15.201 16.154 quatxyzw -0.771345 0.078413 -0.589301 0.227162 center 0.153 0.018 -0.028 ntor 13 -104.4310 179.9961 67.2424 7.4153 36.8444 7.3471 -48.6217 -28.3029 130.0375 -111.1999 53.6654 -66.1910 125.5273
State:	 42.600  15.201  16.154  -0.792  0.081 -0.605 153.740   -104.43  180.00   67.24    7.42   36.84    7.35  -48.62  -28.30  130.04 -111.20   53.67  -66.19  125.53

DOCKED: MODEL       33
DOCKED: USER    Run = 33
DOCKED: USER    DPF = D:/Protein_go_brrr/autodock/final/6BB5/heme/dock.dpf
DOCKED: USER  
DOCKED: USER    Estimated Free Energy of Binding    =   -2.14 kcal/mol  [=(1)+(2)+(3)-(4)]
DOCKED: USER    Estimated Inhibition Constant, Ki   =   27.02 mM (millimolar)  [Temperature = 298.15 K]
DOCKED: USER    
DOCKED: USER    (1) Final Intermolecular Energy     =   -6.02 kcal/mol
DOCKED: USER        vdW + Hbond + desolv Energy     =   -6.04 kcal/mol
DOCKED: USER        Electrostatic Energy            =   +0.02 kcal/mol
DOCKED: USER    (2) Final Total Internal Energy     =   -4.03 kcal/mol
DOCKED: USER    (3) Torsional Free Energy           =   +3.88 kcal/mol
DOCKED: USER    (4) Unbound System's Energy  [=(2)] =   -4.03 kcal/mol
DOCKED: USER    
DOCKED: USER    
DOCKED: USER    NEWDPF move heme_opt.pdbqt
DOCKED: USER    NEWDPF about 0.153000 0.018000 -0.028000
DOCKED: USER    NEWDPF tran0 42.600411 15.200759 16.153848
DOCKED: USER    NEWDPF quaternion0 -0.771345 0.078413 -0.589301 0.227162
DOCKED: USER    NEWDPF axisangle0 -0.792052 0.080517 -0.605120 153.739886
DOCKED: USER    NEWDPF quat0 -0.792052 0.080517 -0.605120 153.739886
DOCKED: USER    NEWDPF dihe0 -104.43 180.00 67.24 7.42 36.84 7.35 -48.62 -28.30 130.04 -111.20 53.67 -66.19 125.53 
DOCKED: USER  keepresnum = 1 
DOCKED: USER  
DOCKED: REMARK  13 active torsions:
DOCKED: REMARK  status: ('A' for Active; 'I' for Inactive)
DOCKED: REMARK    1  A    between atoms: O_3  and  C_38 
DOCKED: REMARK    2  A    between atoms: O_4  and  C_40 
DOCKED: REMARK    3  A    between atoms: O_7  and  C_46 
DOCKED: REMARK    4  A    between atoms: O_9  and  C_48 
DOCKED: REMARK    5  A    between atoms: C_15  and  C_20 
DOCKED: REMARK    6  A    between atoms: C_16  and  C_23 
DOCKED: REMARK    7  A    between atoms: C_20  and  C_38 
DOCKED: REMARK    8  A    between atoms: C_23  and  C_40 
DOCKED: REMARK    9  A    between atoms: C_32  and  C_41 
DOCKED: REMARK   10  A    between atoms: C_37  and  C_45 
DOCKED: REMARK   11  A    between atoms: C_41  and  C_44 
DOCKED: REMARK   12  A    between atoms: C_44  and  C_46 
DOCKED: REMARK   13  A    between atoms: C_47  and  C_48 
DOCKED: USER                              x       y       z     vdW  Elec       q    Type
DOCKED: USER                           _______ _______ _______ _____ _____    ______ ____
DOCKED: ROOT
DOCKED: ATOM      1  O   UNL d   1      40.865  12.596  11.158 -0.01 -0.03    -0.289 OA
DOCKED: ATOM      2  O   UNL d   1      42.326  19.796  12.713 -0.27 -0.04    -0.289 OA
DOCKED: ATOM      3  N   UNL d   1      41.735  13.687  14.312 -0.06 -0.03    -0.247 NA
DOCKED: ATOM      4  N   UNL d   1      42.399  16.552  13.885 -0.10 -0.04    -0.247 NA
DOCKED: ATOM      5  N   UNL d   1      43.596  16.568  16.500 -0.06 -0.09    -0.354 N 
DOCKED: ATOM      6  N   UNL d   1      42.920  13.591  16.926 -0.02 -0.06    -0.354 N 
DOCKED: ATOM      7  C   UNL d   1      41.361  11.494  13.282 -0.02 +0.01    +0.084 A 
DOCKED: ATOM      8  C   UNL d   1      41.335  17.676  11.995 -0.24 +0.01    +0.084 A 
DOCKED: ATOM      9  C   UNL d   1      41.597  16.386  12.779 -0.17 +0.00    +0.058 A 
DOCKED: ATOM     10  C   UNL d   1      41.729  12.318  14.520 -0.06 +0.01    +0.058 A 
DOCKED: ATOM     11  C   UNL d   1      41.143  12.641  12.342 -0.02 +0.02    +0.193 A 
DOCKED: ATOM     12  C   UNL d   1      41.374  13.917  13.091 -0.07 +0.01    +0.109 A 
DOCKED: ATOM     13  C   UNL d   1      42.169  18.598  12.840 -0.21 +0.03    +0.193 A 
DOCKED: ATOM     14  C   UNL d   1      42.540  10.658  12.778 -0.01 +0.00    +0.026 C 
DOCKED: ATOM     15  C   UNL d   1      41.125  15.192  12.389 -0.13 +0.00    +0.055 C 
DOCKED: ATOM     16  C   UNL d   1      39.870  18.112  12.089 -0.32 -0.00    +0.026 C 
DOCKED: ATOM     17  C   UNL d   1      42.765  17.792  13.947 -0.18 +0.02    +0.109 A 
DOCKED: ATOM     18  C   UNL d   1      41.934  11.736  15.717 -0.07 +0.01    +0.050 C 
DOCKED: ATOM     19  C   UNL d   1      42.195  12.421  16.931 -0.10 +0.01    +0.045 A 
DOCKED: ATOM     20  C   UNL d   1      44.015  17.790  16.041 -0.20 +0.01    +0.045 A 
DOCKED: ATOM     21  C   UNL d   1      43.672  18.425  14.916 -0.22 +0.01    +0.057 C 
DOCKED: ATOM     22  C   UNL d   1      45.031  17.364  18.042 -0.19 -0.00    -0.019 A 
DOCKED: ATOM     23  C   UNL d   1      44.156  16.225  17.701 -0.23 +0.01    +0.045 A 
DOCKED: ATOM     24  C   UNL d   1      44.942  18.288  17.056 -0.17 -0.01    -0.022 A 
DOCKED: ATOM     25  C   UNL d   1      43.131  14.034  18.211 -0.13 +0.01    +0.049 A 
DOCKED: ATOM     26  C   UNL d   1      41.895  12.115  18.249 -0.12 -0.00    -0.018 A 
DOCKED: ATOM     27  C   UNL d   1      42.472  13.147  19.052 -0.21 +0.00    +0.003 A 
DOCKED: ATOM     28  C   UNL d   1      43.987  15.138  18.471 -0.27 +0.01    +0.052 C 
DOCKED: ATOM     29  C   UNL d   1      45.626  19.609  16.951 -0.18 +0.02    +0.046 C 
DOCKED: ATOM     30  C   UNL d   1      41.120  10.938  18.736 -0.09 +0.00    +0.046 C 
DOCKED: ATOM     31  H   UNL d   1      42.881  16.039  16.010 +0.06 +0.04    +0.166 HD
DOCKED: ATOM     32  H   UNL d   1      43.276  14.027  16.083 +0.03 +0.03    +0.166 HD
DOCKED: ENDROOT
DOCKED: BRANCH   7  33
DOCKED: ATOM     33  C   UNL d   1      40.088  10.652  13.408 -0.02 +0.01    +0.141 C 
DOCKED: BRANCH  33  34
DOCKED: ATOM     34  C   UNL d   1      39.755   9.912  12.141 -0.00 +0.02    +0.306 C 
DOCKED: ATOM     35  O   UNL d   1      40.118   8.785  11.848 +0.00 -0.02    -0.251 OA
DOCKED: BRANCH  34  36
DOCKED: ATOM     36  O   UNL d   1      38.979  10.630  11.310 +0.00 -0.04    -0.481 OA
DOCKED: ATOM     37  H   UNL d   1      39.578  11.315  10.943 +0.01 +0.02    +0.295 HD
DOCKED: ENDBRANCH  34  36
DOCKED: ENDBRANCH  33  34
DOCKED: ENDBRANCH   7  33
DOCKED: BRANCH  27  38
DOCKED: ATOM     38  C   UNL d   1      42.412  13.212  20.481 -0.27 +0.00    +0.017 C 
DOCKED: ATOM     39  C   UNL d   1      43.338  13.778  21.270 -0.19 +0.01    +0.092 C 
DOCKED: BRANCH  39  40
DOCKED: ATOM     40  C   UNL d   1      43.148  13.793  22.723 -0.11 +0.04    +0.330 C 
DOCKED: ATOM     41  O   UNL d   1      42.260  13.261  23.363 -0.13 -0.01    -0.246 OA
DOCKED: BRANCH  40  42
DOCKED: ATOM     42  O   UNL d   1      44.130  14.494  23.310 -0.06 -0.06    -0.477 OA
DOCKED: ATOM     43  H   UNL d   1      44.689  14.788  22.561 +0.07 +0.05    +0.295 HD
DOCKED: ENDBRANCH  40  42
DOCKED: ENDBRANCH  39  40
DOCKED: ENDBRANCH  27  38
DOCKED: BRANCH   8  44
DOCKED: ATOM     44  C   UNL d   1      41.821  17.675  10.541 -0.17 +0.02    +0.141 C 
DOCKED: BRANCH  44  45
DOCKED: ATOM     45  C   UNL d   1      41.966  19.058   9.963 -0.22 +0.01    +0.306 C 
DOCKED: ATOM     46  O   UNL d   1      41.124  19.675   9.333 -0.26 +0.05    -0.251 OA
DOCKED: BRANCH  45  47
DOCKED: ATOM     47  O   UNL d   1      43.184  19.583  10.185 -0.03 -0.08    -0.481 OA
DOCKED: ATOM     48  H   UNL d   1      43.021  20.339  10.789 -0.23 -0.00    +0.295 HD
DOCKED: ENDBRANCH  45  47
DOCKED: ENDBRANCH  44  45
DOCKED: ENDBRANCH   8  44
DOCKED: BRANCH  22  49
DOCKED: ATOM     49  C   UNL d   1      45.875  17.437  19.280 -0.17 +0.01    +0.048 C 
DOCKED: BRANCH  49  50
DOCKED: ATOM     50  C   UNL d   1      46.561  16.104  19.580 -0.10 +0.03    +0.125 C 
DOCKED: BRANCH  50  51
DOCKED: ATOM     51  C   UNL d   1      46.252  15.644  20.977 -0.07 +0.05    +0.305 C 
DOCKED: ATOM     52  O   UNL d   1      46.094  16.334  21.968 -0.11 -0.05    -0.251 OA
DOCKED: BRANCH  51  53
DOCKED: ATOM     53  O   UNL d   1      46.167  14.301  21.058 -0.01 -0.07    -0.481 OA
DOCKED: ATOM     54  H   UNL d   1      45.853  14.137  21.972 +0.04 +0.04    +0.295 HD
DOCKED: ENDBRANCH  51  53
DOCKED: ENDBRANCH  50  51
DOCKED: ENDBRANCH  49  50
DOCKED: ENDBRANCH  22  49
DOCKED: TORSDOF 13
DOCKED: TER
DOCKED: ENDMDL
________________________________________________________________________________


	BEGINNING GENETIC ALGORITHM DOCKING 34 of 100
Run: 34 Seed: 1492334822 1065536913 [ Run 34 of 100 GA/GALS ]
Beginning LAMARCKIAN GENETIC ALGORITHM (LGA), with a maximum of 25000000 energy evaluations.

Final-Value: -10.027


	FINAL GENETIC ALGORITHM DOCKED STATE
	_______________________________________________


Detailed state:  trans 44.963 21.665 23.192 quatxyzw -0.515517 0.063003 -0.824946 -0.223018 center 0.153 0.018 -0.028 ntor 13 93.2332 -174.2349 79.5114 89.2739 -138.8684 109.5713 111.7838 100.2795 29.0447 0.0788 135.5081 -55.8354 -180.0000
State:	 44.963  21.665  23.192  -0.529  0.065 -0.846 -154.227     93.23 -174.23   79.51   89.27 -138.87  109.57  111.78  100.28   29.04    0.08  135.51  -55.84 -180.00

DOCKED: MODEL       34
DOCKED: USER    Run = 34
DOCKED: USER    DPF = D:/Protein_go_brrr/autodock/final/6BB5/heme/dock.dpf
DOCKED: USER  
DOCKED: USER    Estimated Free Energy of Binding    =   -4.00 kcal/mol  [=(1)+(2)+(3)-(4)]
DOCKED: USER    Estimated Inhibition Constant, Ki   =    1.17 mM (millimolar)  [Temperature = 298.15 K]
DOCKED: USER    
DOCKED: USER    (1) Final Intermolecular Energy     =   -7.88 kcal/mol
DOCKED: USER        vdW + Hbond + desolv Energy     =   -7.24 kcal/mol
DOCKED: USER        Electrostatic Energy            =   -0.64 kcal/mol
DOCKED: USER    (2) Final Total Internal Energy     =   -2.15 kcal/mol
DOCKED: USER    (3) Torsional Free Energy           =   +3.88 kcal/mol
DOCKED: USER    (4) Unbound System's Energy  [=(2)] =   -2.15 kcal/mol
DOCKED: USER    
DOCKED: USER    
DOCKED: USER    NEWDPF move heme_opt.pdbqt
DOCKED: USER    NEWDPF about 0.153000 0.018000 -0.028000
DOCKED: USER    NEWDPF tran0 44.962993 21.665044 23.191595
DOCKED: USER    NEWDPF quaternion0 -0.515517 0.063003 -0.824946 -0.223018
DOCKED: USER    NEWDPF axisangle0 -0.528836 0.064631 -0.846259 -154.227235
DOCKED: USER    NEWDPF quat0 -0.528836 0.064631 -0.846259 -154.227235
DOCKED: USER    NEWDPF dihe0 93.23 -174.23 79.51 89.27 -138.87 109.57 111.78 100.28 29.04 0.08 135.51 -55.84 -180.00 
DOCKED: USER  keepresnum = 1 
DOCKED: USER  
DOCKED: REMARK  13 active torsions:
DOCKED: REMARK  status: ('A' for Active; 'I' for Inactive)
DOCKED: REMARK    1  A    between atoms: O_3  and  C_38 
DOCKED: REMARK    2  A    between atoms: O_4  and  C_40 
DOCKED: REMARK    3  A    between atoms: O_7  and  C_46 
DOCKED: REMARK    4  A    between atoms: O_9  and  C_48 
DOCKED: REMARK    5  A    between atoms: C_15  and  C_20 
DOCKED: REMARK    6  A    between atoms: C_16  and  C_23 
DOCKED: REMARK    7  A    between atoms: C_20  and  C_38 
DOCKED: REMARK    8  A    between atoms: C_23  and  C_40 
DOCKED: REMARK    9  A    between atoms: C_32  and  C_41 
DOCKED: REMARK   10  A    between atoms: C_37  and  C_45 
DOCKED: REMARK   11  A    between atoms: C_41  and  C_44 
DOCKED: REMARK   12  A    between atoms: C_44  and  C_46 
DOCKED: REMARK   13  A    between atoms: C_47  and  C_48 
DOCKED: USER                              x       y       z     vdW  Elec       q    Type
DOCKED: USER                           _______ _______ _______ _____ _____    ______ ____
DOCKED: ROOT
DOCKED: ATOM      1  O   UNL d   1      48.115  22.668  18.311 -0.13 -0.26    -0.289 OA
DOCKED: ATOM      2  O   UNL d   1      43.088  26.942  21.897 -0.89 -0.52    -0.289 OA
DOCKED: ATOM      3  N   UNL d   1      46.396  21.589  21.101 -0.10 -0.08    -0.247 NA
DOCKED: ATOM      4  N   UNL d   1      44.910  24.012  21.967 -0.14 -0.16    -0.247 NA
DOCKED: ATOM      5  N   UNL d   1      44.375  22.680  24.458 -0.09 -0.14    -0.354 N 
DOCKED: ATOM      6  N   UNL d   1      45.935  20.178  23.559 -0.04 -0.07    -0.354 N 
DOCKED: ATOM      7  C   UNL d   1      48.215  20.681  19.731 -0.04 +0.04    +0.084 A 
DOCKED: ATOM      8  C   UNL d   1      44.381  25.671  20.252 -0.21 +0.06    +0.084 A 
DOCKED: ATOM      9  C   UNL d   1      45.089  24.372  20.650 -0.16 +0.03    +0.058 A 
DOCKED: ATOM     10  C   UNL d   1      47.274  20.532  20.930 -0.09 +0.02    +0.058 A 
DOCKED: ATOM     11  C   UNL d   1      47.702  22.002  19.243 -0.04 +0.11    +0.193 A 
DOCKED: ATOM     12  C   UNL d   1      46.585  22.436  20.141 -0.08 +0.05    +0.109 A 
DOCKED: ATOM     13  C   UNL d   1      43.798  26.002  21.597 -0.11 +0.24    +0.193 A 
DOCKED: ATOM     14  C   UNL d   1      49.674  20.846  20.164 -0.01 +0.01    +0.026 C 
DOCKED: ATOM     15  C   UNL d   1      45.858  23.675  19.799 -0.13 +0.03    +0.055 C 
DOCKED: ATOM     16  C   UNL d   1      43.235  25.416  19.269 -0.32 +0.01    +0.026 C 
DOCKED: ATOM     17  C   UNL d   1      44.198  24.923  22.550 -0.18 +0.11    +0.109 A 
DOCKED: ATOM     18  C   UNL d   1      47.263  19.414  21.680 -0.11 +0.01    +0.050 C 
DOCKED: ATOM     19  C   UNL d   1      46.373  19.152  22.753 -0.08 +0.01    +0.045 A 
DOCKED: ATOM     20  C   UNL d   1      43.938  23.942  24.767 -0.23 +0.03    +0.045 A 
DOCKED: ATOM     21  C   UNL d   1      43.804  25.003  23.964 -0.28 +0.06    +0.057 C 
DOCKED: ATOM     22  C   UNL d   1      43.894  22.662  26.658 -0.17 -0.01    -0.019 A 
DOCKED: ATOM     23  C   UNL d   1      44.383  21.836  25.536 -0.19 +0.01    +0.045 A 
DOCKED: ATOM     24  C   UNL d   1      43.631  23.907  26.196 -0.22 -0.01    -0.022 A 
DOCKED: ATOM     25  C   UNL d   1      45.158  19.690  24.584 -0.18 +0.01    +0.049 A 
DOCKED: ATOM     26  C   UNL d   1      45.837  17.971  23.245 -0.11 -0.00    -0.018 A 
DOCKED: ATOM     27  C   UNL d   1      45.055  18.320  24.389 -0.18 +0.00    +0.003 A 
DOCKED: ATOM     28  C   UNL d   1      44.720  20.541  25.635 -0.20 +0.01    +0.052 C 
DOCKED: ATOM     29  C   UNL d   1      43.109  25.088  26.942 -0.30 +0.02    +0.046 C 
DOCKED: ATOM     30  C   UNL d   1      46.036  16.603  22.686 -0.12 +0.01    +0.046 C 
DOCKED: ATOM     31  H   UNL d   1      44.583  22.415  23.501 +0.05 +0.06    +0.166 HD
DOCKED: ATOM     32  H   UNL d   1      46.195  21.148  23.422 +0.04 +0.04    +0.166 HD
DOCKED: ENDROOT
DOCKED: BRANCH   7  33
DOCKED: ATOM     33  C   UNL d   1      48.068  19.612  18.643 -0.06 +0.08    +0.141 C 
DOCKED: BRANCH  33  34
DOCKED: ATOM     34  C   UNL d   1      46.860  19.833  17.773 -0.08 +0.19    +0.306 C 
DOCKED: ATOM     35  O   UNL d   1      45.722  19.468  18.014 -0.15 -0.09    -0.251 OA
DOCKED: BRANCH  34  36
DOCKED: ATOM     36  O   UNL d   1      47.150  20.507  16.646 -0.03 -0.56    -0.481 OA
DOCKED: ATOM     37  H   UNL d   1      47.043  21.451  16.888 +0.07 +0.35    +0.295 HD
DOCKED: ENDBRANCH  34  36
DOCKED: ENDBRANCH  33  34
DOCKED: ENDBRANCH   7  33
DOCKED: BRANCH  27  38
DOCKED: ATOM     38  C   UNL d   1      44.336  17.393  25.210 -0.21 +0.00    +0.017 C 
DOCKED: ATOM     39  C   UNL d   1      43.911  17.634  26.460 -0.18 +0.00    +0.092 C 
DOCKED: BRANCH  39  40
DOCKED: ATOM     40  C   UNL d   1      43.168  16.604  27.190 -0.08 +0.00    +0.330 C 
DOCKED: ATOM     41  O   UNL d   1      43.557  15.925  28.121 -0.03 -0.01    -0.246 OA
DOCKED: BRANCH  40  42
DOCKED: ATOM     42  O   UNL d   1      41.927  16.489  26.691 -0.15 +0.04    -0.477 OA
DOCKED: ATOM     43  H   UNL d   1      41.931  17.083  25.913 -0.32 -0.10    +0.295 HD
DOCKED: ENDBRANCH  40  42
DOCKED: ENDBRANCH  39  40
DOCKED: ENDBRANCH  27  38
DOCKED: BRANCH   8  44
DOCKED: ATOM     44  C   UNL d   1      45.296  26.797  19.759 -0.15 +0.10    +0.141 C 
DOCKED: BRANCH  44  45
DOCKED: ATOM     45  C   UNL d   1      46.462  27.060  20.674 -0.06 +0.30    +0.306 C 
DOCKED: ATOM     46  O   UNL d   1      47.403  26.314  20.885 -0.05 -0.18    -0.251 OA
DOCKED: BRANCH  45  47
DOCKED: ATOM     47  O   UNL d   1      46.368  28.246  21.301 -0.59 -0.78    -0.481 OA
DOCKED: ATOM     48  H   UNL d   1      46.970  28.839  20.802 +0.05 +0.27    +0.295 HD
DOCKED: ENDBRANCH  45  47
DOCKED: ENDBRANCH  44  45
DOCKED: ENDBRANCH   8  44
DOCKED: BRANCH  22  49
DOCKED: ATOM     49  C   UNL d   1      43.745  22.166  28.067 -0.13 +0.02    +0.048 C 
DOCKED: BRANCH  49  50
DOCKED: ATOM     50  C   UNL d   1      44.957  22.524  28.927 -0.06 +0.03    +0.125 C 
DOCKED: BRANCH  50  51
DOCKED: ATOM     51  C   UNL d   1      46.237  22.271  28.182 -0.00 +0.07    +0.305 C 
DOCKED: ATOM     52  O   UNL d   1      46.884  23.067  27.525 -0.00 -0.06    -0.251 OA
DOCKED: BRANCH  51  53
DOCKED: ATOM     53  O   UNL d   1      46.642  20.990  28.296 +0.01 -0.08    -0.481 OA
DOCKED: ATOM     54  H   UNL d   1      47.226  20.995  29.083 +0.01 +0.04    +0.295 HD
DOCKED: ENDBRANCH  51  53
DOCKED: ENDBRANCH  50  51
DOCKED: ENDBRANCH  49  50
DOCKED: ENDBRANCH  22  49
DOCKED: TORSDOF 13
DOCKED: TER
DOCKED: ENDMDL
________________________________________________________________________________


	BEGINNING GENETIC ALGORITHM DOCKING 35 of 100
Run: 35 Seed: 1669090182 1145578459 [ Run 35 of 100 GA/GALS ]
Beginning LAMARCKIAN GENETIC ALGORITHM (LGA), with a maximum of 25000000 energy evaluations.

Final-Value: -10.084


	FINAL GENETIC ALGORITHM DOCKED STATE
	_______________________________________________


Detailed state:  trans 44.790 21.519 23.689 quatxyzw 0.527760 -0.026321 0.829663 0.180101 center 0.153 0.018 -0.028 ntor 13 179.8744 -15.7072 -168.0999 85.9715 -159.5589 108.5297 144.6890 98.2391 2.4599 -53.7819 123.4644 -71.9372 177.6512
State:	 44.790  21.519  23.689   0.537 -0.027  0.843 159.249    179.87  -15.71 -168.10   85.97 -159.56  108.53  144.69   98.24    2.46  -53.78  123.46  -71.94  177.65

DOCKED: MODEL       35
DOCKED: USER    Run = 35
DOCKED: USER    DPF = D:/Protein_go_brrr/autodock/final/6BB5/heme/dock.dpf
DOCKED: USER  
DOCKED: USER    Estimated Free Energy of Binding    =   -3.76 kcal/mol  [=(1)+(2)+(3)-(4)]
DOCKED: USER    Estimated Inhibition Constant, Ki   =    1.75 mM (millimolar)  [Temperature = 298.15 K]
DOCKED: USER    
DOCKED: USER    (1) Final Intermolecular Energy     =   -7.64 kcal/mol
DOCKED: USER        vdW + Hbond + desolv Energy     =   -7.22 kcal/mol
DOCKED: USER        Electrostatic Energy            =   -0.42 kcal/mol
DOCKED: USER    (2) Final Total Internal Energy     =   -2.44 kcal/mol
DOCKED: USER    (3) Torsional Free Energy           =   +3.88 kcal/mol
DOCKED: USER    (4) Unbound System's Energy  [=(2)] =   -2.44 kcal/mol
DOCKED: USER    
DOCKED: USER    
DOCKED: USER    NEWDPF move heme_opt.pdbqt
DOCKED: USER    NEWDPF about 0.153000 0.018000 -0.028000
DOCKED: USER    NEWDPF tran0 44.789681 21.518596 23.689339
DOCKED: USER    NEWDPF quaternion0 0.527760 -0.026321 0.829663 0.180101
DOCKED: USER    NEWDPF axisangle0 0.536533 -0.026759 0.843455 159.248698
DOCKED: USER    NEWDPF quat0 0.536533 -0.026759 0.843455 159.248698
DOCKED: USER    NEWDPF dihe0 179.87 -15.71 -168.10 85.97 -159.56 108.53 144.69 98.24 2.46 -53.78 123.46 -71.94 177.65 
DOCKED: USER  keepresnum = 1 
DOCKED: USER  
DOCKED: REMARK  13 active torsions:
DOCKED: REMARK  status: ('A' for Active; 'I' for Inactive)
DOCKED: REMARK    1  A    between atoms: O_3  and  C_38 
DOCKED: REMARK    2  A    between atoms: O_4  and  C_40 
DOCKED: REMARK    3  A    between atoms: O_7  and  C_46 
DOCKED: REMARK    4  A    between atoms: O_9  and  C_48 
DOCKED: REMARK    5  A    between atoms: C_15  and  C_20 
DOCKED: REMARK    6  A    between atoms: C_16  and  C_23 
DOCKED: REMARK    7  A    between atoms: C_20  and  C_38 
DOCKED: REMARK    8  A    between atoms: C_23  and  C_40 
DOCKED: REMARK    9  A    between atoms: C_32  and  C_41 
DOCKED: REMARK   10  A    between atoms: C_37  and  C_45 
DOCKED: REMARK   11  A    between atoms: C_41  and  C_44 
DOCKED: REMARK   12  A    between atoms: C_44  and  C_46 
DOCKED: REMARK   13  A    between atoms: C_47  and  C_48 
DOCKED: USER                              x       y       z     vdW  Elec       q    Type
DOCKED: USER                           _______ _______ _______ _____ _____    ______ ____
DOCKED: ROOT
DOCKED: ATOM      1  O   UNL d   1      47.942  21.869  18.720 -0.05 -0.21    -0.289 OA
DOCKED: ATOM      2  O   UNL d   1      43.083  26.680  21.823 -0.81 -0.45    -0.289 OA
DOCKED: ATOM      3  N   UNL d   1      46.207  21.164  21.616 -0.03 -0.07    -0.247 NA
DOCKED: ATOM      4  N   UNL d   1      44.807  23.716  22.212 -0.15 -0.14    -0.247 NA
DOCKED: ATOM      5  N   UNL d   1      44.243  22.687  24.837 -0.09 -0.13    -0.354 N 
DOCKED: ATOM      6  N   UNL d   1      45.714  20.050  24.217 -0.06 -0.07    -0.354 N 
DOCKED: ATOM      7  C   UNL d   1      47.986  20.049  20.351 -0.05 +0.03    +0.084 A 
DOCKED: ATOM      8  C   UNL d   1      44.323  25.193  20.326 -0.21 +0.05    +0.084 A 
DOCKED: ATOM      9  C   UNL d   1      44.990  23.922  20.863 -0.17 +0.03    +0.058 A 
DOCKED: ATOM     10  C   UNL d   1      47.047  20.065  21.561 -0.11 +0.01    +0.058 A 
DOCKED: ATOM     11  C   UNL d   1      47.514  21.325  19.721 -0.05 +0.09    +0.193 A 
DOCKED: ATOM     12  C   UNL d   1      46.417  21.892  20.568 -0.10 +0.04    +0.109 A 
DOCKED: ATOM     13  C   UNL d   1      43.760  25.690  21.628 -0.21 +0.21    +0.193 A 
DOCKED: ATOM     14  C   UNL d   1      49.452  20.211  20.759 -0.01 +0.01    +0.026 C 
DOCKED: ATOM     15  C   UNL d   1      45.730  23.110  20.092 -0.15 +0.03    +0.055 C 
DOCKED: ATOM     16  C   UNL d   1      43.163  24.869  19.379 -0.37 +0.01    +0.026 C 
DOCKED: ATOM     17  C   UNL d   1      44.130  24.709  22.693 -0.14 +0.10    +0.109 A 
DOCKED: ATOM     18  C   UNL d   1      47.004  19.038  22.431 -0.12 +0.01    +0.050 C 
DOCKED: ATOM     19  C   UNL d   1      46.112  18.926  23.528 -0.08 +0.01    +0.045 A 
DOCKED: ATOM     20  C   UNL d   1      43.851  23.989  25.005 -0.23 +0.03    +0.045 A 
DOCKED: ATOM     21  C   UNL d   1      43.747  24.958  24.090 -0.30 +0.06    +0.057 C 
DOCKED: ATOM     22  C   UNL d   1      43.776  22.928  27.027 -0.17 -0.01    -0.019 A 
DOCKED: ATOM     23  C   UNL d   1      44.231  21.967  26.002 -0.18 +0.01    +0.045 A 
DOCKED: ATOM     24  C   UNL d   1      43.552  24.123  26.431 -0.22 -0.01    -0.022 A 
DOCKED: ATOM     25  C   UNL d   1      44.928  19.704  25.291 -0.17 +0.01    +0.049 A 
DOCKED: ATOM     26  C   UNL d   1      45.541  17.826  24.149 -0.15 -0.00    -0.018 A 
DOCKED: ATOM     27  C   UNL d   1      44.778  18.325  25.250 -0.20 +0.00    +0.003 A 
DOCKED: ATOM     28  C   UNL d   1      44.525  20.680  26.243 -0.19 +0.01    +0.052 C 
DOCKED: ATOM     29  C   UNL d   1      43.074  25.395  27.042 -0.31 +0.03    +0.046 C 
DOCKED: ATOM     30  C   UNL d   1      45.690  16.398  23.745 -0.14 +0.01    +0.046 C 
DOCKED: ATOM     31  H   UNL d   1      44.437  22.311  23.915 +0.06 +0.06    +0.166 HD
DOCKED: ATOM     32  H   UNL d   1      46.006  20.989  23.973 +0.04 +0.04    +0.166 HD
DOCKED: ENDROOT
DOCKED: BRANCH   7  33
DOCKED: ATOM     33  C   UNL d   1      47.797  18.872  19.388 -0.06 +0.05    +0.141 C 
DOCKED: BRANCH  33  34
DOCKED: ATOM     34  C   UNL d   1      46.361  18.682  18.981 -0.10 +0.09    +0.306 C 
DOCKED: ATOM     35  O   UNL d   1      45.610  17.806  19.375 -0.14 -0.05    -0.251 OA
DOCKED: BRANCH  34  36
DOCKED: ATOM     36  O   UNL d   1      45.945  19.608  18.099 -0.07 -0.18    -0.481 OA
DOCKED: ATOM     37  H   UNL d   1      46.714  20.207  17.989 +0.06 +0.17    +0.295 HD
DOCKED: ENDBRANCH  34  36
DOCKED: ENDBRANCH  33  34
DOCKED: ENDBRANCH   7  33
DOCKED: BRANCH  27  38
DOCKED: ATOM     38  C   UNL d   1      44.034  17.520  26.170 -0.20 +0.00    +0.017 C 
DOCKED: ATOM     39  C   UNL d   1      43.884  17.777  27.479 -0.12 +0.01    +0.092 C 
DOCKED: BRANCH  39  40
DOCKED: ATOM     40  C   UNL d   1      43.080  16.879  28.312 -0.05 +0.02    +0.330 C 
DOCKED: ATOM     41  O   UNL d   1      43.475  16.078  29.138 -0.02 -0.01    -0.246 OA
DOCKED: BRANCH  40  42
DOCKED: ATOM     42  O   UNL d   1      41.775  17.056  28.054 -0.48 -0.05    -0.477 OA
DOCKED: ATOM     43  H   UNL d   1      41.350  16.264  28.443 +0.07 +0.00    +0.295 HD
DOCKED: ENDBRANCH  40  42
DOCKED: ENDBRANCH  39  40
DOCKED: ENDBRANCH  27  38
DOCKED: BRANCH   8  44
DOCKED: ATOM     44  C   UNL d   1      45.271  26.226  19.709 -0.14 +0.09    +0.141 C 
DOCKED: BRANCH  44  45
DOCKED: ATOM     45  C   UNL d   1      45.536  27.403  20.609 -0.09 +0.36    +0.306 C 
DOCKED: ATOM     46  O   UNL d   1      46.523  27.581  21.302 -0.61 -0.38    -0.251 OA
DOCKED: BRANCH  45  47
DOCKED: ATOM     47  O   UNL d   1      44.522  28.288  20.610 -0.18 -0.61    -0.481 OA
DOCKED: ATOM     48  H   UNL d   1      43.791  27.827  20.147 +0.12 +0.27    +0.295 HD
DOCKED: ENDBRANCH  45  47
DOCKED: ENDBRANCH  44  45
DOCKED: ENDBRANCH   8  44
DOCKED: BRANCH  22  49
DOCKED: ATOM     49  C   UNL d   1      43.619  22.596  28.482 -0.07 +0.02    +0.048 C 
DOCKED: BRANCH  49  50
DOCKED: ATOM     50  C   UNL d   1      44.870  22.953  29.285 -0.05 +0.03    +0.125 C 
DOCKED: BRANCH  50  51
DOCKED: ATOM     51  C   UNL d   1      46.085  22.281  28.711 -0.00 +0.06    +0.305 C 
DOCKED: ATOM     52  O   UNL d   1      46.856  22.724  27.878 -0.00 -0.06    -0.251 OA
DOCKED: BRANCH  51  53
DOCKED: ATOM     53  O   UNL d   1      46.266  21.046  29.221 +0.00 -0.08    -0.481 OA
DOCKED: ATOM     54  H   UNL d   1      46.889  21.185  29.965 +0.01 +0.04    +0.295 HD
DOCKED: ENDBRANCH  51  53
DOCKED: ENDBRANCH  50  51
DOCKED: ENDBRANCH  49  50
DOCKED: ENDBRANCH  22  49
DOCKED: TORSDOF 13
DOCKED: TER
DOCKED: ENDMDL
________________________________________________________________________________


	BEGINNING GENETIC ALGORITHM DOCKING 36 of 100
Run: 36 Seed: 469791846 2016662957 [ Run 36 of 100 GA/GALS ]
Beginning LAMARCKIAN GENETIC ALGORITHM (LGA), with a maximum of 25000000 energy evaluations.

Final-Value: -11.410


	FINAL GENETIC ALGORITHM DOCKED STATE
	_______________________________________________


Detailed state:  trans 39.469 15.688 11.761 quatxyzw -0.497810 0.732998 -0.461758 -0.040980 center 0.153 0.018 -0.028 ntor 13 -140.5053 160.1529 -110.1439 -35.8690 40.0846 108.3142 -35.0534 -91.1777 153.7415 28.2876 -96.9657 -97.1334 -4.8478
State:	 39.469  15.688  11.761  -0.498  0.734 -0.462 -175.303   -140.51  160.15 -110.14  -35.87   40.08  108.31  -35.05  -91.18  153.74   28.29  -96.97  -97.13   -4.85

DOCKED: MODEL       36
DOCKED: USER    Run = 36
DOCKED: USER    DPF = D:/Protein_go_brrr/autodock/final/6BB5/heme/dock.dpf
DOCKED: USER  
DOCKED: USER    Estimated Free Energy of Binding    =   -3.55 kcal/mol  [=(1)+(2)+(3)-(4)]
DOCKED: USER    Estimated Inhibition Constant, Ki   =    2.52 mM (millimolar)  [Temperature = 298.15 K]
DOCKED: USER    
DOCKED: USER    (1) Final Intermolecular Energy     =   -7.42 kcal/mol
DOCKED: USER        vdW + Hbond + desolv Energy     =   -7.37 kcal/mol
DOCKED: USER        Electrostatic Energy            =   -0.05 kcal/mol
DOCKED: USER    (2) Final Total Internal Energy     =   -3.99 kcal/mol
DOCKED: USER    (3) Torsional Free Energy           =   +3.88 kcal/mol
DOCKED: USER    (4) Unbound System's Energy  [=(2)] =   -3.99 kcal/mol
DOCKED: USER    
DOCKED: USER    
DOCKED: USER    NEWDPF move heme_opt.pdbqt
DOCKED: USER    NEWDPF about 0.153000 0.018000 -0.028000
DOCKED: USER    NEWDPF tran0 39.469126 15.688250 11.760590
DOCKED: USER    NEWDPF quaternion0 -0.497810 0.732998 -0.461758 -0.040980
DOCKED: USER    NEWDPF axisangle0 -0.498228 0.733614 -0.462146 -175.302779
DOCKED: USER    NEWDPF quat0 -0.498228 0.733614 -0.462146 -175.302779
DOCKED: USER    NEWDPF dihe0 -140.51 160.15 -110.14 -35.87 40.08 108.31 -35.05 -91.18 153.74 28.29 -96.97 -97.13 -4.85 
DOCKED: USER  keepresnum = 1 
DOCKED: USER  
DOCKED: REMARK  13 active torsions:
DOCKED: REMARK  status: ('A' for Active; 'I' for Inactive)
DOCKED: REMARK    1  A    between atoms: O_3  and  C_38 
DOCKED: REMARK    2  A    between atoms: O_4  and  C_40 
DOCKED: REMARK    3  A    between atoms: O_7  and  C_46 
DOCKED: REMARK    4  A    between atoms: O_9  and  C_48 
DOCKED: REMARK    5  A    between atoms: C_15  and  C_20 
DOCKED: REMARK    6  A    between atoms: C_16  and  C_23 
DOCKED: REMARK    7  A    between atoms: C_20  and  C_38 
DOCKED: REMARK    8  A    between atoms: C_23  and  C_40 
DOCKED: REMARK    9  A    between atoms: C_32  and  C_41 
DOCKED: REMARK   10  A    between atoms: C_37  and  C_45 
DOCKED: REMARK   11  A    between atoms: C_41  and  C_44 
DOCKED: REMARK   12  A    between atoms: C_44  and  C_46 
DOCKED: REMARK   13  A    between atoms: C_47  and  C_48 
DOCKED: USER                              x       y       z     vdW  Elec       q    Type
DOCKED: USER                           _______ _______ _______ _____ _____    ______ ____
DOCKED: ROOT
DOCKED: ATOM      1  O   UNL d   1      41.448  19.715   7.936 -0.27 +0.06    -0.289 OA
DOCKED: ATOM      2  O   UNL d   1      43.333  18.355  15.077 -0.14 -0.06    -0.289 OA
DOCKED: ATOM      3  N   UNL d   1      39.898  17.300   9.850 -0.11 -0.01    -0.247 NA
DOCKED: ATOM      4  N   UNL d   1      41.487  17.294  12.361 -0.13 -0.02    -0.247 NA
DOCKED: ATOM      5  N   UNL d   1      40.202  14.819  13.059 -0.08 -0.00    -0.354 N 
DOCKED: ATOM      6  N   UNL d   1      38.572  14.823  10.443 -0.05 -0.02    -0.354 N 
DOCKED: ATOM      7  C   UNL d   1      39.786  17.977   7.497 -0.16 -0.00    +0.084 A 
DOCKED: ATOM      8  C   UNL d   1      42.652  19.360  12.951 -0.30 +0.02    +0.084 A 
DOCKED: ATOM      9  C   UNL d   1      41.811  18.567  11.946 -0.29 +0.01    +0.058 A 
DOCKED: ATOM     10  C   UNL d   1      39.315  17.048   8.620 -0.12 +0.00    +0.058 A 
DOCKED: ATOM     11  C   UNL d   1      40.726  18.811   8.315 -0.23 -0.01    +0.193 A 
DOCKED: ATOM     12  C   UNL d   1      40.685  18.319   9.729 -0.23 +0.00    +0.109 A 
DOCKED: ATOM     13  C   UNL d   1      42.777  18.289  13.998 -0.17 +0.03    +0.193 A 
DOCKED: ATOM     14  C   UNL d   1      40.590  17.228   6.431 -0.10 +0.00    +0.026 C 
DOCKED: ATOM     15  C   UNL d   1      41.467  19.054  10.744 -0.31 +0.00    +0.055 C 
DOCKED: ATOM     16  C   UNL d   1      41.870  20.537  13.542 -0.43 +0.00    +0.026 C 
DOCKED: ATOM     17  C   UNL d   1      42.033  17.086  13.516 -0.20 +0.01    +0.109 A 
DOCKED: ATOM     18  C   UNL d   1      38.348  16.134   8.416 -0.09 +0.00    +0.050 C 
DOCKED: ATOM     19  C   UNL d   1      37.790  15.291   9.411 -0.10 +0.00    +0.045 A 
DOCKED: ATOM     20  C   UNL d   1      41.168  14.865  14.031 -0.17 +0.00    +0.045 A 
DOCKED: ATOM     21  C   UNL d   1      42.017  15.856  14.321 -0.13 +0.01    +0.057 C 
DOCKED: ATOM     22  C   UNL d   1      40.107  12.845  14.141 -0.11 -0.00    -0.019 A 
DOCKED: ATOM     23  C   UNL d   1      39.510  13.638  13.047 -0.14 +0.00    +0.045 A 
DOCKED: ATOM     24  C   UNL d   1      41.087  13.578  14.720 -0.13 -0.00    -0.022 A 
DOCKED: ATOM     25  C   UNL d   1      37.857  13.955  11.236 -0.13 +0.00    +0.049 A 
DOCKED: ATOM     26  C   UNL d   1      36.526  14.743   9.558 -0.11 -0.00    -0.018 A 
DOCKED: ATOM     27  C   UNL d   1      36.568  13.916  10.723 -0.12 +0.00    +0.003 A 
DOCKED: ATOM     28  C   UNL d   1      38.495  13.222  12.273 -0.12 +0.00    +0.052 C 
DOCKED: ATOM     29  C   UNL d   1      41.967  13.217  15.868 -0.04 +0.01    +0.046 C 
DOCKED: ATOM     30  C   UNL d   1      35.347  14.974   8.674 -0.10 +0.00    +0.046 C 
DOCKED: ATOM     31  H   UNL d   1      39.998  15.627  12.481 -0.03 -0.01    +0.166 HD
DOCKED: ATOM     32  H   UNL d   1      39.549  15.064  10.559 +0.04 +0.01    +0.166 HD
DOCKED: ENDROOT
DOCKED: BRANCH   7  33
DOCKED: ATOM     33  C   UNL d   1      38.697  18.853   6.868 -0.19 -0.03    +0.141 C 
DOCKED: BRANCH  33  34
DOCKED: ATOM     34  C   UNL d   1      39.067  19.339   5.493 -0.15 -0.06    +0.306 C 
DOCKED: ATOM     35  O   UNL d   1      38.765  18.809   4.437 -0.05 +0.04    -0.251 OA
DOCKED: BRANCH  34  36
DOCKED: ATOM     36  O   UNL d   1      39.796  20.468   5.520 -0.13 +0.16    -0.481 OA
DOCKED: ATOM     37  H   UNL d   1      40.378  20.367   6.303 -0.39 -0.14    +0.295 HD
DOCKED: ENDBRANCH  34  36
DOCKED: ENDBRANCH  33  34
DOCKED: ENDBRANCH   7  33
DOCKED: BRANCH  27  38
DOCKED: ATOM     38  C   UNL d   1      35.472  13.147  11.230 -0.08 +0.00    +0.017 C 
DOCKED: ATOM     39  C   UNL d   1      35.462  11.813  11.372 -0.05 +0.01    +0.092 C 
DOCKED: BRANCH  39  40
DOCKED: ATOM     40  C   UNL d   1      34.278  11.147  11.922 -0.02 +0.04    +0.330 C 
DOCKED: ATOM     41  O   UNL d   1      33.454  10.481  11.323 -0.01 -0.02    -0.246 OA
DOCKED: BRANCH  40  42
DOCKED: ATOM     42  O   UNL d   1      34.202  11.357  13.245 -0.01 -0.06    -0.477 OA
DOCKED: ATOM     43  H   UNL d   1      35.114  11.611  13.495 +0.03 +0.04    +0.295 HD
DOCKED: ENDBRANCH  40  42
DOCKED: ENDBRANCH  39  40
DOCKED: ENDBRANCH  27  38
DOCKED: BRANCH   8  44
DOCKED: ATOM     44  C   UNL d   1      44.032  19.804  12.454 -0.30 +0.05    +0.141 C 
DOCKED: BRANCH  44  45
DOCKED: ATOM     45  C   UNL d   1      44.537  18.986  11.296 -0.21 +0.14    +0.306 C 
DOCKED: ATOM     46  O   UNL d   1      45.046  17.880  11.354 -0.13 -0.13    -0.251 OA
DOCKED: BRANCH  45  47
DOCKED: ATOM     47  O   UNL d   1      44.400  19.622  10.118 -0.17 -0.29    -0.481 OA
DOCKED: ATOM     48  H   UNL d   1      45.041  20.363  10.160 -0.42 +0.18    +0.295 HD
DOCKED: ENDBRANCH  45  47
DOCKED: ENDBRANCH  44  45
DOCKED: ENDBRANCH   8  44
DOCKED: BRANCH  22  49
DOCKED: ATOM     49  C   UNL d   1      39.678  11.454  14.504 -0.06 +0.00    +0.048 C 
DOCKED: BRANCH  49  50
DOCKED: ATOM     50  C   UNL d   1      38.534  11.458  15.517 -0.08 +0.01    +0.125 C 
DOCKED: BRANCH  50  51
DOCKED: ATOM     51  C   UNL d   1      37.209  11.621  14.829 -0.05 +0.04    +0.305 C 
DOCKED: ATOM     52  O   UNL d   1      36.570  12.648  14.680 -0.12 -0.04    -0.251 OA
DOCKED: BRANCH  51  53
DOCKED: ATOM     53  O   UNL d   1      36.736  10.448  14.362 +0.00 -0.05    -0.481 OA
DOCKED: ATOM     54  H   UNL d   1      35.767  10.511  14.497 +0.02 +0.03    +0.295 HD
DOCKED: ENDBRANCH  51  53
DOCKED: ENDBRANCH  50  51
DOCKED: ENDBRANCH  49  50
DOCKED: ENDBRANCH  22  49
DOCKED: TORSDOF 13
DOCKED: TER
DOCKED: ENDMDL
________________________________________________________________________________


	BEGINNING GENETIC ALGORITHM DOCKING 37 of 100
Run: 37 Seed: 1530702687 2109343295 [ Run 37 of 100 GA/GALS ]
Beginning LAMARCKIAN GENETIC ALGORITHM (LGA), with a maximum of 25000000 energy evaluations.

Final-Value: -11.873


	FINAL GENETIC ALGORITHM DOCKED STATE
	_______________________________________________


Detailed state:  trans 37.401 29.005 0.081 quatxyzw -0.959470 0.270809 0.073941 0.024730 center 0.153 0.018 -0.028 ntor 13 116.1198 153.3454 -123.9011 23.1161 180.0000 -98.4856 120.8181 -75.0712 96.3222 -37.8303 43.2152 15.9344 115.9341
State:	 37.401  29.005   0.081  -0.960  0.271  0.074 177.166    116.12  153.35 -123.90   23.12  180.00  -98.49  120.82  -75.07   96.32  -37.83   43.22   15.93  115.93

DOCKED: MODEL       37
DOCKED: USER    Run = 37
DOCKED: USER    DPF = D:/Protein_go_brrr/autodock/final/6BB5/heme/dock.dpf
DOCKED: USER  
DOCKED: USER    Estimated Free Energy of Binding    =   -4.53 kcal/mol  [=(1)+(2)+(3)-(4)]
DOCKED: USER    Estimated Inhibition Constant, Ki   =  475.43 uM (micromolar)  [Temperature = 298.15 K]
DOCKED: USER    
DOCKED: USER    (1) Final Intermolecular Energy     =   -8.41 kcal/mol
DOCKED: USER        vdW + Hbond + desolv Energy     =   -8.03 kcal/mol
DOCKED: USER        Electrostatic Energy            =   -0.38 kcal/mol
DOCKED: USER    (2) Final Total Internal Energy     =   -3.46 kcal/mol
DOCKED: USER    (3) Torsional Free Energy           =   +3.88 kcal/mol
DOCKED: USER    (4) Unbound System's Energy  [=(2)] =   -3.46 kcal/mol
DOCKED: USER    
DOCKED: USER    
DOCKED: USER    NEWDPF move heme_opt.pdbqt
DOCKED: USER    NEWDPF about 0.153000 0.018000 -0.028000
DOCKED: USER    NEWDPF tran0 37.401286 29.004912 0.080554
DOCKED: USER    NEWDPF quaternion0 -0.959470 0.270809 0.073941 0.024730
DOCKED: USER    NEWDPF axisangle0 -0.959764 0.270892 0.073964 177.165853
DOCKED: USER    NEWDPF quat0 -0.959764 0.270892 0.073964 177.165853
DOCKED: USER    NEWDPF dihe0 116.12 153.35 -123.90 23.12 180.00 -98.49 120.82 -75.07 96.32 -37.83 43.22 15.93 115.93 
DOCKED: USER  keepresnum = 1 
DOCKED: USER  
DOCKED: REMARK  13 active torsions:
DOCKED: REMARK  status: ('A' for Active; 'I' for Inactive)
DOCKED: REMARK    1  A    between atoms: O_3  and  C_38 
DOCKED: REMARK    2  A    between atoms: O_4  and  C_40 
DOCKED: REMARK    3  A    between atoms: O_7  and  C_46 
DOCKED: REMARK    4  A    between atoms: O_9  and  C_48 
DOCKED: REMARK    5  A    between atoms: C_15  and  C_20 
DOCKED: REMARK    6  A    between atoms: C_16  and  C_23 
DOCKED: REMARK    7  A    between atoms: C_20  and  C_38 
DOCKED: REMARK    8  A    between atoms: C_23  and  C_40 
DOCKED: REMARK    9  A    between atoms: C_32  and  C_41 
DOCKED: REMARK   10  A    between atoms: C_37  and  C_45 
DOCKED: REMARK   11  A    between atoms: C_41  and  C_44 
DOCKED: REMARK   12  A    between atoms: C_44  and  C_46 
DOCKED: REMARK   13  A    between atoms: C_47  and  C_48 
DOCKED: USER                              x       y       z     vdW  Elec       q    Type
DOCKED: USER                           _______ _______ _______ _____ _____    ______ ____
DOCKED: ROOT
DOCKED: ATOM      1  O   UNL d   1      31.702  30.497   0.309 -0.08 -0.26    -0.289 OA
DOCKED: ATOM      2  O   UNL d   1      37.909  34.536   1.558 -0.16 +0.03    -0.289 OA
DOCKED: ATOM      3  N   UNL d   1      34.871  29.140   0.187 -0.08 -0.03    -0.247 NA
DOCKED: ATOM      4  N   UNL d   1      36.640  31.506   0.500 -0.10 +0.01    -0.247 NA
DOCKED: ATOM      5  N   UNL d   1      38.839  29.859  -0.348 -0.11 +0.02    -0.354 N 
DOCKED: ATOM      6  N   UNL d   1      36.992  27.414  -0.690 -0.05 +0.00    -0.354 N 
DOCKED: ATOM      7  C   UNL d   1      32.617  28.318  -0.316 -0.09 +0.02    +0.084 A 
DOCKED: ATOM      8  C   UNL d   1      35.726  33.436   1.687 -0.22 -0.00    +0.084 A 
DOCKED: ATOM      9  C   UNL d   1      35.514  32.045   1.082 -0.14 +0.00    +0.058 A 
DOCKED: ATOM     10  C   UNL d   1      34.125  28.059  -0.254 -0.13 +0.00    +0.058 A 
DOCKED: ATOM     11  C   UNL d   1      32.640  29.731   0.185 -0.08 +0.08    +0.193 A 
DOCKED: ATOM     12  C   UNL d   1      34.060  30.104   0.479 -0.11 +0.02    +0.109 A 
DOCKED: ATOM     13  C   UNL d   1      37.170  33.604   1.308 -0.18 -0.03    +0.193 A 
DOCKED: ATOM     14  C   UNL d   1      32.092  28.312  -1.754 -0.03 +0.00    +0.026 C 
DOCKED: ATOM     15  C   UNL d   1      34.322  31.430   1.076 -0.15 +0.01    +0.055 C 
DOCKED: ATOM     16  C   UNL d   1      35.617  33.414   3.215 -0.47 +0.00    +0.026 C 
DOCKED: ATOM     17  C   UNL d   1      37.602  32.368   0.588 -0.17 -0.01    +0.109 A 
DOCKED: ATOM     18  C   UNL d   1      34.642  26.846  -0.523 -0.16 -0.00    +0.050 C 
DOCKED: ATOM     19  C   UNL d   1      36.010  26.491  -0.411 -0.12 -0.00    +0.045 A 
DOCKED: ATOM     20  C   UNL d   1      39.444  31.089  -0.370 -0.24 -0.01    +0.045 A 
DOCKED: ATOM     21  C   UNL d   1      38.969  32.264   0.055 -0.28 -0.01    +0.057 C 
DOCKED: ATOM     22  C   UNL d   1      40.874  29.547  -1.262 -0.23 +0.00    -0.019 A 
DOCKED: ATOM     23  C   UNL d   1      39.625  28.865  -0.867 -0.20 -0.00    +0.045 A 
DOCKED: ATOM     24  C   UNL d   1      40.761  30.863  -0.964 -0.24 +0.00    -0.022 A 
DOCKED: ATOM     25  C   UNL d   1      38.238  26.835  -0.606 -0.15 -0.00    +0.049 A 
DOCKED: ATOM     26  C   UNL d   1      36.634  25.292  -0.102 -0.03 +0.00    -0.018 A 
DOCKED: ATOM     27  C   UNL d   1      38.041  25.521  -0.207 -0.08 -0.00    +0.003 A 
DOCKED: ATOM     28  C   UNL d   1      39.401  27.549  -1.002 -0.22 +0.00    +0.052 C 
DOCKED: ATOM     29  C   UNL d   1      41.758  31.953  -1.162 -0.28 -0.00    +0.046 C 
DOCKED: ATOM     30  C   UNL d   1      35.966  24.011   0.271 -0.21 -0.02    +0.046 C 
DOCKED: ATOM     31  H   UNL d   1      37.934  29.726   0.090 +0.06 -0.00    +0.166 HD
DOCKED: ATOM     32  H   UNL d   1      36.801  28.372  -0.958 +0.04 +0.00    +0.166 HD
DOCKED: ENDROOT
DOCKED: BRANCH   7  33
DOCKED: ATOM     33  C   UNL d   1      31.760  27.437   0.599 -0.15 +0.03    +0.141 C 
DOCKED: BRANCH  33  34
DOCKED: ATOM     34  C   UNL d   1      30.580  28.173   1.173 -0.12 +0.24    +0.306 C 
DOCKED: ATOM     35  O   UNL d   1      30.297  28.271   2.356 -0.62 -0.26    -0.251 OA
DOCKED: BRANCH  34  36
DOCKED: ATOM     36  O   UNL d   1      29.820  28.751   0.227 -0.31 -0.50    -0.481 OA
DOCKED: ATOM     37  H   UNL d   1      30.392  29.448  -0.159 +0.05 +0.31    +0.295 HD
DOCKED: ENDBRANCH  34  36
DOCKED: ENDBRANCH  33  34
DOCKED: ENDBRANCH   7  33
DOCKED: BRANCH  27  38
DOCKED: ATOM     38  C   UNL d   1      39.056  24.535   0.015 -0.23 -0.00    +0.017 C 
DOCKED: ATOM     39  C   UNL d   1      40.101  24.674   0.844 -0.31 -0.00    +0.092 C 
DOCKED: BRANCH  39  40
DOCKED: ATOM     40  C   UNL d   1      41.064  23.580   0.996 -0.16 +0.00    +0.330 C 
DOCKED: ATOM     41  O   UNL d   1      41.128  22.766   1.897 -0.17 +0.00    -0.246 OA
DOCKED: BRANCH  40  42
DOCKED: ATOM     42  O   UNL d   1      41.916  23.568  -0.041 -0.07 -0.03    -0.477 OA
DOCKED: ATOM     43  H   UNL d   1      41.406  23.978  -0.769 +0.07 +0.01    +0.295 HD
DOCKED: ENDBRANCH  40  42
DOCKED: ENDBRANCH  39  40
DOCKED: ENDBRANCH  27  38
DOCKED: BRANCH   8  44
DOCKED: ATOM     44  C   UNL d   1      34.868  34.555   1.087 -0.13 +0.00    +0.141 C 
DOCKED: BRANCH  44  45
DOCKED: ATOM     45  C   UNL d   1      35.496  35.205  -0.117 -0.06 -0.01    +0.306 C 
DOCKED: ATOM     46  O   UNL d   1      35.547  34.748  -1.246 -0.02 -0.01    -0.251 OA
DOCKED: BRANCH  45  47
DOCKED: ATOM     47  O   UNL d   1      36.056  36.393   0.173 -0.05 +0.06    -0.481 OA
DOCKED: ATOM     48  H   UNL d   1      36.682  36.201   0.903 -0.46 -0.09    +0.295 HD
DOCKED: ENDBRANCH  45  47
DOCKED: ENDBRANCH  44  45
DOCKED: ENDBRANCH   8  44
DOCKED: BRANCH  22  49
DOCKED: ATOM     49  C   UNL d   1      42.044  28.858  -1.901 -0.25 -0.00    +0.048 C 
DOCKED: BRANCH  49  50
DOCKED: ATOM     50  C   UNL d   1      41.603  27.696  -2.791 -0.12 +0.00    +0.125 C 
DOCKED: BRANCH  50  51
DOCKED: ATOM     51  C   UNL d   1      42.472  26.491  -2.569 -0.11 +0.01    +0.305 C 
DOCKED: ATOM     52  O   UNL d   1      43.571  26.269  -3.045 -0.11 -0.01    -0.251 OA
DOCKED: BRANCH  51  53
DOCKED: ATOM     53  O   UNL d   1      41.891  25.596  -1.745 -0.08 -0.03    -0.481 OA
DOCKED: ATOM     54  H   UNL d   1      42.643  25.079  -1.387 +0.06 +0.03    +0.295 HD
DOCKED: ENDBRANCH  51  53
DOCKED: ENDBRANCH  50  51
DOCKED: ENDBRANCH  49  50
DOCKED: ENDBRANCH  22  49
DOCKED: TORSDOF 13
DOCKED: TER
DOCKED: ENDMDL
________________________________________________________________________________


	BEGINNING GENETIC ALGORITHM DOCKING 38 of 100
Run: 38 Seed: 1203331517 1921141919 [ Run 38 of 100 GA/GALS ]
Beginning LAMARCKIAN GENETIC ALGORITHM (LGA), with a maximum of 25000000 energy evaluations.

Final-Value: -10.037


	FINAL GENETIC ALGORITHM DOCKED STATE
	_______________________________________________


Detailed state:  trans 33.390 15.704 24.831 quatxyzw -0.765671 -0.166885 0.162011 0.599708 center 0.153 0.018 -0.028 ntor 13 -72.4952 47.6133 98.4767 165.7092 36.8025 -87.0769 -50.0315 4.8706 5.3228 -123.5850 -66.0930 159.5138 180.0000
State:	 33.390  15.704  24.831  -0.957 -0.209  0.202 106.302    -72.50   47.61   98.48  165.71   36.80  -87.08  -50.03    4.87    5.32 -123.58  -66.09  159.51  180.00

DOCKED: MODEL       38
DOCKED: USER    Run = 38
DOCKED: USER    DPF = D:/Protein_go_brrr/autodock/final/6BB5/heme/dock.dpf
DOCKED: USER  
DOCKED: USER    Estimated Free Energy of Binding    =   -4.46 kcal/mol  [=(1)+(2)+(3)-(4)]
DOCKED: USER    Estimated Inhibition Constant, Ki   =  540.93 uM (micromolar)  [Temperature = 298.15 K]
DOCKED: USER    
DOCKED: USER    (1) Final Intermolecular Energy     =   -8.33 kcal/mol
DOCKED: USER        vdW + Hbond + desolv Energy     =   -7.96 kcal/mol
DOCKED: USER        Electrostatic Energy            =   -0.37 kcal/mol
DOCKED: USER    (2) Final Total Internal Energy     =   -1.70 kcal/mol
DOCKED: USER    (3) Torsional Free Energy           =   +3.88 kcal/mol
DOCKED: USER    (4) Unbound System's Energy  [=(2)] =   -1.70 kcal/mol
DOCKED: USER    
DOCKED: USER    
DOCKED: USER    NEWDPF move heme_opt.pdbqt
DOCKED: USER    NEWDPF about 0.153000 0.018000 -0.028000
DOCKED: USER    NEWDPF tran0 33.389589 15.703580 24.830936
DOCKED: USER    NEWDPF quaternion0 -0.765671 -0.166885 0.162011 0.599708
DOCKED: USER    NEWDPF axisangle0 -0.956827 -0.208549 0.202458 106.302070
DOCKED: USER    NEWDPF quat0 -0.956827 -0.208549 0.202458 106.302070
DOCKED: USER    NEWDPF dihe0 -72.50 47.61 98.48 165.71 36.80 -87.08 -50.03 4.87 5.32 -123.58 -66.09 159.51 180.00 
DOCKED: USER  keepresnum = 1 
DOCKED: USER  
DOCKED: REMARK  13 active torsions:
DOCKED: REMARK  status: ('A' for Active; 'I' for Inactive)
DOCKED: REMARK    1  A    between atoms: O_3  and  C_38 
DOCKED: REMARK    2  A    between atoms: O_4  and  C_40 
DOCKED: REMARK    3  A    between atoms: O_7  and  C_46 
DOCKED: REMARK    4  A    between atoms: O_9  and  C_48 
DOCKED: REMARK    5  A    between atoms: C_15  and  C_20 
DOCKED: REMARK    6  A    between atoms: C_16  and  C_23 
DOCKED: REMARK    7  A    between atoms: C_20  and  C_38 
DOCKED: REMARK    8  A    between atoms: C_23  and  C_40 
DOCKED: REMARK    9  A    between atoms: C_32  and  C_41 
DOCKED: REMARK   10  A    between atoms: C_37  and  C_45 
DOCKED: REMARK   11  A    between atoms: C_41  and  C_44 
DOCKED: REMARK   12  A    between atoms: C_44  and  C_46 
DOCKED: REMARK   13  A    between atoms: C_47  and  C_48 
DOCKED: USER                              x       y       z     vdW  Elec       q    Type
DOCKED: USER                           _______ _______ _______ _____ _____    ______ ____
DOCKED: ROOT
DOCKED: ATOM      1  O   UNL d   1      29.114  14.350  28.658 -0.01 +0.02    -0.289 OA
DOCKED: ATOM      2  O   UNL d   1      28.916  18.167  22.194 -0.22 -0.20    -0.289 OA
DOCKED: ATOM      3  N   UNL d   1      31.939  15.019  26.796 -0.10 +0.11    -0.247 NA
DOCKED: ATOM      4  N   UNL d   1      30.852  16.270  24.330 -0.14 -0.02    -0.247 NA
DOCKED: ATOM      5  N   UNL d   1      33.433  15.904  23.117 -0.14 -0.01    -0.354 N 
DOCKED: ATOM      6  N   UNL d   1      34.547  14.589  25.673 -0.09 +0.17    -0.354 N 
DOCKED: ATOM      7  C   UNL d   1      31.465  13.694  28.803 -0.03 -0.02    +0.084 A 
DOCKED: ATOM      8  C   UNL d   1      28.697  17.408  24.511 -0.16 +0.01    +0.084 A 
DOCKED: ATOM      9  C   UNL d   1      29.785  16.544  25.157 -0.17 +0.00    +0.058 A 
DOCKED: ATOM     10  C   UNL d   1      32.477  14.190  27.766 -0.09 -0.03    +0.058 A 
DOCKED: ATOM     11  C   UNL d   1      30.263  14.405  28.257 -0.03 -0.03    +0.193 A 
DOCKED: ATOM     12  C   UNL d   1      30.685  15.194  27.057 -0.10 -0.02    +0.109 A 
DOCKED: ATOM     13  C   UNL d   1      29.326  17.543  23.153 -0.19 +0.08    +0.193 A 
DOCKED: ATOM     14  C   UNL d   1      31.234  12.184  28.704 -0.00 -0.00    +0.026 C 
DOCKED: ATOM     15  C   UNL d   1      29.680  16.056  26.402 -0.14 -0.00    +0.055 C 
DOCKED: ATOM     16  C   UNL d   1      28.617  18.795  25.156 -0.27 -0.00    +0.026 C 
DOCKED: ATOM     17  C   UNL d   1      30.624  16.802  23.172 -0.23 +0.04    +0.109 A 
DOCKED: ATOM     18  C   UNL d   1      33.788  13.900  27.869 -0.07 -0.03    +0.050 C 
DOCKED: ATOM     19  C   UNL d   1      34.807  14.382  27.009 -0.05 -0.03    +0.045 A 
DOCKED: ATOM     20  C   UNL d   1      32.707  16.282  22.017 -0.29 +0.01    +0.045 A 
DOCKED: ATOM     21  C   UNL d   1      31.446  16.723  21.956 -0.32 +0.03    +0.057 C 
DOCKED: ATOM     22  C   UNL d   1      34.795  15.648  21.342 -0.36 +0.00    -0.019 A 
DOCKED: ATOM     23  C   UNL d   1      34.706  15.505  22.809 -0.29 -0.01    +0.045 A 
DOCKED: ATOM     24  C   UNL d   1      33.609  16.110  20.879 -0.30 -0.01    -0.022 A 
DOCKED: ATOM     25  C   UNL d   1      35.692  14.968  25.011 -0.24 -0.02    +0.049 A 
DOCKED: ATOM     26  C   UNL d   1      36.145  14.669  27.228 -0.02 +0.01    -0.018 A 
DOCKED: ATOM     27  C   UNL d   1      36.695  15.057  25.967 -0.21 -0.00    +0.003 A 
DOCKED: ATOM     28  C   UNL d   1      35.710  15.088  23.595 -0.22 -0.02    +0.052 C 
DOCKED: ATOM     29  C   UNL d   1      33.213  16.425  19.477 -0.23 +0.02    +0.046 C 
DOCKED: ATOM     30  C   UNL d   1      36.872  14.590  28.528 -0.11 -0.02    +0.046 C 
DOCKED: ATOM     31  H   UNL d   1      33.057  16.002  24.054 +0.06 -0.01    +0.166 HD
DOCKED: ATOM     32  H   UNL d   1      33.640  14.438  25.248 +0.05 -0.05    +0.166 HD
DOCKED: ENDROOT
DOCKED: BRANCH   7  33
DOCKED: ATOM     33  C   UNL d   1      31.737  14.128  30.247 -0.04 -0.04    +0.141 C 
DOCKED: BRANCH  33  34
DOCKED: ATOM     34  C   UNL d   1      31.912  15.617  30.381 -0.08 -0.14    +0.306 C 
DOCKED: ATOM     35  O   UNL d   1      31.032  16.428  30.614 -0.16 +0.06    -0.251 OA
DOCKED: BRANCH  34  36
DOCKED: ATOM     36  O   UNL d   1      33.189  16.005  30.217 -0.13 +0.53    -0.481 OA
DOCKED: ATOM     37  H   UNL d   1      33.212  16.408  29.322 -0.43 -0.67    +0.295 HD
DOCKED: ENDBRANCH  34  36
DOCKED: ENDBRANCH  33  34
DOCKED: ENDBRANCH   7  33
DOCKED: BRANCH  27  38
DOCKED: ATOM     38  C   UNL d   1      38.060  15.424  25.739 -0.04 -0.01    +0.017 C 
DOCKED: ATOM     39  C   UNL d   1      39.079  15.171  26.574 -0.25 -0.02    +0.092 C 
DOCKED: BRANCH  39  40
DOCKED: ATOM     40  C   UNL d   1      40.438  15.585  26.214 -0.18 -0.05    +0.330 C 
DOCKED: ATOM     41  O   UNL d   1      41.266  14.953  25.586 -0.16 +0.02    -0.246 OA
DOCKED: BRANCH  40  42
DOCKED: ATOM     42  O   UNL d   1      40.681  16.822  26.676 -0.37 +0.08    -0.477 OA
DOCKED: ATOM     43  H   UNL d   1      41.073  17.286  25.908 -0.27 -0.12    +0.295 HD
DOCKED: ENDBRANCH  40  42
DOCKED: ENDBRANCH  39  40
DOCKED: ENDBRANCH  27  38
DOCKED: BRANCH   8  44
DOCKED: ATOM     44  C   UNL d   1      27.312  16.762  24.413 -0.06 +0.02    +0.141 C 
DOCKED: BRANCH  44  45
DOCKED: ATOM     45  C   UNL d   1      26.325  17.586  23.629 -0.04 +0.06    +0.306 C 
DOCKED: ATOM     46  O   UNL d   1      25.529  18.390  24.081 -0.07 -0.02    -0.251 OA
DOCKED: BRANCH  45  47
DOCKED: ATOM     47  O   UNL d   1      26.377  17.332  22.309 -0.04 -0.23    -0.481 OA
DOCKED: ATOM     48  H   UNL d   1      27.124  17.875  21.980 +0.11 +0.20    +0.295 HD
DOCKED: ENDBRANCH  45  47
DOCKED: ENDBRANCH  44  45
DOCKED: ENDBRANCH   8  44
DOCKED: BRANCH  22  49
DOCKED: ATOM     49  C   UNL d   1      36.014  15.309  20.535 -0.30 -0.01    +0.048 C 
DOCKED: BRANCH  49  50
DOCKED: ATOM     50  C   UNL d   1      35.928  13.905  19.937 -0.22 +0.00    +0.125 C 
DOCKED: BRANCH  50  51
DOCKED: ATOM     51  C   UNL d   1      35.868  13.964  18.437 -0.18 +0.03    +0.305 C 
DOCKED: ATOM     52  O   UNL d   1      35.859  14.957  17.732 -0.37 -0.03    -0.251 OA
DOCKED: BRANCH  51  53
DOCKED: ATOM     53  O   UNL d   1      35.809  12.735  17.886 -0.02 -0.06    -0.481 OA
DOCKED: ATOM     54  H   UNL d   1      36.063  12.134  18.617 +0.06 +0.03    +0.295 HD
DOCKED: ENDBRANCH  51  53
DOCKED: ENDBRANCH  50  51
DOCKED: ENDBRANCH  49  50
DOCKED: ENDBRANCH  22  49
DOCKED: TORSDOF 13
DOCKED: TER
DOCKED: ENDMDL
________________________________________________________________________________


	BEGINNING GENETIC ALGORITHM DOCKING 39 of 100
Run: 39 Seed: 1347210589 1045574188 [ Run 39 of 100 GA/GALS ]
Beginning LAMARCKIAN GENETIC ALGORITHM (LGA), with a maximum of 25000000 energy evaluations.

Final-Value: -9.423


	FINAL GENETIC ALGORITHM DOCKED STATE
	_______________________________________________


Detailed state:  trans 4.326 35.260 -6.019 quatxyzw -0.681130 0.445106 0.579682 -0.043711 center 0.153 0.018 -0.028 ntor 13 109.6652 61.9715 -154.8738 -91.0327 -136.4418 -101.5670 129.8946 -61.6536 22.8404 -33.4320 142.0549 11.9231 -176.6954
State:	  4.326  35.260  -6.019  -0.682  0.446  0.580 -174.990    109.67   61.97 -154.87  -91.03 -136.44 -101.57  129.89  -61.65   22.84  -33.43  142.05   11.92 -176.70

DOCKED: MODEL       39
DOCKED: USER    Run = 39
DOCKED: USER    DPF = D:/Protein_go_brrr/autodock/final/6BB5/heme/dock.dpf
DOCKED: USER  
DOCKED: USER    Estimated Free Energy of Binding    =   -2.75 kcal/mol  [=(1)+(2)+(3)-(4)]
DOCKED: USER    Estimated Inhibition Constant, Ki   =    9.71 mM (millimolar)  [Temperature = 298.15 K]
DOCKED: USER    
DOCKED: USER    (1) Final Intermolecular Energy     =   -6.62 kcal/mol
DOCKED: USER        vdW + Hbond + desolv Energy     =   -6.55 kcal/mol
DOCKED: USER        Electrostatic Energy            =   -0.07 kcal/mol
DOCKED: USER    (2) Final Total Internal Energy     =   -2.80 kcal/mol
DOCKED: USER    (3) Torsional Free Energy           =   +3.88 kcal/mol
DOCKED: USER    (4) Unbound System's Energy  [=(2)] =   -2.80 kcal/mol
DOCKED: USER    
DOCKED: USER    
DOCKED: USER    NEWDPF move heme_opt.pdbqt
DOCKED: USER    NEWDPF about 0.153000 0.018000 -0.028000
DOCKED: USER    NEWDPF tran0 4.325736 35.259864 -6.019214
DOCKED: USER    NEWDPF quaternion0 -0.681130 0.445106 0.579682 -0.043711
DOCKED: USER    NEWDPF axisangle0 -0.681782 0.445532 0.580237 -174.989536
DOCKED: USER    NEWDPF quat0 -0.681782 0.445532 0.580237 -174.989536
DOCKED: USER    NEWDPF dihe0 109.67 61.97 -154.87 -91.03 -136.44 -101.57 129.89 -61.65 22.84 -33.43 142.05 11.92 -176.70 
DOCKED: USER  keepresnum = 1 
DOCKED: USER  
DOCKED: REMARK  13 active torsions:
DOCKED: REMARK  status: ('A' for Active; 'I' for Inactive)
DOCKED: REMARK    1  A    between atoms: O_3  and  C_38 
DOCKED: REMARK    2  A    between atoms: O_4  and  C_40 
DOCKED: REMARK    3  A    between atoms: O_7  and  C_46 
DOCKED: REMARK    4  A    between atoms: O_9  and  C_48 
DOCKED: REMARK    5  A    between atoms: C_15  and  C_20 
DOCKED: REMARK    6  A    between atoms: C_16  and  C_23 
DOCKED: REMARK    7  A    between atoms: C_20  and  C_38 
DOCKED: REMARK    8  A    between atoms: C_23  and  C_40 
DOCKED: REMARK    9  A    between atoms: C_32  and  C_41 
DOCKED: REMARK   10  A    between atoms: C_37  and  C_45 
DOCKED: REMARK   11  A    between atoms: C_41  and  C_44 
DOCKED: REMARK   12  A    between atoms: C_44  and  C_46 
DOCKED: REMARK   13  A    between atoms: C_47  and  C_48 
DOCKED: USER                              x       y       z     vdW  Elec       q    Type
DOCKED: USER                           _______ _______ _______ _____ _____    ______ ____
DOCKED: ROOT
DOCKED: ATOM      1  O   UNL d   1       3.113  37.737  -0.809 -0.31 -0.28    -0.289 OA
DOCKED: ATOM      2  O   UNL d   1       8.877  38.735  -5.518 -0.22 +0.08    -0.289 OA
DOCKED: ATOM      3  N   UNL d   1       3.473  35.937  -3.728 -0.05 -0.04    -0.247 NA
DOCKED: ATOM      4  N   UNL d   1       5.817  37.213  -5.034 -0.08 -0.01    -0.247 NA
DOCKED: ATOM      5  N   UNL d   1       5.114  35.821  -7.449 -0.10 -0.03    -0.354 N 
DOCKED: ATOM      6  N   UNL d   1       2.673  34.516  -6.092 -0.06 -0.03    -0.354 N 
DOCKED: ATOM      7  C   UNL d   1       1.734  36.116  -2.011 -0.08 +0.03    +0.084 A 
DOCKED: ATOM      8  C   UNL d   1       7.436  38.327  -3.581 -0.27 -0.00    +0.084 A 
DOCKED: ATOM      9  C   UNL d   1       6.096  37.602  -3.742 -0.17 +0.00    +0.058 A 
DOCKED: ATOM     10  C   UNL d   1       2.221  35.501  -3.326 -0.06 +0.01    +0.058 A 
DOCKED: ATOM     11  C   UNL d   1       2.939  36.962  -1.731 -0.12 +0.10    +0.193 A 
DOCKED: ATOM     12  C   UNL d   1       3.933  36.746  -2.831 -0.10 +0.03    +0.109 A 
DOCKED: ATOM     13  C   UNL d   1       7.849  38.311  -5.026 -0.18 -0.02    +0.193 A 
DOCKED: ATOM     14  C   UNL d   1       0.524  37.031  -2.218 -0.07 +0.01    +0.026 C 
DOCKED: ATOM     15  C   UNL d   1       5.247  37.411  -2.721 -0.07 +0.01    +0.055 C 
DOCKED: ATOM     16  C   UNL d   1       8.438  37.496  -2.774 -0.40 +0.00    +0.026 C 
DOCKED: ATOM     17  C   UNL d   1       6.779  37.614  -5.802 -0.13 -0.00    +0.109 A 
DOCKED: ATOM     18  C   UNL d   1       1.511  34.553  -3.965 -0.07 +0.01    +0.050 C 
DOCKED: ATOM     19  C   UNL d   1       1.920  33.869  -5.138 -0.10 +0.00    +0.045 A 
DOCKED: ATOM     20  C   UNL d   1       6.080  36.663  -7.935 -0.11 +0.00    +0.045 A 
DOCKED: ATOM     21  C   UNL d   1       6.891  37.485  -7.262 -0.02 -0.00    +0.057 C 
DOCKED: ATOM     22  C   UNL d   1       5.103  35.569  -9.687 -0.19 -0.00    -0.019 A 
DOCKED: ATOM     23  C   UNL d   1       4.470  35.118  -8.432 -0.17 +0.01    +0.045 A 
DOCKED: ATOM     24  C   UNL d   1       6.056  36.483  -9.386 -0.17 -0.00    -0.022 A 
DOCKED: ATOM     25  C   UNL d   1       2.879  33.699  -7.180 -0.06 +0.01    +0.049 A 
DOCKED: ATOM     26  C   UNL d   1       1.662  32.588  -5.601 -0.12 -0.00    -0.018 A 
DOCKED: ATOM     27  C   UNL d   1       2.286  32.480  -6.882 -0.15 +0.00    +0.003 A 
DOCKED: ATOM     28  C   UNL d   1       3.496  34.198  -8.359 -0.16 +0.01    +0.052 C 
DOCKED: ATOM     29  C   UNL d   1       6.971  37.215 -10.308 -0.14 +0.00    +0.046 C 
DOCKED: ATOM     30  C   UNL d   1       0.884  31.528  -4.898 -0.11 +0.00    +0.046 C 
DOCKED: ATOM     31  H   UNL d   1       4.977  35.698  -6.451 +0.04 +0.01    +0.166 HD
DOCKED: ATOM     32  H   UNL d   1       2.987  35.475  -6.004 +0.02 +0.02    +0.166 HD
DOCKED: ENDROOT
DOCKED: BRANCH   7  33
DOCKED: ATOM     33  C   UNL d   1       1.497  35.122  -0.869 -0.11 +0.05    +0.141 C 
DOCKED: BRANCH  33  34
DOCKED: ATOM     34  C   UNL d   1       2.778  34.550  -0.325 -0.11 +0.09    +0.306 C 
DOCKED: ATOM     35  O   UNL d   1       3.409  33.620  -0.796 -0.12 -0.04    -0.251 OA
DOCKED: BRANCH  34  36
DOCKED: ATOM     36  O   UNL d   1       3.198  35.184   0.785 -0.08 -0.20    -0.481 OA
DOCKED: ATOM     37  H   UNL d   1       3.530  36.049   0.465 +0.11 +0.16    +0.295 HD
DOCKED: ENDBRANCH  34  36
DOCKED: ENDBRANCH  33  34
DOCKED: ENDBRANCH   7  33
DOCKED: BRANCH  27  38
DOCKED: ATOM     38  C   UNL d   1       2.252  31.320  -7.721 -0.19 +0.00    +0.017 C 
DOCKED: ATOM     39  C   UNL d   1       3.319  30.761  -8.313 -0.21 +0.01    +0.092 C 
DOCKED: BRANCH  39  40
DOCKED: ATOM     40  C   UNL d   1       3.151  29.561  -9.136 -0.15 +0.05    +0.330 C 
DOCKED: ATOM     41  O   UNL d   1       3.425  28.413  -8.842 -0.21 +0.01    -0.246 OA
DOCKED: BRANCH  40  42
DOCKED: ATOM     42  O   UNL d   1       2.619  29.886 -10.324 -0.04 -0.16    -0.477 OA
DOCKED: ATOM     43  H   UNL d   1       1.766  29.404 -10.340 +0.06 +0.06    +0.295 HD
DOCKED: ENDBRANCH  40  42
DOCKED: ENDBRANCH  39  40
DOCKED: ENDBRANCH  27  38
DOCKED: BRANCH   8  44
DOCKED: ATOM     44  C   UNL d   1       7.351  39.762  -3.051 -0.34 -0.00    +0.141 C 
DOCKED: BRANCH  44  45
DOCKED: ATOM     45  C   UNL d   1       7.053  40.775  -4.124 -0.23 -0.01    +0.306 C 
DOCKED: ATOM     46  O   UNL d   1       5.951  41.097  -4.534 -0.17 -0.02    -0.251 OA
DOCKED: BRANCH  45  47
DOCKED: ATOM     47  O   UNL d   1       8.169  41.315  -4.647 -0.22 +0.15    -0.481 OA
DOCKED: ATOM     48  H   UNL d   1       8.867  40.645  -4.485 -0.37 -0.16    +0.295 HD
DOCKED: ENDBRANCH  45  47
DOCKED: ENDBRANCH  44  45
DOCKED: ENDBRANCH   8  44
DOCKED: BRANCH  22  49
DOCKED: ATOM     49  C   UNL d   1       4.712  35.082 -11.051 -0.11 +0.01    +0.048 C 
DOCKED: BRANCH  49  50
DOCKED: ATOM     50  C   UNL d   1       3.796  36.072 -11.768 -0.06 +0.02    +0.125 C 
DOCKED: BRANCH  50  51
DOCKED: ATOM     51  C   UNL d   1       2.843  36.718 -10.803 -0.01 +0.04    +0.305 C 
DOCKED: ATOM     52  O   UNL d   1       1.925  36.190 -10.200 -0.01 -0.03    -0.251 OA
DOCKED: BRANCH  51  53
DOCKED: ATOM     53  O   UNL d   1       3.094  38.033 -10.649 +0.00 -0.04    -0.481 OA
DOCKED: ATOM     54  H   UNL d   1       2.564  38.460 -11.354 +0.00 +0.02    +0.295 HD
DOCKED: ENDBRANCH  51  53
DOCKED: ENDBRANCH  50  51
DOCKED: ENDBRANCH  49  50
DOCKED: ENDBRANCH  22  49
DOCKED: TORSDOF 13
DOCKED: TER
DOCKED: ENDMDL
________________________________________________________________________________


	BEGINNING GENETIC ALGORITHM DOCKING 40 of 100
Run: 40 Seed: 660052537 376887804 [ Run 40 of 100 GA/GALS ]
Beginning LAMARCKIAN GENETIC ALGORITHM (LGA), with a maximum of 25000000 energy evaluations.

Final-Value: -12.284


	FINAL GENETIC ALGORITHM DOCKED STATE
	_______________________________________________


Detailed state:  trans 10.802 38.683 24.995 quatxyzw 0.132092 0.327059 0.580161 0.734165 center 0.153 0.018 -0.028 ntor 13 87.2860 169.3590 -110.6473 -51.3573 48.0726 46.3407 122.2132 -178.8594 -0.1454 -23.8192 61.3526 -91.3988 123.5264
State:	 10.802  38.683  24.995   0.195  0.482  0.854 85.527     87.29  169.36 -110.65  -51.36   48.07   46.34  122.21 -178.86   -0.15  -23.82   61.35  -91.40  123.53

DOCKED: MODEL       40
DOCKED: USER    Run = 40
DOCKED: USER    DPF = D:/Protein_go_brrr/autodock/final/6BB5/heme/dock.dpf
DOCKED: USER  
DOCKED: USER    Estimated Free Energy of Binding    =   -4.59 kcal/mol  [=(1)+(2)+(3)-(4)]
DOCKED: USER    Estimated Inhibition Constant, Ki   =  431.76 uM (micromolar)  [Temperature = 298.15 K]
DOCKED: USER    
DOCKED: USER    (1) Final Intermolecular Energy     =   -8.47 kcal/mol
DOCKED: USER        vdW + Hbond + desolv Energy     =   -8.11 kcal/mol
DOCKED: USER        Electrostatic Energy            =   -0.36 kcal/mol
DOCKED: USER    (2) Final Total Internal Energy     =   -3.82 kcal/mol
DOCKED: USER    (3) Torsional Free Energy           =   +3.88 kcal/mol
DOCKED: USER    (4) Unbound System's Energy  [=(2)] =   -3.82 kcal/mol
DOCKED: USER    
DOCKED: USER    
DOCKED: USER    NEWDPF move heme_opt.pdbqt
DOCKED: USER    NEWDPF about 0.153000 0.018000 -0.028000
DOCKED: USER    NEWDPF tran0 10.801950 38.682677 24.994972
DOCKED: USER    NEWDPF quaternion0 0.132092 0.327059 0.580161 0.734165
DOCKED: USER    NEWDPF axisangle0 0.194547 0.481698 0.854470 85.526609
DOCKED: USER    NEWDPF quat0 0.194547 0.481698 0.854470 85.526609
DOCKED: USER    NEWDPF dihe0 87.29 169.36 -110.65 -51.36 48.07 46.34 122.21 -178.86 -0.15 -23.82 61.35 -91.40 123.53 
DOCKED: USER  keepresnum = 1 
DOCKED: USER  
DOCKED: REMARK  13 active torsions:
DOCKED: REMARK  status: ('A' for Active; 'I' for Inactive)
DOCKED: REMARK    1  A    between atoms: O_3  and  C_38 
DOCKED: REMARK    2  A    between atoms: O_4  and  C_40 
DOCKED: REMARK    3  A    between atoms: O_7  and  C_46 
DOCKED: REMARK    4  A    between atoms: O_9  and  C_48 
DOCKED: REMARK    5  A    between atoms: C_15  and  C_20 
DOCKED: REMARK    6  A    between atoms: C_16  and  C_23 
DOCKED: REMARK    7  A    between atoms: C_20  and  C_38 
DOCKED: REMARK    8  A    between atoms: C_23  and  C_40 
DOCKED: REMARK    9  A    between atoms: C_32  and  C_41 
DOCKED: REMARK   10  A    between atoms: C_37  and  C_45 
DOCKED: REMARK   11  A    between atoms: C_41  and  C_44 
DOCKED: REMARK   12  A    between atoms: C_44  and  C_46 
DOCKED: REMARK   13  A    between atoms: C_47  and  C_48 
DOCKED: USER                              x       y       z     vdW  Elec       q    Type
DOCKED: USER                           _______ _______ _______ _____ _____    ______ ____
DOCKED: ROOT
DOCKED: ATOM      1  O   UNL d   1      11.541  43.842  22.241 -0.05 +0.04    -0.289 OA
DOCKED: ATOM      2  O   UNL d   1       6.471  38.396  21.227 -0.20 +0.02    -0.289 OA
DOCKED: ATOM      3  N   UNL d   1      11.584  40.894  24.029 -0.11 +0.06    -0.247 NA
DOCKED: ATOM      4  N   UNL d   1       9.082  39.539  23.173 -0.09 +0.03    -0.247 NA
DOCKED: ATOM      5  N   UNL d   1       9.417  37.727  25.380 -0.08 +0.06    -0.354 N 
DOCKED: ATOM      6  N   UNL d   1      12.001  39.150  26.273 -0.06 +0.10    -0.354 N 
DOCKED: ATOM      7  C   UNL d   1      12.853  42.989  24.118 -0.08 -0.01    +0.084 A 
DOCKED: ATOM      8  C   UNL d   1       8.202  40.107  20.965 -0.23 +0.00    +0.084 A 
DOCKED: ATOM      9  C   UNL d   1       9.229  40.357  22.075 -0.18 -0.00    +0.058 A 
DOCKED: ATOM     10  C   UNL d   1      12.589  41.589  24.681 -0.13 -0.01    +0.058 A 
DOCKED: ATOM     11  C   UNL d   1      11.831  42.955  23.022 -0.08 -0.03    +0.193 A 
DOCKED: ATOM     12  C   UNL d   1      11.146  41.624  23.056 -0.16 -0.02    +0.109 A 
DOCKED: ATOM     13  C   UNL d   1       7.422  39.022  21.652 -0.21 -0.01    +0.193 A 
DOCKED: ATOM     14  C   UNL d   1      12.475  44.089  25.114 -0.03 -0.00    +0.026 C 
DOCKED: ATOM     15  C   UNL d   1      10.156  41.324  22.001 -0.18 -0.00    +0.055 C 
DOCKED: ATOM     16  C   UNL d   1       8.855  39.524  19.708 -0.34 +0.00    +0.026 C 
DOCKED: ATOM     17  C   UNL d   1       8.053  38.777  22.985 -0.18 -0.01    +0.109 A 
DOCKED: ATOM     18  C   UNL d   1      13.348  41.072  25.665 -0.14 -0.01    +0.050 C 
DOCKED: ATOM     19  C   UNL d   1      13.233  39.759  26.190 -0.11 -0.01    +0.045 A 
DOCKED: ATOM     20  C   UNL d   1       8.151  37.383  24.983 -0.22 -0.00    +0.045 A 
DOCKED: ATOM     21  C   UNL d   1       7.471  37.789  23.905 -0.23 -0.01    +0.057 C 
DOCKED: ATOM     22  C   UNL d   1       8.639  36.286  26.926 -0.21 -0.00    -0.019 A 
DOCKED: ATOM     23  C   UNL d   1       9.799  37.115  26.544 -0.19 -0.01    +0.045 A 
DOCKED: ATOM     24  C   UNL d   1       7.667  36.447  25.997 -0.21 -0.00    -0.022 A 
DOCKED: ATOM     25  C   UNL d   1      12.108  37.926  26.892 -0.21 -0.02    +0.049 A 
DOCKED: ATOM     26  C   UNL d   1      14.169  38.894  26.734 -0.25 +0.00    -0.018 A 
DOCKED: ATOM     27  C   UNL d   1      13.456  37.730  27.158 -0.28 -0.00    +0.003 A 
DOCKED: ATOM     28  C   UNL d   1      10.949  37.178  27.233 -0.20 -0.02    +0.052 C 
DOCKED: ATOM     29  C   UNL d   1       6.319  35.814  25.938 -0.07 +0.00    +0.046 C 
DOCKED: ATOM     30  C   UNL d   1      15.637  39.131  26.853 -0.29 -0.01    +0.046 C 
DOCKED: ATOM     31  H   UNL d   1      10.008  38.314  24.802 +0.06 -0.04    +0.166 HD
DOCKED: ATOM     32  H   UNL d   1      11.141  39.580  25.954 +0.03 -0.04    +0.166 HD
DOCKED: ENDROOT
DOCKED: BRANCH   7  33
DOCKED: ATOM     33  C   UNL d   1      14.255  43.211  23.540 -0.17 -0.02    +0.141 C 
DOCKED: BRANCH  33  34
DOCKED: ATOM     34  C   UNL d   1      14.683  42.104  22.616 -0.24 -0.09    +0.306 C 
DOCKED: ATOM     35  O   UNL d   1      14.688  42.144  21.397 -0.44 +0.08    -0.251 OA
DOCKED: BRANCH  34  36
DOCKED: ATOM     36  O   UNL d   1      15.084  41.003  23.276 +0.21 +0.21    -0.481 OA
DOCKED: ATOM     37  H   UNL d   1      16.059  41.092  23.335 -0.35 -0.19    +0.295 HD
DOCKED: ENDBRANCH  34  36
DOCKED: ENDBRANCH  33  34
DOCKED: ENDBRANCH   7  33
DOCKED: BRANCH  27  38
DOCKED: ATOM     38  C   UNL d   1      14.043  36.589  27.793 -0.32 -0.01    +0.017 C 
DOCKED: ATOM     39  C   UNL d   1      13.655  36.072  28.968 -0.21 -0.04    +0.092 C 
DOCKED: BRANCH  39  40
DOCKED: ATOM     40  C   UNL d   1      14.330  34.885  29.502 -0.13 -0.12    +0.330 C 
DOCKED: ATOM     41  O   UNL d   1      15.525  34.664  29.540 -0.28 +0.03    -0.246 OA
DOCKED: BRANCH  40  42
DOCKED: ATOM     42  O   UNL d   1      13.426  34.018  29.984 -0.08 +0.20    -0.477 OA
DOCKED: ATOM     43  H   UNL d   1      12.590  34.528  29.987 +0.07 -0.13    +0.295 HD
DOCKED: ENDBRANCH  40  42
DOCKED: ENDBRANCH  39  40
DOCKED: ENDBRANCH  27  38
DOCKED: BRANCH   8  44
DOCKED: ATOM     44  C   UNL d   1       7.300  41.297  20.620 -0.15 +0.01    +0.141 C 
DOCKED: BRANCH  44  45
DOCKED: ATOM     45  C   UNL d   1       6.252  41.571  21.665 -0.06 +0.02    +0.306 C 
DOCKED: ATOM     46  O   UNL d   1       6.419  42.137  22.732 -0.04 +0.00    -0.251 OA
DOCKED: BRANCH  45  47
DOCKED: ATOM     47  O   UNL d   1       5.044  41.088  21.321 -0.31 -0.08    -0.481 OA
DOCKED: ATOM     48  H   UNL d   1       5.148  40.113  21.354 +0.08 +0.04    +0.295 HD
DOCKED: ENDBRANCH  45  47
DOCKED: ENDBRANCH  44  45
DOCKED: ENDBRANCH   8  44
DOCKED: BRANCH  22  49
DOCKED: ATOM     49  C   UNL d   1       8.583  35.432  28.159 -0.16 +0.01    +0.048 C 
DOCKED: BRANCH  49  50
DOCKED: ATOM     50  C   UNL d   1       9.219  36.128  29.362 -0.08 +0.01    +0.125 C 
DOCKED: BRANCH  50  51
DOCKED: ATOM     51  C   UNL d   1      10.406  35.355  29.863 -0.08 -0.00    +0.305 C 
DOCKED: ATOM     52  O   UNL d   1      11.182  35.675  30.746 -0.03 +0.02    -0.251 OA
DOCKED: BRANCH  51  53
DOCKED: ATOM     53  O   UNL d   1      10.566  34.192  29.200 -0.31 -0.03    -0.481 OA
DOCKED: ATOM     54  H   UNL d   1      11.503  34.209  28.912 -0.13 -0.34    +0.295 HD
DOCKED: ENDBRANCH  51  53
DOCKED: ENDBRANCH  50  51
DOCKED: ENDBRANCH  49  50
DOCKED: ENDBRANCH  22  49
DOCKED: TORSDOF 13
DOCKED: TER
DOCKED: ENDMDL
________________________________________________________________________________


	BEGINNING GENETIC ALGORITHM DOCKING 41 of 100
Run: 41 Seed: 271957949 1548100729 [ Run 41 of 100 GA/GALS ]
Beginning LAMARCKIAN GENETIC ALGORITHM (LGA), with a maximum of 25000000 energy evaluations.

Final-Value: -10.788


	FINAL GENETIC ALGORITHM DOCKED STATE
	_______________________________________________


Detailed state:  trans 45.400 21.688 22.691 quatxyzw -0.581126 0.084407 -0.770663 -0.247480 center 0.153 0.018 -0.028 ntor 13 -144.1668 169.1469 31.3868 -6.4945 59.9377 -53.8226 146.7459 -21.4993 45.3201 10.4995 -58.1737 -5.1792 12.1243
State:	 45.400  21.688  22.691  -0.600  0.087 -0.795 -151.343   -144.17  169.15   31.39   -6.49   59.94  -53.82  146.75  -21.50   45.32   10.50  -58.17   -5.18   12.12

DOCKED: MODEL       41
DOCKED: USER    Run = 41
DOCKED: USER    DPF = D:/Protein_go_brrr/autodock/final/6BB5/heme/dock.dpf
DOCKED: USER  
DOCKED: USER    Estimated Free Energy of Binding    =   -3.37 kcal/mol  [=(1)+(2)+(3)-(4)]
DOCKED: USER    Estimated Inhibition Constant, Ki   =    3.38 mM (millimolar)  [Temperature = 298.15 K]
DOCKED: USER    
DOCKED: USER    (1) Final Intermolecular Energy     =   -7.25 kcal/mol
DOCKED: USER        vdW + Hbond + desolv Energy     =   -6.73 kcal/mol
DOCKED: USER        Electrostatic Energy            =   -0.52 kcal/mol
DOCKED: USER    (2) Final Total Internal Energy     =   -3.54 kcal/mol
DOCKED: USER    (3) Torsional Free Energy           =   +3.88 kcal/mol
DOCKED: USER    (4) Unbound System's Energy  [=(2)] =   -3.54 kcal/mol
DOCKED: USER    
DOCKED: USER    
DOCKED: USER    NEWDPF move heme_opt.pdbqt
DOCKED: USER    NEWDPF about 0.153000 0.018000 -0.028000
DOCKED: USER    NEWDPF tran0 45.399901 21.688138 22.691373
DOCKED: USER    NEWDPF quaternion0 -0.581126 0.084407 -0.770663 -0.247480
DOCKED: USER    NEWDPF axisangle0 -0.599783 0.087117 -0.795406 -151.343095
DOCKED: USER    NEWDPF quat0 -0.599783 0.087117 -0.795406 -151.343095
DOCKED: USER    NEWDPF dihe0 -144.17 169.15 31.39 -6.49 59.94 -53.82 146.75 -21.50 45.32 10.50 -58.17 -5.18 12.12 
DOCKED: USER  keepresnum = 1 
DOCKED: USER  
DOCKED: REMARK  13 active torsions:
DOCKED: REMARK  status: ('A' for Active; 'I' for Inactive)
DOCKED: REMARK    1  A    between atoms: O_3  and  C_38 
DOCKED: REMARK    2  A    between atoms: O_4  and  C_40 
DOCKED: REMARK    3  A    between atoms: O_7  and  C_46 
DOCKED: REMARK    4  A    between atoms: O_9  and  C_48 
DOCKED: REMARK    5  A    between atoms: C_15  and  C_20 
DOCKED: REMARK    6  A    between atoms: C_16  and  C_23 
DOCKED: REMARK    7  A    between atoms: C_20  and  C_38 
DOCKED: REMARK    8  A    between atoms: C_23  and  C_40 
DOCKED: REMARK    9  A    between atoms: C_32  and  C_41 
DOCKED: REMARK   10  A    between atoms: C_37  and  C_45 
DOCKED: REMARK   11  A    between atoms: C_41  and  C_44 
DOCKED: REMARK   12  A    between atoms: C_44  and  C_46 
DOCKED: REMARK   13  A    between atoms: C_47  and  C_48 
DOCKED: USER                              x       y       z     vdW  Elec       q    Type
DOCKED: USER                           _______ _______ _______ _____ _____    ______ ____
DOCKED: ROOT
DOCKED: ATOM      1  O   UNL d   1      47.620  23.023  17.396 -0.34 -0.32    -0.289 OA
DOCKED: ATOM      2  O   UNL d   1      43.083  26.897  21.957 -0.95 -0.52    -0.289 OA
DOCKED: ATOM      3  N   UNL d   1      46.457  21.760  20.387 -0.10 -0.09    -0.247 NA
DOCKED: ATOM      4  N   UNL d   1      45.027  24.069  21.593 -0.14 -0.15    -0.247 NA
DOCKED: ATOM      5  N   UNL d   1      44.989  22.627  24.080 -0.07 -0.14    -0.354 N 
DOCKED: ATOM      6  N   UNL d   1      46.490  20.244  22.826 -0.06 -0.08    -0.354 N 
DOCKED: ATOM      7  C   UNL d   1      48.056  20.998  18.693 -0.07 +0.06    +0.084 A 
DOCKED: ATOM      8  C   UNL d   1      44.135  25.754  20.065 -0.22 +0.05    +0.084 A 
DOCKED: ATOM      9  C   UNL d   1      44.961  24.482  20.281 -0.16 +0.03    +0.058 A 
DOCKED: ATOM     10  C   UNL d   1      47.341  20.757  20.026 -0.09 +0.02    +0.058 A 
DOCKED: ATOM     11  C   UNL d   1      47.405  22.305  18.355 -0.07 +0.15    +0.193 A 
DOCKED: ATOM     12  C   UNL d   1      46.438  22.647  19.446 -0.09 +0.05    +0.109 A 
DOCKED: ATOM     13  C   UNL d   1      43.776  26.008  21.502 -0.15 +0.23    +0.193 A 
DOCKED: ATOM     14  C   UNL d   1      49.558  21.226  18.879 -0.06 +0.02    +0.026 C 
DOCKED: ATOM     15  C   UNL d   1      45.606  23.856  19.284 -0.14 +0.03    +0.055 C 
DOCKED: ATOM     16  C   UNL d   1      42.852  25.471  19.279 -0.24 +0.01    +0.026 C 
DOCKED: ATOM     17  C   UNL d   1      44.384  24.920  22.326 -0.20 +0.11    +0.109 A 
DOCKED: ATOM     18  C   UNL d   1      47.511  19.616  20.719 -0.10 +0.01    +0.050 C 
DOCKED: ATOM     19  C   UNL d   1      46.831  19.270  21.915 -0.06 +0.01    +0.045 A 
DOCKED: ATOM     20  C   UNL d   1      44.553  23.853  24.512 -0.17 +0.03    +0.045 A 
DOCKED: ATOM     21  C   UNL d   1      44.234  24.931  23.789 -0.24 +0.06    +0.057 C 
DOCKED: ATOM     22  C   UNL d   1      44.893  22.509  26.328 -0.11 -0.01    -0.019 A 
DOCKED: ATOM     23  C   UNL d   1      45.222  21.749  25.105 -0.12 +0.01    +0.045 A 
DOCKED: ATOM     24  C   UNL d   1      44.497  23.753  25.970 -0.14 -0.01    -0.022 A 
DOCKED: ATOM     25  C   UNL d   1      45.924  19.681  23.946 -0.12 +0.01    +0.049 A 
DOCKED: ATOM     26  C   UNL d   1      46.444  18.047  22.440 -0.12 -0.00    -0.018 A 
DOCKED: ATOM     27  C   UNL d   1      45.854  18.314  23.713 -0.13 +0.00    +0.003 A 
DOCKED: ATOM     28  C   UNL d   1      45.631  20.471  25.091 -0.13 +0.01    +0.052 C 
DOCKED: ATOM     29  C   UNL d   1      44.054  24.878  26.842 -0.18 +0.03    +0.046 C 
DOCKED: ATOM     30  C   UNL d   1      46.609  16.711  21.798 -0.13 +0.01    +0.046 C 
DOCKED: ATOM     31  H   UNL d   1      45.043  22.406  23.092 +0.05 +0.06    +0.166 HD
DOCKED: ATOM     32  H   UNL d   1      46.677  21.231  22.689 +0.03 +0.05    +0.166 HD
DOCKED: ENDROOT
DOCKED: BRANCH   7  33
DOCKED: ATOM     33  C   UNL d   1      47.776  19.959  17.601 -0.08 +0.13    +0.141 C 
DOCKED: BRANCH  33  34
DOCKED: ATOM     34  C   UNL d   1      46.637  20.357  16.702 -0.09 +0.27    +0.306 C 
DOCKED: ATOM     35  O   UNL d   1      46.716  20.627  15.515 -0.26 -0.32    -0.251 OA
DOCKED: BRANCH  34  36
DOCKED: ATOM     36  O   UNL d   1      45.456  20.393  17.345 -0.05 -0.22    -0.481 OA
DOCKED: ATOM     37  H   UNL d   1      45.680  20.681  18.256 +0.08 +0.12    +0.295 HD
DOCKED: ENDBRANCH  34  36
DOCKED: ENDBRANCH  33  34
DOCKED: ENDBRANCH   7  33
DOCKED: BRANCH  27  38
DOCKED: ATOM     38  C   UNL d   1      45.330  17.323  24.605 -0.17 +0.00    +0.017 C 
DOCKED: ATOM     39  C   UNL d   1      44.302  17.505  25.448 -0.18 +0.00    +0.092 C 
DOCKED: BRANCH  39  40
DOCKED: ATOM     40  C   UNL d   1      43.851  16.400  26.298 -0.08 +0.00    +0.330 C 
DOCKED: ATOM     41  O   UNL d   1      43.497  15.291  25.949 -0.08 -0.00    -0.246 OA
DOCKED: BRANCH  40  42
DOCKED: ATOM     42  O   UNL d   1      43.883  16.768  27.588 -0.01 -0.02    -0.477 OA
DOCKED: ATOM     43  H   UNL d   1      44.372  17.616  27.579 +0.05 +0.02    +0.295 HD
DOCKED: ENDBRANCH  40  42
DOCKED: ENDBRANCH  39  40
DOCKED: ENDBRANCH  27  38
DOCKED: BRANCH   8  44
DOCKED: ATOM     44  C   UNL d   1      44.898  26.943  19.472 -0.18 +0.09    +0.141 C 
DOCKED: BRANCH  44  45
DOCKED: ATOM     45  C   UNL d   1      46.294  27.085  20.016 -0.07 +0.23    +0.306 C 
DOCKED: ATOM     46  O   UNL d   1      47.328  26.766  19.456 -0.04 -0.14    -0.251 OA
DOCKED: BRANCH  45  47
DOCKED: ATOM     47  O   UNL d   1      46.312  27.601  21.258 -0.54 -0.77    -0.481 OA
DOCKED: ATOM     48  H   UNL d   1      47.159  28.094  21.310 +0.04 +0.34    +0.295 HD
DOCKED: ENDBRANCH  45  47
DOCKED: ENDBRANCH  44  45
DOCKED: ENDBRANCH   8  44
DOCKED: BRANCH  22  49
DOCKED: ATOM     49  C   UNL d   1      45.011  21.959  27.719 -0.10 +0.01    +0.048 C 
DOCKED: BRANCH  49  50
DOCKED: ATOM     50  C   UNL d   1      43.933  20.915  28.011 +0.06 +0.04    +0.125 C 
DOCKED: BRANCH  50  51
DOCKED: ATOM     51  C   UNL d   1      44.549  19.606  28.415 -0.05 +0.06    +0.305 C 
DOCKED: ATOM     52  O   UNL d   1      45.641  19.169  28.097 -0.02 -0.03    -0.251 OA
DOCKED: BRANCH  51  53
DOCKED: ATOM     53  O   UNL d   1      43.731  18.888  29.210 -0.17 -0.09    -0.481 OA
DOCKED: ATOM     54  H   UNL d   1      44.189  18.027  29.307 +0.03 +0.03    +0.295 HD
DOCKED: ENDBRANCH  51  53
DOCKED: ENDBRANCH  50  51
DOCKED: ENDBRANCH  49  50
DOCKED: ENDBRANCH  22  49
DOCKED: TORSDOF 13
DOCKED: TER
DOCKED: ENDMDL
________________________________________________________________________________


	BEGINNING GENETIC ALGORITHM DOCKING 42 of 100
Run: 42 Seed: 1208430940 1852370840 [ Run 42 of 100 GA/GALS ]
Beginning LAMARCKIAN GENETIC ALGORITHM (LGA), with a maximum of 25000000 energy evaluations.

Final-Value: -10.089


	FINAL GENETIC ALGORITHM DOCKED STATE
	_______________________________________________


Detailed state:  trans 12.680 39.937 24.817 quatxyzw -0.488213 0.324836 0.730002 -0.351038 center 0.153 0.018 -0.028 ntor 13 99.5938 -103.9731 93.6831 -111.8855 -141.3313 -179.4755 -36.5635 -23.8785 60.1432 -118.5070 84.4932 67.9762 163.8819
State:	 12.680  39.937  24.817  -0.521  0.347  0.780 -138.898     99.59 -103.97   93.68 -111.89 -141.33 -179.48  -36.56  -23.88   60.14 -118.51   84.49   67.98  163.88

DOCKED: MODEL       42
DOCKED: USER    Run = 42
DOCKED: USER    DPF = D:/Protein_go_brrr/autodock/final/6BB5/heme/dock.dpf
DOCKED: USER  
DOCKED: USER    Estimated Free Energy of Binding    =   -3.74 kcal/mol  [=(1)+(2)+(3)-(4)]
DOCKED: USER    Estimated Inhibition Constant, Ki   =    1.82 mM (millimolar)  [Temperature = 298.15 K]
DOCKED: USER    
DOCKED: USER    (1) Final Intermolecular Energy     =   -7.62 kcal/mol
DOCKED: USER        vdW + Hbond + desolv Energy     =   -7.63 kcal/mol
DOCKED: USER        Electrostatic Energy            =   +0.01 kcal/mol
DOCKED: USER    (2) Final Total Internal Energy     =   -2.47 kcal/mol
DOCKED: USER    (3) Torsional Free Energy           =   +3.88 kcal/mol
DOCKED: USER    (4) Unbound System's Energy  [=(2)] =   -2.47 kcal/mol
DOCKED: USER    
DOCKED: USER    
DOCKED: USER    NEWDPF move heme_opt.pdbqt
DOCKED: USER    NEWDPF about 0.153000 0.018000 -0.028000
DOCKED: USER    NEWDPF tran0 12.680322 39.937261 24.817106
DOCKED: USER    NEWDPF quaternion0 -0.488213 0.324836 0.730002 -0.351038
DOCKED: USER    NEWDPF axisangle0 -0.521393 0.346913 0.779615 -138.898396
DOCKED: USER    NEWDPF quat0 -0.521393 0.346913 0.779615 -138.898396
DOCKED: USER    NEWDPF dihe0 99.59 -103.97 93.68 -111.89 -141.33 -179.48 -36.56 -23.88 60.14 -118.51 84.49 67.98 163.88 
DOCKED: USER  keepresnum = 1 
DOCKED: USER  
DOCKED: REMARK  13 active torsions:
DOCKED: REMARK  status: ('A' for Active; 'I' for Inactive)
DOCKED: REMARK    1  A    between atoms: O_3  and  C_38 
DOCKED: REMARK    2  A    between atoms: O_4  and  C_40 
DOCKED: REMARK    3  A    between atoms: O_7  and  C_46 
DOCKED: REMARK    4  A    between atoms: O_9  and  C_48 
DOCKED: REMARK    5  A    between atoms: C_15  and  C_20 
DOCKED: REMARK    6  A    between atoms: C_16  and  C_23 
DOCKED: REMARK    7  A    between atoms: C_20  and  C_38 
DOCKED: REMARK    8  A    between atoms: C_23  and  C_40 
DOCKED: REMARK    9  A    between atoms: C_32  and  C_41 
DOCKED: REMARK   10  A    between atoms: C_37  and  C_45 
DOCKED: REMARK   11  A    between atoms: C_41  and  C_44 
DOCKED: REMARK   12  A    between atoms: C_44  and  C_46 
DOCKED: REMARK   13  A    between atoms: C_47  and  C_48 
DOCKED: USER                              x       y       z     vdW  Elec       q    Type
DOCKED: USER                           _______ _______ _______ _____ _____    ______ ____
DOCKED: ROOT
DOCKED: ATOM      1  O   UNL d   1      12.518  38.454  30.521 +0.00 +0.02    -0.289 OA
DOCKED: ATOM      2  O   UNL d   1      18.202  40.757  26.187 -0.12 +0.03    -0.289 OA
DOCKED: ATOM      3  N   UNL d   1      12.159  39.088  27.149 -0.05 +0.05    -0.247 NA
DOCKED: ATOM      4  N   UNL d   1      14.800  40.212  26.380 -0.12 +0.05    -0.247 NA
DOCKED: ATOM      5  N   UNL d   1      13.610  41.073  23.909 +0.19 +0.12    -0.354 N 
DOCKED: ATOM      6  N   UNL d   1      10.869  39.922  24.723 -0.06 +0.09    -0.354 N 
DOCKED: ATOM      7  C   UNL d   1      10.625  38.524  28.976 -0.01 -0.01    +0.084 A 
DOCKED: ATOM      8  C   UNL d   1      16.729  39.560  27.732 -0.16 -0.01    +0.084 A 
DOCKED: ATOM      9  C   UNL d   1      15.214  39.533  27.505 -0.15 -0.01    +0.058 A 
DOCKED: ATOM     10  C   UNL d   1      10.839  38.856  27.496 -0.05 -0.01    +0.058 A 
DOCKED: ATOM     11  C   UNL d   1      12.061  38.591  29.401 -0.00 -0.02    +0.193 A 
DOCKED: ATOM     12  C   UNL d   1      12.894  38.915  28.199 -0.05 -0.02    +0.109 A 
DOCKED: ATOM     13  C   UNL d   1      17.094  40.412  26.549 -0.16 -0.02    +0.193 A 
DOCKED: ATOM     14  C   UNL d   1       9.842  39.619  29.704 -0.00 -0.00    +0.026 C 
DOCKED: ATOM     15  C   UNL d   1      14.362  38.942  28.357 -0.11 -0.01    +0.055 C 
DOCKED: ATOM     16  C   UNL d   1      17.355  38.174  27.553 -0.11 +0.00    +0.026 C 
DOCKED: ATOM     17  C   UNL d   1      15.836  40.746  25.817 -0.22 -0.02    +0.109 A 
DOCKED: ATOM     18  C   UNL d   1       9.821  38.828  26.615 -0.09 -0.01    +0.050 C 
DOCKED: ATOM     19  C   UNL d   1       9.937  39.038  25.218 -0.14 -0.01    +0.045 A 
DOCKED: ATOM     20  C   UNL d   1      14.816  41.720  23.828 -0.29 -0.01    +0.045 A 
DOCKED: ATOM     21  C   UNL d   1      15.880  41.611  24.629 -0.34 -0.01    +0.057 C 
DOCKED: ATOM     22  C   UNL d   1      13.489  42.413  22.102 -0.31 +0.00    -0.019 A 
DOCKED: ATOM     23  C   UNL d   1      12.743  41.428  22.910 -0.20 -0.01    +0.045 A 
DOCKED: ATOM     24  C   UNL d   1      14.716  42.580  22.650 -0.35 +0.01    -0.022 A 
DOCKED: ATOM     25  C   UNL d   1      10.747  40.038  23.358 -0.19 -0.01    +0.049 A 
DOCKED: ATOM     26  C   UNL d   1       9.216  38.540  24.143 -0.21 +0.00    -0.018 A 
DOCKED: ATOM     27  C   UNL d   1       9.745  39.160  22.970 -0.28 -0.00    +0.003 A 
DOCKED: ATOM     28  C   UNL d   1      11.497  41.010  22.639 -0.24 -0.01    +0.052 C 
DOCKED: ATOM     29  C   UNL d   1      15.831  43.458  22.190 -0.41 -0.01    +0.046 C 
DOCKED: ATOM     30  C   UNL d   1       8.105  37.547  24.200 -0.29 -0.01    +0.046 C 
DOCKED: ATOM     31  H   UNL d   1      13.445  40.353  24.604 -0.27 -0.09    +0.166 HD
DOCKED: ATOM     32  H   UNL d   1      11.518  40.436  25.306 +0.02 -0.04    +0.166 HD
DOCKED: ENDROOT
DOCKED: BRANCH   7  33
DOCKED: ATOM     33  C   UNL d   1      10.044  37.134  29.260 -0.04 -0.01    +0.141 C 
DOCKED: BRANCH  33  34
DOCKED: ATOM     34  C   UNL d   1      11.059  36.192  29.849 -0.04 -0.05    +0.306 C 
DOCKED: ATOM     35  O   UNL d   1      11.833  35.485  29.226 -0.12 +0.13    -0.251 OA
DOCKED: BRANCH  34  36
DOCKED: ATOM     36  O   UNL d   1      11.047  36.192  31.194 +0.01 +0.02    -0.481 OA
DOCKED: ATOM     37  H   UNL d   1      11.598  36.963  31.446 +0.02 -0.02    +0.295 HD
DOCKED: ENDBRANCH  34  36
DOCKED: ENDBRANCH  33  34
DOCKED: ENDBRANCH   7  33
DOCKED: BRANCH  27  38
DOCKED: ATOM     38  C   UNL d   1       9.275  38.938  21.636 -0.40 -0.00    +0.017 C 
DOCKED: ATOM     39  C   UNL d   1       9.521  37.843  20.900 -0.50 -0.00    +0.092 C 
DOCKED: BRANCH  39  40
DOCKED: ATOM     40  C   UNL d   1       8.965  37.732  19.549 -0.33 +0.03    +0.330 C 
DOCKED: ATOM     41  O   UNL d   1       9.117  36.823  18.755 -0.52 -0.03    -0.246 OA
DOCKED: BRANCH  40  42
DOCKED: ATOM     42  O   UNL d   1       8.213  38.808  19.268 -0.62 -0.09    -0.477 OA
DOCKED: ATOM     43  H   UNL d   1       8.870  39.512  19.087 +0.20 +0.02    +0.295 HD
DOCKED: ENDBRANCH  40  42
DOCKED: ENDBRANCH  39  40
DOCKED: ENDBRANCH  27  38
DOCKED: BRANCH   8  44
DOCKED: ATOM     44  C   UNL d   1      17.188  40.212  29.041 -0.06 -0.01    +0.141 C 
DOCKED: BRANCH  44  45
DOCKED: ATOM     45  C   UNL d   1      18.671  40.468  29.088 -0.04 -0.01    +0.306 C 
DOCKED: ATOM     46  O   UNL d   1      19.541  39.656  29.352 -0.07 +0.00    -0.251 OA
DOCKED: BRANCH  45  47
DOCKED: ATOM     47  O   UNL d   1      18.981  41.751  28.824 -0.02 +0.02    -0.481 OA
DOCKED: ATOM     48  H   UNL d   1      19.057  41.791  27.847 +0.09 -0.01    +0.295 HD
DOCKED: ENDBRANCH  45  47
DOCKED: ENDBRANCH  44  45
DOCKED: ENDBRANCH   8  44
DOCKED: BRANCH  22  49
DOCKED: ATOM     49  C   UNL d   1      12.934  43.103  20.891 -0.13 -0.01    +0.048 C 
DOCKED: BRANCH  49  50
DOCKED: ATOM     50  C   UNL d   1      12.034  44.280  21.270 -0.12 -0.02    +0.125 C 
DOCKED: BRANCH  50  51
DOCKED: ATOM     51  C   UNL d   1      10.592  43.860  21.313 -0.06 -0.04    +0.305 C 
DOCKED: ATOM     52  O   UNL d   1      10.051  42.989  20.654 -0.11 +0.03    -0.251 OA
DOCKED: BRANCH  51  53
DOCKED: ATOM     53  O   UNL d   1       9.882  44.586  22.199 +0.01 +0.05    -0.481 OA
DOCKED: ATOM     54  H   UNL d   1       9.865  45.486  21.811 +0.02 -0.03    +0.295 HD
DOCKED: ENDBRANCH  51  53
DOCKED: ENDBRANCH  50  51
DOCKED: ENDBRANCH  49  50
DOCKED: ENDBRANCH  22  49
DOCKED: TORSDOF 13
DOCKED: TER
DOCKED: ENDMDL
________________________________________________________________________________


	BEGINNING GENETIC ALGORITHM DOCKING 43 of 100
Run: 43 Seed: 326230832 224066919 [ Run 43 of 100 GA/GALS ]
Beginning LAMARCKIAN GENETIC ALGORITHM (LGA), with a maximum of 25000000 energy evaluations.

Final-Value: -9.565


	FINAL GENETIC ALGORITHM DOCKED STATE
	_______________________________________________


Detailed state:  trans 36.764 29.728 0.713 quatxyzw 0.986424 -0.092171 -0.106407 0.084562 center 0.153 0.018 -0.028 ntor 13 39.9033 78.3562 -60.5367 78.0706 26.6946 49.5916 160.4666 94.3225 -131.6194 -92.9136 134.8848 -135.4520 -179.3591
State:	 36.764  29.728   0.713   0.990 -0.093 -0.107 170.298     39.90   78.36  -60.54   78.07   26.69   49.59  160.47   94.32 -131.62  -92.91  134.88 -135.45 -179.36

DOCKED: MODEL       43
DOCKED: USER    Run = 43
DOCKED: USER    DPF = D:/Protein_go_brrr/autodock/final/6BB5/heme/dock.dpf
DOCKED: USER  
DOCKED: USER    Estimated Free Energy of Binding    =   -3.89 kcal/mol  [=(1)+(2)+(3)-(4)]
DOCKED: USER    Estimated Inhibition Constant, Ki   =    1.40 mM (millimolar)  [Temperature = 298.15 K]
DOCKED: USER    
DOCKED: USER    (1) Final Intermolecular Energy     =   -7.77 kcal/mol
DOCKED: USER        vdW + Hbond + desolv Energy     =   -7.59 kcal/mol
DOCKED: USER        Electrostatic Energy            =   -0.18 kcal/mol
DOCKED: USER    (2) Final Total Internal Energy     =   -1.79 kcal/mol
DOCKED: USER    (3) Torsional Free Energy           =   +3.88 kcal/mol
DOCKED: USER    (4) Unbound System's Energy  [=(2)] =   -1.79 kcal/mol
DOCKED: USER    
DOCKED: USER    
DOCKED: USER    NEWDPF move heme_opt.pdbqt
DOCKED: USER    NEWDPF about 0.153000 0.018000 -0.028000
DOCKED: USER    NEWDPF tran0 36.764032 29.727887 0.712923
DOCKED: USER    NEWDPF quaternion0 0.986424 -0.092171 -0.106407 0.084562
DOCKED: USER    NEWDPF axisangle0 0.989969 -0.092502 -0.106790 170.298310
DOCKED: USER    NEWDPF quat0 0.989969 -0.092502 -0.106790 170.298310
DOCKED: USER    NEWDPF dihe0 39.90 78.36 -60.54 78.07 26.69 49.59 160.47 94.32 -131.62 -92.91 134.88 -135.45 -179.36 
DOCKED: USER  keepresnum = 1 
DOCKED: USER  
DOCKED: REMARK  13 active torsions:
DOCKED: REMARK  status: ('A' for Active; 'I' for Inactive)
DOCKED: REMARK    1  A    between atoms: O_3  and  C_38 
DOCKED: REMARK    2  A    between atoms: O_4  and  C_40 
DOCKED: REMARK    3  A    between atoms: O_7  and  C_46 
DOCKED: REMARK    4  A    between atoms: O_9  and  C_48 
DOCKED: REMARK    5  A    between atoms: C_15  and  C_20 
DOCKED: REMARK    6  A    between atoms: C_16  and  C_23 
DOCKED: REMARK    7  A    between atoms: C_20  and  C_38 
DOCKED: REMARK    8  A    between atoms: C_23  and  C_40 
DOCKED: REMARK    9  A    between atoms: C_32  and  C_41 
DOCKED: REMARK   10  A    between atoms: C_37  and  C_45 
DOCKED: REMARK   11  A    between atoms: C_41  and  C_44 
DOCKED: REMARK   12  A    between atoms: C_44  and  C_46 
DOCKED: REMARK   13  A    between atoms: C_47  and  C_48 
DOCKED: USER                              x       y       z     vdW  Elec       q    Type
DOCKED: USER                           _______ _______ _______ _____ _____    ______ ____
DOCKED: ROOT
DOCKED: ATOM      1  O   UNL d   1      30.912  29.132   1.106 -0.25 -0.37    -0.289 OA
DOCKED: ATOM      2  O   UNL d   1      35.488  34.563   3.546 -0.18 -0.02    -0.289 OA
DOCKED: ATOM      3  N   UNL d   1      34.340  28.982   0.760 -0.10 -0.04    -0.247 NA
DOCKED: ATOM      4  N   UNL d   1      35.241  31.646   1.719 -0.11 -0.02    -0.247 NA
DOCKED: ATOM      5  N   UNL d   1      37.814  31.090   0.563 -0.12 +0.03    -0.354 N 
DOCKED: ATOM      6  N   UNL d   1      36.866  28.335  -0.445 -0.06 -0.01    -0.354 N 
DOCKED: ATOM      7  C   UNL d   1      32.463  27.609  -0.013 -0.12 +0.01    +0.084 A 
DOCKED: ATOM      8  C   UNL d   1      33.801  32.804   3.318 -0.24 +0.02    +0.084 A 
DOCKED: ATOM      9  C   UNL d   1      34.031  31.617   2.377 -0.22 +0.01    +0.058 A 
DOCKED: ATOM     10  C   UNL d   1      33.973  27.860   0.036 -0.16 +0.00    +0.058 A 
DOCKED: ATOM     11  C   UNL d   1      32.043  28.778   0.826 -0.15 +0.10    +0.193 A 
DOCKED: ATOM     12  C   UNL d   1      33.272  29.517   1.255 -0.21 +0.04    +0.109 A 
DOCKED: ATOM     13  C   UNL d   1      35.088  33.531   3.045 -0.25 +0.02    +0.193 A 
DOCKED: ATOM     14  C   UNL d   1      31.897  27.784  -1.424 -0.05 +0.00    +0.026 C 
DOCKED: ATOM     15  C   UNL d   1      33.111  30.662   2.174 -0.28 +0.03    +0.055 C 
DOCKED: ATOM     16  C   UNL d   1      33.784  32.368   4.787 -0.53 +0.01    +0.026 C 
DOCKED: ATOM     17  C   UNL d   1      35.866  32.729   2.053 -0.23 -0.00    +0.109 A 
DOCKED: ATOM     18  C   UNL d   1      34.847  26.994  -0.510 -0.16 -0.00    +0.050 C 
DOCKED: ATOM     19  C   UNL d   1      36.260  27.099  -0.442 -0.09 -0.00    +0.045 A 
DOCKED: ATOM     20  C   UNL d   1      37.976  32.415   0.872 -0.17 -0.01    +0.045 A 
DOCKED: ATOM     21  C   UNL d   1      37.161  33.221   1.560 -0.20 -0.01    +0.057 C 
DOCKED: ATOM     22  C   UNL d   1      39.788  31.710  -0.327 -0.26 +0.00    -0.019 A 
DOCKED: ATOM     23  C   UNL d   1      38.857  30.576  -0.160 -0.25 -0.00    +0.045 A 
DOCKED: ATOM     24  C   UNL d   1      39.262  32.795   0.288 -0.29 +0.00    -0.022 A 
DOCKED: ATOM     25  C   UNL d   1      38.235  28.203  -0.465 -0.19 -0.00    +0.049 A 
DOCKED: ATOM     26  C   UNL d   1      37.260  26.139  -0.421 -0.10 +0.00    -0.018 A 
DOCKED: ATOM     27  C   UNL d   1      38.505  26.842  -0.416 -0.21 -0.00    +0.003 A 
DOCKED: ATOM     28  C   UNL d   1      39.075  29.337  -0.629 -0.25 -0.00    +0.052 C 
DOCKED: ATOM     29  C   UNL d   1      39.831  34.168   0.404 -0.38 -0.00    +0.046 C 
DOCKED: ATOM     30  C   UNL d   1      37.074  24.660  -0.405 -0.16 -0.01    +0.046 C 
DOCKED: ATOM     31  H   UNL d   1      37.028  30.559   0.921 +0.06 -0.00    +0.166 HD
DOCKED: ATOM     32  H   UNL d   1      36.355  29.210  -0.472 +0.04 +0.01    +0.166 HD
DOCKED: ENDROOT
DOCKED: BRANCH   7  33
DOCKED: ATOM     33  C   UNL d   1      31.994  26.295   0.622 +0.11 +0.00    +0.141 C 
DOCKED: BRANCH  33  34
DOCKED: ATOM     34  C   UNL d   1      32.101  25.127  -0.320 -0.04 -0.03    +0.306 C 
DOCKED: ATOM     35  O   UNL d   1      33.112  24.491  -0.568 -0.06 +0.05    -0.251 OA
DOCKED: BRANCH  34  36
DOCKED: ATOM     36  O   UNL d   1      30.927  24.818  -0.900 -0.00 +0.02    -0.481 OA
DOCKED: ATOM     37  H   UNL d   1      30.926  23.839  -0.948 +0.03 -0.03    +0.295 HD
DOCKED: ENDBRANCH  34  36
DOCKED: ENDBRANCH  33  34
DOCKED: ENDBRANCH   7  33
DOCKED: BRANCH  27  38
DOCKED: ATOM     38  C   UNL d   1      39.798  26.229  -0.412 -0.29 +0.00    +0.017 C 
DOCKED: ATOM     39  C   UNL d   1      40.430  25.747  -1.493 -0.17 +0.00    +0.092 C 
DOCKED: BRANCH  39  40
DOCKED: ATOM     40  C   UNL d   1      41.765  25.156  -1.355 -0.10 +0.02    +0.330 C 
DOCKED: ATOM     41  O   UNL d   1      42.135  24.339  -0.535 -0.16 -0.02    -0.246 OA
DOCKED: BRANCH  40  42
DOCKED: ATOM     42  O   UNL d   1      42.584  25.642  -2.301 -0.06 -0.03    -0.477 OA
DOCKED: ATOM     43  H   UNL d   1      42.623  24.925  -2.968 +0.04 +0.01    +0.295 HD
DOCKED: ENDBRANCH  40  42
DOCKED: ENDBRANCH  39  40
DOCKED: ENDBRANCH  27  38
DOCKED: BRANCH   8  44
DOCKED: ATOM     44  C   UNL d   1      32.592  33.685   2.987 -0.16 +0.06    +0.141 C 
DOCKED: BRANCH  44  45
DOCKED: ATOM     45  C   UNL d   1      32.839  35.149   3.232 -0.15 +0.06    +0.306 C 
DOCKED: ATOM     46  O   UNL d   1      32.845  36.035   2.394 -0.13 -0.03    -0.251 OA
DOCKED: BRANCH  45  47
DOCKED: ATOM     47  O   UNL d   1      33.096  35.420   4.524 -0.13 -0.08    -0.481 OA
DOCKED: ATOM     48  H   UNL d   1      34.002  35.796   4.524 -0.12 +0.03    +0.295 HD
DOCKED: ENDBRANCH  45  47
DOCKED: ENDBRANCH  44  45
DOCKED: ENDBRANCH   8  44
DOCKED: BRANCH  22  49
DOCKED: ATOM     49  C   UNL d   1      41.086  31.631  -1.076 -0.26 -0.00    +0.048 C 
DOCKED: BRANCH  49  50
DOCKED: ATOM     50  C   UNL d   1      40.946  32.141  -2.510 -0.07 -0.00    +0.125 C 
DOCKED: BRANCH  50  51
DOCKED: ATOM     51  C   UNL d   1      39.696  31.607  -3.150 -0.01 -0.00    +0.305 C 
DOCKED: ATOM     52  O   UNL d   1      38.579  32.092  -3.119 -0.01 -0.00    -0.251 OA
DOCKED: BRANCH  51  53
DOCKED: ATOM     53  O   UNL d   1      39.920  30.450  -3.805 +0.01 +0.00    -0.481 OA
DOCKED: ATOM     54  H   UNL d   1      39.957  30.713  -4.748 +0.01 +0.00    +0.295 HD
DOCKED: ENDBRANCH  51  53
DOCKED: ENDBRANCH  50  51
DOCKED: ENDBRANCH  49  50
DOCKED: ENDBRANCH  22  49
DOCKED: TORSDOF 13
DOCKED: TER
DOCKED: ENDMDL
________________________________________________________________________________


	BEGINNING GENETIC ALGORITHM DOCKING 44 of 100
Run: 44 Seed: 641090033 10302010 [ Run 44 of 100 GA/GALS ]
Beginning LAMARCKIAN GENETIC ALGORITHM (LGA), with a maximum of 25000000 energy evaluations.

Final-Value: -11.742


	FINAL GENETIC ALGORITHM DOCKED STATE
	_______________________________________________


Detailed state:  trans 0.048 31.904 7.241 quatxyzw 0.010236 -0.728497 -0.126239 0.673239 center 0.153 0.018 -0.028 ntor 13 167.2674 -105.9787 104.5108 10.7245 -148.9868 -127.0470 -45.0944 15.0780 8.8866 -128.1611 -74.9709 62.3153 16.6932
State:	  0.048  31.904   7.241   0.014 -0.985 -0.171 95.365    167.27 -105.98  104.51   10.72 -148.99 -127.05  -45.09   15.08    8.89 -128.16  -74.97   62.32   16.69

DOCKED: MODEL       44
DOCKED: USER    Run = 44
DOCKED: USER    DPF = D:/Protein_go_brrr/autodock/final/6BB5/heme/dock.dpf
DOCKED: USER  
DOCKED: USER    Estimated Free Energy of Binding    =   -3.84 kcal/mol  [=(1)+(2)+(3)-(4)]
DOCKED: USER    Estimated Inhibition Constant, Ki   =    1.52 mM (millimolar)  [Temperature = 298.15 K]
DOCKED: USER    
DOCKED: USER    (1) Final Intermolecular Energy     =   -7.72 kcal/mol
DOCKED: USER        vdW + Hbond + desolv Energy     =   -7.70 kcal/mol
DOCKED: USER        Electrostatic Energy            =   -0.02 kcal/mol
DOCKED: USER    (2) Final Total Internal Energy     =   -4.02 kcal/mol
DOCKED: USER    (3) Torsional Free Energy           =   +3.88 kcal/mol
DOCKED: USER    (4) Unbound System's Energy  [=(2)] =   -4.02 kcal/mol
DOCKED: USER    
DOCKED: USER    
DOCKED: USER    NEWDPF move heme_opt.pdbqt
DOCKED: USER    NEWDPF about 0.153000 0.018000 -0.028000
DOCKED: USER    NEWDPF tran0 0.047812 31.903738 7.240933
DOCKED: USER    NEWDPF quaternion0 0.010236 -0.728497 -0.126239 0.673239
DOCKED: USER    NEWDPF axisangle0 0.013844 -0.985221 -0.170726 95.364895
DOCKED: USER    NEWDPF quat0 0.013844 -0.985221 -0.170726 95.364895
DOCKED: USER    NEWDPF dihe0 167.27 -105.98 104.51 10.72 -148.99 -127.05 -45.09 15.08 8.89 -128.16 -74.97 62.32 16.69 
DOCKED: USER  keepresnum = 1 
DOCKED: USER  
DOCKED: REMARK  13 active torsions:
DOCKED: REMARK  status: ('A' for Active; 'I' for Inactive)
DOCKED: REMARK    1  A    between atoms: O_3  and  C_38 
DOCKED: REMARK    2  A    between atoms: O_4  and  C_40 
DOCKED: REMARK    3  A    between atoms: O_7  and  C_46 
DOCKED: REMARK    4  A    between atoms: O_9  and  C_48 
DOCKED: REMARK    5  A    between atoms: C_15  and  C_20 
DOCKED: REMARK    6  A    between atoms: C_16  and  C_23 
DOCKED: REMARK    7  A    between atoms: C_20  and  C_38 
DOCKED: REMARK    8  A    between atoms: C_23  and  C_40 
DOCKED: REMARK    9  A    between atoms: C_32  and  C_41 
DOCKED: REMARK   10  A    between atoms: C_37  and  C_45 
DOCKED: REMARK   11  A    between atoms: C_41  and  C_44 
DOCKED: REMARK   12  A    between atoms: C_44  and  C_46 
DOCKED: REMARK   13  A    between atoms: C_47  and  C_48 
DOCKED: USER                              x       y       z     vdW  Elec       q    Type
DOCKED: USER                           _______ _______ _______ _____ _____    ______ ____
DOCKED: ROOT
DOCKED: ATOM      1  O   UNL d   1       0.893  32.797  13.007 -0.19 -0.01    -0.289 OA
DOCKED: ATOM      2  O   UNL d   1      -0.353  26.489   9.127 -0.15 +0.23    -0.289 OA
DOCKED: ATOM      3  N   UNL d   1       0.313  32.778   9.607 -0.07 -0.01    -0.247 NA
DOCKED: ATOM      4  N   UNL d   1       0.241  29.883   8.942 -0.13 +0.06    -0.247 NA
DOCKED: ATOM      5  N   UNL d   1       0.440  30.610   6.167 -0.09 +0.05    -0.354 N 
DOCKED: ATOM      6  N   UNL d   1       0.534  33.611   6.867 -0.17 -0.03    -0.354 N 
DOCKED: ATOM      7  C   UNL d   1       0.943  34.490  11.245 -0.32 -0.00    +0.084 A 
DOCKED: ATOM      8  C   UNL d   1      -0.403  28.342  10.725 -0.16 -0.02    +0.084 A 
DOCKED: ATOM      9  C   UNL d   1      -0.064  29.769  10.279 -0.19 -0.01    +0.058 A 
DOCKED: ATOM     10  C   UNL d   1       0.627  34.114   9.794 -0.23 +0.00    +0.058 A 
DOCKED: ATOM     11  C   UNL d   1       0.734  33.133  11.848 -0.18 +0.00    +0.193 A 
DOCKED: ATOM     12  C   UNL d   1       0.331  32.189  10.758 -0.16 +0.00    +0.109 A 
DOCKED: ATOM     13  C   UNL d   1      -0.197  27.663   9.401 -0.16 -0.08    +0.193 A 
DOCKED: ATOM     14  C   UNL d   1       2.408  34.894  11.428 -0.59 -0.00    +0.026 C 
DOCKED: ATOM     15  C   UNL d   1      -0.019  30.804  11.132 -0.19 -0.00    +0.055 C 
DOCKED: ATOM     16  C   UNL d   1      -1.876  28.207  11.124 -0.06 -0.00    +0.026 C 
DOCKED: ATOM     17  C   UNL d   1       0.198  28.706   8.406 -0.20 -0.05    +0.109 A 
DOCKED: ATOM     18  C   UNL d   1       0.577  35.044   8.822 -0.26 +0.00    +0.050 C 
DOCKED: ATOM     19  C   UNL d   1       0.212  34.805   7.472 -0.34 +0.01    +0.045 A 
DOCKED: ATOM     20  C   UNL d   1       0.624  29.256   6.069 -0.24 -0.02    +0.045 A 
DOCKED: ATOM     21  C   UNL d   1       0.510  28.324   7.021 -0.19 -0.04    +0.057 C 
DOCKED: ATOM     22  C   UNL d   1       0.990  30.200   4.022 -0.17 +0.00    -0.019 A 
DOCKED: ATOM     23  C   UNL d   1       0.639  31.266   4.982 -0.20 -0.00    +0.045 A 
DOCKED: ATOM     24  C   UNL d   1       0.977  29.012   4.671 -0.22 +0.01    -0.022 A 
DOCKED: ATOM     25  C   UNL d   1       0.169  33.628   5.541 -0.25 +0.01    +0.049 A 
DOCKED: ATOM     26  C   UNL d   1      -0.411  35.603   6.526 -0.29 -0.00    -0.018 A 
DOCKED: ATOM     27  C   UNL d   1      -0.453  34.848   5.313 -0.21 +0.00    +0.003 A 
DOCKED: ATOM     28  C   UNL d   1       0.539  32.567   4.670 -0.25 +0.00    +0.052 C 
DOCKED: ATOM     29  C   UNL d   1       1.252  27.650   4.131 -0.25 -0.03    +0.046 C 
DOCKED: ATOM     30  C   UNL d   1      -0.937  36.983   6.732 -0.30 +0.02    +0.046 C 
DOCKED: ATOM     31  H   UNL d   1       0.111  31.036   7.027 +0.06 -0.01    +0.166 HD
DOCKED: ATOM     32  H   UNL d   1       1.011  32.853   7.341 +0.08 +0.02    +0.166 HD
DOCKED: ENDROOT
DOCKED: BRANCH   7  33
DOCKED: ATOM     33  C   UNL d   1      -0.006  35.512  11.880 -0.26 -0.00    +0.141 C 
DOCKED: BRANCH  33  34
DOCKED: ATOM     34  C   UNL d   1      -1.444  35.071  11.840 -0.08 +0.02    +0.306 C 
DOCKED: ATOM     35  O   UNL d   1      -2.265  35.368  10.988 -0.06 -0.04    -0.251 OA
DOCKED: BRANCH  34  36
DOCKED: ATOM     36  O   UNL d   1      -1.772  34.276  12.874 -0.01 +0.01    -0.481 OA
DOCKED: ATOM     37  H   UNL d   1      -0.911  33.994  13.250 +0.08 -0.01    +0.295 HD
DOCKED: ENDBRANCH  34  36
DOCKED: ENDBRANCH  33  34
DOCKED: ENDBRANCH   7  33
DOCKED: BRANCH  27  38
DOCKED: ATOM     38  C   UNL d   1      -1.002  35.307   4.073 -0.15 +0.01    +0.017 C 
DOCKED: ATOM     39  C   UNL d   1      -2.306  35.308   3.757 -0.09 +0.02    +0.092 C 
DOCKED: BRANCH  39  40
DOCKED: ATOM     40  C   UNL d   1      -2.741  35.823   2.456 -0.04 +0.10    +0.330 C 
DOCKED: ATOM     41  O   UNL d   1      -3.609  36.645   2.235 -0.03 -0.07    -0.246 OA
DOCKED: BRANCH  40  42
DOCKED: ATOM     42  O   UNL d   1      -2.024  35.258   1.472 -0.03 -0.16    -0.477 OA
DOCKED: ATOM     43  H   UNL d   1      -2.378  34.347   1.417 +0.02 +0.06    +0.295 HD
DOCKED: ENDBRANCH  40  42
DOCKED: ENDBRANCH  39  40
DOCKED: ENDBRANCH  27  38
DOCKED: BRANCH   8  44
DOCKED: ATOM     44  C   UNL d   1       0.518  27.748  11.796 -0.16 -0.02    +0.141 C 
DOCKED: BRANCH  44  45
DOCKED: ATOM     45  C   UNL d   1       0.171  26.329  12.158 -0.16 -0.08    +0.306 C 
DOCKED: ATOM     46  O   UNL d   1      -0.609  25.969  13.022 -0.07 +0.05    -0.251 OA
DOCKED: BRANCH  45  47
DOCKED: ATOM     47  O   UNL d   1       0.851  25.430  11.423 -0.18 +0.23    -0.481 OA
DOCKED: ATOM     48  H   UNL d   1       0.405  25.435  10.550 +0.12 -0.21    +0.295 HD
DOCKED: ENDBRANCH  45  47
DOCKED: ENDBRANCH  44  45
DOCKED: ENDBRANCH   8  44
DOCKED: BRANCH  22  49
DOCKED: ATOM     49  C   UNL d   1       1.315  30.441   2.577 -0.17 -0.00    +0.048 C 
DOCKED: BRANCH  49  50
DOCKED: ATOM     50  C   UNL d   1       0.101  30.943   1.796 -0.06 -0.00    +0.125 C 
DOCKED: BRANCH  50  51
DOCKED: ATOM     51  C   UNL d   1       0.227  32.408   1.492 -0.04 +0.03    +0.305 C 
DOCKED: ATOM     52  O   UNL d   1       1.200  33.121   1.661 -0.11 -0.04    -0.251 OA
DOCKED: BRANCH  51  53
DOCKED: ATOM     53  O   UNL d   1      -0.914  32.919   0.987 -0.00 -0.06    -0.481 OA
DOCKED: ATOM     54  H   UNL d   1      -0.658  33.813   0.677 +0.04 +0.06    +0.295 HD
DOCKED: ENDBRANCH  51  53
DOCKED: ENDBRANCH  50  51
DOCKED: ENDBRANCH  49  50
DOCKED: ENDBRANCH  22  49
DOCKED: TORSDOF 13
DOCKED: TER
DOCKED: ENDMDL
________________________________________________________________________________


	BEGINNING GENETIC ALGORITHM DOCKING 45 of 100
Run: 45 Seed: 612694542 1988037809 [ Run 45 of 100 GA/GALS ]
Beginning LAMARCKIAN GENETIC ALGORITHM (LGA), with a maximum of 25000000 energy evaluations.

Final-Value: -10.092


	FINAL GENETIC ALGORITHM DOCKED STATE
	_______________________________________________


Detailed state:  trans 41.450 25.174 -1.146 quatxyzw -0.161125 0.336107 0.774184 -0.511577 center 0.153 0.018 -0.028 ntor 13 119.2761 178.9158 -122.1498 -64.7518 -131.7542 -16.3008 123.4164 -89.0989 27.6142 -20.8029 -109.3816 5.2698 -8.2005
State:	 41.450  25.174  -1.146  -0.188  0.391  0.901 -118.462    119.28  178.92 -122.15  -64.75 -131.75  -16.30  123.42  -89.10   27.61  -20.80 -109.38    5.27   -8.20

DOCKED: MODEL       45
DOCKED: USER    Run = 45
DOCKED: USER    DPF = D:/Protein_go_brrr/autodock/final/6BB5/heme/dock.dpf
DOCKED: USER  
DOCKED: USER    Estimated Free Energy of Binding    =   -1.27 kcal/mol  [=(1)+(2)+(3)-(4)]
DOCKED: USER    Estimated Inhibition Constant, Ki   =  117.99 mM (millimolar)  [Temperature = 298.15 K]
DOCKED: USER    
DOCKED: USER    (1) Final Intermolecular Energy     =   -5.14 kcal/mol
DOCKED: USER        vdW + Hbond + desolv Energy     =   -5.06 kcal/mol
DOCKED: USER        Electrostatic Energy            =   -0.08 kcal/mol
DOCKED: USER    (2) Final Total Internal Energy     =   -4.95 kcal/mol
DOCKED: USER    (3) Torsional Free Energy           =   +3.88 kcal/mol
DOCKED: USER    (4) Unbound System's Energy  [=(2)] =   -4.95 kcal/mol
DOCKED: USER    
DOCKED: USER    
DOCKED: USER    NEWDPF move heme_opt.pdbqt
DOCKED: USER    NEWDPF about 0.153000 0.018000 -0.028000
DOCKED: USER    NEWDPF tran0 41.449993 25.173523 -1.145677
DOCKED: USER    NEWDPF quaternion0 -0.161125 0.336107 0.774184 -0.511577
DOCKED: USER    NEWDPF axisangle0 -0.187520 0.391168 0.901012 -118.462143
DOCKED: USER    NEWDPF quat0 -0.187520 0.391168 0.901012 -118.462143
DOCKED: USER    NEWDPF dihe0 119.28 178.92 -122.15 -64.75 -131.75 -16.30 123.42 -89.10 27.61 -20.80 -109.38 5.27 -8.20 
DOCKED: USER  keepresnum = 1 
DOCKED: USER  
DOCKED: REMARK  13 active torsions:
DOCKED: REMARK  status: ('A' for Active; 'I' for Inactive)
DOCKED: REMARK    1  A    between atoms: O_3  and  C_38 
DOCKED: REMARK    2  A    between atoms: O_4  and  C_40 
DOCKED: REMARK    3  A    between atoms: O_7  and  C_46 
DOCKED: REMARK    4  A    between atoms: O_9  and  C_48 
DOCKED: REMARK    5  A    between atoms: C_15  and  C_20 
DOCKED: REMARK    6  A    between atoms: C_16  and  C_23 
DOCKED: REMARK    7  A    between atoms: C_20  and  C_38 
DOCKED: REMARK    8  A    between atoms: C_23  and  C_40 
DOCKED: REMARK    9  A    between atoms: C_32  and  C_41 
DOCKED: REMARK   10  A    between atoms: C_37  and  C_45 
DOCKED: REMARK   11  A    between atoms: C_41  and  C_44 
DOCKED: REMARK   12  A    between atoms: C_44  and  C_46 
DOCKED: REMARK   13  A    between atoms: C_47  and  C_48 
DOCKED: USER                              x       y       z     vdW  Elec       q    Type
DOCKED: USER                           _______ _______ _______ _____ _____    ______ ____
DOCKED: ROOT
DOCKED: ATOM      1  O   UNL d   1      42.373  21.357   3.252 -0.08 -0.04    -0.289 OA
DOCKED: ATOM      2  O   UNL d   1      46.793  23.489  -2.432 -0.03 -0.02    -0.289 OA
DOCKED: ATOM      3  N   UNL d   1      41.338  23.554   0.803 -0.15 -0.01    -0.247 NA
DOCKED: ATOM      4  N   UNL d   1      43.804  24.014  -0.789 -0.11 -0.03    -0.247 NA
DOCKED: ATOM      5  N   UNL d   1      42.477  26.244  -2.027 -0.06 -0.02    -0.354 N 
DOCKED: ATOM      6  N   UNL d   1      39.930  25.772  -0.357 -0.14 -0.00    -0.354 N 
DOCKED: ATOM      7  C   UNL d   1      40.377  22.723   2.899 -0.34 -0.01    +0.084 A 
DOCKED: ATOM      8  C   UNL d   1      45.489  22.244  -0.777 -0.05 +0.01    +0.084 A 
DOCKED: ATOM      9  C   UNL d   1      44.164  22.801  -0.245 -0.12 +0.01    +0.058 A 
DOCKED: ATOM     10  C   UNL d   1      40.252  23.616   1.661 -0.30 -0.00    +0.058 A 
DOCKED: ATOM     11  C   UNL d   1      41.717  22.132   2.580 -0.18 +0.01    +0.193 A 
DOCKED: ATOM     12  C   UNL d   1      42.182  22.695   1.273 -0.17 +0.01    +0.109 A 
DOCKED: ATOM     13  C   UNL d   1      45.832  23.382  -1.696 -0.06 +0.02    +0.193 A 
DOCKED: ATOM     14  C   UNL d   1      40.490  23.540   4.188 -0.39 -0.00    +0.026 C 
DOCKED: ATOM     15  C   UNL d   1      43.447  22.184   0.706 -0.14 +0.01    +0.055 C 
DOCKED: ATOM     16  C   UNL d   1      45.277  20.980  -1.616 -0.02 +0.00    +0.026 C 
DOCKED: ATOM     17  C   UNL d   1      44.734  24.393  -1.605 -0.12 +0.01    +0.109 A 
DOCKED: ATOM     18  C   UNL d   1      39.131  24.318   1.411 -0.27 -0.01    +0.050 C 
DOCKED: ATOM     19  C   UNL d   1      38.894  25.102   0.253 -0.22 -0.00    +0.045 A 
DOCKED: ATOM     20  C   UNL d   1      43.752  26.440  -2.493 -0.13 +0.00    +0.045 A 
DOCKED: ATOM     21  C   UNL d   1      44.820  25.646  -2.370 -0.11 +0.00    +0.057 C 
DOCKED: ATOM     22  C   UNL d   1      42.464  28.229  -3.093 -0.13 +0.00    -0.019 A 
DOCKED: ATOM     23  C   UNL d   1      41.628  27.272  -2.340 -0.16 +0.00    +0.045 A 
DOCKED: ATOM     24  C   UNL d   1      43.720  27.730  -3.181 -0.15 +0.00    -0.022 A 
DOCKED: ATOM     25  C   UNL d   1      39.463  26.538  -1.400 -0.16 +0.00    +0.049 A 
DOCKED: ATOM     26  C   UNL d   1      37.729  25.412  -0.433 -0.15 +0.00    -0.018 A 
DOCKED: ATOM     27  C   UNL d   1      38.097  26.303  -1.487 -0.12 -0.00    +0.003 A 
DOCKED: ATOM     28  C   UNL d   1      40.322  27.441  -2.084 -0.16 +0.00    +0.052 C 
DOCKED: ATOM     29  C   UNL d   1      44.913  28.320  -3.852 -0.11 -0.00    +0.046 C 
DOCKED: ATOM     30  C   UNL d   1      36.358  24.910  -0.130 -0.16 -0.01    +0.046 C 
DOCKED: ATOM     31  H   UNL d   1      42.211  25.377  -1.573 +0.03 +0.01    +0.166 HD
DOCKED: ATOM     32  H   UNL d   1      40.891  25.726  -0.040 +0.04 +0.01    +0.166 HD
DOCKED: ENDROOT
DOCKED: BRANCH   7  33
DOCKED: ATOM     33  C   UNL d   1      39.319  21.621   3.023 -0.24 -0.03    +0.141 C 
DOCKED: BRANCH  33  34
DOCKED: ATOM     34  C   UNL d   1      39.565  20.472   2.083 -0.03 -0.03    +0.306 C 
DOCKED: ATOM     35  O   UNL d   1      39.324  20.455   0.888 -0.02 +0.02    -0.251 OA
DOCKED: BRANCH  34  36
DOCKED: ATOM     36  O   UNL d   1      40.106  19.406   2.699 +0.01 +0.02    -0.481 OA
DOCKED: ATOM     37  H   UNL d   1      40.977  19.721   3.020 +0.08 +0.01    +0.295 HD
DOCKED: ENDBRANCH  34  36
DOCKED: ENDBRANCH  33  34
DOCKED: ENDBRANCH   7  33
DOCKED: BRANCH  27  38
DOCKED: ATOM     38  C   UNL d   1      37.191  26.884  -2.432 -0.06 -0.00    +0.017 C 
DOCKED: ATOM     39  C   UNL d   1      37.422  27.016  -3.747 -0.02 -0.00    +0.092 C 
DOCKED: BRANCH  39  40
DOCKED: ATOM     40  C   UNL d   1      36.401  27.613  -4.611 -0.00 +0.00    +0.330 C 
DOCKED: ATOM     41  O   UNL d   1      35.216  27.753  -4.375 -0.00 -0.00    -0.246 OA
DOCKED: BRANCH  40  42
DOCKED: ATOM     42  O   UNL d   1      36.954  28.024  -5.763 +0.00 -0.00    -0.477 OA
DOCKED: ATOM     43  H   UNL d   1      37.904  27.807  -5.658 +0.00 +0.00    +0.295 HD
DOCKED: ENDBRANCH  40  42
DOCKED: ENDBRANCH  39  40
DOCKED: ENDBRANCH  27  38
DOCKED: BRANCH   8  44
DOCKED: ATOM     44  C   UNL d   1      46.586  22.035   0.272 -0.06 +0.02    +0.141 C 
DOCKED: BRANCH  44  45
DOCKED: ATOM     45  C   UNL d   1      47.155  23.325   0.802 -0.08 +0.04    +0.306 C 
DOCKED: ATOM     46  O   UNL d   1      46.653  24.048   1.645 -0.21 -0.04    -0.251 OA
DOCKED: BRANCH  45  47
DOCKED: ATOM     47  O   UNL d   1      48.321  23.652   0.216 -0.00 -0.05    -0.481 OA
DOCKED: ATOM     48  H   UNL d   1      48.115  23.689  -0.742 +0.05 +0.03    +0.295 HD
DOCKED: ENDBRANCH  45  47
DOCKED: ENDBRANCH  44  45
DOCKED: ENDBRANCH   8  44
DOCKED: BRANCH  22  49
DOCKED: ATOM     49  C   UNL d   1      41.966  29.535  -3.638 -0.07 -0.00    +0.048 C 
DOCKED: BRANCH  49  50
DOCKED: ATOM     50  C   UNL d   1      41.458  29.397  -5.073 -0.01 +0.00    +0.125 C 
DOCKED: BRANCH  50  51
DOCKED: ATOM     51  C   UNL d   1      40.161  28.640  -5.112 -0.00 +0.00    +0.305 C 
DOCKED: ATOM     52  O   UNL d   1      40.001  27.448  -5.312 -0.00 -0.00    -0.251 OA
DOCKED: BRANCH  51  53
DOCKED: ATOM     53  O   UNL d   1      39.101  29.445  -4.903 +0.00 -0.00    -0.481 OA
DOCKED: ATOM     54  H   UNL d   1      38.610  29.418  -5.751 +0.00 +0.00    +0.295 HD
DOCKED: ENDBRANCH  51  53
DOCKED: ENDBRANCH  50  51
DOCKED: ENDBRANCH  49  50
DOCKED: ENDBRANCH  22  49
DOCKED: TORSDOF 13
DOCKED: TER
DOCKED: ENDMDL
________________________________________________________________________________


	BEGINNING GENETIC ALGORITHM DOCKING 46 of 100
Run: 46 Seed: 1420939579 336554370 [ Run 46 of 100 GA/GALS ]
Beginning LAMARCKIAN GENETIC ALGORITHM (LGA), with a maximum of 25000000 energy evaluations.

Final-Value: -10.788


	FINAL GENETIC ALGORITHM DOCKED STATE
	_______________________________________________


Detailed state:  trans 20.027 20.121 -2.382 quatxyzw -0.468146 0.532240 -0.559143 -0.430023 center 0.153 0.018 -0.028 ntor 13 58.4854 119.5335 100.6777 -143.0221 -161.7834 144.3227 -42.4684 -40.4328 83.3170 -116.1427 146.5286 7.1404 24.8991
State:	 20.027  20.121  -2.382  -0.519  0.590 -0.619 -129.062     58.49  119.53  100.68 -143.02 -161.78  144.32  -42.47  -40.43   83.32 -116.14  146.53    7.14   24.90

DOCKED: MODEL       46
DOCKED: USER    Run = 46
DOCKED: USER    DPF = D:/Protein_go_brrr/autodock/final/6BB5/heme/dock.dpf
DOCKED: USER  
DOCKED: USER    Estimated Free Energy of Binding    =   -4.16 kcal/mol  [=(1)+(2)+(3)-(4)]
DOCKED: USER    Estimated Inhibition Constant, Ki   =  892.03 uM (micromolar)  [Temperature = 298.15 K]
DOCKED: USER    
DOCKED: USER    (1) Final Intermolecular Energy     =   -8.04 kcal/mol
DOCKED: USER        vdW + Hbond + desolv Energy     =   -7.55 kcal/mol
DOCKED: USER        Electrostatic Energy            =   -0.49 kcal/mol
DOCKED: USER    (2) Final Total Internal Energy     =   -2.75 kcal/mol
DOCKED: USER    (3) Torsional Free Energy           =   +3.88 kcal/mol
DOCKED: USER    (4) Unbound System's Energy  [=(2)] =   -2.75 kcal/mol
DOCKED: USER    
DOCKED: USER    
DOCKED: USER    NEWDPF move heme_opt.pdbqt
DOCKED: USER    NEWDPF about 0.153000 0.018000 -0.028000
DOCKED: USER    NEWDPF tran0 20.027124 20.121022 -2.381702
DOCKED: USER    NEWDPF quaternion0 -0.468146 0.532240 -0.559143 -0.430023
DOCKED: USER    NEWDPF axisangle0 -0.518539 0.589531 -0.619331 -129.062023
DOCKED: USER    NEWDPF quat0 -0.518539 0.589531 -0.619331 -129.062023
DOCKED: USER    NEWDPF dihe0 58.49 119.53 100.68 -143.02 -161.78 144.32 -42.47 -40.43 83.32 -116.14 146.53 7.14 24.90 
DOCKED: USER  keepresnum = 1 
DOCKED: USER  
DOCKED: REMARK  13 active torsions:
DOCKED: REMARK  status: ('A' for Active; 'I' for Inactive)
DOCKED: REMARK    1  A    between atoms: O_3  and  C_38 
DOCKED: REMARK    2  A    between atoms: O_4  and  C_40 
DOCKED: REMARK    3  A    between atoms: O_7  and  C_46 
DOCKED: REMARK    4  A    between atoms: O_9  and  C_48 
DOCKED: REMARK    5  A    between atoms: C_15  and  C_20 
DOCKED: REMARK    6  A    between atoms: C_16  and  C_23 
DOCKED: REMARK    7  A    between atoms: C_20  and  C_38 
DOCKED: REMARK    8  A    between atoms: C_23  and  C_40 
DOCKED: REMARK    9  A    between atoms: C_32  and  C_41 
DOCKED: REMARK   10  A    between atoms: C_37  and  C_45 
DOCKED: REMARK   11  A    between atoms: C_41  and  C_44 
DOCKED: REMARK   12  A    between atoms: C_44  and  C_46 
DOCKED: REMARK   13  A    between atoms: C_47  and  C_48 
DOCKED: USER                              x       y       z     vdW  Elec       q    Type
DOCKED: USER                           _______ _______ _______ _____ _____    ______ ____
DOCKED: ROOT
DOCKED: ATOM      1  O   UNL d   1      21.710  25.383  -4.439 -0.04 +0.12    -0.289 OA
DOCKED: ATOM      2  O   UNL d   1      19.072  23.335   2.287 -0.24 +0.00    -0.289 OA
DOCKED: ATOM      3  N   UNL d   1      20.713  22.159  -3.726 -0.11 +0.05    -0.247 NA
DOCKED: ATOM      4  N   UNL d   1      20.132  22.252  -0.814 -0.12 +0.04    -0.247 NA
DOCKED: ATOM      5  N   UNL d   1      20.087  19.378  -0.825 -0.11 +0.08    -0.354 N 
DOCKED: ATOM      6  N   UNL d   1      20.709  19.290  -3.843 -0.10 +0.09    -0.354 N 
DOCKED: ATOM      7  C   UNL d   1      21.788  23.254  -5.638 -0.10 -0.02    +0.084 A 
DOCKED: ATOM      8  C   UNL d   1      19.496  24.414   0.131 -0.33 -0.01    +0.084 A 
DOCKED: ATOM      9  C   UNL d   1      19.983  23.597  -1.070 -0.25 -0.01    +0.058 A 
DOCKED: ATOM     10  C   UNL d   1      21.241  21.977  -4.994 -0.15 -0.01    +0.058 A 
DOCKED: ATOM     11  C   UNL d   1      21.459  24.195  -4.517 -0.10 -0.05    +0.193 A 
DOCKED: ATOM     12  C   UNL d   1      20.788  23.416  -3.429 -0.17 -0.02    +0.109 A 
DOCKED: ATOM     13  C   UNL d   1      19.432  23.291   1.127 -0.21 -0.01    +0.193 A 
DOCKED: ATOM     14  C   UNL d   1      23.308  23.204  -5.812 -0.03 -0.01    +0.026 C 
DOCKED: ATOM     15  C   UNL d   1      20.286  24.155  -2.252 -0.17 -0.01    +0.055 C 
DOCKED: ATOM     16  C   UNL d   1      18.081  24.959  -0.088 -0.39 -0.00    +0.026 C 
DOCKED: ATOM     17  C   UNL d   1      19.849  22.036   0.431 -0.21 -0.01    +0.109 A 
DOCKED: ATOM     18  C   UNL d   1      21.207  20.810  -5.664 -0.17 -0.01    +0.050 C 
DOCKED: ATOM     19  C   UNL d   1      20.645  19.601  -5.182 -0.19 -0.01    +0.045 A 
DOCKED: ATOM     20  C   UNL d   1      20.055  19.608   0.526 -0.16 -0.01    +0.045 A 
DOCKED: ATOM     21  C   UNL d   1      19.926  20.770   1.175 -0.16 -0.01    +0.057 C 
DOCKED: ATOM     22  C   UNL d   1      20.297  17.366   0.165 -0.09 +0.00    -0.019 A 
DOCKED: ATOM     23  C   UNL d   1      20.231  18.053  -1.140 -0.15 -0.01    +0.045 A 
DOCKED: ATOM     24  C   UNL d   1      20.191  18.292   1.147 -0.11 +0.00    -0.022 A 
DOCKED: ATOM     25  C   UNL d   1      20.187  18.038  -3.612 -0.17 -0.01    +0.049 A 
DOCKED: ATOM     26  C   UNL d   1      20.033  18.540  -5.833 -0.24 +0.01    -0.018 A 
DOCKED: ATOM     27  C   UNL d   1      19.728  17.565  -4.833 -0.17 -0.00    +0.003 A 
DOCKED: ATOM     28  C   UNL d   1      20.285  17.433  -2.329 -0.15 -0.01    +0.052 C 
DOCKED: ATOM     29  C   UNL d   1      20.192  18.089   2.625 -0.10 -0.00    +0.046 C 
DOCKED: ATOM     30  C   UNL d   1      19.746  18.437  -7.292 -0.19 -0.03    +0.046 C 
DOCKED: ATOM     31  H   UNL d   1      19.934  20.128  -1.491 +0.04 -0.05    +0.166 HD
DOCKED: ATOM     32  H   UNL d   1      21.125  19.897  -3.146 +0.03 -0.03    +0.166 HD
DOCKED: ENDROOT
DOCKED: BRANCH   7  33
DOCKED: ATOM     33  C   UNL d   1      21.087  23.691  -6.929 -0.15 -0.03    +0.141 C 
DOCKED: BRANCH  33  34
DOCKED: ATOM     34  C   UNL d   1      20.704  25.146  -6.917 -0.16 -0.10    +0.306 C 
DOCKED: ATOM     35  O   UNL d   1      19.574  25.592  -6.808 -0.26 +0.07    -0.251 OA
DOCKED: BRANCH  34  36
DOCKED: ATOM     36  O   UNL d   1      21.765  25.963  -7.039 -0.06 +0.26    -0.481 OA
DOCKED: ATOM     37  H   UNL d   1      21.717  26.549  -6.255 +0.08 -0.24    +0.295 HD
DOCKED: ENDBRANCH  34  36
DOCKED: ENDBRANCH  33  34
DOCKED: ENDBRANCH   7  33
DOCKED: BRANCH  27  38
DOCKED: ATOM     38  C   UNL d   1      19.102  16.301  -5.077 -0.16 -0.01    +0.017 C 
DOCKED: ATOM     39  C   UNL d   1      18.120  15.767  -4.335 -0.11 -0.05    +0.092 C 
DOCKED: BRANCH  39  40
DOCKED: ATOM     40  C   UNL d   1      17.550  14.468  -4.704 -0.07 -0.18    +0.330 C 
DOCKED: ATOM     41  O   UNL d   1      17.189  13.577  -3.959 -0.04 +0.06    -0.246 OA
DOCKED: BRANCH  40  42
DOCKED: ATOM     42  O   UNL d   1      17.456  14.367  -6.039 -0.01 +0.48    -0.477 OA
DOCKED: ATOM     43  H   UNL d   1      16.860  15.104  -6.288 -0.50 -0.74    +0.295 HD
DOCKED: ENDBRANCH  40  42
DOCKED: ENDBRANCH  39  40
DOCKED: ENDBRANCH  27  38
DOCKED: BRANCH   8  44
DOCKED: ATOM     44  C   UNL d   1      20.447  25.517   0.608 -0.35 -0.04    +0.141 C 
DOCKED: BRANCH  44  45
DOCKED: ATOM     45  C   UNL d   1      20.096  26.056   1.969 -0.25 -0.04    +0.306 C 
DOCKED: ATOM     46  O   UNL d   1      19.308  26.954   2.215 -0.56 +0.01    -0.251 OA
DOCKED: BRANCH  45  47
DOCKED: ATOM     47  O   UNL d   1      20.781  25.451   2.956 -0.07 +0.00    -0.481 OA
DOCKED: ATOM     48  H   UNL d   1      20.305  24.607   3.106 +0.17 +0.00    +0.295 HD
DOCKED: ENDBRANCH  45  47
DOCKED: ENDBRANCH  44  45
DOCKED: ENDBRANCH   8  44
DOCKED: BRANCH  22  49
DOCKED: ATOM     49  C   UNL d   1      20.471  15.884   0.330 -0.03 -0.00    +0.048 C 
DOCKED: BRANCH  49  50
DOCKED: ATOM     50  C   UNL d   1      19.352  15.101  -0.356 -0.03 -0.01    +0.125 C 
DOCKED: BRANCH  50  51
DOCKED: ATOM     51  C   UNL d   1      18.058  15.863  -0.312 -0.08 -0.03    +0.305 C 
DOCKED: ATOM     52  O   UNL d   1      17.559  16.425   0.647 -0.16 +0.02    -0.251 OA
DOCKED: BRANCH  51  53
DOCKED: ATOM     53  O   UNL d   1      17.435  15.868  -1.508 -0.05 +0.06    -0.481 OA
DOCKED: ATOM     54  H   UNL d   1      17.618  14.978  -1.875 +0.06 -0.04    +0.295 HD
DOCKED: ENDBRANCH  51  53
DOCKED: ENDBRANCH  50  51
DOCKED: ENDBRANCH  49  50
DOCKED: ENDBRANCH  22  49
DOCKED: TORSDOF 13
DOCKED: TER
DOCKED: ENDMDL
________________________________________________________________________________


	BEGINNING GENETIC ALGORITHM DOCKING 47 of 100
Run: 47 Seed: 897174023 1210826457 [ Run 47 of 100 GA/GALS ]
Beginning LAMARCKIAN GENETIC ALGORITHM (LGA), with a maximum of 25000000 energy evaluations.

Final-Value: -11.281


	FINAL GENETIC ALGORITHM DOCKED STATE
	_______________________________________________


Detailed state:  trans 24.811 46.686 -0.824 quatxyzw -0.340549 0.099119 0.114013 0.928010 center 0.153 0.018 -0.028 ntor 13 -161.7131 -155.2673 139.5763 160.4588 -29.7924 -35.3313 -45.6334 119.5730 -139.8871 -103.9184 121.9216 -153.5118 180.0000
State:	 24.811  46.686  -0.824  -0.914  0.266  0.306 43.747   -161.71 -155.27  139.58  160.46  -29.79  -35.33  -45.63  119.57 -139.89 -103.92  121.92 -153.51  180.00

DOCKED: MODEL       47
DOCKED: USER    Run = 47
DOCKED: USER    DPF = D:/Protein_go_brrr/autodock/final/6BB5/heme/dock.dpf
DOCKED: USER  
DOCKED: USER    Estimated Free Energy of Binding    =   -5.84 kcal/mol  [=(1)+(2)+(3)-(4)]
DOCKED: USER    Estimated Inhibition Constant, Ki   =   52.39 uM (micromolar)  [Temperature = 298.15 K]
DOCKED: USER    
DOCKED: USER    (1) Final Intermolecular Energy     =   -9.72 kcal/mol
DOCKED: USER        vdW + Hbond + desolv Energy     =   -8.97 kcal/mol
DOCKED: USER        Electrostatic Energy            =   -0.75 kcal/mol
DOCKED: USER    (2) Final Total Internal Energy     =   -1.56 kcal/mol
DOCKED: USER    (3) Torsional Free Energy           =   +3.88 kcal/mol
DOCKED: USER    (4) Unbound System's Energy  [=(2)] =   -1.56 kcal/mol
DOCKED: USER    
DOCKED: USER    
DOCKED: USER    NEWDPF move heme_opt.pdbqt
DOCKED: USER    NEWDPF about 0.153000 0.018000 -0.028000
DOCKED: USER    NEWDPF tran0 24.811160 46.686495 -0.824046
DOCKED: USER    NEWDPF quaternion0 -0.340549 0.099119 0.114013 0.928010
DOCKED: USER    NEWDPF axisangle0 -0.914091 0.266052 0.306030 43.746594
DOCKED: USER    NEWDPF quat0 -0.914091 0.266052 0.306030 43.746594
DOCKED: USER    NEWDPF dihe0 -161.71 -155.27 139.58 160.46 -29.79 -35.33 -45.63 119.57 -139.89 -103.92 121.92 -153.51 180.00 
DOCKED: USER  keepresnum = 1 
DOCKED: USER  
DOCKED: REMARK  13 active torsions:
DOCKED: REMARK  status: ('A' for Active; 'I' for Inactive)
DOCKED: REMARK    1  A    between atoms: O_3  and  C_38 
DOCKED: REMARK    2  A    between atoms: O_4  and  C_40 
DOCKED: REMARK    3  A    between atoms: O_7  and  C_46 
DOCKED: REMARK    4  A    between atoms: O_9  and  C_48 
DOCKED: REMARK    5  A    between atoms: C_15  and  C_20 
DOCKED: REMARK    6  A    between atoms: C_16  and  C_23 
DOCKED: REMARK    7  A    between atoms: C_20  and  C_38 
DOCKED: REMARK    8  A    between atoms: C_23  and  C_40 
DOCKED: REMARK    9  A    between atoms: C_32  and  C_41 
DOCKED: REMARK   10  A    between atoms: C_37  and  C_45 
DOCKED: REMARK   11  A    between atoms: C_41  and  C_44 
DOCKED: REMARK   12  A    between atoms: C_44  and  C_46 
DOCKED: REMARK   13  A    between atoms: C_47  and  C_48 
DOCKED: USER                              x       y       z     vdW  Elec       q    Type
DOCKED: USER                           _______ _______ _______ _____ _____    ______ ____
DOCKED: ROOT
DOCKED: ATOM      1  O   UNL d   1      19.530  49.111   0.170 -0.51 +0.09    -0.289 OA
DOCKED: ATOM      2  O   UNL d   1      21.990  44.794  -5.461 -0.12 -0.01    -0.289 OA
DOCKED: ATOM      3  N   UNL d   1      22.794  48.021  -0.059 -0.09 -0.02    -0.247 NA
DOCKED: ATOM      4  N   UNL d   1      22.736  46.175  -2.387 -0.01 -0.02    -0.247 NA
DOCKED: ATOM      5  N   UNL d   1      25.325  45.221  -1.578 +0.13 -0.07    -0.354 N 
DOCKED: ATOM      6  N   UNL d   1      25.369  47.125   0.845 -0.05 -0.12    -0.354 N 
DOCKED: ATOM      7  C   UNL d   1      21.493  49.242   1.621 -0.21 -0.00    +0.084 A 
DOCKED: ATOM      8  C   UNL d   1      21.010  46.558  -4.075 -0.21 -0.01    +0.084 A 
DOCKED: ATOM      9  C   UNL d   1      21.621  46.914  -2.715 -0.21 -0.00    +0.058 A 
DOCKED: ATOM     10  C   UNL d   1      22.825  48.622   1.188 -0.15 +0.00    +0.058 A 
DOCKED: ATOM     11  C   UNL d   1      20.709  48.902   0.389 -0.19 -0.02    +0.193 A 
DOCKED: ATOM     12  C   UNL d   1      21.615  48.186  -0.564 -0.17 -0.00    +0.109 A 
DOCKED: ATOM     13  C   UNL d   1      21.963  45.455  -4.441 -0.18 -0.00    +0.193 A 
DOCKED: ATOM     14  C   UNL d   1      20.880  48.510   2.817 -0.47 -0.00    +0.026 C 
DOCKED: ATOM     15  C   UNL d   1      21.083  47.830  -1.895 -0.24 -0.01    +0.055 C 
DOCKED: ATOM     16  C   UNL d   1      21.167  47.699  -5.084 -0.08 -0.00    +0.026 C 
DOCKED: ATOM     17  C   UNL d   1      22.955  45.318  -3.332 -0.20 +0.01    +0.109 A 
DOCKED: ATOM     18  C   UNL d   1      23.936  48.747   1.938 -0.13 +0.01    +0.050 C 
DOCKED: ATOM     19  C   UNL d   1      25.226  48.280   1.581 -0.10 +0.01    +0.045 A 
DOCKED: ATOM     20  C   UNL d   1      25.025  44.297  -2.545 -0.19 +0.01    +0.045 A 
DOCKED: ATOM     21  C   UNL d   1      23.993  44.278  -3.395 -0.32 +0.01    +0.057 C 
DOCKED: ATOM     22  C   UNL d   1      26.950  43.664  -1.491 -0.16 -0.00    -0.019 A 
DOCKED: ATOM     23  C   UNL d   1      26.470  44.924  -0.888 -0.08 +0.01    +0.045 A 
DOCKED: ATOM     24  C   UNL d   1      26.091  43.299  -2.472 -0.22 -0.00    -0.022 A 
DOCKED: ATOM     25  C   UNL d   1      26.699  46.812   0.691 -0.12 +0.02    +0.049 A 
DOCKED: ATOM     26  C   UNL d   1      26.496  48.749   1.881 -0.08 -0.00    -0.018 A 
DOCKED: ATOM     27  C   UNL d   1      27.422  47.828   1.300 -0.08 +0.00    +0.003 A 
DOCKED: ATOM     28  C   UNL d   1      27.094  45.580   0.102 -0.15 +0.02    +0.052 C 
DOCKED: ATOM     29  C   UNL d   1      26.154  42.113  -3.373 -0.23 +0.01    +0.046 C 
DOCKED: ATOM     30  C   UNL d   1      26.832  49.977   2.658 -0.08 +0.00    +0.046 C 
DOCKED: ATOM     31  H   UNL d   1      24.775  46.067  -1.471 +0.04 +0.03    +0.166 HD
DOCKED: ATOM     32  H   UNL d   1      24.587  46.575   0.509 +0.09 +0.05    +0.166 HD
DOCKED: ENDROOT
DOCKED: BRANCH   7  33
DOCKED: ATOM     33  C   UNL d   1      21.516  50.759   1.841 -0.20 -0.02    +0.141 C 
DOCKED: BRANCH  33  34
DOCKED: ATOM     34  C   UNL d   1      21.812  51.132   3.269 -0.17 -0.02    +0.306 C 
DOCKED: ATOM     35  O   UNL d   1      22.411  50.449   4.082 -0.14 -0.00    -0.251 OA
DOCKED: BRANCH  34  36
DOCKED: ATOM     36  O   UNL d   1      21.341  52.348   3.595 -0.16 +0.06    -0.481 OA
DOCKED: ATOM     37  H   UNL d   1      20.703  52.565   2.882 -0.39 -0.13    +0.295 HD
DOCKED: ENDBRANCH  34  36
DOCKED: ENDBRANCH  33  34
DOCKED: ENDBRANCH   7  33
DOCKED: BRANCH  27  38
DOCKED: ATOM     38  C   UNL d   1      28.848  47.928   1.385 -0.11 +0.00    +0.017 C 
DOCKED: ATOM     39  C   UNL d   1      29.562  47.865   2.519 -0.08 +0.02    +0.092 C 
DOCKED: BRANCH  39  40
DOCKED: ATOM     40  C   UNL d   1      31.023  47.963   2.468 -0.18 +0.10    +0.330 C 
DOCKED: ATOM     41  O   UNL d   1      31.770  47.503   1.626 -0.13 -0.13    -0.246 OA
DOCKED: BRANCH  40  42
DOCKED: ATOM     42  O   UNL d   1      31.476  48.670   3.516 -0.20 -0.05    -0.477 OA
DOCKED: ATOM     43  H   UNL d   1      30.774  48.565   4.190 -0.41 -0.38    +0.295 HD
DOCKED: ENDBRANCH  40  42
DOCKED: ENDBRANCH  39  40
DOCKED: ENDBRANCH  27  38
DOCKED: BRANCH   8  44
DOCKED: ATOM     44  C   UNL d   1      19.567  46.046  -4.037 -0.29 -0.03    +0.141 C 
DOCKED: BRANCH  44  45
DOCKED: ATOM     45  C   UNL d   1      19.223  45.150  -5.196 -0.28 -0.02    +0.306 C 
DOCKED: ATOM     46  O   UNL d   1      18.772  45.496  -6.274 -0.20 +0.00    -0.251 OA
DOCKED: BRANCH  45  47
DOCKED: ATOM     47  O   UNL d   1      19.443  43.850  -4.925 -0.31 +0.00    -0.481 OA
DOCKED: ATOM     48  H   UNL d   1      20.293  43.840  -4.436 -0.16 -0.02    +0.295 HD
DOCKED: ENDBRANCH  45  47
DOCKED: ENDBRANCH  44  45
DOCKED: ENDBRANCH   8  44
DOCKED: BRANCH  22  49
DOCKED: ATOM     49  C   UNL d   1      28.183  42.934  -1.047 -0.12 +0.01    +0.048 C 
DOCKED: BRANCH  49  50
DOCKED: ATOM     50  C   UNL d   1      27.856  41.809  -0.065 -0.16 +0.02    +0.125 C 
DOCKED: BRANCH  50  51
DOCKED: ATOM     51  C   UNL d   1      27.123  42.340   1.134 -0.20 +0.08    +0.305 C 
DOCKED: ATOM     52  O   UNL d   1      25.971  42.115   1.461 -0.34 -0.06    -0.251 OA
DOCKED: BRANCH  51  53
DOCKED: ATOM     53  O   UNL d   1      27.895  43.160   1.875 -0.06 -0.26    -0.481 OA
DOCKED: ATOM     54  H   UNL d   1      28.810  42.930   1.609 +0.10 +0.11    +0.295 HD
DOCKED: ENDBRANCH  51  53
DOCKED: ENDBRANCH  50  51
DOCKED: ENDBRANCH  49  50
DOCKED: ENDBRANCH  22  49
DOCKED: TORSDOF 13
DOCKED: TER
DOCKED: ENDMDL
________________________________________________________________________________


	BEGINNING GENETIC ALGORITHM DOCKING 48 of 100
Run: 48 Seed: 1953790111 1301071078 [ Run 48 of 100 GA/GALS ]
Beginning LAMARCKIAN GENETIC ALGORITHM (LGA), with a maximum of 25000000 energy evaluations.

Final-Value: -11.078


	FINAL GENETIC ALGORITHM DOCKED STATE
	_______________________________________________


Detailed state:  trans 37.495 30.337 -0.221 quatxyzw 0.076831 0.237182 0.113338 -0.961767 center 0.153 0.018 -0.028 ntor 13 21.7809 179.8444 109.5917 20.2203 -155.3135 -40.1598 -48.6625 7.7024 -166.5461 -126.7167 -72.5471 5.4829 -6.4105
State:	 37.495  30.337  -0.221   0.281  0.866  0.414 -31.789     21.78  179.84  109.59   20.22 -155.31  -40.16  -48.66    7.70 -166.55 -126.72  -72.55    5.48   -6.41

DOCKED: MODEL       48
DOCKED: USER    Run = 48
DOCKED: USER    DPF = D:/Protein_go_brrr/autodock/final/6BB5/heme/dock.dpf
DOCKED: USER  
DOCKED: USER    Estimated Free Energy of Binding    =   -3.34 kcal/mol  [=(1)+(2)+(3)-(4)]
DOCKED: USER    Estimated Inhibition Constant, Ki   =    3.56 mM (millimolar)  [Temperature = 298.15 K]
DOCKED: USER    
DOCKED: USER    (1) Final Intermolecular Energy     =   -7.22 kcal/mol
DOCKED: USER        vdW + Hbond + desolv Energy     =   -7.24 kcal/mol
DOCKED: USER        Electrostatic Energy            =   +0.02 kcal/mol
DOCKED: USER    (2) Final Total Internal Energy     =   -3.86 kcal/mol
DOCKED: USER    (3) Torsional Free Energy           =   +3.88 kcal/mol
DOCKED: USER    (4) Unbound System's Energy  [=(2)] =   -3.86 kcal/mol
DOCKED: USER    
DOCKED: USER    
DOCKED: USER    NEWDPF move heme_opt.pdbqt
DOCKED: USER    NEWDPF about 0.153000 0.018000 -0.028000
DOCKED: USER    NEWDPF tran0 37.494539 30.336936 -0.220910
DOCKED: USER    NEWDPF quaternion0 0.076831 0.237182 0.113338 -0.961767
DOCKED: USER    NEWDPF axisangle0 0.280540 0.866045 0.413841 -31.789211
DOCKED: USER    NEWDPF quat0 0.280540 0.866045 0.413841 -31.789211
DOCKED: USER    NEWDPF dihe0 21.78 179.84 109.59 20.22 -155.31 -40.16 -48.66 7.70 -166.55 -126.72 -72.55 5.48 -6.41 
DOCKED: USER  keepresnum = 1 
DOCKED: USER  
DOCKED: REMARK  13 active torsions:
DOCKED: REMARK  status: ('A' for Active; 'I' for Inactive)
DOCKED: REMARK    1  A    between atoms: O_3  and  C_38 
DOCKED: REMARK    2  A    between atoms: O_4  and  C_40 
DOCKED: REMARK    3  A    between atoms: O_7  and  C_46 
DOCKED: REMARK    4  A    between atoms: O_9  and  C_48 
DOCKED: REMARK    5  A    between atoms: C_15  and  C_20 
DOCKED: REMARK    6  A    between atoms: C_16  and  C_23 
DOCKED: REMARK    7  A    between atoms: C_20  and  C_38 
DOCKED: REMARK    8  A    between atoms: C_23  and  C_40 
DOCKED: REMARK    9  A    between atoms: C_32  and  C_41 
DOCKED: REMARK   10  A    between atoms: C_37  and  C_45 
DOCKED: REMARK   11  A    between atoms: C_41  and  C_44 
DOCKED: REMARK   12  A    between atoms: C_44  and  C_46 
DOCKED: REMARK   13  A    between atoms: C_47  and  C_48 
DOCKED: USER                              x       y       z     vdW  Elec       q    Type
DOCKED: USER                           _______ _______ _______ _____ _____    ______ ____
DOCKED: ROOT
DOCKED: ATOM      1  O   UNL d   1      32.659  30.474   3.149 -0.26 -0.16    -0.289 OA
DOCKED: ATOM      2  O   UNL d   1      35.337  25.145  -1.414 -0.04 +0.03    -0.289 OA
DOCKED: ATOM      3  N   UNL d   1      35.503  30.901   1.245 -0.11 -0.02    -0.247 NA
DOCKED: ATOM      4  N   UNL d   1      35.927  28.218   0.040 -0.02 -0.01    -0.247 NA
DOCKED: ATOM      5  N   UNL d   1      38.566  29.077  -0.714 -0.09 +0.01    -0.354 N 
DOCKED: ATOM      6  N   UNL d   1      38.124  31.850   0.556 -0.10 +0.06    -0.354 N 
DOCKED: ATOM      7  C   UNL d   1      34.367  32.214   2.974 -0.25 +0.02    +0.084 A 
DOCKED: ATOM      8  C   UNL d   1      33.961  26.796  -0.243 -0.14 -0.00    +0.084 A 
DOCKED: ATOM      9  C   UNL d   1      34.580  28.091   0.293 -0.12 +0.00    +0.058 A 
DOCKED: ATOM     10  C   UNL d   1      35.532  32.066   1.992 -0.23 +0.00    +0.058 A 
DOCKED: ATOM     11  C   UNL d   1      33.663  30.935   2.636 -0.21 +0.06    +0.193 A 
DOCKED: ATOM     12  C   UNL d   1      34.435  30.242   1.557 -0.17 +0.02    +0.109 A 
DOCKED: ATOM     13  C   UNL d   1      35.214  26.195  -0.815 -0.09 -0.01    +0.193 A 
DOCKED: ATOM     14  C   UNL d   1      34.832  32.154   4.432 -0.57 +0.00    +0.026 C 
DOCKED: ATOM     15  C   UNL d   1      33.878  28.995   0.994 -0.22 +0.01    +0.055 C 
DOCKED: ATOM     16  C   UNL d   1      32.978  27.067  -1.386 -0.06 +0.00    +0.026 C 
DOCKED: ATOM     17  C   UNL d   1      36.335  27.153  -0.572 -0.08 -0.00    +0.109 A 
DOCKED: ATOM     18  C   UNL d   1      36.442  33.045   1.828 -0.30 -0.00    +0.050 C 
DOCKED: ATOM     19  C   UNL d   1      37.502  33.033   0.887 -0.23 -0.01    +0.045 A 
DOCKED: ATOM     20  C   UNL d   1      38.661  27.740  -1.003 -0.18 -0.00    +0.045 A 
DOCKED: ATOM     21  C   UNL d   1      37.702  26.809  -0.988 -0.15 -0.00    +0.057 C 
DOCKED: ATOM     22  C   UNL d   1      40.721  28.697  -1.248 -0.19 +0.00    -0.019 A 
DOCKED: ATOM     23  C   UNL d   1      39.759  29.738  -0.834 -0.22 -0.00    +0.045 A 
DOCKED: ATOM     24  C   UNL d   1      40.065  27.517  -1.348 -0.19 -0.00    -0.022 A 
DOCKED: ATOM     25  C   UNL d   1      39.177  32.081  -0.300 -0.22 -0.01    +0.049 A 
DOCKED: ATOM     26  C   UNL d   1      38.144  34.053   0.201 -0.24 +0.00    -0.018 A 
DOCKED: ATOM     27  C   UNL d   1      39.187  33.444  -0.562 -0.20 -0.00    +0.003 A 
DOCKED: ATOM     28  C   UNL d   1      40.067  31.032  -0.658 -0.26 -0.01    +0.052 C 
DOCKED: ATOM     29  C   UNL d   1      40.600  26.183  -1.743 -0.17 +0.00    +0.046 C 
DOCKED: ATOM     30  C   UNL d   1      37.808  35.505   0.247 +0.12 -0.00    +0.046 C 
DOCKED: ATOM     31  H   UNL d   1      37.670  29.509  -0.516 +0.05 -0.00    +0.166 HD
DOCKED: ATOM     32  H   UNL d   1      37.854  30.950   0.934 +0.04 -0.02    +0.166 HD
DOCKED: ENDROOT
DOCKED: BRANCH   7  33
DOCKED: ATOM     33  C   UNL d   1      33.447  33.415   2.727 -0.18 +0.04    +0.141 C 
DOCKED: BRANCH  33  34
DOCKED: ATOM     34  C   UNL d   1      33.423  34.375   3.886 -0.22 +0.06    +0.306 C 
DOCKED: ATOM     35  O   UNL d   1      32.551  34.459   4.733 -0.25 -0.06    -0.251 OA
DOCKED: BRANCH  34  36
DOCKED: ATOM     36  O   UNL d   1      34.502  35.177   3.917 -0.26 -0.07    -0.481 OA
DOCKED: ATOM     37  H   UNL d   1      34.535  35.510   4.839 -0.35 +0.03    +0.295 HD
DOCKED: ENDBRANCH  34  36
DOCKED: ENDBRANCH  33  34
DOCKED: ENDBRANCH   7  33
DOCKED: BRANCH  27  38
DOCKED: ATOM     38  C   UNL d   1      40.108  34.142  -1.407 -0.14 -0.00    +0.017 C 
DOCKED: ATOM     39  C   UNL d   1      40.502  33.737  -2.624 -0.04 +0.00    +0.092 C 
DOCKED: BRANCH  39  40
DOCKED: ATOM     40  C   UNL d   1      41.440  34.556  -3.398 -0.00 +0.00    +0.330 C 
DOCKED: ATOM     41  O   UNL d   1      41.439  35.765  -3.527 -0.01 -0.00    -0.246 OA
DOCKED: BRANCH  40  42
DOCKED: ATOM     42  O   UNL d   1      42.364  33.775  -3.978 +0.01 +0.00    -0.477 OA
DOCKED: ATOM     43  H   UNL d   1      42.121  32.871  -3.692 +0.03 -0.00    +0.295 HD
DOCKED: ENDBRANCH  40  42
DOCKED: ENDBRANCH  39  40
DOCKED: ENDBRANCH  27  38
DOCKED: BRANCH   8  44
DOCKED: ATOM     44  C   UNL d   1      33.342  25.873   0.813 -0.14 -0.03    +0.141 C 
DOCKED: BRANCH  44  45
DOCKED: ATOM     45  C   UNL d   1      32.827  24.579   0.242 -0.07 -0.08    +0.306 C 
DOCKED: ATOM     46  O   UNL d   1      31.692  24.354  -0.140 -0.06 +0.04    -0.251 OA
DOCKED: BRANCH  45  47
DOCKED: ATOM     47  O   UNL d   1      33.770  23.620   0.208 -0.05 +0.20    -0.481 OA
DOCKED: ATOM     48  H   UNL d   1      34.387  23.904  -0.500 +0.06 -0.08    +0.295 HD
DOCKED: ENDBRANCH  45  47
DOCKED: ENDBRANCH  44  45
DOCKED: ENDBRANCH   8  44
DOCKED: BRANCH  22  49
DOCKED: ATOM     49  C   UNL d   1      42.180  28.948  -1.491 -0.22 -0.00    +0.048 C 
DOCKED: BRANCH  49  50
DOCKED: ATOM     50  C   UNL d   1      42.457  29.331  -2.944 -0.13 -0.00    +0.125 C 
DOCKED: BRANCH  50  51
DOCKED: ATOM     51  C   UNL d   1      42.815  30.786  -3.056 -0.05 -0.01    +0.305 C 
DOCKED: ATOM     52  O   UNL d   1      42.916  31.598  -2.153 -0.12 +0.01    -0.251 OA
DOCKED: BRANCH  51  53
DOCKED: ATOM     53  O   UNL d   1      43.021  31.158  -4.335 +0.01 +0.01    -0.481 OA
DOCKED: ATOM     54  H   UNL d   1      43.543  31.984  -4.262 +0.03 -0.01    +0.295 HD
DOCKED: ENDBRANCH  51  53
DOCKED: ENDBRANCH  50  51
DOCKED: ENDBRANCH  49  50
DOCKED: ENDBRANCH  22  49
DOCKED: TORSDOF 13
DOCKED: TER
DOCKED: ENDMDL
________________________________________________________________________________


	BEGINNING GENETIC ALGORITHM DOCKING 49 of 100
Run: 49 Seed: 1615436478 910438643 [ Run 49 of 100 GA/GALS ]
Beginning LAMARCKIAN GENETIC ALGORITHM (LGA), with a maximum of 25000000 energy evaluations.

Final-Value: -10.513


	FINAL GENETIC ALGORITHM DOCKED STATE
	_______________________________________________


Detailed state:  trans 23.293 42.548 -5.780 quatxyzw 0.360655 0.359830 -0.860485 0.003935 center 0.153 0.018 -0.028 ntor 13 153.5026 79.3453 100.5502 76.8433 -140.7748 35.0554 -46.7418 11.3537 16.1684 -127.1722 110.4610 -13.7883 43.9475
State:	 23.293  42.548  -5.780   0.361  0.360 -0.860 179.549    153.50   79.35  100.55   76.84 -140.77   35.06  -46.74   11.35   16.17 -127.17  110.46  -13.79   43.95

DOCKED: MODEL       49
DOCKED: USER    Run = 49
DOCKED: USER    DPF = D:/Protein_go_brrr/autodock/final/6BB5/heme/dock.dpf
DOCKED: USER  
DOCKED: USER    Estimated Free Energy of Binding    =   -2.77 kcal/mol  [=(1)+(2)+(3)-(4)]
DOCKED: USER    Estimated Inhibition Constant, Ki   =    9.40 mM (millimolar)  [Temperature = 298.15 K]
DOCKED: USER    
DOCKED: USER    (1) Final Intermolecular Energy     =   -6.64 kcal/mol
DOCKED: USER        vdW + Hbond + desolv Energy     =   -6.55 kcal/mol
DOCKED: USER        Electrostatic Energy            =   -0.09 kcal/mol
DOCKED: USER    (2) Final Total Internal Energy     =   -3.87 kcal/mol
DOCKED: USER    (3) Torsional Free Energy           =   +3.88 kcal/mol
DOCKED: USER    (4) Unbound System's Energy  [=(2)] =   -3.87 kcal/mol
DOCKED: USER    
DOCKED: USER    
DOCKED: USER    NEWDPF move heme_opt.pdbqt
DOCKED: USER    NEWDPF about 0.153000 0.018000 -0.028000
DOCKED: USER    NEWDPF tran0 23.292846 42.548195 -5.780022
DOCKED: USER    NEWDPF quaternion0 0.360655 0.359830 -0.860485 0.003935
DOCKED: USER    NEWDPF axisangle0 0.360658 0.359833 -0.860492 179.549064
DOCKED: USER    NEWDPF quat0 0.360658 0.359833 -0.860492 179.549064
DOCKED: USER    NEWDPF dihe0 153.50 79.35 100.55 76.84 -140.77 35.06 -46.74 11.35 16.17 -127.17 110.46 -13.79 43.95 
DOCKED: USER  keepresnum = 1 
DOCKED: USER  
DOCKED: REMARK  13 active torsions:
DOCKED: REMARK  status: ('A' for Active; 'I' for Inactive)
DOCKED: REMARK    1  A    between atoms: O_3  and  C_38 
DOCKED: REMARK    2  A    between atoms: O_4  and  C_40 
DOCKED: REMARK    3  A    between atoms: O_7  and  C_46 
DOCKED: REMARK    4  A    between atoms: O_9  and  C_48 
DOCKED: REMARK    5  A    between atoms: C_15  and  C_20 
DOCKED: REMARK    6  A    between atoms: C_16  and  C_23 
DOCKED: REMARK    7  A    between atoms: C_20  and  C_38 
DOCKED: REMARK    8  A    between atoms: C_23  and  C_40 
DOCKED: REMARK    9  A    between atoms: C_32  and  C_41 
DOCKED: REMARK   10  A    between atoms: C_37  and  C_45 
DOCKED: REMARK   11  A    between atoms: C_41  and  C_44 
DOCKED: REMARK   12  A    between atoms: C_44  and  C_46 
DOCKED: REMARK   13  A    between atoms: C_47  and  C_48 
DOCKED: USER                              x       y       z     vdW  Elec       q    Type
DOCKED: USER                           _______ _______ _______ _____ _____    ______ ____
DOCKED: ROOT
DOCKED: ATOM      1  O   UNL d   1      27.467  39.403  -3.052 -0.12 -0.02    -0.289 OA
DOCKED: ATOM      2  O   UNL d   1      25.018  46.405  -1.883 -0.08 -0.04    -0.289 OA
DOCKED: ATOM      3  N   UNL d   1      25.057  40.892  -5.019 -0.12 -0.04    -0.247 NA
DOCKED: ATOM      4  N   UNL d   1      24.542  43.470  -3.635 -0.20 -0.04    -0.247 NA
DOCKED: ATOM      5  N   UNL d   1      22.185  43.763  -5.255 -0.09 -0.04    -0.354 N 
DOCKED: ATOM      6  N   UNL d   1      22.716  41.078  -6.673 -0.01 -0.08    -0.354 N 
DOCKED: ATOM      7  C   UNL d   1      26.023  38.644  -4.873 -0.17 +0.00    +0.084 A 
DOCKED: ATOM      8  C   UNL d   1      26.353  44.391  -2.278 -0.12 +0.01    +0.084 A 
DOCKED: ATOM      9  C   UNL d   1      25.803  43.243  -3.130 -0.21 +0.01    +0.058 A 
DOCKED: ATOM     10  C   UNL d   1      25.033  39.607  -5.535 -0.16 +0.01    +0.058 A 
DOCKED: ATOM     11  C   UNL d   1      26.624  39.618  -3.905 -0.15 +0.02    +0.193 A 
DOCKED: ATOM     12  C   UNL d   1      25.973  40.951  -4.109 -0.17 +0.01    +0.109 A 
DOCKED: ATOM     13  C   UNL d   1      25.156  45.296  -2.361 -0.07 +0.03    +0.193 A 
DOCKED: ATOM     14  C   UNL d   1      25.313  37.539  -4.088 -0.26 +0.00    +0.026 C 
DOCKED: ATOM     15  C   UNL d   1      26.473  42.097  -3.323 -0.20 +0.01    +0.055 C 
DOCKED: ATOM     16  C   UNL d   1      27.540  45.083  -2.955 -0.05 +0.00    +0.026 C 
DOCKED: ATOM     17  C   UNL d   1      24.126  44.618  -3.205 -0.23 +0.01    +0.109 A 
DOCKED: ATOM     18  C   UNL d   1      24.282  39.230  -6.587 -0.16 +0.01    +0.050 C 
DOCKED: ATOM     19  C   UNL d   1      23.403  40.072  -7.314 -0.13 +0.01    +0.045 A 
DOCKED: ATOM     20  C   UNL d   1      21.989  44.788  -4.366 -0.28 +0.00    +0.045 A 
DOCKED: ATOM     21  C   UNL d   1      22.819  45.254  -3.428 -0.26 +0.00    +0.057 C 
DOCKED: ATOM     22  C   UNL d   1      20.123  44.572  -5.667 -0.36 -0.00    -0.019 A 
DOCKED: ATOM     23  C   UNL d   1      21.113  43.557  -6.082 -0.28 +0.01    +0.045 A 
DOCKED: ATOM     24  C   UNL d   1      20.648  45.298  -4.652 -0.28 +0.00    -0.022 A 
DOCKED: ATOM     25  C   UNL d   1      21.858  41.708  -7.544 -0.20 +0.01    +0.049 A 
DOCKED: ATOM     26  C   UNL d   1      23.008  40.072  -8.643 -0.09 -0.00    -0.018 A 
DOCKED: ATOM     27  C   UNL d   1      22.047  41.120  -8.787 -0.14 +0.00    +0.003 A 
DOCKED: ATOM     28  C   UNL d   1      20.928  42.678  -7.078 -0.30 +0.01    +0.052 C 
DOCKED: ATOM     29  C   UNL d   1      20.040  46.439  -3.910 -0.32 -0.01    +0.046 C 
DOCKED: ATOM     30  C   UNL d   1      23.494  39.157  -9.716 -0.04 +0.01    +0.046 C 
DOCKED: ATOM     31  H   UNL d   1      23.077  43.285  -5.317 +0.06 +0.02    +0.166 HD
DOCKED: ATOM     32  H   UNL d   1      22.814  41.283  -5.686 +0.11 +0.05    +0.166 HD
DOCKED: ENDROOT
DOCKED: BRANCH   7  33
DOCKED: ATOM     33  C   UNL d   1      27.102  38.072  -5.800 -0.05 +0.01    +0.141 C 
DOCKED: BRANCH  33  34
DOCKED: ATOM     34  C   UNL d   1      28.022  39.132  -6.341 -0.01 +0.01    +0.306 C 
DOCKED: ATOM     35  O   UNL d   1      27.837  39.804  -7.341 -0.01 -0.01    -0.251 OA
DOCKED: BRANCH  34  36
DOCKED: ATOM     36  O   UNL d   1      29.127  39.291  -5.592 +0.00 -0.02    -0.481 OA
DOCKED: ATOM     37  H   UNL d   1      28.848  39.045  -4.684 +0.03 +0.02    +0.295 HD
DOCKED: ENDBRANCH  34  36
DOCKED: ENDBRANCH  33  34
DOCKED: ENDBRANCH   7  33
DOCKED: BRANCH  27  38
DOCKED: ATOM     38  C   UNL d   1      21.370  41.457 -10.002 -0.09 +0.01    +0.017 C 
DOCKED: ATOM     39  C   UNL d   1      20.822  42.651 -10.278 -0.09 +0.03    +0.092 C 
DOCKED: BRANCH  39  40
DOCKED: ATOM     40  C   UNL d   1      20.170  42.873 -11.571 -0.06 +0.11    +0.330 C 
DOCKED: ATOM     41  O   UNL d   1      19.557  42.066 -12.244 -0.38 -0.13    -0.246 OA
DOCKED: BRANCH  40  42
DOCKED: ATOM     42  O   UNL d   1      20.325  44.150 -11.953 -0.00 -0.07    -0.477 OA
DOCKED: ATOM     43  H   UNL d   1      19.469  44.568 -11.729 +0.03 +0.04    +0.295 HD
DOCKED: ENDBRANCH  40  42
DOCKED: ENDBRANCH  39  40
DOCKED: ENDBRANCH  27  38
DOCKED: BRANCH   8  44
DOCKED: ATOM     44  C   UNL d   1      26.674  44.038  -0.822 -0.16 +0.03    +0.141 C 
DOCKED: BRANCH  44  45
DOCKED: ATOM     45  C   UNL d   1      27.138  45.219  -0.012 -0.09 +0.10    +0.306 C 
DOCKED: ATOM     46  O   UNL d   1      28.290  45.588   0.140 -0.06 -0.08    -0.251 OA
DOCKED: BRANCH  45  47
DOCKED: ATOM     47  O   UNL d   1      26.122  45.862   0.590 -0.05 -0.21    -0.481 OA
DOCKED: ATOM     48  H   UNL d   1      25.735  46.428  -0.112 +0.07 +0.08    +0.295 HD
DOCKED: ENDBRANCH  45  47
DOCKED: ENDBRANCH  44  45
DOCKED: ENDBRANCH   8  44
DOCKED: BRANCH  22  49
DOCKED: ATOM     49  C   UNL d   1      18.765  44.726  -6.285 -0.35 +0.00    +0.048 C 
DOCKED: BRANCH  49  50
DOCKED: ATOM     50  C   UNL d   1      18.804  44.531  -7.801 -0.15 +0.02    +0.125 C 
DOCKED: BRANCH  50  51
DOCKED: ATOM     51  C   UNL d   1      19.538  45.660  -8.468 -0.05 +0.02    +0.305 C 
DOCKED: ATOM     52  O   UNL d   1      20.127  46.582  -7.933 -0.02 -0.00    -0.251 OA
DOCKED: BRANCH  51  53
DOCKED: ATOM     53  O   UNL d   1      19.479  45.574  -9.812 +0.00 -0.03    -0.481 OA
DOCKED: ATOM     54  H   UNL d   1      20.365  45.242 -10.068 +0.04 +0.03    +0.295 HD
DOCKED: ENDBRANCH  51  53
DOCKED: ENDBRANCH  50  51
DOCKED: ENDBRANCH  49  50
DOCKED: ENDBRANCH  22  49
DOCKED: TORSDOF 13
DOCKED: TER
DOCKED: ENDMDL
________________________________________________________________________________


	BEGINNING GENETIC ALGORITHM DOCKING 50 of 100
Run: 50 Seed: 772190866 222441342 [ Run 50 of 100 GA/GALS ]
Beginning LAMARCKIAN GENETIC ALGORITHM (LGA), with a maximum of 25000000 energy evaluations.

Final-Value: -12.373


	FINAL GENETIC ALGORITHM DOCKED STATE
	_______________________________________________


Detailed state:  trans 19.423 48.731 -3.558 quatxyzw -0.024763 0.317045 -0.451985 0.833414 center 0.153 0.018 -0.028 ntor 13 165.4159 178.2135 111.1929 26.0974 -145.7767 -14.2194 -50.3709 20.6797 15.9559 -145.9520 -82.2254 -2.9062 -11.7824
State:	 19.423  48.731  -3.558  -0.045  0.574 -0.818 67.098    165.42  178.21  111.19   26.10 -145.78  -14.22  -50.37   20.68   15.96 -145.95  -82.23   -2.91  -11.78

DOCKED: MODEL       50
DOCKED: USER    Run = 50
DOCKED: USER    DPF = D:/Protein_go_brrr/autodock/final/6BB5/heme/dock.dpf
DOCKED: USER  
DOCKED: USER    Estimated Free Energy of Binding    =   -3.89 kcal/mol  [=(1)+(2)+(3)-(4)]
DOCKED: USER    Estimated Inhibition Constant, Ki   =    1.41 mM (millimolar)  [Temperature = 298.15 K]
DOCKED: USER    
DOCKED: USER    (1) Final Intermolecular Energy     =   -7.77 kcal/mol
DOCKED: USER        vdW + Hbond + desolv Energy     =   -7.76 kcal/mol
DOCKED: USER        Electrostatic Energy            =   -0.00 kcal/mol
DOCKED: USER    (2) Final Total Internal Energy     =   -4.61 kcal/mol
DOCKED: USER    (3) Torsional Free Energy           =   +3.88 kcal/mol
DOCKED: USER    (4) Unbound System's Energy  [=(2)] =   -4.61 kcal/mol
DOCKED: USER    
DOCKED: USER    
DOCKED: USER    NEWDPF move heme_opt.pdbqt
DOCKED: USER    NEWDPF about 0.153000 0.018000 -0.028000
DOCKED: USER    NEWDPF tran0 19.423040 48.730600 -3.558149
DOCKED: USER    NEWDPF quaternion0 -0.024763 0.317045 -0.451985 0.833414
DOCKED: USER    NEWDPF axisangle0 -0.044808 0.573682 -0.817851 67.097936
DOCKED: USER    NEWDPF quat0 -0.044808 0.573682 -0.817851 67.097936
DOCKED: USER    NEWDPF dihe0 165.42 178.21 111.19 26.10 -145.78 -14.22 -50.37 20.68 15.96 -145.95 -82.23 -2.91 -11.78 
DOCKED: USER  keepresnum = 1 
DOCKED: USER  
DOCKED: REMARK  13 active torsions:
DOCKED: REMARK  status: ('A' for Active; 'I' for Inactive)
DOCKED: REMARK    1  A    between atoms: O_3  and  C_38 
DOCKED: REMARK    2  A    between atoms: O_4  and  C_40 
DOCKED: REMARK    3  A    between atoms: O_7  and  C_46 
DOCKED: REMARK    4  A    between atoms: O_9  and  C_48 
DOCKED: REMARK    5  A    between atoms: C_15  and  C_20 
DOCKED: REMARK    6  A    between atoms: C_16  and  C_23 
DOCKED: REMARK    7  A    between atoms: C_20  and  C_38 
DOCKED: REMARK    8  A    between atoms: C_23  and  C_40 
DOCKED: REMARK    9  A    between atoms: C_32  and  C_41 
DOCKED: REMARK   10  A    between atoms: C_37  and  C_45 
DOCKED: REMARK   11  A    between atoms: C_41  and  C_44 
DOCKED: REMARK   12  A    between atoms: C_44  and  C_46 
DOCKED: REMARK   13  A    between atoms: C_47  and  C_48 
DOCKED: USER                              x       y       z     vdW  Elec       q    Type
DOCKED: USER                           _______ _______ _______ _____ _____    ______ ____
DOCKED: ROOT
DOCKED: ATOM      1  O   UNL d   1      15.606  45.376  -6.546 -0.34 +0.08    -0.289 OA
DOCKED: ATOM      2  O   UNL d   1      22.912  44.428  -5.093 -0.14 -0.02    -0.289 OA
DOCKED: ATOM      3  N   UNL d   1      17.490  47.710  -4.844 -0.13 +0.05    -0.247 NA
DOCKED: ATOM      4  N   UNL d   1      20.109  46.351  -4.496 -0.17 +0.03    -0.247 NA
DOCKED: ATOM      5  N   UNL d   1      20.804  48.382  -2.583 -0.08 +0.06    -0.354 N 
DOCKED: ATOM      6  N   UNL d   1      18.076  49.774  -2.936 -0.09 +0.11    -0.354 N 
DOCKED: ATOM      7  C   UNL d   1      15.111  47.468  -5.383 -0.34 -0.02    +0.084 A 
DOCKED: ATOM      8  C   UNL d   1      20.705  44.637  -6.132 -0.22 +0.00    +0.084 A 
DOCKED: ATOM      9  C   UNL d   1      19.671  45.623  -5.579 -0.26 -0.00    +0.058 A 
DOCKED: ATOM     10  C   UNL d   1      16.230  48.270  -4.712 -0.24 -0.01    +0.058 A 
DOCKED: ATOM     11  C   UNL d   1      15.964  46.365  -5.934 -0.23 -0.04    +0.193 A 
DOCKED: ATOM     12  C   UNL d   1      17.388  46.639  -5.562 -0.25 -0.01    +0.109 A 
DOCKED: ATOM     13  C   UNL d   1      21.798  44.913  -5.138 -0.17 +0.01    +0.193 A 
DOCKED: ATOM     14  C   UNL d   1      14.136  46.877  -4.362 -0.52 -0.01    +0.026 C 
DOCKED: ATOM     15  C   UNL d   1      18.430  45.728  -6.078 -0.31 -0.00    +0.055 C 
DOCKED: ATOM     16  C   UNL d   1      21.192  45.046  -7.525 -0.11 +0.00    +0.026 C 
DOCKED: ATOM     17  C   UNL d   1      21.308  45.965  -4.197 -0.21 -0.01    +0.109 A 
DOCKED: ATOM     18  C   UNL d   1      15.991  49.460  -4.131 -0.27 -0.01    +0.050 C 
DOCKED: ATOM     19  C   UNL d   1      16.973  50.310  -3.561 -0.22 -0.01    +0.045 A 
DOCKED: ATOM     20  C   UNL d   1      21.841  47.508  -2.386 -0.21 -0.00    +0.045 A 
DOCKED: ATOM     21  C   UNL d   1      22.156  46.411  -3.081 -0.25 -0.00    +0.057 C 
DOCKED: ATOM     22  C   UNL d   1      21.949  49.150  -0.802 -0.14 +0.00    -0.019 A 
DOCKED: ATOM     23  C   UNL d   1      20.785  49.406  -1.674 -0.17 -0.01    +0.045 A 
DOCKED: ATOM     24  C   UNL d   1      22.571  48.026  -1.229 -0.15 -0.00    -0.022 A 
DOCKED: ATOM     25  C   UNL d   1      18.847  50.769  -2.379 -0.22 -0.01    +0.049 A 
DOCKED: ATOM     26  C   UNL d   1      17.047  51.689  -3.440 -0.20 +0.00    -0.018 A 
DOCKED: ATOM     27  C   UNL d   1      18.242  51.974  -2.710 -0.19 -0.00    +0.003 A 
DOCKED: ATOM     28  C   UNL d   1      19.955  50.453  -1.547 -0.24 -0.01    +0.052 C 
DOCKED: ATOM     29  C   UNL d   1      23.793  47.371  -0.682 +0.01 +0.01    +0.046 C 
DOCKED: ATOM     30  C   UNL d   1      16.071  52.683  -3.970 -0.16 -0.01    +0.046 C 
DOCKED: ATOM     31  H   UNL d   1      20.182  48.290  -3.379 +0.03 -0.03    +0.166 HD
DOCKED: ATOM     32  H   UNL d   1      18.255  48.779  -2.870 -0.37 -0.09    +0.166 HD
DOCKED: ENDROOT
DOCKED: BRANCH   7  33
DOCKED: ATOM     33  C   UNL d   1      14.372  48.192  -6.514 -0.19 -0.02    +0.141 C 
DOCKED: BRANCH  33  34
DOCKED: ATOM     34  C   UNL d   1      15.267  48.509  -7.681 -0.07 -0.03    +0.306 C 
DOCKED: ATOM     35  O   UNL d   1      15.898  49.539  -7.845 -0.03 +0.02    -0.251 OA
DOCKED: BRANCH  34  36
DOCKED: ATOM     36  O   UNL d   1      15.321  47.510  -8.580 -0.04 +0.05    -0.481 OA
DOCKED: ATOM     37  H   UNL d   1      14.979  46.727  -8.099 +0.11 -0.04    +0.295 HD
DOCKED: ENDBRANCH  34  36
DOCKED: ENDBRANCH  33  34
DOCKED: ENDBRANCH   7  33
DOCKED: BRANCH  27  38
DOCKED: ATOM     38  C   UNL d   1      18.696  53.283  -2.348 -0.06 -0.00    +0.017 C 
DOCKED: ATOM     39  C   UNL d   1      19.980  53.663  -2.268 -0.11 -0.01    +0.092 C 
DOCKED: BRANCH  39  40
DOCKED: ATOM     40  C   UNL d   1      20.312  55.042  -1.902 -0.06 -0.03    +0.330 C 
DOCKED: ATOM     41  O   UNL d   1      19.576  56.011  -1.907 -0.07 +0.03    -0.246 OA
DOCKED: BRANCH  40  42
DOCKED: ATOM     42  O   UNL d   1      21.598  55.124  -1.527 -0.01 +0.04    -0.477 OA
DOCKED: ATOM     43  H   UNL d   1      21.919  54.201  -1.588 +0.03 -0.03    +0.295 HD
DOCKED: ENDBRANCH  40  42
DOCKED: ENDBRANCH  39  40
DOCKED: ENDBRANCH  27  38
DOCKED: BRANCH   8  44
DOCKED: ATOM     44  C   UNL d   1      20.295  43.161  -6.099 -0.25 +0.02    +0.141 C 
DOCKED: BRANCH  44  45
DOCKED: ATOM     45  C   UNL d   1      21.154  42.285  -6.972 -0.18 +0.07    +0.306 C 
DOCKED: ATOM     46  O   UNL d   1      20.922  41.953  -8.121 -0.05 -0.09    -0.251 OA
DOCKED: BRANCH  45  47
DOCKED: ATOM     47  O   UNL d   1      22.256  41.848  -6.336 -0.06 -0.11    -0.481 OA
DOCKED: ATOM     48  H   UNL d   1      22.813  42.648  -6.227 +0.10 +0.05    +0.295 HD
DOCKED: ENDBRANCH  45  47
DOCKED: ENDBRANCH  44  45
DOCKED: ENDBRANCH   8  44
DOCKED: BRANCH  22  49
DOCKED: ATOM     49  C   UNL d   1      22.332  50.011   0.366 -0.12 -0.00    +0.048 C 
DOCKED: BRANCH  49  50
DOCKED: ATOM     50  C   UNL d   1      23.388  51.049  -0.015 -0.03 -0.00    +0.125 C 
DOCKED: BRANCH  50  51
DOCKED: ATOM     51  C   UNL d   1      22.755  52.384  -0.285 -0.03 -0.03    +0.305 C 
DOCKED: ATOM     52  O   UNL d   1      21.626  52.742  -0.001 -0.10 +0.05    -0.251 OA
DOCKED: BRANCH  51  53
DOCKED: ATOM     53  O   UNL d   1      23.596  53.220  -0.927 +0.00 +0.02    -0.481 OA
DOCKED: ATOM     54  H   UNL d   1      23.278  54.114  -0.680 +0.02 -0.02    +0.295 HD
DOCKED: ENDBRANCH  51  53
DOCKED: ENDBRANCH  50  51
DOCKED: ENDBRANCH  49  50
DOCKED: ENDBRANCH  22  49
DOCKED: TORSDOF 13
DOCKED: TER
DOCKED: ENDMDL
________________________________________________________________________________


	BEGINNING GENETIC ALGORITHM DOCKING 51 of 100
Run: 51 Seed: 1880773581 565656854 [ Run 51 of 100 GA/GALS ]
Beginning LAMARCKIAN GENETIC ALGORITHM (LGA), with a maximum of 25000000 energy evaluations.

Final-Value: -10.969


	FINAL GENETIC ALGORITHM DOCKED STATE
	_______________________________________________


Detailed state:  trans 22.963 42.543 -6.064 quatxyzw -0.371146 -0.391671 0.833128 -0.121418 center 0.153 0.018 -0.028 ntor 13 -180.0000 153.2147 -89.3604 4.9673 -152.9249 53.3644 176.1889 -4.0604 12.9856 -105.9146 -60.7967 -57.3362 2.1305
State:	 22.963  42.543  -6.064  -0.374 -0.395  0.839 -166.052   -180.00  153.21  -89.36    4.97 -152.92   53.36  176.19   -4.06   12.99 -105.91  -60.80  -57.34    2.13

DOCKED: MODEL       51
DOCKED: USER    Run = 51
DOCKED: USER    DPF = D:/Protein_go_brrr/autodock/final/6BB5/heme/dock.dpf
DOCKED: USER  
DOCKED: USER    Estimated Free Energy of Binding    =   -2.79 kcal/mol  [=(1)+(2)+(3)-(4)]
DOCKED: USER    Estimated Inhibition Constant, Ki   =    9.05 mM (millimolar)  [Temperature = 298.15 K]
DOCKED: USER    
DOCKED: USER    (1) Final Intermolecular Energy     =   -6.67 kcal/mol
DOCKED: USER        vdW + Hbond + desolv Energy     =   -6.58 kcal/mol
DOCKED: USER        Electrostatic Energy            =   -0.09 kcal/mol
DOCKED: USER    (2) Final Total Internal Energy     =   -4.30 kcal/mol
DOCKED: USER    (3) Torsional Free Energy           =   +3.88 kcal/mol
DOCKED: USER    (4) Unbound System's Energy  [=(2)] =   -4.30 kcal/mol
DOCKED: USER    
DOCKED: USER    
DOCKED: USER    NEWDPF move heme_opt.pdbqt
DOCKED: USER    NEWDPF about 0.153000 0.018000 -0.028000
DOCKED: USER    NEWDPF tran0 22.963153 42.543478 -6.063817
DOCKED: USER    NEWDPF quaternion0 -0.371146 -0.391671 0.833128 -0.121418
DOCKED: USER    NEWDPF axisangle0 -0.373912 -0.394590 0.839338 -166.052111
DOCKED: USER    NEWDPF quat0 -0.373912 -0.394590 0.839338 -166.052111
DOCKED: USER    NEWDPF dihe0 -180.00 153.21 -89.36 4.97 -152.92 53.36 176.19 -4.06 12.99 -105.91 -60.80 -57.34 2.13 
DOCKED: USER  keepresnum = 1 
DOCKED: USER  
DOCKED: REMARK  13 active torsions:
DOCKED: REMARK  status: ('A' for Active; 'I' for Inactive)
DOCKED: REMARK    1  A    between atoms: O_3  and  C_38 
DOCKED: REMARK    2  A    between atoms: O_4  and  C_40 
DOCKED: REMARK    3  A    between atoms: O_7  and  C_46 
DOCKED: REMARK    4  A    between atoms: O_9  and  C_48 
DOCKED: REMARK    5  A    between atoms: C_15  and  C_20 
DOCKED: REMARK    6  A    between atoms: C_16  and  C_23 
DOCKED: REMARK    7  A    between atoms: C_20  and  C_38 
DOCKED: REMARK    8  A    between atoms: C_23  and  C_40 
DOCKED: REMARK    9  A    between atoms: C_32  and  C_41 
DOCKED: REMARK   10  A    between atoms: C_37  and  C_45 
DOCKED: REMARK   11  A    between atoms: C_41  and  C_44 
DOCKED: REMARK   12  A    between atoms: C_44  and  C_46 
DOCKED: REMARK   13  A    between atoms: C_47  and  C_48 
DOCKED: USER                              x       y       z     vdW  Elec       q    Type
DOCKED: USER                           _______ _______ _______ _____ _____    ______ ____
DOCKED: ROOT
DOCKED: ATOM      1  O   UNL d   1      26.550  38.291  -4.111 -0.14 -0.01    -0.289 OA
DOCKED: ATOM      2  O   UNL d   1      25.508  45.338  -1.734 -0.09 -0.05    -0.289 OA
DOCKED: ATOM      3  N   UNL d   1      24.405  40.493  -5.676 -0.06 -0.04    -0.247 NA
DOCKED: ATOM      4  N   UNL d   1      24.430  42.862  -3.883 -0.19 -0.04    -0.247 NA
DOCKED: ATOM      5  N   UNL d   1      22.122  43.838  -5.292 -0.10 -0.04    -0.354 N 
DOCKED: ATOM      6  N   UNL d   1      22.091  41.368  -7.135 -0.11 -0.08    -0.354 N 
DOCKED: ATOM      7  C   UNL d   1      24.933  38.114  -5.936 -0.14 +0.00    +0.084 A 
DOCKED: ATOM      8  C   UNL d   1      26.425  43.206  -2.513 -0.17 +0.01    +0.084 A 
DOCKED: ATOM      9  C   UNL d   1      25.641  42.331  -3.497 -0.22 +0.01    +0.058 A 
DOCKED: ATOM     10  C   UNL d   1      24.122  39.335  -6.380 -0.15 +0.01    +0.058 A 
DOCKED: ATOM     11  C   UNL d   1      25.737  38.791  -4.867 -0.16 +0.01    +0.193 A 
DOCKED: ATOM     12  C   UNL d   1      25.344  40.236  -4.825 -0.18 +0.01    +0.109 A 
DOCKED: ATOM     13  C   UNL d   1      25.418  44.315  -2.384 -0.15 +0.03    +0.193 A 
DOCKED: ATOM     14  C   UNL d   1      24.051  37.043  -5.287 -0.23 +0.00    +0.026 C 
DOCKED: ATOM     15  C   UNL d   1      26.076  41.129  -3.904 -0.21 +0.01    +0.055 C 
DOCKED: ATOM     16  C   UNL d   1      27.700  43.771  -3.147 -0.07 +0.00    +0.026 C 
DOCKED: ATOM     17  C   UNL d   1      24.253  43.982  -3.257 -0.27 +0.02    +0.109 A 
DOCKED: ATOM     18  C   UNL d   1      23.281  39.276  -7.429 -0.15 +0.01    +0.050 C 
DOCKED: ATOM     19  C   UNL d   1      22.555  40.371  -7.964 -0.14 +0.01    +0.045 A 
DOCKED: ATOM     20  C   UNL d   1      22.151  44.724  -4.246 -0.26 +0.00    +0.045 A 
DOCKED: ATOM     21  C   UNL d   1      23.084  44.873  -3.300 -0.25 +0.00    +0.057 C 
DOCKED: ATOM     22  C   UNL d   1      20.239  45.064  -5.448 -0.31 +0.00    -0.019 A 
DOCKED: ATOM     23  C   UNL d   1      21.005  43.967  -6.074 -0.28 +0.00    +0.045 A 
DOCKED: ATOM     24  C   UNL d   1      20.923  45.509  -4.368 -0.29 +0.00    -0.022 A 
DOCKED: ATOM     25  C   UNL d   1      21.341  42.276  -7.845 -0.18 +0.01    +0.049 A 
DOCKED: ATOM     26  C   UNL d   1      22.126  40.658  -9.250 -0.12 -0.01    -0.018 A 
DOCKED: ATOM     27  C   UNL d   1      21.376  41.873  -9.173 -0.08 +0.00    +0.003 A 
DOCKED: ATOM     28  C   UNL d   1      20.626  43.310  -7.180 -0.28 +0.01    +0.052 C 
DOCKED: ATOM     29  C   UNL d   1      20.566  46.605  -3.423 -0.29 -0.01    +0.046 C 
DOCKED: ATOM     30  C   UNL d   1      22.396  39.857 -10.479 -0.09 +0.01    +0.046 C 
DOCKED: ATOM     31  H   UNL d   1      22.905  43.222  -5.481 +0.06 +0.03    +0.166 HD
DOCKED: ATOM     32  H   UNL d   1      22.257  41.388  -6.136 +0.08 +0.04    +0.166 HD
DOCKED: ENDROOT
DOCKED: BRANCH   7  33
DOCKED: ATOM     33  C   UNL d   1      25.854  37.513  -7.003 -0.04 +0.00    +0.141 C 
DOCKED: BRANCH  33  34
DOCKED: ATOM     34  C   UNL d   1      26.894  38.487  -7.486 -0.01 +0.01    +0.306 C 
DOCKED: ATOM     35  O   UNL d   1      26.838  39.154  -8.505 -0.00 -0.01    -0.251 OA
DOCKED: BRANCH  34  36
DOCKED: ATOM     36  O   UNL d   1      27.949  38.573  -6.656 +0.00 -0.02    -0.481 OA
DOCKED: ATOM     37  H   UNL d   1      27.724  37.979  -5.909 +0.03 +0.01    +0.295 HD
DOCKED: ENDBRANCH  34  36
DOCKED: ENDBRANCH  33  34
DOCKED: ENDBRANCH   7  33
DOCKED: BRANCH  27  38
DOCKED: ATOM     38  C   UNL d   1      20.737  42.520 -10.278 -0.07 +0.01    +0.017 C 
DOCKED: ATOM     39  C   UNL d   1      19.734  43.406 -10.183 -0.10 +0.03    +0.092 C 
DOCKED: BRANCH  39  40
DOCKED: ATOM     40  C   UNL d   1      19.177  44.012 -11.395 -0.05 +0.07    +0.330 C 
DOCKED: ATOM     41  O   UNL d   1      18.782  43.445 -12.396 -0.07 -0.06    -0.246 OA
DOCKED: BRANCH  40  42
DOCKED: ATOM     42  O   UNL d   1      19.140  45.348 -11.268 +0.00 -0.04    -0.477 OA
DOCKED: ATOM     43  H   UNL d   1      19.073  45.490 -10.301 +0.04 +0.02    +0.295 HD
DOCKED: ENDBRANCH  40  42
DOCKED: ENDBRANCH  39  40
DOCKED: ENDBRANCH  27  38
DOCKED: BRANCH   8  44
DOCKED: ATOM     44  C   UNL d   1      26.718  42.569  -1.151 -0.21 +0.02    +0.141 C 
DOCKED: BRANCH  44  45
DOCKED: ATOM     45  C   UNL d   1      26.940  43.580  -0.058 -0.13 +0.09    +0.306 C 
DOCKED: ATOM     46  O   UNL d   1      26.431  43.576   1.050 -0.19 -0.12    -0.251 OA
DOCKED: BRANCH  45  47
DOCKED: ATOM     47  O   UNL d   1      27.776  44.566  -0.430 -0.02 -0.13    -0.481 OA
DOCKED: ATOM     48  H   UNL d   1      27.193  45.252  -0.820 +0.06 +0.07    +0.295 HD
DOCKED: ENDBRANCH  45  47
DOCKED: ENDBRANCH  44  45
DOCKED: ENDBRANCH   8  44
DOCKED: BRANCH  22  49
DOCKED: ATOM     49  C   UNL d   1      18.915  45.561  -5.951 -0.32 -0.00    +0.048 C 
DOCKED: BRANCH  49  50
DOCKED: ATOM     50  C   UNL d   1      19.079  46.534  -7.119 -0.10 -0.00    +0.125 C 
DOCKED: BRANCH  50  51
DOCKED: ATOM     51  C   UNL d   1      18.387  46.017  -8.348 -0.07 +0.00    +0.305 C 
DOCKED: ATOM     52  O   UNL d   1      17.913  44.909  -8.524 -0.17 -0.02    -0.251 OA
DOCKED: BRANCH  51  53
DOCKED: ATOM     53  O   UNL d   1      18.337  46.945  -9.325 +0.01 +0.00    -0.481 OA
DOCKED: ATOM     54  H   UNL d   1      17.806  46.519 -10.030 +0.05 -0.00    +0.295 HD
DOCKED: ENDBRANCH  51  53
DOCKED: ENDBRANCH  50  51
DOCKED: ENDBRANCH  49  50
DOCKED: ENDBRANCH  22  49
DOCKED: TORSDOF 13
DOCKED: TER
DOCKED: ENDMDL
________________________________________________________________________________


	BEGINNING GENETIC ALGORITHM DOCKING 52 of 100
Run: 52 Seed: 1588417290 256849945 [ Run 52 of 100 GA/GALS ]
Beginning LAMARCKIAN GENETIC ALGORITHM (LGA), with a maximum of 25000000 energy evaluations.

Final-Value: -10.797


	FINAL GENETIC ALGORITHM DOCKED STATE
	_______________________________________________


Detailed state:  trans 33.138 14.537 26.551 quatxyzw 0.251320 0.445909 0.832212 0.213134 center 0.153 0.018 -0.028 ntor 13 173.6976 169.7407 123.0853 55.8199 -148.7799 -83.5399 -76.7334 39.4279 16.6034 -144.8070 -86.6922 21.0815 0.9230
State:	 33.138  14.537  26.551   0.257  0.456  0.852 155.388    173.70  169.74  123.09   55.82 -148.78  -83.54  -76.73   39.43   16.60 -144.81  -86.69   21.08    0.92

DOCKED: MODEL       52
DOCKED: USER    Run = 52
DOCKED: USER    DPF = D:/Protein_go_brrr/autodock/final/6BB5/heme/dock.dpf
DOCKED: USER  
DOCKED: USER    Estimated Free Energy of Binding    =   -2.31 kcal/mol  [=(1)+(2)+(3)-(4)]
DOCKED: USER    Estimated Inhibition Constant, Ki   =   20.16 mM (millimolar)  [Temperature = 298.15 K]
DOCKED: USER    
DOCKED: USER    (1) Final Intermolecular Energy     =   -6.19 kcal/mol
DOCKED: USER        vdW + Hbond + desolv Energy     =   -6.09 kcal/mol
DOCKED: USER        Electrostatic Energy            =   -0.10 kcal/mol
DOCKED: USER    (2) Final Total Internal Energy     =   -4.61 kcal/mol
DOCKED: USER    (3) Torsional Free Energy           =   +3.88 kcal/mol
DOCKED: USER    (4) Unbound System's Energy  [=(2)] =   -4.61 kcal/mol
DOCKED: USER    
DOCKED: USER    
DOCKED: USER    NEWDPF move heme_opt.pdbqt
DOCKED: USER    NEWDPF about 0.153000 0.018000 -0.028000
DOCKED: USER    NEWDPF tran0 33.138187 14.536986 26.551227
DOCKED: USER    NEWDPF quaternion0 0.251320 0.445909 0.832212 0.213134
DOCKED: USER    NEWDPF axisangle0 0.257230 0.456395 0.851784 155.387829
DOCKED: USER    NEWDPF quat0 0.257230 0.456395 0.851784 155.387829
DOCKED: USER    NEWDPF dihe0 173.70 169.74 123.09 55.82 -148.78 -83.54 -76.73 39.43 16.60 -144.81 -86.69 21.08 0.92 
DOCKED: USER  keepresnum = 1 
DOCKED: USER  
DOCKED: REMARK  13 active torsions:
DOCKED: REMARK  status: ('A' for Active; 'I' for Inactive)
DOCKED: REMARK    1  A    between atoms: O_3  and  C_38 
DOCKED: REMARK    2  A    between atoms: O_4  and  C_40 
DOCKED: REMARK    3  A    between atoms: O_7  and  C_46 
DOCKED: REMARK    4  A    between atoms: O_9  and  C_48 
DOCKED: REMARK    5  A    between atoms: C_15  and  C_20 
DOCKED: REMARK    6  A    between atoms: C_16  and  C_23 
DOCKED: REMARK    7  A    between atoms: C_20  and  C_38 
DOCKED: REMARK    8  A    between atoms: C_23  and  C_40 
DOCKED: REMARK    9  A    between atoms: C_32  and  C_41 
DOCKED: REMARK   10  A    between atoms: C_37  and  C_45 
DOCKED: REMARK   11  A    between atoms: C_41  and  C_44 
DOCKED: REMARK   12  A    between atoms: C_44  and  C_46 
DOCKED: REMARK   13  A    between atoms: C_47  and  C_48 
DOCKED: USER                              x       y       z     vdW  Elec       q    Type
DOCKED: USER                           _______ _______ _______ _____ _____    ______ ____
DOCKED: ROOT
DOCKED: ATOM      1  O   UNL d   1      38.656  14.956  24.519 -0.29 +0.10    -0.289 OA
DOCKED: ATOM      2  O   UNL d   1      32.053  16.022  21.106 -0.24 -0.18    -0.289 OA
DOCKED: ATOM      3  N   UNL d   1      35.633  14.456  26.102 -0.13 +0.12    -0.247 NA
DOCKED: ATOM      4  N   UNL d   1      33.650  15.402  24.101 -0.24 +0.04    -0.247 NA
DOCKED: ATOM      5  N   UNL d   1      31.669  15.366  26.185 -0.09 +0.12    -0.354 N 
DOCKED: ATOM      6  N   UNL d   1      33.737  14.404  28.258 -0.01 +0.32    -0.354 N 
DOCKED: ATOM      7  C   UNL d   1      37.980  14.434  26.809 -0.15 -0.02    +0.084 A 
DOCKED: ATOM      8  C   UNL d   1      34.306  15.313  21.749 -0.23 +0.00    +0.084 A 
DOCKED: ATOM      9  C   UNL d   1      34.679  15.141  23.225 -0.25 -0.01    +0.058 A 
DOCKED: ATOM     10  C   UNL d   1      36.499  14.284  27.169 -0.14 -0.03    +0.058 A 
DOCKED: ATOM     11  C   UNL d   1      37.799  14.703  25.345 -0.17 -0.06    +0.193 A 
DOCKED: ATOM     12  C   UNL d   1      36.334  14.665  25.035 -0.18 -0.04    +0.109 A 
DOCKED: ATOM     13  C   UNL d   1      32.884  15.757  21.952 -0.17 +0.05    +0.193 A 
DOCKED: ATOM     14  C   UNL d   1      38.609  15.665  27.465 -0.20 -0.01    +0.026 C 
DOCKED: ATOM     15  C   UNL d   1      35.917  14.814  23.627 -0.19 -0.02    +0.055 C 
DOCKED: ATOM     16  C   UNL d   1      34.302  13.975  21.004 -0.15 +0.00    +0.026 C 
DOCKED: ATOM     17  C   UNL d   1      32.614  15.776  23.421 -0.21 +0.01    +0.109 A 
DOCKED: ATOM     18  C   UNL d   1      36.109  13.925  28.406 -0.10 -0.02    +0.050 C 
DOCKED: ATOM     19  C   UNL d   1      34.771  13.681  28.809 -0.07 -0.02    +0.045 A 
DOCKED: ATOM     20  C   UNL d   1      30.964  16.010  25.201 -0.21 -0.00    +0.045 A 
DOCKED: ATOM     21  C   UNL d   1      31.305  16.217  23.925 -0.26 +0.01    +0.057 C 
DOCKED: ATOM     22  C   UNL d   1      29.742  16.047  27.130 -0.04 +0.00    -0.019 A 
DOCKED: ATOM     23  C   UNL d   1      31.011  15.338  27.386 -0.11 -0.01    +0.045 A 
DOCKED: ATOM     24  C   UNL d   1      29.719  16.441  25.835 -0.17 +0.00    -0.022 A 
DOCKED: ATOM     25  C   UNL d   1      32.543  14.070  28.854 -0.08 -0.02    +0.049 A 
DOCKED: ATOM     26  C   UNL d   1      34.231  12.830  29.761 -0.02 +0.00    -0.018 A 
DOCKED: ATOM     27  C   UNL d   1      32.822  13.066  29.771 -0.02 -0.00    +0.003 A 
DOCKED: ATOM     28  C   UNL d   1      31.356  14.795  28.563 -0.12 -0.02    +0.052 C 
DOCKED: ATOM     29  C   UNL d   1      28.650  17.178  25.102 -0.18 +0.00    +0.046 C 
DOCKED: ATOM     30  C   UNL d   1      34.976  11.854  30.608 -0.00 -0.01    +0.046 C 
DOCKED: ATOM     31  H   UNL d   1      32.547  14.900  25.984 +0.03 -0.07    +0.166 HD
DOCKED: ATOM     32  H   UNL d   1      33.866  15.109  27.543 -0.49 -0.27    +0.166 HD
DOCKED: ENDROOT
DOCKED: BRANCH   7  33
DOCKED: ATOM     33  C   UNL d   1      38.838  13.182  27.023 -0.04 -0.02    +0.141 C 
DOCKED: BRANCH  33  34
DOCKED: ATOM     34  C   UNL d   1      38.430  12.041  26.131 -0.00 -0.03    +0.306 C 
DOCKED: ATOM     35  O   UNL d   1      37.665  11.137  26.422 -0.00 +0.02    -0.251 OA
DOCKED: BRANCH  34  36
DOCKED: ATOM     36  O   UNL d   1      39.007  12.099  24.918 +0.01 +0.04    -0.481 OA
DOCKED: ATOM     37  H   UNL d   1      39.444  12.977  24.895 +0.07 -0.03    +0.295 HD
DOCKED: ENDBRANCH  34  36
DOCKED: ENDBRANCH  33  34
DOCKED: ENDBRANCH   7  33
DOCKED: BRANCH  27  38
DOCKED: ATOM     38  C   UNL d   1      31.880  12.405  30.624 -0.00 -0.00    +0.017 C 
DOCKED: ATOM     39  C   UNL d   1      30.821  11.695  30.206 +0.00 -0.01    +0.092 C 
DOCKED: BRANCH  39  40
DOCKED: ATOM     40  C   UNL d   1      29.941  11.051  31.185 +0.00 -0.01    +0.330 C 
DOCKED: ATOM     41  O   UNL d   1      30.080   9.960  31.704 +0.00 +0.00    -0.246 OA
DOCKED: BRANCH  40  42
DOCKED: ATOM     42  O   UNL d   1      28.904  11.853  31.470 +0.00 +0.01    -0.477 OA
DOCKED: ATOM     43  H   UNL d   1      29.145  12.706  31.055 +0.01 -0.01    +0.295 HD
DOCKED: ENDBRANCH  40  42
DOCKED: ENDBRANCH  39  40
DOCKED: ENDBRANCH  27  38
DOCKED: BRANCH   8  44
DOCKED: ATOM     44  C   UNL d   1      35.107  16.372  20.984 -0.45 -0.01    +0.141 C 
DOCKED: BRANCH  44  45
DOCKED: ATOM     45  C   UNL d   1      34.955  16.269  19.490 -0.33 +0.00    +0.306 C 
DOCKED: ATOM     46  O   UNL d   1      35.846  16.090  18.679 -0.42 +0.03    -0.251 OA
DOCKED: BRANCH  45  47
DOCKED: ATOM     47  O   UNL d   1      33.679  16.424  19.091 -0.10 -0.16    -0.481 OA
DOCKED: ATOM     48  H   UNL d   1      33.184  15.723  19.566 +0.16 +0.13    +0.295 HD
DOCKED: ENDBRANCH  45  47
DOCKED: ENDBRANCH  44  45
DOCKED: ENDBRANCH   8  44
DOCKED: BRANCH  22  49
DOCKED: ATOM     49  C   UNL d   1      28.685  16.284  28.169 -0.09 -0.00    +0.048 C 
DOCKED: BRANCH  49  50
DOCKED: ATOM     50  C   UNL d   1      27.776  15.068  28.344 -0.02 -0.00    +0.125 C 
DOCKED: BRANCH  50  51
DOCKED: ATOM     51  C   UNL d   1      28.262  14.191  29.463 +0.00 -0.01    +0.305 C 
DOCKED: ATOM     52  O   UNL d   1      28.819  14.537  30.489 -0.01 +0.02    -0.251 OA
DOCKED: BRANCH  51  53
DOCKED: ATOM     53  O   UNL d   1      28.026  12.887  29.220 +0.00 +0.01    -0.481 OA
DOCKED: ATOM     54  H   UNL d   1      27.514  12.588  30.000 +0.00 -0.01    +0.295 HD
DOCKED: ENDBRANCH  51  53
DOCKED: ENDBRANCH  50  51
DOCKED: ENDBRANCH  49  50
DOCKED: ENDBRANCH  22  49
DOCKED: TORSDOF 13
DOCKED: TER
DOCKED: ENDMDL
________________________________________________________________________________


	BEGINNING GENETIC ALGORITHM DOCKING 53 of 100
Run: 53 Seed: 1295747735 1685632512 [ Run 53 of 100 GA/GALS ]
Beginning LAMARCKIAN GENETIC ALGORITHM (LGA), with a maximum of 25000000 energy evaluations.

Final-Value: -15.285


	FINAL GENETIC ALGORITHM DOCKED STATE
	_______________________________________________


Detailed state:  trans 42.972 27.450 16.590 quatxyzw 0.273968 0.114898 -0.953630 0.048268 center 0.153 0.018 -0.028 ntor 13 126.9434 132.9055 -148.2849 60.0014 -132.2581 87.2947 130.9534 139.8988 25.4769 -4.8925 -71.6966 -94.6699 -6.6665
State:	 42.972  27.450  16.590   0.274  0.115 -0.955 174.467    126.94  132.91 -148.28   60.00 -132.26   87.29  130.95  139.90   25.48   -4.89  -71.70  -94.67   -6.67

DOCKED: MODEL       53
DOCKED: USER    Run = 53
DOCKED: USER    DPF = D:/Protein_go_brrr/autodock/final/6BB5/heme/dock.dpf
DOCKED: USER  
DOCKED: USER    Estimated Free Energy of Binding    =   -7.12 kcal/mol  [=(1)+(2)+(3)-(4)]
DOCKED: USER    Estimated Inhibition Constant, Ki   =    6.02 uM (micromolar)  [Temperature = 298.15 K]
DOCKED: USER    
DOCKED: USER    (1) Final Intermolecular Energy     =  -11.00 kcal/mol
DOCKED: USER        vdW + Hbond + desolv Energy     =  -10.45 kcal/mol
DOCKED: USER        Electrostatic Energy            =   -0.55 kcal/mol
DOCKED: USER    (2) Final Total Internal Energy     =   -4.28 kcal/mol
DOCKED: USER    (3) Torsional Free Energy           =   +3.88 kcal/mol
DOCKED: USER    (4) Unbound System's Energy  [=(2)] =   -4.28 kcal/mol
DOCKED: USER    
DOCKED: USER    
DOCKED: USER    NEWDPF move heme_opt.pdbqt
DOCKED: USER    NEWDPF about 0.153000 0.018000 -0.028000
DOCKED: USER    NEWDPF tran0 42.972451 27.449940 16.589796
DOCKED: USER    NEWDPF quaternion0 0.273968 0.114898 -0.953630 0.048268
DOCKED: USER    NEWDPF axisangle0 0.274288 0.115032 -0.954743 174.466702
DOCKED: USER    NEWDPF quat0 0.274288 0.115032 -0.954743 174.466702
DOCKED: USER    NEWDPF dihe0 126.94 132.91 -148.28 60.00 -132.26 87.29 130.95 139.90 25.48 -4.89 -71.70 -94.67 -6.67 
DOCKED: USER  keepresnum = 1 
DOCKED: USER  
DOCKED: REMARK  13 active torsions:
DOCKED: REMARK  status: ('A' for Active; 'I' for Inactive)
DOCKED: REMARK    1  A    between atoms: O_3  and  C_38 
DOCKED: REMARK    2  A    between atoms: O_4  and  C_40 
DOCKED: REMARK    3  A    between atoms: O_7  and  C_46 
DOCKED: REMARK    4  A    between atoms: O_9  and  C_48 
DOCKED: REMARK    5  A    between atoms: C_15  and  C_20 
DOCKED: REMARK    6  A    between atoms: C_16  and  C_23 
DOCKED: REMARK    7  A    between atoms: C_20  and  C_38 
DOCKED: REMARK    8  A    between atoms: C_23  and  C_40 
DOCKED: REMARK    9  A    between atoms: C_32  and  C_41 
DOCKED: REMARK   10  A    between atoms: C_37  and  C_45 
DOCKED: REMARK   11  A    between atoms: C_41  and  C_44 
DOCKED: REMARK   12  A    between atoms: C_44  and  C_46 
DOCKED: REMARK   13  A    between atoms: C_47  and  C_48 
DOCKED: USER                              x       y       z     vdW  Elec       q    Type
DOCKED: USER                           _______ _______ _______ _____ _____    ______ ____
DOCKED: ROOT
DOCKED: ATOM      1  O   UNL d   1      47.320  24.819  19.578 -0.01 -0.15    -0.289 OA
DOCKED: ATOM      2  O   UNL d   1      46.202  32.038  17.839 -0.07 -0.06    -0.289 OA
DOCKED: ATOM      3  N   UNL d   1      44.657  25.888  17.665 -0.11 -0.09    -0.247 NA
DOCKED: ATOM      4  N   UNL d   1      44.884  28.849  17.773 -0.10 -0.09    -0.247 NA
DOCKED: ATOM      5  N   UNL d   1      42.221  29.000  16.701 -0.15 -0.08    -0.354 N 
DOCKED: ATOM      6  N   UNL d   1      41.987  25.927  16.610 -0.16 -0.07    -0.354 N 
DOCKED: ATOM      7  C   UNL d   1      45.336  23.744  18.639 -0.13 +0.04    +0.084 A 
DOCKED: ATOM      8  C   UNL d   1      47.106  29.787  18.164 -0.12 +0.03    +0.084 A 
DOCKED: ATOM      9  C   UNL d   1      46.197  28.557  18.066 -0.11 +0.02    +0.058 A 
DOCKED: ATOM     10  C   UNL d   1      44.327  24.552  17.817 -0.19 +0.02    +0.058 A 
DOCKED: ATOM     11  C   UNL d   1      46.304  24.856  18.908 -0.04 +0.10    +0.193 A 
DOCKED: ATOM     12  C   UNL d   1      45.795  26.098  18.244 -0.11 +0.05    +0.109 A 
DOCKED: ATOM     13  C   UNL d   1      46.058  30.833  17.910 -0.10 +0.05    +0.193 A 
DOCKED: ATOM     14  C   UNL d   1      44.745  23.269  19.968 -0.12 +0.01    +0.026 C 
DOCKED: ATOM     15  C   UNL d   1      46.636  27.310  18.296 -0.13 +0.02    +0.055 C 
DOCKED: ATOM     16  C   UNL d   1      48.130  29.829  17.025 -0.02 +0.01    +0.026 C 
DOCKED: ATOM     17  C   UNL d   1      44.754  30.135  17.696 -0.18 +0.03    +0.109 A 
DOCKED: ATOM     18  C   UNL d   1      43.268  23.965  17.230 -0.32 +0.01    +0.050 C 
DOCKED: ATOM     19  C   UNL d   1      42.331  24.614  16.385 -0.32 +0.01    +0.045 A 
DOCKED: ATOM     20  C   UNL d   1      42.415  30.315  17.035 -0.33 +0.01    +0.045 A 
DOCKED: ATOM     21  C   UNL d   1      43.529  30.914  17.467 -0.30 +0.01    +0.057 C 
DOCKED: ATOM     22  C   UNL d   1      40.245  30.033  16.378 -0.25 -0.00    -0.019 A 
DOCKED: ATOM     23  C   UNL d   1      40.941  28.733  16.292 +0.05 +0.01    +0.045 A 
DOCKED: ATOM     24  C   UNL d   1      41.123  30.965  16.816 -0.40 -0.00    -0.022 A 
DOCKED: ATOM     25  C   UNL d   1      41.002  26.325  15.735 -0.39 +0.01    +0.049 A 
DOCKED: ATOM     26  C   UNL d   1      41.579  24.158  15.314 -0.39 -0.00    -0.018 A 
DOCKED: ATOM     27  C   UNL d   1      40.756  25.248  14.895 -0.44 +0.00    +0.003 A 
DOCKED: ATOM     28  C   UNL d   1      40.372  27.592  15.873 -0.33 +0.01    +0.052 C 
DOCKED: ATOM     29  C   UNL d   1      40.899  32.420  17.052 -0.40 +0.01    +0.046 C 
DOCKED: ATOM     30  C   UNL d   1      41.622  22.794  14.712 -0.40 +0.01    +0.046 C 
DOCKED: ATOM     31  H   UNL d   1      42.991  28.340  16.692 +0.08 +0.04    +0.166 HD
DOCKED: ATOM     32  H   UNL d   1      42.385  26.493  17.350 +0.08 +0.04    +0.166 HD
DOCKED: ENDROOT
DOCKED: BRANCH   7  33
DOCKED: ATOM     33  C   UNL d   1      46.027  22.599  17.889 -0.15 +0.08    +0.141 C 
DOCKED: BRANCH  33  34
DOCKED: ATOM     34  C   UNL d   1      47.049  23.089  16.900 -0.14 +0.31    +0.306 C 
DOCKED: ATOM     35  O   UNL d   1      46.819  23.552  15.796 -0.24 -0.25    -0.251 OA
DOCKED: BRANCH  34  36
DOCKED: ATOM     36  O   UNL d   1      48.309  22.970  17.355 -0.59 -0.69    -0.481 OA
DOCKED: ATOM     37  H   UNL d   1      48.311  23.457  18.206 +0.05 +0.25    +0.295 HD
DOCKED: ENDBRANCH  34  36
DOCKED: ENDBRANCH  33  34
DOCKED: ENDBRANCH   7  33
DOCKED: BRANCH  27  38
DOCKED: ATOM     38  C   UNL d   1      39.809  25.203  13.821 -0.53 +0.00    +0.017 C 
DOCKED: ATOM     39  C   UNL d   1      38.498  25.463  13.934 -0.47 +0.01    +0.092 C 
DOCKED: BRANCH  39  40
DOCKED: ATOM     40  C   UNL d   1      37.637  25.399  12.750 -0.30 +0.05    +0.330 C 
DOCKED: ATOM     41  O   UNL d   1      37.093  24.418  12.279 -0.47 -0.05    -0.246 OA
DOCKED: BRANCH  40  42
DOCKED: ATOM     42  O   UNL d   1      37.497  26.621  12.214 -0.09 -0.07    -0.477 OA
DOCKED: ATOM     43  H   UNL d   1      37.293  27.193  12.982 +0.24 +0.04    +0.295 HD
DOCKED: ENDBRANCH  40  42
DOCKED: ENDBRANCH  39  40
DOCKED: ENDBRANCH  27  38
DOCKED: BRANCH   8  44
DOCKED: ATOM     44  C   UNL d   1      47.780  30.003  19.523 -0.07 +0.06    +0.141 C 
DOCKED: BRANCH  44  45
DOCKED: ATOM     45  C   UNL d   1      46.805  30.049  20.669 -0.08 +0.21    +0.306 C 
DOCKED: ATOM     46  O   UNL d   1      46.378  29.097  21.299 -0.48 -0.34    -0.251 OA
DOCKED: BRANCH  45  47
DOCKED: ATOM     47  O   UNL d   1      46.394  31.300  20.945 -0.06 -0.27    -0.481 OA
DOCKED: ATOM     48  H   UNL d   1      46.417  31.765  20.082 +0.08 +0.11    +0.295 HD
DOCKED: ENDBRANCH  45  47
DOCKED: ENDBRANCH  44  45
DOCKED: ENDBRANCH   8  44
DOCKED: BRANCH  22  49
DOCKED: ATOM     49  C   UNL d   1      38.798  30.237  16.040 -0.37 +0.01    +0.048 C 
DOCKED: BRANCH  49  50
DOCKED: ATOM     50  C   UNL d   1      38.602  30.596  14.567 -0.28 +0.02    +0.125 C 
DOCKED: BRANCH  50  51
DOCKED: ATOM     51  C   UNL d   1      37.967  29.459  13.818 -0.22 +0.05    +0.305 C 
DOCKED: ATOM     52  O   UNL d   1      37.036  29.514  13.033 -0.30 -0.03    -0.251 OA
DOCKED: BRANCH  51  53
DOCKED: ATOM     53  O   UNL d   1      38.543  28.276  14.112 -0.26 -0.10    -0.481 OA
DOCKED: ATOM     54  H   UNL d   1      38.875  27.952  13.249 +0.21 +0.05    +0.295 HD
DOCKED: ENDBRANCH  51  53
DOCKED: ENDBRANCH  50  51
DOCKED: ENDBRANCH  49  50
DOCKED: ENDBRANCH  22  49
DOCKED: TORSDOF 13
DOCKED: TER
DOCKED: ENDMDL
________________________________________________________________________________


	BEGINNING GENETIC ALGORITHM DOCKING 54 of 100
Run: 54 Seed: 563866702 988528247 [ Run 54 of 100 GA/GALS ]
Beginning LAMARCKIAN GENETIC ALGORITHM (LGA), with a maximum of 25000000 energy evaluations.

Final-Value: -10.174


	FINAL GENETIC ALGORITHM DOCKED STATE
	_______________________________________________


Detailed state:  trans 45.403 20.975 22.427 quatxyzw 0.536637 -0.113383 0.792156 0.267681 center 0.153 0.018 -0.028 ntor 13 104.5343 132.5378 -122.7146 -129.7503 -140.4044 84.5615 151.3842 44.5973 28.7326 -84.6223 60.4858 -94.0888 118.2017
State:	 45.403  20.975  22.427   0.557 -0.118  0.822 148.947    104.53  132.54 -122.71 -129.75 -140.40   84.56  151.38   44.60   28.73  -84.62   60.49  -94.09  118.20

DOCKED: MODEL       54
DOCKED: USER    Run = 54
DOCKED: USER    DPF = D:/Protein_go_brrr/autodock/final/6BB5/heme/dock.dpf
DOCKED: USER  
DOCKED: USER    Estimated Free Energy of Binding    =   -3.19 kcal/mol  [=(1)+(2)+(3)-(4)]
DOCKED: USER    Estimated Inhibition Constant, Ki   =    4.62 mM (millimolar)  [Temperature = 298.15 K]
DOCKED: USER    
DOCKED: USER    (1) Final Intermolecular Energy     =   -7.06 kcal/mol
DOCKED: USER        vdW + Hbond + desolv Energy     =   -6.63 kcal/mol
DOCKED: USER        Electrostatic Energy            =   -0.43 kcal/mol
DOCKED: USER    (2) Final Total Internal Energy     =   -3.11 kcal/mol
DOCKED: USER    (3) Torsional Free Energy           =   +3.88 kcal/mol
DOCKED: USER    (4) Unbound System's Energy  [=(2)] =   -3.11 kcal/mol
DOCKED: USER    
DOCKED: USER    
DOCKED: USER    NEWDPF move heme_opt.pdbqt
DOCKED: USER    NEWDPF about 0.153000 0.018000 -0.028000
DOCKED: USER    NEWDPF tran0 45.402729 20.975436 22.426856
DOCKED: USER    NEWDPF quaternion0 0.536637 -0.113383 0.792156 0.267681
DOCKED: USER    NEWDPF axisangle0 0.556962 -0.117677 0.822159 148.947351
DOCKED: USER    NEWDPF quat0 0.556962 -0.117677 0.822159 148.947351
DOCKED: USER    NEWDPF dihe0 104.53 132.54 -122.71 -129.75 -140.40 84.56 151.38 44.60 28.73 -84.62 60.49 -94.09 118.20 
DOCKED: USER  keepresnum = 1 
DOCKED: USER  
DOCKED: REMARK  13 active torsions:
DOCKED: REMARK  status: ('A' for Active; 'I' for Inactive)
DOCKED: REMARK    1  A    between atoms: O_3  and  C_38 
DOCKED: REMARK    2  A    between atoms: O_4  and  C_40 
DOCKED: REMARK    3  A    between atoms: O_7  and  C_46 
DOCKED: REMARK    4  A    between atoms: O_9  and  C_48 
DOCKED: REMARK    5  A    between atoms: C_15  and  C_20 
DOCKED: REMARK    6  A    between atoms: C_16  and  C_23 
DOCKED: REMARK    7  A    between atoms: C_20  and  C_38 
DOCKED: REMARK    8  A    between atoms: C_23  and  C_40 
DOCKED: REMARK    9  A    between atoms: C_32  and  C_41 
DOCKED: REMARK   10  A    between atoms: C_37  and  C_45 
DOCKED: REMARK   11  A    between atoms: C_41  and  C_44 
DOCKED: REMARK   12  A    between atoms: C_44  and  C_46 
DOCKED: REMARK   13  A    between atoms: C_47  and  C_48 
DOCKED: USER                              x       y       z     vdW  Elec       q    Type
DOCKED: USER                           _______ _______ _______ _____ _____    ______ ____
DOCKED: ROOT
DOCKED: ATOM      1  O   UNL d   1      48.079  22.704  17.466 -0.45 -0.39    -0.289 OA
DOCKED: ATOM      2  O   UNL d   1      43.245  26.283  21.963 -0.80 -0.41    -0.289 OA
DOCKED: ATOM      3  N   UNL d   1      46.649  21.219  20.231 -0.08 -0.09    -0.247 NA
DOCKED: ATOM      4  N   UNL d   1      45.164  23.450  21.514 -0.23 -0.13    -0.247 NA
DOCKED: ATOM      5  N   UNL d   1      44.894  21.802  23.854 -0.10 -0.11    -0.354 N 
DOCKED: ATOM      6  N   UNL d   1      46.453  19.499  22.523 -0.05 -0.07    -0.354 N 
DOCKED: ATOM      7  C   UNL d   1      48.370  20.565  18.613 -0.06 +0.06    +0.084 A 
DOCKED: ATOM      8  C   UNL d   1      44.431  25.280  20.071 -0.19 +0.05    +0.084 A 
DOCKED: ATOM      9  C   UNL d   1      45.214  23.975  20.242 -0.15 +0.03    +0.058 A 
DOCKED: ATOM     10  C   UNL d   1      47.543  20.229  19.858 -0.08 +0.02    +0.058 A 
DOCKED: ATOM     11  C   UNL d   1      47.772  21.912  18.339 -0.07 +0.16    +0.193 A 
DOCKED: ATOM     12  C   UNL d   1      46.724  22.183  19.373 -0.09 +0.05    +0.109 A 
DOCKED: ATOM     13  C   UNL d   1      43.958  25.419  21.490 -0.20 +0.18    +0.193 A 
DOCKED: ATOM     14  C   UNL d   1      49.856  20.740  18.941 -0.05 +0.02    +0.026 C 
DOCKED: ATOM     15  C   UNL d   1      45.929  23.421  19.250 -0.13 +0.03    +0.055 C 
DOCKED: ATOM     16  C   UNL d   1      43.213  25.097  19.161 -0.35 +0.01    +0.026 C 
DOCKED: ATOM     17  C   UNL d   1      44.476  24.250  22.263 -0.19 +0.08    +0.109 A 
DOCKED: ATOM     18  C   UNL d   1      47.636  19.029  20.460 -0.09 +0.01    +0.050 C 
DOCKED: ATOM     19  C   UNL d   1      46.852  18.599  21.562 -0.09 +0.01    +0.045 A 
DOCKED: ATOM     20  C   UNL d   1      44.444  22.996  24.354 -0.20 +0.02    +0.045 A 
DOCKED: ATOM     21  C   UNL d   1      44.205  24.139  23.704 -0.22 +0.04    +0.057 C 
DOCKED: ATOM     22  C   UNL d   1      44.609  21.494  26.067 -0.16 -0.00    -0.019 A 
DOCKED: ATOM     23  C   UNL d   1      45.025  20.834  24.814 -0.17 +0.01    +0.045 A 
DOCKED: ATOM     24  C   UNL d   1      44.265  22.774  25.788 -0.18 -0.01    -0.022 A 
DOCKED: ATOM     25  C   UNL d   1      45.786  18.856  23.540 -0.04 +0.01    +0.049 A 
DOCKED: ATOM     26  C   UNL d   1      46.402  17.345  21.944 -0.14 -0.00    -0.018 A 
DOCKED: ATOM     27  C   UNL d   1      45.712  17.517  23.184 -0.13 +0.00    +0.003 A 
DOCKED: ATOM     28  C   UNL d   1      45.413  19.552  24.722 -0.17 +0.01    +0.052 C 
DOCKED: ATOM     29  C   UNL d   1      43.770  23.830  26.717 -0.21 +0.02    +0.046 C 
DOCKED: ATOM     30  C   UNL d   1      46.597  16.065  21.205 -0.12 +0.01    +0.046 C 
DOCKED: ATOM     31  H   UNL d   1      45.026  21.665  22.858 +0.04 +0.05    +0.166 HD
DOCKED: ATOM     32  H   UNL d   1      46.667  20.489  22.488 +0.03 +0.04    +0.166 HD
DOCKED: ENDROOT
DOCKED: BRANCH   7  33
DOCKED: ATOM     33  C   UNL d   1      48.165  19.631  17.416 -0.07 +0.14    +0.141 C 
DOCKED: BRANCH  33  34
DOCKED: ATOM     34  C   UNL d   1      46.875  19.898  16.688 -0.08 +0.27    +0.306 C 
DOCKED: ATOM     35  O   UNL d   1      45.783  19.430  16.962 -0.10 -0.12    -0.251 OA
DOCKED: BRANCH  34  36
DOCKED: ATOM     36  O   UNL d   1      47.029  20.743  15.653 -0.20 -0.73    -0.481 OA
DOCKED: ATOM     37  H   UNL d   1      47.081  21.632  16.066 +0.07 +0.48    +0.295 HD
DOCKED: ENDBRANCH  34  36
DOCKED: ENDBRANCH  33  34
DOCKED: ENDBRANCH   7  33
DOCKED: BRANCH  27  38
DOCKED: ATOM     38  C   UNL d   1      45.099  16.466  23.940 -0.17 +0.00    +0.017 C 
DOCKED: ATOM     39  C   UNL d   1      45.389  16.158  25.214 -0.09 +0.01    +0.092 C 
DOCKED: BRANCH  39  40
DOCKED: ATOM     40  C   UNL d   1      44.674  15.067  25.881 -0.02 +0.02    +0.330 C 
DOCKED: ATOM     41  O   UNL d   1      44.909  13.875  25.816 -0.01 -0.01    -0.246 OA
DOCKED: BRANCH  40  42
DOCKED: ATOM     42  O   UNL d   1      43.674  15.558  26.628 -0.01 -0.01    -0.477 OA
DOCKED: ATOM     43  H   UNL d   1      44.090  16.291  27.126 +0.05 +0.01    +0.295 HD
DOCKED: ENDBRANCH  40  42
DOCKED: ENDBRANCH  39  40
DOCKED: ENDBRANCH  27  38
DOCKED: BRANCH   8  44
DOCKED: ATOM     44  C   UNL d   1      45.261  26.497  19.648 -0.14 +0.09    +0.141 C 
DOCKED: BRANCH  44  45
DOCKED: ATOM     45  C   UNL d   1      44.946  27.736  20.443 -0.10 +0.36    +0.306 C 
DOCKED: ATOM     46  O   UNL d   1      45.650  28.250  21.296 -0.30 -0.51    -0.251 OA
DOCKED: BRANCH  45  47
DOCKED: ATOM     47  O   UNL d   1      43.741  28.251  20.140 -0.24 -0.44    -0.481 OA
DOCKED: ATOM     48  H   UNL d   1      43.111  27.516  20.298 +0.16 +0.28    +0.295 HD
DOCKED: ENDBRANCH  45  47
DOCKED: ENDBRANCH  44  45
DOCKED: ENDBRANCH   8  44
DOCKED: BRANCH  22  49
DOCKED: ATOM     49  C   UNL d   1      44.600  20.824  27.410 -0.14 +0.01    +0.048 C 
DOCKED: BRANCH  49  50
DOCKED: ATOM     50  C   UNL d   1      45.751  19.829  27.556 -0.04 +0.02    +0.125 C 
DOCKED: BRANCH  50  51
DOCKED: ATOM     51  C   UNL d   1      45.231  18.437  27.781 -0.03 +0.03    +0.305 C 
DOCKED: ATOM     52  O   UNL d   1      44.257  17.916  27.265 -0.07 -0.02    -0.251 OA
DOCKED: BRANCH  51  53
DOCKED: ATOM     53  O   UNL d   1      45.975  17.759  28.676 +0.01 -0.04    -0.481 OA
DOCKED: ATOM     54  H   UNL d   1      46.050  18.371  29.437 +0.01 +0.03    +0.295 HD
DOCKED: ENDBRANCH  51  53
DOCKED: ENDBRANCH  50  51
DOCKED: ENDBRANCH  49  50
DOCKED: ENDBRANCH  22  49
DOCKED: TORSDOF 13
DOCKED: TER
DOCKED: ENDMDL
________________________________________________________________________________


	BEGINNING GENETIC ALGORITHM DOCKING 55 of 100
Run: 55 Seed: 341432440 1197682013 [ Run 55 of 100 GA/GALS ]
Beginning LAMARCKIAN GENETIC ALGORITHM (LGA), with a maximum of 25000000 energy evaluations.

Final-Value: -10.793


	FINAL GENETIC ALGORITHM DOCKED STATE
	_______________________________________________


Detailed state:  trans 41.248 15.449 13.177 quatxyzw -0.522712 0.717092 -0.459443 0.038253 center 0.153 0.018 -0.028 ntor 13 -106.3320 -177.7585 112.3538 41.4958 -52.0305 -88.9759 -39.9832 48.8515 128.9934 -119.7319 -75.8022 14.3704 -0.9485
State:	 41.248  15.449  13.177  -0.523  0.718 -0.460 175.615   -106.33 -177.76  112.35   41.50  -52.03  -88.98  -39.98   48.85  128.99 -119.73  -75.80   14.37   -0.95

DOCKED: MODEL       55
DOCKED: USER    Run = 55
DOCKED: USER    DPF = D:/Protein_go_brrr/autodock/final/6BB5/heme/dock.dpf
DOCKED: USER  
DOCKED: USER    Estimated Free Energy of Binding    =   -3.14 kcal/mol  [=(1)+(2)+(3)-(4)]
DOCKED: USER    Estimated Inhibition Constant, Ki   =    5.02 mM (millimolar)  [Temperature = 298.15 K]
DOCKED: USER    
DOCKED: USER    (1) Final Intermolecular Energy     =   -7.01 kcal/mol
DOCKED: USER        vdW + Hbond + desolv Energy     =   -6.51 kcal/mol
DOCKED: USER        Electrostatic Energy            =   -0.50 kcal/mol
DOCKED: USER    (2) Final Total Internal Energy     =   -3.78 kcal/mol
DOCKED: USER    (3) Torsional Free Energy           =   +3.88 kcal/mol
DOCKED: USER    (4) Unbound System's Energy  [=(2)] =   -3.78 kcal/mol
DOCKED: USER    
DOCKED: USER    
DOCKED: USER    NEWDPF move heme_opt.pdbqt
DOCKED: USER    NEWDPF about 0.153000 0.018000 -0.028000
DOCKED: USER    NEWDPF tran0 41.248176 15.448715 13.176841
DOCKED: USER    NEWDPF quaternion0 -0.522712 0.717092 -0.459443 0.038253
DOCKED: USER    NEWDPF axisangle0 -0.523095 0.717618 -0.459779 175.615494
DOCKED: USER    NEWDPF quat0 -0.523095 0.717618 -0.459779 175.615494
DOCKED: USER    NEWDPF dihe0 -106.33 -177.76 112.35 41.50 -52.03 -88.98 -39.98 48.85 128.99 -119.73 -75.80 14.37 -0.95 
DOCKED: USER  keepresnum = 1 
DOCKED: USER  
DOCKED: REMARK  13 active torsions:
DOCKED: REMARK  status: ('A' for Active; 'I' for Inactive)
DOCKED: REMARK    1  A    between atoms: O_3  and  C_38 
DOCKED: REMARK    2  A    between atoms: O_4  and  C_40 
DOCKED: REMARK    3  A    between atoms: O_7  and  C_46 
DOCKED: REMARK    4  A    between atoms: O_9  and  C_48 
DOCKED: REMARK    5  A    between atoms: C_15  and  C_20 
DOCKED: REMARK    6  A    between atoms: C_16  and  C_23 
DOCKED: REMARK    7  A    between atoms: C_20  and  C_38 
DOCKED: REMARK    8  A    between atoms: C_23  and  C_40 
DOCKED: REMARK    9  A    between atoms: C_32  and  C_41 
DOCKED: REMARK   10  A    between atoms: C_37  and  C_45 
DOCKED: REMARK   11  A    between atoms: C_41  and  C_44 
DOCKED: REMARK   12  A    between atoms: C_44  and  C_46 
DOCKED: REMARK   13  A    between atoms: C_47  and  C_48 
DOCKED: USER                              x       y       z     vdW  Elec       q    Type
DOCKED: USER                           _______ _______ _______ _____ _____    ______ ____
DOCKED: ROOT
DOCKED: ATOM      1  O   UNL d   1      42.727  19.058   8.756 -0.30 -0.07    -0.289 OA
DOCKED: ATOM      2  O   UNL d   1      45.577  18.299  15.662 -0.04 -0.12    -0.289 OA
DOCKED: ATOM      3  N   UNL d   1      41.427  16.869  11.083 -0.06 -0.03    -0.247 NA
DOCKED: ATOM      4  N   UNL d   1      43.353  17.047  13.339 -0.04 -0.05    -0.247 NA
DOCKED: ATOM      5  N   UNL d   1      42.144  14.681  14.436 -0.05 -0.05    -0.354 N 
DOCKED: ATOM      6  N   UNL d   1      40.163  14.492  12.083 -0.04 -0.02    -0.354 N 
DOCKED: ATOM      7  C   UNL d   1      40.995  17.333   8.716 -0.12 +0.01    +0.084 A 
DOCKED: ATOM      8  C   UNL d   1      44.618  19.125  13.567 -0.15 +0.03    +0.084 A 
DOCKED: ATOM      9  C   UNL d   1      43.633  18.268  12.766 -0.14 +0.02    +0.058 A 
DOCKED: ATOM     10  C   UNL d   1      40.673  16.522   9.974 -0.10 +0.01    +0.058 A 
DOCKED: ATOM     11  C   UNL d   1      42.052  18.212   9.314 -0.19 +0.03    +0.193 A 
DOCKED: ATOM     12  C   UNL d   1      42.203  17.851  10.759 -0.16 +0.02    +0.109 A 
DOCKED: ATOM     13  C   UNL d   1      44.874  18.151  14.682 -0.04 +0.07    +0.193 A 
DOCKED: ATOM     14  C   UNL d   1      41.630  16.470   7.623 -0.08 +0.00    +0.026 C 
DOCKED: ATOM     15  C   UNL d   1      43.130  18.654  11.583 -0.28 +0.01    +0.055 C 
DOCKED: ATOM     16  C   UNL d   1      43.944  20.372  14.147 -0.18 +0.01    +0.026 C 
DOCKED: ATOM     17  C   UNL d   1      44.053  16.929  14.421 -0.07 +0.03    +0.109 A 
DOCKED: ATOM     18  C   UNL d   1      39.674  15.620   9.993 -0.10 +0.00    +0.050 C 
DOCKED: ATOM     19  C   UNL d   1      39.250  14.886  11.130 -0.14 +0.00    +0.045 A 
DOCKED: ATOM     20  C   UNL d   1      43.237  14.789  15.256 -0.09 +0.01    +0.045 A 
DOCKED: ATOM     21  C   UNL d   1      44.133  15.778  15.332 -0.11 +0.01    +0.057 C 
DOCKED: ATOM     22  C   UNL d   1      42.174  12.816  15.700 -0.09 -0.00    -0.019 A 
DOCKED: ATOM     23  C   UNL d   1      41.440  13.522  14.631 -0.11 +0.01    +0.045 A 
DOCKED: ATOM     24  C   UNL d   1      43.236  13.572  16.067 -0.10 -0.00    -0.022 A 
DOCKED: ATOM     25  C   UNL d   1      39.554  13.720  13.045 -0.14 +0.00    +0.049 A 
DOCKED: ATOM     26  C   UNL d   1      38.011  14.388  11.502 -0.16 -0.00    -0.018 A 
DOCKED: ATOM     27  C   UNL d   1      38.205  13.669  12.722 -0.17 +0.00    +0.003 A 
DOCKED: ATOM     28  C   UNL d   1      40.321  13.066  14.048 -0.13 +0.01    +0.052 C 
DOCKED: ATOM     29  C   UNL d   1      44.264  13.292  17.110 -0.08 +0.01    +0.046 C 
DOCKED: ATOM     30  C   UNL d   1      36.723  14.570  10.772 -0.06 +0.01    +0.046 C 
DOCKED: ATOM     31  H   UNL d   1      41.872  15.439  13.820 +0.04 +0.02    +0.166 HD
DOCKED: ATOM     32  H   UNL d   1      41.150  14.716  12.040 +0.03 +0.01    +0.166 HD
DOCKED: ENDROOT
DOCKED: BRANCH   7  33
DOCKED: ATOM     33  C   UNL d   1      39.841  18.178   8.165 -0.22 -0.01    +0.141 C 
DOCKED: BRANCH  33  34
DOCKED: ATOM     34  C   UNL d   1      40.246  19.009   6.978 -0.19 -0.04    +0.306 C 
DOCKED: ATOM     35  O   UNL d   1      41.343  19.019   6.446 -0.21 -0.01    -0.251 OA
DOCKED: BRANCH  34  36
DOCKED: ATOM     36  O   UNL d   1      39.246  19.783   6.522 -0.11 +0.18    -0.481 OA
DOCKED: ATOM     37  H   UNL d   1      39.137  20.476   7.208 -0.39 -0.23    +0.295 HD
DOCKED: ENDBRANCH  34  36
DOCKED: ENDBRANCH  33  34
DOCKED: ENDBRANCH   7  33
DOCKED: BRANCH  27  38
DOCKED: ATOM     38  C   UNL d   1      37.180  12.979  13.445 -0.17 +0.00    +0.017 C 
DOCKED: ATOM     39  C   UNL d   1      36.925  13.125  14.754 -0.21 +0.02    +0.092 C 
DOCKED: BRANCH  39  40
DOCKED: ATOM     40  C   UNL d   1      35.832  12.370  15.373 -0.07 +0.05    +0.330 C 
DOCKED: ATOM     41  O   UNL d   1      34.672  12.713  15.503 -0.10 -0.05    -0.246 OA
DOCKED: BRANCH  40  42
DOCKED: ATOM     42  O   UNL d   1      36.277  11.179  15.800 +0.00 -0.05    -0.477 OA
DOCKED: ATOM     43  H   UNL d   1      37.233  11.196  15.590 +0.05 +0.03    +0.295 HD
DOCKED: ENDBRANCH  40  42
DOCKED: ENDBRANCH  39  40
DOCKED: ENDBRANCH  27  38
DOCKED: BRANCH   8  44
DOCKED: ATOM     44  C   UNL d   1      45.920  19.485  12.844 -0.25 +0.08    +0.141 C 
DOCKED: BRANCH  44  45
DOCKED: ATOM     45  C   UNL d   1      46.951  20.105  13.749 -0.14 +0.35    +0.306 C 
DOCKED: ATOM     46  O   UNL d   1      47.030  21.279  14.064 -0.65 -0.41    -0.251 OA
DOCKED: BRANCH  45  47
DOCKED: ATOM     47  O   UNL d   1      47.852  19.209  14.192 -0.26 -0.62    -0.481 OA
DOCKED: ATOM     48  H   UNL d   1      47.344  18.624  14.794 +0.06 +0.25    +0.295 HD
DOCKED: ENDBRANCH  45  47
DOCKED: ENDBRANCH  44  45
DOCKED: ENDBRANCH   8  44
DOCKED: BRANCH  22  49
DOCKED: ATOM     49  C   UNL d   1      41.781  11.476  16.248 -0.07 +0.01    +0.048 C 
DOCKED: BRANCH  49  50
DOCKED: ATOM     50  C   UNL d   1      40.720  11.597  17.341 -0.09 +0.02    +0.125 C 
DOCKED: BRANCH  50  51
DOCKED: ATOM     51  C   UNL d   1      39.371  11.180  16.827 -0.06 +0.03    +0.305 C 
DOCKED: ATOM     52  O   UNL d   1      39.108  10.223  16.120 -0.02 -0.02    -0.251 OA
DOCKED: BRANCH  51  53
DOCKED: ATOM     53  O   UNL d   1      38.396  12.020  17.229 -0.03 -0.06    -0.481 OA
DOCKED: ATOM     54  H   UNL d   1      37.651  11.426  17.461 +0.05 +0.03    +0.295 HD
DOCKED: ENDBRANCH  51  53
DOCKED: ENDBRANCH  50  51
DOCKED: ENDBRANCH  49  50
DOCKED: ENDBRANCH  22  49
DOCKED: TORSDOF 13
DOCKED: TER
DOCKED: ENDMDL
________________________________________________________________________________


	BEGINNING GENETIC ALGORITHM DOCKING 56 of 100
Run: 56 Seed: 775291422 2061995247 [ Run 56 of 100 GA/GALS ]
Beginning LAMARCKIAN GENETIC ALGORITHM (LGA), with a maximum of 25000000 energy evaluations.

Final-Value: -12.342


	FINAL GENETIC ALGORITHM DOCKED STATE
	_______________________________________________


Detailed state:  trans 19.171 49.009 -3.398 quatxyzw 0.001852 0.326899 -0.453428 0.829179 center 0.153 0.018 -0.028 ntor 13 150.3010 180.0000 -125.2784 -43.1146 -139.7582 -51.4905 -109.4406 122.2420 17.9297 -140.1429 121.0754 -32.0677 -159.5795
State:	 19.171  49.009  -3.398   0.003  0.585 -0.811 67.971    150.30  180.00 -125.28  -43.11 -139.76  -51.49 -109.44  122.24   17.93 -140.14  121.08  -32.07 -159.58

DOCKED: MODEL       56
DOCKED: USER    Run = 56
DOCKED: USER    DPF = D:/Protein_go_brrr/autodock/final/6BB5/heme/dock.dpf
DOCKED: USER  
DOCKED: USER    Estimated Free Energy of Binding    =   -6.24 kcal/mol  [=(1)+(2)+(3)-(4)]
DOCKED: USER    Estimated Inhibition Constant, Ki   =   26.82 uM (micromolar)  [Temperature = 298.15 K]
DOCKED: USER    
DOCKED: USER    (1) Final Intermolecular Energy     =  -10.11 kcal/mol
DOCKED: USER        vdW + Hbond + desolv Energy     =  -10.01 kcal/mol
DOCKED: USER        Electrostatic Energy            =   -0.10 kcal/mol
DOCKED: USER    (2) Final Total Internal Energy     =   -2.23 kcal/mol
DOCKED: USER    (3) Torsional Free Energy           =   +3.88 kcal/mol
DOCKED: USER    (4) Unbound System's Energy  [=(2)] =   -2.23 kcal/mol
DOCKED: USER    
DOCKED: USER    
DOCKED: USER    NEWDPF move heme_opt.pdbqt
DOCKED: USER    NEWDPF about 0.153000 0.018000 -0.028000
DOCKED: USER    NEWDPF tran0 19.171303 49.009094 -3.398260
DOCKED: USER    NEWDPF quaternion0 0.001852 0.326899 -0.453428 0.829179
DOCKED: USER    NEWDPF axisangle0 0.003312 0.584809 -0.811164 67.971112
DOCKED: USER    NEWDPF quat0 0.003312 0.584809 -0.811164 67.971112
DOCKED: USER    NEWDPF dihe0 150.30 180.00 -125.28 -43.11 -139.76 -51.49 -109.44 122.24 17.93 -140.14 121.08 -32.07 -159.58 
DOCKED: USER  keepresnum = 1 
DOCKED: USER  
DOCKED: REMARK  13 active torsions:
DOCKED: REMARK  status: ('A' for Active; 'I' for Inactive)
DOCKED: REMARK    1  A    between atoms: O_3  and  C_38 
DOCKED: REMARK    2  A    between atoms: O_4  and  C_40 
DOCKED: REMARK    3  A    between atoms: O_7  and  C_46 
DOCKED: REMARK    4  A    between atoms: O_9  and  C_48 
DOCKED: REMARK    5  A    between atoms: C_15  and  C_20 
DOCKED: REMARK    6  A    between atoms: C_16  and  C_23 
DOCKED: REMARK    7  A    between atoms: C_20  and  C_38 
DOCKED: REMARK    8  A    between atoms: C_23  and  C_40 
DOCKED: REMARK    9  A    between atoms: C_32  and  C_41 
DOCKED: REMARK   10  A    between atoms: C_37  and  C_45 
DOCKED: REMARK   11  A    between atoms: C_41  and  C_44 
DOCKED: REMARK   12  A    between atoms: C_44  and  C_46 
DOCKED: REMARK   13  A    between atoms: C_47  and  C_48 
DOCKED: USER                              x       y       z     vdW  Elec       q    Type
DOCKED: USER                           _______ _______ _______ _____ _____    ______ ____
DOCKED: ROOT
DOCKED: ATOM      1  O   UNL d   1      15.446  45.588  -6.427 -0.34 +0.09    -0.289 OA
DOCKED: ATOM      2  O   UNL d   1      22.671  44.618  -4.624 -0.18 -0.02    -0.289 OA
DOCKED: ATOM      3  N   UNL d   1      17.283  47.962  -4.730 -0.13 +0.05    -0.247 NA
DOCKED: ATOM      4  N   UNL d   1      19.869  46.590  -4.219 -0.18 +0.04    -0.247 NA
DOCKED: ATOM      5  N   UNL d   1      20.504  48.682  -2.352 -0.08 +0.07    -0.354 N 
DOCKED: ATOM      6  N   UNL d   1      17.812  50.089  -2.873 -0.13 +0.10    -0.354 N 
DOCKED: ATOM      7  C   UNL d   1      14.927  47.726  -5.363 -0.32 -0.02    +0.084 A 
DOCKED: ATOM      8  C   UNL d   1      20.514  44.811  -5.765 -0.26 +0.00    +0.084 A 
DOCKED: ATOM      9  C   UNL d   1      19.469  45.828  -5.294 -0.28 -0.00    +0.058 A 
DOCKED: ATOM     10  C   UNL d   1      16.026  48.540  -4.673 -0.23 -0.01    +0.058 A 
DOCKED: ATOM     11  C   UNL d   1      15.790  46.595  -5.835 -0.26 -0.04    +0.193 A 
DOCKED: ATOM     12  C   UNL d   1      17.200  46.867  -5.412 -0.25 -0.02    +0.109 A 
DOCKED: ATOM     13  C   UNL d   1      21.567  45.113  -4.736 -0.18 -0.00    +0.193 A 
DOCKED: ATOM     14  C   UNL d   1      13.902  47.183  -4.364 -0.35 -0.01    +0.026 C 
DOCKED: ATOM     15  C   UNL d   1      18.252  45.927  -5.850 -0.32 -0.00    +0.055 C 
DOCKED: ATOM     16  C   UNL d   1      21.065  45.164  -7.150 -0.13 +0.00    +0.026 C 
DOCKED: ATOM     17  C   UNL d   1      21.049  46.203  -3.855 -0.23 -0.01    +0.109 A 
DOCKED: ATOM     18  C   UNL d   1      15.776  49.753  -4.145 -0.27 -0.01    +0.050 C 
DOCKED: ATOM     19  C   UNL d   1      16.743  50.612  -3.564 -0.23 -0.01    +0.045 A 
DOCKED: ATOM     20  C   UNL d   1      21.522  47.805  -2.079 -0.20 -0.00    +0.045 A 
DOCKED: ATOM     21  C   UNL d   1      21.853  46.680  -2.720 -0.21 -0.00    +0.057 C 
DOCKED: ATOM     22  C   UNL d   1      21.581  49.503  -0.552 -0.16 +0.00    -0.019 A 
DOCKED: ATOM     23  C   UNL d   1      20.459  49.739  -1.482 -0.19 -0.01    +0.045 A 
DOCKED: ATOM     24  C   UNL d   1      22.207  48.357  -0.911 -0.16 +0.00    -0.022 A 
DOCKED: ATOM     25  C   UNL d   1      18.569  51.095  -2.319 -0.23 -0.01    +0.049 A 
DOCKED: ATOM     26  C   UNL d   1      16.828  51.994  -3.489 -0.19 +0.00    -0.018 A 
DOCKED: ATOM     27  C   UNL d   1      17.994  52.293  -2.719 -0.16 -0.00    +0.003 A 
DOCKED: ATOM     28  C   UNL d   1      19.637  50.798  -1.429 -0.26 -0.01    +0.052 C 
DOCKED: ATOM     29  C   UNL d   1      23.397  47.709  -0.288 +0.03 +0.01    +0.046 C 
DOCKED: ATOM     30  C   UNL d   1      15.887  52.978  -4.097 -0.14 -0.01    +0.046 C 
DOCKED: ATOM     31  H   UNL d   1      19.917  48.567  -3.171 +0.01 -0.04    +0.166 HD
DOCKED: ATOM     32  H   UNL d   1      17.976  49.095  -2.764 -0.27 -0.08    +0.166 HD
DOCKED: ENDROOT
DOCKED: BRANCH   7  33
DOCKED: ATOM     33  C   UNL d   1      14.246  48.415  -6.550 -0.19 -0.02    +0.141 C 
DOCKED: BRANCH  33  34
DOCKED: ATOM     34  C   UNL d   1      15.183  48.638  -7.706 -0.07 -0.03    +0.306 C 
DOCKED: ATOM     35  O   UNL d   1      15.933  49.588  -7.852 -0.02 +0.02    -0.251 OA
DOCKED: BRANCH  34  36
DOCKED: ATOM     36  O   UNL d   1      15.127  47.650  -8.616 -0.04 +0.05    -0.481 OA
DOCKED: ATOM     37  H   UNL d   1      14.926  46.844  -8.094 +0.11 -0.04    +0.295 HD
DOCKED: ENDBRANCH  34  36
DOCKED: ENDBRANCH  33  34
DOCKED: ENDBRANCH   7  33
DOCKED: BRANCH  27  38
DOCKED: ATOM     38  C   UNL d   1      18.447  53.610  -2.385 +0.05 -0.00    +0.017 C 
DOCKED: ATOM     39  C   UNL d   1      19.587  53.895  -1.737 -0.08 -0.01    +0.092 C 
DOCKED: BRANCH  39  40
DOCKED: ATOM     40  C   UNL d   1      19.945  55.291  -1.471 -0.06 -0.04    +0.330 C 
DOCKED: ATOM     41  O   UNL d   1      20.023  56.204  -2.270 -0.04 +0.02    -0.246 OA
DOCKED: BRANCH  40  42
DOCKED: ATOM     42  O   UNL d   1      20.185  55.464  -0.162 -0.09 +0.10    -0.477 OA
DOCKED: ATOM     43  H   UNL d   1      20.040  54.576   0.223 -0.46 -0.12    +0.295 HD
DOCKED: ENDBRANCH  40  42
DOCKED: ENDBRANCH  39  40
DOCKED: ENDBRANCH  27  38
DOCKED: BRANCH   8  44
DOCKED: ATOM     44  C   UNL d   1      20.085  43.342  -5.697 -0.34 +0.02    +0.141 C 
DOCKED: BRANCH  44  45
DOCKED: ATOM     45  C   UNL d   1      21.047  42.409  -6.384 -0.17 +0.06    +0.306 C 
DOCKED: ATOM     46  O   UNL d   1      20.784  41.325  -6.874 -0.28 -0.07    -0.251 OA
DOCKED: BRANCH  45  47
DOCKED: ATOM     47  O   UNL d   1      22.306  42.884  -6.392 -0.07 -0.08    -0.481 OA
DOCKED: ATOM     48  H   UNL d   1      22.504  43.077  -5.451 +0.13 +0.05    +0.295 HD
DOCKED: ENDBRANCH  45  47
DOCKED: ENDBRANCH  44  45
DOCKED: ENDBRANCH   8  44
DOCKED: BRANCH  22  49
DOCKED: ATOM     49  C   UNL d   1      21.924  50.402   0.600 -0.16 -0.00    +0.048 C 
DOCKED: BRANCH  49  50
DOCKED: ATOM     50  C   UNL d   1      21.779  49.686   1.943 -0.20 -0.01    +0.125 C 
DOCKED: BRANCH  50  51
DOCKED: ATOM     51  C   UNL d   1      20.381  49.168   2.127 -0.28 -0.04    +0.305 C 
DOCKED: ATOM     52  O   UNL d   1      20.026  48.006   2.222 -0.70 +0.01    -0.251 OA
DOCKED: BRANCH  51  53
DOCKED: ATOM     53  O   UNL d   1      19.475  50.165   2.170 -0.23 +0.15    -0.481 OA
DOCKED: ATOM     54  H   UNL d   1      18.739  49.843   1.610 -0.34 -0.18    +0.295 HD
DOCKED: ENDBRANCH  51  53
DOCKED: ENDBRANCH  50  51
DOCKED: ENDBRANCH  49  50
DOCKED: ENDBRANCH  22  49
DOCKED: TORSDOF 13
DOCKED: TER
DOCKED: ENDMDL
________________________________________________________________________________


	BEGINNING GENETIC ALGORITHM DOCKING 57 of 100
Run: 57 Seed: 2074577746 891861046 [ Run 57 of 100 GA/GALS ]
Beginning LAMARCKIAN GENETIC ALGORITHM (LGA), with a maximum of 25000000 energy evaluations.

Final-Value: -12.929


	FINAL GENETIC ALGORITHM DOCKED STATE
	_______________________________________________


Detailed state:  trans 11.360 39.175 25.280 quatxyzw 0.741221 -0.454135 0.426524 -0.249862 center 0.153 0.018 -0.028 ntor 13 119.0219 144.2307 -102.7234 -111.6985 -135.7870 89.2624 127.1866 -95.5125 19.9477 -44.6585 43.4577 -109.4356 133.5328
State:	 11.360  39.175  25.280   0.766 -0.469  0.440 -151.061    119.02  144.23 -102.72 -111.70 -135.79   89.26  127.19  -95.51   19.95  -44.66   43.46 -109.44  133.53

DOCKED: MODEL       57
DOCKED: USER    Run = 57
DOCKED: USER    DPF = D:/Protein_go_brrr/autodock/final/6BB5/heme/dock.dpf
DOCKED: USER  
DOCKED: USER    Estimated Free Energy of Binding    =   -5.61 kcal/mol  [=(1)+(2)+(3)-(4)]
DOCKED: USER    Estimated Inhibition Constant, Ki   =   77.43 uM (micromolar)  [Temperature = 298.15 K]
DOCKED: USER    
DOCKED: USER    (1) Final Intermolecular Energy     =   -9.49 kcal/mol
DOCKED: USER        vdW + Hbond + desolv Energy     =   -9.11 kcal/mol
DOCKED: USER        Electrostatic Energy            =   -0.37 kcal/mol
DOCKED: USER    (2) Final Total Internal Energy     =   -3.44 kcal/mol
DOCKED: USER    (3) Torsional Free Energy           =   +3.88 kcal/mol
DOCKED: USER    (4) Unbound System's Energy  [=(2)] =   -3.44 kcal/mol
DOCKED: USER    
DOCKED: USER    
DOCKED: USER    NEWDPF move heme_opt.pdbqt
DOCKED: USER    NEWDPF about 0.153000 0.018000 -0.028000
DOCKED: USER    NEWDPF tran0 11.360373 39.174591 25.279604
DOCKED: USER    NEWDPF quaternion0 0.741221 -0.454135 0.426524 -0.249862
DOCKED: USER    NEWDPF axisangle0 0.765501 -0.469011 0.440496 -151.061283
DOCKED: USER    NEWDPF quat0 0.765501 -0.469011 0.440496 -151.061283
DOCKED: USER    NEWDPF dihe0 119.02 144.23 -102.72 -111.70 -135.79 89.26 127.19 -95.51 19.95 -44.66 43.46 -109.44 133.53 
DOCKED: USER  keepresnum = 1 
DOCKED: USER  
DOCKED: REMARK  13 active torsions:
DOCKED: REMARK  status: ('A' for Active; 'I' for Inactive)
DOCKED: REMARK    1  A    between atoms: O_3  and  C_38 
DOCKED: REMARK    2  A    between atoms: O_4  and  C_40 
DOCKED: REMARK    3  A    between atoms: O_7  and  C_46 
DOCKED: REMARK    4  A    between atoms: O_9  and  C_48 
DOCKED: REMARK    5  A    between atoms: C_15  and  C_20 
DOCKED: REMARK    6  A    between atoms: C_16  and  C_23 
DOCKED: REMARK    7  A    between atoms: C_20  and  C_38 
DOCKED: REMARK    8  A    between atoms: C_23  and  C_40 
DOCKED: REMARK    9  A    between atoms: C_32  and  C_41 
DOCKED: REMARK   10  A    between atoms: C_37  and  C_45 
DOCKED: REMARK   11  A    between atoms: C_41  and  C_44 
DOCKED: REMARK   12  A    between atoms: C_44  and  C_46 
DOCKED: REMARK   13  A    between atoms: C_47  and  C_48 
DOCKED: USER                              x       y       z     vdW  Elec       q    Type
DOCKED: USER                           _______ _______ _______ _____ _____    ______ ____
DOCKED: ROOT
DOCKED: ATOM      1  O   UNL d   1       8.871  40.484  20.098 -0.16 -0.00    -0.289 OA
DOCKED: ATOM      2  O   UNL d   1      14.421  43.836  23.886 -0.07 +0.04    -0.289 OA
DOCKED: ATOM      3  N   UNL d   1       9.917  39.421  23.208 -0.15 +0.04    -0.247 NA
DOCKED: ATOM      4  N   UNL d   1      12.293  41.123  23.748 -0.07 +0.07    -0.247 NA
DOCKED: ATOM      5  N   UNL d   1      12.958  39.348  25.910 -0.04 +0.13    -0.354 N 
DOCKED: ATOM      6  N   UNL d   1      10.502  37.577  25.331 -0.13 +0.10    -0.354 N 
DOCKED: ATOM      7  C   UNL d   1       8.337  38.579  21.535 -0.33 -0.01    +0.084 A 
DOCKED: ATOM      8  C   UNL d   1      12.385  43.299  22.639 -0.13 -0.01    +0.084 A 
DOCKED: ATOM      9  C   UNL d   1      11.684  41.949  22.830 -0.20 -0.01    +0.058 A 
DOCKED: ATOM     10  C   UNL d   1       9.020  38.414  22.896 -0.29 -0.01    +0.058 A 
DOCKED: ATOM     11  C   UNL d   1       8.994  39.868  21.142 -0.14 -0.00    +0.193 A 
DOCKED: ATOM     12  C   UNL d   1       9.910  40.289  22.249 -0.17 -0.01    +0.109 A 
DOCKED: ATOM     13  C   UNL d   1      13.525  43.070  23.591 -0.10 -0.03    +0.193 A 
DOCKED: ATOM     14  C   UNL d   1       8.755  37.488  20.546 -0.60 -0.00    +0.026 C 
DOCKED: ATOM     15  C   UNL d   1      10.601  41.588  22.124 -0.17 -0.01    +0.055 C 
DOCKED: ATOM     16  C   UNL d   1      11.533  44.460  23.161 -0.04 -0.00    +0.026 C 
DOCKED: ATOM     17  C   UNL d   1      13.357  41.712  24.191 -0.16 -0.03    +0.109 A 
DOCKED: ATOM     18  C   UNL d   1       8.686  37.414  23.733 -0.31 -0.01    +0.050 C 
DOCKED: ATOM     19  C   UNL d   1       9.202  37.230  25.041 -0.23 -0.01    +0.045 A 
DOCKED: ATOM     20  C   UNL d   1      14.103  40.101  25.862 -0.16 -0.01    +0.045 A 
DOCKED: ATOM     21  C   UNL d   1      14.357  41.194  25.136 -0.22 -0.01    +0.057 C 
DOCKED: ATOM     22  C   UNL d   1      14.409  38.384  27.337 -0.23 +0.00    -0.019 A 
DOCKED: ATOM     23  C   UNL d   1      13.048  38.289  26.773 -0.23 -0.01    +0.045 A 
DOCKED: ATOM     24  C   UNL d   1      15.028  39.459  26.796 -0.23 +0.00    -0.022 A 
DOCKED: ATOM     25  C   UNL d   1      10.817  37.232  26.625 -0.22 -0.02    +0.049 A 
DOCKED: ATOM     26  C   UNL d   1       8.647  36.680  26.186 -0.22 +0.00    -0.018 A 
DOCKED: ATOM     27  C   UNL d   1       9.666  36.702  27.189 -0.19 -0.00    +0.003 A 
DOCKED: ATOM     28  C   UNL d   1      12.150  37.349  27.106 -0.27 -0.02    +0.052 C 
DOCKED: ATOM     29  C   UNL d   1      16.402  39.974  27.057 -0.23 -0.01    +0.046 C 
DOCKED: ATOM     30  C   UNL d   1       7.256  36.166  26.343 -0.21 +0.00    +0.046 C 
DOCKED: ATOM     31  H   UNL d   1      12.124  39.627  25.404 -0.18 -0.07    +0.166 HD
DOCKED: ATOM     32  H   UNL d   1      11.135  37.991  24.657 -0.13 -0.07    +0.166 HD
DOCKED: ENDROOT
DOCKED: BRANCH   7  33
DOCKED: ATOM     33  C   UNL d   1       6.814  38.744  21.580 -0.24 -0.01    +0.141 C 
DOCKED: BRANCH  33  34
DOCKED: ATOM     34  C   UNL d   1       6.390  40.044  22.208 -0.11 -0.00    +0.306 C 
DOCKED: ATOM     35  O   UNL d   1       6.304  40.272  23.403 -0.04 +0.01    -0.251 OA
DOCKED: BRANCH  34  36
DOCKED: ATOM     36  O   UNL d   1       6.099  40.989  21.297 -0.37 -0.06    -0.481 OA
DOCKED: ATOM     37  H   UNL d   1       6.945  41.150  20.829 +0.10 +0.03    +0.295 HD
DOCKED: ENDBRANCH  34  36
DOCKED: ENDBRANCH  33  34
DOCKED: ENDBRANCH   7  33
DOCKED: BRANCH  27  38
DOCKED: ATOM     38  C   UNL d   1       9.519  36.210  28.525 -0.16 -0.00    +0.017 C 
DOCKED: ATOM     39  C   UNL d   1      10.073  35.084  29.001 -0.17 +0.01    +0.092 C 
DOCKED: BRANCH  39  40
DOCKED: ATOM     40  C   UNL d   1       9.859  34.699  30.399 -0.07 +0.08    +0.330 C 
DOCKED: ATOM     41  O   UNL d   1       8.940  34.048  30.858 -0.16 -0.11    -0.246 OA
DOCKED: BRANCH  40  42
DOCKED: ATOM     42  O   UNL d   1      10.856  35.167  31.165 +0.00 -0.00    -0.477 OA
DOCKED: ATOM     43  H   UNL d   1      11.647  35.093  30.591 +0.05 -0.04    +0.295 HD
DOCKED: ENDBRANCH  40  42
DOCKED: ENDBRANCH  39  40
DOCKED: ENDBRANCH  27  38
DOCKED: BRANCH   8  44
DOCKED: ATOM     44  C   UNL d   1      12.899  43.581  21.224 -0.20 -0.03    +0.141 C 
DOCKED: BRANCH  44  45
DOCKED: ATOM     45  C   UNL d   1      14.343  43.202  21.030 -0.27 -0.08    +0.306 C 
DOCKED: ATOM     46  O   UNL d   1      14.774  42.091  20.772 -0.47 +0.08    -0.251 OA
DOCKED: BRANCH  45  47
DOCKED: ATOM     47  O   UNL d   1      15.177  44.244  21.199 -0.12 +0.12    -0.481 OA
DOCKED: ATOM     48  H   UNL d   1      15.224  44.368  22.171 +0.13 -0.05    +0.295 HD
DOCKED: ENDBRANCH  45  47
DOCKED: ENDBRANCH  44  45
DOCKED: ENDBRANCH   8  44
DOCKED: BRANCH  22  49
DOCKED: ATOM     49  C   UNL d   1      14.977  37.416  28.333 -0.25 -0.01    +0.048 C 
DOCKED: BRANCH  49  50
DOCKED: ATOM     50  C   UNL d   1      14.792  35.966  27.886 +0.04 -0.07    +0.125 C 
DOCKED: BRANCH  50  51
DOCKED: ATOM     51  C   UNL d   1      14.322  35.108  29.027 -0.06 -0.15    +0.305 C 
DOCKED: ATOM     52  O   UNL d   1      14.986  34.342  29.703 -0.22 +0.05    -0.251 OA
DOCKED: BRANCH  51  53
DOCKED: ATOM     53  O   UNL d   1      13.002  35.254  29.257 -0.06 +0.31    -0.481 OA
DOCKED: ATOM     54  H   UNL d   1      12.578  34.861  28.466 -0.25 -0.49    +0.295 HD
DOCKED: ENDBRANCH  51  53
DOCKED: ENDBRANCH  50  51
DOCKED: ENDBRANCH  49  50
DOCKED: ENDBRANCH  22  49
DOCKED: TORSDOF 13
DOCKED: TER
DOCKED: ENDMDL
________________________________________________________________________________


	BEGINNING GENETIC ALGORITHM DOCKING 58 of 100
Run: 58 Seed: 2034198749 122105952 [ Run 58 of 100 GA/GALS ]
Beginning LAMARCKIAN GENETIC ALGORITHM (LGA), with a maximum of 25000000 energy evaluations.

Final-Value: -10.060


	FINAL GENETIC ALGORITHM DOCKED STATE
	_______________________________________________


Detailed state:  trans 19.243 52.495 -2.118 quatxyzw 0.218771 -0.056261 -0.803642 -0.550576 center 0.153 0.018 -0.028 ntor 13 105.2736 174.0560 29.9570 -22.0106 176.0709 -37.3066 -52.7321 -68.5916 -19.4101 -16.1246 -91.7916 -6.0588 -18.1794
State:	 19.243  52.495  -2.118   0.262 -0.067 -0.963 -113.187    105.27  174.06   29.96  -22.01  176.07  -37.31  -52.73  -68.59  -19.41  -16.12  -91.79   -6.06  -18.18

DOCKED: MODEL       58
DOCKED: USER    Run = 58
DOCKED: USER    DPF = D:/Protein_go_brrr/autodock/final/6BB5/heme/dock.dpf
DOCKED: USER  
DOCKED: USER    Estimated Free Energy of Binding    =   -2.28 kcal/mol  [=(1)+(2)+(3)-(4)]
DOCKED: USER    Estimated Inhibition Constant, Ki   =   21.43 mM (millimolar)  [Temperature = 298.15 K]
DOCKED: USER    
DOCKED: USER    (1) Final Intermolecular Energy     =   -6.15 kcal/mol
DOCKED: USER        vdW + Hbond + desolv Energy     =   -6.02 kcal/mol
DOCKED: USER        Electrostatic Energy            =   -0.13 kcal/mol
DOCKED: USER    (2) Final Total Internal Energy     =   -3.91 kcal/mol
DOCKED: USER    (3) Torsional Free Energy           =   +3.88 kcal/mol
DOCKED: USER    (4) Unbound System's Energy  [=(2)] =   -3.91 kcal/mol
DOCKED: USER    
DOCKED: USER    
DOCKED: USER    NEWDPF move heme_opt.pdbqt
DOCKED: USER    NEWDPF about 0.153000 0.018000 -0.028000
DOCKED: USER    NEWDPF tran0 19.242963 52.495306 -2.117513
DOCKED: USER    NEWDPF quaternion0 0.218771 -0.056261 -0.803642 -0.550576
DOCKED: USER    NEWDPF axisangle0 0.262068 -0.067396 -0.962693 -113.186917
DOCKED: USER    NEWDPF quat0 0.262068 -0.067396 -0.962693 -113.186917
DOCKED: USER    NEWDPF dihe0 105.27 174.06 29.96 -22.01 176.07 -37.31 -52.73 -68.59 -19.41 -16.12 -91.79 -6.06 -18.18 
DOCKED: USER  keepresnum = 1 
DOCKED: USER  
DOCKED: REMARK  13 active torsions:
DOCKED: REMARK  status: ('A' for Active; 'I' for Inactive)
DOCKED: REMARK    1  A    between atoms: O_3  and  C_38 
DOCKED: REMARK    2  A    between atoms: O_4  and  C_40 
DOCKED: REMARK    3  A    between atoms: O_7  and  C_46 
DOCKED: REMARK    4  A    between atoms: O_9  and  C_48 
DOCKED: REMARK    5  A    between atoms: C_15  and  C_20 
DOCKED: REMARK    6  A    between atoms: C_16  and  C_23 
DOCKED: REMARK    7  A    between atoms: C_20  and  C_38 
DOCKED: REMARK    8  A    between atoms: C_23  and  C_40 
DOCKED: REMARK    9  A    between atoms: C_32  and  C_41 
DOCKED: REMARK   10  A    between atoms: C_37  and  C_45 
DOCKED: REMARK   11  A    between atoms: C_41  and  C_44 
DOCKED: REMARK   12  A    between atoms: C_44  and  C_46 
DOCKED: REMARK   13  A    between atoms: C_47  and  C_48 
DOCKED: USER                              x       y       z     vdW  Elec       q    Type
DOCKED: USER                           _______ _______ _______ _____ _____    ______ ____
DOCKED: ROOT
DOCKED: ATOM      1  O   UNL d   1      22.100  56.847   0.649 -0.02 +0.03    -0.289 OA
DOCKED: ATOM      2  O   UNL d   1      16.519  57.027  -4.371 -0.01 +0.04    -0.289 OA
DOCKED: ATOM      3  N   UNL d   1      20.817  54.003  -0.820 -0.09 +0.04    -0.247 NA
DOCKED: ATOM      4  N   UNL d   1      18.506  55.025  -2.384 -0.01 +0.02    -0.247 NA
DOCKED: ATOM      5  N   UNL d   1      17.622  52.305  -2.680 -0.09 +0.04    -0.354 N 
DOCKED: ATOM      6  N   UNL d   1      20.012  51.255  -1.040 -0.12 +0.07    -0.354 N 
DOCKED: ATOM      7  C   UNL d   1      22.448  54.447   0.955 -0.08 -0.01    +0.084 A 
DOCKED: ATOM      8  C   UNL d   1      18.595  57.354  -3.116 -0.03 -0.01    +0.084 A 
DOCKED: ATOM      9  C   UNL d   1      19.211  56.206  -2.311 -0.07 -0.01    +0.058 A 
DOCKED: ATOM     10  C   UNL d   1      21.678  53.433   0.103 -0.04 -0.01    +0.058 A 
DOCKED: ATOM     11  C   UNL d   1      21.883  55.690   0.337 -0.06 -0.03    +0.193 A 
DOCKED: ATOM     12  C   UNL d   1      20.927  55.289  -0.743 -0.10 -0.02    +0.109 A 
DOCKED: ATOM     13  C   UNL d   1      17.390  56.617  -3.629 -0.02 -0.03    +0.193 A 
DOCKED: ATOM     14  C   UNL d   1      22.032  54.393   2.427 -0.16 -0.00    +0.026 C 
DOCKED: ATOM     15  C   UNL d   1      20.313  56.355  -1.560 -0.08 -0.01    +0.055 C 
DOCKED: ATOM     16  C   UNL d   1      19.474  57.749  -4.307 -0.01 -0.00    +0.026 C 
DOCKED: ATOM     17  C   UNL d   1      17.450  55.218  -3.107 -0.05 -0.01    +0.109 A 
DOCKED: ATOM     18  C   UNL d   1      21.908  52.111   0.205 -0.12 -0.01    +0.050 C 
DOCKED: ATOM     19  C   UNL d   1      21.307  51.107  -0.598 -0.13 -0.01    +0.045 A 
DOCKED: ATOM     20  C   UNL d   1      16.523  52.964  -3.167 -0.19 -0.01    +0.045 A 
DOCKED: ATOM     21  C   UNL d   1      16.370  54.269  -3.413 -0.12 -0.01    +0.057 C 
DOCKED: ATOM     22  C   UNL d   1      16.041  50.737  -3.015 -0.35 +0.00    -0.019 A 
DOCKED: ATOM     23  C   UNL d   1      17.426  50.956  -2.553 -0.28 -0.01    +0.045 A 
DOCKED: ATOM     24  C   UNL d   1      15.512  51.929  -3.378 -0.29 +0.00    -0.022 A 
DOCKED: ATOM     25  C   UNL d   1      19.603  50.131  -1.720 -0.23 -0.01    +0.049 A 
DOCKED: ATOM     26  C   UNL d   1      21.763  49.873  -1.032 -0.11 +0.00    -0.018 A 
DOCKED: ATOM     27  C   UNL d   1      20.690  49.269  -1.757 -0.19 -0.00    +0.003 A 
DOCKED: ATOM     28  C   UNL d   1      18.252  49.983  -2.137 -0.26 -0.02    +0.052 C 
DOCKED: ATOM     29  C   UNL d   1      14.154  52.222  -3.918 -0.27 -0.01    +0.046 C 
DOCKED: ATOM     30  C   UNL d   1      23.114  49.288  -0.792 -0.09 +0.00    +0.046 C 
DOCKED: ATOM     31  H   UNL d   1      18.498  52.790  -2.519 +0.04 -0.01    +0.166 HD
DOCKED: ATOM     32  H   UNL d   1      19.442  52.070  -0.845 -0.03 -0.03    +0.166 HD
DOCKED: ENDROOT
DOCKED: BRANCH   7  33
DOCKED: ATOM     33  C   UNL d   1      23.972  54.413   0.799 -0.02 -0.01    +0.141 C 
DOCKED: BRANCH  33  34
DOCKED: ATOM     34  C   UNL d   1      24.405  53.930  -0.559 -0.00 -0.01    +0.306 C 
DOCKED: ATOM     35  O   UNL d   1      25.224  53.056  -0.785 -0.00 -0.00    -0.251 OA
DOCKED: BRANCH  34  36
DOCKED: ATOM     36  O   UNL d   1      23.779  54.574  -1.561 +0.00 +0.02    -0.481 OA
DOCKED: ATOM     37  H   UNL d   1      22.886  54.170  -1.593 +0.02 -0.02    +0.295 HD
DOCKED: ENDBRANCH  34  36
DOCKED: ENDBRANCH  33  34
DOCKED: ENDBRANCH   7  33
DOCKED: BRANCH  27  38
DOCKED: ATOM     38  C   UNL d   1      20.731  47.974  -2.367 -0.26 -0.00    +0.017 C 
DOCKED: ATOM     39  C   UNL d   1      20.057  47.616  -3.471 -0.19 -0.02    +0.092 C 
DOCKED: BRANCH  39  40
DOCKED: ATOM     40  C   UNL d   1      20.200  46.260  -4.006 -0.18 -0.05    +0.330 C 
DOCKED: ATOM     41  O   UNL d   1      21.213  45.589  -4.072 -0.23 +0.02    -0.246 OA
DOCKED: BRANCH  40  42
DOCKED: ATOM     42  O   UNL d   1      19.013  45.805  -4.434 -0.18 +0.07    -0.477 OA
DOCKED: ATOM     43  H   UNL d   1      18.382  46.502  -4.161 +0.07 -0.06    +0.295 HD
DOCKED: ENDBRANCH  40  42
DOCKED: ENDBRANCH  39  40
DOCKED: ENDBRANCH  27  38
DOCKED: BRANCH   8  44
DOCKED: ATOM     44  C   UNL d   1      18.180  58.584  -2.302 -0.02 -0.02    +0.141 C 
DOCKED: BRANCH  44  45
DOCKED: ATOM     45  C   UNL d   1      17.052  58.309  -1.343 -0.03 -0.08    +0.306 C 
DOCKED: ATOM     46  O   UNL d   1      15.868  58.527  -1.533 -0.03 +0.08    -0.251 OA
DOCKED: BRANCH  45  47
DOCKED: ATOM     47  O   UNL d   1      17.482  57.796  -0.176 -0.04 +0.18    -0.481 OA
DOCKED: ATOM     48  H   UNL d   1      16.737  57.242   0.140 -0.37 -0.21    +0.295 HD
DOCKED: ENDBRANCH  45  47
DOCKED: ENDBRANCH  44  45
DOCKED: ENDBRANCH   8  44
DOCKED: BRANCH  22  49
DOCKED: ATOM     49  C   UNL d   1      15.364  49.398  -3.044 -0.37 -0.01    +0.048 C 
DOCKED: BRANCH  49  50
DOCKED: ATOM     50  C   UNL d   1      15.334  48.806  -4.454 -0.28 -0.03    +0.125 C 
DOCKED: BRANCH  50  51
DOCKED: ATOM     51  C   UNL d   1      16.567  47.990  -4.719 -0.16 -0.06    +0.305 C 
DOCKED: ATOM     52  O   UNL d   1      17.693  48.396  -4.946 -0.10 +0.04    -0.251 OA
DOCKED: BRANCH  51  53
DOCKED: ATOM     53  O   UNL d   1      16.310  46.667  -4.698 -0.14 +0.10    -0.481 OA
DOCKED: ATOM     54  H   UNL d   1      17.038  46.274  -5.223 +0.16 -0.04    +0.295 HD
DOCKED: ENDBRANCH  51  53
DOCKED: ENDBRANCH  50  51
DOCKED: ENDBRANCH  49  50
DOCKED: ENDBRANCH  22  49
DOCKED: TORSDOF 13
DOCKED: TER
DOCKED: ENDMDL
________________________________________________________________________________


	BEGINNING GENETIC ALGORITHM DOCKING 59 of 100
Run: 59 Seed: 526100135 310088968 [ Run 59 of 100 GA/GALS ]
Beginning LAMARCKIAN GENETIC ALGORITHM (LGA), with a maximum of 25000000 energy evaluations.

Final-Value: -9.968


	FINAL GENETIC ALGORITHM DOCKED STATE
	_______________________________________________


Detailed state:  trans 11.541 42.328 -10.925 quatxyzw 0.403535 -0.841559 0.074009 -0.351370 center 0.153 0.018 -0.028 ntor 13 137.8151 110.5470 179.9896 -53.0811 -136.5649 46.2325 145.8038 -169.0036 17.8533 -9.2478 -85.3291 22.0740 144.3157
State:	 11.541  42.328 -10.925   0.431 -0.899  0.079 -138.858    137.82  110.55  179.99  -53.08 -136.56   46.23  145.80 -169.00   17.85   -9.25  -85.33   22.07  144.32

DOCKED: MODEL       59
DOCKED: USER    Run = 59
DOCKED: USER    DPF = D:/Protein_go_brrr/autodock/final/6BB5/heme/dock.dpf
DOCKED: USER  
DOCKED: USER    Estimated Free Energy of Binding    =   -3.51 kcal/mol  [=(1)+(2)+(3)-(4)]
DOCKED: USER    Estimated Inhibition Constant, Ki   =    2.69 mM (millimolar)  [Temperature = 298.15 K]
DOCKED: USER    
DOCKED: USER    (1) Final Intermolecular Energy     =   -7.38 kcal/mol
DOCKED: USER        vdW + Hbond + desolv Energy     =   -7.21 kcal/mol
DOCKED: USER        Electrostatic Energy            =   -0.17 kcal/mol
DOCKED: USER    (2) Final Total Internal Energy     =   -2.58 kcal/mol
DOCKED: USER    (3) Torsional Free Energy           =   +3.88 kcal/mol
DOCKED: USER    (4) Unbound System's Energy  [=(2)] =   -2.58 kcal/mol
DOCKED: USER    
DOCKED: USER    
DOCKED: USER    NEWDPF move heme_opt.pdbqt
DOCKED: USER    NEWDPF about 0.153000 0.018000 -0.028000
DOCKED: USER    NEWDPF tran0 11.541007 42.328083 -10.925340
DOCKED: USER    NEWDPF quaternion0 0.403535 -0.841559 0.074009 -0.351370
DOCKED: USER    NEWDPF axisangle0 0.431018 -0.898874 0.079050 -138.857755
DOCKED: USER    NEWDPF quat0 0.431018 -0.898874 0.079050 -138.857755
DOCKED: USER    NEWDPF dihe0 137.82 110.55 179.99 -53.08 -136.56 46.23 145.80 -169.00 17.85 -9.25 -85.33 22.07 144.32 
DOCKED: USER  keepresnum = 1 
DOCKED: USER  
DOCKED: REMARK  13 active torsions:
DOCKED: REMARK  status: ('A' for Active; 'I' for Inactive)
DOCKED: REMARK    1  A    between atoms: O_3  and  C_38 
DOCKED: REMARK    2  A    between atoms: O_4  and  C_40 
DOCKED: REMARK    3  A    between atoms: O_7  and  C_46 
DOCKED: REMARK    4  A    between atoms: O_9  and  C_48 
DOCKED: REMARK    5  A    between atoms: C_15  and  C_20 
DOCKED: REMARK    6  A    between atoms: C_16  and  C_23 
DOCKED: REMARK    7  A    between atoms: C_20  and  C_38 
DOCKED: REMARK    8  A    between atoms: C_23  and  C_40 
DOCKED: REMARK    9  A    between atoms: C_32  and  C_41 
DOCKED: REMARK   10  A    between atoms: C_37  and  C_45 
DOCKED: REMARK   11  A    between atoms: C_41  and  C_44 
DOCKED: REMARK   12  A    between atoms: C_44  and  C_46 
DOCKED: REMARK   13  A    between atoms: C_47  and  C_48 
DOCKED: USER                              x       y       z     vdW  Elec       q    Type
DOCKED: USER                           _______ _______ _______ _____ _____    ______ ____
DOCKED: ROOT
DOCKED: ATOM      1  O   UNL d   1      12.360  46.703 -14.791 -0.00 +0.03    -0.289 OA
DOCKED: ATOM      2  O   UNL d   1      17.060  41.424 -12.254 -0.38 -0.22    -0.289 OA
DOCKED: ATOM      3  N   UNL d   1      11.458  44.397 -12.390 -0.06 +0.19    -0.247 NA
DOCKED: ATOM      4  N   UNL d   1      13.809  42.584 -12.267 -0.06 +0.14    -0.247 NA
DOCKED: ATOM      5  N   UNL d   1      12.190  40.736 -10.776 -0.03 +0.36    -0.354 N 
DOCKED: ATOM      6  N   UNL d   1       9.750  42.613 -10.925 +0.09 +0.41    -0.354 N 
DOCKED: ATOM      7  C   UNL d   1      10.275  46.136 -13.648 -0.01 -0.01    +0.084 A 
DOCKED: ATOM      8  C   UNL d   1      15.973  43.514 -12.920 -0.05 -0.00    +0.084 A 
DOCKED: ATOM      9  C   UNL d   1      14.456  43.683 -12.789 -0.07 -0.02    +0.058 A 
DOCKED: ATOM     10  C   UNL d   1      10.237  45.013 -12.608 -0.07 -0.02    +0.058 A 
DOCKED: ATOM     11  C   UNL d   1      11.737  46.058 -13.967 -0.01 -0.03    +0.193 A 
DOCKED: ATOM     12  C   UNL d   1      12.348  44.984 -13.122 -0.06 -0.04    +0.109 A 
DOCKED: ATOM     13  C   UNL d   1      16.064  42.104 -12.410 -0.11 +0.04    +0.193 A 
DOCKED: ATOM     14  C   UNL d   1       9.474  45.782 -14.904 -0.00 -0.00    +0.026 C 
DOCKED: ATOM     15  C   UNL d   1      13.810  44.786 -13.198 -0.06 -0.02    +0.055 C 
DOCKED: ATOM     16  C   UNL d   1      16.731  44.435 -11.959 -0.09 +0.00    +0.026 C 
DOCKED: ATOM     17  C   UNL d   1      14.684  41.654 -12.055 -0.15 -0.02    +0.109 A 
DOCKED: ATOM     18  C   UNL d   1       9.117  44.734 -11.915 -0.09 -0.02    +0.050 C 
DOCKED: ATOM     19  C   UNL d   1       9.010  43.773 -10.877 -0.11 -0.03    +0.045 A 
DOCKED: ATOM     20  C   UNL d   1      13.285  39.948 -11.017 -0.21 -0.01    +0.045 A 
DOCKED: ATOM     21  C   UNL d   1      14.457  40.286 -11.565 -0.24 +0.00    +0.057 C 
DOCKED: ATOM     22  C   UNL d   1      11.656  38.671 -10.051 -0.24 +0.01    -0.019 A 
DOCKED: ATOM     23  C   UNL d   1      11.155  40.052 -10.195 -0.19 -0.03    +0.045 A 
DOCKED: ATOM     24  C   UNL d   1      12.918  38.616 -10.538 -0.26 +0.00    -0.022 A 
DOCKED: ATOM     25  C   UNL d   1       9.425  41.789  -9.873 -0.06 -0.05    +0.049 A 
DOCKED: ATOM     26  C   UNL d   1       8.212  43.718  -9.745 -0.20 +0.01    -0.018 A 
DOCKED: ATOM     27  C   UNL d   1       8.492  42.471  -9.104 -0.17 -0.00    +0.003 A 
DOCKED: ATOM     28  C   UNL d   1       9.943  40.468  -9.795 -0.19 -0.04    +0.052 C 
DOCKED: ATOM     29  C   UNL d   1      13.843  37.448 -10.603 -0.35 +0.01    +0.046 C 
DOCKED: ATOM     30  C   UNL d   1       7.248  44.758  -9.283 -0.12 -0.01    +0.046 C 
DOCKED: ATOM     31  H   UNL d   1      12.212  41.735 -10.949 -0.50 -0.35    +0.166 HD
DOCKED: ATOM     32  H   UNL d   1      10.407  42.398 -11.666 -0.12 -0.17    +0.166 HD
DOCKED: ENDROOT
DOCKED: BRANCH   7  33
DOCKED: ATOM     33  C   UNL d   1       9.912  47.530 -13.124 -0.02 -0.02    +0.141 C 
DOCKED: BRANCH  33  34
DOCKED: ATOM     34  C   UNL d   1      10.910  48.051 -12.126 -0.02 -0.04    +0.306 C 
DOCKED: ATOM     35  O   UNL d   1      10.945  47.785 -10.937 -0.09 +0.05    -0.251 OA
DOCKED: BRANCH  34  36
DOCKED: ATOM     36  O   UNL d   1      11.814  48.878 -12.681 +0.00 +0.04    -0.481 OA
DOCKED: ATOM     37  H   UNL d   1      12.083  48.430 -13.510 +0.02 -0.02    +0.295 HD
DOCKED: ENDBRANCH  34  36
DOCKED: ENDBRANCH  33  34
DOCKED: ENDBRANCH   7  33
DOCKED: BRANCH  27  38
DOCKED: ATOM     38  C   UNL d   1       7.870  42.003  -7.903 -0.28 -0.01    +0.017 C 
DOCKED: ATOM     39  C   UNL d   1       8.515  41.686  -6.770 -0.30 -0.07    +0.092 C 
DOCKED: BRANCH  39  40
DOCKED: ATOM     40  C   UNL d   1       7.758  41.234  -5.600 -0.20 -0.10    +0.330 C 
DOCKED: ATOM     41  O   UNL d   1       6.841  40.434  -5.572 -0.12 +0.02    -0.246 OA
DOCKED: BRANCH  40  42
DOCKED: ATOM     42  O   UNL d   1       8.221  41.829  -4.491 -0.28 +0.14    -0.477 OA
DOCKED: ATOM     43  H   UNL d   1       9.106  41.430  -4.362 -0.36 -0.19    +0.295 HD
DOCKED: ENDBRANCH  40  42
DOCKED: ENDBRANCH  39  40
DOCKED: ENDBRANCH  27  38
DOCKED: BRANCH   8  44
DOCKED: ATOM     44  C   UNL d   1      16.529  43.620 -14.344 -0.01 +0.01    +0.141 C 
DOCKED: BRANCH  44  45
DOCKED: ATOM     45  C   UNL d   1      15.942  42.604 -15.288 +0.01 +0.02    +0.306 C 
DOCKED: ATOM     46  O   UNL d   1      15.072  42.801 -16.118 +0.00 -0.00    -0.251 OA
DOCKED: BRANCH  45  47
DOCKED: ATOM     47  O   UNL d   1      16.469  41.378 -15.116 +0.01 -0.08    -0.481 OA
DOCKED: ATOM     48  H   UNL d   1      17.130  41.490 -14.400 +0.03 +0.08    +0.295 HD
DOCKED: ENDBRANCH  45  47
DOCKED: ENDBRANCH  44  45
DOCKED: ENDBRANCH   8  44
DOCKED: BRANCH  22  49
DOCKED: ATOM     49  C   UNL d   1      10.857  37.541  -9.471 -0.32 -0.01    +0.048 C 
DOCKED: BRANCH  49  50
DOCKED: ATOM     50  C   UNL d   1       9.588  37.268 -10.278 -0.19 -0.01    +0.125 C 
DOCKED: BRANCH  50  51
DOCKED: ATOM     51  C   UNL d   1       9.814  36.165 -11.274 -0.20 -0.04    +0.305 C 
DOCKED: ATOM     52  O   UNL d   1       9.038  35.760 -12.122 -0.18 +0.02    -0.251 OA
DOCKED: BRANCH  51  53
DOCKED: ATOM     53  O   UNL d   1      11.033  35.606 -11.140 -0.17 +0.10    -0.481 OA
DOCKED: ATOM     54  H   UNL d   1      10.847  34.649 -11.048 -0.39 -0.14    +0.295 HD
DOCKED: ENDBRANCH  51  53
DOCKED: ENDBRANCH  50  51
DOCKED: ENDBRANCH  49  50
DOCKED: ENDBRANCH  22  49
DOCKED: TORSDOF 13
DOCKED: TER
DOCKED: ENDMDL
________________________________________________________________________________


	BEGINNING GENETIC ALGORITHM DOCKING 60 of 100
Run: 60 Seed: 616683066 1229339679 [ Run 60 of 100 GA/GALS ]
Beginning LAMARCKIAN GENETIC ALGORITHM (LGA), with a maximum of 25000000 energy evaluations.

Final-Value: -10.552


	FINAL GENETIC ALGORITHM DOCKED STATE
	_______________________________________________


Detailed state:  trans 43.535 49.115 4.939 quatxyzw -0.802045 -0.571546 -0.161801 -0.062287 center 0.153 0.018 -0.028 ntor 13 -125.5524 -145.6233 22.2583 -93.5020 -137.6554 -13.0325 -43.7608 -29.9647 -131.3295 -171.9827 109.2441 5.3745 39.4260
State:	 43.535  49.115   4.939  -0.804 -0.573 -0.162 -172.858   -125.55 -145.62   22.26  -93.50 -137.66  -13.03  -43.76  -29.96 -131.33 -171.98  109.24    5.37   39.43

DOCKED: MODEL       60
DOCKED: USER    Run = 60
DOCKED: USER    DPF = D:/Protein_go_brrr/autodock/final/6BB5/heme/dock.dpf
DOCKED: USER  
DOCKED: USER    Estimated Free Energy of Binding    =   -4.20 kcal/mol  [=(1)+(2)+(3)-(4)]
DOCKED: USER    Estimated Inhibition Constant, Ki   =  837.44 uM (micromolar)  [Temperature = 298.15 K]
DOCKED: USER    
DOCKED: USER    (1) Final Intermolecular Energy     =   -8.08 kcal/mol
DOCKED: USER        vdW + Hbond + desolv Energy     =   -7.54 kcal/mol
DOCKED: USER        Electrostatic Energy            =   -0.53 kcal/mol
DOCKED: USER    (2) Final Total Internal Energy     =   -2.48 kcal/mol
DOCKED: USER    (3) Torsional Free Energy           =   +3.88 kcal/mol
DOCKED: USER    (4) Unbound System's Energy  [=(2)] =   -2.48 kcal/mol
DOCKED: USER    
DOCKED: USER    
DOCKED: USER    NEWDPF move heme_opt.pdbqt
DOCKED: USER    NEWDPF about 0.153000 0.018000 -0.028000
DOCKED: USER    NEWDPF tran0 43.534976 49.114549 4.939180
DOCKED: USER    NEWDPF quaternion0 -0.802045 -0.571546 -0.161801 -0.062287
DOCKED: USER    NEWDPF axisangle0 -0.803605 -0.572658 -0.162116 -172.857821
DOCKED: USER    NEWDPF quat0 -0.803605 -0.572658 -0.162116 -172.857821
DOCKED: USER    NEWDPF dihe0 -125.55 -145.62 22.26 -93.50 -137.66 -13.03 -43.76 -29.96 -131.33 -171.98 109.24 5.37 39.43 
DOCKED: USER  keepresnum = 1 
DOCKED: USER  
DOCKED: REMARK  13 active torsions:
DOCKED: REMARK  status: ('A' for Active; 'I' for Inactive)
DOCKED: REMARK    1  A    between atoms: O_3  and  C_38 
DOCKED: REMARK    2  A    between atoms: O_4  and  C_40 
DOCKED: REMARK    3  A    between atoms: O_7  and  C_46 
DOCKED: REMARK    4  A    between atoms: O_9  and  C_48 
DOCKED: REMARK    5  A    between atoms: C_15  and  C_20 
DOCKED: REMARK    6  A    between atoms: C_16  and  C_23 
DOCKED: REMARK    7  A    between atoms: C_20  and  C_38 
DOCKED: REMARK    8  A    between atoms: C_23  and  C_40 
DOCKED: REMARK    9  A    between atoms: C_32  and  C_41 
DOCKED: REMARK   10  A    between atoms: C_37  and  C_45 
DOCKED: REMARK   11  A    between atoms: C_41  and  C_44 
DOCKED: REMARK   12  A    between atoms: C_44  and  C_46 
DOCKED: REMARK   13  A    between atoms: C_47  and  C_48 
DOCKED: USER                              x       y       z     vdW  Elec       q    Type
DOCKED: USER                           _______ _______ _______ _____ _____    ______ ____
DOCKED: ROOT
DOCKED: ATOM      1  O   UNL d   1      43.588  43.696   2.618 +0.01 -0.01    -0.289 OA
DOCKED: ATOM      2  O   UNL d   1      37.915  47.925   5.132 -0.56 -0.34    -0.289 OA
DOCKED: ATOM      3  N   UNL d   1      44.061  46.803   4.039 -0.10 +0.08    -0.247 NA
DOCKED: ATOM      4  N   UNL d   1      41.291  47.805   4.428 -0.13 +0.01    -0.247 NA
DOCKED: ATOM      5  N   UNL d   1      42.401  50.415   4.900 -0.09 +0.10    -0.354 N 
DOCKED: ATOM      6  N   UNL d   1      45.270  49.371   4.475 +0.10 +0.15    -0.354 N 
DOCKED: ATOM      7  C   UNL d   1      45.513  45.170   2.927 -0.14 -0.02    +0.084 A 
DOCKED: ATOM      8  C   UNL d   1      39.524  46.136   4.680 -0.19 +0.02    +0.084 A 
DOCKED: ATOM      9  C   UNL d   1      40.993  46.461   4.391 -0.20 +0.00    +0.058 A 
DOCKED: ATOM     10  C   UNL d   1      45.352  46.527   3.619 -0.19 -0.02    +0.058 A 
DOCKED: ATOM     11  C   UNL d   1      44.088  44.719   3.047 -0.08 -0.01    +0.193 A 
DOCKED: ATOM     12  C   UNL d   1      43.314  45.784   3.761 -0.19 -0.01    +0.109 A 
DOCKED: ATOM     13  C   UNL d   1      39.036  47.547   4.851 -0.18 +0.09    +0.193 A 
DOCKED: ATOM     14  C   UNL d   1      45.863  45.319   1.444 -0.06 -0.00    +0.026 C 
DOCKED: ATOM     15  C   UNL d   1      41.896  45.519   4.078 -0.24 +0.00    +0.055 C 
DOCKED: ATOM     16  C   UNL d   1      39.357  45.393   6.008 -0.38 +0.00    +0.026 C 
DOCKED: ATOM     17  C   UNL d   1      40.202  48.462   4.666 -0.20 +0.01    +0.109 A 
DOCKED: ATOM     18  C   UNL d   1      46.411  47.321   3.864 -0.19 -0.02    +0.050 C 
DOCKED: ATOM     19  C   UNL d   1      46.371  48.551   4.570 -0.15 -0.02    +0.045 A 
DOCKED: ATOM     20  C   UNL d   1      41.070  50.736   4.817 -0.16 -0.01    +0.045 A 
DOCKED: ATOM     21  C   UNL d   1      40.015  49.919   4.735 -0.24 +0.00    +0.057 C 
DOCKED: ATOM     22  C   UNL d   1      42.289  52.664   4.932 -0.11 +0.00    -0.019 A 
DOCKED: ATOM     23  C   UNL d   1      43.214  51.514   4.972 -0.12 -0.01    +0.045 A 
DOCKED: ATOM     24  C   UNL d   1      41.021  52.197   4.842 -0.14 +0.00    -0.022 A 
DOCKED: ATOM     25  C   UNL d   1      45.480  50.544   5.162 -0.08 -0.01    +0.049 A 
DOCKED: ATOM     26  C   UNL d   1      47.306  49.190   5.370 -0.17 +0.01    -0.018 A 
DOCKED: ATOM     27  C   UNL d   1      46.730  50.440   5.757 -0.14 -0.00    +0.003 A 
DOCKED: ATOM     28  C   UNL d   1      44.548  51.614   5.080 -0.13 -0.01    +0.052 C 
DOCKED: ATOM     29  C   UNL d   1      39.746  52.966   4.784 -0.14 +0.02    +0.046 C 
DOCKED: ATOM     30  C   UNL d   1      48.651  48.674   5.754 -0.14 -0.03    +0.046 C 
DOCKED: ATOM     31  H   UNL d   1      42.705  49.451   4.978 -0.30 -0.07    +0.166 HD
DOCKED: ATOM     32  H   UNL d   1      44.445  49.141   3.934 -0.11 -0.06    +0.166 HD
DOCKED: ENDROOT
DOCKED: BRANCH   7  33
DOCKED: ATOM     33  C   UNL d   1      46.450  44.182   3.629 -0.14 -0.04    +0.141 C 
DOCKED: BRANCH  33  34
DOCKED: ATOM     34  C   UNL d   1      47.897  44.408   3.280 -0.11 -0.12    +0.306 C 
DOCKED: ATOM     35  O   UNL d   1      48.474  43.984   2.293 -0.05 +0.05    -0.251 OA
DOCKED: BRANCH  34  36
DOCKED: ATOM     36  O   UNL d   1      48.539  45.158   4.193 -0.06 +0.42    -0.481 OA
DOCKED: ATOM     37  H   UNL d   1      48.351  44.719   5.050 -0.43 -0.54    +0.295 HD
DOCKED: ENDBRANCH  34  36
DOCKED: ENDBRANCH  33  34
DOCKED: ENDBRANCH   7  33
DOCKED: BRANCH  27  38
DOCKED: ATOM     38  C   UNL d   1      47.369  51.424   6.577 -0.09 -0.00    +0.017 C 
DOCKED: ATOM     39  C   UNL d   1      46.775  52.117   7.560 -0.07 -0.02    +0.092 C 
DOCKED: BRANCH  39  40
DOCKED: ATOM     40  C   UNL d   1      47.548  53.087   8.340 +0.00 -0.04    +0.330 C 
DOCKED: ATOM     41  O   UNL d   1      48.758  53.200   8.397 -0.00 +0.03    -0.246 OA
DOCKED: BRANCH  40  42
DOCKED: ATOM     42  O   UNL d   1      46.722  53.896   9.021 +0.01 +0.06    -0.477 OA
DOCKED: ATOM     43  H   UNL d   1      45.967  53.317   9.255 +0.04 -0.06    +0.295 HD
DOCKED: ENDBRANCH  40  42
DOCKED: ENDBRANCH  39  40
DOCKED: ENDBRANCH  27  38
DOCKED: BRANCH   8  44
DOCKED: ATOM     44  C   UNL d   1      38.769  45.428   3.550 -0.12 +0.06    +0.141 C 
DOCKED: BRANCH  44  45
DOCKED: ATOM     45  C   UNL d   1      37.869  44.324   4.037 -0.14 +0.13    +0.306 C 
DOCKED: ATOM     46  O   UNL d   1      38.179  43.159   4.216 -0.16 -0.05    -0.251 OA
DOCKED: BRANCH  45  47
DOCKED: ATOM     47  O   UNL d   1      36.609  44.743   4.249 -0.40 -0.44    -0.481 OA
DOCKED: ATOM     48  H   UNL d   1      36.228  44.084   4.867 -0.40 +0.09    +0.295 HD
DOCKED: ENDBRANCH  45  47
DOCKED: ENDBRANCH  44  45
DOCKED: ENDBRANCH   8  44
DOCKED: BRANCH  22  49
DOCKED: ATOM     49  C   UNL d   1      42.727  54.099   4.971 -0.05 -0.00    +0.048 C 
DOCKED: BRANCH  49  50
DOCKED: ATOM     50  C   UNL d   1      43.811  54.335   6.022 -0.04 -0.01    +0.125 C 
DOCKED: BRANCH  50  51
DOCKED: ATOM     51  C   UNL d   1      43.250  54.210   7.410 -0.06 -0.09    +0.305 C 
DOCKED: ATOM     52  O   UNL d   1      42.147  54.552   7.798 -0.11 +0.07    -0.251 OA
DOCKED: BRANCH  51  53
DOCKED: ATOM     53  O   UNL d   1      44.134  53.657   8.263 -0.05 +0.20    -0.481 OA
DOCKED: ATOM     54  H   UNL d   1      44.668  54.417   8.578 +0.03 -0.07    +0.295 HD
DOCKED: ENDBRANCH  51  53
DOCKED: ENDBRANCH  50  51
DOCKED: ENDBRANCH  49  50
DOCKED: ENDBRANCH  22  49
DOCKED: TORSDOF 13
DOCKED: TER
DOCKED: ENDMDL
________________________________________________________________________________


	BEGINNING GENETIC ALGORITHM DOCKING 61 of 100
Run: 61 Seed: 1026791593 1585347705 [ Run 61 of 100 GA/GALS ]
Beginning LAMARCKIAN GENETIC ALGORITHM (LGA), with a maximum of 25000000 energy evaluations.

Final-Value: -12.731


	FINAL GENETIC ALGORITHM DOCKED STATE
	_______________________________________________


Detailed state:  trans 27.267 38.369 0.076 quatxyzw -0.407044 -0.549057 -0.393089 0.615087 center 0.153 0.018 -0.028 ntor 13 178.6428 -156.6804 -147.9059 35.8966 -63.3305 -46.6242 137.1664 35.0962 129.4622 -2.3390 -71.0655 -33.2416 1.0170
State:	 27.267  38.369   0.076  -0.516 -0.696 -0.499 104.083    178.64 -156.68 -147.91   35.90  -63.33  -46.62  137.17   35.10  129.46   -2.34  -71.07  -33.24    1.02

DOCKED: MODEL       61
DOCKED: USER    Run = 61
DOCKED: USER    DPF = D:/Protein_go_brrr/autodock/final/6BB5/heme/dock.dpf
DOCKED: USER  
DOCKED: USER    Estimated Free Energy of Binding    =   -5.15 kcal/mol  [=(1)+(2)+(3)-(4)]
DOCKED: USER    Estimated Inhibition Constant, Ki   =  169.25 uM (micromolar)  [Temperature = 298.15 K]
DOCKED: USER    
DOCKED: USER    (1) Final Intermolecular Energy     =   -9.02 kcal/mol
DOCKED: USER        vdW + Hbond + desolv Energy     =   -8.18 kcal/mol
DOCKED: USER        Electrostatic Energy            =   -0.85 kcal/mol
DOCKED: USER    (2) Final Total Internal Energy     =   -3.71 kcal/mol
DOCKED: USER    (3) Torsional Free Energy           =   +3.88 kcal/mol
DOCKED: USER    (4) Unbound System's Energy  [=(2)] =   -3.71 kcal/mol
DOCKED: USER    
DOCKED: USER    
DOCKED: USER    NEWDPF move heme_opt.pdbqt
DOCKED: USER    NEWDPF about 0.153000 0.018000 -0.028000
DOCKED: USER    NEWDPF tran0 27.267260 38.369394 0.076257
DOCKED: USER    NEWDPF quaternion0 -0.407044 -0.549057 -0.393089 0.615087
DOCKED: USER    NEWDPF axisangle0 -0.516253 -0.696367 -0.498553 104.083470
DOCKED: USER    NEWDPF quat0 -0.516253 -0.696367 -0.498553 104.083470
DOCKED: USER    NEWDPF dihe0 178.64 -156.68 -147.91 35.90 -63.33 -46.62 137.17 35.10 129.46 -2.34 -71.07 -33.24 1.02 
DOCKED: USER  keepresnum = 1 
DOCKED: USER  
DOCKED: REMARK  13 active torsions:
DOCKED: REMARK  status: ('A' for Active; 'I' for Inactive)
DOCKED: REMARK    1  A    between atoms: O_3  and  C_38 
DOCKED: REMARK    2  A    between atoms: O_4  and  C_40 
DOCKED: REMARK    3  A    between atoms: O_7  and  C_46 
DOCKED: REMARK    4  A    between atoms: O_9  and  C_48 
DOCKED: REMARK    5  A    between atoms: C_15  and  C_20 
DOCKED: REMARK    6  A    between atoms: C_16  and  C_23 
DOCKED: REMARK    7  A    between atoms: C_20  and  C_38 
DOCKED: REMARK    8  A    between atoms: C_23  and  C_40 
DOCKED: REMARK    9  A    between atoms: C_32  and  C_41 
DOCKED: REMARK   10  A    between atoms: C_37  and  C_45 
DOCKED: REMARK   11  A    between atoms: C_41  and  C_44 
DOCKED: REMARK   12  A    between atoms: C_44  and  C_46 
DOCKED: REMARK   13  A    between atoms: C_47  and  C_48 
DOCKED: USER                              x       y       z     vdW  Elec       q    Type
DOCKED: USER                           _______ _______ _______ _____ _____    ______ ____
DOCKED: ROOT
DOCKED: ATOM      1  O   UNL d   1      27.357  33.711   3.688 -0.19 -0.20    -0.289 OA
DOCKED: ATOM      2  O   UNL d   1      25.639  34.263  -3.601 -0.06 +0.03    -0.289 OA
DOCKED: ATOM      3  N   UNL d   1      27.314  36.719   2.002 -0.15 -0.01    -0.247 NA
DOCKED: ATOM      4  N   UNL d   1      26.840  35.914  -0.819 -0.09 -0.02    -0.247 NA
DOCKED: ATOM      5  N   UNL d   1      27.588  38.576  -1.607 +0.00 -0.03    -0.354 N 
DOCKED: ATOM      6  N   UNL d   1      28.096  39.397   1.320 -0.06 +0.00    -0.354 N 
DOCKED: ATOM      7  C   UNL d   1      27.973  36.008   4.253 -0.23 -0.01    +0.084 A 
DOCKED: ATOM      8  C   UNL d   1      25.668  33.803  -1.197 -0.21 -0.00    +0.084 A 
DOCKED: ATOM      9  C   UNL d   1      26.316  34.790  -0.221 -0.21 +0.01    +0.058 A 
DOCKED: ATOM     10  C   UNL d   1      27.824  37.130   3.222 -0.24 -0.01    +0.058 A 
DOCKED: ATOM     11  C   UNL d   1      27.440  34.892   3.405 -0.18 +0.05    +0.193 A 
DOCKED: ATOM     12  C   UNL d   1      27.051  35.455   2.073 -0.22 +0.02    +0.109 A 
DOCKED: ATOM     13  C   UNL d   1      25.954  34.558  -2.465 -0.11 -0.00    +0.193 A 
DOCKED: ATOM     14  C   UNL d   1      29.440  35.722   4.582 -0.25 -0.00    +0.026 C 
DOCKED: ATOM     15  C   UNL d   1      26.410  34.551   1.097 -0.32 +0.01    +0.055 C 
DOCKED: ATOM     16  C   UNL d   1      24.151  33.725  -1.003 -0.32 -0.00    +0.026 C 
DOCKED: ATOM     17  C   UNL d   1      26.674  35.815  -2.099 -0.16 +0.00    +0.109 A 
DOCKED: ATOM     18  C   UNL d   1      28.088  38.413   3.536 -0.32 -0.02    +0.050 C 
DOCKED: ATOM     19  C   UNL d   1      27.899  39.525   2.677 -0.27 -0.01    +0.045 A 
DOCKED: ATOM     20  C   UNL d   1      27.544  37.970  -2.836 -0.16 +0.00    +0.045 A 
DOCKED: ATOM     21  C   UNL d   1      27.124  36.740  -3.149 -0.17 +0.00    +0.057 C 
DOCKED: ATOM     22  C   UNL d   1      28.381  40.081  -3.083 -0.10 -0.00    -0.019 A 
DOCKED: ATOM     23  C   UNL d   1      28.079  39.853  -1.656 -0.13 +0.00    +0.045 A 
DOCKED: ATOM     24  C   UNL d   1      28.061  38.963  -3.777 -0.10 -0.00    -0.022 A 
DOCKED: ATOM     25  C   UNL d   1      27.949  40.612   0.693 -0.16 +0.00    +0.049 A 
DOCKED: ATOM     26  C   UNL d   1      27.579  40.850   2.933 -0.37 +0.00    -0.018 A 
DOCKED: ATOM     27  C   UNL d   1      27.593  41.527   1.675 -0.30 +0.00    +0.003 A 
DOCKED: ATOM     28  C   UNL d   1      28.257  40.764  -0.686 -0.15 +0.01    +0.052 C 
DOCKED: ATOM     29  C   UNL d   1      28.173  38.710  -5.242 -0.05 +0.00    +0.046 C 
DOCKED: ATOM     30  C   UNL d   1      27.277  41.451   4.264 -0.52 -0.01    +0.046 C 
DOCKED: ATOM     31  H   UNL d   1      27.209  38.122  -0.783 +0.06 +0.01    +0.166 HD
DOCKED: ATOM     32  H   UNL d   1      28.355  38.526   0.871 +0.05 +0.00    +0.166 HD
DOCKED: ENDROOT
DOCKED: BRANCH   7  33
DOCKED: ATOM     33  C   UNL d   1      27.132  36.167   5.524 -0.22 -0.09    +0.141 C 
DOCKED: BRANCH  33  34
DOCKED: ATOM     34  C   UNL d   1      27.273  34.998   6.461 -0.18 -0.09    +0.306 C 
DOCKED: ATOM     35  O   UNL d   1      27.836  33.944   6.219 -0.23 -0.05    -0.251 OA
DOCKED: BRANCH  34  36
DOCKED: ATOM     36  O   UNL d   1      26.698  35.221   7.657 -0.17 +0.33    -0.481 OA
DOCKED: ATOM     37  H   UNL d   1      26.383  36.148   7.610 -0.35 -0.52    +0.295 HD
DOCKED: ENDBRANCH  34  36
DOCKED: ENDBRANCH  33  34
DOCKED: ENDBRANCH   7  33
DOCKED: BRANCH  27  38
DOCKED: ATOM     38  C   UNL d   1      27.330  42.922   1.486 -0.34 +0.01    +0.017 C 
DOCKED: ATOM     39  C   UNL d   1      27.279  43.547   0.299 -0.21 +0.03    +0.092 C 
DOCKED: BRANCH  39  40
DOCKED: ATOM     40  C   UNL d   1      26.983  44.980   0.241 -0.09 +0.13    +0.330 C 
DOCKED: ATOM     41  O   UNL d   1      26.081  45.577   0.799 -0.13 -0.13    -0.246 OA
DOCKED: BRANCH  40  42
DOCKED: ATOM     42  O   UNL d   1      27.879  45.606  -0.538 -0.01 -0.12    -0.477 OA
DOCKED: ATOM     43  H   UNL d   1      28.218  44.896  -1.122 +0.05 +0.06    +0.295 HD
DOCKED: ENDBRANCH  40  42
DOCKED: ENDBRANCH  39  40
DOCKED: ENDBRANCH  27  38
DOCKED: BRANCH   8  44
DOCKED: ATOM     44  C   UNL d   1      26.295  32.406  -1.238 -0.10 +0.01    +0.141 C 
DOCKED: BRANCH  44  45
DOCKED: ATOM     45  C   UNL d   1      27.786  32.429  -1.446 -0.06 +0.12    +0.306 C 
DOCKED: ATOM     46  O   UNL d   1      28.641  32.421  -0.578 -0.40 -0.29    -0.251 OA
DOCKED: BRANCH  45  47
DOCKED: ATOM     47  O   UNL d   1      28.123  32.489  -2.747 +0.01 -0.07    -0.481 OA
DOCKED: ATOM     48  H   UNL d   1      27.395  32.994  -3.169 +0.05 +0.01    +0.295 HD
DOCKED: ENDBRANCH  45  47
DOCKED: ENDBRANCH  44  45
DOCKED: ENDBRANCH   8  44
DOCKED: BRANCH  22  49
DOCKED: ATOM     49  C   UNL d   1      28.962  41.352  -3.629 -0.05 +0.00    +0.048 C 
DOCKED: BRANCH  49  50
DOCKED: ATOM     50  C   UNL d   1      27.889  42.417  -3.857 -0.06 +0.01    +0.125 C 
DOCKED: BRANCH  50  51
DOCKED: ATOM     51  C   UNL d   1      28.024  43.537  -2.865 -0.02 +0.03    +0.305 C 
DOCKED: ATOM     52  O   UNL d   1      29.041  43.926  -2.318 -0.01 -0.03    -0.251 OA
DOCKED: BRANCH  51  53
DOCKED: ATOM     53  O   UNL d   1      26.838  44.117  -2.596 -0.01 -0.06    -0.481 OA
DOCKED: ATOM     54  H   UNL d   1      27.059  45.064  -2.472 +0.05 +0.04    +0.295 HD
DOCKED: ENDBRANCH  51  53
DOCKED: ENDBRANCH  50  51
DOCKED: ENDBRANCH  49  50
DOCKED: ENDBRANCH  22  49
DOCKED: TORSDOF 13
DOCKED: TER
DOCKED: ENDMDL
________________________________________________________________________________


	BEGINNING GENETIC ALGORITHM DOCKING 62 of 100
Run: 62 Seed: 458924099 988902255 [ Run 62 of 100 GA/GALS ]
Beginning LAMARCKIAN GENETIC ALGORITHM (LGA), with a maximum of 25000000 energy evaluations.

Final-Value: -10.658


	FINAL GENETIC ALGORITHM DOCKED STATE
	_______________________________________________


Detailed state:  trans 42.985 33.547 -1.407 quatxyzw 0.057691 -0.222110 0.845357 0.482400 center 0.153 0.018 -0.028 ntor 13 118.2049 -166.1253 -172.7011 -51.0884 -132.3450 83.5760 137.8577 -108.1807 27.5062 -15.5680 -93.3282 -90.6589 -5.4111
State:	 42.985  33.547  -1.407   0.066 -0.254  0.965 122.315    118.20 -166.13 -172.70  -51.09 -132.34   83.58  137.86 -108.18   27.51  -15.57  -93.33  -90.66   -5.41

DOCKED: MODEL       62
DOCKED: USER    Run = 62
DOCKED: USER    DPF = D:/Protein_go_brrr/autodock/final/6BB5/heme/dock.dpf
DOCKED: USER  
DOCKED: USER    Estimated Free Energy of Binding    =   -1.89 kcal/mol  [=(1)+(2)+(3)-(4)]
DOCKED: USER    Estimated Inhibition Constant, Ki   =   40.97 mM (millimolar)  [Temperature = 298.15 K]
DOCKED: USER    
DOCKED: USER    (1) Final Intermolecular Energy     =   -5.77 kcal/mol
DOCKED: USER        vdW + Hbond + desolv Energy     =   -5.73 kcal/mol
DOCKED: USER        Electrostatic Energy            =   -0.04 kcal/mol
DOCKED: USER    (2) Final Total Internal Energy     =   -4.89 kcal/mol
DOCKED: USER    (3) Torsional Free Energy           =   +3.88 kcal/mol
DOCKED: USER    (4) Unbound System's Energy  [=(2)] =   -4.89 kcal/mol
DOCKED: USER    
DOCKED: USER    
DOCKED: USER    NEWDPF move heme_opt.pdbqt
DOCKED: USER    NEWDPF about 0.153000 0.018000 -0.028000
DOCKED: USER    NEWDPF tran0 42.985190 33.547036 -1.406630
DOCKED: USER    NEWDPF quaternion0 0.057691 -0.222110 0.845357 0.482400
DOCKED: USER    NEWDPF axisangle0 0.065862 -0.253565 0.965074 122.315400
DOCKED: USER    NEWDPF quat0 0.065862 -0.253565 0.965074 122.315400
DOCKED: USER    NEWDPF dihe0 118.20 -166.13 -172.70 -51.09 -132.34 83.58 137.86 -108.18 27.51 -15.57 -93.33 -90.66 -5.41 
DOCKED: USER  keepresnum = 1 
DOCKED: USER  
DOCKED: REMARK  13 active torsions:
DOCKED: REMARK  status: ('A' for Active; 'I' for Inactive)
DOCKED: REMARK    1  A    between atoms: O_3  and  C_38 
DOCKED: REMARK    2  A    between atoms: O_4  and  C_40 
DOCKED: REMARK    3  A    between atoms: O_7  and  C_46 
DOCKED: REMARK    4  A    between atoms: O_9  and  C_48 
DOCKED: REMARK    5  A    between atoms: C_15  and  C_20 
DOCKED: REMARK    6  A    between atoms: C_16  and  C_23 
DOCKED: REMARK    7  A    between atoms: C_20  and  C_38 
DOCKED: REMARK    8  A    between atoms: C_23  and  C_40 
DOCKED: REMARK    9  A    between atoms: C_32  and  C_41 
DOCKED: REMARK   10  A    between atoms: C_37  and  C_45 
DOCKED: REMARK   11  A    between atoms: C_41  and  C_44 
DOCKED: REMARK   12  A    between atoms: C_44  and  C_46 
DOCKED: REMARK   13  A    between atoms: C_47  and  C_48 
DOCKED: USER                              x       y       z     vdW  Elec       q    Type
DOCKED: USER                           _______ _______ _______ _____ _____    ______ ____
DOCKED: ROOT
DOCKED: ATOM      1  O   UNL d   1      47.484  37.324  -0.900 -0.02 -0.01    -0.289 OA
DOCKED: ATOM      2  O   UNL d   1      40.067  38.400  -0.420 -0.04 -0.02    -0.289 OA
DOCKED: ATOM      3  N   UNL d   1      45.193  34.796  -1.409 -0.08 +0.03    -0.247 NA
DOCKED: ATOM      4  N   UNL d   1      42.600  36.076  -0.721 -0.08 -0.02    -0.247 NA
DOCKED: ATOM      5  N   UNL d   1      41.423  33.453  -0.679 -0.10 -0.00    -0.354 N 
DOCKED: ATOM      6  N   UNL d   1      44.120  32.132  -1.374 -0.07 +0.05    -0.354 N 
DOCKED: ATOM      7  C   UNL d   1      47.637  34.912  -1.266 -0.09 -0.00    +0.084 A 
DOCKED: ATOM      8  C   UNL d   1      42.451  38.502  -0.969 -0.05 +0.00    +0.084 A 
DOCKED: ATOM      9  C   UNL d   1      43.300  37.227  -1.004 -0.09 +0.00    +0.058 A 
DOCKED: ATOM     10  C   UNL d   1      46.371  34.070  -1.454 +0.03 -0.01    +0.058 A 
DOCKED: ATOM     11  C   UNL d   1      46.966  36.245  -1.124 -0.05 +0.00    +0.193 A 
DOCKED: ATOM     12  C   UNL d   1      45.488  36.046  -1.255 -0.10 -0.00    +0.109 A 
DOCKED: ATOM     13  C   UNL d   1      41.148  37.865  -0.576 -0.07 +0.01    +0.193 A 
DOCKED: ATOM     14  C   UNL d   1      48.358  34.579   0.043 -0.19 +0.00    +0.026 C 
DOCKED: ATOM     15  C   UNL d   1      44.621  37.242  -1.240 -0.08 +0.00    +0.055 C 
DOCKED: ATOM     16  C   UNL d   1      42.296  39.120  -2.362 -0.02 +0.00    +0.026 C 
DOCKED: ATOM     17  C   UNL d   1      41.375  36.393  -0.450 -0.14 +0.01    +0.109 A 
DOCKED: ATOM     18  C   UNL d   1      46.436  32.754  -1.729 -0.17 -0.01    +0.050 C 
DOCKED: ATOM     19  C   UNL d   1      45.326  31.915  -2.001 -0.20 -0.01    +0.045 A 
DOCKED: ATOM     20  C   UNL d   1      40.390  34.183  -0.150 -0.27 -0.00    +0.045 A 
DOCKED: ATOM     21  C   UNL d   1      40.277  35.510  -0.031 -0.21 +0.00    +0.057 C 
DOCKED: ATOM     22  C   UNL d   1      39.871  31.963  -0.012 -0.23 +0.00    -0.019 A 
DOCKED: ATOM     23  C   UNL d   1      41.200  32.102  -0.639 -0.24 -0.00    +0.045 A 
DOCKED: ATOM     24  C   UNL d   1      39.396  33.198   0.274 -0.32 +0.00    -0.022 A 
DOCKED: ATOM     25  C   UNL d   1      43.215  31.153  -1.712 -0.28 -0.00    +0.049 A 
DOCKED: ATOM     26  C   UNL d   1      45.190  30.787  -2.796 -0.14 +0.00    -0.018 A 
DOCKED: ATOM     27  C   UNL d   1      43.849  30.322  -2.625 -0.19 -0.00    +0.003 A 
DOCKED: ATOM     28  C   UNL d   1      41.950  31.076  -1.069 -0.34 -0.00    +0.052 C 
DOCKED: ATOM     29  C   UNL d   1      38.096  33.576   0.899 -0.32 -0.01    +0.046 C 
DOCKED: ATOM     30  C   UNL d   1      46.238  30.178  -3.664 -0.09 -0.01    +0.046 C 
DOCKED: ATOM     31  H   UNL d   1      42.216  33.906  -1.119 +0.05 +0.00    +0.166 HD
DOCKED: ATOM     32  H   UNL d   1      43.956  32.892  -0.723 -0.18 -0.03    +0.166 HD
DOCKED: ENDROOT
DOCKED: BRANCH   7  33
DOCKED: ATOM     33  C   UNL d   1      48.603  34.919  -2.455 -0.03 +0.00    +0.141 C 
DOCKED: BRANCH  33  34
DOCKED: ATOM     34  C   UNL d   1      48.115  35.775  -3.592 -0.00 +0.00    +0.306 C 
DOCKED: ATOM     35  O   UNL d   1      47.260  35.472  -4.407 -0.00 -0.00    -0.251 OA
DOCKED: BRANCH  34  36
DOCKED: ATOM     36  O   UNL d   1      48.730  36.971  -3.642 +0.00 -0.01    -0.481 OA
DOCKED: ATOM     37  H   UNL d   1      48.462  37.420  -2.813 +0.01 +0.01    +0.295 HD
DOCKED: ENDBRANCH  34  36
DOCKED: ENDBRANCH  33  34
DOCKED: ENDBRANCH   7  33
DOCKED: BRANCH  27  38
DOCKED: ATOM     38  C   UNL d   1      43.290  29.165  -3.257 -0.15 -0.00    +0.017 C 
DOCKED: ATOM     39  C   UNL d   1      42.687  28.150  -2.620 -0.18 -0.00    +0.092 C 
DOCKED: BRANCH  39  40
DOCKED: ATOM     40  C   UNL d   1      42.139  27.029  -3.388 -0.06 +0.00    +0.330 C 
DOCKED: ATOM     41  O   UNL d   1      42.738  26.068  -3.831 -0.04 -0.00    -0.246 OA
DOCKED: BRANCH  40  42
DOCKED: ATOM     42  O   UNL d   1      40.816  27.185  -3.553 -0.00 -0.00    -0.477 OA
DOCKED: ATOM     43  H   UNL d   1      40.656  28.117  -3.300 +0.05 +0.00    +0.295 HD
DOCKED: ENDBRANCH  40  42
DOCKED: ENDBRANCH  39  40
DOCKED: ENDBRANCH  27  38
DOCKED: BRANCH   8  44
DOCKED: ATOM     44  C   UNL d   1      42.880  39.553   0.060 -0.07 +0.01    +0.141 C 
DOCKED: BRANCH  44  45
DOCKED: ATOM     45  C   UNL d   1      42.724  39.089   1.484 -0.14 +0.02    +0.306 C 
DOCKED: ATOM     46  O   UNL d   1      43.581  38.566   2.175 -0.22 -0.01    -0.251 OA
DOCKED: BRANCH  45  47
DOCKED: ATOM     47  O   UNL d   1      41.480  39.285   1.956 -0.08 -0.04    -0.481 OA
DOCKED: ATOM     48  H   UNL d   1      40.966  39.596   1.180 +0.09 +0.03    +0.295 HD
DOCKED: ENDBRANCH  45  47
DOCKED: ENDBRANCH  44  45
DOCKED: ENDBRANCH   8  44
DOCKED: BRANCH  22  49
DOCKED: ATOM     49  C   UNL d   1      39.201  30.648   0.260 -0.34 -0.01    +0.048 C 
DOCKED: BRANCH  49  50
DOCKED: ATOM     50  C   UNL d   1      38.360  30.182  -0.928 -0.15 -0.00    +0.125 C 
DOCKED: BRANCH  50  51
DOCKED: ATOM     51  C   UNL d   1      39.193  29.394  -1.899 -0.06 -0.00    +0.305 C 
DOCKED: ATOM     52  O   UNL d   1      39.483  29.694  -3.044 -0.02 +0.00    -0.251 OA
DOCKED: BRANCH  51  53
DOCKED: ATOM     53  O   UNL d   1      39.619  28.230  -1.369 -0.06 +0.00    -0.481 OA
DOCKED: ATOM     54  H   UNL d   1      39.359  27.557  -2.032 +0.07 +0.00    +0.295 HD
DOCKED: ENDBRANCH  51  53
DOCKED: ENDBRANCH  50  51
DOCKED: ENDBRANCH  49  50
DOCKED: ENDBRANCH  22  49
DOCKED: TORSDOF 13
DOCKED: TER
DOCKED: ENDMDL
________________________________________________________________________________


	BEGINNING GENETIC ALGORITHM DOCKING 63 of 100
Run: 63 Seed: 1505230346 1529719097 [ Run 63 of 100 GA/GALS ]
Beginning LAMARCKIAN GENETIC ALGORITHM (LGA), with a maximum of 25000000 energy evaluations.

Final-Value: -12.123


	FINAL GENETIC ALGORITHM DOCKED STATE
	_______________________________________________


Detailed state:  trans 19.496 48.452 -3.852 quatxyzw 0.115663 -0.306527 0.424393 -0.844129 center 0.153 0.018 -0.028 ntor 13 136.1800 122.5837 -85.3646 47.7373 -137.2750 -103.4368 160.8488 58.6580 17.1299 -98.3143 -66.1142 20.0945 40.0394
State:	 19.496  48.452  -3.852   0.216 -0.572  0.792 -64.842    136.18  122.58  -85.36   47.74 -137.27 -103.44  160.85   58.66   17.13  -98.31  -66.11   20.09   40.04

DOCKED: MODEL       63
DOCKED: USER    Run = 63
DOCKED: USER    DPF = D:/Protein_go_brrr/autodock/final/6BB5/heme/dock.dpf
DOCKED: USER  
DOCKED: USER    Estimated Free Energy of Binding    =   -4.65 kcal/mol  [=(1)+(2)+(3)-(4)]
DOCKED: USER    Estimated Inhibition Constant, Ki   =  388.49 uM (micromolar)  [Temperature = 298.15 K]
DOCKED: USER    
DOCKED: USER    (1) Final Intermolecular Energy     =   -8.53 kcal/mol
DOCKED: USER        vdW + Hbond + desolv Energy     =   -8.43 kcal/mol
DOCKED: USER        Electrostatic Energy            =   -0.10 kcal/mol
DOCKED: USER    (2) Final Total Internal Energy     =   -3.59 kcal/mol
DOCKED: USER    (3) Torsional Free Energy           =   +3.88 kcal/mol
DOCKED: USER    (4) Unbound System's Energy  [=(2)] =   -3.59 kcal/mol
DOCKED: USER    
DOCKED: USER    
DOCKED: USER    NEWDPF move heme_opt.pdbqt
DOCKED: USER    NEWDPF about 0.153000 0.018000 -0.028000
DOCKED: USER    NEWDPF tran0 19.495740 48.451701 -3.851988
DOCKED: USER    NEWDPF quaternion0 0.115663 -0.306527 0.424393 -0.844129
DOCKED: USER    NEWDPF axisangle0 0.215733 -0.571730 0.791571 -64.842499
DOCKED: USER    NEWDPF quat0 0.215733 -0.571730 0.791571 -64.842499
DOCKED: USER    NEWDPF dihe0 136.18 122.58 -85.36 47.74 -137.27 -103.44 160.85 58.66 17.13 -98.31 -66.11 20.09 40.04 
DOCKED: USER  keepresnum = 1 
DOCKED: USER  
DOCKED: REMARK  13 active torsions:
DOCKED: REMARK  status: ('A' for Active; 'I' for Inactive)
DOCKED: REMARK    1  A    between atoms: O_3  and  C_38 
DOCKED: REMARK    2  A    between atoms: O_4  and  C_40 
DOCKED: REMARK    3  A    between atoms: O_7  and  C_46 
DOCKED: REMARK    4  A    between atoms: O_9  and  C_48 
DOCKED: REMARK    5  A    between atoms: C_15  and  C_20 
DOCKED: REMARK    6  A    between atoms: C_16  and  C_23 
DOCKED: REMARK    7  A    between atoms: C_20  and  C_38 
DOCKED: REMARK    8  A    between atoms: C_23  and  C_40 
DOCKED: REMARK    9  A    between atoms: C_32  and  C_41 
DOCKED: REMARK   10  A    between atoms: C_37  and  C_45 
DOCKED: REMARK   11  A    between atoms: C_41  and  C_44 
DOCKED: REMARK   12  A    between atoms: C_44  and  C_46 
DOCKED: REMARK   13  A    between atoms: C_47  and  C_48 
DOCKED: USER                              x       y       z     vdW  Elec       q    Type
DOCKED: USER                           _______ _______ _______ _____ _____    ______ ____
DOCKED: ROOT
DOCKED: ATOM      1  O   UNL d   1      15.359  45.570  -6.907 -0.27 +0.07    -0.289 OA
DOCKED: ATOM      2  O   UNL d   1      22.773  44.485  -6.413 -0.05 -0.02    -0.289 OA
DOCKED: ATOM      3  N   UNL d   1      17.429  47.626  -5.069 -0.13 +0.04    -0.247 NA
DOCKED: ATOM      4  N   UNL d   1      20.062  46.258  -5.223 -0.11 +0.02    -0.247 NA
DOCKED: ATOM      5  N   UNL d   1      20.971  47.968  -3.098 -0.08 +0.05    -0.354 N 
DOCKED: ATOM      6  N   UNL d   1      18.230  49.369  -2.931 -0.04 +0.13    -0.354 N 
DOCKED: ATOM      7  C   UNL d   1      15.005  47.446  -5.381 -0.35 -0.02    +0.084 A 
DOCKED: ATOM      8  C   UNL d   1      20.469  44.831  -7.164 -0.14 +0.01    +0.084 A 
DOCKED: ATOM      9  C   UNL d   1      19.506  45.706  -6.355 -0.19 -0.00    +0.058 A 
DOCKED: ATOM     10  C   UNL d   1      16.194  48.144  -4.716 -0.25 -0.01    +0.058 A 
DOCKED: ATOM     11  C   UNL d   1      15.787  46.453  -6.188 -0.26 -0.04    +0.193 A 
DOCKED: ATOM     12  C   UNL d   1      17.245  46.681  -5.932 -0.23 -0.01    +0.109 A 
DOCKED: ATOM     13  C   UNL d   1      21.664  44.959  -6.262 -0.09 +0.01    +0.193 A 
DOCKED: ATOM     14  C   UNL d   1      14.141  46.691  -4.368 -0.51 -0.01    +0.026 C 
DOCKED: ATOM     15  C   UNL d   1      18.219  45.874  -6.695 -0.26 -0.00    +0.055 C 
DOCKED: ATOM     16  C   UNL d   1      20.805  45.460  -8.519 -0.07 +0.00    +0.026 C 
DOCKED: ATOM     17  C   UNL d   1      21.284  45.843  -5.119 -0.16 -0.00    +0.109 A 
DOCKED: ATOM     18  C   UNL d   1      16.026  49.225  -3.931 -0.31 -0.01    +0.050 C 
DOCKED: ATOM     19  C   UNL d   1      17.069  49.984  -3.342 -0.25 -0.01    +0.045 A 
DOCKED: ATOM     20  C   UNL d   1      22.019  47.086  -3.154 -0.19 -0.00    +0.045 A 
DOCKED: ATOM     21  C   UNL d   1      22.250  46.116  -4.044 -0.22 -0.00    +0.057 C 
DOCKED: ATOM     22  C   UNL d   1      22.306  48.458  -1.351 -0.15 +0.00    -0.019 A 
DOCKED: ATOM     23  C   UNL d   1      21.057  48.836  -2.042 -0.17 -0.01    +0.045 A 
DOCKED: ATOM     24  C   UNL d   1      22.871  47.423  -2.015 -0.13 -0.00    -0.022 A 
DOCKED: ATOM     25  C   UNL d   1      19.062  50.271  -2.310 -0.22 -0.01    +0.049 A 
DOCKED: ATOM     26  C   UNL d   1      17.165  51.327  -3.013 -0.26 +0.00    -0.018 A 
DOCKED: ATOM     27  C   UNL d   1      18.433  51.507  -2.379 -0.23 -0.00    +0.003 A 
DOCKED: ATOM     28  C   UNL d   1      20.252  49.840  -1.663 -0.22 -0.01    +0.052 C 
DOCKED: ATOM     29  C   UNL d   1      24.141  46.702  -1.712 -0.05 +0.01    +0.046 C 
DOCKED: ATOM     30  C   UNL d   1      16.143  52.382  -3.271 -0.26 -0.01    +0.046 C 
DOCKED: ATOM     31  H   UNL d   1      20.267  47.997  -3.827 +0.05 -0.03    +0.166 HD
DOCKED: ATOM     32  H   UNL d   1      18.409  48.378  -3.044 -0.39 -0.09    +0.166 HD
DOCKED: ENDROOT
DOCKED: BRANCH   7  33
DOCKED: ATOM     33  C   UNL d   1      14.152  48.331  -6.298 -0.21 -0.02    +0.141 C 
DOCKED: BRANCH  33  34
DOCKED: ATOM     34  C   UNL d   1      14.911  48.816  -7.503 -0.07 -0.03    +0.306 C 
DOCKED: ATOM     35  O   UNL d   1      15.656  49.781  -7.546 -0.03 +0.02    -0.251 OA
DOCKED: BRANCH  34  36
DOCKED: ATOM     36  O   UNL d   1      14.692  48.058  -8.593 -0.05 +0.05    -0.481 OA
DOCKED: ATOM     37  H   UNL d   1      14.780  47.135  -8.273 +0.10 -0.04    +0.295 HD
DOCKED: ENDBRANCH  34  36
DOCKED: ENDBRANCH  33  34
DOCKED: ENDBRANCH   7  33
DOCKED: BRANCH  27  38
DOCKED: ATOM     38  C   UNL d   1      18.931  52.747  -1.865 +0.12 -0.00    +0.017 C 
DOCKED: ATOM     39  C   UNL d   1      20.085  53.328  -2.227 -0.12 -0.01    +0.092 C 
DOCKED: BRANCH  39  40
DOCKED: ATOM     40  C   UNL d   1      20.473  54.611  -1.636 -0.07 -0.04    +0.330 C 
DOCKED: ATOM     41  O   UNL d   1      20.447  55.709  -2.159 -0.04 +0.02    -0.246 OA
DOCKED: BRANCH  40  42
DOCKED: ATOM     42  O   UNL d   1      20.879  54.433  -0.369 -0.07 +0.10    -0.477 OA
DOCKED: ATOM     43  H   UNL d   1      20.111  54.010   0.066 -0.43 -0.13    +0.295 HD
DOCKED: ENDBRANCH  40  42
DOCKED: ENDBRANCH  39  40
DOCKED: ENDBRANCH  27  38
DOCKED: BRANCH   8  44
DOCKED: ATOM     44  C   UNL d   1      20.055  43.364  -7.322 -0.20 +0.03    +0.141 C 
DOCKED: BRANCH  44  45
DOCKED: ATOM     45  C   UNL d   1      21.226  42.421  -7.397 -0.14 +0.07    +0.306 C 
DOCKED: ATOM     46  O   UNL d   1      21.499  41.537  -6.604 -0.23 -0.06    -0.251 OA
DOCKED: BRANCH  45  47
DOCKED: ATOM     47  O   UNL d   1      22.013  42.661  -8.461 -0.02 -0.09    -0.481 OA
DOCKED: ATOM     48  H   UNL d   1      22.712  43.259  -8.123 +0.06 +0.04    +0.295 HD
DOCKED: ENDBRANCH  45  47
DOCKED: ENDBRANCH  44  45
DOCKED: ENDBRANCH   8  44
DOCKED: BRANCH  22  49
DOCKED: ATOM     49  C   UNL d   1      22.818  49.128  -0.109 -0.12 +0.00    +0.048 C 
DOCKED: BRANCH  49  50
DOCKED: ATOM     50  C   UNL d   1      22.693  50.649  -0.192 -0.05 -0.01    +0.125 C 
DOCKED: BRANCH  50  51
DOCKED: ATOM     51  C   UNL d   1      21.721  51.164   0.832 -0.09 -0.05    +0.305 C 
DOCKED: ATOM     52  O   UNL d   1      21.716  50.942   2.030 -0.14 +0.03    -0.251 OA
DOCKED: BRANCH  51  53
DOCKED: ATOM     53  O   UNL d   1      20.771  51.944   0.277 -0.04 +0.14    -0.481 OA
DOCKED: ATOM     54  H   UNL d   1      20.740  52.731   0.860 -0.40 -0.18    +0.295 HD
DOCKED: ENDBRANCH  51  53
DOCKED: ENDBRANCH  50  51
DOCKED: ENDBRANCH  49  50
DOCKED: ENDBRANCH  22  49
DOCKED: TORSDOF 13
DOCKED: TER
DOCKED: ENDMDL
________________________________________________________________________________


	BEGINNING GENETIC ALGORITHM DOCKING 64 of 100
Run: 64 Seed: 1402337998 221218677 [ Run 64 of 100 GA/GALS ]
Beginning LAMARCKIAN GENETIC ALGORITHM (LGA), with a maximum of 25000000 energy evaluations.

Final-Value: -9.411


	FINAL GENETIC ALGORITHM DOCKED STATE
	_______________________________________________


Detailed state:  trans 12.659 20.703 -12.266 quatxyzw -0.061803 -0.180118 -0.532357 -0.824824 center 0.153 0.018 -0.028 ntor 13 -79.4321 168.9035 -96.6914 -22.4895 -134.6777 -77.4586 -176.4096 86.2733 -153.2596 9.7805 119.7147 -14.1076 179.9693
State:	 12.659  20.703 -12.266  -0.109 -0.319 -0.942 -68.859    -79.43  168.90  -96.69  -22.49 -134.68  -77.46 -176.41   86.27 -153.26    9.78  119.71  -14.11  179.97

DOCKED: MODEL       64
DOCKED: USER    Run = 64
DOCKED: USER    DPF = D:/Protein_go_brrr/autodock/final/6BB5/heme/dock.dpf
DOCKED: USER  
DOCKED: USER    Estimated Free Energy of Binding    =   -4.02 kcal/mol  [=(1)+(2)+(3)-(4)]
DOCKED: USER    Estimated Inhibition Constant, Ki   =    1.13 mM (millimolar)  [Temperature = 298.15 K]
DOCKED: USER    
DOCKED: USER    (1) Final Intermolecular Energy     =   -7.90 kcal/mol
DOCKED: USER        vdW + Hbond + desolv Energy     =   -7.34 kcal/mol
DOCKED: USER        Electrostatic Energy            =   -0.56 kcal/mol
DOCKED: USER    (2) Final Total Internal Energy     =   -1.51 kcal/mol
DOCKED: USER    (3) Torsional Free Energy           =   +3.88 kcal/mol
DOCKED: USER    (4) Unbound System's Energy  [=(2)] =   -1.51 kcal/mol
DOCKED: USER    
DOCKED: USER    
DOCKED: USER    NEWDPF move heme_opt.pdbqt
DOCKED: USER    NEWDPF about 0.153000 0.018000 -0.028000
DOCKED: USER    NEWDPF tran0 12.658608 20.702537 -12.265851
DOCKED: USER    NEWDPF quaternion0 -0.061803 -0.180118 -0.532357 -0.824824
DOCKED: USER    NEWDPF axisangle0 -0.109310 -0.318572 -0.941575 -68.858757
DOCKED: USER    NEWDPF quat0 -0.109310 -0.318572 -0.941575 -68.858757
DOCKED: USER    NEWDPF dihe0 -79.43 168.90 -96.69 -22.49 -134.68 -77.46 -176.41 86.27 -153.26 9.78 119.71 -14.11 179.97 
DOCKED: USER  keepresnum = 1 
DOCKED: USER  
DOCKED: REMARK  13 active torsions:
DOCKED: REMARK  status: ('A' for Active; 'I' for Inactive)
DOCKED: REMARK    1  A    between atoms: O_3  and  C_38 
DOCKED: REMARK    2  A    between atoms: O_4  and  C_40 
DOCKED: REMARK    3  A    between atoms: O_7  and  C_46 
DOCKED: REMARK    4  A    between atoms: O_9  and  C_48 
DOCKED: REMARK    5  A    between atoms: C_15  and  C_20 
DOCKED: REMARK    6  A    between atoms: C_16  and  C_23 
DOCKED: REMARK    7  A    between atoms: C_20  and  C_38 
DOCKED: REMARK    8  A    between atoms: C_23  and  C_40 
DOCKED: REMARK    9  A    between atoms: C_32  and  C_41 
DOCKED: REMARK   10  A    between atoms: C_37  and  C_45 
DOCKED: REMARK   11  A    between atoms: C_41  and  C_44 
DOCKED: REMARK   12  A    between atoms: C_44  and  C_46 
DOCKED: REMARK   13  A    between atoms: C_47  and  C_48 
DOCKED: USER                              x       y       z     vdW  Elec       q    Type
DOCKED: USER                           _______ _______ _______ _____ _____    ______ ____
DOCKED: ROOT
DOCKED: ATOM      1  O   UNL d   1      11.963  26.414 -13.550 -0.24 +0.14    -0.289 OA
DOCKED: ATOM      2  O   UNL d   1       7.682  20.451 -15.130 +0.00 -0.01    -0.289 OA
DOCKED: ATOM      3  N   UNL d   1      12.857  23.194 -12.696 -0.09 +0.16    -0.247 NA
DOCKED: ATOM      4  N   UNL d   1      10.461  21.601 -13.438 -0.06 +0.05    -0.247 NA
DOCKED: ATOM      5  N   UNL d   1      11.558  19.417 -11.924 -0.03 +0.03    -0.354 N 
DOCKED: ATOM      6  N   UNL d   1      14.031  21.084 -11.143 +0.10 +0.27    -0.354 N 
DOCKED: ATOM      7  C   UNL d   1      13.780  25.421 -12.251 -0.28 -0.05    +0.084 A 
DOCKED: ATOM      8  C   UNL d   1       9.028  22.494 -15.205 -0.02 -0.01    +0.084 A 
DOCKED: ATOM      9  C   UNL d   1      10.229  22.673 -14.271 -0.09 -0.02    +0.058 A 
DOCKED: ATOM     10  C   UNL d   1      13.866  23.903 -12.066 -0.22 -0.04    +0.058 A 
DOCKED: ATOM     11  C   UNL d   1      12.554  25.443 -13.113 -0.15 -0.13    +0.193 A 
DOCKED: ATOM     12  C   UNL d   1      12.104  24.032 -13.332 -0.09 -0.08    +0.109 A 
DOCKED: ATOM     13  C   UNL d   1       8.598  21.137 -14.722 -0.01 -0.00    +0.193 A 
DOCKED: ATOM     14  C   UNL d   1      13.475  26.143 -10.937 -0.38 -0.02    +0.026 C 
DOCKED: ATOM     15  C   UNL d   1      10.958  23.799 -14.234 -0.13 -0.02    +0.055 C 
DOCKED: ATOM     16  C   UNL d   1       9.460  22.381 -16.670 -0.00 -0.00    +0.026 C 
DOCKED: ATOM     17  C   UNL d   1       9.544  20.712 -13.646 -0.06 +0.01    +0.109 A 
DOCKED: ATOM     18  C   UNL d   1      14.898  23.331 -11.417 -0.29 -0.03    +0.050 C 
DOCKED: ATOM     19  C   UNL d   1      15.105  21.936 -11.270 -0.19 -0.03    +0.045 A 
DOCKED: ATOM     20  C   UNL d   1      10.303  18.926 -12.170 -0.07 +0.01    +0.045 A 
DOCKED: ATOM     21  C   UNL d   1       9.343  19.432 -12.951 -0.07 +0.02    +0.057 C 
DOCKED: ATOM     22  C   UNL d   1      11.379  17.515 -10.731 -0.08 +0.00    -0.019 A 
DOCKED: ATOM     23  C   UNL d   1      12.283  18.634 -11.066 -0.13 -0.02    +0.045 A 
DOCKED: ATOM     24  C   UNL d   1      10.209  17.693 -11.389 -0.06 -0.00    -0.022 A 
DOCKED: ATOM     25  C   UNL d   1      14.460  19.795 -10.921 -0.21 -0.04    +0.049 A 
DOCKED: ATOM     26  C   UNL d   1      16.260  21.177 -11.165 -0.22 +0.01    -0.018 A 
DOCKED: ATOM     27  C   UNL d   1      15.847  19.824 -10.965 -0.24 -0.00    +0.003 A 
DOCKED: ATOM     28  C   UNL d   1      13.536  18.764 -10.603 -0.18 -0.05    +0.052 C 
DOCKED: ATOM     29  C   UNL d   1       8.994  16.828 -11.383 -0.04 +0.01    +0.046 C 
DOCKED: ATOM     30  C   UNL d   1      17.663  21.675 -11.248 -0.17 -0.02    +0.046 C 
DOCKED: ATOM     31  H   UNL d   1      11.907  20.236 -12.410 +0.04 -0.04    +0.166 HD
DOCKED: ATOM     32  H   UNL d   1      13.066  21.390 -11.170 -0.27 -0.13    +0.166 HD
DOCKED: ENDROOT
DOCKED: BRANCH   7  33
DOCKED: ATOM     33  C   UNL d   1      14.964  26.061 -12.984 -0.17 -0.04    +0.141 C 
DOCKED: BRANCH  33  34
DOCKED: ATOM     34  C   UNL d   1      15.878  26.817 -12.057 -0.15 -0.07    +0.306 C 
DOCKED: ATOM     35  O   UNL d   1      15.698  27.944 -11.629 -0.69 +0.03    -0.251 OA
DOCKED: BRANCH  34  36
DOCKED: ATOM     36  O   UNL d   1      16.971  26.110 -11.717 -0.04 +0.10    -0.481 OA
DOCKED: ATOM     37  H   UNL d   1      17.672  26.435 -12.321 +0.08 -0.05    +0.295 HD
DOCKED: ENDBRANCH  34  36
DOCKED: ENDBRANCH  33  34
DOCKED: ENDBRANCH   7  33
DOCKED: BRANCH  27  38
DOCKED: ATOM     38  C   UNL d   1      16.729  18.709 -10.791 -0.06 -0.02    +0.017 C 
DOCKED: ATOM     39  C   UNL d   1      16.411  17.426 -11.025 -0.09 -0.09    +0.092 C 
DOCKED: BRANCH  39  40
DOCKED: ATOM     40  C   UNL d   1      17.414  16.377 -10.824 -0.06 -0.26    +0.330 C 
DOCKED: ATOM     41  O   UNL d   1      18.320  16.061 -11.571 -0.02 +0.10    -0.246 OA
DOCKED: BRANCH  40  42
DOCKED: ATOM     42  O   UNL d   1      17.216  15.770  -9.644 -0.07 +0.61    -0.477 OA
DOCKED: ATOM     43  H   UNL d   1      16.563  16.342  -9.192 -0.20 -0.76    +0.295 HD
DOCKED: ENDBRANCH  40  42
DOCKED: ENDBRANCH  39  40
DOCKED: ENDBRANCH  27  38
DOCKED: BRANCH   8  44
DOCKED: ATOM     44  C   UNL d   1       7.902  23.519 -15.036 -0.04 -0.02    +0.141 C 
DOCKED: BRANCH  44  45
DOCKED: ATOM     45  C   UNL d   1       7.626  23.868 -13.598 -0.07 -0.13    +0.306 C 
DOCKED: ATOM     46  O   UNL d   1       7.382  24.976 -13.153 -0.05 +0.13    -0.251 OA
DOCKED: BRANCH  45  47
DOCKED: ATOM     47  O   UNL d   1       7.702  22.799 -12.785 -0.16 +0.18    -0.481 OA
DOCKED: ATOM     48  H   UNL d   1       8.659  22.696 -12.598 -0.01 -0.18    +0.295 HD
DOCKED: ENDBRANCH  45  47
DOCKED: ENDBRANCH  44  45
DOCKED: ENDBRANCH   8  44
DOCKED: BRANCH  22  49
DOCKED: ATOM     49  C   UNL d   1      11.734  16.395  -9.798 -0.09 -0.01    +0.048 C 
DOCKED: BRANCH  49  50
DOCKED: ATOM     50  C   UNL d   1      11.210  16.646  -8.384 -0.18 -0.02    +0.125 C 
DOCKED: BRANCH  50  51
DOCKED: ATOM     51  C   UNL d   1      11.777  17.917  -7.819 -0.29 -0.15    +0.305 C 
DOCKED: ATOM     52  O   UNL d   1      11.409  19.057  -8.039 -0.40 +0.05    -0.251 OA
DOCKED: BRANCH  51  53
DOCKED: ATOM     53  O   UNL d   1      12.815  17.682  -6.991 -0.26 +0.56    -0.481 OA
DOCKED: ATOM     54  H   UNL d   1      13.316  18.524  -6.993 -0.40 -0.52    +0.295 HD
DOCKED: ENDBRANCH  51  53
DOCKED: ENDBRANCH  50  51
DOCKED: ENDBRANCH  49  50
DOCKED: ENDBRANCH  22  49
DOCKED: TORSDOF 13
DOCKED: TER
DOCKED: ENDMDL
________________________________________________________________________________


	BEGINNING GENETIC ALGORITHM DOCKING 65 of 100
Run: 65 Seed: 940606720 220524620 [ Run 65 of 100 GA/GALS ]
Beginning LAMARCKIAN GENETIC ALGORITHM (LGA), with a maximum of 25000000 energy evaluations.

Final-Value: -12.449


	FINAL GENETIC ALGORITHM DOCKED STATE
	_______________________________________________


Detailed state:  trans 12.482 39.724 25.451 quatxyzw -0.754885 0.404721 -0.389978 0.338034 center 0.153 0.018 -0.028 ntor 13 88.1599 179.9294 109.2101 16.7787 -133.8277 -5.1269 -51.4039 -177.8780 46.2904 -131.0937 63.3742 -67.9640 130.4742
State:	 12.482  39.724  25.451  -0.802  0.430 -0.414 140.486     88.16  179.93  109.21   16.78 -133.83   -5.13  -51.40 -177.88   46.29 -131.09   63.37  -67.96  130.47

DOCKED: MODEL       65
DOCKED: USER    Run = 65
DOCKED: USER    DPF = D:/Protein_go_brrr/autodock/final/6BB5/heme/dock.dpf
DOCKED: USER  
DOCKED: USER    Estimated Free Energy of Binding    =   -4.19 kcal/mol  [=(1)+(2)+(3)-(4)]
DOCKED: USER    Estimated Inhibition Constant, Ki   =  855.58 uM (micromolar)  [Temperature = 298.15 K]
DOCKED: USER    
DOCKED: USER    (1) Final Intermolecular Energy     =   -8.06 kcal/mol
DOCKED: USER        vdW + Hbond + desolv Energy     =   -8.01 kcal/mol
DOCKED: USER        Electrostatic Energy            =   -0.05 kcal/mol
DOCKED: USER    (2) Final Total Internal Energy     =   -4.39 kcal/mol
DOCKED: USER    (3) Torsional Free Energy           =   +3.88 kcal/mol
DOCKED: USER    (4) Unbound System's Energy  [=(2)] =   -4.39 kcal/mol
DOCKED: USER    
DOCKED: USER    
DOCKED: USER    NEWDPF move heme_opt.pdbqt
DOCKED: USER    NEWDPF about 0.153000 0.018000 -0.028000
DOCKED: USER    NEWDPF tran0 12.481758 39.724422 25.450554
DOCKED: USER    NEWDPF quaternion0 -0.754885 0.404721 -0.389978 0.338034
DOCKED: USER    NEWDPF axisangle0 -0.802101 0.430036 -0.414371 140.485776
DOCKED: USER    NEWDPF quat0 -0.802101 0.430036 -0.414371 140.485776
DOCKED: USER    NEWDPF dihe0 88.16 179.93 109.21 16.78 -133.83 -5.13 -51.40 -177.88 46.29 -131.09 63.37 -67.96 130.47 
DOCKED: USER  keepresnum = 1 
DOCKED: USER  
DOCKED: REMARK  13 active torsions:
DOCKED: REMARK  status: ('A' for Active; 'I' for Inactive)
DOCKED: REMARK    1  A    between atoms: O_3  and  C_38 
DOCKED: REMARK    2  A    between atoms: O_4  and  C_40 
DOCKED: REMARK    3  A    between atoms: O_7  and  C_46 
DOCKED: REMARK    4  A    between atoms: O_9  and  C_48 
DOCKED: REMARK    5  A    between atoms: C_15  and  C_20 
DOCKED: REMARK    6  A    between atoms: C_16  and  C_23 
DOCKED: REMARK    7  A    between atoms: C_20  and  C_38 
DOCKED: REMARK    8  A    between atoms: C_23  and  C_40 
DOCKED: REMARK    9  A    between atoms: C_32  and  C_41 
DOCKED: REMARK   10  A    between atoms: C_37  and  C_45 
DOCKED: REMARK   11  A    between atoms: C_41  and  C_44 
DOCKED: REMARK   12  A    between atoms: C_44  and  C_46 
DOCKED: REMARK   13  A    between atoms: C_47  and  C_48 
DOCKED: USER                              x       y       z     vdW  Elec       q    Type
DOCKED: USER                           _______ _______ _______ _____ _____    ______ ____
DOCKED: ROOT
DOCKED: ATOM      1  O   UNL d   1       9.142  40.389  20.638 -0.08 +0.00    -0.289 OA
DOCKED: ATOM      2  O   UNL d   1      15.244  44.103  22.954 -0.15 +0.04    -0.289 OA
DOCKED: ATOM      3  N   UNL d   1      10.707  39.725  23.639 -0.14 +0.06    -0.247 NA
DOCKED: ATOM      4  N   UNL d   1      13.133  41.436  23.538 -0.17 +0.06    -0.247 NA
DOCKED: ATOM      5  N   UNL d   1      14.163  39.949  25.773 -0.03 +0.11    -0.354 N 
DOCKED: ATOM      6  N   UNL d   1      11.650  38.165  25.858 -0.10 +0.13    -0.354 N 
DOCKED: ATOM      7  C   UNL d   1       8.867  38.700  22.384 -0.27 -0.01    +0.084 A 
DOCKED: ATOM      8  C   UNL d   1      13.027  43.445  22.151 -0.17 -0.01    +0.084 A 
DOCKED: ATOM      9  C   UNL d   1      12.374  42.146  22.635 -0.23 -0.01    +0.058 A 
DOCKED: ATOM     10  C   UNL d   1       9.772  38.702  23.619 -0.26 -0.01    +0.058 A 
DOCKED: ATOM     11  C   UNL d   1       9.443  39.913  21.717 -0.15 -0.01    +0.193 A 
DOCKED: ATOM     12  C   UNL d   1      10.533  40.458  22.588 -0.19 -0.01    +0.109 A 
DOCKED: ATOM     13  C   UNL d   1      14.313  43.322  22.918 -0.16 -0.03    +0.193 A 
DOCKED: ATOM     14  C   UNL d   1       9.115  37.481  21.492 -0.51 -0.00    +0.026 C 
DOCKED: ATOM     15  C   UNL d   1      11.188  41.716  22.177 -0.16 -0.01    +0.055 C 
DOCKED: ATOM     16  C   UNL d   1      12.272  44.681  22.651 -0.06 -0.00    +0.026 C 
DOCKED: ATOM     17  C   UNL d   1      14.255  42.058  23.713 -0.23 -0.02    +0.109 A 
DOCKED: ATOM     18  C   UNL d   1       9.590  37.827  24.626 -0.28 -0.01    +0.050 C 
DOCKED: ATOM     19  C   UNL d   1      10.321  37.807  25.841 -0.20 -0.01    +0.045 A 
DOCKED: ATOM     20  C   UNL d   1      15.280  40.666  25.433 -0.27 -0.01    +0.045 A 
DOCKED: ATOM     21  C   UNL d   1      15.403  41.650  24.536 -0.32 -0.01    +0.057 C 
DOCKED: ATOM     22  C   UNL d   1      15.839  39.153  27.050 -0.25 +0.00    -0.019 A 
DOCKED: ATOM     23  C   UNL d   1      14.402  39.010  26.741 -0.24 -0.01    +0.045 A 
DOCKED: ATOM     24  C   UNL d   1      16.353  40.135  26.273 -0.28 +0.00    -0.022 A 
DOCKED: ATOM     25  C   UNL d   1      12.183  37.986  27.114 -0.18 -0.02    +0.049 A 
DOCKED: ATOM     26  C   UNL d   1       9.971  37.423  27.126 -0.13 +0.00    -0.018 A 
DOCKED: ATOM     27  C   UNL d   1      11.145  37.556  27.930 -0.11 -0.00    +0.003 A 
DOCKED: ATOM     28  C   UNL d   1      13.577  38.139  27.343 -0.24 -0.01    +0.052 C 
DOCKED: ATOM     29  C   UNL d   1      17.749  40.654  26.228 -0.20 -0.00    +0.046 C 
DOCKED: ATOM     30  C   UNL d   1       8.629  36.961  27.583 -0.12 -0.00    +0.046 C 
DOCKED: ATOM     31  H   UNL d   1      13.254  40.174  25.383 -0.14 -0.06    +0.166 HD
DOCKED: ATOM     32  H   UNL d   1      12.158  38.474  25.038 -0.48 -0.11    +0.166 HD
DOCKED: ENDROOT
DOCKED: BRANCH   7  33
DOCKED: ATOM     33  C   UNL d   1       7.374  38.898  22.663 -0.21 -0.02    +0.141 C 
DOCKED: BRANCH  33  34
DOCKED: ATOM     34  C   UNL d   1       6.950  40.338  22.555 -0.07 -0.01    +0.306 C 
DOCKED: ATOM     35  O   UNL d   1       7.106  41.200  23.403 -0.02 +0.01    -0.251 OA
DOCKED: BRANCH  34  36
DOCKED: ATOM     36  O   UNL d   1       6.354  40.617  21.382 -0.20 -0.05    -0.481 OA
DOCKED: ATOM     37  H   UNL d   1       7.077  40.956  20.813 +0.11 +0.03    +0.295 HD
DOCKED: ENDBRANCH  34  36
DOCKED: ENDBRANCH  33  34
DOCKED: ENDBRANCH   7  33
DOCKED: BRANCH  27  38
DOCKED: ATOM     38  C   UNL d   1      11.230  37.247  29.325 -0.07 -0.00    +0.017 C 
DOCKED: ATOM     39  C   UNL d   1      12.326  36.795  29.953 -0.06 -0.02    +0.092 C 
DOCKED: BRANCH  39  40
DOCKED: ATOM     40  C   UNL d   1      12.286  36.533  31.394 +0.01 -0.03    +0.330 C 
DOCKED: ATOM     41  O   UNL d   1      11.385  36.785  32.171 +0.00 +0.01    -0.246 OA
DOCKED: BRANCH  40  42
DOCKED: ATOM     42  O   UNL d   1      13.422  35.936  31.787 +0.01 +0.03    -0.477 OA
DOCKED: ATOM     43  H   UNL d   1      13.943  35.857  30.961 +0.06 -0.03    +0.295 HD
DOCKED: ENDBRANCH  40  42
DOCKED: ENDBRANCH  39  40
DOCKED: ENDBRANCH  27  38
DOCKED: BRANCH   8  44
DOCKED: ATOM     44  C   UNL d   1      13.293  43.530  20.645 -0.24 -0.03    +0.141 C 
DOCKED: BRANCH  44  45
DOCKED: ATOM     45  C   UNL d   1      13.918  44.833  20.224 -0.12 -0.07    +0.306 C 
DOCKED: ATOM     46  O   UNL d   1      13.335  45.814  19.796 -0.05 +0.05    -0.251 OA
DOCKED: BRANCH  45  47
DOCKED: ATOM     47  O   UNL d   1      15.259  44.821  20.338 -0.07 +0.12    -0.481 OA
DOCKED: ATOM     48  H   UNL d   1      15.425  44.844  21.305 +0.13 -0.06    +0.295 HD
DOCKED: ENDBRANCH  45  47
DOCKED: ENDBRANCH  44  45
DOCKED: ENDBRANCH   8  44
DOCKED: BRANCH  22  49
DOCKED: ATOM     49  C   UNL d   1      16.572  38.313  28.055 -0.28 -0.00    +0.048 C 
DOCKED: BRANCH  49  50
DOCKED: ATOM     50  C   UNL d   1      16.260  36.826  27.889 -0.00 -0.02    +0.125 C 
DOCKED: BRANCH  50  51
DOCKED: ATOM     51  C   UNL d   1      15.552  36.288  29.100 -0.22 -0.05    +0.305 C 
DOCKED: ATOM     52  O   UNL d   1      15.104  35.167  29.262 -0.27 +0.06    -0.251 OA
DOCKED: BRANCH  51  53
DOCKED: ATOM     53  O   UNL d   1      15.431  37.219  30.068 -0.00 +0.04    -0.481 OA
DOCKED: ATOM     54  H   UNL d   1      15.214  36.700  30.871 +0.07 -0.01    +0.295 HD
DOCKED: ENDBRANCH  51  53
DOCKED: ENDBRANCH  50  51
DOCKED: ENDBRANCH  49  50
DOCKED: ENDBRANCH  22  49
DOCKED: TORSDOF 13
DOCKED: TER
DOCKED: ENDMDL
________________________________________________________________________________


	BEGINNING GENETIC ALGORITHM DOCKING 66 of 100
Run: 66 Seed: 156934693 1776111611 [ Run 66 of 100 GA/GALS ]
Beginning LAMARCKIAN GENETIC ALGORITHM (LGA), with a maximum of 25000000 energy evaluations.

Final-Value: -11.249


	FINAL GENETIC ALGORITHM DOCKED STATE
	_______________________________________________


Detailed state:  trans 38.181 28.524 -0.508 quatxyzw -0.215991 -0.948803 -0.071216 -0.219199 center 0.153 0.018 -0.028 ntor 13 -160.2814 -138.6929 -167.5751 4.5337 -139.5457 -60.6325 141.5330 -153.4306 -27.0091 -16.0714 -77.9129 -5.8571 -7.7437
State:	 38.181  28.524  -0.508  -0.221 -0.972 -0.073 -154.676   -160.28 -138.69 -167.58    4.53 -139.55  -60.63  141.53 -153.43  -27.01  -16.07  -77.91   -5.86   -7.74

DOCKED: MODEL       66
DOCKED: USER    Run = 66
DOCKED: USER    DPF = D:/Protein_go_brrr/autodock/final/6BB5/heme/dock.dpf
DOCKED: USER  
DOCKED: USER    Estimated Free Energy of Binding    =   -3.46 kcal/mol  [=(1)+(2)+(3)-(4)]
DOCKED: USER    Estimated Inhibition Constant, Ki   =    2.90 mM (millimolar)  [Temperature = 298.15 K]
DOCKED: USER    
DOCKED: USER    (1) Final Intermolecular Energy     =   -7.34 kcal/mol
DOCKED: USER        vdW + Hbond + desolv Energy     =   -7.24 kcal/mol
DOCKED: USER        Electrostatic Energy            =   -0.10 kcal/mol
DOCKED: USER    (2) Final Total Internal Energy     =   -3.91 kcal/mol
DOCKED: USER    (3) Torsional Free Energy           =   +3.88 kcal/mol
DOCKED: USER    (4) Unbound System's Energy  [=(2)] =   -3.91 kcal/mol
DOCKED: USER    
DOCKED: USER    
DOCKED: USER    NEWDPF move heme_opt.pdbqt
DOCKED: USER    NEWDPF about 0.153000 0.018000 -0.028000
DOCKED: USER    NEWDPF tran0 38.180832 28.523774 -0.507683
DOCKED: USER    NEWDPF quaternion0 -0.215991 -0.948803 -0.071216 -0.219199
DOCKED: USER    NEWDPF axisangle0 -0.221375 -0.972453 -0.072991 -154.676073
DOCKED: USER    NEWDPF quat0 -0.221375 -0.972453 -0.072991 -154.676073
DOCKED: USER    NEWDPF dihe0 -160.28 -138.69 -167.58 4.53 -139.55 -60.63 141.53 -153.43 -27.01 -16.07 -77.91 -5.86 -7.74 
DOCKED: USER  keepresnum = 1 
DOCKED: USER  
DOCKED: REMARK  13 active torsions:
DOCKED: REMARK  status: ('A' for Active; 'I' for Inactive)
DOCKED: REMARK    1  A    between atoms: O_3  and  C_38 
DOCKED: REMARK    2  A    between atoms: O_4  and  C_40 
DOCKED: REMARK    3  A    between atoms: O_7  and  C_46 
DOCKED: REMARK    4  A    between atoms: O_9  and  C_48 
DOCKED: REMARK    5  A    between atoms: C_15  and  C_20 
DOCKED: REMARK    6  A    between atoms: C_16  and  C_23 
DOCKED: REMARK    7  A    between atoms: C_20  and  C_38 
DOCKED: REMARK    8  A    between atoms: C_23  and  C_40 
DOCKED: REMARK    9  A    between atoms: C_32  and  C_41 
DOCKED: REMARK   10  A    between atoms: C_37  and  C_45 
DOCKED: REMARK   11  A    between atoms: C_41  and  C_44 
DOCKED: REMARK   12  A    between atoms: C_44  and  C_46 
DOCKED: REMARK   13  A    between atoms: C_47  and  C_48 
DOCKED: USER                              x       y       z     vdW  Elec       q    Type
DOCKED: USER                           _______ _______ _______ _____ _____    ______ ____
DOCKED: ROOT
DOCKED: ATOM      1  O   UNL d   1      43.225  28.062  -3.525 -0.07 +0.01    -0.289 OA
DOCKED: ATOM      2  O   UNL d   1      38.805  22.810  -0.479 -0.03 +0.03    -0.289 OA
DOCKED: ATOM      3  N   UNL d   1      40.396  28.827  -1.706 -0.10 +0.00    -0.247 NA
DOCKED: ATOM      4  N   UNL d   1      39.176  26.167  -1.190 -0.10 +0.00    -0.247 NA
DOCKED: ATOM      5  N   UNL d   1      36.778  27.527  -0.376 -0.01 -0.00    -0.354 N 
DOCKED: ATOM      6  N   UNL d   1      38.044  30.282  -0.932 -0.04 +0.01    -0.354 N 
DOCKED: ATOM      7  C   UNL d   1      42.008  30.122  -3.022 -0.08 -0.00    +0.084 A 
DOCKED: ATOM      8  C   UNL d   1      40.674  24.236  -1.163 -0.11 +0.00    +0.084 A 
DOCKED: ATOM      9  C   UNL d   1      40.466  25.735  -1.405 -0.16 +0.00    +0.058 A 
DOCKED: ATOM     10  C   UNL d   1      40.744  30.089  -2.157 -0.12 -0.00    +0.058 A 
DOCKED: ATOM     11  C   UNL d   1      42.322  28.657  -2.964 -0.10 -0.00    +0.193 A 
DOCKED: ATOM     12  C   UNL d   1      41.288  27.985  -2.116 -0.15 +0.00    +0.109 A 
DOCKED: ATOM     13  C   UNL d   1      39.255  23.891  -0.807 -0.07 -0.01    +0.193 A 
DOCKED: ATOM     14  C   UNL d   1      41.702  30.506  -4.471 -0.03 -0.00    +0.026 C 
DOCKED: ATOM     15  C   UNL d   1      41.445  26.543  -1.839 -0.18 +0.00    +0.055 C 
DOCKED: ATOM     16  C   UNL d   1      41.564  23.976   0.056 -0.24 +0.00    +0.026 C 
DOCKED: ATOM     17  C   UNL d   1      38.448  25.146  -0.868 -0.12 -0.01    +0.109 A 
DOCKED: ATOM     18  C   UNL d   1      40.102  31.219  -1.807 -0.13 -0.00    +0.050 C 
DOCKED: ATOM     19  C   UNL d   1      38.978  31.293  -0.945 -0.15 -0.00    +0.045 A 
DOCKED: ATOM     20  C   UNL d   1      36.315  26.238  -0.416 -0.11 -0.00    +0.045 A 
DOCKED: ATOM     21  C   UNL d   1      37.001  25.107  -0.607 -0.15 -0.01    +0.057 C 
DOCKED: ATOM     22  C   UNL d   1      34.552  27.644  -0.046 -0.16 -0.00    -0.019 A 
DOCKED: ATOM     23  C   UNL d   1      35.786  28.447  -0.158 -0.05 +0.00    +0.045 A 
DOCKED: ATOM     24  C   UNL d   1      34.872  26.337  -0.199 -0.17 +0.00    -0.022 A 
DOCKED: ATOM     25  C   UNL d   1      36.999  30.600  -0.096 -0.15 -0.00    +0.049 A 
DOCKED: ATOM     26  C   UNL d   1      38.548  32.276  -0.067 -0.22 +0.00    -0.018 A 
DOCKED: ATOM     27  C   UNL d   1      37.308  31.824   0.481 -0.21 -0.00    +0.003 A 
DOCKED: ATOM     28  C   UNL d   1      35.838  29.782  -0.036 -0.15 +0.00    +0.052 C 
DOCKED: ATOM     29  C   UNL d   1      33.976  25.146  -0.156 -0.18 -0.01    +0.046 C 
DOCKED: ATOM     30  C   UNL d   1      39.245  33.556   0.247 -0.35 -0.01    +0.046 C 
DOCKED: ATOM     31  H   UNL d   1      37.770  27.732  -0.426 +0.05 +0.00    +0.166 HD
DOCKED: ATOM     32  H   UNL d   1      38.115  29.446  -1.500 +0.04 -0.00    +0.166 HD
DOCKED: ENDROOT
DOCKED: BRANCH   7  33
DOCKED: ATOM     33  C   UNL d   1      43.170  30.944  -2.455 -0.16 -0.01    +0.141 C 
DOCKED: BRANCH  33  34
DOCKED: ATOM     34  C   UNL d   1      43.060  31.157  -0.970 -0.27 -0.02    +0.306 C 
DOCKED: ATOM     35  O   UNL d   1      42.431  32.042  -0.414 -0.27 +0.01    -0.251 OA
DOCKED: BRANCH  34  36
DOCKED: ATOM     36  O   UNL d   1      43.745  30.241  -0.262 -0.44 +0.02    -0.481 OA
DOCKED: ATOM     37  H   UNL d   1      44.363  29.841  -0.910 -0.27 -0.07    +0.295 HD
DOCKED: ENDBRANCH  34  36
DOCKED: ENDBRANCH  33  34
DOCKED: ENDBRANCH   7  33
DOCKED: BRANCH  27  38
DOCKED: ATOM     38  C   UNL d   1      36.510  32.548   1.425 -0.29 -0.00    +0.017 C 
DOCKED: ATOM     39  C   UNL d   1      35.726  31.993   2.362 -0.31 +0.00    +0.092 C 
DOCKED: BRANCH  39  40
DOCKED: ATOM     40  C   UNL d   1      34.971  32.849   3.281 -0.21 +0.03    +0.330 C 
DOCKED: ATOM     41  O   UNL d   1      35.413  33.634   4.098 -0.37 -0.03    -0.246 OA
DOCKED: BRANCH  40  42
DOCKED: ATOM     42  O   UNL d   1      33.653  32.665   3.106 -0.04 -0.14    -0.477 OA
DOCKED: ATOM     43  H   UNL d   1      33.564  31.697   2.993 +0.16 +0.10    +0.295 HD
DOCKED: ENDBRANCH  40  42
DOCKED: ENDBRANCH  39  40
DOCKED: ENDBRANCH  27  38
DOCKED: BRANCH   8  44
DOCKED: ATOM     44  C   UNL d   1      41.147  23.430  -2.377 -0.04 +0.00    +0.141 C 
DOCKED: BRANCH  44  45
DOCKED: ATOM     45  C   UNL d   1      40.129  23.373  -3.485 -0.01 +0.00    +0.306 C 
DOCKED: ATOM     46  O   UNL d   1      40.093  24.081  -4.477 -0.00 -0.00    -0.251 OA
DOCKED: BRANCH  45  47
DOCKED: ATOM     47  O   UNL d   1      39.186  22.437  -3.270 +0.00 +0.01    -0.481 OA
DOCKED: ATOM     48  H   UNL d   1      39.316  22.164  -2.337 +0.01 -0.01    +0.295 HD
DOCKED: ENDBRANCH  45  47
DOCKED: ENDBRANCH  44  45
DOCKED: ENDBRANCH   8  44
DOCKED: BRANCH  22  49
DOCKED: ATOM     49  C   UNL d   1      33.187  28.223   0.182 -0.17 +0.01    +0.048 C 
DOCKED: BRANCH  49  50
DOCKED: ATOM     50  C   UNL d   1      32.850  28.315   1.670 -0.31 +0.03    +0.125 C 
DOCKED: BRANCH  50  51
DOCKED: ATOM     51  C   UNL d   1      32.992  29.725   2.167 -0.23 +0.13    +0.305 C 
DOCKED: ATOM     52  O   UNL d   1      33.137  30.097   3.318 -0.32 -0.08    -0.251 OA
DOCKED: BRANCH  51  53
DOCKED: ATOM     53  O   UNL d   1      32.931  30.622   1.162 -0.04 -0.24    -0.481 OA
DOCKED: ATOM     54  H   UNL d   1      33.102  31.482   1.600 +0.10 +0.14    +0.295 HD
DOCKED: ENDBRANCH  51  53
DOCKED: ENDBRANCH  50  51
DOCKED: ENDBRANCH  49  50
DOCKED: ENDBRANCH  22  49
DOCKED: TORSDOF 13
DOCKED: TER
DOCKED: ENDMDL
________________________________________________________________________________


	BEGINNING GENETIC ALGORITHM DOCKING 67 of 100
Run: 67 Seed: 354609746 1946751780 [ Run 67 of 100 GA/GALS ]
Beginning LAMARCKIAN GENETIC ALGORITHM (LGA), with a maximum of 25000000 energy evaluations.

Final-Value: -11.378


	FINAL GENETIC ALGORITHM DOCKED STATE
	_______________________________________________


Detailed state:  trans 19.805 48.393 -3.737 quatxyzw 0.119992 -0.296087 0.416845 -0.850984 center 0.153 0.018 -0.028 ntor 13 -25.5062 126.3865 90.8928 89.1234 63.2766 -95.0800 -47.3842 35.7090 -121.8334 -114.0286 99.6423 12.0708 -160.8297
State:	 19.805  48.393  -3.737   0.228 -0.564  0.794 -63.362    -25.51  126.39   90.89   89.12   63.28  -95.08  -47.38   35.71 -121.83 -114.03   99.64   12.07 -160.83

DOCKED: MODEL       67
DOCKED: USER    Run = 67
DOCKED: USER    DPF = D:/Protein_go_brrr/autodock/final/6BB5/heme/dock.dpf
DOCKED: USER  
DOCKED: USER    Estimated Free Energy of Binding    =   -5.91 kcal/mol  [=(1)+(2)+(3)-(4)]
DOCKED: USER    Estimated Inhibition Constant, Ki   =   46.26 uM (micromolar)  [Temperature = 298.15 K]
DOCKED: USER    
DOCKED: USER    (1) Final Intermolecular Energy     =   -9.79 kcal/mol
DOCKED: USER        vdW + Hbond + desolv Energy     =   -9.71 kcal/mol
DOCKED: USER        Electrostatic Energy            =   -0.09 kcal/mol
DOCKED: USER    (2) Final Total Internal Energy     =   -1.59 kcal/mol
DOCKED: USER    (3) Torsional Free Energy           =   +3.88 kcal/mol
DOCKED: USER    (4) Unbound System's Energy  [=(2)] =   -1.59 kcal/mol
DOCKED: USER    
DOCKED: USER    
DOCKED: USER    NEWDPF move heme_opt.pdbqt
DOCKED: USER    NEWDPF about 0.153000 0.018000 -0.028000
DOCKED: USER    NEWDPF tran0 19.805159 48.393411 -3.736923
DOCKED: USER    NEWDPF quaternion0 0.119992 -0.296087 0.416845 -0.850984
DOCKED: USER    NEWDPF axisangle0 0.228474 -0.563771 0.793702 -63.362192
DOCKED: USER    NEWDPF quat0 0.228474 -0.563771 0.793702 -63.362192
DOCKED: USER    NEWDPF dihe0 -25.51 126.39 90.89 89.12 63.28 -95.08 -47.38 35.71 -121.83 -114.03 99.64 12.07 -160.83 
DOCKED: USER  keepresnum = 1 
DOCKED: USER  
DOCKED: REMARK  13 active torsions:
DOCKED: REMARK  status: ('A' for Active; 'I' for Inactive)
DOCKED: REMARK    1  A    between atoms: O_3  and  C_38 
DOCKED: REMARK    2  A    between atoms: O_4  and  C_40 
DOCKED: REMARK    3  A    between atoms: O_7  and  C_46 
DOCKED: REMARK    4  A    between atoms: O_9  and  C_48 
DOCKED: REMARK    5  A    between atoms: C_15  and  C_20 
DOCKED: REMARK    6  A    between atoms: C_16  and  C_23 
DOCKED: REMARK    7  A    between atoms: C_20  and  C_38 
DOCKED: REMARK    8  A    between atoms: C_23  and  C_40 
DOCKED: REMARK    9  A    between atoms: C_32  and  C_41 
DOCKED: REMARK   10  A    between atoms: C_37  and  C_45 
DOCKED: REMARK   11  A    between atoms: C_41  and  C_44 
DOCKED: REMARK   12  A    between atoms: C_44  and  C_46 
DOCKED: REMARK   13  A    between atoms: C_47  and  C_48 
DOCKED: USER                              x       y       z     vdW  Elec       q    Type
DOCKED: USER                           _______ _______ _______ _____ _____    ______ ____
DOCKED: ROOT
DOCKED: ATOM      1  O   UNL d   1      15.548  45.572  -6.682 -0.34 +0.07    -0.289 OA
DOCKED: ATOM      2  O   UNL d   1      22.958  44.387  -6.392 -0.05 -0.02    -0.289 OA
DOCKED: ATOM      3  N   UNL d   1      17.695  47.598  -4.898 -0.13 +0.04    -0.247 NA
DOCKED: ATOM      4  N   UNL d   1      20.305  46.195  -5.125 -0.11 +0.02    -0.247 NA
DOCKED: ATOM      5  N   UNL d   1      21.294  47.889  -3.024 -0.08 +0.04    -0.354 N 
DOCKED: ATOM      6  N   UNL d   1      18.578  49.326  -2.781 -0.02 +0.13    -0.354 N 
DOCKED: ATOM      7  C   UNL d   1      15.261  47.451  -5.145 -0.35 -0.02    +0.084 A 
DOCKED: ATOM      8  C   UNL d   1      20.639  44.765  -7.079 -0.14 +0.01    +0.084 A 
DOCKED: ATOM      9  C   UNL d   1      19.710  45.652  -6.243 -0.19 -0.00    +0.058 A 
DOCKED: ATOM     10  C   UNL d   1      16.478  48.132  -4.511 -0.25 -0.01    +0.058 A 
DOCKED: ATOM     11  C   UNL d   1      16.007  46.449  -5.973 -0.24 -0.04    +0.193 A 
DOCKED: ATOM     12  C   UNL d   1      17.474  46.657  -5.757 -0.23 -0.01    +0.109 A 
DOCKED: ATOM     13  C   UNL d   1      21.859  44.876  -6.210 -0.09 +0.01    +0.193 A 
DOCKED: ATOM     14  C   UNL d   1      14.415  46.706  -4.109 -0.18 -0.01    +0.026 C 
DOCKED: ATOM     15  C   UNL d   1      18.417  45.838  -6.547 -0.26 -0.00    +0.055 C 
DOCKED: ATOM     16  C   UNL d   1      20.947  45.392  -8.442 -0.07 +0.00    +0.026 C 
DOCKED: ATOM     17  C   UNL d   1      21.523  45.763  -5.056 -0.16 -0.00    +0.109 A 
DOCKED: ATOM     18  C   UNL d   1      16.346  49.213  -3.720 -0.31 -0.01    +0.050 C 
DOCKED: ATOM     19  C   UNL d   1      17.414  49.958  -3.159 -0.25 -0.01    +0.045 A 
DOCKED: ATOM     20  C   UNL d   1      22.327  46.993  -3.110 -0.18 -0.00    +0.045 A 
DOCKED: ATOM     21  C   UNL d   1      22.521  46.021  -4.007 -0.22 +0.00    +0.057 C 
DOCKED: ATOM     22  C   UNL d   1      22.682  48.358  -1.313 -0.13 -0.00    -0.019 A 
DOCKED: ATOM     23  C   UNL d   1      21.420  48.754  -1.969 -0.16 -0.00    +0.045 A 
DOCKED: ATOM     24  C   UNL d   1      23.215  47.316  -1.994 -0.11 -0.00    -0.022 A 
DOCKED: ATOM     25  C   UNL d   1      19.438  50.216  -2.181 -0.21 -0.01    +0.049 A 
DOCKED: ATOM     26  C   UNL d   1      17.537  51.299  -2.830 -0.25 +0.00    -0.018 A 
DOCKED: ATOM     27  C   UNL d   1      18.824  51.460  -2.231 -0.22 -0.00    +0.003 A 
DOCKED: ATOM     28  C   UNL d   1      20.639  49.768  -1.567 -0.19 -0.01    +0.052 C 
DOCKED: ATOM     29  C   UNL d   1      24.483  46.578  -1.727 -0.03 +0.01    +0.046 C 
DOCKED: ATOM     30  C   UNL d   1      16.523  52.368  -3.060 -0.27 -0.01    +0.046 C 
DOCKED: ATOM     31  H   UNL d   1      20.571  47.928  -3.734 +0.05 -0.02    +0.166 HD
DOCKED: ATOM     32  H   UNL d   1      18.740  48.333  -2.899 -0.34 -0.10    +0.166 HD
DOCKED: ENDROOT
DOCKED: BRANCH   7  33
DOCKED: ATOM     33  C   UNL d   1      14.396  48.349  -6.036 -0.24 -0.02    +0.141 C 
DOCKED: BRANCH  33  34
DOCKED: ATOM     34  C   UNL d   1      13.560  49.318  -5.245 -0.22 -0.07    +0.306 C 
DOCKED: ATOM     35  O   UNL d   1      13.633  50.534  -5.287 -0.15 +0.06    -0.251 OA
DOCKED: BRANCH  34  36
DOCKED: ATOM     36  O   UNL d   1      12.673  48.702  -4.442 -0.24 +0.18    -0.481 OA
DOCKED: ATOM     37  H   UNL d   1      12.539  49.327  -3.698 -0.39 -0.17    +0.295 HD
DOCKED: ENDBRANCH  34  36
DOCKED: ENDBRANCH  33  34
DOCKED: ENDBRANCH   7  33
DOCKED: BRANCH  27  38
DOCKED: ATOM     38  C   UNL d   1      19.353  52.693  -1.730 -0.13 -0.00    +0.017 C 
DOCKED: ATOM     39  C   UNL d   1      20.571  53.183  -2.006 -0.11 -0.01    +0.092 C 
DOCKED: BRANCH  39  40
DOCKED: ATOM     40  C   UNL d   1      20.986  54.469  -1.440 -0.07 -0.04    +0.330 C 
DOCKED: ATOM     41  O   UNL d   1      20.947  55.562  -1.972 -0.04 +0.02    -0.246 OA
DOCKED: BRANCH  40  42
DOCKED: ATOM     42  O   UNL d   1      21.434  54.299  -0.187 -0.06 +0.09    -0.477 OA
DOCKED: ATOM     43  H   UNL d   1      20.702  53.828   0.262 -0.49 -0.12    +0.295 HD
DOCKED: ENDBRANCH  40  42
DOCKED: ENDBRANCH  39  40
DOCKED: ENDBRANCH  27  38
DOCKED: BRANCH   8  44
DOCKED: ATOM     44  C   UNL d   1      20.201  43.304  -7.227 -0.19 +0.03    +0.141 C 
DOCKED: BRANCH  44  45
DOCKED: ATOM     45  C   UNL d   1      21.304  42.399  -7.706 -0.12 +0.08    +0.306 C 
DOCKED: ATOM     46  O   UNL d   1      21.559  42.114  -8.863 -0.10 -0.07    -0.251 OA
DOCKED: BRANCH  45  47
DOCKED: ATOM     47  O   UNL d   1      22.016  41.874  -6.692 -0.08 -0.11    -0.481 OA
DOCKED: ATOM     48  H   UNL d   1      22.740  42.518  -6.539 +0.10 +0.05    +0.295 HD
DOCKED: ENDBRANCH  45  47
DOCKED: ENDBRANCH  44  45
DOCKED: ENDBRANCH   8  44
DOCKED: BRANCH  22  49
DOCKED: ATOM     49  C   UNL d   1      23.237  49.019  -0.085 -0.11 +0.00    +0.048 C 
DOCKED: BRANCH  49  50
DOCKED: ATOM     50  C   UNL d   1      23.286  48.060   1.104 -0.16 +0.01    +0.125 C 
DOCKED: BRANCH  50  51
DOCKED: ATOM     51  C   UNL d   1      21.933  47.925   1.742 -0.18 +0.01    +0.305 C 
DOCKED: ATOM     52  O   UNL d   1      20.844  48.032   1.204 -0.63 -0.00    -0.251 OA
DOCKED: BRANCH  51  53
DOCKED: ATOM     53  O   UNL d   1      22.021  47.669   3.062 -0.12 -0.00    -0.481 OA
DOCKED: ATOM     54  H   UNL d   1      22.022  46.691   3.115 -0.26 -0.04    +0.295 HD
DOCKED: ENDBRANCH  51  53
DOCKED: ENDBRANCH  50  51
DOCKED: ENDBRANCH  49  50
DOCKED: ENDBRANCH  22  49
DOCKED: TORSDOF 13
DOCKED: TER
DOCKED: ENDMDL
________________________________________________________________________________


	BEGINNING GENETIC ALGORITHM DOCKING 68 of 100
Run: 68 Seed: 1028540620 39798587 [ Run 68 of 100 GA/GALS ]
Beginning LAMARCKIAN GENETIC ALGORITHM (LGA), with a maximum of 25000000 energy evaluations.

Final-Value: -9.666


	FINAL GENETIC ALGORITHM DOCKED STATE
	_______________________________________________


Detailed state:  trans 2.481 31.763 -5.637 quatxyzw -0.838611 0.089007 0.537300 0.010891 center 0.153 0.018 -0.028 ntor 13 131.0683 84.3277 -86.5178 178.4783 -132.5087 -65.3679 129.2617 24.2606 28.1418 -66.4454 23.3644 -44.1664 173.5514
State:	  2.481  31.763  -5.637  -0.839  0.089  0.537 178.752    131.07   84.33  -86.52  178.48 -132.51  -65.37  129.26   24.26   28.14  -66.45   23.36  -44.17  173.55

DOCKED: MODEL       68
DOCKED: USER    Run = 68
DOCKED: USER    DPF = D:/Protein_go_brrr/autodock/final/6BB5/heme/dock.dpf
DOCKED: USER  
DOCKED: USER    Estimated Free Energy of Binding    =   -3.37 kcal/mol  [=(1)+(2)+(3)-(4)]
DOCKED: USER    Estimated Inhibition Constant, Ki   =    3.39 mM (millimolar)  [Temperature = 298.15 K]
DOCKED: USER    
DOCKED: USER    (1) Final Intermolecular Energy     =   -7.25 kcal/mol
DOCKED: USER        vdW + Hbond + desolv Energy     =   -6.67 kcal/mol
DOCKED: USER        Electrostatic Energy            =   -0.58 kcal/mol
DOCKED: USER    (2) Final Total Internal Energy     =   -2.42 kcal/mol
DOCKED: USER    (3) Torsional Free Energy           =   +3.88 kcal/mol
DOCKED: USER    (4) Unbound System's Energy  [=(2)] =   -2.42 kcal/mol
DOCKED: USER    
DOCKED: USER    
DOCKED: USER    NEWDPF move heme_opt.pdbqt
DOCKED: USER    NEWDPF about 0.153000 0.018000 -0.028000
DOCKED: USER    NEWDPF tran0 2.480788 31.763412 -5.637181
DOCKED: USER    NEWDPF quaternion0 -0.838611 0.089007 0.537300 0.010891
DOCKED: USER    NEWDPF axisangle0 -0.838660 0.089013 0.537332 178.751908
DOCKED: USER    NEWDPF quat0 -0.838660 0.089013 0.537332 178.751908
DOCKED: USER    NEWDPF dihe0 131.07 84.33 -86.52 178.48 -132.51 -65.37 129.26 24.26 28.14 -66.45 23.36 -44.17 173.55 
DOCKED: USER  keepresnum = 1 
DOCKED: USER  
DOCKED: REMARK  13 active torsions:
DOCKED: REMARK  status: ('A' for Active; 'I' for Inactive)
DOCKED: REMARK    1  A    between atoms: O_3  and  C_38 
DOCKED: REMARK    2  A    between atoms: O_4  and  C_40 
DOCKED: REMARK    3  A    between atoms: O_7  and  C_46 
DOCKED: REMARK    4  A    between atoms: O_9  and  C_48 
DOCKED: REMARK    5  A    between atoms: C_15  and  C_20 
DOCKED: REMARK    6  A    between atoms: C_16  and  C_23 
DOCKED: REMARK    7  A    between atoms: C_20  and  C_38 
DOCKED: REMARK    8  A    between atoms: C_23  and  C_40 
DOCKED: REMARK    9  A    between atoms: C_32  and  C_41 
DOCKED: REMARK   10  A    between atoms: C_37  and  C_45 
DOCKED: REMARK   11  A    between atoms: C_41  and  C_44 
DOCKED: REMARK   12  A    between atoms: C_44  and  C_46 
DOCKED: REMARK   13  A    between atoms: C_47  and  C_48 
DOCKED: USER                              x       y       z     vdW  Elec       q    Type
DOCKED: USER                           _______ _______ _______ _____ _____    ______ ____
DOCKED: ROOT
DOCKED: ATOM      1  O   UNL d   1      -0.619  31.055  -0.673 -0.01 -0.00    -0.289 OA
DOCKED: ATOM      2  O   UNL d   1       3.493  36.837  -3.133 -0.05 -0.07    -0.289 OA
DOCKED: ATOM      3  N   UNL d   1       1.155  30.962  -3.629 -0.07 +0.00    -0.247 NA
DOCKED: ATOM      4  N   UNL d   1       2.184  33.736  -3.896 -0.06 -0.02    -0.247 NA
DOCKED: ATOM      5  N   UNL d   1       2.846  33.129  -6.627 +0.02 -0.03    -0.354 N 
DOCKED: ATOM      6  N   UNL d   1       1.758  30.259  -6.347 -0.07 +0.01    -0.354 N 
DOCKED: ATOM      7  C   UNL d   1      -0.437  29.464  -2.520 -0.07 -0.01    +0.084 A 
DOCKED: ATOM      8  C   UNL d   1       2.489  35.018  -1.838 -0.10 +0.02    +0.084 A 
DOCKED: ATOM      9  C   UNL d   1       1.994  33.745  -2.532 -0.08 +0.01    +0.058 A 
DOCKED: ATOM     10  C   UNL d   1       0.473  29.759  -3.715 -0.11 -0.00    +0.058 A 
DOCKED: ATOM     11  C   UNL d   1      -0.135  30.704  -1.733 -0.03 -0.00    +0.193 A 
DOCKED: ATOM     12  C   UNL d   1       0.862  31.518  -2.499 -0.08 +0.00    +0.109 A 
DOCKED: ATOM     13  C   UNL d   1       2.960  35.746  -3.065 -0.06 +0.04    +0.193 A 
DOCKED: ATOM     14  C   UNL d   1      -1.917  29.472  -2.908 -0.03 -0.00    +0.026 C 
DOCKED: ATOM     15  C   UNL d   1       1.383  32.749  -1.872 -0.10 +0.01    +0.055 C 
DOCKED: ATOM     16  C   UNL d   1       3.695  34.742  -0.936 -0.22 +0.01    +0.026 C 
DOCKED: ATOM     17  C   UNL d   1       2.713  34.865  -4.246 -0.08 +0.01    +0.109 A 
DOCKED: ATOM     18  C   UNL d   1       0.645  28.864  -4.707 -0.18 -0.01    +0.050 C 
DOCKED: ATOM     19  C   UNL d   1       1.527  29.014  -5.807 -0.21 -0.01    +0.045 A 
DOCKED: ATOM     20  C   UNL d   1       3.054  34.484  -6.630 -0.09 +0.00    +0.045 A 
DOCKED: ATOM     21  C   UNL d   1       3.038  35.336  -5.600 -0.12 +0.01    +0.057 C 
DOCKED: ATOM     22  C   UNL d   1       3.245  33.704  -8.768 -0.14 -0.00    -0.019 A 
DOCKED: ATOM     23  C   UNL d   1       2.940  32.569  -7.873 -0.02 +0.01    +0.045 A 
DOCKED: ATOM     24  C   UNL d   1       3.312  34.834  -8.026 -0.13 -0.00    -0.022 A 
DOCKED: ATOM     25  C   UNL d   1       2.569  30.161  -7.455 -0.21 +0.00    +0.049 A 
DOCKED: ATOM     26  C   UNL d   1       2.235  28.089  -6.559 -0.31 +0.00    -0.018 A 
DOCKED: ATOM     27  C   UNL d   1       2.906  28.822  -7.586 -0.31 -0.00    +0.003 A 
DOCKED: ATOM     28  C   UNL d   1       2.822  31.295  -8.275 -0.22 +0.01    +0.052 C 
DOCKED: ATOM     29  C   UNL d   1       3.603  36.227  -8.472 -0.09 +0.00    +0.046 C 
DOCKED: ATOM     30  C   UNL d   1       2.288  26.615  -6.338 -0.32 -0.03    +0.046 C 
DOCKED: ATOM     31  H   UNL d   1       2.719  32.618  -5.760 +0.03 +0.01    +0.166 HD
DOCKED: ATOM     32  H   UNL d   1       1.345  31.111  -5.989 +0.04 +0.00    +0.166 HD
DOCKED: ENDROOT
DOCKED: BRANCH   7  33
DOCKED: ATOM     33  C   UNL d   1      -0.075  28.213  -1.712 -0.11 -0.03    +0.141 C 
DOCKED: BRANCH  33  34
DOCKED: ATOM     34  C   UNL d   1       1.123  28.423  -0.824 -0.12 -0.07    +0.306 C 
DOCKED: ATOM     35  O   UNL d   1       2.290  28.419  -1.177 -0.28 +0.06    -0.251 OA
DOCKED: BRANCH  34  36
DOCKED: ATOM     36  O   UNL d   1       0.785  28.630   0.461 -0.05 +0.07    -0.481 OA
DOCKED: ATOM     37  H   UNL d   1       0.117  29.348   0.428 +0.05 -0.03    +0.295 HD
DOCKED: ENDBRANCH  34  36
DOCKED: ENDBRANCH  33  34
DOCKED: ENDBRANCH   7  33
DOCKED: BRANCH  27  38
DOCKED: ATOM     38  C   UNL d   1       3.740  28.247  -8.598 -0.40 -0.00    +0.017 C 
DOCKED: ATOM     39  C   UNL d   1       4.256  28.910  -9.645 -0.38 +0.02    +0.092 C 
DOCKED: BRANCH  39  40
DOCKED: ATOM     40  C   UNL d   1       5.112  28.207 -10.604 -0.17 +0.09    +0.330 C 
DOCKED: ATOM     41  O   UNL d   1       6.222  27.747 -10.412 -0.46 +0.02    -0.246 OA
DOCKED: BRANCH  40  42
DOCKED: ATOM     42  O   UNL d   1       4.494  28.113 -11.791 -0.01 -0.33    -0.477 OA
DOCKED: ATOM     43  H   UNL d   1       4.080  27.226 -11.771 +0.10 +0.08    +0.295 HD
DOCKED: ENDBRANCH  40  42
DOCKED: ENDBRANCH  39  40
DOCKED: ENDBRANCH  27  38
DOCKED: BRANCH   8  44
DOCKED: ATOM     44  C   UNL d   1       1.417  35.826  -1.099 -0.12 +0.07    +0.141 C 
DOCKED: BRANCH  44  45
DOCKED: ATOM     45  C   UNL d   1       1.199  37.197  -1.681 -0.07 +0.22    +0.306 C 
DOCKED: ATOM     46  O   UNL d   1       0.469  37.482  -2.614 -0.03 -0.12    -0.251 OA
DOCKED: BRANCH  45  47
DOCKED: ATOM     47  O   UNL d   1       1.939  38.140  -1.070 -0.64 -0.67    -0.481 OA
DOCKED: ATOM     48  H   UNL d   1       2.761  38.193  -1.602 +0.07 +0.25    +0.295 HD
DOCKED: ENDBRANCH  45  47
DOCKED: ENDBRANCH  44  45
DOCKED: ENDBRANCH   8  44
DOCKED: BRANCH  22  49
DOCKED: ATOM     49  C   UNL d   1       3.425  33.581 -10.253 -0.16 +0.02    +0.048 C 
DOCKED: BRANCH  49  50
DOCKED: ATOM     50  C   UNL d   1       2.105  33.761 -11.003 -0.08 +0.03    +0.125 C 
DOCKED: BRANCH  50  51
DOCKED: ATOM     51  C   UNL d   1       2.153  33.084 -12.344 -0.07 +0.15    +0.305 C 
DOCKED: ATOM     52  O   UNL d   1       2.933  32.225 -12.715 -0.28 -0.27    -0.251 OA
DOCKED: BRANCH  51  53
DOCKED: ATOM     53  O   UNL d   1       1.199  33.546 -13.176 -0.01 -0.15    -0.481 OA
DOCKED: ATOM     54  H   UNL d   1       0.705  34.197 -12.634 +0.02 +0.06    +0.295 HD
DOCKED: ENDBRANCH  51  53
DOCKED: ENDBRANCH  50  51
DOCKED: ENDBRANCH  49  50
DOCKED: ENDBRANCH  22  49
DOCKED: TORSDOF 13
DOCKED: TER
DOCKED: ENDMDL
________________________________________________________________________________


	BEGINNING GENETIC ALGORITHM DOCKING 69 of 100
Run: 69 Seed: 76951006 2019316154 [ Run 69 of 100 GA/GALS ]
Beginning LAMARCKIAN GENETIC ALGORITHM (LGA), with a maximum of 25000000 energy evaluations.

Final-Value: -10.276


	FINAL GENETIC ALGORITHM DOCKED STATE
	_______________________________________________


Detailed state:  trans 12.245 39.577 25.682 quatxyzw 0.445663 -0.318348 -0.761353 0.346959 center 0.153 0.018 -0.028 ntor 13 -1.9552 125.1732 111.4666 -86.4833 178.2485 163.1866 -41.4016 -55.5163 -22.3108 -127.8363 137.5474 31.6078 -172.4882
State:	 12.245  39.577  25.682   0.475 -0.339 -0.812 139.397     -1.96  125.17  111.47  -86.48  178.25  163.19  -41.40  -55.52  -22.31 -127.84  137.55   31.61 -172.49

DOCKED: MODEL       69
DOCKED: USER    Run = 69
DOCKED: USER    DPF = D:/Protein_go_brrr/autodock/final/6BB5/heme/dock.dpf
DOCKED: USER  
DOCKED: USER    Estimated Free Energy of Binding    =   -4.45 kcal/mol  [=(1)+(2)+(3)-(4)]
DOCKED: USER    Estimated Inhibition Constant, Ki   =  542.60 uM (micromolar)  [Temperature = 298.15 K]
DOCKED: USER    
DOCKED: USER    (1) Final Intermolecular Energy     =   -8.33 kcal/mol
DOCKED: USER        vdW + Hbond + desolv Energy     =   -7.81 kcal/mol
DOCKED: USER        Electrostatic Energy            =   -0.53 kcal/mol
DOCKED: USER    (2) Final Total Internal Energy     =   -1.94 kcal/mol
DOCKED: USER    (3) Torsional Free Energy           =   +3.88 kcal/mol
DOCKED: USER    (4) Unbound System's Energy  [=(2)] =   -1.94 kcal/mol
DOCKED: USER    
DOCKED: USER    
DOCKED: USER    NEWDPF move heme_opt.pdbqt
DOCKED: USER    NEWDPF about 0.153000 0.018000 -0.028000
DOCKED: USER    NEWDPF tran0 12.245173 39.577209 25.682477
DOCKED: USER    NEWDPF quaternion0 0.445663 -0.318348 -0.761353 0.346959
DOCKED: USER    NEWDPF axisangle0 0.475181 -0.339434 -0.811780 139.397137
DOCKED: USER    NEWDPF quat0 0.475181 -0.339434 -0.811780 139.397137
DOCKED: USER    NEWDPF dihe0 -1.96 125.17 111.47 -86.48 178.25 163.19 -41.40 -55.52 -22.31 -127.84 137.55 31.61 -172.49 
DOCKED: USER  keepresnum = 1 
DOCKED: USER  
DOCKED: REMARK  13 active torsions:
DOCKED: REMARK  status: ('A' for Active; 'I' for Inactive)
DOCKED: REMARK    1  A    between atoms: O_3  and  C_38 
DOCKED: REMARK    2  A    between atoms: O_4  and  C_40 
DOCKED: REMARK    3  A    between atoms: O_7  and  C_46 
DOCKED: REMARK    4  A    between atoms: O_9  and  C_48 
DOCKED: REMARK    5  A    between atoms: C_15  and  C_20 
DOCKED: REMARK    6  A    between atoms: C_16  and  C_23 
DOCKED: REMARK    7  A    between atoms: C_20  and  C_38 
DOCKED: REMARK    8  A    between atoms: C_23  and  C_40 
DOCKED: REMARK    9  A    between atoms: C_32  and  C_41 
DOCKED: REMARK   10  A    between atoms: C_37  and  C_45 
DOCKED: REMARK   11  A    between atoms: C_41  and  C_44 
DOCKED: REMARK   12  A    between atoms: C_44  and  C_46 
DOCKED: REMARK   13  A    between atoms: C_47  and  C_48 
DOCKED: USER                              x       y       z     vdW  Elec       q    Type
DOCKED: USER                           _______ _______ _______ _____ _____    ______ ____
DOCKED: ROOT
DOCKED: ATOM      1  O   UNL d   1      12.608  37.779  31.285 +0.00 +0.02    -0.289 OA
DOCKED: ATOM      2  O   UNL d   1      17.865  40.371  26.590 -0.17 +0.03    -0.289 OA
DOCKED: ATOM      3  N   UNL d   1      11.942  38.595  28.001 -0.03 +0.05    -0.247 NA
DOCKED: ATOM      4  N   UNL d   1      14.497  39.784  27.060 -0.09 +0.05    -0.247 NA
DOCKED: ATOM      5  N   UNL d   1      13.084  40.770  24.759 +0.01 +0.12    -0.354 N 
DOCKED: ATOM      6  N   UNL d   1      10.433  39.550  25.752 -0.03 +0.06    -0.354 N 
DOCKED: ATOM      7  C   UNL d   1      10.582  37.917  29.925 -0.01 -0.01    +0.084 A 
DOCKED: ATOM      8  C   UNL d   1      16.543  39.077  28.193 -0.16 -0.01    +0.084 A 
DOCKED: ATOM      9  C   UNL d   1      15.014  39.048  28.103 -0.12 -0.01    +0.058 A 
DOCKED: ATOM     10  C   UNL d   1      10.659  38.333  28.453 -0.03 -0.01    +0.058 A 
DOCKED: ATOM     11  C   UNL d   1      12.051  37.973  30.221 +0.00 -0.02    +0.193 A 
DOCKED: ATOM     12  C   UNL d   1      12.770  38.371  28.969 -0.03 -0.02    +0.109 A 
DOCKED: ATOM     13  C   UNL d   1      16.796  39.996  27.032 -0.15 -0.02    +0.193 A 
DOCKED: ATOM     14  C   UNL d   1       9.864  38.963  30.781 +0.00 -0.00    +0.026 C 
DOCKED: ATOM     15  C   UNL d   1      14.246  38.403  28.995 -0.09 -0.01    +0.055 C 
DOCKED: ATOM     16  C   UNL d   1      17.156  37.708  27.882 -0.21 +0.00    +0.026 C 
DOCKED: ATOM     17  C   UNL d   1      15.475  40.358  26.436 -0.18 -0.02    +0.109 A 
DOCKED: ATOM     18  C   UNL d   1       9.566  38.344  27.667 -0.06 -0.00    +0.050 C 
DOCKED: ATOM     19  C   UNL d   1       9.553  38.632  26.279 -0.09 -0.01    +0.045 A 
DOCKED: ATOM     20  C   UNL d   1      14.275  41.431  24.605 -0.23 -0.01    +0.045 A 
DOCKED: ATOM     21  C   UNL d   1      15.408  41.289  25.300 -0.28 -0.01    +0.057 C 
DOCKED: ATOM     22  C   UNL d   1      12.794  42.207  23.048 -0.24 +0.00    -0.019 A 
DOCKED: ATOM     23  C   UNL d   1      12.128  41.171  23.864 -0.08 -0.01    +0.045 A 
DOCKED: ATOM     24  C   UNL d   1      14.065  42.355  23.491 -0.25 +0.00    -0.022 A 
DOCKED: ATOM     25  C   UNL d   1      10.187  39.741  24.412 -0.15 -0.01    +0.049 A 
DOCKED: ATOM     26  C   UNL d   1       8.740  38.187  25.248 -0.15 +0.00    -0.018 A 
DOCKED: ATOM     27  C   UNL d   1       9.157  38.877  24.068 -0.19 -0.00    +0.003 A 
DOCKED: ATOM     28  C   UNL d   1      10.864  40.758  23.684 -0.19 -0.01    +0.052 C 
DOCKED: ATOM     29  C   UNL d   1      15.129  43.266  22.982 -0.33 -0.01    +0.046 C 
DOCKED: ATOM     30  C   UNL d   1       7.643  37.182  25.350 -0.23 -0.00    +0.046 C 
DOCKED: ATOM     31  H   UNL d   1      12.985  40.012  25.425 -0.17 -0.07    +0.166 HD
DOCKED: ATOM     32  H   UNL d   1      11.130  40.038  26.302 +0.03 -0.03    +0.166 HD
DOCKED: ENDROOT
DOCKED: BRANCH   7  33
DOCKED: ATOM     33  C   UNL d   1      10.035  36.508  30.182 -0.03 -0.00    +0.141 C 
DOCKED: BRANCH  33  34
DOCKED: ATOM     34  C   UNL d   1      10.237  35.586  29.011 -0.11 -0.03    +0.306 C 
DOCKED: ATOM     35  O   UNL d   1       9.377  34.916  28.465 -0.56 -0.10    -0.251 OA
DOCKED: BRANCH  34  36
DOCKED: ATOM     36  O   UNL d   1      11.513  35.558  28.587 -0.03 +0.34    -0.481 OA
DOCKED: ATOM     37  H   UNL d   1      11.524  34.876  27.882 -0.36 -0.60    +0.295 HD
DOCKED: ENDBRANCH  34  36
DOCKED: ENDBRANCH  33  34
DOCKED: ENDBRANCH   7  33
DOCKED: BRANCH  27  38
DOCKED: ATOM     38  C   UNL d   1       8.569  38.725  22.771 -0.30 -0.00    +0.017 C 
DOCKED: ATOM     39  C   UNL d   1       9.166  38.160  21.711 -0.44 -0.01    +0.092 C 
DOCKED: BRANCH  39  40
DOCKED: ATOM     40  C   UNL d   1       8.446  38.049  20.440 -0.30 +0.01    +0.330 C 
DOCKED: ATOM     41  O   UNL d   1       8.915  37.868  19.332 -0.74 -0.03    -0.246 OA
DOCKED: BRANCH  40  42
DOCKED: ATOM     42  O   UNL d   1       7.125  38.169  20.646 -0.26 -0.02    -0.477 OA
DOCKED: ATOM     43  H   UNL d   1       6.929  37.481  21.315 -0.43 -0.11    +0.295 HD
DOCKED: ENDBRANCH  40  42
DOCKED: ENDBRANCH  39  40
DOCKED: ENDBRANCH  27  38
DOCKED: BRANCH   8  44
DOCKED: ATOM     44  C   UNL d   1      17.117  39.659  29.489 -0.06 -0.00    +0.141 C 
DOCKED: BRANCH  44  45
DOCKED: ATOM     45  C   UNL d   1      18.622  39.718  29.499 -0.05 -0.00    +0.306 C 
DOCKED: ATOM     46  O   UNL d   1      19.382  38.822  29.821 -0.09 -0.01    -0.251 OA
DOCKED: BRANCH  45  47
DOCKED: ATOM     47  O   UNL d   1      19.092  40.922  29.125 +0.00 +0.02    -0.481 OA
DOCKED: ATOM     48  H   UNL d   1      18.882  40.984  28.169 +0.10 -0.02    +0.295 HD
DOCKED: ENDBRANCH  45  47
DOCKED: ENDBRANCH  44  45
DOCKED: ENDBRANCH   8  44
DOCKED: BRANCH  22  49
DOCKED: ATOM     49  C   UNL d   1      12.128  42.958  21.933 -0.21 -0.01    +0.048 C 
DOCKED: BRANCH  49  50
DOCKED: ATOM     50  C   UNL d   1      11.759  44.382  22.347 -0.06 -0.02    +0.125 C 
DOCKED: BRANCH  50  51
DOCKED: ATOM     51  C   UNL d   1      11.198  44.408  23.741 -0.00 -0.03    +0.305 C 
DOCKED: ATOM     52  O   UNL d   1      10.191  43.855  24.146 -0.01 +0.02    -0.251 OA
DOCKED: BRANCH  51  53
DOCKED: ATOM     53  O   UNL d   1      11.948  45.157  24.573 +0.01 +0.04    -0.481 OA
DOCKED: ATOM     54  H   UNL d   1      11.531  46.043  24.536 +0.01 -0.02    +0.295 HD
DOCKED: ENDBRANCH  51  53
DOCKED: ENDBRANCH  50  51
DOCKED: ENDBRANCH  49  50
DOCKED: ENDBRANCH  22  49
DOCKED: TORSDOF 13
DOCKED: TER
DOCKED: ENDMDL
________________________________________________________________________________


	BEGINNING GENETIC ALGORITHM DOCKING 70 of 100
Run: 70 Seed: 1473406088 1616440474 [ Run 70 of 100 GA/GALS ]
Beginning LAMARCKIAN GENETIC ALGORITHM (LGA), with a maximum of 25000000 energy evaluations.

Final-Value: -11.139


	FINAL GENETIC ALGORITHM DOCKED STATE
	_______________________________________________


Detailed state:  trans 20.225 20.803 -1.952 quatxyzw -0.438762 0.525781 -0.574616 -0.448172 center 0.153 0.018 -0.028 ntor 13 159.6137 -106.2869 -81.5556 -85.8462 -92.8970 81.1775 -38.0712 73.5194 3.1748 9.3805 -116.9308 -20.0158 -28.2107
State:	 20.225  20.803  -1.952  -0.491  0.588 -0.643 -126.747    159.61 -106.29  -81.56  -85.85  -92.90   81.18  -38.07   73.52    3.17    9.38 -116.93  -20.02  -28.21

DOCKED: MODEL       70
DOCKED: USER    Run = 70
DOCKED: USER    DPF = D:/Protein_go_brrr/autodock/final/6BB5/heme/dock.dpf
DOCKED: USER  
DOCKED: USER    Estimated Free Energy of Binding    =   -5.62 kcal/mol  [=(1)+(2)+(3)-(4)]
DOCKED: USER    Estimated Inhibition Constant, Ki   =   76.23 uM (micromolar)  [Temperature = 298.15 K]
DOCKED: USER    
DOCKED: USER    (1) Final Intermolecular Energy     =   -9.50 kcal/mol
DOCKED: USER        vdW + Hbond + desolv Energy     =   -8.79 kcal/mol
DOCKED: USER        Electrostatic Energy            =   -0.70 kcal/mol
DOCKED: USER    (2) Final Total Internal Energy     =   -1.64 kcal/mol
DOCKED: USER    (3) Torsional Free Energy           =   +3.88 kcal/mol
DOCKED: USER    (4) Unbound System's Energy  [=(2)] =   -1.64 kcal/mol
DOCKED: USER    
DOCKED: USER    
DOCKED: USER    NEWDPF move heme_opt.pdbqt
DOCKED: USER    NEWDPF about 0.153000 0.018000 -0.028000
DOCKED: USER    NEWDPF tran0 20.225437 20.803272 -1.951983
DOCKED: USER    NEWDPF quaternion0 -0.438762 0.525781 -0.574616 -0.448172
DOCKED: USER    NEWDPF axisangle0 -0.490815 0.588156 -0.642786 -126.747014
DOCKED: USER    NEWDPF quat0 -0.490815 0.588156 -0.642786 -126.747014
DOCKED: USER    NEWDPF dihe0 159.61 -106.29 -81.56 -85.85 -92.90 81.18 -38.07 73.52 3.17 9.38 -116.93 -20.02 -28.21 
DOCKED: USER  keepresnum = 1 
DOCKED: USER  
DOCKED: REMARK  13 active torsions:
DOCKED: REMARK  status: ('A' for Active; 'I' for Inactive)
DOCKED: REMARK    1  A    between atoms: O_3  and  C_38 
DOCKED: REMARK    2  A    between atoms: O_4  and  C_40 
DOCKED: REMARK    3  A    between atoms: O_7  and  C_46 
DOCKED: REMARK    4  A    between atoms: O_9  and  C_48 
DOCKED: REMARK    5  A    between atoms: C_15  and  C_20 
DOCKED: REMARK    6  A    between atoms: C_16  and  C_23 
DOCKED: REMARK    7  A    between atoms: C_20  and  C_38 
DOCKED: REMARK    8  A    between atoms: C_23  and  C_40 
DOCKED: REMARK    9  A    between atoms: C_32  and  C_41 
DOCKED: REMARK   10  A    between atoms: C_37  and  C_45 
DOCKED: REMARK   11  A    between atoms: C_41  and  C_44 
DOCKED: REMARK   12  A    between atoms: C_44  and  C_46 
DOCKED: REMARK   13  A    between atoms: C_47  and  C_48 
DOCKED: USER                              x       y       z     vdW  Elec       q    Type
DOCKED: USER                           _______ _______ _______ _____ _____    ______ ____
DOCKED: ROOT
DOCKED: ATOM      1  O   UNL d   1      22.145  26.069  -3.782 -0.20 +0.17    -0.289 OA
DOCKED: ATOM      2  O   UNL d   1      18.992  23.951   2.696 -0.27 +0.00    -0.289 OA
DOCKED: ATOM      3  N   UNL d   1      21.042  22.852  -3.204 -0.10 +0.05    -0.247 NA
DOCKED: ATOM      4  N   UNL d   1      20.254  22.904  -0.340 -0.10 +0.03    -0.247 NA
DOCKED: ATOM      5  N   UNL d   1      20.159  20.031  -0.410 -0.11 +0.07    -0.354 N 
DOCKED: ATOM      6  N   UNL d   1      20.996  19.986  -3.376 -0.07 +0.08    -0.354 N 
DOCKED: ATOM      7  C   UNL d   1      22.272  23.960  -5.012 -0.09 -0.02    +0.084 A 
DOCKED: ATOM      8  C   UNL d   1      19.590  25.060   0.598 -0.37 -0.01    +0.084 A 
DOCKED: ATOM      9  C   UNL d   1      20.148  24.255  -0.580 -0.26 -0.01    +0.058 A 
DOCKED: ATOM     10  C   UNL d   1      21.657  22.682  -4.434 -0.11 -0.01    +0.058 A 
DOCKED: ATOM     11  C   UNL d   1      21.879  24.887  -3.900 -0.04 -0.06    +0.193 A 
DOCKED: ATOM     12  C   UNL d   1      21.118  24.101  -2.878 -0.11 -0.02    +0.109 A 
DOCKED: ATOM     13  C   UNL d   1      19.434  23.920   1.565 -0.22 -0.01    +0.193 A 
DOCKED: ATOM     14  C   UNL d   1      23.799  23.885  -5.078 -0.03 -0.01    +0.026 C 
DOCKED: ATOM     15  C   UNL d   1      20.545  24.828  -1.727 -0.13 -0.01    +0.055 C 
DOCKED: ATOM     16  C   UNL d   1      18.204  25.635   0.288 -0.63 -0.00    +0.026 C 
DOCKED: ATOM     17  C   UNL d   1      19.878  22.671   0.877 -0.20 -0.01    +0.109 A 
DOCKED: ATOM     18  C   UNL d   1      21.651  21.529  -5.127 -0.13 -0.01    +0.050 C 
DOCKED: ATOM     19  C   UNL d   1      21.035  20.321  -4.710 -0.16 -0.01    +0.045 A 
DOCKED: ATOM     20  C   UNL d   1      20.034  20.238   0.940 -0.15 -0.01    +0.045 A 
DOCKED: ATOM     21  C   UNL d   1      19.878  21.390   1.600 -0.21 -0.00    +0.057 C 
DOCKED: ATOM     22  C   UNL d   1      20.262  17.998   0.555 -0.11 +0.00    -0.019 A 
DOCKED: ATOM     23  C   UNL d   1      20.302  18.710  -0.739 -0.15 -0.01    +0.045 A 
DOCKED: ATOM     24  C   UNL d   1      20.102  18.908   1.544 -0.12 +0.00    -0.022 A 
DOCKED: ATOM     25  C   UNL d   1      20.437  18.740  -3.207 -0.12 -0.01    +0.049 A 
DOCKED: ATOM     26  C   UNL d   1      20.453  19.285  -5.423 -0.21 +0.01    -0.018 A 
DOCKED: ATOM     27  C   UNL d   1      20.060  18.298  -4.467 -0.21 -0.00    +0.003 A 
DOCKED: ATOM     28  C   UNL d   1      20.431  18.111  -1.933 -0.16 -0.01    +0.052 C 
DOCKED: ATOM     29  C   UNL d   1      19.992  18.680   3.013 -0.12 -0.00    +0.046 C 
DOCKED: ATOM     30  C   UNL d   1      20.270  19.213  -6.902 -0.24 -0.02    +0.046 C 
DOCKED: ATOM     31  H   UNL d   1      20.068  20.796  -1.070 +0.04 -0.03    +0.166 HD
DOCKED: ATOM     32  H   UNL d   1      21.371  20.572  -2.640 +0.03 -0.03    +0.166 HD
DOCKED: ENDROOT
DOCKED: BRANCH   7  33
DOCKED: ATOM     33  C   UNL d   1      21.674  24.433  -6.342 -0.13 -0.04    +0.141 C 
DOCKED: BRANCH  33  34
DOCKED: ATOM     34  C   UNL d   1      20.173  24.521  -6.304 -0.16 -0.08    +0.306 C 
DOCKED: ATOM     35  O   UNL d   1      19.419  23.741  -5.745 -0.30 +0.04    -0.251 OA
DOCKED: BRANCH  34  36
DOCKED: ATOM     36  O   UNL d   1      19.698  25.589  -6.969 -0.16 +0.14    -0.481 OA
DOCKED: ATOM     37  H   UNL d   1      20.448  26.221  -6.987 +0.13 -0.14    +0.295 HD
DOCKED: ENDBRANCH  34  36
DOCKED: ENDBRANCH  33  34
DOCKED: ENDBRANCH   7  33
DOCKED: BRANCH  27  38
DOCKED: ATOM     38  C   UNL d   1      19.431  17.050  -4.780 -0.21 -0.01    +0.017 C 
DOCKED: ATOM     39  C   UNL d   1      18.781  16.269  -3.904 -0.15 -0.03    +0.092 C 
DOCKED: BRANCH  39  40
DOCKED: ATOM     40  C   UNL d   1      18.163  15.020  -4.357 -0.09 -0.15    +0.330 C 
DOCKED: ATOM     41  O   UNL d   1      18.710  13.956  -4.573 -0.04 +0.08    -0.246 OA
DOCKED: BRANCH  40  42
DOCKED: ATOM     42  O   UNL d   1      16.840  15.188  -4.510 -0.03 +0.34    -0.477 OA
DOCKED: ATOM     43  H   UNL d   1      16.764  15.722  -5.327 -0.46 -0.54    +0.295 HD
DOCKED: ENDBRANCH  40  42
DOCKED: ENDBRANCH  39  40
DOCKED: ENDBRANCH  27  38
DOCKED: BRANCH   8  44
DOCKED: ATOM     44  C   UNL d   1      20.522  26.136   1.164 -0.42 -0.04    +0.141 C 
DOCKED: BRANCH  44  45
DOCKED: ATOM     45  C   UNL d   1      21.960  25.696   1.240 -0.18 -0.12    +0.306 C 
DOCKED: ATOM     46  O   UNL d   1      22.469  25.026   2.121 -0.13 +0.05    -0.251 OA
DOCKED: BRANCH  45  47
DOCKED: ATOM     47  O   UNL d   1      22.693  26.150   0.207 -0.08 +0.41    -0.481 OA
DOCKED: ATOM     48  H   UNL d   1      23.140  26.951   0.553 -0.42 -0.59    +0.295 HD
DOCKED: ENDBRANCH  45  47
DOCKED: ENDBRANCH  44  45
DOCKED: ENDBRANCH   8  44
DOCKED: BRANCH  22  49
DOCKED: ATOM     49  C   UNL d   1      20.397  16.511   0.703 -0.05 -0.00    +0.048 C 
DOCKED: BRANCH  49  50
DOCKED: ATOM     50  C   UNL d   1      19.092  15.864   1.167 -0.06 -0.01    +0.125 C 
DOCKED: BRANCH  50  51
DOCKED: ATOM     51  C   UNL d   1      18.011  16.040   0.138 -0.09 -0.03    +0.305 C 
DOCKED: ATOM     52  O   UNL d   1      17.957  15.547  -0.975 -0.07 +0.03    -0.251 OA
DOCKED: BRANCH  51  53
DOCKED: ATOM     53  O   UNL d   1      17.033  16.860   0.570 -0.16 +0.06    -0.481 OA
DOCKED: ATOM     54  H   UNL d   1      17.294  17.742   0.232 -0.48 -0.14    +0.295 HD
DOCKED: ENDBRANCH  51  53
DOCKED: ENDBRANCH  50  51
DOCKED: ENDBRANCH  49  50
DOCKED: ENDBRANCH  22  49
DOCKED: TORSDOF 13
DOCKED: TER
DOCKED: ENDMDL
________________________________________________________________________________


	BEGINNING GENETIC ALGORITHM DOCKING 71 of 100
Run: 71 Seed: 256678666 2126407088 [ Run 71 of 100 GA/GALS ]
Beginning LAMARCKIAN GENETIC ALGORITHM (LGA), with a maximum of 25000000 energy evaluations.

Final-Value: -13.147


	FINAL GENETIC ALGORITHM DOCKED STATE
	_______________________________________________


Detailed state:  trans 43.883 28.280 18.415 quatxyzw -0.085499 -0.955433 -0.033356 0.280581 center 0.153 0.018 -0.028 ntor 13 167.0552 108.4764 -110.0276 41.2833 -145.9570 -36.0391 122.7532 54.5658 29.5438 -35.2221 -84.1836 180.0000 -14.2964
State:	 43.883  28.280  18.415  -0.089 -0.995 -0.035 147.410    167.06  108.48 -110.03   41.28 -145.96  -36.04  122.75   54.57   29.54  -35.22  -84.18  180.00  -14.30

DOCKED: MODEL       71
DOCKED: USER    Run = 71
DOCKED: USER    DPF = D:/Protein_go_brrr/autodock/final/6BB5/heme/dock.dpf
DOCKED: USER  
DOCKED: USER    Estimated Free Energy of Binding    =   -6.58 kcal/mol  [=(1)+(2)+(3)-(4)]
DOCKED: USER    Estimated Inhibition Constant, Ki   =   14.96 uM (micromolar)  [Temperature = 298.15 K]
DOCKED: USER    
DOCKED: USER    (1) Final Intermolecular Energy     =  -10.46 kcal/mol
DOCKED: USER        vdW + Hbond + desolv Energy     =  -10.26 kcal/mol
DOCKED: USER        Electrostatic Energy            =   -0.20 kcal/mol
DOCKED: USER    (2) Final Total Internal Energy     =   -2.69 kcal/mol
DOCKED: USER    (3) Torsional Free Energy           =   +3.88 kcal/mol
DOCKED: USER    (4) Unbound System's Energy  [=(2)] =   -2.69 kcal/mol
DOCKED: USER    
DOCKED: USER    
DOCKED: USER    NEWDPF move heme_opt.pdbqt
DOCKED: USER    NEWDPF about 0.153000 0.018000 -0.028000
DOCKED: USER    NEWDPF tran0 43.883356 28.279959 18.414530
DOCKED: USER    NEWDPF quaternion0 -0.085499 -0.955433 -0.033356 0.280581
DOCKED: USER    NEWDPF axisangle0 -0.089077 -0.995418 -0.034752 147.410223
DOCKED: USER    NEWDPF quat0 -0.089077 -0.995418 -0.034752 147.410223
DOCKED: USER    NEWDPF dihe0 167.06 108.48 -110.03 41.28 -145.96 -36.04 122.75 54.57 29.54 -35.22 -84.18 180.00 -14.30 
DOCKED: USER  keepresnum = 1 
DOCKED: USER  
DOCKED: REMARK  13 active torsions:
DOCKED: REMARK  status: ('A' for Active; 'I' for Inactive)
DOCKED: REMARK    1  A    between atoms: O_3  and  C_38 
DOCKED: REMARK    2  A    between atoms: O_4  and  C_40 
DOCKED: REMARK    3  A    between atoms: O_7  and  C_46 
DOCKED: REMARK    4  A    between atoms: O_9  and  C_48 
DOCKED: REMARK    5  A    between atoms: C_15  and  C_20 
DOCKED: REMARK    6  A    between atoms: C_16  and  C_23 
DOCKED: REMARK    7  A    between atoms: C_20  and  C_38 
DOCKED: REMARK    8  A    between atoms: C_23  and  C_40 
DOCKED: REMARK    9  A    between atoms: C_32  and  C_41 
DOCKED: REMARK   10  A    between atoms: C_37  and  C_45 
DOCKED: REMARK   11  A    between atoms: C_41  and  C_44 
DOCKED: REMARK   12  A    between atoms: C_44  and  C_46 
DOCKED: REMARK   13  A    between atoms: C_47  and  C_48 
DOCKED: USER                              x       y       z     vdW  Elec       q    Type
DOCKED: USER                           _______ _______ _______ _____ _____    ______ ____
DOCKED: ROOT
DOCKED: ATOM      1  O   UNL d   1      49.124  28.929  21.035 -0.01 -0.13    -0.289 OA
DOCKED: ATOM      2  O   UNL d   1      44.527  23.007  20.609 -0.73 -0.15    -0.289 OA
DOCKED: ATOM      3  N   UNL d   1      46.047  29.061  19.483 -0.09 -0.15    -0.247 NA
DOCKED: ATOM      4  N   UNL d   1      45.126  26.237  19.552 -0.07 -0.15    -0.247 NA
DOCKED: ATOM      5  N   UNL d   1      43.092  26.951  17.649 -0.04 -0.11    -0.354 N 
DOCKED: ATOM      6  N   UNL d   1      44.067  29.874  17.568 -0.11 -0.10    -0.354 N 
DOCKED: ATOM      7  C   UNL d   1      47.935  30.607  19.714 -0.06 +0.03    +0.084 A 
DOCKED: ATOM      8  C   UNL d   1      46.005  24.817  21.336 -0.08 +0.06    +0.084 A 
DOCKED: ATOM      9  C   UNL d   1      46.012  26.163  20.603 -0.10 +0.05    +0.058 A 
DOCKED: ATOM     10  C   UNL d   1      46.538  30.314  19.158 -0.13 +0.02    +0.058 A 
DOCKED: ATOM     11  C   UNL d   1      48.139  29.304  20.427 -0.05 +0.10    +0.193 A 
DOCKED: ATOM     12  C   UNL d   1      46.915  28.463  20.233 -0.10 +0.08    +0.109 A 
DOCKED: ATOM     13  C   UNL d   1      44.977  24.129  20.483 -0.12 +0.10    +0.193 A 
DOCKED: ATOM     14  C   UNL d   1      48.981  30.733  18.603 -0.07 +0.01    +0.026 C 
DOCKED: ATOM     15  C   UNL d   1      46.848  27.162  20.927 -0.07 +0.06    +0.055 C 
DOCKED: ATOM     16  C   UNL d   1      45.455  24.949  22.760 -0.17 +0.03    +0.026 C 
DOCKED: ATOM     17  C   UNL d   1      44.529  25.094  19.434 -0.15 +0.05    +0.109 A 
DOCKED: ATOM     18  C   UNL d   1      45.837  31.250  18.491 -0.20 +0.01    +0.050 C 
DOCKED: ATOM     19  C   UNL d   1      44.510  31.099  18.014 -0.23 +0.01    +0.045 A 
DOCKED: ATOM     20  C   UNL d   1      42.959  25.586  17.635 -0.28 +0.01    +0.045 A 
DOCKED: ATOM     21  C   UNL d   1      43.549  24.679  18.420 -0.29 +0.02    +0.057 C 
DOCKED: ATOM     22  C   UNL d   1      41.635  26.474  15.999 -0.39 -0.00    -0.019 A 
DOCKED: ATOM     23  C   UNL d   1      42.331  27.574  16.696 -0.25 +0.01    +0.045 A 
DOCKED: ATOM     24  C   UNL d   1      42.010  25.300  16.560 -0.36 -0.00    -0.022 A 
DOCKED: ATOM     25  C   UNL d   1      42.789  29.974  17.069 -0.31 +0.01    +0.049 A 
DOCKED: ATOM     26  C   UNL d   1      43.480  32.010  17.835 -0.24 -0.00    -0.018 A 
DOCKED: ATOM     27  C   UNL d   1      42.390  31.290  17.257 -0.40 +0.00    +0.003 A 
DOCKED: ATOM     28  C   UNL d   1      42.176  28.875  16.408 -0.21 +0.01    +0.052 C 
DOCKED: ATOM     29  C   UNL d   1      41.572  23.918  16.213 -0.46 +0.01    +0.046 C 
DOCKED: ATOM     30  C   UNL d   1      43.505  33.460  18.182 -0.38 +0.00    +0.046 C 
DOCKED: ATOM     31  H   UNL d   1      43.644  27.418  18.360 +0.07 +0.07    +0.166 HD
DOCKED: ATOM     32  H   UNL d   1      44.636  29.035  17.576 +0.07 +0.05    +0.166 HD
DOCKED: ENDROOT
DOCKED: BRANCH   7  33
DOCKED: ATOM     33  C   UNL d   1      48.017  31.778  20.700 -0.06 +0.05    +0.141 C 
DOCKED: BRANCH  33  34
DOCKED: ATOM     34  C   UNL d   1      47.515  31.417  22.071 -0.07 +0.16    +0.306 C 
DOCKED: ATOM     35  O   UNL d   1      46.374  31.553  22.479 -0.04 -0.18    -0.251 OA
DOCKED: BRANCH  34  36
DOCKED: ATOM     36  O   UNL d   1      48.476  30.900  22.856 -0.03 -0.24    -0.481 OA
DOCKED: ATOM     37  H   UNL d   1      49.200  30.663  22.237 +0.02 +0.11    +0.295 HD
DOCKED: ENDBRANCH  34  36
DOCKED: ENDBRANCH  33  34
DOCKED: ENDBRANCH   7  33
DOCKED: BRANCH  27  38
DOCKED: ATOM     38  C   UNL d   1      41.127  31.858  16.893 -0.50 +0.00    +0.017 C 
DOCKED: ATOM     39  C   UNL d   1      40.948  33.084  16.377 -0.44 +0.01    +0.092 C 
DOCKED: BRANCH  39  40
DOCKED: ATOM     40  C   UNL d   1      39.600  33.541  16.030 -0.28 +0.03    +0.330 C 
DOCKED: ATOM     41  O   UNL d   1      38.697  32.889  15.540 -0.27 -0.02    -0.246 OA
DOCKED: BRANCH  40  42
DOCKED: ATOM     42  O   UNL d   1      39.459  34.839  16.340 -0.14 +0.00    -0.477 OA
DOCKED: ATOM     43  H   UNL d   1      39.427  34.844  17.319 -0.33 -0.06    +0.295 HD
DOCKED: ENDBRANCH  40  42
DOCKED: ENDBRANCH  39  40
DOCKED: ENDBRANCH  27  38
DOCKED: BRANCH   8  44
DOCKED: ATOM     44  C   UNL d   1      47.332  24.051  21.323 -0.02 +0.07    +0.141 C 
DOCKED: BRANCH  44  45
DOCKED: ATOM     45  C   UNL d   1      47.521  23.212  20.087 -0.01 +0.15    +0.306 C 
DOCKED: ATOM     46  O   UNL d   1      47.865  23.607  18.986 -0.03 -0.15    -0.251 OA
DOCKED: BRANCH  45  47
DOCKED: ATOM     47  O   UNL d   1      47.239  21.914  20.298 -0.02 -0.20    -0.481 OA
DOCKED: ATOM     48  H   UNL d   1      46.268  21.890  20.431 +0.06 +0.11    +0.295 HD
DOCKED: ENDBRANCH  45  47
DOCKED: ENDBRANCH  44  45
DOCKED: ENDBRANCH   8  44
DOCKED: BRANCH  22  49
DOCKED: ATOM     49  C   UNL d   1      40.689  26.669  14.851 -0.36 +0.01    +0.048 C 
DOCKED: BRANCH  49  50
DOCKED: ATOM     50  C   UNL d   1      39.230  26.660  15.308 -0.33 +0.02    +0.125 C 
DOCKED: BRANCH  50  51
DOCKED: ATOM     51  C   UNL d   1      38.722  28.060  15.507 -0.25 +0.08    +0.305 C 
DOCKED: ATOM     52  O   UNL d   1      38.827  29.004  14.745 -0.64 -0.08    -0.251 OA
DOCKED: BRANCH  51  53
DOCKED: ATOM     53  O   UNL d   1      38.100  28.207  16.694 -0.69 -0.13    -0.481 OA
DOCKED: ATOM     54  H   UNL d   1      37.321  28.765  16.488 +0.18 +0.05    +0.295 HD
DOCKED: ENDBRANCH  51  53
DOCKED: ENDBRANCH  50  51
DOCKED: ENDBRANCH  49  50
DOCKED: ENDBRANCH  22  49
DOCKED: TORSDOF 13
DOCKED: TER
DOCKED: ENDMDL
________________________________________________________________________________


	BEGINNING GENETIC ALGORITHM DOCKING 72 of 100
Run: 72 Seed: 705602277 821257432 [ Run 72 of 100 GA/GALS ]
Beginning LAMARCKIAN GENETIC ALGORITHM (LGA), with a maximum of 25000000 energy evaluations.

Final-Value: -13.816


	FINAL GENETIC ALGORITHM DOCKED STATE
	_______________________________________________


Detailed state:  trans 43.775 28.287 18.535 quatxyzw 0.073199 0.944118 0.045472 -0.318145 center 0.153 0.018 -0.028 ntor 13 87.6441 132.0099 -166.2058 -26.4380 -161.9488 99.9673 136.1055 -119.3088 88.0429 -15.5312 -101.0047 -113.0145 -17.9354
State:	 43.775  28.287  18.535   0.077  0.996  0.048 -142.898     87.64  132.01 -166.21  -26.44 -161.95   99.97  136.11 -119.31   88.04  -15.53 -101.00 -113.01  -17.94

DOCKED: MODEL       72
DOCKED: USER    Run = 72
DOCKED: USER    DPF = D:/Protein_go_brrr/autodock/final/6BB5/heme/dock.dpf
DOCKED: USER  
DOCKED: USER    Estimated Free Energy of Binding    =   -6.06 kcal/mol  [=(1)+(2)+(3)-(4)]
DOCKED: USER    Estimated Inhibition Constant, Ki   =   36.11 uM (micromolar)  [Temperature = 298.15 K]
DOCKED: USER    
DOCKED: USER    (1) Final Intermolecular Energy     =   -9.94 kcal/mol
DOCKED: USER        vdW + Hbond + desolv Energy     =   -9.88 kcal/mol
DOCKED: USER        Electrostatic Energy            =   -0.06 kcal/mol
DOCKED: USER    (2) Final Total Internal Energy     =   -3.88 kcal/mol
DOCKED: USER    (3) Torsional Free Energy           =   +3.88 kcal/mol
DOCKED: USER    (4) Unbound System's Energy  [=(2)] =   -3.88 kcal/mol
DOCKED: USER    
DOCKED: USER    
DOCKED: USER    NEWDPF move heme_opt.pdbqt
DOCKED: USER    NEWDPF about 0.153000 0.018000 -0.028000
DOCKED: USER    NEWDPF tran0 43.775325 28.287168 18.534667
DOCKED: USER    NEWDPF quaternion0 0.073199 0.944118 0.045472 -0.318145
DOCKED: USER    NEWDPF axisangle0 0.077210 0.995860 0.047964 -142.898473
DOCKED: USER    NEWDPF quat0 0.077210 0.995860 0.047964 -142.898473
DOCKED: USER    NEWDPF dihe0 87.64 132.01 -166.21 -26.44 -161.95 99.97 136.11 -119.31 88.04 -15.53 -101.00 -113.01 -17.94 
DOCKED: USER  keepresnum = 1 
DOCKED: USER  
DOCKED: REMARK  13 active torsions:
DOCKED: REMARK  status: ('A' for Active; 'I' for Inactive)
DOCKED: REMARK    1  A    between atoms: O_3  and  C_38 
DOCKED: REMARK    2  A    between atoms: O_4  and  C_40 
DOCKED: REMARK    3  A    between atoms: O_7  and  C_46 
DOCKED: REMARK    4  A    between atoms: O_9  and  C_48 
DOCKED: REMARK    5  A    between atoms: C_15  and  C_20 
DOCKED: REMARK    6  A    between atoms: C_16  and  C_23 
DOCKED: REMARK    7  A    between atoms: C_20  and  C_38 
DOCKED: REMARK    8  A    between atoms: C_23  and  C_40 
DOCKED: REMARK    9  A    between atoms: C_32  and  C_41 
DOCKED: REMARK   10  A    between atoms: C_37  and  C_45 
DOCKED: REMARK   11  A    between atoms: C_41  and  C_44 
DOCKED: REMARK   12  A    between atoms: C_44  and  C_46 
DOCKED: REMARK   13  A    between atoms: C_47  and  C_48 
DOCKED: USER                              x       y       z     vdW  Elec       q    Type
DOCKED: USER                           _______ _______ _______ _____ _____    ______ ____
DOCKED: ROOT
DOCKED: ATOM      1  O   UNL d   1      48.769  29.039  21.578 -0.03 -0.16    -0.289 OA
DOCKED: ATOM      2  O   UNL d   1      44.377  23.007  20.724 -0.75 -0.16    -0.289 OA
DOCKED: ATOM      3  N   UNL d   1      45.824  29.110  19.782 -0.11 -0.17    -0.247 NA
DOCKED: ATOM      4  N   UNL d   1      44.975  26.263  19.750 -0.08 -0.17    -0.247 NA
DOCKED: ATOM      5  N   UNL d   1      43.084  26.947  17.695 -0.03 -0.11    -0.354 N 
DOCKED: ATOM      6  N   UNL d   1      43.985  29.895  17.721 -0.11 -0.10    -0.354 N 
DOCKED: ATOM      7  C   UNL d   1      47.646  30.701  20.181 -0.08 +0.03    +0.084 A 
DOCKED: ATOM      8  C   UNL d   1      45.744  24.846  21.586 -0.10 +0.07    +0.084 A 
DOCKED: ATOM      9  C   UNL d   1      45.775  26.200  20.868 -0.11 +0.06    +0.058 A 
DOCKED: ATOM     10  C   UNL d   1      46.307  30.379  19.510 -0.14 +0.03    +0.058 A 
DOCKED: ATOM     11  C   UNL d   1      47.826  29.395  20.895 -0.07 +0.12    +0.193 A 
DOCKED: ATOM     12  C   UNL d   1      46.644  28.526  20.595 -0.10 +0.10    +0.109 A 
DOCKED: ATOM     13  C   UNL d   1      44.807  24.141  20.646 -0.13 +0.10    +0.193 A 
DOCKED: ATOM     14  C   UNL d   1      48.775  30.866  19.160 -0.06 +0.01    +0.026 C 
DOCKED: ATOM     15  C   UNL d   1      46.555  27.215  21.269 +0.06 +0.07    +0.055 C 
DOCKED: ATOM     16  C   UNL d   1      45.078  24.947  22.961 -0.19 +0.03    +0.026 C 
DOCKED: ATOM     17  C   UNL d   1      44.420  25.107  19.573 -0.16 +0.06    +0.109 A 
DOCKED: ATOM     18  C   UNL d   1      45.637  31.305  18.798 -0.22 +0.02    +0.050 C 
DOCKED: ATOM     19  C   UNL d   1      44.358  31.125  18.213 -0.25 +0.01    +0.045 A 
DOCKED: ATOM     20  C   UNL d   1      42.988  25.580  17.657 -0.28 +0.01    +0.045 A 
DOCKED: ATOM     21  C   UNL d   1      43.537  24.679  18.478 -0.30 +0.02    +0.057 C 
DOCKED: ATOM     22  C   UNL d   1      41.778  26.453  15.928 -0.37 -0.00    -0.019 A 
DOCKED: ATOM     23  C   UNL d   1      42.386  27.562  16.689 -0.26 +0.01    +0.045 A 
DOCKED: ATOM     24  C   UNL d   1      42.137  25.282  16.506 -0.35 -0.00    -0.022 A 
DOCKED: ATOM     25  C   UNL d   1      42.749  29.968  17.122 -0.30 +0.01    +0.049 A 
DOCKED: ATOM     26  C   UNL d   1      43.323  32.012  17.960 -0.35 -0.00    -0.018 A 
DOCKED: ATOM     27  C   UNL d   1      42.301  31.272  17.288 -0.41 +0.00    +0.003 A 
DOCKED: ATOM     28  C   UNL d   1      42.221  28.862  16.403 -0.21 +0.01    +0.052 C 
DOCKED: ATOM     29  C   UNL d   1      41.765  23.894  16.111 -0.47 +0.01    +0.046 C 
DOCKED: ATOM     30  C   UNL d   1      43.281  33.458  18.321 -0.35 +0.00    +0.046 C 
DOCKED: ATOM     31  H   UNL d   1      43.564  27.420  18.452 +0.07 +0.07    +0.166 HD
DOCKED: ATOM     32  H   UNL d   1      44.573  29.071  17.768 +0.07 +0.06    +0.166 HD
DOCKED: ENDROOT
DOCKED: BRANCH   7  33
DOCKED: ATOM     33  C   UNL d   1      47.618  31.862  21.181 -0.09 +0.05    +0.141 C 
DOCKED: BRANCH  33  34
DOCKED: ATOM     34  C   UNL d   1      48.369  31.553  22.447 -0.05 +0.12    +0.306 C 
DOCKED: ATOM     35  O   UNL d   1      47.877  31.331  23.541 -0.08 -0.14    -0.251 OA
DOCKED: BRANCH  34  36
DOCKED: ATOM     36  O   UNL d   1      49.702  31.538  22.269 +0.00 -0.13    -0.481 OA
DOCKED: ATOM     37  H   UNL d   1      49.920  30.595  22.112 +0.01 +0.09    +0.295 HD
DOCKED: ENDBRANCH  34  36
DOCKED: ENDBRANCH  33  34
DOCKED: ENDBRANCH   7  33
DOCKED: BRANCH  27  38
DOCKED: ATOM     38  C   UNL d   1      41.057  31.811  16.829 -0.49 +0.00    +0.017 C 
DOCKED: ATOM     39  C   UNL d   1      40.764  32.104  15.553 -0.37 +0.01    +0.092 C 
DOCKED: BRANCH  39  40
DOCKED: ATOM     40  C   UNL d   1      39.443  32.638  15.211 -0.26 +0.03    +0.330 C 
DOCKED: ATOM     41  O   UNL d   1      39.133  33.801  15.039 -0.30 -0.02    -0.246 OA
DOCKED: BRANCH  40  42
DOCKED: ATOM     42  O   UNL d   1      38.558  31.636  15.092 -0.12 -0.06    -0.477 OA
DOCKED: ATOM     43  H   UNL d   1      39.015  30.985  14.521 +0.17 +0.04    +0.295 HD
DOCKED: ENDBRANCH  40  42
DOCKED: ENDBRANCH  39  40
DOCKED: ENDBRANCH  27  38
DOCKED: BRANCH   8  44
DOCKED: ATOM     44  C   UNL d   1      47.087  24.114  21.673 -0.03 +0.08    +0.141 C 
DOCKED: BRANCH  44  45
DOCKED: ATOM     45  C   UNL d   1      47.623  23.693  20.330 +0.00 +0.15    +0.306 C 
DOCKED: ATOM     46  O   UNL d   1      48.379  24.330  19.617 -0.01 -0.13    -0.251 OA
DOCKED: BRANCH  45  47
DOCKED: ATOM     47  O   UNL d   1      47.153  22.495  19.941 -0.00 -0.22    -0.481 OA
DOCKED: ATOM     48  H   UNL d   1      46.412  22.307  20.555 +0.06 +0.12    +0.295 HD
DOCKED: ENDBRANCH  45  47
DOCKED: ENDBRANCH  44  45
DOCKED: ENDBRANCH   8  44
DOCKED: BRANCH  22  49
DOCKED: ATOM     49  C   UNL d   1      40.922  26.637  14.709 -0.30 +0.01    +0.048 C 
DOCKED: BRANCH  49  50
DOCKED: ATOM     50  C   UNL d   1      39.435  26.497  15.031 -0.36 +0.02    +0.125 C 
DOCKED: BRANCH  50  51
DOCKED: ATOM     51  C   UNL d   1      38.896  27.762  15.638 -0.25 +0.08    +0.305 C 
DOCKED: ATOM     52  O   UNL d   1      38.302  27.884  16.694 -0.86 -0.08    -0.251 OA
DOCKED: BRANCH  51  53
DOCKED: ATOM     53  O   UNL d   1      39.128  28.835  14.856 -0.55 -0.19    -0.481 OA
DOCKED: ATOM     54  H   UNL d   1      38.407  29.458  15.086 +0.17 +0.06    +0.295 HD
DOCKED: ENDBRANCH  51  53
DOCKED: ENDBRANCH  50  51
DOCKED: ENDBRANCH  49  50
DOCKED: ENDBRANCH  22  49
DOCKED: TORSDOF 13
DOCKED: TER
DOCKED: ENDMDL
________________________________________________________________________________


	BEGINNING GENETIC ALGORITHM DOCKING 73 of 100
Run: 73 Seed: 258537630 1676639599 [ Run 73 of 100 GA/GALS ]
Beginning LAMARCKIAN GENETIC ALGORITHM (LGA), with a maximum of 25000000 energy evaluations.

Final-Value: -10.172


	FINAL GENETIC ALGORITHM DOCKED STATE
	_______________________________________________


Detailed state:  trans 41.370 14.860 15.210 quatxyzw 0.679612 0.558689 0.129806 -0.457322 center 0.153 0.018 -0.028 ntor 13 175.1612 128.1970 -75.2061 -32.6608 -150.5809 125.8178 161.5158 55.9170 12.8840 -97.5569 -84.0593 -111.0991 0.7705
State:	 41.370  14.860  15.210   0.764  0.628  0.146 -125.571    175.16  128.20  -75.21  -32.66 -150.58  125.82  161.52   55.92   12.88  -97.56  -84.06 -111.10    0.77

DOCKED: MODEL       73
DOCKED: USER    Run = 73
DOCKED: USER    DPF = D:/Protein_go_brrr/autodock/final/6BB5/heme/dock.dpf
DOCKED: USER  
DOCKED: USER    Estimated Free Energy of Binding    =   -1.84 kcal/mol  [=(1)+(2)+(3)-(4)]
DOCKED: USER    Estimated Inhibition Constant, Ki   =   45.09 mM (millimolar)  [Temperature = 298.15 K]
DOCKED: USER    
DOCKED: USER    (1) Final Intermolecular Energy     =   -5.71 kcal/mol
DOCKED: USER        vdW + Hbond + desolv Energy     =   -5.55 kcal/mol
DOCKED: USER        Electrostatic Energy            =   -0.17 kcal/mol
DOCKED: USER    (2) Final Total Internal Energy     =   -4.46 kcal/mol
DOCKED: USER    (3) Torsional Free Energy           =   +3.88 kcal/mol
DOCKED: USER    (4) Unbound System's Energy  [=(2)] =   -4.46 kcal/mol
DOCKED: USER    
DOCKED: USER    
DOCKED: USER    NEWDPF move heme_opt.pdbqt
DOCKED: USER    NEWDPF about 0.153000 0.018000 -0.028000
DOCKED: USER    NEWDPF tran0 41.370421 14.860356 15.210290
DOCKED: USER    NEWDPF quaternion0 0.679612 0.558689 0.129806 -0.457322
DOCKED: USER    NEWDPF axisangle0 0.764210 0.628234 0.145964 -125.571092
DOCKED: USER    NEWDPF quat0 0.764210 0.628234 0.145964 -125.571092
DOCKED: USER    NEWDPF dihe0 175.16 128.20 -75.21 -32.66 -150.58 125.82 161.52 55.92 12.88 -97.56 -84.06 -111.10 0.77 
DOCKED: USER  keepresnum = 1 
DOCKED: USER  
DOCKED: REMARK  13 active torsions:
DOCKED: REMARK  status: ('A' for Active; 'I' for Inactive)
DOCKED: REMARK    1  A    between atoms: O_3  and  C_38 
DOCKED: REMARK    2  A    between atoms: O_4  and  C_40 
DOCKED: REMARK    3  A    between atoms: O_7  and  C_46 
DOCKED: REMARK    4  A    between atoms: O_9  and  C_48 
DOCKED: REMARK    5  A    between atoms: C_15  and  C_20 
DOCKED: REMARK    6  A    between atoms: C_16  and  C_23 
DOCKED: REMARK    7  A    between atoms: C_20  and  C_38 
DOCKED: REMARK    8  A    between atoms: C_23  and  C_40 
DOCKED: REMARK    9  A    between atoms: C_32  and  C_41 
DOCKED: REMARK   10  A    between atoms: C_37  and  C_45 
DOCKED: REMARK   11  A    between atoms: C_41  and  C_44 
DOCKED: REMARK   12  A    between atoms: C_44  and  C_46 
DOCKED: REMARK   13  A    between atoms: C_47  and  C_48 
DOCKED: USER                              x       y       z     vdW  Elec       q    Type
DOCKED: USER                           _______ _______ _______ _____ _____    ______ ____
DOCKED: ROOT
DOCKED: ATOM      1  O   UNL d   1      40.979   9.696  18.027 -0.01 -0.02    -0.289 OA
DOCKED: ATOM      2  O   UNL d   1      36.272  13.073  13.249 -0.09 -0.06    -0.289 OA
DOCKED: ATOM      3  N   UNL d   1      41.579  12.829  16.714 +0.03 -0.04    -0.247 NA
DOCKED: ATOM      4  N   UNL d   1      39.378  13.178  14.749 -0.12 -0.03    -0.247 NA
DOCKED: ATOM      5  N   UNL d   1      40.818  15.423  13.675 -0.09 -0.00    -0.354 N 
DOCKED: ATOM      6  N   UNL d   1      43.106  15.041  15.705 -0.02 -0.07    -0.354 N 
DOCKED: ATOM      7  C   UNL d   1      42.850  11.267  18.111 -0.05 +0.01    +0.084 A 
DOCKED: ATOM      8  C   UNL d   1      37.314  11.933  15.148 -0.09 +0.01    +0.084 A 
DOCKED: ATOM      9  C   UNL d   1      38.765  12.232  15.539 -0.12 +0.01    +0.058 A 
DOCKED: ATOM     10  C   UNL d   1      42.772  12.611  17.381 -0.10 +0.01    +0.058 A 
DOCKED: ATOM     11  C   UNL d   1      41.481  10.771  17.754 -0.04 +0.02    +0.193 A 
DOCKED: ATOM     12  C   UNL d   1      40.801  11.818  16.928 -0.08 +0.01    +0.109 A 
DOCKED: ATOM     13  C   UNL d   1      37.229  12.858  13.967 -0.12 +0.03    +0.193 A 
DOCKED: ATOM     14  C   UNL d   1      43.892  10.334  17.489 -0.02 +0.00    +0.026 C 
DOCKED: ATOM     15  C   UNL d   1      39.396  11.588  16.533 -0.11 +0.01    +0.055 C 
DOCKED: ATOM     16  C   UNL d   1      36.327  12.411  16.219 -0.16 +0.00    +0.026 C 
DOCKED: ATOM     17  C   UNL d   1      38.547  13.547  13.827 -0.18 +0.01    +0.109 A 
DOCKED: ATOM     18  C   UNL d   1      43.761  13.520  17.475 -0.13 +0.01    +0.050 C 
DOCKED: ATOM     19  C   UNL d   1      43.741  14.819  16.906 -0.13 +0.01    +0.045 A 
DOCKED: ATOM     20  C   UNL d   1      39.845  15.289  12.719 -0.10 -0.00    +0.045 A 
DOCKED: ATOM     21  C   UNL d   1      38.775  14.488  12.720 -0.20 +0.00    +0.057 C 
DOCKED: ATOM     22  C   UNL d   1      41.352  16.857  12.022 -0.19 -0.00    -0.019 A 
DOCKED: ATOM     23  C   UNL d   1      41.773  16.347  13.342 -0.19 +0.00    +0.045 A 
DOCKED: ATOM     24  C   UNL d   1      40.209  16.228  11.659 -0.20 -0.00    -0.022 A 
DOCKED: ATOM     25  C   UNL d   1      43.287  16.342  15.297 -0.13 +0.01    +0.049 A 
DOCKED: ATOM     26  C   UNL d   1      44.317  16.014  17.306 -0.20 -0.00    -0.018 A 
DOCKED: ATOM     27  C   UNL d   1      44.011  16.978  16.296 -0.20 +0.00    +0.003 A 
DOCKED: ATOM     28  C   UNL d   1      42.857  16.769  14.011 -0.18 +0.01    +0.052 C 
DOCKED: ATOM     29  C   UNL d   1      39.397  16.409  10.422 -0.21 +0.00    +0.046 C 
DOCKED: ATOM     30  C   UNL d   1      45.103  16.251  18.552 -0.22 +0.01    +0.046 C 
DOCKED: ATOM     31  H   UNL d   1      40.759  14.930  14.559 +0.02 +0.01    +0.166 HD
DOCKED: ATOM     32  H   UNL d   1      42.615  14.321  15.189 +0.03 +0.03    +0.166 HD
DOCKED: ENDROOT
DOCKED: BRANCH   7  33
DOCKED: ATOM     33  C   UNL d   1      43.010  11.354  19.633 -0.06 +0.01    +0.141 C 
DOCKED: BRANCH  33  34
DOCKED: ATOM     34  C   UNL d   1      41.864  12.068  20.296 -0.12 +0.02    +0.306 C 
DOCKED: ATOM     35  O   UNL d   1      41.835  13.245  20.613 -0.24 -0.02    -0.251 OA
DOCKED: BRANCH  34  36
DOCKED: ATOM     36  O   UNL d   1      40.812  11.260  20.523 -0.03 -0.02    -0.481 OA
DOCKED: ATOM     37  H   UNL d   1      41.044  10.421  20.072 +0.03 +0.02    +0.295 HD
DOCKED: ENDBRANCH  34  36
DOCKED: ENDBRANCH  33  34
DOCKED: ENDBRANCH   7  33
DOCKED: BRANCH  27  38
DOCKED: ATOM     38  C   UNL d   1      44.430  18.347  16.307 -0.23 +0.00    +0.017 C 
DOCKED: ATOM     39  C   UNL d   1      45.398  18.866  15.537 -0.12 +0.04    +0.092 C 
DOCKED: BRANCH  39  40
DOCKED: ATOM     40  C   UNL d   1      45.721  20.292  15.632 -0.10 +0.22    +0.330 C 
DOCKED: ATOM     41  O   UNL d   1      46.801  20.796  15.876 -0.20 -0.32    -0.246 OA
DOCKED: BRANCH  40  42
DOCKED: ATOM     42  O   UNL d   1      44.625  21.030  15.397 +0.02 -0.21    -0.477 OA
DOCKED: ATOM     43  H   UNL d   1      44.284  20.680  14.548 +0.15 +0.11    +0.295 HD
DOCKED: ENDBRANCH  40  42
DOCKED: ENDBRANCH  39  40
DOCKED: ENDBRANCH  27  38
DOCKED: BRANCH   8  44
DOCKED: ATOM     44  C   UNL d   1      37.026  10.486  14.735 -0.03 +0.01    +0.141 C 
DOCKED: BRANCH  44  45
DOCKED: ATOM     45  C   UNL d   1      35.954  10.371  13.684 -0.01 +0.03    +0.306 C 
DOCKED: ATOM     46  O   UNL d   1      36.086   9.925  12.557 -0.01 -0.02    -0.251 OA
DOCKED: BRANCH  45  47
DOCKED: ATOM     47  O   UNL d   1      34.769  10.853  14.101 -0.01 -0.06    -0.481 OA
DOCKED: ATOM     48  H   UNL d   1      34.684  11.722  13.654 +0.03 +0.04    +0.295 HD
DOCKED: ENDBRANCH  45  47
DOCKED: ENDBRANCH  44  45
DOCKED: ENDBRANCH   8  44
DOCKED: BRANCH  22  49
DOCKED: ATOM     49  C   UNL d   1      42.107  17.891  11.239 -0.23 +0.01    +0.048 C 
DOCKED: BRANCH  49  50
DOCKED: ATOM     50  C   UNL d   1      41.775  19.310  11.702 -0.31 +0.01    +0.125 C 
DOCKED: BRANCH  50  51
DOCKED: ATOM     51  C   UNL d   1      42.803  19.810  12.676 -0.25 +0.06    +0.305 C 
DOCKED: ATOM     52  O   UNL d   1      44.015  19.791  12.553 -0.24 -0.08    -0.251 OA
DOCKED: BRANCH  51  53
DOCKED: ATOM     53  O   UNL d   1      42.238  20.312  13.793 -0.17 -0.06    -0.481 OA
DOCKED: ATOM     54  H   UNL d   1      42.880  20.098  14.502 +0.14 +0.05    +0.295 HD
DOCKED: ENDBRANCH  51  53
DOCKED: ENDBRANCH  50  51
DOCKED: ENDBRANCH  49  50
DOCKED: ENDBRANCH  22  49
DOCKED: TORSDOF 13
DOCKED: TER
DOCKED: ENDMDL
________________________________________________________________________________


	BEGINNING GENETIC ALGORITHM DOCKING 74 of 100
Run: 74 Seed: 1596179397 82022785 [ Run 74 of 100 GA/GALS ]
Beginning LAMARCKIAN GENETIC ALGORITHM (LGA), with a maximum of 25000000 energy evaluations.

Final-Value: -11.008


	FINAL GENETIC ALGORITHM DOCKED STATE
	_______________________________________________


Detailed state:  trans 36.923 28.527 -0.186 quatxyzw -0.084729 -0.177844 0.132019 0.971475 center 0.153 0.018 -0.028 ntor 13 -135.9325 -76.4402 -133.6477 66.4661 36.6688 -59.8026 -44.4187 152.8375 151.2616 102.4076 -3.7463 -103.2827 -174.3507
State:	 36.923  28.527  -0.186  -0.357 -0.750  0.557 27.436   -135.93  -76.44 -133.65   66.47   36.67  -59.80  -44.42  152.84  151.26  102.41   -3.75 -103.28 -174.35

DOCKED: MODEL       74
DOCKED: USER    Run = 74
DOCKED: USER    DPF = D:/Protein_go_brrr/autodock/final/6BB5/heme/dock.dpf
DOCKED: USER  
DOCKED: USER    Estimated Free Energy of Binding    =   -5.67 kcal/mol  [=(1)+(2)+(3)-(4)]
DOCKED: USER    Estimated Inhibition Constant, Ki   =   69.46 uM (micromolar)  [Temperature = 298.15 K]
DOCKED: USER    
DOCKED: USER    (1) Final Intermolecular Energy     =   -9.55 kcal/mol
DOCKED: USER        vdW + Hbond + desolv Energy     =   -9.07 kcal/mol
DOCKED: USER        Electrostatic Energy            =   -0.48 kcal/mol
DOCKED: USER    (2) Final Total Internal Energy     =   -1.46 kcal/mol
DOCKED: USER    (3) Torsional Free Energy           =   +3.88 kcal/mol
DOCKED: USER    (4) Unbound System's Energy  [=(2)] =   -1.46 kcal/mol
DOCKED: USER    
DOCKED: USER    
DOCKED: USER    NEWDPF move heme_opt.pdbqt
DOCKED: USER    NEWDPF about 0.153000 0.018000 -0.028000
DOCKED: USER    NEWDPF tran0 36.923304 28.527385 -0.185657
DOCKED: USER    NEWDPF quaternion0 -0.084729 -0.177844 0.132019 0.971475
DOCKED: USER    NEWDPF axisangle0 -0.357293 -0.749946 0.556707 27.435864
DOCKED: USER    NEWDPF quat0 -0.357293 -0.749946 0.556707 27.435864
DOCKED: USER    NEWDPF dihe0 -135.93 -76.44 -133.65 66.47 36.67 -59.80 -44.42 152.84 151.26 102.41 -3.75 -103.28 -174.35 
DOCKED: USER  keepresnum = 1 
DOCKED: USER  
DOCKED: REMARK  13 active torsions:
DOCKED: REMARK  status: ('A' for Active; 'I' for Inactive)
DOCKED: REMARK    1  A    between atoms: O_3  and  C_38 
DOCKED: REMARK    2  A    between atoms: O_4  and  C_40 
DOCKED: REMARK    3  A    between atoms: O_7  and  C_46 
DOCKED: REMARK    4  A    between atoms: O_9  and  C_48 
DOCKED: REMARK    5  A    between atoms: C_15  and  C_20 
DOCKED: REMARK    6  A    between atoms: C_16  and  C_23 
DOCKED: REMARK    7  A    between atoms: C_20  and  C_38 
DOCKED: REMARK    8  A    between atoms: C_23  and  C_40 
DOCKED: REMARK    9  A    between atoms: C_32  and  C_41 
DOCKED: REMARK   10  A    between atoms: C_37  and  C_45 
DOCKED: REMARK   11  A    between atoms: C_41  and  C_44 
DOCKED: REMARK   12  A    between atoms: C_44  and  C_46 
DOCKED: REMARK   13  A    between atoms: C_47  and  C_48 
DOCKED: USER                              x       y       z     vdW  Elec       q    Type
DOCKED: USER                           _______ _______ _______ _____ _____    ______ ____
DOCKED: ROOT
DOCKED: ATOM      1  O   UNL d   1      32.556  31.266   2.675 -0.12 -0.20    -0.289 OA
DOCKED: ATOM      2  O   UNL d   1      32.628  24.855  -1.235 -0.03 +0.03    -0.289 OA
DOCKED: ATOM      3  N   UNL d   1      35.361  30.109   1.036 -0.05 -0.03    -0.247 NA
DOCKED: ATOM      4  N   UNL d   1      34.526  27.429   0.061 -0.12 -0.00    -0.247 NA
DOCKED: ATOM      5  N   UNL d   1      37.293  26.868  -0.485 -0.04 +0.01    -0.354 N 
DOCKED: ATOM      6  N   UNL d   1      38.153  29.643   0.546 -0.16 +0.01    -0.354 N 
DOCKED: ATOM      7  C   UNL d   1      34.892  31.976   2.553 -0.24 +0.01    +0.084 A 
DOCKED: ATOM      8  C   UNL d   1      32.139  27.072  -0.318 -0.09 +0.01    +0.084 A 
DOCKED: ATOM      9  C   UNL d   1      33.268  27.975   0.189 -0.15 +0.01    +0.058 A 
DOCKED: ATOM     10  C   UNL d   1      35.900  31.197   1.702 -0.23 +0.00    +0.058 A 
DOCKED: ATOM     11  C   UNL d   1      33.685  31.147   2.234 -0.17 +0.06    +0.193 A 
DOCKED: ATOM     12  C   UNL d   1      34.093  30.063   1.285 -0.15 +0.02    +0.109 A 
DOCKED: ATOM     13  C   UNL d   1      32.985  25.898  -0.722 -0.05 -0.01    +0.193 A 
DOCKED: ATOM     14  C   UNL d   1      35.192  31.859   4.050 -0.56 +0.00    +0.026 C 
DOCKED: ATOM     15  C   UNL d   1      33.043  29.171   0.754 -0.21 +0.02    +0.055 C 
DOCKED: ATOM     16  C   UNL d   1      31.468  27.649  -1.568 -0.04 +0.00    +0.026 C 
DOCKED: ATOM     17  C   UNL d   1      34.411  26.239  -0.434 -0.13 -0.01    +0.109 A 
DOCKED: ATOM     18  C   UNL d   1      37.173  31.613   1.563 -0.14 -0.01    +0.050 C 
DOCKED: ATOM     19  C   UNL d   1      38.150  31.007   0.734 -0.27 -0.01    +0.045 A 
DOCKED: ATOM     20  C   UNL d   1      36.758  25.620  -0.673 -0.13 -0.00    +0.045 A 
DOCKED: ATOM     21  C   UNL d   1      35.472  25.254  -0.691 -0.14 -0.01    +0.057 C 
DOCKED: ATOM     22  C   UNL d   1      39.035  25.470  -0.778 -0.18 +0.00    -0.019 A 
DOCKED: ATOM     23  C   UNL d   1      38.661  26.878  -0.531 -0.20 -0.00    +0.045 A 
DOCKED: ATOM     24  C   UNL d   1      37.903  24.731  -0.862 -0.12 +0.00    -0.022 A 
DOCKED: ATOM     25  C   UNL d   1      39.233  29.262  -0.215 -0.23 -0.00    +0.049 A 
DOCKED: ATOM     26  C   UNL d   1      39.235  31.529   0.047 -0.27 +0.00    -0.018 A 
DOCKED: ATOM     27  C   UNL d   1      39.904  30.425  -0.566 -0.27 -0.00    +0.003 A 
DOCKED: ATOM     28  C   UNL d   1      39.537  27.887  -0.413 -0.19 -0.00    +0.052 C 
DOCKED: ATOM     29  C   UNL d   1      37.761  23.268  -1.112 -0.07 -0.00    +0.046 C 
DOCKED: ATOM     30  C   UNL d   1      39.628  32.965  -0.037 -0.32 -0.01    +0.046 C 
DOCKED: ATOM     31  H   UNL d   1      36.701  27.688  -0.405 +0.04 +0.00    +0.166 HD
DOCKED: ATOM     32  H   UNL d   1      37.467  29.020   0.955 +0.07 +0.01    +0.166 HD
DOCKED: ENDROOT
DOCKED: BRANCH   7  33
DOCKED: ATOM     33  C   UNL d   1      34.669  33.434   2.136 -0.19 +0.02    +0.141 C 
DOCKED: BRANCH  33  34
DOCKED: ATOM     34  C   UNL d   1      34.051  34.261   3.231 -0.20 +0.05    +0.306 C 
DOCKED: ATOM     35  O   UNL d   1      34.652  34.901   4.077 -0.40 -0.04    -0.251 OA
DOCKED: BRANCH  34  36
DOCKED: ATOM     36  O   UNL d   1      32.707  34.241   3.200 -0.04 -0.15    -0.481 OA
DOCKED: ATOM     37  H   UNL d   1      32.479  33.306   3.006 +0.12 +0.15    +0.295 HD
DOCKED: ENDBRANCH  34  36
DOCKED: ENDBRANCH  33  34
DOCKED: ENDBRANCH   7  33
DOCKED: BRANCH  27  38
DOCKED: ATOM     38  C   UNL d   1      41.091  30.518  -1.362 -0.26 -0.00    +0.017 C 
DOCKED: ATOM     39  C   UNL d   1      42.291  30.020  -1.025 -0.35 -0.01    +0.092 C 
DOCKED: BRANCH  39  40
DOCKED: ATOM     40  C   UNL d   1      43.426  30.168  -1.939 -0.20 -0.03    +0.330 C 
DOCKED: ATOM     41  O   UNL d   1      43.534  29.727  -3.068 -0.10 +0.02    -0.246 OA
DOCKED: BRANCH  40  42
DOCKED: ATOM     42  O   UNL d   1      44.392  30.897  -1.361 -0.22 +0.09    -0.477 OA
DOCKED: ATOM     43  H   UNL d   1      45.063  30.233  -1.099 -0.48 -0.12    +0.295 HD
DOCKED: ENDBRANCH  40  42
DOCKED: ENDBRANCH  39  40
DOCKED: ENDBRANCH  27  38
DOCKED: BRANCH   8  44
DOCKED: ATOM     44  C   UNL d   1      31.099  26.663   0.731 -0.01 +0.02    +0.141 C 
DOCKED: BRANCH  44  45
DOCKED: ATOM     45  C   UNL d   1      30.509  27.834   1.470 -0.13 +0.21    +0.306 C 
DOCKED: ATOM     46  O   UNL d   1      30.944  28.347   2.487 -0.44 -0.21    -0.251 OA
DOCKED: BRANCH  45  47
DOCKED: ATOM     47  O   UNL d   1      29.377  28.285   0.900 -0.55 -0.50    -0.481 OA
DOCKED: ATOM     48  H   UNL d   1      28.857  27.476   0.708 +0.08 +0.13    +0.295 HD
DOCKED: ENDBRANCH  45  47
DOCKED: ENDBRANCH  44  45
DOCKED: ENDBRANCH   8  44
DOCKED: BRANCH  22  49
DOCKED: ATOM     49  C   UNL d   1      40.449  24.981  -0.892 -0.20 +0.00    +0.048 C 
DOCKED: BRANCH  49  50
DOCKED: ATOM     50  C   UNL d   1      40.915  24.287   0.387 -0.24 +0.00    +0.125 C 
DOCKED: BRANCH  50  51
DOCKED: ATOM     51  C   UNL d   1      42.307  23.744   0.225 -0.13 +0.02    +0.305 C 
DOCKED: ATOM     52  O   UNL d   1      43.173  23.654   1.078 -0.20 -0.03    -0.251 OA
DOCKED: BRANCH  51  53
DOCKED: ATOM     53  O   UNL d   1      42.548  23.342  -1.038 -0.03 -0.03    -0.481 OA
DOCKED: ATOM     54  H   UNL d   1      42.661  22.372  -0.962 +0.04 +0.02    +0.295 HD
DOCKED: ENDBRANCH  51  53
DOCKED: ENDBRANCH  50  51
DOCKED: ENDBRANCH  49  50
DOCKED: ENDBRANCH  22  49
DOCKED: TORSDOF 13
DOCKED: TER
DOCKED: ENDMDL
________________________________________________________________________________


	BEGINNING GENETIC ALGORITHM DOCKING 75 of 100
Run: 75 Seed: 478463778 1342258328 [ Run 75 of 100 GA/GALS ]
Beginning LAMARCKIAN GENETIC ALGORITHM (LGA), with a maximum of 25000000 energy evaluations.

Final-Value: -10.157


	FINAL GENETIC ALGORITHM DOCKED STATE
	_______________________________________________


Detailed state:  trans 15.874 16.185 4.738 quatxyzw -0.828040 -0.193119 -0.095480 -0.517628 center 0.153 0.018 -0.028 ntor 13 -127.5216 -180.0000 38.0939 47.9163 30.4424 -80.9289 84.8700 34.3850 128.4022 124.6976 -82.6286 7.1076 1.7728
State:	 15.874  16.185   4.738  -0.968 -0.226 -0.112 -117.653   -127.52 -180.00   38.09   47.92   30.44  -80.93   84.87   34.38  128.40  124.70  -82.63    7.11    1.77

DOCKED: MODEL       75
DOCKED: USER    Run = 75
DOCKED: USER    DPF = D:/Protein_go_brrr/autodock/final/6BB5/heme/dock.dpf
DOCKED: USER  
DOCKED: USER    Estimated Free Energy of Binding    =   -2.46 kcal/mol  [=(1)+(2)+(3)-(4)]
DOCKED: USER    Estimated Inhibition Constant, Ki   =   15.83 mM (millimolar)  [Temperature = 298.15 K]
DOCKED: USER    
DOCKED: USER    (1) Final Intermolecular Energy     =   -6.33 kcal/mol
DOCKED: USER        vdW + Hbond + desolv Energy     =   -6.11 kcal/mol
DOCKED: USER        Electrostatic Energy            =   -0.22 kcal/mol
DOCKED: USER    (2) Final Total Internal Energy     =   -3.82 kcal/mol
DOCKED: USER    (3) Torsional Free Energy           =   +3.88 kcal/mol
DOCKED: USER    (4) Unbound System's Energy  [=(2)] =   -3.82 kcal/mol
DOCKED: USER    
DOCKED: USER    
DOCKED: USER    NEWDPF move heme_opt.pdbqt
DOCKED: USER    NEWDPF about 0.153000 0.018000 -0.028000
DOCKED: USER    NEWDPF tran0 15.873575 16.184831 4.737829
DOCKED: USER    NEWDPF quaternion0 -0.828040 -0.193119 -0.095480 -0.517628
DOCKED: USER    NEWDPF axisangle0 -0.967782 -0.225710 -0.111593 -117.653384
DOCKED: USER    NEWDPF quat0 -0.967782 -0.225710 -0.111593 -117.653384
DOCKED: USER    NEWDPF dihe0 -127.52 -180.00 38.09 47.92 30.44 -80.93 84.87 34.38 128.40 124.70 -82.63 7.11 1.77 
DOCKED: USER  keepresnum = 1 
DOCKED: USER  
DOCKED: REMARK  13 active torsions:
DOCKED: REMARK  status: ('A' for Active; 'I' for Inactive)
DOCKED: REMARK    1  A    between atoms: O_3  and  C_38 
DOCKED: REMARK    2  A    between atoms: O_4  and  C_40 
DOCKED: REMARK    3  A    between atoms: O_7  and  C_46 
DOCKED: REMARK    4  A    between atoms: O_9  and  C_48 
DOCKED: REMARK    5  A    between atoms: C_15  and  C_20 
DOCKED: REMARK    6  A    between atoms: C_16  and  C_23 
DOCKED: REMARK    7  A    between atoms: C_20  and  C_38 
DOCKED: REMARK    8  A    between atoms: C_23  and  C_40 
DOCKED: REMARK    9  A    between atoms: C_32  and  C_41 
DOCKED: REMARK   10  A    between atoms: C_37  and  C_45 
DOCKED: REMARK   11  A    between atoms: C_41  and  C_44 
DOCKED: REMARK   12  A    between atoms: C_44  and  C_46 
DOCKED: REMARK   13  A    between atoms: C_47  and  C_48 
DOCKED: USER                              x       y       z     vdW  Elec       q    Type
DOCKED: USER                           _______ _______ _______ _____ _____    ______ ____
DOCKED: ROOT
DOCKED: ATOM      1  O   UNL d   1      11.463  14.866   1.054 -0.11 -0.14    -0.289 OA
DOCKED: ATOM      2  O   UNL d   1      11.500  16.074   8.466 -0.18 -0.08    -0.289 OA
DOCKED: ATOM      3  N   UNL d   1      14.354  15.484   2.832 -0.09 -0.05    -0.247 NA
DOCKED: ATOM      4  N   UNL d   1      13.356  16.123   5.557 -0.03 -0.06    -0.247 NA
DOCKED: ATOM      5  N   UNL d   1      15.978  17.126   6.181 -0.03 -0.08    -0.354 N 
DOCKED: ATOM      6  N   UNL d   1      16.999  16.478   3.346 +0.01 -0.03    -0.354 N 
DOCKED: ATOM      7  C   UNL d   1      13.806  15.228   0.457 -0.14 +0.02    +0.084 A 
DOCKED: ATOM      8  C   UNL d   1      11.199  15.178   6.208 -0.20 +0.01    +0.084 A 
DOCKED: ATOM      9  C   UNL d   1      12.262  15.406   5.128 -0.10 +0.01    +0.058 A 
DOCKED: ATOM     10  C   UNL d   1      14.855  15.489   1.541 -0.09 +0.01    +0.058 A 
DOCKED: ATOM     11  C   UNL d   1      12.625  15.056   1.364 -0.10 +0.06    +0.193 A 
DOCKED: ATOM     12  C   UNL d   1      13.091  15.209   2.779 -0.09 +0.02    +0.109 A 
DOCKED: ATOM     13  C   UNL d   1      11.876  15.931   7.319 -0.16 +0.05    +0.193 A 
DOCKED: ATOM     14  C   UNL d   1      13.576  16.456  -0.428 -0.38 +0.01    +0.026 C 
DOCKED: ATOM     15  C   UNL d   1      12.112  14.987   3.862 -0.13 +0.01    +0.055 C 
DOCKED: ATOM     16  C   UNL d   1      11.098  13.702   6.603 -0.15 +0.00    +0.026 C 
DOCKED: ATOM     17  C   UNL d   1      13.170  16.460   6.793 -0.10 +0.03    +0.109 A 
DOCKED: ATOM     18  C   UNL d   1      16.161  15.618   1.240 -0.12 +0.00    +0.050 C 
DOCKED: ATOM     19  C   UNL d   1      17.211  15.777   2.180 -0.09 +0.00    +0.045 A 
DOCKED: ATOM     20  C   UNL d   1      15.292  17.555   7.288 -0.13 +0.01    +0.045 A 
DOCKED: ATOM     21  C   UNL d   1      14.035  17.282   7.652 -0.18 +0.02    +0.057 C 
DOCKED: ATOM     22  C   UNL d   1      17.401  18.430   7.341 -0.16 -0.00    -0.019 A 
DOCKED: ATOM     23  C   UNL d   1      17.260  17.604   6.126 -0.11 +0.01    +0.045 A 
DOCKED: ATOM     24  C   UNL d   1      16.233  18.396   8.026 -0.19 -0.01    -0.022 A 
DOCKED: ATOM     25  C   UNL d   1      18.167  16.587   4.063 -0.09 +0.00    +0.049 A 
DOCKED: ATOM     26  C   UNL d   1      18.541  15.388   2.157 -0.06 -0.00    -0.018 A 
DOCKED: ATOM     27  C   UNL d   1      19.135  15.885   3.358 -0.04 +0.00    +0.003 A 
DOCKED: ATOM     28  C   UNL d   1      18.235  17.400   5.227 -0.10 +0.01    +0.052 C 
DOCKED: ATOM     29  C   UNL d   1      15.888  19.060   9.315 -0.35 +0.01    +0.046 C 
DOCKED: ATOM     30  C   UNL d   1      19.221  14.602   1.088 -0.02 -0.00    +0.046 C 
DOCKED: ATOM     31  H   UNL d   1      15.569  16.459   5.535 +0.04 +0.03    +0.166 HD
DOCKED: ATOM     32  H   UNL d   1      16.107  16.885   3.600 +0.04 +0.02    +0.166 HD
DOCKED: ENDROOT
DOCKED: BRANCH   7  33
DOCKED: ATOM     33  C   UNL d   1      14.028  13.965  -0.382 -0.07 +0.03    +0.141 C 
DOCKED: BRANCH  33  34
DOCKED: ATOM     34  C   UNL d   1      12.914  13.718  -1.363 -0.08 +0.13    +0.306 C 
DOCKED: ATOM     35  O   UNL d   1      12.813  14.205  -2.476 -0.12 -0.13    -0.251 OA
DOCKED: BRANCH  34  36
DOCKED: ATOM     36  O   UNL d   1      11.987  12.866  -0.890 -0.03 -0.26    -0.481 OA
DOCKED: ATOM     37  H   UNL d   1      11.760  13.216  -0.002 +0.05 +0.15    +0.295 HD
DOCKED: ENDBRANCH  34  36
DOCKED: ENDBRANCH  33  34
DOCKED: ENDBRANCH   7  33
DOCKED: BRANCH  27  38
DOCKED: ATOM     38  C   UNL d   1      20.509  15.721   3.729 -0.01 +0.00    +0.017 C 
DOCKED: ATOM     39  C   UNL d   1      20.946  15.385   4.952 -0.00 +0.01    +0.092 C 
DOCKED: BRANCH  39  40
DOCKED: ATOM     40  C   UNL d   1      22.382  15.230   5.198 +0.00 +0.02    +0.330 C 
DOCKED: ATOM     41  O   UNL d   1      23.073  14.254   4.977 +0.00 -0.01    -0.246 OA
DOCKED: BRANCH  40  42
DOCKED: ATOM     42  O   UNL d   1      22.885  16.360   5.718 +0.00 -0.03    -0.477 OA
DOCKED: ATOM     43  H   UNL d   1      22.112  16.958   5.773 +0.01 +0.02    +0.295 HD
DOCKED: ENDBRANCH  40  42
DOCKED: ENDBRANCH  39  40
DOCKED: ENDBRANCH  27  38
DOCKED: BRANCH   8  44
DOCKED: ATOM     44  C   UNL d   1       9.816  15.768   5.909 -0.33 +0.03    +0.141 C 
DOCKED: BRANCH  44  45
DOCKED: ATOM     45  C   UNL d   1       9.042  14.978   4.887 -0.25 +0.05    +0.306 C 
DOCKED: ATOM     46  O   UNL d   1       8.980  13.764   4.801 -0.21 -0.01    -0.251 OA
DOCKED: BRANCH  45  47
DOCKED: ATOM     47  O   UNL d   1       8.404  15.767   4.003 -0.71 -0.16    -0.481 OA
DOCKED: ATOM     48  H   UNL d   1       7.553  15.310   3.832 -0.45 +0.00    +0.295 HD
DOCKED: ENDBRANCH  45  47
DOCKED: ENDBRANCH  44  45
DOCKED: ENDBRANCH   8  44
DOCKED: BRANCH  22  49
DOCKED: ATOM     49  C   UNL d   1      18.647  19.181   7.710 -0.19 +0.01    +0.048 C 
DOCKED: BRANCH  49  50
DOCKED: ATOM     50  C   UNL d   1      19.676  18.277   8.387 -0.07 +0.02    +0.125 C 
DOCKED: BRANCH  50  51
DOCKED: ATOM     51  C   UNL d   1      20.712  17.812   7.403 -0.01 +0.04    +0.305 C 
DOCKED: ATOM     52  O   UNL d   1      21.091  18.384   6.397 -0.01 -0.02    -0.251 OA
DOCKED: BRANCH  51  53
DOCKED: ATOM     53  O   UNL d   1      21.224  16.611   7.740 +0.00 -0.06    -0.481 OA
DOCKED: ATOM     54  H   UNL d   1      22.193  16.733   7.656 +0.01 +0.03    +0.295 HD
DOCKED: ENDBRANCH  51  53
DOCKED: ENDBRANCH  50  51
DOCKED: ENDBRANCH  49  50
DOCKED: ENDBRANCH  22  49
DOCKED: TORSDOF 13
DOCKED: TER
DOCKED: ENDMDL
________________________________________________________________________________


	BEGINNING GENETIC ALGORITHM DOCKING 76 of 100
Run: 76 Seed: 1436489472 345402907 [ Run 76 of 100 GA/GALS ]
Beginning LAMARCKIAN GENETIC ALGORITHM (LGA), with a maximum of 25000000 energy evaluations.

Final-Value: -11.783


	FINAL GENETIC ALGORITHM DOCKED STATE
	_______________________________________________


Detailed state:  trans 16.536 49.835 16.184 quatxyzw 0.278595 -0.786438 0.493660 0.245356 center 0.153 0.018 -0.028 ntor 13 -161.3079 128.7237 -111.0748 6.8473 42.8051 72.1569 128.1214 -77.3695 157.5129 -14.4839 -80.2566 -82.5551 -9.0756
State:	 16.536  49.835  16.184   0.287 -0.811  0.509 151.594   -161.31  128.72 -111.07    6.85   42.81   72.16  128.12  -77.37  157.51  -14.48  -80.26  -82.56   -9.08

DOCKED: MODEL       76
DOCKED: USER    Run = 76
DOCKED: USER    DPF = D:/Protein_go_brrr/autodock/final/6BB5/heme/dock.dpf
DOCKED: USER  
DOCKED: USER    Estimated Free Energy of Binding    =   -3.64 kcal/mol  [=(1)+(2)+(3)-(4)]
DOCKED: USER    Estimated Inhibition Constant, Ki   =    2.16 mM (millimolar)  [Temperature = 298.15 K]
DOCKED: USER    
DOCKED: USER    (1) Final Intermolecular Energy     =   -7.51 kcal/mol
DOCKED: USER        vdW + Hbond + desolv Energy     =   -6.86 kcal/mol
DOCKED: USER        Electrostatic Energy            =   -0.65 kcal/mol
DOCKED: USER    (2) Final Total Internal Energy     =   -4.27 kcal/mol
DOCKED: USER    (3) Torsional Free Energy           =   +3.88 kcal/mol
DOCKED: USER    (4) Unbound System's Energy  [=(2)] =   -4.27 kcal/mol
DOCKED: USER    
DOCKED: USER    
DOCKED: USER    NEWDPF move heme_opt.pdbqt
DOCKED: USER    NEWDPF about 0.153000 0.018000 -0.028000
DOCKED: USER    NEWDPF tran0 16.536298 49.834769 16.184258
DOCKED: USER    NEWDPF quaternion0 0.278595 -0.786438 0.493660 0.245356
DOCKED: USER    NEWDPF axisangle0 0.287379 -0.811235 0.509225 151.594288
DOCKED: USER    NEWDPF quat0 0.287379 -0.811235 0.509225 151.594288
DOCKED: USER    NEWDPF dihe0 -161.31 128.72 -111.07 6.85 42.81 72.16 128.12 -77.37 157.51 -14.48 -80.26 -82.56 -9.08 
DOCKED: USER  keepresnum = 1 
DOCKED: USER  
DOCKED: REMARK  13 active torsions:
DOCKED: REMARK  status: ('A' for Active; 'I' for Inactive)
DOCKED: REMARK    1  A    between atoms: O_3  and  C_38 
DOCKED: REMARK    2  A    between atoms: O_4  and  C_40 
DOCKED: REMARK    3  A    between atoms: O_7  and  C_46 
DOCKED: REMARK    4  A    between atoms: O_9  and  C_48 
DOCKED: REMARK    5  A    between atoms: C_15  and  C_20 
DOCKED: REMARK    6  A    between atoms: C_16  and  C_23 
DOCKED: REMARK    7  A    between atoms: C_20  and  C_38 
DOCKED: REMARK    8  A    between atoms: C_23  and  C_40 
DOCKED: REMARK    9  A    between atoms: C_32  and  C_41 
DOCKED: REMARK   10  A    between atoms: C_37  and  C_45 
DOCKED: REMARK   11  A    between atoms: C_41  and  C_44 
DOCKED: REMARK   12  A    between atoms: C_44  and  C_46 
DOCKED: REMARK   13  A    between atoms: C_47  and  C_48 
DOCKED: USER                              x       y       z     vdW  Elec       q    Type
DOCKED: USER                           _______ _______ _______ _____ _____    ______ ____
DOCKED: ROOT
DOCKED: ATOM      1  O   UNL d   1      20.698  53.842  15.010 -0.02 +0.05    -0.289 OA
DOCKED: ATOM      2  O   UNL d   1      18.367  50.921  21.523 -0.11 +0.03    -0.289 OA
DOCKED: ATOM      3  N   UNL d   1      18.096  51.588  15.222 -0.07 +0.06    -0.247 NA
DOCKED: ATOM      4  N   UNL d   1      18.113  50.792  18.084 -0.01 +0.03    -0.247 NA
DOCKED: ATOM      5  N   UNL d   1      16.367  48.615  17.394 -0.04 +0.04    -0.354 N 
DOCKED: ATOM      6  N   UNL d   1      16.370  49.436  14.422 -0.06 +0.07    -0.354 N 
DOCKED: ATOM      7  C   UNL d   1      19.320  52.648  13.382 -0.16 -0.04    +0.084 A 
DOCKED: ATOM      8  C   UNL d   1      19.032  52.393  19.684 -0.07 -0.01    +0.084 A 
DOCKED: ATOM      9  C   UNL d   1      18.758  52.000  18.229 -0.08 -0.01    +0.058 A 
DOCKED: ATOM     10  C   UNL d   1      18.222  51.687  13.846 -0.20 -0.03    +0.058 A 
DOCKED: ATOM     11  C   UNL d   1      19.782  53.088  14.738 -0.06 -0.05    +0.193 A 
DOCKED: ATOM     12  C   UNL d   1      18.945  52.395  15.769 -0.05 -0.02    +0.109 A 
DOCKED: ATOM     13  C   UNL d   1      18.458  51.167  20.337 -0.10 -0.03    +0.193 A 
DOCKED: ATOM     14  C   UNL d   1      20.468  51.913  12.683 -0.30 -0.00    +0.026 C 
DOCKED: ATOM     15  C   UNL d   1      19.158  52.746  17.188 -0.08 -0.01    +0.055 C 
DOCKED: ATOM     16  C   UNL d   1      18.205  53.610  20.109 -0.03 -0.00    +0.026 C 
DOCKED: ATOM     17  C   UNL d   1      17.941  50.273  19.257 -0.13 -0.02    +0.109 A 
DOCKED: ATOM     18  C   UNL d   1      17.404  51.076  12.968 -0.21 -0.04    +0.050 C 
DOCKED: ATOM     19  C   UNL d   1      16.310  50.240  13.307 -0.26 -0.02    +0.045 A 
DOCKED: ATOM     20  C   UNL d   1      16.674  48.270  18.684 -0.18 -0.01    +0.045 A 
DOCKED: ATOM     21  C   UNL d   1      17.356  48.967  19.598 -0.24 -0.01    +0.057 C 
DOCKED: ATOM     22  C   UNL d   1      15.480  46.572  17.730 -0.18 +0.00    -0.019 A 
DOCKED: ATOM     23  C   UNL d   1      15.647  47.652  16.737 -0.17 -0.01    +0.045 A 
DOCKED: ATOM     24  C   UNL d   1      16.089  46.944  18.881 -0.20 +0.00    -0.022 A 
DOCKED: ATOM     25  C   UNL d   1      15.247  48.647  14.510 -0.18 -0.01    +0.049 A 
DOCKED: ATOM     26  C   UNL d   1      15.102  49.994  12.673 -0.30 +0.01    -0.018 A 
DOCKED: ATOM     27  C   UNL d   1      14.426  49.002  13.449 -0.24 -0.00    +0.003 A 
DOCKED: ATOM     28  C   UNL d   1      15.150  47.623  15.491 -0.23 -0.02    +0.052 C 
DOCKED: ATOM     29  C   UNL d   1      16.183  46.200  20.170 -0.24 -0.01    +0.046 C 
DOCKED: ATOM     30  C   UNL d   1      14.602  50.641  11.426 -0.30 -0.04    +0.046 C 
DOCKED: ATOM     31  H   UNL d   1      16.595  49.532  17.025 +0.05 -0.02    +0.166 HD
DOCKED: ATOM     32  H   UNL d   1      17.160  49.414  15.056 +0.06 -0.01    +0.166 HD
DOCKED: ENDROOT
DOCKED: BRANCH   7  33
DOCKED: ATOM     33  C   UNL d   1      18.839  53.849  12.561 -0.05 -0.15    +0.141 C 
DOCKED: BRANCH  33  34
DOCKED: ATOM     34  C   UNL d   1      19.907  54.394  11.652 -0.08 -0.20    +0.306 C 
DOCKED: ATOM     35  O   UNL d   1      20.046  54.137  10.468 -0.17 +0.13    -0.251 OA
DOCKED: BRANCH  34  36
DOCKED: ATOM     36  O   UNL d   1      20.743  55.239  12.282 +0.01 +0.17    -0.481 OA
DOCKED: ATOM     37  H   UNL d   1      20.589  55.072  13.236 +0.04 -0.10    +0.295 HD
DOCKED: ENDBRANCH  34  36
DOCKED: ENDBRANCH  33  34
DOCKED: ENDBRANCH   7  33
DOCKED: BRANCH  27  38
DOCKED: ATOM     38  C   UNL d   1      13.143  48.445  13.139 -0.14 -0.01    +0.017 C 
DOCKED: ATOM     39  C   UNL d   1      12.838  47.139  13.172 -0.03 -0.09    +0.092 C 
DOCKED: BRANCH  39  40
DOCKED: ATOM     40  C   UNL d   1      11.478  46.699  12.849 -0.07 -0.35    +0.330 C 
DOCKED: ATOM     41  O   UNL d   1      10.932  46.710  11.762 -0.30 +0.18    -0.246 OA
DOCKED: BRANCH  40  42
DOCKED: ATOM     42  O   UNL d   1      10.865  46.245  13.953 -0.00 +0.56    -0.477 OA
DOCKED: ATOM     43  H   UNL d   1      11.499  45.598  14.325 -0.31 -0.62    +0.295 HD
DOCKED: ENDBRANCH  40  42
DOCKED: ENDBRANCH  39  40
DOCKED: ENDBRANCH  27  38
DOCKED: BRANCH   8  44
DOCKED: ATOM     44  C   UNL d   1      20.509  52.571  20.053 -0.09 -0.01    +0.141 C 
DOCKED: BRANCH  44  45
DOCKED: ATOM     45  C   UNL d   1      21.305  51.298  19.944 -0.11 -0.06    +0.306 C 
DOCKED: ATOM     46  O   UNL d   1      21.813  50.843  18.933 -0.22 +0.06    -0.251 OA
DOCKED: BRANCH  45  47
DOCKED: ATOM     47  O   UNL d   1      21.399  50.646  21.117 +0.00 +0.14    -0.481 OA
DOCKED: ATOM     48  H   UNL d   1      20.487  50.335  21.301 -0.09 -0.08    +0.295 HD
DOCKED: ENDBRANCH  45  47
DOCKED: ENDBRANCH  44  45
DOCKED: ENDBRANCH   8  44
DOCKED: BRANCH  22  49
DOCKED: ATOM     49  C   UNL d   1      14.761  45.283  17.460 -0.27 -0.01    +0.048 C 
DOCKED: BRANCH  49  50
DOCKED: ATOM     50  C   UNL d   1      13.285  45.362  17.851 -0.17 -0.05    +0.125 C 
DOCKED: BRANCH  50  51
DOCKED: ATOM     51  C   UNL d   1      12.421  45.587  16.643 -0.10 -0.20    +0.305 C 
DOCKED: ATOM     52  O   UNL d   1      12.164  46.647  16.100 -0.08 +0.16    -0.251 OA
DOCKED: BRANCH  51  53
DOCKED: ATOM     53  O   UNL d   1      11.901  44.435  16.174 -0.13 +0.45    -0.481 OA
DOCKED: ATOM     54  H   UNL d   1      11.455  44.697  15.341 -0.13 -0.45    +0.295 HD
DOCKED: ENDBRANCH  51  53
DOCKED: ENDBRANCH  50  51
DOCKED: ENDBRANCH  49  50
DOCKED: ENDBRANCH  22  49
DOCKED: TORSDOF 13
DOCKED: TER
DOCKED: ENDMDL
________________________________________________________________________________


	BEGINNING GENETIC ALGORITHM DOCKING 77 of 100
Run: 77 Seed: 2093484547 845120654 [ Run 77 of 100 GA/GALS ]
Beginning LAMARCKIAN GENETIC ALGORITHM (LGA), with a maximum of 25000000 energy evaluations.

Final-Value: -11.929


	FINAL GENETIC ALGORITHM DOCKED STATE
	_______________________________________________


Detailed state:  trans 30.917 35.375 2.920 quatxyzw -0.067202 -0.674205 0.503491 -0.536123 center 0.153 0.018 -0.028 ntor 13 144.4493 -153.4844 150.4534 175.3762 -137.3586 131.9889 170.9280 -62.3739 20.5615 4.7867 -66.1205 172.7755 154.2538
State:	 30.917  35.375   2.920  -0.080 -0.799  0.596 -115.160    144.45 -153.48  150.45  175.38 -137.36  131.99  170.93  -62.37   20.56    4.79  -66.12  172.78  154.25

DOCKED: MODEL       77
DOCKED: USER    Run = 77
DOCKED: USER    DPF = D:/Protein_go_brrr/autodock/final/6BB5/heme/dock.dpf
DOCKED: USER  
DOCKED: USER    Estimated Free Energy of Binding    =   -6.02 kcal/mol  [=(1)+(2)+(3)-(4)]
DOCKED: USER    Estimated Inhibition Constant, Ki   =   38.39 uM (micromolar)  [Temperature = 298.15 K]
DOCKED: USER    
DOCKED: USER    (1) Final Intermolecular Energy     =   -9.90 kcal/mol
DOCKED: USER        vdW + Hbond + desolv Energy     =   -9.04 kcal/mol
DOCKED: USER        Electrostatic Energy            =   -0.86 kcal/mol
DOCKED: USER    (2) Final Total Internal Energy     =   -2.03 kcal/mol
DOCKED: USER    (3) Torsional Free Energy           =   +3.88 kcal/mol
DOCKED: USER    (4) Unbound System's Energy  [=(2)] =   -2.03 kcal/mol
DOCKED: USER    
DOCKED: USER    
DOCKED: USER    NEWDPF move heme_opt.pdbqt
DOCKED: USER    NEWDPF about 0.153000 0.018000 -0.028000
DOCKED: USER    NEWDPF tran0 30.916626 35.375232 2.919631
DOCKED: USER    NEWDPF quaternion0 -0.067202 -0.674205 0.503491 -0.536123
DOCKED: USER    NEWDPF axisangle0 -0.079610 -0.798689 0.596454 -115.159773
DOCKED: USER    NEWDPF quat0 -0.079610 -0.798689 0.596454 -115.159773
DOCKED: USER    NEWDPF dihe0 144.45 -153.48 150.45 175.38 -137.36 131.99 170.93 -62.37 20.56 4.79 -66.12 172.78 154.25 
DOCKED: USER  keepresnum = 1 
DOCKED: USER  
DOCKED: REMARK  13 active torsions:
DOCKED: REMARK  status: ('A' for Active; 'I' for Inactive)
DOCKED: REMARK    1  A    between atoms: O_3  and  C_38 
DOCKED: REMARK    2  A    between atoms: O_4  and  C_40 
DOCKED: REMARK    3  A    between atoms: O_7  and  C_46 
DOCKED: REMARK    4  A    between atoms: O_9  and  C_48 
DOCKED: REMARK    5  A    between atoms: C_15  and  C_20 
DOCKED: REMARK    6  A    between atoms: C_16  and  C_23 
DOCKED: REMARK    7  A    between atoms: C_20  and  C_38 
DOCKED: REMARK    8  A    between atoms: C_23  and  C_40 
DOCKED: REMARK    9  A    between atoms: C_32  and  C_41 
DOCKED: REMARK   10  A    between atoms: C_37  and  C_45 
DOCKED: REMARK   11  A    between atoms: C_41  and  C_44 
DOCKED: REMARK   12  A    between atoms: C_44  and  C_46 
DOCKED: REMARK   13  A    between atoms: C_47  and  C_48 
DOCKED: USER                              x       y       z     vdW  Elec       q    Type
DOCKED: USER                           _______ _______ _______ _____ _____    ______ ____
DOCKED: ROOT
DOCKED: ATOM      1  O   UNL d   1      31.980  32.262  -1.972 -0.01 -0.07    -0.289 OA
DOCKED: ATOM      2  O   UNL d   1      35.448  32.313   4.689 -0.40 -0.03    -0.289 OA
DOCKED: ATOM      3  N   UNL d   1      31.073  34.385   0.590 -0.05 -0.12    -0.247 NA
DOCKED: ATOM      4  N   UNL d   1      32.764  33.479   2.859 -0.09 -0.10    -0.247 NA
DOCKED: ATOM      5  N   UNL d   1      31.099  35.045   4.604 -0.08 -0.08    -0.354 N 
DOCKED: ATOM      6  N   UNL d   1      29.338  35.963   2.247 -0.02 -0.07    -0.354 N 
DOCKED: ATOM      7  C   UNL d   1      30.165  33.862  -1.626 -0.02 +0.03    +0.084 A 
DOCKED: ATOM      8  C   UNL d   1      34.875  32.377   2.310 -0.21 +0.01    +0.084 A 
DOCKED: ATOM      9  C   UNL d   1      33.549  32.985   1.841 -0.12 +0.02    +0.058 A 
DOCKED: ATOM     10  C   UNL d   1      30.064  34.655  -0.320 -0.05 +0.02    +0.058 A 
DOCKED: ATOM     11  C   UNL d   1      31.421  33.110  -1.301 -0.02 +0.07    +0.193 A 
DOCKED: ATOM     12  C   UNL d   1      31.887  33.533   0.057 -0.05 +0.05    +0.109 A 
DOCKED: ATOM     13  C   UNL d   1      34.681  32.584   3.785 -0.28 +0.03    +0.193 A 
DOCKED: ATOM     14  C   UNL d   1      29.016  32.864  -1.783 -0.06 +0.01    +0.026 C 
DOCKED: ATOM     15  C   UNL d   1      33.166  32.988   0.555 -0.08 +0.02    +0.055 C 
DOCKED: ATOM     16  C   UNL d   1      36.075  33.210   1.850 -0.32 -0.00    +0.026 C 
DOCKED: ATOM     17  C   UNL d   1      33.360  33.254   3.986 -0.26 +0.03    +0.109 A 
DOCKED: ATOM     18  C   UNL d   1      29.116  35.593  -0.138 -0.08 +0.01    +0.050 C 
DOCKED: ATOM     19  C   UNL d   1      28.996  36.432   0.999 -0.09 +0.01    +0.045 A 
DOCKED: ATOM     20  C   UNL d   1      31.831  34.353   5.534 -0.34 +0.01    +0.045 A 
DOCKED: ATOM     21  C   UNL d   1      32.879  33.545   5.344 -0.37 +0.01    +0.057 C 
DOCKED: ATOM     22  C   UNL d   1      30.192  35.527   6.608 -0.37 +0.00    -0.019 A 
DOCKED: ATOM     23  C   UNL d   1      30.087  35.782   5.157 -0.15 -0.00    +0.045 A 
DOCKED: ATOM     24  C   UNL d   1      31.227  34.681   6.825 -0.48 -0.00    -0.022 A 
DOCKED: ATOM     25  C   UNL d   1      29.059  36.905   3.210 -0.16 -0.00    +0.049 A 
DOCKED: ATOM     26  C   UNL d   1      28.517  37.724   1.150 -0.15 -0.00    -0.018 A 
DOCKED: ATOM     27  C   UNL d   1      28.577  38.025   2.546 -0.21 -0.00    +0.003 A 
DOCKED: ATOM     28  C   UNL d   1      29.181  36.594   4.592 -0.26 -0.01    +0.052 C 
DOCKED: ATOM     29  C   UNL d   1      31.734  34.140   8.118 -0.04 -0.01    +0.046 C 
DOCKED: ATOM     30  C   UNL d   1      28.034  38.627   0.066 -0.08 +0.00    +0.046 C 
DOCKED: ATOM     31  H   UNL d   1      31.363  35.048   3.624 +0.06 +0.05    +0.166 HD
DOCKED: ATOM     32  H   UNL d   1      29.705  35.034   2.416 +0.04 +0.08    +0.166 HD
DOCKED: ENDROOT
DOCKED: BRANCH   7  33
DOCKED: ATOM     33  C   UNL d   1      30.356  34.704  -2.892 -0.00 +0.02    +0.141 C 
DOCKED: BRANCH  33  34
DOCKED: ATOM     34  C   UNL d   1      31.700  35.379  -2.943 +0.01 +0.03    +0.306 C 
DOCKED: ATOM     35  O   UNL d   1      31.999  36.431  -2.403 +0.00 -0.02    -0.251 OA
DOCKED: BRANCH  34  36
DOCKED: ATOM     36  O   UNL d   1      32.598  34.690  -3.669 +0.00 -0.03    -0.481 OA
DOCKED: ATOM     37  H   UNL d   1      32.413  33.749  -3.464 +0.00 +0.03    +0.295 HD
DOCKED: ENDBRANCH  34  36
DOCKED: ENDBRANCH  33  34
DOCKED: ENDBRANCH   7  33
DOCKED: BRANCH  27  38
DOCKED: ATOM     38  C   UNL d   1      28.161  39.258   3.143 -0.33 -0.01    +0.017 C 
DOCKED: ATOM     39  C   UNL d   1      27.194  40.059   2.671 -0.38 -0.02    +0.092 C 
DOCKED: BRANCH  39  40
DOCKED: ATOM     40  C   UNL d   1      26.850  41.290   3.389 -0.24 -0.02    +0.330 C 
DOCKED: ATOM     41  O   UNL d   1      26.746  42.412   2.933 -0.36 -0.13    -0.246 OA
DOCKED: BRANCH  40  42
DOCKED: ATOM     42  O   UNL d   1      26.641  41.023   4.688 -0.19 +0.33    -0.477 OA
DOCKED: ATOM     43  H   UNL d   1      27.178  40.221   4.852 -0.26 -0.51    +0.295 HD
DOCKED: ENDBRANCH  40  42
DOCKED: ENDBRANCH  39  40
DOCKED: ENDBRANCH  27  38
DOCKED: BRANCH   8  44
DOCKED: ATOM     44  C   UNL d   1      35.072  30.893   1.985 -0.23 +0.02    +0.141 C 
DOCKED: BRANCH  44  45
DOCKED: ATOM     45  C   UNL d   1      33.858  30.054   2.278 -0.16 +0.08    +0.306 C 
DOCKED: ATOM     46  O   UNL d   1      33.295  29.296   1.507 -0.20 -0.08    -0.251 OA
DOCKED: BRANCH  45  47
DOCKED: ATOM     47  O   UNL d   1      33.396  30.236   3.528 -0.17 -0.11    -0.481 OA
DOCKED: ATOM     48  H   UNL d   1      34.192  30.454   4.057 +0.02 +0.00    +0.295 HD
DOCKED: ENDBRANCH  45  47
DOCKED: ENDBRANCH  44  45
DOCKED: ENDBRANCH   8  44
DOCKED: BRANCH  22  49
DOCKED: ATOM     49  C   UNL d   1      29.271  36.116   7.636 -0.50 -0.03    +0.048 C 
DOCKED: BRANCH  49  50
DOCKED: ATOM     50  C   UNL d   1      27.871  35.506   7.561 -0.24 -0.09    +0.125 C 
DOCKED: BRANCH  50  51
DOCKED: ATOM     51  C   UNL d   1      27.556  34.732   8.809 -0.29 -0.10    +0.305 C 
DOCKED: ATOM     52  O   UNL d   1      28.060  33.687   9.182 -0.34 +0.01    -0.251 OA
DOCKED: BRANCH  51  53
DOCKED: ATOM     53  O   UNL d   1      26.586  35.321   9.537 -0.16 +0.26    -0.481 OA
DOCKED: ATOM     54  H   UNL d   1      26.413  36.163   9.065 -0.24 -0.43    +0.295 HD
DOCKED: ENDBRANCH  51  53
DOCKED: ENDBRANCH  50  51
DOCKED: ENDBRANCH  49  50
DOCKED: ENDBRANCH  22  49
DOCKED: TORSDOF 13
DOCKED: TER
DOCKED: ENDMDL
________________________________________________________________________________


	BEGINNING GENETIC ALGORITHM DOCKING 78 of 100
Run: 78 Seed: 1338061323 997033869 [ Run 78 of 100 GA/GALS ]
Beginning LAMARCKIAN GENETIC ALGORITHM (LGA), with a maximum of 25000000 energy evaluations.

Final-Value: -11.115


	FINAL GENETIC ALGORITHM DOCKED STATE
	_______________________________________________


Detailed state:  trans 38.716 13.554 22.197 quatxyzw 0.054746 0.622381 -0.753020 0.206411 center 0.153 0.018 -0.028 ntor 13 -98.0396 -159.0844 -115.7414 16.3496 35.0772 52.5852 122.1735 10.9278 133.7088 -28.2799 -65.8452 -92.9324 1.9056
State:	 38.716  13.554  22.197   0.056  0.636 -0.770 156.176    -98.04 -159.08 -115.74   16.35   35.08   52.59  122.17   10.93  133.71  -28.28  -65.85  -92.93    1.91

DOCKED: MODEL       78
DOCKED: USER    Run = 78
DOCKED: USER    DPF = D:/Protein_go_brrr/autodock/final/6BB5/heme/dock.dpf
DOCKED: USER  
DOCKED: USER    Estimated Free Energy of Binding    =   -2.61 kcal/mol  [=(1)+(2)+(3)-(4)]
DOCKED: USER    Estimated Inhibition Constant, Ki   =   12.29 mM (millimolar)  [Temperature = 298.15 K]
DOCKED: USER    
DOCKED: USER    (1) Final Intermolecular Energy     =   -6.48 kcal/mol
DOCKED: USER        vdW + Hbond + desolv Energy     =   -6.19 kcal/mol
DOCKED: USER        Electrostatic Energy            =   -0.29 kcal/mol
DOCKED: USER    (2) Final Total Internal Energy     =   -4.63 kcal/mol
DOCKED: USER    (3) Torsional Free Energy           =   +3.88 kcal/mol
DOCKED: USER    (4) Unbound System's Energy  [=(2)] =   -4.63 kcal/mol
DOCKED: USER    
DOCKED: USER    
DOCKED: USER    NEWDPF move heme_opt.pdbqt
DOCKED: USER    NEWDPF about 0.153000 0.018000 -0.028000
DOCKED: USER    NEWDPF tran0 38.715821 13.554055 22.197085
DOCKED: USER    NEWDPF quaternion0 0.054746 0.622381 -0.753020 0.206411
DOCKED: USER    NEWDPF axisangle0 0.055951 0.636079 -0.769593 156.175737
DOCKED: USER    NEWDPF quat0 0.055951 0.636079 -0.769593 156.175737
DOCKED: USER    NEWDPF dihe0 -98.04 -159.08 -115.74 16.35 35.08 52.59 122.17 10.93 133.71 -28.28 -65.85 -92.93 1.91 
DOCKED: USER  keepresnum = 1 
DOCKED: USER  
DOCKED: REMARK  13 active torsions:
DOCKED: REMARK  status: ('A' for Active; 'I' for Inactive)
DOCKED: REMARK    1  A    between atoms: O_3  and  C_38 
DOCKED: REMARK    2  A    between atoms: O_4  and  C_40 
DOCKED: REMARK    3  A    between atoms: O_7  and  C_46 
DOCKED: REMARK    4  A    between atoms: O_9  and  C_48 
DOCKED: REMARK    5  A    between atoms: C_15  and  C_20 
DOCKED: REMARK    6  A    between atoms: C_16  and  C_23 
DOCKED: REMARK    7  A    between atoms: C_20  and  C_38 
DOCKED: REMARK    8  A    between atoms: C_23  and  C_40 
DOCKED: REMARK    9  A    between atoms: C_32  and  C_41 
DOCKED: REMARK   10  A    between atoms: C_37  and  C_45 
DOCKED: REMARK   11  A    between atoms: C_41  and  C_44 
DOCKED: REMARK   12  A    between atoms: C_44  and  C_46 
DOCKED: REMARK   13  A    between atoms: C_47  and  C_48 
DOCKED: USER                              x       y       z     vdW  Elec       q    Type
DOCKED: USER                           _______ _______ _______ _____ _____    ______ ____
DOCKED: ROOT
DOCKED: ATOM      1  O   UNL d   1      43.185  10.598  19.739 -0.01 -0.02    -0.289 OA
DOCKED: ATOM      2  O   UNL d   1      42.843  14.670  26.039 -0.06 +0.00    -0.289 OA
DOCKED: ATOM      3  N   UNL d   1      40.341  12.284  20.721 -0.13 +0.01    -0.247 NA
DOCKED: ATOM      4  N   UNL d   1      41.057  13.321  23.412 -0.14 +0.02    -0.247 NA
DOCKED: ATOM      5  N   UNL d   1      38.271  13.898  23.829 -0.07 +0.12    -0.354 N 
DOCKED: ATOM      6  N   UNL d   1      37.535  12.802  21.044 +0.06 +0.06    -0.354 N 
DOCKED: ATOM      7  C   UNL d   1      40.886  10.716  18.917 -0.07 +0.01    +0.084 A 
DOCKED: ATOM      8  C   UNL d   1      43.428  13.694  23.872 -0.11 +0.01    +0.084 A 
DOCKED: ATOM      9  C   UNL d   1      42.338  13.172  22.930 -0.16 +0.00    +0.058 A 
DOCKED: ATOM     10  C   UNL d   1      39.849  11.592  19.627 -0.13 +0.00    +0.058 A 
DOCKED: ATOM     11  C   UNL d   1      42.056  11.049  19.794 -0.05 +0.01    +0.193 A 
DOCKED: ATOM     12  C   UNL d   1      41.604  12.028  20.833 -0.14 +0.00    +0.109 A 
DOCKED: ATOM     13  C   UNL d   1      42.530  14.133  24.994 -0.10 +0.00    +0.193 A 
DOCKED: ATOM     14  C   UNL d   1      40.570   9.225  19.058 -0.02 +0.00    +0.026 C 
DOCKED: ATOM     15  C   UNL d   1      42.615  12.574  21.760 -0.17 +0.00    +0.055 C 
DOCKED: ATOM     16  C   UNL d   1      44.134  14.925  23.296 +0.09 +0.00    +0.026 C 
DOCKED: ATOM     17  C   UNL d   1      41.120  13.846  24.594 -0.17 -0.01    +0.109 A 
DOCKED: ATOM     18  C   UNL d   1      38.598  11.729  19.148 -0.15 +0.00    +0.050 C 
DOCKED: ATOM     19  C   UNL d   1      37.600  12.579  19.687 -0.09 +0.00    +0.045 A 
DOCKED: ATOM     20  C   UNL d   1      38.749  14.114  25.096 -0.22 -0.01    +0.045 A 
DOCKED: ATOM     21  C   UNL d   1      40.016  14.133  25.522 -0.20 -0.01    +0.057 C 
DOCKED: ATOM     22  C   UNL d   1      36.468  14.236  25.136 -0.21 +0.01    -0.019 A 
DOCKED: ATOM     23  C   UNL d   1      36.905  13.952  23.754 -0.20 -0.01    +0.045 A 
DOCKED: ATOM     24  C   UNL d   1      37.564  14.333  25.925 -0.20 +0.01    -0.022 A 
DOCKED: ATOM     25  C   UNL d   1      36.443  13.579  21.355 -0.17 -0.01    +0.049 A 
DOCKED: ATOM     26  C   UNL d   1      36.545  13.259  19.097 -0.18 -0.00    -0.018 A 
DOCKED: ATOM     27  C   UNL d   1      35.830  13.904  20.153 -0.24 +0.00    +0.003 A 
DOCKED: ATOM     28  C   UNL d   1      36.077  13.814  22.708 -0.20 -0.01    +0.052 C 
DOCKED: ATOM     29  C   UNL d   1      37.640  14.619  27.386 -0.17 -0.01    +0.046 C 
DOCKED: ATOM     30  C   UNL d   1      36.221  13.309  17.642 -0.24 +0.01    +0.046 C 
DOCKED: ATOM     31  H   UNL d   1      38.901  13.794  23.040 -0.42 -0.08    +0.166 HD
DOCKED: ATOM     32  H   UNL d   1      38.188  12.404  21.709 -0.07 -0.03    +0.166 HD
DOCKED: ENDROOT
DOCKED: BRANCH   7  33
DOCKED: ATOM     33  C   UNL d   1      41.180  11.095  17.462 -0.07 +0.01    +0.141 C 
DOCKED: BRANCH  33  34
DOCKED: ATOM     34  C   UNL d   1      42.181  10.175  16.815 -0.01 +0.03    +0.306 C 
DOCKED: ATOM     35  O   UNL d   1      41.929   9.143  16.217 -0.00 -0.02    -0.251 OA
DOCKED: BRANCH  34  36
DOCKED: ATOM     36  O   UNL d   1      43.447  10.607  16.955 +0.00 -0.05    -0.481 OA
DOCKED: ATOM     37  H   UNL d   1      43.697  10.346  17.867 +0.02 +0.03    +0.295 HD
DOCKED: ENDBRANCH  34  36
DOCKED: ENDBRANCH  33  34
DOCKED: ENDBRANCH   7  33
DOCKED: BRANCH  27  38
DOCKED: ATOM     38  C   UNL d   1      34.654  14.704  19.984 -0.29 +0.00    +0.017 C 
DOCKED: ATOM     39  C   UNL d   1      33.478  14.492  20.595 -0.15 +0.02    +0.092 C 
DOCKED: BRANCH  39  40
DOCKED: ATOM     40  C   UNL d   1      32.354  15.398  20.349 -0.14 +0.20    +0.330 C 
DOCKED: ATOM     41  O   UNL d   1      31.913  15.761  19.275 -0.16 -0.25    -0.246 OA
DOCKED: BRANCH  40  42
DOCKED: ATOM     42  O   UNL d   1      31.823  15.802  21.513 -0.13 -0.28    -0.477 OA
DOCKED: ATOM     43  H   UNL d   1      32.540  15.650  22.163 +0.12 +0.08    +0.295 HD
DOCKED: ENDBRANCH  40  42
DOCKED: ENDBRANCH  39  40
DOCKED: ENDBRANCH  27  38
DOCKED: BRANCH   8  44
DOCKED: ATOM     44  C   UNL d   1      44.440  12.650  24.355 -0.03 +0.01    +0.141 C 
DOCKED: BRANCH  44  45
DOCKED: ATOM     45  C   UNL d   1      43.906  11.769  25.453 -0.00 +0.01    +0.306 C 
DOCKED: ATOM     46  O   UNL d   1      43.146  10.825  25.323 -0.00 -0.01    -0.251 OA
DOCKED: BRANCH  45  47
DOCKED: ATOM     47  O   UNL d   1      44.339  12.143  26.670 +0.00 -0.02    -0.481 OA
DOCKED: ATOM     48  H   UNL d   1      43.966  13.041  26.801 +0.01 +0.01    +0.295 HD
DOCKED: ENDBRANCH  45  47
DOCKED: ENDBRANCH  44  45
DOCKED: ENDBRANCH   8  44
DOCKED: BRANCH  22  49
DOCKED: ATOM     49  C   UNL d   1      35.034  14.372  25.555 -0.21 -0.02    +0.048 C 
DOCKED: BRANCH  49  50
DOCKED: ATOM     50  C   UNL d   1      34.481  15.764  25.251 -0.27 -0.07    +0.125 C 
DOCKED: BRANCH  50  51
DOCKED: ATOM     51  C   UNL d   1      33.390  15.695  24.221 -0.22 -0.04    +0.305 C 
DOCKED: ATOM     52  O   UNL d   1      32.901  14.697  23.722 -0.07 +0.00    -0.251 OA
DOCKED: BRANCH  51  53
DOCKED: ATOM     53  O   UNL d   1      32.965  16.921  23.854 -0.40 -0.04    -0.481 OA
DOCKED: ATOM     54  H   UNL d   1      32.111  16.752  23.404 +0.13 +0.05    +0.295 HD
DOCKED: ENDBRANCH  51  53
DOCKED: ENDBRANCH  50  51
DOCKED: ENDBRANCH  49  50
DOCKED: ENDBRANCH  22  49
DOCKED: TORSDOF 13
DOCKED: TER
DOCKED: ENDMDL
________________________________________________________________________________


	BEGINNING GENETIC ALGORITHM DOCKING 79 of 100
Run: 79 Seed: 1602066697 2056817462 [ Run 79 of 100 GA/GALS ]
Beginning LAMARCKIAN GENETIC ALGORITHM (LGA), with a maximum of 25000000 energy evaluations.

Final-Value: -10.911


	FINAL GENETIC ALGORITHM DOCKED STATE
	_______________________________________________


Detailed state:  trans 21.375 53.883 0.896 quatxyzw 0.484297 0.467751 -0.483813 0.559097 center 0.153 0.018 -0.028 ntor 13 97.4611 148.5499 -82.6661 32.9189 180.0000 -31.6725 -39.9163 82.1100 108.7420 30.9867 -81.4692 4.6997 -15.0327
State:	 21.375  53.883   0.896   0.584  0.564 -0.584 112.013     97.46  148.55  -82.67   32.92  180.00  -31.67  -39.92   82.11  108.74   30.99  -81.47    4.70  -15.03

DOCKED: MODEL       79
DOCKED: USER    Run = 79
DOCKED: USER    DPF = D:/Protein_go_brrr/autodock/final/6BB5/heme/dock.dpf
DOCKED: USER  
DOCKED: USER    Estimated Free Energy of Binding    =   -3.22 kcal/mol  [=(1)+(2)+(3)-(4)]
DOCKED: USER    Estimated Inhibition Constant, Ki   =    4.38 mM (millimolar)  [Temperature = 298.15 K]
DOCKED: USER    
DOCKED: USER    (1) Final Intermolecular Energy     =   -7.10 kcal/mol
DOCKED: USER        vdW + Hbond + desolv Energy     =   -7.03 kcal/mol
DOCKED: USER        Electrostatic Energy            =   -0.07 kcal/mol
DOCKED: USER    (2) Final Total Internal Energy     =   -3.82 kcal/mol
DOCKED: USER    (3) Torsional Free Energy           =   +3.88 kcal/mol
DOCKED: USER    (4) Unbound System's Energy  [=(2)] =   -3.82 kcal/mol
DOCKED: USER    
DOCKED: USER    
DOCKED: USER    NEWDPF move heme_opt.pdbqt
DOCKED: USER    NEWDPF about 0.153000 0.018000 -0.028000
DOCKED: USER    NEWDPF tran0 21.375363 53.883475 0.896198
DOCKED: USER    NEWDPF quaternion0 0.484297 0.467751 -0.483813 0.559097
DOCKED: USER    NEWDPF axisangle0 0.584123 0.564166 -0.583539 112.013224
DOCKED: USER    NEWDPF quat0 0.584123 0.564166 -0.583539 112.013224
DOCKED: USER    NEWDPF dihe0 97.46 148.55 -82.67 32.92 180.00 -31.67 -39.92 82.11 108.74 30.99 -81.47 4.70 -15.03 
DOCKED: USER  keepresnum = 1 
DOCKED: USER  
DOCKED: REMARK  13 active torsions:
DOCKED: REMARK  status: ('A' for Active; 'I' for Inactive)
DOCKED: REMARK    1  A    between atoms: O_3  and  C_38 
DOCKED: REMARK    2  A    between atoms: O_4  and  C_40 
DOCKED: REMARK    3  A    between atoms: O_7  and  C_46 
DOCKED: REMARK    4  A    between atoms: O_9  and  C_48 
DOCKED: REMARK    5  A    between atoms: C_15  and  C_20 
DOCKED: REMARK    6  A    between atoms: C_16  and  C_23 
DOCKED: REMARK    7  A    between atoms: C_20  and  C_38 
DOCKED: REMARK    8  A    between atoms: C_23  and  C_40 
DOCKED: REMARK    9  A    between atoms: C_32  and  C_41 
DOCKED: REMARK   10  A    between atoms: C_37  and  C_45 
DOCKED: REMARK   11  A    between atoms: C_41  and  C_44 
DOCKED: REMARK   12  A    between atoms: C_44  and  C_46 
DOCKED: REMARK   13  A    between atoms: C_47  and  C_48 
DOCKED: USER                              x       y       z     vdW  Elec       q    Type
DOCKED: USER                           _______ _______ _______ _____ _____    ______ ____
DOCKED: ROOT
DOCKED: ATOM      1  O   UNL d   1      20.055  48.469  -1.028 -0.17 +0.09    -0.289 OA
DOCKED: ATOM      2  O   UNL d   1      23.117  50.798   5.422 -0.11 -0.01    -0.289 OA
DOCKED: ATOM      3  N   UNL d   1      20.776  51.781  -0.391 -0.12 +0.05    -0.247 NA
DOCKED: ATOM      4  N   UNL d   1      21.648  51.757   2.450 -0.13 +0.05    -0.247 NA
DOCKED: ATOM      5  N   UNL d   1      21.393  54.620   2.457 -0.03 +0.10    -0.354 N 
DOCKED: ATOM      6  N   UNL d   1      20.470  54.635  -0.484 -0.07 +0.07    -0.354 N 
DOCKED: ATOM      7  C   UNL d   1      19.638  50.576  -2.196 -0.17 -0.02    +0.084 A 
DOCKED: ATOM      8  C   UNL d   1      22.597  49.675   3.310 -0.15 +0.00    +0.084 A 
DOCKED: ATOM      9  C   UNL d   1      21.911  50.434   2.169 -0.17 -0.00    +0.058 A 
DOCKED: ATOM     10  C   UNL d   1      20.110  51.905  -1.598 -0.16 -0.01    +0.058 A 
DOCKED: ATOM     11  C   UNL d   1      20.172  49.678  -1.121 -0.18 -0.05    +0.193 A 
DOCKED: ATOM     12  C   UNL d   1      20.863  50.525  -0.097 -0.19 -0.02    +0.109 A 
DOCKED: ATOM     13  C   UNL d   1      22.641  50.801   4.303 -0.12 +0.00    +0.193 A 
DOCKED: ATOM     14  C   UNL d   1      18.111  50.466  -2.219 -0.29 -0.01    +0.026 C 
DOCKED: ATOM     15  C   UNL d   1      21.552  49.845   1.018 -0.22 -0.00    +0.055 C 
DOCKED: ATOM     16  C   UNL d   1      24.032  49.281   2.948 -0.12 +0.00    +0.026 C 
DOCKED: ATOM     17  C   UNL d   1      22.029  52.004   3.662 -0.20 -0.01    +0.109 A 
DOCKED: ATOM     18  C   UNL d   1      19.955  53.067  -2.260 -0.13 -0.00    +0.050 C 
DOCKED: ATOM     19  C   UNL d   1      20.433  54.330  -1.826 -0.11 -0.00    +0.045 A 
DOCKED: ATOM     20  C   UNL d   1      21.581  54.397   3.796 -0.20 -0.00    +0.045 A 
DOCKED: ATOM     21  C   UNL d   1      21.895  53.257   4.420 -0.20 -0.00    +0.057 C 
DOCKED: ATOM     22  C   UNL d   1      21.073  56.602   3.480 -0.05 +0.00    -0.019 A 
DOCKED: ATOM     23  C   UNL d   1      21.081  55.922   2.168 -0.14 -0.01    +0.045 A 
DOCKED: ATOM     24  C   UNL d   1      21.371  55.694   4.439 -0.15 +0.00    -0.022 A 
DOCKED: ATOM     25  C   UNL d   1      20.878  55.935  -0.295 -0.11 -0.01    +0.049 A 
DOCKED: ATOM     26  C   UNL d   1      20.864  55.447  -2.525 -0.04 +0.00    -0.018 A 
DOCKED: ATOM     27  C   UNL d   1      21.162  56.451  -1.552 -0.04 -0.00    +0.003 A 
DOCKED: ATOM     28  C   UNL d   1      20.846  56.530   0.995 -0.14 -0.01    +0.052 C 
DOCKED: ATOM     29  C   UNL d   1      21.495  55.898   5.911 -0.15 -0.00    +0.046 C 
DOCKED: ATOM     30  C   UNL d   1      20.993  55.576  -4.005 -0.01 -0.00    +0.046 C 
DOCKED: ATOM     31  H   UNL d   1      21.556  53.889   1.774 -0.34 -0.06    +0.166 HD
DOCKED: ATOM     32  H   UNL d   1      20.190  53.990   0.245 -0.54 -0.08    +0.166 HD
DOCKED: ENDROOT
DOCKED: BRANCH   7  33
DOCKED: ATOM     33  C   UNL d   1      20.249  50.212  -3.553 -0.07 -0.02    +0.141 C 
DOCKED: BRANCH  33  34
DOCKED: ATOM     34  C   UNL d   1      20.221  48.732  -3.823 -0.07 -0.05    +0.306 C 
DOCKED: ATOM     35  O   UNL d   1      21.177  48.035  -4.119 -0.06 +0.02    -0.251 OA
DOCKED: BRANCH  34  36
DOCKED: ATOM     36  O   UNL d   1      18.989  48.206  -3.703 -0.05 +0.14    -0.481 OA
DOCKED: ATOM     37  H   UNL d   1      18.895  48.014  -2.746 -0.25 -0.21    +0.295 HD
DOCKED: ENDBRANCH  34  36
DOCKED: ENDBRANCH  33  34
DOCKED: ENDBRANCH   7  33
DOCKED: BRANCH  27  38
DOCKED: ATOM     38  C   UNL d   1      21.626  57.773  -1.847 -0.02 -0.00    +0.017 C 
DOCKED: ATOM     39  C   UNL d   1      22.584  58.426  -1.171 -0.01 -0.00    +0.092 C 
DOCKED: BRANCH  39  40
DOCKED: ATOM     40  C   UNL d   1      22.981  59.774  -1.587 -0.00 -0.01    +0.330 C 
DOCKED: ATOM     41  O   UNL d   1      23.018  60.223  -2.716 +0.00 +0.01    -0.246 OA
DOCKED: BRANCH  40  42
DOCKED: ATOM     42  O   UNL d   1      23.312  60.509  -0.514 +0.00 +0.01    -0.477 OA
DOCKED: ATOM     43  H   UNL d   1      22.738  60.158   0.198 +0.00 -0.01    +0.295 HD
DOCKED: ENDBRANCH  40  42
DOCKED: ENDBRANCH  39  40
DOCKED: ENDBRANCH  27  38
DOCKED: BRANCH   8  44
DOCKED: ATOM     44  C   UNL d   1      21.818  48.480   3.870 -0.32 +0.00    +0.141 C 
DOCKED: BRANCH  44  45
DOCKED: ATOM     45  C   UNL d   1      20.352  48.513   3.529 -0.36 -0.01    +0.306 C 
DOCKED: ATOM     46  O   UNL d   1      19.480  49.115   4.130 -0.49 +0.02    -0.251 OA
DOCKED: BRANCH  45  47
DOCKED: ATOM     47  O   UNL d   1      20.056  47.759   2.455 -0.37 +0.01    -0.481 OA
DOCKED: ATOM     48  H   UNL d   1      19.750  46.905   2.829 +0.07 -0.03    +0.295 HD
DOCKED: ENDBRANCH  45  47
DOCKED: ENDBRANCH  44  45
DOCKED: ENDBRANCH   8  44
DOCKED: BRANCH  22  49
DOCKED: ATOM     49  C   UNL d   1      20.762  58.057   3.672 -0.07 -0.00    +0.048 C 
DOCKED: BRANCH  49  50
DOCKED: ATOM     50  C   UNL d   1      22.033  58.897   3.801 -0.02 -0.01    +0.125 C 
DOCKED: BRANCH  50  51
DOCKED: ATOM     51  C   UNL d   1      22.368  59.566   2.498 -0.00 -0.02    +0.305 C 
DOCKED: ATOM     52  O   UNL d   1      21.829  60.539   2.002 -0.00 +0.01    -0.251 OA
DOCKED: BRANCH  51  53
DOCKED: ATOM     53  O   UNL d   1      23.385  58.950   1.862 +0.00 +0.02    -0.481 OA
DOCKED: ATOM     54  H   UNL d   1      23.847  59.676   1.393 +0.00 -0.01    +0.295 HD
DOCKED: ENDBRANCH  51  53
DOCKED: ENDBRANCH  50  51
DOCKED: ENDBRANCH  49  50
DOCKED: ENDBRANCH  22  49
DOCKED: TORSDOF 13
DOCKED: TER
DOCKED: ENDMDL
________________________________________________________________________________


	BEGINNING GENETIC ALGORITHM DOCKING 80 of 100
Run: 80 Seed: 653459368 645849741 [ Run 80 of 100 GA/GALS ]
Beginning LAMARCKIAN GENETIC ALGORITHM (LGA), with a maximum of 25000000 energy evaluations.

Final-Value: -9.889


	FINAL GENETIC ALGORITHM DOCKED STATE
	_______________________________________________


Detailed state:  trans 38.888 13.485 21.988 quatxyzw 0.484692 -0.081865 -0.000593 -0.870846 center 0.153 0.018 -0.028 ntor 13 -147.1780 30.9326 -145.2033 160.7176 -139.8109 -70.6754 129.8081 93.9250 116.0479 -13.2481 -179.8966 -12.3889 -3.8698
State:	 38.888  13.485  21.988   0.986 -0.167 -0.001 -58.886   -147.18   30.93 -145.20  160.72 -139.81  -70.68  129.81   93.93  116.05  -13.25 -179.90  -12.39   -3.87

DOCKED: MODEL       80
DOCKED: USER    Run = 80
DOCKED: USER    DPF = D:/Protein_go_brrr/autodock/final/6BB5/heme/dock.dpf
DOCKED: USER  
DOCKED: USER    Estimated Free Energy of Binding    =   -3.92 kcal/mol  [=(1)+(2)+(3)-(4)]
DOCKED: USER    Estimated Inhibition Constant, Ki   =    1.34 mM (millimolar)  [Temperature = 298.15 K]
DOCKED: USER    
DOCKED: USER    (1) Final Intermolecular Energy     =   -7.80 kcal/mol
DOCKED: USER        vdW + Hbond + desolv Energy     =   -7.40 kcal/mol
DOCKED: USER        Electrostatic Energy            =   -0.40 kcal/mol
DOCKED: USER    (2) Final Total Internal Energy     =   -2.09 kcal/mol
DOCKED: USER    (3) Torsional Free Energy           =   +3.88 kcal/mol
DOCKED: USER    (4) Unbound System's Energy  [=(2)] =   -2.09 kcal/mol
DOCKED: USER    
DOCKED: USER    
DOCKED: USER    NEWDPF move heme_opt.pdbqt
DOCKED: USER    NEWDPF about 0.153000 0.018000 -0.028000
DOCKED: USER    NEWDPF tran0 38.887865 13.485111 21.988176
DOCKED: USER    NEWDPF quaternion0 0.484692 -0.081865 -0.000593 -0.870846
DOCKED: USER    NEWDPF axisangle0 0.986034 -0.166542 -0.001207 -58.885916
DOCKED: USER    NEWDPF quat0 0.986034 -0.166542 -0.001207 -58.885916
DOCKED: USER    NEWDPF dihe0 -147.18 30.93 -145.20 160.72 -139.81 -70.68 129.81 93.93 116.05 -13.25 -179.90 -12.39 -3.87 
DOCKED: USER  keepresnum = 1 
DOCKED: USER  
DOCKED: REMARK  13 active torsions:
DOCKED: REMARK  status: ('A' for Active; 'I' for Inactive)
DOCKED: REMARK    1  A    between atoms: O_3  and  C_38 
DOCKED: REMARK    2  A    between atoms: O_4  and  C_40 
DOCKED: REMARK    3  A    between atoms: O_7  and  C_46 
DOCKED: REMARK    4  A    between atoms: O_9  and  C_48 
DOCKED: REMARK    5  A    between atoms: C_15  and  C_20 
DOCKED: REMARK    6  A    between atoms: C_16  and  C_23 
DOCKED: REMARK    7  A    between atoms: C_20  and  C_38 
DOCKED: REMARK    8  A    between atoms: C_23  and  C_40 
DOCKED: REMARK    9  A    between atoms: C_32  and  C_41 
DOCKED: REMARK   10  A    between atoms: C_37  and  C_45 
DOCKED: REMARK   11  A    between atoms: C_41  and  C_44 
DOCKED: REMARK   12  A    between atoms: C_44  and  C_46 
DOCKED: REMARK   13  A    between atoms: C_47  and  C_48 
DOCKED: USER                              x       y       z     vdW  Elec       q    Type
DOCKED: USER                           _______ _______ _______ _____ _____    ______ ____
DOCKED: ROOT
DOCKED: ATOM      1  O   UNL d   1      33.127  14.285  22.952 -0.04 -0.02    -0.289 OA
DOCKED: ATOM      2  O   UNL d   1      36.872  12.462  16.704 -0.09 -0.04    -0.289 OA
DOCKED: ATOM      3  N   UNL d   1      36.566  14.057  22.835 -0.14 +0.07    -0.247 NA
DOCKED: ATOM      4  N   UNL d   1      37.089  13.010  20.104 -0.13 +0.01    -0.247 NA
DOCKED: ATOM      5  N   UNL d   1      39.786  12.457  20.932 -0.04 +0.04    -0.354 N 
DOCKED: ATOM      6  N   UNL d   1      39.230  13.527  23.769 -0.03 +0.09    -0.354 N 
DOCKED: ATOM      7  C   UNL d   1      34.917  14.414  24.612 -0.17 -0.02    +0.084 A 
DOCKED: ATOM      8  C   UNL d   1      35.415  13.481  18.387 -0.17 +0.01    +0.084 A 
DOCKED: ATOM      9  C   UNL d   1      35.846  13.547  19.856 -0.19 +0.00    +0.058 A 
DOCKED: ATOM     10  C   UNL d   1      36.381  14.258  24.193 -0.20 -0.02    +0.058 A 
DOCKED: ATOM     11  C   UNL d   1      34.308  14.286  23.248 -0.08 -0.02    +0.193 A 
DOCKED: ATOM     12  C   UNL d   1      35.412  14.099  22.254 -0.15 -0.01    +0.109 A 
DOCKED: ATOM     13  C   UNL d   1      36.628  12.772  17.854 -0.11 +0.02    +0.193 A 
DOCKED: ATOM     14  C   UNL d   1      34.439  13.247  25.480 -0.07 -0.01    +0.026 C 
DOCKED: ATOM     15  C   UNL d   1      35.056  14.041  20.822 -0.20 +0.00    +0.055 C 
DOCKED: ATOM     16  C   UNL d   1      35.340  14.873  17.753 -0.45 +0.00    +0.026 C 
DOCKED: ATOM     17  C   UNL d   1      37.563  12.538  18.996 -0.05 +0.01    +0.109 A 
DOCKED: ATOM     18  C   UNL d   1      37.385  14.399  25.078 -0.26 -0.02    +0.050 C 
DOCKED: ATOM     19  C   UNL d   1      38.768  14.354  24.768 -0.27 -0.01    +0.045 A 
DOCKED: ATOM     20  C   UNL d   1      39.775  11.814  19.722 -0.15 +0.00    +0.045 A 
DOCKED: ATOM     21  C   UNL d   1      38.827  11.818  18.780 -0.12 +0.01    +0.057 C 
DOCKED: ATOM     22  C   UNL d   1      41.738  11.341  20.791 -0.10 -0.00    -0.019 A 
DOCKED: ATOM     23  C   UNL d   1      40.930  12.230  21.650 -0.15 -0.00    +0.045 A 
DOCKED: ATOM     24  C   UNL d   1      41.049  11.100  19.650 -0.10 -0.00    -0.022 A 
DOCKED: ATOM     25  C   UNL d   1      40.603  13.573  23.699 -0.16 -0.01    +0.049 A 
DOCKED: ATOM     26  C   UNL d   1      39.866  14.982  25.337 -0.30 +0.00    -0.018 A 
DOCKED: ATOM     27  C   UNL d   1      41.020  14.500  24.645 -0.23 -0.00    +0.003 A 
DOCKED: ATOM     28  C   UNL d   1      41.320  12.688  22.850 -0.18 -0.00    +0.052 C 
DOCKED: ATOM     29  C   UNL d   1      41.450  10.273  18.476 -0.05 +0.00    +0.046 C 
DOCKED: ATOM     30  C   UNL d   1      39.846  15.970  26.453 -0.35 -0.01    +0.046 C 
DOCKED: ATOM     31  H   UNL d   1      39.040  13.091  21.198 -0.39 -0.08    +0.166 HD
DOCKED: ATOM     32  H   UNL d   1      38.627  12.942  23.203 -0.06 -0.04    +0.166 HD
DOCKED: ENDROOT
DOCKED: BRANCH   7  33
DOCKED: ATOM     33  C   UNL d   1      34.554  15.765  25.238 -0.25 -0.08    +0.141 C 
DOCKED: BRANCH  33  34
DOCKED: ATOM     34  C   UNL d   1      33.069  16.010  25.267 -0.21 -0.13    +0.306 C 
DOCKED: ATOM     35  O   UNL d   1      32.399  16.483  24.365 -0.38 +0.02    -0.251 OA
DOCKED: BRANCH  34  36
DOCKED: ATOM     36  O   UNL d   1      32.506  15.642  26.432 -0.13 +0.36    -0.481 OA
DOCKED: ATOM     37  H   UNL d   1      33.212  15.775  27.100 -0.43 -0.53    +0.295 HD
DOCKED: ENDBRANCH  34  36
DOCKED: ENDBRANCH  33  34
DOCKED: ENDBRANCH   7  33
DOCKED: BRANCH  27  38
DOCKED: ATOM     38  C   UNL d   1      42.370  14.882  24.927 -0.19 -0.00    +0.017 C 
DOCKED: ATOM     39  C   UNL d   1      43.389  14.828  24.055 -0.11 +0.01    +0.092 C 
DOCKED: BRANCH  39  40
DOCKED: ATOM     40  C   UNL d   1      44.725  15.267  24.465 -0.07 +0.03    +0.330 C 
DOCKED: ATOM     41  O   UNL d   1      45.109  16.405  24.655 -0.10 -0.02    -0.246 OA
DOCKED: BRANCH  40  42
DOCKED: ATOM     42  O   UNL d   1      45.530  14.205  24.629 -0.00 -0.04    -0.477 OA
DOCKED: ATOM     43  H   UNL d   1      46.150  14.486  25.332 +0.02 +0.02    +0.295 HD
DOCKED: ENDBRANCH  40  42
DOCKED: ENDBRANCH  39  40
DOCKED: ENDBRANCH  27  38
DOCKED: BRANCH   8  44
DOCKED: ATOM     44  C   UNL d   1      34.142  12.675  18.108 -0.07 +0.03    +0.141 C 
DOCKED: BRANCH  44  45
DOCKED: ATOM     45  C   UNL d   1      34.272  11.218  18.462 -0.00 +0.04    +0.306 C 
DOCKED: ATOM     46  O   UNL d   1      34.085  10.717  19.557 -0.00 -0.03    -0.251 OA
DOCKED: BRANCH  45  47
DOCKED: ATOM     47  O   UNL d   1      34.659  10.466  17.416 +0.01 -0.05    -0.481 OA
DOCKED: ATOM     48  H   UNL d   1      35.259  11.047  16.901 +0.04 +0.03    +0.295 HD
DOCKED: ENDBRANCH  45  47
DOCKED: ENDBRANCH  44  45
DOCKED: ENDBRANCH   8  44
DOCKED: BRANCH  22  49
DOCKED: ATOM     49  C   UNL d   1      43.087  10.803  21.167 -0.04 +0.00    +0.048 C 
DOCKED: BRANCH  49  50
DOCKED: ATOM     50  C   UNL d   1      44.211  11.762  20.774 -0.04 +0.01    +0.125 C 
DOCKED: BRANCH  50  51
DOCKED: ATOM     51  C   UNL d   1      43.658  13.004  20.134 -0.10 +0.04    +0.305 C 
DOCKED: ATOM     52  O   UNL d   1      43.291  14.025  20.687 -0.17 -0.04    -0.251 OA
DOCKED: BRANCH  51  53
DOCKED: ATOM     53  O   UNL d   1      43.581  12.888  18.793 -0.03 -0.07    -0.481 OA
DOCKED: ATOM     54  H   UNL d   1      44.200  12.157  18.581 +0.04 +0.04    +0.295 HD
DOCKED: ENDBRANCH  51  53
DOCKED: ENDBRANCH  50  51
DOCKED: ENDBRANCH  49  50
DOCKED: ENDBRANCH  22  49
DOCKED: TORSDOF 13
DOCKED: TER
DOCKED: ENDMDL
________________________________________________________________________________


	BEGINNING GENETIC ALGORITHM DOCKING 81 of 100
Run: 81 Seed: 1959697136 1586757992 [ Run 81 of 100 GA/GALS ]
Beginning LAMARCKIAN GENETIC ALGORITHM (LGA), with a maximum of 25000000 energy evaluations.

Final-Value: -11.343


	FINAL GENETIC ALGORITHM DOCKED STATE
	_______________________________________________


Detailed state:  trans 0.049 31.927 7.260 quatxyzw 0.012248 -0.728893 -0.125214 0.672968 center 0.153 0.018 -0.028 ntor 13 121.4672 51.9281 96.8834 80.7311 -134.0179 -156.8241 -44.2552 -36.3435 22.6512 -125.9802 99.5980 -57.4995 174.3678
State:	  0.049  31.927   7.260   0.017 -0.985 -0.169 95.407    121.47   51.93   96.88   80.73 -134.02 -156.82  -44.26  -36.34   22.65 -125.98   99.60  -57.50  174.37

DOCKED: MODEL       81
DOCKED: USER    Run = 81
DOCKED: USER    DPF = D:/Protein_go_brrr/autodock/final/6BB5/heme/dock.dpf
DOCKED: USER  
DOCKED: USER    Estimated Free Energy of Binding    =   -4.80 kcal/mol  [=(1)+(2)+(3)-(4)]
DOCKED: USER    Estimated Inhibition Constant, Ki   =  304.26 uM (micromolar)  [Temperature = 298.15 K]
DOCKED: USER    
DOCKED: USER    (1) Final Intermolecular Energy     =   -8.68 kcal/mol
DOCKED: USER        vdW + Hbond + desolv Energy     =   -8.55 kcal/mol
DOCKED: USER        Electrostatic Energy            =   -0.12 kcal/mol
DOCKED: USER    (2) Final Total Internal Energy     =   -2.67 kcal/mol
DOCKED: USER    (3) Torsional Free Energy           =   +3.88 kcal/mol
DOCKED: USER    (4) Unbound System's Energy  [=(2)] =   -2.67 kcal/mol
DOCKED: USER    
DOCKED: USER    
DOCKED: USER    NEWDPF move heme_opt.pdbqt
DOCKED: USER    NEWDPF about 0.153000 0.018000 -0.028000
DOCKED: USER    NEWDPF tran0 0.049482 31.927333 7.260210
DOCKED: USER    NEWDPF quaternion0 0.012248 -0.728893 -0.125214 0.672968
DOCKED: USER    NEWDPF axisangle0 0.016558 -0.985428 -0.169284 95.406870
DOCKED: USER    NEWDPF quat0 0.016558 -0.985428 -0.169284 95.406870
DOCKED: USER    NEWDPF dihe0 121.47 51.93 96.88 80.73 -134.02 -156.82 -44.26 -36.34 22.65 -125.98 99.60 -57.50 174.37 
DOCKED: USER  keepresnum = 1 
DOCKED: USER  
DOCKED: REMARK  13 active torsions:
DOCKED: REMARK  status: ('A' for Active; 'I' for Inactive)
DOCKED: REMARK    1  A    between atoms: O_3  and  C_38 
DOCKED: REMARK    2  A    between atoms: O_4  and  C_40 
DOCKED: REMARK    3  A    between atoms: O_7  and  C_46 
DOCKED: REMARK    4  A    between atoms: O_9  and  C_48 
DOCKED: REMARK    5  A    between atoms: C_15  and  C_20 
DOCKED: REMARK    6  A    between atoms: C_16  and  C_23 
DOCKED: REMARK    7  A    between atoms: C_20  and  C_38 
DOCKED: REMARK    8  A    between atoms: C_23  and  C_40 
DOCKED: REMARK    9  A    between atoms: C_32  and  C_41 
DOCKED: REMARK   10  A    between atoms: C_37  and  C_45 
DOCKED: REMARK   11  A    between atoms: C_41  and  C_44 
DOCKED: REMARK   12  A    between atoms: C_44  and  C_46 
DOCKED: REMARK   13  A    between atoms: C_47  and  C_48 
DOCKED: USER                              x       y       z     vdW  Elec       q    Type
DOCKED: USER                           _______ _______ _______ _____ _____    ______ ____
DOCKED: ROOT
DOCKED: ATOM      1  O   UNL d   1       0.895  32.846  13.022 -0.19 -0.01    -0.289 OA
DOCKED: ATOM      2  O   UNL d   1      -0.342  26.520   9.170 -0.16 +0.22    -0.289 OA
DOCKED: ATOM      3  N   UNL d   1       0.315  32.813   9.622 -0.07 -0.01    -0.247 NA
DOCKED: ATOM      4  N   UNL d   1       0.247  29.915   8.970 -0.13 +0.06    -0.247 NA
DOCKED: ATOM      5  N   UNL d   1       0.443  30.630   6.192 -0.09 +0.05    -0.354 N 
DOCKED: ATOM      6  N   UNL d   1       0.533  33.634   6.879 -0.17 -0.03    -0.354 N 
DOCKED: ATOM      7  C   UNL d   1       0.942  34.532  11.252 -0.32 -0.00    +0.084 A 
DOCKED: ATOM      8  C   UNL d   1      -0.394  28.380  10.760 -0.16 -0.02    +0.084 A 
DOCKED: ATOM      9  C   UNL d   1      -0.058  29.805  10.308 -0.19 -0.01    +0.058 A 
DOCKED: ATOM     10  C   UNL d   1       0.626  34.150   9.803 -0.24 +0.00    +0.058 A 
DOCKED: ATOM     11  C   UNL d   1       0.736  33.178  11.861 -0.18 +0.00    +0.193 A 
DOCKED: ATOM     12  C   UNL d   1       0.334  32.228  10.776 -0.17 +0.00    +0.109 A 
DOCKED: ATOM     13  C   UNL d   1      -0.188  27.695   9.438 -0.16 -0.08    +0.193 A 
DOCKED: ATOM     14  C   UNL d   1       2.406  34.939  11.433 -0.57 -0.00    +0.026 C 
DOCKED: ATOM     15  C   UNL d   1      -0.014  30.844  11.156 -0.19 -0.00    +0.055 C 
DOCKED: ATOM     16  C   UNL d   1      -1.866  28.244  11.160 -0.05 -0.00    +0.026 C 
DOCKED: ATOM     17  C   UNL d   1       0.205  28.735   8.439 -0.20 -0.05    +0.109 A 
DOCKED: ATOM     18  C   UNL d   1       0.574  35.076   8.827 -0.25 +0.00    +0.050 C 
DOCKED: ATOM     19  C   UNL d   1       0.209  34.830   7.479 -0.34 +0.01    +0.045 A 
DOCKED: ATOM     20  C   UNL d   1       0.629  29.275   6.100 -0.24 -0.02    +0.045 A 
DOCKED: ATOM     21  C   UNL d   1       0.517  28.347   7.056 -0.18 -0.04    +0.057 C 
DOCKED: ATOM     22  C   UNL d   1       0.993  30.211   4.048 -0.17 +0.00    -0.019 A 
DOCKED: ATOM     23  C   UNL d   1       0.641  31.281   5.003 -0.20 -0.00    +0.045 A 
DOCKED: ATOM     24  C   UNL d   1       0.983  29.026   4.703 -0.22 +0.01    -0.022 A 
DOCKED: ATOM     25  C   UNL d   1       0.167  33.644   5.553 -0.25 +0.01    +0.049 A 
DOCKED: ATOM     26  C   UNL d   1      -0.415  35.623   6.529 -0.29 -0.00    -0.018 A 
DOCKED: ATOM     27  C   UNL d   1      -0.457  34.862   5.320 -0.21 +0.00    +0.003 A 
DOCKED: ATOM     28  C   UNL d   1       0.538  32.581   4.686 -0.25 +0.00    +0.052 C 
DOCKED: ATOM     29  C   UNL d   1       1.260  27.662   4.168 -0.25 -0.03    +0.046 C 
DOCKED: ATOM     30  C   UNL d   1      -0.944  37.003   6.730 -0.29 +0.02    +0.046 C 
DOCKED: ATOM     31  H   UNL d   1       0.114  31.059   7.050 +0.06 -0.01    +0.166 HD
DOCKED: ATOM     32  H   UNL d   1       1.011  32.879   7.356 +0.08 +0.02    +0.166 HD
DOCKED: ENDROOT
DOCKED: BRANCH   7  33
DOCKED: ATOM     33  C   UNL d   1      -0.008  35.556  11.884 -0.26 -0.00    +0.141 C 
DOCKED: BRANCH  33  34
DOCKED: ATOM     34  C   UNL d   1      -1.377  34.990  12.148 -0.08 +0.01    +0.306 C 
DOCKED: ATOM     35  O   UNL d   1      -2.267  34.845  11.327 -0.04 -0.02    -0.251 OA
DOCKED: BRANCH  34  36
DOCKED: ATOM     36  O   UNL d   1      -1.552  34.633  13.432 -0.02 +0.02    -0.481 OA
DOCKED: ATOM     37  H   UNL d   1      -0.874  33.942  13.591 +0.07 -0.01    +0.295 HD
DOCKED: ENDBRANCH  34  36
DOCKED: ENDBRANCH  33  34
DOCKED: ENDBRANCH   7  33
DOCKED: BRANCH  27  38
DOCKED: ATOM     38  C   UNL d   1      -1.007  35.315   4.078 -0.15 +0.01    +0.017 C 
DOCKED: ATOM     39  C   UNL d   1      -0.716  34.807   2.871 -0.11 +0.03    +0.092 C 
DOCKED: BRANCH  39  40
DOCKED: ATOM     40  C   UNL d   1      -1.363  35.351   1.675 -0.06 +0.14    +0.330 C 
DOCKED: ATOM     41  O   UNL d   1      -1.497  34.814   0.592 -0.04 -0.07    -0.246 OA
DOCKED: BRANCH  40  42
DOCKED: ATOM     42  O   UNL d   1      -1.832  36.584   1.923 -0.04 -0.28    -0.477 OA
DOCKED: ATOM     43  H   UNL d   1      -2.767  36.542   1.636 +0.03 +0.12    +0.295 HD
DOCKED: ENDBRANCH  40  42
DOCKED: ENDBRANCH  39  40
DOCKED: ENDBRANCH  27  38
DOCKED: BRANCH   8  44
DOCKED: ATOM     44  C   UNL d   1       0.528  27.792  11.833 -0.15 -0.02    +0.141 C 
DOCKED: BRANCH  44  45
DOCKED: ATOM     45  C   UNL d   1       0.217  26.357  12.163 -0.16 -0.08    +0.306 C 
DOCKED: ATOM     46  O   UNL d   1      -0.575  25.959  13.000 -0.08 +0.05    -0.251 OA
DOCKED: BRANCH  45  47
DOCKED: ATOM     47  O   UNL d   1       0.945  25.491  11.435 -0.18 +0.23    -0.481 OA
DOCKED: ATOM     48  H   UNL d   1       0.453  25.401  10.592 +0.12 -0.21    +0.295 HD
DOCKED: ENDBRANCH  45  47
DOCKED: ENDBRANCH  44  45
DOCKED: ENDBRANCH   8  44
DOCKED: BRANCH  22  49
DOCKED: ATOM     49  C   UNL d   1       1.317  30.446   2.602 -0.17 -0.00    +0.048 C 
DOCKED: BRANCH  49  50
DOCKED: ATOM     50  C   UNL d   1       2.814  30.668   2.384 -0.19 -0.00    +0.125 C 
DOCKED: BRANCH  50  51
DOCKED: ATOM     51  C   UNL d   1       3.205  32.074   2.738 -0.23 +0.01    +0.305 C 
DOCKED: ATOM     52  O   UNL d   1       2.607  33.102   2.471 -0.21 -0.03    -0.251 OA
DOCKED: BRANCH  51  53
DOCKED: ATOM     53  O   UNL d   1       4.368  32.118   3.418 -0.18 +0.03    -0.481 OA
DOCKED: ATOM     54  H   UNL d   1       4.093  32.213   4.354 -0.13 -0.10    +0.295 HD
DOCKED: ENDBRANCH  51  53
DOCKED: ENDBRANCH  50  51
DOCKED: ENDBRANCH  49  50
DOCKED: ENDBRANCH  22  49
DOCKED: TORSDOF 13
DOCKED: TER
DOCKED: ENDMDL
________________________________________________________________________________


	BEGINNING GENETIC ALGORITHM DOCKING 82 of 100
Run: 82 Seed: 1597056831 1480003080 [ Run 82 of 100 GA/GALS ]
Beginning LAMARCKIAN GENETIC ALGORITHM (LGA), with a maximum of 25000000 energy evaluations.

Final-Value: -10.241


	FINAL GENETIC ALGORITHM DOCKED STATE
	_______________________________________________


Detailed state:  trans 9.053 54.814 6.941 quatxyzw 0.514321 0.572363 -0.275165 -0.576332 center 0.153 0.018 -0.028 ntor 13 -99.9479 133.1146 -179.8704 -59.4025 31.5486 -74.2454 144.8723 -80.0787 130.4229 -8.8973 -77.4425 33.8747 -179.1381
State:	  9.053  54.814   6.941   0.629  0.700 -0.337 -109.614    -99.95  133.11 -179.87  -59.40   31.55  -74.25  144.87  -80.08  130.42   -8.90  -77.44   33.87 -179.14

DOCKED: MODEL       82
DOCKED: USER    Run = 82
DOCKED: USER    DPF = D:/Protein_go_brrr/autodock/final/6BB5/heme/dock.dpf
DOCKED: USER  
DOCKED: USER    Estimated Free Energy of Binding    =   -3.98 kcal/mol  [=(1)+(2)+(3)-(4)]
DOCKED: USER    Estimated Inhibition Constant, Ki   =    1.21 mM (millimolar)  [Temperature = 298.15 K]
DOCKED: USER    
DOCKED: USER    (1) Final Intermolecular Energy     =   -7.86 kcal/mol
DOCKED: USER        vdW + Hbond + desolv Energy     =   -7.37 kcal/mol
DOCKED: USER        Electrostatic Energy            =   -0.49 kcal/mol
DOCKED: USER    (2) Final Total Internal Energy     =   -2.38 kcal/mol
DOCKED: USER    (3) Torsional Free Energy           =   +3.88 kcal/mol
DOCKED: USER    (4) Unbound System's Energy  [=(2)] =   -2.38 kcal/mol
DOCKED: USER    
DOCKED: USER    
DOCKED: USER    NEWDPF move heme_opt.pdbqt
DOCKED: USER    NEWDPF about 0.153000 0.018000 -0.028000
DOCKED: USER    NEWDPF tran0 9.052714 54.814273 6.941479
DOCKED: USER    NEWDPF quaternion0 0.514321 0.572363 -0.275165 -0.576332
DOCKED: USER    NEWDPF axisangle0 0.629358 0.700381 -0.336710 -109.614062
DOCKED: USER    NEWDPF quat0 0.629358 0.700381 -0.336710 -109.614062
DOCKED: USER    NEWDPF dihe0 -99.95 133.11 -179.87 -59.40 31.55 -74.25 144.87 -80.08 130.42 -8.90 -77.44 33.87 -179.14 
DOCKED: USER  keepresnum = 1 
DOCKED: USER  
DOCKED: REMARK  13 active torsions:
DOCKED: REMARK  status: ('A' for Active; 'I' for Inactive)
DOCKED: REMARK    1  A    between atoms: O_3  and  C_38 
DOCKED: REMARK    2  A    between atoms: O_4  and  C_40 
DOCKED: REMARK    3  A    between atoms: O_7  and  C_46 
DOCKED: REMARK    4  A    between atoms: O_9  and  C_48 
DOCKED: REMARK    5  A    between atoms: C_15  and  C_20 
DOCKED: REMARK    6  A    between atoms: C_16  and  C_23 
DOCKED: REMARK    7  A    between atoms: C_20  and  C_38 
DOCKED: REMARK    8  A    between atoms: C_23  and  C_40 
DOCKED: REMARK    9  A    between atoms: C_32  and  C_41 
DOCKED: REMARK   10  A    between atoms: C_37  and  C_45 
DOCKED: REMARK   11  A    between atoms: C_41  and  C_44 
DOCKED: REMARK   12  A    between atoms: C_44  and  C_46 
DOCKED: REMARK   13  A    between atoms: C_47  and  C_48 
DOCKED: USER                              x       y       z     vdW  Elec       q    Type
DOCKED: USER                           _______ _______ _______ _____ _____    ______ ____
DOCKED: ROOT
DOCKED: ATOM      1  O   UNL d   1       9.742  53.242  12.581 -0.03 +0.05    -0.289 OA
DOCKED: ATOM      2  O   UNL d   1       3.554  53.978   8.391 -0.04 +0.00    -0.289 OA
DOCKED: ATOM      3  N   UNL d   1       9.819  54.335   9.311 -0.11 +0.05    -0.247 NA
DOCKED: ATOM      4  N   UNL d   1       7.005  54.012   8.416 -0.09 +0.06    -0.247 NA
DOCKED: ATOM      5  N   UNL d   1       7.919  54.379   5.715 -0.09 +0.07    -0.354 N 
DOCKED: ATOM      6  N   UNL d   1      10.839  54.694   6.651 -0.14 +0.11    -0.354 N 
DOCKED: ATOM      7  C   UNL d   1      11.517  53.761  10.983 -0.20 -0.03    +0.084 A 
DOCKED: ATOM      8  C   UNL d   1       5.269  54.094  10.134 -0.04 -0.01    +0.084 A 
DOCKED: ATOM      9  C   UNL d   1       6.757  54.080   9.769 -0.09 -0.01    +0.058 A 
DOCKED: ATOM     10  C   UNL d   1      11.177  54.231   9.566 -0.22 -0.02    +0.058 A 
DOCKED: ATOM     11  C   UNL d   1      10.112  53.636  11.490 -0.07 -0.04    +0.193 A 
DOCKED: ATOM     12  C   UNL d   1       9.176  54.036  10.392 -0.10 -0.02    +0.109 A 
DOCKED: ATOM     13  C   UNL d   1       4.718  53.985   8.740 -0.07 -0.01    +0.193 A 
DOCKED: ATOM     14  C   UNL d   1      12.171  52.377  10.988 -0.33 -0.01    +0.026 C 
DOCKED: ATOM     15  C   UNL d   1       7.731  54.081  10.692 -0.09 -0.01    +0.055 C 
DOCKED: ATOM     16  C   UNL d   1       4.843  55.441  10.727 -0.01 -0.00    +0.026 C 
DOCKED: ATOM     17  C   UNL d   1       5.873  53.936   7.793 -0.14 -0.02    +0.109 A 
DOCKED: ATOM     18  C   UNL d   1      12.138  54.592   8.695 -0.15 -0.02    +0.050 C 
DOCKED: ATOM     19  C   UNL d   1      11.916  55.117   7.396 -0.19 -0.01    +0.045 A 
DOCKED: ATOM     20  C   UNL d   1       6.629  53.983   5.475 -0.20 -0.01    +0.045 A 
DOCKED: ATOM     21  C   UNL d   1       5.637  53.784   6.349 -0.13 -0.01    +0.057 C 
DOCKED: ATOM     22  C   UNL d   1       7.744  54.110   3.485 -0.22 +0.00    -0.019 A 
DOCKED: ATOM     23  C   UNL d   1       8.669  54.483   4.574 -0.21 -0.01    +0.045 A 
DOCKED: ATOM     24  C   UNL d   1       6.537  53.816   4.025 -0.15 +0.00    -0.022 A 
DOCKED: ATOM     25  C   UNL d   1      10.867  55.259   5.397 -0.22 -0.02    +0.049 A 
DOCKED: ATOM     26  C   UNL d   1      12.642  56.008   6.621 -0.24 +0.01    -0.018 A 
DOCKED: ATOM     27  C   UNL d   1      11.964  56.109   5.367 -0.21 -0.00    +0.003 A 
DOCKED: ATOM     28  C   UNL d   1       9.946  54.854   4.393 -0.28 -0.02    +0.052 C 
DOCKED: ATOM     29  C   UNL d   1       5.283  53.399   3.335 -0.04 +0.00    +0.046 C 
DOCKED: ATOM     30  C   UNL d   1      13.887  56.725   7.020 -0.25 -0.01    +0.046 C 
DOCKED: ATOM     31  H   UNL d   1       8.225  54.638   6.647 +0.06 -0.04    +0.166 HD
DOCKED: ATOM     32  H   UNL d   1      10.155  54.025   6.984 +0.07 -0.05    +0.166 HD
DOCKED: ENDROOT
DOCKED: BRANCH   7  33
DOCKED: ATOM     33  C   UNL d   1      12.309  54.759  11.834 -0.13 -0.07    +0.141 C 
DOCKED: BRANCH  33  34
DOCKED: ATOM     34  C   UNL d   1      12.570  54.254  13.227 -0.05 -0.15    +0.306 C 
DOCKED: ATOM     35  O   UNL d   1      13.499  53.544  13.574 -0.09 +0.17    -0.251 OA
DOCKED: BRANCH  34  36
DOCKED: ATOM     36  O   UNL d   1      11.647  54.673  14.112 +0.01 +0.13    -0.481 OA
DOCKED: ATOM     37  H   UNL d   1      10.869  54.098  13.947 +0.03 -0.07    +0.295 HD
DOCKED: ENDBRANCH  34  36
DOCKED: ENDBRANCH  33  34
DOCKED: ENDBRANCH   7  33
DOCKED: BRANCH  27  38
DOCKED: ATOM     38  C   UNL d   1      12.388  56.917   4.263 -0.18 -0.01    +0.017 C 
DOCKED: ATOM     39  C   UNL d   1      11.772  58.030   3.837 -0.07 -0.06    +0.092 C 
DOCKED: BRANCH  39  40
DOCKED: ATOM     40  C   UNL d   1      12.320  58.778   2.702 -0.02 -0.24    +0.330 C 
DOCKED: ATOM     41  O   UNL d   1      13.286  59.517   2.695 -0.03 +0.11    -0.246 OA
DOCKED: BRANCH  40  42
DOCKED: ATOM     42  O   UNL d   1      11.597  58.536   1.598 -0.03 +0.45    -0.477 OA
DOCKED: ATOM     43  H   UNL d   1      11.498  57.561   1.591 -0.44 -0.65    +0.295 HD
DOCKED: ENDBRANCH  40  42
DOCKED: ENDBRANCH  39  40
DOCKED: ENDBRANCH  27  38
DOCKED: BRANCH   8  44
DOCKED: ATOM     44  C   UNL d   1       4.791  52.928  11.006 -0.04 -0.00    +0.141 C 
DOCKED: BRANCH  44  45
DOCKED: ATOM     45  C   UNL d   1       5.031  51.581  10.379 -0.08 -0.01    +0.306 C 
DOCKED: ATOM     46  O   UNL d   1       5.937  50.808  10.641 -0.13 +0.01    -0.251 OA
DOCKED: BRANCH  45  47
DOCKED: ATOM     47  O   UNL d   1       4.126  51.286   9.428 -0.06 -0.01    -0.481 OA
DOCKED: ATOM     48  H   UNL d   1       3.524  52.061   9.411 +0.06 +0.01    +0.295 HD
DOCKED: ENDBRANCH  45  47
DOCKED: ENDBRANCH  44  45
DOCKED: ENDBRANCH   8  44
DOCKED: BRANCH  22  49
DOCKED: ATOM     49  C   UNL d   1       8.125  54.062   2.035 -0.26 -0.01    +0.048 C 
DOCKED: BRANCH  49  50
DOCKED: ATOM     50  C   UNL d   1       8.476  52.643   1.586 -0.20 -0.00    +0.125 C 
DOCKED: BRANCH  50  51
DOCKED: ATOM     51  C   UNL d   1       7.353  52.039   0.792 -0.23 +0.02    +0.305 C 
DOCKED: ATOM     52  O   UNL d   1       6.380  51.440   1.218 -0.34 -0.02    -0.251 OA
DOCKED: BRANCH  51  53
DOCKED: ATOM     53  O   UNL d   1       7.522  52.212  -0.534 -0.48 -0.08    -0.481 OA
DOCKED: ATOM     54  H   UNL d   1       7.553  51.300  -0.891 -0.37 +0.01    +0.295 HD
DOCKED: ENDBRANCH  51  53
DOCKED: ENDBRANCH  50  51
DOCKED: ENDBRANCH  49  50
DOCKED: ENDBRANCH  22  49
DOCKED: TORSDOF 13
DOCKED: TER
DOCKED: ENDMDL
________________________________________________________________________________


	BEGINNING GENETIC ALGORITHM DOCKING 83 of 100
Run: 83 Seed: 1267125299 1588539625 [ Run 83 of 100 GA/GALS ]
Beginning LAMARCKIAN GENETIC ALGORITHM (LGA), with a maximum of 25000000 energy evaluations.

Final-Value: -11.333


	FINAL GENETIC ALGORITHM DOCKED STATE
	_______________________________________________


Detailed state:  trans 43.363 49.312 4.374 quatxyzw -0.032276 -0.083870 0.693164 -0.715156 center 0.153 0.018 -0.028 ntor 13 38.4105 180.0000 163.9759 51.7332 -104.4528 102.4262 -50.7245 32.5393 150.3530 -117.8434 -81.8945 -111.6258 5.9326
State:	 43.363  49.312   4.374  -0.046 -0.120  0.992 -88.688     38.41  180.00  163.98   51.73 -104.45  102.43  -50.72   32.54  150.35 -117.84  -81.89 -111.63    5.93

DOCKED: MODEL       83
DOCKED: USER    Run = 83
DOCKED: USER    DPF = D:/Protein_go_brrr/autodock/final/6BB5/heme/dock.dpf
DOCKED: USER  
DOCKED: USER    Estimated Free Energy of Binding    =   -3.71 kcal/mol  [=(1)+(2)+(3)-(4)]
DOCKED: USER    Estimated Inhibition Constant, Ki   =    1.89 mM (millimolar)  [Temperature = 298.15 K]
DOCKED: USER    
DOCKED: USER    (1) Final Intermolecular Energy     =   -7.59 kcal/mol
DOCKED: USER        vdW + Hbond + desolv Energy     =   -7.35 kcal/mol
DOCKED: USER        Electrostatic Energy            =   -0.24 kcal/mol
DOCKED: USER    (2) Final Total Internal Energy     =   -3.74 kcal/mol
DOCKED: USER    (3) Torsional Free Energy           =   +3.88 kcal/mol
DOCKED: USER    (4) Unbound System's Energy  [=(2)] =   -3.74 kcal/mol
DOCKED: USER    
DOCKED: USER    
DOCKED: USER    NEWDPF move heme_opt.pdbqt
DOCKED: USER    NEWDPF about 0.153000 0.018000 -0.028000
DOCKED: USER    NEWDPF tran0 43.363054 49.311650 4.374131
DOCKED: USER    NEWDPF quaternion0 -0.032276 -0.083870 0.693164 -0.715156
DOCKED: USER    NEWDPF axisangle0 -0.046177 -0.119992 0.991700 -88.688086
DOCKED: USER    NEWDPF quat0 -0.046177 -0.119992 0.991700 -88.688086
DOCKED: USER    NEWDPF dihe0 38.41 180.00 163.98 51.73 -104.45 102.43 -50.72 32.54 150.35 -117.84 -81.89 -111.63 5.93 
DOCKED: USER  keepresnum = 1 
DOCKED: USER  
DOCKED: REMARK  13 active torsions:
DOCKED: REMARK  status: ('A' for Active; 'I' for Inactive)
DOCKED: REMARK    1  A    between atoms: O_3  and  C_38 
DOCKED: REMARK    2  A    between atoms: O_4  and  C_40 
DOCKED: REMARK    3  A    between atoms: O_7  and  C_46 
DOCKED: REMARK    4  A    between atoms: O_9  and  C_48 
DOCKED: REMARK    5  A    between atoms: C_15  and  C_20 
DOCKED: REMARK    6  A    between atoms: C_16  and  C_23 
DOCKED: REMARK    7  A    between atoms: C_20  and  C_38 
DOCKED: REMARK    8  A    between atoms: C_23  and  C_40 
DOCKED: REMARK    9  A    between atoms: C_32  and  C_41 
DOCKED: REMARK   10  A    between atoms: C_37  and  C_45 
DOCKED: REMARK   11  A    between atoms: C_41  and  C_44 
DOCKED: REMARK   12  A    between atoms: C_44  and  C_46 
DOCKED: REMARK   13  A    between atoms: C_47  and  C_48 
DOCKED: USER                              x       y       z     vdW  Elec       q    Type
DOCKED: USER                           _______ _______ _______ _____ _____    ______ ____
DOCKED: ROOT
DOCKED: ATOM      1  O   UNL d   1      41.451  43.735   4.315 -0.16 -0.03    -0.289 OA
DOCKED: ATOM      2  O   UNL d   1      48.335  46.595   3.408 -0.06 +0.14    -0.289 OA
DOCKED: ATOM      3  N   UNL d   1      42.077  47.127   4.295 -0.11 +0.03    -0.247 NA
DOCKED: ATOM      4  N   UNL d   1      45.043  47.273   4.190 -0.10 +0.12    -0.247 NA
DOCKED: ATOM      5  N   UNL d   1      44.838  50.059   4.871 +0.01 +0.13    -0.354 N 
DOCKED: ATOM      6  N   UNL d   1      41.762  49.894   4.997 -0.08 +0.10    -0.354 N 
DOCKED: ATOM      7  C   UNL d   1      40.108  45.735   4.733 -0.20 +0.01    +0.084 A 
DOCKED: ATOM      8  C   UNL d   1      46.221  45.380   3.190 -0.17 -0.03    +0.084 A 
DOCKED: ATOM      9  C   UNL d   1      44.906  46.007   3.666 -0.23 -0.02    +0.058 A 
DOCKED: ATOM     10  C   UNL d   1      40.736  47.129   4.639 -0.21 +0.00    +0.058 A 
DOCKED: ATOM     11  C   UNL d   1      41.328  44.946   4.364 -0.16 +0.01    +0.193 A 
DOCKED: ATOM     12  C   UNL d   1      42.447  45.904   4.097 -0.20 -0.01    +0.109 A 
DOCKED: ATOM     13  C   UNL d   1      47.134  46.510   3.575 -0.10 -0.10    +0.193 A 
DOCKED: ATOM     14  C   UNL d   1      39.705  45.382   6.167 -0.37 +0.00    +0.026 C 
DOCKED: ATOM     15  C   UNL d   1      43.734  45.355   3.623 -0.24 -0.01    +0.055 C 
DOCKED: ATOM     16  C   UNL d   1      46.254  45.217   1.667 -0.07 -0.00    +0.026 C 
DOCKED: ATOM     17  C   UNL d   1      46.298  47.592   4.177 -0.17 -0.06    +0.109 A 
DOCKED: ATOM     18  C   UNL d   1      39.998  48.244   4.793 -0.27 +0.01    +0.050 C 
DOCKED: ATOM     19  C   UNL d   1      40.472  49.572   4.640 -0.20 -0.00    +0.045 A 
DOCKED: ATOM     20  C   UNL d   1      46.191  49.884   5.002 -0.10 -0.02    +0.045 A 
DOCKED: ATOM     21  C   UNL d   1      46.931  48.815   4.690 -0.17 -0.03    +0.057 C 
DOCKED: ATOM     22  C   UNL d   1      45.642  51.974   5.741 -0.09 +0.00    -0.019 A 
DOCKED: ATOM     23  C   UNL d   1      44.413  51.291   5.293 -0.12 -0.01    +0.045 A 
DOCKED: ATOM     24  C   UNL d   1      46.691  51.137   5.566 -0.09 +0.00    -0.022 A 
DOCKED: ATOM     25  C   UNL d   1      41.980  51.244   4.854 -0.15 -0.01    +0.049 A 
DOCKED: ATOM     26  C   UNL d   1      39.848  50.736   4.219 -0.16 -0.00    -0.018 A 
DOCKED: ATOM     27  C   UNL d   1      40.811  51.785   4.338 -0.13 +0.00    +0.003 A 
DOCKED: ATOM     28  C   UNL d   1      43.188  51.840   5.308 -0.12 -0.01    +0.052 C 
DOCKED: ATOM     29  C   UNL d   1      48.134  51.374   5.858 -0.04 -0.01    +0.046 C 
DOCKED: ATOM     30  C   UNL d   1      38.444  50.868   3.735 -0.20 +0.02    +0.046 C 
DOCKED: ATOM     31  H   UNL d   1      44.256  49.355   4.428 -0.28 -0.07    +0.166 HD
DOCKED: ATOM     32  H   UNL d   1      42.429  49.220   5.354 -0.40 -0.07    +0.166 HD
DOCKED: ENDROOT
DOCKED: BRANCH   7  33
DOCKED: ATOM     33  C   UNL d   1      38.969  45.459   3.745 -0.13 +0.06    +0.141 C 
DOCKED: BRANCH  33  34
DOCKED: ATOM     34  C   UNL d   1      38.121  44.284   4.152 -0.14 +0.12    +0.306 C 
DOCKED: ATOM     35  O   UNL d   1      38.526  43.177   4.466 -0.18 -0.05    -0.251 OA
DOCKED: BRANCH  34  36
DOCKED: ATOM     36  O   UNL d   1      36.807  44.567   4.146 -0.27 -0.36    -0.481 OA
DOCKED: ATOM     37  H   UNL d   1      36.442  44.062   4.904 -0.42 +0.08    +0.295 HD
DOCKED: ENDBRANCH  34  36
DOCKED: ENDBRANCH  33  34
DOCKED: ENDBRANCH   7  33
DOCKED: BRANCH  27  38
DOCKED: ATOM     38  C   UNL d   1      40.575  53.161   4.020 -0.09 +0.00    +0.017 C 
DOCKED: ATOM     39  C   UNL d   1      40.401  54.144   4.917 -0.09 +0.03    +0.092 C 
DOCKED: BRANCH  39  40
DOCKED: ATOM     40  C   UNL d   1      40.184  55.519   4.460 -0.01 +0.08    +0.330 C 
DOCKED: ATOM     41  O   UNL d   1      39.129  56.118   4.379 -0.02 -0.07    -0.246 OA
DOCKED: BRANCH  40  42
DOCKED: ATOM     42  O   UNL d   1      41.355  56.085   4.128 +0.01 -0.05    -0.477 OA
DOCKED: ATOM     43  H   UNL d   1      42.013  55.381   4.300 +0.02 +0.02    +0.295 HD
DOCKED: ENDBRANCH  40  42
DOCKED: ENDBRANCH  39  40
DOCKED: ENDBRANCH  27  38
DOCKED: BRANCH   8  44
DOCKED: ATOM     44  C   UNL d   1      46.627  44.082   3.895 -0.12 -0.06    +0.141 C 
DOCKED: BRANCH  44  45
DOCKED: ATOM     45  C   UNL d   1      48.048  43.671   3.612 -0.15 -0.11    +0.306 C 
DOCKED: ATOM     46  O   UNL d   1      48.421  42.892   2.752 -0.09 +0.04    -0.251 OA
DOCKED: BRANCH  45  47
DOCKED: ATOM     47  O   UNL d   1      48.927  44.246   4.452 -0.08 +0.37    -0.481 OA
DOCKED: ATOM     48  H   UNL d   1      48.434  44.994   4.853 -0.39 -0.45    +0.295 HD
DOCKED: ENDBRANCH  45  47
DOCKED: ENDBRANCH  44  45
DOCKED: ENDBRANCH   8  44
DOCKED: BRANCH  22  49
DOCKED: ATOM     49  C   UNL d   1      45.675  53.363   6.308 -0.05 -0.01    +0.048 C 
DOCKED: BRANCH  49  50
DOCKED: ATOM     50  C   UNL d   1      45.562  54.426   5.216 -0.01 -0.01    +0.125 C 
DOCKED: BRANCH  50  51
DOCKED: ATOM     51  C   UNL d   1      44.154  54.938   5.108 +0.00 -0.01    +0.305 C 
DOCKED: ATOM     52  O   UNL d   1      43.304  54.964   5.981 -0.02 +0.02    -0.251 OA
DOCKED: BRANCH  51  53
DOCKED: ATOM     53  O   UNL d   1      43.876  55.392   3.870 +0.01 +0.00    -0.481 OA
DOCKED: ATOM     54  H   UNL d   1      43.506  56.287   4.022 +0.01 +0.01    +0.295 HD
DOCKED: ENDBRANCH  51  53
DOCKED: ENDBRANCH  50  51
DOCKED: ENDBRANCH  49  50
DOCKED: ENDBRANCH  22  49
DOCKED: TORSDOF 13
DOCKED: TER
DOCKED: ENDMDL
________________________________________________________________________________


	BEGINNING GENETIC ALGORITHM DOCKING 84 of 100
Run: 84 Seed: 154039614 1368904609 [ Run 84 of 100 GA/GALS ]
Beginning LAMARCKIAN GENETIC ALGORITHM (LGA), with a maximum of 25000000 energy evaluations.

Final-Value: -10.782


	FINAL GENETIC ALGORITHM DOCKED STATE
	_______________________________________________


Detailed state:  trans 20.311 45.757 -6.014 quatxyzw 0.297433 -0.273862 0.093647 -0.909815 center 0.153 0.018 -0.028 ntor 13 108.6301 -158.1908 -57.3529 24.6412 -132.6938 -30.2253 132.3739 40.3433 32.3436 -121.2409 -60.4164 -47.1167 0.3813
State:	 20.311  45.757  -6.014   0.717 -0.660  0.226 -49.040    108.63 -158.19  -57.35   24.64 -132.69  -30.23  132.37   40.34   32.34 -121.24  -60.42  -47.12    0.38

DOCKED: MODEL       84
DOCKED: USER    Run = 84
DOCKED: USER    DPF = D:/Protein_go_brrr/autodock/final/6BB5/heme/dock.dpf
DOCKED: USER  
DOCKED: USER    Estimated Free Energy of Binding    =   -2.96 kcal/mol  [=(1)+(2)+(3)-(4)]
DOCKED: USER    Estimated Inhibition Constant, Ki   =    6.72 mM (millimolar)  [Temperature = 298.15 K]
DOCKED: USER    
DOCKED: USER    (1) Final Intermolecular Energy     =   -6.84 kcal/mol
DOCKED: USER        vdW + Hbond + desolv Energy     =   -6.66 kcal/mol
DOCKED: USER        Electrostatic Energy            =   -0.18 kcal/mol
DOCKED: USER    (2) Final Total Internal Energy     =   -3.94 kcal/mol
DOCKED: USER    (3) Torsional Free Energy           =   +3.88 kcal/mol
DOCKED: USER    (4) Unbound System's Energy  [=(2)] =   -3.94 kcal/mol
DOCKED: USER    
DOCKED: USER    
DOCKED: USER    NEWDPF move heme_opt.pdbqt
DOCKED: USER    NEWDPF about 0.153000 0.018000 -0.028000
DOCKED: USER    NEWDPF tran0 20.310851 45.757102 -6.014180
DOCKED: USER    NEWDPF quaternion0 0.297433 -0.273862 0.093647 -0.909815
DOCKED: USER    NEWDPF axisangle0 0.716682 -0.659887 0.225647 -49.040387
DOCKED: USER    NEWDPF quat0 0.716682 -0.659887 0.225647 -49.040387
DOCKED: USER    NEWDPF dihe0 108.63 -158.19 -57.35 24.64 -132.69 -30.23 132.37 40.34 32.34 -121.24 -60.42 -47.12 0.38 
DOCKED: USER  keepresnum = 1 
DOCKED: USER  
DOCKED: REMARK  13 active torsions:
DOCKED: REMARK  status: ('A' for Active; 'I' for Inactive)
DOCKED: REMARK    1  A    between atoms: O_3  and  C_38 
DOCKED: REMARK    2  A    between atoms: O_4  and  C_40 
DOCKED: REMARK    3  A    between atoms: O_7  and  C_46 
DOCKED: REMARK    4  A    between atoms: O_9  and  C_48 
DOCKED: REMARK    5  A    between atoms: C_15  and  C_20 
DOCKED: REMARK    6  A    between atoms: C_16  and  C_23 
DOCKED: REMARK    7  A    between atoms: C_20  and  C_38 
DOCKED: REMARK    8  A    between atoms: C_23  and  C_40 
DOCKED: REMARK    9  A    between atoms: C_32  and  C_41 
DOCKED: REMARK   10  A    between atoms: C_37  and  C_45 
DOCKED: REMARK   11  A    between atoms: C_41  and  C_44 
DOCKED: REMARK   12  A    between atoms: C_44  and  C_46 
DOCKED: REMARK   13  A    between atoms: C_47  and  C_48 
DOCKED: USER                              x       y       z     vdW  Elec       q    Type
DOCKED: USER                           _______ _______ _______ _____ _____    ______ ____
DOCKED: ROOT
DOCKED: ATOM      1  O   UNL d   1      14.790  46.692  -7.859 -0.02 +0.04    -0.289 OA
DOCKED: ATOM      2  O   UNL d   1      20.413  42.769 -10.923 -0.10 -0.10    -0.289 OA
DOCKED: ATOM      3  N   UNL d   1      17.939  46.537  -6.461 -0.11 +0.02    -0.247 NA
DOCKED: ATOM      4  N   UNL d   1      19.349  44.558  -8.170 -0.11 -0.03    -0.247 NA
DOCKED: ATOM      5  N   UNL d   1      21.409  44.434  -6.168 -0.08 -0.03    -0.354 N 
DOCKED: ATOM      6  N   UNL d   1      19.930  46.474  -4.392 -0.13 +0.05    -0.354 N 
DOCKED: ATOM      7  C   UNL d   1      15.786  47.486  -5.773 -0.26 -0.01    +0.084 A 
DOCKED: ATOM      8  C   UNL d   1      18.559  44.301 -10.468 -0.11 +0.01    +0.084 A 
DOCKED: ATOM      9  C   UNL d   1      18.384  44.927  -9.081 -0.15 +0.01    +0.058 A 
DOCKED: ATOM     10  C   UNL d   1      17.264  47.226  -5.467 -0.23 -0.01    +0.058 A 
DOCKED: ATOM     11  C   UNL d   1      15.750  46.838  -7.125 -0.19 -0.03    +0.193 A 
DOCKED: ATOM     12  C   UNL d   1      17.121  46.324  -7.439 -0.18 -0.01    +0.109 A 
DOCKED: ATOM     13  C   UNL d   1      19.781  43.480 -10.167 -0.07 +0.06    +0.193 A 
DOCKED: ATOM     14  C   UNL d   1      14.860  46.716  -4.829 -0.52 -0.01    +0.026 C 
DOCKED: ATOM     15  C   UNL d   1      17.350  45.723  -8.768 -0.19 -0.00    +0.055 C 
DOCKED: ATOM     16  C   UNL d   1      18.920  45.352 -11.523 -0.04 +0.00    +0.026 C 
DOCKED: ATOM     17  C   UNL d   1      20.154  43.719  -8.740 -0.11 +0.02    +0.109 A 
DOCKED: ATOM     18  C   UNL d   1      17.850  47.718  -4.359 -0.25 -0.01    +0.050 C 
DOCKED: ATOM     19  C   UNL d   1      19.226  47.601  -4.035 -0.11 -0.01    +0.045 A 
DOCKED: ATOM     20  C   UNL d   1      21.790  43.385  -6.963 -0.19 +0.01    +0.045 A 
DOCKED: ATOM     21  C   UNL d   1      21.296  43.007  -8.147 -0.17 +0.01    +0.057 C 
DOCKED: ATOM     22  C   UNL d   1      23.097  43.404  -5.090 -0.20 -0.00    -0.019 A 
DOCKED: ATOM     23  C   UNL d   1      22.141  44.527  -5.014 -0.24 +0.00    +0.045 A 
DOCKED: ATOM     24  C   UNL d   1      22.886  42.733  -6.246 -0.17 -0.00    -0.022 A 
DOCKED: ATOM     25  C   UNL d   1      21.214  46.530  -3.902 -0.23 -0.00    +0.049 A 
DOCKED: ATOM     26  C   UNL d   1      20.084  48.428  -3.326 -0.16 +0.00    -0.018 A 
DOCKED: ATOM     27  C   UNL d   1      21.343  47.756  -3.262 -0.18 -0.00    +0.003 A 
DOCKED: ATOM     28  C   UNL d   1      22.085  45.412  -4.007 -0.29 -0.00    +0.052 C 
DOCKED: ATOM     29  C   UNL d   1      23.603  41.539  -6.776 -0.14 +0.01    +0.046 C 
DOCKED: ATOM     30  C   UNL d   1      19.757  49.762  -2.746 -0.17 -0.01    +0.046 C 
DOCKED: ATOM     31  H   UNL d   1      20.708  45.100  -6.476 +0.06 +0.01    +0.166 HD
DOCKED: ATOM     32  H   UNL d   1      19.527  45.701  -4.909 +0.06 -0.01    +0.166 HD
DOCKED: ENDROOT
DOCKED: BRANCH   7  33
DOCKED: ATOM     33  C   UNL d   1      15.386  48.962  -5.874 -0.14 -0.02    +0.141 C 
DOCKED: BRANCH  33  34
DOCKED: ATOM     34  C   UNL d   1      15.737  49.568  -7.206 -0.03 -0.03    +0.306 C 
DOCKED: ATOM     35  O   UNL d   1      16.842  49.944  -7.558 -0.01 +0.02    -0.251 OA
DOCKED: BRANCH  34  36
DOCKED: ATOM     36  O   UNL d   1      14.676  49.666  -8.026 -0.01 +0.04    -0.481 OA
DOCKED: ATOM     37  H   UNL d   1      14.507  48.746  -8.322 +0.07 -0.03    +0.295 HD
DOCKED: ENDBRANCH  34  36
DOCKED: ENDBRANCH  33  34
DOCKED: ENDBRANCH   7  33
DOCKED: BRANCH  27  38
DOCKED: ATOM     38  C   UNL d   1      22.513  48.255  -2.604 -0.13 -0.00    +0.017 C 
DOCKED: ATOM     39  C   UNL d   1      23.630  47.550  -2.370 -0.11 +0.00    +0.092 C 
DOCKED: BRANCH  39  40
DOCKED: ATOM     40  C   UNL d   1      24.767  48.186  -1.699 -0.03 +0.03    +0.330 C 
DOCKED: ATOM     41  O   UNL d   1      25.113  49.350  -1.764 -0.01 -0.01    -0.246 OA
DOCKED: BRANCH  40  42
DOCKED: ATOM     42  O   UNL d   1      25.423  47.286  -0.950 -0.03 -0.08    -0.477 OA
DOCKED: ATOM     43  H   UNL d   1      25.172  46.425  -1.343 +0.07 +0.05    +0.295 HD
DOCKED: ENDBRANCH  40  42
DOCKED: ENDBRANCH  39  40
DOCKED: ENDBRANCH  27  38
DOCKED: BRANCH   8  44
DOCKED: ATOM     44  C   UNL d   1      17.404  43.413 -10.943 -0.14 +0.03    +0.141 C 
DOCKED: BRANCH  44  45
DOCKED: ATOM     45  C   UNL d   1      17.718  42.655 -12.205 -0.07 +0.12    +0.306 C 
DOCKED: ATOM     46  O   UNL d   1      18.247  41.560 -12.283 -0.58 -0.24    -0.251 OA
DOCKED: BRANCH  45  47
DOCKED: ATOM     47  O   UNL d   1      17.369  43.334 -13.313 -0.00 -0.07    -0.481 OA
DOCKED: ATOM     48  H   UNL d   1      18.203  43.421 -13.823 +0.03 +0.04    +0.295 HD
DOCKED: ENDBRANCH  45  47
DOCKED: ENDBRANCH  44  45
DOCKED: ENDBRANCH   8  44
DOCKED: BRANCH  22  49
DOCKED: ATOM     49  C   UNL d   1      24.109  43.087  -4.028 -0.24 +0.01    +0.048 C 
DOCKED: BRANCH  49  50
DOCKED: ATOM     50  C   UNL d   1      25.371  43.937  -4.172 -0.14 +0.01    +0.125 C 
DOCKED: BRANCH  50  51
DOCKED: ATOM     51  C   UNL d   1      25.608  44.759  -2.938 -0.10 +0.04    +0.305 C 
DOCKED: ATOM     52  O   UNL d   1      25.362  44.455  -1.784 -0.13 -0.05    -0.251 OA
DOCKED: BRANCH  51  53
DOCKED: ATOM     53  O   UNL d   1      26.147  45.960  -3.228 -0.00 -0.05    -0.481 OA
DOCKED: ATOM     54  H   UNL d   1      26.607  46.220  -2.402 +0.04 +0.04    +0.295 HD
DOCKED: ENDBRANCH  51  53
DOCKED: ENDBRANCH  50  51
DOCKED: ENDBRANCH  49  50
DOCKED: ENDBRANCH  22  49
DOCKED: TORSDOF 13
DOCKED: TER
DOCKED: ENDMDL
________________________________________________________________________________


	BEGINNING GENETIC ALGORITHM DOCKING 85 of 100
Run: 85 Seed: 255012642 1061929289 [ Run 85 of 100 GA/GALS ]
Beginning LAMARCKIAN GENETIC ALGORITHM (LGA), with a maximum of 25000000 energy evaluations.

Final-Value: -12.012


	FINAL GENETIC ALGORITHM DOCKED STATE
	_______________________________________________


Detailed state:  trans 24.137 37.537 -4.813 quatxyzw 0.876289 -0.151635 0.421701 -0.176896 center 0.153 0.018 -0.028 ntor 13 -180.0000 -177.7579 -104.5503 58.8538 -151.5827 78.3266 121.2899 40.2813 34.8118 -30.1441 -72.9798 -124.1547 15.2637
State:	 24.137  37.537  -4.813   0.890 -0.154  0.428 -159.622   -180.00 -177.76 -104.55   58.85 -151.58   78.33  121.29   40.28   34.81  -30.14  -72.98 -124.15   15.26

DOCKED: MODEL       85
DOCKED: USER    Run = 85
DOCKED: USER    DPF = D:/Protein_go_brrr/autodock/final/6BB5/heme/dock.dpf
DOCKED: USER  
DOCKED: USER    Estimated Free Energy of Binding    =   -3.50 kcal/mol  [=(1)+(2)+(3)-(4)]
DOCKED: USER    Estimated Inhibition Constant, Ki   =    2.72 mM (millimolar)  [Temperature = 298.15 K]
DOCKED: USER    
DOCKED: USER    (1) Final Intermolecular Energy     =   -7.38 kcal/mol
DOCKED: USER        vdW + Hbond + desolv Energy     =   -7.16 kcal/mol
DOCKED: USER        Electrostatic Energy            =   -0.21 kcal/mol
DOCKED: USER    (2) Final Total Internal Energy     =   -4.64 kcal/mol
DOCKED: USER    (3) Torsional Free Energy           =   +3.88 kcal/mol
DOCKED: USER    (4) Unbound System's Energy  [=(2)] =   -4.64 kcal/mol
DOCKED: USER    
DOCKED: USER    
DOCKED: USER    NEWDPF move heme_opt.pdbqt
DOCKED: USER    NEWDPF about 0.153000 0.018000 -0.028000
DOCKED: USER    NEWDPF tran0 24.137108 37.537370 -4.813456
DOCKED: USER    NEWDPF quaternion0 0.876289 -0.151635 0.421701 -0.176896
DOCKED: USER    NEWDPF axisangle0 0.890330 -0.154065 0.428458 -159.621957
DOCKED: USER    NEWDPF quat0 0.890330 -0.154065 0.428458 -159.621957
DOCKED: USER    NEWDPF dihe0 -180.00 -177.76 -104.55 58.85 -151.58 78.33 121.29 40.28 34.81 -30.14 -72.98 -124.15 15.26 
DOCKED: USER  keepresnum = 1 
DOCKED: USER  
DOCKED: REMARK  13 active torsions:
DOCKED: REMARK  status: ('A' for Active; 'I' for Inactive)
DOCKED: REMARK    1  A    between atoms: O_3  and  C_38 
DOCKED: REMARK    2  A    between atoms: O_4  and  C_40 
DOCKED: REMARK    3  A    between atoms: O_7  and  C_46 
DOCKED: REMARK    4  A    between atoms: O_9  and  C_48 
DOCKED: REMARK    5  A    between atoms: C_15  and  C_20 
DOCKED: REMARK    6  A    between atoms: C_16  and  C_23 
DOCKED: REMARK    7  A    between atoms: C_20  and  C_38 
DOCKED: REMARK    8  A    between atoms: C_23  and  C_40 
DOCKED: REMARK    9  A    between atoms: C_32  and  C_41 
DOCKED: REMARK   10  A    between atoms: C_37  and  C_45 
DOCKED: REMARK   11  A    between atoms: C_41  and  C_44 
DOCKED: REMARK   12  A    between atoms: C_44  and  C_46 
DOCKED: REMARK   13  A    between atoms: C_47  and  C_48 
DOCKED: USER                              x       y       z     vdW  Elec       q    Type
DOCKED: USER                           _______ _______ _______ _____ _____    ______ ____
DOCKED: ROOT
DOCKED: ATOM      1  O   UNL d   1      20.523  36.402  -9.331 -0.10 -0.14    -0.289 OA
DOCKED: ATOM      2  O   UNL d   1      23.476  42.858  -6.884 -0.07 -0.04    -0.289 OA
DOCKED: ATOM      3  N   UNL d   1      22.510  36.600  -6.519 -0.08 -0.02    -0.247 NA
DOCKED: ATOM      4  N   UNL d   1      23.428  39.426  -6.529 -0.11 -0.04    -0.247 NA
DOCKED: ATOM      5  N   UNL d   1      25.385  38.700  -4.552 -0.15 -0.03    -0.354 N 
DOCKED: ATOM      6  N   UNL d   1      24.439  35.767  -4.561 -0.10 +0.03    -0.354 N 
DOCKED: ATOM      7  C   UNL d   1      21.500  34.769  -7.796 -0.09 -0.00    +0.084 A 
DOCKED: ATOM      8  C   UNL d   1      21.999  41.062  -7.648 -0.18 +0.02    +0.084 A 
DOCKED: ATOM      9  C   UNL d   1      22.299  39.601  -7.297 -0.20 +0.01    +0.058 A 
DOCKED: ATOM     10  C   UNL d   1      22.364  35.227  -6.618 -0.12 -0.00    +0.058 A 
DOCKED: ATOM     11  C   UNL d   1      21.168  36.128  -8.335 -0.07 +0.05    +0.193 A 
DOCKED: ATOM     12  C   UNL d   1      21.817  37.154  -7.460 -0.12 +0.02    +0.109 A 
DOCKED: ATOM     13  C   UNL d   1      23.188  41.680  -6.968 -0.10 +0.03    +0.193 A 
DOCKED: ATOM     14  C   UNL d   1      22.315  34.006  -8.844 -0.06 -0.00    +0.026 C 
DOCKED: ATOM     15  C   UNL d   1      21.552  38.579  -7.744 -0.24 +0.02    +0.055 C 
DOCKED: ATOM     16  C   UNL d   1      20.725  41.561  -6.961 -0.24 +0.01    +0.026 C 
DOCKED: ATOM     17  C   UNL d   1      23.978  40.582  -6.335 -0.11 +0.02    +0.109 A 
DOCKED: ATOM     18  C   UNL d   1      22.850  34.349  -5.720 -0.21 -0.01    +0.050 C 
DOCKED: ATOM     19  C   UNL d   1      23.586  34.687  -4.555 -0.23 -0.01    +0.045 A 
DOCKED: ATOM     20  C   UNL d   1      25.816  39.966  -4.856 -0.19 +0.00    +0.045 A 
DOCKED: ATOM     21  C   UNL d   1      25.231  40.886  -5.629 -0.17 +0.01    +0.057 C 
DOCKED: ATOM     22  C   UNL d   1      27.341  38.980  -3.470 -0.17 -0.00    -0.019 A 
DOCKED: ATOM     23  C   UNL d   1      26.241  38.027  -3.721 -0.23 +0.00    +0.045 A 
DOCKED: ATOM     24  C   UNL d   1      27.083  40.126  -4.144 -0.15 -0.00    -0.022 A 
DOCKED: ATOM     25  C   UNL d   1      25.114  35.856  -3.366 -0.21 -0.00    +0.049 A 
DOCKED: ATOM     26  C   UNL d   1      23.680  34.081  -3.312 -0.33 +0.00    -0.018 A 
DOCKED: ATOM     27  C   UNL d   1      24.633  34.835  -2.558 -0.29 -0.00    +0.003 A 
DOCKED: ATOM     28  C   UNL d   1      26.165  36.797  -3.191 -0.25 +0.00    +0.052 C 
DOCKED: ATOM     29  C   UNL d   1      27.888  41.380  -4.195 -0.08 +0.00    +0.046 C 
DOCKED: ATOM     30  C   UNL d   1      22.932  32.877  -2.849 -0.44 -0.02    +0.046 C 
DOCKED: ATOM     31  H   UNL d   1      24.481  38.363  -4.863 +0.03 +0.01    +0.166 HD
DOCKED: ATOM     32  H   UNL d   1      24.568  36.374  -5.362 +0.04 -0.00    +0.166 HD
DOCKED: ENDROOT
DOCKED: BRANCH   7  33
DOCKED: ATOM     33  C   UNL d   1      20.221  34.013  -7.419 -0.18 -0.00    +0.141 C 
DOCKED: BRANCH  33  34
DOCKED: ATOM     34  C   UNL d   1      19.089  34.936  -7.057 -0.24 +0.06    +0.306 C 
DOCKED: ATOM     35  O   UNL d   1      18.757  35.260  -5.929 -0.50 -0.06    -0.251 OA
DOCKED: BRANCH  34  36
DOCKED: ATOM     36  O   UNL d   1      18.435  35.402  -8.135 -0.13 -0.22    -0.481 OA
DOCKED: ATOM     37  H   UNL d   1      18.922  35.028  -8.900 +0.12 +0.11    +0.295 HD
DOCKED: ENDBRANCH  34  36
DOCKED: ENDBRANCH  33  34
DOCKED: ENDBRANCH   7  33
DOCKED: BRANCH  27  38
DOCKED: ATOM     38  C   UNL d   1      25.043  34.542  -1.218 -0.20 -0.00    +0.017 C 
DOCKED: ATOM     39  C   UNL d   1      26.100  33.789  -0.879 -0.23 +0.01    +0.092 C 
DOCKED: BRANCH  39  40
DOCKED: ATOM     40  C   UNL d   1      26.424  33.579   0.534 -0.18 +0.10    +0.330 C 
DOCKED: ATOM     41  O   UNL d   1      25.865  32.842   1.324 -0.32 -0.03    -0.246 OA
DOCKED: BRANCH  40  42
DOCKED: ATOM     42  O   UNL d   1      27.479  34.332   0.883 -0.05 -0.23    -0.477 OA
DOCKED: ATOM     43  H   UNL d   1      27.692  34.830   0.067 +0.09 +0.09    +0.295 HD
DOCKED: ENDBRANCH  40  42
DOCKED: ENDBRANCH  39  40
DOCKED: ENDBRANCH  27  38
DOCKED: BRANCH   8  44
DOCKED: ATOM     44  C   UNL d   1      21.988  41.393  -9.144 -0.10 +0.04    +0.141 C 
DOCKED: BRANCH  44  45
DOCKED: ATOM     45  C   UNL d   1      23.366  41.573  -9.723 -0.01 +0.05    +0.306 C 
DOCKED: ATOM     46  O   UNL d   1      24.154  40.690 -10.013 -0.01 -0.03    -0.251 OA
DOCKED: BRANCH  45  47
DOCKED: ATOM     47  O   UNL d   1      23.693  42.869  -9.881 +0.01 -0.05    -0.481 OA
DOCKED: ATOM     48  H   UNL d   1      23.881  43.190  -8.973 +0.03 +0.03    +0.295 HD
DOCKED: ENDBRANCH  45  47
DOCKED: ENDBRANCH  44  45
DOCKED: ENDBRANCH   8  44
DOCKED: BRANCH  22  49
DOCKED: ATOM     49  C   UNL d   1      28.538  38.679  -2.616 -0.11 +0.00    +0.048 C 
DOCKED: BRANCH  49  50
DOCKED: ATOM     50  C   UNL d   1      28.164  38.543  -1.140 -0.12 +0.01    +0.125 C 
DOCKED: BRANCH  50  51
DOCKED: ATOM     51  C   UNL d   1      28.239  37.110  -0.698 -0.09 +0.03    +0.305 C 
DOCKED: ATOM     52  O   UNL d   1      29.019  36.255  -1.078 -0.04 -0.03    -0.251 OA
DOCKED: BRANCH  51  53
DOCKED: ATOM     53  O   UNL d   1      27.294  36.814   0.217 -0.01 -0.04    -0.481 OA
DOCKED: ATOM     54  H   UNL d   1      27.804  36.503   0.994 +0.10 +0.03    +0.295 HD
DOCKED: ENDBRANCH  51  53
DOCKED: ENDBRANCH  50  51
DOCKED: ENDBRANCH  49  50
DOCKED: ENDBRANCH  22  49
DOCKED: TORSDOF 13
DOCKED: TER
DOCKED: ENDMDL
________________________________________________________________________________


	BEGINNING GENETIC ALGORITHM DOCKING 86 of 100
Run: 86 Seed: 1487882779 1170926873 [ Run 86 of 100 GA/GALS ]
Beginning LAMARCKIAN GENETIC ALGORITHM (LGA), with a maximum of 25000000 energy evaluations.

Final-Value: -10.660


	FINAL GENETIC ALGORITHM DOCKED STATE
	_______________________________________________


Detailed state:  trans 37.837 13.282 22.246 quatxyzw -0.139626 -0.755161 -0.636851 0.068249 center 0.153 0.018 -0.028 ntor 13 150.0621 133.5384 -174.1465 83.5335 -141.1078 140.0510 142.1160 140.1035 13.8029 -9.3187 -31.7012 93.9718 15.0741
State:	 37.837  13.282  22.246  -0.140 -0.757 -0.638 172.173    150.06  133.54 -174.15   83.53 -141.11  140.05  142.12  140.10   13.80   -9.32  -31.70   93.97   15.07

DOCKED: MODEL       86
DOCKED: USER    Run = 86
DOCKED: USER    DPF = D:/Protein_go_brrr/autodock/final/6BB5/heme/dock.dpf
DOCKED: USER  
DOCKED: USER    Estimated Free Energy of Binding    =   -4.27 kcal/mol  [=(1)+(2)+(3)-(4)]
DOCKED: USER    Estimated Inhibition Constant, Ki   =  739.70 uM (micromolar)  [Temperature = 298.15 K]
DOCKED: USER    
DOCKED: USER    (1) Final Intermolecular Energy     =   -8.15 kcal/mol
DOCKED: USER        vdW + Hbond + desolv Energy     =   -7.60 kcal/mol
DOCKED: USER        Electrostatic Energy            =   -0.55 kcal/mol
DOCKED: USER    (2) Final Total Internal Energy     =   -2.51 kcal/mol
DOCKED: USER    (3) Torsional Free Energy           =   +3.88 kcal/mol
DOCKED: USER    (4) Unbound System's Energy  [=(2)] =   -2.51 kcal/mol
DOCKED: USER    
DOCKED: USER    
DOCKED: USER    NEWDPF move heme_opt.pdbqt
DOCKED: USER    NEWDPF about 0.153000 0.018000 -0.028000
DOCKED: USER    NEWDPF tran0 37.837078 13.281768 22.245790
DOCKED: USER    NEWDPF quaternion0 -0.139626 -0.755161 -0.636851 0.068249
DOCKED: USER    NEWDPF axisangle0 -0.139952 -0.756926 -0.638339 172.173199
DOCKED: USER    NEWDPF quat0 -0.139952 -0.756926 -0.638339 172.173199
DOCKED: USER    NEWDPF dihe0 150.06 133.54 -174.15 83.53 -141.11 140.05 142.12 140.10 13.80 -9.32 -31.70 93.97 15.07 
DOCKED: USER  keepresnum = 1 
DOCKED: USER  
DOCKED: REMARK  13 active torsions:
DOCKED: REMARK  status: ('A' for Active; 'I' for Inactive)
DOCKED: REMARK    1  A    between atoms: O_3  and  C_38 
DOCKED: REMARK    2  A    between atoms: O_4  and  C_40 
DOCKED: REMARK    3  A    between atoms: O_7  and  C_46 
DOCKED: REMARK    4  A    between atoms: O_9  and  C_48 
DOCKED: REMARK    5  A    between atoms: C_15  and  C_20 
DOCKED: REMARK    6  A    between atoms: C_16  and  C_23 
DOCKED: REMARK    7  A    between atoms: C_20  and  C_38 
DOCKED: REMARK    8  A    between atoms: C_23  and  C_40 
DOCKED: REMARK    9  A    between atoms: C_32  and  C_41 
DOCKED: REMARK   10  A    between atoms: C_37  and  C_45 
DOCKED: REMARK   11  A    between atoms: C_41  and  C_44 
DOCKED: REMARK   12  A    between atoms: C_44  and  C_46 
DOCKED: REMARK   13  A    between atoms: C_47  and  C_48 
DOCKED: USER                              x       y       z     vdW  Elec       q    Type
DOCKED: USER                           _______ _______ _______ _____ _____    ______ ____
DOCKED: ROOT
DOCKED: ATOM      1  O   UNL d   1      43.568  12.475  23.367 -0.03 -0.02    -0.289 OA
DOCKED: ATOM      2  O   UNL d   1      39.321  10.276  17.577 -0.03 -0.02    -0.289 OA
DOCKED: ATOM      3  N   UNL d   1      40.175  13.072  23.206 -0.10 +0.04    -0.247 NA
DOCKED: ATOM      4  N   UNL d   1      39.445  12.133  20.483 -0.10 +0.01    -0.247 NA
DOCKED: ATOM      5  N   UNL d   1      36.925  13.483  20.794 +0.01 +0.05    -0.354 N 
DOCKED: ATOM      6  N   UNL d   1      37.699  14.469  23.610 -0.07 +0.16    -0.354 N 
DOCKED: ATOM      7  C   UNL d   1      41.977  13.731  24.732 -0.13 -0.00    +0.084 A 
DOCKED: ATOM      8  C   UNL d   1      40.858  10.412  19.478 -0.05 +0.01    +0.084 A 
DOCKED: ATOM      9  C   UNL d   1      40.595  11.389  20.628 -0.12 +0.00    +0.058 A 
DOCKED: ATOM     10  C   UNL d   1      40.495  13.787  24.348 -0.20 -0.01    +0.058 A 
DOCKED: ATOM     11  C   UNL d   1      42.435  12.842  23.615 -0.08 +0.01    +0.193 A 
DOCKED: ATOM     12  C   UNL d   1      41.247  12.490  22.774 -0.13 -0.00    +0.109 A 
DOCKED: ATOM     13  C   UNL d   1      39.665  10.765  18.635 -0.06 +0.01    +0.193 A 
DOCKED: ATOM     14  C   UNL d   1      42.659  15.094  24.591 -0.19 -0.00    +0.026 C 
DOCKED: ATOM     15  C   UNL d   1      41.440  11.542  21.659 -0.11 +0.00    +0.055 C 
DOCKED: ATOM     16  C   UNL d   1      40.728   8.954  19.930 -0.02 +0.00    +0.026 C 
DOCKED: ATOM     17  C   UNL d   1      38.894  11.825  19.353 -0.12 +0.01    +0.109 A 
DOCKED: ATOM     18  C   UNL d   1      39.591  14.412  25.125 -0.28 -0.01    +0.050 C 
DOCKED: ATOM     19  C   UNL d   1      38.192  14.444  24.895 -0.26 -0.01    +0.045 A 
DOCKED: ATOM     20  C   UNL d   1      36.858  13.162  19.463 -0.14 +0.00    +0.045 A 
DOCKED: ATOM     21  C   UNL d   1      37.688  12.402  18.741 -0.11 +0.01    +0.057 C 
DOCKED: ATOM     22  C   UNL d   1      35.085  14.503  19.990 -0.25 -0.00    -0.019 A 
DOCKED: ATOM     23  C   UNL d   1      35.898  14.289  21.204 -0.24 -0.01    +0.045 A 
DOCKED: ATOM     24  C   UNL d   1      35.658  13.832  18.963 -0.23 -0.00    -0.022 A 
DOCKED: ATOM     25  C   UNL d   1      36.329  14.591  23.620 -0.13 -0.02    +0.049 A 
DOCKED: ATOM     26  C   UNL d   1      37.112  14.514  25.762 -0.22 +0.01    -0.018 A 
DOCKED: ATOM     27  C   UNL d   1      35.937  14.587  24.951 -0.23 -0.00    +0.003 A 
DOCKED: ATOM     28  C   UNL d   1      35.606  14.795  22.413 -0.30 -0.01    +0.052 C 
DOCKED: ATOM     29  C   UNL d   1      35.206  13.732  17.546 -0.26 +0.01    +0.046 C 
DOCKED: ATOM     30  C   UNL d   1      37.165  14.512  27.252 -0.17 -0.02    +0.046 C 
DOCKED: ATOM     31  H   UNL d   1      37.633  13.078  21.397 -0.32 -0.04    +0.166 HD
DOCKED: ATOM     32  H   UNL d   1      38.286  14.443  22.784 -0.39 -0.14    +0.166 HD
DOCKED: ENDROOT
DOCKED: BRANCH   7  33
DOCKED: ATOM     33  C   UNL d   1      42.279  13.088  26.090 -0.03 -0.00    +0.141 C 
DOCKED: BRANCH  33  34
DOCKED: ATOM     34  C   UNL d   1      41.844  11.649  26.159 -0.00 +0.00    +0.306 C 
DOCKED: ATOM     35  O   UNL d   1      40.736  11.246  26.473 -0.00 +0.00    -0.251 OA
DOCKED: BRANCH  34  36
DOCKED: ATOM     36  O   UNL d   1      42.826  10.793  25.827 +0.00 -0.01    -0.481 OA
DOCKED: ATOM     37  H   UNL d   1      43.356  11.274  25.155 +0.01 +0.01    +0.295 HD
DOCKED: ENDBRANCH  34  36
DOCKED: ENDBRANCH  33  34
DOCKED: ENDBRANCH   7  33
DOCKED: BRANCH  27  38
DOCKED: ATOM     38  C   UNL d   1      34.598  14.688  25.447 -0.24 -0.01    +0.017 C 
DOCKED: ATOM     39  C   UNL d   1      34.061  13.904  26.395 -0.11 -0.04    +0.092 C 
DOCKED: BRANCH  39  40
DOCKED: ATOM     40  C   UNL d   1      32.679  14.123  26.827 -0.05 -0.14    +0.330 C 
DOCKED: ATOM     41  O   UNL d   1      31.829  13.284  27.055 -0.02 +0.05    -0.246 OA
DOCKED: BRANCH  40  42
DOCKED: ATOM     42  O   UNL d   1      32.440  15.437  26.962 -0.06 +0.40    -0.477 OA
DOCKED: ATOM     43  H   UNL d   1      33.214  15.766  27.463 -0.45 -0.61    +0.295 HD
DOCKED: ENDBRANCH  40  42
DOCKED: ENDBRANCH  39  40
DOCKED: ENDBRANCH  27  38
DOCKED: BRANCH   8  44
DOCKED: ATOM     44  C   UNL d   1      42.162  10.638  18.704 -0.04 +0.01    +0.141 C 
DOCKED: BRANCH  44  45
DOCKED: ATOM     45  C   UNL d   1      42.253  12.005  18.080 -0.07 +0.04    +0.306 C 
DOCKED: ATOM     46  O   UNL d   1      42.838  12.973  18.533 -0.13 -0.04    -0.251 OA
DOCKED: BRANCH  45  47
DOCKED: ATOM     47  O   UNL d   1      41.574  12.087  16.921 -0.04 -0.07    -0.481 OA
DOCKED: ATOM     48  H   UNL d   1      41.122  11.221  16.837 +0.04 +0.03    +0.295 HD
DOCKED: ENDBRANCH  45  47
DOCKED: ENDBRANCH  44  45
DOCKED: ENDBRANCH   8  44
DOCKED: BRANCH  22  49
DOCKED: ATOM     49  C   UNL d   1      33.845  15.346  19.943 -0.32 +0.01    +0.048 C 
DOCKED: BRANCH  49  50
DOCKED: ATOM     50  C   UNL d   1      32.699  14.717  20.736 -0.15 +0.05    +0.125 C 
DOCKED: BRANCH  50  51
DOCKED: ATOM     51  C   UNL d   1      31.802  15.775  21.314 -0.16 +0.20    +0.305 C 
DOCKED: ATOM     52  O   UNL d   1      30.585  15.807  21.296 -0.72 -0.33    -0.251 OA
DOCKED: BRANCH  51  53
DOCKED: ATOM     53  O   UNL d   1      32.504  16.771  21.890 -0.11 -0.18    -0.481 OA
DOCKED: ATOM     54  H   UNL d   1      32.514  16.537  22.841 +0.14 +0.06    +0.295 HD
DOCKED: ENDBRANCH  51  53
DOCKED: ENDBRANCH  50  51
DOCKED: ENDBRANCH  49  50
DOCKED: ENDBRANCH  22  49
DOCKED: TORSDOF 13
DOCKED: TER
DOCKED: ENDMDL
________________________________________________________________________________


	BEGINNING GENETIC ALGORITHM DOCKING 87 of 100
Run: 87 Seed: 1908101178 1606647113 [ Run 87 of 100 GA/GALS ]
Beginning LAMARCKIAN GENETIC ALGORITHM (LGA), with a maximum of 25000000 energy evaluations.

Final-Value: -9.755


	FINAL GENETIC ALGORITHM DOCKED STATE
	_______________________________________________


Detailed state:  trans 15.861 21.072 -11.174 quatxyzw -0.490905 0.862378 -0.122978 0.013896 center 0.153 0.018 -0.028 ntor 13 -40.9527 -70.4567 -161.0847 -128.0843 -126.3931 150.3098 135.9405 28.2594 3.6048 -10.0035 -76.7091 28.7635 -27.7294
State:	 15.861  21.072 -11.174  -0.491  0.862 -0.123 178.408    -40.95  -70.46 -161.08 -128.08 -126.39  150.31  135.94   28.26    3.60  -10.00  -76.71   28.76  -27.73

DOCKED: MODEL       87
DOCKED: USER    Run = 87
DOCKED: USER    DPF = D:/Protein_go_brrr/autodock/final/6BB5/heme/dock.dpf
DOCKED: USER  
DOCKED: USER    Estimated Free Energy of Binding    =   -3.68 kcal/mol  [=(1)+(2)+(3)-(4)]
DOCKED: USER    Estimated Inhibition Constant, Ki   =    2.02 mM (millimolar)  [Temperature = 298.15 K]
DOCKED: USER    
DOCKED: USER    (1) Final Intermolecular Energy     =   -7.55 kcal/mol
DOCKED: USER        vdW + Hbond + desolv Energy     =   -6.61 kcal/mol
DOCKED: USER        Electrostatic Energy            =   -0.94 kcal/mol
DOCKED: USER    (2) Final Total Internal Energy     =   -2.20 kcal/mol
DOCKED: USER    (3) Torsional Free Energy           =   +3.88 kcal/mol
DOCKED: USER    (4) Unbound System's Energy  [=(2)] =   -2.20 kcal/mol
DOCKED: USER    
DOCKED: USER    
DOCKED: USER    NEWDPF move heme_opt.pdbqt
DOCKED: USER    NEWDPF about 0.153000 0.018000 -0.028000
DOCKED: USER    NEWDPF tran0 15.861335 21.071759 -11.173890
DOCKED: USER    NEWDPF quaternion0 -0.490905 0.862378 -0.122978 0.013896
DOCKED: USER    NEWDPF axisangle0 -0.490952 0.862461 -0.122990 178.407581
DOCKED: USER    NEWDPF quat0 -0.490952 0.862461 -0.122990 178.407581
DOCKED: USER    NEWDPF dihe0 -40.95 -70.46 -161.08 -128.08 -126.39 150.31 135.94 28.26 3.60 -10.00 -76.71 28.76 -27.73 
DOCKED: USER  keepresnum = 1 
DOCKED: USER  
DOCKED: REMARK  13 active torsions:
DOCKED: REMARK  status: ('A' for Active; 'I' for Inactive)
DOCKED: REMARK    1  A    between atoms: O_3  and  C_38 
DOCKED: REMARK    2  A    between atoms: O_4  and  C_40 
DOCKED: REMARK    3  A    between atoms: O_7  and  C_46 
DOCKED: REMARK    4  A    between atoms: O_9  and  C_48 
DOCKED: REMARK    5  A    between atoms: C_15  and  C_20 
DOCKED: REMARK    6  A    between atoms: C_16  and  C_23 
DOCKED: REMARK    7  A    between atoms: C_20  and  C_38 
DOCKED: REMARK    8  A    between atoms: C_23  and  C_40 
DOCKED: REMARK    9  A    between atoms: C_32  and  C_41 
DOCKED: REMARK   10  A    between atoms: C_37  and  C_45 
DOCKED: REMARK   11  A    between atoms: C_41  and  C_44 
DOCKED: REMARK   12  A    between atoms: C_44  and  C_46 
DOCKED: REMARK   13  A    between atoms: C_47  and  C_48 
DOCKED: USER                              x       y       z     vdW  Elec       q    Type
DOCKED: USER                           _______ _______ _______ _____ _____    ______ ____
DOCKED: ROOT
DOCKED: ATOM      1  O   UNL d   1      17.393  26.481 -12.949 -0.04 +0.05    -0.289 OA
DOCKED: ATOM      2  O   UNL d   1      21.204  21.305  -9.066 -0.04 +0.08    -0.289 OA
DOCKED: ATOM      3  N   UNL d   1      16.016  23.461 -12.011 -0.09 +0.08    -0.247 NA
DOCKED: ATOM      4  N   UNL d   1      18.315  22.003 -10.821 -0.11 +0.10    -0.247 NA
DOCKED: ATOM      5  N   UNL d   1      16.737  19.602 -10.944 -0.12 +0.32    -0.354 N 
DOCKED: ATOM      6  N   UNL d   1      14.364  21.119 -12.197 -0.04 +0.17    -0.354 N 
DOCKED: ATOM      7  C   UNL d   1      15.279  25.340 -13.402 -0.08 -0.02    +0.084 A 
DOCKED: ATOM      8  C   UNL d   1      20.123  23.347  -9.875 -0.12 -0.02    +0.084 A 
DOCKED: ATOM      9  C   UNL d   1      18.804  23.279 -10.652 -0.17 -0.02    +0.058 A 
DOCKED: ATOM     10  C   UNL d   1      14.996  23.958 -12.805 -0.10 -0.02    +0.058 A 
DOCKED: ATOM     11  C   UNL d   1      16.632  25.544 -12.789 -0.06 -0.04    +0.193 A 
DOCKED: ATOM     12  C   UNL d   1      16.955  24.348 -11.948 -0.12 -0.03    +0.109 A 
DOCKED: ATOM     13  C   UNL d   1      20.311  21.871  -9.667 -0.08 -0.06    +0.193 A 
DOCKED: ATOM     14  C   UNL d   1      15.428  25.288 -14.925 -0.04 -0.00    +0.026 C 
DOCKED: ATOM     15  C   UNL d   1      18.208  24.365 -11.167 -0.17 -0.01    +0.055 C 
DOCKED: ATOM     16  C   UNL d   1      19.944  24.019  -8.510 -0.25 -0.01    +0.026 C 
DOCKED: ATOM     17  C   UNL d   1      19.151  21.167 -10.293 -0.02 -0.05    +0.109 A 
DOCKED: ATOM     18  C   UNL d   1      13.811  23.345 -12.982 -0.14 -0.02    +0.050 C 
DOCKED: ATOM     19  C   UNL d   1      13.429  22.109 -12.401 -0.14 -0.02    +0.045 A 
DOCKED: ATOM     20  C   UNL d   1      17.955  19.067 -10.614 -0.08 -0.04    +0.045 A 
DOCKED: ATOM     21  C   UNL d   1      19.086  19.698 -10.282 -0.08 -0.04    +0.057 C 
DOCKED: ATOM     22  C   UNL d   1      16.496  17.366 -11.055 -0.09 +0.02    -0.019 A 
DOCKED: ATOM     23  C   UNL d   1      15.793  18.652 -11.228 -0.11 -0.04    +0.045 A 
DOCKED: ATOM     24  C   UNL d   1      17.775  17.618 -10.690 -0.12 +0.02    -0.022 A 
DOCKED: ATOM     25  C   UNL d   1      13.764  19.981 -11.711 -0.14 -0.03    +0.049 A 
DOCKED: ATOM     26  C   UNL d   1      12.197  21.614 -12.003 -0.20 +0.01    -0.018 A 
DOCKED: ATOM     27  C   UNL d   1      12.418  20.276 -11.550 -0.17 -0.00    +0.003 A 
DOCKED: ATOM     28  C   UNL d   1      14.500  18.773 -11.569 -0.14 -0.04    +0.052 C 
DOCKED: ATOM     29  C   UNL d   1      18.868  16.649 -10.389 -0.09 -0.03    +0.046 C 
DOCKED: ATOM     30  C   UNL d   1      10.893  22.337 -12.039 -0.10 -0.04    +0.046 C 
DOCKED: ATOM     31  H   UNL d   1      16.571  20.601 -10.893 -0.02 -0.13    +0.166 HD
DOCKED: ATOM     32  H   UNL d   1      15.347  21.222 -12.420 +0.04 -0.07    +0.166 HD
DOCKED: ENDROOT
DOCKED: BRANCH   7  33
DOCKED: ATOM     33  C   UNL d   1      14.318  26.452 -12.968 -0.22 -0.05    +0.141 C 
DOCKED: BRANCH  33  34
DOCKED: ATOM     34  C   UNL d   1      14.165  26.534 -11.473 -0.22 -0.15    +0.306 C 
DOCKED: ATOM     35  O   UNL d   1      13.567  25.741 -10.766 -0.40 +0.19    -0.251 OA
DOCKED: BRANCH  34  36
DOCKED: ATOM     36  O   UNL d   1      14.776  27.611 -10.948 -0.70 +0.15    -0.481 OA
DOCKED: ATOM     37  H   UNL d   1      14.134  27.967 -10.298 -0.16 -0.22    +0.295 HD
DOCKED: ENDBRANCH  34  36
DOCKED: ENDBRANCH  33  34
DOCKED: ENDBRANCH   7  33
DOCKED: BRANCH  27  38
DOCKED: ATOM     38  C   UNL d   1      11.402  19.391 -11.064 -0.21 -0.00    +0.017 C 
DOCKED: ATOM     39  C   UNL d   1      11.316  18.928  -9.807 -0.27 -0.00    +0.092 C 
DOCKED: BRANCH  39  40
DOCKED: ATOM     40  C   UNL d   1      10.214  18.039  -9.432 -0.09 +0.13    +0.330 C 
DOCKED: ATOM     41  O   UNL d   1      10.227  17.145  -8.606 -0.12 -0.04    -0.246 OA
DOCKED: BRANCH  40  42
DOCKED: ATOM     42  O   UNL d   1       9.114  18.344 -10.137 -0.48 -0.58    -0.477 OA
DOCKED: ATOM     43  H   UNL d   1       9.012  17.587 -10.751 +0.04 +0.17    +0.295 HD
DOCKED: ENDBRANCH  40  42
DOCKED: ENDBRANCH  39  40
DOCKED: ENDBRANCH  27  38
DOCKED: BRANCH   8  44
DOCKED: ATOM     44  C   UNL d   1      21.309  23.948 -10.638 -0.03 -0.03    +0.141 C 
DOCKED: BRANCH  44  45
DOCKED: ATOM     45  C   UNL d   1      21.653  23.193 -11.893 -0.00 -0.04    +0.306 C 
DOCKED: ATOM     46  O   UNL d   1      21.227  23.413 -13.014 -0.00 +0.03    -0.251 OA
DOCKED: BRANCH  45  47
DOCKED: ATOM     47  O   UNL d   1      22.500  22.173 -11.665 +0.00 +0.06    -0.481 OA
DOCKED: ATOM     48  H   UNL d   1      22.440  22.013 -10.699 +0.01 -0.05    +0.295 HD
DOCKED: ENDBRANCH  45  47
DOCKED: ENDBRANCH  44  45
DOCKED: ENDBRANCH   8  44
DOCKED: BRANCH  22  49
DOCKED: ATOM     49  C   UNL d   1      15.863  16.023 -11.275 -0.08 -0.03    +0.048 C 
DOCKED: BRANCH  49  50
DOCKED: ATOM     50  C   UNL d   1      15.694  15.252  -9.966 -0.02 -0.14    +0.125 C 
DOCKED: BRANCH  50  51
DOCKED: ATOM     51  C   UNL d   1      14.263  15.274  -9.511 -0.00 -0.31    +0.305 C 
DOCKED: ATOM     52  O   UNL d   1      13.270  15.470 -10.190 -0.05 +0.14    -0.251 OA
DOCKED: BRANCH  51  53
DOCKED: ATOM     53  O   UNL d   1      14.151  15.055  -8.186 -0.03 +0.61    -0.481 OA
DOCKED: ATOM     54  H   UNL d   1      14.771  15.700  -7.785 -0.37 -0.87    +0.295 HD
DOCKED: ENDBRANCH  51  53
DOCKED: ENDBRANCH  50  51
DOCKED: ENDBRANCH  49  50
DOCKED: ENDBRANCH  22  49
DOCKED: TORSDOF 13
DOCKED: TER
DOCKED: ENDMDL
________________________________________________________________________________


	BEGINNING GENETIC ALGORITHM DOCKING 88 of 100
Run: 88 Seed: 674792601 1805259275 [ Run 88 of 100 GA/GALS ]
Beginning LAMARCKIAN GENETIC ALGORITHM (LGA), with a maximum of 25000000 energy evaluations.

Final-Value: -14.080


	FINAL GENETIC ALGORITHM DOCKED STATE
	_______________________________________________


Detailed state:  trans 12.326 39.327 25.439 quatxyzw 0.774488 -0.448118 0.373517 -0.244629 center 0.153 0.018 -0.028 ntor 13 90.9181 169.6315 -110.5296 43.1508 -132.5545 32.0866 128.9389 77.7079 46.2836 -35.9206 -64.4542 -73.8204 -6.2116
State:	 12.326  39.327  25.439   0.799 -0.462  0.385 -151.680     90.92  169.63 -110.53   43.15 -132.55   32.09  128.94   77.71   46.28  -35.92  -64.45  -73.82   -6.21

DOCKED: MODEL       88
DOCKED: USER    Run = 88
DOCKED: USER    DPF = D:/Protein_go_brrr/autodock/final/6BB5/heme/dock.dpf
DOCKED: USER  
DOCKED: USER    Estimated Free Energy of Binding    =   -5.46 kcal/mol  [=(1)+(2)+(3)-(4)]
DOCKED: USER    Estimated Inhibition Constant, Ki   =   99.39 uM (micromolar)  [Temperature = 298.15 K]
DOCKED: USER    
DOCKED: USER    (1) Final Intermolecular Energy     =   -9.34 kcal/mol
DOCKED: USER        vdW + Hbond + desolv Energy     =   -9.25 kcal/mol
DOCKED: USER        Electrostatic Energy            =   -0.09 kcal/mol
DOCKED: USER    (2) Final Total Internal Energy     =   -4.74 kcal/mol
DOCKED: USER    (3) Torsional Free Energy           =   +3.88 kcal/mol
DOCKED: USER    (4) Unbound System's Energy  [=(2)] =   -4.74 kcal/mol
DOCKED: USER    
DOCKED: USER    
DOCKED: USER    NEWDPF move heme_opt.pdbqt
DOCKED: USER    NEWDPF about 0.153000 0.018000 -0.028000
DOCKED: USER    NEWDPF tran0 12.326223 39.326918 25.439142
DOCKED: USER    NEWDPF quaternion0 0.774488 -0.448118 0.373517 -0.244629
DOCKED: USER    NEWDPF axisangle0 0.798757 -0.462160 0.385221 -151.680156
DOCKED: USER    NEWDPF quat0 0.798757 -0.462160 0.385221 -151.680156
DOCKED: USER    NEWDPF dihe0 90.92 169.63 -110.53 43.15 -132.55 32.09 128.94 77.71 46.28 -35.92 -64.45 -73.82 -6.21 
DOCKED: USER  keepresnum = 1 
DOCKED: USER  
DOCKED: REMARK  13 active torsions:
DOCKED: REMARK  status: ('A' for Active; 'I' for Inactive)
DOCKED: REMARK    1  A    between atoms: O_3  and  C_38 
DOCKED: REMARK    2  A    between atoms: O_4  and  C_40 
DOCKED: REMARK    3  A    between atoms: O_7  and  C_46 
DOCKED: REMARK    4  A    between atoms: O_9  and  C_48 
DOCKED: REMARK    5  A    between atoms: C_15  and  C_20 
DOCKED: REMARK    6  A    between atoms: C_16  and  C_23 
DOCKED: REMARK    7  A    between atoms: C_20  and  C_38 
DOCKED: REMARK    8  A    between atoms: C_23  and  C_40 
DOCKED: REMARK    9  A    between atoms: C_32  and  C_41 
DOCKED: REMARK   10  A    between atoms: C_37  and  C_45 
DOCKED: REMARK   11  A    between atoms: C_41  and  C_44 
DOCKED: REMARK   12  A    between atoms: C_44  and  C_46 
DOCKED: REMARK   13  A    between atoms: C_47  and  C_48 
DOCKED: USER                              x       y       z     vdW  Elec       q    Type
DOCKED: USER                           _______ _______ _______ _____ _____    ______ ____
DOCKED: ROOT
DOCKED: ATOM      1  O   UNL d   1       9.286  40.925  20.648 -0.02 +0.01    -0.289 OA
DOCKED: ATOM      2  O   UNL d   1      15.160  44.132  24.055 -0.10 +0.03    -0.289 OA
DOCKED: ATOM      3  N   UNL d   1      10.669  39.681  23.552 -0.14 +0.06    -0.247 NA
DOCKED: ATOM      4  N   UNL d   1      13.065  41.391  23.955 -0.12 +0.07    -0.247 NA
DOCKED: ATOM      5  N   UNL d   1      13.979  39.491  25.909 -0.09 +0.12    -0.354 N 
DOCKED: ATOM      6  N   UNL d   1      11.500  37.713  25.471 -0.15 +0.14    -0.354 N 
DOCKED: ATOM      7  C   UNL d   1       8.933  38.919  21.999 -0.28 -0.01    +0.084 A 
DOCKED: ATOM      8  C   UNL d   1      13.010  43.637  22.994 -0.10 -0.01    +0.084 A 
DOCKED: ATOM      9  C   UNL d   1      12.352  42.264  23.164 -0.19 -0.01    +0.058 A 
DOCKED: ATOM     10  C   UNL d   1       9.757  38.678  23.267 -0.28 -0.01    +0.058 A 
DOCKED: ATOM     11  C   UNL d   1       9.527  40.245  21.628 -0.10 -0.01    +0.193 A 
DOCKED: ATOM     12  C   UNL d   1      10.549  40.610  22.660 -0.19 -0.01    +0.109 A 
DOCKED: ATOM     13  C   UNL d   1      14.247  43.369  23.803 -0.10 -0.03    +0.193 A 
DOCKED: ATOM     14  C   UNL d   1       9.259  37.905  20.900 -0.55 -0.00    +0.026 C 
DOCKED: ATOM     15  C   UNL d   1      11.206  41.928  22.552 -0.20 -0.01    +0.055 C 
DOCKED: ATOM     16  C   UNL d   1      12.203  44.743  23.680 -0.04 -0.00    +0.026 C 
DOCKED: ATOM     17  C   UNL d   1      14.162  41.971  24.324 -0.18 -0.02    +0.109 A 
DOCKED: ATOM     18  C   UNL d   1       9.528  37.618  24.064 -0.30 -0.01    +0.050 C 
DOCKED: ATOM     19  C   UNL d   1      10.181  37.359  25.296 -0.25 -0.01    +0.045 A 
DOCKED: ATOM     20  C   UNL d   1      15.102  40.269  25.794 -0.25 -0.01    +0.045 A 
DOCKED: ATOM     21  C   UNL d   1      15.263  41.413  25.121 -0.28 -0.01    +0.057 C 
DOCKED: ATOM     22  C   UNL d   1      15.585  38.464  27.109 -0.24 +0.00    -0.019 A 
DOCKED: ATOM     23  C   UNL d   1      14.174  38.379  26.684 -0.26 -0.01    +0.045 A 
DOCKED: ATOM     24  C   UNL d   1      16.129  39.586  26.580 -0.28 +0.00    -0.022 A 
DOCKED: ATOM     25  C   UNL d   1      11.955  37.289  26.698 -0.27 -0.02    +0.049 A 
DOCKED: ATOM     26  C   UNL d   1       9.758  36.722  26.452 -0.24 +0.00    -0.018 A 
DOCKED: ATOM     27  C   UNL d   1      10.876  36.698  27.342 -0.21 -0.00    +0.003 A 
DOCKED: ATOM     28  C   UNL d   1      13.329  37.400  27.044 -0.32 -0.02    +0.052 C 
DOCKED: ATOM     29  C   UNL d   1      17.516  40.111  26.731 -0.29 -0.00    +0.046 C 
DOCKED: ATOM     30  C   UNL d   1       8.398  36.171  26.718 -0.24 +0.00    +0.046 C 
DOCKED: ATOM     31  H   UNL d   1      13.092  39.785  25.514 -0.20 -0.07    +0.166 HD
DOCKED: ATOM     32  H   UNL d   1      12.052  38.183  24.764 -0.45 -0.12    +0.166 HD
DOCKED: ENDROOT
DOCKED: BRANCH   7  33
DOCKED: ATOM     33  C   UNL d   1       7.421  39.049  22.214 -0.23 -0.01    +0.141 C 
DOCKED: BRANCH  33  34
DOCKED: ATOM     34  C   UNL d   1       6.978  40.479  22.369 -0.07 -0.01    +0.306 C 
DOCKED: ATOM     35  O   UNL d   1       7.084  41.161  23.374 -0.02 +0.01    -0.251 OA
DOCKED: BRANCH  34  36
DOCKED: ATOM     36  O   UNL d   1       6.428  40.976  21.247 -0.29 -0.05    -0.481 OA
DOCKED: ATOM     37  H   UNL d   1       7.177  41.386  20.765 +0.10 +0.02    +0.295 HD
DOCKED: ENDBRANCH  34  36
DOCKED: ENDBRANCH  33  34
DOCKED: ENDBRANCH   7  33
DOCKED: BRANCH  27  38
DOCKED: ATOM     38  C   UNL d   1      10.878  36.116  28.650 -0.17 -0.01    +0.017 C 
DOCKED: ATOM     39  C   UNL d   1      11.907  35.455  29.202 -0.09 -0.05    +0.092 C 
DOCKED: BRANCH  39  40
DOCKED: ATOM     40  C   UNL d   1      11.787  34.920  30.560 -0.06 -0.05    +0.330 C 
DOCKED: ATOM     41  O   UNL d   1      10.779  34.533  31.120 -0.05 -0.01    -0.246 OA
DOCKED: BRANCH  40  42
DOCKED: ATOM     42  O   UNL d   1      12.989  34.895  31.155 -0.00 +0.06    -0.477 OA
DOCKED: ATOM     43  H   UNL d   1      13.615  35.088  30.427 +0.08 -0.07    +0.295 HD
DOCKED: ENDBRANCH  40  42
DOCKED: ENDBRANCH  39  40
DOCKED: ENDBRANCH  27  38
DOCKED: BRANCH   8  44
DOCKED: ATOM     44  C   UNL d   1      13.369  44.024  21.555 -0.17 -0.03    +0.141 C 
DOCKED: BRANCH  44  45
DOCKED: ATOM     45  C   UNL d   1      14.712  43.504  21.117 -0.27 -0.08    +0.306 C 
DOCKED: ATOM     46  O   UNL d   1      14.950  42.399  20.661 -0.44 +0.09    -0.251 OA
DOCKED: BRANCH  45  47
DOCKED: ATOM     47  O   UNL d   1      15.697  44.401  21.304 -0.14 +0.12    -0.481 OA
DOCKED: ATOM     48  H   UNL d   1      15.789  44.468  22.279 +0.13 -0.05    +0.295 HD
DOCKED: ENDBRANCH  45  47
DOCKED: ENDBRANCH  44  45
DOCKED: ENDBRANCH   8  44
DOCKED: BRANCH  22  49
DOCKED: ATOM     49  C   UNL d   1      16.269  37.444  27.971 -0.32 -0.01    +0.048 C 
DOCKED: BRANCH  49  50
DOCKED: ATOM     50  C   UNL d   1      16.130  37.771  29.458 -0.15 -0.01    +0.125 C 
DOCKED: BRANCH  50  51
DOCKED: ATOM     51  C   UNL d   1      15.348  36.705  30.171 -0.07 -0.02    +0.305 C 
DOCKED: ATOM     52  O   UNL d   1      15.706  35.570  30.432 -0.13 +0.01    -0.251 OA
DOCKED: BRANCH  51  53
DOCKED: ATOM     53  O   UNL d   1      14.116  37.129  30.517 +0.02 +0.05    -0.481 OA
DOCKED: ATOM     54  H   UNL d   1      13.995  36.789  31.428 +0.04 -0.02    +0.295 HD
DOCKED: ENDBRANCH  51  53
DOCKED: ENDBRANCH  50  51
DOCKED: ENDBRANCH  49  50
DOCKED: ENDBRANCH  22  49
DOCKED: TORSDOF 13
DOCKED: TER
DOCKED: ENDMDL
________________________________________________________________________________


	BEGINNING GENETIC ALGORITHM DOCKING 89 of 100
Run: 89 Seed: 1342231781 1756408014 [ Run 89 of 100 GA/GALS ]
Beginning LAMARCKIAN GENETIC ALGORITHM (LGA), with a maximum of 25000000 energy evaluations.

Final-Value: -11.862


	FINAL GENETIC ALGORITHM DOCKED STATE
	_______________________________________________


Detailed state:  trans 11.815 36.039 28.384 quatxyzw 0.655342 0.641344 -0.136912 -0.374780 center 0.153 0.018 -0.028 ntor 13 180.0000 -138.4654 -81.7185 59.0727 -8.3586 22.0288 152.2872 -87.6782 -139.8174 -83.9287 -81.1127 -70.1866 -14.7324
State:	 11.815  36.039  28.384   0.707  0.692 -0.148 -135.979    180.00 -138.47  -81.72   59.07   -8.36   22.03  152.29  -87.68 -139.82  -83.93  -81.11  -70.19  -14.73

DOCKED: MODEL       89
DOCKED: USER    Run = 89
DOCKED: USER    DPF = D:/Protein_go_brrr/autodock/final/6BB5/heme/dock.dpf
DOCKED: USER  
DOCKED: USER    Estimated Free Energy of Binding    =   -4.27 kcal/mol  [=(1)+(2)+(3)-(4)]
DOCKED: USER    Estimated Inhibition Constant, Ki   =  743.45 uM (micromolar)  [Temperature = 298.15 K]
DOCKED: USER    
DOCKED: USER    (1) Final Intermolecular Energy     =   -8.15 kcal/mol
DOCKED: USER        vdW + Hbond + desolv Energy     =   -8.03 kcal/mol
DOCKED: USER        Electrostatic Energy            =   -0.11 kcal/mol
DOCKED: USER    (2) Final Total Internal Energy     =   -3.72 kcal/mol
DOCKED: USER    (3) Torsional Free Energy           =   +3.88 kcal/mol
DOCKED: USER    (4) Unbound System's Energy  [=(2)] =   -3.72 kcal/mol
DOCKED: USER    
DOCKED: USER    
DOCKED: USER    NEWDPF move heme_opt.pdbqt
DOCKED: USER    NEWDPF about 0.153000 0.018000 -0.028000
DOCKED: USER    NEWDPF tran0 11.814871 36.039281 28.384141
DOCKED: USER    NEWDPF quaternion0 0.655342 0.641344 -0.136912 -0.374780
DOCKED: USER    NEWDPF axisangle0 0.706863 0.691764 -0.147675 -135.978567
DOCKED: USER    NEWDPF quat0 0.706863 0.691764 -0.147675 -135.978567
DOCKED: USER    NEWDPF dihe0 180.00 -138.47 -81.72 59.07 -8.36 22.03 152.29 -87.68 -139.82 -83.93 -81.11 -70.19 -14.73 
DOCKED: USER  keepresnum = 1 
DOCKED: USER  
DOCKED: REMARK  13 active torsions:
DOCKED: REMARK  status: ('A' for Active; 'I' for Inactive)
DOCKED: REMARK    1  A    between atoms: O_3  and  C_38 
DOCKED: REMARK    2  A    between atoms: O_4  and  C_40 
DOCKED: REMARK    3  A    between atoms: O_7  and  C_46 
DOCKED: REMARK    4  A    between atoms: O_9  and  C_48 
DOCKED: REMARK    5  A    between atoms: C_15  and  C_20 
DOCKED: REMARK    6  A    between atoms: C_16  and  C_23 
DOCKED: REMARK    7  A    between atoms: C_20  and  C_38 
DOCKED: REMARK    8  A    between atoms: C_23  and  C_40 
DOCKED: REMARK    9  A    between atoms: C_32  and  C_41 
DOCKED: REMARK   10  A    between atoms: C_37  and  C_45 
DOCKED: REMARK   11  A    between atoms: C_41  and  C_44 
DOCKED: REMARK   12  A    between atoms: C_44  and  C_46 
DOCKED: REMARK   13  A    between atoms: C_47  and  C_48 
DOCKED: USER                              x       y       z     vdW  Elec       q    Type
DOCKED: USER                           _______ _______ _______ _____ _____    ______ ____
DOCKED: ROOT
DOCKED: ATOM      1  O   UNL d   1      12.818  31.641  32.180 -0.02 -0.00    -0.289 OA
DOCKED: ATOM      2  O   UNL d   1       6.397  34.630  29.685 -0.06 -0.09    -0.289 OA
DOCKED: ATOM      3  N   UNL d   1      12.723  34.337  30.030 -0.10 +0.11    -0.247 NA
DOCKED: ATOM      4  N   UNL d   1       9.834  34.594  29.385 -0.40 -0.10    -0.247 NA
DOCKED: ATOM      5  N   UNL d   1      10.566  36.358  27.236 -0.11 +0.14    -0.354 N 
DOCKED: ATOM      6  N   UNL d   1      13.563  36.070  27.900 -0.12 +0.26    -0.354 N 
DOCKED: ATOM      7  C   UNL d   1      14.500  32.920  30.950 -0.14 -0.01    +0.084 A 
DOCKED: ATOM      8  C   UNL d   1       8.241  33.754  31.036 -0.06 +0.04    +0.084 A 
DOCKED: ATOM      9  C   UNL d   1       9.693  33.918  30.576 -0.09 +0.03    +0.058 A 
DOCKED: ATOM     10  C   UNL d   1      14.086  34.091  30.053 -0.17 -0.02    +0.058 A 
DOCKED: ATOM     11  C   UNL d   1      13.131  32.560  31.444 -0.07 -0.01    +0.193 A 
DOCKED: ATOM     12  C   UNL d   1      12.144  33.507  30.835 -0.11 -0.02    +0.109 A 
DOCKED: ATOM     13  C   UNL d   1       7.582  34.428  29.866 -0.07 +0.11    +0.193 A 
DOCKED: ATOM     14  C   UNL d   1      15.059  31.747  30.141 -0.02 -0.00    +0.026 C 
DOCKED: ATOM     15  C   UNL d   1      10.731  33.402  31.252 -0.10 +0.01    +0.055 C 
DOCKED: ATOM     16  C   UNL d   1       7.950  34.567  32.301 -0.01 +0.00    +0.026 C 
DOCKED: ATOM     17  C   UNL d   1       8.657  34.886  28.934 -0.08 +0.06    +0.109 A 
DOCKED: ATOM     18  C   UNL d   1      15.001  34.853  29.425 -0.29 -0.01    +0.050 C 
DOCKED: ATOM     19  C   UNL d   1      14.718  36.004  28.646 -0.30 -0.02    +0.045 A 
DOCKED: ATOM     20  C   UNL d   1       9.239  36.175  26.948 -0.23 -0.00    +0.045 A 
DOCKED: ATOM     21  C   UNL d   1       8.304  35.547  27.669 -0.15 +0.01    +0.057 C 
DOCKED: ATOM     22  C   UNL d   1      10.208  37.348  25.244 -0.26 +0.00    -0.019 A 
DOCKED: ATOM     23  C   UNL d   1      11.235  37.056  26.265 -0.27 -0.02    +0.045 A 
DOCKED: ATOM     24  C   UNL d   1       9.028  36.826  25.655 -0.26 +0.00    -0.022 A 
DOCKED: ATOM     25  C   UNL d   1      13.534  37.227  27.155 -0.29 -0.02    +0.049 A 
DOCKED: ATOM     26  C   UNL d   1      15.441  37.162  28.408 -0.26 +0.00    -0.018 A 
DOCKED: ATOM     27  C   UNL d   1      14.680  37.940  27.482 -0.25 -0.00    +0.003 A 
DOCKED: ATOM     28  C   UNL d   1      12.516  37.446  26.188 -0.31 -0.02    +0.052 C 
DOCKED: ATOM     29  C   UNL d   1       7.702  36.870  24.977 -0.29 -0.00    +0.046 C 
DOCKED: ATOM     30  C   UNL d   1      16.757  37.529  29.006 -0.28 -0.00    +0.046 C 
DOCKED: ATOM     31  H   UNL d   1      10.958  36.064  28.124 -0.00 -0.08    +0.166 HD
DOCKED: ATOM     32  H   UNL d   1      12.863  35.338  27.884 -0.43 -0.27    +0.166 HD
DOCKED: ENDROOT
DOCKED: BRANCH   7  33
DOCKED: ATOM     33  C   UNL d   1      15.417  33.283  32.122 -0.08 +0.01    +0.141 C 
DOCKED: BRANCH  33  34
DOCKED: ATOM     34  C   UNL d   1      16.876  33.150  31.779 -0.12 +0.05    +0.306 C 
DOCKED: ATOM     35  O   UNL d   1      17.418  33.556  30.765 -0.22 -0.06    -0.251 OA
DOCKED: BRANCH  34  36
DOCKED: ATOM     36  O   UNL d   1      17.577  32.513  32.734 -0.05 -0.13    -0.481 OA
DOCKED: ATOM     37  H   UNL d   1      16.923  32.336  33.444 +0.04 +0.05    +0.295 HD
DOCKED: ENDBRANCH  34  36
DOCKED: ENDBRANCH  33  34
DOCKED: ENDBRANCH   7  33
DOCKED: BRANCH  27  38
DOCKED: ATOM     38  C   UNL d   1      15.072  39.211  26.954 -0.27 -0.00    +0.017 C 
DOCKED: ATOM     39  C   UNL d   1      14.790  39.658  25.720 -0.17 -0.03    +0.092 C 
DOCKED: BRANCH  39  40
DOCKED: ATOM     40  C   UNL d   1      15.236  40.991  25.307 -0.17 -0.07    +0.330 C 
DOCKED: ATOM     41  O   UNL d   1      16.122  41.664  25.798 -0.15 +0.03    -0.246 OA
DOCKED: BRANCH  40  42
DOCKED: ATOM     42  O   UNL d   1      14.520  41.411  24.252 -0.11 +0.13    -0.477 OA
DOCKED: ATOM     43  H   UNL d   1      13.605  41.137  24.466 +0.01 -0.09    +0.295 HD
DOCKED: ENDBRANCH  40  42
DOCKED: ENDBRANCH  39  40
DOCKED: ENDBRANCH  27  38
DOCKED: BRANCH   8  44
DOCKED: ATOM     44  C   UNL d   1       7.754  32.308  31.181 -0.06 +0.08    +0.141 C 
DOCKED: BRANCH  44  45
DOCKED: ATOM     45  C   UNL d   1       6.405  32.070  30.556 -0.05 +0.15    +0.306 C 
DOCKED: ATOM     46  O   UNL d   1       6.178  31.443  29.536 -0.06 -0.16    -0.251 OA
DOCKED: BRANCH  45  47
DOCKED: ATOM     47  O   UNL d   1       5.409  32.662  31.240 +0.00 -0.10    -0.481 OA
DOCKED: ATOM     48  H   UNL d   1       5.248  33.504  30.764 +0.02 +0.06    +0.295 HD
DOCKED: ENDBRANCH  45  47
DOCKED: ENDBRANCH  44  45
DOCKED: ENDBRANCH   8  44
DOCKED: BRANCH  22  49
DOCKED: ATOM     49  C   UNL d   1      10.476  38.091  23.969 -0.26 -0.01    +0.048 C 
DOCKED: BRANCH  49  50
DOCKED: ATOM     50  C   UNL d   1      10.088  39.566  24.077 -0.18 -0.02    +0.125 C 
DOCKED: BRANCH  50  51
DOCKED: ATOM     51  C   UNL d   1      11.296  40.421  24.335 -0.00 -0.08    +0.305 C 
DOCKED: ATOM     52  O   UNL d   1      11.726  40.794  25.412 -0.08 +0.05    -0.251 OA
DOCKED: BRANCH  51  53
DOCKED: ATOM     53  O   UNL d   1      11.911  40.783  23.191 -0.09 +0.12    -0.481 OA
DOCKED: ATOM     54  H   UNL d   1      12.821  40.431  23.288 -0.39 -0.16    +0.295 HD
DOCKED: ENDBRANCH  51  53
DOCKED: ENDBRANCH  50  51
DOCKED: ENDBRANCH  49  50
DOCKED: ENDBRANCH  22  49
DOCKED: TORSDOF 13
DOCKED: TER
DOCKED: ENDMDL
________________________________________________________________________________


	BEGINNING GENETIC ALGORITHM DOCKING 90 of 100
Run: 90 Seed: 241900178 101152543 [ Run 90 of 100 GA/GALS ]
Beginning LAMARCKIAN GENETIC ALGORITHM (LGA), with a maximum of 25000000 energy evaluations.

Final-Value: -13.393


	FINAL GENETIC ALGORITHM DOCKED STATE
	_______________________________________________


Detailed state:  trans 12.318 39.187 25.438 quatxyzw -0.777026 0.448767 -0.371110 0.238987 center 0.153 0.018 -0.028 ntor 13 110.7588 -142.9345 -120.6944 -45.5588 177.9756 -59.3923 128.0463 -119.3037 -19.3669 -31.3681 -91.5942 6.0187 -13.1533
State:	 12.318  39.187  25.438  -0.800  0.462 -0.382 152.346    110.76 -142.93 -120.69  -45.56  177.98  -59.39  128.05 -119.30  -19.37  -31.37  -91.59    6.02  -13.15

DOCKED: MODEL       90
DOCKED: USER    Run = 90
DOCKED: USER    DPF = D:/Protein_go_brrr/autodock/final/6BB5/heme/dock.dpf
DOCKED: USER  
DOCKED: USER    Estimated Free Energy of Binding    =   -4.87 kcal/mol  [=(1)+(2)+(3)-(4)]
DOCKED: USER    Estimated Inhibition Constant, Ki   =  269.30 uM (micromolar)  [Temperature = 298.15 K]
DOCKED: USER    
DOCKED: USER    (1) Final Intermolecular Energy     =   -8.75 kcal/mol
DOCKED: USER        vdW + Hbond + desolv Energy     =   -8.79 kcal/mol
DOCKED: USER        Electrostatic Energy            =   +0.05 kcal/mol
DOCKED: USER    (2) Final Total Internal Energy     =   -4.64 kcal/mol
DOCKED: USER    (3) Torsional Free Energy           =   +3.88 kcal/mol
DOCKED: USER    (4) Unbound System's Energy  [=(2)] =   -4.64 kcal/mol
DOCKED: USER    
DOCKED: USER    
DOCKED: USER    NEWDPF move heme_opt.pdbqt
DOCKED: USER    NEWDPF about 0.153000 0.018000 -0.028000
DOCKED: USER    NEWDPF tran0 12.318325 39.186613 25.437755
DOCKED: USER    NEWDPF quaternion0 -0.777026 0.448767 -0.371110 0.238987
DOCKED: USER    NEWDPF axisangle0 -0.800215 0.462159 -0.382185 152.346433
DOCKED: USER    NEWDPF quat0 -0.800215 0.462159 -0.382185 152.346433
DOCKED: USER    NEWDPF dihe0 110.76 -142.93 -120.69 -45.56 177.98 -59.39 128.05 -119.30 -19.37 -31.37 -91.59 6.02 -13.15 
DOCKED: USER  keepresnum = 1 
DOCKED: USER  
DOCKED: REMARK  13 active torsions:
DOCKED: REMARK  status: ('A' for Active; 'I' for Inactive)
DOCKED: REMARK    1  A    between atoms: O_3  and  C_38 
DOCKED: REMARK    2  A    between atoms: O_4  and  C_40 
DOCKED: REMARK    3  A    between atoms: O_7  and  C_46 
DOCKED: REMARK    4  A    between atoms: O_9  and  C_48 
DOCKED: REMARK    5  A    between atoms: C_15  and  C_20 
DOCKED: REMARK    6  A    between atoms: C_16  and  C_23 
DOCKED: REMARK    7  A    between atoms: C_20  and  C_38 
DOCKED: REMARK    8  A    between atoms: C_23  and  C_40 
DOCKED: REMARK    9  A    between atoms: C_32  and  C_41 
DOCKED: REMARK   10  A    between atoms: C_37  and  C_45 
DOCKED: REMARK   11  A    between atoms: C_41  and  C_44 
DOCKED: REMARK   12  A    between atoms: C_44  and  C_46 
DOCKED: REMARK   13  A    between atoms: C_47  and  C_48 
DOCKED: USER                              x       y       z     vdW  Elec       q    Type
DOCKED: USER                           _______ _______ _______ _____ _____    ______ ____
DOCKED: ROOT
DOCKED: ATOM      1  O   UNL d   1       9.270  40.832  20.667 -0.02 +0.01    -0.289 OA
DOCKED: ATOM      2  O   UNL d   1      15.131  44.021  24.113 -0.10 +0.03    -0.289 OA
DOCKED: ATOM      3  N   UNL d   1      10.659  39.557  23.555 -0.15 +0.06    -0.247 NA
DOCKED: ATOM      4  N   UNL d   1      13.048  41.273  23.979 -0.04 +0.07    -0.247 NA
DOCKED: ATOM      5  N   UNL d   1      13.970  39.352  25.910 -0.09 +0.13    -0.354 N 
DOCKED: ATOM      6  N   UNL d   1      11.499  37.568  25.449 -0.16 +0.14    -0.354 N 
DOCKED: ATOM      7  C   UNL d   1       8.925  38.808  21.993 -0.29 -0.01    +0.084 A 
DOCKED: ATOM      8  C   UNL d   1      12.983  43.530  23.047 -0.10 -0.01    +0.084 A 
DOCKED: ATOM      9  C   UNL d   1      12.331  42.152  23.200 -0.20 -0.01    +0.058 A 
DOCKED: ATOM     10  C   UNL d   1       9.752  38.555  23.258 -0.29 -0.01    +0.058 A 
DOCKED: ATOM     11  C   UNL d   1       9.514  40.140  21.639 -0.11 -0.01    +0.193 A 
DOCKED: ATOM     12  C   UNL d   1      10.534  40.497  22.675 -0.19 -0.01    +0.109 A 
DOCKED: ATOM     13  C   UNL d   1      14.222  43.258  23.852 -0.10 -0.03    +0.193 A 
DOCKED: ATOM     14  C   UNL d   1       9.256  37.809  20.882 -0.56 -0.00    +0.026 C 
DOCKED: ATOM     15  C   UNL d   1      11.186  41.819  22.584 -0.21 -0.01    +0.055 C 
DOCKED: ATOM     16  C   UNL d   1      12.171  44.624  23.747 -0.04 -0.00    +0.026 C 
DOCKED: ATOM     17  C   UNL d   1      14.142  41.853  24.355 -0.19 -0.02    +0.109 A 
DOCKED: ATOM     18  C   UNL d   1       9.527  37.483  24.042 -0.30 -0.01    +0.050 C 
DOCKED: ATOM     19  C   UNL d   1      10.181  37.211  25.270 -0.23 -0.01    +0.045 A 
DOCKED: ATOM     20  C   UNL d   1      15.090  40.136  25.804 -0.26 -0.01    +0.045 A 
DOCKED: ATOM     21  C   UNL d   1      15.246  41.289  25.146 -0.28 -0.01    +0.057 C 
DOCKED: ATOM     22  C   UNL d   1      15.582  38.317  27.096 -0.22 +0.00    -0.019 A 
DOCKED: ATOM     23  C   UNL d   1      14.170  38.231  26.670 -0.27 -0.01    +0.045 A 
DOCKED: ATOM     24  C   UNL d   1      16.120  39.447  26.581 -0.29 +0.00    -0.022 A 
DOCKED: ATOM     25  C   UNL d   1      11.956  37.131  26.671 -0.29 -0.02    +0.049 A 
DOCKED: ATOM     26  C   UNL d   1       9.761  36.558  26.418 -0.25 +0.00    -0.018 A 
DOCKED: ATOM     27  C   UNL d   1      10.880  36.528  27.307 -0.22 -0.00    +0.003 A 
DOCKED: ATOM     28  C   UNL d   1      13.330  37.244  27.018 -0.33 -0.02    +0.052 C 
DOCKED: ATOM     29  C   UNL d   1      17.505  39.976  26.738 -0.30 -0.00    +0.046 C 
DOCKED: ATOM     30  C   UNL d   1       8.404  35.998  26.678 -0.17 +0.00    +0.046 C 
DOCKED: ATOM     31  H   UNL d   1      13.083  39.647  25.518 -0.23 -0.08    +0.166 HD
DOCKED: ATOM     32  H   UNL d   1      12.049  38.050  24.748 -0.44 -0.12    +0.166 HD
DOCKED: ENDROOT
DOCKED: BRANCH   7  33
DOCKED: ATOM     33  C   UNL d   1       7.413  38.929  22.210 -0.24 -0.01    +0.141 C 
DOCKED: BRANCH  33  34
DOCKED: ATOM     34  C   UNL d   1       7.064  39.445  23.579 -0.06 -0.03    +0.306 C 
DOCKED: ATOM     35  O   UNL d   1       6.290  38.929  24.368 -0.06 +0.02    -0.251 OA
DOCKED: BRANCH  34  36
DOCKED: ATOM     36  O   UNL d   1       7.710  40.585  23.884 +0.02 +0.03    -0.481 OA
DOCKED: ATOM     37  H   UNL d   1       8.640  40.310  24.029 +0.07 -0.03    +0.295 HD
DOCKED: ENDBRANCH  34  36
DOCKED: ENDBRANCH  33  34
DOCKED: ENDBRANCH   7  33
DOCKED: BRANCH  27  38
DOCKED: ATOM     38  C   UNL d   1      10.885  35.929  28.608 -0.16 -0.01    +0.017 C 
DOCKED: ATOM     39  C   UNL d   1      11.438  36.466  29.706 -0.08 -0.02    +0.092 C 
DOCKED: BRANCH  39  40
DOCKED: ATOM     40  C   UNL d   1      11.358  35.756  30.985 -0.01 -0.02    +0.330 C 
DOCKED: ATOM     41  O   UNL d   1      10.357  35.449  31.604 -0.01 -0.01    -0.246 OA
DOCKED: BRANCH  40  42
DOCKED: ATOM     42  O   UNL d   1      12.591  35.454  31.423 +0.01 +0.04    -0.477 OA
DOCKED: ATOM     43  H   UNL d   1      13.129  36.230  31.162 +0.04 -0.03    +0.295 HD
DOCKED: ENDBRANCH  40  42
DOCKED: ENDBRANCH  39  40
DOCKED: ENDBRANCH  27  38
DOCKED: BRANCH   8  44
DOCKED: ATOM     44  C   UNL d   1      13.339  43.937  21.613 -0.18 -0.03    +0.141 C 
DOCKED: BRANCH  44  45
DOCKED: ATOM     45  C   UNL d   1      14.634  43.338  21.130 -0.28 -0.08    +0.306 C 
DOCKED: ATOM     46  O   UNL d   1      14.787  42.229  20.649 -0.47 +0.08    -0.251 OA
DOCKED: BRANCH  45  47
DOCKED: ATOM     47  O   UNL d   1      15.680  44.166  21.306 -0.14 +0.13    -0.481 OA
DOCKED: ATOM     48  H   UNL d   1      15.698  44.342  22.270 +0.13 -0.05    +0.295 HD
DOCKED: ENDBRANCH  45  47
DOCKED: ENDBRANCH  44  45
DOCKED: ENDBRANCH   8  44
DOCKED: BRANCH  22  49
DOCKED: ATOM     49  C   UNL d   1      16.270  37.289  27.945 -0.26 -0.01    +0.048 C 
DOCKED: BRANCH  49  50
DOCKED: ATOM     50  C   UNL d   1      16.277  37.684  29.422 -0.17 -0.01    +0.125 C 
DOCKED: BRANCH  50  51
DOCKED: ATOM     51  C   UNL d   1      15.049  37.172  30.120 -0.05 -0.03    +0.305 C 
DOCKED: ATOM     52  O   UNL d   1      14.242  37.813  30.769 -0.01 +0.02    -0.251 OA
DOCKED: BRANCH  51  53
DOCKED: ATOM     53  O   UNL d   1      14.902  35.840  29.970 -0.05 +0.07    -0.481 OA
DOCKED: ATOM     54  H   UNL d   1      14.689  35.522  30.872 +0.08 -0.03    +0.295 HD
DOCKED: ENDBRANCH  51  53
DOCKED: ENDBRANCH  50  51
DOCKED: ENDBRANCH  49  50
DOCKED: ENDBRANCH  22  49
DOCKED: TORSDOF 13
DOCKED: TER
DOCKED: ENDMDL
________________________________________________________________________________


	BEGINNING GENETIC ALGORITHM DOCKING 91 of 100
Run: 91 Seed: 2046077274 1745800856 [ Run 91 of 100 GA/GALS ]
Beginning LAMARCKIAN GENETIC ALGORITHM (LGA), with a maximum of 25000000 energy evaluations.

Final-Value: -11.776


	FINAL GENETIC ALGORITHM DOCKED STATE
	_______________________________________________


Detailed state:  trans 17.622 23.989 -10.462 quatxyzw -0.357965 0.915828 -0.025560 -0.180185 center 0.153 0.018 -0.028 ntor 13 88.8158 160.7702 -75.1014 173.6092 -133.9501 14.1031 157.9814 64.5539 55.9116 -94.5827 -91.4512 -11.6939 -13.8245
State:	 17.622  23.989 -10.462  -0.364  0.931 -0.026 -159.239     88.82  160.77  -75.10  173.61 -133.95   14.10  157.98   64.55   55.91  -94.58  -91.45  -11.69  -13.82

DOCKED: MODEL       91
DOCKED: USER    Run = 91
DOCKED: USER    DPF = D:/Protein_go_brrr/autodock/final/6BB5/heme/dock.dpf
DOCKED: USER  
DOCKED: USER    Estimated Free Energy of Binding    =   -3.92 kcal/mol  [=(1)+(2)+(3)-(4)]
DOCKED: USER    Estimated Inhibition Constant, Ki   =    1.33 mM (millimolar)  [Temperature = 298.15 K]
DOCKED: USER    
DOCKED: USER    (1) Final Intermolecular Energy     =   -7.80 kcal/mol
DOCKED: USER        vdW + Hbond + desolv Energy     =   -7.33 kcal/mol
DOCKED: USER        Electrostatic Energy            =   -0.47 kcal/mol
DOCKED: USER    (2) Final Total Internal Energy     =   -3.98 kcal/mol
DOCKED: USER    (3) Torsional Free Energy           =   +3.88 kcal/mol
DOCKED: USER    (4) Unbound System's Energy  [=(2)] =   -3.98 kcal/mol
DOCKED: USER    
DOCKED: USER    
DOCKED: USER    NEWDPF move heme_opt.pdbqt
DOCKED: USER    NEWDPF about 0.153000 0.018000 -0.028000
DOCKED: USER    NEWDPF tran0 17.622485 23.988993 -10.462180
DOCKED: USER    NEWDPF quaternion0 -0.357965 0.915828 -0.025560 -0.180185
DOCKED: USER    NEWDPF axisangle0 -0.363921 0.931067 -0.025986 -159.238927
DOCKED: USER    NEWDPF quat0 -0.363921 0.931067 -0.025986 -159.238927
DOCKED: USER    NEWDPF dihe0 88.82 160.77 -75.10 173.61 -133.95 14.10 157.98 64.55 55.91 -94.58 -91.45 -11.69 -13.82 
DOCKED: USER  keepresnum = 1 
DOCKED: USER  
DOCKED: REMARK  13 active torsions:
DOCKED: REMARK  status: ('A' for Active; 'I' for Inactive)
DOCKED: REMARK    1  A    between atoms: O_3  and  C_38 
DOCKED: REMARK    2  A    between atoms: O_4  and  C_40 
DOCKED: REMARK    3  A    between atoms: O_7  and  C_46 
DOCKED: REMARK    4  A    between atoms: O_9  and  C_48 
DOCKED: REMARK    5  A    between atoms: C_15  and  C_20 
DOCKED: REMARK    6  A    between atoms: C_16  and  C_23 
DOCKED: REMARK    7  A    between atoms: C_20  and  C_38 
DOCKED: REMARK    8  A    between atoms: C_23  and  C_40 
DOCKED: REMARK    9  A    between atoms: C_32  and  C_41 
DOCKED: REMARK   10  A    between atoms: C_37  and  C_45 
DOCKED: REMARK   11  A    between atoms: C_41  and  C_44 
DOCKED: REMARK   12  A    between atoms: C_44  and  C_46 
DOCKED: REMARK   13  A    between atoms: C_47  and  C_48 
DOCKED: USER                              x       y       z     vdW  Elec       q    Type
DOCKED: USER                           _______ _______ _______ _____ _____    ______ ____
DOCKED: ROOT
DOCKED: ATOM      1  O   UNL d   1      20.565  29.027  -9.615 -0.09 +0.16    -0.289 OA
DOCKED: ATOM      2  O   UNL d   1      22.009  22.028  -7.307 -0.02 +0.06    -0.289 OA
DOCKED: ATOM      3  N   UNL d   1      18.451  26.377 -10.250 -0.11 +0.06    -0.247 NA
DOCKED: ATOM      4  N   UNL d   1      19.973  24.032  -9.244 -0.11 +0.06    -0.247 NA
DOCKED: ATOM      5  N   UNL d   1      18.108  22.342 -10.634 -0.11 +0.14    -0.354 N 
DOCKED: ATOM      6  N   UNL d   1      16.546  24.780 -11.689 -0.07 +0.09    -0.354 N 
DOCKED: ATOM      7  C   UNL d   1      18.525  28.731 -10.929 -0.16 -0.02    +0.084 A 
DOCKED: ATOM      8  C   UNL d   1      21.612  24.438  -7.478 -0.10 -0.02    +0.084 A 
DOCKED: ATOM      9  C   UNL d   1      20.607  24.995  -8.490 -0.16 -0.02    +0.058 A 
DOCKED: ATOM     10  C   UNL d   1      17.831  27.367 -10.993 -0.17 -0.01    +0.058 A 
DOCKED: ATOM     11  C   UNL d   1      19.638  28.340 -10.003 -0.11 -0.07    +0.193 A 
DOCKED: ATOM     12  C   UNL d   1      19.468  26.897  -9.643 -0.17 -0.03    +0.109 A 
DOCKED: ATOM     13  C   UNL d   1      21.460  22.983  -7.822 -0.05 -0.04    +0.193 A 
DOCKED: ATOM     14  C   UNL d   1      19.123  29.135 -12.279 -0.08 -0.00    +0.026 C 
DOCKED: ATOM     15  C   UNL d   1      20.401  26.310  -8.661 -0.23 -0.02    +0.055 C 
DOCKED: ATOM     16  C   UNL d   1      21.145  24.654  -6.035 -0.22 -0.01    +0.026 C 
DOCKED: ATOM     17  C   UNL d   1      20.443  22.873  -8.912 -0.13 -0.03    +0.109 A 
DOCKED: ATOM     18  C   UNL d   1      16.668  27.201 -11.651 -0.25 -0.01    +0.050 C 
DOCKED: ATOM     19  C   UNL d   1      15.912  26.002 -11.694 -0.19 -0.01    +0.045 A 
DOCKED: ATOM     20  C   UNL d   1      19.049  21.411 -10.277 -0.04 -0.02    +0.045 A 
DOCKED: ATOM     21  C   UNL d   1      20.117  21.559  -9.486 -0.14 -0.02    +0.057 C 
DOCKED: ATOM     22  C   UNL d   1      17.518  20.422 -11.654 -0.13 +0.01    -0.019 A 
DOCKED: ATOM     23  C   UNL d   1      17.143  21.838 -11.464 -0.17 -0.02    +0.045 A 
DOCKED: ATOM     24  C   UNL d   1      18.646  20.175 -10.947 -0.11 +0.01    -0.022 A 
DOCKED: ATOM     25  C   UNL d   1      15.633  23.761 -11.828 -0.19 -0.02    +0.049 A 
DOCKED: ATOM     26  C   UNL d   1      14.549  25.769 -11.802 -0.32 +0.01    -0.018 A 
DOCKED: ATOM     27  C   UNL d   1      14.378  24.352 -11.867 -0.27 -0.00    +0.003 A 
DOCKED: ATOM     28  C   UNL d   1      16.062  22.418 -12.007 -0.18 -0.02    +0.052 C 
DOCKED: ATOM     29  C   UNL d   1      19.402  18.897 -10.813 -0.09 -0.02    +0.046 C 
DOCKED: ATOM     30  C   UNL d   1      13.471  26.798 -11.841 -0.35 -0.03    +0.046 C 
DOCKED: ATOM     31  H   UNL d   1      18.115  23.275 -10.237 +0.03 -0.05    +0.166 HD
DOCKED: ATOM     32  H   UNL d   1      17.552  24.671 -11.632 +0.04 -0.04    +0.166 HD
DOCKED: ENDROOT
DOCKED: BRANCH   7  33
DOCKED: ATOM     33  C   UNL d   1      17.692  29.864 -10.321 -0.33 -0.04    +0.141 C 
DOCKED: BRANCH  33  34
DOCKED: ATOM     34  C   UNL d   1      18.107  30.197  -8.913 -0.33 -0.13    +0.306 C 
DOCKED: ATOM     35  O   UNL d   1      17.795  29.583  -7.906 -0.38 +0.14    -0.251 OA
DOCKED: BRANCH  34  36
DOCKED: ATOM     36  O   UNL d   1      18.896  31.284  -8.848 -0.17 +0.20    -0.481 OA
DOCKED: ATOM     37  H   UNL d   1      19.810  30.927  -8.870 +0.10 -0.16    +0.295 HD
DOCKED: ENDBRANCH  34  36
DOCKED: ENDBRANCH  33  34
DOCKED: ENDBRANCH   7  33
DOCKED: BRANCH  27  38
DOCKED: ATOM     38  C   UNL d   1      13.121  23.678 -11.998 -0.22 -0.01    +0.017 C 
DOCKED: ATOM     39  C   UNL d   1      12.871  22.422 -11.599 -0.23 -0.07    +0.092 C 
DOCKED: BRANCH  39  40
DOCKED: ATOM     40  C   UNL d   1      11.532  21.853 -11.776 -0.14 -0.21    +0.330 C 
DOCKED: ATOM     41  O   UNL d   1      10.615  22.302 -12.436 -0.19 +0.16    -0.246 OA
DOCKED: BRANCH  40  42
DOCKED: ATOM     42  O   UNL d   1      11.426  20.702 -11.094 -0.13 +0.09    -0.477 OA
DOCKED: ATOM     43  H   UNL d   1      12.355  20.431 -10.944 -0.01 -0.15    +0.295 HD
DOCKED: ENDBRANCH  40  42
DOCKED: ENDBRANCH  39  40
DOCKED: ENDBRANCH  27  38
DOCKED: BRANCH   8  44
DOCKED: ATOM     44  C   UNL d   1      23.062  24.897  -7.665 -0.04 -0.04    +0.141 C 
DOCKED: BRANCH  44  45
DOCKED: ATOM     45  C   UNL d   1      24.071  23.830  -7.335 +0.00 -0.06    +0.306 C 
DOCKED: ATOM     46  O   UNL d   1      24.831  23.282  -8.115 +0.00 +0.04    -0.251 OA
DOCKED: BRANCH  45  47
DOCKED: ATOM     47  O   UNL d   1      24.050  23.487  -6.035 +0.01 +0.09    -0.481 OA
DOCKED: ATOM     48  H   UNL d   1      23.588  22.622  -6.014 +0.03 -0.05    +0.295 HD
DOCKED: ENDBRANCH  45  47
DOCKED: ENDBRANCH  44  45
DOCKED: ENDBRANCH   8  44
DOCKED: BRANCH  22  49
DOCKED: ATOM     49  C   UNL d   1      16.754  19.456 -12.511 -0.07 -0.02    +0.048 C 
DOCKED: BRANCH  49  50
DOCKED: ATOM     50  C   UNL d   1      15.792  18.602 -11.686 -0.12 -0.09    +0.125 C 
DOCKED: BRANCH  50  51
DOCKED: ATOM     51  C   UNL d   1      14.450  19.268 -11.567 -0.10 -0.21    +0.305 C 
DOCKED: ATOM     52  O   UNL d   1      13.706  19.607 -12.471 -0.04 +0.10    -0.251 OA
DOCKED: BRANCH  51  53
DOCKED: ATOM     53  O   UNL d   1      14.110  19.491 -10.282 -0.13 +0.58    -0.481 OA
DOCKED: ATOM     54  H   UNL d   1      14.813  19.040  -9.768 -0.41 -0.69    +0.295 HD
DOCKED: ENDBRANCH  51  53
DOCKED: ENDBRANCH  50  51
DOCKED: ENDBRANCH  49  50
DOCKED: ENDBRANCH  22  49
DOCKED: TORSDOF 13
DOCKED: TER
DOCKED: ENDMDL
________________________________________________________________________________


	BEGINNING GENETIC ALGORITHM DOCKING 92 of 100
Run: 92 Seed: 45049795 1011580378 [ Run 92 of 100 GA/GALS ]
Beginning LAMARCKIAN GENETIC ALGORITHM (LGA), with a maximum of 25000000 energy evaluations.

Final-Value: -10.523


	FINAL GENETIC ALGORITHM DOCKED STATE
	_______________________________________________


Detailed state:  trans 52.383 27.313 4.900 quatxyzw -0.154270 0.769001 -0.178322 -0.594171 center 0.153 0.018 -0.028 ntor 13 -175.4582 -167.1094 111.3114 -77.4889 42.9650 -29.5647 -42.7311 -99.8223 126.5107 -124.9629 -112.3061 8.3407 -6.6254
State:	 52.383  27.313   4.900  -0.192  0.956 -0.222 -107.093   -175.46 -167.11  111.31  -77.49   42.96  -29.56  -42.73  -99.82  126.51 -124.96 -112.31    8.34   -6.63

DOCKED: MODEL       92
DOCKED: USER    Run = 92
DOCKED: USER    DPF = D:/Protein_go_brrr/autodock/final/6BB5/heme/dock.dpf
DOCKED: USER  
DOCKED: USER    Estimated Free Energy of Binding    =   -2.20 kcal/mol  [=(1)+(2)+(3)-(4)]
DOCKED: USER    Estimated Inhibition Constant, Ki   =   24.47 mM (millimolar)  [Temperature = 298.15 K]
DOCKED: USER    
DOCKED: USER    (1) Final Intermolecular Energy     =   -6.08 kcal/mol
DOCKED: USER        vdW + Hbond + desolv Energy     =   -5.61 kcal/mol
DOCKED: USER        Electrostatic Energy            =   -0.47 kcal/mol
DOCKED: USER    (2) Final Total Internal Energy     =   -4.45 kcal/mol
DOCKED: USER    (3) Torsional Free Energy           =   +3.88 kcal/mol
DOCKED: USER    (4) Unbound System's Energy  [=(2)] =   -4.45 kcal/mol
DOCKED: USER    
DOCKED: USER    
DOCKED: USER    NEWDPF move heme_opt.pdbqt
DOCKED: USER    NEWDPF about 0.153000 0.018000 -0.028000
DOCKED: USER    NEWDPF tran0 52.383471 27.313286 4.900134
DOCKED: USER    NEWDPF quaternion0 -0.154270 0.769001 -0.178322 -0.594171
DOCKED: USER    NEWDPF axisangle0 -0.191797 0.956066 -0.221700 -107.092945
DOCKED: USER    NEWDPF quat0 -0.191797 0.956066 -0.221700 -107.092945
DOCKED: USER    NEWDPF dihe0 -175.46 -167.11 111.31 -77.49 42.96 -29.56 -42.73 -99.82 126.51 -124.96 -112.31 8.34 -6.63 
DOCKED: USER  keepresnum = 1 
DOCKED: USER  
DOCKED: REMARK  13 active torsions:
DOCKED: REMARK  status: ('A' for Active; 'I' for Inactive)
DOCKED: REMARK    1  A    between atoms: O_3  and  C_38 
DOCKED: REMARK    2  A    between atoms: O_4  and  C_40 
DOCKED: REMARK    3  A    between atoms: O_7  and  C_46 
DOCKED: REMARK    4  A    between atoms: O_9  and  C_48 
DOCKED: REMARK    5  A    between atoms: C_15  and  C_20 
DOCKED: REMARK    6  A    between atoms: C_16  and  C_23 
DOCKED: REMARK    7  A    between atoms: C_20  and  C_38 
DOCKED: REMARK    8  A    between atoms: C_23  and  C_40 
DOCKED: REMARK    9  A    between atoms: C_32  and  C_41 
DOCKED: REMARK   10  A    between atoms: C_37  and  C_45 
DOCKED: REMARK   11  A    between atoms: C_41  and  C_44 
DOCKED: REMARK   12  A    between atoms: C_44  and  C_46 
DOCKED: REMARK   13  A    between atoms: C_47  and  C_48 
DOCKED: USER                              x       y       z     vdW  Elec       q    Type
DOCKED: USER                           _______ _______ _______ _____ _____    ______ ____
DOCKED: ROOT
DOCKED: ATOM      1  O   UNL d   1      54.351  31.276   8.797 -0.08 +0.12    -0.289 OA
DOCKED: ATOM      2  O   UNL d   1      51.631  24.343   9.763 -0.21 -0.11    -0.289 OA
DOCKED: ATOM      3  N   UNL d   1      53.177  29.349   6.188 -0.19 +0.07    -0.247 NA
DOCKED: ATOM      4  N   UNL d   1      52.615  26.729   7.473 -0.30 -0.04    -0.247 NA
DOCKED: ATOM      5  N   UNL d   1      52.408  25.588   4.842 -0.10 -0.01    -0.354 N 
DOCKED: ATOM      6  N   UNL d   1      53.011  28.306   3.518 -0.01 +0.04    -0.354 N 
DOCKED: ATOM      7  C   UNL d   1      54.303  31.519   6.365 -0.10 -0.04    +0.084 A 
DOCKED: ATOM      8  C   UNL d   1      52.106  26.742   9.863 -0.25 +0.01    +0.084 A 
DOCKED: ATOM      9  C   UNL d   1      52.541  27.506   8.607 -0.23 +0.01    +0.058 A 
DOCKED: ATOM     10  C   UNL d   1      53.688  30.427   5.485 -0.15 -0.02    +0.058 A 
DOCKED: ATOM     11  C   UNL d   1      54.033  30.876   7.692 -0.04 -0.10    +0.193 A 
DOCKED: ATOM     12  C   UNL d   1      53.324  29.579   7.452 -0.12 -0.03    +0.109 A 
DOCKED: ATOM     13  C   UNL d   1      51.983  25.381   9.238 -0.20 +0.05    +0.193 A 
DOCKED: ATOM     14  C   UNL d   1      55.817  31.631   6.168 -0.02 -0.00    +0.026 C 
DOCKED: ATOM     15  C   UNL d   1      52.870  28.807   8.627 -0.18 -0.00    +0.055 C 
DOCKED: ATOM     16  C   UNL d   1      50.723  27.188  10.348 -0.45 +0.01    +0.026 C 
DOCKED: ATOM     17  C   UNL d   1      52.326  25.508   7.789 -0.16 +0.02    +0.109 A 
DOCKED: ATOM     18  C   UNL d   1      53.586  30.574   4.150 -0.14 -0.01    +0.050 C 
DOCKED: ATOM     19  C   UNL d   1      52.959  29.659   3.268 -0.01 -0.01    +0.045 A 
DOCKED: ATOM     20  C   UNL d   1      52.395  24.444   5.596 -0.16 +0.01    +0.045 A 
DOCKED: ATOM     21  C   UNL d   1      52.334  24.318   6.926 -0.20 +0.01    +0.057 C 
DOCKED: ATOM     22  C   UNL d   1      52.509  23.871   3.388 -0.08 -0.00    -0.019 A 
DOCKED: ATOM     23  C   UNL d   1      52.476  25.343   3.496 -0.15 +0.00    +0.045 A 
DOCKED: ATOM     24  C   UNL d   1      52.460  23.344   4.635 -0.10 -0.00    -0.022 A 
DOCKED: ATOM     25  C   UNL d   1      52.421  27.602   2.493 -0.06 -0.00    +0.049 A 
DOCKED: ATOM     26  C   UNL d   1      52.285  29.841   2.069 -0.11 +0.00    -0.018 A 
DOCKED: ATOM     27  C   UNL d   1      51.931  28.540   1.595 -0.13 -0.00    +0.003 A 
DOCKED: ATOM     28  C   UNL d   1      52.490  26.183   2.450 -0.15 -0.00    +0.052 C 
DOCKED: ATOM     29  C   UNL d   1      52.456  21.910   5.042 -0.06 +0.01    +0.046 C 
DOCKED: ATOM     30  C   UNL d   1      51.986  31.142   1.405 -0.13 -0.00    +0.046 C 
DOCKED: ATOM     31  H   UNL d   1      52.295  26.501   5.269 +0.03 -0.01    +0.166 HD
DOCKED: ATOM     32  H   UNL d   1      53.463  27.903   4.330 +0.03 -0.02    +0.166 HD
DOCKED: ENDROOT
DOCKED: BRANCH   7  33
DOCKED: ATOM     33  C   UNL d   1      53.623  32.890   6.283 -0.07 -0.09    +0.141 C 
DOCKED: BRANCH  33  34
DOCKED: ATOM     34  C   UNL d   1      54.185  33.875   7.272 -0.04 -0.14    +0.306 C 
DOCKED: ATOM     35  O   UNL d   1      55.034  34.720   7.044 -0.02 +0.04    -0.251 OA
DOCKED: BRANCH  34  36
DOCKED: ATOM     36  O   UNL d   1      53.645  33.746   8.497 -0.02 +0.39    -0.481 OA
DOCKED: ATOM     37  H   UNL d   1      53.026  32.989   8.415 -0.28 -0.59    +0.295 HD
DOCKED: ENDBRANCH  34  36
DOCKED: ENDBRANCH  33  34
DOCKED: ENDBRANCH   7  33
DOCKED: BRANCH  27  38
DOCKED: ATOM     38  C   UNL d   1      51.233  28.268   0.375 -0.17 -0.00    +0.017 C 
DOCKED: ATOM     39  C   UNL d   1      50.211  27.410   0.241 -0.21 -0.00    +0.092 C 
DOCKED: BRANCH  39  40
DOCKED: ATOM     40  C   UNL d   1      49.569  27.235  -1.065 -0.07 -0.01    +0.330 C 
DOCKED: ATOM     41  O   UNL d   1      49.433  28.066  -1.943 -0.09 +0.02    -0.246 OA
DOCKED: BRANCH  40  42
DOCKED: ATOM     42  O   UNL d   1      49.128  25.975  -1.197 -0.04 -0.01    -0.477 OA
DOCKED: ATOM     43  H   UNL d   1      49.186  25.609  -0.291 +0.07 +0.02    +0.295 HD
DOCKED: ENDBRANCH  40  42
DOCKED: ENDBRANCH  39  40
DOCKED: ENDBRANCH  27  38
DOCKED: BRANCH   8  44
DOCKED: ATOM     44  C   UNL d   1      53.119  26.730  11.012 -0.10 +0.03    +0.141 C 
DOCKED: BRANCH  44  45
DOCKED: ATOM     45  C   UNL d   1      52.697  25.861  12.167 -0.09 +0.10    +0.306 C 
DOCKED: ATOM     46  O   UNL d   1      51.994  26.192  13.106 -0.14 -0.10    -0.251 OA
DOCKED: BRANCH  45  47
DOCKED: ATOM     47  O   UNL d   1      53.208  24.619  12.091 -0.04 -0.19    -0.481 OA
DOCKED: ATOM     48  H   UNL d   1      52.742  24.205  11.333 +0.07 +0.13    +0.295 HD
DOCKED: ENDBRANCH  45  47
DOCKED: ENDBRANCH  44  45
DOCKED: ENDBRANCH   8  44
DOCKED: BRANCH  22  49
DOCKED: ATOM     49  C   UNL d   1      52.600  23.123   2.090 -0.03 +0.00    +0.048 C 
DOCKED: BRANCH  49  50
DOCKED: ATOM     50  C   UNL d   1      51.218  22.811   1.515 -0.03 +0.01    +0.125 C 
DOCKED: BRANCH  50  51
DOCKED: ATOM     51  C   UNL d   1      50.529  24.068   1.064 -0.04 +0.02    +0.305 C 
DOCKED: ATOM     52  O   UNL d   1      49.604  24.644   1.607 -0.12 -0.02    -0.251 OA
DOCKED: BRANCH  51  53
DOCKED: ATOM     53  O   UNL d   1      51.047  24.541  -0.087 +0.01 -0.02    -0.481 OA
DOCKED: ATOM     54  H   UNL d   1      50.399  24.267  -0.770 +0.03 +0.02    +0.295 HD
DOCKED: ENDBRANCH  51  53
DOCKED: ENDBRANCH  50  51
DOCKED: ENDBRANCH  49  50
DOCKED: ENDBRANCH  22  49
DOCKED: TORSDOF 13
DOCKED: TER
DOCKED: ENDMDL
________________________________________________________________________________


	BEGINNING GENETIC ALGORITHM DOCKING 93 of 100
Run: 93 Seed: 146653746 2128265994 [ Run 93 of 100 GA/GALS ]
Beginning LAMARCKIAN GENETIC ALGORITHM (LGA), with a maximum of 25000000 energy evaluations.

Final-Value: -9.671


	FINAL GENETIC ALGORITHM DOCKED STATE
	_______________________________________________


Detailed state:  trans 45.053 19.884 17.720 quatxyzw 0.874421 -0.311849 0.334730 0.161539 center 0.153 0.018 -0.028 ntor 13 -125.2919 19.8857 -118.0913 -140.7768 -135.2494 -149.3917 122.6246 -117.3250 -118.9584 -25.6061 -125.2012 31.2914 140.6198
State:	 45.053  19.884  17.720   0.886 -0.316  0.339 161.408   -125.29   19.89 -118.09 -140.78 -135.25 -149.39  122.62 -117.33 -118.96  -25.61 -125.20   31.29  140.62

DOCKED: MODEL       93
DOCKED: USER    Run = 93
DOCKED: USER    DPF = D:/Protein_go_brrr/autodock/final/6BB5/heme/dock.dpf
DOCKED: USER  
DOCKED: USER    Estimated Free Energy of Binding    =   -3.83 kcal/mol  [=(1)+(2)+(3)-(4)]
DOCKED: USER    Estimated Inhibition Constant, Ki   =    1.55 mM (millimolar)  [Temperature = 298.15 K]
DOCKED: USER    
DOCKED: USER    (1) Final Intermolecular Energy     =   -7.71 kcal/mol
DOCKED: USER        vdW + Hbond + desolv Energy     =   -7.26 kcal/mol
DOCKED: USER        Electrostatic Energy            =   -0.46 kcal/mol
DOCKED: USER    (2) Final Total Internal Energy     =   -1.96 kcal/mol
DOCKED: USER    (3) Torsional Free Energy           =   +3.88 kcal/mol
DOCKED: USER    (4) Unbound System's Energy  [=(2)] =   -1.96 kcal/mol
DOCKED: USER    
DOCKED: USER    
DOCKED: USER    NEWDPF move heme_opt.pdbqt
DOCKED: USER    NEWDPF about 0.153000 0.018000 -0.028000
DOCKED: USER    NEWDPF tran0 45.053404 19.884304 17.720357
DOCKED: USER    NEWDPF quaternion0 0.874421 -0.311849 0.334730 0.161539
DOCKED: USER    NEWDPF axisangle0 0.886058 -0.315999 0.339185 161.407533
DOCKED: USER    NEWDPF quat0 0.886058 -0.315999 0.339185 161.407533
DOCKED: USER    NEWDPF dihe0 -125.29 19.89 -118.09 -140.78 -135.25 -149.39 122.62 -117.33 -118.96 -25.61 -125.20 31.29 140.62 
DOCKED: USER  keepresnum = 1 
DOCKED: USER  
DOCKED: REMARK  13 active torsions:
DOCKED: REMARK  status: ('A' for Active; 'I' for Inactive)
DOCKED: REMARK    1  A    between atoms: O_3  and  C_38 
DOCKED: REMARK    2  A    between atoms: O_4  and  C_40 
DOCKED: REMARK    3  A    between atoms: O_7  and  C_46 
DOCKED: REMARK    4  A    between atoms: O_9  and  C_48 
DOCKED: REMARK    5  A    between atoms: C_15  and  C_20 
DOCKED: REMARK    6  A    between atoms: C_16  and  C_23 
DOCKED: REMARK    7  A    between atoms: C_20  and  C_38 
DOCKED: REMARK    8  A    between atoms: C_23  and  C_40 
DOCKED: REMARK    9  A    between atoms: C_32  and  C_41 
DOCKED: REMARK   10  A    between atoms: C_37  and  C_45 
DOCKED: REMARK   11  A    between atoms: C_41  and  C_44 
DOCKED: REMARK   12  A    between atoms: C_44  and  C_46 
DOCKED: REMARK   13  A    between atoms: C_47  and  C_48 
DOCKED: USER                              x       y       z     vdW  Elec       q    Type
DOCKED: USER                           _______ _______ _______ _____ _____    ______ ____
DOCKED: ROOT
DOCKED: ATOM      1  O   UNL d   1      41.497  22.327  13.702 -0.35 -0.04    -0.289 OA
DOCKED: ATOM      2  O   UNL d   1      44.544  25.155  19.956 -0.11 -0.16    -0.289 OA
DOCKED: ATOM      3  N   UNL d   1      43.437  20.450  15.849 -0.18 -0.05    -0.247 NA
DOCKED: ATOM      4  N   UNL d   1      44.416  22.453  17.813 -0.13 -0.09    -0.247 NA
DOCKED: ATOM      5  N   UNL d   1      46.322  20.499  18.717 -0.07 -0.15    -0.354 N 
DOCKED: ATOM      6  N   UNL d   1      45.313  18.433  16.663 -0.05 -0.12    -0.354 N 
DOCKED: ATOM      7  C   UNL d   1      42.411  20.060  13.658 -0.36 +0.01    +0.084 A 
DOCKED: ATOM      8  C   UNL d   1      43.043  24.444  18.158 -0.29 +0.02    +0.084 A 
DOCKED: ATOM      9  C   UNL d   1      43.305  23.146  17.388 -0.30 +0.02    +0.058 A 
DOCKED: ATOM     10  C   UNL d   1      43.263  19.540  14.819 -0.27 +0.01    +0.058 A 
DOCKED: ATOM     11  C   UNL d   1      42.118  21.418  14.222 +0.02 +0.02    +0.193 A 
DOCKED: ATOM     12  C   UNL d   1      42.774  21.522  15.564 -0.03 +0.01    +0.109 A 
DOCKED: ATOM     13  C   UNL d   1      44.233  24.379  19.073 -0.15 +0.08    +0.193 A 
DOCKED: ATOM     14  C   UNL d   1      43.228  20.223  12.373 -0.41 +0.01    +0.026 C 
DOCKED: ATOM     15  C   UNL d   1      42.545  22.748  16.356 -0.37 +0.01    +0.055 C 
DOCKED: ATOM     16  C   UNL d   1      41.767  24.357  19.001 -0.33 +0.01    +0.026 C 
DOCKED: ATOM     17  C   UNL d   1      44.987  23.129  18.758 -0.15 +0.05    +0.109 A 
DOCKED: ATOM     18  C   UNL d   1      43.714  18.272  14.848 -0.21 +0.01    +0.050 C 
DOCKED: ATOM     19  C   UNL d   1      44.436  17.680  15.916 -0.15 +0.01    +0.045 A 
DOCKED: ATOM     20  C   UNL d   1      46.785  21.604  19.382 -0.11 +0.02    +0.045 A 
DOCKED: ATOM     21  C   UNL d   1      46.234  22.819  19.473 -0.13 +0.03    +0.057 C 
DOCKED: ATOM     22  C   UNL d   1      48.263  19.889  19.682 -0.05 -0.01    -0.019 A 
DOCKED: ATOM     23  C   UNL d   1      47.148  19.413  18.840 -0.11 +0.02    +0.045 A 
DOCKED: ATOM     24  C   UNL d   1      48.042  21.186  20.001 -0.05 -0.01    -0.022 A 
DOCKED: ATOM     25  C   UNL d   1      45.968  17.644  17.580 -0.12 +0.01    +0.049 A 
DOCKED: ATOM     26  C   UNL d   1      44.496  16.376  16.382 -0.14 -0.00    -0.018 A 
DOCKED: ATOM     27  C   UNL d   1      45.450  16.363  17.446 -0.13 +0.00    +0.003 A 
DOCKED: ATOM     28  C   UNL d   1      47.035  18.165  18.360 -0.10 +0.02    +0.052 C 
DOCKED: ATOM     29  C   UNL d   1      48.875  22.097  20.838 -0.01 +0.02    +0.046 C 
DOCKED: ATOM     30  C   UNL d   1      43.714  15.212  15.875 -0.13 +0.01    +0.046 C 
DOCKED: ATOM     31  H   UNL d   1      45.416  20.500  18.261 +0.04 +0.06    +0.166 HD
DOCKED: ATOM     32  H   UNL d   1      45.469  19.423  16.515 +0.05 +0.08    +0.166 HD
DOCKED: ENDROOT
DOCKED: BRANCH   7  33
DOCKED: ATOM     33  C   UNL d   1      41.110  19.292  13.403 -0.13 +0.01    +0.141 C 
DOCKED: BRANCH  33  34
DOCKED: ATOM     34  C   UNL d   1      41.349  17.925  12.820 -0.22 +0.02    +0.306 C 
DOCKED: ATOM     35  O   UNL d   1      41.568  17.671  11.648 -0.14 -0.03    -0.251 OA
DOCKED: BRANCH  34  36
DOCKED: ATOM     36  O   UNL d   1      41.301  16.951  13.745 -0.13 -0.01    -0.481 OA
DOCKED: ATOM     37  H   UNL d   1      40.447  17.091  14.207 -0.44 -0.06    +0.295 HD
DOCKED: ENDBRANCH  34  36
DOCKED: ENDBRANCH  33  34
DOCKED: ENDBRANCH   7  33
DOCKED: BRANCH  27  38
DOCKED: ATOM     38  C   UNL d   1      45.830  15.206  18.200 -0.10 +0.00    +0.017 C 
DOCKED: ATOM     39  C   UNL d   1      45.553  15.002  19.497 -0.13 +0.02    +0.092 C 
DOCKED: BRANCH  39  40
DOCKED: ATOM     40  C   UNL d   1      45.985  13.763  20.149 -0.02 +0.05    +0.330 C 
DOCKED: ATOM     41  O   UNL d   1      45.462  13.196  21.089 -0.04 -0.03    -0.246 OA
DOCKED: BRANCH  40  42
DOCKED: ATOM     42  O   UNL d   1      47.088  13.286  19.550 +0.01 -0.06    -0.477 OA
DOCKED: ATOM     43  H   UNL d   1      47.108  12.343  19.813 +0.01 +0.03    +0.295 HD
DOCKED: ENDBRANCH  40  42
DOCKED: ENDBRANCH  39  40
DOCKED: ENDBRANCH  27  38
DOCKED: BRANCH   8  44
DOCKED: ATOM     44  C   UNL d   1      43.066  25.726  17.318 -0.27 +0.04    +0.141 C 
DOCKED: BRANCH  44  45
DOCKED: ATOM     45  C   UNL d   1      44.455  26.160  16.935 -0.15 +0.10    +0.306 C 
DOCKED: ATOM     46  O   UNL d   1      45.144  25.693  16.045 -0.22 -0.09    -0.251 OA
DOCKED: BRANCH  45  47
DOCKED: ATOM     47  O   UNL d   1      44.919  27.151  17.719 -0.04 -0.18    -0.481 OA
DOCKED: ATOM     48  H   UNL d   1      44.931  26.767  18.622 +0.11 +0.14    +0.295 HD
DOCKED: ENDBRANCH  45  47
DOCKED: ENDBRANCH  44  45
DOCKED: ENDBRANCH   8  44
DOCKED: BRANCH  22  49
DOCKED: ATOM     49  C   UNL d   1      49.438  19.044  20.081 -0.01 +0.02    +0.048 C 
DOCKED: BRANCH  49  50
DOCKED: ATOM     50  C   UNL d   1      50.174  18.484  18.864 -0.01 +0.05    +0.125 C 
DOCKED: BRANCH  50  51
DOCKED: ATOM     51  C   UNL d   1      50.599  19.588  17.939 -0.03 +0.25    +0.305 C 
DOCKED: ATOM     52  O   UNL d   1      50.328  19.713  16.757 -0.45 -0.43    -0.251 OA
DOCKED: BRANCH  51  53
DOCKED: ATOM     53  O   UNL d   1      51.374  20.499  18.561 -0.02 -0.32    -0.481 OA
DOCKED: ATOM     54  H   UNL d   1      51.942  19.962  19.153 +0.01 +0.13    +0.295 HD
DOCKED: ENDBRANCH  51  53
DOCKED: ENDBRANCH  50  51
DOCKED: ENDBRANCH  49  50
DOCKED: ENDBRANCH  22  49
DOCKED: TORSDOF 13
DOCKED: TER
DOCKED: ENDMDL
________________________________________________________________________________


	BEGINNING GENETIC ALGORITHM DOCKING 94 of 100
Run: 94 Seed: 1100242815 437916990 [ Run 94 of 100 GA/GALS ]
Beginning LAMARCKIAN GENETIC ALGORITHM (LGA), with a maximum of 25000000 energy evaluations.

Final-Value: -11.305


	FINAL GENETIC ALGORITHM DOCKED STATE
	_______________________________________________


Detailed state:  trans 37.304 12.899 21.472 quatxyzw -0.460962 -0.519871 -0.711995 -0.101543 center 0.153 0.018 -0.028 ntor 13 -103.4028 -121.0324 -5.4889 -28.3769 34.3073 -61.4070 4.9003 -171.1278 130.7461 -17.0896 -73.5505 -26.3098 -7.2418
State:	 37.304  12.899  21.472  -0.463 -0.523 -0.716 -168.344   -103.40 -121.03   -5.49  -28.38   34.31  -61.41    4.90 -171.13  130.75  -17.09  -73.55  -26.31   -7.24

DOCKED: MODEL       94
DOCKED: USER    Run = 94
DOCKED: USER    DPF = D:/Protein_go_brrr/autodock/final/6BB5/heme/dock.dpf
DOCKED: USER  
DOCKED: USER    Estimated Free Energy of Binding    =   -3.84 kcal/mol  [=(1)+(2)+(3)-(4)]
DOCKED: USER    Estimated Inhibition Constant, Ki   =    1.53 mM (millimolar)  [Temperature = 298.15 K]
DOCKED: USER    
DOCKED: USER    (1) Final Intermolecular Energy     =   -7.72 kcal/mol
DOCKED: USER        vdW + Hbond + desolv Energy     =   -7.41 kcal/mol
DOCKED: USER        Electrostatic Energy            =   -0.31 kcal/mol
DOCKED: USER    (2) Final Total Internal Energy     =   -3.59 kcal/mol
DOCKED: USER    (3) Torsional Free Energy           =   +3.88 kcal/mol
DOCKED: USER    (4) Unbound System's Energy  [=(2)] =   -3.59 kcal/mol
DOCKED: USER    
DOCKED: USER    
DOCKED: USER    NEWDPF move heme_opt.pdbqt
DOCKED: USER    NEWDPF about 0.153000 0.018000 -0.028000
DOCKED: USER    NEWDPF tran0 37.304264 12.898989 21.472127
DOCKED: USER    NEWDPF quaternion0 -0.460962 -0.519871 -0.711995 -0.101543
DOCKED: USER    NEWDPF axisangle0 -0.463357 -0.522573 -0.715695 -168.343935
DOCKED: USER    NEWDPF quat0 -0.463357 -0.522573 -0.715695 -168.343935
DOCKED: USER    NEWDPF dihe0 -103.40 -121.03 -5.49 -28.38 34.31 -61.41 4.90 -171.13 130.75 -17.09 -73.55 -26.31 -7.24 
DOCKED: USER  keepresnum = 1 
DOCKED: USER  
DOCKED: REMARK  13 active torsions:
DOCKED: REMARK  status: ('A' for Active; 'I' for Inactive)
DOCKED: REMARK    1  A    between atoms: O_3  and  C_38 
DOCKED: REMARK    2  A    between atoms: O_4  and  C_40 
DOCKED: REMARK    3  A    between atoms: O_7  and  C_46 
DOCKED: REMARK    4  A    between atoms: O_9  and  C_48 
DOCKED: REMARK    5  A    between atoms: C_15  and  C_20 
DOCKED: REMARK    6  A    between atoms: C_16  and  C_23 
DOCKED: REMARK    7  A    between atoms: C_20  and  C_38 
DOCKED: REMARK    8  A    between atoms: C_23  and  C_40 
DOCKED: REMARK    9  A    between atoms: C_32  and  C_41 
DOCKED: REMARK   10  A    between atoms: C_37  and  C_45 
DOCKED: REMARK   11  A    between atoms: C_41  and  C_44 
DOCKED: REMARK   12  A    between atoms: C_44  and  C_46 
DOCKED: REMARK   13  A    between atoms: C_47  and  C_48 
DOCKED: USER                              x       y       z     vdW  Elec       q    Type
DOCKED: USER                           _______ _______ _______ _____ _____    ______ ____
DOCKED: ROOT
DOCKED: ATOM      1  O   UNL d   1      41.826  10.820  18.311 -0.03 -0.03    -0.289 OA
DOCKED: ATOM      2  O   UNL d   1      34.884  12.820  16.259 -0.08 -0.05    -0.289 OA
DOCKED: ATOM      3  N   UNL d   1      39.440  11.870  20.569 -0.11 +0.01    -0.247 NA
DOCKED: ATOM      4  N   UNL d   1      37.180  12.713  18.834 -0.11 -0.02    -0.247 NA
DOCKED: ATOM      5  N   UNL d   1      36.017  13.996  21.128 -0.10 +0.04    -0.354 N 
DOCKED: ATOM      6  N   UNL d   1      38.375  13.135  22.918 +0.10 +0.11    -0.354 N 
DOCKED: ATOM      7  C   UNL d   1      41.823  11.313  20.705 -0.08 +0.00    +0.084 A 
DOCKED: ATOM      8  C   UNL d   1      37.009  11.663  16.633 -0.08 +0.01    +0.084 A 
DOCKED: ATOM      9  C   UNL d   1      37.789  11.863  17.937 -0.11 +0.01    +0.058 A 
DOCKED: ATOM     10  C   UNL d   1      40.541  11.778  21.404 -0.14 -0.00    +0.058 A 
DOCKED: ATOM     11  C   UNL d   1      41.246  11.141  19.333 -0.07 +0.01    +0.193 A 
DOCKED: ATOM     12  C   UNL d   1      39.789  11.484  19.386 -0.11 +0.01    +0.109 A 
DOCKED: ATOM     13  C   UNL d   1      35.863  12.586  16.941 -0.09 +0.03    +0.193 A 
DOCKED: ATOM     14  C   UNL d   1      42.885  12.414  20.661 -0.16 +0.00    +0.026 C 
DOCKED: ATOM     15  C   UNL d   1      38.986  11.298  18.161 -0.11 +0.01    +0.055 C 
DOCKED: ATOM     16  C   UNL d   1      36.471  10.235  16.507 -0.03 +0.00    +0.026 C 
DOCKED: ATOM     17  C   UNL d   1      36.091  13.164  18.300 -0.16 +0.01    +0.109 A 
DOCKED: ATOM     18  C   UNL d   1      40.500  11.984  22.733 -0.13 -0.00    +0.050 C 
DOCKED: ATOM     19  C   UNL d   1      39.344  12.332  23.476 -0.11 -0.01    +0.045 A 
DOCKED: ATOM     20  C   UNL d   1      35.195  14.482  20.145 -0.24 +0.00    +0.045 A 
DOCKED: ATOM     21  C   UNL d   1      35.144  14.144  18.852 -0.27 +0.01    +0.057 C 
DOCKED: ATOM     22  C   UNL d   1      34.696  15.534  22.110 -0.32 +0.00    -0.019 A 
DOCKED: ATOM     23  C   UNL d   1      35.791  14.572  22.350 -0.25 -0.01    +0.045 A 
DOCKED: ATOM     24  C   UNL d   1      34.347  15.475  20.803 -0.31 -0.00    -0.022 A 
DOCKED: ATOM     25  C   UNL d   1      37.393  13.419  23.838 -0.15 -0.01    +0.049 A 
DOCKED: ATOM     26  C   UNL d   1      38.964  12.058  24.781 -0.05 +0.00    -0.018 A 
DOCKED: ATOM     27  C   UNL d   1      37.721  12.731  24.998 -0.08 -0.00    +0.003 A 
DOCKED: ATOM     28  C   UNL d   1      36.366  14.357  23.543 -0.26 -0.02    +0.052 C 
DOCKED: ATOM     29  C   UNL d   1      33.290  16.242  20.084 -0.36 +0.02    +0.046 C 
DOCKED: ATOM     30  C   UNL d   1      39.706  11.221  25.767 -0.02 -0.00    +0.046 C 
DOCKED: ATOM     31  H   UNL d   1      36.658  13.231  20.948 -0.01 -0.02    +0.166 HD
DOCKED: ATOM     32  H   UNL d   1      38.419  13.490  21.970 -0.33 -0.12    +0.166 HD
DOCKED: ENDROOT
DOCKED: BRANCH   7  33
DOCKED: ATOM     33  C   UNL d   1      42.405   9.990  21.214 -0.02 +0.01    +0.141 C 
DOCKED: BRANCH  33  34
DOCKED: ATOM     34  C   UNL d   1      43.639   9.573  20.461 -0.00 +0.02    +0.306 C 
DOCKED: ATOM     35  O   UNL d   1      44.787   9.887  20.729 -0.00 -0.02    -0.251 OA
DOCKED: BRANCH  34  36
DOCKED: ATOM     36  O   UNL d   1      43.363   8.779  19.412 +0.00 -0.03    -0.481 OA
DOCKED: ATOM     37  H   UNL d   1      42.980   9.383  18.740 +0.01 +0.02    +0.295 HD
DOCKED: ENDBRANCH  34  36
DOCKED: ENDBRANCH  33  34
DOCKED: ENDBRANCH   7  33
DOCKED: BRANCH  27  38
DOCKED: ATOM     38  C   UNL d   1      36.982  12.724  26.224 -0.06 -0.00    +0.017 C 
DOCKED: ATOM     39  C   UNL d   1      35.731  13.184  26.377 -0.07 -0.02    +0.092 C 
DOCKED: BRANCH  39  40
DOCKED: ATOM     40  C   UNL d   1      35.079  13.104  27.686 -0.03 -0.11    +0.330 C 
DOCKED: ATOM     41  O   UNL d   1      34.790  12.102  28.313 -0.01 +0.05    -0.246 OA
DOCKED: BRANCH  40  42
DOCKED: ATOM     42  O   UNL d   1      34.826  14.336  28.153 -0.04 +0.42    -0.477 OA
DOCKED: ATOM     43  H   UNL d   1      34.253  14.735  27.466 -0.23 -0.36    +0.295 HD
DOCKED: ENDBRANCH  40  42
DOCKED: ENDBRANCH  39  40
DOCKED: ENDBRANCH  27  38
DOCKED: BRANCH   8  44
DOCKED: ATOM     44  C   UNL d   1      37.736  12.097  15.356 -0.11 +0.02    +0.141 C 
DOCKED: BRANCH  44  45
DOCKED: ATOM     45  C   UNL d   1      37.957  13.584  15.274 -0.19 +0.04    +0.306 C 
DOCKED: ATOM     46  O   UNL d   1      37.177  14.455  15.617 -0.31 -0.05    -0.251 OA
DOCKED: BRANCH  45  47
DOCKED: ATOM     47  O   UNL d   1      39.149  13.898  14.735 -0.13 -0.04    -0.481 OA
DOCKED: ATOM     48  H   UNL d   1      39.129  14.874  14.641 -0.30 -0.03    +0.295 HD
DOCKED: ENDBRANCH  45  47
DOCKED: ENDBRANCH  44  45
DOCKED: ENDBRANCH   8  44
DOCKED: BRANCH  22  49
DOCKED: ATOM     49  C   UNL d   1      34.110  16.424  23.167 -0.36 -0.00    +0.048 C 
DOCKED: BRANCH  49  50
DOCKED: ATOM     50  C   UNL d   1      32.924  15.764  23.871 -0.27 -0.00    +0.125 C 
DOCKED: BRANCH  50  51
DOCKED: ATOM     51  C   UNL d   1      33.295  15.343  25.265 -0.19 -0.12    +0.305 C 
DOCKED: ATOM     52  O   UNL d   1      32.600  14.753  26.073 -0.11 +0.11    -0.251 OA
DOCKED: BRANCH  51  53
DOCKED: ATOM     53  O   UNL d   1      34.554  15.707  25.584 -0.18 +0.36    -0.481 OA
DOCKED: ATOM     54  H   UNL d   1      34.528  15.828  26.556 -0.46 -0.55    +0.295 HD
DOCKED: ENDBRANCH  51  53
DOCKED: ENDBRANCH  50  51
DOCKED: ENDBRANCH  49  50
DOCKED: ENDBRANCH  22  49
DOCKED: TORSDOF 13
DOCKED: TER
DOCKED: ENDMDL
________________________________________________________________________________


	BEGINNING GENETIC ALGORITHM DOCKING 95 of 100
Run: 95 Seed: 250467492 993605037 [ Run 95 of 100 GA/GALS ]
Beginning LAMARCKIAN GENETIC ALGORITHM (LGA), with a maximum of 25000000 energy evaluations.

Final-Value: -10.398


	FINAL GENETIC ALGORITHM DOCKED STATE
	_______________________________________________


Detailed state:  trans 7.366 52.970 8.771 quatxyzw 0.034007 0.494586 0.817868 0.292096 center 0.153 0.018 -0.028 ntor 13 -81.7642 133.9686 -116.5328 -63.8655 -140.0081 98.4390 124.0042 73.0522 -142.0763 -20.5657 -75.3526 -94.8361 -4.7343
State:	  7.366  52.970   8.771   0.036  0.517  0.855 146.033    -81.76  133.97 -116.53  -63.87 -140.01   98.44  124.00   73.05 -142.08  -20.57  -75.35  -94.84   -4.73

DOCKED: MODEL       95
DOCKED: USER    Run = 95
DOCKED: USER    DPF = D:/Protein_go_brrr/autodock/final/6BB5/heme/dock.dpf
DOCKED: USER  
DOCKED: USER    Estimated Free Energy of Binding    =   -2.71 kcal/mol  [=(1)+(2)+(3)-(4)]
DOCKED: USER    Estimated Inhibition Constant, Ki   =   10.30 mM (millimolar)  [Temperature = 298.15 K]
DOCKED: USER    
DOCKED: USER    (1) Final Intermolecular Energy     =   -6.59 kcal/mol
DOCKED: USER        vdW + Hbond + desolv Energy     =   -6.16 kcal/mol
DOCKED: USER        Electrostatic Energy            =   -0.43 kcal/mol
DOCKED: USER    (2) Final Total Internal Energy     =   -3.81 kcal/mol
DOCKED: USER    (3) Torsional Free Energy           =   +3.88 kcal/mol
DOCKED: USER    (4) Unbound System's Energy  [=(2)] =   -3.81 kcal/mol
DOCKED: USER    
DOCKED: USER    
DOCKED: USER    NEWDPF move heme_opt.pdbqt
DOCKED: USER    NEWDPF about 0.153000 0.018000 -0.028000
DOCKED: USER    NEWDPF tran0 7.365903 52.969577 8.771219
DOCKED: USER    NEWDPF quaternion0 0.034007 0.494586 0.817868 0.292096
DOCKED: USER    NEWDPF axisangle0 0.035557 0.517138 0.855163 146.033065
DOCKED: USER    NEWDPF quat0 0.035557 0.517138 0.855163 146.033065
DOCKED: USER    NEWDPF dihe0 -81.76 133.97 -116.53 -63.87 -140.01 98.44 124.00 73.05 -142.08 -20.57 -75.35 -94.84 -4.73 
DOCKED: USER  keepresnum = 1 
DOCKED: USER  
DOCKED: REMARK  13 active torsions:
DOCKED: REMARK  status: ('A' for Active; 'I' for Inactive)
DOCKED: REMARK    1  A    between atoms: O_3  and  C_38 
DOCKED: REMARK    2  A    between atoms: O_4  and  C_40 
DOCKED: REMARK    3  A    between atoms: O_7  and  C_46 
DOCKED: REMARK    4  A    between atoms: O_9  and  C_48 
DOCKED: REMARK    5  A    between atoms: C_15  and  C_20 
DOCKED: REMARK    6  A    between atoms: C_16  and  C_23 
DOCKED: REMARK    7  A    between atoms: C_20  and  C_38 
DOCKED: REMARK    8  A    between atoms: C_23  and  C_40 
DOCKED: REMARK    9  A    between atoms: C_32  and  C_41 
DOCKED: REMARK   10  A    between atoms: C_37  and  C_45 
DOCKED: REMARK   11  A    between atoms: C_41  and  C_44 
DOCKED: REMARK   12  A    between atoms: C_44  and  C_46 
DOCKED: REMARK   13  A    between atoms: C_47  and  C_48 
DOCKED: USER                              x       y       z     vdW  Elec       q    Type
DOCKED: USER                           _______ _______ _______ _____ _____    ______ ____
DOCKED: ROOT
DOCKED: ATOM      1  O   UNL d   1      12.719  55.424   8.500 -0.19 +0.10    -0.289 OA
DOCKED: ATOM      2  O   UNL d   1       7.453  54.489   3.229 -0.08 +0.04    -0.289 OA
DOCKED: ATOM      3  N   UNL d   1       9.745  53.784   9.101 -0.02 +0.05    -0.247 NA
DOCKED: ATOM      4  N   UNL d   1       8.226  54.177   6.577 -0.14 +0.06    -0.247 NA
DOCKED: ATOM      5  N   UNL d   1       5.873  53.279   7.963 -0.05 +0.08    -0.354 N 
DOCKED: ATOM      6  N   UNL d   1       7.452  52.892  10.581 -0.06 +0.05    -0.354 N 
DOCKED: ATOM      7  C   UNL d   1      11.638  54.495  10.486 -0.18 -0.03    +0.084 A 
DOCKED: ATOM      8  C   UNL d   1       9.522  54.533   4.536 -0.24 -0.03    +0.084 A 
DOCKED: ATOM      9  C   UNL d   1       9.488  54.363   6.059 -0.27 -0.02    +0.058 A 
DOCKED: ATOM     10  C   UNL d   1      10.268  53.819  10.383 -0.15 -0.01    +0.058 A 
DOCKED: ATOM     11  C   UNL d   1      11.806  54.820   9.032 -0.14 -0.07    +0.193 A 
DOCKED: ATOM     12  C   UNL d   1      10.605  54.315   8.294 -0.24 -0.03    +0.109 A 
DOCKED: ATOM     13  C   UNL d   1       8.042  54.447   4.291 -0.13 -0.04    +0.193 A 
DOCKED: ATOM     14  C   UNL d   1      11.575  55.802  11.281 -0.09 -0.01    +0.026 C 
DOCKED: ATOM     15  C   UNL d   1      10.589  54.441   6.822 -0.33 -0.02    +0.055 C 
DOCKED: ATOM     16  C   UNL d   1      10.205  53.348   3.848 -0.46 -0.01    +0.026 C 
DOCKED: ATOM     17  C   UNL d   1       7.370  54.238   5.609 -0.18 -0.02    +0.109 A 
DOCKED: ATOM     18  C   UNL d   1       9.689  53.236  11.450 -0.13 -0.01    +0.050 C 
DOCKED: ATOM     19  C   UNL d   1       8.467  52.516  11.432 -0.11 -0.01    +0.045 A 
DOCKED: ATOM     20  C   UNL d   1       5.303  53.733   6.801 -0.12 -0.00    +0.045 A 
DOCKED: ATOM     21  C   UNL d   1       5.903  54.159   5.685 -0.17 -0.00    +0.057 C 
DOCKED: ATOM     22  C   UNL d   1       3.643  53.175   8.268 -0.12 -0.00    -0.019 A 
DOCKED: ATOM     23  C   UNL d   1       4.949  52.920   8.908 -0.15 -0.00    +0.045 A 
DOCKED: ATOM     24  C   UNL d   1       3.860  53.655   7.020 -0.04 -0.00    -0.022 A 
DOCKED: ATOM     25  C   UNL d   1       6.334  52.119  10.793 -0.12 -0.00    +0.049 A 
DOCKED: ATOM     26  C   UNL d   1       8.010  51.449  12.189 -0.11 +0.00    -0.018 A 
DOCKED: ATOM     27  C   UNL d   1       6.669  51.190  11.768 -0.11 -0.00    +0.003 A 
DOCKED: ATOM     28  C   UNL d   1       5.106  52.420  10.144 -0.12 -0.00    +0.052 C 
DOCKED: ATOM     29  C   UNL d   1       2.861  54.048   5.986 -0.09 +0.00    +0.046 C 
DOCKED: ATOM     30  C   UNL d   1       8.771  50.712  13.239 -0.08 -0.01    +0.046 C 
DOCKED: ATOM     31  H   UNL d   1       6.876  53.160   8.045 -0.45 -0.08    +0.166 HD
DOCKED: ATOM     32  H   UNL d   1       7.525  53.662   9.927 +0.01 -0.03    +0.166 HD
DOCKED: ENDROOT
DOCKED: BRANCH   7  33
DOCKED: ATOM     33  C   UNL d   1      12.780  53.596  10.971 -0.12 -0.09    +0.141 C 
DOCKED: BRANCH  33  34
DOCKED: ATOM     34  C   UNL d   1      13.004  53.696  12.456 -0.08 -0.21    +0.306 C 
DOCKED: ATOM     35  O   UNL d   1      13.696  54.522  13.026 -0.11 +0.22    -0.251 OA
DOCKED: BRANCH  34  36
DOCKED: ATOM     36  O   UNL d   1      12.343  52.749  13.145 -0.02 +0.21    -0.481 OA
DOCKED: ATOM     37  H   UNL d   1      13.002  52.034  13.277 +0.08 -0.15    +0.295 HD
DOCKED: ENDBRANCH  34  36
DOCKED: ENDBRANCH  33  34
DOCKED: ENDBRANCH   7  33
DOCKED: BRANCH  27  38
DOCKED: ATOM     38  C   UNL d   1       5.817  50.173  12.307 -0.10 +0.00    +0.017 C 
DOCKED: ATOM     39  C   UNL d   1       4.619  50.386  12.872 -0.05 +0.01    +0.092 C 
DOCKED: BRANCH  39  40
DOCKED: ATOM     40  C   UNL d   1       3.835  49.253  13.371 -0.05 +0.14    +0.330 C 
DOCKED: ATOM     41  O   UNL d   1       3.779  48.832  14.510 -0.09 -0.07    -0.246 OA
DOCKED: BRANCH  40  42
DOCKED: ATOM     42  O   UNL d   1       3.134  48.701  12.369 -0.51 -0.50    -0.477 OA
DOCKED: ATOM     43  H   UNL d   1       2.737  49.469  11.909 +0.05 +0.15    +0.295 HD
DOCKED: ENDBRANCH  40  42
DOCKED: ENDBRANCH  39  40
DOCKED: ENDBRANCH  27  38
DOCKED: BRANCH   8  44
DOCKED: ATOM     44  C   UNL d   1      10.085  55.867   4.033 -0.14 -0.08    +0.141 C 
DOCKED: BRANCH  44  45
DOCKED: ATOM     45  C   UNL d   1       9.179  57.037   4.311 -0.02 -0.10    +0.306 C 
DOCKED: ATOM     46  O   UNL d   1       9.065  57.632   5.368 -0.01 +0.06    -0.251 OA
DOCKED: BRANCH  45  47
DOCKED: ATOM     47  O   UNL d   1       8.439  57.380   3.242 +0.00 +0.14    -0.481 OA
DOCKED: ATOM     48  H   UNL d   1       7.881  56.594   3.063 +0.05 -0.07    +0.295 HD
DOCKED: ENDBRANCH  45  47
DOCKED: ENDBRANCH  44  45
DOCKED: ENDBRANCH   8  44
DOCKED: BRANCH  22  49
DOCKED: ATOM     49  C   UNL d   1       2.319  52.943   8.934 -0.07 +0.00    +0.048 C 
DOCKED: BRANCH  49  50
DOCKED: ATOM     50  C   UNL d   1       1.821  51.513   8.726 -0.09 +0.01    +0.125 C 
DOCKED: BRANCH  50  51
DOCKED: ATOM     51  C   UNL d   1       1.974  50.703   9.982 -0.04 +0.05    +0.305 C 
DOCKED: ATOM     52  O   UNL d   1       1.384  50.851  11.038 -0.01 -0.04    -0.251 OA
DOCKED: BRANCH  51  53
DOCKED: ATOM     53  O   UNL d   1       2.896  49.730   9.845 -0.04 -0.12    -0.481 OA
DOCKED: ATOM     54  H   UNL d   1       3.599  49.977  10.482 +0.08 +0.07    +0.295 HD
DOCKED: ENDBRANCH  51  53
DOCKED: ENDBRANCH  50  51
DOCKED: ENDBRANCH  49  50
DOCKED: ENDBRANCH  22  49
DOCKED: TORSDOF 13
DOCKED: TER
DOCKED: ENDMDL
________________________________________________________________________________


	BEGINNING GENETIC ALGORITHM DOCKING 96 of 100
Run: 96 Seed: 449717719 1975912328 [ Run 96 of 100 GA/GALS ]
Beginning LAMARCKIAN GENETIC ALGORITHM (LGA), with a maximum of 25000000 energy evaluations.

Final-Value: -10.254


	FINAL GENETIC ALGORITHM DOCKED STATE
	_______________________________________________


Detailed state:  trans 24.315 39.010 -5.893 quatxyzw -0.475114 -0.120020 0.601663 -0.630763 center 0.153 0.018 -0.028 ntor 13 -41.3628 2.9556 -89.0300 86.2941 -114.0275 -126.9413 161.7090 75.3161 -176.6793 -97.6262 179.8765 -94.1445 164.9214
State:	 24.315  39.010  -5.893  -0.612 -0.155  0.775 -101.787    -41.36    2.96  -89.03   86.29 -114.03 -126.94  161.71   75.32 -176.68  -97.63  179.88  -94.14  164.92

DOCKED: MODEL       96
DOCKED: USER    Run = 96
DOCKED: USER    DPF = D:/Protein_go_brrr/autodock/final/6BB5/heme/dock.dpf
DOCKED: USER  
DOCKED: USER    Estimated Free Energy of Binding    =   -4.79 kcal/mol  [=(1)+(2)+(3)-(4)]
DOCKED: USER    Estimated Inhibition Constant, Ki   =  310.10 uM (micromolar)  [Temperature = 298.15 K]
DOCKED: USER    
DOCKED: USER    (1) Final Intermolecular Energy     =   -8.66 kcal/mol
DOCKED: USER        vdW + Hbond + desolv Energy     =   -8.35 kcal/mol
DOCKED: USER        Electrostatic Energy            =   -0.32 kcal/mol
DOCKED: USER    (2) Final Total Internal Energy     =   -1.59 kcal/mol
DOCKED: USER    (3) Torsional Free Energy           =   +3.88 kcal/mol
DOCKED: USER    (4) Unbound System's Energy  [=(2)] =   -1.59 kcal/mol
DOCKED: USER    
DOCKED: USER    
DOCKED: USER    NEWDPF move heme_opt.pdbqt
DOCKED: USER    NEWDPF about 0.153000 0.018000 -0.028000
DOCKED: USER    NEWDPF tran0 24.314768 39.010334 -5.892588
DOCKED: USER    NEWDPF quaternion0 -0.475114 -0.120020 0.601663 -0.630763
DOCKED: USER    NEWDPF axisangle0 -0.612280 -0.154670 0.775364 -101.787055
DOCKED: USER    NEWDPF quat0 -0.612280 -0.154670 0.775364 -101.787055
DOCKED: USER    NEWDPF dihe0 -41.36 2.96 -89.03 86.29 -114.03 -126.94 161.71 75.32 -176.68 -97.63 179.88 -94.14 164.92 
DOCKED: USER  keepresnum = 1 
DOCKED: USER  
DOCKED: REMARK  13 active torsions:
DOCKED: REMARK  status: ('A' for Active; 'I' for Inactive)
DOCKED: REMARK    1  A    between atoms: O_3  and  C_38 
DOCKED: REMARK    2  A    between atoms: O_4  and  C_40 
DOCKED: REMARK    3  A    between atoms: O_7  and  C_46 
DOCKED: REMARK    4  A    between atoms: O_9  and  C_48 
DOCKED: REMARK    5  A    between atoms: C_15  and  C_20 
DOCKED: REMARK    6  A    between atoms: C_16  and  C_23 
DOCKED: REMARK    7  A    between atoms: C_20  and  C_38 
DOCKED: REMARK    8  A    between atoms: C_23  and  C_40 
DOCKED: REMARK    9  A    between atoms: C_32  and  C_41 
DOCKED: REMARK   10  A    between atoms: C_37  and  C_45 
DOCKED: REMARK   11  A    between atoms: C_41  and  C_44 
DOCKED: REMARK   12  A    between atoms: C_44  and  C_46 
DOCKED: REMARK   13  A    between atoms: C_47  and  C_48 
DOCKED: USER                              x       y       z     vdW  Elec       q    Type
DOCKED: USER                           _______ _______ _______ _____ _____    ______ ____
DOCKED: ROOT
DOCKED: ATOM      1  O   UNL d   1      21.370  34.110  -4.454 -0.57 +0.01    -0.289 OA
DOCKED: ATOM      2  O   UNL d   1      27.925  36.823  -1.992 -0.09 -0.02    -0.289 OA
DOCKED: ATOM      3  N   UNL d   1      22.785  36.996  -5.705 -0.13 -0.01    -0.247 NA
DOCKED: ATOM      4  N   UNL d   1      25.145  37.416  -3.948 -0.18 -0.00    -0.247 NA
DOCKED: ATOM      5  N   UNL d   1      25.349  40.078  -5.015 -0.12 -0.04    -0.354 N 
DOCKED: ATOM      6  N   UNL d   1      22.889  39.640  -6.820 -0.06 -0.07    -0.354 N 
DOCKED: ATOM      7  C   UNL d   1      20.648  35.839  -6.024 -0.27 +0.01    +0.084 A 
DOCKED: ATOM      8  C   UNL d   1      26.112  35.441  -2.884 -0.17 -0.00    +0.084 A 
DOCKED: ATOM      9  C   UNL d   1      25.003  36.063  -3.738 -0.23 -0.00    +0.058 A 
DOCKED: ATOM     10  C   UNL d   1      21.563  37.022  -6.354 -0.22 +0.01    +0.058 A 
DOCKED: ATOM     11  C   UNL d   1      21.579  35.128  -5.087 -0.20 -0.00    +0.193 A 
DOCKED: ATOM     12  C   UNL d   1      22.849  35.915  -4.997 -0.16 -0.01    +0.109 A 
DOCKED: ATOM     13  C   UNL d   1      26.890  36.698  -2.616 -0.15 +0.01    +0.193 A 
DOCKED: ATOM     14  C   UNL d   1      19.402  36.274  -5.249 -0.47 +0.00    +0.026 C 
DOCKED: ATOM     15  C   UNL d   1      23.958  35.356  -4.197 -0.27 -0.01    +0.055 C 
DOCKED: ATOM     16  C   UNL d   1      26.988  34.484  -3.698 -0.07 -0.00    +0.026 C 
DOCKED: ATOM     17  C   UNL d   1      26.195  37.824  -3.310 -0.17 +0.00    +0.109 A 
DOCKED: ATOM     18  C   UNL d   1      21.215  37.945  -7.270 -0.28 +0.02    +0.050 C 
DOCKED: ATOM     19  C   UNL d   1      22.028  39.024  -7.701 -0.18 +0.01    +0.045 A 
DOCKED: ATOM     20  C   UNL d   1      26.254  40.165  -3.990 -0.17 +0.00    +0.045 A 
DOCKED: ATOM     21  C   UNL d   1      26.709  39.196  -3.189 -0.16 +0.00    +0.057 C 
DOCKED: ATOM     22  C   UNL d   1      25.973  42.239  -4.905 -0.13 -0.00    -0.019 A 
DOCKED: ATOM     23  C   UNL d   1      25.114  41.280  -5.628 -0.15 +0.01    +0.045 A 
DOCKED: ATOM     24  C   UNL d   1      26.647  41.573  -3.937 -0.16 -0.00    -0.022 A 
DOCKED: ATOM     25  C   UNL d   1      23.508  40.712  -7.419 -0.11 +0.01    +0.049 A 
DOCKED: ATOM     26  C   UNL d   1      22.119  39.690  -8.913 -0.13 -0.01    -0.018 A 
DOCKED: ATOM     27  C   UNL d   1      23.069  40.742  -8.736 -0.08 +0.00    +0.003 A 
DOCKED: ATOM     28  C   UNL d   1      24.324  41.598  -6.664 -0.13 +0.01    +0.052 C 
DOCKED: ATOM     29  C   UNL d   1      27.638  42.102  -2.957 -0.12 +0.00    +0.046 C 
DOCKED: ATOM     30  C   UNL d   1      21.371  39.368 -10.163 -0.13 +0.03    +0.046 C 
DOCKED: ATOM     31  H   UNL d   1      24.975  39.183  -5.312 +0.04 +0.02    +0.166 HD
DOCKED: ATOM     32  H   UNL d   1      23.003  39.353  -5.855 +0.06 +0.03    +0.166 HD
DOCKED: ENDROOT
DOCKED: BRANCH   7  33
DOCKED: ATOM     33  C   UNL d   1      20.287  34.937  -7.210 -0.25 +0.02    +0.141 C 
DOCKED: BRANCH  33  34
DOCKED: ATOM     34  C   UNL d   1      18.805  34.705  -7.330 -0.25 +0.06    +0.306 C 
DOCKED: ATOM     35  O   UNL d   1      18.086  34.192  -6.490 -0.84 -0.07    -0.251 OA
DOCKED: BRANCH  34  36
DOCKED: ATOM     36  O   UNL d   1      18.307  35.134  -8.503 -0.23 -0.20    -0.481 OA
DOCKED: ATOM     37  H   UNL d   1      17.706  34.415  -8.793 -0.19 -0.01    +0.295 HD
DOCKED: ENDBRANCH  34  36
DOCKED: ENDBRANCH  33  34
DOCKED: ENDBRANCH   7  33
DOCKED: BRANCH  27  38
DOCKED: ATOM     38  C   UNL d   1      23.452  41.687  -9.741 -0.04 +0.00    +0.017 C 
DOCKED: ATOM     39  C   UNL d   1      23.350  43.020  -9.630 -0.03 +0.01    +0.092 C 
DOCKED: BRANCH  39  40
DOCKED: ATOM     40  C   UNL d   1      23.796  43.880 -10.730 +0.00 +0.03    +0.330 C 
DOCKED: ATOM     41  O   UNL d   1      24.548  44.834 -10.669 -0.00 -0.01    -0.246 OA
DOCKED: BRANCH  40  42
DOCKED: ATOM     42  O   UNL d   1      23.255  43.468 -11.887 +0.01 -0.05    -0.477 OA
DOCKED: ATOM     43  H   UNL d   1      23.645  44.068 -12.555 +0.00 +0.02    +0.295 HD
DOCKED: ENDBRANCH  40  42
DOCKED: ENDBRANCH  39  40
DOCKED: ENDBRANCH  27  38
DOCKED: BRANCH   8  44
DOCKED: ATOM     44  C   UNL d   1      25.652  34.791  -1.574 -0.20 -0.00    +0.141 C 
DOCKED: BRANCH  44  45
DOCKED: ATOM     45  C   UNL d   1      26.666  34.903  -0.467 -0.12 +0.04    +0.306 C 
DOCKED: ATOM     46  O   UNL d   1      26.522  35.485   0.594 -0.18 -0.03    -0.251 OA
DOCKED: BRANCH  45  47
DOCKED: ATOM     47  O   UNL d   1      27.826  34.294  -0.768 -0.01 -0.15    -0.481 OA
DOCKED: ATOM     48  H   UNL d   1      28.366  34.989  -1.202 +0.06 +0.06    +0.295 HD
DOCKED: ENDBRANCH  45  47
DOCKED: ENDBRANCH  44  45
DOCKED: ENDBRANCH   8  44
DOCKED: BRANCH  22  49
DOCKED: ATOM     49  C   UNL d   1      26.044  43.706  -5.214 -0.07 +0.00    +0.048 C 
DOCKED: BRANCH  49  50
DOCKED: ATOM     50  C   UNL d   1      24.891  44.479  -4.575 -0.12 +0.01    +0.125 C 
DOCKED: BRANCH  50  51
DOCKED: ATOM     51  C   UNL d   1      24.000  43.559  -3.789 -0.22 +0.04    +0.305 C 
DOCKED: ATOM     52  O   UNL d   1      24.262  42.979  -2.750 -0.35 -0.05    -0.251 OA
DOCKED: BRANCH  51  53
DOCKED: ATOM     53  O   UNL d   1      22.795  43.404  -4.373 -0.04 -0.08    -0.481 OA
DOCKED: ATOM     54  H   UNL d   1      22.230  44.075  -3.936 +0.11 +0.01    +0.295 HD
DOCKED: ENDBRANCH  51  53
DOCKED: ENDBRANCH  50  51
DOCKED: ENDBRANCH  49  50
DOCKED: ENDBRANCH  22  49
DOCKED: TORSDOF 13
DOCKED: TER
DOCKED: ENDMDL
________________________________________________________________________________


	BEGINNING GENETIC ALGORITHM DOCKING 97 of 100
Run: 97 Seed: 1958166934 2030358785 [ Run 97 of 100 GA/GALS ]
Beginning LAMARCKIAN GENETIC ALGORITHM (LGA), with a maximum of 25000000 energy evaluations.

Final-Value: -10.251


	FINAL GENETIC ALGORITHM DOCKED STATE
	_______________________________________________


Detailed state:  trans 24.737 46.755 -0.839 quatxyzw 0.384985 -0.080879 -0.125625 -0.910749 center 0.153 0.018 -0.028 ntor 13 111.4322 -164.4270 153.7063 146.9337 180.0000 -3.8870 136.3124 114.7859 -21.5703 174.6515 118.1614 -179.7563 -180.0000
State:	 24.737  46.755  -0.839   0.932 -0.196 -0.304 -48.782    111.43 -164.43  153.71  146.93  180.00   -3.89  136.31  114.79  -21.57  174.65  118.16 -179.76 -180.00

DOCKED: MODEL       97
DOCKED: USER    Run = 97
DOCKED: USER    DPF = D:/Protein_go_brrr/autodock/final/6BB5/heme/dock.dpf
DOCKED: USER  
DOCKED: USER    Estimated Free Energy of Binding    =   -4.76 kcal/mol  [=(1)+(2)+(3)-(4)]
DOCKED: USER    Estimated Inhibition Constant, Ki   =  324.78 uM (micromolar)  [Temperature = 298.15 K]
DOCKED: USER    
DOCKED: USER    (1) Final Intermolecular Energy     =   -8.64 kcal/mol
DOCKED: USER        vdW + Hbond + desolv Energy     =   -7.98 kcal/mol
DOCKED: USER        Electrostatic Energy            =   -0.66 kcal/mol
DOCKED: USER    (2) Final Total Internal Energy     =   -1.61 kcal/mol
DOCKED: USER    (3) Torsional Free Energy           =   +3.88 kcal/mol
DOCKED: USER    (4) Unbound System's Energy  [=(2)] =   -1.61 kcal/mol
DOCKED: USER    
DOCKED: USER    
DOCKED: USER    NEWDPF move heme_opt.pdbqt
DOCKED: USER    NEWDPF about 0.153000 0.018000 -0.028000
DOCKED: USER    NEWDPF tran0 24.736888 46.755239 -0.839229
DOCKED: USER    NEWDPF quaternion0 0.384985 -0.080879 -0.125625 -0.910749
DOCKED: USER    NEWDPF axisangle0 0.932256 -0.195852 -0.304206 -48.781954
DOCKED: USER    NEWDPF quat0 0.932256 -0.195852 -0.304206 -48.781954
DOCKED: USER    NEWDPF dihe0 111.43 -164.43 153.71 146.93 180.00 -3.89 136.31 114.79 -21.57 174.65 118.16 -179.76 -180.00 
DOCKED: USER  keepresnum = 1 
DOCKED: USER  
DOCKED: REMARK  13 active torsions:
DOCKED: REMARK  status: ('A' for Active; 'I' for Inactive)
DOCKED: REMARK    1  A    between atoms: O_3  and  C_38 
DOCKED: REMARK    2  A    between atoms: O_4  and  C_40 
DOCKED: REMARK    3  A    between atoms: O_7  and  C_46 
DOCKED: REMARK    4  A    between atoms: O_9  and  C_48 
DOCKED: REMARK    5  A    between atoms: C_15  and  C_20 
DOCKED: REMARK    6  A    between atoms: C_16  and  C_23 
DOCKED: REMARK    7  A    between atoms: C_20  and  C_38 
DOCKED: REMARK    8  A    between atoms: C_23  and  C_40 
DOCKED: REMARK    9  A    between atoms: C_32  and  C_41 
DOCKED: REMARK   10  A    between atoms: C_37  and  C_45 
DOCKED: REMARK   11  A    between atoms: C_41  and  C_44 
DOCKED: REMARK   12  A    between atoms: C_44  and  C_46 
DOCKED: REMARK   13  A    between atoms: C_47  and  C_48 
DOCKED: USER                              x       y       z     vdW  Elec       q    Type
DOCKED: USER                           _______ _______ _______ _____ _____    ______ ____
DOCKED: ROOT
DOCKED: ATOM      1  O   UNL d   1      19.500  49.082   0.543 -0.60 +0.08    -0.289 OA
DOCKED: ATOM      2  O   UNL d   1      21.777  45.347  -5.561 -0.09 -0.01    -0.289 OA
DOCKED: ATOM      3  N   UNL d   1      22.750  48.011   0.113 -0.10 -0.02    -0.247 NA
DOCKED: ATOM      4  N   UNL d   1      22.616  46.409  -2.386 -0.06 -0.01    -0.247 NA
DOCKED: ATOM      5  N   UNL d   1      25.221  45.372  -1.751 +0.04 -0.07    -0.354 N 
DOCKED: ATOM      6  N   UNL d   1      25.343  47.022   0.849 -0.05 -0.12    -0.354 N 
DOCKED: ATOM      7  C   UNL d   1      21.503  49.062   1.943 -0.23 -0.00    +0.084 A 
DOCKED: ATOM      8  C   UNL d   1      20.846  46.965  -3.977 -0.19 -0.01    +0.084 A 
DOCKED: ATOM      9  C   UNL d   1      21.496  47.181  -2.606 -0.22 -0.00    +0.058 A 
DOCKED: ATOM     10  C   UNL d   1      22.819  48.484   1.413 -0.16 +0.00    +0.058 A 
DOCKED: ATOM     11  C   UNL d   1      20.683  48.849   0.706 -0.18 -0.02    +0.193 A 
DOCKED: ATOM     12  C   UNL d   1      21.558  48.230  -0.339 -0.18 -0.00    +0.109 A 
DOCKED: ATOM     13  C   UNL d   1      21.782  45.902  -4.479 -0.15 -0.00    +0.193 A 
DOCKED: ATOM     14  C   UNL d   1      20.919  48.214   3.076 -0.50 -0.00    +0.026 C 
DOCKED: ATOM     15  C   UNL d   1      20.987  48.011  -1.684 -0.25 -0.01    +0.055 C 
DOCKED: ATOM     16  C   UNL d   1      20.981  48.202  -4.870 -0.08 -0.00    +0.026 C 
DOCKED: ATOM     17  C   UNL d   1      22.804  45.651  -3.418 -0.20 +0.00    +0.109 A 
DOCKED: ATOM     18  C   UNL d   1      23.950  48.529   2.140 -0.15 +0.01    +0.050 C 
DOCKED: ATOM     19  C   UNL d   1      25.228  48.098   1.701 -0.12 +0.01    +0.045 A 
DOCKED: ATOM     20  C   UNL d   1      24.889  44.551  -2.797 -0.19 +0.01    +0.045 A 
DOCKED: ATOM     21  C   UNL d   1      23.833  44.620  -3.615 -0.29 +0.01    +0.057 C 
DOCKED: ATOM     22  C   UNL d   1      26.839  43.810  -1.867 -0.15 -0.00    -0.019 A 
DOCKED: ATOM     23  C   UNL d   1      26.383  45.004  -1.127 -0.09 +0.01    +0.045 A 
DOCKED: ATOM     24  C   UNL d   1      25.951  43.547  -2.855 -0.20 -0.00    -0.022 A 
DOCKED: ATOM     25  C   UNL d   1      26.667  46.722   0.627 -0.12 +0.02    +0.049 A 
DOCKED: ATOM     26  C   UNL d   1      26.508  48.530   2.011 -0.09 -0.01    -0.018 A 
DOCKED: ATOM     27  C   UNL d   1      27.413  47.670   1.314 -0.08 +0.00    +0.003 A 
DOCKED: ATOM     28  C   UNL d   1      27.039  45.555  -0.094 -0.14 +0.02    +0.052 C 
DOCKED: ATOM     29  C   UNL d   1      25.982  42.457  -3.872 -0.21 +0.01    +0.046 C 
DOCKED: ATOM     30  C   UNL d   1      26.872  49.673   2.897 -0.11 +0.00    +0.046 C 
DOCKED: ATOM     31  H   UNL d   1      24.680  46.204  -1.543 +0.04 +0.03    +0.166 HD
DOCKED: ATOM     32  H   UNL d   1      24.550  46.511   0.482 +0.12 +0.05    +0.166 HD
DOCKED: ENDROOT
DOCKED: BRANCH   7  33
DOCKED: ATOM     33  C   UNL d   1      21.541  50.548   2.314 -0.22 -0.01    +0.141 C 
DOCKED: BRANCH  33  34
DOCKED: ATOM     34  C   UNL d   1      22.590  51.309   1.550 -0.06 -0.02    +0.306 C 
DOCKED: ATOM     35  O   UNL d   1      23.472  52.001   2.031 -0.03 +0.01    -0.251 OA
DOCKED: BRANCH  34  36
DOCKED: ATOM     36  O   UNL d   1      22.474  51.158   0.219 -0.00 +0.04    -0.481 OA
DOCKED: ATOM     37  H   UNL d   1      22.752  50.232   0.051 +0.06 -0.01    +0.295 HD
DOCKED: ENDBRANCH  34  36
DOCKED: ENDBRANCH  33  34
DOCKED: ENDBRANCH   7  33
DOCKED: BRANCH  27  38
DOCKED: ATOM     38  C   UNL d   1      28.841  47.756   1.368 -0.10 +0.00    +0.017 C 
DOCKED: ATOM     39  C   UNL d   1      29.557  48.075   2.457 -0.17 +0.01    +0.092 C 
DOCKED: BRANCH  39  40
DOCKED: ATOM     40  C   UNL d   1      31.020  48.112   2.385 -0.18 +0.10    +0.330 C 
DOCKED: ATOM     41  O   UNL d   1      31.726  47.786   1.449 -0.11 -0.12    -0.246 OA
DOCKED: BRANCH  40  42
DOCKED: ATOM     42  O   UNL d   1      31.527  48.583   3.534 -0.19 -0.07    -0.477 OA
DOCKED: ATOM     43  H   UNL d   1      30.780  48.522   4.163 -0.40 -0.36    +0.295 HD
DOCKED: ENDBRANCH  40  42
DOCKED: ENDBRANCH  39  40
DOCKED: ENDBRANCH  27  38
DOCKED: BRANCH   8  44
DOCKED: ATOM     44  C   UNL d   1      19.401  46.456  -3.950 -0.25 -0.03    +0.141 C 
DOCKED: BRANCH  44  45
DOCKED: ATOM     45  C   UNL d   1      18.449  47.330  -4.722 -0.13 -0.05    +0.306 C 
DOCKED: ATOM     46  O   UNL d   1      18.131  47.202  -5.892 -0.10 +0.02    -0.251 OA
DOCKED: BRANCH  45  47
DOCKED: ATOM     47  O   UNL d   1      17.964  48.343  -3.981 -0.03 +0.14    -0.481 OA
DOCKED: ATOM     48  H   UNL d   1      17.996  48.013  -3.058 -0.40 -0.21    +0.295 HD
DOCKED: ENDBRANCH  45  47
DOCKED: ENDBRANCH  44  45
DOCKED: ENDBRANCH   8  44
DOCKED: BRANCH  22  49
DOCKED: ATOM     49  C   UNL d   1      28.080  43.035  -1.533 -0.11 +0.01    +0.048 C 
DOCKED: BRANCH  49  50
DOCKED: ATOM     50  C   UNL d   1      27.774  41.818  -0.661 -0.15 +0.02    +0.125 C 
DOCKED: BRANCH  50  51
DOCKED: ATOM     51  C   UNL d   1      27.161  42.235   0.646 -0.17 +0.07    +0.305 C 
DOCKED: ATOM     52  O   UNL d   1      26.005  42.090   1.005 -0.32 -0.06    -0.251 OA
DOCKED: BRANCH  51  53
DOCKED: ATOM     53  O   UNL d   1      28.055  42.842   1.451 -0.05 -0.18    -0.481 OA
DOCKED: ATOM     54  H   UNL d   1      28.902  42.391   1.250 +0.10 +0.07    +0.295 HD
DOCKED: ENDBRANCH  51  53
DOCKED: ENDBRANCH  50  51
DOCKED: ENDBRANCH  49  50
DOCKED: ENDBRANCH  22  49
DOCKED: TORSDOF 13
DOCKED: TER
DOCKED: ENDMDL
________________________________________________________________________________


	BEGINNING GENETIC ALGORITHM DOCKING 98 of 100
Run: 98 Seed: 442829640 1024166123 [ Run 98 of 100 GA/GALS ]
Beginning LAMARCKIAN GENETIC ALGORITHM (LGA), with a maximum of 25000000 energy evaluations.

Final-Value: -11.361


	FINAL GENETIC ALGORITHM DOCKED STATE
	_______________________________________________


Detailed state:  trans 43.420 24.813 -0.360 quatxyzw -0.844478 -0.110513 0.084589 0.517193 center 0.153 0.018 -0.028 ntor 13 -117.2215 146.1606 -117.3016 49.8257 52.2216 -58.1167 121.3605 33.1439 146.7174 -28.0062 -90.7401 24.6027 -4.4564
State:	 43.420  24.813  -0.360  -0.987 -0.129  0.099 117.712   -117.22  146.16 -117.30   49.83   52.22  -58.12  121.36   33.14  146.72  -28.01  -90.74   24.60   -4.46

DOCKED: MODEL       98
DOCKED: USER    Run = 98
DOCKED: USER    DPF = D:/Protein_go_brrr/autodock/final/6BB5/heme/dock.dpf
DOCKED: USER  
DOCKED: USER    Estimated Free Energy of Binding    =   -2.79 kcal/mol  [=(1)+(2)+(3)-(4)]
DOCKED: USER    Estimated Inhibition Constant, Ki   =    8.96 mM (millimolar)  [Temperature = 298.15 K]
DOCKED: USER    
DOCKED: USER    (1) Final Intermolecular Energy     =   -6.67 kcal/mol
DOCKED: USER        vdW + Hbond + desolv Energy     =   -6.76 kcal/mol
DOCKED: USER        Electrostatic Energy            =   +0.09 kcal/mol
DOCKED: USER    (2) Final Total Internal Energy     =   -4.69 kcal/mol
DOCKED: USER    (3) Torsional Free Energy           =   +3.88 kcal/mol
DOCKED: USER    (4) Unbound System's Energy  [=(2)] =   -4.69 kcal/mol
DOCKED: USER    
DOCKED: USER    
DOCKED: USER    NEWDPF move heme_opt.pdbqt
DOCKED: USER    NEWDPF about 0.153000 0.018000 -0.028000
DOCKED: USER    NEWDPF tran0 43.420226 24.812643 -0.359851
DOCKED: USER    NEWDPF quaternion0 -0.844478 -0.110513 0.084589 0.517193
DOCKED: USER    NEWDPF axisangle0 -0.986691 -0.129124 0.098834 117.711645
DOCKED: USER    NEWDPF quat0 -0.986691 -0.129124 0.098834 117.711645
DOCKED: USER    NEWDPF dihe0 -117.22 146.16 -117.30 49.83 52.22 -58.12 121.36 33.14 146.72 -28.01 -90.74 24.60 -4.46 
DOCKED: USER  keepresnum = 1 
DOCKED: USER  
DOCKED: REMARK  13 active torsions:
DOCKED: REMARK  status: ('A' for Active; 'I' for Inactive)
DOCKED: REMARK    1  A    between atoms: O_3  and  C_38 
DOCKED: REMARK    2  A    between atoms: O_4  and  C_40 
DOCKED: REMARK    3  A    between atoms: O_7  and  C_46 
DOCKED: REMARK    4  A    between atoms: O_9  and  C_48 
DOCKED: REMARK    5  A    between atoms: C_15  and  C_20 
DOCKED: REMARK    6  A    between atoms: C_16  and  C_23 
DOCKED: REMARK    7  A    between atoms: C_20  and  C_38 
DOCKED: REMARK    8  A    between atoms: C_23  and  C_40 
DOCKED: REMARK    9  A    between atoms: C_32  and  C_41 
DOCKED: REMARK   10  A    between atoms: C_37  and  C_45 
DOCKED: REMARK   11  A    between atoms: C_41  and  C_44 
DOCKED: REMARK   12  A    between atoms: C_44  and  C_46 
DOCKED: REMARK   13  A    between atoms: C_47  and  C_48 
DOCKED: USER                              x       y       z     vdW  Elec       q    Type
DOCKED: USER                           _______ _______ _______ _____ _____    ______ ____
DOCKED: ROOT
DOCKED: ATOM      1  O   UNL d   1      38.471  22.934   2.235 -0.22 +0.09    -0.289 OA
DOCKED: ATOM      2  O   UNL d   1      39.583  28.093  -3.107 -0.02 -0.00    -0.289 OA
DOCKED: ATOM      3  N   UNL d   1      41.611  23.808   1.106 -0.15 -0.01    -0.247 NA
DOCKED: ATOM      4  N   UNL d   1      41.036  25.645  -1.157 -0.14 -0.01    -0.247 NA
DOCKED: ATOM      5  N   UNL d   1      43.789  25.385  -1.946 -0.06 -0.04    -0.354 N 
DOCKED: ATOM      6  N   UNL d   1      44.372  23.465   0.394 -0.10 -0.05    -0.354 N 
DOCKED: ATOM      7  C   UNL d   1      40.736  22.106   2.638 -0.23 -0.00    +0.084 A 
DOCKED: ATOM      8  C   UNL d   1      38.915  26.857  -1.103 -0.16 -0.00    +0.084 A 
DOCKED: ATOM      9  C   UNL d   1      39.841  25.800  -0.492 -0.23 +0.00    +0.058 A 
DOCKED: ATOM     10  C   UNL d   1      41.936  22.751   1.939 -0.24 +0.00    +0.058 A 
DOCKED: ATOM     11  C   UNL d   1      39.675  22.999   2.067 -0.22 -0.03    +0.193 A 
DOCKED: ATOM     12  C   UNL d   1      40.335  24.005   1.175 -0.26 -0.00    +0.109 A 
DOCKED: ATOM     13  C   UNL d   1      39.791  27.246  -2.260 -0.07 +0.00    +0.193 A 
DOCKED: ATOM     14  C   UNL d   1      40.490  20.675   2.155 -0.12 -0.00    +0.026 C 
DOCKED: ATOM     15  C   UNL d   1      39.492  25.055   0.569 -0.30 -0.00    +0.055 C 
DOCKED: ATOM     16  C   UNL d   1      38.749  28.068  -0.181 -0.19 -0.00    +0.026 C 
DOCKED: ATOM     17  C   UNL d   1      41.042  26.434  -2.183 -0.12 +0.00    +0.109 A 
DOCKED: ATOM     18  C   UNL d   1      43.197  22.358   2.203 -0.28 +0.01    +0.050 C 
DOCKED: ATOM     19  C   UNL d   1      44.371  22.950   1.670 -0.25 +0.01    +0.045 A 
DOCKED: ATOM     20  C   UNL d   1      43.292  26.045  -3.040 -0.12 +0.00    +0.045 A 
DOCKED: ATOM     21  C   UNL d   1      42.076  26.572  -3.220 -0.10 +0.00    +0.057 C 
DOCKED: ATOM     22  C   UNL d   1      45.453  25.438  -3.463 -0.09 -0.00    -0.019 A 
DOCKED: ATOM     23  C   UNL d   1      45.087  24.979  -2.108 -0.12 +0.00    +0.045 A 
DOCKED: ATOM     24  C   UNL d   1      44.387  26.069  -4.009 -0.08 -0.00    -0.022 A 
DOCKED: ATOM     25  C   UNL d   1      45.629  23.903   0.050 -0.16 +0.01    +0.049 A 
DOCKED: ATOM     26  C   UNL d   1      45.651  23.090   2.183 -0.30 -0.00    -0.018 A 
DOCKED: ATOM     27  C   UNL d   1      46.437  23.711   1.163 -0.24 +0.00    +0.003 A 
DOCKED: ATOM     28  C   UNL d   1      45.915  24.332  -1.275 -0.14 +0.01    +0.052 C 
DOCKED: ATOM     29  C   UNL d   1      44.269  26.713  -5.349 -0.03 +0.00    +0.046 C 
DOCKED: ATOM     30  C   UNL d   1      46.119  22.677   3.537 -0.26 +0.01    +0.046 C 
DOCKED: ATOM     31  H   UNL d   1      43.247  25.297  -1.093 +0.03 +0.03    +0.166 HD
DOCKED: ATOM     32  H   UNL d   1      43.557  23.472  -0.208 +0.04 +0.02    +0.166 HD
DOCKED: ENDROOT
DOCKED: BRANCH   7  33
DOCKED: ATOM     33  C   UNL d   1      40.743  22.191   4.168 -0.27 -0.01    +0.141 C 
DOCKED: BRANCH  33  34
DOCKED: ATOM     34  C   UNL d   1      39.745  21.261   4.804 -0.22 -0.09    +0.306 C 
DOCKED: ATOM     35  O   UNL d   1      40.000  20.225   5.395 -0.24 +0.06    -0.251 OA
DOCKED: BRANCH  34  36
DOCKED: ATOM     36  O   UNL d   1      38.477  21.688   4.665 -0.18 +0.19    -0.481 OA
DOCKED: ATOM     37  H   UNL d   1      38.335  21.727   3.695 +0.14 -0.13    +0.295 HD
DOCKED: ENDBRANCH  34  36
DOCKED: ENDBRANCH  33  34
DOCKED: ENDBRANCH   7  33
DOCKED: BRANCH  27  38
DOCKED: ATOM     38  C   UNL d   1      47.829  24.026   1.271 -0.24 +0.00    +0.017 C 
DOCKED: ATOM     39  C   UNL d   1      48.352  25.260   1.195 -0.24 +0.01    +0.092 C 
DOCKED: BRANCH  39  40
DOCKED: ATOM     40  C   UNL d   1      49.798  25.450   1.339 -0.13 +0.01    +0.330 C 
DOCKED: ATOM     41  O   UNL d   1      50.493  25.165   2.295 -0.16 -0.01    -0.246 OA
DOCKED: BRANCH  40  42
DOCKED: ATOM     42  O   UNL d   1      50.304  26.001   0.225 -0.04 -0.01    -0.477 OA
DOCKED: ATOM     43  H   UNL d   1      49.757  25.623  -0.494 +0.06 +0.01    +0.295 HD
DOCKED: ENDBRANCH  40  42
DOCKED: ENDBRANCH  39  40
DOCKED: ENDBRANCH  27  38
DOCKED: BRANCH   8  44
DOCKED: ATOM     44  C   UNL d   1      37.557  26.342  -1.591 -0.09 -0.00    +0.141 C 
DOCKED: BRANCH  44  45
DOCKED: ATOM     45  C   UNL d   1      37.633  25.628  -2.914 -0.01 -0.01    +0.306 C 
DOCKED: ATOM     46  O   UNL d   1      38.032  24.492  -3.105 -0.01 +0.01    -0.251 OA
DOCKED: BRANCH  45  47
DOCKED: ATOM     47  O   UNL d   1      37.224  26.398  -3.939 +0.00 +0.00    -0.481 OA
DOCKED: ATOM     48  H   UNL d   1      37.850  27.152  -3.948 +0.01 -0.00    +0.295 HD
DOCKED: ENDBRANCH  45  47
DOCKED: ENDBRANCH  44  45
DOCKED: ENDBRANCH   8  44
DOCKED: BRANCH  22  49
DOCKED: ATOM     49  C   UNL d   1      46.793  25.206  -4.098 -0.05 +0.00    +0.048 C 
DOCKED: BRANCH  49  50
DOCKED: ATOM     50  C   UNL d   1      47.784  26.317  -3.756 -0.06 -0.00    +0.125 C 
DOCKED: BRANCH  50  51
DOCKED: ATOM     51  C   UNL d   1      48.547  25.989  -2.504 -0.05 +0.00    +0.305 C 
DOCKED: ATOM     52  O   UNL d   1      48.799  24.885  -2.055 -0.04 -0.01    -0.251 OA
DOCKED: BRANCH  51  53
DOCKED: ATOM     53  O   UNL d   1      48.953  27.099  -1.856 -0.04 +0.03    -0.481 OA
DOCKED: ATOM     54  H   UNL d   1      49.904  26.938  -1.681 +0.04 -0.00    +0.295 HD
DOCKED: ENDBRANCH  51  53
DOCKED: ENDBRANCH  50  51
DOCKED: ENDBRANCH  49  50
DOCKED: ENDBRANCH  22  49
DOCKED: TORSDOF 13
DOCKED: TER
DOCKED: ENDMDL
________________________________________________________________________________


	BEGINNING GENETIC ALGORITHM DOCKING 99 of 100
Run: 99 Seed: 928921624 1877752994 [ Run 99 of 100 GA/GALS ]
Beginning LAMARCKIAN GENETIC ALGORITHM (LGA), with a maximum of 25000000 energy evaluations.

Final-Value: -11.380


	FINAL GENETIC ALGORITHM DOCKED STATE
	_______________________________________________


Detailed state:  trans 37.329 15.242 10.589 quatxyzw 0.352854 0.123365 0.039603 0.926664 center 0.153 0.018 -0.028 ntor 13 82.7398 140.8087 -141.0910 35.8231 -1.4994 57.7034 127.0337 78.1921 -167.9251 -20.7500 -70.0660 -69.6122 -12.8908
State:	 37.329  15.242  10.589   0.939  0.328  0.105 44.159     82.74  140.81 -141.09   35.82   -1.50   57.70  127.03   78.19 -167.93  -20.75  -70.07  -69.61  -12.89

DOCKED: MODEL       99
DOCKED: USER    Run = 99
DOCKED: USER    DPF = D:/Protein_go_brrr/autodock/final/6BB5/heme/dock.dpf
DOCKED: USER  
DOCKED: USER    Estimated Free Energy of Binding    =   -3.65 kcal/mol  [=(1)+(2)+(3)-(4)]
DOCKED: USER    Estimated Inhibition Constant, Ki   =    2.12 mM (millimolar)  [Temperature = 298.15 K]
DOCKED: USER    
DOCKED: USER    (1) Final Intermolecular Energy     =   -7.53 kcal/mol
DOCKED: USER        vdW + Hbond + desolv Energy     =   -7.01 kcal/mol
DOCKED: USER        Electrostatic Energy            =   -0.51 kcal/mol
DOCKED: USER    (2) Final Total Internal Energy     =   -3.85 kcal/mol
DOCKED: USER    (3) Torsional Free Energy           =   +3.88 kcal/mol
DOCKED: USER    (4) Unbound System's Energy  [=(2)] =   -3.85 kcal/mol
DOCKED: USER    
DOCKED: USER    
DOCKED: USER    NEWDPF move heme_opt.pdbqt
DOCKED: USER    NEWDPF about 0.153000 0.018000 -0.028000
DOCKED: USER    NEWDPF tran0 37.329396 15.242285 10.589335
DOCKED: USER    NEWDPF quaternion0 0.352854 0.123365 0.039603 0.926664
DOCKED: USER    NEWDPF axisangle0 0.938716 0.328194 0.105358 44.158605
DOCKED: USER    NEWDPF quat0 0.938716 0.328194 0.105358 44.158605
DOCKED: USER    NEWDPF dihe0 82.74 140.81 -141.09 35.82 -1.50 57.70 127.03 78.19 -167.93 -20.75 -70.07 -69.61 -12.89 
DOCKED: USER  keepresnum = 1 
DOCKED: USER  
DOCKED: REMARK  13 active torsions:
DOCKED: REMARK  status: ('A' for Active; 'I' for Inactive)
DOCKED: REMARK    1  A    between atoms: O_3  and  C_38 
DOCKED: REMARK    2  A    between atoms: O_4  and  C_40 
DOCKED: REMARK    3  A    between atoms: O_7  and  C_46 
DOCKED: REMARK    4  A    between atoms: O_9  and  C_48 
DOCKED: REMARK    5  A    between atoms: C_15  and  C_20 
DOCKED: REMARK    6  A    between atoms: C_16  and  C_23 
DOCKED: REMARK    7  A    between atoms: C_20  and  C_38 
DOCKED: REMARK    8  A    between atoms: C_23  and  C_40 
DOCKED: REMARK    9  A    between atoms: C_32  and  C_41 
DOCKED: REMARK   10  A    between atoms: C_37  and  C_45 
DOCKED: REMARK   11  A    between atoms: C_41  and  C_44 
DOCKED: REMARK   12  A    between atoms: C_44  and  C_46 
DOCKED: REMARK   13  A    between atoms: C_47  and  C_48 
DOCKED: USER                              x       y       z     vdW  Elec       q    Type
DOCKED: USER                           _______ _______ _______ _____ _____    ______ ____
DOCKED: ROOT
DOCKED: ATOM      1  O   UNL d   1      32.048  16.859   8.529 -0.11 -0.03    -0.289 OA
DOCKED: ATOM      2  O   UNL d   1      34.301  10.534  11.892 -0.01 -0.03    -0.289 OA
DOCKED: ATOM      3  N   UNL d   1      35.323  16.300   9.455 -0.57 -0.04    -0.247 NA
DOCKED: ATOM      4  N   UNL d   1      35.183  13.733  10.945 -0.02 -0.05    -0.247 NA
DOCKED: ATOM      5  N   UNL d   1      37.840  14.255  11.910 -0.09 -0.04    -0.354 N 
DOCKED: ATOM      6  N   UNL d   1      37.969  16.926  10.377 -0.15 +0.01    -0.354 N 
DOCKED: ATOM      7  C   UNL d   1      34.087  18.207   8.537 -0.23 -0.00    +0.084 A 
DOCKED: ATOM      8  C   UNL d   1      33.353  12.214  10.384 -0.04 +0.01    +0.084 A 
DOCKED: ATOM      9  C   UNL d   1      34.030  13.576  10.207 -0.08 +0.01    +0.058 A 
DOCKED: ATOM     10  C   UNL d   1      35.408  17.618   9.040 -0.20 +0.00    +0.058 A 
DOCKED: ATOM     11  C   UNL d   1      33.243  16.982   8.724 -0.15 +0.01    +0.193 A 
DOCKED: ATOM     12  C   UNL d   1      34.112  15.888   9.261 -0.14 +0.01    +0.109 A 
DOCKED: ATOM     13  C   UNL d   1      34.314  11.640  11.387 -0.03 +0.02    +0.193 A 
DOCKED: ATOM     14  C   UNL d   1      33.564  19.314   9.457 -0.38 -0.00    +0.026 C 
DOCKED: ATOM     15  C   UNL d   1      33.515  14.549   9.440 -0.12 +0.01    +0.055 C 
DOCKED: ATOM     16  C   UNL d   1      33.419  11.376   9.104 -0.01 +0.00    +0.026 C 
DOCKED: ATOM     17  C   UNL d   1      35.371  12.662  11.647 -0.04 +0.02    +0.109 A 
DOCKED: ATOM     18  C   UNL d   1      36.556  18.319   8.984 -0.27 -0.00    +0.050 C 
DOCKED: ATOM     19  C   UNL d   1      37.837  17.830   9.347 -0.26 -0.00    +0.045 A 
DOCKED: ATOM     20  C   UNL d   1      37.511  13.180  12.695 -0.13 +0.01    +0.045 A 
DOCKED: ATOM     21  C   UNL d   1      36.433  12.393  12.628 -0.10 +0.01    +0.057 C 
DOCKED: ATOM     22  C   UNL d   1      39.511  14.027  13.403 -0.19 -0.00    -0.019 A 
DOCKED: ATOM     23  C   UNL d   1      39.031  14.833  12.262 -0.16 +0.00    +0.045 A 
DOCKED: ATOM     24  C   UNL d   1      38.608  13.050  13.653 -0.16 -0.00    -0.022 A 
DOCKED: ATOM     25  C   UNL d   1      39.297  16.658  10.616 -0.24 +0.00    +0.049 A 
DOCKED: ATOM     26  C   UNL d   1      39.108  18.128   8.881 -0.23 +0.00    -0.018 A 
DOCKED: ATOM     27  C   UNL d   1      40.025  17.370   9.673 -0.21 +0.00    +0.003 A 
DOCKED: ATOM     28  C   UNL d   1      39.692  15.874  11.734 -0.21 -0.00    +0.052 C 
DOCKED: ATOM     29  C   UNL d   1      38.652  11.983  14.694 -0.11 +0.00    +0.046 C 
DOCKED: ATOM     30  C   UNL d   1      39.453  19.057   7.767 -0.23 -0.01    +0.046 C 
DOCKED: ATOM     31  H   UNL d   1      37.274  14.515  11.109 +0.04 +0.02    +0.166 HD
DOCKED: ATOM     32  H   UNL d   1      37.186  16.555  10.900 -0.01 +0.00    +0.166 HD
DOCKED: ENDROOT
DOCKED: BRANCH   7  33
DOCKED: ATOM     33  C   UNL d   1      34.079  18.646   7.069 -0.15 -0.03    +0.141 C 
DOCKED: BRANCH  33  34
DOCKED: ATOM     34  C   UNL d   1      33.774  20.110   6.904 -0.15 -0.16    +0.306 C 
DOCKED: ATOM     35  O   UNL d   1      34.344  21.033   7.462 -0.66 +0.07    -0.251 OA
DOCKED: BRANCH  34  36
DOCKED: ATOM     36  O   UNL d   1      32.767  20.336   6.042 -0.03 +0.38    -0.481 OA
DOCKED: ATOM     37  H   UNL d   1      33.211  20.585   5.203 -0.28 -0.55    +0.295 HD
DOCKED: ENDBRANCH  34  36
DOCKED: ENDBRANCH  33  34
DOCKED: ENDBRANCH   7  33
DOCKED: BRANCH  27  38
DOCKED: ATOM     38  C   UNL d   1      41.450  17.393   9.535 -0.19 +0.00    +0.017 C 
DOCKED: ATOM     39  C   UNL d   1      42.328  17.246  10.539 -0.13 +0.02    +0.092 C 
DOCKED: BRANCH  39  40
DOCKED: ATOM     40  C   UNL d   1      43.766  17.272  10.261 -0.08 +0.14    +0.330 C 
DOCKED: ATOM     41  O   UNL d   1      44.400  18.147   9.701 -0.18 -0.18    -0.246 OA
DOCKED: BRANCH  40  42
DOCKED: ATOM     42  O   UNL d   1      44.347  16.157  10.729 +0.01 -0.18    -0.477 OA
DOCKED: ATOM     43  H   UNL d   1      43.893  15.996  11.582 +0.05 +0.08    +0.295 HD
DOCKED: ENDBRANCH  40  42
DOCKED: ENDBRANCH  39  40
DOCKED: ENDBRANCH  27  38
DOCKED: BRANCH   8  44
DOCKED: ATOM     44  C   UNL d   1      31.929  12.252  10.948 -0.04 +0.02    +0.141 C 
DOCKED: BRANCH  44  45
DOCKED: ATOM     45  C   UNL d   1      31.875  12.650  12.399 -0.03 +0.05    +0.306 C 
DOCKED: ATOM     46  O   UNL d   1      31.892  13.785  12.843 -0.09 -0.05    -0.251 OA
DOCKED: BRANCH  45  47
DOCKED: ATOM     47  O   UNL d   1      31.830  11.588  13.223 +0.00 -0.07    -0.481 OA
DOCKED: ATOM     48  H   UNL d   1      32.424  10.927  12.808 +0.02 +0.04    +0.295 HD
DOCKED: ENDBRANCH  45  47
DOCKED: ENDBRANCH  44  45
DOCKED: ENDBRANCH   8  44
DOCKED: BRANCH  22  49
DOCKED: ATOM     49  C   UNL d   1      40.788  14.294  14.144 -0.17 +0.00    +0.048 C 
DOCKED: BRANCH  49  50
DOCKED: ATOM     50  C   UNL d   1      41.937  13.426  13.630 -0.06 +0.01    +0.125 C 
DOCKED: BRANCH  50  51
DOCKED: ATOM     51  C   UNL d   1      42.958  14.259  12.910 -0.01 +0.05    +0.305 C 
DOCKED: ATOM     52  O   UNL d   1      43.752  15.046  13.395 -0.02 -0.05    -0.251 OA
DOCKED: BRANCH  51  53
DOCKED: ATOM     53  O   UNL d   1      42.919  14.063  11.576 +0.01 -0.08    -0.481 OA
DOCKED: ATOM     54  H   UNL d   1      43.857  14.130  11.299 +0.01 +0.06    +0.295 HD
DOCKED: ENDBRANCH  51  53
DOCKED: ENDBRANCH  50  51
DOCKED: ENDBRANCH  49  50
DOCKED: ENDBRANCH  22  49
DOCKED: TORSDOF 13
DOCKED: TER
DOCKED: ENDMDL
________________________________________________________________________________


	BEGINNING GENETIC ALGORITHM DOCKING 100 of 100
Run: 100 Seed: 11926480 1393742639 [ Run 100 of 100 GA/GALS ]
Beginning LAMARCKIAN GENETIC ALGORITHM (LGA), with a maximum of 25000000 energy evaluations.

Final-Value: -10.775


	FINAL GENETIC ALGORITHM DOCKED STATE
	_______________________________________________


Detailed state:  trans 19.430 47.282 -5.007 quatxyzw -0.270304 -0.399440 0.855586 0.188030 center 0.153 0.018 -0.028 ntor 13 -113.4968 87.1394 -90.3469 60.5942 31.4612 43.8449 131.6430 177.2900 137.6755 -22.8266 84.4038 -91.9174 2.4354
State:	 19.430  47.282  -5.007  -0.275 -0.407  0.871 158.324   -113.50   87.14  -90.35   60.59   31.46   43.84  131.64  177.29  137.68  -22.83   84.40  -91.92    2.44

DOCKED: MODEL      100
DOCKED: USER    Run = 100
DOCKED: USER    DPF = D:/Protein_go_brrr/autodock/final/6BB5/heme/dock.dpf
DOCKED: USER  
DOCKED: USER    Estimated Free Energy of Binding    =   -4.43 kcal/mol  [=(1)+(2)+(3)-(4)]
DOCKED: USER    Estimated Inhibition Constant, Ki   =  561.58 uM (micromolar)  [Temperature = 298.15 K]
DOCKED: USER    
DOCKED: USER    (1) Final Intermolecular Energy     =   -8.31 kcal/mol
DOCKED: USER        vdW + Hbond + desolv Energy     =   -8.13 kcal/mol
DOCKED: USER        Electrostatic Energy            =   -0.18 kcal/mol
DOCKED: USER    (2) Final Total Internal Energy     =   -2.46 kcal/mol
DOCKED: USER    (3) Torsional Free Energy           =   +3.88 kcal/mol
DOCKED: USER    (4) Unbound System's Energy  [=(2)] =   -2.46 kcal/mol
DOCKED: USER    
DOCKED: USER    
DOCKED: USER    NEWDPF move heme_opt.pdbqt
DOCKED: USER    NEWDPF about 0.153000 0.018000 -0.028000
DOCKED: USER    NEWDPF tran0 19.430301 47.281808 -5.006563
DOCKED: USER    NEWDPF quaternion0 -0.270304 -0.399440 0.855586 0.188030
DOCKED: USER    NEWDPF axisangle0 -0.275213 -0.406694 0.871124 158.324282
DOCKED: USER    NEWDPF quat0 -0.275213 -0.406694 0.871124 158.324282
DOCKED: USER    NEWDPF dihe0 -113.50 87.14 -90.35 60.59 31.46 43.84 131.64 177.29 137.68 -22.83 84.40 -91.92 2.44 
DOCKED: USER  keepresnum = 1 
DOCKED: USER  
DOCKED: REMARK  13 active torsions:
DOCKED: REMARK  status: ('A' for Active; 'I' for Inactive)
DOCKED: REMARK    1  A    between atoms: O_3  and  C_38 
DOCKED: REMARK    2  A    between atoms: O_4  and  C_40 
DOCKED: REMARK    3  A    between atoms: O_7  and  C_46 
DOCKED: REMARK    4  A    between atoms: O_9  and  C_48 
DOCKED: REMARK    5  A    between atoms: C_15  and  C_20 
DOCKED: REMARK    6  A    between atoms: C_16  and  C_23 
DOCKED: REMARK    7  A    between atoms: C_20  and  C_38 
DOCKED: REMARK    8  A    between atoms: C_23  and  C_40 
DOCKED: REMARK    9  A    between atoms: C_32  and  C_41 
DOCKED: REMARK   10  A    between atoms: C_37  and  C_45 
DOCKED: REMARK   11  A    between atoms: C_41  and  C_44 
DOCKED: REMARK   12  A    between atoms: C_44  and  C_46 
DOCKED: REMARK   13  A    between atoms: C_47  and  C_48 
DOCKED: USER                              x       y       z     vdW  Elec       q    Type
DOCKED: USER                           _______ _______ _______ _____ _____    ______ ____
DOCKED: ROOT
DOCKED: ATOM      1  O   UNL d   1      24.530  46.336  -2.205 -0.09 -0.04    -0.289 OA
DOCKED: ATOM      2  O   UNL d   1      19.399  51.760  -1.403 -0.18 +0.05    -0.289 OA
DOCKED: ATOM      3  N   UNL d   1      21.721  46.559  -4.193 -0.10 +0.01    -0.247 NA
DOCKED: ATOM      4  N   UNL d   1      20.183  48.780  -2.957 -0.09 +0.05    -0.247 NA
DOCKED: ATOM      5  N   UNL d   1      17.918  47.962  -4.528 -0.08 +0.08    -0.354 N 
DOCKED: ATOM      6  N   UNL d   1      19.515  45.649  -5.791 -0.11 +0.01    -0.354 N 
DOCKED: ATOM      7  C   UNL d   1      23.533  44.928  -3.935 -0.22 +0.01    +0.084 A 
DOCKED: ATOM      8  C   UNL d   1      21.448  50.457  -1.709 -0.07 -0.01    +0.084 A 
DOCKED: ATOM      9  C   UNL d   1      21.424  49.129  -2.474 -0.11 -0.01    +0.058 A 
DOCKED: ATOM     10  C   UNL d   1      22.233  45.347  -4.628 -0.21 +0.00    +0.058 A 
DOCKED: ATOM     11  C   UNL d   1      23.675  46.125  -3.045 -0.13 +0.01    +0.193 A 
DOCKED: ATOM     12  C   UNL d   1      22.531  47.052  -3.314 -0.14 -0.00    +0.109 A 
DOCKED: ATOM     13  C   UNL d   1      19.984  50.777  -1.815 -0.14 -0.03    +0.193 A 
DOCKED: ATOM     14  C   UNL d   1      23.344  43.683  -3.064 +0.02 +0.00    +0.026 C 
DOCKED: ATOM     15  C   UNL d   1      22.510  48.353  -2.614 -0.11 -0.00    +0.055 C 
DOCKED: ATOM     16  C   UNL d   1      22.243  51.530  -2.459 -0.03 -0.00    +0.026 C 
DOCKED: ATOM     17  C   UNL d   1      19.328  49.679  -2.588 -0.13 -0.03    +0.109 A 
DOCKED: ATOM     18  C   UNL d   1      21.706  44.623  -5.634 -0.24 +0.00    +0.050 C 
DOCKED: ATOM     19  C   UNL d   1      20.558  44.976  -6.387 -0.19 +0.00    +0.045 A 
DOCKED: ATOM     20  C   UNL d   1      17.314  48.872  -3.699 -0.17 -0.01    +0.045 A 
DOCKED: ATOM     21  C   UNL d   1      17.876  49.702  -2.814 -0.11 -0.02    +0.057 C 
DOCKED: ATOM     22  C   UNL d   1      15.707  47.816  -4.933 -0.32 +0.00    -0.019 A 
DOCKED: ATOM     23  C   UNL d   1      17.028  47.276  -5.311 -0.25 -0.01    +0.045 A 
DOCKED: ATOM     24  C   UNL d   1      15.883  48.761  -3.979 -0.31 +0.01    -0.022 A 
DOCKED: ATOM     25  C   UNL d   1      18.474  45.807  -6.676 -0.22 -0.00    +0.049 A 
DOCKED: ATOM     26  C   UNL d   1      20.200  44.723  -7.703 -0.16 -0.00    -0.018 A 
DOCKED: ATOM     27  C   UNL d   1      18.891  45.267  -7.885 -0.18 +0.00    +0.003 A 
DOCKED: ATOM     28  C   UNL d   1      17.226  46.334  -6.246 -0.31 -0.01    +0.052 C 
DOCKED: ATOM     29  C   UNL d   1      14.856  49.595  -3.292 -0.37 -0.01    +0.046 C 
DOCKED: ATOM     30  C   UNL d   1      21.022  44.021  -8.730 -0.12 +0.01    +0.046 C 
DOCKED: ATOM     31  H   UNL d   1      18.928  47.892  -4.585 +0.04 -0.03    +0.166 HD
DOCKED: ATOM     32  H   UNL d   1      19.519  45.941  -4.821 +0.06 -0.02    +0.166 HD
DOCKED: ENDROOT
DOCKED: BRANCH   7  33
DOCKED: ATOM     33  C   UNL d   1      24.752  44.791  -4.854 -0.09 +0.01    +0.141 C 
DOCKED: BRANCH  33  34
DOCKED: ATOM     34  C   UNL d   1      25.961  44.255  -4.136 -0.05 +0.03    +0.306 C 
DOCKED: ATOM     35  O   UNL d   1      26.228  43.079  -3.955 -0.08 -0.03    -0.251 OA
DOCKED: BRANCH  34  36
DOCKED: ATOM     36  O   UNL d   1      26.771  45.229  -3.685 +0.00 -0.05    -0.481 OA
DOCKED: ATOM     37  H   UNL d   1      26.232  45.712  -3.023 +0.05 +0.03    +0.295 HD
DOCKED: ENDBRANCH  34  36
DOCKED: ENDBRANCH  33  34
DOCKED: ENDBRANCH   7  33
DOCKED: BRANCH  27  38
DOCKED: ATOM     38  C   UNL d   1      18.136  45.211  -9.100 -0.18 +0.00    +0.017 C 
DOCKED: ATOM     39  C   UNL d   1      16.898  44.707  -9.220 -0.24 -0.00    +0.092 C 
DOCKED: BRANCH  39  40
DOCKED: ATOM     40  C   UNL d   1      16.225  44.726 -10.521 -0.12 -0.04    +0.330 C 
DOCKED: ATOM     41  O   UNL d   1      16.706  44.475 -11.610 -0.06 +0.00    -0.246 OA
DOCKED: BRANCH  40  42
DOCKED: ATOM     42  O   UNL d   1      14.935  45.063 -10.370 -0.07 +0.20    -0.477 OA
DOCKED: ATOM     43  H   UNL d   1      14.476  44.202 -10.287 -0.13 -0.28    +0.295 HD
DOCKED: ENDBRANCH  40  42
DOCKED: ENDBRANCH  39  40
DOCKED: ENDBRANCH  27  38
DOCKED: BRANCH   8  44
DOCKED: ATOM     44  C   UNL d   1      21.886  50.367  -0.243 -0.11 -0.01    +0.141 C 
DOCKED: BRANCH  44  45
DOCKED: ATOM     45  C   UNL d   1      20.850  49.735   0.648 -0.18 -0.04    +0.306 C 
DOCKED: ATOM     46  O   UNL d   1      20.715  48.545   0.874 -0.67 +0.01    -0.251 OA
DOCKED: BRANCH  45  47
DOCKED: ATOM     47  O   UNL d   1      20.015  50.640   1.190 -0.16 +0.15    -0.481 OA
DOCKED: ATOM     48  H   UNL d   1      19.288  50.728   0.537 -0.15 -0.13    +0.295 HD
DOCKED: ENDBRANCH  45  47
DOCKED: ENDBRANCH  44  45
DOCKED: ENDBRANCH   8  44
DOCKED: BRANCH  22  49
DOCKED: ATOM     49  C   UNL d   1      14.407  47.352  -5.522 -0.31 -0.01    +0.048 C 
DOCKED: BRANCH  49  50
DOCKED: ATOM     50  C   UNL d   1      14.133  48.004  -6.877 -0.10 -0.01    +0.125 C 
DOCKED: BRANCH  50  51
DOCKED: ATOM     51  C   UNL d   1      13.271  49.224  -6.721 -0.08 -0.05    +0.305 C 
DOCKED: ATOM     52  O   UNL d   1      12.993  50.052  -7.571 -0.11 +0.03    -0.251 OA
DOCKED: BRANCH  51  53
DOCKED: ATOM     53  O   UNL d   1      12.800  49.351  -5.464 -0.14 +0.14    -0.481 OA
DOCKED: ATOM     54  H   UNL d   1      11.826  49.327  -5.572 -0.39 -0.16    +0.295 HD
DOCKED: ENDBRANCH  51  53
DOCKED: ENDBRANCH  50  51
DOCKED: ENDBRANCH  49  50
DOCKED: ENDBRANCH  22  49
DOCKED: TORSDOF 13
DOCKED: TER
DOCKED: ENDMDL
________________________________________________________________________________

DPF> analysis                             # perform a ranked cluster analysis


		CLUSTER ANALYSIS OF CONFORMATIONS
		_________________________________

Number of conformations = 100

RMSD cluster analysis will be performed using the ligand atoms only (54 / 54 total atoms).

Outputting structurally similar clusters, ranked in order of increasing energy.


________________________________________________________________________________

Number of distinct conformational clusters found = 69,  out of 100 runs,
Using an rmsd-tolerance of 2.0 A


	CLUSTERING HISTOGRAM
	____________________

________________________________________________________________________________
     |           |     |           |     |                                    
Clus | Lowest    | Run | Mean      | Num | Histogram                          
-ter | Binding   |     | Binding   | in  |                                    
Rank | Energy    |     | Energy    | Clus|    5    10   15   20   25   30   35
_____|___________|_____|___________|_____|____:____|____:____|____:____|____:___
   1 |     -7.12 |  53 |     -7.12 |   1 |#
   2 |     -6.58 |  71 |     -6.32 |   2 |##
   3 |     -6.24 |  56 |     -5.06 |   5 |#####
   4 |     -6.22 |  12 |     -6.12 |   2 |##
   5 |     -5.86 |  11 |     -5.06 |   7 |#######
   6 |     -5.84 |  47 |     -5.30 |   2 |##
   7 |     -5.67 |  74 |     -4.54 |   2 |##
   8 |     -5.62 |  70 |     -4.58 |   3 |###
   9 |     -5.37 |  30 |     -5.37 |   1 |#
  10 |     -5.24 |  15 |     -5.24 |   1 |#
  11 |     -5.15 |  61 |     -5.15 |   1 |#
  12 |     -4.87 |  21 |     -4.87 |   1 |#
  13 |     -4.80 |  81 |     -4.32 |   2 |##
  14 |     -4.79 |  96 |     -4.79 |   1 |#
  15 |     -4.67 |  24 |     -3.97 |   3 |###
  16 |     -4.60 |  14 |     -4.60 |   1 |#
  17 |     -4.53 |  37 |     -4.53 |   1 |#
  18 |     -4.46 |  38 |     -4.46 |   1 |#
  19 |     -4.45 |  69 |     -4.10 |   2 |##
  20 |     -4.43 | 100 |     -4.43 |   1 |#
  21 |     -4.31 |  32 |     -4.11 |   2 |##
  22 |     -4.27 |  86 |     -3.67 |   3 |###
  23 |     -4.27 |  89 |     -4.27 |   1 |#
  24 |     -4.20 |  60 |     -3.96 |   2 |##
  25 |     -4.13 |  26 |     -4.13 |   1 |#
  26 |     -4.12 |  27 |     -4.12 |   1 |#
  27 |     -4.02 |  64 |     -4.02 |   1 |#
  28 |     -4.00 |  34 |     -3.58 |   4 |####
  29 |     -3.98 |  82 |     -3.98 |   1 |#
  30 |     -3.92 |  80 |     -3.92 |   1 |#
  31 |     -3.91 |   9 |     -3.91 |   1 |#
  32 |     -3.84 |  94 |     -3.84 |   1 |#
  33 |     -3.83 |  93 |     -3.83 |   1 |#
  34 |     -3.68 |  87 |     -3.68 |   1 |#
  35 |     -3.65 |  99 |     -3.65 |   1 |#
  36 |     -3.64 |  76 |     -3.64 |   1 |#
  37 |     -3.55 |  36 |     -3.55 |   1 |#
  38 |     -3.54 |   1 |     -3.17 |   2 |##
  39 |     -3.51 |  59 |     -3.51 |   1 |#
  40 |     -3.50 |  85 |     -3.50 |   1 |#
  41 |     -3.48 |  13 |     -3.48 |   1 |#
  42 |     -3.46 |  66 |     -3.46 |   1 |#
  43 |     -3.37 |  68 |     -3.37 |   1 |#
  44 |     -3.22 |  79 |     -3.22 |   1 |#
  45 |     -3.15 |   3 |     -2.82 |   2 |##
  46 |     -3.14 |  55 |     -3.14 |   1 |#
  47 |     -3.10 |  20 |     -3.10 |   1 |#
  48 |     -3.10 |   5 |     -3.10 |   1 |#
  49 |     -3.04 |   7 |     -3.04 |   1 |#
  50 |     -3.04 |  16 |     -3.04 |   1 |#
  51 |     -2.96 |  84 |     -2.96 |   1 |#
  52 |     -2.79 |  98 |     -2.79 |   1 |#
  53 |     -2.79 |  25 |     -2.79 |   1 |#
  54 |     -2.79 |  51 |     -2.71 |   3 |###
  55 |     -2.75 |  39 |     -2.75 |   1 |#
  56 |     -2.72 |  10 |     -2.72 |   1 |#
  57 |     -2.72 |  31 |     -2.72 |   1 |#
  58 |     -2.71 |  95 |     -2.71 |   1 |#
  59 |     -2.46 |  75 |     -2.46 |   1 |#
  60 |     -2.43 |  29 |     -2.43 |   1 |#
  61 |     -2.31 |  52 |     -2.31 |   1 |#
  62 |     -2.28 |  58 |     -2.28 |   1 |#
  63 |     -2.20 |  92 |     -2.20 |   1 |#
  64 |     -2.14 |  33 |     -2.14 |   1 |#
  65 |     -1.89 |  62 |     -1.89 |   1 |#
  66 |     -1.84 |  73 |     -1.84 |   1 |#
  67 |     -1.80 |  17 |     -1.80 |   1 |#
  68 |     -1.66 |  28 |     -1.66 |   1 |#
  69 |     -1.27 |  45 |     -1.27 |   1 |#
_____|___________|_____|___________|_____|______________________________________


Number of multi-member conformational clusters found = 17, out of 100 runs.

	RMSD TABLE
	__________

_____________________________________________________________________
     |      |      |           |         |                 |
Rank | Sub- | Run  | Binding   | Cluster | Reference       | Grep
     | Rank |      | Energy    | RMSD    | RMSD            | Pattern
_____|______|______|___________|_________|_________________|___________
   1      1     53       -7.12      0.00     49.11           RANKING
   2      1     71       -6.58      0.00     51.10           RANKING
   2      2     72       -6.06      0.78     51.07           RANKING
   3      1     56       -6.24      0.00     48.02           RANKING
   3      2     67       -5.91      1.76     47.74           RANKING
   3      3     63       -4.65      1.21     48.02           RANKING
   3      4      8       -4.59      0.92     48.43           RANKING
   3      5     50       -3.89      1.14     48.29           RANKING
   4      1     12       -6.22      0.00     42.18           RANKING
   4      2     77       -6.02      1.20     41.95           RANKING
   5      1     11       -5.86      0.00     44.82           RANKING
   5      2     57       -5.61      0.77     44.57           RANKING
   5      3     88       -5.46      0.93     45.20           RANKING
   5      4      4       -4.87      0.72     44.99           RANKING
   5      5     90       -4.87      1.19     45.21           RANKING
   5      6     40       -4.59      1.59     44.39           RANKING
   5      7     65       -4.19      1.44     45.43           RANKING
   6      1     47       -5.84      0.00     48.30           RANKING
   6      2     97       -4.76      1.29     48.48           RANKING
   7      1     74       -5.67      0.00     41.60           RANKING
   7      2     18       -3.41      1.33     42.21           RANKING
   8      1     70       -5.62      0.00     24.70           RANKING
   8      2     46       -4.16      1.32     24.20           RANKING
   8      3     22       -3.97      1.48     24.14           RANKING
   9      1     30       -5.37      0.00     39.71           RANKING
  10      1     15       -5.24      0.00     47.05           RANKING
  11      1     61       -5.15      0.00     42.49           RANKING
  12      1     21       -4.87      0.00     53.07           RANKING
  13      1     81       -4.80      0.00     29.22           RANKING
  13      2     44       -3.84      0.90     29.18           RANKING
  14      1     96       -4.79      0.00     41.46           RANKING
  15      1     24       -4.67      0.00     42.39           RANKING
  15      2     43       -3.89      1.60     41.92           RANKING
  15      3     48       -3.34      1.93     43.12           RANKING
  16      1     14       -4.60      0.00     28.84           RANKING
  17      1     37       -4.53      0.00     42.12           RANKING
  18      1     38       -4.46      0.00     40.63           RANKING
  19      1     69       -4.45      0.00     45.82           RANKING
  19      2     42       -3.74      1.44     45.76           RANKING
  20      1    100       -4.43      0.00     47.09           RANKING
  21      1     32       -4.31      0.00     28.02           RANKING
  21      2     91       -3.92      1.79     27.38           RANKING
  22      1     86       -4.27      0.00     42.20           RANKING
  22      2     19       -4.13      1.17     41.39           RANKING
  22      3     78       -2.61      1.57     42.67           RANKING
  23      1     89       -4.27      0.00     44.36           RANKING
  24      1     60       -4.20      0.00     60.76           RANKING
  24      2     83       -3.71      1.88     60.69           RANKING
  25      1     26       -4.13      0.00     53.15           RANKING
  26      1     27       -4.12      0.00     46.69           RANKING
  27      1     64       -4.02      0.00     23.53           RANKING
  28      1     34       -4.00      0.00     51.17           RANKING
  28      2     35       -3.76      1.05     51.12           RANKING
  28      3     41       -3.37      1.33     50.97           RANKING
  28      4     54       -3.19      1.56     50.68           RANKING
  29      1     82       -3.98      0.00     51.56           RANKING
  30      1     80       -3.92      0.00     42.37           RANKING
  31      1      9       -3.91      0.00     42.40           RANKING
  32      1     94       -3.84      0.00     41.18           RANKING
  33      1     93       -3.83      0.00     47.82           RANKING
  34      1     87       -3.68      0.00     24.64           RANKING
  35      1     99       -3.65      0.00     37.05           RANKING
  36      1     76       -3.64      0.00     51.14           RANKING
  37      1     36       -3.55      0.00     39.52           RANKING
  38      1      1       -3.54      0.00     41.31           RANKING
  38      2      2       -2.81      1.23     41.31           RANKING
  39      1     59       -3.51      0.00     41.40           RANKING
  40      1     85       -3.50      0.00     40.28           RANKING
  41      1     13       -3.48      0.00     25.87           RANKING
  42      1     66       -3.46      0.00     42.68           RANKING
  43      1     68       -3.37      0.00     28.74           RANKING
  44      1     79       -3.22      0.00     53.36           RANKING
  45      1      3       -3.15      0.00     41.36           RANKING
  45      2      6       -2.48      1.65     41.44           RANKING
  46      1     55       -3.14      0.00     41.57           RANKING
  47      1     20       -3.10      0.00     28.24           RANKING
  48      1      5       -3.10      0.00     48.63           RANKING
  49      1      7       -3.04      0.00     13.76           RANKING
  50      1     16       -3.04      0.00     41.03           RANKING
  51      1     84       -2.96      0.00     46.18           RANKING
  52      1     98       -2.79      0.00     44.60           RANKING
  53      1     25       -2.79      0.00     32.56           RANKING
  54      1     51       -2.79      0.00     44.45           RANKING
  54      2     49       -2.77      1.27     44.76           RANKING
  54      3     23       -2.57      1.14     44.29           RANKING
  55      1     39       -2.75      0.00     32.57           RANKING
  56      1     10       -2.72      0.00     45.29           RANKING
  57      1     31       -2.72      0.00     50.27           RANKING
  58      1     95       -2.71      0.00     50.50           RANKING
  59      1     75       -2.46      0.00     18.71           RANKING
  60      1     29       -2.43      0.00     42.34           RANKING
  61      1     52       -2.31      0.00     41.25           RANKING
  62      1     58       -2.28      0.00     51.78           RANKING
  63      1     92       -2.20      0.00     54.27           RANKING
  64      1     33       -2.14      0.00     43.57           RANKING
  65      1     62       -1.89      0.00     49.62           RANKING
  66      1     73       -1.84      0.00     41.99           RANKING
  67      1     17       -1.80      0.00     31.87           RANKING
  68      1     28       -1.66      0.00     24.09           RANKING
  69      1     45       -1.27      0.00     43.35           RANKING
_______________________________________________________________________



	INFORMATION ENTROPY ANALYSIS FOR THIS CLUSTERING
	________________________________________________


Information entropy for this clustering = 0.88  (rmstol = 2.00 Angstrom)

_______________________________________________________________________


	STATISTICAL MECHANICAL ANALYSIS
	_______________________________


Partition function, Q =   100.66            at Temperature, T = 298.15 K
Free energy,        A ~ -2732.36 kcal/mol   at Temperature, T = 298.15 K
Internal energy,    U =    -3.88 kcal/mol   at Temperature, T = 298.15 K
Entropy,            S =     9.15 kcal/mol/K at Temperature, T = 298.15 K

_______________________________________________________________________


	LOWEST ENERGY DOCKED CONFORMATION from EACH CLUSTER
	___________________________________________________



Keeping original residue number (specified in the input PDBQ file) for outputting.

MODEL       53
USER    Run = 53
USER    Cluster Rank = 1
USER    Number of conformations in this cluster = 1
USER  
USER    RMSD from reference structure       = 49.112 A
USER  
USER    Estimated Free Energy of Binding    =   -7.12 kcal/mol  [=(1)+(2)+(3)-(4)]
USER    Estimated Inhibition Constant, Ki   =    6.02 uM (micromolar)  [Temperature = 298.15 K]
USER    
USER    (1) Final Intermolecular Energy     =  -11.00 kcal/mol
USER        vdW + Hbond + desolv Energy     =  -10.45 kcal/mol
USER        Electrostatic Energy            =   -0.55 kcal/mol
USER    (2) Final Total Internal Energy     =   -4.28 kcal/mol
USER    (3) Torsional Free Energy           =   +3.88 kcal/mol
USER    (4) Unbound System's Energy  [=(2)] =   -4.28 kcal/mol
USER    
USER    
USER  
USER    DPF = D:/Protein_go_brrr/autodock/final/6BB5/heme/dock.dpf
USER    NEWDPF move	heme_opt.pdbqt
USER    NEWDPF about	0.153000 0.018000 -0.028000
USER    NEWDPF tran0	42.972451 27.449940 16.589796
USER    NEWDPF axisangle0	0.274288 0.115032 -0.954743 174.466702
USER    NEWDPF quaternion0	0.273968 0.114898 -0.953630 0.048268
USER    NEWDPF dihe0	126.94 132.91 -148.28 60.00 -132.26 87.29 130.95 139.90 25.48 -4.89 -71.70 -94.67 -6.67 
USER  
USER                              x       y       z    vdW   Elec        q     RMS 
ATOM      1  O   UNL d   1      47.320  24.819  19.578 -0.01 -0.15    -0.289    49.112
ATOM      2  O   UNL d   1      46.202  32.038  17.839 -0.07 -0.06    -0.289    49.112
ATOM      3  N   UNL d   1      44.657  25.888  17.665 -0.11 -0.09    -0.247    49.112
ATOM      4  N   UNL d   1      44.884  28.849  17.773 -0.10 -0.09    -0.247    49.112
ATOM      5  N   UNL d   1      42.221  29.000  16.701 -0.15 -0.08    -0.354    49.112
ATOM      6  N   UNL d   1      41.987  25.927  16.610 -0.16 -0.07    -0.354    49.112
ATOM      7  C   UNL d   1      45.336  23.744  18.639 -0.13 +0.04    +0.084    49.112
ATOM      8  C   UNL d   1      47.106  29.787  18.164 -0.12 +0.03    +0.084    49.112
ATOM      9  C   UNL d   1      46.197  28.557  18.066 -0.11 +0.02    +0.058    49.112
ATOM     10  C   UNL d   1      44.327  24.552  17.817 -0.19 +0.02    +0.058    49.112
ATOM     11  C   UNL d   1      46.304  24.856  18.908 -0.04 +0.10    +0.193    49.112
ATOM     12  C   UNL d   1      45.795  26.098  18.244 -0.11 +0.05    +0.109    49.112
ATOM     13  C   UNL d   1      46.058  30.833  17.910 -0.10 +0.05    +0.193    49.112
ATOM     14  C   UNL d   1      44.745  23.269  19.968 -0.12 +0.01    +0.026    49.112
ATOM     15  C   UNL d   1      46.636  27.310  18.296 -0.13 +0.02    +0.055    49.112
ATOM     16  C   UNL d   1      48.130  29.829  17.025 -0.02 +0.01    +0.026    49.112
ATOM     17  C   UNL d   1      44.754  30.135  17.696 -0.18 +0.03    +0.109    49.112
ATOM     18  C   UNL d   1      43.268  23.965  17.230 -0.32 +0.01    +0.050    49.112
ATOM     19  C   UNL d   1      42.331  24.614  16.385 -0.32 +0.01    +0.045    49.112
ATOM     20  C   UNL d   1      42.415  30.315  17.035 -0.33 +0.01    +0.045    49.112
ATOM     21  C   UNL d   1      43.529  30.914  17.467 -0.30 +0.01    +0.057    49.112
ATOM     22  C   UNL d   1      40.245  30.033  16.378 -0.25 -0.00    -0.019    49.112
ATOM     23  C   UNL d   1      40.941  28.733  16.292 +0.05 +0.01    +0.045    49.112
ATOM     24  C   UNL d   1      41.123  30.965  16.816 -0.40 -0.00    -0.022    49.112
ATOM     25  C   UNL d   1      41.002  26.325  15.735 -0.39 +0.01    +0.049    49.112
ATOM     26  C   UNL d   1      41.579  24.158  15.314 -0.39 -0.00    -0.018    49.112
ATOM     27  C   UNL d   1      40.756  25.248  14.895 -0.44 +0.00    +0.003    49.112
ATOM     28  C   UNL d   1      40.372  27.592  15.873 -0.33 +0.01    +0.052    49.112
ATOM     29  C   UNL d   1      40.899  32.420  17.052 -0.40 +0.01    +0.046    49.112
ATOM     30  C   UNL d   1      41.622  22.794  14.712 -0.40 +0.01    +0.046    49.112
ATOM     31  H   UNL d   1      42.991  28.340  16.692 +0.08 +0.04    +0.166    49.112
ATOM     32  H   UNL d   1      42.385  26.493  17.350 +0.08 +0.04    +0.166    49.112
ATOM     33  C   UNL d   1      46.027  22.599  17.889 -0.15 +0.08    +0.141    49.112
ATOM     34  C   UNL d   1      47.049  23.089  16.900 -0.14 +0.31    +0.306    49.112
ATOM     35  O   UNL d   1      46.819  23.552  15.796 -0.24 -0.25    -0.251    49.112
ATOM     36  O   UNL d   1      48.309  22.970  17.355 -0.59 -0.69    -0.481    49.112
ATOM     37  H   UNL d   1      48.311  23.457  18.206 +0.05 +0.25    +0.295    49.112
ATOM     38  C   UNL d   1      39.809  25.203  13.821 -0.53 +0.00    +0.017    49.112
ATOM     39  C   UNL d   1      38.498  25.463  13.934 -0.47 +0.01    +0.092    49.112
ATOM     40  C   UNL d   1      37.637  25.399  12.750 -0.30 +0.05    +0.330    49.112
ATOM     41  O   UNL d   1      37.093  24.418  12.279 -0.47 -0.05    -0.246    49.112
ATOM     42  O   UNL d   1      37.497  26.621  12.214 -0.09 -0.07    -0.477    49.112
ATOM     43  H   UNL d   1      37.293  27.193  12.982 +0.24 +0.04    +0.295    49.112
ATOM     44  C   UNL d   1      47.780  30.003  19.523 -0.07 +0.06    +0.141    49.112
ATOM     45  C   UNL d   1      46.805  30.049  20.669 -0.08 +0.21    +0.306    49.112
ATOM     46  O   UNL d   1      46.378  29.097  21.299 -0.48 -0.34    -0.251    49.112
ATOM     47  O   UNL d   1      46.394  31.300  20.945 -0.06 -0.27    -0.481    49.112
ATOM     48  H   UNL d   1      46.417  31.765  20.082 +0.08 +0.11    +0.295    49.112
ATOM     49  C   UNL d   1      38.798  30.237  16.040 -0.37 +0.01    +0.048    49.112
ATOM     50  C   UNL d   1      38.602  30.596  14.567 -0.28 +0.02    +0.125    49.112
ATOM     51  C   UNL d   1      37.967  29.459  13.818 -0.22 +0.05    +0.305    49.112
ATOM     52  O   UNL d   1      37.036  29.514  13.033 -0.30 -0.03    -0.251    49.112
ATOM     53  O   UNL d   1      38.543  28.276  14.112 -0.26 -0.10    -0.481    49.112
ATOM     54  H   UNL d   1      38.875  27.952  13.249 +0.21 +0.05    +0.295    49.112
TER
ENDMDL
MODEL       71
USER    Run = 71
USER    Cluster Rank = 2
USER    Number of conformations in this cluster = 2
USER  
USER    RMSD from reference structure       = 51.105 A
USER  
USER    Estimated Free Energy of Binding    =   -6.58 kcal/mol  [=(1)+(2)+(3)-(4)]
USER    Estimated Inhibition Constant, Ki   =   14.96 uM (micromolar)  [Temperature = 298.15 K]
USER    
USER    (1) Final Intermolecular Energy     =  -10.46 kcal/mol
USER        vdW + Hbond + desolv Energy     =  -10.26 kcal/mol
USER        Electrostatic Energy            =   -0.20 kcal/mol
USER    (2) Final Total Internal Energy     =   -2.69 kcal/mol
USER    (3) Torsional Free Energy           =   +3.88 kcal/mol
USER    (4) Unbound System's Energy  [=(2)] =   -2.69 kcal/mol
USER    
USER    
USER  
USER    DPF = D:/Protein_go_brrr/autodock/final/6BB5/heme/dock.dpf
USER    NEWDPF move	heme_opt.pdbqt
USER    NEWDPF about	0.153000 0.018000 -0.028000
USER    NEWDPF tran0	43.883356 28.279959 18.414530
USER    NEWDPF axisangle0	-0.089077 -0.995418 -0.034752 147.410223
USER    NEWDPF quaternion0	-0.085499 -0.955433 -0.033356 0.280581
USER    NEWDPF dihe0	167.06 108.48 -110.03 41.28 -145.96 -36.04 122.75 54.57 29.54 -35.22 -84.18 180.00 -14.30 
USER  
USER                              x       y       z    vdW   Elec        q     RMS 
ATOM      1  O   UNL d   1      49.124  28.929  21.035 -0.01 -0.13    -0.289    51.105
ATOM      2  O   UNL d   1      44.527  23.007  20.609 -0.73 -0.15    -0.289    51.105
ATOM      3  N   UNL d   1      46.047  29.061  19.483 -0.09 -0.15    -0.247    51.105
ATOM      4  N   UNL d   1      45.126  26.237  19.552 -0.07 -0.15    -0.247    51.105
ATOM      5  N   UNL d   1      43.092  26.951  17.649 -0.04 -0.11    -0.354    51.105
ATOM      6  N   UNL d   1      44.067  29.874  17.568 -0.11 -0.10    -0.354    51.105
ATOM      7  C   UNL d   1      47.935  30.607  19.714 -0.06 +0.03    +0.084    51.105
ATOM      8  C   UNL d   1      46.005  24.817  21.336 -0.08 +0.06    +0.084    51.105
ATOM      9  C   UNL d   1      46.012  26.163  20.603 -0.10 +0.05    +0.058    51.105
ATOM     10  C   UNL d   1      46.538  30.314  19.158 -0.13 +0.02    +0.058    51.105
ATOM     11  C   UNL d   1      48.139  29.304  20.427 -0.05 +0.10    +0.193    51.105
ATOM     12  C   UNL d   1      46.915  28.463  20.233 -0.10 +0.08    +0.109    51.105
ATOM     13  C   UNL d   1      44.977  24.129  20.483 -0.12 +0.10    +0.193    51.105
ATOM     14  C   UNL d   1      48.981  30.733  18.603 -0.07 +0.01    +0.026    51.105
ATOM     15  C   UNL d   1      46.848  27.162  20.927 -0.07 +0.06    +0.055    51.105
ATOM     16  C   UNL d   1      45.455  24.949  22.760 -0.17 +0.03    +0.026    51.105
ATOM     17  C   UNL d   1      44.529  25.094  19.434 -0.15 +0.05    +0.109    51.105
ATOM     18  C   UNL d   1      45.837  31.250  18.491 -0.20 +0.01    +0.050    51.105
ATOM     19  C   UNL d   1      44.510  31.099  18.014 -0.23 +0.01    +0.045    51.105
ATOM     20  C   UNL d   1      42.959  25.586  17.635 -0.28 +0.01    +0.045    51.105
ATOM     21  C   UNL d   1      43.549  24.679  18.420 -0.29 +0.02    +0.057    51.105
ATOM     22  C   UNL d   1      41.635  26.474  15.999 -0.39 -0.00    -0.019    51.105
ATOM     23  C   UNL d   1      42.331  27.574  16.696 -0.25 +0.01    +0.045    51.105
ATOM     24  C   UNL d   1      42.010  25.300  16.560 -0.36 -0.00    -0.022    51.105
ATOM     25  C   UNL d   1      42.789  29.974  17.069 -0.31 +0.01    +0.049    51.105
ATOM     26  C   UNL d   1      43.480  32.010  17.835 -0.24 -0.00    -0.018    51.105
ATOM     27  C   UNL d   1      42.390  31.290  17.257 -0.40 +0.00    +0.003    51.105
ATOM     28  C   UNL d   1      42.176  28.875  16.408 -0.21 +0.01    +0.052    51.105
ATOM     29  C   UNL d   1      41.572  23.918  16.213 -0.46 +0.01    +0.046    51.105
ATOM     30  C   UNL d   1      43.505  33.460  18.182 -0.38 +0.00    +0.046    51.105
ATOM     31  H   UNL d   1      43.644  27.418  18.360 +0.07 +0.07    +0.166    51.105
ATOM     32  H   UNL d   1      44.636  29.035  17.576 +0.07 +0.05    +0.166    51.105
ATOM     33  C   UNL d   1      48.017  31.778  20.700 -0.06 +0.05    +0.141    51.105
ATOM     34  C   UNL d   1      47.515  31.417  22.071 -0.07 +0.16    +0.306    51.105
ATOM     35  O   UNL d   1      46.374  31.553  22.479 -0.04 -0.18    -0.251    51.105
ATOM     36  O   UNL d   1      48.476  30.900  22.856 -0.03 -0.24    -0.481    51.105
ATOM     37  H   UNL d   1      49.200  30.663  22.237 +0.02 +0.11    +0.295    51.105
ATOM     38  C   UNL d   1      41.127  31.858  16.893 -0.50 +0.00    +0.017    51.105
ATOM     39  C   UNL d   1      40.948  33.084  16.377 -0.44 +0.01    +0.092    51.105
ATOM     40  C   UNL d   1      39.600  33.541  16.030 -0.28 +0.03    +0.330    51.105
ATOM     41  O   UNL d   1      38.697  32.889  15.540 -0.27 -0.02    -0.246    51.105
ATOM     42  O   UNL d   1      39.459  34.839  16.340 -0.14 +0.00    -0.477    51.105
ATOM     43  H   UNL d   1      39.427  34.844  17.319 -0.33 -0.06    +0.295    51.105
ATOM     44  C   UNL d   1      47.332  24.051  21.323 -0.02 +0.07    +0.141    51.105
ATOM     45  C   UNL d   1      47.521  23.212  20.087 -0.01 +0.15    +0.306    51.105
ATOM     46  O   UNL d   1      47.865  23.607  18.986 -0.03 -0.15    -0.251    51.105
ATOM     47  O   UNL d   1      47.239  21.914  20.298 -0.02 -0.20    -0.481    51.105
ATOM     48  H   UNL d   1      46.268  21.890  20.431 +0.06 +0.11    +0.295    51.105
ATOM     49  C   UNL d   1      40.689  26.669  14.851 -0.36 +0.01    +0.048    51.105
ATOM     50  C   UNL d   1      39.230  26.660  15.308 -0.33 +0.02    +0.125    51.105
ATOM     51  C   UNL d   1      38.722  28.060  15.507 -0.25 +0.08    +0.305    51.105
ATOM     52  O   UNL d   1      38.827  29.004  14.745 -0.64 -0.08    -0.251    51.105
ATOM     53  O   UNL d   1      38.100  28.207  16.694 -0.69 -0.13    -0.481    51.105
ATOM     54  H   UNL d   1      37.321  28.765  16.488 +0.18 +0.05    +0.295    51.105
TER
ENDMDL
MODEL       56
USER    Run = 56
USER    Cluster Rank = 3
USER    Number of conformations in this cluster = 5
USER  
USER    RMSD from reference structure       = 48.021 A
USER  
USER    Estimated Free Energy of Binding    =   -6.24 kcal/mol  [=(1)+(2)+(3)-(4)]
USER    Estimated Inhibition Constant, Ki   =   26.82 uM (micromolar)  [Temperature = 298.15 K]
USER    
USER    (1) Final Intermolecular Energy     =  -10.11 kcal/mol
USER        vdW + Hbond + desolv Energy     =  -10.01 kcal/mol
USER        Electrostatic Energy            =   -0.10 kcal/mol
USER    (2) Final Total Internal Energy     =   -2.23 kcal/mol
USER    (3) Torsional Free Energy           =   +3.88 kcal/mol
USER    (4) Unbound System's Energy  [=(2)] =   -2.23 kcal/mol
USER    
USER    
USER  
USER    DPF = D:/Protein_go_brrr/autodock/final/6BB5/heme/dock.dpf
USER    NEWDPF move	heme_opt.pdbqt
USER    NEWDPF about	0.153000 0.018000 -0.028000
USER    NEWDPF tran0	19.171303 49.009094 -3.398260
USER    NEWDPF axisangle0	0.003312 0.584809 -0.811164 67.971112
USER    NEWDPF quaternion0	0.001852 0.326899 -0.453428 0.829179
USER    NEWDPF dihe0	150.30 180.00 -125.28 -43.11 -139.76 -51.49 -109.44 122.24 17.93 -140.14 121.08 -32.07 -159.58 
USER  
USER                              x       y       z    vdW   Elec        q     RMS 
ATOM      1  O   UNL d   1      15.446  45.588  -6.427 -0.34 +0.09    -0.289    48.021
ATOM      2  O   UNL d   1      22.671  44.618  -4.624 -0.18 -0.02    -0.289    48.021
ATOM      3  N   UNL d   1      17.283  47.962  -4.730 -0.13 +0.05    -0.247    48.021
ATOM      4  N   UNL d   1      19.869  46.590  -4.219 -0.18 +0.04    -0.247    48.021
ATOM      5  N   UNL d   1      20.504  48.682  -2.352 -0.08 +0.07    -0.354    48.021
ATOM      6  N   UNL d   1      17.812  50.089  -2.873 -0.13 +0.10    -0.354    48.021
ATOM      7  C   UNL d   1      14.927  47.726  -5.363 -0.32 -0.02    +0.084    48.021
ATOM      8  C   UNL d   1      20.514  44.811  -5.765 -0.26 +0.00    +0.084    48.021
ATOM      9  C   UNL d   1      19.469  45.828  -5.294 -0.28 -0.00    +0.058    48.021
ATOM     10  C   UNL d   1      16.026  48.540  -4.673 -0.23 -0.01    +0.058    48.021
ATOM     11  C   UNL d   1      15.790  46.595  -5.835 -0.26 -0.04    +0.193    48.021
ATOM     12  C   UNL d   1      17.200  46.867  -5.412 -0.25 -0.02    +0.109    48.021
ATOM     13  C   UNL d   1      21.567  45.113  -4.736 -0.18 -0.00    +0.193    48.021
ATOM     14  C   UNL d   1      13.902  47.183  -4.364 -0.35 -0.01    +0.026    48.021
ATOM     15  C   UNL d   1      18.252  45.927  -5.850 -0.32 -0.00    +0.055    48.021
ATOM     16  C   UNL d   1      21.065  45.164  -7.150 -0.13 +0.00    +0.026    48.021
ATOM     17  C   UNL d   1      21.049  46.203  -3.855 -0.23 -0.01    +0.109    48.021
ATOM     18  C   UNL d   1      15.776  49.753  -4.145 -0.27 -0.01    +0.050    48.021
ATOM     19  C   UNL d   1      16.743  50.612  -3.564 -0.23 -0.01    +0.045    48.021
ATOM     20  C   UNL d   1      21.522  47.805  -2.079 -0.20 -0.00    +0.045    48.021
ATOM     21  C   UNL d   1      21.853  46.680  -2.720 -0.21 -0.00    +0.057    48.021
ATOM     22  C   UNL d   1      21.581  49.503  -0.552 -0.16 +0.00    -0.019    48.021
ATOM     23  C   UNL d   1      20.459  49.739  -1.482 -0.19 -0.01    +0.045    48.021
ATOM     24  C   UNL d   1      22.207  48.357  -0.911 -0.16 +0.00    -0.022    48.021
ATOM     25  C   UNL d   1      18.569  51.095  -2.319 -0.23 -0.01    +0.049    48.021
ATOM     26  C   UNL d   1      16.828  51.994  -3.489 -0.19 +0.00    -0.018    48.021
ATOM     27  C   UNL d   1      17.994  52.293  -2.719 -0.16 -0.00    +0.003    48.021
ATOM     28  C   UNL d   1      19.637  50.798  -1.429 -0.26 -0.01    +0.052    48.021
ATOM     29  C   UNL d   1      23.397  47.709  -0.288 +0.03 +0.01    +0.046    48.021
ATOM     30  C   UNL d   1      15.887  52.978  -4.097 -0.14 -0.01    +0.046    48.021
ATOM     31  H   UNL d   1      19.917  48.567  -3.171 +0.01 -0.04    +0.166    48.021
ATOM     32  H   UNL d   1      17.976  49.095  -2.764 -0.27 -0.08    +0.166    48.021
ATOM     33  C   UNL d   1      14.246  48.415  -6.550 -0.19 -0.02    +0.141    48.021
ATOM     34  C   UNL d   1      15.183  48.638  -7.706 -0.07 -0.03    +0.306    48.021
ATOM     35  O   UNL d   1      15.933  49.588  -7.852 -0.02 +0.02    -0.251    48.021
ATOM     36  O   UNL d   1      15.127  47.650  -8.616 -0.04 +0.05    -0.481    48.021
ATOM     37  H   UNL d   1      14.926  46.844  -8.094 +0.11 -0.04    +0.295    48.021
ATOM     38  C   UNL d   1      18.447  53.610  -2.385 +0.05 -0.00    +0.017    48.021
ATOM     39  C   UNL d   1      19.587  53.895  -1.737 -0.08 -0.01    +0.092    48.021
ATOM     40  C   UNL d   1      19.945  55.291  -1.471 -0.06 -0.04    +0.330    48.021
ATOM     41  O   UNL d   1      20.023  56.204  -2.270 -0.04 +0.02    -0.246    48.021
ATOM     42  O   UNL d   1      20.185  55.464  -0.162 -0.09 +0.10    -0.477    48.021
ATOM     43  H   UNL d   1      20.040  54.576   0.223 -0.46 -0.12    +0.295    48.021
ATOM     44  C   UNL d   1      20.085  43.342  -5.697 -0.34 +0.02    +0.141    48.021
ATOM     45  C   UNL d   1      21.047  42.409  -6.384 -0.17 +0.06    +0.306    48.021
ATOM     46  O   UNL d   1      20.784  41.325  -6.874 -0.28 -0.07    -0.251    48.021
ATOM     47  O   UNL d   1      22.306  42.884  -6.392 -0.07 -0.08    -0.481    48.021
ATOM     48  H   UNL d   1      22.504  43.077  -5.451 +0.13 +0.05    +0.295    48.021
ATOM     49  C   UNL d   1      21.924  50.402   0.600 -0.16 -0.00    +0.048    48.021
ATOM     50  C   UNL d   1      21.779  49.686   1.943 -0.20 -0.01    +0.125    48.021
ATOM     51  C   UNL d   1      20.381  49.168   2.127 -0.28 -0.04    +0.305    48.021
ATOM     52  O   UNL d   1      20.026  48.006   2.222 -0.70 +0.01    -0.251    48.021
ATOM     53  O   UNL d   1      19.475  50.165   2.170 -0.23 +0.15    -0.481    48.021
ATOM     54  H   UNL d   1      18.739  49.843   1.610 -0.34 -0.18    +0.295    48.021
TER
ENDMDL
MODEL       12
USER    Run = 12
USER    Cluster Rank = 4
USER    Number of conformations in this cluster = 2
USER  
USER    RMSD from reference structure       = 42.175 A
USER  
USER    Estimated Free Energy of Binding    =   -6.22 kcal/mol  [=(1)+(2)+(3)-(4)]
USER    Estimated Inhibition Constant, Ki   =   27.43 uM (micromolar)  [Temperature = 298.15 K]
USER    
USER    (1) Final Intermolecular Energy     =  -10.10 kcal/mol
USER        vdW + Hbond + desolv Energy     =   -9.56 kcal/mol
USER        Electrostatic Energy            =   -0.54 kcal/mol
USER    (2) Final Total Internal Energy     =   -1.62 kcal/mol
USER    (3) Torsional Free Energy           =   +3.88 kcal/mol
USER    (4) Unbound System's Energy  [=(2)] =   -1.62 kcal/mol
USER    
USER    
USER  
USER    DPF = D:/Protein_go_brrr/autodock/final/6BB5/heme/dock.dpf
USER    NEWDPF move	heme_opt.pdbqt
USER    NEWDPF about	0.153000 0.018000 -0.028000
USER    NEWDPF tran0	31.095130 35.200125 2.898592
USER    NEWDPF axisangle0	-0.056873 -0.783915 0.618257 -119.387826
USER    NEWDPF quaternion0	-0.049101 -0.676787 0.533767 -0.504619
USER    NEWDPF dihe0	120.69 -26.26 98.60 -174.69 -131.95 5.45 -35.41 -77.17 27.71 150.45 -53.22 153.90 154.97 
USER  
USER                              x       y       z    vdW   Elec        q     RMS 
ATOM      1  O   UNL d   1      32.547  32.087  -1.893 -0.00 -0.06    -0.289    42.175
ATOM      2  O   UNL d   1      35.836  32.593   4.839 -0.40 -0.03    -0.289    42.175
ATOM      3  N   UNL d   1      31.394  34.176   0.597 -0.04 -0.12    -0.247    42.175
ATOM      4  N   UNL d   1      33.104  33.475   2.924 -0.10 -0.08    -0.247    42.175
ATOM      5  N   UNL d   1      31.266  34.924   4.594 -0.09 -0.09    -0.354    42.175
ATOM      6  N   UNL d   1      29.487  35.630   2.178 -0.03 -0.10    -0.354    42.175
ATOM      7  C   UNL d   1      30.590  33.526  -1.625 -0.02 +0.03    +0.084    42.175
ATOM      8  C   UNL d   1      35.317  32.554   2.448 -0.25 +0.00    +0.084    42.175
ATOM      9  C   UNL d   1      33.954  33.031   1.935 -0.13 +0.01    +0.058    42.175
ATOM     10  C   UNL d   1      30.388  34.336  -0.340 -0.05 +0.03    +0.058    42.175
ATOM     11  C   UNL d   1      31.899  32.896  -1.255 -0.02 +0.06    +0.193    42.175
ATOM     12  C   UNL d   1      32.293  33.389   0.103 -0.05 +0.04    +0.109    42.175
ATOM     13  C   UNL d   1      35.070  32.775   3.913 -0.31 +0.02    +0.193    42.175
ATOM     14  C   UNL d   1      29.537  32.426  -1.783 -0.05 +0.01    +0.026    42.175
ATOM     15  C   UNL d   1      33.603  32.971   0.642 -0.08 +0.01    +0.055    42.175
ATOM     16  C   UNL d   1      36.450  33.480   1.994 -0.36 -0.00    +0.026    42.175
ATOM     17  C   UNL d   1      33.691  33.329   4.068 -0.29 +0.03    +0.109    42.175
ATOM     18  C   UNL d   1      29.356  35.189  -0.203 -0.08 +0.02    +0.050    42.175
ATOM     19  C   UNL d   1      29.135  36.039   0.911 -0.09 +0.01    +0.045    42.175
ATOM     20  C   UNL d   1      32.033  34.321   5.556 -0.36 +0.01    +0.045    42.175
ATOM     21  C   UNL d   1      33.153  33.606   5.409 -0.31 +0.01    +0.057    42.175
ATOM     22  C   UNL d   1      30.272  35.368   6.566 -0.37 +0.00    -0.019    42.175
ATOM     23  C   UNL d   1      30.180  35.581   5.107 -0.19 +0.00    +0.045    42.175
ATOM     24  C   UNL d   1      31.372  34.622   6.825 -0.48 -0.00    -0.022    42.175
ATOM     25  C   UNL d   1      29.103  36.565   3.111 -0.15 +0.00    +0.049    42.175
ATOM     26  C   UNL d   1      28.540  37.286   1.021 -0.14 -0.00    -0.018    42.175
ATOM     27  C   UNL d   1      28.540  37.622   2.410 -0.19 -0.00    +0.003    42.175
ATOM     28  C   UNL d   1      29.218  36.295   4.502 -0.24 -0.01    +0.052    42.175
ATOM     29  C   UNL d   1      31.894  34.157   8.142 -0.04 -0.01    +0.046    42.175
ATOM     30  C   UNL d   1      28.005  38.119  -0.095 -0.12 +0.00    +0.046    42.175
ATOM     31  H   UNL d   1      31.552  34.930   3.621 +0.06 +0.05    +0.166    42.175
ATOM     32  H   UNL d   1      29.930  34.741   2.376 +0.04 +0.09    +0.166    42.175
ATOM     33  C   UNL d   1      30.735  34.354  -2.907 +0.00 +0.02    +0.141    42.175
ATOM     34  C   UNL d   1      32.085  35.008  -3.024 +0.01 +0.03    +0.306    42.175
ATOM     35  O   UNL d   1      32.454  36.011  -2.436 +0.00 -0.02    -0.251    42.175
ATOM     36  O   UNL d   1      32.902  34.362  -3.875 +0.00 -0.03    -0.481    42.175
ATOM     37  H   UNL d   1      33.013  33.470  -3.481 +0.00 +0.03    +0.295    42.175
ATOM     38  C   UNL d   1      28.002  38.825   2.968 -0.33 -0.01    +0.017    42.175
ATOM     39  C   UNL d   1      27.246  39.716   2.307 -0.32 -0.01    +0.092    42.175
ATOM     40  C   UNL d   1      26.742  40.903   3.001 -0.29 -0.04    +0.330    42.175
ATOM     41  O   UNL d   1      26.966  41.247   4.146 -0.44 +0.07    -0.246    42.175
ATOM     42  O   UNL d   1      25.961  41.621   2.179 -0.20 -0.04    -0.477    42.175
ATOM     43  H   UNL d   1      25.356  42.097   2.786 -0.32 -0.05    +0.295    42.175
ATOM     44  C   UNL d   1      35.653  31.087   2.163 -0.24 +0.01    +0.141    42.175
ATOM     45  C   UNL d   1      36.581  30.906   0.991 -0.15 -0.00    +0.306    42.175
ATOM     46  O   UNL d   1      36.276  30.936  -0.189 -0.07 -0.01    -0.251    42.175
ATOM     47  O   UNL d   1      37.849  30.668   1.371 -0.12 +0.06    -0.481    42.175
ATOM     48  H   UNL d   1      38.222  31.555   1.560 -0.28 -0.11    +0.295    42.175
ATOM     49  C   UNL d   1      29.278  35.895   7.559 -0.48 -0.03    +0.048    42.175
ATOM     50  C   UNL d   1      27.945  35.150   7.480 -0.31 -0.07    +0.125    42.175
ATOM     51  C   UNL d   1      27.530  34.648   8.833 -0.29 -0.09    +0.305    42.175
ATOM     52  O   UNL d   1      27.885  33.622   9.387 -0.35 +0.01    -0.251    42.175
ATOM     53  O   UNL d   1      26.655  35.480   9.433 -0.16 +0.31    -0.481    42.175
ATOM     54  H   UNL d   1      26.474  36.164   8.755 -0.29 -0.50    +0.295    42.175
TER
ENDMDL
MODEL       11
USER    Run = 11
USER    Cluster Rank = 5
USER    Number of conformations in this cluster = 7
USER  
USER    RMSD from reference structure       = 44.823 A
USER  
USER    Estimated Free Energy of Binding    =   -5.86 kcal/mol  [=(1)+(2)+(3)-(4)]
USER    Estimated Inhibition Constant, Ki   =   50.84 uM (micromolar)  [Temperature = 298.15 K]
USER    
USER    (1) Final Intermolecular Energy     =   -9.74 kcal/mol
USER        vdW + Hbond + desolv Energy     =   -9.51 kcal/mol
USER        Electrostatic Energy            =   -0.23 kcal/mol
USER    (2) Final Total Internal Energy     =   -3.64 kcal/mol
USER    (3) Torsional Free Energy           =   +3.88 kcal/mol
USER    (4) Unbound System's Energy  [=(2)] =   -3.64 kcal/mol
USER    
USER    
USER  
USER    DPF = D:/Protein_go_brrr/autodock/final/6BB5/heme/dock.dpf
USER    NEWDPF move	heme_opt.pdbqt
USER    NEWDPF about	0.153000 0.018000 -0.028000
USER    NEWDPF tran0	11.766916 39.259657 25.311078
USER    NEWDPF axisangle0	-0.764148 0.508375 -0.397030 153.254828
USER    NEWDPF quaternion0	-0.743429 0.494591 -0.386266 0.231282
USER    NEWDPF dihe0	102.18 45.70 -126.82 20.63 -130.82 -80.04 127.08 56.63 48.06 -29.22 -71.35 -116.56 11.25 
USER  
USER                              x       y       z    vdW   Elec        q     RMS 
ATOM      1  O   UNL d   1       9.255  41.231  20.355 +0.12 +0.01    -0.289    44.823
ATOM      2  O   UNL d   1      15.087  43.842  24.301 -0.10 +0.03    -0.289    44.823
ATOM      3  N   UNL d   1      10.299  39.800  23.315 -0.15 +0.04    -0.247    44.823
ATOM      4  N   UNL d   1      12.788  41.291  23.954 -0.06 +0.07    -0.247    44.823
ATOM      5  N   UNL d   1      13.385  39.271  25.911 -0.03 +0.14    -0.354    44.823
ATOM      6  N   UNL d   1      10.810  37.721  25.228 -0.14 +0.11    -0.354    44.823
ATOM      7  C   UNL d   1       8.633  39.228  21.611 -0.27 -0.00    +0.084    44.823
ATOM      8  C   UNL d   1      12.994  43.558  23.064 -0.10 -0.01    +0.084    44.823
ATOM      9  C   UNL d   1      12.213  42.241  23.140 -0.19 -0.01    +0.058    44.823
ATOM     10  C   UNL d   1       9.332  38.886  22.929 -0.26 -0.01    +0.058    44.823
ATOM     11  C   UNL d   1       9.361  40.508  21.328 -0.07 -0.01    +0.193    44.823
ATOM     12  C   UNL d   1      10.325  40.758  22.447 -0.16 -0.01    +0.109    44.823
ATOM     13  C   UNL d   1      14.137  43.166  23.956 -0.10 -0.03    +0.193    44.823
ATOM     14  C   UNL d   1       8.960  38.218  20.508 -0.56 +0.00    +0.026    44.823
ATOM     15  C   UNL d   1      11.095  42.019  22.432 -0.19 -0.01    +0.055    44.823
ATOM     16  C   UNL d   1      12.229  44.710  23.721 -0.04 -0.00    +0.026    44.823
ATOM     17  C   UNL d   1      13.896  41.767  24.424 -0.17 -0.02    +0.109    44.823
ATOM     18  C   UNL d   1       8.954  37.829  23.672 -0.31 -0.01    +0.050    44.823
ATOM     19  C   UNL d   1       9.485  37.484  24.942 -0.25 -0.01    +0.045    44.823
ATOM     20  C   UNL d   1      14.574  39.954  25.907 -0.23 -0.01    +0.045    44.823
ATOM     21  C   UNL d   1      14.882  41.097  25.285 -0.26 -0.01    +0.057    44.823
ATOM     22  C   UNL d   1      14.802  38.082  27.196 -0.26 +0.01    -0.019    44.823
ATOM     23  C   UNL d   1      13.426  38.127  26.662 -0.27 -0.02    +0.045    44.823
ATOM     24  C   UNL d   1      15.476  39.167  26.746 -0.27 +0.00    -0.022    44.823
ATOM     25  C   UNL d   1      11.131  37.229  26.472 -0.25 -0.02    +0.049    44.823
ATOM     26  C   UNL d   1       8.921  36.856  26.041 -0.23 +0.00    -0.018    44.823
ATOM     27  C   UNL d   1       9.960  36.715  27.012 -0.21 -0.00    +0.003    44.823
ATOM     28  C   UNL d   1      12.478  37.215  26.926 -0.32 -0.02    +0.052    44.823
ATOM     29  C   UNL d   1      16.886  39.568  27.019 -0.28 -0.00    +0.046    44.823
ATOM     30  C   UNL d   1       7.504  36.415  26.185 -0.22 +0.00    +0.046    44.823
ATOM     31  H   UNL d   1      12.560  39.650  25.459 -0.23 -0.07    +0.166    44.823
ATOM     32  H   UNL d   1      11.454  38.160  24.581 -0.35 -0.08    +0.166    44.823
ATOM     33  C   UNL d   1       7.124  39.480  21.713 -0.22 -0.00    +0.141    44.823
ATOM     34  C   UNL d   1       6.788  40.942  21.837 -0.08 +0.01    +0.306    44.823
ATOM     35  O   UNL d   1       6.902  41.625  22.840 -0.03 +0.01    -0.251    44.823
ATOM     36  O   UNL d   1       6.328  41.467  20.687 -0.52 -0.11    -0.481    44.823
ATOM     37  H   UNL d   1       7.134  41.644  20.157 +0.10 +0.03    +0.295    44.823
ATOM     38  C   UNL d   1       9.811  36.102  28.297 -0.19 -0.00    +0.017    44.823
ATOM     39  C   UNL d   1      10.183  34.850  28.606 -0.16 -0.00    +0.092    44.823
ATOM     40  C   UNL d   1       9.991  34.346  29.968 -0.06 +0.12    +0.330    44.823
ATOM     41  O   UNL d   1      10.707  34.523  30.934 -0.06 -0.02    -0.246    44.823
ATOM     42  O   UNL d   1       8.859  33.627  30.039 -0.34 -0.55    -0.477    44.823
ATOM     43  H   UNL d   1       8.427  33.951  30.856 +0.03 +0.14    +0.295    44.823
ATOM     44  C   UNL d   1      13.495  43.949  21.670 -0.18 -0.03    +0.141    44.823
ATOM     45  C   UNL d   1      14.737  43.206  21.255 -0.30 -0.08    +0.306    44.823
ATOM     46  O   UNL d   1      14.788  42.091  20.766 -0.47 +0.09    -0.251    44.823
ATOM     47  O   UNL d   1      15.861  43.903  21.505 -0.15 +0.13    -0.481    44.823
ATOM     48  H   UNL d   1      15.792  44.153  22.451 +0.13 -0.05    +0.295    44.823
ATOM     49  C   UNL d   1      15.329  36.986  28.075 -0.23 -0.01    +0.048    44.823
ATOM     50  C   UNL d   1      14.744  37.057  29.485 -0.13 -0.02    +0.125    44.823
ATOM     51  C   UNL d   1      13.788  35.922  29.726 -0.10 -0.09    +0.305    44.823
ATOM     52  O   UNL d   1      13.980  34.735  29.529 -0.19 +0.11    -0.251    44.823
ATOM     53  O   UNL d   1      12.604  36.353  30.205 +0.00 +0.10    -0.481    44.823
ATOM     54  H   UNL d   1      12.213  35.558  30.623 +0.05 -0.05    +0.295    44.823
TER
ENDMDL
MODEL       47
USER    Run = 47
USER    Cluster Rank = 6
USER    Number of conformations in this cluster = 2
USER  
USER    RMSD from reference structure       = 48.302 A
USER  
USER    Estimated Free Energy of Binding    =   -5.84 kcal/mol  [=(1)+(2)+(3)-(4)]
USER    Estimated Inhibition Constant, Ki   =   52.39 uM (micromolar)  [Temperature = 298.15 K]
USER    
USER    (1) Final Intermolecular Energy     =   -9.72 kcal/mol
USER        vdW + Hbond + desolv Energy     =   -8.97 kcal/mol
USER        Electrostatic Energy            =   -0.75 kcal/mol
USER    (2) Final Total Internal Energy     =   -1.56 kcal/mol
USER    (3) Torsional Free Energy           =   +3.88 kcal/mol
USER    (4) Unbound System's Energy  [=(2)] =   -1.56 kcal/mol
USER    
USER    
USER  
USER    DPF = D:/Protein_go_brrr/autodock/final/6BB5/heme/dock.dpf
USER    NEWDPF move	heme_opt.pdbqt
USER    NEWDPF about	0.153000 0.018000 -0.028000
USER    NEWDPF tran0	24.811160 46.686495 -0.824046
USER    NEWDPF axisangle0	-0.914091 0.266052 0.306030 43.746594
USER    NEWDPF quaternion0	-0.340549 0.099119 0.114013 0.928010
USER    NEWDPF dihe0	-161.71 -155.27 139.58 160.46 -29.79 -35.33 -45.63 119.57 -139.89 -103.92 121.92 -153.51 180.00 
USER  
USER                              x       y       z    vdW   Elec        q     RMS 
ATOM      1  O   UNL d   1      19.530  49.111   0.170 -0.51 +0.09    -0.289    48.302
ATOM      2  O   UNL d   1      21.990  44.794  -5.461 -0.12 -0.01    -0.289    48.302
ATOM      3  N   UNL d   1      22.794  48.021  -0.059 -0.09 -0.02    -0.247    48.302
ATOM      4  N   UNL d   1      22.736  46.175  -2.387 -0.01 -0.02    -0.247    48.302
ATOM      5  N   UNL d   1      25.325  45.221  -1.578 +0.13 -0.07    -0.354    48.302
ATOM      6  N   UNL d   1      25.369  47.125   0.845 -0.05 -0.12    -0.354    48.302
ATOM      7  C   UNL d   1      21.493  49.242   1.621 -0.21 -0.00    +0.084    48.302
ATOM      8  C   UNL d   1      21.010  46.558  -4.075 -0.21 -0.01    +0.084    48.302
ATOM      9  C   UNL d   1      21.621  46.914  -2.715 -0.21 -0.00    +0.058    48.302
ATOM     10  C   UNL d   1      22.825  48.622   1.188 -0.15 +0.00    +0.058    48.302
ATOM     11  C   UNL d   1      20.709  48.902   0.389 -0.19 -0.02    +0.193    48.302
ATOM     12  C   UNL d   1      21.615  48.186  -0.564 -0.17 -0.00    +0.109    48.302
ATOM     13  C   UNL d   1      21.963  45.455  -4.441 -0.18 -0.00    +0.193    48.302
ATOM     14  C   UNL d   1      20.880  48.510   2.817 -0.47 -0.00    +0.026    48.302
ATOM     15  C   UNL d   1      21.083  47.830  -1.895 -0.24 -0.01    +0.055    48.302
ATOM     16  C   UNL d   1      21.167  47.699  -5.084 -0.08 -0.00    +0.026    48.302
ATOM     17  C   UNL d   1      22.955  45.318  -3.332 -0.20 +0.01    +0.109    48.302
ATOM     18  C   UNL d   1      23.936  48.747   1.938 -0.13 +0.01    +0.050    48.302
ATOM     19  C   UNL d   1      25.226  48.280   1.581 -0.10 +0.01    +0.045    48.302
ATOM     20  C   UNL d   1      25.025  44.297  -2.545 -0.19 +0.01    +0.045    48.302
ATOM     21  C   UNL d   1      23.993  44.278  -3.395 -0.32 +0.01    +0.057    48.302
ATOM     22  C   UNL d   1      26.950  43.664  -1.491 -0.16 -0.00    -0.019    48.302
ATOM     23  C   UNL d   1      26.470  44.924  -0.888 -0.08 +0.01    +0.045    48.302
ATOM     24  C   UNL d   1      26.091  43.299  -2.472 -0.22 -0.00    -0.022    48.302
ATOM     25  C   UNL d   1      26.699  46.812   0.691 -0.12 +0.02    +0.049    48.302
ATOM     26  C   UNL d   1      26.496  48.749   1.881 -0.08 -0.00    -0.018    48.302
ATOM     27  C   UNL d   1      27.422  47.828   1.300 -0.08 +0.00    +0.003    48.302
ATOM     28  C   UNL d   1      27.094  45.580   0.102 -0.15 +0.02    +0.052    48.302
ATOM     29  C   UNL d   1      26.154  42.113  -3.373 -0.23 +0.01    +0.046    48.302
ATOM     30  C   UNL d   1      26.832  49.977   2.658 -0.08 +0.00    +0.046    48.302
ATOM     31  H   UNL d   1      24.775  46.067  -1.471 +0.04 +0.03    +0.166    48.302
ATOM     32  H   UNL d   1      24.587  46.575   0.509 +0.09 +0.05    +0.166    48.302
ATOM     33  C   UNL d   1      21.516  50.759   1.841 -0.20 -0.02    +0.141    48.302
ATOM     34  C   UNL d   1      21.812  51.132   3.269 -0.17 -0.02    +0.306    48.302
ATOM     35  O   UNL d   1      22.411  50.449   4.082 -0.14 -0.00    -0.251    48.302
ATOM     36  O   UNL d   1      21.341  52.348   3.595 -0.16 +0.06    -0.481    48.302
ATOM     37  H   UNL d   1      20.703  52.565   2.882 -0.39 -0.13    +0.295    48.302
ATOM     38  C   UNL d   1      28.848  47.928   1.385 -0.11 +0.00    +0.017    48.302
ATOM     39  C   UNL d   1      29.562  47.865   2.519 -0.08 +0.02    +0.092    48.302
ATOM     40  C   UNL d   1      31.023  47.963   2.468 -0.18 +0.10    +0.330    48.302
ATOM     41  O   UNL d   1      31.770  47.503   1.626 -0.13 -0.13    -0.246    48.302
ATOM     42  O   UNL d   1      31.476  48.670   3.516 -0.20 -0.05    -0.477    48.302
ATOM     43  H   UNL d   1      30.774  48.565   4.190 -0.41 -0.38    +0.295    48.302
ATOM     44  C   UNL d   1      19.567  46.046  -4.037 -0.29 -0.03    +0.141    48.302
ATOM     45  C   UNL d   1      19.223  45.150  -5.196 -0.28 -0.02    +0.306    48.302
ATOM     46  O   UNL d   1      18.772  45.496  -6.274 -0.20 +0.00    -0.251    48.302
ATOM     47  O   UNL d   1      19.443  43.850  -4.925 -0.31 +0.00    -0.481    48.302
ATOM     48  H   UNL d   1      20.293  43.840  -4.436 -0.16 -0.02    +0.295    48.302
ATOM     49  C   UNL d   1      28.183  42.934  -1.047 -0.12 +0.01    +0.048    48.302
ATOM     50  C   UNL d   1      27.856  41.809  -0.065 -0.16 +0.02    +0.125    48.302
ATOM     51  C   UNL d   1      27.123  42.340   1.134 -0.20 +0.08    +0.305    48.302
ATOM     52  O   UNL d   1      25.971  42.115   1.461 -0.34 -0.06    -0.251    48.302
ATOM     53  O   UNL d   1      27.895  43.160   1.875 -0.06 -0.26    -0.481    48.302
ATOM     54  H   UNL d   1      28.810  42.930   1.609 +0.10 +0.11    +0.295    48.302
TER
ENDMDL
MODEL       74
USER    Run = 74
USER    Cluster Rank = 7
USER    Number of conformations in this cluster = 2
USER  
USER    RMSD from reference structure       = 41.598 A
USER  
USER    Estimated Free Energy of Binding    =   -5.67 kcal/mol  [=(1)+(2)+(3)-(4)]
USER    Estimated Inhibition Constant, Ki   =   69.46 uM (micromolar)  [Temperature = 298.15 K]
USER    
USER    (1) Final Intermolecular Energy     =   -9.55 kcal/mol
USER        vdW + Hbond + desolv Energy     =   -9.07 kcal/mol
USER        Electrostatic Energy            =   -0.48 kcal/mol
USER    (2) Final Total Internal Energy     =   -1.46 kcal/mol
USER    (3) Torsional Free Energy           =   +3.88 kcal/mol
USER    (4) Unbound System's Energy  [=(2)] =   -1.46 kcal/mol
USER    
USER    
USER  
USER    DPF = D:/Protein_go_brrr/autodock/final/6BB5/heme/dock.dpf
USER    NEWDPF move	heme_opt.pdbqt
USER    NEWDPF about	0.153000 0.018000 -0.028000
USER    NEWDPF tran0	36.923304 28.527385 -0.185657
USER    NEWDPF axisangle0	-0.357293 -0.749946 0.556707 27.435864
USER    NEWDPF quaternion0	-0.084729 -0.177844 0.132019 0.971475
USER    NEWDPF dihe0	-135.93 -76.44 -133.65 66.47 36.67 -59.80 -44.42 152.84 151.26 102.41 -3.75 -103.28 -174.35 
USER  
USER                              x       y       z    vdW   Elec        q     RMS 
ATOM      1  O   UNL d   1      32.556  31.266   2.675 -0.12 -0.20    -0.289    41.598
ATOM      2  O   UNL d   1      32.628  24.855  -1.235 -0.03 +0.03    -0.289    41.598
ATOM      3  N   UNL d   1      35.361  30.109   1.036 -0.05 -0.03    -0.247    41.598
ATOM      4  N   UNL d   1      34.526  27.429   0.061 -0.12 -0.00    -0.247    41.598
ATOM      5  N   UNL d   1      37.293  26.868  -0.485 -0.04 +0.01    -0.354    41.598
ATOM      6  N   UNL d   1      38.153  29.643   0.546 -0.16 +0.01    -0.354    41.598
ATOM      7  C   UNL d   1      34.892  31.976   2.553 -0.24 +0.01    +0.084    41.598
ATOM      8  C   UNL d   1      32.139  27.072  -0.318 -0.09 +0.01    +0.084    41.598
ATOM      9  C   UNL d   1      33.268  27.975   0.189 -0.15 +0.01    +0.058    41.598
ATOM     10  C   UNL d   1      35.900  31.197   1.702 -0.23 +0.00    +0.058    41.598
ATOM     11  C   UNL d   1      33.685  31.147   2.234 -0.17 +0.06    +0.193    41.598
ATOM     12  C   UNL d   1      34.093  30.063   1.285 -0.15 +0.02    +0.109    41.598
ATOM     13  C   UNL d   1      32.985  25.898  -0.722 -0.05 -0.01    +0.193    41.598
ATOM     14  C   UNL d   1      35.192  31.859   4.050 -0.56 +0.00    +0.026    41.598
ATOM     15  C   UNL d   1      33.043  29.171   0.754 -0.21 +0.02    +0.055    41.598
ATOM     16  C   UNL d   1      31.468  27.649  -1.568 -0.04 +0.00    +0.026    41.598
ATOM     17  C   UNL d   1      34.411  26.239  -0.434 -0.13 -0.01    +0.109    41.598
ATOM     18  C   UNL d   1      37.173  31.613   1.563 -0.14 -0.01    +0.050    41.598
ATOM     19  C   UNL d   1      38.150  31.007   0.734 -0.27 -0.01    +0.045    41.598
ATOM     20  C   UNL d   1      36.758  25.620  -0.673 -0.13 -0.00    +0.045    41.598
ATOM     21  C   UNL d   1      35.472  25.254  -0.691 -0.14 -0.01    +0.057    41.598
ATOM     22  C   UNL d   1      39.035  25.470  -0.778 -0.18 +0.00    -0.019    41.598
ATOM     23  C   UNL d   1      38.661  26.878  -0.531 -0.20 -0.00    +0.045    41.598
ATOM     24  C   UNL d   1      37.903  24.731  -0.862 -0.12 +0.00    -0.022    41.598
ATOM     25  C   UNL d   1      39.233  29.262  -0.215 -0.23 -0.00    +0.049    41.598
ATOM     26  C   UNL d   1      39.235  31.529   0.047 -0.27 +0.00    -0.018    41.598
ATOM     27  C   UNL d   1      39.904  30.425  -0.566 -0.27 -0.00    +0.003    41.598
ATOM     28  C   UNL d   1      39.537  27.887  -0.413 -0.19 -0.00    +0.052    41.598
ATOM     29  C   UNL d   1      37.761  23.268  -1.112 -0.07 -0.00    +0.046    41.598
ATOM     30  C   UNL d   1      39.628  32.965  -0.037 -0.32 -0.01    +0.046    41.598
ATOM     31  H   UNL d   1      36.701  27.688  -0.405 +0.04 +0.00    +0.166    41.598
ATOM     32  H   UNL d   1      37.467  29.020   0.955 +0.07 +0.01    +0.166    41.598
ATOM     33  C   UNL d   1      34.669  33.434   2.136 -0.19 +0.02    +0.141    41.598
ATOM     34  C   UNL d   1      34.051  34.261   3.231 -0.20 +0.05    +0.306    41.598
ATOM     35  O   UNL d   1      34.652  34.901   4.077 -0.40 -0.04    -0.251    41.598
ATOM     36  O   UNL d   1      32.707  34.241   3.200 -0.04 -0.15    -0.481    41.598
ATOM     37  H   UNL d   1      32.479  33.306   3.006 +0.12 +0.15    +0.295    41.598
ATOM     38  C   UNL d   1      41.091  30.518  -1.362 -0.26 -0.00    +0.017    41.598
ATOM     39  C   UNL d   1      42.291  30.020  -1.025 -0.35 -0.01    +0.092    41.598
ATOM     40  C   UNL d   1      43.426  30.168  -1.939 -0.20 -0.03    +0.330    41.598
ATOM     41  O   UNL d   1      43.534  29.727  -3.068 -0.10 +0.02    -0.246    41.598
ATOM     42  O   UNL d   1      44.392  30.897  -1.361 -0.22 +0.09    -0.477    41.598
ATOM     43  H   UNL d   1      45.063  30.233  -1.099 -0.48 -0.12    +0.295    41.598
ATOM     44  C   UNL d   1      31.099  26.663   0.731 -0.01 +0.02    +0.141    41.598
ATOM     45  C   UNL d   1      30.509  27.834   1.470 -0.13 +0.21    +0.306    41.598
ATOM     46  O   UNL d   1      30.944  28.347   2.487 -0.44 -0.21    -0.251    41.598
ATOM     47  O   UNL d   1      29.377  28.285   0.900 -0.55 -0.50    -0.481    41.598
ATOM     48  H   UNL d   1      28.857  27.476   0.708 +0.08 +0.13    +0.295    41.598
ATOM     49  C   UNL d   1      40.449  24.981  -0.892 -0.20 +0.00    +0.048    41.598
ATOM     50  C   UNL d   1      40.915  24.287   0.387 -0.24 +0.00    +0.125    41.598
ATOM     51  C   UNL d   1      42.307  23.744   0.225 -0.13 +0.02    +0.305    41.598
ATOM     52  O   UNL d   1      43.173  23.654   1.078 -0.20 -0.03    -0.251    41.598
ATOM     53  O   UNL d   1      42.548  23.342  -1.038 -0.03 -0.03    -0.481    41.598
ATOM     54  H   UNL d   1      42.661  22.372  -0.962 +0.04 +0.02    +0.295    41.598
TER
ENDMDL
MODEL       70
USER    Run = 70
USER    Cluster Rank = 8
USER    Number of conformations in this cluster = 3
USER  
USER    RMSD from reference structure       = 24.700 A
USER  
USER    Estimated Free Energy of Binding    =   -5.62 kcal/mol  [=(1)+(2)+(3)-(4)]
USER    Estimated Inhibition Constant, Ki   =   76.23 uM (micromolar)  [Temperature = 298.15 K]
USER    
USER    (1) Final Intermolecular Energy     =   -9.50 kcal/mol
USER        vdW + Hbond + desolv Energy     =   -8.79 kcal/mol
USER        Electrostatic Energy            =   -0.70 kcal/mol
USER    (2) Final Total Internal Energy     =   -1.64 kcal/mol
USER    (3) Torsional Free Energy           =   +3.88 kcal/mol
USER    (4) Unbound System's Energy  [=(2)] =   -1.64 kcal/mol
USER    
USER    
USER  
USER    DPF = D:/Protein_go_brrr/autodock/final/6BB5/heme/dock.dpf
USER    NEWDPF move	heme_opt.pdbqt
USER    NEWDPF about	0.153000 0.018000 -0.028000
USER    NEWDPF tran0	20.225437 20.803272 -1.951983
USER    NEWDPF axisangle0	-0.490815 0.588156 -0.642786 -126.747014
USER    NEWDPF quaternion0	-0.438762 0.525781 -0.574616 -0.448172
USER    NEWDPF dihe0	159.61 -106.29 -81.56 -85.85 -92.90 81.18 -38.07 73.52 3.17 9.38 -116.93 -20.02 -28.21 
USER  
USER                              x       y       z    vdW   Elec        q     RMS 
ATOM      1  O   UNL d   1      22.145  26.069  -3.782 -0.20 +0.17    -0.289    24.700
ATOM      2  O   UNL d   1      18.992  23.951   2.696 -0.27 +0.00    -0.289    24.700
ATOM      3  N   UNL d   1      21.042  22.852  -3.204 -0.10 +0.05    -0.247    24.700
ATOM      4  N   UNL d   1      20.254  22.904  -0.340 -0.10 +0.03    -0.247    24.700
ATOM      5  N   UNL d   1      20.159  20.031  -0.410 -0.11 +0.07    -0.354    24.700
ATOM      6  N   UNL d   1      20.996  19.986  -3.376 -0.07 +0.08    -0.354    24.700
ATOM      7  C   UNL d   1      22.272  23.960  -5.012 -0.09 -0.02    +0.084    24.700
ATOM      8  C   UNL d   1      19.590  25.060   0.598 -0.37 -0.01    +0.084    24.700
ATOM      9  C   UNL d   1      20.148  24.255  -0.580 -0.26 -0.01    +0.058    24.700
ATOM     10  C   UNL d   1      21.657  22.682  -4.434 -0.11 -0.01    +0.058    24.700
ATOM     11  C   UNL d   1      21.879  24.887  -3.900 -0.04 -0.06    +0.193    24.700
ATOM     12  C   UNL d   1      21.118  24.101  -2.878 -0.11 -0.02    +0.109    24.700
ATOM     13  C   UNL d   1      19.434  23.920   1.565 -0.22 -0.01    +0.193    24.700
ATOM     14  C   UNL d   1      23.799  23.885  -5.078 -0.03 -0.01    +0.026    24.700
ATOM     15  C   UNL d   1      20.545  24.828  -1.727 -0.13 -0.01    +0.055    24.700
ATOM     16  C   UNL d   1      18.204  25.635   0.288 -0.63 -0.00    +0.026    24.700
ATOM     17  C   UNL d   1      19.878  22.671   0.877 -0.20 -0.01    +0.109    24.700
ATOM     18  C   UNL d   1      21.651  21.529  -5.127 -0.13 -0.01    +0.050    24.700
ATOM     19  C   UNL d   1      21.035  20.321  -4.710 -0.16 -0.01    +0.045    24.700
ATOM     20  C   UNL d   1      20.034  20.238   0.940 -0.15 -0.01    +0.045    24.700
ATOM     21  C   UNL d   1      19.878  21.390   1.600 -0.21 -0.00    +0.057    24.700
ATOM     22  C   UNL d   1      20.262  17.998   0.555 -0.11 +0.00    -0.019    24.700
ATOM     23  C   UNL d   1      20.302  18.710  -0.739 -0.15 -0.01    +0.045    24.700
ATOM     24  C   UNL d   1      20.102  18.908   1.544 -0.12 +0.00    -0.022    24.700
ATOM     25  C   UNL d   1      20.437  18.740  -3.207 -0.12 -0.01    +0.049    24.700
ATOM     26  C   UNL d   1      20.453  19.285  -5.423 -0.21 +0.01    -0.018    24.700
ATOM     27  C   UNL d   1      20.060  18.298  -4.467 -0.21 -0.00    +0.003    24.700
ATOM     28  C   UNL d   1      20.431  18.111  -1.933 -0.16 -0.01    +0.052    24.700
ATOM     29  C   UNL d   1      19.992  18.680   3.013 -0.12 -0.00    +0.046    24.700
ATOM     30  C   UNL d   1      20.270  19.213  -6.902 -0.24 -0.02    +0.046    24.700
ATOM     31  H   UNL d   1      20.068  20.796  -1.070 +0.04 -0.03    +0.166    24.700
ATOM     32  H   UNL d   1      21.371  20.572  -2.640 +0.03 -0.03    +0.166    24.700
ATOM     33  C   UNL d   1      21.674  24.433  -6.342 -0.13 -0.04    +0.141    24.700
ATOM     34  C   UNL d   1      20.173  24.521  -6.304 -0.16 -0.08    +0.306    24.700
ATOM     35  O   UNL d   1      19.419  23.741  -5.745 -0.30 +0.04    -0.251    24.700
ATOM     36  O   UNL d   1      19.698  25.589  -6.969 -0.16 +0.14    -0.481    24.700
ATOM     37  H   UNL d   1      20.448  26.221  -6.987 +0.13 -0.14    +0.295    24.700
ATOM     38  C   UNL d   1      19.431  17.050  -4.780 -0.21 -0.01    +0.017    24.700
ATOM     39  C   UNL d   1      18.781  16.269  -3.904 -0.15 -0.03    +0.092    24.700
ATOM     40  C   UNL d   1      18.163  15.020  -4.357 -0.09 -0.15    +0.330    24.700
ATOM     41  O   UNL d   1      18.710  13.956  -4.573 -0.04 +0.08    -0.246    24.700
ATOM     42  O   UNL d   1      16.840  15.188  -4.510 -0.03 +0.34    -0.477    24.700
ATOM     43  H   UNL d   1      16.764  15.722  -5.327 -0.46 -0.54    +0.295    24.700
ATOM     44  C   UNL d   1      20.522  26.136   1.164 -0.42 -0.04    +0.141    24.700
ATOM     45  C   UNL d   1      21.960  25.696   1.240 -0.18 -0.12    +0.306    24.700
ATOM     46  O   UNL d   1      22.469  25.026   2.121 -0.13 +0.05    -0.251    24.700
ATOM     47  O   UNL d   1      22.693  26.150   0.207 -0.08 +0.41    -0.481    24.700
ATOM     48  H   UNL d   1      23.140  26.951   0.553 -0.42 -0.59    +0.295    24.700
ATOM     49  C   UNL d   1      20.397  16.511   0.703 -0.05 -0.00    +0.048    24.700
ATOM     50  C   UNL d   1      19.092  15.864   1.167 -0.06 -0.01    +0.125    24.700
ATOM     51  C   UNL d   1      18.011  16.040   0.138 -0.09 -0.03    +0.305    24.700
ATOM     52  O   UNL d   1      17.957  15.547  -0.975 -0.07 +0.03    -0.251    24.700
ATOM     53  O   UNL d   1      17.033  16.860   0.570 -0.16 +0.06    -0.481    24.700
ATOM     54  H   UNL d   1      17.294  17.742   0.232 -0.48 -0.14    +0.295    24.700
TER
ENDMDL
MODEL       30
USER    Run = 30
USER    Cluster Rank = 9
USER    Number of conformations in this cluster = 1
USER  
USER    RMSD from reference structure       = 39.712 A
USER  
USER    Estimated Free Energy of Binding    =   -5.37 kcal/mol  [=(1)+(2)+(3)-(4)]
USER    Estimated Inhibition Constant, Ki   =  114.85 uM (micromolar)  [Temperature = 298.15 K]
USER    
USER    (1) Final Intermolecular Energy     =   -9.25 kcal/mol
USER        vdW + Hbond + desolv Energy     =   -8.56 kcal/mol
USER        Electrostatic Energy            =   -0.70 kcal/mol
USER    (2) Final Total Internal Energy     =   -1.59 kcal/mol
USER    (3) Torsional Free Energy           =   +3.88 kcal/mol
USER    (4) Unbound System's Energy  [=(2)] =   -1.59 kcal/mol
USER    
USER    
USER  
USER    DPF = D:/Protein_go_brrr/autodock/final/6BB5/heme/dock.dpf
USER    NEWDPF move	heme_opt.pdbqt
USER    NEWDPF about	0.153000 0.018000 -0.028000
USER    NEWDPF tran0	17.542634 26.229704 28.182712
USER    NEWDPF axisangle0	0.669697 0.112799 -0.734018 -56.331300
USER    NEWDPF quaternion0	0.316112 0.053243 -0.346473 -0.881587
USER    NEWDPF dihe0	166.43 -16.23 150.01 37.68 -145.72 179.88 -40.62 -37.84 16.67 76.47 -93.90 -74.36 159.23 
USER  
USER                              x       y       z    vdW   Elec        q     RMS 
ATOM      1  O   UNL d   1      14.318  30.029  31.332 -0.04 +0.00    -0.289    39.712
ATOM      2  O   UNL d   1      12.613  25.988  25.238 -0.28 +0.04    -0.289    39.712
ATOM      3  N   UNL d   1      16.609  28.010  29.729 -0.07 -0.01    -0.247    39.712
ATOM      4  N   UNL d   1      14.974  26.620  27.674 -0.09 +0.02    -0.247    39.712
ATOM      5  N   UNL d   1      17.165  24.798  27.296 -0.12 -0.02    -0.354    39.712
ATOM      6  N   UNL d   1      18.847  26.234  29.443 -0.05 -0.04    -0.354    39.712
ATOM      7  C   UNL d   1      16.615  29.333  31.792 -0.05 +0.01    +0.084    39.712
ATOM      8  C   UNL d   1      12.957  27.759  26.892 -0.24 -0.02    +0.084    39.712
ATOM      9  C   UNL d   1      14.151  27.711  27.851 -0.19 -0.01    +0.058    39.712
ATOM     10  C   UNL d   1      17.351  28.391  30.834 -0.08 +0.01    +0.058    39.712
ATOM     11  C   UNL d   1      15.332  29.431  31.023 -0.05 +0.00    +0.193    39.712
ATOM     12  C   UNL d   1      15.462  28.607  29.780 -0.12 -0.00    +0.109    39.712
ATOM     13  C   UNL d   1      13.234  26.474  26.162 -0.20 -0.02    +0.193    39.712
ATOM     14  C   UNL d   1      16.333  28.671  33.144 -0.02 +0.00    +0.026    39.712
ATOM     15  C   UNL d   1      14.347  28.626  28.813 -0.19 -0.01    +0.055    39.712
ATOM     16  C   UNL d   1      13.071  28.922  25.902 -0.47 -0.01    +0.026    39.712
ATOM     17  C   UNL d   1      14.478  25.878  26.736 -0.14 -0.01    +0.109    39.712
ATOM     18  C   UNL d   1      18.640  28.054  31.031 -0.09 +0.01    +0.050    39.712
ATOM     19  C   UNL d   1      19.424  27.260  30.156 -0.07 +0.01    +0.045    39.712
ATOM     20  C   UNL d   1      16.198  24.159  26.563 -0.23 -0.00    +0.045    39.712
ATOM     21  C   UNL d   1      14.972  24.585  26.243 -0.17 -0.00    +0.057    39.712
ATOM     22  C   UNL d   1      18.039  22.812  26.690 -0.21 +0.00    -0.019    39.712
ATOM     23  C   UNL d   1      18.312  24.062  27.428 -0.24 +0.00    +0.045    39.712
ATOM     24  C   UNL d   1      16.786  22.876  26.180 -0.25 +0.00    -0.022    39.712
ATOM     25  C   UNL d   1      19.801  25.542  28.734 -0.19 +0.01    +0.049    39.712
ATOM     26  C   UNL d   1      20.782  27.258  29.874 -0.13 -0.00    -0.018    39.712
ATOM     27  C   UNL d   1      21.011  26.184  28.960 -0.20 +0.00    +0.003    39.712
ATOM     28  C   UNL d   1      19.470  24.343  28.045 -0.24 +0.00    +0.052    39.712
ATOM     29  C   UNL d   1      16.063  21.868  25.353 -0.34 -0.01    +0.046    39.712
ATOM     30  C   UNL d   1      21.805  28.197  30.417 -0.16 +0.02    +0.046    39.712
ATOM     31  H   UNL d   1      17.035  25.750  27.622 +0.06 +0.01    +0.166    39.712
ATOM     32  H   UNL d   1      17.860  26.010  29.483 +0.04 +0.01    +0.166    39.712
ATOM     33  C   UNL d   1      17.247  30.718  31.966 -0.11 +0.03    +0.141    39.712
ATOM     34  C   UNL d   1      17.235  31.523  30.694 -0.20 +0.05    +0.306    39.712
ATOM     35  O   UNL d   1      18.119  31.558  29.856 -0.29 -0.05    -0.251    39.712
ATOM     36  O   UNL d   1      16.106  32.240  30.545 -0.13 -0.03    -0.481    39.712
ATOM     37  H   UNL d   1      15.476  31.844  31.184 +0.08 +0.01    +0.295    39.712
ATOM     38  C   UNL d   1      22.285  25.816  28.421 -0.33 +0.00    +0.017    39.712
ATOM     39  C   UNL d   1      22.698  24.560  28.196 -0.26 -0.01    +0.092    39.712
ATOM     40  C   UNL d   1      24.024  24.319  27.621 -0.27 -0.16    +0.330    39.712
ATOM     41  O   UNL d   1      24.552  23.247  27.394 -0.33 +0.14    -0.246    39.712
ATOM     42  O   UNL d   1      24.628  25.485  27.347 -0.23 +0.42    -0.477    39.712
ATOM     43  H   UNL d   1      25.569  25.241  27.231 -0.09 -0.57    +0.295    39.712
ATOM     44  C   UNL d   1      11.576  27.727  27.555 -0.20 -0.02    +0.141    39.712
ATOM     45  C   UNL d   1      11.575  28.284  28.954 -0.09 -0.02    +0.306    39.712
ATOM     46  O   UNL d   1      11.852  27.680  29.976 -0.03 +0.00    -0.251    39.712
ATOM     47  O   UNL d   1      11.196  29.574  28.994 -0.12 +0.02    -0.481    39.712
ATOM     48  H   UNL d   1      11.495  29.947  28.138 -0.26 -0.32    +0.295    39.712
ATOM     49  C   UNL d   1      19.012  21.677  26.567 -0.06 -0.01    +0.048    39.712
ATOM     50  C   UNL d   1      19.100  20.861  27.856 -0.09 -0.03    +0.125    39.712
ATOM     51  C   UNL d   1      18.051  19.786  27.885 -0.06 -0.21    +0.305    39.712
ATOM     52  O   UNL d   1      16.876  19.886  27.575 -0.12 +0.22    -0.251    39.712
ATOM     53  O   UNL d   1      18.543  18.611  28.325 -0.01 +0.46    -0.481    39.712
ATOM     54  H   UNL d   1      18.083  17.941  27.778 -0.52 -0.61    +0.295    39.712
TER
ENDMDL
MODEL       15
USER    Run = 15
USER    Cluster Rank = 10
USER    Number of conformations in this cluster = 1
USER  
USER    RMSD from reference structure       = 47.050 A
USER  
USER    Estimated Free Energy of Binding    =   -5.24 kcal/mol  [=(1)+(2)+(3)-(4)]
USER    Estimated Inhibition Constant, Ki   =  145.30 uM (micromolar)  [Temperature = 298.15 K]
USER    
USER    (1) Final Intermolecular Energy     =   -9.11 kcal/mol
USER        vdW + Hbond + desolv Energy     =   -8.82 kcal/mol
USER        Electrostatic Energy            =   -0.30 kcal/mol
USER    (2) Final Total Internal Energy     =   -3.49 kcal/mol
USER    (3) Torsional Free Energy           =   +3.88 kcal/mol
USER    (4) Unbound System's Energy  [=(2)] =   -3.49 kcal/mol
USER    
USER    
USER  
USER    DPF = D:/Protein_go_brrr/autodock/final/6BB5/heme/dock.dpf
USER    NEWDPF move	heme_opt.pdbqt
USER    NEWDPF about	0.153000 0.018000 -0.028000
USER    NEWDPF tran0	18.592587 47.347934 -4.788282
USER    NEWDPF axisangle0	-0.954049 0.001911 -0.299643 -145.001564
USER    NEWDPF quaternion0	-0.909897 0.001823 -0.285776 -0.300693
USER    NEWDPF dihe0	115.45 -145.94 -124.82 -10.15 32.69 -7.04 136.50 8.29 150.19 -51.38 62.44 -73.57 121.10 
USER  
USER                              x       y       z    vdW   Elec        q     RMS 
ATOM      1  O   UNL d   1      14.520  47.301  -9.051 -0.04 +0.04    -0.289    47.050
ATOM      2  O   UNL d   1      14.730  50.921  -2.475 -0.72 +0.04    -0.289    47.050
ATOM      3  N   UNL d   1      17.090  46.910  -6.784 -0.10 +0.02    -0.247    47.050
ATOM      4  N   UNL d   1      16.465  48.921  -4.689 -0.10 +0.05    -0.247    47.050
ATOM      5  N   UNL d   1      19.125  48.545  -3.664 -0.04 +0.09    -0.354    47.050
ATOM      6  N   UNL d   1      19.772  46.474  -5.854 -0.04 +0.01    -0.354    47.050
ATOM      7  C   UNL d   1      16.667  46.132  -9.070 -0.14 -0.01    +0.084    47.050
ATOM      8  C   UNL d   1      14.123  49.565  -4.420 -0.30 -0.02    +0.084    47.050
ATOM      9  C   UNL d   1      15.192  48.787  -5.196 -0.22 -0.01    +0.058    47.050
ATOM     10  C   UNL d   1      17.590  46.178  -7.849 -0.16 -0.00    +0.058    47.050
ATOM     11  C   UNL d   1      15.548  46.951  -8.500 -0.10 -0.02    +0.193    47.050
ATOM     12  C   UNL d   1      15.913  47.341  -7.101 -0.17 -0.01    +0.109    47.050
ATOM     13  C   UNL d   1      15.031  50.194  -3.402 -0.25 -0.04    +0.193    47.050
ATOM     14  C   UNL d   1      17.263  46.873 -10.269 -0.06 -0.00    +0.026    47.050
ATOM     15  C   UNL d   1      14.915  48.081  -6.303 -0.27 -0.01    +0.055    47.050
ATOM     16  C   UNL d   1      13.150  48.627  -3.700 -0.39 -0.01    +0.026    47.050
ATOM     17  C   UNL d   1      16.424  49.730  -3.679 -0.23 -0.02    +0.109    47.050
ATOM     18  C   UNL d   1      18.742  45.482  -7.811 -0.19 +0.00    +0.050    47.050
ATOM     19  C   UNL d   1      19.616  45.397  -6.697 -0.19 +0.00    +0.045    47.050
ATOM     20  C   UNL d   1      18.743  49.639  -2.932 -0.13 -0.01    +0.045    47.050
ATOM     21  C   UNL d   1      17.542  50.222  -2.861 -0.30 -0.02    +0.057    47.050
ATOM     22  C   UNL d   1      20.955  49.225  -2.542 -0.13 +0.00    -0.019    47.050
ATOM     23  C   UNL d   1      20.444  48.219  -3.494 -0.15 -0.01    +0.045    47.050
ATOM     24  C   UNL d   1      19.943  50.062  -2.211 -0.18 +0.00    -0.022    47.050
ATOM     25  C   UNL d   1      20.728  46.207  -4.902 -0.19 -0.00    +0.049    47.050
ATOM     26  C   UNL d   1      20.465  44.392  -6.261 -0.28 -0.00    -0.018    47.050
ATOM     27  C   UNL d   1      21.150  44.902  -5.115 -0.29 -0.00    +0.003    47.050
ATOM     28  C   UNL d   1      21.177  47.222  -4.014 -0.19 -0.00    +0.052    47.050
ATOM     29  C   UNL d   1      19.961  51.225  -1.279 -0.24 -0.01    +0.046    47.050
ATOM     30  C   UNL d   1      20.629  43.040  -6.867 -0.31 +0.01    +0.046    47.050
ATOM     31  H   UNL d   1      18.451  48.010  -4.202 -0.01 -0.04    +0.166    47.050
ATOM     32  H   UNL d   1      19.272  47.348  -5.962 +0.05 -0.01    +0.166    47.050
ATOM     33  C   UNL d   1      16.166  44.737  -9.462 -0.25 -0.02    +0.141    47.050
ATOM     34  C   UNL d   1      15.638  44.686 -10.870 -0.11 -0.08    +0.306    47.050
ATOM     35  O   UNL d   1      16.293  44.485 -11.878 -0.05 +0.02    -0.251    47.050
ATOM     36  O   UNL d   1      14.310  44.890 -10.933 -0.06 +0.31    -0.481    47.050
ATOM     37  H   UNL d   1      13.919  44.105 -10.495 -0.34 -0.44    +0.295    47.050
ATOM     38  C   UNL d   1      22.137  44.190  -4.359 -0.22 +0.00    +0.017    47.050
ATOM     39  C   UNL d   1      23.231  44.735  -3.807 -0.29 +0.01    +0.092    47.050
ATOM     40  C   UNL d   1      24.157  43.897  -3.040 -0.22 +0.05    +0.330    47.050
ATOM     41  O   UNL d   1      23.999  42.743  -2.690 -0.38 -0.05    -0.246    47.050
ATOM     42  O   UNL d   1      25.274  44.584  -2.756 -0.07 -0.07    -0.477    47.050
ATOM     43  H   UNL d   1      24.959  45.503  -2.632 +0.08 +0.04    +0.295    47.050
ATOM     44  C   UNL d   1      13.372  50.634  -5.221 -0.22 -0.03    +0.141    47.050
ATOM     45  C   UNL d   1      13.869  52.031  -4.959 -0.08 -0.06    +0.306    47.050
ATOM     46  O   UNL d   1      14.726  52.627  -5.587 -0.03 +0.03    -0.251    47.050
ATOM     47  O   UNL d   1      13.273  52.597  -3.894 -0.10 +0.14    -0.481    47.050
ATOM     48  H   UNL d   1      13.416  51.960  -3.162 -0.21 -0.13    +0.295    47.050
ATOM     49  C   UNL d   1      22.375  49.283  -2.059 -0.09 -0.00    +0.048    47.050
ATOM     50  C   UNL d   1      23.367  48.932  -3.167 -0.04 +0.00    +0.125    47.050
ATOM     51  C   UNL d   1      24.133  47.684  -2.826 -0.05 +0.02    +0.305    47.050
ATOM     52  O   UNL d   1      24.004  46.980  -1.841 -0.11 -0.03    -0.251    47.050
ATOM     53  O   UNL d   1      25.054  47.386  -3.763 +0.00 -0.03    -0.481    47.050
ATOM     54  H   UNL d   1      25.591  46.676  -3.352 +0.04 +0.02    +0.295    47.050
TER
ENDMDL
MODEL       61
USER    Run = 61
USER    Cluster Rank = 11
USER    Number of conformations in this cluster = 1
USER  
USER    RMSD from reference structure       = 42.494 A
USER  
USER    Estimated Free Energy of Binding    =   -5.15 kcal/mol  [=(1)+(2)+(3)-(4)]
USER    Estimated Inhibition Constant, Ki   =  169.25 uM (micromolar)  [Temperature = 298.15 K]
USER    
USER    (1) Final Intermolecular Energy     =   -9.02 kcal/mol
USER        vdW + Hbond + desolv Energy     =   -8.18 kcal/mol
USER        Electrostatic Energy            =   -0.85 kcal/mol
USER    (2) Final Total Internal Energy     =   -3.71 kcal/mol
USER    (3) Torsional Free Energy           =   +3.88 kcal/mol
USER    (4) Unbound System's Energy  [=(2)] =   -3.71 kcal/mol
USER    
USER    
USER  
USER    DPF = D:/Protein_go_brrr/autodock/final/6BB5/heme/dock.dpf
USER    NEWDPF move	heme_opt.pdbqt
USER    NEWDPF about	0.153000 0.018000 -0.028000
USER    NEWDPF tran0	27.267260 38.369394 0.076257
USER    NEWDPF axisangle0	-0.516253 -0.696367 -0.498553 104.083470
USER    NEWDPF quaternion0	-0.407044 -0.549057 -0.393089 0.615087
USER    NEWDPF dihe0	178.64 -156.68 -147.91 35.90 -63.33 -46.62 137.17 35.10 129.46 -2.34 -71.07 -33.24 1.02 
USER  
USER                              x       y       z    vdW   Elec        q     RMS 
ATOM      1  O   UNL d   1      27.357  33.711   3.688 -0.19 -0.20    -0.289    42.494
ATOM      2  O   UNL d   1      25.639  34.263  -3.601 -0.06 +0.03    -0.289    42.494
ATOM      3  N   UNL d   1      27.314  36.719   2.002 -0.15 -0.01    -0.247    42.494
ATOM      4  N   UNL d   1      26.840  35.914  -0.819 -0.09 -0.02    -0.247    42.494
ATOM      5  N   UNL d   1      27.588  38.576  -1.607 +0.00 -0.03    -0.354    42.494
ATOM      6  N   UNL d   1      28.096  39.397   1.320 -0.06 +0.00    -0.354    42.494
ATOM      7  C   UNL d   1      27.973  36.008   4.253 -0.23 -0.01    +0.084    42.494
ATOM      8  C   UNL d   1      25.668  33.803  -1.197 -0.21 -0.00    +0.084    42.494
ATOM      9  C   UNL d   1      26.316  34.790  -0.221 -0.21 +0.01    +0.058    42.494
ATOM     10  C   UNL d   1      27.824  37.130   3.222 -0.24 -0.01    +0.058    42.494
ATOM     11  C   UNL d   1      27.440  34.892   3.405 -0.18 +0.05    +0.193    42.494
ATOM     12  C   UNL d   1      27.051  35.455   2.073 -0.22 +0.02    +0.109    42.494
ATOM     13  C   UNL d   1      25.954  34.558  -2.465 -0.11 -0.00    +0.193    42.494
ATOM     14  C   UNL d   1      29.440  35.722   4.582 -0.25 -0.00    +0.026    42.494
ATOM     15  C   UNL d   1      26.410  34.551   1.097 -0.32 +0.01    +0.055    42.494
ATOM     16  C   UNL d   1      24.151  33.725  -1.003 -0.32 -0.00    +0.026    42.494
ATOM     17  C   UNL d   1      26.674  35.815  -2.099 -0.16 +0.00    +0.109    42.494
ATOM     18  C   UNL d   1      28.088  38.413   3.536 -0.32 -0.02    +0.050    42.494
ATOM     19  C   UNL d   1      27.899  39.525   2.677 -0.27 -0.01    +0.045    42.494
ATOM     20  C   UNL d   1      27.544  37.970  -2.836 -0.16 +0.00    +0.045    42.494
ATOM     21  C   UNL d   1      27.124  36.740  -3.149 -0.17 +0.00    +0.057    42.494
ATOM     22  C   UNL d   1      28.381  40.081  -3.083 -0.10 -0.00    -0.019    42.494
ATOM     23  C   UNL d   1      28.079  39.853  -1.656 -0.13 +0.00    +0.045    42.494
ATOM     24  C   UNL d   1      28.061  38.963  -3.777 -0.10 -0.00    -0.022    42.494
ATOM     25  C   UNL d   1      27.949  40.612   0.693 -0.16 +0.00    +0.049    42.494
ATOM     26  C   UNL d   1      27.579  40.850   2.933 -0.37 +0.00    -0.018    42.494
ATOM     27  C   UNL d   1      27.593  41.527   1.675 -0.30 +0.00    +0.003    42.494
ATOM     28  C   UNL d   1      28.257  40.764  -0.686 -0.15 +0.01    +0.052    42.494
ATOM     29  C   UNL d   1      28.173  38.710  -5.242 -0.05 +0.00    +0.046    42.494
ATOM     30  C   UNL d   1      27.277  41.451   4.264 -0.52 -0.01    +0.046    42.494
ATOM     31  H   UNL d   1      27.209  38.122  -0.783 +0.06 +0.01    +0.166    42.494
ATOM     32  H   UNL d   1      28.355  38.526   0.871 +0.05 +0.00    +0.166    42.494
ATOM     33  C   UNL d   1      27.132  36.167   5.524 -0.22 -0.09    +0.141    42.494
ATOM     34  C   UNL d   1      27.273  34.998   6.461 -0.18 -0.09    +0.306    42.494
ATOM     35  O   UNL d   1      27.836  33.944   6.219 -0.23 -0.05    -0.251    42.494
ATOM     36  O   UNL d   1      26.698  35.221   7.657 -0.17 +0.33    -0.481    42.494
ATOM     37  H   UNL d   1      26.383  36.148   7.610 -0.35 -0.52    +0.295    42.494
ATOM     38  C   UNL d   1      27.330  42.922   1.486 -0.34 +0.01    +0.017    42.494
ATOM     39  C   UNL d   1      27.279  43.547   0.299 -0.21 +0.03    +0.092    42.494
ATOM     40  C   UNL d   1      26.983  44.980   0.241 -0.09 +0.13    +0.330    42.494
ATOM     41  O   UNL d   1      26.081  45.577   0.799 -0.13 -0.13    -0.246    42.494
ATOM     42  O   UNL d   1      27.879  45.606  -0.538 -0.01 -0.12    -0.477    42.494
ATOM     43  H   UNL d   1      28.218  44.896  -1.122 +0.05 +0.06    +0.295    42.494
ATOM     44  C   UNL d   1      26.295  32.406  -1.238 -0.10 +0.01    +0.141    42.494
ATOM     45  C   UNL d   1      27.786  32.429  -1.446 -0.06 +0.12    +0.306    42.494
ATOM     46  O   UNL d   1      28.641  32.421  -0.578 -0.40 -0.29    -0.251    42.494
ATOM     47  O   UNL d   1      28.123  32.489  -2.747 +0.01 -0.07    -0.481    42.494
ATOM     48  H   UNL d   1      27.395  32.994  -3.169 +0.05 +0.01    +0.295    42.494
ATOM     49  C   UNL d   1      28.962  41.352  -3.629 -0.05 +0.00    +0.048    42.494
ATOM     50  C   UNL d   1      27.889  42.417  -3.857 -0.06 +0.01    +0.125    42.494
ATOM     51  C   UNL d   1      28.024  43.537  -2.865 -0.02 +0.03    +0.305    42.494
ATOM     52  O   UNL d   1      29.041  43.926  -2.318 -0.01 -0.03    -0.251    42.494
ATOM     53  O   UNL d   1      26.838  44.117  -2.596 -0.01 -0.06    -0.481    42.494
ATOM     54  H   UNL d   1      27.059  45.064  -2.472 +0.05 +0.04    +0.295    42.494
TER
ENDMDL
MODEL       21
USER    Run = 21
USER    Cluster Rank = 12
USER    Number of conformations in this cluster = 1
USER  
USER    RMSD from reference structure       = 53.071 A
USER  
USER    Estimated Free Energy of Binding    =   -4.87 kcal/mol  [=(1)+(2)+(3)-(4)]
USER    Estimated Inhibition Constant, Ki   =  269.05 uM (micromolar)  [Temperature = 298.15 K]
USER    
USER    (1) Final Intermolecular Energy     =   -8.75 kcal/mol
USER        vdW + Hbond + desolv Energy     =   -8.44 kcal/mol
USER        Electrostatic Energy            =   -0.31 kcal/mol
USER    (2) Final Total Internal Energy     =   -1.90 kcal/mol
USER    (3) Torsional Free Energy           =   +3.88 kcal/mol
USER    (4) Unbound System's Energy  [=(2)] =   -1.90 kcal/mol
USER    
USER    
USER  
USER    DPF = D:/Protein_go_brrr/autodock/final/6BB5/heme/dock.dpf
USER    NEWDPF move	heme_opt.pdbqt
USER    NEWDPF about	0.153000 0.018000 -0.028000
USER    NEWDPF tran0	47.522046 28.134894 16.896149
USER    NEWDPF axisangle0	-0.449126 0.893455 0.004853 -31.513515
USER    NEWDPF quaternion0	-0.121962 0.242621 0.001318 -0.962423
USER    NEWDPF dihe0	-177.70 119.08 -153.16 76.34 20.70 126.90 136.56 173.65 -135.84 -24.57 69.80 22.27 21.20 
USER  
USER                              x       y       z    vdW   Elec        q     RMS 
ATOM      1  O   UNL d   1      42.770  30.244  19.675 -0.22 -0.12    -0.289    53.071
ATOM      2  O   UNL d   1      44.740  23.212  17.926 -0.12 -0.12    -0.289    53.071
ATOM      3  N   UNL d   1      45.627  29.492  17.895 -0.08 -0.08    -0.247    53.071
ATOM      4  N   UNL d   1      45.712  26.523  17.963 -0.08 -0.11    -0.247    53.071
ATOM      5  N   UNL d   1      48.428  26.672  17.032 -0.05 -0.16    -0.354    53.071
ATOM      6  N   UNL d   1      48.338  29.753  16.984 -0.05 -0.09    -0.354    53.071
ATOM      7  C   UNL d   1      44.674  31.537  18.853 -0.23 +0.03    +0.084    53.071
ATOM      8  C   UNL d   1      43.585  25.349  18.225 -0.22 +0.03    +0.084    53.071
ATOM      9  C   UNL d   1      44.361  26.670  18.188 -0.19 +0.02    +0.058    53.071
ATOM     10  C   UNL d   1      45.804  30.854  18.078 -0.17 +0.02    +0.058    53.071
ATOM     11  C   UNL d   1      43.817  30.325  19.060 -0.22 +0.08    +0.193    53.071
ATOM     12  C   UNL d   1      44.490  29.155  18.412 -0.20 +0.04    +0.109    53.071
ATOM     13  C   UNL d   1      44.751  24.424  18.017 -0.11 +0.08    +0.193    53.071
ATOM     14  C   UNL d   1      45.141  32.052  20.217 -0.12 +0.01    +0.026    53.071
ATOM     15  C   UNL d   1      43.781  27.859  18.407 -0.17 +0.02    +0.055    53.071
ATOM     16  C   UNL d   1      42.632  25.216  17.033 -0.37 +0.01    +0.026    53.071
ATOM     17  C   UNL d   1      45.982  25.260  17.880 -0.12 +0.05    +0.109    53.071
ATOM     18  C   UNL d   1      46.824  31.559  17.554 -0.13 +0.01    +0.050    53.071
ATOM     19  C   UNL d   1      47.867  31.026  16.754 -0.19 +0.01    +0.045    53.071
ATOM     20  C   UNL d   1      48.358  25.339  17.342 -0.16 +0.03    +0.045    53.071
ATOM     21  C   UNL d   1      47.294  24.618  17.708 -0.16 +0.04    +0.057    53.071
ATOM     22  C   UNL d   1      50.516  25.859  16.804 -0.14 -0.01    -0.019    53.071
ATOM     23  C   UNL d   1      49.691  27.079  16.695 -0.14 +0.02    +0.045    53.071
ATOM     24  C   UNL d   1      49.721  24.832  17.186 -0.15 -0.02    -0.022    53.071
ATOM     25  C   UNL d   1      49.403  29.475  16.158 -0.15 +0.01    +0.049    53.071
ATOM     26  C   UNL d   1      48.621  31.576  15.728 -0.31 -0.00    -0.018    53.071
ATOM     27  C   UNL d   1      49.576  30.585  15.343 -0.28 +0.00    +0.003    53.071
ATOM     28  C   UNL d   1      50.156  28.280  16.317 -0.15 +0.01    +0.052    53.071
ATOM     29  C   UNL d   1      50.087  23.406  17.418 +0.04 +0.06    +0.046    53.071
ATOM     30  C   UNL d   1      48.464  32.937  15.139 -0.26 +0.01    +0.046    53.071
ATOM     31  H   UNL d   1      47.593  27.247  16.989 +0.04 +0.07    +0.166    53.071
ATOM     32  H   UNL d   1      47.964  29.137  17.696 +0.04 +0.05    +0.166    53.071
ATOM     33  C   UNL d   1      43.905  32.614  18.079 -0.28 +0.02    +0.141    53.071
ATOM     34  C   UNL d   1      44.532  33.976  18.204 -0.17 +0.04    +0.306    53.071
ATOM     35  O   UNL d   1      45.546  34.356  17.644 -0.13 -0.03    -0.251    53.071
ATOM     36  O   UNL d   1      43.846  34.789  19.026 -0.13 +0.01    -0.481    53.071
ATOM     37  H   UNL d   1      43.087  34.248  19.332 -0.13 -0.06    +0.295    53.071
ATOM     38  C   UNL d   1      50.566  30.747  14.322 -0.30 +0.00    +0.017    53.071
ATOM     39  C   UNL d   1      50.686  29.977  13.230 -0.29 +0.00    +0.092    53.071
ATOM     40  C   UNL d   1      51.736  30.260  12.248 -0.18 -0.02    +0.330    53.071
ATOM     41  O   UNL d   1      52.593  29.501  11.836 -0.11 -0.00    -0.246    53.071
ATOM     42  O   UNL d   1      51.638  31.528  11.819 -0.13 +0.09    -0.477    53.071
ATOM     43  H   UNL d   1      50.751  31.568  11.407 -0.36 -0.14    +0.295    53.071
ATOM     44  C   UNL d   1      42.869  25.042  19.545 -0.30 +0.05    +0.141    53.071
ATOM     45  C   UNL d   1      43.805  24.619  20.645 -0.17 +0.17    +0.306    53.071
ATOM     46  O   UNL d   1      44.326  25.344  21.474 -0.20 -0.24    -0.251    53.071
ATOM     47  O   UNL d   1      44.060  23.298  20.625 -0.50 -0.25    -0.481    53.071
ATOM     48  H   UNL d   1      43.924  23.033  19.690 +0.13 +0.13    +0.295    53.071
ATOM     49  C   UNL d   1      51.993  25.815  16.541 -0.09 +0.02    +0.048    53.071
ATOM     50  C   UNL d   1      52.326  26.184  15.096 -0.11 +0.05    +0.125    53.071
ATOM     51  C   UNL d   1      52.794  24.981  14.329 -0.06 +0.16    +0.305    53.071
ATOM     52  O   UNL d   1      52.935  24.876  13.123 -0.10 -0.12    -0.251    53.071
ATOM     53  O   UNL d   1      53.058  23.937  15.140 -0.04 -0.32    -0.481    53.071
ATOM     54  H   UNL d   1      54.037  23.911  15.184 +0.02 +0.13    +0.295    53.071
TER
ENDMDL
MODEL       81
USER    Run = 81
USER    Cluster Rank = 13
USER    Number of conformations in this cluster = 2
USER  
USER    RMSD from reference structure       = 29.219 A
USER  
USER    Estimated Free Energy of Binding    =   -4.80 kcal/mol  [=(1)+(2)+(3)-(4)]
USER    Estimated Inhibition Constant, Ki   =  304.26 uM (micromolar)  [Temperature = 298.15 K]
USER    
USER    (1) Final Intermolecular Energy     =   -8.68 kcal/mol
USER        vdW + Hbond + desolv Energy     =   -8.55 kcal/mol
USER        Electrostatic Energy            =   -0.12 kcal/mol
USER    (2) Final Total Internal Energy     =   -2.67 kcal/mol
USER    (3) Torsional Free Energy           =   +3.88 kcal/mol
USER    (4) Unbound System's Energy  [=(2)] =   -2.67 kcal/mol
USER    
USER    
USER  
USER    DPF = D:/Protein_go_brrr/autodock/final/6BB5/heme/dock.dpf
USER    NEWDPF move	heme_opt.pdbqt
USER    NEWDPF about	0.153000 0.018000 -0.028000
USER    NEWDPF tran0	0.049482 31.927333 7.260210
USER    NEWDPF axisangle0	0.016558 -0.985428 -0.169284 95.406870
USER    NEWDPF quaternion0	0.012248 -0.728893 -0.125214 0.672968
USER    NEWDPF dihe0	121.47 51.93 96.88 80.73 -134.02 -156.82 -44.26 -36.34 22.65 -125.98 99.60 -57.50 174.37 
USER  
USER                              x       y       z    vdW   Elec        q     RMS 
ATOM      1  O   UNL d   1       0.895  32.846  13.022 -0.19 -0.01    -0.289    29.219
ATOM      2  O   UNL d   1      -0.342  26.520   9.170 -0.16 +0.22    -0.289    29.219
ATOM      3  N   UNL d   1       0.315  32.813   9.622 -0.07 -0.01    -0.247    29.219
ATOM      4  N   UNL d   1       0.247  29.915   8.970 -0.13 +0.06    -0.247    29.219
ATOM      5  N   UNL d   1       0.443  30.630   6.192 -0.09 +0.05    -0.354    29.219
ATOM      6  N   UNL d   1       0.533  33.634   6.879 -0.17 -0.03    -0.354    29.219
ATOM      7  C   UNL d   1       0.942  34.532  11.252 -0.32 -0.00    +0.084    29.219
ATOM      8  C   UNL d   1      -0.394  28.380  10.760 -0.16 -0.02    +0.084    29.219
ATOM      9  C   UNL d   1      -0.058  29.805  10.308 -0.19 -0.01    +0.058    29.219
ATOM     10  C   UNL d   1       0.626  34.150   9.803 -0.24 +0.00    +0.058    29.219
ATOM     11  C   UNL d   1       0.736  33.178  11.861 -0.18 +0.00    +0.193    29.219
ATOM     12  C   UNL d   1       0.334  32.228  10.776 -0.17 +0.00    +0.109    29.219
ATOM     13  C   UNL d   1      -0.188  27.695   9.438 -0.16 -0.08    +0.193    29.219
ATOM     14  C   UNL d   1       2.406  34.939  11.433 -0.57 -0.00    +0.026    29.219
ATOM     15  C   UNL d   1      -0.014  30.844  11.156 -0.19 -0.00    +0.055    29.219
ATOM     16  C   UNL d   1      -1.866  28.244  11.160 -0.05 -0.00    +0.026    29.219
ATOM     17  C   UNL d   1       0.205  28.735   8.439 -0.20 -0.05    +0.109    29.219
ATOM     18  C   UNL d   1       0.574  35.076   8.827 -0.25 +0.00    +0.050    29.219
ATOM     19  C   UNL d   1       0.209  34.830   7.479 -0.34 +0.01    +0.045    29.219
ATOM     20  C   UNL d   1       0.629  29.275   6.100 -0.24 -0.02    +0.045    29.219
ATOM     21  C   UNL d   1       0.517  28.347   7.056 -0.18 -0.04    +0.057    29.219
ATOM     22  C   UNL d   1       0.993  30.211   4.048 -0.17 +0.00    -0.019    29.219
ATOM     23  C   UNL d   1       0.641  31.281   5.003 -0.20 -0.00    +0.045    29.219
ATOM     24  C   UNL d   1       0.983  29.026   4.703 -0.22 +0.01    -0.022    29.219
ATOM     25  C   UNL d   1       0.167  33.644   5.553 -0.25 +0.01    +0.049    29.219
ATOM     26  C   UNL d   1      -0.415  35.623   6.529 -0.29 -0.00    -0.018    29.219
ATOM     27  C   UNL d   1      -0.457  34.862   5.320 -0.21 +0.00    +0.003    29.219
ATOM     28  C   UNL d   1       0.538  32.581   4.686 -0.25 +0.00    +0.052    29.219
ATOM     29  C   UNL d   1       1.260  27.662   4.168 -0.25 -0.03    +0.046    29.219
ATOM     30  C   UNL d   1      -0.944  37.003   6.730 -0.29 +0.02    +0.046    29.219
ATOM     31  H   UNL d   1       0.114  31.059   7.050 +0.06 -0.01    +0.166    29.219
ATOM     32  H   UNL d   1       1.011  32.879   7.356 +0.08 +0.02    +0.166    29.219
ATOM     33  C   UNL d   1      -0.008  35.556  11.884 -0.26 -0.00    +0.141    29.219
ATOM     34  C   UNL d   1      -1.377  34.990  12.148 -0.08 +0.01    +0.306    29.219
ATOM     35  O   UNL d   1      -2.267  34.845  11.327 -0.04 -0.02    -0.251    29.219
ATOM     36  O   UNL d   1      -1.552  34.633  13.432 -0.02 +0.02    -0.481    29.219
ATOM     37  H   UNL d   1      -0.874  33.942  13.591 +0.07 -0.01    +0.295    29.219
ATOM     38  C   UNL d   1      -1.007  35.315   4.078 -0.15 +0.01    +0.017    29.219
ATOM     39  C   UNL d   1      -0.716  34.807   2.871 -0.11 +0.03    +0.092    29.219
ATOM     40  C   UNL d   1      -1.363  35.351   1.675 -0.06 +0.14    +0.330    29.219
ATOM     41  O   UNL d   1      -1.497  34.814   0.592 -0.04 -0.07    -0.246    29.219
ATOM     42  O   UNL d   1      -1.832  36.584   1.923 -0.04 -0.28    -0.477    29.219
ATOM     43  H   UNL d   1      -2.767  36.542   1.636 +0.03 +0.12    +0.295    29.219
ATOM     44  C   UNL d   1       0.528  27.792  11.833 -0.15 -0.02    +0.141    29.219
ATOM     45  C   UNL d   1       0.217  26.357  12.163 -0.16 -0.08    +0.306    29.219
ATOM     46  O   UNL d   1      -0.575  25.959  13.000 -0.08 +0.05    -0.251    29.219
ATOM     47  O   UNL d   1       0.945  25.491  11.435 -0.18 +0.23    -0.481    29.219
ATOM     48  H   UNL d   1       0.453  25.401  10.592 +0.12 -0.21    +0.295    29.219
ATOM     49  C   UNL d   1       1.317  30.446   2.602 -0.17 -0.00    +0.048    29.219
ATOM     50  C   UNL d   1       2.814  30.668   2.384 -0.19 -0.00    +0.125    29.219
ATOM     51  C   UNL d   1       3.205  32.074   2.738 -0.23 +0.01    +0.305    29.219
ATOM     52  O   UNL d   1       2.607  33.102   2.471 -0.21 -0.03    -0.251    29.219
ATOM     53  O   UNL d   1       4.368  32.118   3.418 -0.18 +0.03    -0.481    29.219
ATOM     54  H   UNL d   1       4.093  32.213   4.354 -0.13 -0.10    +0.295    29.219
TER
ENDMDL
MODEL       96
USER    Run = 96
USER    Cluster Rank = 14
USER    Number of conformations in this cluster = 1
USER  
USER    RMSD from reference structure       = 41.462 A
USER  
USER    Estimated Free Energy of Binding    =   -4.79 kcal/mol  [=(1)+(2)+(3)-(4)]
USER    Estimated Inhibition Constant, Ki   =  310.10 uM (micromolar)  [Temperature = 298.15 K]
USER    
USER    (1) Final Intermolecular Energy     =   -8.66 kcal/mol
USER        vdW + Hbond + desolv Energy     =   -8.35 kcal/mol
USER        Electrostatic Energy            =   -0.32 kcal/mol
USER    (2) Final Total Internal Energy     =   -1.59 kcal/mol
USER    (3) Torsional Free Energy           =   +3.88 kcal/mol
USER    (4) Unbound System's Energy  [=(2)] =   -1.59 kcal/mol
USER    
USER    
USER  
USER    DPF = D:/Protein_go_brrr/autodock/final/6BB5/heme/dock.dpf
USER    NEWDPF move	heme_opt.pdbqt
USER    NEWDPF about	0.153000 0.018000 -0.028000
USER    NEWDPF tran0	24.314768 39.010334 -5.892588
USER    NEWDPF axisangle0	-0.612280 -0.154670 0.775364 -101.787055
USER    NEWDPF quaternion0	-0.475114 -0.120020 0.601663 -0.630763
USER    NEWDPF dihe0	-41.36 2.96 -89.03 86.29 -114.03 -126.94 161.71 75.32 -176.68 -97.63 179.88 -94.14 164.92 
USER  
USER                              x       y       z    vdW   Elec        q     RMS 
ATOM      1  O   UNL d   1      21.370  34.110  -4.454 -0.57 +0.01    -0.289    41.462
ATOM      2  O   UNL d   1      27.925  36.823  -1.992 -0.09 -0.02    -0.289    41.462
ATOM      3  N   UNL d   1      22.785  36.996  -5.705 -0.13 -0.01    -0.247    41.462
ATOM      4  N   UNL d   1      25.145  37.416  -3.948 -0.18 -0.00    -0.247    41.462
ATOM      5  N   UNL d   1      25.349  40.078  -5.015 -0.12 -0.04    -0.354    41.462
ATOM      6  N   UNL d   1      22.889  39.640  -6.820 -0.06 -0.07    -0.354    41.462
ATOM      7  C   UNL d   1      20.648  35.839  -6.024 -0.27 +0.01    +0.084    41.462
ATOM      8  C   UNL d   1      26.112  35.441  -2.884 -0.17 -0.00    +0.084    41.462
ATOM      9  C   UNL d   1      25.003  36.063  -3.738 -0.23 -0.00    +0.058    41.462
ATOM     10  C   UNL d   1      21.563  37.022  -6.354 -0.22 +0.01    +0.058    41.462
ATOM     11  C   UNL d   1      21.579  35.128  -5.087 -0.20 -0.00    +0.193    41.462
ATOM     12  C   UNL d   1      22.849  35.915  -4.997 -0.16 -0.01    +0.109    41.462
ATOM     13  C   UNL d   1      26.890  36.698  -2.616 -0.15 +0.01    +0.193    41.462
ATOM     14  C   UNL d   1      19.402  36.274  -5.249 -0.47 +0.00    +0.026    41.462
ATOM     15  C   UNL d   1      23.958  35.356  -4.197 -0.27 -0.01    +0.055    41.462
ATOM     16  C   UNL d   1      26.988  34.484  -3.698 -0.07 -0.00    +0.026    41.462
ATOM     17  C   UNL d   1      26.195  37.824  -3.310 -0.17 +0.00    +0.109    41.462
ATOM     18  C   UNL d   1      21.215  37.945  -7.270 -0.28 +0.02    +0.050    41.462
ATOM     19  C   UNL d   1      22.028  39.024  -7.701 -0.18 +0.01    +0.045    41.462
ATOM     20  C   UNL d   1      26.254  40.165  -3.990 -0.17 +0.00    +0.045    41.462
ATOM     21  C   UNL d   1      26.709  39.196  -3.189 -0.16 +0.00    +0.057    41.462
ATOM     22  C   UNL d   1      25.973  42.239  -4.905 -0.13 -0.00    -0.019    41.462
ATOM     23  C   UNL d   1      25.114  41.280  -5.628 -0.15 +0.01    +0.045    41.462
ATOM     24  C   UNL d   1      26.647  41.573  -3.937 -0.16 -0.00    -0.022    41.462
ATOM     25  C   UNL d   1      23.508  40.712  -7.419 -0.11 +0.01    +0.049    41.462
ATOM     26  C   UNL d   1      22.119  39.690  -8.913 -0.13 -0.01    -0.018    41.462
ATOM     27  C   UNL d   1      23.069  40.742  -8.736 -0.08 +0.00    +0.003    41.462
ATOM     28  C   UNL d   1      24.324  41.598  -6.664 -0.13 +0.01    +0.052    41.462
ATOM     29  C   UNL d   1      27.638  42.102  -2.957 -0.12 +0.00    +0.046    41.462
ATOM     30  C   UNL d   1      21.371  39.368 -10.163 -0.13 +0.03    +0.046    41.462
ATOM     31  H   UNL d   1      24.975  39.183  -5.312 +0.04 +0.02    +0.166    41.462
ATOM     32  H   UNL d   1      23.003  39.353  -5.855 +0.06 +0.03    +0.166    41.462
ATOM     33  C   UNL d   1      20.287  34.937  -7.210 -0.25 +0.02    +0.141    41.462
ATOM     34  C   UNL d   1      18.805  34.705  -7.330 -0.25 +0.06    +0.306    41.462
ATOM     35  O   UNL d   1      18.086  34.192  -6.490 -0.84 -0.07    -0.251    41.462
ATOM     36  O   UNL d   1      18.307  35.134  -8.503 -0.23 -0.20    -0.481    41.462
ATOM     37  H   UNL d   1      17.706  34.415  -8.793 -0.19 -0.01    +0.295    41.462
ATOM     38  C   UNL d   1      23.452  41.687  -9.741 -0.04 +0.00    +0.017    41.462
ATOM     39  C   UNL d   1      23.350  43.020  -9.630 -0.03 +0.01    +0.092    41.462
ATOM     40  C   UNL d   1      23.796  43.880 -10.730 +0.00 +0.03    +0.330    41.462
ATOM     41  O   UNL d   1      24.548  44.834 -10.669 -0.00 -0.01    -0.246    41.462
ATOM     42  O   UNL d   1      23.255  43.468 -11.887 +0.01 -0.05    -0.477    41.462
ATOM     43  H   UNL d   1      23.645  44.068 -12.555 +0.00 +0.02    +0.295    41.462
ATOM     44  C   UNL d   1      25.652  34.791  -1.574 -0.20 -0.00    +0.141    41.462
ATOM     45  C   UNL d   1      26.666  34.903  -0.467 -0.12 +0.04    +0.306    41.462
ATOM     46  O   UNL d   1      26.522  35.485   0.594 -0.18 -0.03    -0.251    41.462
ATOM     47  O   UNL d   1      27.826  34.294  -0.768 -0.01 -0.15    -0.481    41.462
ATOM     48  H   UNL d   1      28.366  34.989  -1.202 +0.06 +0.06    +0.295    41.462
ATOM     49  C   UNL d   1      26.044  43.706  -5.214 -0.07 +0.00    +0.048    41.462
ATOM     50  C   UNL d   1      24.891  44.479  -4.575 -0.12 +0.01    +0.125    41.462
ATOM     51  C   UNL d   1      24.000  43.559  -3.789 -0.22 +0.04    +0.305    41.462
ATOM     52  O   UNL d   1      24.262  42.979  -2.750 -0.35 -0.05    -0.251    41.462
ATOM     53  O   UNL d   1      22.795  43.404  -4.373 -0.04 -0.08    -0.481    41.462
ATOM     54  H   UNL d   1      22.230  44.075  -3.936 +0.11 +0.01    +0.295    41.462
TER
ENDMDL
MODEL       24
USER    Run = 24
USER    Cluster Rank = 15
USER    Number of conformations in this cluster = 3
USER  
USER    RMSD from reference structure       = 42.387 A
USER  
USER    Estimated Free Energy of Binding    =   -4.67 kcal/mol  [=(1)+(2)+(3)-(4)]
USER    Estimated Inhibition Constant, Ki   =  376.34 uM (micromolar)  [Temperature = 298.15 K]
USER    
USER    (1) Final Intermolecular Energy     =   -8.55 kcal/mol
USER        vdW + Hbond + desolv Energy     =   -8.36 kcal/mol
USER        Electrostatic Energy            =   -0.19 kcal/mol
USER    (2) Final Total Internal Energy     =   -3.87 kcal/mol
USER    (3) Torsional Free Energy           =   +3.88 kcal/mol
USER    (4) Unbound System's Energy  [=(2)] =   -3.87 kcal/mol
USER    
USER    
USER  
USER    DPF = D:/Protein_go_brrr/autodock/final/6BB5/heme/dock.dpf
USER    NEWDPF move	heme_opt.pdbqt
USER    NEWDPF about	0.153000 0.018000 -0.028000
USER    NEWDPF tran0	36.810991 30.046645 0.107104
USER    NEWDPF axisangle0	-0.975844 0.048054 0.213118 -160.734049
USER    NEWDPF quaternion0	-0.962084 0.047376 0.210113 -0.167336
USER    NEWDPF dihe0	-28.39 179.85 85.40 -51.33 -177.72 -64.44 -47.67 -133.39 -22.99 -121.42 -105.76 26.95 -8.51 
USER  
USER                              x       y       z    vdW   Elec        q     RMS 
ATOM      1  O   UNL d   1      31.196  28.798   1.400 -0.37 -0.27    -0.289    42.387
ATOM      2  O   UNL d   1      35.796  34.115   4.038 -0.21 -0.02    -0.289    42.387
ATOM      3  N   UNL d   1      34.495  29.064   0.430 -0.09 -0.03    -0.247    42.387
ATOM      4  N   UNL d   1      35.390  31.580   1.733 -0.12 -0.02    -0.247    42.387
ATOM      5  N   UNL d   1      37.722  31.512   0.052 -0.07 +0.03    -0.354    42.387
ATOM      6  N   UNL d   1      36.777  28.912  -1.308 -0.03 -0.01    -0.354    42.387
ATOM      7  C   UNL d   1      32.597  27.675  -0.259 -0.10 +0.01    +0.084    42.387
ATOM      8  C   UNL d   1      34.215  32.267   3.762 -0.34 +0.02    +0.084    42.387
ATOM      9  C   UNL d   1      34.335  31.306   2.574 -0.26 +0.01    +0.058    42.387
ATOM     10  C   UNL d   1      34.068  28.064  -0.428 -0.11 +0.00    +0.058    42.387
ATOM     11  C   UNL d   1      32.272  28.619   0.860 -0.16 +0.08    +0.193    42.387
ATOM     12  C   UNL d   1      33.511  29.386   1.204 -0.19 +0.03    +0.109    42.387
ATOM     13  C   UNL d   1      35.375  33.159   3.418 -0.29 +0.01    +0.193    42.387
ATOM     14  C   UNL d   1      31.758  28.052  -1.484 -0.04 +0.00    +0.026    42.387
ATOM     15  C   UNL d   1      33.456  30.317   2.349 -0.33 +0.02    +0.055    42.387
ATOM     16  C   UNL d   1      34.510  31.566   5.092 -0.56 +0.00    +0.026    42.387
ATOM     17  C   UNL d   1      35.997  32.639   2.163 -0.23 -0.00    +0.109    42.387
ATOM     18  C   UNL d   1      34.875  27.409  -1.284 -0.09 +0.00    +0.050    42.387
ATOM     19  C   UNL d   1      36.264  27.642  -1.447 -0.09 +0.00    +0.045    42.387
ATOM     20  C   UNL d   1      37.855  32.766   0.589 -0.20 -0.01    +0.045    42.387
ATOM     21  C   UNL d   1      37.138  33.343   1.559 -0.24 -0.01    +0.057    42.387
ATOM     22  C   UNL d   1      39.443  32.483  -1.029 -0.15 +0.00    -0.019    42.387
ATOM     23  C   UNL d   1      38.637  31.250  -0.933 -0.14 -0.00    +0.045    42.387
ATOM     24  C   UNL d   1      38.976  33.377  -0.125 -0.24 +0.00    -0.022    42.387
ATOM     25  C   UNL d   1      38.122  28.924  -1.595 -0.10 -0.00    +0.049    42.387
ATOM     26  C   UNL d   1      37.309  26.801  -1.798 -0.09 +0.00    -0.018    42.387
ATOM     27  C   UNL d   1      38.483  27.613  -1.871 -0.11 -0.00    +0.003    42.387
ATOM     28  C   UNL d   1      38.840  30.149  -1.673 -0.11 -0.00    +0.052    42.387
ATOM     29  C   UNL d   1      39.467  34.754   0.164 -0.29 -0.00    +0.046    42.387
ATOM     30  C   UNL d   1      37.226  25.334  -2.048 -0.07 -0.00    +0.046    42.387
ATOM     31  H   UNL d   1      37.056  30.846   0.429 +0.06 -0.00    +0.166    42.387
ATOM     32  H   UNL d   1      36.215  29.720  -1.066 +0.03 +0.01    +0.166    42.387
ATOM     33  C   UNL d   1      32.345  26.226   0.169 -0.12 -0.00    +0.141    42.387
ATOM     34  C   UNL d   1      33.516  25.627   0.902 -0.08 -0.08    +0.306    42.387
ATOM     35  O   UNL d   1      34.113  24.610   0.595 -0.19 +0.12    -0.251    42.387
ATOM     36  O   UNL d   1      33.873  26.345   1.981 -0.11 +0.14    -0.481    42.387
ATOM     37  H   UNL d   1      34.229  25.682   2.611 -0.20 -0.24    +0.295    42.387
ATOM     38  C   UNL d   1      39.790  27.144  -2.219 -0.13 +0.00    +0.017    42.387
ATOM     39  C   UNL d   1      40.860  27.157  -1.409 -0.17 +0.00    +0.092    42.387
ATOM     40  C   UNL d   1      42.142  26.629  -1.883 -0.01 +0.02    +0.330    42.387
ATOM     41  O   UNL d   1      42.414  25.477  -2.162 -0.11 -0.01    -0.246    42.387
ATOM     42  O   UNL d   1      43.038  27.622  -1.991 -0.00 -0.02    -0.477    42.387
ATOM     43  H   UNL d   1      42.540  28.419  -1.714 +0.09 +0.00    +0.295    42.387
ATOM     44  C   UNL d   1      32.910  33.067   3.835 -0.22 +0.05    +0.141    42.387
ATOM     45  C   UNL d   1      32.931  34.142   4.888 -0.22 +0.07    +0.306    42.387
ATOM     46  O   UNL d   1      32.559  34.035   6.044 -0.36 -0.03    -0.251    42.387
ATOM     47  O   UNL d   1      33.396  35.314   4.419 -0.16 -0.08    -0.481    42.387
ATOM     48  H   UNL d   1      34.348  35.315   4.655 -0.09 +0.04    +0.295    42.387
ATOM     49  C   UNL d   1      40.573  32.678  -1.996 -0.11 -0.00    +0.048    42.387
ATOM     50  C   UNL d   1      41.917  32.278  -1.388 -0.21 -0.01    +0.125    42.387
ATOM     51  C   UNL d   1      42.052  30.784  -1.320 -0.21 -0.02    +0.305    42.387
ATOM     52  O   UNL d   1      42.529  30.121  -0.415 -0.45 +0.02    -0.251    42.387
ATOM     53  O   UNL d   1      41.579  30.183  -2.430 -0.01 +0.01    -0.481    42.387
ATOM     54  H   UNL d   1      42.311  29.599  -2.716 +0.08 -0.01    +0.295    42.387
TER
ENDMDL
MODEL       14
USER    Run = 14
USER    Cluster Rank = 16
USER    Number of conformations in this cluster = 1
USER  
USER    RMSD from reference structure       = 28.837 A
USER  
USER    Estimated Free Energy of Binding    =   -4.60 kcal/mol  [=(1)+(2)+(3)-(4)]
USER    Estimated Inhibition Constant, Ki   =  426.87 uM (micromolar)  [Temperature = 298.15 K]
USER    
USER    (1) Final Intermolecular Energy     =   -8.47 kcal/mol
USER        vdW + Hbond + desolv Energy     =   -7.68 kcal/mol
USER        Electrostatic Energy            =   -0.80 kcal/mol
USER    (2) Final Total Internal Energy     =   -3.22 kcal/mol
USER    (3) Torsional Free Energy           =   +3.88 kcal/mol
USER    (4) Unbound System's Energy  [=(2)] =   -3.22 kcal/mol
USER    
USER    
USER  
USER    DPF = D:/Protein_go_brrr/autodock/final/6BB5/heme/dock.dpf
USER    NEWDPF move	heme_opt.pdbqt
USER    NEWDPF about	0.153000 0.018000 -0.028000
USER    NEWDPF tran0	18.837558 25.734958 -10.000949
USER    NEWDPF axisangle0	-0.346353 -0.738004 0.579129 -54.972973
USER    NEWDPF quaternion0	-0.159856 -0.340618 0.267291 -0.887120
USER    NEWDPF dihe0	-101.97 142.50 164.49 -164.73 29.83 -45.00 -52.75 -78.42 130.88 -110.65 -144.20 11.49 -15.37 
USER  
USER                              x       y       z    vdW   Elec        q     RMS 
ATOM      1  O   UNL d   1      14.266  23.890 -13.234 -0.04 +0.11    -0.289    28.837
ATOM      2  O   UNL d   1      20.036  20.119 -10.255 -0.06 +0.12    -0.289    28.837
ATOM      3  N   UNL d   1      16.816  25.439 -11.504 -0.08 +0.06    -0.247    28.837
ATOM      4  N   UNL d   1      18.424  23.163 -10.474 -0.15 +0.08    -0.247    28.837
ATOM      5  N   UNL d   1      19.766  25.018  -8.735 -0.11 +0.09    -0.354    28.837
ATOM      6  N   UNL d   1      18.080  27.370  -9.795 -0.05 +0.10    -0.354    28.837
ATOM      7  C   UNL d   1      14.685  26.173 -12.468 -0.23 -0.03    +0.084    28.837
ATOM      8  C   UNL d   1      18.327  21.068 -11.728 -0.08 -0.03    +0.084    28.837
ATOM      9  C   UNL d   1      17.824  22.500 -11.521 -0.14 -0.02    +0.058    28.837
ATOM     10  C   UNL d   1      15.964  26.514 -11.696 -0.20 -0.01    +0.058    28.837
ATOM     11  C   UNL d   1      14.975  24.720 -12.694 -0.09 -0.07    +0.193    28.837
ATOM     12  C   UNL d   1      16.306  24.403 -12.085 -0.12 -0.03    +0.109    28.837
ATOM     13  C   UNL d   1      19.297  21.027 -10.581 -0.05 -0.08    +0.193    28.837
ATOM     14  C   UNL d   1      13.435  26.299 -11.593 -0.48 -0.02    +0.026    28.837
ATOM     15  C   UNL d   1      16.846  23.040 -12.265 -0.12 -0.02    +0.055    28.837
ATOM     16  C   UNL d   1      19.107  20.924 -13.038 -0.03 -0.01    +0.026    28.837
ATOM     17  C   UNL d   1      19.255  22.355  -9.897 -0.13 -0.04    +0.109    28.837
ATOM     18  C   UNL d   1      16.248  27.777 -11.330 -0.22 -0.01    +0.050    28.837
ATOM     19  C   UNL d   1      17.441  28.199 -10.689 -0.25 -0.01    +0.045    28.837
ATOM     20  C   UNL d   1      20.239  23.835  -8.228 -0.20 -0.01    +0.045    28.837
ATOM     21  C   UNL d   1      20.077  22.596  -8.702 -0.21 -0.02    +0.057    28.837
ATOM     22  C   UNL d   1      20.923  25.544  -6.875 -0.23 +0.01    -0.019    28.837
ATOM     23  C   UNL d   1      20.128  26.106  -7.986 -0.28 -0.02    +0.045    28.837
ATOM     24  C   UNL d   1      20.986  24.200  -7.025 -0.18 +0.01    -0.022    28.837
ATOM     25  C   UNL d   1      19.158  28.010  -9.228 -0.29 -0.02    +0.049    28.837
ATOM     26  C   UNL d   1      18.142  29.394 -10.732 -0.26 +0.00    -0.018    28.837
ATOM     27  C   UNL d   1      19.237  29.262  -9.822 -0.25 -0.00    +0.003    28.837
ATOM     28  C   UNL d   1      19.881  27.413  -8.160 -0.35 -0.03    +0.052    28.837
ATOM     29  C   UNL d   1      21.681  23.198  -6.168 -0.13 -0.01    +0.046    28.837
ATOM     30  C   UNL d   1      17.819  30.587 -11.567 -0.22 -0.01    +0.046    28.837
ATOM     31  H   UNL d   1      19.273  25.050  -9.621 +0.05 -0.04    +0.166    28.837
ATOM     32  H   UNL d   1      17.760  26.436  -9.569 +0.12 -0.04    +0.166    28.837
ATOM     33  C   UNL d   1      14.512  26.901 -13.805 -0.15 -0.03    +0.141    28.837
ATOM     34  C   UNL d   1      13.255  26.495 -14.527 -0.09 -0.08    +0.306    28.837
ATOM     35  O   UNL d   1      12.140  26.952 -14.343 -0.20 +0.08    -0.251    28.837
ATOM     36  O   UNL d   1      13.471  25.537 -15.445 +0.01 +0.09    -0.481    28.837
ATOM     37  H   UNL d   1      13.585  24.715 -14.921 +0.05 -0.07    +0.295    28.837
ATOM     38  C   UNL d   1      20.208  30.277  -9.547 -0.22 -0.01    +0.017    28.837
ATOM     39  C   UNL d   1      21.537  30.093  -9.533 -0.08 -0.06    +0.092    28.837
ATOM     40  C   UNL d   1      22.428  31.223  -9.253 -0.03 -0.20    +0.330    28.837
ATOM     41  O   UNL d   1      22.387  32.339  -9.735 -0.03 +0.07    -0.246    28.837
ATOM     42  O   UNL d   1      23.347  30.872  -8.341 -0.03 +0.46    -0.477    28.837
ATOM     43  H   UNL d   1      22.855  30.293  -7.723 -0.36 -0.71    +0.295    28.837
ATOM     44  C   UNL d   1      17.268  19.969 -11.590 -0.13 -0.08    +0.141    28.837
ATOM     45  C   UNL d   1      17.855  18.607 -11.332 -0.08 -0.20    +0.306    28.837
ATOM     46  O   UNL d   1      18.074  17.741 -12.161 -0.02 +0.10    -0.251    28.837
ATOM     47  O   UNL d   1      18.111  18.396 -10.028 -0.12 +0.49    -0.481    28.837
ATOM     48  H   UNL d   1      18.092  19.289  -9.624 -0.40 -0.37    +0.295    28.837
ATOM     49  C   UNL d   1      21.528  26.364  -5.774 -0.03 -0.03    +0.048    28.837
ATOM     50  C   UNL d   1      23.009  26.649  -6.025 -0.16 -0.10    +0.125    28.837
ATOM     51  C   UNL d   1      23.272  26.871  -7.487 -0.06 -0.20    +0.305    28.837
ATOM     52  O   UNL d   1      23.477  26.027  -8.342 -0.02 +0.09    -0.251    28.837
ATOM     53  O   UNL d   1      23.277  28.180  -7.806 +0.04 +0.55    -0.481    28.837
ATOM     54  H   UNL d   1      23.345  28.636  -6.940 -0.48 -0.59    +0.295    28.837
TER
ENDMDL
MODEL       37
USER    Run = 37
USER    Cluster Rank = 17
USER    Number of conformations in this cluster = 1
USER  
USER    RMSD from reference structure       = 42.120 A
USER  
USER    Estimated Free Energy of Binding    =   -4.53 kcal/mol  [=(1)+(2)+(3)-(4)]
USER    Estimated Inhibition Constant, Ki   =  475.43 uM (micromolar)  [Temperature = 298.15 K]
USER    
USER    (1) Final Intermolecular Energy     =   -8.41 kcal/mol
USER        vdW + Hbond + desolv Energy     =   -8.03 kcal/mol
USER        Electrostatic Energy            =   -0.38 kcal/mol
USER    (2) Final Total Internal Energy     =   -3.46 kcal/mol
USER    (3) Torsional Free Energy           =   +3.88 kcal/mol
USER    (4) Unbound System's Energy  [=(2)] =   -3.46 kcal/mol
USER    
USER    
USER  
USER    DPF = D:/Protein_go_brrr/autodock/final/6BB5/heme/dock.dpf
USER    NEWDPF move	heme_opt.pdbqt
USER    NEWDPF about	0.153000 0.018000 -0.028000
USER    NEWDPF tran0	37.401286 29.004912 0.080554
USER    NEWDPF axisangle0	-0.959764 0.270892 0.073964 177.165853
USER    NEWDPF quaternion0	-0.959470 0.270809 0.073941 0.024730
USER    NEWDPF dihe0	116.12 153.35 -123.90 23.12 180.00 -98.49 120.82 -75.07 96.32 -37.83 43.22 15.93 115.93 
USER  
USER                              x       y       z    vdW   Elec        q     RMS 
ATOM      1  O   UNL d   1      31.702  30.497   0.309 -0.08 -0.26    -0.289    42.120
ATOM      2  O   UNL d   1      37.909  34.536   1.558 -0.16 +0.03    -0.289    42.120
ATOM      3  N   UNL d   1      34.871  29.140   0.187 -0.08 -0.03    -0.247    42.120
ATOM      4  N   UNL d   1      36.640  31.506   0.500 -0.10 +0.01    -0.247    42.120
ATOM      5  N   UNL d   1      38.839  29.859  -0.348 -0.11 +0.02    -0.354    42.120
ATOM      6  N   UNL d   1      36.992  27.414  -0.690 -0.05 +0.00    -0.354    42.120
ATOM      7  C   UNL d   1      32.617  28.318  -0.316 -0.09 +0.02    +0.084    42.120
ATOM      8  C   UNL d   1      35.726  33.436   1.687 -0.22 -0.00    +0.084    42.120
ATOM      9  C   UNL d   1      35.514  32.045   1.082 -0.14 +0.00    +0.058    42.120
ATOM     10  C   UNL d   1      34.125  28.059  -0.254 -0.13 +0.00    +0.058    42.120
ATOM     11  C   UNL d   1      32.640  29.731   0.185 -0.08 +0.08    +0.193    42.120
ATOM     12  C   UNL d   1      34.060  30.104   0.479 -0.11 +0.02    +0.109    42.120
ATOM     13  C   UNL d   1      37.170  33.604   1.308 -0.18 -0.03    +0.193    42.120
ATOM     14  C   UNL d   1      32.092  28.312  -1.754 -0.03 +0.00    +0.026    42.120
ATOM     15  C   UNL d   1      34.322  31.430   1.076 -0.15 +0.01    +0.055    42.120
ATOM     16  C   UNL d   1      35.617  33.414   3.215 -0.47 +0.00    +0.026    42.120
ATOM     17  C   UNL d   1      37.602  32.368   0.588 -0.17 -0.01    +0.109    42.120
ATOM     18  C   UNL d   1      34.642  26.846  -0.523 -0.16 -0.00    +0.050    42.120
ATOM     19  C   UNL d   1      36.010  26.491  -0.411 -0.12 -0.00    +0.045    42.120
ATOM     20  C   UNL d   1      39.444  31.089  -0.370 -0.24 -0.01    +0.045    42.120
ATOM     21  C   UNL d   1      38.969  32.264   0.055 -0.28 -0.01    +0.057    42.120
ATOM     22  C   UNL d   1      40.874  29.547  -1.262 -0.23 +0.00    -0.019    42.120
ATOM     23  C   UNL d   1      39.625  28.865  -0.867 -0.20 -0.00    +0.045    42.120
ATOM     24  C   UNL d   1      40.761  30.863  -0.964 -0.24 +0.00    -0.022    42.120
ATOM     25  C   UNL d   1      38.238  26.835  -0.606 -0.15 -0.00    +0.049    42.120
ATOM     26  C   UNL d   1      36.634  25.292  -0.102 -0.03 +0.00    -0.018    42.120
ATOM     27  C   UNL d   1      38.041  25.521  -0.207 -0.08 -0.00    +0.003    42.120
ATOM     28  C   UNL d   1      39.401  27.549  -1.002 -0.22 +0.00    +0.052    42.120
ATOM     29  C   UNL d   1      41.758  31.953  -1.162 -0.28 -0.00    +0.046    42.120
ATOM     30  C   UNL d   1      35.966  24.011   0.271 -0.21 -0.02    +0.046    42.120
ATOM     31  H   UNL d   1      37.934  29.726   0.090 +0.06 -0.00    +0.166    42.120
ATOM     32  H   UNL d   1      36.801  28.372  -0.958 +0.04 +0.00    +0.166    42.120
ATOM     33  C   UNL d   1      31.760  27.437   0.599 -0.15 +0.03    +0.141    42.120
ATOM     34  C   UNL d   1      30.580  28.173   1.173 -0.12 +0.24    +0.306    42.120
ATOM     35  O   UNL d   1      30.297  28.271   2.356 -0.62 -0.26    -0.251    42.120
ATOM     36  O   UNL d   1      29.820  28.751   0.227 -0.31 -0.50    -0.481    42.120
ATOM     37  H   UNL d   1      30.392  29.448  -0.159 +0.05 +0.31    +0.295    42.120
ATOM     38  C   UNL d   1      39.056  24.535   0.015 -0.23 -0.00    +0.017    42.120
ATOM     39  C   UNL d   1      40.101  24.674   0.844 -0.31 -0.00    +0.092    42.120
ATOM     40  C   UNL d   1      41.064  23.580   0.996 -0.16 +0.00    +0.330    42.120
ATOM     41  O   UNL d   1      41.128  22.766   1.897 -0.17 +0.00    -0.246    42.120
ATOM     42  O   UNL d   1      41.916  23.568  -0.041 -0.07 -0.03    -0.477    42.120
ATOM     43  H   UNL d   1      41.406  23.978  -0.769 +0.07 +0.01    +0.295    42.120
ATOM     44  C   UNL d   1      34.868  34.555   1.087 -0.13 +0.00    +0.141    42.120
ATOM     45  C   UNL d   1      35.496  35.205  -0.117 -0.06 -0.01    +0.306    42.120
ATOM     46  O   UNL d   1      35.547  34.748  -1.246 -0.02 -0.01    -0.251    42.120
ATOM     47  O   UNL d   1      36.056  36.393   0.173 -0.05 +0.06    -0.481    42.120
ATOM     48  H   UNL d   1      36.682  36.201   0.903 -0.46 -0.09    +0.295    42.120
ATOM     49  C   UNL d   1      42.044  28.858  -1.901 -0.25 -0.00    +0.048    42.120
ATOM     50  C   UNL d   1      41.603  27.696  -2.791 -0.12 +0.00    +0.125    42.120
ATOM     51  C   UNL d   1      42.472  26.491  -2.569 -0.11 +0.01    +0.305    42.120
ATOM     52  O   UNL d   1      43.571  26.269  -3.045 -0.11 -0.01    -0.251    42.120
ATOM     53  O   UNL d   1      41.891  25.596  -1.745 -0.08 -0.03    -0.481    42.120
ATOM     54  H   UNL d   1      42.643  25.079  -1.387 +0.06 +0.03    +0.295    42.120
TER
ENDMDL
MODEL       38
USER    Run = 38
USER    Cluster Rank = 18
USER    Number of conformations in this cluster = 1
USER  
USER    RMSD from reference structure       = 40.627 A
USER  
USER    Estimated Free Energy of Binding    =   -4.46 kcal/mol  [=(1)+(2)+(3)-(4)]
USER    Estimated Inhibition Constant, Ki   =  540.93 uM (micromolar)  [Temperature = 298.15 K]
USER    
USER    (1) Final Intermolecular Energy     =   -8.33 kcal/mol
USER        vdW + Hbond + desolv Energy     =   -7.96 kcal/mol
USER        Electrostatic Energy            =   -0.37 kcal/mol
USER    (2) Final Total Internal Energy     =   -1.70 kcal/mol
USER    (3) Torsional Free Energy           =   +3.88 kcal/mol
USER    (4) Unbound System's Energy  [=(2)] =   -1.70 kcal/mol
USER    
USER    
USER  
USER    DPF = D:/Protein_go_brrr/autodock/final/6BB5/heme/dock.dpf
USER    NEWDPF move	heme_opt.pdbqt
USER    NEWDPF about	0.153000 0.018000 -0.028000
USER    NEWDPF tran0	33.389589 15.703580 24.830936
USER    NEWDPF axisangle0	-0.956827 -0.208549 0.202458 106.302070
USER    NEWDPF quaternion0	-0.765671 -0.166885 0.162011 0.599708
USER    NEWDPF dihe0	-72.50 47.61 98.48 165.71 36.80 -87.08 -50.03 4.87 5.32 -123.58 -66.09 159.51 180.00 
USER  
USER                              x       y       z    vdW   Elec        q     RMS 
ATOM      1  O   UNL d   1      29.114  14.350  28.658 -0.01 +0.02    -0.289    40.627
ATOM      2  O   UNL d   1      28.916  18.167  22.194 -0.22 -0.20    -0.289    40.627
ATOM      3  N   UNL d   1      31.939  15.019  26.796 -0.10 +0.11    -0.247    40.627
ATOM      4  N   UNL d   1      30.852  16.270  24.330 -0.14 -0.02    -0.247    40.627
ATOM      5  N   UNL d   1      33.433  15.904  23.117 -0.14 -0.01    -0.354    40.627
ATOM      6  N   UNL d   1      34.547  14.589  25.673 -0.09 +0.17    -0.354    40.627
ATOM      7  C   UNL d   1      31.465  13.694  28.803 -0.03 -0.02    +0.084    40.627
ATOM      8  C   UNL d   1      28.697  17.408  24.511 -0.16 +0.01    +0.084    40.627
ATOM      9  C   UNL d   1      29.785  16.544  25.157 -0.17 +0.00    +0.058    40.627
ATOM     10  C   UNL d   1      32.477  14.190  27.766 -0.09 -0.03    +0.058    40.627
ATOM     11  C   UNL d   1      30.263  14.405  28.257 -0.03 -0.03    +0.193    40.627
ATOM     12  C   UNL d   1      30.685  15.194  27.057 -0.10 -0.02    +0.109    40.627
ATOM     13  C   UNL d   1      29.326  17.543  23.153 -0.19 +0.08    +0.193    40.627
ATOM     14  C   UNL d   1      31.234  12.184  28.704 -0.00 -0.00    +0.026    40.627
ATOM     15  C   UNL d   1      29.680  16.056  26.402 -0.14 -0.00    +0.055    40.627
ATOM     16  C   UNL d   1      28.617  18.795  25.156 -0.27 -0.00    +0.026    40.627
ATOM     17  C   UNL d   1      30.624  16.802  23.172 -0.23 +0.04    +0.109    40.627
ATOM     18  C   UNL d   1      33.788  13.900  27.869 -0.07 -0.03    +0.050    40.627
ATOM     19  C   UNL d   1      34.807  14.382  27.009 -0.05 -0.03    +0.045    40.627
ATOM     20  C   UNL d   1      32.707  16.282  22.017 -0.29 +0.01    +0.045    40.627
ATOM     21  C   UNL d   1      31.446  16.723  21.956 -0.32 +0.03    +0.057    40.627
ATOM     22  C   UNL d   1      34.795  15.648  21.342 -0.36 +0.00    -0.019    40.627
ATOM     23  C   UNL d   1      34.706  15.505  22.809 -0.29 -0.01    +0.045    40.627
ATOM     24  C   UNL d   1      33.609  16.110  20.879 -0.30 -0.01    -0.022    40.627
ATOM     25  C   UNL d   1      35.692  14.968  25.011 -0.24 -0.02    +0.049    40.627
ATOM     26  C   UNL d   1      36.145  14.669  27.228 -0.02 +0.01    -0.018    40.627
ATOM     27  C   UNL d   1      36.695  15.057  25.967 -0.21 -0.00    +0.003    40.627
ATOM     28  C   UNL d   1      35.710  15.088  23.595 -0.22 -0.02    +0.052    40.627
ATOM     29  C   UNL d   1      33.213  16.425  19.477 -0.23 +0.02    +0.046    40.627
ATOM     30  C   UNL d   1      36.872  14.590  28.528 -0.11 -0.02    +0.046    40.627
ATOM     31  H   UNL d   1      33.057  16.002  24.054 +0.06 -0.01    +0.166    40.627
ATOM     32  H   UNL d   1      33.640  14.438  25.248 +0.05 -0.05    +0.166    40.627
ATOM     33  C   UNL d   1      31.737  14.128  30.247 -0.04 -0.04    +0.141    40.627
ATOM     34  C   UNL d   1      31.912  15.617  30.381 -0.08 -0.14    +0.306    40.627
ATOM     35  O   UNL d   1      31.032  16.428  30.614 -0.16 +0.06    -0.251    40.627
ATOM     36  O   UNL d   1      33.189  16.005  30.217 -0.13 +0.53    -0.481    40.627
ATOM     37  H   UNL d   1      33.212  16.408  29.322 -0.43 -0.67    +0.295    40.627
ATOM     38  C   UNL d   1      38.060  15.424  25.739 -0.04 -0.01    +0.017    40.627
ATOM     39  C   UNL d   1      39.079  15.171  26.574 -0.25 -0.02    +0.092    40.627
ATOM     40  C   UNL d   1      40.438  15.585  26.214 -0.18 -0.05    +0.330    40.627
ATOM     41  O   UNL d   1      41.266  14.953  25.586 -0.16 +0.02    -0.246    40.627
ATOM     42  O   UNL d   1      40.681  16.822  26.676 -0.37 +0.08    -0.477    40.627
ATOM     43  H   UNL d   1      41.073  17.286  25.908 -0.27 -0.12    +0.295    40.627
ATOM     44  C   UNL d   1      27.312  16.762  24.413 -0.06 +0.02    +0.141    40.627
ATOM     45  C   UNL d   1      26.325  17.586  23.629 -0.04 +0.06    +0.306    40.627
ATOM     46  O   UNL d   1      25.529  18.390  24.081 -0.07 -0.02    -0.251    40.627
ATOM     47  O   UNL d   1      26.377  17.332  22.309 -0.04 -0.23    -0.481    40.627
ATOM     48  H   UNL d   1      27.124  17.875  21.980 +0.11 +0.20    +0.295    40.627
ATOM     49  C   UNL d   1      36.014  15.309  20.535 -0.30 -0.01    +0.048    40.627
ATOM     50  C   UNL d   1      35.928  13.905  19.937 -0.22 +0.00    +0.125    40.627
ATOM     51  C   UNL d   1      35.868  13.964  18.437 -0.18 +0.03    +0.305    40.627
ATOM     52  O   UNL d   1      35.859  14.957  17.732 -0.37 -0.03    -0.251    40.627
ATOM     53  O   UNL d   1      35.809  12.735  17.886 -0.02 -0.06    -0.481    40.627
ATOM     54  H   UNL d   1      36.063  12.134  18.617 +0.06 +0.03    +0.295    40.627
TER
ENDMDL
MODEL       69
USER    Run = 69
USER    Cluster Rank = 19
USER    Number of conformations in this cluster = 2
USER  
USER    RMSD from reference structure       = 45.822 A
USER  
USER    Estimated Free Energy of Binding    =   -4.45 kcal/mol  [=(1)+(2)+(3)-(4)]
USER    Estimated Inhibition Constant, Ki   =  542.60 uM (micromolar)  [Temperature = 298.15 K]
USER    
USER    (1) Final Intermolecular Energy     =   -8.33 kcal/mol
USER        vdW + Hbond + desolv Energy     =   -7.81 kcal/mol
USER        Electrostatic Energy            =   -0.53 kcal/mol
USER    (2) Final Total Internal Energy     =   -1.94 kcal/mol
USER    (3) Torsional Free Energy           =   +3.88 kcal/mol
USER    (4) Unbound System's Energy  [=(2)] =   -1.94 kcal/mol
USER    
USER    
USER  
USER    DPF = D:/Protein_go_brrr/autodock/final/6BB5/heme/dock.dpf
USER    NEWDPF move	heme_opt.pdbqt
USER    NEWDPF about	0.153000 0.018000 -0.028000
USER    NEWDPF tran0	12.245173 39.577209 25.682477
USER    NEWDPF axisangle0	0.475181 -0.339434 -0.811780 139.397137
USER    NEWDPF quaternion0	0.445663 -0.318348 -0.761353 0.346959
USER    NEWDPF dihe0	-1.96 125.17 111.47 -86.48 178.25 163.19 -41.40 -55.52 -22.31 -127.84 137.55 31.61 -172.49 
USER  
USER                              x       y       z    vdW   Elec        q     RMS 
ATOM      1  O   UNL d   1      12.608  37.779  31.285 +0.00 +0.02    -0.289    45.822
ATOM      2  O   UNL d   1      17.865  40.371  26.590 -0.17 +0.03    -0.289    45.822
ATOM      3  N   UNL d   1      11.942  38.595  28.001 -0.03 +0.05    -0.247    45.822
ATOM      4  N   UNL d   1      14.497  39.784  27.060 -0.09 +0.05    -0.247    45.822
ATOM      5  N   UNL d   1      13.084  40.770  24.759 +0.01 +0.12    -0.354    45.822
ATOM      6  N   UNL d   1      10.433  39.550  25.752 -0.03 +0.06    -0.354    45.822
ATOM      7  C   UNL d   1      10.582  37.917  29.925 -0.01 -0.01    +0.084    45.822
ATOM      8  C   UNL d   1      16.543  39.077  28.193 -0.16 -0.01    +0.084    45.822
ATOM      9  C   UNL d   1      15.014  39.048  28.103 -0.12 -0.01    +0.058    45.822
ATOM     10  C   UNL d   1      10.659  38.333  28.453 -0.03 -0.01    +0.058    45.822
ATOM     11  C   UNL d   1      12.051  37.973  30.221 +0.00 -0.02    +0.193    45.822
ATOM     12  C   UNL d   1      12.770  38.371  28.969 -0.03 -0.02    +0.109    45.822
ATOM     13  C   UNL d   1      16.796  39.996  27.032 -0.15 -0.02    +0.193    45.822
ATOM     14  C   UNL d   1       9.864  38.963  30.781 +0.00 -0.00    +0.026    45.822
ATOM     15  C   UNL d   1      14.246  38.403  28.995 -0.09 -0.01    +0.055    45.822
ATOM     16  C   UNL d   1      17.156  37.708  27.882 -0.21 +0.00    +0.026    45.822
ATOM     17  C   UNL d   1      15.475  40.358  26.436 -0.18 -0.02    +0.109    45.822
ATOM     18  C   UNL d   1       9.566  38.344  27.667 -0.06 -0.00    +0.050    45.822
ATOM     19  C   UNL d   1       9.553  38.632  26.279 -0.09 -0.01    +0.045    45.822
ATOM     20  C   UNL d   1      14.275  41.431  24.605 -0.23 -0.01    +0.045    45.822
ATOM     21  C   UNL d   1      15.408  41.289  25.300 -0.28 -0.01    +0.057    45.822
ATOM     22  C   UNL d   1      12.794  42.207  23.048 -0.24 +0.00    -0.019    45.822
ATOM     23  C   UNL d   1      12.128  41.171  23.864 -0.08 -0.01    +0.045    45.822
ATOM     24  C   UNL d   1      14.065  42.355  23.491 -0.25 +0.00    -0.022    45.822
ATOM     25  C   UNL d   1      10.187  39.741  24.412 -0.15 -0.01    +0.049    45.822
ATOM     26  C   UNL d   1       8.740  38.187  25.248 -0.15 +0.00    -0.018    45.822
ATOM     27  C   UNL d   1       9.157  38.877  24.068 -0.19 -0.00    +0.003    45.822
ATOM     28  C   UNL d   1      10.864  40.758  23.684 -0.19 -0.01    +0.052    45.822
ATOM     29  C   UNL d   1      15.129  43.266  22.982 -0.33 -0.01    +0.046    45.822
ATOM     30  C   UNL d   1       7.643  37.182  25.350 -0.23 -0.00    +0.046    45.822
ATOM     31  H   UNL d   1      12.985  40.012  25.425 -0.17 -0.07    +0.166    45.822
ATOM     32  H   UNL d   1      11.130  40.038  26.302 +0.03 -0.03    +0.166    45.822
ATOM     33  C   UNL d   1      10.035  36.508  30.182 -0.03 -0.00    +0.141    45.822
ATOM     34  C   UNL d   1      10.237  35.586  29.011 -0.11 -0.03    +0.306    45.822
ATOM     35  O   UNL d   1       9.377  34.916  28.465 -0.56 -0.10    -0.251    45.822
ATOM     36  O   UNL d   1      11.513  35.558  28.587 -0.03 +0.34    -0.481    45.822
ATOM     37  H   UNL d   1      11.524  34.876  27.882 -0.36 -0.60    +0.295    45.822
ATOM     38  C   UNL d   1       8.569  38.725  22.771 -0.30 -0.00    +0.017    45.822
ATOM     39  C   UNL d   1       9.166  38.160  21.711 -0.44 -0.01    +0.092    45.822
ATOM     40  C   UNL d   1       8.446  38.049  20.440 -0.30 +0.01    +0.330    45.822
ATOM     41  O   UNL d   1       8.915  37.868  19.332 -0.74 -0.03    -0.246    45.822
ATOM     42  O   UNL d   1       7.125  38.169  20.646 -0.26 -0.02    -0.477    45.822
ATOM     43  H   UNL d   1       6.929  37.481  21.315 -0.43 -0.11    +0.295    45.822
ATOM     44  C   UNL d   1      17.117  39.659  29.489 -0.06 -0.00    +0.141    45.822
ATOM     45  C   UNL d   1      18.622  39.718  29.499 -0.05 -0.00    +0.306    45.822
ATOM     46  O   UNL d   1      19.382  38.822  29.821 -0.09 -0.01    -0.251    45.822
ATOM     47  O   UNL d   1      19.092  40.922  29.125 +0.00 +0.02    -0.481    45.822
ATOM     48  H   UNL d   1      18.882  40.984  28.169 +0.10 -0.02    +0.295    45.822
ATOM     49  C   UNL d   1      12.128  42.958  21.933 -0.21 -0.01    +0.048    45.822
ATOM     50  C   UNL d   1      11.759  44.382  22.347 -0.06 -0.02    +0.125    45.822
ATOM     51  C   UNL d   1      11.198  44.408  23.741 -0.00 -0.03    +0.305    45.822
ATOM     52  O   UNL d   1      10.191  43.855  24.146 -0.01 +0.02    -0.251    45.822
ATOM     53  O   UNL d   1      11.948  45.157  24.573 +0.01 +0.04    -0.481    45.822
ATOM     54  H   UNL d   1      11.531  46.043  24.536 +0.01 -0.02    +0.295    45.822
TER
ENDMDL
MODEL      100
USER    Run = 100
USER    Cluster Rank = 20
USER    Number of conformations in this cluster = 1
USER  
USER    RMSD from reference structure       = 47.092 A
USER  
USER    Estimated Free Energy of Binding    =   -4.43 kcal/mol  [=(1)+(2)+(3)-(4)]
USER    Estimated Inhibition Constant, Ki   =  561.58 uM (micromolar)  [Temperature = 298.15 K]
USER    
USER    (1) Final Intermolecular Energy     =   -8.31 kcal/mol
USER        vdW + Hbond + desolv Energy     =   -8.13 kcal/mol
USER        Electrostatic Energy            =   -0.18 kcal/mol
USER    (2) Final Total Internal Energy     =   -2.46 kcal/mol
USER    (3) Torsional Free Energy           =   +3.88 kcal/mol
USER    (4) Unbound System's Energy  [=(2)] =   -2.46 kcal/mol
USER    
USER    
USER  
USER    DPF = D:/Protein_go_brrr/autodock/final/6BB5/heme/dock.dpf
USER    NEWDPF move	heme_opt.pdbqt
USER    NEWDPF about	0.153000 0.018000 -0.028000
USER    NEWDPF tran0	19.430301 47.281808 -5.006563
USER    NEWDPF axisangle0	-0.275213 -0.406694 0.871124 158.324282
USER    NEWDPF quaternion0	-0.270304 -0.399440 0.855586 0.188030
USER    NEWDPF dihe0	-113.50 87.14 -90.35 60.59 31.46 43.84 131.64 177.29 137.68 -22.83 84.40 -91.92 2.44 
USER  
USER                              x       y       z    vdW   Elec        q     RMS 
ATOM      1  O   UNL d   1      24.530  46.336  -2.205 -0.09 -0.04    -0.289    47.092
ATOM      2  O   UNL d   1      19.399  51.760  -1.403 -0.18 +0.05    -0.289    47.092
ATOM      3  N   UNL d   1      21.721  46.559  -4.193 -0.10 +0.01    -0.247    47.092
ATOM      4  N   UNL d   1      20.183  48.780  -2.957 -0.09 +0.05    -0.247    47.092
ATOM      5  N   UNL d   1      17.918  47.962  -4.528 -0.08 +0.08    -0.354    47.092
ATOM      6  N   UNL d   1      19.515  45.649  -5.791 -0.11 +0.01    -0.354    47.092
ATOM      7  C   UNL d   1      23.533  44.928  -3.935 -0.22 +0.01    +0.084    47.092
ATOM      8  C   UNL d   1      21.448  50.457  -1.709 -0.07 -0.01    +0.084    47.092
ATOM      9  C   UNL d   1      21.424  49.129  -2.474 -0.11 -0.01    +0.058    47.092
ATOM     10  C   UNL d   1      22.233  45.347  -4.628 -0.21 +0.00    +0.058    47.092
ATOM     11  C   UNL d   1      23.675  46.125  -3.045 -0.13 +0.01    +0.193    47.092
ATOM     12  C   UNL d   1      22.531  47.052  -3.314 -0.14 -0.00    +0.109    47.092
ATOM     13  C   UNL d   1      19.984  50.777  -1.815 -0.14 -0.03    +0.193    47.092
ATOM     14  C   UNL d   1      23.344  43.683  -3.064 +0.02 +0.00    +0.026    47.092
ATOM     15  C   UNL d   1      22.510  48.353  -2.614 -0.11 -0.00    +0.055    47.092
ATOM     16  C   UNL d   1      22.243  51.530  -2.459 -0.03 -0.00    +0.026    47.092
ATOM     17  C   UNL d   1      19.328  49.679  -2.588 -0.13 -0.03    +0.109    47.092
ATOM     18  C   UNL d   1      21.706  44.623  -5.634 -0.24 +0.00    +0.050    47.092
ATOM     19  C   UNL d   1      20.558  44.976  -6.387 -0.19 +0.00    +0.045    47.092
ATOM     20  C   UNL d   1      17.314  48.872  -3.699 -0.17 -0.01    +0.045    47.092
ATOM     21  C   UNL d   1      17.876  49.702  -2.814 -0.11 -0.02    +0.057    47.092
ATOM     22  C   UNL d   1      15.707  47.816  -4.933 -0.32 +0.00    -0.019    47.092
ATOM     23  C   UNL d   1      17.028  47.276  -5.311 -0.25 -0.01    +0.045    47.092
ATOM     24  C   UNL d   1      15.883  48.761  -3.979 -0.31 +0.01    -0.022    47.092
ATOM     25  C   UNL d   1      18.474  45.807  -6.676 -0.22 -0.00    +0.049    47.092
ATOM     26  C   UNL d   1      20.200  44.723  -7.703 -0.16 -0.00    -0.018    47.092
ATOM     27  C   UNL d   1      18.891  45.267  -7.885 -0.18 +0.00    +0.003    47.092
ATOM     28  C   UNL d   1      17.226  46.334  -6.246 -0.31 -0.01    +0.052    47.092
ATOM     29  C   UNL d   1      14.856  49.595  -3.292 -0.37 -0.01    +0.046    47.092
ATOM     30  C   UNL d   1      21.022  44.021  -8.730 -0.12 +0.01    +0.046    47.092
ATOM     31  H   UNL d   1      18.928  47.892  -4.585 +0.04 -0.03    +0.166    47.092
ATOM     32  H   UNL d   1      19.519  45.941  -4.821 +0.06 -0.02    +0.166    47.092
ATOM     33  C   UNL d   1      24.752  44.791  -4.854 -0.09 +0.01    +0.141    47.092
ATOM     34  C   UNL d   1      25.961  44.255  -4.136 -0.05 +0.03    +0.306    47.092
ATOM     35  O   UNL d   1      26.228  43.079  -3.955 -0.08 -0.03    -0.251    47.092
ATOM     36  O   UNL d   1      26.771  45.229  -3.685 +0.00 -0.05    -0.481    47.092
ATOM     37  H   UNL d   1      26.232  45.712  -3.023 +0.05 +0.03    +0.295    47.092
ATOM     38  C   UNL d   1      18.136  45.211  -9.100 -0.18 +0.00    +0.017    47.092
ATOM     39  C   UNL d   1      16.898  44.707  -9.220 -0.24 -0.00    +0.092    47.092
ATOM     40  C   UNL d   1      16.225  44.726 -10.521 -0.12 -0.04    +0.330    47.092
ATOM     41  O   UNL d   1      16.706  44.475 -11.610 -0.06 +0.00    -0.246    47.092
ATOM     42  O   UNL d   1      14.935  45.063 -10.370 -0.07 +0.20    -0.477    47.092
ATOM     43  H   UNL d   1      14.476  44.202 -10.287 -0.13 -0.28    +0.295    47.092
ATOM     44  C   UNL d   1      21.886  50.367  -0.243 -0.11 -0.01    +0.141    47.092
ATOM     45  C   UNL d   1      20.850  49.735   0.648 -0.18 -0.04    +0.306    47.092
ATOM     46  O   UNL d   1      20.715  48.545   0.874 -0.67 +0.01    -0.251    47.092
ATOM     47  O   UNL d   1      20.015  50.640   1.190 -0.16 +0.15    -0.481    47.092
ATOM     48  H   UNL d   1      19.288  50.728   0.537 -0.15 -0.13    +0.295    47.092
ATOM     49  C   UNL d   1      14.407  47.352  -5.522 -0.31 -0.01    +0.048    47.092
ATOM     50  C   UNL d   1      14.133  48.004  -6.877 -0.10 -0.01    +0.125    47.092
ATOM     51  C   UNL d   1      13.271  49.224  -6.721 -0.08 -0.05    +0.305    47.092
ATOM     52  O   UNL d   1      12.993  50.052  -7.571 -0.11 +0.03    -0.251    47.092
ATOM     53  O   UNL d   1      12.800  49.351  -5.464 -0.14 +0.14    -0.481    47.092
ATOM     54  H   UNL d   1      11.826  49.327  -5.572 -0.39 -0.16    +0.295    47.092
TER
ENDMDL
MODEL       32
USER    Run = 32
USER    Cluster Rank = 21
USER    Number of conformations in this cluster = 2
USER  
USER    RMSD from reference structure       = 28.025 A
USER  
USER    Estimated Free Energy of Binding    =   -4.31 kcal/mol  [=(1)+(2)+(3)-(4)]
USER    Estimated Inhibition Constant, Ki   =  697.98 uM (micromolar)  [Temperature = 298.15 K]
USER    
USER    (1) Final Intermolecular Energy     =   -8.18 kcal/mol
USER        vdW + Hbond + desolv Energy     =   -7.61 kcal/mol
USER        Electrostatic Energy            =   -0.58 kcal/mol
USER    (2) Final Total Internal Energy     =   -2.20 kcal/mol
USER    (3) Torsional Free Energy           =   +3.88 kcal/mol
USER    (4) Unbound System's Energy  [=(2)] =   -2.20 kcal/mol
USER    
USER    
USER  
USER    DPF = D:/Protein_go_brrr/autodock/final/6BB5/heme/dock.dpf
USER    NEWDPF move	heme_opt.pdbqt
USER    NEWDPF about	0.153000 0.018000 -0.028000
USER    NEWDPF tran0	17.766950 24.669543 -10.729827
USER    NEWDPF axisangle0	0.334587 0.004386 -0.942355 -135.708343
USER    NEWDPF quaternion0	0.309903 0.004062 -0.872835 -0.376965
USER    NEWDPF dihe0	112.56 -126.02 -141.93 137.36 -131.78 -80.40 -77.88 139.65 30.21 -148.67 -20.98 -106.58 125.94 
USER  
USER                              x       y       z    vdW   Elec        q     RMS 
ATOM      1  O   UNL d   1      21.473  26.983  -6.771 -0.18 +0.28    -0.289    28.025
ATOM      2  O   UNL d   1      16.807  30.260 -11.658 -0.17 +0.03    -0.289    28.025
ATOM      3  N   UNL d   1      19.566  25.194  -9.020 -0.15 +0.06    -0.247    28.025
ATOM      4  N   UNL d   1      17.862  27.277 -10.280 -0.06 +0.06    -0.247    28.025
ATOM      5  N   UNL d   1      16.238  25.165 -11.360 +0.03 +0.10    -0.354    28.025
ATOM      6  N   UNL d   1      18.000  23.011 -10.034 -0.12 +0.12    -0.354    28.025
ATOM      7  C   UNL d   1      21.044  24.607  -7.155 -0.16 -0.02    +0.084    28.025
ATOM      8  C   UNL d   1      18.730  29.561 -10.314 -0.21 -0.02    +0.084    28.025
ATOM      9  C   UNL d   1      18.877  28.106  -9.857 -0.23 -0.02    +0.058    28.025
ATOM     10  C   UNL d   1      20.105  24.157  -8.279 -0.21 -0.01    +0.058    28.025
ATOM     11  C   UNL d   1      20.954  26.083  -7.406 -0.17 -0.09    +0.193    28.025
ATOM     12  C   UNL d   1      20.049  26.309  -8.577 -0.22 -0.04    +0.109    28.025
ATOM     13  C   UNL d   1      17.424  29.412 -11.044 -0.23 -0.04    +0.193    28.025
ATOM     14  C   UNL d   1      20.469  24.304  -5.770 -0.28 -0.01    +0.026    28.025
ATOM     15  C   UNL d   1      19.881  27.691  -9.069 -0.27 -0.03    +0.055    28.025
ATOM     16  C   UNL d   1      19.815  29.952 -11.322 -0.09 -0.01    +0.026    28.025
ATOM     17  C   UNL d   1      17.002  27.983 -10.942 -0.20 -0.02    +0.109    28.025
ATOM     18  C   UNL d   1      19.913  22.853  -8.554 -0.22 -0.01    +0.050    28.025
ATOM     19  C   UNL d   1      19.132  22.344  -9.623 -0.12 -0.02    +0.045    28.025
ATOM     20  C   UNL d   1      15.451  26.245 -11.664 -0.23 -0.01    +0.045    28.025
ATOM     21  C   UNL d   1      15.727  27.546 -11.530 -0.23 -0.01    +0.057    28.025
ATOM     22  C   UNL d   1      14.306  24.333 -12.165 -0.22 +0.01    -0.019    28.025
ATOM     23  C   UNL d   1      15.632  23.967 -11.628 -0.21 -0.02    +0.045    28.025
ATOM     24  C   UNL d   1      14.206  25.684 -12.185 -0.31 +0.01    -0.022    28.025
ATOM     25  C   UNL d   1      17.350  22.299 -11.016 -0.20 -0.02    +0.049    28.025
ATOM     26  C   UNL d   1      19.241  21.189 -10.381 -0.08 +0.01    -0.018    28.025
ATOM     27  C   UNL d   1      18.124  21.175 -11.272 -0.13 -0.00    +0.003    28.025
ATOM     28  C   UNL d   1      16.074  22.707 -11.489 -0.25 -0.02    +0.052    28.025
ATOM     29  C   UNL d   1      13.068  26.528 -12.650 -0.33 -0.02    +0.046    28.025
ATOM     30  C   UNL d   1      20.316  20.160 -10.287 -0.09 -0.02    +0.046    28.025
ATOM     31  H   UNL d   1      17.196  25.283 -11.047 +0.05 -0.04    +0.166    28.025
ATOM     32  H   UNL d   1      17.685  23.883  -9.628 +0.05 -0.04    +0.166    28.025
ATOM     33  C   UNL d   1      22.494  24.128  -7.279 -0.05 -0.04    +0.141    28.025
ATOM     34  C   UNL d   1      23.284  24.926  -8.281 -0.01 -0.08    +0.306    28.025
ATOM     35  O   UNL d   1      23.231  24.816  -9.494 -0.01 +0.05    -0.251    28.025
ATOM     36  O   UNL d   1      24.099  25.825  -7.700 +0.00 +0.16    -0.481    28.025
ATOM     37  H   UNL d   1      23.495  26.503  -7.329 +0.05 -0.16    +0.295    28.025
ATOM     38  C   UNL d   1      17.841  20.145 -12.225 -0.08 -0.01    +0.017    28.025
ATOM     39  C   UNL d   1      16.824  19.274 -12.146 -0.09 -0.05    +0.092    28.025
ATOM     40  C   UNL d   1      16.634  18.274 -13.200 -0.00 -0.11    +0.330    28.025
ATOM     41  O   UNL d   1      16.080  18.422 -14.273 -0.00 +0.05    -0.246    28.025
ATOM     42  O   UNL d   1      17.181  17.105 -12.833 +0.01 +0.17    -0.477    28.025
ATOM     43  H   UNL d   1      16.772  16.918 -11.963 +0.03 -0.16    +0.295    28.025
ATOM     44  C   UNL d   1      18.616  30.598  -9.192 -0.35 -0.06    +0.141    28.025
ATOM     45  C   UNL d   1      18.912  32.002  -9.648 -0.11 -0.09    +0.306    28.025
ATOM     46  O   UNL d   1      19.771  32.745  -9.205 -0.16 +0.05    -0.251    28.025
ATOM     47  O   UNL d   1      18.085  32.410 -10.628 -0.05 +0.09    -0.481    28.025
ATOM     48  H   UNL d   1      17.215  32.022 -10.395 -0.28 -0.09    +0.295    28.025
ATOM     49  C   UNL d   1      13.265  23.340 -12.591 -0.19 -0.03    +0.048    28.025
ATOM     50  C   UNL d   1      13.153  22.176 -11.607 -0.19 -0.09    +0.125    28.025
ATOM     51  C   UNL d   1      11.834  21.473 -11.755 -0.16 -0.15    +0.305    28.025
ATOM     52  O   UNL d   1      11.634  20.273 -11.822 -0.12 +0.04    -0.251    28.025
ATOM     53  O   UNL d   1      10.805  22.341 -11.824 -0.10 +0.43    -0.481    28.025
ATOM     54  H   UNL d   1      11.006  23.005 -11.131 -0.33 -0.64    +0.295    28.025
TER
ENDMDL
MODEL       86
USER    Run = 86
USER    Cluster Rank = 22
USER    Number of conformations in this cluster = 3
USER  
USER    RMSD from reference structure       = 42.203 A
USER  
USER    Estimated Free Energy of Binding    =   -4.27 kcal/mol  [=(1)+(2)+(3)-(4)]
USER    Estimated Inhibition Constant, Ki   =  739.70 uM (micromolar)  [Temperature = 298.15 K]
USER    
USER    (1) Final Intermolecular Energy     =   -8.15 kcal/mol
USER        vdW + Hbond + desolv Energy     =   -7.60 kcal/mol
USER        Electrostatic Energy            =   -0.55 kcal/mol
USER    (2) Final Total Internal Energy     =   -2.51 kcal/mol
USER    (3) Torsional Free Energy           =   +3.88 kcal/mol
USER    (4) Unbound System's Energy  [=(2)] =   -2.51 kcal/mol
USER    
USER    
USER  
USER    DPF = D:/Protein_go_brrr/autodock/final/6BB5/heme/dock.dpf
USER    NEWDPF move	heme_opt.pdbqt
USER    NEWDPF about	0.153000 0.018000 -0.028000
USER    NEWDPF tran0	37.837078 13.281768 22.245790
USER    NEWDPF axisangle0	-0.139952 -0.756926 -0.638339 172.173199
USER    NEWDPF quaternion0	-0.139626 -0.755161 -0.636851 0.068249
USER    NEWDPF dihe0	150.06 133.54 -174.15 83.53 -141.11 140.05 142.12 140.10 13.80 -9.32 -31.70 93.97 15.07 
USER  
USER                              x       y       z    vdW   Elec        q     RMS 
ATOM      1  O   UNL d   1      43.568  12.475  23.367 -0.03 -0.02    -0.289    42.203
ATOM      2  O   UNL d   1      39.321  10.276  17.577 -0.03 -0.02    -0.289    42.203
ATOM      3  N   UNL d   1      40.175  13.072  23.206 -0.10 +0.04    -0.247    42.203
ATOM      4  N   UNL d   1      39.445  12.133  20.483 -0.10 +0.01    -0.247    42.203
ATOM      5  N   UNL d   1      36.925  13.483  20.794 +0.01 +0.05    -0.354    42.203
ATOM      6  N   UNL d   1      37.699  14.469  23.610 -0.07 +0.16    -0.354    42.203
ATOM      7  C   UNL d   1      41.977  13.731  24.732 -0.13 -0.00    +0.084    42.203
ATOM      8  C   UNL d   1      40.858  10.412  19.478 -0.05 +0.01    +0.084    42.203
ATOM      9  C   UNL d   1      40.595  11.389  20.628 -0.12 +0.00    +0.058    42.203
ATOM     10  C   UNL d   1      40.495  13.787  24.348 -0.20 -0.01    +0.058    42.203
ATOM     11  C   UNL d   1      42.435  12.842  23.615 -0.08 +0.01    +0.193    42.203
ATOM     12  C   UNL d   1      41.247  12.490  22.774 -0.13 -0.00    +0.109    42.203
ATOM     13  C   UNL d   1      39.665  10.765  18.635 -0.06 +0.01    +0.193    42.203
ATOM     14  C   UNL d   1      42.659  15.094  24.591 -0.19 -0.00    +0.026    42.203
ATOM     15  C   UNL d   1      41.440  11.542  21.659 -0.11 +0.00    +0.055    42.203
ATOM     16  C   UNL d   1      40.728   8.954  19.930 -0.02 +0.00    +0.026    42.203
ATOM     17  C   UNL d   1      38.894  11.825  19.353 -0.12 +0.01    +0.109    42.203
ATOM     18  C   UNL d   1      39.591  14.412  25.125 -0.28 -0.01    +0.050    42.203
ATOM     19  C   UNL d   1      38.192  14.444  24.895 -0.26 -0.01    +0.045    42.203
ATOM     20  C   UNL d   1      36.858  13.162  19.463 -0.14 +0.00    +0.045    42.203
ATOM     21  C   UNL d   1      37.688  12.402  18.741 -0.11 +0.01    +0.057    42.203
ATOM     22  C   UNL d   1      35.085  14.503  19.990 -0.25 -0.00    -0.019    42.203
ATOM     23  C   UNL d   1      35.898  14.289  21.204 -0.24 -0.01    +0.045    42.203
ATOM     24  C   UNL d   1      35.658  13.832  18.963 -0.23 -0.00    -0.022    42.203
ATOM     25  C   UNL d   1      36.329  14.591  23.620 -0.13 -0.02    +0.049    42.203
ATOM     26  C   UNL d   1      37.112  14.514  25.762 -0.22 +0.01    -0.018    42.203
ATOM     27  C   UNL d   1      35.937  14.587  24.951 -0.23 -0.00    +0.003    42.203
ATOM     28  C   UNL d   1      35.606  14.795  22.413 -0.30 -0.01    +0.052    42.203
ATOM     29  C   UNL d   1      35.206  13.732  17.546 -0.26 +0.01    +0.046    42.203
ATOM     30  C   UNL d   1      37.165  14.512  27.252 -0.17 -0.02    +0.046    42.203
ATOM     31  H   UNL d   1      37.633  13.078  21.397 -0.32 -0.04    +0.166    42.203
ATOM     32  H   UNL d   1      38.286  14.443  22.784 -0.39 -0.14    +0.166    42.203
ATOM     33  C   UNL d   1      42.279  13.088  26.090 -0.03 -0.00    +0.141    42.203
ATOM     34  C   UNL d   1      41.844  11.649  26.159 -0.00 +0.00    +0.306    42.203
ATOM     35  O   UNL d   1      40.736  11.246  26.473 -0.00 +0.00    -0.251    42.203
ATOM     36  O   UNL d   1      42.826  10.793  25.827 +0.00 -0.01    -0.481    42.203
ATOM     37  H   UNL d   1      43.356  11.274  25.155 +0.01 +0.01    +0.295    42.203
ATOM     38  C   UNL d   1      34.598  14.688  25.447 -0.24 -0.01    +0.017    42.203
ATOM     39  C   UNL d   1      34.061  13.904  26.395 -0.11 -0.04    +0.092    42.203
ATOM     40  C   UNL d   1      32.679  14.123  26.827 -0.05 -0.14    +0.330    42.203
ATOM     41  O   UNL d   1      31.829  13.284  27.055 -0.02 +0.05    -0.246    42.203
ATOM     42  O   UNL d   1      32.440  15.437  26.962 -0.06 +0.40    -0.477    42.203
ATOM     43  H   UNL d   1      33.214  15.766  27.463 -0.45 -0.61    +0.295    42.203
ATOM     44  C   UNL d   1      42.162  10.638  18.704 -0.04 +0.01    +0.141    42.203
ATOM     45  C   UNL d   1      42.253  12.005  18.080 -0.07 +0.04    +0.306    42.203
ATOM     46  O   UNL d   1      42.838  12.973  18.533 -0.13 -0.04    -0.251    42.203
ATOM     47  O   UNL d   1      41.574  12.087  16.921 -0.04 -0.07    -0.481    42.203
ATOM     48  H   UNL d   1      41.122  11.221  16.837 +0.04 +0.03    +0.295    42.203
ATOM     49  C   UNL d   1      33.845  15.346  19.943 -0.32 +0.01    +0.048    42.203
ATOM     50  C   UNL d   1      32.699  14.717  20.736 -0.15 +0.05    +0.125    42.203
ATOM     51  C   UNL d   1      31.802  15.775  21.314 -0.16 +0.20    +0.305    42.203
ATOM     52  O   UNL d   1      30.585  15.807  21.296 -0.72 -0.33    -0.251    42.203
ATOM     53  O   UNL d   1      32.504  16.771  21.890 -0.11 -0.18    -0.481    42.203
ATOM     54  H   UNL d   1      32.514  16.537  22.841 +0.14 +0.06    +0.295    42.203
TER
ENDMDL
MODEL       89
USER    Run = 89
USER    Cluster Rank = 23
USER    Number of conformations in this cluster = 1
USER  
USER    RMSD from reference structure       = 44.359 A
USER  
USER    Estimated Free Energy of Binding    =   -4.27 kcal/mol  [=(1)+(2)+(3)-(4)]
USER    Estimated Inhibition Constant, Ki   =  743.45 uM (micromolar)  [Temperature = 298.15 K]
USER    
USER    (1) Final Intermolecular Energy     =   -8.15 kcal/mol
USER        vdW + Hbond + desolv Energy     =   -8.03 kcal/mol
USER        Electrostatic Energy            =   -0.11 kcal/mol
USER    (2) Final Total Internal Energy     =   -3.72 kcal/mol
USER    (3) Torsional Free Energy           =   +3.88 kcal/mol
USER    (4) Unbound System's Energy  [=(2)] =   -3.72 kcal/mol
USER    
USER    
USER  
USER    DPF = D:/Protein_go_brrr/autodock/final/6BB5/heme/dock.dpf
USER    NEWDPF move	heme_opt.pdbqt
USER    NEWDPF about	0.153000 0.018000 -0.028000
USER    NEWDPF tran0	11.814871 36.039281 28.384141
USER    NEWDPF axisangle0	0.706863 0.691764 -0.147675 -135.978567
USER    NEWDPF quaternion0	0.655342 0.641344 -0.136912 -0.374780
USER    NEWDPF dihe0	180.00 -138.47 -81.72 59.07 -8.36 22.03 152.29 -87.68 -139.82 -83.93 -81.11 -70.19 -14.73 
USER  
USER                              x       y       z    vdW   Elec        q     RMS 
ATOM      1  O   UNL d   1      12.818  31.641  32.180 -0.02 -0.00    -0.289    44.359
ATOM      2  O   UNL d   1       6.397  34.630  29.685 -0.06 -0.09    -0.289    44.359
ATOM      3  N   UNL d   1      12.723  34.337  30.030 -0.10 +0.11    -0.247    44.359
ATOM      4  N   UNL d   1       9.834  34.594  29.385 -0.40 -0.10    -0.247    44.359
ATOM      5  N   UNL d   1      10.566  36.358  27.236 -0.11 +0.14    -0.354    44.359
ATOM      6  N   UNL d   1      13.563  36.070  27.900 -0.12 +0.26    -0.354    44.359
ATOM      7  C   UNL d   1      14.500  32.920  30.950 -0.14 -0.01    +0.084    44.359
ATOM      8  C   UNL d   1       8.241  33.754  31.036 -0.06 +0.04    +0.084    44.359
ATOM      9  C   UNL d   1       9.693  33.918  30.576 -0.09 +0.03    +0.058    44.359
ATOM     10  C   UNL d   1      14.086  34.091  30.053 -0.17 -0.02    +0.058    44.359
ATOM     11  C   UNL d   1      13.131  32.560  31.444 -0.07 -0.01    +0.193    44.359
ATOM     12  C   UNL d   1      12.144  33.507  30.835 -0.11 -0.02    +0.109    44.359
ATOM     13  C   UNL d   1       7.582  34.428  29.866 -0.07 +0.11    +0.193    44.359
ATOM     14  C   UNL d   1      15.059  31.747  30.141 -0.02 -0.00    +0.026    44.359
ATOM     15  C   UNL d   1      10.731  33.402  31.252 -0.10 +0.01    +0.055    44.359
ATOM     16  C   UNL d   1       7.950  34.567  32.301 -0.01 +0.00    +0.026    44.359
ATOM     17  C   UNL d   1       8.657  34.886  28.934 -0.08 +0.06    +0.109    44.359
ATOM     18  C   UNL d   1      15.001  34.853  29.425 -0.29 -0.01    +0.050    44.359
ATOM     19  C   UNL d   1      14.718  36.004  28.646 -0.30 -0.02    +0.045    44.359
ATOM     20  C   UNL d   1       9.239  36.175  26.948 -0.23 -0.00    +0.045    44.359
ATOM     21  C   UNL d   1       8.304  35.547  27.669 -0.15 +0.01    +0.057    44.359
ATOM     22  C   UNL d   1      10.208  37.348  25.244 -0.26 +0.00    -0.019    44.359
ATOM     23  C   UNL d   1      11.235  37.056  26.265 -0.27 -0.02    +0.045    44.359
ATOM     24  C   UNL d   1       9.028  36.826  25.655 -0.26 +0.00    -0.022    44.359
ATOM     25  C   UNL d   1      13.534  37.227  27.155 -0.29 -0.02    +0.049    44.359
ATOM     26  C   UNL d   1      15.441  37.162  28.408 -0.26 +0.00    -0.018    44.359
ATOM     27  C   UNL d   1      14.680  37.940  27.482 -0.25 -0.00    +0.003    44.359
ATOM     28  C   UNL d   1      12.516  37.446  26.188 -0.31 -0.02    +0.052    44.359
ATOM     29  C   UNL d   1       7.702  36.870  24.977 -0.29 -0.00    +0.046    44.359
ATOM     30  C   UNL d   1      16.757  37.529  29.006 -0.28 -0.00    +0.046    44.359
ATOM     31  H   UNL d   1      10.958  36.064  28.124 -0.00 -0.08    +0.166    44.359
ATOM     32  H   UNL d   1      12.863  35.338  27.884 -0.43 -0.27    +0.166    44.359
ATOM     33  C   UNL d   1      15.417  33.283  32.122 -0.08 +0.01    +0.141    44.359
ATOM     34  C   UNL d   1      16.876  33.150  31.779 -0.12 +0.05    +0.306    44.359
ATOM     35  O   UNL d   1      17.418  33.556  30.765 -0.22 -0.06    -0.251    44.359
ATOM     36  O   UNL d   1      17.577  32.513  32.734 -0.05 -0.13    -0.481    44.359
ATOM     37  H   UNL d   1      16.923  32.336  33.444 +0.04 +0.05    +0.295    44.359
ATOM     38  C   UNL d   1      15.072  39.211  26.954 -0.27 -0.00    +0.017    44.359
ATOM     39  C   UNL d   1      14.790  39.658  25.720 -0.17 -0.03    +0.092    44.359
ATOM     40  C   UNL d   1      15.236  40.991  25.307 -0.17 -0.07    +0.330    44.359
ATOM     41  O   UNL d   1      16.122  41.664  25.798 -0.15 +0.03    -0.246    44.359
ATOM     42  O   UNL d   1      14.520  41.411  24.252 -0.11 +0.13    -0.477    44.359
ATOM     43  H   UNL d   1      13.605  41.137  24.466 +0.01 -0.09    +0.295    44.359
ATOM     44  C   UNL d   1       7.754  32.308  31.181 -0.06 +0.08    +0.141    44.359
ATOM     45  C   UNL d   1       6.405  32.070  30.556 -0.05 +0.15    +0.306    44.359
ATOM     46  O   UNL d   1       6.178  31.443  29.536 -0.06 -0.16    -0.251    44.359
ATOM     47  O   UNL d   1       5.409  32.662  31.240 +0.00 -0.10    -0.481    44.359
ATOM     48  H   UNL d   1       5.248  33.504  30.764 +0.02 +0.06    +0.295    44.359
ATOM     49  C   UNL d   1      10.476  38.091  23.969 -0.26 -0.01    +0.048    44.359
ATOM     50  C   UNL d   1      10.088  39.566  24.077 -0.18 -0.02    +0.125    44.359
ATOM     51  C   UNL d   1      11.296  40.421  24.335 -0.00 -0.08    +0.305    44.359
ATOM     52  O   UNL d   1      11.726  40.794  25.412 -0.08 +0.05    -0.251    44.359
ATOM     53  O   UNL d   1      11.911  40.783  23.191 -0.09 +0.12    -0.481    44.359
ATOM     54  H   UNL d   1      12.821  40.431  23.288 -0.39 -0.16    +0.295    44.359
TER
ENDMDL
MODEL       60
USER    Run = 60
USER    Cluster Rank = 24
USER    Number of conformations in this cluster = 2
USER  
USER    RMSD from reference structure       = 60.764 A
USER  
USER    Estimated Free Energy of Binding    =   -4.20 kcal/mol  [=(1)+(2)+(3)-(4)]
USER    Estimated Inhibition Constant, Ki   =  837.44 uM (micromolar)  [Temperature = 298.15 K]
USER    
USER    (1) Final Intermolecular Energy     =   -8.08 kcal/mol
USER        vdW + Hbond + desolv Energy     =   -7.54 kcal/mol
USER        Electrostatic Energy            =   -0.53 kcal/mol
USER    (2) Final Total Internal Energy     =   -2.48 kcal/mol
USER    (3) Torsional Free Energy           =   +3.88 kcal/mol
USER    (4) Unbound System's Energy  [=(2)] =   -2.48 kcal/mol
USER    
USER    
USER  
USER    DPF = D:/Protein_go_brrr/autodock/final/6BB5/heme/dock.dpf
USER    NEWDPF move	heme_opt.pdbqt
USER    NEWDPF about	0.153000 0.018000 -0.028000
USER    NEWDPF tran0	43.534976 49.114549 4.939180
USER    NEWDPF axisangle0	-0.803605 -0.572658 -0.162116 -172.857821
USER    NEWDPF quaternion0	-0.802045 -0.571546 -0.161801 -0.062287
USER    NEWDPF dihe0	-125.55 -145.62 22.26 -93.50 -137.66 -13.03 -43.76 -29.96 -131.33 -171.98 109.24 5.37 39.43 
USER  
USER                              x       y       z    vdW   Elec        q     RMS 
ATOM      1  O   UNL d   1      43.588  43.696   2.618 +0.01 -0.01    -0.289    60.764
ATOM      2  O   UNL d   1      37.915  47.925   5.132 -0.56 -0.34    -0.289    60.764
ATOM      3  N   UNL d   1      44.061  46.803   4.039 -0.10 +0.08    -0.247    60.764
ATOM      4  N   UNL d   1      41.291  47.805   4.428 -0.13 +0.01    -0.247    60.764
ATOM      5  N   UNL d   1      42.401  50.415   4.900 -0.09 +0.10    -0.354    60.764
ATOM      6  N   UNL d   1      45.270  49.371   4.475 +0.10 +0.15    -0.354    60.764
ATOM      7  C   UNL d   1      45.513  45.170   2.927 -0.14 -0.02    +0.084    60.764
ATOM      8  C   UNL d   1      39.524  46.136   4.680 -0.19 +0.02    +0.084    60.764
ATOM      9  C   UNL d   1      40.993  46.461   4.391 -0.20 +0.00    +0.058    60.764
ATOM     10  C   UNL d   1      45.352  46.527   3.619 -0.19 -0.02    +0.058    60.764
ATOM     11  C   UNL d   1      44.088  44.719   3.047 -0.08 -0.01    +0.193    60.764
ATOM     12  C   UNL d   1      43.314  45.784   3.761 -0.19 -0.01    +0.109    60.764
ATOM     13  C   UNL d   1      39.036  47.547   4.851 -0.18 +0.09    +0.193    60.764
ATOM     14  C   UNL d   1      45.863  45.319   1.444 -0.06 -0.00    +0.026    60.764
ATOM     15  C   UNL d   1      41.896  45.519   4.078 -0.24 +0.00    +0.055    60.764
ATOM     16  C   UNL d   1      39.357  45.393   6.008 -0.38 +0.00    +0.026    60.764
ATOM     17  C   UNL d   1      40.202  48.462   4.666 -0.20 +0.01    +0.109    60.764
ATOM     18  C   UNL d   1      46.411  47.321   3.864 -0.19 -0.02    +0.050    60.764
ATOM     19  C   UNL d   1      46.371  48.551   4.570 -0.15 -0.02    +0.045    60.764
ATOM     20  C   UNL d   1      41.070  50.736   4.817 -0.16 -0.01    +0.045    60.764
ATOM     21  C   UNL d   1      40.015  49.919   4.735 -0.24 +0.00    +0.057    60.764
ATOM     22  C   UNL d   1      42.289  52.664   4.932 -0.11 +0.00    -0.019    60.764
ATOM     23  C   UNL d   1      43.214  51.514   4.972 -0.12 -0.01    +0.045    60.764
ATOM     24  C   UNL d   1      41.021  52.197   4.842 -0.14 +0.00    -0.022    60.764
ATOM     25  C   UNL d   1      45.480  50.544   5.162 -0.08 -0.01    +0.049    60.764
ATOM     26  C   UNL d   1      47.306  49.190   5.370 -0.17 +0.01    -0.018    60.764
ATOM     27  C   UNL d   1      46.730  50.440   5.757 -0.14 -0.00    +0.003    60.764
ATOM     28  C   UNL d   1      44.548  51.614   5.080 -0.13 -0.01    +0.052    60.764
ATOM     29  C   UNL d   1      39.746  52.966   4.784 -0.14 +0.02    +0.046    60.764
ATOM     30  C   UNL d   1      48.651  48.674   5.754 -0.14 -0.03    +0.046    60.764
ATOM     31  H   UNL d   1      42.705  49.451   4.978 -0.30 -0.07    +0.166    60.764
ATOM     32  H   UNL d   1      44.445  49.141   3.934 -0.11 -0.06    +0.166    60.764
ATOM     33  C   UNL d   1      46.450  44.182   3.629 -0.14 -0.04    +0.141    60.764
ATOM     34  C   UNL d   1      47.897  44.408   3.280 -0.11 -0.12    +0.306    60.764
ATOM     35  O   UNL d   1      48.474  43.984   2.293 -0.05 +0.05    -0.251    60.764
ATOM     36  O   UNL d   1      48.539  45.158   4.193 -0.06 +0.42    -0.481    60.764
ATOM     37  H   UNL d   1      48.351  44.719   5.050 -0.43 -0.54    +0.295    60.764
ATOM     38  C   UNL d   1      47.369  51.424   6.577 -0.09 -0.00    +0.017    60.764
ATOM     39  C   UNL d   1      46.775  52.117   7.560 -0.07 -0.02    +0.092    60.764
ATOM     40  C   UNL d   1      47.548  53.087   8.340 +0.00 -0.04    +0.330    60.764
ATOM     41  O   UNL d   1      48.758  53.200   8.397 -0.00 +0.03    -0.246    60.764
ATOM     42  O   UNL d   1      46.722  53.896   9.021 +0.01 +0.06    -0.477    60.764
ATOM     43  H   UNL d   1      45.967  53.317   9.255 +0.04 -0.06    +0.295    60.764
ATOM     44  C   UNL d   1      38.769  45.428   3.550 -0.12 +0.06    +0.141    60.764
ATOM     45  C   UNL d   1      37.869  44.324   4.037 -0.14 +0.13    +0.306    60.764
ATOM     46  O   UNL d   1      38.179  43.159   4.216 -0.16 -0.05    -0.251    60.764
ATOM     47  O   UNL d   1      36.609  44.743   4.249 -0.40 -0.44    -0.481    60.764
ATOM     48  H   UNL d   1      36.228  44.084   4.867 -0.40 +0.09    +0.295    60.764
ATOM     49  C   UNL d   1      42.727  54.099   4.971 -0.05 -0.00    +0.048    60.764
ATOM     50  C   UNL d   1      43.811  54.335   6.022 -0.04 -0.01    +0.125    60.764
ATOM     51  C   UNL d   1      43.250  54.210   7.410 -0.06 -0.09    +0.305    60.764
ATOM     52  O   UNL d   1      42.147  54.552   7.798 -0.11 +0.07    -0.251    60.764
ATOM     53  O   UNL d   1      44.134  53.657   8.263 -0.05 +0.20    -0.481    60.764
ATOM     54  H   UNL d   1      44.668  54.417   8.578 +0.03 -0.07    +0.295    60.764
TER
ENDMDL
MODEL       26
USER    Run = 26
USER    Cluster Rank = 25
USER    Number of conformations in this cluster = 1
USER  
USER    RMSD from reference structure       = 53.150 A
USER  
USER    Estimated Free Energy of Binding    =   -4.13 kcal/mol  [=(1)+(2)+(3)-(4)]
USER    Estimated Inhibition Constant, Ki   =  942.77 uM (micromolar)  [Temperature = 298.15 K]
USER    
USER    (1) Final Intermolecular Energy     =   -8.01 kcal/mol
USER        vdW + Hbond + desolv Energy     =   -7.70 kcal/mol
USER        Electrostatic Energy            =   -0.31 kcal/mol
USER    (2) Final Total Internal Energy     =   -2.28 kcal/mol
USER    (3) Torsional Free Energy           =   +3.88 kcal/mol
USER    (4) Unbound System's Energy  [=(2)] =   -2.28 kcal/mol
USER    
USER    
USER  
USER    DPF = D:/Protein_go_brrr/autodock/final/6BB5/heme/dock.dpf
USER    NEWDPF move	heme_opt.pdbqt
USER    NEWDPF about	0.153000 0.018000 -0.028000
USER    NEWDPF tran0	46.570173 29.025151 17.267770
USER    NEWDPF axisangle0	-0.025101 -0.101305 0.994539 -132.272137
USER    NEWDPF quaternion0	-0.022955 -0.092644 0.909514 -0.404566
USER    NEWDPF dihe0	-90.55 5.55 -112.39 -173.46 53.86 -164.82 126.74 -99.64 143.58 -45.16 -45.30 -55.83 167.50 
USER  
USER                              x       y       z    vdW   Elec        q     RMS 
ATOM      1  O   UNL d   1      49.027  23.668  17.402 -0.57 -0.36    -0.289    53.150
ATOM      2  O   UNL d   1      52.085  30.472  16.536 -0.02 -0.04    -0.289    53.150
ATOM      3  N   UNL d   1      47.147  26.555  17.251 -0.06 -0.11    -0.247    53.150
ATOM      4  N   UNL d   1      49.198  28.705  17.210 -0.08 -0.07    -0.247    53.150
ATOM      5  N   UNL d   1      47.100  30.590  17.767 -0.06 -0.09    -0.354    53.150
ATOM      6  N   UNL d   1      44.982  28.352  17.828 -0.05 -0.13    -0.354    53.150
ATOM      7  C   UNL d   1      46.659  24.196  17.702 -0.13 +0.05    +0.084    53.150
ATOM      8  C   UNL d   1      51.400  28.131  16.320 -0.07 +0.02    +0.084    53.150
ATOM      9  C   UNL d   1      49.995  27.686  16.738 -0.12 +0.02    +0.058    53.150
ATOM     10  C   UNL d   1      46.159  25.637  17.563 -0.16 +0.03    +0.058    53.150
ATOM     11  C   UNL d   1      48.103  24.460  17.395 -0.13 +0.15    +0.193    53.150
ATOM     12  C   UNL d   1      48.266  25.922  17.115 -0.11 +0.06    +0.109    53.150
ATOM     13  C   UNL d   1      51.266  29.585  16.678 -0.04 +0.04    +0.193    53.150
ATOM     14  C   UNL d   1      46.544  23.684  19.140 -0.10 +0.01    +0.026    53.150
ATOM     15  C   UNL d   1      49.597  26.405  16.695 -0.16 +0.03    +0.055    53.150
ATOM     16  C   UNL d   1      51.607  28.014  14.807 -0.15 +0.01    +0.026    53.150
ATOM     17  C   UNL d   1      49.887  29.800  17.213 -0.08 +0.02    +0.109    53.150
ATOM     18  C   UNL d   1      44.849  25.938  17.652 -0.22 +0.02    +0.050    53.150
ATOM     19  C   UNL d   1      44.286  27.224  17.454 -0.22 +0.02    +0.045    53.150
ATOM     20  C   UNL d   1      48.194  31.398  17.937 -0.11 +0.01    +0.045    53.150
ATOM     21  C   UNL d   1      49.480  31.131  17.689 -0.09 +0.01    +0.057    53.150
ATOM     22  C   UNL d   1      46.324  32.545  18.574 -0.16 -0.00    -0.019    53.150
ATOM     23  C   UNL d   1      45.925  31.195  18.126 -0.17 +0.01    +0.045    53.150
ATOM     24  C   UNL d   1      47.668  32.659  18.459 -0.11 -0.00    -0.022    53.150
ATOM     25  C   UNL d   1      44.217  29.478  17.632 -0.25 +0.01    +0.049    53.150
ATOM     26  C   UNL d   1      43.052  27.630  16.970 -0.25 -0.00    -0.018    53.150
ATOM     27  C   UNL d   1      43.022  29.056  17.066 -0.29 +0.00    +0.003    53.150
ATOM     28  C   UNL d   1      44.660  30.749  18.088 -0.27 +0.02    +0.052    53.150
ATOM     29  C   UNL d   1      48.535  33.830  18.774 -0.07 +0.01    +0.046    53.150
ATOM     30  C   UNL d   1      41.968  26.750  16.447 -0.35 +0.01    +0.046    53.150
ATOM     31  H   UNL d   1      47.184  29.674  17.341 +0.05 +0.05    +0.166    53.150
ATOM     32  H   UNL d   1      45.912  28.329  18.228 +0.05 +0.07    +0.166    53.150
ATOM     33  C   UNL d   1      46.071  23.196  16.700 -0.19 +0.10    +0.141    53.150
ATOM     34  C   UNL d   1      46.388  21.768  17.053 -0.12 +0.25    +0.306    53.150
ATOM     35  O   UNL d   1      45.602  20.942  17.485 -0.13 -0.12    -0.251    53.150
ATOM     36  O   UNL d   1      47.679  21.456  16.841 -0.05 -0.82    -0.481    53.150
ATOM     37  H   UNL d   1      48.134  21.712  17.671 +0.05 +0.40    +0.295    53.150
ATOM     38  C   UNL d   1      41.919  29.885  16.684 -0.38 +0.00    +0.017    53.150
ATOM     39  C   UNL d   1      41.723  31.149  17.090 -0.42 +0.02    +0.092    53.150
ATOM     40  C   UNL d   1      40.558  31.898  16.611 -0.24 +0.05    +0.330    53.150
ATOM     41  O   UNL d   1      40.355  33.093  16.701 -0.37 -0.03    -0.246    53.150
ATOM     42  O   UNL d   1      39.688  31.067  16.016 -0.17 -0.08    -0.477    53.150
ATOM     43  H   UNL d   1      39.001  31.665  15.656 +0.18 +0.04    +0.295    53.150
ATOM     44  C   UNL d   1      52.555  27.482  17.090 -0.03 +0.03    +0.141    53.150
ATOM     45  C   UNL d   1      53.033  28.308  18.254 -0.00 +0.06    +0.306    53.150
ATOM     46  O   UNL d   1      52.540  28.347  19.368 -0.00 -0.05    -0.251    53.150
ATOM     47  O   UNL d   1      54.098  29.068  17.943 +0.00 -0.07    -0.481    53.150
ATOM     48  H   UNL d   1      53.757  29.721  17.295 +0.01 +0.04    +0.295    53.150
ATOM     49  C   UNL d   1      45.365  33.581  19.081 -0.27 +0.01    +0.048    53.150
ATOM     50  C   UNL d   1      45.059  33.394  20.567 -0.21 +0.03    +0.125    53.150
ATOM     51  C   UNL d   1      45.097  34.709  21.293 -0.19 +0.01    +0.305    53.150
ATOM     52  O   UNL d   1      45.962  35.115  22.049 -0.12 -0.01    -0.251    53.150
ATOM     53  O   UNL d   1      44.010  35.461  21.032 -0.18 +0.07    -0.481    53.150
ATOM     54  H   UNL d   1      43.436  34.872  20.498 -0.27 -0.09    +0.295    53.150
TER
ENDMDL
MODEL       27
USER    Run = 27
USER    Cluster Rank = 26
USER    Number of conformations in this cluster = 1
USER  
USER    RMSD from reference structure       = 46.690 A
USER  
USER    Estimated Free Energy of Binding    =   -4.12 kcal/mol  [=(1)+(2)+(3)-(4)]
USER    Estimated Inhibition Constant, Ki   =  955.68 uM (micromolar)  [Temperature = 298.15 K]
USER    
USER    (1) Final Intermolecular Energy     =   -8.00 kcal/mol
USER        vdW + Hbond + desolv Energy     =   -7.27 kcal/mol
USER        Electrostatic Energy            =   -0.72 kcal/mol
USER    (2) Final Total Internal Energy     =   -3.77 kcal/mol
USER    (3) Torsional Free Energy           =   +3.88 kcal/mol
USER    (4) Unbound System's Energy  [=(2)] =   -3.77 kcal/mol
USER    
USER    
USER  
USER    DPF = D:/Protein_go_brrr/autodock/final/6BB5/heme/dock.dpf
USER    NEWDPF move	heme_opt.pdbqt
USER    NEWDPF about	0.153000 0.018000 -0.028000
USER    NEWDPF tran0	16.126854 37.424003 29.128064
USER    NEWDPF axisangle0	0.938632 0.308634 0.154000 -123.561794
USER    NEWDPF quaternion0	0.827071 0.271951 0.135696 -0.472845
USER    NEWDPF dihe0	-105.20 161.43 174.37 -96.90 33.46 59.20 127.63 -41.05 129.05 134.06 -62.25 -105.63 31.24 
USER  
USER                              x       y       z    vdW   Elec        q     RMS 
ATOM      1  O   UNL d   1      12.408  33.037  30.423 -0.13 +0.07    -0.289    46.690
ATOM      2  O   UNL d   1      11.642  38.969  25.882 -0.12 +0.09    -0.289    46.690
ATOM      3  N   UNL d   1      14.844  35.454  30.080 -0.12 +0.04    -0.247    46.690
ATOM      4  N   UNL d   1      13.794  37.178  27.899 -0.16 +0.09    -0.247    46.690
ATOM      5  N   UNL d   1      16.403  38.370  27.711 -0.13 +0.04    -0.354    46.690
ATOM      6  N   UNL d   1      17.490  36.564  29.961 -0.07 -0.04    -0.354    46.690
ATOM      7  C   UNL d   1      14.695  33.301  31.242 -0.12 -0.00    +0.084    46.690
ATOM      8  C   UNL d   1      11.371  37.233  27.587 -0.14 -0.03    +0.084    46.690
ATOM      9  C   UNL d   1      12.591  36.639  28.299 -0.16 -0.03    +0.058    46.690
ATOM     10  C   UNL d   1      15.516  34.541  30.876 -0.18 -0.00    +0.058    46.690
ATOM     11  C   UNL d   1      13.434  33.683  30.528 -0.11 -0.05    +0.193    46.690
ATOM     12  C   UNL d   1      13.642  35.019  29.884 -0.15 -0.04    +0.109    46.690
ATOM     13  C   UNL d   1      12.107  38.182  26.683 -0.15 -0.06    +0.193    46.690
ATOM     14  C   UNL d   1      15.260  32.029  30.605 -0.23 -0.00    +0.026    46.690
ATOM     15  C   UNL d   1      12.496  35.645  29.195 -0.14 -0.03    +0.055    46.690
ATOM     16  C   UNL d   1      10.495  38.046  28.545 -0.05 -0.00    +0.026    46.690
ATOM     17  C   UNL d   1      13.568  38.045  26.966 -0.22 -0.04    +0.109    46.690
ATOM     18  C   UNL d   1      16.750  34.741  31.376 -0.21 +0.01    +0.050    46.690
ATOM     19  C   UNL d   1      17.548  35.893  31.161 -0.11 +0.01    +0.045    46.690
ATOM     20  C   UNL d   1      15.819  38.904  26.592 -0.28 -0.01    +0.045    46.690
ATOM     21  C   UNL d   1      14.545  38.827  26.194 -0.23 -0.02    +0.057    46.690
ATOM     22  C   UNL d   1      18.036  39.456  26.602 -0.26 +0.00    -0.019    46.690
ATOM     23  C   UNL d   1      17.741  38.650  27.804 -0.22 +0.00    +0.045    46.690
ATOM     24  C   UNL d   1      16.894  39.604  25.890 -0.31 +0.00    -0.022    46.690
ATOM     25  C   UNL d   1      18.407  37.590  29.935 -0.17 +0.01    +0.049    46.690
ATOM     26  C   UNL d   1      18.500  36.521  31.950 -0.09 -0.00    -0.018    46.690
ATOM     27  C   UNL d   1      19.025  37.603  31.178 -0.14 +0.00    +0.003    46.690
ATOM     28  C   UNL d   1      18.643  38.328  28.744 -0.25 +0.00    +0.052    46.690
ATOM     29  C   UNL d   1      16.681  40.343  24.613 -0.47 -0.01    +0.046    46.690
ATOM     30  C   UNL d   1      18.898  36.141  33.336 -0.09 +0.01    +0.046    46.690
ATOM     31  H   UNL d   1      15.852  37.893  28.416 +0.06 -0.02    +0.166    46.690
ATOM     32  H   UNL d   1      16.879  36.297  29.198 +0.04 +0.01    +0.166    46.690
ATOM     33  C   UNL d   1      14.428  33.109  32.739 -0.03 +0.00    +0.141    46.690
ATOM     34  C   UNL d   1      13.552  31.919  33.023 +0.00 +0.01    +0.306    46.690
ATOM     35  O   UNL d   1      13.929  30.771  33.189 -0.00 -0.01    -0.251    46.690
ATOM     36  O   UNL d   1      12.248  32.238  33.086 +0.01 -0.02    -0.481    46.690
ATOM     37  H   UNL d   1      11.993  32.421  32.156 +0.03 +0.01    +0.295    46.690
ATOM     38  C   UNL d   1      20.048  38.505  31.612 -0.09 +0.00    +0.017    46.690
ATOM     39  C   UNL d   1      21.293  38.561  31.115 -0.10 +0.00    +0.092    46.690
ATOM     40  C   UNL d   1      22.244  39.546  31.636 -0.00 -0.01    +0.330    46.690
ATOM     41  O   UNL d   1      22.609  39.691  32.787 -0.01 +0.00    -0.246    46.690
ATOM     42  O   UNL d   1      22.705  40.316  30.638 +0.02 +0.04    -0.477    46.690
ATOM     43  H   UNL d   1      22.504  39.799  29.831 +0.10 -0.03    +0.295    46.690
ATOM     44  C   UNL d   1      10.532  36.241  26.775 -0.26 -0.06    +0.141    46.690
ATOM     45  C   UNL d   1       9.518  35.500  27.605 -0.17 -0.00    +0.306    46.690
ATOM     46  O   UNL d   1       8.409  35.895  27.920 -0.14 -0.05    -0.251    46.690
ATOM     47  O   UNL d   1       9.970  34.304  28.023 -0.03 -0.15    -0.481    46.690
ATOM     48  H   UNL d   1      10.832  34.192  27.569 -0.41 -0.50    +0.295    46.690
ATOM     49  C   UNL d   1      19.396  39.989  26.258 -0.36 -0.01    +0.048    46.690
ATOM     50  C   UNL d   1      20.013  40.765  27.422 -0.21 -0.01    +0.125    46.690
ATOM     51  C   UNL d   1      21.290  40.119  27.879 -0.23 -0.05    +0.305    46.690
ATOM     52  O   UNL d   1      21.485  38.938  28.108 -0.26 +0.05    -0.251    46.690
ATOM     53  O   UNL d   1      22.281  41.019  28.042 -0.12 +0.11    -0.481    46.690
ATOM     54  H   UNL d   1      22.121  41.390  28.935 +0.10 -0.05    +0.295    46.690
TER
ENDMDL
MODEL       64
USER    Run = 64
USER    Cluster Rank = 27
USER    Number of conformations in this cluster = 1
USER  
USER    RMSD from reference structure       = 23.529 A
USER  
USER    Estimated Free Energy of Binding    =   -4.02 kcal/mol  [=(1)+(2)+(3)-(4)]
USER    Estimated Inhibition Constant, Ki   =    1.13 mM (millimolar)  [Temperature = 298.15 K]
USER    
USER    (1) Final Intermolecular Energy     =   -7.90 kcal/mol
USER        vdW + Hbond + desolv Energy     =   -7.34 kcal/mol
USER        Electrostatic Energy            =   -0.56 kcal/mol
USER    (2) Final Total Internal Energy     =   -1.51 kcal/mol
USER    (3) Torsional Free Energy           =   +3.88 kcal/mol
USER    (4) Unbound System's Energy  [=(2)] =   -1.51 kcal/mol
USER    
USER    
USER  
USER    DPF = D:/Protein_go_brrr/autodock/final/6BB5/heme/dock.dpf
USER    NEWDPF move	heme_opt.pdbqt
USER    NEWDPF about	0.153000 0.018000 -0.028000
USER    NEWDPF tran0	12.658608 20.702537 -12.265851
USER    NEWDPF axisangle0	-0.109310 -0.318572 -0.941575 -68.858757
USER    NEWDPF quaternion0	-0.061803 -0.180118 -0.532357 -0.824824
USER    NEWDPF dihe0	-79.43 168.90 -96.69 -22.49 -134.68 -77.46 -176.41 86.27 -153.26 9.78 119.71 -14.11 179.97 
USER  
USER                              x       y       z    vdW   Elec        q     RMS 
ATOM      1  O   UNL d   1      11.963  26.414 -13.550 -0.24 +0.14    -0.289    23.529
ATOM      2  O   UNL d   1       7.682  20.451 -15.130 +0.00 -0.01    -0.289    23.529
ATOM      3  N   UNL d   1      12.857  23.194 -12.696 -0.09 +0.16    -0.247    23.529
ATOM      4  N   UNL d   1      10.461  21.601 -13.438 -0.06 +0.05    -0.247    23.529
ATOM      5  N   UNL d   1      11.558  19.417 -11.924 -0.03 +0.03    -0.354    23.529
ATOM      6  N   UNL d   1      14.031  21.084 -11.143 +0.10 +0.27    -0.354    23.529
ATOM      7  C   UNL d   1      13.780  25.421 -12.251 -0.28 -0.05    +0.084    23.529
ATOM      8  C   UNL d   1       9.028  22.494 -15.205 -0.02 -0.01    +0.084    23.529
ATOM      9  C   UNL d   1      10.229  22.673 -14.271 -0.09 -0.02    +0.058    23.529
ATOM     10  C   UNL d   1      13.866  23.903 -12.066 -0.22 -0.04    +0.058    23.529
ATOM     11  C   UNL d   1      12.554  25.443 -13.113 -0.15 -0.13    +0.193    23.529
ATOM     12  C   UNL d   1      12.104  24.032 -13.332 -0.09 -0.08    +0.109    23.529
ATOM     13  C   UNL d   1       8.598  21.137 -14.722 -0.01 -0.00    +0.193    23.529
ATOM     14  C   UNL d   1      13.475  26.143 -10.937 -0.38 -0.02    +0.026    23.529
ATOM     15  C   UNL d   1      10.958  23.799 -14.234 -0.13 -0.02    +0.055    23.529
ATOM     16  C   UNL d   1       9.460  22.381 -16.670 -0.00 -0.00    +0.026    23.529
ATOM     17  C   UNL d   1       9.544  20.712 -13.646 -0.06 +0.01    +0.109    23.529
ATOM     18  C   UNL d   1      14.898  23.331 -11.417 -0.29 -0.03    +0.050    23.529
ATOM     19  C   UNL d   1      15.105  21.936 -11.270 -0.19 -0.03    +0.045    23.529
ATOM     20  C   UNL d   1      10.303  18.926 -12.170 -0.07 +0.01    +0.045    23.529
ATOM     21  C   UNL d   1       9.343  19.432 -12.951 -0.07 +0.02    +0.057    23.529
ATOM     22  C   UNL d   1      11.379  17.515 -10.731 -0.08 +0.00    -0.019    23.529
ATOM     23  C   UNL d   1      12.283  18.634 -11.066 -0.13 -0.02    +0.045    23.529
ATOM     24  C   UNL d   1      10.209  17.693 -11.389 -0.06 -0.00    -0.022    23.529
ATOM     25  C   UNL d   1      14.460  19.795 -10.921 -0.21 -0.04    +0.049    23.529
ATOM     26  C   UNL d   1      16.260  21.177 -11.165 -0.22 +0.01    -0.018    23.529
ATOM     27  C   UNL d   1      15.847  19.824 -10.965 -0.24 -0.00    +0.003    23.529
ATOM     28  C   UNL d   1      13.536  18.764 -10.603 -0.18 -0.05    +0.052    23.529
ATOM     29  C   UNL d   1       8.994  16.828 -11.383 -0.04 +0.01    +0.046    23.529
ATOM     30  C   UNL d   1      17.663  21.675 -11.248 -0.17 -0.02    +0.046    23.529
ATOM     31  H   UNL d   1      11.907  20.236 -12.410 +0.04 -0.04    +0.166    23.529
ATOM     32  H   UNL d   1      13.066  21.390 -11.170 -0.27 -0.13    +0.166    23.529
ATOM     33  C   UNL d   1      14.964  26.061 -12.984 -0.17 -0.04    +0.141    23.529
ATOM     34  C   UNL d   1      15.878  26.817 -12.057 -0.15 -0.07    +0.306    23.529
ATOM     35  O   UNL d   1      15.698  27.944 -11.629 -0.69 +0.03    -0.251    23.529
ATOM     36  O   UNL d   1      16.971  26.110 -11.717 -0.04 +0.10    -0.481    23.529
ATOM     37  H   UNL d   1      17.672  26.435 -12.321 +0.08 -0.05    +0.295    23.529
ATOM     38  C   UNL d   1      16.729  18.709 -10.791 -0.06 -0.02    +0.017    23.529
ATOM     39  C   UNL d   1      16.411  17.426 -11.025 -0.09 -0.09    +0.092    23.529
ATOM     40  C   UNL d   1      17.414  16.377 -10.824 -0.06 -0.26    +0.330    23.529
ATOM     41  O   UNL d   1      18.320  16.061 -11.571 -0.02 +0.10    -0.246    23.529
ATOM     42  O   UNL d   1      17.216  15.770  -9.644 -0.07 +0.61    -0.477    23.529
ATOM     43  H   UNL d   1      16.563  16.342  -9.192 -0.20 -0.76    +0.295    23.529
ATOM     44  C   UNL d   1       7.902  23.519 -15.036 -0.04 -0.02    +0.141    23.529
ATOM     45  C   UNL d   1       7.626  23.868 -13.598 -0.07 -0.13    +0.306    23.529
ATOM     46  O   UNL d   1       7.382  24.976 -13.153 -0.05 +0.13    -0.251    23.529
ATOM     47  O   UNL d   1       7.702  22.799 -12.785 -0.16 +0.18    -0.481    23.529
ATOM     48  H   UNL d   1       8.659  22.696 -12.598 -0.01 -0.18    +0.295    23.529
ATOM     49  C   UNL d   1      11.734  16.395  -9.798 -0.09 -0.01    +0.048    23.529
ATOM     50  C   UNL d   1      11.210  16.646  -8.384 -0.18 -0.02    +0.125    23.529
ATOM     51  C   UNL d   1      11.777  17.917  -7.819 -0.29 -0.15    +0.305    23.529
ATOM     52  O   UNL d   1      11.409  19.057  -8.039 -0.40 +0.05    -0.251    23.529
ATOM     53  O   UNL d   1      12.815  17.682  -6.991 -0.26 +0.56    -0.481    23.529
ATOM     54  H   UNL d   1      13.316  18.524  -6.993 -0.40 -0.52    +0.295    23.529
TER
ENDMDL
MODEL       34
USER    Run = 34
USER    Cluster Rank = 28
USER    Number of conformations in this cluster = 4
USER  
USER    RMSD from reference structure       = 51.170 A
USER  
USER    Estimated Free Energy of Binding    =   -4.00 kcal/mol  [=(1)+(2)+(3)-(4)]
USER    Estimated Inhibition Constant, Ki   =    1.17 mM (millimolar)  [Temperature = 298.15 K]
USER    
USER    (1) Final Intermolecular Energy     =   -7.88 kcal/mol
USER        vdW + Hbond + desolv Energy     =   -7.24 kcal/mol
USER        Electrostatic Energy            =   -0.64 kcal/mol
USER    (2) Final Total Internal Energy     =   -2.15 kcal/mol
USER    (3) Torsional Free Energy           =   +3.88 kcal/mol
USER    (4) Unbound System's Energy  [=(2)] =   -2.15 kcal/mol
USER    
USER    
USER  
USER    DPF = D:/Protein_go_brrr/autodock/final/6BB5/heme/dock.dpf
USER    NEWDPF move	heme_opt.pdbqt
USER    NEWDPF about	0.153000 0.018000 -0.028000
USER    NEWDPF tran0	44.962993 21.665044 23.191595
USER    NEWDPF axisangle0	-0.528836 0.064631 -0.846259 -154.227235
USER    NEWDPF quaternion0	-0.515517 0.063003 -0.824946 -0.223018
USER    NEWDPF dihe0	93.23 -174.23 79.51 89.27 -138.87 109.57 111.78 100.28 29.04 0.08 135.51 -55.84 -180.00 
USER  
USER                              x       y       z    vdW   Elec        q     RMS 
ATOM      1  O   UNL d   1      48.115  22.668  18.311 -0.13 -0.26    -0.289    51.170
ATOM      2  O   UNL d   1      43.088  26.942  21.897 -0.89 -0.52    -0.289    51.170
ATOM      3  N   UNL d   1      46.396  21.589  21.101 -0.10 -0.08    -0.247    51.170
ATOM      4  N   UNL d   1      44.910  24.012  21.967 -0.14 -0.16    -0.247    51.170
ATOM      5  N   UNL d   1      44.375  22.680  24.458 -0.09 -0.14    -0.354    51.170
ATOM      6  N   UNL d   1      45.935  20.178  23.559 -0.04 -0.07    -0.354    51.170
ATOM      7  C   UNL d   1      48.215  20.681  19.731 -0.04 +0.04    +0.084    51.170
ATOM      8  C   UNL d   1      44.381  25.671  20.252 -0.21 +0.06    +0.084    51.170
ATOM      9  C   UNL d   1      45.089  24.372  20.650 -0.16 +0.03    +0.058    51.170
ATOM     10  C   UNL d   1      47.274  20.532  20.930 -0.09 +0.02    +0.058    51.170
ATOM     11  C   UNL d   1      47.702  22.002  19.243 -0.04 +0.11    +0.193    51.170
ATOM     12  C   UNL d   1      46.585  22.436  20.141 -0.08 +0.05    +0.109    51.170
ATOM     13  C   UNL d   1      43.798  26.002  21.597 -0.11 +0.24    +0.193    51.170
ATOM     14  C   UNL d   1      49.674  20.846  20.164 -0.01 +0.01    +0.026    51.170
ATOM     15  C   UNL d   1      45.858  23.675  19.799 -0.13 +0.03    +0.055    51.170
ATOM     16  C   UNL d   1      43.235  25.416  19.269 -0.32 +0.01    +0.026    51.170
ATOM     17  C   UNL d   1      44.198  24.923  22.550 -0.18 +0.11    +0.109    51.170
ATOM     18  C   UNL d   1      47.263  19.414  21.680 -0.11 +0.01    +0.050    51.170
ATOM     19  C   UNL d   1      46.373  19.152  22.753 -0.08 +0.01    +0.045    51.170
ATOM     20  C   UNL d   1      43.938  23.942  24.767 -0.23 +0.03    +0.045    51.170
ATOM     21  C   UNL d   1      43.804  25.003  23.964 -0.28 +0.06    +0.057    51.170
ATOM     22  C   UNL d   1      43.894  22.662  26.658 -0.17 -0.01    -0.019    51.170
ATOM     23  C   UNL d   1      44.383  21.836  25.536 -0.19 +0.01    +0.045    51.170
ATOM     24  C   UNL d   1      43.631  23.907  26.196 -0.22 -0.01    -0.022    51.170
ATOM     25  C   UNL d   1      45.158  19.690  24.584 -0.18 +0.01    +0.049    51.170
ATOM     26  C   UNL d   1      45.837  17.971  23.245 -0.11 -0.00    -0.018    51.170
ATOM     27  C   UNL d   1      45.055  18.320  24.389 -0.18 +0.00    +0.003    51.170
ATOM     28  C   UNL d   1      44.720  20.541  25.635 -0.20 +0.01    +0.052    51.170
ATOM     29  C   UNL d   1      43.109  25.088  26.942 -0.30 +0.02    +0.046    51.170
ATOM     30  C   UNL d   1      46.036  16.603  22.686 -0.12 +0.01    +0.046    51.170
ATOM     31  H   UNL d   1      44.583  22.415  23.501 +0.05 +0.06    +0.166    51.170
ATOM     32  H   UNL d   1      46.195  21.148  23.422 +0.04 +0.04    +0.166    51.170
ATOM     33  C   UNL d   1      48.068  19.612  18.643 -0.06 +0.08    +0.141    51.170
ATOM     34  C   UNL d   1      46.860  19.833  17.773 -0.08 +0.19    +0.306    51.170
ATOM     35  O   UNL d   1      45.722  19.468  18.014 -0.15 -0.09    -0.251    51.170
ATOM     36  O   UNL d   1      47.150  20.507  16.646 -0.03 -0.56    -0.481    51.170
ATOM     37  H   UNL d   1      47.043  21.451  16.888 +0.07 +0.35    +0.295    51.170
ATOM     38  C   UNL d   1      44.336  17.393  25.210 -0.21 +0.00    +0.017    51.170
ATOM     39  C   UNL d   1      43.911  17.634  26.460 -0.18 +0.00    +0.092    51.170
ATOM     40  C   UNL d   1      43.168  16.604  27.190 -0.08 +0.00    +0.330    51.170
ATOM     41  O   UNL d   1      43.557  15.925  28.121 -0.03 -0.01    -0.246    51.170
ATOM     42  O   UNL d   1      41.927  16.489  26.691 -0.15 +0.04    -0.477    51.170
ATOM     43  H   UNL d   1      41.931  17.083  25.913 -0.32 -0.10    +0.295    51.170
ATOM     44  C   UNL d   1      45.296  26.797  19.759 -0.15 +0.10    +0.141    51.170
ATOM     45  C   UNL d   1      46.462  27.060  20.674 -0.06 +0.30    +0.306    51.170
ATOM     46  O   UNL d   1      47.403  26.314  20.885 -0.05 -0.18    -0.251    51.170
ATOM     47  O   UNL d   1      46.368  28.246  21.301 -0.59 -0.78    -0.481    51.170
ATOM     48  H   UNL d   1      46.970  28.839  20.802 +0.05 +0.27    +0.295    51.170
ATOM     49  C   UNL d   1      43.745  22.166  28.067 -0.13 +0.02    +0.048    51.170
ATOM     50  C   UNL d   1      44.957  22.524  28.927 -0.06 +0.03    +0.125    51.170
ATOM     51  C   UNL d   1      46.237  22.271  28.182 -0.00 +0.07    +0.305    51.170
ATOM     52  O   UNL d   1      46.884  23.067  27.525 -0.00 -0.06    -0.251    51.170
ATOM     53  O   UNL d   1      46.642  20.990  28.296 +0.01 -0.08    -0.481    51.170
ATOM     54  H   UNL d   1      47.226  20.995  29.083 +0.01 +0.04    +0.295    51.170
TER
ENDMDL
MODEL       82
USER    Run = 82
USER    Cluster Rank = 29
USER    Number of conformations in this cluster = 1
USER  
USER    RMSD from reference structure       = 51.556 A
USER  
USER    Estimated Free Energy of Binding    =   -3.98 kcal/mol  [=(1)+(2)+(3)-(4)]
USER    Estimated Inhibition Constant, Ki   =    1.21 mM (millimolar)  [Temperature = 298.15 K]
USER    
USER    (1) Final Intermolecular Energy     =   -7.86 kcal/mol
USER        vdW + Hbond + desolv Energy     =   -7.37 kcal/mol
USER        Electrostatic Energy            =   -0.49 kcal/mol
USER    (2) Final Total Internal Energy     =   -2.38 kcal/mol
USER    (3) Torsional Free Energy           =   +3.88 kcal/mol
USER    (4) Unbound System's Energy  [=(2)] =   -2.38 kcal/mol
USER    
USER    
USER  
USER    DPF = D:/Protein_go_brrr/autodock/final/6BB5/heme/dock.dpf
USER    NEWDPF move	heme_opt.pdbqt
USER    NEWDPF about	0.153000 0.018000 -0.028000
USER    NEWDPF tran0	9.052714 54.814273 6.941479
USER    NEWDPF axisangle0	0.629358 0.700381 -0.336710 -109.614062
USER    NEWDPF quaternion0	0.514321 0.572363 -0.275165 -0.576332
USER    NEWDPF dihe0	-99.95 133.11 -179.87 -59.40 31.55 -74.25 144.87 -80.08 130.42 -8.90 -77.44 33.87 -179.14 
USER  
USER                              x       y       z    vdW   Elec        q     RMS 
ATOM      1  O   UNL d   1       9.742  53.242  12.581 -0.03 +0.05    -0.289    51.556
ATOM      2  O   UNL d   1       3.554  53.978   8.391 -0.04 +0.00    -0.289    51.556
ATOM      3  N   UNL d   1       9.819  54.335   9.311 -0.11 +0.05    -0.247    51.556
ATOM      4  N   UNL d   1       7.005  54.012   8.416 -0.09 +0.06    -0.247    51.556
ATOM      5  N   UNL d   1       7.919  54.379   5.715 -0.09 +0.07    -0.354    51.556
ATOM      6  N   UNL d   1      10.839  54.694   6.651 -0.14 +0.11    -0.354    51.556
ATOM      7  C   UNL d   1      11.517  53.761  10.983 -0.20 -0.03    +0.084    51.556
ATOM      8  C   UNL d   1       5.269  54.094  10.134 -0.04 -0.01    +0.084    51.556
ATOM      9  C   UNL d   1       6.757  54.080   9.769 -0.09 -0.01    +0.058    51.556
ATOM     10  C   UNL d   1      11.177  54.231   9.566 -0.22 -0.02    +0.058    51.556
ATOM     11  C   UNL d   1      10.112  53.636  11.490 -0.07 -0.04    +0.193    51.556
ATOM     12  C   UNL d   1       9.176  54.036  10.392 -0.10 -0.02    +0.109    51.556
ATOM     13  C   UNL d   1       4.718  53.985   8.740 -0.07 -0.01    +0.193    51.556
ATOM     14  C   UNL d   1      12.171  52.377  10.988 -0.33 -0.01    +0.026    51.556
ATOM     15  C   UNL d   1       7.731  54.081  10.692 -0.09 -0.01    +0.055    51.556
ATOM     16  C   UNL d   1       4.843  55.441  10.727 -0.01 -0.00    +0.026    51.556
ATOM     17  C   UNL d   1       5.873  53.936   7.793 -0.14 -0.02    +0.109    51.556
ATOM     18  C   UNL d   1      12.138  54.592   8.695 -0.15 -0.02    +0.050    51.556
ATOM     19  C   UNL d   1      11.916  55.117   7.396 -0.19 -0.01    +0.045    51.556
ATOM     20  C   UNL d   1       6.629  53.983   5.475 -0.20 -0.01    +0.045    51.556
ATOM     21  C   UNL d   1       5.637  53.784   6.349 -0.13 -0.01    +0.057    51.556
ATOM     22  C   UNL d   1       7.744  54.110   3.485 -0.22 +0.00    -0.019    51.556
ATOM     23  C   UNL d   1       8.669  54.483   4.574 -0.21 -0.01    +0.045    51.556
ATOM     24  C   UNL d   1       6.537  53.816   4.025 -0.15 +0.00    -0.022    51.556
ATOM     25  C   UNL d   1      10.867  55.259   5.397 -0.22 -0.02    +0.049    51.556
ATOM     26  C   UNL d   1      12.642  56.008   6.621 -0.24 +0.01    -0.018    51.556
ATOM     27  C   UNL d   1      11.964  56.109   5.367 -0.21 -0.00    +0.003    51.556
ATOM     28  C   UNL d   1       9.946  54.854   4.393 -0.28 -0.02    +0.052    51.556
ATOM     29  C   UNL d   1       5.283  53.399   3.335 -0.04 +0.00    +0.046    51.556
ATOM     30  C   UNL d   1      13.887  56.725   7.020 -0.25 -0.01    +0.046    51.556
ATOM     31  H   UNL d   1       8.225  54.638   6.647 +0.06 -0.04    +0.166    51.556
ATOM     32  H   UNL d   1      10.155  54.025   6.984 +0.07 -0.05    +0.166    51.556
ATOM     33  C   UNL d   1      12.309  54.759  11.834 -0.13 -0.07    +0.141    51.556
ATOM     34  C   UNL d   1      12.570  54.254  13.227 -0.05 -0.15    +0.306    51.556
ATOM     35  O   UNL d   1      13.499  53.544  13.574 -0.09 +0.17    -0.251    51.556
ATOM     36  O   UNL d   1      11.647  54.673  14.112 +0.01 +0.13    -0.481    51.556
ATOM     37  H   UNL d   1      10.869  54.098  13.947 +0.03 -0.07    +0.295    51.556
ATOM     38  C   UNL d   1      12.388  56.917   4.263 -0.18 -0.01    +0.017    51.556
ATOM     39  C   UNL d   1      11.772  58.030   3.837 -0.07 -0.06    +0.092    51.556
ATOM     40  C   UNL d   1      12.320  58.778   2.702 -0.02 -0.24    +0.330    51.556
ATOM     41  O   UNL d   1      13.286  59.517   2.695 -0.03 +0.11    -0.246    51.556
ATOM     42  O   UNL d   1      11.597  58.536   1.598 -0.03 +0.45    -0.477    51.556
ATOM     43  H   UNL d   1      11.498  57.561   1.591 -0.44 -0.65    +0.295    51.556
ATOM     44  C   UNL d   1       4.791  52.928  11.006 -0.04 -0.00    +0.141    51.556
ATOM     45  C   UNL d   1       5.031  51.581  10.379 -0.08 -0.01    +0.306    51.556
ATOM     46  O   UNL d   1       5.937  50.808  10.641 -0.13 +0.01    -0.251    51.556
ATOM     47  O   UNL d   1       4.126  51.286   9.428 -0.06 -0.01    -0.481    51.556
ATOM     48  H   UNL d   1       3.524  52.061   9.411 +0.06 +0.01    +0.295    51.556
ATOM     49  C   UNL d   1       8.125  54.062   2.035 -0.26 -0.01    +0.048    51.556
ATOM     50  C   UNL d   1       8.476  52.643   1.586 -0.20 -0.00    +0.125    51.556
ATOM     51  C   UNL d   1       7.353  52.039   0.792 -0.23 +0.02    +0.305    51.556
ATOM     52  O   UNL d   1       6.380  51.440   1.218 -0.34 -0.02    -0.251    51.556
ATOM     53  O   UNL d   1       7.522  52.212  -0.534 -0.48 -0.08    -0.481    51.556
ATOM     54  H   UNL d   1       7.553  51.300  -0.891 -0.37 +0.01    +0.295    51.556
TER
ENDMDL
MODEL       80
USER    Run = 80
USER    Cluster Rank = 30
USER    Number of conformations in this cluster = 1
USER  
USER    RMSD from reference structure       = 42.370 A
USER  
USER    Estimated Free Energy of Binding    =   -3.92 kcal/mol  [=(1)+(2)+(3)-(4)]
USER    Estimated Inhibition Constant, Ki   =    1.34 mM (millimolar)  [Temperature = 298.15 K]
USER    
USER    (1) Final Intermolecular Energy     =   -7.80 kcal/mol
USER        vdW + Hbond + desolv Energy     =   -7.40 kcal/mol
USER        Electrostatic Energy            =   -0.40 kcal/mol
USER    (2) Final Total Internal Energy     =   -2.09 kcal/mol
USER    (3) Torsional Free Energy           =   +3.88 kcal/mol
USER    (4) Unbound System's Energy  [=(2)] =   -2.09 kcal/mol
USER    
USER    
USER  
USER    DPF = D:/Protein_go_brrr/autodock/final/6BB5/heme/dock.dpf
USER    NEWDPF move	heme_opt.pdbqt
USER    NEWDPF about	0.153000 0.018000 -0.028000
USER    NEWDPF tran0	38.887865 13.485111 21.988176
USER    NEWDPF axisangle0	0.986034 -0.166542 -0.001207 -58.885916
USER    NEWDPF quaternion0	0.484692 -0.081865 -0.000593 -0.870846
USER    NEWDPF dihe0	-147.18 30.93 -145.20 160.72 -139.81 -70.68 129.81 93.93 116.05 -13.25 -179.90 -12.39 -3.87 
USER  
USER                              x       y       z    vdW   Elec        q     RMS 
ATOM      1  O   UNL d   1      33.127  14.285  22.952 -0.04 -0.02    -0.289    42.370
ATOM      2  O   UNL d   1      36.872  12.462  16.704 -0.09 -0.04    -0.289    42.370
ATOM      3  N   UNL d   1      36.566  14.057  22.835 -0.14 +0.07    -0.247    42.370
ATOM      4  N   UNL d   1      37.089  13.010  20.104 -0.13 +0.01    -0.247    42.370
ATOM      5  N   UNL d   1      39.786  12.457  20.932 -0.04 +0.04    -0.354    42.370
ATOM      6  N   UNL d   1      39.230  13.527  23.769 -0.03 +0.09    -0.354    42.370
ATOM      7  C   UNL d   1      34.917  14.414  24.612 -0.17 -0.02    +0.084    42.370
ATOM      8  C   UNL d   1      35.415  13.481  18.387 -0.17 +0.01    +0.084    42.370
ATOM      9  C   UNL d   1      35.846  13.547  19.856 -0.19 +0.00    +0.058    42.370
ATOM     10  C   UNL d   1      36.381  14.258  24.193 -0.20 -0.02    +0.058    42.370
ATOM     11  C   UNL d   1      34.308  14.286  23.248 -0.08 -0.02    +0.193    42.370
ATOM     12  C   UNL d   1      35.412  14.099  22.254 -0.15 -0.01    +0.109    42.370
ATOM     13  C   UNL d   1      36.628  12.772  17.854 -0.11 +0.02    +0.193    42.370
ATOM     14  C   UNL d   1      34.439  13.247  25.480 -0.07 -0.01    +0.026    42.370
ATOM     15  C   UNL d   1      35.056  14.041  20.822 -0.20 +0.00    +0.055    42.370
ATOM     16  C   UNL d   1      35.340  14.873  17.753 -0.45 +0.00    +0.026    42.370
ATOM     17  C   UNL d   1      37.563  12.538  18.996 -0.05 +0.01    +0.109    42.370
ATOM     18  C   UNL d   1      37.385  14.399  25.078 -0.26 -0.02    +0.050    42.370
ATOM     19  C   UNL d   1      38.768  14.354  24.768 -0.27 -0.01    +0.045    42.370
ATOM     20  C   UNL d   1      39.775  11.814  19.722 -0.15 +0.00    +0.045    42.370
ATOM     21  C   UNL d   1      38.827  11.818  18.780 -0.12 +0.01    +0.057    42.370
ATOM     22  C   UNL d   1      41.738  11.341  20.791 -0.10 -0.00    -0.019    42.370
ATOM     23  C   UNL d   1      40.930  12.230  21.650 -0.15 -0.00    +0.045    42.370
ATOM     24  C   UNL d   1      41.049  11.100  19.650 -0.10 -0.00    -0.022    42.370
ATOM     25  C   UNL d   1      40.603  13.573  23.699 -0.16 -0.01    +0.049    42.370
ATOM     26  C   UNL d   1      39.866  14.982  25.337 -0.30 +0.00    -0.018    42.370
ATOM     27  C   UNL d   1      41.020  14.500  24.645 -0.23 -0.00    +0.003    42.370
ATOM     28  C   UNL d   1      41.320  12.688  22.850 -0.18 -0.00    +0.052    42.370
ATOM     29  C   UNL d   1      41.450  10.273  18.476 -0.05 +0.00    +0.046    42.370
ATOM     30  C   UNL d   1      39.846  15.970  26.453 -0.35 -0.01    +0.046    42.370
ATOM     31  H   UNL d   1      39.040  13.091  21.198 -0.39 -0.08    +0.166    42.370
ATOM     32  H   UNL d   1      38.627  12.942  23.203 -0.06 -0.04    +0.166    42.370
ATOM     33  C   UNL d   1      34.554  15.765  25.238 -0.25 -0.08    +0.141    42.370
ATOM     34  C   UNL d   1      33.069  16.010  25.267 -0.21 -0.13    +0.306    42.370
ATOM     35  O   UNL d   1      32.399  16.483  24.365 -0.38 +0.02    -0.251    42.370
ATOM     36  O   UNL d   1      32.506  15.642  26.432 -0.13 +0.36    -0.481    42.370
ATOM     37  H   UNL d   1      33.212  15.775  27.100 -0.43 -0.53    +0.295    42.370
ATOM     38  C   UNL d   1      42.370  14.882  24.927 -0.19 -0.00    +0.017    42.370
ATOM     39  C   UNL d   1      43.389  14.828  24.055 -0.11 +0.01    +0.092    42.370
ATOM     40  C   UNL d   1      44.725  15.267  24.465 -0.07 +0.03    +0.330    42.370
ATOM     41  O   UNL d   1      45.109  16.405  24.655 -0.10 -0.02    -0.246    42.370
ATOM     42  O   UNL d   1      45.530  14.205  24.629 -0.00 -0.04    -0.477    42.370
ATOM     43  H   UNL d   1      46.150  14.486  25.332 +0.02 +0.02    +0.295    42.370
ATOM     44  C   UNL d   1      34.142  12.675  18.108 -0.07 +0.03    +0.141    42.370
ATOM     45  C   UNL d   1      34.272  11.218  18.462 -0.00 +0.04    +0.306    42.370
ATOM     46  O   UNL d   1      34.085  10.717  19.557 -0.00 -0.03    -0.251    42.370
ATOM     47  O   UNL d   1      34.659  10.466  17.416 +0.01 -0.05    -0.481    42.370
ATOM     48  H   UNL d   1      35.259  11.047  16.901 +0.04 +0.03    +0.295    42.370
ATOM     49  C   UNL d   1      43.087  10.803  21.167 -0.04 +0.00    +0.048    42.370
ATOM     50  C   UNL d   1      44.211  11.762  20.774 -0.04 +0.01    +0.125    42.370
ATOM     51  C   UNL d   1      43.658  13.004  20.134 -0.10 +0.04    +0.305    42.370
ATOM     52  O   UNL d   1      43.291  14.025  20.687 -0.17 -0.04    -0.251    42.370
ATOM     53  O   UNL d   1      43.581  12.888  18.793 -0.03 -0.07    -0.481    42.370
ATOM     54  H   UNL d   1      44.200  12.157  18.581 +0.04 +0.04    +0.295    42.370
TER
ENDMDL
MODEL        9
USER    Run = 9
USER    Cluster Rank = 31
USER    Number of conformations in this cluster = 1
USER  
USER    RMSD from reference structure       = 42.400 A
USER  
USER    Estimated Free Energy of Binding    =   -3.91 kcal/mol  [=(1)+(2)+(3)-(4)]
USER    Estimated Inhibition Constant, Ki   =    1.35 mM (millimolar)  [Temperature = 298.15 K]
USER    
USER    (1) Final Intermolecular Energy     =   -7.79 kcal/mol
USER        vdW + Hbond + desolv Energy     =   -7.46 kcal/mol
USER        Electrostatic Energy            =   -0.33 kcal/mol
USER    (2) Final Total Internal Energy     =   -2.54 kcal/mol
USER    (3) Torsional Free Energy           =   +3.88 kcal/mol
USER    (4) Unbound System's Energy  [=(2)] =   -2.54 kcal/mol
USER    
USER    
USER  
USER    DPF = D:/Protein_go_brrr/autodock/final/6BB5/heme/dock.dpf
USER    NEWDPF move	heme_opt.pdbqt
USER    NEWDPF about	0.153000 0.018000 -0.028000
USER    NEWDPF tran0	42.469283 20.403895 2.986503
USER    NEWDPF axisangle0	0.182603 -0.345182 -0.920601 83.534644
USER    NEWDPF quaternion0	0.121633 -0.229928 -0.613219 0.745856
USER    NEWDPF dihe0	-179.60 -51.92 -139.67 -107.02 -156.34 11.55 128.51 -102.83 5.70 -10.08 -73.20 -7.29 -170.47 
USER  
USER                              x       y       z    vdW   Elec        q     RMS 
ATOM      1  O   UNL d   1      40.158  16.254   6.478 -0.01 -0.02    -0.289    42.400
ATOM      2  O   UNL d   1      46.489  16.332   2.442 -0.02 -0.09    -0.289    42.400
ATOM      3  N   UNL d   1      41.045  18.896   4.446 -0.08 -0.01    -0.247    42.400
ATOM      4  N   UNL d   1      43.775  18.165   3.529 -0.09 -0.10    -0.247    42.400
ATOM      5  N   UNL d   1      44.086  20.868   2.600 -0.07 -0.10    -0.354    42.400
ATOM      6  N   UNL d   1      41.260  21.623   3.571 -0.10 -0.00    -0.354    42.400
ATOM      7  C   UNL d   1      39.245  18.482   6.057 -0.14 -0.01    +0.084    42.400
ATOM      8  C   UNL d   1      44.336  15.787   3.470 -0.03 +0.02    +0.084    42.400
ATOM      9  C   UNL d   1      43.344  16.895   3.840 -0.07 +0.02    +0.058    42.400
ATOM     10  C   UNL d   1      39.923  19.426   5.060 -0.19 -0.01    +0.058    42.400
ATOM     11  C   UNL d   1      40.173  17.317   5.885 -0.03 +0.01    +0.193    42.400
ATOM     12  C   UNL d   1      41.205  17.682   4.864 -0.07 +0.01    +0.109    42.400
ATOM     13  C   UNL d   1      45.426  16.667   2.926 -0.05 +0.07    +0.193    42.400
ATOM     14  C   UNL d   1      39.353  18.993   7.496 -0.28 -0.01    +0.026    42.400
ATOM     15  C   UNL d   1      42.179  16.649   4.459 -0.05 +0.01    +0.055    42.400
ATOM     16  C   UNL d   1      43.804  14.905   2.336 -0.01 +0.00    +0.026    42.400
ATOM     17  C   UNL d   1      44.965  18.085   3.026 -0.09 +0.05    +0.109    42.400
ATOM     18  C   UNL d   1      39.395  20.628   4.759 -0.35 -0.01    +0.050    42.400
ATOM     19  C   UNL d   1      39.904  21.530   3.790 -0.33 -0.01    +0.045    42.400
ATOM     20  C   UNL d   1      45.374  20.420   2.456 -0.10 +0.02    +0.045    42.400
ATOM     21  C   UNL d   1      45.851  19.180   2.604 -0.11 +0.03    +0.057    42.400
ATOM     22  C   UNL d   1      45.323  22.666   2.040 -0.25 -0.00    -0.019    42.400
ATOM     23  C   UNL d   1      43.956  22.212   2.369 -0.24 +0.01    +0.045    42.400
ATOM     24  C   UNL d   1      46.157  21.600   2.092 -0.16 -0.01    -0.022    42.400
ATOM     25  C   UNL d   1      41.536  22.617   2.662 -0.30 +0.00    +0.049    42.400
ATOM     26  C   UNL d   1      39.280  22.463   2.976 -0.36 +0.00    -0.018    42.400
ATOM     27  C   UNL d   1      40.314  23.133   2.251 -0.34 -0.00    +0.003    42.400
ATOM     28  C   UNL d   1      42.876  23.007   2.391 -0.32 +0.01    +0.052    42.400
ATOM     29  C   UNL d   1      47.623  21.550   1.829 -0.11 +0.01    +0.046    42.400
ATOM     30  C   UNL d   1      37.814  22.717   2.874 -0.11 -0.03    +0.046    42.400
ATOM     31  H   UNL d   1      43.322  20.225   2.779 +0.04 +0.04    +0.166    42.400
ATOM     32  H   UNL d   1      41.946  21.055   4.055 +0.08 +0.02    +0.166    42.400
ATOM     33  C   UNL d   1      37.807  18.081   5.710 -0.09 -0.02    +0.141    42.400
ATOM     34  C   UNL d   1      37.684  17.514   4.322 -0.00 -0.04    +0.306    42.400
ATOM     35  O   UNL d   1      37.258  18.099   3.340 -0.02 +0.06    -0.251    42.400
ATOM     36  O   UNL d   1      38.105  16.240   4.243 +0.01 +0.02    -0.481    42.400
ATOM     37  H   UNL d   1      38.424  16.029   5.146 +0.02 -0.00    +0.295    42.400
ATOM     38  C   UNL d   1      40.108  24.187   1.304 -0.37 -0.00    +0.017    42.400
ATOM     39  C   UNL d   1      40.897  24.446   0.250 -0.25 +0.00    +0.092    42.400
ATOM     40  C   UNL d   1      40.564  25.548  -0.656 -0.14 +0.01    +0.330    42.400
ATOM     41  O   UNL d   1      39.715  26.405  -0.505 -0.21 -0.00    -0.246    42.400
ATOM     42  O   UNL d   1      41.357  25.511  -1.738 -0.06 -0.02    -0.477    42.400
ATOM     43  H   UNL d   1      40.730  25.541  -2.490 +0.05 +0.01    +0.295    42.400
ATOM     44  C   UNL d   1      44.846  14.940   4.640 -0.04 +0.05    +0.141    42.400
ATOM     45  C   UNL d   1      45.562  15.747   5.690 -0.02 +0.22    +0.306    42.400
ATOM     46  O   UNL d   1      45.051  16.355   6.614 -0.07 -0.23    -0.251    42.400
ATOM     47  O   UNL d   1      46.895  15.768   5.503 -0.39 -0.44    -0.481    42.400
ATOM     48  H   UNL d   1      47.007  15.846   4.531 +0.02 +0.20    +0.295    42.400
ATOM     49  C   UNL d   1      45.685  24.087   1.723 -0.34 +0.01    +0.048    42.400
ATOM     50  C   UNL d   1      46.437  24.753   2.876 -0.46 +0.01    +0.125    42.400
ATOM     51  C   UNL d   1      47.888  24.935   2.535 -0.17 +0.03    +0.305    42.400
ATOM     52  O   UNL d   1      48.842  24.336   3.002 -0.24 -0.03    -0.251    42.400
ATOM     53  O   UNL d   1      48.072  25.895   1.608 -0.07 -0.04    -0.481    42.400
ATOM     54  H   UNL d   1      47.900  26.730   2.092 -0.27 -0.04    +0.295    42.400
TER
ENDMDL
MODEL       94
USER    Run = 94
USER    Cluster Rank = 32
USER    Number of conformations in this cluster = 1
USER  
USER    RMSD from reference structure       = 41.182 A
USER  
USER    Estimated Free Energy of Binding    =   -3.84 kcal/mol  [=(1)+(2)+(3)-(4)]
USER    Estimated Inhibition Constant, Ki   =    1.53 mM (millimolar)  [Temperature = 298.15 K]
USER    
USER    (1) Final Intermolecular Energy     =   -7.72 kcal/mol
USER        vdW + Hbond + desolv Energy     =   -7.41 kcal/mol
USER        Electrostatic Energy            =   -0.31 kcal/mol
USER    (2) Final Total Internal Energy     =   -3.59 kcal/mol
USER    (3) Torsional Free Energy           =   +3.88 kcal/mol
USER    (4) Unbound System's Energy  [=(2)] =   -3.59 kcal/mol
USER    
USER    
USER  
USER    DPF = D:/Protein_go_brrr/autodock/final/6BB5/heme/dock.dpf
USER    NEWDPF move	heme_opt.pdbqt
USER    NEWDPF about	0.153000 0.018000 -0.028000
USER    NEWDPF tran0	37.304264 12.898989 21.472127
USER    NEWDPF axisangle0	-0.463357 -0.522573 -0.715695 -168.343935
USER    NEWDPF quaternion0	-0.460962 -0.519871 -0.711995 -0.101543
USER    NEWDPF dihe0	-103.40 -121.03 -5.49 -28.38 34.31 -61.41 4.90 -171.13 130.75 -17.09 -73.55 -26.31 -7.24 
USER  
USER                              x       y       z    vdW   Elec        q     RMS 
ATOM      1  O   UNL d   1      41.826  10.820  18.311 -0.03 -0.03    -0.289    41.182
ATOM      2  O   UNL d   1      34.884  12.820  16.259 -0.08 -0.05    -0.289    41.182
ATOM      3  N   UNL d   1      39.440  11.870  20.569 -0.11 +0.01    -0.247    41.182
ATOM      4  N   UNL d   1      37.180  12.713  18.834 -0.11 -0.02    -0.247    41.182
ATOM      5  N   UNL d   1      36.017  13.996  21.128 -0.10 +0.04    -0.354    41.182
ATOM      6  N   UNL d   1      38.375  13.135  22.918 +0.10 +0.11    -0.354    41.182
ATOM      7  C   UNL d   1      41.823  11.313  20.705 -0.08 +0.00    +0.084    41.182
ATOM      8  C   UNL d   1      37.009  11.663  16.633 -0.08 +0.01    +0.084    41.182
ATOM      9  C   UNL d   1      37.789  11.863  17.937 -0.11 +0.01    +0.058    41.182
ATOM     10  C   UNL d   1      40.541  11.778  21.404 -0.14 -0.00    +0.058    41.182
ATOM     11  C   UNL d   1      41.246  11.141  19.333 -0.07 +0.01    +0.193    41.182
ATOM     12  C   UNL d   1      39.789  11.484  19.386 -0.11 +0.01    +0.109    41.182
ATOM     13  C   UNL d   1      35.863  12.586  16.941 -0.09 +0.03    +0.193    41.182
ATOM     14  C   UNL d   1      42.885  12.414  20.661 -0.16 +0.00    +0.026    41.182
ATOM     15  C   UNL d   1      38.986  11.298  18.161 -0.11 +0.01    +0.055    41.182
ATOM     16  C   UNL d   1      36.471  10.235  16.507 -0.03 +0.00    +0.026    41.182
ATOM     17  C   UNL d   1      36.091  13.164  18.300 -0.16 +0.01    +0.109    41.182
ATOM     18  C   UNL d   1      40.500  11.984  22.733 -0.13 -0.00    +0.050    41.182
ATOM     19  C   UNL d   1      39.344  12.332  23.476 -0.11 -0.01    +0.045    41.182
ATOM     20  C   UNL d   1      35.195  14.482  20.145 -0.24 +0.00    +0.045    41.182
ATOM     21  C   UNL d   1      35.144  14.144  18.852 -0.27 +0.01    +0.057    41.182
ATOM     22  C   UNL d   1      34.696  15.534  22.110 -0.32 +0.00    -0.019    41.182
ATOM     23  C   UNL d   1      35.791  14.572  22.350 -0.25 -0.01    +0.045    41.182
ATOM     24  C   UNL d   1      34.347  15.475  20.803 -0.31 -0.00    -0.022    41.182
ATOM     25  C   UNL d   1      37.393  13.419  23.838 -0.15 -0.01    +0.049    41.182
ATOM     26  C   UNL d   1      38.964  12.058  24.781 -0.05 +0.00    -0.018    41.182
ATOM     27  C   UNL d   1      37.721  12.731  24.998 -0.08 -0.00    +0.003    41.182
ATOM     28  C   UNL d   1      36.366  14.357  23.543 -0.26 -0.02    +0.052    41.182
ATOM     29  C   UNL d   1      33.290  16.242  20.084 -0.36 +0.02    +0.046    41.182
ATOM     30  C   UNL d   1      39.706  11.221  25.767 -0.02 -0.00    +0.046    41.182
ATOM     31  H   UNL d   1      36.658  13.231  20.948 -0.01 -0.02    +0.166    41.182
ATOM     32  H   UNL d   1      38.419  13.490  21.970 -0.33 -0.12    +0.166    41.182
ATOM     33  C   UNL d   1      42.405   9.990  21.214 -0.02 +0.01    +0.141    41.182
ATOM     34  C   UNL d   1      43.639   9.573  20.461 -0.00 +0.02    +0.306    41.182
ATOM     35  O   UNL d   1      44.787   9.887  20.729 -0.00 -0.02    -0.251    41.182
ATOM     36  O   UNL d   1      43.363   8.779  19.412 +0.00 -0.03    -0.481    41.182
ATOM     37  H   UNL d   1      42.980   9.383  18.740 +0.01 +0.02    +0.295    41.182
ATOM     38  C   UNL d   1      36.982  12.724  26.224 -0.06 -0.00    +0.017    41.182
ATOM     39  C   UNL d   1      35.731  13.184  26.377 -0.07 -0.02    +0.092    41.182
ATOM     40  C   UNL d   1      35.079  13.104  27.686 -0.03 -0.11    +0.330    41.182
ATOM     41  O   UNL d   1      34.790  12.102  28.313 -0.01 +0.05    -0.246    41.182
ATOM     42  O   UNL d   1      34.826  14.336  28.153 -0.04 +0.42    -0.477    41.182
ATOM     43  H   UNL d   1      34.253  14.735  27.466 -0.23 -0.36    +0.295    41.182
ATOM     44  C   UNL d   1      37.736  12.097  15.356 -0.11 +0.02    +0.141    41.182
ATOM     45  C   UNL d   1      37.957  13.584  15.274 -0.19 +0.04    +0.306    41.182
ATOM     46  O   UNL d   1      37.177  14.455  15.617 -0.31 -0.05    -0.251    41.182
ATOM     47  O   UNL d   1      39.149  13.898  14.735 -0.13 -0.04    -0.481    41.182
ATOM     48  H   UNL d   1      39.129  14.874  14.641 -0.30 -0.03    +0.295    41.182
ATOM     49  C   UNL d   1      34.110  16.424  23.167 -0.36 -0.00    +0.048    41.182
ATOM     50  C   UNL d   1      32.924  15.764  23.871 -0.27 -0.00    +0.125    41.182
ATOM     51  C   UNL d   1      33.295  15.343  25.265 -0.19 -0.12    +0.305    41.182
ATOM     52  O   UNL d   1      32.600  14.753  26.073 -0.11 +0.11    -0.251    41.182
ATOM     53  O   UNL d   1      34.554  15.707  25.584 -0.18 +0.36    -0.481    41.182
ATOM     54  H   UNL d   1      34.528  15.828  26.556 -0.46 -0.55    +0.295    41.182
TER
ENDMDL
MODEL       93
USER    Run = 93
USER    Cluster Rank = 33
USER    Number of conformations in this cluster = 1
USER  
USER    RMSD from reference structure       = 47.819 A
USER  
USER    Estimated Free Energy of Binding    =   -3.83 kcal/mol  [=(1)+(2)+(3)-(4)]
USER    Estimated Inhibition Constant, Ki   =    1.55 mM (millimolar)  [Temperature = 298.15 K]
USER    
USER    (1) Final Intermolecular Energy     =   -7.71 kcal/mol
USER        vdW + Hbond + desolv Energy     =   -7.26 kcal/mol
USER        Electrostatic Energy            =   -0.46 kcal/mol
USER    (2) Final Total Internal Energy     =   -1.96 kcal/mol
USER    (3) Torsional Free Energy           =   +3.88 kcal/mol
USER    (4) Unbound System's Energy  [=(2)] =   -1.96 kcal/mol
USER    
USER    
USER  
USER    DPF = D:/Protein_go_brrr/autodock/final/6BB5/heme/dock.dpf
USER    NEWDPF move	heme_opt.pdbqt
USER    NEWDPF about	0.153000 0.018000 -0.028000
USER    NEWDPF tran0	45.053404 19.884304 17.720357
USER    NEWDPF axisangle0	0.886058 -0.315999 0.339185 161.407533
USER    NEWDPF quaternion0	0.874421 -0.311849 0.334730 0.161539
USER    NEWDPF dihe0	-125.29 19.89 -118.09 -140.78 -135.25 -149.39 122.62 -117.33 -118.96 -25.61 -125.20 31.29 140.62 
USER  
USER                              x       y       z    vdW   Elec        q     RMS 
ATOM      1  O   UNL d   1      41.497  22.327  13.702 -0.35 -0.04    -0.289    47.819
ATOM      2  O   UNL d   1      44.544  25.155  19.956 -0.11 -0.16    -0.289    47.819
ATOM      3  N   UNL d   1      43.437  20.450  15.849 -0.18 -0.05    -0.247    47.819
ATOM      4  N   UNL d   1      44.416  22.453  17.813 -0.13 -0.09    -0.247    47.819
ATOM      5  N   UNL d   1      46.322  20.499  18.717 -0.07 -0.15    -0.354    47.819
ATOM      6  N   UNL d   1      45.313  18.433  16.663 -0.05 -0.12    -0.354    47.819
ATOM      7  C   UNL d   1      42.411  20.060  13.658 -0.36 +0.01    +0.084    47.819
ATOM      8  C   UNL d   1      43.043  24.444  18.158 -0.29 +0.02    +0.084    47.819
ATOM      9  C   UNL d   1      43.305  23.146  17.388 -0.30 +0.02    +0.058    47.819
ATOM     10  C   UNL d   1      43.263  19.540  14.819 -0.27 +0.01    +0.058    47.819
ATOM     11  C   UNL d   1      42.118  21.418  14.222 +0.02 +0.02    +0.193    47.819
ATOM     12  C   UNL d   1      42.774  21.522  15.564 -0.03 +0.01    +0.109    47.819
ATOM     13  C   UNL d   1      44.233  24.379  19.073 -0.15 +0.08    +0.193    47.819
ATOM     14  C   UNL d   1      43.228  20.223  12.373 -0.41 +0.01    +0.026    47.819
ATOM     15  C   UNL d   1      42.545  22.748  16.356 -0.37 +0.01    +0.055    47.819
ATOM     16  C   UNL d   1      41.767  24.357  19.001 -0.33 +0.01    +0.026    47.819
ATOM     17  C   UNL d   1      44.987  23.129  18.758 -0.15 +0.05    +0.109    47.819
ATOM     18  C   UNL d   1      43.714  18.272  14.848 -0.21 +0.01    +0.050    47.819
ATOM     19  C   UNL d   1      44.436  17.680  15.916 -0.15 +0.01    +0.045    47.819
ATOM     20  C   UNL d   1      46.785  21.604  19.382 -0.11 +0.02    +0.045    47.819
ATOM     21  C   UNL d   1      46.234  22.819  19.473 -0.13 +0.03    +0.057    47.819
ATOM     22  C   UNL d   1      48.263  19.889  19.682 -0.05 -0.01    -0.019    47.819
ATOM     23  C   UNL d   1      47.148  19.413  18.840 -0.11 +0.02    +0.045    47.819
ATOM     24  C   UNL d   1      48.042  21.186  20.001 -0.05 -0.01    -0.022    47.819
ATOM     25  C   UNL d   1      45.968  17.644  17.580 -0.12 +0.01    +0.049    47.819
ATOM     26  C   UNL d   1      44.496  16.376  16.382 -0.14 -0.00    -0.018    47.819
ATOM     27  C   UNL d   1      45.450  16.363  17.446 -0.13 +0.00    +0.003    47.819
ATOM     28  C   UNL d   1      47.035  18.165  18.360 -0.10 +0.02    +0.052    47.819
ATOM     29  C   UNL d   1      48.875  22.097  20.838 -0.01 +0.02    +0.046    47.819
ATOM     30  C   UNL d   1      43.714  15.212  15.875 -0.13 +0.01    +0.046    47.819
ATOM     31  H   UNL d   1      45.416  20.500  18.261 +0.04 +0.06    +0.166    47.819
ATOM     32  H   UNL d   1      45.469  19.423  16.515 +0.05 +0.08    +0.166    47.819
ATOM     33  C   UNL d   1      41.110  19.292  13.403 -0.13 +0.01    +0.141    47.819
ATOM     34  C   UNL d   1      41.349  17.925  12.820 -0.22 +0.02    +0.306    47.819
ATOM     35  O   UNL d   1      41.568  17.671  11.648 -0.14 -0.03    -0.251    47.819
ATOM     36  O   UNL d   1      41.301  16.951  13.745 -0.13 -0.01    -0.481    47.819
ATOM     37  H   UNL d   1      40.447  17.091  14.207 -0.44 -0.06    +0.295    47.819
ATOM     38  C   UNL d   1      45.830  15.206  18.200 -0.10 +0.00    +0.017    47.819
ATOM     39  C   UNL d   1      45.553  15.002  19.497 -0.13 +0.02    +0.092    47.819
ATOM     40  C   UNL d   1      45.985  13.763  20.149 -0.02 +0.05    +0.330    47.819
ATOM     41  O   UNL d   1      45.462  13.196  21.089 -0.04 -0.03    -0.246    47.819
ATOM     42  O   UNL d   1      47.088  13.286  19.550 +0.01 -0.06    -0.477    47.819
ATOM     43  H   UNL d   1      47.108  12.343  19.813 +0.01 +0.03    +0.295    47.819
ATOM     44  C   UNL d   1      43.066  25.726  17.318 -0.27 +0.04    +0.141    47.819
ATOM     45  C   UNL d   1      44.455  26.160  16.935 -0.15 +0.10    +0.306    47.819
ATOM     46  O   UNL d   1      45.144  25.693  16.045 -0.22 -0.09    -0.251    47.819
ATOM     47  O   UNL d   1      44.919  27.151  17.719 -0.04 -0.18    -0.481    47.819
ATOM     48  H   UNL d   1      44.931  26.767  18.622 +0.11 +0.14    +0.295    47.819
ATOM     49  C   UNL d   1      49.438  19.044  20.081 -0.01 +0.02    +0.048    47.819
ATOM     50  C   UNL d   1      50.174  18.484  18.864 -0.01 +0.05    +0.125    47.819
ATOM     51  C   UNL d   1      50.599  19.588  17.939 -0.03 +0.25    +0.305    47.819
ATOM     52  O   UNL d   1      50.328  19.713  16.757 -0.45 -0.43    -0.251    47.819
ATOM     53  O   UNL d   1      51.374  20.499  18.561 -0.02 -0.32    -0.481    47.819
ATOM     54  H   UNL d   1      51.942  19.962  19.153 +0.01 +0.13    +0.295    47.819
TER
ENDMDL
MODEL       87
USER    Run = 87
USER    Cluster Rank = 34
USER    Number of conformations in this cluster = 1
USER  
USER    RMSD from reference structure       = 24.638 A
USER  
USER    Estimated Free Energy of Binding    =   -3.68 kcal/mol  [=(1)+(2)+(3)-(4)]
USER    Estimated Inhibition Constant, Ki   =    2.02 mM (millimolar)  [Temperature = 298.15 K]
USER    
USER    (1) Final Intermolecular Energy     =   -7.55 kcal/mol
USER        vdW + Hbond + desolv Energy     =   -6.61 kcal/mol
USER        Electrostatic Energy            =   -0.94 kcal/mol
USER    (2) Final Total Internal Energy     =   -2.20 kcal/mol
USER    (3) Torsional Free Energy           =   +3.88 kcal/mol
USER    (4) Unbound System's Energy  [=(2)] =   -2.20 kcal/mol
USER    
USER    
USER  
USER    DPF = D:/Protein_go_brrr/autodock/final/6BB5/heme/dock.dpf
USER    NEWDPF move	heme_opt.pdbqt
USER    NEWDPF about	0.153000 0.018000 -0.028000
USER    NEWDPF tran0	15.861335 21.071759 -11.173890
USER    NEWDPF axisangle0	-0.490952 0.862461 -0.122990 178.407581
USER    NEWDPF quaternion0	-0.490905 0.862378 -0.122978 0.013896
USER    NEWDPF dihe0	-40.95 -70.46 -161.08 -128.08 -126.39 150.31 135.94 28.26 3.60 -10.00 -76.71 28.76 -27.73 
USER  
USER                              x       y       z    vdW   Elec        q     RMS 
ATOM      1  O   UNL d   1      17.393  26.481 -12.949 -0.04 +0.05    -0.289    24.638
ATOM      2  O   UNL d   1      21.204  21.305  -9.066 -0.04 +0.08    -0.289    24.638
ATOM      3  N   UNL d   1      16.016  23.461 -12.011 -0.09 +0.08    -0.247    24.638
ATOM      4  N   UNL d   1      18.315  22.003 -10.821 -0.11 +0.10    -0.247    24.638
ATOM      5  N   UNL d   1      16.737  19.602 -10.944 -0.12 +0.32    -0.354    24.638
ATOM      6  N   UNL d   1      14.364  21.119 -12.197 -0.04 +0.17    -0.354    24.638
ATOM      7  C   UNL d   1      15.279  25.340 -13.402 -0.08 -0.02    +0.084    24.638
ATOM      8  C   UNL d   1      20.123  23.347  -9.875 -0.12 -0.02    +0.084    24.638
ATOM      9  C   UNL d   1      18.804  23.279 -10.652 -0.17 -0.02    +0.058    24.638
ATOM     10  C   UNL d   1      14.996  23.958 -12.805 -0.10 -0.02    +0.058    24.638
ATOM     11  C   UNL d   1      16.632  25.544 -12.789 -0.06 -0.04    +0.193    24.638
ATOM     12  C   UNL d   1      16.955  24.348 -11.948 -0.12 -0.03    +0.109    24.638
ATOM     13  C   UNL d   1      20.311  21.871  -9.667 -0.08 -0.06    +0.193    24.638
ATOM     14  C   UNL d   1      15.428  25.288 -14.925 -0.04 -0.00    +0.026    24.638
ATOM     15  C   UNL d   1      18.208  24.365 -11.167 -0.17 -0.01    +0.055    24.638
ATOM     16  C   UNL d   1      19.944  24.019  -8.510 -0.25 -0.01    +0.026    24.638
ATOM     17  C   UNL d   1      19.151  21.167 -10.293 -0.02 -0.05    +0.109    24.638
ATOM     18  C   UNL d   1      13.811  23.345 -12.982 -0.14 -0.02    +0.050    24.638
ATOM     19  C   UNL d   1      13.429  22.109 -12.401 -0.14 -0.02    +0.045    24.638
ATOM     20  C   UNL d   1      17.955  19.067 -10.614 -0.08 -0.04    +0.045    24.638
ATOM     21  C   UNL d   1      19.086  19.698 -10.282 -0.08 -0.04    +0.057    24.638
ATOM     22  C   UNL d   1      16.496  17.366 -11.055 -0.09 +0.02    -0.019    24.638
ATOM     23  C   UNL d   1      15.793  18.652 -11.228 -0.11 -0.04    +0.045    24.638
ATOM     24  C   UNL d   1      17.775  17.618 -10.690 -0.12 +0.02    -0.022    24.638
ATOM     25  C   UNL d   1      13.764  19.981 -11.711 -0.14 -0.03    +0.049    24.638
ATOM     26  C   UNL d   1      12.197  21.614 -12.003 -0.20 +0.01    -0.018    24.638
ATOM     27  C   UNL d   1      12.418  20.276 -11.550 -0.17 -0.00    +0.003    24.638
ATOM     28  C   UNL d   1      14.500  18.773 -11.569 -0.14 -0.04    +0.052    24.638
ATOM     29  C   UNL d   1      18.868  16.649 -10.389 -0.09 -0.03    +0.046    24.638
ATOM     30  C   UNL d   1      10.893  22.337 -12.039 -0.10 -0.04    +0.046    24.638
ATOM     31  H   UNL d   1      16.571  20.601 -10.893 -0.02 -0.13    +0.166    24.638
ATOM     32  H   UNL d   1      15.347  21.222 -12.420 +0.04 -0.07    +0.166    24.638
ATOM     33  C   UNL d   1      14.318  26.452 -12.968 -0.22 -0.05    +0.141    24.638
ATOM     34  C   UNL d   1      14.165  26.534 -11.473 -0.22 -0.15    +0.306    24.638
ATOM     35  O   UNL d   1      13.567  25.741 -10.766 -0.40 +0.19    -0.251    24.638
ATOM     36  O   UNL d   1      14.776  27.611 -10.948 -0.70 +0.15    -0.481    24.638
ATOM     37  H   UNL d   1      14.134  27.967 -10.298 -0.16 -0.22    +0.295    24.638
ATOM     38  C   UNL d   1      11.402  19.391 -11.064 -0.21 -0.00    +0.017    24.638
ATOM     39  C   UNL d   1      11.316  18.928  -9.807 -0.27 -0.00    +0.092    24.638
ATOM     40  C   UNL d   1      10.214  18.039  -9.432 -0.09 +0.13    +0.330    24.638
ATOM     41  O   UNL d   1      10.227  17.145  -8.606 -0.12 -0.04    -0.246    24.638
ATOM     42  O   UNL d   1       9.114  18.344 -10.137 -0.48 -0.58    -0.477    24.638
ATOM     43  H   UNL d   1       9.012  17.587 -10.751 +0.04 +0.17    +0.295    24.638
ATOM     44  C   UNL d   1      21.309  23.948 -10.638 -0.03 -0.03    +0.141    24.638
ATOM     45  C   UNL d   1      21.653  23.193 -11.893 -0.00 -0.04    +0.306    24.638
ATOM     46  O   UNL d   1      21.227  23.413 -13.014 -0.00 +0.03    -0.251    24.638
ATOM     47  O   UNL d   1      22.500  22.173 -11.665 +0.00 +0.06    -0.481    24.638
ATOM     48  H   UNL d   1      22.440  22.013 -10.699 +0.01 -0.05    +0.295    24.638
ATOM     49  C   UNL d   1      15.863  16.023 -11.275 -0.08 -0.03    +0.048    24.638
ATOM     50  C   UNL d   1      15.694  15.252  -9.966 -0.02 -0.14    +0.125    24.638
ATOM     51  C   UNL d   1      14.263  15.274  -9.511 -0.00 -0.31    +0.305    24.638
ATOM     52  O   UNL d   1      13.270  15.470 -10.190 -0.05 +0.14    -0.251    24.638
ATOM     53  O   UNL d   1      14.151  15.055  -8.186 -0.03 +0.61    -0.481    24.638
ATOM     54  H   UNL d   1      14.771  15.700  -7.785 -0.37 -0.87    +0.295    24.638
TER
ENDMDL
MODEL       99
USER    Run = 99
USER    Cluster Rank = 35
USER    Number of conformations in this cluster = 1
USER  
USER    RMSD from reference structure       = 37.050 A
USER  
USER    Estimated Free Energy of Binding    =   -3.65 kcal/mol  [=(1)+(2)+(3)-(4)]
USER    Estimated Inhibition Constant, Ki   =    2.12 mM (millimolar)  [Temperature = 298.15 K]
USER    
USER    (1) Final Intermolecular Energy     =   -7.53 kcal/mol
USER        vdW + Hbond + desolv Energy     =   -7.01 kcal/mol
USER        Electrostatic Energy            =   -0.51 kcal/mol
USER    (2) Final Total Internal Energy     =   -3.85 kcal/mol
USER    (3) Torsional Free Energy           =   +3.88 kcal/mol
USER    (4) Unbound System's Energy  [=(2)] =   -3.85 kcal/mol
USER    
USER    
USER  
USER    DPF = D:/Protein_go_brrr/autodock/final/6BB5/heme/dock.dpf
USER    NEWDPF move	heme_opt.pdbqt
USER    NEWDPF about	0.153000 0.018000 -0.028000
USER    NEWDPF tran0	37.329396 15.242285 10.589335
USER    NEWDPF axisangle0	0.938716 0.328194 0.105358 44.158605
USER    NEWDPF quaternion0	0.352854 0.123365 0.039603 0.926664
USER    NEWDPF dihe0	82.74 140.81 -141.09 35.82 -1.50 57.70 127.03 78.19 -167.93 -20.75 -70.07 -69.61 -12.89 
USER  
USER                              x       y       z    vdW   Elec        q     RMS 
ATOM      1  O   UNL d   1      32.048  16.859   8.529 -0.11 -0.03    -0.289    37.050
ATOM      2  O   UNL d   1      34.301  10.534  11.892 -0.01 -0.03    -0.289    37.050
ATOM      3  N   UNL d   1      35.323  16.300   9.455 -0.57 -0.04    -0.247    37.050
ATOM      4  N   UNL d   1      35.183  13.733  10.945 -0.02 -0.05    -0.247    37.050
ATOM      5  N   UNL d   1      37.840  14.255  11.910 -0.09 -0.04    -0.354    37.050
ATOM      6  N   UNL d   1      37.969  16.926  10.377 -0.15 +0.01    -0.354    37.050
ATOM      7  C   UNL d   1      34.087  18.207   8.537 -0.23 -0.00    +0.084    37.050
ATOM      8  C   UNL d   1      33.353  12.214  10.384 -0.04 +0.01    +0.084    37.050
ATOM      9  C   UNL d   1      34.030  13.576  10.207 -0.08 +0.01    +0.058    37.050
ATOM     10  C   UNL d   1      35.408  17.618   9.040 -0.20 +0.00    +0.058    37.050
ATOM     11  C   UNL d   1      33.243  16.982   8.724 -0.15 +0.01    +0.193    37.050
ATOM     12  C   UNL d   1      34.112  15.888   9.261 -0.14 +0.01    +0.109    37.050
ATOM     13  C   UNL d   1      34.314  11.640  11.387 -0.03 +0.02    +0.193    37.050
ATOM     14  C   UNL d   1      33.564  19.314   9.457 -0.38 -0.00    +0.026    37.050
ATOM     15  C   UNL d   1      33.515  14.549   9.440 -0.12 +0.01    +0.055    37.050
ATOM     16  C   UNL d   1      33.419  11.376   9.104 -0.01 +0.00    +0.026    37.050
ATOM     17  C   UNL d   1      35.371  12.662  11.647 -0.04 +0.02    +0.109    37.050
ATOM     18  C   UNL d   1      36.556  18.319   8.984 -0.27 -0.00    +0.050    37.050
ATOM     19  C   UNL d   1      37.837  17.830   9.347 -0.26 -0.00    +0.045    37.050
ATOM     20  C   UNL d   1      37.511  13.180  12.695 -0.13 +0.01    +0.045    37.050
ATOM     21  C   UNL d   1      36.433  12.393  12.628 -0.10 +0.01    +0.057    37.050
ATOM     22  C   UNL d   1      39.511  14.027  13.403 -0.19 -0.00    -0.019    37.050
ATOM     23  C   UNL d   1      39.031  14.833  12.262 -0.16 +0.00    +0.045    37.050
ATOM     24  C   UNL d   1      38.608  13.050  13.653 -0.16 -0.00    -0.022    37.050
ATOM     25  C   UNL d   1      39.297  16.658  10.616 -0.24 +0.00    +0.049    37.050
ATOM     26  C   UNL d   1      39.108  18.128   8.881 -0.23 +0.00    -0.018    37.050
ATOM     27  C   UNL d   1      40.025  17.370   9.673 -0.21 +0.00    +0.003    37.050
ATOM     28  C   UNL d   1      39.692  15.874  11.734 -0.21 -0.00    +0.052    37.050
ATOM     29  C   UNL d   1      38.652  11.983  14.694 -0.11 +0.00    +0.046    37.050
ATOM     30  C   UNL d   1      39.453  19.057   7.767 -0.23 -0.01    +0.046    37.050
ATOM     31  H   UNL d   1      37.274  14.515  11.109 +0.04 +0.02    +0.166    37.050
ATOM     32  H   UNL d   1      37.186  16.555  10.900 -0.01 +0.00    +0.166    37.050
ATOM     33  C   UNL d   1      34.079  18.646   7.069 -0.15 -0.03    +0.141    37.050
ATOM     34  C   UNL d   1      33.774  20.110   6.904 -0.15 -0.16    +0.306    37.050
ATOM     35  O   UNL d   1      34.344  21.033   7.462 -0.66 +0.07    -0.251    37.050
ATOM     36  O   UNL d   1      32.767  20.336   6.042 -0.03 +0.38    -0.481    37.050
ATOM     37  H   UNL d   1      33.211  20.585   5.203 -0.28 -0.55    +0.295    37.050
ATOM     38  C   UNL d   1      41.450  17.393   9.535 -0.19 +0.00    +0.017    37.050
ATOM     39  C   UNL d   1      42.328  17.246  10.539 -0.13 +0.02    +0.092    37.050
ATOM     40  C   UNL d   1      43.766  17.272  10.261 -0.08 +0.14    +0.330    37.050
ATOM     41  O   UNL d   1      44.400  18.147   9.701 -0.18 -0.18    -0.246    37.050
ATOM     42  O   UNL d   1      44.347  16.157  10.729 +0.01 -0.18    -0.477    37.050
ATOM     43  H   UNL d   1      43.893  15.996  11.582 +0.05 +0.08    +0.295    37.050
ATOM     44  C   UNL d   1      31.929  12.252  10.948 -0.04 +0.02    +0.141    37.050
ATOM     45  C   UNL d   1      31.875  12.650  12.399 -0.03 +0.05    +0.306    37.050
ATOM     46  O   UNL d   1      31.892  13.785  12.843 -0.09 -0.05    -0.251    37.050
ATOM     47  O   UNL d   1      31.830  11.588  13.223 +0.00 -0.07    -0.481    37.050
ATOM     48  H   UNL d   1      32.424  10.927  12.808 +0.02 +0.04    +0.295    37.050
ATOM     49  C   UNL d   1      40.788  14.294  14.144 -0.17 +0.00    +0.048    37.050
ATOM     50  C   UNL d   1      41.937  13.426  13.630 -0.06 +0.01    +0.125    37.050
ATOM     51  C   UNL d   1      42.958  14.259  12.910 -0.01 +0.05    +0.305    37.050
ATOM     52  O   UNL d   1      43.752  15.046  13.395 -0.02 -0.05    -0.251    37.050
ATOM     53  O   UNL d   1      42.919  14.063  11.576 +0.01 -0.08    -0.481    37.050
ATOM     54  H   UNL d   1      43.857  14.130  11.299 +0.01 +0.06    +0.295    37.050
TER
ENDMDL
MODEL       76
USER    Run = 76
USER    Cluster Rank = 36
USER    Number of conformations in this cluster = 1
USER  
USER    RMSD from reference structure       = 51.138 A
USER  
USER    Estimated Free Energy of Binding    =   -3.64 kcal/mol  [=(1)+(2)+(3)-(4)]
USER    Estimated Inhibition Constant, Ki   =    2.16 mM (millimolar)  [Temperature = 298.15 K]
USER    
USER    (1) Final Intermolecular Energy     =   -7.51 kcal/mol
USER        vdW + Hbond + desolv Energy     =   -6.86 kcal/mol
USER        Electrostatic Energy            =   -0.65 kcal/mol
USER    (2) Final Total Internal Energy     =   -4.27 kcal/mol
USER    (3) Torsional Free Energy           =   +3.88 kcal/mol
USER    (4) Unbound System's Energy  [=(2)] =   -4.27 kcal/mol
USER    
USER    
USER  
USER    DPF = D:/Protein_go_brrr/autodock/final/6BB5/heme/dock.dpf
USER    NEWDPF move	heme_opt.pdbqt
USER    NEWDPF about	0.153000 0.018000 -0.028000
USER    NEWDPF tran0	16.536298 49.834769 16.184258
USER    NEWDPF axisangle0	0.287379 -0.811235 0.509225 151.594288
USER    NEWDPF quaternion0	0.278595 -0.786438 0.493660 0.245356
USER    NEWDPF dihe0	-161.31 128.72 -111.07 6.85 42.81 72.16 128.12 -77.37 157.51 -14.48 -80.26 -82.56 -9.08 
USER  
USER                              x       y       z    vdW   Elec        q     RMS 
ATOM      1  O   UNL d   1      20.698  53.842  15.010 -0.02 +0.05    -0.289    51.138
ATOM      2  O   UNL d   1      18.367  50.921  21.523 -0.11 +0.03    -0.289    51.138
ATOM      3  N   UNL d   1      18.096  51.588  15.222 -0.07 +0.06    -0.247    51.138
ATOM      4  N   UNL d   1      18.113  50.792  18.084 -0.01 +0.03    -0.247    51.138
ATOM      5  N   UNL d   1      16.367  48.615  17.394 -0.04 +0.04    -0.354    51.138
ATOM      6  N   UNL d   1      16.370  49.436  14.422 -0.06 +0.07    -0.354    51.138
ATOM      7  C   UNL d   1      19.320  52.648  13.382 -0.16 -0.04    +0.084    51.138
ATOM      8  C   UNL d   1      19.032  52.393  19.684 -0.07 -0.01    +0.084    51.138
ATOM      9  C   UNL d   1      18.758  52.000  18.229 -0.08 -0.01    +0.058    51.138
ATOM     10  C   UNL d   1      18.222  51.687  13.846 -0.20 -0.03    +0.058    51.138
ATOM     11  C   UNL d   1      19.782  53.088  14.738 -0.06 -0.05    +0.193    51.138
ATOM     12  C   UNL d   1      18.945  52.395  15.769 -0.05 -0.02    +0.109    51.138
ATOM     13  C   UNL d   1      18.458  51.167  20.337 -0.10 -0.03    +0.193    51.138
ATOM     14  C   UNL d   1      20.468  51.913  12.683 -0.30 -0.00    +0.026    51.138
ATOM     15  C   UNL d   1      19.158  52.746  17.188 -0.08 -0.01    +0.055    51.138
ATOM     16  C   UNL d   1      18.205  53.610  20.109 -0.03 -0.00    +0.026    51.138
ATOM     17  C   UNL d   1      17.941  50.273  19.257 -0.13 -0.02    +0.109    51.138
ATOM     18  C   UNL d   1      17.404  51.076  12.968 -0.21 -0.04    +0.050    51.138
ATOM     19  C   UNL d   1      16.310  50.240  13.307 -0.26 -0.02    +0.045    51.138
ATOM     20  C   UNL d   1      16.674  48.270  18.684 -0.18 -0.01    +0.045    51.138
ATOM     21  C   UNL d   1      17.356  48.967  19.598 -0.24 -0.01    +0.057    51.138
ATOM     22  C   UNL d   1      15.480  46.572  17.730 -0.18 +0.00    -0.019    51.138
ATOM     23  C   UNL d   1      15.647  47.652  16.737 -0.17 -0.01    +0.045    51.138
ATOM     24  C   UNL d   1      16.089  46.944  18.881 -0.20 +0.00    -0.022    51.138
ATOM     25  C   UNL d   1      15.247  48.647  14.510 -0.18 -0.01    +0.049    51.138
ATOM     26  C   UNL d   1      15.102  49.994  12.673 -0.30 +0.01    -0.018    51.138
ATOM     27  C   UNL d   1      14.426  49.002  13.449 -0.24 -0.00    +0.003    51.138
ATOM     28  C   UNL d   1      15.150  47.623  15.491 -0.23 -0.02    +0.052    51.138
ATOM     29  C   UNL d   1      16.183  46.200  20.170 -0.24 -0.01    +0.046    51.138
ATOM     30  C   UNL d   1      14.602  50.641  11.426 -0.30 -0.04    +0.046    51.138
ATOM     31  H   UNL d   1      16.595  49.532  17.025 +0.05 -0.02    +0.166    51.138
ATOM     32  H   UNL d   1      17.160  49.414  15.056 +0.06 -0.01    +0.166    51.138
ATOM     33  C   UNL d   1      18.839  53.849  12.561 -0.05 -0.15    +0.141    51.138
ATOM     34  C   UNL d   1      19.907  54.394  11.652 -0.08 -0.20    +0.306    51.138
ATOM     35  O   UNL d   1      20.046  54.137  10.468 -0.17 +0.13    -0.251    51.138
ATOM     36  O   UNL d   1      20.743  55.239  12.282 +0.01 +0.17    -0.481    51.138
ATOM     37  H   UNL d   1      20.589  55.072  13.236 +0.04 -0.10    +0.295    51.138
ATOM     38  C   UNL d   1      13.143  48.445  13.139 -0.14 -0.01    +0.017    51.138
ATOM     39  C   UNL d   1      12.838  47.139  13.172 -0.03 -0.09    +0.092    51.138
ATOM     40  C   UNL d   1      11.478  46.699  12.849 -0.07 -0.35    +0.330    51.138
ATOM     41  O   UNL d   1      10.932  46.710  11.762 -0.30 +0.18    -0.246    51.138
ATOM     42  O   UNL d   1      10.865  46.245  13.953 -0.00 +0.56    -0.477    51.138
ATOM     43  H   UNL d   1      11.499  45.598  14.325 -0.31 -0.62    +0.295    51.138
ATOM     44  C   UNL d   1      20.509  52.571  20.053 -0.09 -0.01    +0.141    51.138
ATOM     45  C   UNL d   1      21.305  51.298  19.944 -0.11 -0.06    +0.306    51.138
ATOM     46  O   UNL d   1      21.813  50.843  18.933 -0.22 +0.06    -0.251    51.138
ATOM     47  O   UNL d   1      21.399  50.646  21.117 +0.00 +0.14    -0.481    51.138
ATOM     48  H   UNL d   1      20.487  50.335  21.301 -0.09 -0.08    +0.295    51.138
ATOM     49  C   UNL d   1      14.761  45.283  17.460 -0.27 -0.01    +0.048    51.138
ATOM     50  C   UNL d   1      13.285  45.362  17.851 -0.17 -0.05    +0.125    51.138
ATOM     51  C   UNL d   1      12.421  45.587  16.643 -0.10 -0.20    +0.305    51.138
ATOM     52  O   UNL d   1      12.164  46.647  16.100 -0.08 +0.16    -0.251    51.138
ATOM     53  O   UNL d   1      11.901  44.435  16.174 -0.13 +0.45    -0.481    51.138
ATOM     54  H   UNL d   1      11.455  44.697  15.341 -0.13 -0.45    +0.295    51.138
TER
ENDMDL
MODEL       36
USER    Run = 36
USER    Cluster Rank = 37
USER    Number of conformations in this cluster = 1
USER  
USER    RMSD from reference structure       = 39.517 A
USER  
USER    Estimated Free Energy of Binding    =   -3.55 kcal/mol  [=(1)+(2)+(3)-(4)]
USER    Estimated Inhibition Constant, Ki   =    2.52 mM (millimolar)  [Temperature = 298.15 K]
USER    
USER    (1) Final Intermolecular Energy     =   -7.42 kcal/mol
USER        vdW + Hbond + desolv Energy     =   -7.37 kcal/mol
USER        Electrostatic Energy            =   -0.05 kcal/mol
USER    (2) Final Total Internal Energy     =   -3.99 kcal/mol
USER    (3) Torsional Free Energy           =   +3.88 kcal/mol
USER    (4) Unbound System's Energy  [=(2)] =   -3.99 kcal/mol
USER    
USER    
USER  
USER    DPF = D:/Protein_go_brrr/autodock/final/6BB5/heme/dock.dpf
USER    NEWDPF move	heme_opt.pdbqt
USER    NEWDPF about	0.153000 0.018000 -0.028000
USER    NEWDPF tran0	39.469126 15.688250 11.760590
USER    NEWDPF axisangle0	-0.498228 0.733614 -0.462146 -175.302779
USER    NEWDPF quaternion0	-0.497810 0.732998 -0.461758 -0.040980
USER    NEWDPF dihe0	-140.51 160.15 -110.14 -35.87 40.08 108.31 -35.05 -91.18 153.74 28.29 -96.97 -97.13 -4.85 
USER  
USER                              x       y       z    vdW   Elec        q     RMS 
ATOM      1  O   UNL d   1      41.448  19.715   7.936 -0.27 +0.06    -0.289    39.517
ATOM      2  O   UNL d   1      43.333  18.355  15.077 -0.14 -0.06    -0.289    39.517
ATOM      3  N   UNL d   1      39.898  17.300   9.850 -0.11 -0.01    -0.247    39.517
ATOM      4  N   UNL d   1      41.487  17.294  12.361 -0.13 -0.02    -0.247    39.517
ATOM      5  N   UNL d   1      40.202  14.819  13.059 -0.08 -0.00    -0.354    39.517
ATOM      6  N   UNL d   1      38.572  14.823  10.443 -0.05 -0.02    -0.354    39.517
ATOM      7  C   UNL d   1      39.786  17.977   7.497 -0.16 -0.00    +0.084    39.517
ATOM      8  C   UNL d   1      42.652  19.360  12.951 -0.30 +0.02    +0.084    39.517
ATOM      9  C   UNL d   1      41.811  18.567  11.946 -0.29 +0.01    +0.058    39.517
ATOM     10  C   UNL d   1      39.315  17.048   8.620 -0.12 +0.00    +0.058    39.517
ATOM     11  C   UNL d   1      40.726  18.811   8.315 -0.23 -0.01    +0.193    39.517
ATOM     12  C   UNL d   1      40.685  18.319   9.729 -0.23 +0.00    +0.109    39.517
ATOM     13  C   UNL d   1      42.777  18.289  13.998 -0.17 +0.03    +0.193    39.517
ATOM     14  C   UNL d   1      40.590  17.228   6.431 -0.10 +0.00    +0.026    39.517
ATOM     15  C   UNL d   1      41.467  19.054  10.744 -0.31 +0.00    +0.055    39.517
ATOM     16  C   UNL d   1      41.870  20.537  13.542 -0.43 +0.00    +0.026    39.517
ATOM     17  C   UNL d   1      42.033  17.086  13.516 -0.20 +0.01    +0.109    39.517
ATOM     18  C   UNL d   1      38.348  16.134   8.416 -0.09 +0.00    +0.050    39.517
ATOM     19  C   UNL d   1      37.790  15.291   9.411 -0.10 +0.00    +0.045    39.517
ATOM     20  C   UNL d   1      41.168  14.865  14.031 -0.17 +0.00    +0.045    39.517
ATOM     21  C   UNL d   1      42.017  15.856  14.321 -0.13 +0.01    +0.057    39.517
ATOM     22  C   UNL d   1      40.107  12.845  14.141 -0.11 -0.00    -0.019    39.517
ATOM     23  C   UNL d   1      39.510  13.638  13.047 -0.14 +0.00    +0.045    39.517
ATOM     24  C   UNL d   1      41.087  13.578  14.720 -0.13 -0.00    -0.022    39.517
ATOM     25  C   UNL d   1      37.857  13.955  11.236 -0.13 +0.00    +0.049    39.517
ATOM     26  C   UNL d   1      36.526  14.743   9.558 -0.11 -0.00    -0.018    39.517
ATOM     27  C   UNL d   1      36.568  13.916  10.723 -0.12 +0.00    +0.003    39.517
ATOM     28  C   UNL d   1      38.495  13.222  12.273 -0.12 +0.00    +0.052    39.517
ATOM     29  C   UNL d   1      41.967  13.217  15.868 -0.04 +0.01    +0.046    39.517
ATOM     30  C   UNL d   1      35.347  14.974   8.674 -0.10 +0.00    +0.046    39.517
ATOM     31  H   UNL d   1      39.998  15.627  12.481 -0.03 -0.01    +0.166    39.517
ATOM     32  H   UNL d   1      39.549  15.064  10.559 +0.04 +0.01    +0.166    39.517
ATOM     33  C   UNL d   1      38.697  18.853   6.868 -0.19 -0.03    +0.141    39.517
ATOM     34  C   UNL d   1      39.067  19.339   5.493 -0.15 -0.06    +0.306    39.517
ATOM     35  O   UNL d   1      38.765  18.809   4.437 -0.05 +0.04    -0.251    39.517
ATOM     36  O   UNL d   1      39.796  20.468   5.520 -0.13 +0.16    -0.481    39.517
ATOM     37  H   UNL d   1      40.378  20.367   6.303 -0.39 -0.14    +0.295    39.517
ATOM     38  C   UNL d   1      35.472  13.147  11.230 -0.08 +0.00    +0.017    39.517
ATOM     39  C   UNL d   1      35.462  11.813  11.372 -0.05 +0.01    +0.092    39.517
ATOM     40  C   UNL d   1      34.278  11.147  11.922 -0.02 +0.04    +0.330    39.517
ATOM     41  O   UNL d   1      33.454  10.481  11.323 -0.01 -0.02    -0.246    39.517
ATOM     42  O   UNL d   1      34.202  11.357  13.245 -0.01 -0.06    -0.477    39.517
ATOM     43  H   UNL d   1      35.114  11.611  13.495 +0.03 +0.04    +0.295    39.517
ATOM     44  C   UNL d   1      44.032  19.804  12.454 -0.30 +0.05    +0.141    39.517
ATOM     45  C   UNL d   1      44.537  18.986  11.296 -0.21 +0.14    +0.306    39.517
ATOM     46  O   UNL d   1      45.046  17.880  11.354 -0.13 -0.13    -0.251    39.517
ATOM     47  O   UNL d   1      44.400  19.622  10.118 -0.17 -0.29    -0.481    39.517
ATOM     48  H   UNL d   1      45.041  20.363  10.160 -0.42 +0.18    +0.295    39.517
ATOM     49  C   UNL d   1      39.678  11.454  14.504 -0.06 +0.00    +0.048    39.517
ATOM     50  C   UNL d   1      38.534  11.458  15.517 -0.08 +0.01    +0.125    39.517
ATOM     51  C   UNL d   1      37.209  11.621  14.829 -0.05 +0.04    +0.305    39.517
ATOM     52  O   UNL d   1      36.570  12.648  14.680 -0.12 -0.04    -0.251    39.517
ATOM     53  O   UNL d   1      36.736  10.448  14.362 +0.00 -0.05    -0.481    39.517
ATOM     54  H   UNL d   1      35.767  10.511  14.497 +0.02 +0.03    +0.295    39.517
TER
ENDMDL
MODEL        1
USER    Run = 1
USER    Cluster Rank = 38
USER    Number of conformations in this cluster = 2
USER  
USER    RMSD from reference structure       = 41.312 A
USER  
USER    Estimated Free Energy of Binding    =   -3.54 kcal/mol  [=(1)+(2)+(3)-(4)]
USER    Estimated Inhibition Constant, Ki   =    2.54 mM (millimolar)  [Temperature = 298.15 K]
USER    
USER    (1) Final Intermolecular Energy     =   -7.42 kcal/mol
USER        vdW + Hbond + desolv Energy     =   -7.04 kcal/mol
USER        Electrostatic Energy            =   -0.38 kcal/mol
USER    (2) Final Total Internal Energy     =   -4.21 kcal/mol
USER    (3) Torsional Free Energy           =   +3.88 kcal/mol
USER    (4) Unbound System's Energy  [=(2)] =   -4.21 kcal/mol
USER    
USER    
USER  
USER    DPF = D:/Protein_go_brrr/autodock/final/6BB5/heme/dock.dpf
USER    NEWDPF move	heme_opt.pdbqt
USER    NEWDPF about	0.153000 0.018000 -0.028000
USER    NEWDPF tran0	25.335187 37.756400 -4.502528
USER    NEWDPF axisangle0	-0.109749 0.442156 0.890198 80.806682
USER    NEWDPF quaternion0	-0.071135 0.286590 0.576995 0.761501
USER    NEWDPF dihe0	173.30 -159.23 9.31 -70.07 -149.73 77.65 158.07 -104.95 11.44 17.36 -100.78 -80.19 -6.34 
USER  
USER                              x       y       z    vdW   Elec        q     RMS 
ATOM      1  O   UNL d   1      25.461  43.607  -5.214 -0.05 -0.03    -0.289    41.312
ATOM      2  O   UNL d   1      21.642  38.278  -8.875 -0.10 -0.12    -0.289    41.312
ATOM      3  N   UNL d   1      25.815  40.247  -4.524 -0.15 -0.03    -0.247    41.312
ATOM      4  N   UNL d   1      23.732  38.978  -6.220 -0.11 -0.03    -0.247    41.312
ATOM      5  N   UNL d   1      24.111  36.558  -4.714 -0.13 +0.02    -0.354    41.312
ATOM      6  N   UNL d   1      26.258  37.888  -2.946 -0.10 -0.02    -0.354    41.312
ATOM      7  C   UNL d   1      26.659  42.317  -3.519 -0.14 +0.01    +0.084    41.312
ATOM      8  C   UNL d   1      23.050  40.176  -8.237 -0.09 +0.02    +0.084    41.312
ATOM      9  C   UNL d   1      23.865  40.144  -6.940 -0.12 +0.01    +0.058    41.312
ATOM     10  C   UNL d   1      26.586  40.787  -3.508 -0.15 +0.01    +0.058    41.312
ATOM     11  C   UNL d   1      25.808  42.545  -4.731 -0.10 +0.02    +0.193    41.312
ATOM     12  C   UNL d   1      25.379  41.213  -5.264 -0.15 +0.01    +0.109    41.312
ATOM     13  C   UNL d   1      22.401  38.828  -8.101 -0.09 +0.05    +0.193    41.312
ATOM     14  C   UNL d   1      25.963  42.933  -2.302 -0.29 +0.00    +0.026    41.312
ATOM     15  C   UNL d   1      24.602  41.184  -6.520 -0.14 +0.01    +0.055    41.312
ATOM     16  C   UNL d   1      23.951  40.166  -9.475 -0.04 +0.00    +0.026    41.312
ATOM     17  C   UNL d   1      22.892  38.207  -6.834 -0.14 +0.02    +0.109    41.312
ATOM     18  C   UNL d   1      27.296  40.055  -2.629 -0.16 +0.00    +0.050    41.312
ATOM     19  C   UNL d   1      27.358  38.639  -2.598 -0.16 +0.00    +0.045    41.312
ATOM     20  C   UNL d   1      22.990  36.219  -5.426 -0.18 -0.00    +0.045    41.312
ATOM     21  C   UNL d   1      22.389  36.891  -6.413 -0.20 +0.00    +0.057    41.312
ATOM     22  C   UNL d   1      23.420  34.575  -3.900 -0.31 +0.00    -0.019    41.312
ATOM     23  C   UNL d   1      24.449  35.626  -3.769 -0.23 -0.00    +0.045    41.312
ATOM     24  C   UNL d   1      22.561  34.931  -4.883 -0.29 +0.00    -0.022    41.312
ATOM     25  C   UNL d   1      26.507  36.549  -2.758 -0.19 +0.00    +0.049    41.312
ATOM     26  C   UNL d   1      28.360  37.764  -2.209 -0.12 -0.00    -0.018    41.312
ATOM     27  C   UNL d   1      27.824  36.444  -2.330 -0.13 +0.00    +0.003    41.312
ATOM     28  C   UNL d   1      25.471  35.587  -2.900 -0.24 -0.00    +0.052    41.312
ATOM     29  C   UNL d   1      21.369  34.193  -5.393 -0.22 -0.00    +0.046    41.312
ATOM     30  C   UNL d   1      29.732  38.128  -1.753 -0.05 +0.00    +0.046    41.312
ATOM     31  H   UNL d   1      24.653  37.383  -4.948 +0.04 +0.00    +0.166    41.312
ATOM     32  H   UNL d   1      25.381  38.290  -3.256 +0.03 +0.01    +0.166    41.312
ATOM     33  C   UNL d   1      28.058  42.907  -3.725 -0.04 +0.01    +0.141    41.312
ATOM     34  C   UNL d   1      28.684  42.472  -5.023 -0.01 +0.02    +0.306    41.312
ATOM     35  O   UNL d   1      29.455  41.539  -5.174 -0.01 -0.01    -0.251    41.312
ATOM     36  O   UNL d   1      28.304  43.235  -6.063 +0.00 -0.03    -0.481    41.312
ATOM     37  H   UNL d   1      27.583  43.797  -5.707 +0.02 +0.02    +0.295    41.312
ATOM     38  C   UNL d   1      28.524  35.237  -2.013 -0.06 +0.00    +0.017    41.312
ATOM     39  C   UNL d   1      28.009  34.197  -1.339 -0.08 +0.02    +0.092    41.312
ATOM     40  C   UNL d   1      28.829  33.007  -1.094 -0.04 +0.20    +0.330    41.312
ATOM     41  O   UNL d   1      29.727  32.877  -0.284 -0.60 -0.28    -0.246    41.312
ATOM     42  O   UNL d   1      28.451  32.010  -1.909 -0.02 -0.18    -0.477    41.312
ATOM     43  H   UNL d   1      27.983  32.467  -2.638 +0.04 +0.04    +0.295    41.312
ATOM     44  C   UNL d   1      21.996  41.285  -8.328 -0.14 +0.04    +0.141    41.312
ATOM     45  C   UNL d   1      21.392  41.642  -6.996 -0.19 +0.08    +0.306    41.312
ATOM     46  O   UNL d   1      21.509  42.701  -6.405 -0.23 -0.05    -0.251    41.312
ATOM     47  O   UNL d   1      20.690  40.627  -6.461 -0.13 -0.13    -0.481    41.312
ATOM     48  H   UNL d   1      20.241  41.019  -5.682 -0.37 -0.01    +0.295    41.312
ATOM     49  C   UNL d   1      23.366  33.339  -3.050 -0.42 -0.02    +0.048    41.312
ATOM     50  C   UNL d   1      24.165  32.190  -3.665 -0.22 -0.07    +0.125    41.312
ATOM     51  C   UNL d   1      25.633  32.349  -3.385 -0.06 -0.07    +0.305    41.312
ATOM     52  O   UNL d   1      26.518  32.605  -4.183 -0.02 +0.03    -0.251    41.312
ATOM     53  O   UNL d   1      25.921  32.159  -2.082 -0.03 +0.05    -0.481    41.312
ATOM     54  H   UNL d   1      26.403  31.306  -2.066 +0.08 -0.02    +0.295    41.312
TER
ENDMDL
MODEL       59
USER    Run = 59
USER    Cluster Rank = 39
USER    Number of conformations in this cluster = 1
USER  
USER    RMSD from reference structure       = 41.402 A
USER  
USER    Estimated Free Energy of Binding    =   -3.51 kcal/mol  [=(1)+(2)+(3)-(4)]
USER    Estimated Inhibition Constant, Ki   =    2.69 mM (millimolar)  [Temperature = 298.15 K]
USER    
USER    (1) Final Intermolecular Energy     =   -7.38 kcal/mol
USER        vdW + Hbond + desolv Energy     =   -7.21 kcal/mol
USER        Electrostatic Energy            =   -0.17 kcal/mol
USER    (2) Final Total Internal Energy     =   -2.58 kcal/mol
USER    (3) Torsional Free Energy           =   +3.88 kcal/mol
USER    (4) Unbound System's Energy  [=(2)] =   -2.58 kcal/mol
USER    
USER    
USER  
USER    DPF = D:/Protein_go_brrr/autodock/final/6BB5/heme/dock.dpf
USER    NEWDPF move	heme_opt.pdbqt
USER    NEWDPF about	0.153000 0.018000 -0.028000
USER    NEWDPF tran0	11.541007 42.328083 -10.925340
USER    NEWDPF axisangle0	0.431018 -0.898874 0.079050 -138.857755
USER    NEWDPF quaternion0	0.403535 -0.841559 0.074009 -0.351370
USER    NEWDPF dihe0	137.82 110.55 179.99 -53.08 -136.56 46.23 145.80 -169.00 17.85 -9.25 -85.33 22.07 144.32 
USER  
USER                              x       y       z    vdW   Elec        q     RMS 
ATOM      1  O   UNL d   1      12.360  46.703 -14.791 -0.00 +0.03    -0.289    41.402
ATOM      2  O   UNL d   1      17.060  41.424 -12.254 -0.38 -0.22    -0.289    41.402
ATOM      3  N   UNL d   1      11.458  44.397 -12.390 -0.06 +0.19    -0.247    41.402
ATOM      4  N   UNL d   1      13.809  42.584 -12.267 -0.06 +0.14    -0.247    41.402
ATOM      5  N   UNL d   1      12.190  40.736 -10.776 -0.03 +0.36    -0.354    41.402
ATOM      6  N   UNL d   1       9.750  42.613 -10.925 +0.09 +0.41    -0.354    41.402
ATOM      7  C   UNL d   1      10.275  46.136 -13.648 -0.01 -0.01    +0.084    41.402
ATOM      8  C   UNL d   1      15.973  43.514 -12.920 -0.05 -0.00    +0.084    41.402
ATOM      9  C   UNL d   1      14.456  43.683 -12.789 -0.07 -0.02    +0.058    41.402
ATOM     10  C   UNL d   1      10.237  45.013 -12.608 -0.07 -0.02    +0.058    41.402
ATOM     11  C   UNL d   1      11.737  46.058 -13.967 -0.01 -0.03    +0.193    41.402
ATOM     12  C   UNL d   1      12.348  44.984 -13.122 -0.06 -0.04    +0.109    41.402
ATOM     13  C   UNL d   1      16.064  42.104 -12.410 -0.11 +0.04    +0.193    41.402
ATOM     14  C   UNL d   1       9.474  45.782 -14.904 -0.00 -0.00    +0.026    41.402
ATOM     15  C   UNL d   1      13.810  44.786 -13.198 -0.06 -0.02    +0.055    41.402
ATOM     16  C   UNL d   1      16.731  44.435 -11.959 -0.09 +0.00    +0.026    41.402
ATOM     17  C   UNL d   1      14.684  41.654 -12.055 -0.15 -0.02    +0.109    41.402
ATOM     18  C   UNL d   1       9.117  44.734 -11.915 -0.09 -0.02    +0.050    41.402
ATOM     19  C   UNL d   1       9.010  43.773 -10.877 -0.11 -0.03    +0.045    41.402
ATOM     20  C   UNL d   1      13.285  39.948 -11.017 -0.21 -0.01    +0.045    41.402
ATOM     21  C   UNL d   1      14.457  40.286 -11.565 -0.24 +0.00    +0.057    41.402
ATOM     22  C   UNL d   1      11.656  38.671 -10.051 -0.24 +0.01    -0.019    41.402
ATOM     23  C   UNL d   1      11.155  40.052 -10.195 -0.19 -0.03    +0.045    41.402
ATOM     24  C   UNL d   1      12.918  38.616 -10.538 -0.26 +0.00    -0.022    41.402
ATOM     25  C   UNL d   1       9.425  41.789  -9.873 -0.06 -0.05    +0.049    41.402
ATOM     26  C   UNL d   1       8.212  43.718  -9.745 -0.20 +0.01    -0.018    41.402
ATOM     27  C   UNL d   1       8.492  42.471  -9.104 -0.17 -0.00    +0.003    41.402
ATOM     28  C   UNL d   1       9.943  40.468  -9.795 -0.19 -0.04    +0.052    41.402
ATOM     29  C   UNL d   1      13.843  37.448 -10.603 -0.35 +0.01    +0.046    41.402
ATOM     30  C   UNL d   1       7.248  44.758  -9.283 -0.12 -0.01    +0.046    41.402
ATOM     31  H   UNL d   1      12.212  41.735 -10.949 -0.50 -0.35    +0.166    41.402
ATOM     32  H   UNL d   1      10.407  42.398 -11.666 -0.12 -0.17    +0.166    41.402
ATOM     33  C   UNL d   1       9.912  47.530 -13.124 -0.02 -0.02    +0.141    41.402
ATOM     34  C   UNL d   1      10.910  48.051 -12.126 -0.02 -0.04    +0.306    41.402
ATOM     35  O   UNL d   1      10.945  47.785 -10.937 -0.09 +0.05    -0.251    41.402
ATOM     36  O   UNL d   1      11.814  48.878 -12.681 +0.00 +0.04    -0.481    41.402
ATOM     37  H   UNL d   1      12.083  48.430 -13.510 +0.02 -0.02    +0.295    41.402
ATOM     38  C   UNL d   1       7.870  42.003  -7.903 -0.28 -0.01    +0.017    41.402
ATOM     39  C   UNL d   1       8.515  41.686  -6.770 -0.30 -0.07    +0.092    41.402
ATOM     40  C   UNL d   1       7.758  41.234  -5.600 -0.20 -0.10    +0.330    41.402
ATOM     41  O   UNL d   1       6.841  40.434  -5.572 -0.12 +0.02    -0.246    41.402
ATOM     42  O   UNL d   1       8.221  41.829  -4.491 -0.28 +0.14    -0.477    41.402
ATOM     43  H   UNL d   1       9.106  41.430  -4.362 -0.36 -0.19    +0.295    41.402
ATOM     44  C   UNL d   1      16.529  43.620 -14.344 -0.01 +0.01    +0.141    41.402
ATOM     45  C   UNL d   1      15.942  42.604 -15.288 +0.01 +0.02    +0.306    41.402
ATOM     46  O   UNL d   1      15.072  42.801 -16.118 +0.00 -0.00    -0.251    41.402
ATOM     47  O   UNL d   1      16.469  41.378 -15.116 +0.01 -0.08    -0.481    41.402
ATOM     48  H   UNL d   1      17.130  41.490 -14.400 +0.03 +0.08    +0.295    41.402
ATOM     49  C   UNL d   1      10.857  37.541  -9.471 -0.32 -0.01    +0.048    41.402
ATOM     50  C   UNL d   1       9.588  37.268 -10.278 -0.19 -0.01    +0.125    41.402
ATOM     51  C   UNL d   1       9.814  36.165 -11.274 -0.20 -0.04    +0.305    41.402
ATOM     52  O   UNL d   1       9.038  35.760 -12.122 -0.18 +0.02    -0.251    41.402
ATOM     53  O   UNL d   1      11.033  35.606 -11.140 -0.17 +0.10    -0.481    41.402
ATOM     54  H   UNL d   1      10.847  34.649 -11.048 -0.39 -0.14    +0.295    41.402
TER
ENDMDL
MODEL       85
USER    Run = 85
USER    Cluster Rank = 40
USER    Number of conformations in this cluster = 1
USER  
USER    RMSD from reference structure       = 40.281 A
USER  
USER    Estimated Free Energy of Binding    =   -3.50 kcal/mol  [=(1)+(2)+(3)-(4)]
USER    Estimated Inhibition Constant, Ki   =    2.72 mM (millimolar)  [Temperature = 298.15 K]
USER    
USER    (1) Final Intermolecular Energy     =   -7.38 kcal/mol
USER        vdW + Hbond + desolv Energy     =   -7.16 kcal/mol
USER        Electrostatic Energy            =   -0.21 kcal/mol
USER    (2) Final Total Internal Energy     =   -4.64 kcal/mol
USER    (3) Torsional Free Energy           =   +3.88 kcal/mol
USER    (4) Unbound System's Energy  [=(2)] =   -4.64 kcal/mol
USER    
USER    
USER  
USER    DPF = D:/Protein_go_brrr/autodock/final/6BB5/heme/dock.dpf
USER    NEWDPF move	heme_opt.pdbqt
USER    NEWDPF about	0.153000 0.018000 -0.028000
USER    NEWDPF tran0	24.137108 37.537370 -4.813456
USER    NEWDPF axisangle0	0.890330 -0.154065 0.428458 -159.621957
USER    NEWDPF quaternion0	0.876289 -0.151635 0.421701 -0.176896
USER    NEWDPF dihe0	-180.00 -177.76 -104.55 58.85 -151.58 78.33 121.29 40.28 34.81 -30.14 -72.98 -124.15 15.26 
USER  
USER                              x       y       z    vdW   Elec        q     RMS 
ATOM      1  O   UNL d   1      20.523  36.402  -9.331 -0.10 -0.14    -0.289    40.281
ATOM      2  O   UNL d   1      23.476  42.858  -6.884 -0.07 -0.04    -0.289    40.281
ATOM      3  N   UNL d   1      22.510  36.600  -6.519 -0.08 -0.02    -0.247    40.281
ATOM      4  N   UNL d   1      23.428  39.426  -6.529 -0.11 -0.04    -0.247    40.281
ATOM      5  N   UNL d   1      25.385  38.700  -4.552 -0.15 -0.03    -0.354    40.281
ATOM      6  N   UNL d   1      24.439  35.767  -4.561 -0.10 +0.03    -0.354    40.281
ATOM      7  C   UNL d   1      21.500  34.769  -7.796 -0.09 -0.00    +0.084    40.281
ATOM      8  C   UNL d   1      21.999  41.062  -7.648 -0.18 +0.02    +0.084    40.281
ATOM      9  C   UNL d   1      22.299  39.601  -7.297 -0.20 +0.01    +0.058    40.281
ATOM     10  C   UNL d   1      22.364  35.227  -6.618 -0.12 -0.00    +0.058    40.281
ATOM     11  C   UNL d   1      21.168  36.128  -8.335 -0.07 +0.05    +0.193    40.281
ATOM     12  C   UNL d   1      21.817  37.154  -7.460 -0.12 +0.02    +0.109    40.281
ATOM     13  C   UNL d   1      23.188  41.680  -6.968 -0.10 +0.03    +0.193    40.281
ATOM     14  C   UNL d   1      22.315  34.006  -8.844 -0.06 -0.00    +0.026    40.281
ATOM     15  C   UNL d   1      21.552  38.579  -7.744 -0.24 +0.02    +0.055    40.281
ATOM     16  C   UNL d   1      20.725  41.561  -6.961 -0.24 +0.01    +0.026    40.281
ATOM     17  C   UNL d   1      23.978  40.582  -6.335 -0.11 +0.02    +0.109    40.281
ATOM     18  C   UNL d   1      22.850  34.349  -5.720 -0.21 -0.01    +0.050    40.281
ATOM     19  C   UNL d   1      23.586  34.687  -4.555 -0.23 -0.01    +0.045    40.281
ATOM     20  C   UNL d   1      25.816  39.966  -4.856 -0.19 +0.00    +0.045    40.281
ATOM     21  C   UNL d   1      25.231  40.886  -5.629 -0.17 +0.01    +0.057    40.281
ATOM     22  C   UNL d   1      27.341  38.980  -3.470 -0.17 -0.00    -0.019    40.281
ATOM     23  C   UNL d   1      26.241  38.027  -3.721 -0.23 +0.00    +0.045    40.281
ATOM     24  C   UNL d   1      27.083  40.126  -4.144 -0.15 -0.00    -0.022    40.281
ATOM     25  C   UNL d   1      25.114  35.856  -3.366 -0.21 -0.00    +0.049    40.281
ATOM     26  C   UNL d   1      23.680  34.081  -3.312 -0.33 +0.00    -0.018    40.281
ATOM     27  C   UNL d   1      24.633  34.835  -2.558 -0.29 -0.00    +0.003    40.281
ATOM     28  C   UNL d   1      26.165  36.797  -3.191 -0.25 +0.00    +0.052    40.281
ATOM     29  C   UNL d   1      27.888  41.380  -4.195 -0.08 +0.00    +0.046    40.281
ATOM     30  C   UNL d   1      22.932  32.877  -2.849 -0.44 -0.02    +0.046    40.281
ATOM     31  H   UNL d   1      24.481  38.363  -4.863 +0.03 +0.01    +0.166    40.281
ATOM     32  H   UNL d   1      24.568  36.374  -5.362 +0.04 -0.00    +0.166    40.281
ATOM     33  C   UNL d   1      20.221  34.013  -7.419 -0.18 -0.00    +0.141    40.281
ATOM     34  C   UNL d   1      19.089  34.936  -7.057 -0.24 +0.06    +0.306    40.281
ATOM     35  O   UNL d   1      18.757  35.260  -5.929 -0.50 -0.06    -0.251    40.281
ATOM     36  O   UNL d   1      18.435  35.402  -8.135 -0.13 -0.22    -0.481    40.281
ATOM     37  H   UNL d   1      18.922  35.028  -8.900 +0.12 +0.11    +0.295    40.281
ATOM     38  C   UNL d   1      25.043  34.542  -1.218 -0.20 -0.00    +0.017    40.281
ATOM     39  C   UNL d   1      26.100  33.789  -0.879 -0.23 +0.01    +0.092    40.281
ATOM     40  C   UNL d   1      26.424  33.579   0.534 -0.18 +0.10    +0.330    40.281
ATOM     41  O   UNL d   1      25.865  32.842   1.324 -0.32 -0.03    -0.246    40.281
ATOM     42  O   UNL d   1      27.479  34.332   0.883 -0.05 -0.23    -0.477    40.281
ATOM     43  H   UNL d   1      27.692  34.830   0.067 +0.09 +0.09    +0.295    40.281
ATOM     44  C   UNL d   1      21.988  41.393  -9.144 -0.10 +0.04    +0.141    40.281
ATOM     45  C   UNL d   1      23.366  41.573  -9.723 -0.01 +0.05    +0.306    40.281
ATOM     46  O   UNL d   1      24.154  40.690 -10.013 -0.01 -0.03    -0.251    40.281
ATOM     47  O   UNL d   1      23.693  42.869  -9.881 +0.01 -0.05    -0.481    40.281
ATOM     48  H   UNL d   1      23.881  43.190  -8.973 +0.03 +0.03    +0.295    40.281
ATOM     49  C   UNL d   1      28.538  38.679  -2.616 -0.11 +0.00    +0.048    40.281
ATOM     50  C   UNL d   1      28.164  38.543  -1.140 -0.12 +0.01    +0.125    40.281
ATOM     51  C   UNL d   1      28.239  37.110  -0.698 -0.09 +0.03    +0.305    40.281
ATOM     52  O   UNL d   1      29.019  36.255  -1.078 -0.04 -0.03    -0.251    40.281
ATOM     53  O   UNL d   1      27.294  36.814   0.217 -0.01 -0.04    -0.481    40.281
ATOM     54  H   UNL d   1      27.804  36.503   0.994 +0.10 +0.03    +0.295    40.281
TER
ENDMDL
MODEL       13
USER    Run = 13
USER    Cluster Rank = 41
USER    Number of conformations in this cluster = 1
USER  
USER    RMSD from reference structure       = 25.871 A
USER  
USER    Estimated Free Energy of Binding    =   -3.48 kcal/mol  [=(1)+(2)+(3)-(4)]
USER    Estimated Inhibition Constant, Ki   =    2.83 mM (millimolar)  [Temperature = 298.15 K]
USER    
USER    (1) Final Intermolecular Energy     =   -7.35 kcal/mol
USER        vdW + Hbond + desolv Energy     =   -6.96 kcal/mol
USER        Electrostatic Energy            =   -0.39 kcal/mol
USER    (2) Final Total Internal Energy     =   -2.63 kcal/mol
USER    (3) Torsional Free Energy           =   +3.88 kcal/mol
USER    (4) Unbound System's Energy  [=(2)] =   -2.63 kcal/mol
USER    
USER    
USER  
USER    DPF = D:/Protein_go_brrr/autodock/final/6BB5/heme/dock.dpf
USER    NEWDPF move	heme_opt.pdbqt
USER    NEWDPF about	0.153000 0.018000 -0.028000
USER    NEWDPF tran0	16.383717 22.768319 -10.922607
USER    NEWDPF axisangle0	0.764726 0.619133 0.178517 -167.906533
USER    NEWDPF quaternion0	0.760471 0.615689 0.177524 -0.105340
USER    NEWDPF dihe0	91.15 13.31 -100.14 12.01 -151.33 -153.22 125.70 -16.39 23.33 -28.09 61.08 -22.32 122.72 
USER  
USER                              x       y       z    vdW   Elec        q     RMS 
ATOM      1  O   UNL d   1      17.158  16.971 -11.663 -0.05 +0.17    -0.289    25.871
ATOM      2  O   UNL d   1      10.921  21.153 -11.687 -0.18 +0.05    -0.289    25.871
ATOM      3  N   UNL d   1      17.181  20.363 -11.041 -0.12 +0.17    -0.247    25.871
ATOM      4  N   UNL d   1      14.369  21.172 -11.560 -0.11 +0.15    -0.247    25.871
ATOM      5  N   UNL d   1      15.253  23.908 -11.556 -0.10 +0.15    -0.354    25.871
ATOM      6  N   UNL d   1      18.170  23.059 -11.037 -0.09 +0.11    -0.354    25.871
ATOM      7  C   UNL d   1      18.906  18.646 -11.330 -0.07 -0.04    +0.084    25.871
ATOM      8  C   UNL d   1      12.645  19.464 -11.281 -0.14 -0.04    +0.084    25.871
ATOM      9  C   UNL d   1      14.130  19.840 -11.308 -0.17 -0.04    +0.058    25.871
ATOM     10  C   UNL d   1      18.542  20.112 -11.074 -0.10 -0.03    +0.058    25.871
ATOM     11  C   UNL d   1      17.509  18.111 -11.418 -0.08 -0.13    +0.193    25.871
ATOM     12  C   UNL d   1      16.554  19.244 -11.201 -0.14 -0.09    +0.109    25.871
ATOM     13  C   UNL d   1      12.087  20.822 -11.600 -0.14 -0.08    +0.193    25.871
ATOM     14  C   UNL d   1      19.597  18.454 -12.682 -0.02 -0.01    +0.026    25.871
ATOM     15  C   UNL d   1      15.110  18.937 -11.152 -0.16 -0.05    +0.055    25.871
ATOM     16  C   UNL d   1      12.187  19.062  -9.875 -0.32 -0.01    +0.026    25.871
ATOM     17  C   UNL d   1      13.235  21.766 -11.753 -0.13 -0.07    +0.109    25.871
ATOM     18  C   UNL d   1      19.487  21.036 -10.815 -0.11 -0.02    +0.050    25.871
ATOM     19  C   UNL d   1      19.241  22.393 -10.485 -0.15 -0.01    +0.045    25.871
ATOM     20  C   UNL d   1      13.972  24.075 -12.015 -0.24 -0.03    +0.045    25.871
ATOM     21  C   UNL d   1      12.993  23.170 -12.114 -0.22 -0.04    +0.057    25.871
ATOM     22  C   UNL d   1      15.068  26.075 -12.142 -0.26 +0.01    -0.019    25.871
ATOM     23  C   UNL d   1      15.991  25.061 -11.595 -0.17 -0.01    +0.045    25.871
ATOM     24  C   UNL d   1      13.874  25.486 -12.388 -0.29 +0.01    -0.022    25.871
ATOM     25  C   UNL d   1      18.174  24.381 -10.654 -0.15 -0.01    +0.049    25.871
ATOM     26  C   UNL d   1      19.937  23.294  -9.694 -0.16 +0.00    -0.018    25.871
ATOM     27  C   UNL d   1      19.247  24.543  -9.789 -0.20 -0.00    +0.003    25.871
ATOM     28  C   UNL d   1      17.256  25.307 -11.221 -0.09 -0.01    +0.052    25.871
ATOM     29  C   UNL d   1      12.627  26.096 -12.930 -0.32 -0.03    +0.046    25.871
ATOM     30  C   UNL d   1      21.165  23.015  -8.896 -0.10 -0.01    +0.046    25.871
ATOM     31  H   UNL d   1      15.559  23.026 -11.160 +0.05 -0.08    +0.166    25.871
ATOM     32  H   UNL d   1      17.507  22.628 -11.669 +0.04 -0.05    +0.166    25.871
ATOM     33  C   UNL d   1      19.677  17.954 -10.201 -0.08 -0.07    +0.141    25.871
ATOM     34  C   UNL d   1      18.823  17.698  -8.988 -0.09 -0.29    +0.306    25.871
ATOM     35  O   UNL d   1      18.763  18.395  -7.990 -0.08 +0.25    -0.251    25.871
ATOM     36  O   UNL d   1      18.088  16.577  -9.099 -0.05 +0.63    -0.481    25.871
ATOM     37  H   UNL d   1      17.240  16.876  -9.490 -0.03 -0.54    +0.295    25.871
ATOM     38  C   UNL d   1      19.640  25.754  -9.135 -0.26 -0.00    +0.017    25.871
ATOM     39  C   UNL d   1      18.870  26.844  -8.994 -0.26 -0.03    +0.092    25.871
ATOM     40  C   UNL d   1      19.387  28.017  -8.286 -0.27 -0.18    +0.330    25.871
ATOM     41  O   UNL d   1      18.750  28.883  -7.717 -0.48 +0.14    -0.246    25.871
ATOM     42  O   UNL d   1      20.728  28.029  -8.330 -0.09 +0.43    -0.477    25.871
ATOM     43  H   UNL d   1      20.979  28.703  -7.666 -0.25 -0.62    +0.295    25.871
ATOM     44  C   UNL d   1      12.206  18.430 -12.323 -0.03 -0.03    +0.141    25.871
ATOM     45  C   UNL d   1      12.042  19.011 -13.703 +0.01 -0.04    +0.306    25.871
ATOM     46  O   UNL d   1      12.928  19.222 -14.512 +0.00 +0.04    -0.251    25.871
ATOM     47  O   UNL d   1      10.763  19.324 -13.981 +0.01 +0.01    -0.481    25.871
ATOM     48  H   UNL d   1      10.612  20.178 -13.524 +0.04 -0.01    +0.295    25.871
ATOM     49  C   UNL d   1      15.440  27.508 -12.386 -0.19 -0.01    +0.048    25.871
ATOM     50  C   UNL d   1      16.859  27.642 -12.939 -0.14 -0.02    +0.125    25.871
ATOM     51  C   UNL d   1      17.729  28.427 -11.999 -0.10 -0.05    +0.305    25.871
ATOM     52  O   UNL d   1      17.374  29.224 -11.148 -0.24 +0.05    -0.251    25.871
ATOM     53  O   UNL d   1      19.038  28.171 -12.191 +0.01 +0.08    -0.481    25.871
ATOM     54  H   UNL d   1      19.477  28.580 -11.416 +0.08 -0.06    +0.295    25.871
TER
ENDMDL
MODEL       66
USER    Run = 66
USER    Cluster Rank = 42
USER    Number of conformations in this cluster = 1
USER  
USER    RMSD from reference structure       = 42.682 A
USER  
USER    Estimated Free Energy of Binding    =   -3.46 kcal/mol  [=(1)+(2)+(3)-(4)]
USER    Estimated Inhibition Constant, Ki   =    2.90 mM (millimolar)  [Temperature = 298.15 K]
USER    
USER    (1) Final Intermolecular Energy     =   -7.34 kcal/mol
USER        vdW + Hbond + desolv Energy     =   -7.24 kcal/mol
USER        Electrostatic Energy            =   -0.10 kcal/mol
USER    (2) Final Total Internal Energy     =   -3.91 kcal/mol
USER    (3) Torsional Free Energy           =   +3.88 kcal/mol
USER    (4) Unbound System's Energy  [=(2)] =   -3.91 kcal/mol
USER    
USER    
USER  
USER    DPF = D:/Protein_go_brrr/autodock/final/6BB5/heme/dock.dpf
USER    NEWDPF move	heme_opt.pdbqt
USER    NEWDPF about	0.153000 0.018000 -0.028000
USER    NEWDPF tran0	38.180832 28.523774 -0.507683
USER    NEWDPF axisangle0	-0.221375 -0.972453 -0.072991 -154.676073
USER    NEWDPF quaternion0	-0.215991 -0.948803 -0.071216 -0.219199
USER    NEWDPF dihe0	-160.28 -138.69 -167.58 4.53 -139.55 -60.63 141.53 -153.43 -27.01 -16.07 -77.91 -5.86 -7.74 
USER  
USER                              x       y       z    vdW   Elec        q     RMS 
ATOM      1  O   UNL d   1      43.225  28.062  -3.525 -0.07 +0.01    -0.289    42.682
ATOM      2  O   UNL d   1      38.805  22.810  -0.479 -0.03 +0.03    -0.289    42.682
ATOM      3  N   UNL d   1      40.396  28.827  -1.706 -0.10 +0.00    -0.247    42.682
ATOM      4  N   UNL d   1      39.176  26.167  -1.190 -0.10 +0.00    -0.247    42.682
ATOM      5  N   UNL d   1      36.778  27.527  -0.376 -0.01 -0.00    -0.354    42.682
ATOM      6  N   UNL d   1      38.044  30.282  -0.932 -0.04 +0.01    -0.354    42.682
ATOM      7  C   UNL d   1      42.008  30.122  -3.022 -0.08 -0.00    +0.084    42.682
ATOM      8  C   UNL d   1      40.674  24.236  -1.163 -0.11 +0.00    +0.084    42.682
ATOM      9  C   UNL d   1      40.466  25.735  -1.405 -0.16 +0.00    +0.058    42.682
ATOM     10  C   UNL d   1      40.744  30.089  -2.157 -0.12 -0.00    +0.058    42.682
ATOM     11  C   UNL d   1      42.322  28.657  -2.964 -0.10 -0.00    +0.193    42.682
ATOM     12  C   UNL d   1      41.288  27.985  -2.116 -0.15 +0.00    +0.109    42.682
ATOM     13  C   UNL d   1      39.255  23.891  -0.807 -0.07 -0.01    +0.193    42.682
ATOM     14  C   UNL d   1      41.702  30.506  -4.471 -0.03 -0.00    +0.026    42.682
ATOM     15  C   UNL d   1      41.445  26.543  -1.839 -0.18 +0.00    +0.055    42.682
ATOM     16  C   UNL d   1      41.564  23.976   0.056 -0.24 +0.00    +0.026    42.682
ATOM     17  C   UNL d   1      38.448  25.146  -0.868 -0.12 -0.01    +0.109    42.682
ATOM     18  C   UNL d   1      40.102  31.219  -1.807 -0.13 -0.00    +0.050    42.682
ATOM     19  C   UNL d   1      38.978  31.293  -0.945 -0.15 -0.00    +0.045    42.682
ATOM     20  C   UNL d   1      36.315  26.238  -0.416 -0.11 -0.00    +0.045    42.682
ATOM     21  C   UNL d   1      37.001  25.107  -0.607 -0.15 -0.01    +0.057    42.682
ATOM     22  C   UNL d   1      34.552  27.644  -0.046 -0.16 -0.00    -0.019    42.682
ATOM     23  C   UNL d   1      35.786  28.447  -0.158 -0.05 +0.00    +0.045    42.682
ATOM     24  C   UNL d   1      34.872  26.337  -0.199 -0.17 +0.00    -0.022    42.682
ATOM     25  C   UNL d   1      36.999  30.600  -0.096 -0.15 -0.00    +0.049    42.682
ATOM     26  C   UNL d   1      38.548  32.276  -0.067 -0.22 +0.00    -0.018    42.682
ATOM     27  C   UNL d   1      37.308  31.824   0.481 -0.21 -0.00    +0.003    42.682
ATOM     28  C   UNL d   1      35.838  29.782  -0.036 -0.15 +0.00    +0.052    42.682
ATOM     29  C   UNL d   1      33.976  25.146  -0.156 -0.18 -0.01    +0.046    42.682
ATOM     30  C   UNL d   1      39.245  33.556   0.247 -0.35 -0.01    +0.046    42.682
ATOM     31  H   UNL d   1      37.770  27.732  -0.426 +0.05 +0.00    +0.166    42.682
ATOM     32  H   UNL d   1      38.115  29.446  -1.500 +0.04 -0.00    +0.166    42.682
ATOM     33  C   UNL d   1      43.170  30.944  -2.455 -0.16 -0.01    +0.141    42.682
ATOM     34  C   UNL d   1      43.060  31.157  -0.970 -0.27 -0.02    +0.306    42.682
ATOM     35  O   UNL d   1      42.431  32.042  -0.414 -0.27 +0.01    -0.251    42.682
ATOM     36  O   UNL d   1      43.745  30.241  -0.262 -0.44 +0.02    -0.481    42.682
ATOM     37  H   UNL d   1      44.363  29.841  -0.910 -0.27 -0.07    +0.295    42.682
ATOM     38  C   UNL d   1      36.510  32.548   1.425 -0.29 -0.00    +0.017    42.682
ATOM     39  C   UNL d   1      35.726  31.993   2.362 -0.31 +0.00    +0.092    42.682
ATOM     40  C   UNL d   1      34.971  32.849   3.281 -0.21 +0.03    +0.330    42.682
ATOM     41  O   UNL d   1      35.413  33.634   4.098 -0.37 -0.03    -0.246    42.682
ATOM     42  O   UNL d   1      33.653  32.665   3.106 -0.04 -0.14    -0.477    42.682
ATOM     43  H   UNL d   1      33.564  31.697   2.993 +0.16 +0.10    +0.295    42.682
ATOM     44  C   UNL d   1      41.147  23.430  -2.377 -0.04 +0.00    +0.141    42.682
ATOM     45  C   UNL d   1      40.129  23.373  -3.485 -0.01 +0.00    +0.306    42.682
ATOM     46  O   UNL d   1      40.093  24.081  -4.477 -0.00 -0.00    -0.251    42.682
ATOM     47  O   UNL d   1      39.186  22.437  -3.270 +0.00 +0.01    -0.481    42.682
ATOM     48  H   UNL d   1      39.316  22.164  -2.337 +0.01 -0.01    +0.295    42.682
ATOM     49  C   UNL d   1      33.187  28.223   0.182 -0.17 +0.01    +0.048    42.682
ATOM     50  C   UNL d   1      32.850  28.315   1.670 -0.31 +0.03    +0.125    42.682
ATOM     51  C   UNL d   1      32.992  29.725   2.167 -0.23 +0.13    +0.305    42.682
ATOM     52  O   UNL d   1      33.137  30.097   3.318 -0.32 -0.08    -0.251    42.682
ATOM     53  O   UNL d   1      32.931  30.622   1.162 -0.04 -0.24    -0.481    42.682
ATOM     54  H   UNL d   1      33.102  31.482   1.600 +0.10 +0.14    +0.295    42.682
TER
ENDMDL
MODEL       68
USER    Run = 68
USER    Cluster Rank = 43
USER    Number of conformations in this cluster = 1
USER  
USER    RMSD from reference structure       = 28.737 A
USER  
USER    Estimated Free Energy of Binding    =   -3.37 kcal/mol  [=(1)+(2)+(3)-(4)]
USER    Estimated Inhibition Constant, Ki   =    3.39 mM (millimolar)  [Temperature = 298.15 K]
USER    
USER    (1) Final Intermolecular Energy     =   -7.25 kcal/mol
USER        vdW + Hbond + desolv Energy     =   -6.67 kcal/mol
USER        Electrostatic Energy            =   -0.58 kcal/mol
USER    (2) Final Total Internal Energy     =   -2.42 kcal/mol
USER    (3) Torsional Free Energy           =   +3.88 kcal/mol
USER    (4) Unbound System's Energy  [=(2)] =   -2.42 kcal/mol
USER    
USER    
USER  
USER    DPF = D:/Protein_go_brrr/autodock/final/6BB5/heme/dock.dpf
USER    NEWDPF move	heme_opt.pdbqt
USER    NEWDPF about	0.153000 0.018000 -0.028000
USER    NEWDPF tran0	2.480788 31.763412 -5.637181
USER    NEWDPF axisangle0	-0.838660 0.089013 0.537332 178.751908
USER    NEWDPF quaternion0	-0.838611 0.089007 0.537300 0.010891
USER    NEWDPF dihe0	131.07 84.33 -86.52 178.48 -132.51 -65.37 129.26 24.26 28.14 -66.45 23.36 -44.17 173.55 
USER  
USER                              x       y       z    vdW   Elec        q     RMS 
ATOM      1  O   UNL d   1      -0.619  31.055  -0.673 -0.01 -0.00    -0.289    28.737
ATOM      2  O   UNL d   1       3.493  36.837  -3.133 -0.05 -0.07    -0.289    28.737
ATOM      3  N   UNL d   1       1.155  30.962  -3.629 -0.07 +0.00    -0.247    28.737
ATOM      4  N   UNL d   1       2.184  33.736  -3.896 -0.06 -0.02    -0.247    28.737
ATOM      5  N   UNL d   1       2.846  33.129  -6.627 +0.02 -0.03    -0.354    28.737
ATOM      6  N   UNL d   1       1.758  30.259  -6.347 -0.07 +0.01    -0.354    28.737
ATOM      7  C   UNL d   1      -0.437  29.464  -2.520 -0.07 -0.01    +0.084    28.737
ATOM      8  C   UNL d   1       2.489  35.018  -1.838 -0.10 +0.02    +0.084    28.737
ATOM      9  C   UNL d   1       1.994  33.745  -2.532 -0.08 +0.01    +0.058    28.737
ATOM     10  C   UNL d   1       0.473  29.759  -3.715 -0.11 -0.00    +0.058    28.737
ATOM     11  C   UNL d   1      -0.135  30.704  -1.733 -0.03 -0.00    +0.193    28.737
ATOM     12  C   UNL d   1       0.862  31.518  -2.499 -0.08 +0.00    +0.109    28.737
ATOM     13  C   UNL d   1       2.960  35.746  -3.065 -0.06 +0.04    +0.193    28.737
ATOM     14  C   UNL d   1      -1.917  29.472  -2.908 -0.03 -0.00    +0.026    28.737
ATOM     15  C   UNL d   1       1.383  32.749  -1.872 -0.10 +0.01    +0.055    28.737
ATOM     16  C   UNL d   1       3.695  34.742  -0.936 -0.22 +0.01    +0.026    28.737
ATOM     17  C   UNL d   1       2.713  34.865  -4.246 -0.08 +0.01    +0.109    28.737
ATOM     18  C   UNL d   1       0.645  28.864  -4.707 -0.18 -0.01    +0.050    28.737
ATOM     19  C   UNL d   1       1.527  29.014  -5.807 -0.21 -0.01    +0.045    28.737
ATOM     20  C   UNL d   1       3.054  34.484  -6.630 -0.09 +0.00    +0.045    28.737
ATOM     21  C   UNL d   1       3.038  35.336  -5.600 -0.12 +0.01    +0.057    28.737
ATOM     22  C   UNL d   1       3.245  33.704  -8.768 -0.14 -0.00    -0.019    28.737
ATOM     23  C   UNL d   1       2.940  32.569  -7.873 -0.02 +0.01    +0.045    28.737
ATOM     24  C   UNL d   1       3.312  34.834  -8.026 -0.13 -0.00    -0.022    28.737
ATOM     25  C   UNL d   1       2.569  30.161  -7.455 -0.21 +0.00    +0.049    28.737
ATOM     26  C   UNL d   1       2.235  28.089  -6.559 -0.31 +0.00    -0.018    28.737
ATOM     27  C   UNL d   1       2.906  28.822  -7.586 -0.31 -0.00    +0.003    28.737
ATOM     28  C   UNL d   1       2.822  31.295  -8.275 -0.22 +0.01    +0.052    28.737
ATOM     29  C   UNL d   1       3.603  36.227  -8.472 -0.09 +0.00    +0.046    28.737
ATOM     30  C   UNL d   1       2.288  26.615  -6.338 -0.32 -0.03    +0.046    28.737
ATOM     31  H   UNL d   1       2.719  32.618  -5.760 +0.03 +0.01    +0.166    28.737
ATOM     32  H   UNL d   1       1.345  31.111  -5.989 +0.04 +0.00    +0.166    28.737
ATOM     33  C   UNL d   1      -0.075  28.213  -1.712 -0.11 -0.03    +0.141    28.737
ATOM     34  C   UNL d   1       1.123  28.423  -0.824 -0.12 -0.07    +0.306    28.737
ATOM     35  O   UNL d   1       2.290  28.419  -1.177 -0.28 +0.06    -0.251    28.737
ATOM     36  O   UNL d   1       0.785  28.630   0.461 -0.05 +0.07    -0.481    28.737
ATOM     37  H   UNL d   1       0.117  29.348   0.428 +0.05 -0.03    +0.295    28.737
ATOM     38  C   UNL d   1       3.740  28.247  -8.598 -0.40 -0.00    +0.017    28.737
ATOM     39  C   UNL d   1       4.256  28.910  -9.645 -0.38 +0.02    +0.092    28.737
ATOM     40  C   UNL d   1       5.112  28.207 -10.604 -0.17 +0.09    +0.330    28.737
ATOM     41  O   UNL d   1       6.222  27.747 -10.412 -0.46 +0.02    -0.246    28.737
ATOM     42  O   UNL d   1       4.494  28.113 -11.791 -0.01 -0.33    -0.477    28.737
ATOM     43  H   UNL d   1       4.080  27.226 -11.771 +0.10 +0.08    +0.295    28.737
ATOM     44  C   UNL d   1       1.417  35.826  -1.099 -0.12 +0.07    +0.141    28.737
ATOM     45  C   UNL d   1       1.199  37.197  -1.681 -0.07 +0.22    +0.306    28.737
ATOM     46  O   UNL d   1       0.469  37.482  -2.614 -0.03 -0.12    -0.251    28.737
ATOM     47  O   UNL d   1       1.939  38.140  -1.070 -0.64 -0.67    -0.481    28.737
ATOM     48  H   UNL d   1       2.761  38.193  -1.602 +0.07 +0.25    +0.295    28.737
ATOM     49  C   UNL d   1       3.425  33.581 -10.253 -0.16 +0.02    +0.048    28.737
ATOM     50  C   UNL d   1       2.105  33.761 -11.003 -0.08 +0.03    +0.125    28.737
ATOM     51  C   UNL d   1       2.153  33.084 -12.344 -0.07 +0.15    +0.305    28.737
ATOM     52  O   UNL d   1       2.933  32.225 -12.715 -0.28 -0.27    -0.251    28.737
ATOM     53  O   UNL d   1       1.199  33.546 -13.176 -0.01 -0.15    -0.481    28.737
ATOM     54  H   UNL d   1       0.705  34.197 -12.634 +0.02 +0.06    +0.295    28.737
TER
ENDMDL
MODEL       79
USER    Run = 79
USER    Cluster Rank = 44
USER    Number of conformations in this cluster = 1
USER  
USER    RMSD from reference structure       = 53.357 A
USER  
USER    Estimated Free Energy of Binding    =   -3.22 kcal/mol  [=(1)+(2)+(3)-(4)]
USER    Estimated Inhibition Constant, Ki   =    4.38 mM (millimolar)  [Temperature = 298.15 K]
USER    
USER    (1) Final Intermolecular Energy     =   -7.10 kcal/mol
USER        vdW + Hbond + desolv Energy     =   -7.03 kcal/mol
USER        Electrostatic Energy            =   -0.07 kcal/mol
USER    (2) Final Total Internal Energy     =   -3.82 kcal/mol
USER    (3) Torsional Free Energy           =   +3.88 kcal/mol
USER    (4) Unbound System's Energy  [=(2)] =   -3.82 kcal/mol
USER    
USER    
USER  
USER    DPF = D:/Protein_go_brrr/autodock/final/6BB5/heme/dock.dpf
USER    NEWDPF move	heme_opt.pdbqt
USER    NEWDPF about	0.153000 0.018000 -0.028000
USER    NEWDPF tran0	21.375363 53.883475 0.896198
USER    NEWDPF axisangle0	0.584123 0.564166 -0.583539 112.013224
USER    NEWDPF quaternion0	0.484297 0.467751 -0.483813 0.559097
USER    NEWDPF dihe0	97.46 148.55 -82.67 32.92 180.00 -31.67 -39.92 82.11 108.74 30.99 -81.47 4.70 -15.03 
USER  
USER                              x       y       z    vdW   Elec        q     RMS 
ATOM      1  O   UNL d   1      20.055  48.469  -1.028 -0.17 +0.09    -0.289    53.357
ATOM      2  O   UNL d   1      23.117  50.798   5.422 -0.11 -0.01    -0.289    53.357
ATOM      3  N   UNL d   1      20.776  51.781  -0.391 -0.12 +0.05    -0.247    53.357
ATOM      4  N   UNL d   1      21.648  51.757   2.450 -0.13 +0.05    -0.247    53.357
ATOM      5  N   UNL d   1      21.393  54.620   2.457 -0.03 +0.10    -0.354    53.357
ATOM      6  N   UNL d   1      20.470  54.635  -0.484 -0.07 +0.07    -0.354    53.357
ATOM      7  C   UNL d   1      19.638  50.576  -2.196 -0.17 -0.02    +0.084    53.357
ATOM      8  C   UNL d   1      22.597  49.675   3.310 -0.15 +0.00    +0.084    53.357
ATOM      9  C   UNL d   1      21.911  50.434   2.169 -0.17 -0.00    +0.058    53.357
ATOM     10  C   UNL d   1      20.110  51.905  -1.598 -0.16 -0.01    +0.058    53.357
ATOM     11  C   UNL d   1      20.172  49.678  -1.121 -0.18 -0.05    +0.193    53.357
ATOM     12  C   UNL d   1      20.863  50.525  -0.097 -0.19 -0.02    +0.109    53.357
ATOM     13  C   UNL d   1      22.641  50.801   4.303 -0.12 +0.00    +0.193    53.357
ATOM     14  C   UNL d   1      18.111  50.466  -2.219 -0.29 -0.01    +0.026    53.357
ATOM     15  C   UNL d   1      21.552  49.845   1.018 -0.22 -0.00    +0.055    53.357
ATOM     16  C   UNL d   1      24.032  49.281   2.948 -0.12 +0.00    +0.026    53.357
ATOM     17  C   UNL d   1      22.029  52.004   3.662 -0.20 -0.01    +0.109    53.357
ATOM     18  C   UNL d   1      19.955  53.067  -2.260 -0.13 -0.00    +0.050    53.357
ATOM     19  C   UNL d   1      20.433  54.330  -1.826 -0.11 -0.00    +0.045    53.357
ATOM     20  C   UNL d   1      21.581  54.397   3.796 -0.20 -0.00    +0.045    53.357
ATOM     21  C   UNL d   1      21.895  53.257   4.420 -0.20 -0.00    +0.057    53.357
ATOM     22  C   UNL d   1      21.073  56.602   3.480 -0.05 +0.00    -0.019    53.357
ATOM     23  C   UNL d   1      21.081  55.922   2.168 -0.14 -0.01    +0.045    53.357
ATOM     24  C   UNL d   1      21.371  55.694   4.439 -0.15 +0.00    -0.022    53.357
ATOM     25  C   UNL d   1      20.878  55.935  -0.295 -0.11 -0.01    +0.049    53.357
ATOM     26  C   UNL d   1      20.864  55.447  -2.525 -0.04 +0.00    -0.018    53.357
ATOM     27  C   UNL d   1      21.162  56.451  -1.552 -0.04 -0.00    +0.003    53.357
ATOM     28  C   UNL d   1      20.846  56.530   0.995 -0.14 -0.01    +0.052    53.357
ATOM     29  C   UNL d   1      21.495  55.898   5.911 -0.15 -0.00    +0.046    53.357
ATOM     30  C   UNL d   1      20.993  55.576  -4.005 -0.01 -0.00    +0.046    53.357
ATOM     31  H   UNL d   1      21.556  53.889   1.774 -0.34 -0.06    +0.166    53.357
ATOM     32  H   UNL d   1      20.190  53.990   0.245 -0.54 -0.08    +0.166    53.357
ATOM     33  C   UNL d   1      20.249  50.212  -3.553 -0.07 -0.02    +0.141    53.357
ATOM     34  C   UNL d   1      20.221  48.732  -3.823 -0.07 -0.05    +0.306    53.357
ATOM     35  O   UNL d   1      21.177  48.035  -4.119 -0.06 +0.02    -0.251    53.357
ATOM     36  O   UNL d   1      18.989  48.206  -3.703 -0.05 +0.14    -0.481    53.357
ATOM     37  H   UNL d   1      18.895  48.014  -2.746 -0.25 -0.21    +0.295    53.357
ATOM     38  C   UNL d   1      21.626  57.773  -1.847 -0.02 -0.00    +0.017    53.357
ATOM     39  C   UNL d   1      22.584  58.426  -1.171 -0.01 -0.00    +0.092    53.357
ATOM     40  C   UNL d   1      22.981  59.774  -1.587 -0.00 -0.01    +0.330    53.357
ATOM     41  O   UNL d   1      23.018  60.223  -2.716 +0.00 +0.01    -0.246    53.357
ATOM     42  O   UNL d   1      23.312  60.509  -0.514 +0.00 +0.01    -0.477    53.357
ATOM     43  H   UNL d   1      22.738  60.158   0.198 +0.00 -0.01    +0.295    53.357
ATOM     44  C   UNL d   1      21.818  48.480   3.870 -0.32 +0.00    +0.141    53.357
ATOM     45  C   UNL d   1      20.352  48.513   3.529 -0.36 -0.01    +0.306    53.357
ATOM     46  O   UNL d   1      19.480  49.115   4.130 -0.49 +0.02    -0.251    53.357
ATOM     47  O   UNL d   1      20.056  47.759   2.455 -0.37 +0.01    -0.481    53.357
ATOM     48  H   UNL d   1      19.750  46.905   2.829 +0.07 -0.03    +0.295    53.357
ATOM     49  C   UNL d   1      20.762  58.057   3.672 -0.07 -0.00    +0.048    53.357
ATOM     50  C   UNL d   1      22.033  58.897   3.801 -0.02 -0.01    +0.125    53.357
ATOM     51  C   UNL d   1      22.368  59.566   2.498 -0.00 -0.02    +0.305    53.357
ATOM     52  O   UNL d   1      21.829  60.539   2.002 -0.00 +0.01    -0.251    53.357
ATOM     53  O   UNL d   1      23.385  58.950   1.862 +0.00 +0.02    -0.481    53.357
ATOM     54  H   UNL d   1      23.847  59.676   1.393 +0.00 -0.01    +0.295    53.357
TER
ENDMDL
MODEL        3
USER    Run = 3
USER    Cluster Rank = 45
USER    Number of conformations in this cluster = 2
USER  
USER    RMSD from reference structure       = 41.364 A
USER  
USER    Estimated Free Energy of Binding    =   -3.15 kcal/mol  [=(1)+(2)+(3)-(4)]
USER    Estimated Inhibition Constant, Ki   =    4.90 mM (millimolar)  [Temperature = 298.15 K]
USER    
USER    (1) Final Intermolecular Energy     =   -7.03 kcal/mol
USER        vdW + Hbond + desolv Energy     =   -6.92 kcal/mol
USER        Electrostatic Energy            =   -0.11 kcal/mol
USER    (2) Final Total Internal Energy     =   -4.07 kcal/mol
USER    (3) Torsional Free Energy           =   +3.88 kcal/mol
USER    (4) Unbound System's Energy  [=(2)] =   -4.07 kcal/mol
USER    
USER    
USER  
USER    DPF = D:/Protein_go_brrr/autodock/final/6BB5/heme/dock.dpf
USER    NEWDPF move	heme_opt.pdbqt
USER    NEWDPF about	0.153000 0.018000 -0.028000
USER    NEWDPF tran0	25.048225 38.264943 -3.888539
USER    NEWDPF axisangle0	0.499301 0.852468 0.154909 -137.733304
USER    NEWDPF quaternion0	0.465720 0.795134 0.144490 -0.360540
USER    NEWDPF dihe0	130.94 -69.72 179.81 -36.44 -141.00 -135.96 147.14 39.77 44.78 -5.29 -67.61 33.31 16.05 
USER  
USER                              x       y       z    vdW   Elec        q     RMS 
ATOM      1  O   UNL d   1      28.300  34.342  -0.924 -0.05 -0.09    -0.289    41.364
ATOM      2  O   UNL d   1      21.660  33.646  -4.361 -0.38 +0.06    -0.289    41.364
ATOM      3  N   UNL d   1      26.694  36.992  -2.438 -0.16 -0.01    -0.247    41.364
ATOM      4  N   UNL d   1      24.356  35.713  -3.752 -0.17 +0.03    -0.247    41.364
ATOM      5  N   UNL d   1      23.976  38.146  -5.236 -0.09 -0.03    -0.354    41.364
ATOM      6  N   UNL d   1      26.414  39.458  -3.882 -0.12 -0.03    -0.354    41.364
ATOM      7  C   UNL d   1      28.885  36.669  -1.389 -0.07 +0.01    +0.084    41.364
ATOM      8  C   UNL d   1      23.528  33.630  -2.779 -0.35 -0.02    +0.084    41.364
ATOM      9  C   UNL d   1      24.579  34.744  -2.799 -0.26 -0.01    +0.058    41.364
ATOM     10  C   UNL d   1      27.898  37.592  -2.109 -0.14 +0.00    +0.058    41.364
ATOM     11  C   UNL d   1      28.019  35.446  -1.352 -0.07 +0.03    +0.193    41.364
ATOM     12  C   UNL d   1      26.708  35.777  -1.996 -0.15 +0.01    +0.109    41.364
ATOM     13  C   UNL d   1      22.686  34.126  -3.921 -0.27 -0.05    +0.193    41.364
ATOM     14  C   UNL d   1      30.122  36.375  -2.241 -0.02 +0.00    +0.026    41.364
ATOM     15  C   UNL d   1      25.652  34.744  -1.993 -0.24 -0.00    +0.055    41.364
ATOM     16  C   UNL d   1      22.689  33.665  -1.498 -0.42 -0.01    +0.026    41.364
ATOM     17  C   UNL d   1      23.299  35.391  -4.427 -0.23 -0.02    +0.109    41.364
ATOM     18  C   UNL d   1      28.171  38.895  -2.309 -0.15 +0.00    +0.050    41.364
ATOM     19  C   UNL d   1      27.287  39.841  -2.889 -0.16 +0.00    +0.045    41.364
ATOM     20  C   UNL d   1      23.091  37.330  -5.891 -0.16 +0.00    +0.045    41.364
ATOM     21  C   UNL d   1      22.710  36.086  -5.581 -0.23 -0.00    +0.057    41.364
ATOM     22  C   UNL d   1      23.232  39.316  -7.011 -0.16 -0.00    -0.019    41.364
ATOM     23  C   UNL d   1      24.127  39.367  -5.838 -0.08 +0.01    +0.045    41.364
ATOM     24  C   UNL d   1      22.620  38.108  -7.036 -0.17 -0.00    -0.022    41.364
ATOM     25  C   UNL d   1      25.721  40.546  -4.361 -0.20 +0.01    +0.049    41.364
ATOM     26  C   UNL d   1      27.131  41.204  -2.692 -0.14 -0.00    -0.018    41.364
ATOM     27  C   UNL d   1      26.127  41.640  -3.610 -0.20 +0.00    +0.003    41.364
ATOM     28  C   UNL d   1      24.874  40.428  -5.496 -0.15 +0.01    +0.052    41.364
ATOM     29  C   UNL d   1      21.624  37.587  -8.015 -0.18 +0.01    +0.046    41.364
ATOM     30  C   UNL d   1      27.866  42.052  -1.710 -0.15 +0.01    +0.046    41.364
ATOM     31  H   UNL d   1      24.393  37.869  -4.354 +0.03 +0.00    +0.166    41.364
ATOM     32  H   UNL d   1      26.339  38.509  -4.227 +0.03 +0.01    +0.166    41.364
ATOM     33  C   UNL d   1      29.270  37.099   0.031 -0.07 +0.02    +0.141    41.364
ATOM     34  C   UNL d   1      28.390  36.477   1.082 -0.08 +0.04    +0.306    41.364
ATOM     35  O   UNL d   1      27.325  36.916   1.482 -0.17 -0.01    -0.251    41.364
ATOM     36  O   UNL d   1      28.898  35.332   1.573 -0.01 -0.18    -0.481    41.364
ATOM     37  H   UNL d   1      29.100  34.792   0.779 +0.06 +0.15    +0.295    41.364
ATOM     38  C   UNL d   1      25.667  42.989  -3.751 -0.23 +0.00    +0.017    41.364
ATOM     39  C   UNL d   1      24.456  43.436  -3.386 -0.33 +0.01    +0.092    41.364
ATOM     40  C   UNL d   1      24.114  44.850  -3.568 -0.15 +0.03    +0.330    41.364
ATOM     41  O   UNL d   1      23.518  45.576  -2.796 -0.17 -0.03    -0.246    41.364
ATOM     42  O   UNL d   1      24.568  45.285  -4.754 -0.01 -0.03    -0.477    41.364
ATOM     43  H   UNL d   1      23.754  45.423  -5.280 +0.06 +0.02    +0.295    41.364
ATOM     44  C   UNL d   1      24.054  32.219  -3.058 -0.17 -0.07    +0.141    41.364
ATOM     45  C   UNL d   1      24.812  32.113  -4.355 -0.09 -0.15    +0.306    41.364
ATOM     46  O   UNL d   1      26.022  32.060  -4.488 -0.03 +0.06    -0.251    41.364
ATOM     47  O   UNL d   1      23.999  32.108  -5.427 -0.07 +0.37    -0.481    41.364
ATOM     48  H   UNL d   1      23.094  32.160  -5.052 +0.14 -0.29    +0.295    41.364
ATOM     49  C   UNL d   1      23.070  40.436  -7.997 -0.13 +0.01    +0.048    41.364
ATOM     50  C   UNL d   1      22.393  41.653  -7.368 -0.18 +0.03    +0.125    41.364
ATOM     51  C   UNL d   1      23.343  42.815  -7.290 -0.05 +0.04    +0.305    41.364
ATOM     52  O   UNL d   1      24.231  43.102  -8.074 -0.02 -0.02    -0.251    41.364
ATOM     53  O   UNL d   1      23.128  43.569  -6.194 -0.03 -0.06    -0.481    41.364
ATOM     54  H   UNL d   1      24.027  43.843  -5.914 +0.07 +0.03    +0.295    41.364
TER
ENDMDL
MODEL       55
USER    Run = 55
USER    Cluster Rank = 46
USER    Number of conformations in this cluster = 1
USER  
USER    RMSD from reference structure       = 41.567 A
USER  
USER    Estimated Free Energy of Binding    =   -3.14 kcal/mol  [=(1)+(2)+(3)-(4)]
USER    Estimated Inhibition Constant, Ki   =    5.02 mM (millimolar)  [Temperature = 298.15 K]
USER    
USER    (1) Final Intermolecular Energy     =   -7.01 kcal/mol
USER        vdW + Hbond + desolv Energy     =   -6.51 kcal/mol
USER        Electrostatic Energy            =   -0.50 kcal/mol
USER    (2) Final Total Internal Energy     =   -3.78 kcal/mol
USER    (3) Torsional Free Energy           =   +3.88 kcal/mol
USER    (4) Unbound System's Energy  [=(2)] =   -3.78 kcal/mol
USER    
USER    
USER  
USER    DPF = D:/Protein_go_brrr/autodock/final/6BB5/heme/dock.dpf
USER    NEWDPF move	heme_opt.pdbqt
USER    NEWDPF about	0.153000 0.018000 -0.028000
USER    NEWDPF tran0	41.248176 15.448715 13.176841
USER    NEWDPF axisangle0	-0.523095 0.717618 -0.459779 175.615494
USER    NEWDPF quaternion0	-0.522712 0.717092 -0.459443 0.038253
USER    NEWDPF dihe0	-106.33 -177.76 112.35 41.50 -52.03 -88.98 -39.98 48.85 128.99 -119.73 -75.80 14.37 -0.95 
USER  
USER                              x       y       z    vdW   Elec        q     RMS 
ATOM      1  O   UNL d   1      42.727  19.058   8.756 -0.30 -0.07    -0.289    41.567
ATOM      2  O   UNL d   1      45.577  18.299  15.662 -0.04 -0.12    -0.289    41.567
ATOM      3  N   UNL d   1      41.427  16.869  11.083 -0.06 -0.03    -0.247    41.567
ATOM      4  N   UNL d   1      43.353  17.047  13.339 -0.04 -0.05    -0.247    41.567
ATOM      5  N   UNL d   1      42.144  14.681  14.436 -0.05 -0.05    -0.354    41.567
ATOM      6  N   UNL d   1      40.163  14.492  12.083 -0.04 -0.02    -0.354    41.567
ATOM      7  C   UNL d   1      40.995  17.333   8.716 -0.12 +0.01    +0.084    41.567
ATOM      8  C   UNL d   1      44.618  19.125  13.567 -0.15 +0.03    +0.084    41.567
ATOM      9  C   UNL d   1      43.633  18.268  12.766 -0.14 +0.02    +0.058    41.567
ATOM     10  C   UNL d   1      40.673  16.522   9.974 -0.10 +0.01    +0.058    41.567
ATOM     11  C   UNL d   1      42.052  18.212   9.314 -0.19 +0.03    +0.193    41.567
ATOM     12  C   UNL d   1      42.203  17.851  10.759 -0.16 +0.02    +0.109    41.567
ATOM     13  C   UNL d   1      44.874  18.151  14.682 -0.04 +0.07    +0.193    41.567
ATOM     14  C   UNL d   1      41.630  16.470   7.623 -0.08 +0.00    +0.026    41.567
ATOM     15  C   UNL d   1      43.130  18.654  11.583 -0.28 +0.01    +0.055    41.567
ATOM     16  C   UNL d   1      43.944  20.372  14.147 -0.18 +0.01    +0.026    41.567
ATOM     17  C   UNL d   1      44.053  16.929  14.421 -0.07 +0.03    +0.109    41.567
ATOM     18  C   UNL d   1      39.674  15.620   9.993 -0.10 +0.00    +0.050    41.567
ATOM     19  C   UNL d   1      39.250  14.886  11.130 -0.14 +0.00    +0.045    41.567
ATOM     20  C   UNL d   1      43.237  14.789  15.256 -0.09 +0.01    +0.045    41.567
ATOM     21  C   UNL d   1      44.133  15.778  15.332 -0.11 +0.01    +0.057    41.567
ATOM     22  C   UNL d   1      42.174  12.816  15.700 -0.09 -0.00    -0.019    41.567
ATOM     23  C   UNL d   1      41.440  13.522  14.631 -0.11 +0.01    +0.045    41.567
ATOM     24  C   UNL d   1      43.236  13.572  16.067 -0.10 -0.00    -0.022    41.567
ATOM     25  C   UNL d   1      39.554  13.720  13.045 -0.14 +0.00    +0.049    41.567
ATOM     26  C   UNL d   1      38.011  14.388  11.502 -0.16 -0.00    -0.018    41.567
ATOM     27  C   UNL d   1      38.205  13.669  12.722 -0.17 +0.00    +0.003    41.567
ATOM     28  C   UNL d   1      40.321  13.066  14.048 -0.13 +0.01    +0.052    41.567
ATOM     29  C   UNL d   1      44.264  13.292  17.110 -0.08 +0.01    +0.046    41.567
ATOM     30  C   UNL d   1      36.723  14.570  10.772 -0.06 +0.01    +0.046    41.567
ATOM     31  H   UNL d   1      41.872  15.439  13.820 +0.04 +0.02    +0.166    41.567
ATOM     32  H   UNL d   1      41.150  14.716  12.040 +0.03 +0.01    +0.166    41.567
ATOM     33  C   UNL d   1      39.841  18.178   8.165 -0.22 -0.01    +0.141    41.567
ATOM     34  C   UNL d   1      40.246  19.009   6.978 -0.19 -0.04    +0.306    41.567
ATOM     35  O   UNL d   1      41.343  19.019   6.446 -0.21 -0.01    -0.251    41.567
ATOM     36  O   UNL d   1      39.246  19.783   6.522 -0.11 +0.18    -0.481    41.567
ATOM     37  H   UNL d   1      39.137  20.476   7.208 -0.39 -0.23    +0.295    41.567
ATOM     38  C   UNL d   1      37.180  12.979  13.445 -0.17 +0.00    +0.017    41.567
ATOM     39  C   UNL d   1      36.925  13.125  14.754 -0.21 +0.02    +0.092    41.567
ATOM     40  C   UNL d   1      35.832  12.370  15.373 -0.07 +0.05    +0.330    41.567
ATOM     41  O   UNL d   1      34.672  12.713  15.503 -0.10 -0.05    -0.246    41.567
ATOM     42  O   UNL d   1      36.277  11.179  15.800 +0.00 -0.05    -0.477    41.567
ATOM     43  H   UNL d   1      37.233  11.196  15.590 +0.05 +0.03    +0.295    41.567
ATOM     44  C   UNL d   1      45.920  19.485  12.844 -0.25 +0.08    +0.141    41.567
ATOM     45  C   UNL d   1      46.951  20.105  13.749 -0.14 +0.35    +0.306    41.567
ATOM     46  O   UNL d   1      47.030  21.279  14.064 -0.65 -0.41    -0.251    41.567
ATOM     47  O   UNL d   1      47.852  19.209  14.192 -0.26 -0.62    -0.481    41.567
ATOM     48  H   UNL d   1      47.344  18.624  14.794 +0.06 +0.25    +0.295    41.567
ATOM     49  C   UNL d   1      41.781  11.476  16.248 -0.07 +0.01    +0.048    41.567
ATOM     50  C   UNL d   1      40.720  11.597  17.341 -0.09 +0.02    +0.125    41.567
ATOM     51  C   UNL d   1      39.371  11.180  16.827 -0.06 +0.03    +0.305    41.567
ATOM     52  O   UNL d   1      39.108  10.223  16.120 -0.02 -0.02    -0.251    41.567
ATOM     53  O   UNL d   1      38.396  12.020  17.229 -0.03 -0.06    -0.481    41.567
ATOM     54  H   UNL d   1      37.651  11.426  17.461 +0.05 +0.03    +0.295    41.567
TER
ENDMDL
MODEL       20
USER    Run = 20
USER    Cluster Rank = 47
USER    Number of conformations in this cluster = 1
USER  
USER    RMSD from reference structure       = 28.244 A
USER  
USER    Estimated Free Energy of Binding    =   -3.10 kcal/mol  [=(1)+(2)+(3)-(4)]
USER    Estimated Inhibition Constant, Ki   =    5.34 mM (millimolar)  [Temperature = 298.15 K]
USER    
USER    (1) Final Intermolecular Energy     =   -6.98 kcal/mol
USER        vdW + Hbond + desolv Energy     =   -6.87 kcal/mol
USER        Electrostatic Energy            =   -0.11 kcal/mol
USER    (2) Final Total Internal Energy     =   -3.53 kcal/mol
USER    (3) Torsional Free Energy           =   +3.88 kcal/mol
USER    (4) Unbound System's Energy  [=(2)] =   -3.53 kcal/mol
USER    
USER    
USER  
USER    DPF = D:/Protein_go_brrr/autodock/final/6BB5/heme/dock.dpf
USER    NEWDPF move	heme_opt.pdbqt
USER    NEWDPF about	0.153000 0.018000 -0.028000
USER    NEWDPF tran0	3.872092 22.251946 20.887296
USER    NEWDPF axisangle0	-0.023566 0.999667 -0.010475 91.162377
USER    NEWDPF quaternion0	-0.016832 0.714005 -0.007482 0.699898
USER    NEWDPF dihe0	-63.57 -114.71 180.00 -157.59 37.52 -99.49 -61.43 -0.50 122.50 -148.37 112.08 38.17 50.44 
USER  
USER                              x       y       z    vdW   Elec        q     RMS 
ATOM      1  O   UNL d   1       3.277  23.994  15.287 -0.19 +0.03    -0.289    28.244
ATOM      2  O   UNL d   1       5.669  17.499  18.201 -0.11 -0.08    -0.289    28.244
ATOM      3  N   UNL d   1       3.588  23.471  18.682 -0.09 -0.02    -0.247    28.244
ATOM      4  N   UNL d   1       4.285  20.589  18.868 -0.06 -0.02    -0.247    28.244
ATOM      5  N   UNL d   1       3.714  20.728  21.683 -0.05 -0.03    -0.354    28.244
ATOM      6  N   UNL d   1       2.973  23.713  21.477 -0.07 -0.01    -0.354    28.244
ATOM      7  C   UNL d   1       2.700  25.279  17.284 -0.13 -0.00    +0.084    28.244
ATOM      8  C   UNL d   1       5.404  19.583  16.943 -0.23 +0.00    +0.084    28.244
ATOM      9  C   UNL d   1       4.709  20.793  17.574 -0.17 +0.00    +0.058    28.244
ATOM     10  C   UNL d   1       2.985  24.718  18.681 -0.14 +0.00    +0.058    28.244
ATOM     11  C   UNL d   1       3.265  24.136  16.496 -0.19 -0.01    +0.193    28.244
ATOM     12  C   UNL d   1       3.795  23.116  17.456 -0.18 +0.00    +0.109    28.244
ATOM     13  C   UNL d   1       5.264  18.641  18.106 -0.11 +0.03    +0.193    28.244
ATOM     14  C   UNL d   1       1.199  25.382  17.002 -0.09 -0.00    +0.026    28.244
ATOM     15  C   UNL d   1       4.487  21.934  16.903 -0.30 -0.00    +0.055    28.244
ATOM     16  C   UNL d   1       6.893  19.846  16.700 -0.29 +0.00    +0.026    28.244
ATOM     17  C   UNL d   1       4.562  19.370  19.205 -0.10 +0.01    +0.109    28.244
ATOM     18  C   UNL d   1       2.743  25.440  19.791 -0.18 +0.00    +0.050    28.244
ATOM     19  C   UNL d   1       3.051  25.040  21.116 -0.17 +0.00    +0.045    28.244
ATOM     20  C   UNL d   1       3.846  19.372  21.536 -0.07 +0.00    +0.045    28.244
ATOM     21  C   UNL d   1       4.245  18.680  20.464 -0.08 +0.01    +0.057    28.244
ATOM     22  C   UNL d   1       3.116  19.818  23.654 -0.02 -0.00    -0.019    28.244
ATOM     23  C   UNL d   1       3.278  21.093  22.928 -0.07 +0.00    +0.045    28.244
ATOM     24  C   UNL d   1       3.455  18.802  22.825 -0.03 -0.00    -0.022    28.244
ATOM     25  C   UNL d   1       3.224  23.563  22.821 -0.13 +0.00    +0.049    28.244
ATOM     26  C   UNL d   1       3.397  25.764  22.246 -0.24 +0.00    -0.018    28.244
ATOM     27  C   UNL d   1       3.524  24.824  23.315 -0.20 -0.00    +0.003    28.244
ATOM     28  C   UNL d   1       3.048  22.304  23.458 -0.09 +0.00    +0.052    28.244
ATOM     29  C   UNL d   1       3.466  17.337  23.100 -0.02 +0.00    +0.046    28.244
ATOM     30  C   UNL d   1       3.600  27.239  22.330 -0.10 -0.00    +0.046    28.244
ATOM     31  H   UNL d   1       3.998  21.367  20.948 +0.03 +0.02    +0.166    28.244
ATOM     32  H   UNL d   1       2.724  22.971  20.833 +0.03 +0.01    +0.166    28.244
ATOM     33  C   UNL d   1       3.428  26.582  16.938 -0.24 -0.01    +0.141    28.244
ATOM     34  C   UNL d   1       3.295  26.952  15.486 -0.25 -0.03    +0.306    28.244
ATOM     35  O   UNL d   1       2.431  27.663  15.000 -0.24 +0.02    -0.251    28.244
ATOM     36  O   UNL d   1       4.258  26.408  14.722 -0.27 +0.07    -0.481    28.244
ATOM     37  H   UNL d   1       3.785  25.778  14.139 -0.30 -0.10    +0.295    28.244
ATOM     38  C   UNL d   1       3.855  25.154  24.668 -0.19 -0.00    +0.017    28.244
ATOM     39  C   UNL d   1       5.046  24.939  25.248 -0.20 -0.00    +0.092    28.244
ATOM     40  C   UNL d   1       5.263  25.339  26.641 -0.07 +0.00    +0.330    28.244
ATOM     41  O   UNL d   1       5.848  26.325  27.048 -0.11 -0.01    -0.246    28.244
ATOM     42  O   UNL d   1       4.702  24.447  27.471 +0.00 +0.00    -0.477    28.244
ATOM     43  H   UNL d   1       5.217  23.628  27.317 +0.05 -0.01    +0.295    28.244
ATOM     44  C   UNL d   1       4.731  19.012  15.691 -0.28 -0.02    +0.141    28.244
ATOM     45  C   UNL d   1       5.641  18.135  14.874 -0.28 -0.03    +0.306    28.244
ATOM     46  O   UNL d   1       6.168  18.423  13.813 -0.67 +0.01    -0.251    28.244
ATOM     47  O   UNL d   1       5.819  16.922  15.426 -0.08 +0.02    -0.481    28.244
ATOM     48  H   UNL d   1       5.294  16.947  16.255 +0.11 +0.02    +0.295    28.244
ATOM     49  C   UNL d   1       2.636  19.710  25.072 -0.01 +0.00    +0.048    28.244
ATOM     50  C   UNL d   1       3.083  20.902  25.916 -0.01 -0.00    +0.125    28.244
ATOM     51  C   UNL d   1       4.575  20.903  26.096 -0.01 -0.00    +0.305    28.244
ATOM     52  O   UNL d   1       5.365  20.040  25.755 -0.04 +0.00    -0.251    28.244
ATOM     53  O   UNL d   1       5.007  22.015  26.723 +0.01 +0.02    -0.481    28.244
ATOM     54  H   UNL d   1       4.216  22.342  27.200 +0.03 -0.01    +0.295    28.244
TER
ENDMDL
MODEL        5
USER    Run = 5
USER    Cluster Rank = 48
USER    Number of conformations in this cluster = 1
USER  
USER    RMSD from reference structure       = 48.634 A
USER  
USER    Estimated Free Energy of Binding    =   -3.10 kcal/mol  [=(1)+(2)+(3)-(4)]
USER    Estimated Inhibition Constant, Ki   =    5.36 mM (millimolar)  [Temperature = 298.15 K]
USER    
USER    (1) Final Intermolecular Energy     =   -6.98 kcal/mol
USER        vdW + Hbond + desolv Energy     =   -6.77 kcal/mol
USER        Electrostatic Energy            =   -0.20 kcal/mol
USER    (2) Final Total Internal Energy     =   -3.59 kcal/mol
USER    (3) Torsional Free Energy           =   +3.88 kcal/mol
USER    (4) Unbound System's Energy  [=(2)] =   -3.59 kcal/mol
USER    
USER    
USER  
USER    DPF = D:/Protein_go_brrr/autodock/final/6BB5/heme/dock.dpf
USER    NEWDPF move	heme_opt.pdbqt
USER    NEWDPF about	0.153000 0.018000 -0.028000
USER    NEWDPF tran0	21.866205 48.391657 -2.234095
USER    NEWDPF axisangle0	0.056852 0.617807 -0.784272 103.480221
USER    NEWDPF quaternion0	0.044641 0.485108 -0.615818 0.619229
USER    NEWDPF dihe0	-176.62 163.11 -159.76 -48.91 49.55 -66.06 132.40 -175.15 152.99 -17.19 -92.90 20.73 -29.17 
USER  
USER                              x       y       z    vdW   Elec        q     RMS 
ATOM      1  O   UNL d   1      21.512  43.919  -6.059 -0.16 -0.03    -0.289    48.634
ATOM      2  O   UNL d   1      26.996  45.955  -1.351 -0.04 -0.05    -0.289    48.634
ATOM      3  N   UNL d   1      21.323  46.735  -4.076 -0.12 +0.02    -0.247    48.634
ATOM      4  N   UNL d   1      23.756  46.543  -2.382 -0.10 -0.02    -0.247    48.634
ATOM      5  N   UNL d   1      22.635  48.589  -0.701 -0.05 -0.00    -0.354    48.634
ATOM      6  N   UNL d   1      20.105  48.768  -2.453 -0.08 +0.09    -0.354    48.634
ATOM      7  C   UNL d   1      19.776  45.573  -5.582 -0.25 -0.00    +0.084    48.634
ATOM      8  C   UNL d   1      25.653  45.298  -3.289 -0.09 +0.01    +0.084    48.634
ATOM      9  C   UNL d   1      24.196  45.751  -3.420 -0.15 +0.00    +0.058    48.634
ATOM     10  C   UNL d   1      20.046  46.728  -4.613 -0.21 -0.01    +0.058    48.634
ATOM     11  C   UNL d   1      21.133  44.939  -5.512 -0.17 +0.00    +0.193    48.634
ATOM     12  C   UNL d   1      21.987  45.750  -4.587 -0.18 -0.00    +0.109    48.634
ATOM     13  C   UNL d   1      25.948  45.948  -1.966 -0.07 +0.03    +0.193    48.634
ATOM     14  C   UNL d   1      18.741  44.590  -5.030 -0.32 -0.00    +0.026    48.634
ATOM     15  C   UNL d   1      23.404  45.366  -4.433 -0.19 +0.00    +0.055    48.634
ATOM     16  C   UNL d   1      26.545  45.934  -4.360 -0.03 +0.00    +0.026    48.634
ATOM     17  C   UNL d   1      24.715  46.664  -1.521 +0.00 +0.02    +0.109    48.634
ATOM     18  C   UNL d   1      19.130  47.690  -4.393 -0.21 -0.01    +0.050    48.634
ATOM     19  C   UNL d   1      19.320  48.837  -3.582 -0.11 -0.01    +0.045    48.634
ATOM     20  C   UNL d   1      23.699  48.204   0.073 -0.11 +0.00    +0.045    48.634
ATOM     21  C   UNL d   1      24.693  47.363  -0.228 -0.10 +0.01    +0.057    48.634
ATOM     22  C   UNL d   1      22.414  49.672   1.261 -0.13 +0.00    -0.019    48.634
ATOM     23  C   UNL d   1      21.803  49.474  -0.069 -0.15 -0.00    +0.045    48.634
ATOM     24  C   UNL d   1      23.536  48.919   1.338 -0.11 -0.00    -0.022    48.634
ATOM     25  C   UNL d   1      20.078  49.962  -1.771 -0.19 -0.01    +0.049    48.634
ATOM     26  C   UNL d   1      18.800  50.120  -3.655 -0.12 +0.00    -0.018    48.634
ATOM     27  C   UNL d   1      19.298  50.832  -2.520 -0.19 -0.00    +0.003    48.634
ATOM     28  C   UNL d   1      20.687  50.086  -0.493 -0.26 -0.01    +0.052    48.634
ATOM     29  C   UNL d   1      24.498  48.791   2.470 -0.12 +0.01    +0.046    48.634
ATOM     30  C   UNL d   1      17.897  50.655  -4.715 -0.08 -0.01    +0.046    48.634
ATOM     31  H   UNL d   1      22.553  48.290  -1.667 +0.04 -0.00    +0.166    48.634
ATOM     32  H   UNL d   1      20.593  47.929  -2.161 -0.00 -0.04    +0.166    48.634
ATOM     33  C   UNL d   1      19.449  45.986  -7.021 -0.12 +0.00    +0.141    48.634
ATOM     34  C   UNL d   1      18.727  44.907  -7.783 -0.13 +0.03    +0.306    48.634
ATOM     35  O   UNL d   1      17.536  44.883  -8.044 -0.21 -0.01    -0.251    48.634
ATOM     36  O   UNL d   1      19.546  43.916  -8.178 -0.07 -0.10    -0.481    48.634
ATOM     37  H   UNL d   1      20.428  44.172  -7.834 +0.09 +0.04    +0.295    48.634
ATOM     38  C   UNL d   1      18.992  52.194  -2.201 -0.16 -0.00    +0.017    48.634
ATOM     39  C   UNL d   1      19.895  53.173  -2.042 -0.13 -0.01    +0.092    48.634
ATOM     40  C   UNL d   1      19.449  54.534  -1.732 -0.00 -0.03    +0.330    48.634
ATOM     41  O   UNL d   1      18.835  55.298  -2.453 -0.08 +0.02    -0.246    48.634
ATOM     42  O   UNL d   1      19.806  54.864  -0.481 +0.02 +0.09    -0.477    48.634
ATOM     43  H   UNL d   1      20.012  54.003  -0.061 -0.38 -0.12    +0.295    48.634
ATOM     44  C   UNL d   1      25.870  43.782  -3.216 -0.16 +0.02    +0.141    48.634
ATOM     45  C   UNL d   1      25.317  43.163  -1.960 -0.16 +0.06    +0.306    48.634
ATOM     46  O   UNL d   1      24.184  42.747  -1.793 -0.31 -0.06    -0.251    48.634
ATOM     47  O   UNL d   1      26.220  43.125  -0.964 -0.10 -0.10    -0.481    48.634
ATOM     48  H   UNL d   1      26.896  43.791  -1.216 +0.09 +0.06    +0.295    48.634
ATOM     49  C   UNL d   1      21.841  50.559   2.327 -0.23 -0.00    +0.048    48.634
ATOM     50  C   UNL d   1      22.729  51.773   2.595 -0.12 -0.01    +0.125    48.634
ATOM     51  C   UNL d   1      22.377  52.909   1.676 -0.06 -0.05    +0.305    48.634
ATOM     52  O   UNL d   1      22.875  54.020   1.644 -0.06 +0.03    -0.251    48.634
ATOM     53  O   UNL d   1      21.381  52.582   0.829 +0.02 +0.16    -0.481    48.634
ATOM     54  H   UNL d   1      20.749  53.327   0.907 -0.48 -0.21    +0.295    48.634
TER
ENDMDL
MODEL        7
USER    Run = 7
USER    Cluster Rank = 49
USER    Number of conformations in this cluster = 1
USER  
USER    RMSD from reference structure       = 13.764 A
USER  
USER    Estimated Free Energy of Binding    =   -3.04 kcal/mol  [=(1)+(2)+(3)-(4)]
USER    Estimated Inhibition Constant, Ki   =    5.89 mM (millimolar)  [Temperature = 298.15 K]
USER    
USER    (1) Final Intermolecular Energy     =   -6.92 kcal/mol
USER        vdW + Hbond + desolv Energy     =   -6.27 kcal/mol
USER        Electrostatic Energy            =   -0.65 kcal/mol
USER    (2) Final Total Internal Energy     =   -2.97 kcal/mol
USER    (3) Torsional Free Energy           =   +3.88 kcal/mol
USER    (4) Unbound System's Energy  [=(2)] =   -2.97 kcal/mol
USER    
USER    
USER  
USER    DPF = D:/Protein_go_brrr/autodock/final/6BB5/heme/dock.dpf
USER    NEWDPF move	heme_opt.pdbqt
USER    NEWDPF about	0.153000 0.018000 -0.028000
USER    NEWDPF tran0	9.212453 12.768558 6.550779
USER    NEWDPF axisangle0	-0.776685 0.012540 0.629764 -124.483608
USER    NEWDPF quaternion0	-0.687305 0.011097 0.557291 -0.465741
USER    NEWDPF dihe0	112.81 170.74 -176.24 -41.22 179.00 -102.21 85.78 -84.73 -19.36 106.89 -120.48 68.96 -3.49 
USER  
USER                              x       y       z    vdW   Elec        q     RMS 
ATOM      1  O   UNL d   1       5.696   9.408   9.882 -0.02 +0.03    -0.289    13.764
ATOM      2  O   UNL d   1      11.989  13.142  11.569 -0.13 -0.30    -0.289    13.764
ATOM      3  N   UNL d   1       7.515  11.160   7.534 -0.09 +0.04    -0.247    13.764
ATOM      4  N   UNL d   1       9.601  12.516   9.158 -0.13 +0.03    -0.247    13.764
ATOM      5  N   UNL d   1      10.181  14.161   6.872 -0.11 -0.00    -0.354    13.764
ATOM      6  N   UNL d   1       8.002  12.762   5.200 -0.05 +0.04    -0.354    13.764
ATOM      7  C   UNL d   1       5.367   9.980   7.529 -0.04 -0.00    +0.084    13.764
ATOM      8  C   UNL d   1      10.230  11.466  11.272 -0.10 -0.01    +0.084    13.764
ATOM      9  C   UNL d   1       9.320  11.497  10.040 -0.13 -0.01    +0.058    13.764
ATOM     10  C   UNL d   1       6.414  10.805   6.774 -0.10 -0.01    +0.058    13.764
ATOM     11  C   UNL d   1       6.081   9.916   8.845 -0.04 -0.02    +0.193    13.764
ATOM     12  C   UNL d   1       7.382  10.646   8.713 -0.10 -0.02    +0.109    13.764
ATOM     13  C   UNL d   1      11.056  12.678  10.944 -0.13 +0.04    +0.193    13.764
ATOM     14  C   UNL d   1       4.055  10.747   7.714 -0.07 -0.00    +0.026    13.764
ATOM     15  C   UNL d   1       8.305  10.637   9.865 -0.13 -0.01    +0.055    13.764
ATOM     16  C   UNL d   1      11.142  10.235  11.273 -0.03 +0.00    +0.026    13.764
ATOM     17  C   UNL d   1      10.569  13.226   9.642 -0.18 +0.01    +0.109    13.764
ATOM     18  C   UNL d   1       6.287  11.068   5.459 -0.12 -0.00    +0.050    13.764
ATOM     19  C   UNL d   1       7.241  11.749   4.661 -0.14 -0.00    +0.045    13.764
ATOM     20  C   UNL d   1      10.921  14.812   7.824 -0.26 +0.01    +0.045    13.764
ATOM     21  C   UNL d   1      11.168  14.449   9.087 -0.28 +0.02    +0.057    13.764
ATOM     22  C   UNL d   1      10.953  16.039   5.898 -0.34 -0.00    -0.019    13.764
ATOM     23  C   UNL d   1      10.142  14.826   5.675 -0.29 +0.01    +0.045    13.764
ATOM     24  C   UNL d   1      11.413  16.025   7.171 -0.30 -0.00    -0.022    13.764
ATOM     25  C   UNL d   1       8.791  13.340   4.233 -0.22 +0.00    +0.049    13.764
ATOM     26  C   UNL d   1       7.571  11.641   3.319 -0.09 -0.00    -0.018    13.764
ATOM     27  C   UNL d   1       8.564  12.636   3.059 -0.15 +0.00    +0.003    13.764
ATOM     28  C   UNL d   1       9.549  14.509   4.514 -0.35 +0.01    +0.052    13.764
ATOM     29  C   UNL d   1      12.280  17.022   7.861 -0.30 +0.01    +0.046    13.764
ATOM     30  C   UNL d   1       7.002  10.674   2.337 -0.04 +0.00    +0.046    13.764
ATOM     31  H   UNL d   1       9.787  13.243   7.049 -0.11 -0.02    +0.166    13.764
ATOM     32  H   UNL d   1       7.942  13.052   6.168 -0.48 -0.08    +0.166    13.764
ATOM     33  C   UNL d   1       5.122   8.570   6.981 -0.01 -0.00    +0.141    13.764
ATOM     34  C   UNL d   1       6.332   7.997   6.295 -0.00 +0.00    +0.306    13.764
ATOM     35  O   UNL d   1       6.370   7.536   5.166 -0.00 -0.01    -0.251    13.764
ATOM     36  O   UNL d   1       7.433   8.036   7.066 +0.00 -0.00    -0.481    13.764
ATOM     37  H   UNL d   1       7.659   8.989   7.125 +0.02 -0.00    +0.295    13.764
ATOM     38  C   UNL d   1       9.173  12.881   1.786 -0.13 +0.01    +0.017    13.764
ATOM     39  C   UNL d   1      10.098  12.100   1.207 -0.09 +0.03    +0.092    13.764
ATOM     40  C   UNL d   1      10.631  12.455  -0.111 -0.00 +0.20    +0.330    13.764
ATOM     41  O   UNL d   1      10.364  11.944  -1.183 -0.08 -0.18    -0.246    13.764
ATOM     42  O   UNL d   1      11.494  13.476  -0.001 +0.03 -0.29    -0.477    13.764
ATOM     43  H   UNL d   1      11.387  13.775   0.926 +0.06 +0.13    +0.295    13.764
ATOM     44  C   UNL d   1       9.523  11.632  12.621 -0.06 -0.06    +0.141    13.764
ATOM     45  C   UNL d   1       8.454  10.600  12.863 -0.05 -0.09    +0.306    13.764
ATOM     46  O   UNL d   1       8.521   9.410  12.609 -0.02 +0.02    -0.251    13.764
ATOM     47  O   UNL d   1       7.336  11.131  13.391 -0.05 +0.32    -0.481    13.764
ATOM     48  H   UNL d   1       7.515  12.094  13.434 -0.12 -0.51    +0.295    13.764
ATOM     49  C   UNL d   1      11.189  17.097   4.860 -0.41 +0.01    +0.048    13.764
ATOM     50  C   UNL d   1      12.392  16.768   3.976 -0.25 +0.03    +0.125    13.764
ATOM     51  C   UNL d   1      12.184  15.470   3.248 -0.08 +0.07    +0.305    13.764
ATOM     52  O   UNL d   1      12.505  14.353   3.615 -0.03 -0.05    -0.251    13.764
ATOM     53  O   UNL d   1      11.577  15.651   2.058 -0.07 -0.17    -0.481    13.764
ATOM     54  H   UNL d   1      12.057  15.048   1.453 +0.10 +0.10    +0.295    13.764
TER
ENDMDL
MODEL       16
USER    Run = 16
USER    Cluster Rank = 50
USER    Number of conformations in this cluster = 1
USER  
USER    RMSD from reference structure       = 41.030 A
USER  
USER    Estimated Free Energy of Binding    =   -3.04 kcal/mol  [=(1)+(2)+(3)-(4)]
USER    Estimated Inhibition Constant, Ki   =    5.92 mM (millimolar)  [Temperature = 298.15 K]
USER    
USER    (1) Final Intermolecular Energy     =   -6.92 kcal/mol
USER        vdW + Hbond + desolv Energy     =   -6.65 kcal/mol
USER        Electrostatic Energy            =   -0.27 kcal/mol
USER    (2) Final Total Internal Energy     =   -4.30 kcal/mol
USER    (3) Torsional Free Energy           =   +3.88 kcal/mol
USER    (4) Unbound System's Energy  [=(2)] =   -4.30 kcal/mol
USER    
USER    
USER  
USER    DPF = D:/Protein_go_brrr/autodock/final/6BB5/heme/dock.dpf
USER    NEWDPF move	heme_opt.pdbqt
USER    NEWDPF about	0.153000 0.018000 -0.028000
USER    NEWDPF tran0	25.243013 37.897807 -4.114377
USER    NEWDPF axisangle0	-0.907326 -0.219200 -0.358763 148.194367
USER    NEWDPF quaternion0	-0.872601 -0.210811 -0.345032 0.274006
USER    NEWDPF dihe0	-178.81 -179.75 -99.54 -60.36 -98.89 -24.67 125.89 -104.84 7.97 -25.51 -106.06 6.32 -11.24 
USER  
USER                              x       y       z    vdW   Elec        q     RMS 
ATOM      1  O   UNL d   1      22.234  33.272  -6.188 +0.04 +0.12    -0.289    41.030
ATOM      2  O   UNL d   1      21.455  40.631  -7.464 -0.20 -0.09    -0.289    41.030
ATOM      3  N   UNL d   1      24.172  35.655  -4.620 -0.13 +0.02    -0.247    41.030
ATOM      4  N   UNL d   1      23.364  38.182  -5.958 -0.13 -0.03    -0.247    41.030
ATOM      5  N   UNL d   1      25.664  39.436  -4.774 -0.12 -0.03    -0.354    41.030
ATOM      6  N   UNL d   1      26.506  36.806  -3.405 -0.11 -0.01    -0.354    41.030
ATOM      7  C   UNL d   1      24.165  33.205  -4.690 -0.15 -0.03    +0.084    41.030
ATOM      8  C   UNL d   1      21.122  38.266  -6.926 -0.28 +0.03    +0.084    41.030
ATOM      9  C   UNL d   1      22.227  37.457  -6.238 -0.17 +0.01    +0.058    41.030
ATOM     10  C   UNL d   1      24.796  34.501  -4.175 -0.14 -0.01    +0.058    41.030
ATOM     11  C   UNL d   1      23.062  33.829  -5.492 -0.12 -0.06    +0.193    41.030
ATOM     12  C   UNL d   1      23.158  35.317  -5.348 -0.17 -0.01    +0.109    41.030
ATOM     13  C   UNL d   1      21.857  39.573  -7.019 -0.19 +0.05    +0.193    41.030
ATOM     14  C   UNL d   1      25.099  32.449  -5.639 -0.10 -0.01    +0.026    41.030
ATOM     15  C   UNL d   1      22.112  36.146  -5.980 -0.23 +0.00    +0.055    41.030
ATOM     16  C   UNL d   1      19.903  38.450  -6.018 -0.38 +0.01    +0.026    41.030
ATOM     17  C   UNL d   1      23.206  39.387  -6.404 -0.08 +0.02    +0.109    41.030
ATOM     18  C   UNL d   1      25.813  34.486  -3.292 -0.15 -0.00    +0.050    41.030
ATOM     19  C   UNL d   1      26.403  35.630  -2.697 -0.17 +0.00    +0.045    41.030
ATOM     20  C   UNL d   1      25.273  40.427  -5.637 -0.16 +0.01    +0.045    41.030
ATOM     21  C   UNL d   1      24.171  40.496  -6.390 -0.16 +0.01    +0.057    41.030
ATOM     22  C   UNL d   1      27.275  41.009  -4.703 -0.09 -0.00    -0.019    41.030
ATOM     23  C   UNL d   1      26.861  39.698  -4.163 -0.16 +0.00    +0.045    41.030
ATOM     24  C   UNL d   1      26.330  41.436  -5.574 -0.09 -0.00    -0.022    41.030
ATOM     25  C   UNL d   1      27.188  37.751  -2.675 -0.18 +0.00    +0.049    41.030
ATOM     26  C   UNL d   1      27.000  35.827  -1.462 -0.16 -0.00    -0.018    41.030
ATOM     27  C   UNL d   1      27.476  37.175  -1.446 -0.12 +0.00    +0.003    41.030
ATOM     28  C   UNL d   1      27.556  38.995  -3.256 -0.17 +0.00    +0.052    41.030
ATOM     29  C   UNL d   1      26.291  42.701  -6.362 -0.05 +0.00    +0.046    41.030
ATOM     30  C   UNL d   1      27.120  34.829  -0.361 -0.20 +0.01    +0.046    41.030
ATOM     31  H   UNL d   1      25.062  38.645  -4.575 +0.03 +0.01    +0.166    41.030
ATOM     32  H   UNL d   1      26.158  36.924  -4.349 +0.03 +0.00    +0.166    41.030
ATOM     33  C   UNL d   1      23.589  32.280  -3.613 -0.23 -0.09    +0.141    41.030
ATOM     34  C   UNL d   1      22.576  32.969  -2.739 -0.25 -0.14    +0.306    41.030
ATOM     35  O   UNL d   1      22.683  34.082  -2.251 -0.49 +0.08    -0.251    41.030
ATOM     36  O   UNL d   1      21.478  32.221  -2.529 -0.13 +0.30    -0.481    41.030
ATOM     37  H   UNL d   1      21.637  31.401  -3.043 -0.28 -0.46    +0.295    41.030
ATOM     38  C   UNL d   1      28.174  37.790  -0.357 -0.15 +0.00    +0.017    41.030
ATOM     39  C   UNL d   1      27.952  39.032   0.101 -0.04 +0.01    +0.092    41.030
ATOM     40  C   UNL d   1      28.726  39.539   1.238 -0.07 +0.01    +0.330    41.030
ATOM     41  O   UNL d   1      29.244  38.896   2.131 -0.08 +0.01    -0.246    41.030
ATOM     42  O   UNL d   1      28.813  40.877   1.176 -0.01 -0.04    -0.477    41.030
ATOM     43  H   UNL d   1      28.314  41.108   0.366 +0.10 +0.04    +0.295    41.030
ATOM     44  C   UNL d   1      20.708  37.770  -8.316 -0.18 +0.08    +0.141    41.030
ATOM     45  C   UNL d   1      21.709  38.105  -9.389 -0.08 +0.13    +0.306    41.030
ATOM     46  O   UNL d   1      22.730  37.491  -9.648 -0.02 -0.05    -0.251    41.030
ATOM     47  O   UNL d   1      21.384  39.220 -10.067 -0.07 -0.27    -0.481    41.030
ATOM     48  H   UNL d   1      21.667  39.956  -9.484 +0.06 +0.13    +0.295    41.030
ATOM     49  C   UNL d   1      28.549  41.708  -4.332 -0.04 +0.00    +0.048    41.030
ATOM     50  C   UNL d   1      28.339  42.711  -3.197 -0.05 +0.01    +0.125    41.030
ATOM     51  C   UNL d   1      28.175  42.005  -1.881 -0.06 +0.04    +0.305    41.030
ATOM     52  O   UNL d   1      27.167  41.924  -1.202 -0.14 -0.04    -0.251    41.030
ATOM     53  O   UNL d   1      29.324  41.433  -1.470 -0.00 -0.05    -0.481    41.030
ATOM     54  H   UNL d   1      29.518  41.874  -0.617 +0.05 +0.04    +0.295    41.030
TER
ENDMDL
MODEL       84
USER    Run = 84
USER    Cluster Rank = 51
USER    Number of conformations in this cluster = 1
USER  
USER    RMSD from reference structure       = 46.177 A
USER  
USER    Estimated Free Energy of Binding    =   -2.96 kcal/mol  [=(1)+(2)+(3)-(4)]
USER    Estimated Inhibition Constant, Ki   =    6.72 mM (millimolar)  [Temperature = 298.15 K]
USER    
USER    (1) Final Intermolecular Energy     =   -6.84 kcal/mol
USER        vdW + Hbond + desolv Energy     =   -6.66 kcal/mol
USER        Electrostatic Energy            =   -0.18 kcal/mol
USER    (2) Final Total Internal Energy     =   -3.94 kcal/mol
USER    (3) Torsional Free Energy           =   +3.88 kcal/mol
USER    (4) Unbound System's Energy  [=(2)] =   -3.94 kcal/mol
USER    
USER    
USER  
USER    DPF = D:/Protein_go_brrr/autodock/final/6BB5/heme/dock.dpf
USER    NEWDPF move	heme_opt.pdbqt
USER    NEWDPF about	0.153000 0.018000 -0.028000
USER    NEWDPF tran0	20.310851 45.757102 -6.014180
USER    NEWDPF axisangle0	0.716682 -0.659887 0.225647 -49.040387
USER    NEWDPF quaternion0	0.297433 -0.273862 0.093647 -0.909815
USER    NEWDPF dihe0	108.63 -158.19 -57.35 24.64 -132.69 -30.23 132.37 40.34 32.34 -121.24 -60.42 -47.12 0.38 
USER  
USER                              x       y       z    vdW   Elec        q     RMS 
ATOM      1  O   UNL d   1      14.790  46.692  -7.859 -0.02 +0.04    -0.289    46.177
ATOM      2  O   UNL d   1      20.413  42.769 -10.923 -0.10 -0.10    -0.289    46.177
ATOM      3  N   UNL d   1      17.939  46.537  -6.461 -0.11 +0.02    -0.247    46.177
ATOM      4  N   UNL d   1      19.349  44.558  -8.170 -0.11 -0.03    -0.247    46.177
ATOM      5  N   UNL d   1      21.409  44.434  -6.168 -0.08 -0.03    -0.354    46.177
ATOM      6  N   UNL d   1      19.930  46.474  -4.392 -0.13 +0.05    -0.354    46.177
ATOM      7  C   UNL d   1      15.786  47.486  -5.773 -0.26 -0.01    +0.084    46.177
ATOM      8  C   UNL d   1      18.559  44.301 -10.468 -0.11 +0.01    +0.084    46.177
ATOM      9  C   UNL d   1      18.384  44.927  -9.081 -0.15 +0.01    +0.058    46.177
ATOM     10  C   UNL d   1      17.264  47.226  -5.467 -0.23 -0.01    +0.058    46.177
ATOM     11  C   UNL d   1      15.750  46.838  -7.125 -0.19 -0.03    +0.193    46.177
ATOM     12  C   UNL d   1      17.121  46.324  -7.439 -0.18 -0.01    +0.109    46.177
ATOM     13  C   UNL d   1      19.781  43.480 -10.167 -0.07 +0.06    +0.193    46.177
ATOM     14  C   UNL d   1      14.860  46.716  -4.829 -0.52 -0.01    +0.026    46.177
ATOM     15  C   UNL d   1      17.350  45.723  -8.768 -0.19 -0.00    +0.055    46.177
ATOM     16  C   UNL d   1      18.920  45.352 -11.523 -0.04 +0.00    +0.026    46.177
ATOM     17  C   UNL d   1      20.154  43.719  -8.740 -0.11 +0.02    +0.109    46.177
ATOM     18  C   UNL d   1      17.850  47.718  -4.359 -0.25 -0.01    +0.050    46.177
ATOM     19  C   UNL d   1      19.226  47.601  -4.035 -0.11 -0.01    +0.045    46.177
ATOM     20  C   UNL d   1      21.790  43.385  -6.963 -0.19 +0.01    +0.045    46.177
ATOM     21  C   UNL d   1      21.296  43.007  -8.147 -0.17 +0.01    +0.057    46.177
ATOM     22  C   UNL d   1      23.097  43.404  -5.090 -0.20 -0.00    -0.019    46.177
ATOM     23  C   UNL d   1      22.141  44.527  -5.014 -0.24 +0.00    +0.045    46.177
ATOM     24  C   UNL d   1      22.886  42.733  -6.246 -0.17 -0.00    -0.022    46.177
ATOM     25  C   UNL d   1      21.214  46.530  -3.902 -0.23 -0.00    +0.049    46.177
ATOM     26  C   UNL d   1      20.084  48.428  -3.326 -0.16 +0.00    -0.018    46.177
ATOM     27  C   UNL d   1      21.343  47.756  -3.262 -0.18 -0.00    +0.003    46.177
ATOM     28  C   UNL d   1      22.085  45.412  -4.007 -0.29 -0.00    +0.052    46.177
ATOM     29  C   UNL d   1      23.603  41.539  -6.776 -0.14 +0.01    +0.046    46.177
ATOM     30  C   UNL d   1      19.757  49.762  -2.746 -0.17 -0.01    +0.046    46.177
ATOM     31  H   UNL d   1      20.708  45.100  -6.476 +0.06 +0.01    +0.166    46.177
ATOM     32  H   UNL d   1      19.527  45.701  -4.909 +0.06 -0.01    +0.166    46.177
ATOM     33  C   UNL d   1      15.386  48.962  -5.874 -0.14 -0.02    +0.141    46.177
ATOM     34  C   UNL d   1      15.737  49.568  -7.206 -0.03 -0.03    +0.306    46.177
ATOM     35  O   UNL d   1      16.842  49.944  -7.558 -0.01 +0.02    -0.251    46.177
ATOM     36  O   UNL d   1      14.676  49.666  -8.026 -0.01 +0.04    -0.481    46.177
ATOM     37  H   UNL d   1      14.507  48.746  -8.322 +0.07 -0.03    +0.295    46.177
ATOM     38  C   UNL d   1      22.513  48.255  -2.604 -0.13 -0.00    +0.017    46.177
ATOM     39  C   UNL d   1      23.630  47.550  -2.370 -0.11 +0.00    +0.092    46.177
ATOM     40  C   UNL d   1      24.767  48.186  -1.699 -0.03 +0.03    +0.330    46.177
ATOM     41  O   UNL d   1      25.113  49.350  -1.764 -0.01 -0.01    -0.246    46.177
ATOM     42  O   UNL d   1      25.423  47.286  -0.950 -0.03 -0.08    -0.477    46.177
ATOM     43  H   UNL d   1      25.172  46.425  -1.343 +0.07 +0.05    +0.295    46.177
ATOM     44  C   UNL d   1      17.404  43.413 -10.943 -0.14 +0.03    +0.141    46.177
ATOM     45  C   UNL d   1      17.718  42.655 -12.205 -0.07 +0.12    +0.306    46.177
ATOM     46  O   UNL d   1      18.247  41.560 -12.283 -0.58 -0.24    -0.251    46.177
ATOM     47  O   UNL d   1      17.369  43.334 -13.313 -0.00 -0.07    -0.481    46.177
ATOM     48  H   UNL d   1      18.203  43.421 -13.823 +0.03 +0.04    +0.295    46.177
ATOM     49  C   UNL d   1      24.109  43.087  -4.028 -0.24 +0.01    +0.048    46.177
ATOM     50  C   UNL d   1      25.371  43.937  -4.172 -0.14 +0.01    +0.125    46.177
ATOM     51  C   UNL d   1      25.608  44.759  -2.938 -0.10 +0.04    +0.305    46.177
ATOM     52  O   UNL d   1      25.362  44.455  -1.784 -0.13 -0.05    -0.251    46.177
ATOM     53  O   UNL d   1      26.147  45.960  -3.228 -0.00 -0.05    -0.481    46.177
ATOM     54  H   UNL d   1      26.607  46.220  -2.402 +0.04 +0.04    +0.295    46.177
TER
ENDMDL
MODEL       98
USER    Run = 98
USER    Cluster Rank = 52
USER    Number of conformations in this cluster = 1
USER  
USER    RMSD from reference structure       = 44.603 A
USER  
USER    Estimated Free Energy of Binding    =   -2.79 kcal/mol  [=(1)+(2)+(3)-(4)]
USER    Estimated Inhibition Constant, Ki   =    8.96 mM (millimolar)  [Temperature = 298.15 K]
USER    
USER    (1) Final Intermolecular Energy     =   -6.67 kcal/mol
USER        vdW + Hbond + desolv Energy     =   -6.76 kcal/mol
USER        Electrostatic Energy            =   +0.09 kcal/mol
USER    (2) Final Total Internal Energy     =   -4.69 kcal/mol
USER    (3) Torsional Free Energy           =   +3.88 kcal/mol
USER    (4) Unbound System's Energy  [=(2)] =   -4.69 kcal/mol
USER    
USER    
USER  
USER    DPF = D:/Protein_go_brrr/autodock/final/6BB5/heme/dock.dpf
USER    NEWDPF move	heme_opt.pdbqt
USER    NEWDPF about	0.153000 0.018000 -0.028000
USER    NEWDPF tran0	43.420226 24.812643 -0.359851
USER    NEWDPF axisangle0	-0.986691 -0.129124 0.098834 117.711645
USER    NEWDPF quaternion0	-0.844478 -0.110513 0.084589 0.517193
USER    NEWDPF dihe0	-117.22 146.16 -117.30 49.83 52.22 -58.12 121.36 33.14 146.72 -28.01 -90.74 24.60 -4.46 
USER  
USER                              x       y       z    vdW   Elec        q     RMS 
ATOM      1  O   UNL d   1      38.471  22.934   2.235 -0.22 +0.09    -0.289    44.603
ATOM      2  O   UNL d   1      39.583  28.093  -3.107 -0.02 -0.00    -0.289    44.603
ATOM      3  N   UNL d   1      41.611  23.808   1.106 -0.15 -0.01    -0.247    44.603
ATOM      4  N   UNL d   1      41.036  25.645  -1.157 -0.14 -0.01    -0.247    44.603
ATOM      5  N   UNL d   1      43.789  25.385  -1.946 -0.06 -0.04    -0.354    44.603
ATOM      6  N   UNL d   1      44.372  23.465   0.394 -0.10 -0.05    -0.354    44.603
ATOM      7  C   UNL d   1      40.736  22.106   2.638 -0.23 -0.00    +0.084    44.603
ATOM      8  C   UNL d   1      38.915  26.857  -1.103 -0.16 -0.00    +0.084    44.603
ATOM      9  C   UNL d   1      39.841  25.800  -0.492 -0.23 +0.00    +0.058    44.603
ATOM     10  C   UNL d   1      41.936  22.751   1.939 -0.24 +0.00    +0.058    44.603
ATOM     11  C   UNL d   1      39.675  22.999   2.067 -0.22 -0.03    +0.193    44.603
ATOM     12  C   UNL d   1      40.335  24.005   1.175 -0.26 -0.00    +0.109    44.603
ATOM     13  C   UNL d   1      39.791  27.246  -2.260 -0.07 +0.00    +0.193    44.603
ATOM     14  C   UNL d   1      40.490  20.675   2.155 -0.12 -0.00    +0.026    44.603
ATOM     15  C   UNL d   1      39.492  25.055   0.569 -0.30 -0.00    +0.055    44.603
ATOM     16  C   UNL d   1      38.749  28.068  -0.181 -0.19 -0.00    +0.026    44.603
ATOM     17  C   UNL d   1      41.042  26.434  -2.183 -0.12 +0.00    +0.109    44.603
ATOM     18  C   UNL d   1      43.197  22.358   2.203 -0.28 +0.01    +0.050    44.603
ATOM     19  C   UNL d   1      44.371  22.950   1.670 -0.25 +0.01    +0.045    44.603
ATOM     20  C   UNL d   1      43.292  26.045  -3.040 -0.12 +0.00    +0.045    44.603
ATOM     21  C   UNL d   1      42.076  26.572  -3.220 -0.10 +0.00    +0.057    44.603
ATOM     22  C   UNL d   1      45.453  25.438  -3.463 -0.09 -0.00    -0.019    44.603
ATOM     23  C   UNL d   1      45.087  24.979  -2.108 -0.12 +0.00    +0.045    44.603
ATOM     24  C   UNL d   1      44.387  26.069  -4.009 -0.08 -0.00    -0.022    44.603
ATOM     25  C   UNL d   1      45.629  23.903   0.050 -0.16 +0.01    +0.049    44.603
ATOM     26  C   UNL d   1      45.651  23.090   2.183 -0.30 -0.00    -0.018    44.603
ATOM     27  C   UNL d   1      46.437  23.711   1.163 -0.24 +0.00    +0.003    44.603
ATOM     28  C   UNL d   1      45.915  24.332  -1.275 -0.14 +0.01    +0.052    44.603
ATOM     29  C   UNL d   1      44.269  26.713  -5.349 -0.03 +0.00    +0.046    44.603
ATOM     30  C   UNL d   1      46.119  22.677   3.537 -0.26 +0.01    +0.046    44.603
ATOM     31  H   UNL d   1      43.247  25.297  -1.093 +0.03 +0.03    +0.166    44.603
ATOM     32  H   UNL d   1      43.557  23.472  -0.208 +0.04 +0.02    +0.166    44.603
ATOM     33  C   UNL d   1      40.743  22.191   4.168 -0.27 -0.01    +0.141    44.603
ATOM     34  C   UNL d   1      39.745  21.261   4.804 -0.22 -0.09    +0.306    44.603
ATOM     35  O   UNL d   1      40.000  20.225   5.395 -0.24 +0.06    -0.251    44.603
ATOM     36  O   UNL d   1      38.477  21.688   4.665 -0.18 +0.19    -0.481    44.603
ATOM     37  H   UNL d   1      38.335  21.727   3.695 +0.14 -0.13    +0.295    44.603
ATOM     38  C   UNL d   1      47.829  24.026   1.271 -0.24 +0.00    +0.017    44.603
ATOM     39  C   UNL d   1      48.352  25.260   1.195 -0.24 +0.01    +0.092    44.603
ATOM     40  C   UNL d   1      49.798  25.450   1.339 -0.13 +0.01    +0.330    44.603
ATOM     41  O   UNL d   1      50.493  25.165   2.295 -0.16 -0.01    -0.246    44.603
ATOM     42  O   UNL d   1      50.304  26.001   0.225 -0.04 -0.01    -0.477    44.603
ATOM     43  H   UNL d   1      49.757  25.623  -0.494 +0.06 +0.01    +0.295    44.603
ATOM     44  C   UNL d   1      37.557  26.342  -1.591 -0.09 -0.00    +0.141    44.603
ATOM     45  C   UNL d   1      37.633  25.628  -2.914 -0.01 -0.01    +0.306    44.603
ATOM     46  O   UNL d   1      38.032  24.492  -3.105 -0.01 +0.01    -0.251    44.603
ATOM     47  O   UNL d   1      37.224  26.398  -3.939 +0.00 +0.00    -0.481    44.603
ATOM     48  H   UNL d   1      37.850  27.152  -3.948 +0.01 -0.00    +0.295    44.603
ATOM     49  C   UNL d   1      46.793  25.206  -4.098 -0.05 +0.00    +0.048    44.603
ATOM     50  C   UNL d   1      47.784  26.317  -3.756 -0.06 -0.00    +0.125    44.603
ATOM     51  C   UNL d   1      48.547  25.989  -2.504 -0.05 +0.00    +0.305    44.603
ATOM     52  O   UNL d   1      48.799  24.885  -2.055 -0.04 -0.01    -0.251    44.603
ATOM     53  O   UNL d   1      48.953  27.099  -1.856 -0.04 +0.03    -0.481    44.603
ATOM     54  H   UNL d   1      49.904  26.938  -1.681 +0.04 -0.00    +0.295    44.603
TER
ENDMDL
MODEL       25
USER    Run = 25
USER    Cluster Rank = 53
USER    Number of conformations in this cluster = 1
USER  
USER    RMSD from reference structure       = 32.557 A
USER  
USER    Estimated Free Energy of Binding    =   -2.79 kcal/mol  [=(1)+(2)+(3)-(4)]
USER    Estimated Inhibition Constant, Ki   =    9.03 mM (millimolar)  [Temperature = 298.15 K]
USER    
USER    (1) Final Intermolecular Energy     =   -6.67 kcal/mol
USER        vdW + Hbond + desolv Energy     =   -6.22 kcal/mol
USER        Electrostatic Energy            =   -0.44 kcal/mol
USER    (2) Final Total Internal Energy     =   -2.75 kcal/mol
USER    (3) Torsional Free Energy           =   +3.88 kcal/mol
USER    (4) Unbound System's Energy  [=(2)] =   -2.75 kcal/mol
USER    
USER    
USER  
USER    DPF = D:/Protein_go_brrr/autodock/final/6BB5/heme/dock.dpf
USER    NEWDPF move	heme_opt.pdbqt
USER    NEWDPF about	0.153000 0.018000 -0.028000
USER    NEWDPF tran0	18.497657 29.075021 -12.292700
USER    NEWDPF axisangle0	-0.326695 0.481197 0.813462 119.970236
USER    NEWDPF quaternion0	-0.282884 0.416666 0.704373 0.500225
USER    NEWDPF dihe0	171.38 -27.99 -119.04 121.62 -147.63 157.08 121.27 80.94 15.99 -28.82 110.01 20.50 172.73 
USER  
USER                              x       y       z    vdW   Elec        q     RMS 
ATOM      1  O   UNL d   1      20.666  34.291 -10.607 -0.02 -0.03    -0.289    32.557
ATOM      2  O   UNL d   1      18.415  31.832 -17.335 -0.00 +0.00    -0.289    32.557
ATOM      3  N   UNL d   1      19.579  31.063 -11.148 -0.04 +0.04    -0.247    32.557
ATOM      4  N   UNL d   1      18.637  31.123 -13.965 -0.02 +0.01    -0.247    32.557
ATOM      5  N   UNL d   1      17.355  28.593 -13.493 -0.04 +0.04    -0.354    32.557
ATOM      6  N   UNL d   1      18.320  28.549 -10.566 -0.09 +0.09    -0.354    32.557
ATOM      7  C   UNL d   1      20.213  32.366  -9.171 -0.17 -0.02    +0.084    32.557
ATOM      8  C   UNL d   1      19.644  32.786 -15.446 -0.00 +0.00    +0.084    32.557
ATOM      9  C   UNL d   1      19.490  32.201 -14.038 -0.01 -0.00    +0.058    32.557
ATOM     10  C   UNL d   1      19.719  31.046  -9.770 -0.20 -0.02    +0.058    32.557
ATOM     11  C   UNL d   1      20.344  33.127 -10.456 -0.03 -0.01    +0.193    32.557
ATOM     12  C   UNL d   1      19.956  32.221 -11.583 -0.03 -0.01    +0.109    32.557
ATOM     13  C   UNL d   1      18.690  31.864 -16.152 +0.00 -0.00    +0.193    32.557
ATOM     14  C   UNL d   1      19.145  33.038  -8.304 -0.21 -0.00    +0.026    32.557
ATOM     15  C   UNL d   1      20.096  32.729 -12.963 -0.02 +0.00    +0.055    32.557
ATOM     16  C   UNL d   1      21.052  32.560 -16.004 +0.00 +0.00    +0.026    32.557
ATOM     17  C   UNL d   1      18.142  30.909 -15.142 -0.03 -0.00    +0.109    32.557
ATOM     18  C   UNL d   1      19.534  29.953  -9.007 -0.34 -0.03    +0.050    32.557
ATOM     19  C   UNL d   1      19.161  28.670  -9.483 -0.27 -0.02    +0.045    32.557
ATOM     20  C   UNL d   1      16.827  28.899 -14.721 -0.09 -0.00    +0.045    32.557
ATOM     21  C   UNL d   1      17.142  29.907 -15.540 -0.07 -0.00    +0.057    32.557
ATOM     22  C   UNL d   1      15.792  27.028 -13.918 -0.12 +0.00    -0.019    32.557
ATOM     23  C   UNL d   1      16.792  27.479 -12.930 -0.14 -0.01    +0.045    32.557
ATOM     24  C   UNL d   1      15.819  27.872 -14.977 -0.09 +0.00    -0.022    32.557
ATOM     25  C   UNL d   1      18.020  27.227 -10.799 -0.16 -0.01    +0.049    32.557
ATOM     26  C   UNL d   1      19.445  27.393  -9.024 -0.29 +0.01    -0.018    32.557
ATOM     27  C   UNL d   1      18.737  26.485  -9.871 -0.22 -0.00    +0.003    32.557
ATOM     28  C   UNL d   1      17.045  26.860 -11.767 -0.20 -0.01    +0.052    32.557
ATOM     29  C   UNL d   1      15.007  27.827 -16.226 -0.07 -0.00    +0.046    32.557
ATOM     30  C   UNL d   1      20.321  27.036  -7.872 -0.32 -0.03    +0.046    32.557
ATOM     31  H   UNL d   1      18.137  29.115 -13.112 +0.03 -0.02    +0.166    32.557
ATOM     32  H   UNL d   1      17.951  29.340 -11.080 +0.07 -0.03    +0.166    32.557
ATOM     33  C   UNL d   1      21.562  32.295  -8.447 -0.10 -0.07    +0.141    32.557
ATOM     34  C   UNL d   1      22.695  31.932  -9.368 -0.04 -0.12    +0.306    32.557
ATOM     35  O   UNL d   1      23.124  30.809  -9.575 -0.05 +0.12    -0.251    32.557
ATOM     36  O   UNL d   1      23.227  33.003  -9.983 +0.01 +0.08    -0.481    32.557
ATOM     37  H   UNL d   1      22.599  33.733  -9.794 +0.03 -0.03    +0.295    32.557
ATOM     38  C   UNL d   1      18.740  25.059  -9.737 -0.21 -0.00    +0.017    32.557
ATOM     39  C   UNL d   1      19.112  24.193 -10.691 -0.15 -0.02    +0.092    32.557
ATOM     40  C   UNL d   1      19.086  22.753 -10.421 -0.11 -0.10    +0.330    32.557
ATOM     41  O   UNL d   1      18.977  21.847 -11.225 -0.08 +0.08    -0.246    32.557
ATOM     42  O   UNL d   1      19.212  22.528  -9.104 -0.09 +0.19    -0.477    32.557
ATOM     43  H   UNL d   1      18.744  21.679  -8.965 -0.44 -0.23    +0.295    32.557
ATOM     44  C   UNL d   1      19.212  34.248 -15.604 +0.00 +0.01    +0.141    32.557
ATOM     45  C   UNL d   1      17.720  34.419 -15.703 +0.00 +0.03    +0.306    32.557
ATOM     46  O   UNL d   1      16.921  34.374 -14.784 -0.03 -0.03    -0.251    32.557
ATOM     47  O   UNL d   1      17.306  34.613 -16.968 +0.01 -0.02    -0.481    32.557
ATOM     48  H   UNL d   1      17.590  33.806 -17.448 +0.01 +0.01    +0.295    32.557
ATOM     49  C   UNL d   1      14.902  25.834 -13.731 -0.13 -0.01    +0.048    32.557
ATOM     50  C   UNL d   1      13.594  26.204 -13.031 -0.27 -0.05    +0.125    32.557
ATOM     51  C   UNL d   1      13.841  26.577 -11.597 -0.25 -0.17    +0.305    32.557
ATOM     52  O   UNL d   1      14.329  27.609 -11.170 -0.60 +0.10    -0.251    32.557
ATOM     53  O   UNL d   1      13.461  25.600 -10.749 -0.25 +0.40    -0.481    32.557
ATOM     54  H   UNL d   1      12.507  25.477 -10.939 -0.30 -0.53    +0.295    32.557
TER
ENDMDL
MODEL       51
USER    Run = 51
USER    Cluster Rank = 54
USER    Number of conformations in this cluster = 3
USER  
USER    RMSD from reference structure       = 44.449 A
USER  
USER    Estimated Free Energy of Binding    =   -2.79 kcal/mol  [=(1)+(2)+(3)-(4)]
USER    Estimated Inhibition Constant, Ki   =    9.05 mM (millimolar)  [Temperature = 298.15 K]
USER    
USER    (1) Final Intermolecular Energy     =   -6.67 kcal/mol
USER        vdW + Hbond + desolv Energy     =   -6.58 kcal/mol
USER        Electrostatic Energy            =   -0.09 kcal/mol
USER    (2) Final Total Internal Energy     =   -4.30 kcal/mol
USER    (3) Torsional Free Energy           =   +3.88 kcal/mol
USER    (4) Unbound System's Energy  [=(2)] =   -4.30 kcal/mol
USER    
USER    
USER  
USER    DPF = D:/Protein_go_brrr/autodock/final/6BB5/heme/dock.dpf
USER    NEWDPF move	heme_opt.pdbqt
USER    NEWDPF about	0.153000 0.018000 -0.028000
USER    NEWDPF tran0	22.963153 42.543478 -6.063817
USER    NEWDPF axisangle0	-0.373912 -0.394590 0.839338 -166.052111
USER    NEWDPF quaternion0	-0.371146 -0.391671 0.833128 -0.121418
USER    NEWDPF dihe0	-180.00 153.21 -89.36 4.97 -152.92 53.36 176.19 -4.06 12.99 -105.91 -60.80 -57.34 2.13 
USER  
USER                              x       y       z    vdW   Elec        q     RMS 
ATOM      1  O   UNL d   1      26.550  38.291  -4.111 -0.14 -0.01    -0.289    44.449
ATOM      2  O   UNL d   1      25.508  45.338  -1.734 -0.09 -0.05    -0.289    44.449
ATOM      3  N   UNL d   1      24.405  40.493  -5.676 -0.06 -0.04    -0.247    44.449
ATOM      4  N   UNL d   1      24.430  42.862  -3.883 -0.19 -0.04    -0.247    44.449
ATOM      5  N   UNL d   1      22.122  43.838  -5.292 -0.10 -0.04    -0.354    44.449
ATOM      6  N   UNL d   1      22.091  41.368  -7.135 -0.11 -0.08    -0.354    44.449
ATOM      7  C   UNL d   1      24.933  38.114  -5.936 -0.14 +0.00    +0.084    44.449
ATOM      8  C   UNL d   1      26.425  43.206  -2.513 -0.17 +0.01    +0.084    44.449
ATOM      9  C   UNL d   1      25.641  42.331  -3.497 -0.22 +0.01    +0.058    44.449
ATOM     10  C   UNL d   1      24.122  39.335  -6.380 -0.15 +0.01    +0.058    44.449
ATOM     11  C   UNL d   1      25.737  38.791  -4.867 -0.16 +0.01    +0.193    44.449
ATOM     12  C   UNL d   1      25.344  40.236  -4.825 -0.18 +0.01    +0.109    44.449
ATOM     13  C   UNL d   1      25.418  44.315  -2.384 -0.15 +0.03    +0.193    44.449
ATOM     14  C   UNL d   1      24.051  37.043  -5.287 -0.23 +0.00    +0.026    44.449
ATOM     15  C   UNL d   1      26.076  41.129  -3.904 -0.21 +0.01    +0.055    44.449
ATOM     16  C   UNL d   1      27.700  43.771  -3.147 -0.07 +0.00    +0.026    44.449
ATOM     17  C   UNL d   1      24.253  43.982  -3.257 -0.27 +0.02    +0.109    44.449
ATOM     18  C   UNL d   1      23.281  39.276  -7.429 -0.15 +0.01    +0.050    44.449
ATOM     19  C   UNL d   1      22.555  40.371  -7.964 -0.14 +0.01    +0.045    44.449
ATOM     20  C   UNL d   1      22.151  44.724  -4.246 -0.26 +0.00    +0.045    44.449
ATOM     21  C   UNL d   1      23.084  44.873  -3.300 -0.25 +0.00    +0.057    44.449
ATOM     22  C   UNL d   1      20.239  45.064  -5.448 -0.31 +0.00    -0.019    44.449
ATOM     23  C   UNL d   1      21.005  43.967  -6.074 -0.28 +0.00    +0.045    44.449
ATOM     24  C   UNL d   1      20.923  45.509  -4.368 -0.29 +0.00    -0.022    44.449
ATOM     25  C   UNL d   1      21.341  42.276  -7.845 -0.18 +0.01    +0.049    44.449
ATOM     26  C   UNL d   1      22.126  40.658  -9.250 -0.12 -0.01    -0.018    44.449
ATOM     27  C   UNL d   1      21.376  41.873  -9.173 -0.08 +0.00    +0.003    44.449
ATOM     28  C   UNL d   1      20.626  43.310  -7.180 -0.28 +0.01    +0.052    44.449
ATOM     29  C   UNL d   1      20.566  46.605  -3.423 -0.29 -0.01    +0.046    44.449
ATOM     30  C   UNL d   1      22.396  39.857 -10.479 -0.09 +0.01    +0.046    44.449
ATOM     31  H   UNL d   1      22.905  43.222  -5.481 +0.06 +0.03    +0.166    44.449
ATOM     32  H   UNL d   1      22.257  41.388  -6.136 +0.08 +0.04    +0.166    44.449
ATOM     33  C   UNL d   1      25.854  37.513  -7.003 -0.04 +0.00    +0.141    44.449
ATOM     34  C   UNL d   1      26.894  38.487  -7.486 -0.01 +0.01    +0.306    44.449
ATOM     35  O   UNL d   1      26.838  39.154  -8.505 -0.00 -0.01    -0.251    44.449
ATOM     36  O   UNL d   1      27.949  38.573  -6.656 +0.00 -0.02    -0.481    44.449
ATOM     37  H   UNL d   1      27.724  37.979  -5.909 +0.03 +0.01    +0.295    44.449
ATOM     38  C   UNL d   1      20.737  42.520 -10.278 -0.07 +0.01    +0.017    44.449
ATOM     39  C   UNL d   1      19.734  43.406 -10.183 -0.10 +0.03    +0.092    44.449
ATOM     40  C   UNL d   1      19.177  44.012 -11.395 -0.05 +0.07    +0.330    44.449
ATOM     41  O   UNL d   1      18.782  43.445 -12.396 -0.07 -0.06    -0.246    44.449
ATOM     42  O   UNL d   1      19.140  45.348 -11.268 +0.00 -0.04    -0.477    44.449
ATOM     43  H   UNL d   1      19.073  45.490 -10.301 +0.04 +0.02    +0.295    44.449
ATOM     44  C   UNL d   1      26.718  42.569  -1.151 -0.21 +0.02    +0.141    44.449
ATOM     45  C   UNL d   1      26.940  43.580  -0.058 -0.13 +0.09    +0.306    44.449
ATOM     46  O   UNL d   1      26.431  43.576   1.050 -0.19 -0.12    -0.251    44.449
ATOM     47  O   UNL d   1      27.776  44.566  -0.430 -0.02 -0.13    -0.481    44.449
ATOM     48  H   UNL d   1      27.193  45.252  -0.820 +0.06 +0.07    +0.295    44.449
ATOM     49  C   UNL d   1      18.915  45.561  -5.951 -0.32 -0.00    +0.048    44.449
ATOM     50  C   UNL d   1      19.079  46.534  -7.119 -0.10 -0.00    +0.125    44.449
ATOM     51  C   UNL d   1      18.387  46.017  -8.348 -0.07 +0.00    +0.305    44.449
ATOM     52  O   UNL d   1      17.913  44.909  -8.524 -0.17 -0.02    -0.251    44.449
ATOM     53  O   UNL d   1      18.337  46.945  -9.325 +0.01 +0.00    -0.481    44.449
ATOM     54  H   UNL d   1      17.806  46.519 -10.030 +0.05 -0.00    +0.295    44.449
TER
ENDMDL
MODEL       39
USER    Run = 39
USER    Cluster Rank = 55
USER    Number of conformations in this cluster = 1
USER  
USER    RMSD from reference structure       = 32.571 A
USER  
USER    Estimated Free Energy of Binding    =   -2.75 kcal/mol  [=(1)+(2)+(3)-(4)]
USER    Estimated Inhibition Constant, Ki   =    9.71 mM (millimolar)  [Temperature = 298.15 K]
USER    
USER    (1) Final Intermolecular Energy     =   -6.62 kcal/mol
USER        vdW + Hbond + desolv Energy     =   -6.55 kcal/mol
USER        Electrostatic Energy            =   -0.07 kcal/mol
USER    (2) Final Total Internal Energy     =   -2.80 kcal/mol
USER    (3) Torsional Free Energy           =   +3.88 kcal/mol
USER    (4) Unbound System's Energy  [=(2)] =   -2.80 kcal/mol
USER    
USER    
USER  
USER    DPF = D:/Protein_go_brrr/autodock/final/6BB5/heme/dock.dpf
USER    NEWDPF move	heme_opt.pdbqt
USER    NEWDPF about	0.153000 0.018000 -0.028000
USER    NEWDPF tran0	4.325736 35.259864 -6.019214
USER    NEWDPF axisangle0	-0.681782 0.445532 0.580237 -174.989536
USER    NEWDPF quaternion0	-0.681130 0.445106 0.579682 -0.043711
USER    NEWDPF dihe0	109.67 61.97 -154.87 -91.03 -136.44 -101.57 129.89 -61.65 22.84 -33.43 142.05 11.92 -176.70 
USER  
USER                              x       y       z    vdW   Elec        q     RMS 
ATOM      1  O   UNL d   1       3.113  37.737  -0.809 -0.31 -0.28    -0.289    32.571
ATOM      2  O   UNL d   1       8.877  38.735  -5.518 -0.22 +0.08    -0.289    32.571
ATOM      3  N   UNL d   1       3.473  35.937  -3.728 -0.05 -0.04    -0.247    32.571
ATOM      4  N   UNL d   1       5.817  37.213  -5.034 -0.08 -0.01    -0.247    32.571
ATOM      5  N   UNL d   1       5.114  35.821  -7.449 -0.10 -0.03    -0.354    32.571
ATOM      6  N   UNL d   1       2.673  34.516  -6.092 -0.06 -0.03    -0.354    32.571
ATOM      7  C   UNL d   1       1.734  36.116  -2.011 -0.08 +0.03    +0.084    32.571
ATOM      8  C   UNL d   1       7.436  38.327  -3.581 -0.27 -0.00    +0.084    32.571
ATOM      9  C   UNL d   1       6.096  37.602  -3.742 -0.17 +0.00    +0.058    32.571
ATOM     10  C   UNL d   1       2.221  35.501  -3.326 -0.06 +0.01    +0.058    32.571
ATOM     11  C   UNL d   1       2.939  36.962  -1.731 -0.12 +0.10    +0.193    32.571
ATOM     12  C   UNL d   1       3.933  36.746  -2.831 -0.10 +0.03    +0.109    32.571
ATOM     13  C   UNL d   1       7.849  38.311  -5.026 -0.18 -0.02    +0.193    32.571
ATOM     14  C   UNL d   1       0.524  37.031  -2.218 -0.07 +0.01    +0.026    32.571
ATOM     15  C   UNL d   1       5.247  37.411  -2.721 -0.07 +0.01    +0.055    32.571
ATOM     16  C   UNL d   1       8.438  37.496  -2.774 -0.40 +0.00    +0.026    32.571
ATOM     17  C   UNL d   1       6.779  37.614  -5.802 -0.13 -0.00    +0.109    32.571
ATOM     18  C   UNL d   1       1.511  34.553  -3.965 -0.07 +0.01    +0.050    32.571
ATOM     19  C   UNL d   1       1.920  33.869  -5.138 -0.10 +0.00    +0.045    32.571
ATOM     20  C   UNL d   1       6.080  36.663  -7.935 -0.11 +0.00    +0.045    32.571
ATOM     21  C   UNL d   1       6.891  37.485  -7.262 -0.02 -0.00    +0.057    32.571
ATOM     22  C   UNL d   1       5.103  35.569  -9.687 -0.19 -0.00    -0.019    32.571
ATOM     23  C   UNL d   1       4.470  35.118  -8.432 -0.17 +0.01    +0.045    32.571
ATOM     24  C   UNL d   1       6.056  36.483  -9.386 -0.17 -0.00    -0.022    32.571
ATOM     25  C   UNL d   1       2.879  33.699  -7.180 -0.06 +0.01    +0.049    32.571
ATOM     26  C   UNL d   1       1.662  32.588  -5.601 -0.12 -0.00    -0.018    32.571
ATOM     27  C   UNL d   1       2.286  32.480  -6.882 -0.15 +0.00    +0.003    32.571
ATOM     28  C   UNL d   1       3.496  34.198  -8.359 -0.16 +0.01    +0.052    32.571
ATOM     29  C   UNL d   1       6.971  37.215 -10.308 -0.14 +0.00    +0.046    32.571
ATOM     30  C   UNL d   1       0.884  31.528  -4.898 -0.11 +0.00    +0.046    32.571
ATOM     31  H   UNL d   1       4.977  35.698  -6.451 +0.04 +0.01    +0.166    32.571
ATOM     32  H   UNL d   1       2.987  35.475  -6.004 +0.02 +0.02    +0.166    32.571
ATOM     33  C   UNL d   1       1.497  35.122  -0.869 -0.11 +0.05    +0.141    32.571
ATOM     34  C   UNL d   1       2.778  34.550  -0.325 -0.11 +0.09    +0.306    32.571
ATOM     35  O   UNL d   1       3.409  33.620  -0.796 -0.12 -0.04    -0.251    32.571
ATOM     36  O   UNL d   1       3.198  35.184   0.785 -0.08 -0.20    -0.481    32.571
ATOM     37  H   UNL d   1       3.530  36.049   0.465 +0.11 +0.16    +0.295    32.571
ATOM     38  C   UNL d   1       2.252  31.320  -7.721 -0.19 +0.00    +0.017    32.571
ATOM     39  C   UNL d   1       3.319  30.761  -8.313 -0.21 +0.01    +0.092    32.571
ATOM     40  C   UNL d   1       3.151  29.561  -9.136 -0.15 +0.05    +0.330    32.571
ATOM     41  O   UNL d   1       3.425  28.413  -8.842 -0.21 +0.01    -0.246    32.571
ATOM     42  O   UNL d   1       2.619  29.886 -10.324 -0.04 -0.16    -0.477    32.571
ATOM     43  H   UNL d   1       1.766  29.404 -10.340 +0.06 +0.06    +0.295    32.571
ATOM     44  C   UNL d   1       7.351  39.762  -3.051 -0.34 -0.00    +0.141    32.571
ATOM     45  C   UNL d   1       7.053  40.775  -4.124 -0.23 -0.01    +0.306    32.571
ATOM     46  O   UNL d   1       5.951  41.097  -4.534 -0.17 -0.02    -0.251    32.571
ATOM     47  O   UNL d   1       8.169  41.315  -4.647 -0.22 +0.15    -0.481    32.571
ATOM     48  H   UNL d   1       8.867  40.645  -4.485 -0.37 -0.16    +0.295    32.571
ATOM     49  C   UNL d   1       4.712  35.082 -11.051 -0.11 +0.01    +0.048    32.571
ATOM     50  C   UNL d   1       3.796  36.072 -11.768 -0.06 +0.02    +0.125    32.571
ATOM     51  C   UNL d   1       2.843  36.718 -10.803 -0.01 +0.04    +0.305    32.571
ATOM     52  O   UNL d   1       1.925  36.190 -10.200 -0.01 -0.03    -0.251    32.571
ATOM     53  O   UNL d   1       3.094  38.033 -10.649 +0.00 -0.04    -0.481    32.571
ATOM     54  H   UNL d   1       2.564  38.460 -11.354 +0.00 +0.02    +0.295    32.571
TER
ENDMDL
MODEL       10
USER    Run = 10
USER    Cluster Rank = 56
USER    Number of conformations in this cluster = 1
USER  
USER    RMSD from reference structure       = 45.289 A
USER  
USER    Estimated Free Energy of Binding    =   -2.72 kcal/mol  [=(1)+(2)+(3)-(4)]
USER    Estimated Inhibition Constant, Ki   =   10.07 mM (millimolar)  [Temperature = 298.15 K]
USER    
USER    (1) Final Intermolecular Energy     =   -6.60 kcal/mol
USER        vdW + Hbond + desolv Energy     =   -6.31 kcal/mol
USER        Electrostatic Energy            =   -0.29 kcal/mol
USER    (2) Final Total Internal Energy     =   -3.43 kcal/mol
USER    (3) Torsional Free Energy           =   +3.88 kcal/mol
USER    (4) Unbound System's Energy  [=(2)] =   -3.43 kcal/mol
USER    
USER    
USER  
USER    DPF = D:/Protein_go_brrr/autodock/final/6BB5/heme/dock.dpf
USER    NEWDPF move	heme_opt.pdbqt
USER    NEWDPF about	0.153000 0.018000 -0.028000
USER    NEWDPF tran0	43.726678 15.714441 17.680615
USER    NEWDPF axisangle0	-0.729033 0.301084 -0.614703 161.665909
USER    NEWDPF quaternion0	-0.719721 0.297239 -0.606852 0.159313
USER    NEWDPF dihe0	-46.48 179.86 -172.22 13.83 -173.09 -48.07 141.16 13.04 -23.71 -18.79 54.60 -19.56 108.61 
USER  
USER                              x       y       z    vdW   Elec        q     RMS 
ATOM      1  O   UNL d   1      42.695  15.343  11.888 -0.01 -0.05    -0.289    45.289
ATOM      2  O   UNL d   1      45.277  21.013  16.081 -0.12 -0.16    -0.289    45.289
ATOM      3  N   UNL d   1      43.012  15.138  15.316 -0.06 -0.05    -0.247    45.289
ATOM      4  N   UNL d   1      44.365  17.685  16.031 -0.09 -0.07    -0.247    45.289
ATOM      5  N   UNL d   1      44.885  16.572  18.630 -0.12 -0.08    -0.354    45.289
ATOM      6  N   UNL d   1      43.497  13.925  17.874 -0.07 -0.07    -0.354    45.289
ATOM      7  C   UNL d   1      42.425  13.558  13.536 -0.05 +0.01    +0.084    45.289
ATOM      8  C   UNL d   1      44.047  19.581  14.522 -0.18 +0.03    +0.084    45.289
ATOM      9  C   UNL d   1      43.829  18.096  14.831 -0.15 +0.01    +0.058    45.289
ATOM     10  C   UNL d   1      42.660  13.830  15.025 -0.09 +0.01    +0.058    45.289
ATOM     11  C   UNL d   1      42.689  14.948  13.040 -0.03 +0.03    +0.193    45.289
ATOM     12  C   UNL d   1      43.009  15.817  14.216 -0.09 +0.02    +0.109    45.289
ATOM     13  C   UNL d   1      44.838  19.928  15.752 -0.12 +0.08    +0.193    45.289
ATOM     14  C   UNL d   1      43.479  12.615  12.951 -0.02 +0.00    +0.026    45.289
ATOM     15  C   UNL d   1      43.215  17.260  13.979 -0.16 +0.01    +0.055    45.289
ATOM     16  C   UNL d   1      42.732  20.365  14.545 -0.36 +0.00    +0.026    45.289
ATOM     17  C   UNL d   1      44.966  18.691  16.580 -0.14 +0.04    +0.109    45.289
ATOM     18  C   UNL d   1      42.446  12.881  15.956 -0.11 +0.01    +0.050    45.289
ATOM     19  C   UNL d   1      42.555  13.065  17.358 -0.09 +0.01    +0.045    45.289
ATOM     20  C   UNL d   1      45.656  17.703  18.700 -0.15 +0.01    +0.045    45.289
ATOM     21  C   UNL d   1      45.734  18.719  17.834 -0.17 +0.02    +0.057    45.289
ATOM     22  C   UNL d   1      46.054  16.424  20.550 -0.12 -0.00    -0.019    45.289
ATOM     23  C   UNL d   1      45.057  15.738  19.703 -0.13 +0.01    +0.045    45.289
ATOM     24  C   UNL d   1      46.403  17.587  19.952 -0.15 -0.00    -0.022    45.289
ATOM     25  C   UNL d   1      43.490  13.881  19.249 -0.22 +0.01    +0.049    45.289
ATOM     26  C   UNL d   1      41.894  12.474  18.423 -0.13 -0.00    -0.018    45.289
ATOM     27  C   UNL d   1      42.475  13.008  19.615 -0.23 +0.00    +0.003    45.289
ATOM     28  C   UNL d   1      44.480  14.566  20.006 -0.17 +0.01    +0.052    45.289
ATOM     29  C   UNL d   1      47.362  18.627  20.422 -0.11 +0.01    +0.046    45.289
ATOM     30  C   UNL d   1      40.789  11.476  18.343 -0.11 +0.00    +0.046    45.289
ATOM     31  H   UNL d   1      44.209  16.441  17.886 +0.04 +0.04    +0.166    45.289
ATOM     32  H   UNL d   1      44.128  14.475  17.302 +0.04 +0.03    +0.166    45.289
ATOM     33  C   UNL d   1      41.006  13.115  13.166 -0.06 +0.01    +0.141    45.289
ATOM     34  C   UNL d   1      39.978  13.562  14.171 -0.11 +0.03    +0.306    45.289
ATOM     35  O   UNL d   1      39.258  12.836  14.835 -0.12 -0.03    -0.251    45.289
ATOM     36  O   UNL d   1      39.915  14.900  14.287 -0.06 +0.01    -0.481    45.289
ATOM     37  H   UNL d   1      38.958  15.108  14.219 -0.47 -0.06    +0.295    45.289
ATOM     38  C   UNL d   1      42.095  12.653  20.949 -0.22 +0.00    +0.017    45.289
ATOM     39  C   UNL d   1      42.388  13.359  22.052 -0.17 +0.01    +0.092    45.289
ATOM     40  C   UNL d   1      41.924  12.894  23.361 -0.10 +0.00    +0.330    45.289
ATOM     41  O   UNL d   1      40.797  12.559  23.675 -0.09 +0.01    -0.246    45.289
ATOM     42  O   UNL d   1      42.945  12.869  24.231 -0.01 -0.02    -0.477    45.289
ATOM     43  H   UNL d   1      43.711  13.176  23.703 +0.05 +0.02    +0.295    45.289
ATOM     44  C   UNL d   1      44.849  19.881  13.252 -0.21 +0.06    +0.141    45.289
ATOM     45  C   UNL d   1      46.297  19.481  13.354 -0.16 +0.21    +0.306    45.289
ATOM     46  O   UNL d   1      46.796  18.446  12.947 -0.09 -0.16    -0.251    45.289
ATOM     47  O   UNL d   1      47.041  20.401  13.995 -0.67 -0.67    -0.481    45.289
ATOM     48  H   UNL d   1      46.392  21.056  14.329 +0.10 +0.32    +0.295    45.289
ATOM     49  C   UNL d   1      46.577  15.877  21.846 -0.11 +0.01    +0.048    45.289
ATOM     50  C   UNL d   1      46.476  14.353  21.902 -0.05 +0.02    +0.125    45.289
ATOM     51  C   UNL d   1      45.706  13.911  23.113 -0.03 +0.03    +0.305    45.289
ATOM     52  O   UNL d   1      45.108  14.612  23.910 -0.06 -0.03    -0.251    45.289
ATOM     53  O   UNL d   1      45.740  12.572  23.271 +0.01 -0.04    -0.481    45.289
ATOM     54  H   UNL d   1      45.043  12.394  23.937 +0.02 +0.02    +0.295    45.289
TER
ENDMDL
MODEL       31
USER    Run = 31
USER    Cluster Rank = 57
USER    Number of conformations in this cluster = 1
USER  
USER    RMSD from reference structure       = 50.273 A
USER  
USER    Estimated Free Energy of Binding    =   -2.72 kcal/mol  [=(1)+(2)+(3)-(4)]
USER    Estimated Inhibition Constant, Ki   =   10.20 mM (millimolar)  [Temperature = 298.15 K]
USER    
USER    (1) Final Intermolecular Energy     =   -6.59 kcal/mol
USER        vdW + Hbond + desolv Energy     =   -6.48 kcal/mol
USER        Electrostatic Energy            =   -0.12 kcal/mol
USER    (2) Final Total Internal Energy     =   -4.47 kcal/mol
USER    (3) Torsional Free Energy           =   +3.88 kcal/mol
USER    (4) Unbound System's Energy  [=(2)] =   -4.47 kcal/mol
USER    
USER    
USER  
USER    DPF = D:/Protein_go_brrr/autodock/final/6BB5/heme/dock.dpf
USER    NEWDPF move	heme_opt.pdbqt
USER    NEWDPF about	0.153000 0.018000 -0.028000
USER    NEWDPF tran0	45.379459 20.970635 22.241633
USER    NEWDPF axisangle0	0.623975 0.001193 0.781443 162.278612
USER    NEWDPF quaternion0	0.616529 0.001179 0.772117 0.154033
USER    NEWDPF dihe0	110.63 118.67 105.59 -65.75 178.61 -44.36 -46.31 -24.16 -20.02 -127.42 -68.32 2.78 8.39 
USER  
USER                              x       y       z    vdW   Elec        q     RMS 
ATOM      1  O   UNL d   1      47.480  20.813  16.735 -0.06 -0.42    -0.289    50.273
ATOM      2  O   UNL d   1      43.228  25.912  20.244 -0.22 -0.17    -0.289    50.273
ATOM      3  N   UNL d   1      46.366  20.406  19.974 -0.09 -0.07    -0.247    50.273
ATOM      4  N   UNL d   1      45.058  23.005  20.578 -0.60 -0.12    -0.247    50.273
ATOM      5  N   UNL d   1      45.046  22.250  23.352 -0.09 -0.13    -0.354    50.273
ATOM      6  N   UNL d   1      46.421  19.564  22.719 -0.06 -0.07    -0.354    50.273
ATOM      7  C   UNL d   1      47.883  19.169  18.499 -0.05 +0.04    +0.084    50.273
ATOM      8  C   UNL d   1      44.179  24.280  18.687 -0.19 +0.03    +0.084    50.273
ATOM      9  C   UNL d   1      44.966  23.071  19.205 -0.16 +0.03    +0.058    50.273
ATOM     10  C   UNL d   1      47.202  19.308  19.864 -0.11 +0.02    +0.058    50.273
ATOM     11  C   UNL d   1      47.269  20.373  17.851 -0.08 +0.15    +0.193    50.273
ATOM     12  C   UNL d   1      46.349  21.024  18.838 -0.12 +0.05    +0.109    50.273
ATOM     13  C   UNL d   1      43.874  24.907  20.018 -0.19 +0.10    +0.193    50.273
ATOM     14  C   UNL d   1      49.398  19.374  18.589 -0.04 +0.02    +0.026    50.273
ATOM     15  C   UNL d   1      45.556  22.185  18.388 -0.17 +0.03    +0.055    50.273
ATOM     16  C   UNL d   1      42.862  23.860  18.027 -0.40 +0.01    +0.026    50.273
ATOM     17  C   UNL d   1      44.468  24.042  21.081 -0.19 +0.06    +0.109    50.273
ATOM     18  C   UNL d   1      47.353  18.376  20.823 -0.11 +0.01    +0.050    50.273
ATOM     19  C   UNL d   1      46.699  18.376  22.082 -0.10 +0.01    +0.045    50.273
ATOM     20  C   UNL d   1      44.667  23.562  23.463 -0.19 +0.03    +0.045    50.273
ATOM     21  C   UNL d   1      44.364  24.432  22.495 -0.24 +0.04    +0.057    50.273
ATOM     22  C   UNL d   1      45.016  22.714  25.556 -0.11 -0.01    -0.019    50.273
ATOM     23  C   UNL d   1      45.279  21.654  24.562 -0.14 +0.01    +0.045    50.273
ATOM     24  C   UNL d   1      44.653  23.841  24.899 -0.16 -0.01    -0.022    50.273
ATOM     25  C   UNL d   1      45.870  19.330  23.958 -0.13 +0.01    +0.049    50.273
ATOM     26  C   UNL d   1      46.285  17.345  22.911 -0.12 -0.00    -0.018    50.273
ATOM     27  C   UNL d   1      45.744  17.954  24.085 -0.15 +0.00    +0.003    50.273
ATOM     28  C   UNL d   1      45.642  20.398  24.868 -0.14 +0.01    +0.052    50.273
ATOM     29  C   UNL d   1      44.278  25.169  25.463 -0.20 +0.04    +0.046    50.273
ATOM     30  C   UNL d   1      46.382  15.884  22.630 -0.11 +0.01    +0.046    50.273
ATOM     31  H   UNL d   1      45.061  21.781  22.452 +0.04 +0.06    +0.166    50.273
ATOM     32  H   UNL d   1      46.638  20.474  22.330 +0.03 +0.04    +0.166    50.273
ATOM     33  C   UNL d   1      47.532  17.899  17.716 -0.04 +0.06    +0.141    50.273
ATOM     34  C   UNL d   1      46.167  17.367  18.058 -0.08 +0.09    +0.306    50.273
ATOM     35  O   UNL d   1      45.905  16.228  18.406 -0.08 -0.06    -0.251    50.273
ATOM     36  O   UNL d   1      45.204  18.299  17.946 -0.08 -0.12    -0.481    50.273
ATOM     37  H   UNL d   1      45.354  18.901  18.706 +0.08 +0.06    +0.295    50.273
ATOM     38  C   UNL d   1      45.214  17.247  25.212 -0.15 +0.00    +0.017    50.273
ATOM     39  C   UNL d   1      44.126  17.606  25.909 -0.19 +0.00    +0.092    50.273
ATOM     40  C   UNL d   1      43.676  16.783  27.035 -0.07 +0.01    +0.330    50.273
ATOM     41  O   UNL d   1      43.552  15.573  27.069 -0.04 -0.00    -0.246    50.273
ATOM     42  O   UNL d   1      43.407  17.559  28.096 -0.05 -0.04    -0.477    50.273
ATOM     43  H   UNL d   1      44.265  17.984  28.299 +0.04 +0.03    +0.295    50.273
ATOM     44  C   UNL d   1      44.965  25.245  17.793 -0.17 +0.06    +0.141    50.273
ATOM     45  C   UNL d   1      44.164  26.448  17.370 -0.15 +0.10    +0.306    50.273
ATOM     46  O   UNL d   1      43.476  26.548  16.370 -0.22 -0.07    -0.251    50.273
ATOM     47  O   UNL d   1      44.297  27.480  18.223 -0.05 -0.20    -0.481    50.273
ATOM     48  H   UNL d   1      43.753  27.231  19.001 +0.13 +0.15    +0.295    50.273
ATOM     49  C   UNL d   1      45.157  22.533  27.038 -0.09 +0.01    +0.048    50.273
ATOM     50  C   UNL d   1      44.002  21.722  27.625 -0.11 +0.04    +0.125    50.273
ATOM     51  C   UNL d   1      44.482  20.388  28.123 -0.07 +0.07    +0.305    50.273
ATOM     52  O   UNL d   1      45.409  19.724  27.694 -0.04 -0.04    -0.251    50.273
ATOM     53  O   UNL d   1      43.742  19.941  29.158 -0.46 -0.14    -0.481    50.273
ATOM     54  H   UNL d   1      43.294  19.145  28.803 +0.07 +0.09    +0.295    50.273
TER
ENDMDL
MODEL       95
USER    Run = 95
USER    Cluster Rank = 58
USER    Number of conformations in this cluster = 1
USER  
USER    RMSD from reference structure       = 50.497 A
USER  
USER    Estimated Free Energy of Binding    =   -2.71 kcal/mol  [=(1)+(2)+(3)-(4)]
USER    Estimated Inhibition Constant, Ki   =   10.30 mM (millimolar)  [Temperature = 298.15 K]
USER    
USER    (1) Final Intermolecular Energy     =   -6.59 kcal/mol
USER        vdW + Hbond + desolv Energy     =   -6.16 kcal/mol
USER        Electrostatic Energy            =   -0.43 kcal/mol
USER    (2) Final Total Internal Energy     =   -3.81 kcal/mol
USER    (3) Torsional Free Energy           =   +3.88 kcal/mol
USER    (4) Unbound System's Energy  [=(2)] =   -3.81 kcal/mol
USER    
USER    
USER  
USER    DPF = D:/Protein_go_brrr/autodock/final/6BB5/heme/dock.dpf
USER    NEWDPF move	heme_opt.pdbqt
USER    NEWDPF about	0.153000 0.018000 -0.028000
USER    NEWDPF tran0	7.365903 52.969577 8.771219
USER    NEWDPF axisangle0	0.035557 0.517138 0.855163 146.033065
USER    NEWDPF quaternion0	0.034007 0.494586 0.817868 0.292096
USER    NEWDPF dihe0	-81.76 133.97 -116.53 -63.87 -140.01 98.44 124.00 73.05 -142.08 -20.57 -75.35 -94.84 -4.73 
USER  
USER                              x       y       z    vdW   Elec        q     RMS 
ATOM      1  O   UNL d   1      12.719  55.424   8.500 -0.19 +0.10    -0.289    50.497
ATOM      2  O   UNL d   1       7.453  54.489   3.229 -0.08 +0.04    -0.289    50.497
ATOM      3  N   UNL d   1       9.745  53.784   9.101 -0.02 +0.05    -0.247    50.497
ATOM      4  N   UNL d   1       8.226  54.177   6.577 -0.14 +0.06    -0.247    50.497
ATOM      5  N   UNL d   1       5.873  53.279   7.963 -0.05 +0.08    -0.354    50.497
ATOM      6  N   UNL d   1       7.452  52.892  10.581 -0.06 +0.05    -0.354    50.497
ATOM      7  C   UNL d   1      11.638  54.495  10.486 -0.18 -0.03    +0.084    50.497
ATOM      8  C   UNL d   1       9.522  54.533   4.536 -0.24 -0.03    +0.084    50.497
ATOM      9  C   UNL d   1       9.488  54.363   6.059 -0.27 -0.02    +0.058    50.497
ATOM     10  C   UNL d   1      10.268  53.819  10.383 -0.15 -0.01    +0.058    50.497
ATOM     11  C   UNL d   1      11.806  54.820   9.032 -0.14 -0.07    +0.193    50.497
ATOM     12  C   UNL d   1      10.605  54.315   8.294 -0.24 -0.03    +0.109    50.497
ATOM     13  C   UNL d   1       8.042  54.447   4.291 -0.13 -0.04    +0.193    50.497
ATOM     14  C   UNL d   1      11.575  55.802  11.281 -0.09 -0.01    +0.026    50.497
ATOM     15  C   UNL d   1      10.589  54.441   6.822 -0.33 -0.02    +0.055    50.497
ATOM     16  C   UNL d   1      10.205  53.348   3.848 -0.46 -0.01    +0.026    50.497
ATOM     17  C   UNL d   1       7.370  54.238   5.609 -0.18 -0.02    +0.109    50.497
ATOM     18  C   UNL d   1       9.689  53.236  11.450 -0.13 -0.01    +0.050    50.497
ATOM     19  C   UNL d   1       8.467  52.516  11.432 -0.11 -0.01    +0.045    50.497
ATOM     20  C   UNL d   1       5.303  53.733   6.801 -0.12 -0.00    +0.045    50.497
ATOM     21  C   UNL d   1       5.903  54.159   5.685 -0.17 -0.00    +0.057    50.497
ATOM     22  C   UNL d   1       3.643  53.175   8.268 -0.12 -0.00    -0.019    50.497
ATOM     23  C   UNL d   1       4.949  52.920   8.908 -0.15 -0.00    +0.045    50.497
ATOM     24  C   UNL d   1       3.860  53.655   7.020 -0.04 -0.00    -0.022    50.497
ATOM     25  C   UNL d   1       6.334  52.119  10.793 -0.12 -0.00    +0.049    50.497
ATOM     26  C   UNL d   1       8.010  51.449  12.189 -0.11 +0.00    -0.018    50.497
ATOM     27  C   UNL d   1       6.669  51.190  11.768 -0.11 -0.00    +0.003    50.497
ATOM     28  C   UNL d   1       5.106  52.420  10.144 -0.12 -0.00    +0.052    50.497
ATOM     29  C   UNL d   1       2.861  54.048   5.986 -0.09 +0.00    +0.046    50.497
ATOM     30  C   UNL d   1       8.771  50.712  13.239 -0.08 -0.01    +0.046    50.497
ATOM     31  H   UNL d   1       6.876  53.160   8.045 -0.45 -0.08    +0.166    50.497
ATOM     32  H   UNL d   1       7.525  53.662   9.927 +0.01 -0.03    +0.166    50.497
ATOM     33  C   UNL d   1      12.780  53.596  10.971 -0.12 -0.09    +0.141    50.497
ATOM     34  C   UNL d   1      13.004  53.696  12.456 -0.08 -0.21    +0.306    50.497
ATOM     35  O   UNL d   1      13.696  54.522  13.026 -0.11 +0.22    -0.251    50.497
ATOM     36  O   UNL d   1      12.343  52.749  13.145 -0.02 +0.21    -0.481    50.497
ATOM     37  H   UNL d   1      13.002  52.034  13.277 +0.08 -0.15    +0.295    50.497
ATOM     38  C   UNL d   1       5.817  50.173  12.307 -0.10 +0.00    +0.017    50.497
ATOM     39  C   UNL d   1       4.619  50.386  12.872 -0.05 +0.01    +0.092    50.497
ATOM     40  C   UNL d   1       3.835  49.253  13.371 -0.05 +0.14    +0.330    50.497
ATOM     41  O   UNL d   1       3.779  48.832  14.510 -0.09 -0.07    -0.246    50.497
ATOM     42  O   UNL d   1       3.134  48.701  12.369 -0.51 -0.50    -0.477    50.497
ATOM     43  H   UNL d   1       2.737  49.469  11.909 +0.05 +0.15    +0.295    50.497
ATOM     44  C   UNL d   1      10.085  55.867   4.033 -0.14 -0.08    +0.141    50.497
ATOM     45  C   UNL d   1       9.179  57.037   4.311 -0.02 -0.10    +0.306    50.497
ATOM     46  O   UNL d   1       9.065  57.632   5.368 -0.01 +0.06    -0.251    50.497
ATOM     47  O   UNL d   1       8.439  57.380   3.242 +0.00 +0.14    -0.481    50.497
ATOM     48  H   UNL d   1       7.881  56.594   3.063 +0.05 -0.07    +0.295    50.497
ATOM     49  C   UNL d   1       2.319  52.943   8.934 -0.07 +0.00    +0.048    50.497
ATOM     50  C   UNL d   1       1.821  51.513   8.726 -0.09 +0.01    +0.125    50.497
ATOM     51  C   UNL d   1       1.974  50.703   9.982 -0.04 +0.05    +0.305    50.497
ATOM     52  O   UNL d   1       1.384  50.851  11.038 -0.01 -0.04    -0.251    50.497
ATOM     53  O   UNL d   1       2.896  49.730   9.845 -0.04 -0.12    -0.481    50.497
ATOM     54  H   UNL d   1       3.599  49.977  10.482 +0.08 +0.07    +0.295    50.497
TER
ENDMDL
MODEL       75
USER    Run = 75
USER    Cluster Rank = 59
USER    Number of conformations in this cluster = 1
USER  
USER    RMSD from reference structure       = 18.715 A
USER  
USER    Estimated Free Energy of Binding    =   -2.46 kcal/mol  [=(1)+(2)+(3)-(4)]
USER    Estimated Inhibition Constant, Ki   =   15.83 mM (millimolar)  [Temperature = 298.15 K]
USER    
USER    (1) Final Intermolecular Energy     =   -6.33 kcal/mol
USER        vdW + Hbond + desolv Energy     =   -6.11 kcal/mol
USER        Electrostatic Energy            =   -0.22 kcal/mol
USER    (2) Final Total Internal Energy     =   -3.82 kcal/mol
USER    (3) Torsional Free Energy           =   +3.88 kcal/mol
USER    (4) Unbound System's Energy  [=(2)] =   -3.82 kcal/mol
USER    
USER    
USER  
USER    DPF = D:/Protein_go_brrr/autodock/final/6BB5/heme/dock.dpf
USER    NEWDPF move	heme_opt.pdbqt
USER    NEWDPF about	0.153000 0.018000 -0.028000
USER    NEWDPF tran0	15.873575 16.184831 4.737829
USER    NEWDPF axisangle0	-0.967782 -0.225710 -0.111593 -117.653384
USER    NEWDPF quaternion0	-0.828040 -0.193119 -0.095480 -0.517628
USER    NEWDPF dihe0	-127.52 -180.00 38.09 47.92 30.44 -80.93 84.87 34.38 128.40 124.70 -82.63 7.11 1.77 
USER  
USER                              x       y       z    vdW   Elec        q     RMS 
ATOM      1  O   UNL d   1      11.463  14.866   1.054 -0.11 -0.14    -0.289    18.715
ATOM      2  O   UNL d   1      11.500  16.074   8.466 -0.18 -0.08    -0.289    18.715
ATOM      3  N   UNL d   1      14.354  15.484   2.832 -0.09 -0.05    -0.247    18.715
ATOM      4  N   UNL d   1      13.356  16.123   5.557 -0.03 -0.06    -0.247    18.715
ATOM      5  N   UNL d   1      15.978  17.126   6.181 -0.03 -0.08    -0.354    18.715
ATOM      6  N   UNL d   1      16.999  16.478   3.346 +0.01 -0.03    -0.354    18.715
ATOM      7  C   UNL d   1      13.806  15.228   0.457 -0.14 +0.02    +0.084    18.715
ATOM      8  C   UNL d   1      11.199  15.178   6.208 -0.20 +0.01    +0.084    18.715
ATOM      9  C   UNL d   1      12.262  15.406   5.128 -0.10 +0.01    +0.058    18.715
ATOM     10  C   UNL d   1      14.855  15.489   1.541 -0.09 +0.01    +0.058    18.715
ATOM     11  C   UNL d   1      12.625  15.056   1.364 -0.10 +0.06    +0.193    18.715
ATOM     12  C   UNL d   1      13.091  15.209   2.779 -0.09 +0.02    +0.109    18.715
ATOM     13  C   UNL d   1      11.876  15.931   7.319 -0.16 +0.05    +0.193    18.715
ATOM     14  C   UNL d   1      13.576  16.456  -0.428 -0.38 +0.01    +0.026    18.715
ATOM     15  C   UNL d   1      12.112  14.987   3.862 -0.13 +0.01    +0.055    18.715
ATOM     16  C   UNL d   1      11.098  13.702   6.603 -0.15 +0.00    +0.026    18.715
ATOM     17  C   UNL d   1      13.170  16.460   6.793 -0.10 +0.03    +0.109    18.715
ATOM     18  C   UNL d   1      16.161  15.618   1.240 -0.12 +0.00    +0.050    18.715
ATOM     19  C   UNL d   1      17.211  15.777   2.180 -0.09 +0.00    +0.045    18.715
ATOM     20  C   UNL d   1      15.292  17.555   7.288 -0.13 +0.01    +0.045    18.715
ATOM     21  C   UNL d   1      14.035  17.282   7.652 -0.18 +0.02    +0.057    18.715
ATOM     22  C   UNL d   1      17.401  18.430   7.341 -0.16 -0.00    -0.019    18.715
ATOM     23  C   UNL d   1      17.260  17.604   6.126 -0.11 +0.01    +0.045    18.715
ATOM     24  C   UNL d   1      16.233  18.396   8.026 -0.19 -0.01    -0.022    18.715
ATOM     25  C   UNL d   1      18.167  16.587   4.063 -0.09 +0.00    +0.049    18.715
ATOM     26  C   UNL d   1      18.541  15.388   2.157 -0.06 -0.00    -0.018    18.715
ATOM     27  C   UNL d   1      19.135  15.885   3.358 -0.04 +0.00    +0.003    18.715
ATOM     28  C   UNL d   1      18.235  17.400   5.227 -0.10 +0.01    +0.052    18.715
ATOM     29  C   UNL d   1      15.888  19.060   9.315 -0.35 +0.01    +0.046    18.715
ATOM     30  C   UNL d   1      19.221  14.602   1.088 -0.02 -0.00    +0.046    18.715
ATOM     31  H   UNL d   1      15.569  16.459   5.535 +0.04 +0.03    +0.166    18.715
ATOM     32  H   UNL d   1      16.107  16.885   3.600 +0.04 +0.02    +0.166    18.715
ATOM     33  C   UNL d   1      14.028  13.965  -0.382 -0.07 +0.03    +0.141    18.715
ATOM     34  C   UNL d   1      12.914  13.718  -1.363 -0.08 +0.13    +0.306    18.715
ATOM     35  O   UNL d   1      12.813  14.205  -2.476 -0.12 -0.13    -0.251    18.715
ATOM     36  O   UNL d   1      11.987  12.866  -0.890 -0.03 -0.26    -0.481    18.715
ATOM     37  H   UNL d   1      11.760  13.216  -0.002 +0.05 +0.15    +0.295    18.715
ATOM     38  C   UNL d   1      20.509  15.721   3.729 -0.01 +0.00    +0.017    18.715
ATOM     39  C   UNL d   1      20.946  15.385   4.952 -0.00 +0.01    +0.092    18.715
ATOM     40  C   UNL d   1      22.382  15.230   5.198 +0.00 +0.02    +0.330    18.715
ATOM     41  O   UNL d   1      23.073  14.254   4.977 +0.00 -0.01    -0.246    18.715
ATOM     42  O   UNL d   1      22.885  16.360   5.718 +0.00 -0.03    -0.477    18.715
ATOM     43  H   UNL d   1      22.112  16.958   5.773 +0.01 +0.02    +0.295    18.715
ATOM     44  C   UNL d   1       9.816  15.768   5.909 -0.33 +0.03    +0.141    18.715
ATOM     45  C   UNL d   1       9.042  14.978   4.887 -0.25 +0.05    +0.306    18.715
ATOM     46  O   UNL d   1       8.980  13.764   4.801 -0.21 -0.01    -0.251    18.715
ATOM     47  O   UNL d   1       8.404  15.767   4.003 -0.71 -0.16    -0.481    18.715
ATOM     48  H   UNL d   1       7.553  15.310   3.832 -0.45 +0.00    +0.295    18.715
ATOM     49  C   UNL d   1      18.647  19.181   7.710 -0.19 +0.01    +0.048    18.715
ATOM     50  C   UNL d   1      19.676  18.277   8.387 -0.07 +0.02    +0.125    18.715
ATOM     51  C   UNL d   1      20.712  17.812   7.403 -0.01 +0.04    +0.305    18.715
ATOM     52  O   UNL d   1      21.091  18.384   6.397 -0.01 -0.02    -0.251    18.715
ATOM     53  O   UNL d   1      21.224  16.611   7.740 +0.00 -0.06    -0.481    18.715
ATOM     54  H   UNL d   1      22.193  16.733   7.656 +0.01 +0.03    +0.295    18.715
TER
ENDMDL
MODEL       29
USER    Run = 29
USER    Cluster Rank = 60
USER    Number of conformations in this cluster = 1
USER  
USER    RMSD from reference structure       = 42.336 A
USER  
USER    Estimated Free Energy of Binding    =   -2.43 kcal/mol  [=(1)+(2)+(3)-(4)]
USER    Estimated Inhibition Constant, Ki   =   16.55 mM (millimolar)  [Temperature = 298.15 K]
USER    
USER    (1) Final Intermolecular Energy     =   -6.31 kcal/mol
USER        vdW + Hbond + desolv Energy     =   -6.10 kcal/mol
USER        Electrostatic Energy            =   -0.21 kcal/mol
USER    (2) Final Total Internal Energy     =   -4.74 kcal/mol
USER    (3) Torsional Free Energy           =   +3.88 kcal/mol
USER    (4) Unbound System's Energy  [=(2)] =   -4.74 kcal/mol
USER    
USER    
USER  
USER    DPF = D:/Protein_go_brrr/autodock/final/6BB5/heme/dock.dpf
USER    NEWDPF move	heme_opt.pdbqt
USER    NEWDPF about	0.153000 0.018000 -0.028000
USER    NEWDPF tran0	26.188791 38.690341 -2.822814
USER    NEWDPF axisangle0	0.817421 -0.353798 0.454588 176.686406
USER    NEWDPF quaternion0	0.817079 -0.353650 0.454398 0.028913
USER    NEWDPF dihe0	111.69 -166.49 -158.99 35.73 -142.28 -61.12 134.56 26.75 53.15 -10.69 -72.69 -15.82 -0.25 
USER  
USER                              x       y       z    vdW   Elec        q     RMS 
ATOM      1  O   UNL d   1      23.861  40.639  -7.877 -0.04 -0.04    -0.289    42.336
ATOM      2  O   UNL d   1      26.762  44.354  -2.031 -0.07 -0.05    -0.289    42.336
ATOM      3  N   UNL d   1      24.999  39.053  -5.033 -0.16 -0.02    -0.247    42.336
ATOM      4  N   UNL d   1      26.212  41.261  -3.458 -0.12 -0.03    -0.247    42.336
ATOM      5  N   UNL d   1      27.444  39.270  -1.789 +0.02 -0.03    -0.354    42.336
ATOM      6  N   UNL d   1      26.198  36.985  -3.441 -0.14 -0.01    -0.354    42.336
ATOM      7  C   UNL d   1      24.174  38.306  -7.217 -0.08 +0.01    +0.084    42.336
ATOM      8  C   UNL d   1      25.353  43.515  -3.848 -0.18 +0.01    +0.084    42.336
ATOM      9  C   UNL d   1      25.369  42.031  -4.228 -0.22 +0.01    +0.058    42.336
ATOM     10  C   UNL d   1      24.725  37.955  -5.832 -0.16 +0.00    +0.058    42.336
ATOM     11  C   UNL d   1      24.168  39.796  -7.053 -0.08 +0.02    +0.193    42.336
ATOM     12  C   UNL d   1      24.665  40.122  -5.679 -0.14 +0.01    +0.109    42.336
ATOM     13  C   UNL d   1      26.372  43.452  -2.745 -0.12 +0.03    +0.193    42.336
ATOM     14  C   UNL d   1      25.151  37.935  -8.335 -0.03 +0.00    +0.026    42.336
ATOM     15  C   UNL d   1      24.660  41.537  -5.255 -0.14 +0.01    +0.055    42.336
ATOM     16  C   UNL d   1      24.007  43.935  -3.251 -0.36 +0.00    +0.026    42.336
ATOM     17  C   UNL d   1      26.819  42.032  -2.614 -0.15 +0.01    +0.109    42.336
ATOM     18  C   UNL d   1      24.835  36.677  -5.422 -0.17 -0.00    +0.050    42.336
ATOM     19  C   UNL d   1      25.254  36.260  -4.133 -0.21 -0.00    +0.045    42.336
ATOM     20  C   UNL d   1      28.089  40.391  -1.334 -0.12 +0.00    +0.045    42.336
ATOM     21  C   UNL d   1      27.855  41.672  -1.634 -0.15 +0.01    +0.057    42.336
ATOM     22  C   UNL d   1      29.042  38.549  -0.375 -0.10 -0.00    -0.019    42.336
ATOM     23  C   UNL d   1      27.950  38.110  -1.266 -0.14 +0.00    +0.045    42.336
ATOM     24  C   UNL d   1      29.118  39.901  -0.418 -0.10 -0.00    -0.022    42.336
ATOM     25  C   UNL d   1      26.520  36.356  -2.261 -0.16 +0.00    +0.049    42.336
ATOM     26  C   UNL d   1      24.928  35.152  -3.368 -0.23 +0.00    -0.018    42.336
ATOM     27  C   UNL d   1      25.716  35.227  -2.178 -0.19 -0.00    +0.003    42.336
ATOM     28  C   UNL d   1      27.585  36.832  -1.448 -0.17 +0.00    +0.052    42.336
ATOM     29  C   UNL d   1      30.049  40.806   0.314 -0.07 +0.00    +0.046    42.336
ATOM     30  C   UNL d   1      23.944  34.087  -3.716 -0.29 -0.01    +0.046    42.336
ATOM     31  H   UNL d   1      26.628  39.339  -2.388 +0.04 +0.01    +0.166    42.336
ATOM     32  H   UNL d   1      26.614  37.840  -3.790 +0.03 +0.01    +0.166    42.336
ATOM     33  C   UNL d   1      22.760  37.792  -7.512 -0.11 +0.02    +0.141    42.336
ATOM     34  C   UNL d   1      21.712  38.860  -7.358 -0.16 +0.09    +0.306    42.336
ATOM     35  O   UNL d   1      21.124  39.150  -6.330 -0.29 -0.07    -0.251    42.336
ATOM     36  O   UNL d   1      21.460  39.509  -8.509 -0.07 -0.21    -0.481    42.336
ATOM     37  H   UNL d   1      22.263  40.049  -8.669 +0.07 +0.09    +0.295    42.336
ATOM     38  C   UNL d   1      25.701  34.267  -1.115 -0.28 +0.00    +0.017    42.336
ATOM     39  C   UNL d   1      26.106  34.498   0.143 -0.27 +0.01    +0.092    42.336
ATOM     40  C   UNL d   1      26.023  33.431   1.144 -0.21 +0.07    +0.330    42.336
ATOM     41  O   UNL d   1      25.022  32.879   1.560 -0.27 +0.06    -0.246    42.336
ATOM     42  O   UNL d   1      27.251  33.103   1.572 -0.11 -0.53    -0.477    42.336
ATOM     43  H   UNL d   1      27.817  33.831   1.242 +0.09 +0.25    +0.295    42.336
ATOM     44  C   UNL d   1      25.797  44.483  -4.950 -0.05 +0.01    +0.141    42.336
ATOM     45  C   UNL d   1      27.208  44.245  -5.418 -0.01 +0.02    +0.306    42.336
ATOM     46  O   UNL d   1      27.558  43.513  -6.328 -0.01 -0.02    -0.251    42.336
ATOM     47  O   UNL d   1      28.113  44.924  -4.691 +0.00 -0.04    -0.481    42.336
ATOM     48  H   UNL d   1      27.650  45.136  -3.853 +0.03 +0.03    +0.295    42.336
ATOM     49  C   UNL d   1      29.911  37.617   0.417 -0.06 +0.00    +0.048    42.336
ATOM     50  C   UNL d   1      29.255  37.212   1.737 -0.10 +0.01    +0.125    42.336
ATOM     51  C   UNL d   1      28.802  35.780   1.694 -0.07 +0.08    +0.305    42.336
ATOM     52  O   UNL d   1      29.190  34.900   0.946 -0.08 -0.12    -0.251    42.336
ATOM     53  O   UNL d   1      27.849  35.525   2.612 -0.03 -0.10    -0.481    42.336
ATOM     54  H   UNL d   1      28.037  34.608   2.903 +0.11 +0.15    +0.295    42.336
TER
ENDMDL
MODEL       52
USER    Run = 52
USER    Cluster Rank = 61
USER    Number of conformations in this cluster = 1
USER  
USER    RMSD from reference structure       = 41.249 A
USER  
USER    Estimated Free Energy of Binding    =   -2.31 kcal/mol  [=(1)+(2)+(3)-(4)]
USER    Estimated Inhibition Constant, Ki   =   20.16 mM (millimolar)  [Temperature = 298.15 K]
USER    
USER    (1) Final Intermolecular Energy     =   -6.19 kcal/mol
USER        vdW + Hbond + desolv Energy     =   -6.09 kcal/mol
USER        Electrostatic Energy            =   -0.10 kcal/mol
USER    (2) Final Total Internal Energy     =   -4.61 kcal/mol
USER    (3) Torsional Free Energy           =   +3.88 kcal/mol
USER    (4) Unbound System's Energy  [=(2)] =   -4.61 kcal/mol
USER    
USER    
USER  
USER    DPF = D:/Protein_go_brrr/autodock/final/6BB5/heme/dock.dpf
USER    NEWDPF move	heme_opt.pdbqt
USER    NEWDPF about	0.153000 0.018000 -0.028000
USER    NEWDPF tran0	33.138187 14.536986 26.551227
USER    NEWDPF axisangle0	0.257230 0.456395 0.851784 155.387829
USER    NEWDPF quaternion0	0.251320 0.445909 0.832212 0.213134
USER    NEWDPF dihe0	173.70 169.74 123.09 55.82 -148.78 -83.54 -76.73 39.43 16.60 -144.81 -86.69 21.08 0.92 
USER  
USER                              x       y       z    vdW   Elec        q     RMS 
ATOM      1  O   UNL d   1      38.656  14.956  24.519 -0.29 +0.10    -0.289    41.249
ATOM      2  O   UNL d   1      32.053  16.022  21.106 -0.24 -0.18    -0.289    41.249
ATOM      3  N   UNL d   1      35.633  14.456  26.102 -0.13 +0.12    -0.247    41.249
ATOM      4  N   UNL d   1      33.650  15.402  24.101 -0.24 +0.04    -0.247    41.249
ATOM      5  N   UNL d   1      31.669  15.366  26.185 -0.09 +0.12    -0.354    41.249
ATOM      6  N   UNL d   1      33.737  14.404  28.258 -0.01 +0.32    -0.354    41.249
ATOM      7  C   UNL d   1      37.980  14.434  26.809 -0.15 -0.02    +0.084    41.249
ATOM      8  C   UNL d   1      34.306  15.313  21.749 -0.23 +0.00    +0.084    41.249
ATOM      9  C   UNL d   1      34.679  15.141  23.225 -0.25 -0.01    +0.058    41.249
ATOM     10  C   UNL d   1      36.499  14.284  27.169 -0.14 -0.03    +0.058    41.249
ATOM     11  C   UNL d   1      37.799  14.703  25.345 -0.17 -0.06    +0.193    41.249
ATOM     12  C   UNL d   1      36.334  14.665  25.035 -0.18 -0.04    +0.109    41.249
ATOM     13  C   UNL d   1      32.884  15.757  21.952 -0.17 +0.05    +0.193    41.249
ATOM     14  C   UNL d   1      38.609  15.665  27.465 -0.20 -0.01    +0.026    41.249
ATOM     15  C   UNL d   1      35.917  14.814  23.627 -0.19 -0.02    +0.055    41.249
ATOM     16  C   UNL d   1      34.302  13.975  21.004 -0.15 +0.00    +0.026    41.249
ATOM     17  C   UNL d   1      32.614  15.776  23.421 -0.21 +0.01    +0.109    41.249
ATOM     18  C   UNL d   1      36.109  13.925  28.406 -0.10 -0.02    +0.050    41.249
ATOM     19  C   UNL d   1      34.771  13.681  28.809 -0.07 -0.02    +0.045    41.249
ATOM     20  C   UNL d   1      30.964  16.010  25.201 -0.21 -0.00    +0.045    41.249
ATOM     21  C   UNL d   1      31.305  16.217  23.925 -0.26 +0.01    +0.057    41.249
ATOM     22  C   UNL d   1      29.742  16.047  27.130 -0.04 +0.00    -0.019    41.249
ATOM     23  C   UNL d   1      31.011  15.338  27.386 -0.11 -0.01    +0.045    41.249
ATOM     24  C   UNL d   1      29.719  16.441  25.835 -0.17 +0.00    -0.022    41.249
ATOM     25  C   UNL d   1      32.543  14.070  28.854 -0.08 -0.02    +0.049    41.249
ATOM     26  C   UNL d   1      34.231  12.830  29.761 -0.02 +0.00    -0.018    41.249
ATOM     27  C   UNL d   1      32.822  13.066  29.771 -0.02 -0.00    +0.003    41.249
ATOM     28  C   UNL d   1      31.356  14.795  28.563 -0.12 -0.02    +0.052    41.249
ATOM     29  C   UNL d   1      28.650  17.178  25.102 -0.18 +0.00    +0.046    41.249
ATOM     30  C   UNL d   1      34.976  11.854  30.608 -0.00 -0.01    +0.046    41.249
ATOM     31  H   UNL d   1      32.547  14.900  25.984 +0.03 -0.07    +0.166    41.249
ATOM     32  H   UNL d   1      33.866  15.109  27.543 -0.49 -0.27    +0.166    41.249
ATOM     33  C   UNL d   1      38.838  13.182  27.023 -0.04 -0.02    +0.141    41.249
ATOM     34  C   UNL d   1      38.430  12.041  26.131 -0.00 -0.03    +0.306    41.249
ATOM     35  O   UNL d   1      37.665  11.137  26.422 -0.00 +0.02    -0.251    41.249
ATOM     36  O   UNL d   1      39.007  12.099  24.918 +0.01 +0.04    -0.481    41.249
ATOM     37  H   UNL d   1      39.444  12.977  24.895 +0.07 -0.03    +0.295    41.249
ATOM     38  C   UNL d   1      31.880  12.405  30.624 -0.00 -0.00    +0.017    41.249
ATOM     39  C   UNL d   1      30.821  11.695  30.206 +0.00 -0.01    +0.092    41.249
ATOM     40  C   UNL d   1      29.941  11.051  31.185 +0.00 -0.01    +0.330    41.249
ATOM     41  O   UNL d   1      30.080   9.960  31.704 +0.00 +0.00    -0.246    41.249
ATOM     42  O   UNL d   1      28.904  11.853  31.470 +0.00 +0.01    -0.477    41.249
ATOM     43  H   UNL d   1      29.145  12.706  31.055 +0.01 -0.01    +0.295    41.249
ATOM     44  C   UNL d   1      35.107  16.372  20.984 -0.45 -0.01    +0.141    41.249
ATOM     45  C   UNL d   1      34.955  16.269  19.490 -0.33 +0.00    +0.306    41.249
ATOM     46  O   UNL d   1      35.846  16.090  18.679 -0.42 +0.03    -0.251    41.249
ATOM     47  O   UNL d   1      33.679  16.424  19.091 -0.10 -0.16    -0.481    41.249
ATOM     48  H   UNL d   1      33.184  15.723  19.566 +0.16 +0.13    +0.295    41.249
ATOM     49  C   UNL d   1      28.685  16.284  28.169 -0.09 -0.00    +0.048    41.249
ATOM     50  C   UNL d   1      27.776  15.068  28.344 -0.02 -0.00    +0.125    41.249
ATOM     51  C   UNL d   1      28.262  14.191  29.463 +0.00 -0.01    +0.305    41.249
ATOM     52  O   UNL d   1      28.819  14.537  30.489 -0.01 +0.02    -0.251    41.249
ATOM     53  O   UNL d   1      28.026  12.887  29.220 +0.00 +0.01    -0.481    41.249
ATOM     54  H   UNL d   1      27.514  12.588  30.000 +0.00 -0.01    +0.295    41.249
TER
ENDMDL
MODEL       58
USER    Run = 58
USER    Cluster Rank = 62
USER    Number of conformations in this cluster = 1
USER  
USER    RMSD from reference structure       = 51.781 A
USER  
USER    Estimated Free Energy of Binding    =   -2.28 kcal/mol  [=(1)+(2)+(3)-(4)]
USER    Estimated Inhibition Constant, Ki   =   21.43 mM (millimolar)  [Temperature = 298.15 K]
USER    
USER    (1) Final Intermolecular Energy     =   -6.15 kcal/mol
USER        vdW + Hbond + desolv Energy     =   -6.02 kcal/mol
USER        Electrostatic Energy            =   -0.13 kcal/mol
USER    (2) Final Total Internal Energy     =   -3.91 kcal/mol
USER    (3) Torsional Free Energy           =   +3.88 kcal/mol
USER    (4) Unbound System's Energy  [=(2)] =   -3.91 kcal/mol
USER    
USER    
USER  
USER    DPF = D:/Protein_go_brrr/autodock/final/6BB5/heme/dock.dpf
USER    NEWDPF move	heme_opt.pdbqt
USER    NEWDPF about	0.153000 0.018000 -0.028000
USER    NEWDPF tran0	19.242963 52.495306 -2.117513
USER    NEWDPF axisangle0	0.262068 -0.067396 -0.962693 -113.186917
USER    NEWDPF quaternion0	0.218771 -0.056261 -0.803642 -0.550576
USER    NEWDPF dihe0	105.27 174.06 29.96 -22.01 176.07 -37.31 -52.73 -68.59 -19.41 -16.12 -91.79 -6.06 -18.18 
USER  
USER                              x       y       z    vdW   Elec        q     RMS 
ATOM      1  O   UNL d   1      22.100  56.847   0.649 -0.02 +0.03    -0.289    51.781
ATOM      2  O   UNL d   1      16.519  57.027  -4.371 -0.01 +0.04    -0.289    51.781
ATOM      3  N   UNL d   1      20.817  54.003  -0.820 -0.09 +0.04    -0.247    51.781
ATOM      4  N   UNL d   1      18.506  55.025  -2.384 -0.01 +0.02    -0.247    51.781
ATOM      5  N   UNL d   1      17.622  52.305  -2.680 -0.09 +0.04    -0.354    51.781
ATOM      6  N   UNL d   1      20.012  51.255  -1.040 -0.12 +0.07    -0.354    51.781
ATOM      7  C   UNL d   1      22.448  54.447   0.955 -0.08 -0.01    +0.084    51.781
ATOM      8  C   UNL d   1      18.595  57.354  -3.116 -0.03 -0.01    +0.084    51.781
ATOM      9  C   UNL d   1      19.211  56.206  -2.311 -0.07 -0.01    +0.058    51.781
ATOM     10  C   UNL d   1      21.678  53.433   0.103 -0.04 -0.01    +0.058    51.781
ATOM     11  C   UNL d   1      21.883  55.690   0.337 -0.06 -0.03    +0.193    51.781
ATOM     12  C   UNL d   1      20.927  55.289  -0.743 -0.10 -0.02    +0.109    51.781
ATOM     13  C   UNL d   1      17.390  56.617  -3.629 -0.02 -0.03    +0.193    51.781
ATOM     14  C   UNL d   1      22.032  54.393   2.427 -0.16 -0.00    +0.026    51.781
ATOM     15  C   UNL d   1      20.313  56.355  -1.560 -0.08 -0.01    +0.055    51.781
ATOM     16  C   UNL d   1      19.474  57.749  -4.307 -0.01 -0.00    +0.026    51.781
ATOM     17  C   UNL d   1      17.450  55.218  -3.107 -0.05 -0.01    +0.109    51.781
ATOM     18  C   UNL d   1      21.908  52.111   0.205 -0.12 -0.01    +0.050    51.781
ATOM     19  C   UNL d   1      21.307  51.107  -0.598 -0.13 -0.01    +0.045    51.781
ATOM     20  C   UNL d   1      16.523  52.964  -3.167 -0.19 -0.01    +0.045    51.781
ATOM     21  C   UNL d   1      16.370  54.269  -3.413 -0.12 -0.01    +0.057    51.781
ATOM     22  C   UNL d   1      16.041  50.737  -3.015 -0.35 +0.00    -0.019    51.781
ATOM     23  C   UNL d   1      17.426  50.956  -2.553 -0.28 -0.01    +0.045    51.781
ATOM     24  C   UNL d   1      15.512  51.929  -3.378 -0.29 +0.00    -0.022    51.781
ATOM     25  C   UNL d   1      19.603  50.131  -1.720 -0.23 -0.01    +0.049    51.781
ATOM     26  C   UNL d   1      21.763  49.873  -1.032 -0.11 +0.00    -0.018    51.781
ATOM     27  C   UNL d   1      20.690  49.269  -1.757 -0.19 -0.00    +0.003    51.781
ATOM     28  C   UNL d   1      18.252  49.983  -2.137 -0.26 -0.02    +0.052    51.781
ATOM     29  C   UNL d   1      14.154  52.222  -3.918 -0.27 -0.01    +0.046    51.781
ATOM     30  C   UNL d   1      23.114  49.288  -0.792 -0.09 +0.00    +0.046    51.781
ATOM     31  H   UNL d   1      18.498  52.790  -2.519 +0.04 -0.01    +0.166    51.781
ATOM     32  H   UNL d   1      19.442  52.070  -0.845 -0.03 -0.03    +0.166    51.781
ATOM     33  C   UNL d   1      23.972  54.413   0.799 -0.02 -0.01    +0.141    51.781
ATOM     34  C   UNL d   1      24.405  53.930  -0.559 -0.00 -0.01    +0.306    51.781
ATOM     35  O   UNL d   1      25.224  53.056  -0.785 -0.00 -0.00    -0.251    51.781
ATOM     36  O   UNL d   1      23.779  54.574  -1.561 +0.00 +0.02    -0.481    51.781
ATOM     37  H   UNL d   1      22.886  54.170  -1.593 +0.02 -0.02    +0.295    51.781
ATOM     38  C   UNL d   1      20.731  47.974  -2.367 -0.26 -0.00    +0.017    51.781
ATOM     39  C   UNL d   1      20.057  47.616  -3.471 -0.19 -0.02    +0.092    51.781
ATOM     40  C   UNL d   1      20.200  46.260  -4.006 -0.18 -0.05    +0.330    51.781
ATOM     41  O   UNL d   1      21.213  45.589  -4.072 -0.23 +0.02    -0.246    51.781
ATOM     42  O   UNL d   1      19.013  45.805  -4.434 -0.18 +0.07    -0.477    51.781
ATOM     43  H   UNL d   1      18.382  46.502  -4.161 +0.07 -0.06    +0.295    51.781
ATOM     44  C   UNL d   1      18.180  58.584  -2.302 -0.02 -0.02    +0.141    51.781
ATOM     45  C   UNL d   1      17.052  58.309  -1.343 -0.03 -0.08    +0.306    51.781
ATOM     46  O   UNL d   1      15.868  58.527  -1.533 -0.03 +0.08    -0.251    51.781
ATOM     47  O   UNL d   1      17.482  57.796  -0.176 -0.04 +0.18    -0.481    51.781
ATOM     48  H   UNL d   1      16.737  57.242   0.140 -0.37 -0.21    +0.295    51.781
ATOM     49  C   UNL d   1      15.364  49.398  -3.044 -0.37 -0.01    +0.048    51.781
ATOM     50  C   UNL d   1      15.334  48.806  -4.454 -0.28 -0.03    +0.125    51.781
ATOM     51  C   UNL d   1      16.567  47.990  -4.719 -0.16 -0.06    +0.305    51.781
ATOM     52  O   UNL d   1      17.693  48.396  -4.946 -0.10 +0.04    -0.251    51.781
ATOM     53  O   UNL d   1      16.310  46.667  -4.698 -0.14 +0.10    -0.481    51.781
ATOM     54  H   UNL d   1      17.038  46.274  -5.223 +0.16 -0.04    +0.295    51.781
TER
ENDMDL
MODEL       92
USER    Run = 92
USER    Cluster Rank = 63
USER    Number of conformations in this cluster = 1
USER  
USER    RMSD from reference structure       = 54.275 A
USER  
USER    Estimated Free Energy of Binding    =   -2.20 kcal/mol  [=(1)+(2)+(3)-(4)]
USER    Estimated Inhibition Constant, Ki   =   24.47 mM (millimolar)  [Temperature = 298.15 K]
USER    
USER    (1) Final Intermolecular Energy     =   -6.08 kcal/mol
USER        vdW + Hbond + desolv Energy     =   -5.61 kcal/mol
USER        Electrostatic Energy            =   -0.47 kcal/mol
USER    (2) Final Total Internal Energy     =   -4.45 kcal/mol
USER    (3) Torsional Free Energy           =   +3.88 kcal/mol
USER    (4) Unbound System's Energy  [=(2)] =   -4.45 kcal/mol
USER    
USER    
USER  
USER    DPF = D:/Protein_go_brrr/autodock/final/6BB5/heme/dock.dpf
USER    NEWDPF move	heme_opt.pdbqt
USER    NEWDPF about	0.153000 0.018000 -0.028000
USER    NEWDPF tran0	52.383471 27.313286 4.900134
USER    NEWDPF axisangle0	-0.191797 0.956066 -0.221700 -107.092945
USER    NEWDPF quaternion0	-0.154270 0.769001 -0.178322 -0.594171
USER    NEWDPF dihe0	-175.46 -167.11 111.31 -77.49 42.96 -29.56 -42.73 -99.82 126.51 -124.96 -112.31 8.34 -6.63 
USER  
USER                              x       y       z    vdW   Elec        q     RMS 
ATOM      1  O   UNL d   1      54.351  31.276   8.797 -0.08 +0.12    -0.289    54.275
ATOM      2  O   UNL d   1      51.631  24.343   9.763 -0.21 -0.11    -0.289    54.275
ATOM      3  N   UNL d   1      53.177  29.349   6.188 -0.19 +0.07    -0.247    54.275
ATOM      4  N   UNL d   1      52.615  26.729   7.473 -0.30 -0.04    -0.247    54.275
ATOM      5  N   UNL d   1      52.408  25.588   4.842 -0.10 -0.01    -0.354    54.275
ATOM      6  N   UNL d   1      53.011  28.306   3.518 -0.01 +0.04    -0.354    54.275
ATOM      7  C   UNL d   1      54.303  31.519   6.365 -0.10 -0.04    +0.084    54.275
ATOM      8  C   UNL d   1      52.106  26.742   9.863 -0.25 +0.01    +0.084    54.275
ATOM      9  C   UNL d   1      52.541  27.506   8.607 -0.23 +0.01    +0.058    54.275
ATOM     10  C   UNL d   1      53.688  30.427   5.485 -0.15 -0.02    +0.058    54.275
ATOM     11  C   UNL d   1      54.033  30.876   7.692 -0.04 -0.10    +0.193    54.275
ATOM     12  C   UNL d   1      53.324  29.579   7.452 -0.12 -0.03    +0.109    54.275
ATOM     13  C   UNL d   1      51.983  25.381   9.238 -0.20 +0.05    +0.193    54.275
ATOM     14  C   UNL d   1      55.817  31.631   6.168 -0.02 -0.00    +0.026    54.275
ATOM     15  C   UNL d   1      52.870  28.807   8.627 -0.18 -0.00    +0.055    54.275
ATOM     16  C   UNL d   1      50.723  27.188  10.348 -0.45 +0.01    +0.026    54.275
ATOM     17  C   UNL d   1      52.326  25.508   7.789 -0.16 +0.02    +0.109    54.275
ATOM     18  C   UNL d   1      53.586  30.574   4.150 -0.14 -0.01    +0.050    54.275
ATOM     19  C   UNL d   1      52.959  29.659   3.268 -0.01 -0.01    +0.045    54.275
ATOM     20  C   UNL d   1      52.395  24.444   5.596 -0.16 +0.01    +0.045    54.275
ATOM     21  C   UNL d   1      52.334  24.318   6.926 -0.20 +0.01    +0.057    54.275
ATOM     22  C   UNL d   1      52.509  23.871   3.388 -0.08 -0.00    -0.019    54.275
ATOM     23  C   UNL d   1      52.476  25.343   3.496 -0.15 +0.00    +0.045    54.275
ATOM     24  C   UNL d   1      52.460  23.344   4.635 -0.10 -0.00    -0.022    54.275
ATOM     25  C   UNL d   1      52.421  27.602   2.493 -0.06 -0.00    +0.049    54.275
ATOM     26  C   UNL d   1      52.285  29.841   2.069 -0.11 +0.00    -0.018    54.275
ATOM     27  C   UNL d   1      51.931  28.540   1.595 -0.13 -0.00    +0.003    54.275
ATOM     28  C   UNL d   1      52.490  26.183   2.450 -0.15 -0.00    +0.052    54.275
ATOM     29  C   UNL d   1      52.456  21.910   5.042 -0.06 +0.01    +0.046    54.275
ATOM     30  C   UNL d   1      51.986  31.142   1.405 -0.13 -0.00    +0.046    54.275
ATOM     31  H   UNL d   1      52.295  26.501   5.269 +0.03 -0.01    +0.166    54.275
ATOM     32  H   UNL d   1      53.463  27.903   4.330 +0.03 -0.02    +0.166    54.275
ATOM     33  C   UNL d   1      53.623  32.890   6.283 -0.07 -0.09    +0.141    54.275
ATOM     34  C   UNL d   1      54.185  33.875   7.272 -0.04 -0.14    +0.306    54.275
ATOM     35  O   UNL d   1      55.034  34.720   7.044 -0.02 +0.04    -0.251    54.275
ATOM     36  O   UNL d   1      53.645  33.746   8.497 -0.02 +0.39    -0.481    54.275
ATOM     37  H   UNL d   1      53.026  32.989   8.415 -0.28 -0.59    +0.295    54.275
ATOM     38  C   UNL d   1      51.233  28.268   0.375 -0.17 -0.00    +0.017    54.275
ATOM     39  C   UNL d   1      50.211  27.410   0.241 -0.21 -0.00    +0.092    54.275
ATOM     40  C   UNL d   1      49.569  27.235  -1.065 -0.07 -0.01    +0.330    54.275
ATOM     41  O   UNL d   1      49.433  28.066  -1.943 -0.09 +0.02    -0.246    54.275
ATOM     42  O   UNL d   1      49.128  25.975  -1.197 -0.04 -0.01    -0.477    54.275
ATOM     43  H   UNL d   1      49.186  25.609  -0.291 +0.07 +0.02    +0.295    54.275
ATOM     44  C   UNL d   1      53.119  26.730  11.012 -0.10 +0.03    +0.141    54.275
ATOM     45  C   UNL d   1      52.697  25.861  12.167 -0.09 +0.10    +0.306    54.275
ATOM     46  O   UNL d   1      51.994  26.192  13.106 -0.14 -0.10    -0.251    54.275
ATOM     47  O   UNL d   1      53.208  24.619  12.091 -0.04 -0.19    -0.481    54.275
ATOM     48  H   UNL d   1      52.742  24.205  11.333 +0.07 +0.13    +0.295    54.275
ATOM     49  C   UNL d   1      52.600  23.123   2.090 -0.03 +0.00    +0.048    54.275
ATOM     50  C   UNL d   1      51.218  22.811   1.515 -0.03 +0.01    +0.125    54.275
ATOM     51  C   UNL d   1      50.529  24.068   1.064 -0.04 +0.02    +0.305    54.275
ATOM     52  O   UNL d   1      49.604  24.644   1.607 -0.12 -0.02    -0.251    54.275
ATOM     53  O   UNL d   1      51.047  24.541  -0.087 +0.01 -0.02    -0.481    54.275
ATOM     54  H   UNL d   1      50.399  24.267  -0.770 +0.03 +0.02    +0.295    54.275
TER
ENDMDL
MODEL       33
USER    Run = 33
USER    Cluster Rank = 64
USER    Number of conformations in this cluster = 1
USER  
USER    RMSD from reference structure       = 43.568 A
USER  
USER    Estimated Free Energy of Binding    =   -2.14 kcal/mol  [=(1)+(2)+(3)-(4)]
USER    Estimated Inhibition Constant, Ki   =   27.02 mM (millimolar)  [Temperature = 298.15 K]
USER    
USER    (1) Final Intermolecular Energy     =   -6.02 kcal/mol
USER        vdW + Hbond + desolv Energy     =   -6.04 kcal/mol
USER        Electrostatic Energy            =   +0.02 kcal/mol
USER    (2) Final Total Internal Energy     =   -4.03 kcal/mol
USER    (3) Torsional Free Energy           =   +3.88 kcal/mol
USER    (4) Unbound System's Energy  [=(2)] =   -4.03 kcal/mol
USER    
USER    
USER  
USER    DPF = D:/Protein_go_brrr/autodock/final/6BB5/heme/dock.dpf
USER    NEWDPF move	heme_opt.pdbqt
USER    NEWDPF about	0.153000 0.018000 -0.028000
USER    NEWDPF tran0	42.600411 15.200759 16.153848
USER    NEWDPF axisangle0	-0.792052 0.080517 -0.605120 153.739886
USER    NEWDPF quaternion0	-0.771345 0.078413 -0.589301 0.227162
USER    NEWDPF dihe0	-104.43 180.00 67.24 7.42 36.84 7.35 -48.62 -28.30 130.04 -111.20 53.67 -66.19 125.53 
USER  
USER                              x       y       z    vdW   Elec        q     RMS 
ATOM      1  O   UNL d   1      40.865  12.596  11.158 -0.01 -0.03    -0.289    43.568
ATOM      2  O   UNL d   1      42.326  19.796  12.713 -0.27 -0.04    -0.289    43.568
ATOM      3  N   UNL d   1      41.735  13.687  14.312 -0.06 -0.03    -0.247    43.568
ATOM      4  N   UNL d   1      42.399  16.552  13.885 -0.10 -0.04    -0.247    43.568
ATOM      5  N   UNL d   1      43.596  16.568  16.500 -0.06 -0.09    -0.354    43.568
ATOM      6  N   UNL d   1      42.920  13.591  16.926 -0.02 -0.06    -0.354    43.568
ATOM      7  C   UNL d   1      41.361  11.494  13.282 -0.02 +0.01    +0.084    43.568
ATOM      8  C   UNL d   1      41.335  17.676  11.995 -0.24 +0.01    +0.084    43.568
ATOM      9  C   UNL d   1      41.597  16.386  12.779 -0.17 +0.00    +0.058    43.568
ATOM     10  C   UNL d   1      41.729  12.318  14.520 -0.06 +0.01    +0.058    43.568
ATOM     11  C   UNL d   1      41.143  12.641  12.342 -0.02 +0.02    +0.193    43.568
ATOM     12  C   UNL d   1      41.374  13.917  13.091 -0.07 +0.01    +0.109    43.568
ATOM     13  C   UNL d   1      42.169  18.598  12.840 -0.21 +0.03    +0.193    43.568
ATOM     14  C   UNL d   1      42.540  10.658  12.778 -0.01 +0.00    +0.026    43.568
ATOM     15  C   UNL d   1      41.125  15.192  12.389 -0.13 +0.00    +0.055    43.568
ATOM     16  C   UNL d   1      39.870  18.112  12.089 -0.32 -0.00    +0.026    43.568
ATOM     17  C   UNL d   1      42.765  17.792  13.947 -0.18 +0.02    +0.109    43.568
ATOM     18  C   UNL d   1      41.934  11.736  15.717 -0.07 +0.01    +0.050    43.568
ATOM     19  C   UNL d   1      42.195  12.421  16.931 -0.10 +0.01    +0.045    43.568
ATOM     20  C   UNL d   1      44.015  17.790  16.041 -0.20 +0.01    +0.045    43.568
ATOM     21  C   UNL d   1      43.672  18.425  14.916 -0.22 +0.01    +0.057    43.568
ATOM     22  C   UNL d   1      45.031  17.364  18.042 -0.19 -0.00    -0.019    43.568
ATOM     23  C   UNL d   1      44.156  16.225  17.701 -0.23 +0.01    +0.045    43.568
ATOM     24  C   UNL d   1      44.942  18.288  17.056 -0.17 -0.01    -0.022    43.568
ATOM     25  C   UNL d   1      43.131  14.034  18.211 -0.13 +0.01    +0.049    43.568
ATOM     26  C   UNL d   1      41.895  12.115  18.249 -0.12 -0.00    -0.018    43.568
ATOM     27  C   UNL d   1      42.472  13.147  19.052 -0.21 +0.00    +0.003    43.568
ATOM     28  C   UNL d   1      43.987  15.138  18.471 -0.27 +0.01    +0.052    43.568
ATOM     29  C   UNL d   1      45.626  19.609  16.951 -0.18 +0.02    +0.046    43.568
ATOM     30  C   UNL d   1      41.120  10.938  18.736 -0.09 +0.00    +0.046    43.568
ATOM     31  H   UNL d   1      42.881  16.039  16.010 +0.06 +0.04    +0.166    43.568
ATOM     32  H   UNL d   1      43.276  14.027  16.083 +0.03 +0.03    +0.166    43.568
ATOM     33  C   UNL d   1      40.088  10.652  13.408 -0.02 +0.01    +0.141    43.568
ATOM     34  C   UNL d   1      39.755   9.912  12.141 -0.00 +0.02    +0.306    43.568
ATOM     35  O   UNL d   1      40.118   8.785  11.848 +0.00 -0.02    -0.251    43.568
ATOM     36  O   UNL d   1      38.979  10.630  11.310 +0.00 -0.04    -0.481    43.568
ATOM     37  H   UNL d   1      39.578  11.315  10.943 +0.01 +0.02    +0.295    43.568
ATOM     38  C   UNL d   1      42.412  13.212  20.481 -0.27 +0.00    +0.017    43.568
ATOM     39  C   UNL d   1      43.338  13.778  21.270 -0.19 +0.01    +0.092    43.568
ATOM     40  C   UNL d   1      43.148  13.793  22.723 -0.11 +0.04    +0.330    43.568
ATOM     41  O   UNL d   1      42.260  13.261  23.363 -0.13 -0.01    -0.246    43.568
ATOM     42  O   UNL d   1      44.130  14.494  23.310 -0.06 -0.06    -0.477    43.568
ATOM     43  H   UNL d   1      44.689  14.788  22.561 +0.07 +0.05    +0.295    43.568
ATOM     44  C   UNL d   1      41.821  17.675  10.541 -0.17 +0.02    +0.141    43.568
ATOM     45  C   UNL d   1      41.966  19.058   9.963 -0.22 +0.01    +0.306    43.568
ATOM     46  O   UNL d   1      41.124  19.675   9.333 -0.26 +0.05    -0.251    43.568
ATOM     47  O   UNL d   1      43.184  19.583  10.185 -0.03 -0.08    -0.481    43.568
ATOM     48  H   UNL d   1      43.021  20.339  10.789 -0.23 -0.00    +0.295    43.568
ATOM     49  C   UNL d   1      45.875  17.437  19.280 -0.17 +0.01    +0.048    43.568
ATOM     50  C   UNL d   1      46.561  16.104  19.580 -0.10 +0.03    +0.125    43.568
ATOM     51  C   UNL d   1      46.252  15.644  20.977 -0.07 +0.05    +0.305    43.568
ATOM     52  O   UNL d   1      46.094  16.334  21.968 -0.11 -0.05    -0.251    43.568
ATOM     53  O   UNL d   1      46.167  14.301  21.058 -0.01 -0.07    -0.481    43.568
ATOM     54  H   UNL d   1      45.853  14.137  21.972 +0.04 +0.04    +0.295    43.568
TER
ENDMDL
MODEL       62
USER    Run = 62
USER    Cluster Rank = 65
USER    Number of conformations in this cluster = 1
USER  
USER    RMSD from reference structure       = 49.619 A
USER  
USER    Estimated Free Energy of Binding    =   -1.89 kcal/mol  [=(1)+(2)+(3)-(4)]
USER    Estimated Inhibition Constant, Ki   =   40.97 mM (millimolar)  [Temperature = 298.15 K]
USER    
USER    (1) Final Intermolecular Energy     =   -5.77 kcal/mol
USER        vdW + Hbond + desolv Energy     =   -5.73 kcal/mol
USER        Electrostatic Energy            =   -0.04 kcal/mol
USER    (2) Final Total Internal Energy     =   -4.89 kcal/mol
USER    (3) Torsional Free Energy           =   +3.88 kcal/mol
USER    (4) Unbound System's Energy  [=(2)] =   -4.89 kcal/mol
USER    
USER    
USER  
USER    DPF = D:/Protein_go_brrr/autodock/final/6BB5/heme/dock.dpf
USER    NEWDPF move	heme_opt.pdbqt
USER    NEWDPF about	0.153000 0.018000 -0.028000
USER    NEWDPF tran0	42.985190 33.547036 -1.406630
USER    NEWDPF axisangle0	0.065862 -0.253565 0.965074 122.315400
USER    NEWDPF quaternion0	0.057691 -0.222110 0.845357 0.482400
USER    NEWDPF dihe0	118.20 -166.13 -172.70 -51.09 -132.34 83.58 137.86 -108.18 27.51 -15.57 -93.33 -90.66 -5.41 
USER  
USER                              x       y       z    vdW   Elec        q     RMS 
ATOM      1  O   UNL d   1      47.484  37.324  -0.900 -0.02 -0.01    -0.289    49.619
ATOM      2  O   UNL d   1      40.067  38.400  -0.420 -0.04 -0.02    -0.289    49.619
ATOM      3  N   UNL d   1      45.193  34.796  -1.409 -0.08 +0.03    -0.247    49.619
ATOM      4  N   UNL d   1      42.600  36.076  -0.721 -0.08 -0.02    -0.247    49.619
ATOM      5  N   UNL d   1      41.423  33.453  -0.679 -0.10 -0.00    -0.354    49.619
ATOM      6  N   UNL d   1      44.120  32.132  -1.374 -0.07 +0.05    -0.354    49.619
ATOM      7  C   UNL d   1      47.637  34.912  -1.266 -0.09 -0.00    +0.084    49.619
ATOM      8  C   UNL d   1      42.451  38.502  -0.969 -0.05 +0.00    +0.084    49.619
ATOM      9  C   UNL d   1      43.300  37.227  -1.004 -0.09 +0.00    +0.058    49.619
ATOM     10  C   UNL d   1      46.371  34.070  -1.454 +0.03 -0.01    +0.058    49.619
ATOM     11  C   UNL d   1      46.966  36.245  -1.124 -0.05 +0.00    +0.193    49.619
ATOM     12  C   UNL d   1      45.488  36.046  -1.255 -0.10 -0.00    +0.109    49.619
ATOM     13  C   UNL d   1      41.148  37.865  -0.576 -0.07 +0.01    +0.193    49.619
ATOM     14  C   UNL d   1      48.358  34.579   0.043 -0.19 +0.00    +0.026    49.619
ATOM     15  C   UNL d   1      44.621  37.242  -1.240 -0.08 +0.00    +0.055    49.619
ATOM     16  C   UNL d   1      42.296  39.120  -2.362 -0.02 +0.00    +0.026    49.619
ATOM     17  C   UNL d   1      41.375  36.393  -0.450 -0.14 +0.01    +0.109    49.619
ATOM     18  C   UNL d   1      46.436  32.754  -1.729 -0.17 -0.01    +0.050    49.619
ATOM     19  C   UNL d   1      45.326  31.915  -2.001 -0.20 -0.01    +0.045    49.619
ATOM     20  C   UNL d   1      40.390  34.183  -0.150 -0.27 -0.00    +0.045    49.619
ATOM     21  C   UNL d   1      40.277  35.510  -0.031 -0.21 +0.00    +0.057    49.619
ATOM     22  C   UNL d   1      39.871  31.963  -0.012 -0.23 +0.00    -0.019    49.619
ATOM     23  C   UNL d   1      41.200  32.102  -0.639 -0.24 -0.00    +0.045    49.619
ATOM     24  C   UNL d   1      39.396  33.198   0.274 -0.32 +0.00    -0.022    49.619
ATOM     25  C   UNL d   1      43.215  31.153  -1.712 -0.28 -0.00    +0.049    49.619
ATOM     26  C   UNL d   1      45.190  30.787  -2.796 -0.14 +0.00    -0.018    49.619
ATOM     27  C   UNL d   1      43.849  30.322  -2.625 -0.19 -0.00    +0.003    49.619
ATOM     28  C   UNL d   1      41.950  31.076  -1.069 -0.34 -0.00    +0.052    49.619
ATOM     29  C   UNL d   1      38.096  33.576   0.899 -0.32 -0.01    +0.046    49.619
ATOM     30  C   UNL d   1      46.238  30.178  -3.664 -0.09 -0.01    +0.046    49.619
ATOM     31  H   UNL d   1      42.216  33.906  -1.119 +0.05 +0.00    +0.166    49.619
ATOM     32  H   UNL d   1      43.956  32.892  -0.723 -0.18 -0.03    +0.166    49.619
ATOM     33  C   UNL d   1      48.603  34.919  -2.455 -0.03 +0.00    +0.141    49.619
ATOM     34  C   UNL d   1      48.115  35.775  -3.592 -0.00 +0.00    +0.306    49.619
ATOM     35  O   UNL d   1      47.260  35.472  -4.407 -0.00 -0.00    -0.251    49.619
ATOM     36  O   UNL d   1      48.730  36.971  -3.642 +0.00 -0.01    -0.481    49.619
ATOM     37  H   UNL d   1      48.462  37.420  -2.813 +0.01 +0.01    +0.295    49.619
ATOM     38  C   UNL d   1      43.290  29.165  -3.257 -0.15 -0.00    +0.017    49.619
ATOM     39  C   UNL d   1      42.687  28.150  -2.620 -0.18 -0.00    +0.092    49.619
ATOM     40  C   UNL d   1      42.139  27.029  -3.388 -0.06 +0.00    +0.330    49.619
ATOM     41  O   UNL d   1      42.738  26.068  -3.831 -0.04 -0.00    -0.246    49.619
ATOM     42  O   UNL d   1      40.816  27.185  -3.553 -0.00 -0.00    -0.477    49.619
ATOM     43  H   UNL d   1      40.656  28.117  -3.300 +0.05 +0.00    +0.295    49.619
ATOM     44  C   UNL d   1      42.880  39.553   0.060 -0.07 +0.01    +0.141    49.619
ATOM     45  C   UNL d   1      42.724  39.089   1.484 -0.14 +0.02    +0.306    49.619
ATOM     46  O   UNL d   1      43.581  38.566   2.175 -0.22 -0.01    -0.251    49.619
ATOM     47  O   UNL d   1      41.480  39.285   1.956 -0.08 -0.04    -0.481    49.619
ATOM     48  H   UNL d   1      40.966  39.596   1.180 +0.09 +0.03    +0.295    49.619
ATOM     49  C   UNL d   1      39.201  30.648   0.260 -0.34 -0.01    +0.048    49.619
ATOM     50  C   UNL d   1      38.360  30.182  -0.928 -0.15 -0.00    +0.125    49.619
ATOM     51  C   UNL d   1      39.193  29.394  -1.899 -0.06 -0.00    +0.305    49.619
ATOM     52  O   UNL d   1      39.483  29.694  -3.044 -0.02 +0.00    -0.251    49.619
ATOM     53  O   UNL d   1      39.619  28.230  -1.369 -0.06 +0.00    -0.481    49.619
ATOM     54  H   UNL d   1      39.359  27.557  -2.032 +0.07 +0.00    +0.295    49.619
TER
ENDMDL
MODEL       73
USER    Run = 73
USER    Cluster Rank = 66
USER    Number of conformations in this cluster = 1
USER  
USER    RMSD from reference structure       = 41.989 A
USER  
USER    Estimated Free Energy of Binding    =   -1.84 kcal/mol  [=(1)+(2)+(3)-(4)]
USER    Estimated Inhibition Constant, Ki   =   45.09 mM (millimolar)  [Temperature = 298.15 K]
USER    
USER    (1) Final Intermolecular Energy     =   -5.71 kcal/mol
USER        vdW + Hbond + desolv Energy     =   -5.55 kcal/mol
USER        Electrostatic Energy            =   -0.17 kcal/mol
USER    (2) Final Total Internal Energy     =   -4.46 kcal/mol
USER    (3) Torsional Free Energy           =   +3.88 kcal/mol
USER    (4) Unbound System's Energy  [=(2)] =   -4.46 kcal/mol
USER    
USER    
USER  
USER    DPF = D:/Protein_go_brrr/autodock/final/6BB5/heme/dock.dpf
USER    NEWDPF move	heme_opt.pdbqt
USER    NEWDPF about	0.153000 0.018000 -0.028000
USER    NEWDPF tran0	41.370421 14.860356 15.210290
USER    NEWDPF axisangle0	0.764210 0.628234 0.145964 -125.571092
USER    NEWDPF quaternion0	0.679612 0.558689 0.129806 -0.457322
USER    NEWDPF dihe0	175.16 128.20 -75.21 -32.66 -150.58 125.82 161.52 55.92 12.88 -97.56 -84.06 -111.10 0.77 
USER  
USER                              x       y       z    vdW   Elec        q     RMS 
ATOM      1  O   UNL d   1      40.979   9.696  18.027 -0.01 -0.02    -0.289    41.989
ATOM      2  O   UNL d   1      36.272  13.073  13.249 -0.09 -0.06    -0.289    41.989
ATOM      3  N   UNL d   1      41.579  12.829  16.714 +0.03 -0.04    -0.247    41.989
ATOM      4  N   UNL d   1      39.378  13.178  14.749 -0.12 -0.03    -0.247    41.989
ATOM      5  N   UNL d   1      40.818  15.423  13.675 -0.09 -0.00    -0.354    41.989
ATOM      6  N   UNL d   1      43.106  15.041  15.705 -0.02 -0.07    -0.354    41.989
ATOM      7  C   UNL d   1      42.850  11.267  18.111 -0.05 +0.01    +0.084    41.989
ATOM      8  C   UNL d   1      37.314  11.933  15.148 -0.09 +0.01    +0.084    41.989
ATOM      9  C   UNL d   1      38.765  12.232  15.539 -0.12 +0.01    +0.058    41.989
ATOM     10  C   UNL d   1      42.772  12.611  17.381 -0.10 +0.01    +0.058    41.989
ATOM     11  C   UNL d   1      41.481  10.771  17.754 -0.04 +0.02    +0.193    41.989
ATOM     12  C   UNL d   1      40.801  11.818  16.928 -0.08 +0.01    +0.109    41.989
ATOM     13  C   UNL d   1      37.229  12.858  13.967 -0.12 +0.03    +0.193    41.989
ATOM     14  C   UNL d   1      43.892  10.334  17.489 -0.02 +0.00    +0.026    41.989
ATOM     15  C   UNL d   1      39.396  11.588  16.533 -0.11 +0.01    +0.055    41.989
ATOM     16  C   UNL d   1      36.327  12.411  16.219 -0.16 +0.00    +0.026    41.989
ATOM     17  C   UNL d   1      38.547  13.547  13.827 -0.18 +0.01    +0.109    41.989
ATOM     18  C   UNL d   1      43.761  13.520  17.475 -0.13 +0.01    +0.050    41.989
ATOM     19  C   UNL d   1      43.741  14.819  16.906 -0.13 +0.01    +0.045    41.989
ATOM     20  C   UNL d   1      39.845  15.289  12.719 -0.10 -0.00    +0.045    41.989
ATOM     21  C   UNL d   1      38.775  14.488  12.720 -0.20 +0.00    +0.057    41.989
ATOM     22  C   UNL d   1      41.352  16.857  12.022 -0.19 -0.00    -0.019    41.989
ATOM     23  C   UNL d   1      41.773  16.347  13.342 -0.19 +0.00    +0.045    41.989
ATOM     24  C   UNL d   1      40.209  16.228  11.659 -0.20 -0.00    -0.022    41.989
ATOM     25  C   UNL d   1      43.287  16.342  15.297 -0.13 +0.01    +0.049    41.989
ATOM     26  C   UNL d   1      44.317  16.014  17.306 -0.20 -0.00    -0.018    41.989
ATOM     27  C   UNL d   1      44.011  16.978  16.296 -0.20 +0.00    +0.003    41.989
ATOM     28  C   UNL d   1      42.857  16.769  14.011 -0.18 +0.01    +0.052    41.989
ATOM     29  C   UNL d   1      39.397  16.409  10.422 -0.21 +0.00    +0.046    41.989
ATOM     30  C   UNL d   1      45.103  16.251  18.552 -0.22 +0.01    +0.046    41.989
ATOM     31  H   UNL d   1      40.759  14.930  14.559 +0.02 +0.01    +0.166    41.989
ATOM     32  H   UNL d   1      42.615  14.321  15.189 +0.03 +0.03    +0.166    41.989
ATOM     33  C   UNL d   1      43.010  11.354  19.633 -0.06 +0.01    +0.141    41.989
ATOM     34  C   UNL d   1      41.864  12.068  20.296 -0.12 +0.02    +0.306    41.989
ATOM     35  O   UNL d   1      41.835  13.245  20.613 -0.24 -0.02    -0.251    41.989
ATOM     36  O   UNL d   1      40.812  11.260  20.523 -0.03 -0.02    -0.481    41.989
ATOM     37  H   UNL d   1      41.044  10.421  20.072 +0.03 +0.02    +0.295    41.989
ATOM     38  C   UNL d   1      44.430  18.347  16.307 -0.23 +0.00    +0.017    41.989
ATOM     39  C   UNL d   1      45.398  18.866  15.537 -0.12 +0.04    +0.092    41.989
ATOM     40  C   UNL d   1      45.721  20.292  15.632 -0.10 +0.22    +0.330    41.989
ATOM     41  O   UNL d   1      46.801  20.796  15.876 -0.20 -0.32    -0.246    41.989
ATOM     42  O   UNL d   1      44.625  21.030  15.397 +0.02 -0.21    -0.477    41.989
ATOM     43  H   UNL d   1      44.284  20.680  14.548 +0.15 +0.11    +0.295    41.989
ATOM     44  C   UNL d   1      37.026  10.486  14.735 -0.03 +0.01    +0.141    41.989
ATOM     45  C   UNL d   1      35.954  10.371  13.684 -0.01 +0.03    +0.306    41.989
ATOM     46  O   UNL d   1      36.086   9.925  12.557 -0.01 -0.02    -0.251    41.989
ATOM     47  O   UNL d   1      34.769  10.853  14.101 -0.01 -0.06    -0.481    41.989
ATOM     48  H   UNL d   1      34.684  11.722  13.654 +0.03 +0.04    +0.295    41.989
ATOM     49  C   UNL d   1      42.107  17.891  11.239 -0.23 +0.01    +0.048    41.989
ATOM     50  C   UNL d   1      41.775  19.310  11.702 -0.31 +0.01    +0.125    41.989
ATOM     51  C   UNL d   1      42.803  19.810  12.676 -0.25 +0.06    +0.305    41.989
ATOM     52  O   UNL d   1      44.015  19.791  12.553 -0.24 -0.08    -0.251    41.989
ATOM     53  O   UNL d   1      42.238  20.312  13.793 -0.17 -0.06    -0.481    41.989
ATOM     54  H   UNL d   1      42.880  20.098  14.502 +0.14 +0.05    +0.295    41.989
TER
ENDMDL
MODEL       17
USER    Run = 17
USER    Cluster Rank = 67
USER    Number of conformations in this cluster = 1
USER  
USER    RMSD from reference structure       = 31.866 A
USER  
USER    Estimated Free Energy of Binding    =   -1.80 kcal/mol  [=(1)+(2)+(3)-(4)]
USER    Estimated Inhibition Constant, Ki   =   48.25 mM (millimolar)  [Temperature = 298.15 K]
USER    
USER    (1) Final Intermolecular Energy     =   -5.67 kcal/mol
USER        vdW + Hbond + desolv Energy     =   -5.59 kcal/mol
USER        Electrostatic Energy            =   -0.08 kcal/mol
USER    (2) Final Total Internal Energy     =   -4.70 kcal/mol
USER    (3) Torsional Free Energy           =   +3.88 kcal/mol
USER    (4) Unbound System's Energy  [=(2)] =   -4.70 kcal/mol
USER    
USER    
USER  
USER    DPF = D:/Protein_go_brrr/autodock/final/6BB5/heme/dock.dpf
USER    NEWDPF move	heme_opt.pdbqt
USER    NEWDPF about	0.153000 0.018000 -0.028000
USER    NEWDPF tran0	0.763272 30.220176 17.605715
USER    NEWDPF axisangle0	-0.716583 -0.202778 -0.667376 174.361949
USER    NEWDPF quaternion0	-0.715716 -0.202533 -0.666568 0.049181
USER    NEWDPF dihe0	150.10 -177.14 -169.30 52.01 -142.42 65.10 139.04 -87.26 11.48 -9.61 -96.09 -63.07 -8.99 
USER  
USER                              x       y       z    vdW   Elec        q     RMS 
ATOM      1  O   UNL d   1       1.609  26.813  12.870 -0.17 +0.05    -0.289    31.866
ATOM      2  O   UNL d   1      -1.940  33.385  13.642 -0.03 +0.01    -0.289    31.866
ATOM      3  N   UNL d   1       1.247  28.394  15.913 -0.07 +0.01    -0.247    31.866
ATOM      4  N   UNL d   1       0.016  30.999  15.188 -0.05 +0.01    -0.247    31.866
ATOM      5  N   UNL d   1       0.638  31.926  17.837 -0.04 +0.04    -0.354    31.866
ATOM      6  N   UNL d   1       1.931  29.227  18.575 -0.08 +0.03    -0.354    31.866
ATOM      7  C   UNL d   1       2.445  26.404  15.130 -0.27 -0.01    +0.084    31.866
ATOM      8  C   UNL d   1      -1.299  31.079  13.129 -0.04 -0.00    +0.084    31.866
ATOM      9  C   UNL d   1      -0.377  30.297  14.070 -0.07 -0.00    +0.058    31.866
ATOM     10  C   UNL d   1       2.076  27.346  16.280 -0.17 -0.00    +0.058    31.866
ATOM     11  C   UNL d   1       1.663  27.094  14.053 -0.15 -0.02    +0.193    31.866
ATOM     12  C   UNL d   1       0.961  28.270  14.658 -0.14 -0.00    +0.109    31.866
ATOM     13  C   UNL d   1      -1.326  32.369  13.900 -0.04 -0.01    +0.193    31.866
ATOM     14  C   UNL d   1       3.934  26.476  14.784 -0.47 -0.00    +0.026    31.866
ATOM     15  C   UNL d   1       0.049  29.053  13.800 -0.13 -0.00    +0.055    31.866
ATOM     16  C   UNL d   1      -2.713  30.493  13.102 -0.02 -0.00    +0.026    31.866
ATOM     17  C   UNL d   1      -0.484  32.191  15.122 -0.09 -0.00    +0.109    31.866
ATOM     18  C   UNL d   1       2.465  27.099  17.544 -0.19 -0.00    +0.050    31.866
ATOM     19  C   UNL d   1       2.103  27.865  18.681 -0.17 -0.00    +0.045    31.866
ATOM     20  C   UNL d   1       0.249  33.107  17.260 -0.13 -0.00    +0.045    31.866
ATOM     21  C   UNL d   1      -0.289  33.312  16.053 -0.02 -0.00    +0.057    31.866
ATOM     22  C   UNL d   1       1.077  33.542  19.344 -0.23 +0.00    -0.019    31.866
ATOM     23  C   UNL d   1       1.151  32.088  19.096 -0.20 -0.01    +0.045    31.866
ATOM     24  C   UNL d   1       0.540  34.139  18.254 -0.19 +0.00    -0.022    31.866
ATOM     25  C   UNL d   1       1.674  29.779  19.809 -0.14 -0.00    +0.049    31.866
ATOM     26  C   UNL d   1       1.916  27.519  20.010 -0.14 +0.00    -0.018    31.866
ATOM     27  C   UNL d   1       1.626  28.728  20.714 -0.12 -0.00    +0.003    31.866
ATOM     28  C   UNL d   1       1.615  31.189  19.978 -0.22 -0.01    +0.052    31.866
ATOM     29  C   UNL d   1       0.253  35.585  18.029 -0.18 -0.01    +0.046    31.866
ATOM     30  C   UNL d   1       1.998  26.149  20.593 -0.12 -0.00    +0.046    31.866
ATOM     31  H   UNL d   1       0.472  31.037  17.379 +0.05 -0.01    +0.166    31.866
ATOM     32  H   UNL d   1       2.027  29.738  17.706 +0.07 -0.02    +0.166    31.866
ATOM     33  C   UNL d   1       1.974  24.955  15.292 -0.20 -0.02    +0.141    31.866
ATOM     34  C   UNL d   1       0.480  24.843  15.430 -0.05 -0.03    +0.306    31.866
ATOM     35  O   UNL d   1      -0.154  24.901  16.470 -0.02 +0.02    -0.251    31.866
ATOM     36  O   UNL d   1      -0.138  24.666  14.249 -0.00 +0.06    -0.481    31.866
ATOM     37  H   UNL d   1       0.414  25.159  13.605 +0.11 -0.05    +0.295    31.866
ATOM     38  C   UNL d   1       1.380  28.825  22.121 -0.10 -0.00    +0.017    31.866
ATOM     39  C   UNL d   1       1.598  29.916  22.872 +0.01 -0.01    +0.092    31.866
ATOM     40  C   UNL d   1       1.287  29.891  24.304 -0.06 -0.01    +0.330    31.866
ATOM     41  O   UNL d   1       1.790  29.191  25.162 -0.06 +0.00    -0.246    31.866
ATOM     42  O   UNL d   1       0.331  30.790  24.584 -0.01 +0.03    -0.477    31.866
ATOM     43  H   UNL d   1       0.098  31.166  23.710 +0.03 -0.03    +0.295    31.866
ATOM     44  C   UNL d   1      -0.762  31.299  11.711 -0.08 -0.00    +0.141    31.866
ATOM     45  C   UNL d   1       0.543  32.050  11.679 -0.15 +0.01    +0.306    31.866
ATOM     46  O   UNL d   1       1.660  31.564  11.634 -0.32 -0.02    -0.251    31.866
ATOM     47  O   UNL d   1       0.372  33.383  11.735 -0.05 -0.00    -0.481    31.866
ATOM     48  H   UNL d   1      -0.579  33.502  11.944 +0.10 +0.00    +0.295    31.866
ATOM     49  C   UNL d   1       1.545  34.207  20.605 -0.27 -0.02    +0.048    31.866
ATOM     50  C   UNL d   1       0.417  34.351  21.625 -0.10 -0.02    +0.125    31.866
ATOM     51  C   UNL d   1       0.265  33.097  22.439 -0.06 -0.06    +0.305    31.866
ATOM     52  O   UNL d   1      -0.482  32.158  22.225 -0.04 +0.03    -0.251    31.866
ATOM     53  O   UNL d   1       1.076  33.094  23.516 -0.02 +0.11    -0.481    31.866
ATOM     54  H   UNL d   1       1.546  32.236  23.458 -0.28 -0.10    +0.295    31.866
TER
ENDMDL
MODEL       28
USER    Run = 28
USER    Cluster Rank = 68
USER    Number of conformations in this cluster = 1
USER  
USER    RMSD from reference structure       = 24.089 A
USER  
USER    Estimated Free Energy of Binding    =   -1.66 kcal/mol  [=(1)+(2)+(3)-(4)]
USER    Estimated Inhibition Constant, Ki   =   60.55 mM (millimolar)  [Temperature = 298.15 K]
USER    
USER    (1) Final Intermolecular Energy     =   -5.54 kcal/mol
USER        vdW + Hbond + desolv Energy     =   -5.36 kcal/mol
USER        Electrostatic Energy            =   -0.18 kcal/mol
USER    (2) Final Total Internal Energy     =   -4.55 kcal/mol
USER    (3) Torsional Free Energy           =   +3.88 kcal/mol
USER    (4) Unbound System's Energy  [=(2)] =   -4.55 kcal/mol
USER    
USER    
USER  
USER    DPF = D:/Protein_go_brrr/autodock/final/6BB5/heme/dock.dpf
USER    NEWDPF move	heme_opt.pdbqt
USER    NEWDPF about	0.153000 0.018000 -0.028000
USER    NEWDPF tran0	0.917189 26.539511 -7.813997
USER    NEWDPF axisangle0	0.265887 0.863136 -0.429302 -67.929938
USER    NEWDPF quaternion0	0.148547 0.482222 -0.239845 -0.829379
USER    NEWDPF dihe0	162.45 128.60 105.34 27.58 -146.50 124.46 -46.50 52.97 10.57 -124.77 -87.08 -102.55 -0.04 
USER  
USER                              x       y       z    vdW   Elec        q     RMS 
ATOM      1  O   UNL d   1      -0.053  29.079  -2.582 -0.07 +0.03    -0.289    24.089
ATOM      2  O   UNL d   1      -3.971  23.896  -6.347 -0.00 +0.02    -0.289    24.089
ATOM      3  N   UNL d   1       0.845  27.976  -5.725 -0.11 +0.04    -0.247    24.089
ATOM      4  N   UNL d   1      -1.075  25.769  -6.248 -0.05 +0.05    -0.247    24.089
ATOM      5  N   UNL d   1       0.587  24.971  -8.455 -0.05 +0.23    -0.354    24.089
ATOM      6  N   UNL d   1       2.584  27.251  -7.892 -0.13 +0.14    -0.354    24.089
ATOM      7  C   UNL d   1       1.862  29.455  -4.055 -0.26 -0.01    +0.084    24.089
ATOM      8  C   UNL d   1      -3.226  25.862  -5.094 -0.02 -0.01    +0.084    24.089
ATOM      9  C   UNL d   1      -1.823  26.440  -5.307 -0.06 -0.01    +0.058    24.089
ATOM     10  C   UNL d   1       1.936  28.775  -5.426 -0.27 -0.01    +0.058    24.089
ATOM     11  C   UNL d   1       0.527  28.912  -3.640 -0.12 -0.02    +0.193    24.089
ATOM     12  C   UNL d   1       0.002  28.051  -4.747 -0.11 -0.01    +0.109    24.089
ATOM     13  C   UNL d   1      -3.121  24.716  -6.061 -0.01 -0.02    +0.193    24.089
ATOM     14  C   UNL d   1       2.931  28.929  -3.095 -0.41 -0.00    +0.026    24.089
ATOM     15  C   UNL d   1      -1.351  27.477  -4.600 -0.08 -0.01    +0.055    24.089
ATOM     16  C   UNL d   1      -4.316  26.820  -5.582 -0.01 -0.00    +0.026    24.089
ATOM     17  C   UNL d   1      -1.767  24.768  -6.689 -0.04 -0.02    +0.109    24.089
ATOM     18  C   UNL d   1       2.944  29.026  -6.282 -0.36 -0.01    +0.050    24.089
ATOM     19  C   UNL d   1       3.053  28.511  -7.598 -0.31 -0.01    +0.045    24.089
ATOM     20  C   UNL d   1      -0.265  23.899  -8.402 -0.08 -0.02    +0.045    24.089
ATOM     21  C   UNL d   1      -1.361  23.736  -7.654 -0.05 -0.02    +0.057    24.089
ATOM     22  C   UNL d   1       1.386  23.455  -9.917 -0.07 +0.02    -0.019    24.089
ATOM     23  C   UNL d   1       1.616  24.796  -9.342 -0.05 -0.04    +0.045    24.089
ATOM     24  C   UNL d   1       0.271  22.930  -9.357 -0.08 +0.01    -0.022    24.089
ATOM     25  C   UNL d   1       2.872  26.920  -9.196 -0.20 -0.02    +0.049    24.089
ATOM     26  C   UNL d   1       3.627  29.027  -8.750 -0.34 -0.00    -0.018    24.089
ATOM     27  C   UNL d   1       3.493  28.026  -9.761 -0.25 +0.00    +0.003    24.089
ATOM     28  C   UNL d   1       2.626  25.609  -9.687 -0.17 -0.04    +0.052    24.089
ATOM     29  C   UNL d   1      -0.372  21.611  -9.620 -0.03 -0.01    +0.046    24.089
ATOM     30  C   UNL d   1       4.261  30.368  -8.905 -0.34 +0.01    +0.046    24.089
ATOM     31  H   UNL d   1       0.395  25.821  -7.936 +0.03 -0.07    +0.166    24.089
ATOM     32  H   UNL d   1       2.129  26.650  -7.215 +0.04 -0.10    +0.166    24.089
ATOM     33  C   UNL d   1       1.834  30.987  -4.082 -0.15 -0.00    +0.141    24.089
ATOM     34  C   UNL d   1       0.677  31.532  -4.876 -0.05 +0.01    +0.306    24.089
ATOM     35  O   UNL d   1       0.690  31.825  -6.059 -0.04 -0.01    -0.251    24.089
ATOM     36  O   UNL d   1      -0.436  31.676  -4.136 +0.00 -0.01    -0.481    24.089
ATOM     37  H   UNL d   1      -0.297  31.089  -3.363 +0.04 +0.00    +0.295    24.089
ATOM     38  C   UNL d   1       3.968  28.143 -11.107 -0.20 +0.01    +0.017    24.089
ATOM     39  C   UNL d   1       4.945  27.401 -11.650 -0.25 +0.03    +0.092    24.089
ATOM     40  C   UNL d   1       5.327  27.608 -13.049 -0.01 +0.27    +0.330    24.089
ATOM     41  O   UNL d   1       6.425  27.895 -13.485 -0.15 -0.22    -0.246    24.089
ATOM     42  O   UNL d   1       4.265  27.427 -13.850 -0.42 -0.41    -0.477    24.089
ATOM     43  H   UNL d   1       3.912  26.555 -13.578 +0.06 +0.10    +0.295    24.089
ATOM     44  C   UNL d   1      -3.525  25.359  -3.677 -0.02 -0.01    +0.141    24.089
ATOM     45  C   UNL d   1      -4.864  24.682  -3.557 -0.00 -0.01    +0.306    24.089
ATOM     46  O   UNL d   1      -5.923  25.212  -3.271 -0.00 +0.01    -0.251    24.089
ATOM     47  O   UNL d   1      -4.793  23.357  -3.778 +0.00 +0.02    -0.481    24.089
ATOM     48  H   UNL d   1      -4.698  23.273  -4.751 +0.01 -0.01    +0.295    24.089
ATOM     49  C   UNL d   1       2.278  22.813 -10.939 -0.07 -0.04    +0.048    24.089
ATOM     50  C   UNL d   1       1.941  23.273 -12.357 -0.02 -0.03    +0.125    24.089
ATOM     51  C   UNL d   1       2.798  24.439 -12.760 -0.00 -0.05    +0.305    24.089
ATOM     52  O   UNL d   1       4.004  24.556 -12.629 -0.04 +0.06    -0.251    24.089
ATOM     53  O   UNL d   1       2.072  25.431 -13.314 +0.02 -0.00    -0.481    24.089
ATOM     54  H   UNL d   1       2.705  25.886 -13.908 +0.03 +0.04    +0.295    24.089
TER
ENDMDL
MODEL       45
USER    Run = 45
USER    Cluster Rank = 69
USER    Number of conformations in this cluster = 1
USER  
USER    RMSD from reference structure       = 43.349 A
USER  
USER    Estimated Free Energy of Binding    =   -1.27 kcal/mol  [=(1)+(2)+(3)-(4)]
USER    Estimated Inhibition Constant, Ki   =  117.99 mM (millimolar)  [Temperature = 298.15 K]
USER    
USER    (1) Final Intermolecular Energy     =   -5.14 kcal/mol
USER        vdW + Hbond + desolv Energy     =   -5.06 kcal/mol
USER        Electrostatic Energy            =   -0.08 kcal/mol
USER    (2) Final Total Internal Energy     =   -4.95 kcal/mol
USER    (3) Torsional Free Energy           =   +3.88 kcal/mol
USER    (4) Unbound System's Energy  [=(2)] =   -4.95 kcal/mol
USER    
USER    
USER  
USER    DPF = D:/Protein_go_brrr/autodock/final/6BB5/heme/dock.dpf
USER    NEWDPF move	heme_opt.pdbqt
USER    NEWDPF about	0.153000 0.018000 -0.028000
USER    NEWDPF tran0	41.449993 25.173523 -1.145677
USER    NEWDPF axisangle0	-0.187520 0.391168 0.901012 -118.462143
USER    NEWDPF quaternion0	-0.161125 0.336107 0.774184 -0.511577
USER    NEWDPF dihe0	119.28 178.92 -122.15 -64.75 -131.75 -16.30 123.42 -89.10 27.61 -20.80 -109.38 5.27 -8.20 
USER  
USER                              x       y       z    vdW   Elec        q     RMS 
ATOM      1  O   UNL d   1      42.373  21.357   3.252 -0.08 -0.04    -0.289    43.349
ATOM      2  O   UNL d   1      46.793  23.489  -2.432 -0.03 -0.02    -0.289    43.349
ATOM      3  N   UNL d   1      41.338  23.554   0.803 -0.15 -0.01    -0.247    43.349
ATOM      4  N   UNL d   1      43.804  24.014  -0.789 -0.11 -0.03    -0.247    43.349
ATOM      5  N   UNL d   1      42.477  26.244  -2.027 -0.06 -0.02    -0.354    43.349
ATOM      6  N   UNL d   1      39.930  25.772  -0.357 -0.14 -0.00    -0.354    43.349
ATOM      7  C   UNL d   1      40.377  22.723   2.899 -0.34 -0.01    +0.084    43.349
ATOM      8  C   UNL d   1      45.489  22.244  -0.777 -0.05 +0.01    +0.084    43.349
ATOM      9  C   UNL d   1      44.164  22.801  -0.245 -0.12 +0.01    +0.058    43.349
ATOM     10  C   UNL d   1      40.252  23.616   1.661 -0.30 -0.00    +0.058    43.349
ATOM     11  C   UNL d   1      41.717  22.132   2.580 -0.18 +0.01    +0.193    43.349
ATOM     12  C   UNL d   1      42.182  22.695   1.273 -0.17 +0.01    +0.109    43.349
ATOM     13  C   UNL d   1      45.832  23.382  -1.696 -0.06 +0.02    +0.193    43.349
ATOM     14  C   UNL d   1      40.490  23.540   4.188 -0.39 -0.00    +0.026    43.349
ATOM     15  C   UNL d   1      43.447  22.184   0.706 -0.14 +0.01    +0.055    43.349
ATOM     16  C   UNL d   1      45.277  20.980  -1.616 -0.02 +0.00    +0.026    43.349
ATOM     17  C   UNL d   1      44.734  24.393  -1.605 -0.12 +0.01    +0.109    43.349
ATOM     18  C   UNL d   1      39.131  24.318   1.411 -0.27 -0.01    +0.050    43.349
ATOM     19  C   UNL d   1      38.894  25.102   0.253 -0.22 -0.00    +0.045    43.349
ATOM     20  C   UNL d   1      43.752  26.440  -2.493 -0.13 +0.00    +0.045    43.349
ATOM     21  C   UNL d   1      44.820  25.646  -2.370 -0.11 +0.00    +0.057    43.349
ATOM     22  C   UNL d   1      42.464  28.229  -3.093 -0.13 +0.00    -0.019    43.349
ATOM     23  C   UNL d   1      41.628  27.272  -2.340 -0.16 +0.00    +0.045    43.349
ATOM     24  C   UNL d   1      43.720  27.730  -3.181 -0.15 +0.00    -0.022    43.349
ATOM     25  C   UNL d   1      39.463  26.538  -1.400 -0.16 +0.00    +0.049    43.349
ATOM     26  C   UNL d   1      37.729  25.412  -0.433 -0.15 +0.00    -0.018    43.349
ATOM     27  C   UNL d   1      38.097  26.303  -1.487 -0.12 -0.00    +0.003    43.349
ATOM     28  C   UNL d   1      40.322  27.441  -2.084 -0.16 +0.00    +0.052    43.349
ATOM     29  C   UNL d   1      44.913  28.320  -3.852 -0.11 -0.00    +0.046    43.349
ATOM     30  C   UNL d   1      36.358  24.910  -0.130 -0.16 -0.01    +0.046    43.349
ATOM     31  H   UNL d   1      42.211  25.377  -1.573 +0.03 +0.01    +0.166    43.349
ATOM     32  H   UNL d   1      40.891  25.726  -0.040 +0.04 +0.01    +0.166    43.349
ATOM     33  C   UNL d   1      39.319  21.621   3.023 -0.24 -0.03    +0.141    43.349
ATOM     34  C   UNL d   1      39.565  20.472   2.083 -0.03 -0.03    +0.306    43.349
ATOM     35  O   UNL d   1      39.324  20.455   0.888 -0.02 +0.02    -0.251    43.349
ATOM     36  O   UNL d   1      40.106  19.406   2.699 +0.01 +0.02    -0.481    43.349
ATOM     37  H   UNL d   1      40.977  19.721   3.020 +0.08 +0.01    +0.295    43.349
ATOM     38  C   UNL d   1      37.191  26.884  -2.432 -0.06 -0.00    +0.017    43.349
ATOM     39  C   UNL d   1      37.422  27.016  -3.747 -0.02 -0.00    +0.092    43.349
ATOM     40  C   UNL d   1      36.401  27.613  -4.611 -0.00 +0.00    +0.330    43.349
ATOM     41  O   UNL d   1      35.216  27.753  -4.375 -0.00 -0.00    -0.246    43.349
ATOM     42  O   UNL d   1      36.954  28.024  -5.763 +0.00 -0.00    -0.477    43.349
ATOM     43  H   UNL d   1      37.904  27.807  -5.658 +0.00 +0.00    +0.295    43.349
ATOM     44  C   UNL d   1      46.586  22.035   0.272 -0.06 +0.02    +0.141    43.349
ATOM     45  C   UNL d   1      47.155  23.325   0.802 -0.08 +0.04    +0.306    43.349
ATOM     46  O   UNL d   1      46.653  24.048   1.645 -0.21 -0.04    -0.251    43.349
ATOM     47  O   UNL d   1      48.321  23.652   0.216 -0.00 -0.05    -0.481    43.349
ATOM     48  H   UNL d   1      48.115  23.689  -0.742 +0.05 +0.03    +0.295    43.349
ATOM     49  C   UNL d   1      41.966  29.535  -3.638 -0.07 -0.00    +0.048    43.349
ATOM     50  C   UNL d   1      41.458  29.397  -5.073 -0.01 +0.00    +0.125    43.349
ATOM     51  C   UNL d   1      40.161  28.640  -5.112 -0.00 +0.00    +0.305    43.349
ATOM     52  O   UNL d   1      40.001  27.448  -5.312 -0.00 -0.00    -0.251    43.349
ATOM     53  O   UNL d   1      39.101  29.445  -4.903 +0.00 -0.00    -0.481    43.349
ATOM     54  H   UNL d   1      38.610  29.418  -5.751 +0.00 +0.00    +0.295    43.349
TER
ENDMDL


AVSFLD: # AVS field file
AVSFLD: #
AVSFLD: # Created by AutoDock
AVSFLD: #
AVSFLD: ndim=2           # number of dimensions in the field
AVSFLD: nspace=1         # number of physical coordinates
AVSFLD: veclen=7         # vector size
AVSFLD: dim1=54          # atoms
AVSFLD: dim2=69          # conformations
AVSFLD: data=Real       # data type (byte,integer,Real,double)
AVSFLD: field=uniform    # field coordinate layout
AVSFLD: label= x y z vdW Elec q RMS
AVSFLD: variable 1 file = D:/Protein_go_brrr/autodock/final/6BB5/heme/dock.dlg.pdb filetype = ascii offset = 5 stride = 12
AVSFLD: variable 2 file = D:/Protein_go_brrr/autodock/final/6BB5/heme/dock.dlg.pdb filetype = ascii offset = 6 stride = 12
AVSFLD: variable 3 file = D:/Protein_go_brrr/autodock/final/6BB5/heme/dock.dlg.pdb filetype = ascii offset = 7 stride = 12
AVSFLD: variable 4 file = D:/Protein_go_brrr/autodock/final/6BB5/heme/dock.dlg.pdb filetype = ascii offset = 8 stride = 12
AVSFLD: variable 5 file = D:/Protein_go_brrr/autodock/final/6BB5/heme/dock.dlg.pdb filetype = ascii offset = 9 stride = 12
AVSFLD: variable 6 file = D:/Protein_go_brrr/autodock/final/6BB5/heme/dock.dlg.pdb filetype = ascii offset = 10 stride = 12
AVSFLD: variable 7 file = D:/Protein_go_brrr/autodock/final/6BB5/heme/dock.dlg.pdb filetype = ascii offset = 11 stride = 12
AVSFLD: # end of file

>>> Closing the docking parameter file (DPF)...
This docking finished at:			10:57 55" a.m., 09/29/2025


________________________________________________________________________________

D:/autodockScripts/autodock4.exe: Successful Completion on "ACER"

Real= 10h 19m 43.71s,  CPU= 2m 49.42s,  System= 1m 06.58s
________________________________________________________________________________

