          AutoDock 4.2 Release 4.2.6   
         (C) 1989-2012 The Scripps Research Institute
        AutoDock comes with ABSOLUTELY NO WARRANTY.
        AutoDock is free software, and you are welcome
        to redistribute it under certain conditions;
        for details type 'autodock4 -C'

                     main.cc  $Revision: 1.213 $

                   Compiled on Jul 18 2014 at 15:34:58


This file was created at:			12:53 36" p.m., 09/30/2025
                   on host:		"ACER"
Current Working Directory = "D:\Protein_go_brrr\autodock\final\AncB\IHP"

      ________________________________________________________________

                   SETTING UP DEFAULT PARAMETER LIBRARY
      ________________________________________________________________


Random number generator was seeded with values 22688, 1759229616.
Docking parameter file (DPF) used for this docking:		D:/Protein_go_brrr/autodock/final/AncB/IHP/dock.dpf
DPF> autodock_parameter_version 4.2       # used by autodock to validate parameter set

	Autodock parameter version 4.2.
DPF> outlev 1                             # diagnostic output level

Output Level = 1  ADT-COMPATIBLE OUTPUT DURING DOCKING.
DPF> intelec                              # calculate internal electrostatics

Electrostatic energies will be calculated for all non-bonds between moving atoms.
DPF> seed pid time                        # seeds for random generator

Random number generator was seeded with values 22688, 1759229616.
DPF> ligand_types P C HD OA               # atoms types in ligand

DPF> fld opt_AncB.maps.fld                # grid_data_file

Opening Grid Map Dimensions file:		opt_AncB.maps.fld
Grid Point Spacing =				0.419 Angstroms

Even Number of User-specified Grid Points =	126 x-points
						126 y-points
						126 z-points

Coordinates of Central Grid Point of Maps =	(-0.470, 0.127, 0.025)
Macromolecule file used to create Grid Maps =	opt_AncB.pdbqt
Grid Parameter file used to create Grid Maps =	D:/Protein_go_brrr/autodock/final/AncB/IHP/grid.gpf
Minimum coordinates in grid = (-26.867, -26.270, -26.372)
Maximum coordinates in grid = (25.927, 26.524, 26.422)

DPF> map opt_AncB.P.map                   # atom-specific affinity map

DPF> map opt_AncB.C.map                   # atom-specific affinity map

DPF> map opt_AncB.HD.map                  # atom-specific affinity map

DPF> map opt_AncB.OA.map                  # atom-specific affinity map

DPF> elecmap opt_AncB.e.map               # electrostatics map

DPF> desolvmap opt_AncB.d.map             # desolvation map

DPF> move IHP_ideal_opt.pdbqt             # small molecule

1,4-interactions will be _ignored_ in the non-bonded internal energy calculation.

Ligand PDBQT file = "IHP_ideal_opt.pdbqt"

INPUT LIGAND PDBQT FILE:
________________________

INPUT-LIGAND-PDBQT: REMARK  24 active torsions:
INPUT-LIGAND-PDBQT: REMARK  status: ('A' for Active; 'I' for Inactive)
INPUT-LIGAND-PDBQT: REMARK    1  A    between atoms: C_1  and  O_7 
INPUT-LIGAND-PDBQT: REMARK    2  A    between atoms: C_2  and  O_12 
INPUT-LIGAND-PDBQT: REMARK    3  A    between atoms: C_3  and  O_17 
INPUT-LIGAND-PDBQT: REMARK    4  A    between atoms: C_4  and  O_22 
INPUT-LIGAND-PDBQT: REMARK    5  A    between atoms: C_5  and  O_27 
INPUT-LIGAND-PDBQT: REMARK    6  A    between atoms: C_6  and  O_32 
INPUT-LIGAND-PDBQT: REMARK    7  A    between atoms: O_7  and  P_8 
INPUT-LIGAND-PDBQT: REMARK    8  A    between atoms: P_8  and  O_10 
INPUT-LIGAND-PDBQT: REMARK    9  A    between atoms: P_8  and  O_11 
INPUT-LIGAND-PDBQT: REMARK   10  A    between atoms: O_12  and  P_13 
INPUT-LIGAND-PDBQT: REMARK   11  A    between atoms: P_13  and  O_15 
INPUT-LIGAND-PDBQT: REMARK   12  A    between atoms: P_13  and  O_16 
INPUT-LIGAND-PDBQT: REMARK   13  A    between atoms: O_17  and  P_18 
INPUT-LIGAND-PDBQT: REMARK   14  A    between atoms: P_18  and  O_20 
INPUT-LIGAND-PDBQT: REMARK   15  A    between atoms: P_18  and  O_21 
INPUT-LIGAND-PDBQT: REMARK   16  A    between atoms: O_22  and  P_23 
INPUT-LIGAND-PDBQT: REMARK   17  A    between atoms: P_23  and  O_25 
INPUT-LIGAND-PDBQT: REMARK   18  A    between atoms: P_23  and  O_26 
INPUT-LIGAND-PDBQT: REMARK   19  A    between atoms: O_27  and  P_28 
INPUT-LIGAND-PDBQT: REMARK   20  A    between atoms: P_28  and  O_30 
INPUT-LIGAND-PDBQT: REMARK   21  A    between atoms: P_28  and  O_31 
INPUT-LIGAND-PDBQT: REMARK   22  A    between atoms: O_32  and  P_33 
INPUT-LIGAND-PDBQT: REMARK   23  A    between atoms: P_33  and  O_35 
INPUT-LIGAND-PDBQT: REMARK   24  A    between atoms: P_33  and  O_36 
INPUT-LIGAND-PDBQT: ROOT
INPUT-LIGAND-PDBQT: ATOM      1  C   UNL d   1       1.288  -0.806   0.726  0.00  0.00     0.194 C 
INPUT-LIGAND-PDBQT: ATOM      2  C   UNL d   1       0.040  -1.610   0.357  0.00  0.00     0.194 C 
INPUT-LIGAND-PDBQT: ATOM      3  C   UNL d   1      -1.244  -0.840   0.673  0.00  0.00     0.194 C 
INPUT-LIGAND-PDBQT: ATOM      4  C   UNL d   1      -1.265   0.565   0.076  0.00  0.00     0.194 C 
INPUT-LIGAND-PDBQT: ATOM      5  C   UNL d   1       0.009   1.363   0.322  0.00  0.00     0.194 C 
INPUT-LIGAND-PDBQT: ATOM      6  C   UNL d   1       1.294   0.573   0.065  0.00  0.00     0.194 C 
INPUT-LIGAND-PDBQT: ENDROOT
INPUT-LIGAND-PDBQT: BRANCH   1   7
INPUT-LIGAND-PDBQT: ATOM      7  O   UNL d   1       2.433  -1.514   0.245  0.00  0.00    -0.278 OA
INPUT-LIGAND-PDBQT: BRANCH   7   8
INPUT-LIGAND-PDBQT: ATOM      8  P   UNL d   1       3.563  -1.932   1.294  0.00  0.00     0.473 P 
INPUT-LIGAND-PDBQT: ATOM      9  O   UNL d   1       3.071  -2.662   2.494  0.00  0.00    -0.228 OA
INPUT-LIGAND-PDBQT: BRANCH   8  10
INPUT-LIGAND-PDBQT: ATOM     10  O   UNL d   1       4.602  -2.777   0.427  0.00  0.00    -0.303 OA
INPUT-LIGAND-PDBQT: ATOM     11  H   UNL d   1       5.122  -3.357   1.014  0.00  0.00     0.222 HD
INPUT-LIGAND-PDBQT: ENDBRANCH   8  10
INPUT-LIGAND-PDBQT: BRANCH   8  12
INPUT-LIGAND-PDBQT: ATOM     12  O   UNL d   1       4.376  -0.597   1.579  0.00  0.00    -0.303 OA
INPUT-LIGAND-PDBQT: ATOM     13  H   UNL d   1       4.592  -0.095   0.761  0.00  0.00     0.222 HD
INPUT-LIGAND-PDBQT: ENDBRANCH   8  12
INPUT-LIGAND-PDBQT: ENDBRANCH   7   8
INPUT-LIGAND-PDBQT: ENDBRANCH   1   7
INPUT-LIGAND-PDBQT: BRANCH   2  14
INPUT-LIGAND-PDBQT: ATOM     14  O   UNL d   1       0.067  -1.896  -1.047  0.00  0.00    -0.278 OA
INPUT-LIGAND-PDBQT: BRANCH  14  15
INPUT-LIGAND-PDBQT: ATOM     15  P   UNL d   1      -0.217  -3.413  -1.474  0.00  0.00     0.473 P 
INPUT-LIGAND-PDBQT: ATOM     16  O   UNL d   1      -1.497  -4.019  -0.990  0.00  0.00    -0.228 OA
INPUT-LIGAND-PDBQT: BRANCH  15  17
INPUT-LIGAND-PDBQT: ATOM     17  O   UNL d   1      -0.104  -3.396  -3.063  0.00  0.00    -0.303 OA
INPUT-LIGAND-PDBQT: ATOM     18  H   UNL d   1      -0.983  -3.299  -3.477  0.00  0.00     0.222 HD
INPUT-LIGAND-PDBQT: ENDBRANCH  15  17
INPUT-LIGAND-PDBQT: BRANCH  15  19
INPUT-LIGAND-PDBQT: ATOM     19  O   UNL d   1       1.108  -4.194  -1.068  0.00  0.00    -0.303 OA
INPUT-LIGAND-PDBQT: ATOM     20  H   UNL d   1       1.891  -3.839  -1.528  0.00  0.00     0.222 HD
INPUT-LIGAND-PDBQT: ENDBRANCH  15  19
INPUT-LIGAND-PDBQT: ENDBRANCH  14  15
INPUT-LIGAND-PDBQT: ENDBRANCH   2  14
INPUT-LIGAND-PDBQT: BRANCH   6  21
INPUT-LIGAND-PDBQT: ATOM     21  O   UNL d   1       2.359   1.315   0.655  0.00  0.00    -0.278 OA
INPUT-LIGAND-PDBQT: BRANCH  21  22
INPUT-LIGAND-PDBQT: ATOM     22  P   UNL d   1       3.322   2.189  -0.269  0.00  0.00     0.473 P 
INPUT-LIGAND-PDBQT: ATOM     23  O   UNL d   1       2.760   2.769  -1.523  0.00  0.00    -0.228 OA
INPUT-LIGAND-PDBQT: BRANCH  22  24
INPUT-LIGAND-PDBQT: ATOM     24  O   UNL d   1       3.885   3.258   0.767  0.00  0.00    -0.303 OA
INPUT-LIGAND-PDBQT: ATOM     25  H   UNL d   1       3.131   3.831   1.059  0.00  0.00     0.222 HD
INPUT-LIGAND-PDBQT: ENDBRANCH  22  24
INPUT-LIGAND-PDBQT: BRANCH  22  26
INPUT-LIGAND-PDBQT: ATOM     26  O   UNL d   1       4.578   1.209  -0.449  0.00  0.00    -0.303 OA
INPUT-LIGAND-PDBQT: ATOM     27  H   UNL d   1       5.288   1.681  -0.930  0.00  0.00     0.222 HD
INPUT-LIGAND-PDBQT: ENDBRANCH  22  26
INPUT-LIGAND-PDBQT: ENDBRANCH  21  22
INPUT-LIGAND-PDBQT: ENDBRANCH   6  21
INPUT-LIGAND-PDBQT: BRANCH   3  28
INPUT-LIGAND-PDBQT: ATOM     28  O   UNL d   1      -2.321  -1.530   0.052  0.00  0.00    -0.278 OA
INPUT-LIGAND-PDBQT: BRANCH  28  29
INPUT-LIGAND-PDBQT: ATOM     29  P   UNL d   1      -3.402  -2.296   0.936  0.00  0.00     0.473 P 
INPUT-LIGAND-PDBQT: ATOM     30  O   UNL d   1      -2.932  -2.753   2.269  0.00  0.00    -0.228 OA
INPUT-LIGAND-PDBQT: BRANCH  29  31
INPUT-LIGAND-PDBQT: ATOM     31  O   UNL d   1      -4.591  -1.225   0.913  0.00  0.00    -0.303 OA
INPUT-LIGAND-PDBQT: ATOM     32  H   UNL d   1      -4.772  -0.977  -0.023  0.00  0.00     0.222 HD
INPUT-LIGAND-PDBQT: ENDBRANCH  29  31
INPUT-LIGAND-PDBQT: BRANCH  29  33
INPUT-LIGAND-PDBQT: ATOM     33  O   UNL d   1      -3.920  -3.418  -0.068  0.00  0.00    -0.303 OA
INPUT-LIGAND-PDBQT: ATOM     34  H   UNL d   1      -3.155  -3.980  -0.344  0.00  0.00     0.222 HD
INPUT-LIGAND-PDBQT: ENDBRANCH  29  33
INPUT-LIGAND-PDBQT: ENDBRANCH  28  29
INPUT-LIGAND-PDBQT: ENDBRANCH   3  28
INPUT-LIGAND-PDBQT: BRANCH   5  35
INPUT-LIGAND-PDBQT: ATOM     35  O   UNL d   1      -0.019   2.436  -0.617  0.00  0.00    -0.278 OA
INPUT-LIGAND-PDBQT: BRANCH  35  36
INPUT-LIGAND-PDBQT: ATOM     36  P   UNL d   1       0.242   3.934  -0.135  0.00  0.00     0.473 P 
INPUT-LIGAND-PDBQT: ATOM     37  O   UNL d   1       1.386   4.117   0.811  0.00  0.00    -0.228 OA
INPUT-LIGAND-PDBQT: BRANCH  36  38
INPUT-LIGAND-PDBQT: ATOM     38  O   UNL d   1       0.411   4.698  -1.522  0.00  0.00    -0.303 OA
INPUT-LIGAND-PDBQT: ATOM     39  H   UNL d   1       1.257   4.425  -1.938  0.00  0.00     0.222 HD
INPUT-LIGAND-PDBQT: ENDBRANCH  36  38
INPUT-LIGAND-PDBQT: BRANCH  36  40
INPUT-LIGAND-PDBQT: ATOM     40  O   UNL d   1      -1.196   4.382   0.376  0.00  0.00    -0.303 OA
INPUT-LIGAND-PDBQT: ATOM     41  H   UNL d   1      -1.909   4.073  -0.226  0.00  0.00     0.222 HD
INPUT-LIGAND-PDBQT: ENDBRANCH  36  40
INPUT-LIGAND-PDBQT: ENDBRANCH  35  36
INPUT-LIGAND-PDBQT: ENDBRANCH   5  35
INPUT-LIGAND-PDBQT: BRANCH   4  42
INPUT-LIGAND-PDBQT: ATOM     42  O   UNL d   1      -2.334   1.271   0.715  0.00  0.00    -0.278 OA
INPUT-LIGAND-PDBQT: BRANCH  42  43
INPUT-LIGAND-PDBQT: ATOM     43  P   UNL d   1      -3.625   1.654  -0.140  0.00  0.00     0.473 P 
INPUT-LIGAND-PDBQT: ATOM     44  O   UNL d   1      -4.208   0.598  -1.014  0.00  0.00    -0.228 OA
INPUT-LIGAND-PDBQT: BRANCH  43  45
INPUT-LIGAND-PDBQT: ATOM     45  O   UNL d   1      -4.625   2.208   0.967  0.00  0.00    -0.303 OA
INPUT-LIGAND-PDBQT: ATOM     46  H   UNL d   1      -4.983   1.485   1.520  0.00  0.00     0.222 HD
INPUT-LIGAND-PDBQT: ENDBRANCH  43  45
INPUT-LIGAND-PDBQT: BRANCH  43  47
INPUT-LIGAND-PDBQT: ATOM     47  O   UNL d   1      -3.184   3.003  -0.885  0.00  0.00    -0.303 OA
INPUT-LIGAND-PDBQT: ATOM     48  H   UNL d   1      -3.918   3.311  -1.456  0.00  0.00     0.222 HD
INPUT-LIGAND-PDBQT: ENDBRANCH  43  47
INPUT-LIGAND-PDBQT: ENDBRANCH  42  43
INPUT-LIGAND-PDBQT: ENDBRANCH   4  42
INPUT-LIGAND-PDBQT: TORSDOF 24
________________________________________________________________________________

Total charge on ligand                               =	-0.006 e
REMARK  24 active torsions:
REMARK  status: ('A' for Active; 'I' for Inactive)
REMARK    1  A    between atoms: C_1  and  O_7 
REMARK    2  A    between atoms: C_2  and  O_12 
REMARK    3  A    between atoms: C_3  and  O_17 
REMARK    4  A    between atoms: C_4  and  O_22 
REMARK    5  A    between atoms: C_5  and  O_27 
REMARK    6  A    between atoms: C_6  and  O_32 
REMARK    7  A    between atoms: O_7  and  P_8 
REMARK    8  A    between atoms: P_8  and  O_10 
REMARK    9  A    between atoms: P_8  and  O_11 
REMARK   10  A    between atoms: O_12  and  P_13 
REMARK   11  A    between atoms: P_13  and  O_15 
REMARK   12  A    between atoms: P_13  and  O_16 
REMARK   13  A    between atoms: O_17  and  P_18 
REMARK   14  A    between atoms: P_18  and  O_20 
REMARK   15  A    between atoms: P_18  and  O_21 
REMARK   16  A    between atoms: O_22  and  P_23 
REMARK   17  A    between atoms: P_23  and  O_25 
REMARK   18  A    between atoms: P_23  and  O_26 
REMARK   19  A    between atoms: O_27  and  P_28 
REMARK   20  A    between atoms: P_28  and  O_30 
REMARK   21  A    between atoms: P_28  and  O_31 
REMARK   22  A    between atoms: O_32  and  P_33 
REMARK   23  A    between atoms: P_33  and  O_35 
REMARK   24  A    between atoms: P_33  and  O_36 


Number of Rotatable Bonds in Small Molecule =	24 torsions
Number of atoms in ligand:  48

Number of non-hydrogen atoms in ligand:  36

Number of vibrational degrees of freedom of ligand:  138


Number of torsional degrees of freedom = 24
Estimated loss of torsional free energy upon binding = +7.1592 kcal/mol


DPF> about 0.035 0.082 -0.065            # small molecule center

Small molecule center of rotation =	(+0.035, +0.082, -0.065)

DPF> tran0 random                         # initial coordinates/A or random

Initial translation =			(-9.771, -1.530, 9.183) Angstroms
DPF> quaternion0 random                   # initial orientation

Each run will begin with a new, random initial orientation.
Initial quaternion,  (x,y,z,w) =	( -0.878, -0.293, -0.039, 0.376 ),
DPF> dihe0 random                         # initial dihedrals (relative) or random

DPF> torsdof 24                            # torsional degrees of freedom

Number of torsional degrees of freedom = 24
Free energy coefficient for torsional degrees of freedom = 0.2983, the factory default value.

Estimated loss of torsional free energy upon binding = +7.1592 kcal/mol

DPF> rmstol 2.0                           # cluster_tolerance/A

Maximum RMS tolerance for conformational cluster analysis = 2.00 Angstroms
DPF> extnrg 1000.0                        # external grid energy

External grid energy (beyond grid map walls) = 1000.00

DPF> e0max 0.0 10000                      # max initial energy; max number of retries

Using user-specified maximum number of retries for simanneal initialization, 10000 retries.
If the simanneal initial energy is greater than e0max, 0.000,
then a new, random initial state will be created.

DPF> ga_pop_size 150                      # number of individuals in population

A population of 150 individuals will be used
DPF> ga_num_evals 25000000                # maximum number of energy evaluations

There will be at most 25000000 function evaluations used.
DPF> ga_num_generations 27000             # maximum number of generations

The GA will run for at most 27000 generations.
DPF> ga_elitism 1                         # number of top individuals to survive to next generation

The 1 best will be preserved each GA generation.
DPF> ga_mutation_rate 0.02                # rate of gene mutation

The mutation rate is 0.020000.
DPF> ga_crossover_rate 0.8                # rate of crossover

The crossover rate is 0.800000.
DPF> ga_window_size 10                    # 

The GA's selection window is 10 generations.
DPF> ga_cauchy_alpha 0.0                  # Alpha parameter of Cauchy distribution

The alpha parameter (for the Cauchy distribution) is being set to 0.000000.
DPF> ga_cauchy_beta 1.0                   # Beta parameter Cauchy distribution

The beta parameter (for the Cauchy distribution) is being set to 1.000000.
DPF> set_ga                               # set the above parameters for GA or LGA

DPF> sw_max_its 300                       # iterations of Solis & Wets local search

Solis & Wets algorithms will perform at most 300 iterations.
DPF> sw_max_succ 4                        # consecutive successes before changing rho

Solis & Wets algorithms expand rho every 4 in a row successes.
DPF> sw_max_fail 4                        # consecutive failures before changing rho

Solis & Wets algorithms contract rho every 4 in a row failures.
DPF> sw_rho 1.0                           # size of local search space to sample

rho is set to 1.000000.
DPF> sw_lb_rho 0.01                       # lower bound on rho

rho will never get smaller than 0.010000.
DPF> ls_search_freq 0.06                  # probability of performing local search on individual

Local search will be performed with frequency 0.060000.
DPF> set_psw1                             # set the above pseudo-Solis & Wets parameters

Creating a new Local Search object using the pseudo-Solis-Wets algorithm (pSW1) with the current settings.

DPF> unbound_model bound                  # state of unbound ligand

DPF> ga_run 100                           # do this many hybrid GA-LS runs

centering ligand on specified point: 0.035 0.082 -0.065
Furthest true ligand atom from "about" center is 6.234 Angstroms (maxrad).
Number of requested GA dockings = 100 runs
Unbound model to be used is 'same as bound' [AutoDock 4.2 default].

	BEGINNING GENETIC ALGORITHM DOCKING 1 of 100
Run: 1 Seed: 232920545 1386640176 [ Run 1 of 100 GA/GALS ]
Beginning LAMARCKIAN GENETIC ALGORITHM (LGA), with a maximum of 25000000 energy evaluations.

Final-Value: -21.031


	FINAL GENETIC ALGORITHM DOCKED STATE
	_______________________________________________


Detailed state:  trans 1.887 2.490 -14.992 quatxyzw 0.836215 0.455443 -0.302683 -0.041218 center 0.035 0.082 -0.065 ntor 24 141.7211 153.2908 57.0013 -140.5013 3.3953 -97.5832 8.5340 -139.8022 91.6545 65.2770 3.9664 -140.1096 -38.2851 -177.0376 -58.4732 -126.9137 95.9771 -65.4845 30.6054 -36.3507 173.4592 39.4865 2.2688 177.2215
State:	  1.887   2.490 -14.992   0.837  0.456 -0.303 -175.275    141.72  153.29   57.00 -140.50    3.40  -97.58    8.53 -139.80   91.65   65.28    3.97 -140.11  -38.29 -177.04  -58.47 -126.91   95.98  -65.48   30.61  -36.35  173.46   39.49    2.27  177.22

DOCKED: MODEL        1
DOCKED: USER    Run = 1
DOCKED: USER    DPF = D:/Protein_go_brrr/autodock/final/AncB/IHP/dock.dpf
DOCKED: USER  
DOCKED: USER    Estimated Free Energy of Binding    =   +0.81 kcal/mol  [=(1)+(2)+(3)-(4)]
DOCKED: USER    
DOCKED: USER    (1) Final Intermolecular Energy     =   -6.35 kcal/mol
DOCKED: USER        vdW + Hbond + desolv Energy     =   -6.15 kcal/mol
DOCKED: USER        Electrostatic Energy            =   -0.20 kcal/mol
DOCKED: USER    (2) Final Total Internal Energy     =  -14.68 kcal/mol
DOCKED: USER    (3) Torsional Free Energy           =   +7.16 kcal/mol
DOCKED: USER    (4) Unbound System's Energy  [=(2)] =  -14.68 kcal/mol
DOCKED: USER    
DOCKED: USER    
DOCKED: USER    NEWDPF move IHP_ideal_opt.pdbqt
DOCKED: USER    NEWDPF about 0.035000 0.082000 -0.065000
DOCKED: USER    NEWDPF tran0 1.887085 2.489612 -14.991963
DOCKED: USER    NEWDPF quaternion0 0.836215 0.455443 -0.302683 -0.041218
DOCKED: USER    NEWDPF axisangle0 0.836926 0.455831 -0.302940 -175.275385
DOCKED: USER    NEWDPF quat0 0.836926 0.455831 -0.302940 -175.275385
DOCKED: USER    NEWDPF dihe0 141.72 153.29 57.00 -140.50 3.40 -97.58 8.53 -139.80 91.65 65.28 3.97 -140.11 -38.29 -177.04 -58.47 -126.91 95.98 -65.48 30.61 -36.35 173.46 39.49 2.27 177.22 
DOCKED: USER  keepresnum = 1 
DOCKED: USER  
DOCKED: REMARK  24 active torsions:
DOCKED: REMARK  status: ('A' for Active; 'I' for Inactive)
DOCKED: REMARK    1  A    between atoms: C_1  and  O_7 
DOCKED: REMARK    2  A    between atoms: C_2  and  O_12 
DOCKED: REMARK    3  A    between atoms: C_3  and  O_17 
DOCKED: REMARK    4  A    between atoms: C_4  and  O_22 
DOCKED: REMARK    5  A    between atoms: C_5  and  O_27 
DOCKED: REMARK    6  A    between atoms: C_6  and  O_32 
DOCKED: REMARK    7  A    between atoms: O_7  and  P_8 
DOCKED: REMARK    8  A    between atoms: P_8  and  O_10 
DOCKED: REMARK    9  A    between atoms: P_8  and  O_11 
DOCKED: REMARK   10  A    between atoms: O_12  and  P_13 
DOCKED: REMARK   11  A    between atoms: P_13  and  O_15 
DOCKED: REMARK   12  A    between atoms: P_13  and  O_16 
DOCKED: REMARK   13  A    between atoms: O_17  and  P_18 
DOCKED: REMARK   14  A    between atoms: P_18  and  O_20 
DOCKED: REMARK   15  A    between atoms: P_18  and  O_21 
DOCKED: REMARK   16  A    between atoms: O_22  and  P_23 
DOCKED: REMARK   17  A    between atoms: P_23  and  O_25 
DOCKED: REMARK   18  A    between atoms: P_23  and  O_26 
DOCKED: REMARK   19  A    between atoms: O_27  and  P_28 
DOCKED: REMARK   20  A    between atoms: P_28  and  O_30 
DOCKED: REMARK   21  A    between atoms: P_28  and  O_31 
DOCKED: REMARK   22  A    between atoms: O_32  and  P_33 
DOCKED: REMARK   23  A    between atoms: P_33  and  O_35 
DOCKED: REMARK   24  A    between atoms: P_33  and  O_36 
DOCKED: USER                              x       y       z     vdW  Elec       q    Type
DOCKED: USER                           _______ _______ _______ _____ _____    ______ ____
DOCKED: ROOT
DOCKED: ATOM      1  C   UNL d   1       1.321   3.657 -16.133 -0.12 +0.13    +0.194 C 
DOCKED: ATOM      2  C   UNL d   1       0.360   3.332 -14.988 -0.17 +0.17    +0.194 C 
DOCKED: ATOM      3  C   UNL d   1       0.302   1.829 -14.706 -0.13 +0.16    +0.194 C 
DOCKED: ATOM      4  C   UNL d   1       1.678   1.202 -14.500 -0.17 +0.11    +0.194 C 
DOCKED: ATOM      5  C   UNL d   1       2.703   1.592 -15.557 -0.17 +0.09    +0.194 C 
DOCKED: ATOM      6  C   UNL d   1       2.718   3.087 -15.884 -0.04 +0.09    +0.194 C 
DOCKED: ENDROOT
DOCKED: BRANCH   1   7
DOCKED: ATOM      7  O   UNL d   1       1.450   5.078 -16.218 -0.13 -0.19    -0.278 OA
DOCKED: BRANCH   7   8
DOCKED: ATOM      8  P   UNL d   1       0.467   5.872 -17.195 -0.03 +0.34    +0.473 P 
DOCKED: ATOM      9  O   UNL d   1      -0.696   5.089 -17.693 -0.02 -0.17    -0.228 OA
DOCKED: BRANCH   8  10
DOCKED: ATOM     10  O   UNL d   1       0.043   7.160 -16.354 -0.07 -0.23    -0.303 OA
DOCKED: ATOM     11  H   UNL d   1       0.258   7.021 -15.413 +0.10 +0.18    +0.222 HD
DOCKED: ENDBRANCH   8  10
DOCKED: BRANCH   8  12
DOCKED: ATOM     12  O   UNL d   1       1.410   6.499 -18.310 -0.07 -0.23    -0.303 OA
DOCKED: ATOM     13  H   UNL d   1       1.319   6.058 -19.184 +0.04 +0.15    +0.222 HD
DOCKED: ENDBRANCH   8  12
DOCKED: ENDBRANCH   7   8
DOCKED: ENDBRANCH   1   7
DOCKED: BRANCH   2  14
DOCKED: ATOM     14  O   UNL d   1       0.804   4.002 -13.802 -0.76 -0.26    -0.278 OA
DOCKED: BRANCH  14  15
DOCKED: ATOM     15  P   UNL d   1       0.132   5.421 -13.487 -0.30 +0.50    +0.473 P 
DOCKED: ATOM     16  O   UNL d   1       1.057   6.593 -13.376 -0.50 -0.14    -0.228 OA
DOCKED: BRANCH  15  17
DOCKED: ATOM     17  O   UNL d   1      -0.955   5.599 -14.639 -0.56 -0.57    -0.303 OA
DOCKED: ATOM     18  H   UNL d   1      -0.619   5.267 -15.493 +0.07 +0.30    +0.222 HD
DOCKED: ENDBRANCH  15  17
DOCKED: BRANCH  15  19
DOCKED: ATOM     19  O   UNL d   1      -0.789   5.152 -12.218 -0.65 -0.39    -0.303 OA
DOCKED: ATOM     20  H   UNL d   1      -1.000   5.977 -11.744 +0.11 +0.21    +0.222 HD
DOCKED: ENDBRANCH  15  19
DOCKED: ENDBRANCH  14  15
DOCKED: ENDBRANCH   2  14
DOCKED: BRANCH   6  21
DOCKED: ATOM     21  O   UNL d   1       3.454   3.236 -17.096 -0.01 -0.12    -0.278 OA
DOCKED: BRANCH  21  22
DOCKED: ATOM     22  P   UNL d   1       2.821   2.737 -18.473 -0.04 +0.23    +0.473 P 
DOCKED: ATOM     23  O   UNL d   1       1.847   1.608 -18.432 -0.02 -0.10    -0.228 OA
DOCKED: BRANCH  22  24
DOCKED: ATOM     24  O   UNL d   1       2.246   4.093 -19.077 -0.04 -0.16    -0.303 OA
DOCKED: ATOM     25  H   UNL d   1       1.547   4.432 -18.462 +0.05 +0.13    +0.222 HD
DOCKED: ENDBRANCH  22  24
DOCKED: BRANCH  22  26
DOCKED: ATOM     26  O   UNL d   1       4.130   2.505 -19.368 -0.05 -0.15    -0.303 OA
DOCKED: ATOM     27  H   UNL d   1       4.455   1.592 -19.231 +0.05 +0.12    +0.222 HD
DOCKED: ENDBRANCH  22  26
DOCKED: ENDBRANCH  21  22
DOCKED: ENDBRANCH   6  21
DOCKED: BRANCH   3  28
DOCKED: ATOM     28  O   UNL d   1      -0.383   1.651 -13.473 -0.18 -0.27    -0.278 OA
DOCKED: BRANCH  28  29
DOCKED: ATOM     29  P   UNL d   1      -1.232   0.330 -13.207 -0.11 +0.57    +0.473 P 
DOCKED: ATOM     30  O   UNL d   1      -2.361   0.475 -12.254 -0.19 -0.29    -0.228 OA
DOCKED: BRANCH  29  31
DOCKED: ATOM     31  O   UNL d   1      -1.599  -0.073 -14.712 -0.39 -0.47    -0.303 OA
DOCKED: ATOM     32  H   UNL d   1      -0.762  -0.225 -15.209 +0.05 +0.25    +0.222 HD
DOCKED: ENDBRANCH  29  31
DOCKED: BRANCH  29  33
DOCKED: ATOM     33  O   UNL d   1      -0.100  -0.724 -12.828 -0.16 -0.27    -0.303 OA
DOCKED: ATOM     34  H   UNL d   1       0.316  -1.061 -13.658 +0.08 +0.19    +0.222 HD
DOCKED: ENDBRANCH  29  33
DOCKED: ENDBRANCH  28  29
DOCKED: ENDBRANCH   3  28
DOCKED: BRANCH   5  35
DOCKED: ATOM     35  O   UNL d   1       3.976   1.271 -15.000 -0.24 -0.09    -0.278 OA
DOCKED: BRANCH  35  36
DOCKED: ATOM     36  P   UNL d   1       5.054   0.472 -15.864 -0.18 +0.14    +0.473 P 
DOCKED: ATOM     37  O   UNL d   1       6.470   0.927 -15.708 -0.46 -0.06    -0.228 OA
DOCKED: BRANCH  36  38
DOCKED: ATOM     38  O   UNL d   1       4.794  -1.030 -15.401 -0.14 -0.05    -0.303 OA
DOCKED: ATOM     39  H   UNL d   1       3.888  -1.099 -15.029 +0.09 +0.05    +0.222 HD
DOCKED: ENDBRANCH  36  38
DOCKED: BRANCH  36  40
DOCKED: ATOM     40  O   UNL d   1       4.432   0.535 -17.326 -0.55 -0.15    -0.303 OA
DOCKED: ATOM     41  H   UNL d   1       3.820   1.298 -17.429 +0.07 +0.12    +0.222 HD
DOCKED: ENDBRANCH  36  40
DOCKED: ENDBRANCH  35  36
DOCKED: ENDBRANCH   5  35
DOCKED: BRANCH   4  42
DOCKED: ATOM     42  O   UNL d   1       1.505  -0.216 -14.584 -0.09 -0.16    -0.278 OA
DOCKED: BRANCH  42  43
DOCKED: ATOM     43  P   UNL d   1       1.069  -0.858 -15.978 -0.04 +0.28    +0.473 P 
DOCKED: ATOM     44  O   UNL d   1       0.436   0.043 -16.981 -0.02 -0.14    -0.228 OA
DOCKED: BRANCH  43  45
DOCKED: ATOM     45  O   UNL d   1       2.412  -1.549 -16.479 -0.06 -0.12    -0.303 OA
DOCKED: ATOM     46  H   UNL d   1       3.087  -0.885 -16.723 +0.06 +0.08    +0.222 HD
DOCKED: ENDBRANCH  43  45
DOCKED: BRANCH  43  47
DOCKED: ATOM     47  O   UNL d   1       0.194  -2.127 -15.539 -0.13 -0.27    -0.303 OA
DOCKED: ATOM     48  H   UNL d   1      -0.351  -1.890 -14.760 +0.06 +0.28    +0.222 HD
DOCKED: ENDBRANCH  43  47
DOCKED: ENDBRANCH  42  43
DOCKED: ENDBRANCH   4  42
DOCKED: TORSDOF 24
DOCKED: TER
DOCKED: ENDMDL
________________________________________________________________________________


	BEGINNING GENETIC ALGORITHM DOCKING 2 of 100
Run: 2 Seed: 695409025 1006343634 [ Run 2 of 100 GA/GALS ]
Beginning LAMARCKIAN GENETIC ALGORITHM (LGA), with a maximum of 25000000 energy evaluations.

Final-Value: -18.054


	FINAL GENETIC ALGORITHM DOCKED STATE
	_______________________________________________


Detailed state:  trans -16.641 -9.452 15.328 quatxyzw -0.033882 0.829488 -0.062104 0.554026 center 0.035 0.082 -0.065 ntor 24 119.4746 110.1514 108.7682 77.0429 132.3217 92.9967 -103.8411 15.3374 20.4612 -26.8410 30.4227 -89.3979 149.3987 109.8166 94.4220 178.0493 -169.9240 -68.5195 19.1192 -7.3216 -44.3301 19.3046 9.5884 -168.3325
State:	-16.641  -9.452  15.328  -0.041  0.996 -0.075 112.713    119.47  110.15  108.77   77.04  132.32   93.00 -103.84   15.34   20.46  -26.84   30.42  -89.40  149.40  109.82   94.42  178.05 -169.92  -68.52   19.12   -7.32  -44.33   19.30    9.59 -168.33

DOCKED: MODEL        2
DOCKED: USER    Run = 2
DOCKED: USER    DPF = D:/Protein_go_brrr/autodock/final/AncB/IHP/dock.dpf
DOCKED: USER  
DOCKED: USER    Estimated Free Energy of Binding    =   +3.24 kcal/mol  [=(1)+(2)+(3)-(4)]
DOCKED: USER    
DOCKED: USER    (1) Final Intermolecular Energy     =   -3.92 kcal/mol
DOCKED: USER        vdW + Hbond + desolv Energy     =   -3.77 kcal/mol
DOCKED: USER        Electrostatic Energy            =   -0.15 kcal/mol
DOCKED: USER    (2) Final Total Internal Energy     =  -14.13 kcal/mol
DOCKED: USER    (3) Torsional Free Energy           =   +7.16 kcal/mol
DOCKED: USER    (4) Unbound System's Energy  [=(2)] =  -14.13 kcal/mol
DOCKED: USER    
DOCKED: USER    
DOCKED: USER    NEWDPF move IHP_ideal_opt.pdbqt
DOCKED: USER    NEWDPF about 0.035000 0.082000 -0.065000
DOCKED: USER    NEWDPF tran0 -16.640951 -9.451917 15.328394
DOCKED: USER    NEWDPF quaternion0 -0.033882 0.829488 -0.062104 0.554026
DOCKED: USER    NEWDPF axisangle0 -0.040700 0.996383 -0.074600 112.712684
DOCKED: USER    NEWDPF quat0 -0.040700 0.996383 -0.074600 112.712684
DOCKED: USER    NEWDPF dihe0 119.47 110.15 108.77 77.04 132.32 93.00 -103.84 15.34 20.46 -26.84 30.42 -89.40 149.40 109.82 94.42 178.05 -169.92 -68.52 19.12 -7.32 -44.33 19.30 9.59 -168.33 
DOCKED: USER  keepresnum = 1 
DOCKED: USER  
DOCKED: REMARK  24 active torsions:
DOCKED: REMARK  status: ('A' for Active; 'I' for Inactive)
DOCKED: REMARK    1  A    between atoms: C_1  and  O_7 
DOCKED: REMARK    2  A    between atoms: C_2  and  O_12 
DOCKED: REMARK    3  A    between atoms: C_3  and  O_17 
DOCKED: REMARK    4  A    between atoms: C_4  and  O_22 
DOCKED: REMARK    5  A    between atoms: C_5  and  O_27 
DOCKED: REMARK    6  A    between atoms: C_6  and  O_32 
DOCKED: REMARK    7  A    between atoms: O_7  and  P_8 
DOCKED: REMARK    8  A    between atoms: P_8  and  O_10 
DOCKED: REMARK    9  A    between atoms: P_8  and  O_11 
DOCKED: REMARK   10  A    between atoms: O_12  and  P_13 
DOCKED: REMARK   11  A    between atoms: P_13  and  O_15 
DOCKED: REMARK   12  A    between atoms: P_13  and  O_16 
DOCKED: REMARK   13  A    between atoms: O_17  and  P_18 
DOCKED: REMARK   14  A    between atoms: P_18  and  O_20 
DOCKED: REMARK   15  A    between atoms: P_18  and  O_21 
DOCKED: REMARK   16  A    between atoms: O_22  and  P_23 
DOCKED: REMARK   17  A    between atoms: P_23  and  O_25 
DOCKED: REMARK   18  A    between atoms: P_23  and  O_26 
DOCKED: REMARK   19  A    between atoms: O_27  and  P_28 
DOCKED: REMARK   20  A    between atoms: P_28  and  O_30 
DOCKED: REMARK   21  A    between atoms: P_28  and  O_31 
DOCKED: REMARK   22  A    between atoms: O_32  and  P_33 
DOCKED: REMARK   23  A    between atoms: P_33  and  O_35 
DOCKED: REMARK   24  A    between atoms: P_33  and  O_36 
DOCKED: USER                              x       y       z     vdW  Elec       q    Type
DOCKED: USER                           _______ _______ _______ _____ _____    ______ ____
DOCKED: ROOT
DOCKED: ATOM      1  C   UNL d   1     -17.735 -10.426  16.244 -0.01 +0.01    +0.194 C 
DOCKED: ATOM      2  C   UNL d   1     -16.817 -11.186  15.284 -0.05 +0.02    +0.194 C 
DOCKED: ATOM      3  C   UNL d   1     -16.710 -10.485  13.929 -0.09 +0.02    +0.194 C 
DOCKED: ATOM      4  C   UNL d   1     -16.331  -9.010  14.043 -0.14 +0.01    +0.194 C 
DOCKED: ATOM      5  C   UNL d   1     -17.145  -8.238  15.074 -0.10 +0.01    +0.194 C 
DOCKED: ATOM      6  C   UNL d   1     -17.304  -8.968  16.410 -0.05 +0.01    +0.194 C 
DOCKED: ENDROOT
DOCKED: BRANCH   1   7
DOCKED: ATOM      7  O   UNL d   1     -17.645 -11.045  17.530 -0.00 -0.01    -0.278 OA
DOCKED: BRANCH   7   8
DOCKED: ATOM      8  P   UNL d   1     -18.844 -11.989  18.003 +0.00 +0.02    +0.473 P 
DOCKED: ATOM      9  O   UNL d   1     -18.941 -12.198  19.473 +0.00 -0.01    -0.228 OA
DOCKED: BRANCH   8  10
DOCKED: ATOM     10  O   UNL d   1     -20.144 -11.305  17.379 +0.00 -0.02    -0.303 OA
DOCKED: ATOM     11  H   UNL d   1     -20.061 -10.335  17.434 +0.00 +0.01    +0.222 HD
DOCKED: ENDBRANCH   8  10
DOCKED: BRANCH   8  12
DOCKED: ATOM     12  O   UNL d   1     -18.706 -13.305  17.122 +0.00 -0.02    -0.303 OA
DOCKED: ATOM     13  H   UNL d   1     -17.880 -13.806  17.305 +0.01 +0.02    +0.222 HD
DOCKED: ENDBRANCH   8  12
DOCKED: ENDBRANCH   7   8
DOCKED: ENDBRANCH   1   7
DOCKED: BRANCH   2  14
DOCKED: ATOM     14  O   UNL d   1     -15.507 -11.272  15.859 -0.08 -0.03    -0.278 OA
DOCKED: BRANCH  14  15
DOCKED: ATOM     15  P   UNL d   1     -14.892 -12.741  16.023 -0.09 +0.05    +0.473 P 
DOCKED: ATOM     16  O   UNL d   1     -13.423 -12.828  16.297 -0.16 -0.03    -0.228 OA
DOCKED: BRANCH  15  17
DOCKED: ATOM     17  O   UNL d   1     -15.775 -13.404  17.172 -0.02 -0.02    -0.303 OA
DOCKED: ATOM     18  H   UNL d   1     -16.575 -12.874  17.351 +0.02 +0.02    +0.222 HD
DOCKED: ENDBRANCH  15  17
DOCKED: BRANCH  15  19
DOCKED: ATOM     19  O   UNL d   1     -15.398 -13.529  14.737 -0.07 -0.04    -0.303 OA
DOCKED: ATOM     20  H   UNL d   1     -15.706 -12.921  14.040 +0.04 +0.06    +0.222 HD
DOCKED: ENDBRANCH  15  19
DOCKED: ENDBRANCH  14  15
DOCKED: ENDBRANCH   2  14
DOCKED: BRANCH   6  21
DOCKED: ATOM     21  O   UNL d   1     -18.346  -8.303  17.121 -0.01 -0.01    -0.278 OA
DOCKED: BRANCH  21  22
DOCKED: ATOM     22  P   UNL d   1     -18.282  -8.208  18.712 +0.01 -0.00    +0.473 P 
DOCKED: ATOM     23  O   UNL d   1     -18.356  -6.858  19.341 -0.02 +0.01    -0.228 OA
DOCKED: BRANCH  22  24
DOCKED: ATOM     24  O   UNL d   1     -19.441  -9.210  19.145 -0.00 -0.01    -0.303 OA
DOCKED: ATOM     25  H   UNL d   1     -19.172 -10.126  18.879 +0.00 +0.01    +0.222 HD
DOCKED: ENDBRANCH  22  24
DOCKED: BRANCH  22  26
DOCKED: ATOM     26  O   UNL d   1     -16.966  -9.064  19.037 -0.00 +0.00    -0.303 OA
DOCKED: ATOM     27  H   UNL d   1     -17.191 -10.017  19.028 +0.02 +0.00    +0.222 HD
DOCKED: ENDBRANCH  22  26
DOCKED: ENDBRANCH  21  22
DOCKED: ENDBRANCH   6  21
DOCKED: BRANCH   3  28
DOCKED: ATOM     28  O   UNL d   1     -15.642 -11.094  13.214 -0.63 -0.06    -0.278 OA
DOCKED: BRANCH  28  29
DOCKED: ATOM     29  P   UNL d   1     -15.857 -11.591  11.717 -0.03 +0.06    +0.473 P 
DOCKED: ATOM     30  O   UNL d   1     -14.640 -11.600  10.864 -0.45 +0.01    -0.228 OA
DOCKED: BRANCH  29  31
DOCKED: ATOM     31  O   UNL d   1     -16.563 -13.001  11.989 -0.26 -0.05    -0.303 OA
DOCKED: ATOM     32  H   UNL d   1     -16.008 -13.514  12.621 +0.05 +0.06    +0.222 HD
DOCKED: ENDBRANCH  29  31
DOCKED: BRANCH  29  33
DOCKED: ATOM     33  O   UNL d   1     -17.068 -10.679  11.232 -0.08 +0.01    -0.303 OA
DOCKED: ATOM     34  H   UNL d   1     -16.735  -9.762  11.069 +0.08 -0.04    +0.222 HD
DOCKED: ENDBRANCH  29  33
DOCKED: ENDBRANCH  28  29
DOCKED: ENDBRANCH   3  28
DOCKED: BRANCH   5  35
DOCKED: ATOM     35  O   UNL d   1     -16.410  -7.045  15.333 -0.21 +0.01    -0.278 OA
DOCKED: BRANCH  35  36
DOCKED: ATOM     36  P   UNL d   1     -17.170  -5.655  15.520 -0.15 +0.05    +0.473 P 
DOCKED: ATOM     37  O   UNL d   1     -16.714  -4.545  14.628 -0.32 -0.05    -0.228 OA
DOCKED: BRANCH  36  38
DOCKED: ATOM     38  O   UNL d   1     -18.689  -6.084  15.306 -0.04 -0.05    -0.303 OA
DOCKED: ATOM     39  H   UNL d   1     -18.761  -6.612  14.482 +0.05 +0.05    +0.222 HD
DOCKED: ENDBRANCH  36  38
DOCKED: BRANCH  36  40
DOCKED: ATOM     40  O   UNL d   1     -17.058  -5.414  17.088 -0.13 +0.00    -0.303 OA
DOCKED: ATOM     41  H   UNL d   1     -17.594  -6.062  17.596 +0.05 -0.00    +0.222 HD
DOCKED: ENDBRANCH  36  40
DOCKED: ENDBRANCH  35  36
DOCKED: ENDBRANCH   5  35
DOCKED: BRANCH   4  42
DOCKED: ATOM     42  O   UNL d   1     -16.594  -8.414  12.768 -0.19 -0.08    -0.278 OA
DOCKED: BRANCH  42  43
DOCKED: ATOM     43  P   UNL d   1     -18.090  -7.998  12.405 -0.04 +0.25    +0.473 P 
DOCKED: ATOM     44  O   UNL d   1     -19.191  -8.686  13.135 -0.02 -0.05    -0.228 OA
DOCKED: BRANCH  43  45
DOCKED: ATOM     45  O   UNL d   1     -18.069  -6.418  12.597 -0.60 -0.39    -0.303 OA
DOCKED: ATOM     46  H   UNL d   1     -17.581  -6.163  13.406 +0.06 +0.16    +0.222 HD
DOCKED: ENDBRANCH  43  45
DOCKED: BRANCH  43  47
DOCKED: ATOM     47  O   UNL d   1     -18.130  -8.131  10.808 -0.16 -0.14    -0.303 OA
DOCKED: ATOM     48  H   UNL d   1     -18.397  -9.042  10.567 +0.05 +0.01    +0.222 HD
DOCKED: ENDBRANCH  43  47
DOCKED: ENDBRANCH  42  43
DOCKED: ENDBRANCH   4  42
DOCKED: TORSDOF 24
DOCKED: TER
DOCKED: ENDMDL
________________________________________________________________________________


	BEGINNING GENETIC ALGORITHM DOCKING 3 of 100
Run: 3 Seed: 1446266890 1500490711 [ Run 3 of 100 GA/GALS ]
Beginning LAMARCKIAN GENETIC ALGORITHM (LGA), with a maximum of 25000000 energy evaluations.

Final-Value: -16.353


	FINAL GENETIC ALGORITHM DOCKED STATE
	_______________________________________________


Detailed state:  trans 5.082 11.726 15.290 quatxyzw 0.037867 -0.645340 0.051276 0.761231 center 0.035 0.082 -0.065 ntor 24 -168.4307 -12.3068 78.2077 97.1840 -45.9031 133.1755 -12.9598 -73.8468 -90.7032 67.4790 122.6443 134.7671 79.4676 -138.4587 -31.8874 -47.3900 16.0845 -119.6818 9.0595 -0.7554 173.2634 7.2794 79.4915 -4.5594
State:	  5.082  11.726  15.290   0.058 -0.995  0.079 80.854   -168.43  -12.31   78.21   97.18  -45.90  133.18  -12.96  -73.85  -90.70   67.48  122.64  134.77   79.47 -138.46  -31.89  -47.39   16.08 -119.68    9.06   -0.76  173.26    7.28   79.49   -4.56

DOCKED: MODEL        3
DOCKED: USER    Run = 3
DOCKED: USER    DPF = D:/Protein_go_brrr/autodock/final/AncB/IHP/dock.dpf
DOCKED: USER  
DOCKED: USER    Estimated Free Energy of Binding    =   +3.29 kcal/mol  [=(1)+(2)+(3)-(4)]
DOCKED: USER    
DOCKED: USER    (1) Final Intermolecular Energy     =   -3.87 kcal/mol
DOCKED: USER        vdW + Hbond + desolv Energy     =   -3.85 kcal/mol
DOCKED: USER        Electrostatic Energy            =   -0.02 kcal/mol
DOCKED: USER    (2) Final Total Internal Energy     =  -12.48 kcal/mol
DOCKED: USER    (3) Torsional Free Energy           =   +7.16 kcal/mol
DOCKED: USER    (4) Unbound System's Energy  [=(2)] =  -12.48 kcal/mol
DOCKED: USER    
DOCKED: USER    
DOCKED: USER    NEWDPF move IHP_ideal_opt.pdbqt
DOCKED: USER    NEWDPF about 0.035000 0.082000 -0.065000
DOCKED: USER    NEWDPF tran0 5.082077 11.726157 15.289881
DOCKED: USER    NEWDPF quaternion0 0.037867 -0.645340 0.051276 0.761231
DOCKED: USER    NEWDPF axisangle0 0.058393 -0.995157 0.079071 80.854323
DOCKED: USER    NEWDPF quat0 0.058393 -0.995157 0.079071 80.854323
DOCKED: USER    NEWDPF dihe0 -168.43 -12.31 78.21 97.18 -45.90 133.18 -12.96 -73.85 -90.70 67.48 122.64 134.77 79.47 -138.46 -31.89 -47.39 16.08 -119.68 9.06 -0.76 173.26 7.28 79.49 -4.56 
DOCKED: USER  keepresnum = 1 
DOCKED: USER  
DOCKED: REMARK  24 active torsions:
DOCKED: REMARK  status: ('A' for Active; 'I' for Inactive)
DOCKED: REMARK    1  A    between atoms: C_1  and  O_7 
DOCKED: REMARK    2  A    between atoms: C_2  and  O_12 
DOCKED: REMARK    3  A    between atoms: C_3  and  O_17 
DOCKED: REMARK    4  A    between atoms: C_4  and  O_22 
DOCKED: REMARK    5  A    between atoms: C_5  and  O_27 
DOCKED: REMARK    6  A    between atoms: C_6  and  O_32 
DOCKED: REMARK    7  A    between atoms: O_7  and  P_8 
DOCKED: REMARK    8  A    between atoms: P_8  and  O_10 
DOCKED: REMARK    9  A    between atoms: P_8  and  O_11 
DOCKED: REMARK   10  A    between atoms: O_12  and  P_13 
DOCKED: REMARK   11  A    between atoms: P_13  and  O_15 
DOCKED: REMARK   12  A    between atoms: P_13  and  O_16 
DOCKED: REMARK   13  A    between atoms: O_17  and  P_18 
DOCKED: REMARK   14  A    between atoms: P_18  and  O_20 
DOCKED: REMARK   15  A    between atoms: P_18  and  O_21 
DOCKED: REMARK   16  A    between atoms: O_22  and  P_23 
DOCKED: REMARK   17  A    between atoms: P_23  and  O_25 
DOCKED: REMARK   18  A    between atoms: P_23  and  O_26 
DOCKED: REMARK   19  A    between atoms: O_27  and  P_28 
DOCKED: REMARK   20  A    between atoms: P_28  and  O_30 
DOCKED: REMARK   21  A    between atoms: P_28  and  O_31 
DOCKED: REMARK   22  A    between atoms: O_32  and  P_33 
DOCKED: REMARK   23  A    between atoms: P_33  and  O_35 
DOCKED: REMARK   24  A    between atoms: P_33  and  O_36 
DOCKED: USER                              x       y       z     vdW  Elec       q    Type
DOCKED: USER                           _______ _______ _______ _____ _____    ______ ____
DOCKED: ROOT
DOCKED: ATOM      1  C   UNL d   1       6.039  10.680  14.304 -0.15 -0.02    +0.194 C 
DOCKED: ATOM      2  C   UNL d   1       5.450  10.044  15.564 -0.13 -0.02    +0.194 C 
DOCKED: ATOM      3  C   UNL d   1       5.576  10.968  16.777 -0.08 -0.01    +0.194 C 
DOCKED: ATOM      4  C   UNL d   1       5.025  12.369  16.525 -0.12 -0.01    +0.194 C 
DOCKED: ATOM      5  C   UNL d   1       5.497  12.997  15.220 -0.11 -0.01    +0.194 C 
DOCKED: ATOM      6  C   UNL d   1       5.428  12.052  14.018 -0.20 -0.02    +0.194 C 
DOCKED: ENDROOT
DOCKED: BRANCH   1   7
DOCKED: ATOM      7  O   UNL d   1       5.729   9.836  13.192 -0.21 +0.02    -0.278 OA
DOCKED: BRANCH   7   8
DOCKED: ATOM      8  P   UNL d   1       6.930   9.093  12.445 -0.14 +0.00    +0.473 P 
DOCKED: ATOM      9  O   UNL d   1       6.727   7.636  12.219 -0.20 -0.01    -0.228 OA
DOCKED: BRANCH   8  10
DOCKED: ATOM     10  O   UNL d   1       7.114   9.919  11.092 -0.21 -0.01    -0.303 OA
DOCKED: ATOM     11  H   UNL d   1       6.917  10.860  11.255 +0.07 +0.01    +0.222 HD
DOCKED: ENDBRANCH   8  10
DOCKED: BRANCH   8  12
DOCKED: ATOM     12  O   UNL d   1       8.234   9.493  13.259 -0.03 -0.01    -0.303 OA
DOCKED: ATOM     13  H   UNL d   1       8.375  10.466  13.308 +0.04 +0.00    +0.222 HD
DOCKED: ENDBRANCH   8  12
DOCKED: ENDBRANCH   7   8
DOCKED: ENDBRANCH   1   7
DOCKED: BRANCH   2  14
DOCKED: ATOM     14  O   UNL d   1       4.061   9.769  15.342 -0.25 +0.06    -0.278 OA
DOCKED: BRANCH  14  15
DOCKED: ATOM     15  P   UNL d   1       3.553   8.298  15.720 -0.23 -0.12    +0.473 P 
DOCKED: ATOM     16  O   UNL d   1       3.770   7.228  14.696 -0.25 +0.04    -0.228 OA
DOCKED: BRANCH  15  17
DOCKED: ATOM     17  O   UNL d   1       4.276   7.982  17.105 -0.08 +0.06    -0.303 OA
DOCKED: ATOM     18  H   UNL d   1       5.031   8.584  17.252 +0.07 -0.03    +0.222 HD
DOCKED: ENDBRANCH  15  17
DOCKED: BRANCH  15  19
DOCKED: ATOM     19  O   UNL d   1       2.047   8.505  16.187 -0.29 +0.17    -0.303 OA
DOCKED: ATOM     20  H   UNL d   1       1.595   9.184  15.653 -0.37 -0.18    +0.222 HD
DOCKED: ENDBRANCH  15  19
DOCKED: ENDBRANCH  14  15
DOCKED: ENDBRANCH   2  14
DOCKED: BRANCH   6  21
DOCKED: ATOM     21  O   UNL d   1       6.204  12.648  12.981 -0.14 +0.02    -0.278 OA
DOCKED: BRANCH  21  22
DOCKED: ATOM     22  P   UNL d   1       7.794  12.699  13.111 -0.02 -0.00    +0.473 P 
DOCKED: ATOM     23  O   UNL d   1       8.418  12.148  14.349 -0.01 +0.00    -0.228 OA
DOCKED: BRANCH  22  24
DOCKED: ATOM     24  O   UNL d   1       8.253  11.993  11.761 -0.04 -0.01    -0.303 OA
DOCKED: ATOM     25  H   UNL d   1       8.672  11.126  11.994 +0.04 +0.01    +0.222 HD
DOCKED: ENDBRANCH  22  24
DOCKED: BRANCH  22  26
DOCKED: ATOM     26  O   UNL d   1       8.096  14.242  12.798 -0.01 +0.00    -0.303 OA
DOCKED: ATOM     27  H   UNL d   1       7.526  14.538  12.059 +0.03 -0.01    +0.222 HD
DOCKED: ENDBRANCH  22  26
DOCKED: ENDBRANCH  21  22
DOCKED: ENDBRANCH   6  21
DOCKED: BRANCH   3  28
DOCKED: ATOM     28  O   UNL d   1       4.769  10.425  17.814 -0.08 +0.03    -0.278 OA
DOCKED: BRANCH  28  29
DOCKED: ATOM     29  P   UNL d   1       5.430   9.954  19.184 -0.01 -0.03    +0.473 P 
DOCKED: ATOM     30  O   UNL d   1       6.209   8.690  19.119 -0.01 +0.02    -0.228 OA
DOCKED: BRANCH  29  31
DOCKED: ATOM     31  O   UNL d   1       6.232  11.281  19.579 -0.01 +0.01    -0.303 OA
DOCKED: ATOM     32  H   UNL d   1       5.681  12.063  19.343 +0.02 -0.01    +0.222 HD
DOCKED: ENDBRANCH  29  31
DOCKED: BRANCH  29  33
DOCKED: ATOM     33  O   UNL d   1       4.189   9.983  20.182 -0.04 +0.03    -0.303 OA
DOCKED: ATOM     34  H   UNL d   1       3.453  10.493  19.763 +0.05 -0.02    +0.222 HD
DOCKED: ENDBRANCH  29  33
DOCKED: ENDBRANCH  28  29
DOCKED: ENDBRANCH   3  28
DOCKED: BRANCH   5  35
DOCKED: ATOM     35  O   UNL d   1       4.598  14.073  14.961 -0.11 +0.01    -0.278 OA
DOCKED: BRANCH  35  36
DOCKED: ATOM     36  P   UNL d   1       4.276  14.508  13.460 -0.13 -0.07    +0.473 P 
DOCKED: ATOM     37  O   UNL d   1       3.656  13.452  12.601 -0.10 +0.09    -0.228 OA
DOCKED: BRANCH  36  38
DOCKED: ATOM     38  O   UNL d   1       3.360  15.792  13.682 -0.12 +0.05    -0.303 OA
DOCKED: ATOM     39  H   UNL d   1       2.852  15.970  12.862 +0.04 -0.06    +0.222 HD
DOCKED: ENDBRANCH  36  38
DOCKED: BRANCH  36  40
DOCKED: ATOM     40  O   UNL d   1       5.666  15.109  12.975 -0.06 +0.03    -0.303 OA
DOCKED: ATOM     41  H   UNL d   1       6.422  14.725  13.473 +0.04 -0.01    +0.222 HD
DOCKED: ENDBRANCH  36  40
DOCKED: ENDBRANCH  35  36
DOCKED: ENDBRANCH   5  35
DOCKED: BRANCH   4  42
DOCKED: ATOM     42  O   UNL d   1       5.503  13.200  17.589 -0.04 +0.01    -0.278 OA
DOCKED: BRANCH  42  43
DOCKED: ATOM     43  P   UNL d   1       4.449  13.840  18.600 -0.09 -0.01    +0.473 P 
DOCKED: ATOM     44  O   UNL d   1       3.622  14.975  18.103 -0.12 -0.00    -0.228 OA
DOCKED: BRANCH  43  45
DOCKED: ATOM     45  O   UNL d   1       3.604  12.576  19.072 -0.13 +0.01    -0.303 OA
DOCKED: ATOM     46  H   UNL d   1       4.186  11.844  19.357 +0.04 -0.01    +0.222 HD
DOCKED: ENDBRANCH  43  45
DOCKED: BRANCH  43  47
DOCKED: ATOM     47  O   UNL d   1       5.331  14.147  19.903 -0.02 +0.01    -0.303 OA
DOCKED: ATOM     48  H   UNL d   1       5.884  13.365  20.110 +0.02 -0.01    +0.222 HD
DOCKED: ENDBRANCH  43  47
DOCKED: ENDBRANCH  42  43
DOCKED: ENDBRANCH   4  42
DOCKED: TORSDOF 24
DOCKED: TER
DOCKED: ENDMDL
________________________________________________________________________________


	BEGINNING GENETIC ALGORITHM DOCKING 4 of 100
Run: 4 Seed: 306833657 2111867753 [ Run 4 of 100 GA/GALS ]
Beginning LAMARCKIAN GENETIC ALGORITHM (LGA), with a maximum of 25000000 energy evaluations.

Final-Value: -18.213


	FINAL GENETIC ALGORITHM DOCKED STATE
	_______________________________________________


Detailed state:  trans -1.324 5.530 -16.979 quatxyzw -0.614839 -0.379068 -0.674549 0.152525 center 0.035 0.082 -0.065 ntor 24 -161.4816 -22.0484 49.5882 76.4275 42.1246 33.2248 -90.2046 28.1183 63.3359 94.4641 4.1462 168.2854 25.8196 132.1731 -55.1156 8.7632 114.5275 158.5324 -135.6620 -21.2504 179.8063 -8.5646 -6.5988 -15.7270
State:	 -1.324   5.530 -16.979  -0.622 -0.384 -0.683 162.453   -161.48  -22.05   49.59   76.43   42.12   33.22  -90.20   28.12   63.34   94.46    4.15  168.29   25.82  132.17  -55.12    8.76  114.53  158.53 -135.66  -21.25  179.81   -8.56   -6.60  -15.73

DOCKED: MODEL        4
DOCKED: USER    Run = 4
DOCKED: USER    DPF = D:/Protein_go_brrr/autodock/final/AncB/IHP/dock.dpf
DOCKED: USER  
DOCKED: USER    Estimated Free Energy of Binding    =   +2.72 kcal/mol  [=(1)+(2)+(3)-(4)]
DOCKED: USER    
DOCKED: USER    (1) Final Intermolecular Energy     =   -4.44 kcal/mol
DOCKED: USER        vdW + Hbond + desolv Energy     =   -4.18 kcal/mol
DOCKED: USER        Electrostatic Energy            =   -0.25 kcal/mol
DOCKED: USER    (2) Final Total Internal Energy     =  -13.78 kcal/mol
DOCKED: USER    (3) Torsional Free Energy           =   +7.16 kcal/mol
DOCKED: USER    (4) Unbound System's Energy  [=(2)] =  -13.78 kcal/mol
DOCKED: USER    
DOCKED: USER    
DOCKED: USER    NEWDPF move IHP_ideal_opt.pdbqt
DOCKED: USER    NEWDPF about 0.035000 0.082000 -0.065000
DOCKED: USER    NEWDPF tran0 -1.323980 5.530193 -16.978604
DOCKED: USER    NEWDPF quaternion0 -0.614839 -0.379068 -0.674549 0.152525
DOCKED: USER    NEWDPF axisangle0 -0.622119 -0.383556 -0.682535 162.453426
DOCKED: USER    NEWDPF quat0 -0.622119 -0.383556 -0.682535 162.453426
DOCKED: USER    NEWDPF dihe0 -161.48 -22.05 49.59 76.43 42.12 33.22 -90.20 28.12 63.34 94.46 4.15 168.29 25.82 132.17 -55.12 8.76 114.53 158.53 -135.66 -21.25 179.81 -8.56 -6.60 -15.73 
DOCKED: USER  keepresnum = 1 
DOCKED: USER  
DOCKED: REMARK  24 active torsions:
DOCKED: REMARK  status: ('A' for Active; 'I' for Inactive)
DOCKED: REMARK    1  A    between atoms: C_1  and  O_7 
DOCKED: REMARK    2  A    between atoms: C_2  and  O_12 
DOCKED: REMARK    3  A    between atoms: C_3  and  O_17 
DOCKED: REMARK    4  A    between atoms: C_4  and  O_22 
DOCKED: REMARK    5  A    between atoms: C_5  and  O_27 
DOCKED: REMARK    6  A    between atoms: C_6  and  O_32 
DOCKED: REMARK    7  A    between atoms: O_7  and  P_8 
DOCKED: REMARK    8  A    between atoms: P_8  and  O_10 
DOCKED: REMARK    9  A    between atoms: P_8  and  O_11 
DOCKED: REMARK   10  A    between atoms: O_12  and  P_13 
DOCKED: REMARK   11  A    between atoms: P_13  and  O_15 
DOCKED: REMARK   12  A    between atoms: P_13  and  O_16 
DOCKED: REMARK   13  A    between atoms: O_17  and  P_18 
DOCKED: REMARK   14  A    between atoms: P_18  and  O_20 
DOCKED: REMARK   15  A    between atoms: P_18  and  O_21 
DOCKED: REMARK   16  A    between atoms: O_22  and  P_23 
DOCKED: REMARK   17  A    between atoms: P_23  and  O_25 
DOCKED: REMARK   18  A    between atoms: P_23  and  O_26 
DOCKED: REMARK   19  A    between atoms: O_27  and  P_28 
DOCKED: REMARK   20  A    between atoms: P_28  and  O_30 
DOCKED: REMARK   21  A    between atoms: P_28  and  O_31 
DOCKED: REMARK   22  A    between atoms: O_32  and  P_33 
DOCKED: REMARK   23  A    between atoms: P_33  and  O_35 
DOCKED: REMARK   24  A    between atoms: P_33  and  O_36 
DOCKED: USER                              x       y       z     vdW  Elec       q    Type
DOCKED: USER                           _______ _______ _______ _____ _____    ______ ____
DOCKED: ROOT
DOCKED: ATOM      1  C   UNL d   1      -1.055   7.220 -16.739 -0.06 +0.16    +0.194 C 
DOCKED: ATOM      2  C   UNL d   1      -1.367   6.797 -18.176 -0.01 +0.13    +0.194 C 
DOCKED: ATOM      3  C   UNL d   1      -0.614   5.524 -18.568 -0.01 +0.12    +0.194 C 
DOCKED: ATOM      4  C   UNL d   1      -0.808   4.381 -17.575 -0.02 +0.15    +0.194 C 
DOCKED: ATOM      5  C   UNL d   1      -0.620   4.785 -16.119 -0.09 +0.22    +0.194 C 
DOCKED: ATOM      6  C   UNL d   1      -1.322   6.091 -15.742 -0.04 +0.28    +0.194 C 
DOCKED: ENDROOT
DOCKED: BRANCH   1   7
DOCKED: ATOM      7  O   UNL d   1      -1.920   8.305 -16.396 -0.04 -0.20    -0.278 OA
DOCKED: BRANCH   7   8
DOCKED: ATOM      8  P   UNL d   1      -3.197   7.999 -15.486 -0.05 +0.50    +0.473 P 
DOCKED: ATOM      9  O   UNL d   1      -2.911   7.824 -14.036 -0.17 -0.29    -0.228 OA
DOCKED: BRANCH   8  10
DOCKED: ATOM     10  O   UNL d   1      -4.187   9.213 -15.789 -0.02 -0.18    -0.303 OA
DOCKED: ATOM     11  H   UNL d   1      -4.169   9.420 -16.742 +0.01 +0.11    +0.222 HD
DOCKED: ENDBRANCH   8  10
DOCKED: BRANCH   8  12
DOCKED: ATOM     12  O   UNL d   1      -3.932   6.785 -16.200 -0.49 -0.48    -0.303 OA
DOCKED: ATOM     13  H   UNL d   1      -4.314   7.026 -17.074 +0.01 +0.21    +0.222 HD
DOCKED: ENDBRANCH   8  12
DOCKED: ENDBRANCH   7   8
DOCKED: ENDBRANCH   1   7
DOCKED: BRANCH   2  14
DOCKED: ATOM     14  O   UNL d   1      -2.773   6.551 -18.296 -0.01 -0.19    -0.278 OA
DOCKED: BRANCH  14  15
DOCKED: ATOM     15  P   UNL d   1      -3.611   7.598 -19.171 +0.01 +0.22    +0.473 P 
DOCKED: ATOM     16  O   UNL d   1      -5.100   7.449 -19.154 +0.00 -0.10    -0.228 OA
DOCKED: BRANCH  15  17
DOCKED: ATOM     17  O   UNL d   1      -3.128   9.021 -18.641 +0.00 -0.13    -0.303 OA
DOCKED: ATOM     18  H   UNL d   1      -3.111   9.045 -17.665 +0.01 +0.11    +0.222 HD
DOCKED: ENDBRANCH  15  17
DOCKED: BRANCH  15  19
DOCKED: ATOM     19  O   UNL d   1      -2.933   7.545 -20.609 +0.00 -0.11    -0.303 OA
DOCKED: ATOM     20  H   UNL d   1      -2.379   6.750 -20.717 +0.00 +0.09    +0.222 HD
DOCKED: ENDBRANCH  15  19
DOCKED: ENDBRANCH  14  15
DOCKED: ENDBRANCH   2  14
DOCKED: BRANCH   6  21
DOCKED: ATOM     21  O   UNL d   1      -0.781   6.504 -14.489 -0.47 -0.36    -0.278 OA
DOCKED: BRANCH  21  22
DOCKED: ATOM     22  P   UNL d   1       0.657   7.192 -14.435 -0.27 +0.35    +0.473 P 
DOCKED: ATOM     23  O   UNL d   1       1.622   6.895 -15.533 -0.29 -0.17    -0.228 OA
DOCKED: BRANCH  22  24
DOCKED: ATOM     24  O   UNL d   1       0.276   8.729 -14.279 -0.24 -0.19    -0.303 OA
DOCKED: ATOM     25  H   UNL d   1      -0.637   8.859 -14.642 +0.10 +0.14    +0.222 HD
DOCKED: ENDBRANCH  22  24
DOCKED: BRANCH  22  26
DOCKED: ATOM     26  O   UNL d   1       1.141   6.818 -12.953 -0.44 -0.15    -0.303 OA
DOCKED: ATOM     27  H   UNL d   1       1.611   7.585 -12.566 -0.41 +0.03    +0.222 HD
DOCKED: ENDBRANCH  22  26
DOCKED: ENDBRANCH  21  22
DOCKED: ENDBRANCH   6  21
DOCKED: BRANCH   3  28
DOCKED: ATOM     28  O   UNL d   1      -1.168   5.059 -19.792 +0.00 -0.14    -0.278 OA
DOCKED: BRANCH  28  29
DOCKED: ATOM     29  P   UNL d   1      -0.406   5.312 -21.168 +0.01 +0.19    +0.473 P 
DOCKED: ATOM     30  O   UNL d   1       0.644   6.362 -21.134 -0.00 -0.11    -0.228 OA
DOCKED: BRANCH  29  31
DOCKED: ATOM     31  O   UNL d   1       0.068   3.821 -21.503 +0.00 -0.11    -0.303 OA
DOCKED: ATOM     32  H   UNL d   1       0.340   3.382 -20.664 +0.01 +0.09    +0.222 HD
DOCKED: ENDBRANCH  29  31
DOCKED: BRANCH  29  33
DOCKED: ATOM     33  O   UNL d   1      -1.613   5.534 -22.182 +0.00 -0.10    -0.303 OA
DOCKED: ATOM     34  H   UNL d   1      -1.868   6.489 -22.174 +0.00 +0.07    +0.222 HD
DOCKED: ENDBRANCH  29  33
DOCKED: ENDBRANCH  28  29
DOCKED: ENDBRANCH   3  28
DOCKED: BRANCH   5  35
DOCKED: ATOM     35  O   UNL d   1      -1.222   3.747 -15.348 -0.17 -0.47    -0.278 OA
DOCKED: BRANCH  35  36
DOCKED: ATOM     36  P   UNL d   1      -0.376   2.973 -14.239 -0.14 +0.56    +0.473 P 
DOCKED: ATOM     37  O   UNL d   1      -1.177   2.283 -13.182 -0.30 -0.29    -0.228 OA
DOCKED: BRANCH  36  38
DOCKED: ATOM     38  O   UNL d   1       0.512   1.996 -15.130 -0.07 -0.23    -0.303 OA
DOCKED: ATOM     39  H   UNL d   1       0.222   2.062 -16.065 +0.05 +0.16    +0.222 HD
DOCKED: ENDBRANCH  36  38
DOCKED: BRANCH  36  40
DOCKED: ATOM     40  O   UNL d   1       0.650   4.088 -13.755 -0.78 -0.30    -0.303 OA
DOCKED: ATOM     41  H   UNL d   1       0.191   4.915 -13.490 +0.11 +0.25    +0.222 HD
DOCKED: ENDBRANCH  36  40
DOCKED: ENDBRANCH  35  36
DOCKED: ENDBRANCH   5  35
DOCKED: BRANCH   4  42
DOCKED: ATOM     42  O   UNL d   1       0.190   3.399 -17.873 -0.00 -0.17    -0.278 OA
DOCKED: BRANCH  42  43
DOCKED: ATOM     43  P   UNL d   1      -0.262   1.890 -18.123 +0.03 +0.27    +0.473 P 
DOCKED: ATOM     44  O   UNL d   1       0.748   0.822 -17.882 -0.00 -0.12    -0.228 OA
DOCKED: BRANCH  43  45
DOCKED: ATOM     45  O   UNL d   1      -1.570   1.764 -17.226 +0.00 -0.25    -0.303 OA
DOCKED: ATOM     46  H   UNL d   1      -1.354   1.796 -16.272 +0.03 +0.22    +0.222 HD
DOCKED: ENDBRANCH  43  45
DOCKED: BRANCH  43  47
DOCKED: ATOM     47  O   UNL d   1      -0.883   1.934 -19.600 +0.01 -0.14    -0.303 OA
DOCKED: ATOM     48  H   UNL d   1      -1.011   2.868 -19.868 +0.00 +0.10    +0.222 HD
DOCKED: ENDBRANCH  43  47
DOCKED: ENDBRANCH  42  43
DOCKED: ENDBRANCH   4  42
DOCKED: TORSDOF 24
DOCKED: TER
DOCKED: ENDMDL
________________________________________________________________________________


	BEGINNING GENETIC ALGORITHM DOCKING 5 of 100
Run: 5 Seed: 1385893151 11995021 [ Run 5 of 100 GA/GALS ]
Beginning LAMARCKIAN GENETIC ALGORITHM (LGA), with a maximum of 25000000 energy evaluations.

Final-Value: -17.580


	FINAL GENETIC ALGORITHM DOCKED STATE
	_______________________________________________


Detailed state:  trans -19.386 -1.398 9.266 quatxyzw -0.447853 0.117525 -0.710125 0.530413 center 0.035 0.082 -0.065 ntor 24 50.2743 83.7911 46.3452 97.1567 91.0805 -151.6272 -95.1202 49.4463 74.8083 -46.7995 35.3468 -157.5166 -13.2610 -22.1865 9.5860 160.5337 157.4915 -53.0362 54.6003 -6.1613 176.9049 13.8389 10.1550 -169.7619
State:	-19.386  -1.398   9.266  -0.528  0.139 -0.838 115.933     50.27   83.79   46.35   97.16   91.08 -151.63  -95.12   49.45   74.81  -46.80   35.35 -157.52  -13.26  -22.19    9.59  160.53  157.49  -53.04   54.60   -6.16  176.90   13.84   10.15 -169.76

DOCKED: MODEL        5
DOCKED: USER    Run = 5
DOCKED: USER    DPF = D:/Protein_go_brrr/autodock/final/AncB/IHP/dock.dpf
DOCKED: USER  
DOCKED: USER    Estimated Free Energy of Binding    =   +1.29 kcal/mol  [=(1)+(2)+(3)-(4)]
DOCKED: USER    
DOCKED: USER    (1) Final Intermolecular Energy     =   -5.87 kcal/mol
DOCKED: USER        vdW + Hbond + desolv Energy     =   -5.58 kcal/mol
DOCKED: USER        Electrostatic Energy            =   -0.29 kcal/mol
DOCKED: USER    (2) Final Total Internal Energy     =  -11.71 kcal/mol
DOCKED: USER    (3) Torsional Free Energy           =   +7.16 kcal/mol
DOCKED: USER    (4) Unbound System's Energy  [=(2)] =  -11.71 kcal/mol
DOCKED: USER    
DOCKED: USER    
DOCKED: USER    NEWDPF move IHP_ideal_opt.pdbqt
DOCKED: USER    NEWDPF about 0.035000 0.082000 -0.065000
DOCKED: USER    NEWDPF tran0 -19.386415 -1.397754 9.265735
DOCKED: USER    NEWDPF quaternion0 -0.447853 0.117525 -0.710125 0.530413
DOCKED: USER    NEWDPF axisangle0 -0.528290 0.138634 -0.837669 115.933268
DOCKED: USER    NEWDPF quat0 -0.528290 0.138634 -0.837669 115.933268
DOCKED: USER    NEWDPF dihe0 50.27 83.79 46.35 97.16 91.08 -151.63 -95.12 49.45 74.81 -46.80 35.35 -157.52 -13.26 -22.19 9.59 160.53 157.49 -53.04 54.60 -6.16 176.90 13.84 10.15 -169.76 
DOCKED: USER  keepresnum = 1 
DOCKED: USER  
DOCKED: REMARK  24 active torsions:
DOCKED: REMARK  status: ('A' for Active; 'I' for Inactive)
DOCKED: REMARK    1  A    between atoms: C_1  and  O_7 
DOCKED: REMARK    2  A    between atoms: C_2  and  O_12 
DOCKED: REMARK    3  A    between atoms: C_3  and  O_17 
DOCKED: REMARK    4  A    between atoms: C_4  and  O_22 
DOCKED: REMARK    5  A    between atoms: C_5  and  O_27 
DOCKED: REMARK    6  A    between atoms: C_6  and  O_32 
DOCKED: REMARK    7  A    between atoms: O_7  and  P_8 
DOCKED: REMARK    8  A    between atoms: P_8  and  O_10 
DOCKED: REMARK    9  A    between atoms: P_8  and  O_11 
DOCKED: REMARK   10  A    between atoms: O_12  and  P_13 
DOCKED: REMARK   11  A    between atoms: P_13  and  O_15 
DOCKED: REMARK   12  A    between atoms: P_13  and  O_16 
DOCKED: REMARK   13  A    between atoms: O_17  and  P_18 
DOCKED: REMARK   14  A    between atoms: P_18  and  O_20 
DOCKED: REMARK   15  A    between atoms: P_18  and  O_21 
DOCKED: REMARK   16  A    between atoms: O_22  and  P_23 
DOCKED: REMARK   17  A    between atoms: P_23  and  O_25 
DOCKED: REMARK   18  A    between atoms: P_23  and  O_26 
DOCKED: REMARK   19  A    between atoms: O_27  and  P_28 
DOCKED: REMARK   20  A    between atoms: P_28  and  O_30 
DOCKED: REMARK   21  A    between atoms: P_28  and  O_31 
DOCKED: REMARK   22  A    between atoms: O_32  and  P_33 
DOCKED: REMARK   23  A    between atoms: P_33  and  O_35 
DOCKED: REMARK   24  A    between atoms: P_33  and  O_36 
DOCKED: USER                              x       y       z     vdW  Elec       q    Type
DOCKED: USER                           _______ _______ _______ _____ _____    ______ ____
DOCKED: ROOT
DOCKED: ATOM      1  C   UNL d   1     -18.265  -0.730  10.397 -0.10 +0.04    +0.194 C 
DOCKED: ATOM      2  C   UNL d   1     -17.718  -0.972   8.989 -0.12 +0.04    +0.194 C 
DOCKED: ATOM      3  C   UNL d   1     -18.171  -2.323   8.430 -0.12 +0.06    +0.194 C 
DOCKED: ATOM      4  C   UNL d   1     -19.682  -2.529   8.506 -0.03 +0.04    +0.194 C 
DOCKED: ATOM      5  C   UNL d   1     -20.287  -2.188   9.862 -0.02 +0.04    +0.194 C 
DOCKED: ATOM      6  C   UNL d   1     -19.787  -0.866  10.449 -0.03 +0.03    +0.194 C 
DOCKED: ENDROOT
DOCKED: BRANCH   1   7
DOCKED: ATOM      7  O   UNL d   1     -17.944   0.611  10.775 -0.07 -0.03    -0.278 OA
DOCKED: BRANCH   7   8
DOCKED: ATOM      8  P   UNL d   1     -16.410   0.985  11.019 -0.21 +0.02    +0.473 P 
DOCKED: ATOM      9  O   UNL d   1     -15.449   0.349  10.078 -0.33 -0.02    -0.228 OA
DOCKED: BRANCH   8  10
DOCKED: ATOM     10  O   UNL d   1     -16.387   2.579  10.959 -0.19 +0.04    -0.303 OA
DOCKED: ATOM     11  H   UNL d   1     -15.963   2.869  10.129 -0.44 -0.06    +0.222 HD
DOCKED: ENDBRANCH   8  10
DOCKED: BRANCH   8  12
DOCKED: ATOM     12  O   UNL d   1     -16.158   0.707  12.563 -0.29 -0.01    -0.303 OA
DOCKED: ATOM     13  H   UNL d   1     -16.621  -0.097  12.890 +0.09 +0.02    +0.222 HD
DOCKED: ENDBRANCH   8  12
DOCKED: ENDBRANCH   7   8
DOCKED: ENDBRANCH   1   7
DOCKED: BRANCH   2  14
DOCKED: ATOM     14  O   UNL d   1     -18.191   0.064   8.120 -0.04 -0.03    -0.278 OA
DOCKED: BRANCH  14  15
DOCKED: ATOM     15  P   UNL d   1     -17.079   0.878   7.305 -0.07 +0.03    +0.473 P 
DOCKED: ATOM     16  O   UNL d   1     -15.860   0.117   6.887 -0.27 +0.00    -0.228 OA
DOCKED: BRANCH  15  17
DOCKED: ATOM     17  O   UNL d   1     -17.876   1.494   6.071 -0.06 -0.02    -0.303 OA
DOCKED: ATOM     18  H   UNL d   1     -18.409   0.811   5.621 +0.06 +0.01    +0.222 HD
DOCKED: ENDBRANCH  15  17
DOCKED: BRANCH  15  19
DOCKED: ATOM     19  O   UNL d   1     -16.810   2.173   8.189 -0.05 -0.02    -0.303 OA
DOCKED: ATOM     20  H   UNL d   1     -16.837   1.971   9.142 +0.07 +0.01    +0.222 HD
DOCKED: ENDBRANCH  15  19
DOCKED: ENDBRANCH  14  15
DOCKED: ENDBRANCH   2  14
DOCKED: BRANCH   6  21
DOCKED: ATOM     21  O   UNL d   1     -20.161  -0.859  11.825 -0.01 -0.04    -0.278 OA
DOCKED: BRANCH  21  22
DOCKED: ATOM     22  P   UNL d   1     -19.365  -1.768  12.867 -0.03 +0.09    +0.473 P 
DOCKED: ATOM     23  O   UNL d   1     -17.884  -1.872  12.723 -0.17 -0.07    -0.228 OA
DOCKED: BRANCH  22  24
DOCKED: ATOM     24  O   UNL d   1     -19.860  -1.177  14.259 -0.02 -0.03    -0.303 OA
DOCKED: ATOM     25  H   UNL d   1     -20.748  -0.759  14.118 +0.02 +0.02    +0.222 HD
DOCKED: ENDBRANCH  22  24
DOCKED: BRANCH  22  26
DOCKED: ATOM     26  O   UNL d   1     -20.178  -3.147  12.784 -0.02 -0.07    -0.303 OA
DOCKED: ATOM     27  H   UNL d   1     -20.496  -3.278  11.868 +0.02 +0.06    +0.222 HD
DOCKED: ENDBRANCH  22  26
DOCKED: ENDBRANCH  21  22
DOCKED: ENDBRANCH   6  21
DOCKED: BRANCH   3  28
DOCKED: ATOM     28  O   UNL d   1     -17.857  -2.339   7.043 -0.09 -0.04    -0.278 OA
DOCKED: BRANCH  28  29
DOCKED: ATOM     29  P   UNL d   1     -16.958  -3.505   6.436 -0.28 +0.04    +0.473 P 
DOCKED: ATOM     30  O   UNL d   1     -17.451  -4.100   5.167 -0.29 +0.01    -0.228 OA
DOCKED: BRANCH  29  31
DOCKED: ATOM     31  O   UNL d   1     -15.539  -2.766   6.389 -0.67 -0.04    -0.303 OA
DOCKED: ATOM     32  H   UNL d   1     -15.672  -1.853   6.045 -0.04 -0.01    +0.222 HD
DOCKED: ENDBRANCH  29  31
DOCKED: BRANCH  29  33
DOCKED: ATOM     33  O   UNL d   1     -16.801  -4.488   7.679 -0.69 -0.10    -0.303 OA
DOCKED: ATOM     34  H   UNL d   1     -17.335  -5.303   7.513 -0.38 -0.11    +0.222 HD
DOCKED: ENDBRANCH  29  33
DOCKED: ENDBRANCH  28  29
DOCKED: ENDBRANCH   3  28
DOCKED: BRANCH   5  35
DOCKED: ATOM     35  O   UNL d   1     -21.688  -2.043   9.635 +0.00 -0.04    -0.278 OA
DOCKED: BRANCH  35  36
DOCKED: ATOM     36  P   UNL d   1     -22.737  -2.592  10.703 +0.01 +0.05    +0.473 P 
DOCKED: ATOM     37  O   UNL d   1     -24.112  -2.859  10.178 +0.00 -0.02    -0.228 OA
DOCKED: BRANCH  36  38
DOCKED: ATOM     38  O   UNL d   1     -21.989  -3.882  11.262 +0.00 -0.05    -0.303 OA
DOCKED: ATOM     39  H   UNL d   1     -21.093  -3.931  10.864 +0.02 +0.05    +0.222 HD
DOCKED: ENDBRANCH  36  38
DOCKED: BRANCH  36  40
DOCKED: ATOM     40  O   UNL d   1     -22.607  -1.533  11.883 +0.00 -0.03    -0.303 OA
DOCKED: ATOM     41  H   UNL d   1     -21.905  -1.786  12.523 +0.01 +0.02    +0.222 HD
DOCKED: ENDBRANCH  36  40
DOCKED: ENDBRANCH  35  36
DOCKED: ENDBRANCH   5  35
DOCKED: BRANCH   4  42
DOCKED: ATOM     42  O   UNL d   1     -19.923  -3.921   8.276 -0.04 -0.07    -0.278 OA
DOCKED: BRANCH  42  43
DOCKED: ATOM     43  P   UNL d   1     -19.693  -4.952   9.471 -0.05 +0.25    +0.473 P 
DOCKED: ATOM     44  O   UNL d   1     -19.078  -4.427  10.722 -0.13 -0.23    -0.228 OA
DOCKED: BRANCH  43  45
DOCKED: ATOM     45  O   UNL d   1     -21.141  -5.581   9.672 -0.01 -0.07    -0.303 OA
DOCKED: ATOM     46  H   UNL d   1     -21.843  -4.911   9.552 +0.01 +0.04    +0.222 HD
DOCKED: ENDBRANCH  43  45
DOCKED: BRANCH  43  47
DOCKED: ATOM     47  O   UNL d   1     -18.907  -6.159   8.768 -0.07 -0.04    -0.303 OA
DOCKED: ATOM     48  H   UNL d   1     -18.483  -5.833   7.947 -0.47 -0.08    +0.222 HD
DOCKED: ENDBRANCH  43  47
DOCKED: ENDBRANCH  42  43
DOCKED: ENDBRANCH   4  42
DOCKED: TORSDOF 24
DOCKED: TER
DOCKED: ENDMDL
________________________________________________________________________________


	BEGINNING GENETIC ALGORITHM DOCKING 6 of 100
Run: 6 Seed: 1021097469 1951878327 [ Run 6 of 100 GA/GALS ]
Beginning LAMARCKIAN GENETIC ALGORITHM (LGA), with a maximum of 25000000 energy evaluations.

Final-Value: -16.958


	FINAL GENETIC ALGORITHM DOCKED STATE
	_______________________________________________


Detailed state:  trans 9.483 -13.912 -8.120 quatxyzw -0.766806 -0.031128 -0.218030 0.602912 center 0.035 0.082 -0.065 ntor 24 -161.1545 36.3572 176.8310 125.4229 97.7366 77.5124 -159.8909 180.0000 149.9183 3.6732 136.9952 161.6935 28.1191 -70.3295 48.0661 9.5623 164.8139 98.6398 -128.9882 -44.5004 -179.4228 170.3709 27.2288 -49.1848
State:	  9.483 -13.912  -8.120  -0.961 -0.039 -0.273 105.843   -161.15   36.36  176.83  125.42   97.74   77.51 -159.89  180.00  149.92    3.67  137.00  161.69   28.12  -70.33   48.07    9.56  164.81   98.64 -128.99  -44.50 -179.42  170.37   27.23  -49.18

DOCKED: MODEL        6
DOCKED: USER    Run = 6
DOCKED: USER    DPF = D:/Protein_go_brrr/autodock/final/AncB/IHP/dock.dpf
DOCKED: USER  
DOCKED: USER    Estimated Free Energy of Binding    =   +2.90 kcal/mol  [=(1)+(2)+(3)-(4)]
DOCKED: USER    
DOCKED: USER    (1) Final Intermolecular Energy     =   -4.26 kcal/mol
DOCKED: USER        vdW + Hbond + desolv Energy     =   -4.33 kcal/mol
DOCKED: USER        Electrostatic Energy            =   +0.07 kcal/mol
DOCKED: USER    (2) Final Total Internal Energy     =  -12.70 kcal/mol
DOCKED: USER    (3) Torsional Free Energy           =   +7.16 kcal/mol
DOCKED: USER    (4) Unbound System's Energy  [=(2)] =  -12.70 kcal/mol
DOCKED: USER    
DOCKED: USER    
DOCKED: USER    NEWDPF move IHP_ideal_opt.pdbqt
DOCKED: USER    NEWDPF about 0.035000 0.082000 -0.065000
DOCKED: USER    NEWDPF tran0 9.483049 -13.912248 -8.119947
DOCKED: USER    NEWDPF quaternion0 -0.766806 -0.031128 -0.218030 0.602912
DOCKED: USER    NEWDPF axisangle0 -0.961141 -0.039017 -0.273286 105.842566
DOCKED: USER    NEWDPF quat0 -0.961141 -0.039017 -0.273286 105.842566
DOCKED: USER    NEWDPF dihe0 -161.15 36.36 176.83 125.42 97.74 77.51 -159.89 180.00 149.92 3.67 137.00 161.69 28.12 -70.33 48.07 9.56 164.81 98.64 -128.99 -44.50 -179.42 170.37 27.23 -49.18 
DOCKED: USER  keepresnum = 1 
DOCKED: USER  
DOCKED: REMARK  24 active torsions:
DOCKED: REMARK  status: ('A' for Active; 'I' for Inactive)
DOCKED: REMARK    1  A    between atoms: C_1  and  O_7 
DOCKED: REMARK    2  A    between atoms: C_2  and  O_12 
DOCKED: REMARK    3  A    between atoms: C_3  and  O_17 
DOCKED: REMARK    4  A    between atoms: C_4  and  O_22 
DOCKED: REMARK    5  A    between atoms: C_5  and  O_27 
DOCKED: REMARK    6  A    between atoms: C_6  and  O_32 
DOCKED: REMARK    7  A    between atoms: O_7  and  P_8 
DOCKED: REMARK    8  A    between atoms: P_8  and  O_10 
DOCKED: REMARK    9  A    between atoms: P_8  and  O_11 
DOCKED: REMARK   10  A    between atoms: O_12  and  P_13 
DOCKED: REMARK   11  A    between atoms: P_13  and  O_15 
DOCKED: REMARK   12  A    between atoms: P_13  and  O_16 
DOCKED: REMARK   13  A    between atoms: O_17  and  P_18 
DOCKED: REMARK   14  A    between atoms: P_18  and  O_20 
DOCKED: REMARK   15  A    between atoms: P_18  and  O_21 
DOCKED: REMARK   16  A    between atoms: O_22  and  P_23 
DOCKED: REMARK   17  A    between atoms: P_23  and  O_25 
DOCKED: REMARK   18  A    between atoms: P_23  and  O_26 
DOCKED: REMARK   19  A    between atoms: O_27  and  P_28 
DOCKED: REMARK   20  A    between atoms: P_28  and  O_30 
DOCKED: REMARK   21  A    between atoms: P_28  and  O_31 
DOCKED: REMARK   22  A    between atoms: O_32  and  P_33 
DOCKED: REMARK   23  A    between atoms: P_33  and  O_35 
DOCKED: REMARK   24  A    between atoms: P_33  and  O_36 
DOCKED: USER                              x       y       z     vdW  Elec       q    Type
DOCKED: USER                           _______ _______ _______ _____ _____    ______ ____
DOCKED: ROOT
DOCKED: ATOM      1  C   UNL d   1      11.100 -14.003  -8.722 -0.01 -0.01    +0.194 C 
DOCKED: ATOM      2  C   UNL d   1      10.009 -13.837  -9.781 -0.02 -0.01    +0.194 C 
DOCKED: ATOM      3  C   UNL d   1       8.801 -14.732  -9.496 -0.03 -0.03    +0.194 C 
DOCKED: ATOM      4  C   UNL d   1       8.258 -14.575  -8.078 -0.09 -0.05    +0.194 C 
DOCKED: ATOM      5  C   UNL d   1       9.328 -14.620  -6.995 -0.07 -0.05    +0.194 C 
DOCKED: ATOM      6  C   UNL d   1      10.563 -13.773  -7.309 -0.07 -0.04    +0.194 C 
DOCKED: ENDROOT
DOCKED: BRANCH   1   7
DOCKED: ATOM      7  O   UNL d   1      12.107 -13.017  -8.961 -0.02 -0.02    -0.278 OA
DOCKED: BRANCH   7   8
DOCKED: ATOM      8  P   UNL d   1      12.229 -11.794  -7.941 -0.08 +0.07    +0.473 P 
DOCKED: ATOM      9  O   UNL d   1      12.951 -12.097  -6.675 -0.10 +0.05    -0.228 OA
DOCKED: BRANCH   8  10
DOCKED: ATOM     10  O   UNL d   1      12.922 -10.642  -8.800 -0.38 -0.28    -0.303 OA
DOCKED: ATOM     11  H   UNL d   1      12.543 -10.630  -9.698 +0.04 +0.18    +0.222 HD
DOCKED: ENDBRANCH   8  10
DOCKED: BRANCH   8  12
DOCKED: ATOM     12  O   UNL d   1      10.748 -11.242  -7.779 -0.23 -0.02    -0.303 OA
DOCKED: ATOM     13  H   UNL d   1      10.114 -11.647  -8.413 +0.09 +0.01    +0.222 HD
DOCKED: ENDBRANCH   8  12
DOCKED: ENDBRANCH   7   8
DOCKED: ENDBRANCH   1   7
DOCKED: BRANCH   2  14
DOCKED: ATOM     14  O   UNL d   1       9.572 -12.471  -9.792 -0.09 -0.00    -0.278 OA
DOCKED: BRANCH  14  15
DOCKED: ATOM     15  P   UNL d   1      10.399 -11.463 -10.721 -0.10 +0.08    +0.473 P 
DOCKED: ATOM     16  O   UNL d   1      11.729 -11.941 -11.215 -0.04 -0.05    -0.228 OA
DOCKED: BRANCH  15  17
DOCKED: ATOM     17  O   UNL d   1       9.391 -11.113 -11.905 -0.12 -0.02    -0.303 OA
DOCKED: ATOM     18  H   UNL d   1       8.755 -10.423 -11.632 -0.43 -0.03    +0.222 HD
DOCKED: ENDBRANCH  15  17
DOCKED: BRANCH  15  19
DOCKED: ATOM     19  O   UNL d   1      10.420 -10.098  -9.905 -0.23 -0.13    -0.303 OA
DOCKED: ATOM     20  H   UNL d   1      10.928 -10.181  -9.077 +0.09 +0.17    +0.222 HD
DOCKED: ENDBRANCH  15  19
DOCKED: ENDBRANCH  14  15
DOCKED: ENDBRANCH   2  14
DOCKED: BRANCH   6  21
DOCKED: ATOM     21  O   UNL d   1      11.584 -14.180  -6.401 -0.03 +0.07    -0.278 OA
DOCKED: BRANCH  21  22
DOCKED: ATOM     22  P   UNL d   1      12.390 -15.530  -6.671 +0.01 -0.05    +0.473 P 
DOCKED: ATOM     23  O   UNL d   1      13.472 -15.512  -7.698 +0.00 +0.01    -0.228 OA
DOCKED: BRANCH  22  24
DOCKED: ATOM     24  O   UNL d   1      12.868 -15.923  -5.205 +0.00 +0.04    -0.303 OA
DOCKED: ATOM     25  H   UNL d   1      12.182 -15.608  -4.563 +0.01 -0.04    +0.222 HD
DOCKED: ENDBRANCH  22  24
DOCKED: BRANCH  22  26
DOCKED: ATOM     26  O   UNL d   1      11.200 -16.575  -6.923 +0.00 +0.05    -0.303 OA
DOCKED: ATOM     27  H   UNL d   1      11.011 -17.054  -6.091 +0.01 -0.04    +0.222 HD
DOCKED: ENDBRANCH  22  26
DOCKED: ENDBRANCH  21  22
DOCKED: ENDBRANCH   6  21
DOCKED: BRANCH   3  28
DOCKED: ATOM     28  O   UNL d   1       7.746 -14.314 -10.353 -0.06 +0.04    -0.278 OA
DOCKED: BRANCH  28  29
DOCKED: ATOM     29  P   UNL d   1       6.883 -13.023  -9.995 -0.21 -0.04    +0.473 P 
DOCKED: ATOM     30  O   UNL d   1       6.991 -12.549  -8.592 -0.37 +0.03    -0.228 OA
DOCKED: BRANCH  29  31
DOCKED: ATOM     31  O   UNL d   1       7.387 -12.025 -11.140 -0.09 -0.02    -0.303 OA
DOCKED: ATOM     32  H   UNL d   1       7.957 -11.336 -10.727 -0.13 -0.01    +0.222 HD
DOCKED: ENDBRANCH  29  31
DOCKED: BRANCH  29  33
DOCKED: ATOM     33  O   UNL d   1       5.433 -13.439 -10.505 -0.35 +0.04    -0.303 OA
DOCKED: ATOM     34  H   UNL d   1       5.133 -12.789 -11.186 -0.20 -0.04    +0.222 HD
DOCKED: ENDBRANCH  29  33
DOCKED: ENDBRANCH  28  29
DOCKED: ENDBRANCH   3  28
DOCKED: BRANCH   5  35
DOCKED: ATOM     35  O   UNL d   1       8.722 -14.064  -5.829 -0.15 +0.09    -0.278 OA
DOCKED: BRANCH  35  36
DOCKED: ATOM     36  P   UNL d   1       9.302 -14.403  -4.382 -0.10 -0.20    +0.473 P 
DOCKED: ATOM     37  O   UNL d   1       8.305 -14.382  -3.267 -0.15 +0.08    -0.228 OA
DOCKED: BRANCH  36  38
DOCKED: ATOM     38  O   UNL d   1       9.980 -15.823  -4.627 -0.01 +0.08    -0.303 OA
DOCKED: ATOM     39  H   UNL d   1      10.856 -15.692  -5.051 +0.02 -0.05    +0.222 HD
DOCKED: ENDBRANCH  36  38
DOCKED: BRANCH  36  40
DOCKED: ATOM     40  O   UNL d   1      10.535 -13.405  -4.268 -0.13 +0.24    -0.303 OA
DOCKED: ATOM     41  H   UNL d   1      11.008 -13.310  -5.124 +0.05 -0.15    +0.222 HD
DOCKED: ENDBRANCH  36  40
DOCKED: ENDBRANCH  35  36
DOCKED: ENDBRANCH   5  35
DOCKED: BRANCH   4  42
DOCKED: ATOM     42  O   UNL d   1       7.378 -15.681  -7.846 -0.10 +0.14    -0.278 OA
DOCKED: BRANCH  42  43
DOCKED: ATOM     43  P   UNL d   1       6.299 -15.576  -6.677 -0.16 -0.23    +0.473 P 
DOCKED: ATOM     44  O   UNL d   1       4.974 -16.218  -6.905 -0.33 +0.17    -0.228 OA
DOCKED: BRANCH  43  45
DOCKED: ATOM     45  O   UNL d   1       7.090 -16.147  -5.419 -0.11 +0.13    -0.303 OA
DOCKED: ATOM     46  H   UNL d   1       7.854 -15.581  -5.190 +0.07 -0.07    +0.222 HD
DOCKED: ENDBRANCH  43  45
DOCKED: BRANCH  43  47
DOCKED: ATOM     47  O   UNL d   1       6.261 -14.007  -6.353 -0.08 +0.05    -0.303 OA
DOCKED: ATOM     48  H   UNL d   1       7.076 -13.587  -6.696 +0.12 -0.04    +0.222 HD
DOCKED: ENDBRANCH  43  47
DOCKED: ENDBRANCH  42  43
DOCKED: ENDBRANCH   4  42
DOCKED: TORSDOF 24
DOCKED: TER
DOCKED: ENDMDL
________________________________________________________________________________


	BEGINNING GENETIC ALGORITHM DOCKING 7 of 100
Run: 7 Seed: 60845207 135808334 [ Run 7 of 100 GA/GALS ]
Beginning LAMARCKIAN GENETIC ALGORITHM (LGA), with a maximum of 25000000 energy evaluations.

Final-Value: -17.249


	FINAL GENETIC ALGORITHM DOCKED STATE
	_______________________________________________


Detailed state:  trans 10.245 15.746 -17.158 quatxyzw 0.019032 -0.092392 -0.253079 0.962836 center 0.035 0.082 -0.065 ntor 24 87.6292 42.3523 85.4888 109.6357 110.4104 -168.6955 -132.7622 0.8623 88.9301 122.2740 25.5347 163.1296 155.7730 106.4572 104.1505 -178.5900 108.1098 -180.0000 28.3716 -4.7429 -50.2705 15.0425 159.6365 -12.6080
State:	 10.245  15.746 -17.158   0.070 -0.342 -0.937 31.339     87.63   42.35   85.49  109.64  110.41 -168.70 -132.76    0.86   88.93  122.27   25.53  163.13  155.77  106.46  104.15 -178.59  108.11 -180.00   28.37   -4.74  -50.27   15.04  159.64  -12.61

DOCKED: MODEL        7
DOCKED: USER    Run = 7
DOCKED: USER    DPF = D:/Protein_go_brrr/autodock/final/AncB/IHP/dock.dpf
DOCKED: USER  
DOCKED: USER    Estimated Free Energy of Binding    =   +3.91 kcal/mol  [=(1)+(2)+(3)-(4)]
DOCKED: USER    
DOCKED: USER    (1) Final Intermolecular Energy     =   -3.25 kcal/mol
DOCKED: USER        vdW + Hbond + desolv Energy     =   -3.20 kcal/mol
DOCKED: USER        Electrostatic Energy            =   -0.04 kcal/mol
DOCKED: USER    (2) Final Total Internal Energy     =  -14.00 kcal/mol
DOCKED: USER    (3) Torsional Free Energy           =   +7.16 kcal/mol
DOCKED: USER    (4) Unbound System's Energy  [=(2)] =  -14.00 kcal/mol
DOCKED: USER    
DOCKED: USER    
DOCKED: USER    NEWDPF move IHP_ideal_opt.pdbqt
DOCKED: USER    NEWDPF about 0.035000 0.082000 -0.065000
DOCKED: USER    NEWDPF tran0 10.245467 15.746395 -17.157822
DOCKED: USER    NEWDPF quaternion0 0.019032 -0.092392 -0.253079 0.962836
DOCKED: USER    NEWDPF axisangle0 0.070467 -0.342080 -0.937025 31.338956
DOCKED: USER    NEWDPF quat0 0.070467 -0.342080 -0.937025 31.338956
DOCKED: USER    NEWDPF dihe0 87.63 42.35 85.49 109.64 110.41 -168.70 -132.76 0.86 88.93 122.27 25.53 163.13 155.77 106.46 104.15 -178.59 108.11 -180.00 28.37 -4.74 -50.27 15.04 159.64 -12.61 
DOCKED: USER  keepresnum = 1 
DOCKED: USER  
DOCKED: REMARK  24 active torsions:
DOCKED: REMARK  status: ('A' for Active; 'I' for Inactive)
DOCKED: REMARK    1  A    between atoms: C_1  and  O_7 
DOCKED: REMARK    2  A    between atoms: C_2  and  O_12 
DOCKED: REMARK    3  A    between atoms: C_3  and  O_17 
DOCKED: REMARK    4  A    between atoms: C_4  and  O_22 
DOCKED: REMARK    5  A    between atoms: C_5  and  O_27 
DOCKED: REMARK    6  A    between atoms: C_6  and  O_32 
DOCKED: REMARK    7  A    between atoms: O_7  and  P_8 
DOCKED: REMARK    8  A    between atoms: P_8  and  O_10 
DOCKED: REMARK    9  A    between atoms: P_8  and  O_11 
DOCKED: REMARK   10  A    between atoms: O_12  and  P_13 
DOCKED: REMARK   11  A    between atoms: P_13  and  O_15 
DOCKED: REMARK   12  A    between atoms: P_13  and  O_16 
DOCKED: REMARK   13  A    between atoms: O_17  and  P_18 
DOCKED: REMARK   14  A    between atoms: P_18  and  O_20 
DOCKED: REMARK   15  A    between atoms: P_18  and  O_21 
DOCKED: REMARK   16  A    between atoms: O_22  and  P_23 
DOCKED: REMARK   17  A    between atoms: P_23  and  O_25 
DOCKED: REMARK   18  A    between atoms: P_23  and  O_26 
DOCKED: REMARK   19  A    between atoms: O_27  and  P_28 
DOCKED: REMARK   20  A    between atoms: P_28  and  O_30 
DOCKED: REMARK   21  A    between atoms: P_28  and  O_31 
DOCKED: REMARK   22  A    between atoms: O_32  and  P_33 
DOCKED: REMARK   23  A    between atoms: P_33  and  O_35 
DOCKED: REMARK   24  A    between atoms: P_33  and  O_36 
DOCKED: USER                              x       y       z     vdW  Elec       q    Type
DOCKED: USER                           _______ _______ _______ _____ _____    ______ ____
DOCKED: ROOT
DOCKED: ATOM      1  C   UNL d   1      11.886  15.645 -16.625 -0.03 +0.05    +0.194 C 
DOCKED: ATOM      2  C   UNL d   1      11.151  14.310 -16.761 -0.07 +0.06    +0.194 C 
DOCKED: ATOM      3  C   UNL d   1       9.729  14.386 -16.202 -0.08 +0.06    +0.194 C 
DOCKED: ATOM      4  C   UNL d   1       8.921  15.550 -16.771 -0.03 +0.05    +0.194 C 
DOCKED: ATOM      5  C   UNL d   1       9.660  16.882 -16.760 -0.01 +0.04    +0.194 C 
DOCKED: ATOM      6  C   UNL d   1      11.103  16.794 -17.261 -0.00 +0.04    +0.194 C 
DOCKED: ENDROOT
DOCKED: BRANCH   1   7
DOCKED: ATOM      7  O   UNL d   1      13.131  15.542 -17.319 -0.02 -0.07    -0.278 OA
DOCKED: BRANCH   7   8
DOCKED: ATOM      8  P   UNL d   1      14.431  15.125 -16.489 -0.05 +0.14    +0.473 P 
DOCKED: ATOM      9  O   UNL d   1      15.719  15.629 -17.039 -0.03 -0.05    -0.228 OA
DOCKED: BRANCH   8  10
DOCKED: ATOM     10  O   UNL d   1      14.130  15.648 -15.012 -0.61 -0.13    -0.303 OA
DOCKED: ATOM     11  H   UNL d   1      14.161  16.623 -14.998 +0.03 +0.06    +0.222 HD
DOCKED: ENDBRANCH   8  10
DOCKED: BRANCH   8  12
DOCKED: ATOM     12  O   UNL d   1      14.320  13.550 -16.313 -0.06 -0.13    -0.303 OA
DOCKED: ATOM     13  H   UNL d   1      13.493  13.177 -16.692 +0.04 +0.10    +0.222 HD
DOCKED: ENDBRANCH   8  12
DOCKED: ENDBRANCH   7   8
DOCKED: ENDBRANCH   1   7
DOCKED: BRANCH   2  14
DOCKED: ATOM     14  O   UNL d   1      11.078  13.957 -18.148 -0.02 -0.08    -0.278 OA
DOCKED: BRANCH  14  15
DOCKED: ATOM     15  P   UNL d   1      11.619  12.503 -18.546 -0.05 +0.17    +0.473 P 
DOCKED: ATOM     16  O   UNL d   1      11.180  11.962 -19.871 -0.03 -0.07    -0.228 OA
DOCKED: BRANCH  15  17
DOCKED: ATOM     17  O   UNL d   1      13.202  12.631 -18.425 -0.06 -0.10    -0.303 OA
DOCKED: ATOM     18  H   UNL d   1      13.471  13.562 -18.308 +0.03 +0.06    +0.222 HD
DOCKED: ENDBRANCH  15  17
DOCKED: BRANCH  15  19
DOCKED: ATOM     19  O   UNL d   1      11.275  11.594 -17.287 -0.41 -0.20    -0.303 OA
DOCKED: ATOM     20  H   UNL d   1      10.345  11.696 -17.011 +0.06 +0.13    +0.222 HD
DOCKED: ENDBRANCH  15  19
DOCKED: ENDBRANCH  14  15
DOCKED: ENDBRANCH   2  14
DOCKED: BRANCH   6  21
DOCKED: ATOM     21  O   UNL d   1      11.748  18.005 -16.874 +0.00 -0.04    -0.278 OA
DOCKED: BRANCH  21  22
DOCKED: ATOM     22  P   UNL d   1      12.975  18.557 -17.731 +0.01 +0.07    +0.473 P 
DOCKED: ATOM     23  O   UNL d   1      12.996  20.008 -18.078 +0.00 -0.03    -0.228 OA
DOCKED: BRANCH  22  24
DOCKED: ATOM     24  O   UNL d   1      14.221  18.058 -16.875 +0.00 -0.05    -0.303 OA
DOCKED: ATOM     25  H   UNL d   1      14.054  17.118 -16.608 +0.01 +0.04    +0.222 HD
DOCKED: ENDBRANCH  22  24
DOCKED: BRANCH  22  26
DOCKED: ATOM     26  O   UNL d   1      12.993  17.538 -18.968 +0.00 -0.05    -0.303 OA
DOCKED: ATOM     27  H   UNL d   1      12.135  17.069 -19.011 +0.00 +0.04    +0.222 HD
DOCKED: ENDBRANCH  22  26
DOCKED: ENDBRANCH  21  22
DOCKED: ENDBRANCH   6  21
DOCKED: BRANCH   3  28
DOCKED: ATOM     28  O   UNL d   1       9.042  13.212 -16.617 -0.10 -0.10    -0.278 OA
DOCKED: BRANCH  28  29
DOCKED: ATOM     29  P   UNL d   1       8.331  12.274 -15.544 -0.25 +0.15    +0.473 P 
DOCKED: ATOM     30  O   UNL d   1       7.212  11.445 -16.060 -0.39 -0.11    -0.228 OA
DOCKED: BRANCH  29  31
DOCKED: ATOM     31  O   UNL d   1       9.604  11.497 -14.965 -0.42 -0.10    -0.303 OA
DOCKED: ATOM     32  H   UNL d   1       9.833  10.764 -15.583 -0.38 +0.09    +0.222 HD
DOCKED: ENDBRANCH  29  31
DOCKED: BRANCH  29  33
DOCKED: ATOM     33  O   UNL d   1       7.987  13.303 -14.378 -0.27 -0.09    -0.303 OA
DOCKED: ATOM     34  H   UNL d   1       7.393  14.007 -14.736 +0.10 +0.08    +0.222 HD
DOCKED: ENDBRANCH  29  33
DOCKED: ENDBRANCH  28  29
DOCKED: ENDBRANCH   3  28
DOCKED: BRANCH   5  35
DOCKED: ATOM     35  O   UNL d   1       8.951  17.725 -17.666 -0.00 -0.05    -0.278 OA
DOCKED: BRANCH  35  36
DOCKED: ATOM     36  P   UNL d   1       8.996  17.438 -19.235 +0.00 +0.08    +0.473 P 
DOCKED: ATOM     37  O   UNL d   1       7.804  17.901 -20.010 -0.00 -0.04    -0.228 OA
DOCKED: BRANCH  36  38
DOCKED: ATOM     38  O   UNL d   1      10.363  18.139 -19.655 +0.00 -0.05    -0.303 OA
DOCKED: ATOM     39  H   UNL d   1      10.918  18.267 -18.855 +0.00 +0.03    +0.222 HD
DOCKED: ENDBRANCH  36  38
DOCKED: BRANCH  36  40
DOCKED: ATOM     40  O   UNL d   1       9.332  15.884 -19.286 +0.00 -0.06    -0.303 OA
DOCKED: ATOM     41  H   UNL d   1       8.531  15.334 -19.140 +0.01 +0.05    +0.222 HD
DOCKED: ENDBRANCH  36  40
DOCKED: ENDBRANCH  35  36
DOCKED: ENDBRANCH   5  35
DOCKED: BRANCH   4  42
DOCKED: ATOM     42  O   UNL d   1       7.768  15.701 -15.935 -0.07 -0.07    -0.278 OA
DOCKED: BRANCH  42  43
DOCKED: ATOM     43  P   UNL d   1       6.320  15.637 -16.601 -0.03 +0.13    +0.473 P 
DOCKED: ATOM     44  O   UNL d   1       5.332  16.677 -16.199 -0.09 -0.06    -0.228 OA
DOCKED: BRANCH  43  45
DOCKED: ATOM     45  O   UNL d   1       6.651  15.621 -18.157 -0.02 -0.08    -0.303 OA
DOCKED: ATOM     46  H   UNL d   1       7.302  16.312 -18.392 +0.01 +0.05    +0.222 HD
DOCKED: ENDBRANCH  43  45
DOCKED: BRANCH  43  47
DOCKED: ATOM     47  O   UNL d   1       5.868  14.120 -16.349 -0.05 -0.12    -0.303 OA
DOCKED: ATOM     48  H   UNL d   1       6.657  13.579 -16.136 +0.09 +0.09    +0.222 HD
DOCKED: ENDBRANCH  43  47
DOCKED: ENDBRANCH  42  43
DOCKED: ENDBRANCH   4  42
DOCKED: TORSDOF 24
DOCKED: TER
DOCKED: ENDMDL
________________________________________________________________________________


	BEGINNING GENETIC ALGORITHM DOCKING 8 of 100
Run: 8 Seed: 1332099858 1008366560 [ Run 8 of 100 GA/GALS ]
Beginning LAMARCKIAN GENETIC ALGORITHM (LGA), with a maximum of 25000000 energy evaluations.

Final-Value: -16.221


	FINAL GENETIC ALGORITHM DOCKED STATE
	_______________________________________________


Detailed state:  trans 3.749 -13.310 3.522 quatxyzw -0.626596 0.308965 -0.513360 -0.498377 center 0.035 0.082 -0.065 ntor 24 -154.8393 144.9047 102.5841 21.2390 49.1058 -111.6201 15.8707 -140.1500 87.8567 74.1983 -149.8811 -6.3359 123.9300 -107.2647 -63.1735 -34.1284 114.1015 62.8998 45.3122 -4.0134 166.4611 144.7213 -11.1782 -180.0000
State:	  3.749 -13.310   3.522  -0.723  0.356 -0.592 -120.215   -154.84  144.90  102.58   21.24   49.11 -111.62   15.87 -140.15   87.86   74.20 -149.88   -6.34  123.93 -107.26  -63.17  -34.13  114.10   62.90   45.31   -4.01  166.46  144.72  -11.18 -180.00

DOCKED: MODEL        8
DOCKED: USER    Run = 8
DOCKED: USER    DPF = D:/Protein_go_brrr/autodock/final/AncB/IHP/dock.dpf
DOCKED: USER  
DOCKED: USER    Estimated Free Energy of Binding    =   +2.97 kcal/mol  [=(1)+(2)+(3)-(4)]
DOCKED: USER    
DOCKED: USER    (1) Final Intermolecular Energy     =   -4.19 kcal/mol
DOCKED: USER        vdW + Hbond + desolv Energy     =   -3.75 kcal/mol
DOCKED: USER        Electrostatic Energy            =   -0.45 kcal/mol
DOCKED: USER    (2) Final Total Internal Energy     =  -12.03 kcal/mol
DOCKED: USER    (3) Torsional Free Energy           =   +7.16 kcal/mol
DOCKED: USER    (4) Unbound System's Energy  [=(2)] =  -12.03 kcal/mol
DOCKED: USER    
DOCKED: USER    
DOCKED: USER    NEWDPF move IHP_ideal_opt.pdbqt
DOCKED: USER    NEWDPF about 0.035000 0.082000 -0.065000
DOCKED: USER    NEWDPF tran0 3.749228 -13.310123 3.521738
DOCKED: USER    NEWDPF quaternion0 -0.626596 0.308965 -0.513360 -0.498377
DOCKED: USER    NEWDPF axisangle0 -0.722751 0.356377 -0.592137 -120.214617
DOCKED: USER    NEWDPF quat0 -0.722751 0.356377 -0.592137 -120.214617
DOCKED: USER    NEWDPF dihe0 -154.84 144.90 102.58 21.24 49.11 -111.62 15.87 -140.15 87.86 74.20 -149.88 -6.34 123.93 -107.26 -63.17 -34.13 114.10 62.90 45.31 -4.01 166.46 144.72 -11.18 -180.00 
DOCKED: USER  keepresnum = 1 
DOCKED: USER  
DOCKED: REMARK  24 active torsions:
DOCKED: REMARK  status: ('A' for Active; 'I' for Inactive)
DOCKED: REMARK    1  A    between atoms: C_1  and  O_7 
DOCKED: REMARK    2  A    between atoms: C_2  and  O_12 
DOCKED: REMARK    3  A    between atoms: C_3  and  O_17 
DOCKED: REMARK    4  A    between atoms: C_4  and  O_22 
DOCKED: REMARK    5  A    between atoms: C_5  and  O_27 
DOCKED: REMARK    6  A    between atoms: C_6  and  O_32 
DOCKED: REMARK    7  A    between atoms: O_7  and  P_8 
DOCKED: REMARK    8  A    between atoms: P_8  and  O_10 
DOCKED: REMARK    9  A    between atoms: P_8  and  O_11 
DOCKED: REMARK   10  A    between atoms: O_12  and  P_13 
DOCKED: REMARK   11  A    between atoms: P_13  and  O_15 
DOCKED: REMARK   12  A    between atoms: P_13  and  O_16 
DOCKED: REMARK   13  A    between atoms: O_17  and  P_18 
DOCKED: REMARK   14  A    between atoms: P_18  and  O_20 
DOCKED: REMARK   15  A    between atoms: P_18  and  O_21 
DOCKED: REMARK   16  A    between atoms: O_22  and  P_23 
DOCKED: REMARK   17  A    between atoms: P_23  and  O_25 
DOCKED: REMARK   18  A    between atoms: P_23  and  O_26 
DOCKED: REMARK   19  A    between atoms: O_27  and  P_28 
DOCKED: REMARK   20  A    between atoms: P_28  and  O_30 
DOCKED: REMARK   21  A    between atoms: P_28  and  O_31 
DOCKED: REMARK   22  A    between atoms: O_32  and  P_33 
DOCKED: REMARK   23  A    between atoms: P_33  and  O_35 
DOCKED: REMARK   24  A    between atoms: P_33  and  O_36 
DOCKED: USER                              x       y       z     vdW  Elec       q    Type
DOCKED: USER                           _______ _______ _______ _____ _____    ______ ____
DOCKED: ROOT
DOCKED: ATOM      1  C   UNL d   1       4.745 -13.916   4.797 -0.00 -0.00    +0.194 C 
DOCKED: ATOM      2  C   UNL d   1       3.941 -12.656   5.127 -0.02 +0.00    +0.194 C 
DOCKED: ATOM      3  C   UNL d   1       3.976 -11.646   3.979 -0.09 -0.01    +0.194 C 
DOCKED: ATOM      4  C   UNL d   1       3.577 -12.249   2.634 -0.12 -0.00    +0.194 C 
DOCKED: ATOM      5  C   UNL d   1       4.270 -13.568   2.316 -0.06 -0.01    +0.194 C 
DOCKED: ATOM      6  C   UNL d   1       4.289 -14.555   3.485 -0.00 +0.00    +0.194 C 
DOCKED: ENDROOT
DOCKED: BRANCH   1   7
DOCKED: ATOM      7  O   UNL d   1       4.522 -14.872   5.836 +0.00 -0.01    -0.278 OA
DOCKED: BRANCH   7   8
DOCKED: ATOM      8  P   UNL d   1       5.288 -14.676   7.225 +0.00 +0.02    +0.473 P 
DOCKED: ATOM      9  O   UNL d   1       4.925 -15.652   8.288 +0.00 -0.01    -0.228 OA
DOCKED: BRANCH   8  10
DOCKED: ATOM     10  O   UNL d   1       6.831 -14.728   6.825 +0.00 +0.00    -0.303 OA
DOCKED: ATOM     11  H   UNL d   1       6.988 -14.153   6.053 +0.01 -0.01    +0.222 HD
DOCKED: ENDBRANCH   8  10
DOCKED: BRANCH   8  12
DOCKED: ATOM     12  O   UNL d   1       5.090 -13.143   7.593 -0.00 -0.01    -0.303 OA
DOCKED: ATOM     13  H   UNL d   1       4.375 -12.994   8.251 +0.01 +0.01    +0.222 HD
DOCKED: ENDBRANCH   8  12
DOCKED: ENDBRANCH   7   8
DOCKED: ENDBRANCH   1   7
DOCKED: BRANCH   2  14
DOCKED: ATOM     14  O   UNL d   1       2.578 -13.023   5.372 -0.02 -0.03    -0.278 OA
DOCKED: BRANCH  14  15
DOCKED: ATOM     15  P   UNL d   1       1.933 -12.507   6.744 -0.01 +0.06    +0.473 P 
DOCKED: ATOM     16  O   UNL d   1       2.699 -12.798   7.997 -0.01 -0.02    -0.228 OA
DOCKED: BRANCH  15  17
DOCKED: ATOM     17  O   UNL d   1       1.709 -10.948   6.505 -0.09 -0.04    -0.303 OA
DOCKED: ATOM     18  H   UNL d   1       1.904 -10.702   5.580 +0.09 +0.03    +0.222 HD
DOCKED: ENDBRANCH  15  17
DOCKED: BRANCH  15  19
DOCKED: ATOM     19  O   UNL d   1       0.440 -13.053   6.711 -0.05 -0.06    -0.303 OA
DOCKED: ATOM     20  H   UNL d   1       0.057 -13.002   5.815 +0.06 +0.06    +0.222 HD
DOCKED: ENDBRANCH  15  19
DOCKED: ENDBRANCH  14  15
DOCKED: ENDBRANCH   2  14
DOCKED: BRANCH   6  21
DOCKED: ATOM     21  O   UNL d   1       5.243 -15.563   3.157 +0.00 +0.00    -0.278 OA
DOCKED: BRANCH  21  22
DOCKED: ATOM     22  P   UNL d   1       6.783 -15.175   3.001 +0.01 -0.05    +0.473 P 
DOCKED: ATOM     23  O   UNL d   1       7.118 -13.824   2.465 -0.04 +0.07    -0.228 OA
DOCKED: BRANCH  22  24
DOCKED: ATOM     24  O   UNL d   1       7.343 -15.472   4.460 +0.00 +0.02    -0.303 OA
DOCKED: ATOM     25  H   UNL d   1       6.572 -15.529   5.081 +0.00 -0.01    +0.222 HD
DOCKED: ENDBRANCH  22  24
DOCKED: BRANCH  22  26
DOCKED: ATOM     26  O   UNL d   1       7.350 -16.422   2.168 +0.00 +0.02    -0.303 OA
DOCKED: ATOM     27  H   UNL d   1       7.051 -16.351   1.239 +0.01 -0.02    +0.222 HD
DOCKED: ENDBRANCH  22  26
DOCKED: ENDBRANCH  21  22
DOCKED: ENDBRANCH   6  21
DOCKED: BRANCH   3  28
DOCKED: ATOM     28  O   UNL d   1       2.995 -10.653   4.253 -0.12 -0.02    -0.278 OA
DOCKED: BRANCH  28  29
DOCKED: ATOM     29  P   UNL d   1       1.616 -10.643   3.456 -0.12 +0.06    +0.473 P 
DOCKED: ATOM     30  O   UNL d   1       1.729 -10.488   1.983 -0.27 -0.02    -0.228 OA
DOCKED: BRANCH  29  31
DOCKED: ATOM     31  O   UNL d   1       0.972 -12.004   3.996 -0.17 -0.08    -0.303 OA
DOCKED: ATOM     32  H   UNL d   1       0.763 -11.895   4.952 +0.07 +0.05    +0.222 HD
DOCKED: ENDBRANCH  29  31
DOCKED: BRANCH  29  33
DOCKED: ATOM     33  O   UNL d   1       0.788  -9.528   4.235 -0.20 -0.02    -0.303 OA
DOCKED: ATOM     34  H   UNL d   1       0.400  -9.929   5.051 -0.42 -0.01    +0.222 HD
DOCKED: ENDBRANCH  29  33
DOCKED: ENDBRANCH  28  29
DOCKED: ENDBRANCH   3  28
DOCKED: BRANCH   5  35
DOCKED: ATOM     35  O   UNL d   1       3.502 -14.166   1.274 -0.07 -0.02    -0.278 OA
DOCKED: BRANCH  35  36
DOCKED: ATOM     36  P   UNL d   1       4.171 -14.478  -0.141 -0.09 +0.01    +0.473 P 
DOCKED: ATOM     37  O   UNL d   1       3.482 -15.520  -0.964 -0.15 -0.00    -0.228 OA
DOCKED: BRANCH  36  38
DOCKED: ATOM     38  O   UNL d   1       4.206 -13.033  -0.810 -0.20 -0.04    -0.303 OA
DOCKED: ATOM     39  H   UNL d   1       4.095 -12.353  -0.111 +0.13 +0.04    +0.222 HD
DOCKED: ENDBRANCH  36  38
DOCKED: BRANCH  36  40
DOCKED: ATOM     40  O   UNL d   1       5.686 -14.754   0.253 -0.05 +0.03    -0.303 OA
DOCKED: ATOM     41  H   UNL d   1       5.762 -15.170   1.141 +0.04 -0.02    +0.222 HD
DOCKED: ENDBRANCH  36  40
DOCKED: ENDBRANCH  35  36
DOCKED: ENDBRANCH   5  35
DOCKED: BRANCH   4  42
DOCKED: ATOM     42  O   UNL d   1       3.971 -11.312   1.626 -0.33 +0.02    -0.278 OA
DOCKED: BRANCH  42  43
DOCKED: ATOM     43  P   UNL d   1       5.526 -11.081   1.354 -0.17 -0.28    +0.473 P 
DOCKED: ATOM     44  O   UNL d   1       6.087 -11.614   0.081 -0.36 +0.11    -0.228 OA
DOCKED: BRANCH  43  45
DOCKED: ATOM     45  O   UNL d   1       5.679  -9.506   1.523 -0.31 +0.25    -0.303 OA
DOCKED: ATOM     46  H   UNL d   1       6.482  -9.278   2.033 -0.07 -0.43    +0.222 HD
DOCKED: ENDBRANCH  43  45
DOCKED: BRANCH  43  47
DOCKED: ATOM     47  O   UNL d   1       6.217 -11.622   2.695 -0.12 +0.26    -0.303 OA
DOCKED: ATOM     48  H   UNL d   1       7.189 -11.630   2.576 -0.45 -0.36    +0.222 HD
DOCKED: ENDBRANCH  43  47
DOCKED: ENDBRANCH  42  43
DOCKED: ENDBRANCH   4  42
DOCKED: TORSDOF 24
DOCKED: TER
DOCKED: ENDMDL
________________________________________________________________________________


	BEGINNING GENETIC ALGORITHM DOCKING 9 of 100
Run: 9 Seed: 2133351021 691963515 [ Run 9 of 100 GA/GALS ]
Beginning LAMARCKIAN GENETIC ALGORITHM (LGA), with a maximum of 25000000 energy evaluations.

Final-Value: -18.997


	FINAL GENETIC ALGORITHM DOCKED STATE
	_______________________________________________


Detailed state:  trans 16.779 3.502 -11.881 quatxyzw -0.219299 0.480173 0.713369 0.460919 center 0.035 0.082 -0.065 ntor 24 43.1690 27.5520 111.1926 142.5665 2.5559 150.8154 -70.3132 -27.2905 -14.0082 4.5049 136.8605 136.1816 153.1736 65.9692 178.6843 -4.0772 -148.8817 97.0277 54.5332 23.0690 -22.5085 13.1227 163.3599 -17.4458
State:	 16.779   3.502 -11.881  -0.247  0.541  0.804 125.107     43.17   27.55  111.19  142.57    2.56  150.82  -70.31  -27.29  -14.01    4.50  136.86  136.18  153.17   65.97  178.68   -4.08 -148.88   97.03   54.53   23.07  -22.51   13.12  163.36  -17.45

DOCKED: MODEL        9
DOCKED: USER    Run = 9
DOCKED: USER    DPF = D:/Protein_go_brrr/autodock/final/AncB/IHP/dock.dpf
DOCKED: USER  
DOCKED: USER    Estimated Free Energy of Binding    =   +1.74 kcal/mol  [=(1)+(2)+(3)-(4)]
DOCKED: USER    
DOCKED: USER    (1) Final Intermolecular Energy     =   -5.42 kcal/mol
DOCKED: USER        vdW + Hbond + desolv Energy     =   -5.38 kcal/mol
DOCKED: USER        Electrostatic Energy            =   -0.04 kcal/mol
DOCKED: USER    (2) Final Total Internal Energy     =  -13.58 kcal/mol
DOCKED: USER    (3) Torsional Free Energy           =   +7.16 kcal/mol
DOCKED: USER    (4) Unbound System's Energy  [=(2)] =  -13.58 kcal/mol
DOCKED: USER    
DOCKED: USER    
DOCKED: USER    NEWDPF move IHP_ideal_opt.pdbqt
DOCKED: USER    NEWDPF about 0.035000 0.082000 -0.065000
DOCKED: USER    NEWDPF tran0 16.778984 3.501896 -11.881306
DOCKED: USER    NEWDPF quaternion0 -0.219299 0.480173 0.713369 0.460919
DOCKED: USER    NEWDPF axisangle0 -0.247113 0.541075 0.803849 125.107128
DOCKED: USER    NEWDPF quat0 -0.247113 0.541075 0.803849 125.107128
DOCKED: USER    NEWDPF dihe0 43.17 27.55 111.19 142.57 2.56 150.82 -70.31 -27.29 -14.01 4.50 136.86 136.18 153.17 65.97 178.68 -4.08 -148.88 97.03 54.53 23.07 -22.51 13.12 163.36 -17.45 
DOCKED: USER  keepresnum = 1 
DOCKED: USER  
DOCKED: REMARK  24 active torsions:
DOCKED: REMARK  status: ('A' for Active; 'I' for Inactive)
DOCKED: REMARK    1  A    between atoms: C_1  and  O_7 
DOCKED: REMARK    2  A    between atoms: C_2  and  O_12 
DOCKED: REMARK    3  A    between atoms: C_3  and  O_17 
DOCKED: REMARK    4  A    between atoms: C_4  and  O_22 
DOCKED: REMARK    5  A    between atoms: C_5  and  O_27 
DOCKED: REMARK    6  A    between atoms: C_6  and  O_32 
DOCKED: REMARK    7  A    between atoms: O_7  and  P_8 
DOCKED: REMARK    8  A    between atoms: P_8  and  O_10 
DOCKED: REMARK    9  A    between atoms: P_8  and  O_11 
DOCKED: REMARK   10  A    between atoms: O_12  and  P_13 
DOCKED: REMARK   11  A    between atoms: P_13  and  O_15 
DOCKED: REMARK   12  A    between atoms: P_13  and  O_16 
DOCKED: REMARK   13  A    between atoms: O_17  and  P_18 
DOCKED: REMARK   14  A    between atoms: P_18  and  O_20 
DOCKED: REMARK   15  A    between atoms: P_18  and  O_21 
DOCKED: REMARK   16  A    between atoms: O_22  and  P_23 
DOCKED: REMARK   17  A    between atoms: P_23  and  O_25 
DOCKED: REMARK   18  A    between atoms: P_23  and  O_26 
DOCKED: REMARK   19  A    between atoms: O_27  and  P_28 
DOCKED: REMARK   20  A    between atoms: P_28  and  O_30 
DOCKED: REMARK   21  A    between atoms: P_28  and  O_31 
DOCKED: REMARK   22  A    between atoms: O_32  and  P_33 
DOCKED: REMARK   23  A    between atoms: P_33  and  O_35 
DOCKED: REMARK   24  A    between atoms: P_33  and  O_36 
DOCKED: USER                              x       y       z     vdW  Elec       q    Type
DOCKED: USER                           _______ _______ _______ _____ _____    ______ ____
DOCKED: ROOT
DOCKED: ATOM      1  C   UNL d   1      15.184   2.897 -12.156 -0.23 +0.09    +0.194 C 
DOCKED: ATOM      2  C   UNL d   1      15.701   3.894 -13.195 -0.11 +0.07    +0.194 C 
DOCKED: ATOM      3  C   UNL d   1      16.422   5.074 -12.539 -0.18 +0.10    +0.194 C 
DOCKED: ATOM      4  C   UNL d   1      17.511   4.644 -11.559 -0.14 +0.13    +0.194 C 
DOCKED: ATOM      5  C   UNL d   1      17.072   3.565 -10.577 -0.09 +0.18    +0.194 C 
DOCKED: ATOM      6  C   UNL d   1      16.297   2.416 -11.225 -0.19 +0.11    +0.194 C 
DOCKED: ENDROOT
DOCKED: BRANCH   1   7
DOCKED: ATOM      7  O   UNL d   1      14.683   1.752 -12.849 -0.21 -0.09    -0.278 OA
DOCKED: BRANCH   7   8
DOCKED: ATOM      8  P   UNL d   1      13.364   1.917 -13.735 -0.18 +0.12    +0.473 P 
DOCKED: ATOM      9  O   UNL d   1      12.583   0.667 -13.943 -0.38 -0.04    -0.228 OA
DOCKED: BRANCH   8  10
DOCKED: ATOM     10  O   UNL d   1      12.536   3.057 -12.986 -0.40 -0.05    -0.303 OA
DOCKED: ATOM     11  H   UNL d   1      11.707   2.683 -12.636 -0.32 -0.02    +0.222 HD
DOCKED: ENDBRANCH   8  10
DOCKED: BRANCH   8  12
DOCKED: ATOM     12  O   UNL d   1      13.842   2.664 -15.053 -0.16 -0.10    -0.303 OA
DOCKED: ATOM     13  H   UNL d   1      14.716   3.104 -14.951 +0.09 +0.06    +0.222 HD
DOCKED: ENDBRANCH   8  12
DOCKED: ENDBRANCH   7   8
DOCKED: ENDBRANCH   1   7
DOCKED: BRANCH   2  14
DOCKED: ATOM     14  O   UNL d   1      16.621   3.225 -14.067 -0.02 -0.08    -0.278 OA
DOCKED: BRANCH  14  15
DOCKED: ATOM     15  P   UNL d   1      16.794   3.843 -15.534 +0.02 +0.11    +0.473 P 
DOCKED: ATOM     16  O   UNL d   1      18.175   4.269 -15.925 -0.00 -0.05    -0.228 OA
DOCKED: BRANCH  15  17
DOCKED: ATOM     17  O   UNL d   1      16.198   2.723 -16.498 -0.01 -0.07    -0.303 OA
DOCKED: ATOM     18  H   UNL d   1      15.667   2.075 -15.998 +0.04 +0.06    +0.222 HD
DOCKED: ENDBRANCH  15  17
DOCKED: BRANCH  15  19
DOCKED: ATOM     19  O   UNL d   1      15.677   4.971 -15.624 -0.03 -0.07    -0.303 OA
DOCKED: ATOM     20  H   UNL d   1      15.973   5.805 -15.217 +0.07 +0.05    +0.222 HD
DOCKED: ENDBRANCH  15  19
DOCKED: ENDBRANCH  14  15
DOCKED: ENDBRANCH   2  14
DOCKED: BRANCH   6  21
DOCKED: ATOM     21  O   UNL d   1      15.673   1.691 -10.167 -0.23 -0.17    -0.278 OA
DOCKED: BRANCH  21  22
DOCKED: ATOM     22  P   UNL d   1      15.930   0.123 -10.022 -0.31 +0.17    +0.473 P 
DOCKED: ATOM     23  O   UNL d   1      14.858  -0.712  -9.408 -0.50 -0.07    -0.228 OA
DOCKED: BRANCH  22  24
DOCKED: ATOM     24  O   UNL d   1      16.321  -0.281 -11.511 -0.13 -0.10    -0.303 OA
DOCKED: ATOM     25  H   UNL d   1      15.538  -0.110 -12.093 +0.09 +0.07    +0.222 HD
DOCKED: ENDBRANCH  22  24
DOCKED: BRANCH  22  26
DOCKED: ATOM     26  O   UNL d   1      17.353   0.093  -9.285 -0.18 -0.11    -0.303 OA
DOCKED: ATOM     27  H   UNL d   1      17.824   0.934  -9.460 +0.08 +0.10    +0.222 HD
DOCKED: ENDBRANCH  22  26
DOCKED: ENDBRANCH  21  22
DOCKED: ENDBRANCH   6  21
DOCKED: BRANCH   3  28
DOCKED: ATOM     28  O   UNL d   1      17.098   5.788 -13.565 -0.06 -0.10    -0.278 OA
DOCKED: BRANCH  28  29
DOCKED: ATOM     29  P   UNL d   1      16.818   7.340 -13.785 -0.19 +0.18    +0.473 P 
DOCKED: ATOM     30  O   UNL d   1      15.453   7.802 -13.425 -0.92 -0.14    -0.228 OA
DOCKED: BRANCH  29  31
DOCKED: ATOM     31  O   UNL d   1      18.037   7.964 -12.957 -0.12 -0.14    -0.303 OA
DOCKED: ATOM     32  H   UNL d   1      18.384   7.276 -12.343 +0.06 +0.11    +0.222 HD
DOCKED: ENDBRANCH  29  31
DOCKED: BRANCH  29  33
DOCKED: ATOM     33  O   UNL d   1      17.274   7.552 -15.296 -0.05 -0.08    -0.303 OA
DOCKED: ATOM     34  H   UNL d   1      17.101   6.721 -15.803 +0.05 +0.05    +0.222 HD
DOCKED: ENDBRANCH  29  33
DOCKED: ENDBRANCH  28  29
DOCKED: ENDBRANCH   3  28
DOCKED: BRANCH   5  35
DOCKED: ATOM     35  O   UNL d   1      18.274   3.014 -10.044 -0.10 -0.21    -0.278 OA
DOCKED: BRANCH  35  36
DOCKED: ATOM     36  P   UNL d   1      19.273   2.201 -10.986 +0.00 +0.19    +0.473 P 
DOCKED: ATOM     37  O   UNL d   1      19.250   0.715 -10.820 -0.02 -0.07    -0.228 OA
DOCKED: BRANCH  36  38
DOCKED: ATOM     38  O   UNL d   1      18.839   2.705 -12.433 -0.00 -0.10    -0.303 OA
DOCKED: ATOM     39  H   UNL d   1      18.073   2.175 -12.741 +0.03 +0.07    +0.222 HD
DOCKED: ENDBRANCH  36  38
DOCKED: BRANCH  36  40
DOCKED: ATOM     40  O   UNL d   1      20.659   2.935 -10.725 -0.00 -0.10    -0.303 OA
DOCKED: ATOM     41  H   UNL d   1      20.543   3.905 -10.612 +0.02 +0.09    +0.222 HD
DOCKED: ENDBRANCH  36  40
DOCKED: ENDBRANCH  35  36
DOCKED: ENDBRANCH   5  35
DOCKED: BRANCH   4  42
DOCKED: ATOM     42  O   UNL d   1      17.856   5.800 -10.788 -0.22 -0.25    -0.278 OA
DOCKED: BRANCH  42  43
DOCKED: ATOM     43  P   UNL d   1      19.391   6.216 -10.666 -0.11 +0.28    +0.473 P 
DOCKED: ATOM     44  O   UNL d   1      19.710   7.671 -10.664 -0.11 -0.12    -0.228 OA
DOCKED: BRANCH  43  45
DOCKED: ATOM     45  O   UNL d   1      19.858   5.445  -9.355 -0.10 -0.21    -0.303 OA
DOCKED: ATOM     46  H   UNL d   1      19.804   4.475  -9.472 +0.04 +0.15    +0.222 HD
DOCKED: ENDBRANCH  43  45
DOCKED: BRANCH  43  47
DOCKED: ATOM     47  O   UNL d   1      20.096   5.354 -11.820 -0.01 -0.11    -0.303 OA
DOCKED: ATOM     48  H   UNL d   1      19.756   4.436 -11.791 +0.03 +0.09    +0.222 HD
DOCKED: ENDBRANCH  43  47
DOCKED: ENDBRANCH  42  43
DOCKED: ENDBRANCH   4  42
DOCKED: TORSDOF 24
DOCKED: TER
DOCKED: ENDMDL
________________________________________________________________________________


	BEGINNING GENETIC ALGORITHM DOCKING 10 of 100
Run: 10 Seed: 806739873 1073429544 [ Run 10 of 100 GA/GALS ]
Beginning LAMARCKIAN GENETIC ALGORITHM (LGA), with a maximum of 25000000 energy evaluations.

Final-Value: -18.930


	FINAL GENETIC ALGORITHM DOCKED STATE
	_______________________________________________


Detailed state:  trans -6.461 16.782 9.896 quatxyzw 0.222439 -0.910270 0.242912 -0.250845 center 0.035 0.082 -0.065 ntor 24 117.9269 118.9046 -155.1486 -51.0481 161.0799 -156.9014 -135.2293 -53.5156 84.4341 -25.3632 93.4952 15.5249 -37.0796 176.1456 102.4052 -9.0698 44.8569 69.9111 -160.2231 24.4180 1.0531 25.0076 -168.2742 179.7349
State:	 -6.461  16.782   9.896   0.230 -0.940  0.251 -150.945    117.93  118.90 -155.15  -51.05  161.08 -156.90 -135.23  -53.52   84.43  -25.36   93.50   15.52  -37.08  176.15  102.41   -9.07   44.86   69.91 -160.22   24.42    1.05   25.01 -168.27  179.73

DOCKED: MODEL       10
DOCKED: USER    Run = 10
DOCKED: USER    DPF = D:/Protein_go_brrr/autodock/final/AncB/IHP/dock.dpf
DOCKED: USER  
DOCKED: USER    Estimated Free Energy of Binding    =   +1.53 kcal/mol  [=(1)+(2)+(3)-(4)]
DOCKED: USER    
DOCKED: USER    (1) Final Intermolecular Energy     =   -5.62 kcal/mol
DOCKED: USER        vdW + Hbond + desolv Energy     =   -5.43 kcal/mol
DOCKED: USER        Electrostatic Energy            =   -0.19 kcal/mol
DOCKED: USER    (2) Final Total Internal Energy     =  -13.30 kcal/mol
DOCKED: USER    (3) Torsional Free Energy           =   +7.16 kcal/mol
DOCKED: USER    (4) Unbound System's Energy  [=(2)] =  -13.30 kcal/mol
DOCKED: USER    
DOCKED: USER    
DOCKED: USER    NEWDPF move IHP_ideal_opt.pdbqt
DOCKED: USER    NEWDPF about 0.035000 0.082000 -0.065000
DOCKED: USER    NEWDPF tran0 -6.460984 16.781713 9.895614
DOCKED: USER    NEWDPF quaternion0 0.222439 -0.910270 0.242912 -0.250845
DOCKED: USER    NEWDPF axisangle0 0.229786 -0.940335 0.250935 -150.944958
DOCKED: USER    NEWDPF quat0 0.229786 -0.940335 0.250935 -150.944958
DOCKED: USER    NEWDPF dihe0 117.93 118.90 -155.15 -51.05 161.08 -156.90 -135.23 -53.52 84.43 -25.36 93.50 15.52 -37.08 176.15 102.41 -9.07 44.86 69.91 -160.22 24.42 1.05 25.01 -168.27 179.73 
DOCKED: USER  keepresnum = 1 
DOCKED: USER  
DOCKED: REMARK  24 active torsions:
DOCKED: REMARK  status: ('A' for Active; 'I' for Inactive)
DOCKED: REMARK    1  A    between atoms: C_1  and  O_7 
DOCKED: REMARK    2  A    between atoms: C_2  and  O_12 
DOCKED: REMARK    3  A    between atoms: C_3  and  O_17 
DOCKED: REMARK    4  A    between atoms: C_4  and  O_22 
DOCKED: REMARK    5  A    between atoms: C_5  and  O_27 
DOCKED: REMARK    6  A    between atoms: C_6  and  O_32 
DOCKED: REMARK    7  A    between atoms: O_7  and  P_8 
DOCKED: REMARK    8  A    between atoms: P_8  and  O_10 
DOCKED: REMARK    9  A    between atoms: P_8  and  O_11 
DOCKED: REMARK   10  A    between atoms: O_12  and  P_13 
DOCKED: REMARK   11  A    between atoms: P_13  and  O_15 
DOCKED: REMARK   12  A    between atoms: P_13  and  O_16 
DOCKED: REMARK   13  A    between atoms: O_17  and  P_18 
DOCKED: REMARK   14  A    between atoms: P_18  and  O_20 
DOCKED: REMARK   15  A    between atoms: P_18  and  O_21 
DOCKED: REMARK   16  A    between atoms: O_22  and  P_23 
DOCKED: REMARK   17  A    between atoms: P_23  and  O_25 
DOCKED: REMARK   18  A    between atoms: P_23  and  O_26 
DOCKED: REMARK   19  A    between atoms: O_27  and  P_28 
DOCKED: REMARK   20  A    between atoms: P_28  and  O_30 
DOCKED: REMARK   21  A    between atoms: P_28  and  O_31 
DOCKED: REMARK   22  A    between atoms: O_32  and  P_33 
DOCKED: REMARK   23  A    between atoms: P_33  and  O_35 
DOCKED: REMARK   24  A    between atoms: P_33  and  O_36 
DOCKED: USER                              x       y       z     vdW  Elec       q    Type
DOCKED: USER                           _______ _______ _______ _____ _____    ______ ____
DOCKED: ROOT
DOCKED: ATOM      1  C   UNL d   1      -7.240  15.294  10.299 -0.22 +0.03    +0.194 C 
DOCKED: ATOM      2  C   UNL d   1      -5.721  15.222  10.139 -0.23 -0.01    +0.194 C 
DOCKED: ATOM      3  C   UNL d   1      -5.241  16.013   8.920 -0.15 -0.03    +0.194 C 
DOCKED: ATOM      4  C   UNL d   1      -5.757  17.450   8.895 -0.04 -0.02    +0.194 C 
DOCKED: ATOM      5  C   UNL d   1      -7.251  17.578   9.165 -0.04 -0.01    +0.194 C 
DOCKED: ATOM      6  C   UNL d   1      -7.741  16.738  10.346 -0.09 +0.01    +0.194 C 
DOCKED: ENDROOT
DOCKED: BRANCH   1   7
DOCKED: ATOM      7  O   UNL d   1      -7.587  14.681  11.543 -0.14 -0.15    -0.278 OA
DOCKED: BRANCH   7   8
DOCKED: ATOM      8  P   UNL d   1      -7.348  15.508  12.889 -0.11 +0.13    +0.473 P 
DOCKED: ATOM      9  O   UNL d   1      -7.100  16.964  12.699 -0.04 +0.00    -0.228 OA
DOCKED: BRANCH   8  10
DOCKED: ATOM     10  O   UNL d   1      -8.643  15.201  13.767 -0.44 -0.27    -0.303 OA
DOCKED: ATOM     11  H   UNL d   1      -9.433  15.194  13.194 +0.02 +0.22    +0.222 HD
DOCKED: ENDBRANCH   8  10
DOCKED: BRANCH   8  12
DOCKED: ATOM     12  O   UNL d   1      -6.219  14.708  13.670 -0.23 +0.11    -0.303 OA
DOCKED: ATOM     13  H   UNL d   1      -5.325  14.816  13.273 +0.02 -0.11    +0.222 HD
DOCKED: ENDBRANCH   8  12
DOCKED: ENDBRANCH   7   8
DOCKED: ENDBRANCH   1   7
DOCKED: BRANCH   2  14
DOCKED: ATOM     14  O   UNL d   1      -5.101  15.768  11.310 -0.12 +0.04    -0.278 OA
DOCKED: BRANCH  14  15
DOCKED: ATOM     15  P   UNL d   1      -3.611  15.275  11.628 -0.16 -0.15    +0.473 P 
DOCKED: ATOM     16  O   UNL d   1      -3.354  14.758  13.008 -0.37 +0.11    -0.228 OA
DOCKED: BRANCH  15  17
DOCKED: ATOM     17  O   UNL d   1      -3.312  14.193  10.498 -0.19 +0.09    -0.303 OA
DOCKED: ATOM     18  H   UNL d   1      -2.661  14.529   9.852 -0.06 -0.11    +0.222 HD
DOCKED: ENDBRANCH  15  17
DOCKED: BRANCH  15  19
DOCKED: ATOM     19  O   UNL d   1      -2.687  16.484  11.165 -0.12 +0.12    -0.303 OA
DOCKED: ATOM     20  H   UNL d   1      -2.163  16.256  10.375 -0.33 -0.12    +0.222 HD
DOCKED: ENDBRANCH  15  19
DOCKED: ENDBRANCH  14  15
DOCKED: ENDBRANCH   2  14
DOCKED: BRANCH   6  21
DOCKED: ATOM     21  O   UNL d   1      -9.163  16.691  10.256 -0.07 -0.03    -0.278 OA
DOCKED: BRANCH  21  22
DOCKED: ATOM     22  P   UNL d   1     -10.047  17.632  11.192 -0.02 +0.05    +0.473 P 
DOCKED: ATOM     23  O   UNL d   1     -11.158  18.406  10.565 -0.01 -0.01    -0.228 OA
DOCKED: BRANCH  22  24
DOCKED: ATOM     24  O   UNL d   1     -10.500  16.622  12.336 -0.05 -0.08    -0.303 OA
DOCKED: ATOM     25  H   UNL d   1      -9.865  16.709  13.092 +0.02 +0.06    +0.222 HD
DOCKED: ENDBRANCH  22  24
DOCKED: BRANCH  22  26
DOCKED: ATOM     26  O   UNL d   1      -8.923  18.497  11.939 -0.00 -0.01    -0.303 OA
DOCKED: ATOM     27  H   UNL d   1      -8.141  18.580  11.357 +0.02 +0.00    +0.222 HD
DOCKED: ENDBRANCH  22  26
DOCKED: ENDBRANCH  21  22
DOCKED: ENDBRANCH   6  21
DOCKED: BRANCH   3  28
DOCKED: ATOM     28  O   UNL d   1      -3.826  16.122   9.010 -0.12 +0.06    -0.278 OA
DOCKED: BRANCH  28  29
DOCKED: ATOM     29  P   UNL d   1      -2.918  15.874   7.725 -0.12 -0.11    +0.473 P 
DOCKED: ATOM     30  O   UNL d   1      -3.405  14.830   6.788 -0.70 +0.05    -0.228 OA
DOCKED: BRANCH  29  31
DOCKED: ATOM     31  O   UNL d   1      -2.819  17.368   7.161 -0.08 +0.09    -0.303 OA
DOCKED: ATOM     32  H   UNL d   1      -3.620  17.552   6.618 +0.06 -0.07    +0.222 HD
DOCKED: ENDBRANCH  29  31
DOCKED: BRANCH  29  33
DOCKED: ATOM     33  O   UNL d   1      -1.480  15.646   8.372 -0.29 +0.10    -0.303 OA
DOCKED: ATOM     34  H   UNL d   1      -1.570  15.631   9.356 -0.41 -0.15    +0.222 HD
DOCKED: ENDBRANCH  29  33
DOCKED: ENDBRANCH  28  29
DOCKED: ENDBRANCH   3  28
DOCKED: BRANCH   5  35
DOCKED: ATOM     35  O   UNL d   1      -7.467  18.946   9.504 -0.01 +0.01    -0.278 OA
DOCKED: BRANCH  35  36
DOCKED: ATOM     36  P   UNL d   1      -6.394  19.737  10.380 +0.00 -0.03    +0.473 P 
DOCKED: ATOM     37  O   UNL d   1      -5.311  20.422   9.609 +0.00 +0.02    -0.228 OA
DOCKED: BRANCH  36  38
DOCKED: ATOM     38  O   UNL d   1      -7.321  20.721  11.222 +0.00 +0.01    -0.303 OA
DOCKED: ATOM     39  H   UNL d   1      -8.253  20.422  11.152 +0.00 -0.01    +0.222 HD
DOCKED: ENDBRANCH  36  38
DOCKED: BRANCH  36  40
DOCKED: ATOM     40  O   UNL d   1      -5.943  18.638  11.438 -0.00 +0.03    -0.303 OA
DOCKED: ATOM     41  H   UNL d   1      -6.673  18.403  12.053 +0.02 -0.01    +0.222 HD
DOCKED: ENDBRANCH  36  40
DOCKED: ENDBRANCH  35  36
DOCKED: ENDBRANCH   5  35
DOCKED: BRANCH   4  42
DOCKED: ATOM     42  O   UNL d   1      -5.523  17.951   7.575 -0.02 +0.05    -0.278 OA
DOCKED: BRANCH  42  43
DOCKED: ATOM     43  P   UNL d   1      -6.363  17.348   6.361 -0.03 -0.12    +0.473 P 
DOCKED: ATOM     44  O   UNL d   1      -7.289  18.268   5.643 -0.02 +0.05    -0.228 OA
DOCKED: BRANCH  43  45
DOCKED: ATOM     45  O   UNL d   1      -5.235  16.710   5.438 -0.07 +0.12    -0.303 OA
DOCKED: ATOM     46  H   UNL d   1      -4.412  16.545   5.941 +0.09 -0.08    +0.222 HD
DOCKED: ENDBRANCH  43  45
DOCKED: BRANCH  43  47
DOCKED: ATOM     47  O   UNL d   1      -7.041  16.042   6.997 -0.11 +0.10    -0.303 OA
DOCKED: ATOM     48  H   UNL d   1      -7.390  15.477   6.277 -0.48 -0.14    +0.222 HD
DOCKED: ENDBRANCH  43  47
DOCKED: ENDBRANCH  42  43
DOCKED: ENDBRANCH   4  42
DOCKED: TORSDOF 24
DOCKED: TER
DOCKED: ENDMDL
________________________________________________________________________________


	BEGINNING GENETIC ALGORITHM DOCKING 11 of 100
Run: 11 Seed: 2011851082 2142807389 [ Run 11 of 100 GA/GALS ]
Beginning LAMARCKIAN GENETIC ALGORITHM (LGA), with a maximum of 25000000 energy evaluations.

Final-Value: -18.306


	FINAL GENETIC ALGORITHM DOCKED STATE
	_______________________________________________


Detailed state:  trans 4.731 19.120 -7.543 quatxyzw -0.263210 -0.210995 0.866862 -0.367086 center 0.035 0.082 -0.065 ntor 24 102.2040 39.8371 -168.7320 -42.2528 0.2564 -147.9259 -140.4642 -53.5390 102.0261 15.4814 117.3070 -140.7773 153.3633 173.6265 -60.7337 -138.6332 116.3016 -12.8986 50.9349 19.0508 -179.4777 -1.1411 -3.5349 -174.8816
State:	  4.731  19.120  -7.543  -0.283 -0.227  0.932 -136.928    102.20   39.84 -168.73  -42.25    0.26 -147.93 -140.46  -53.54  102.03   15.48  117.31 -140.78  153.36  173.63  -60.73 -138.63  116.30  -12.90   50.93   19.05 -179.48   -1.14   -3.53 -174.88

DOCKED: MODEL       11
DOCKED: USER    Run = 11
DOCKED: USER    DPF = D:/Protein_go_brrr/autodock/final/AncB/IHP/dock.dpf
DOCKED: USER  
DOCKED: USER    Estimated Free Energy of Binding    =   +3.06 kcal/mol  [=(1)+(2)+(3)-(4)]
DOCKED: USER    
DOCKED: USER    (1) Final Intermolecular Energy     =   -4.10 kcal/mol
DOCKED: USER        vdW + Hbond + desolv Energy     =   -3.83 kcal/mol
DOCKED: USER        Electrostatic Energy            =   -0.27 kcal/mol
DOCKED: USER    (2) Final Total Internal Energy     =  -14.21 kcal/mol
DOCKED: USER    (3) Torsional Free Energy           =   +7.16 kcal/mol
DOCKED: USER    (4) Unbound System's Energy  [=(2)] =  -14.21 kcal/mol
DOCKED: USER    
DOCKED: USER    
DOCKED: USER    NEWDPF move IHP_ideal_opt.pdbqt
DOCKED: USER    NEWDPF about 0.035000 0.082000 -0.065000
DOCKED: USER    NEWDPF tran0 4.730582 19.119911 -7.542618
DOCKED: USER    NEWDPF quaternion0 -0.263210 -0.210995 0.866862 -0.367086
DOCKED: USER    NEWDPF axisangle0 -0.282965 -0.226831 0.931922 -136.927980
DOCKED: USER    NEWDPF quat0 -0.282965 -0.226831 0.931922 -136.927980
DOCKED: USER    NEWDPF dihe0 102.20 39.84 -168.73 -42.25 0.26 -147.93 -140.46 -53.54 102.03 15.48 117.31 -140.78 153.36 173.63 -60.73 -138.63 116.30 -12.90 50.93 19.05 -179.48 -1.14 -3.53 -174.88 
DOCKED: USER  keepresnum = 1 
DOCKED: USER  
DOCKED: REMARK  24 active torsions:
DOCKED: REMARK  status: ('A' for Active; 'I' for Inactive)
DOCKED: REMARK    1  A    between atoms: C_1  and  O_7 
DOCKED: REMARK    2  A    between atoms: C_2  and  O_12 
DOCKED: REMARK    3  A    between atoms: C_3  and  O_17 
DOCKED: REMARK    4  A    between atoms: C_4  and  O_22 
DOCKED: REMARK    5  A    between atoms: C_5  and  O_27 
DOCKED: REMARK    6  A    between atoms: C_6  and  O_32 
DOCKED: REMARK    7  A    between atoms: O_7  and  P_8 
DOCKED: REMARK    8  A    between atoms: P_8  and  O_10 
DOCKED: REMARK    9  A    between atoms: P_8  and  O_11 
DOCKED: REMARK   10  A    between atoms: O_12  and  P_13 
DOCKED: REMARK   11  A    between atoms: P_13  and  O_15 
DOCKED: REMARK   12  A    between atoms: P_13  and  O_16 
DOCKED: REMARK   13  A    between atoms: O_17  and  P_18 
DOCKED: REMARK   14  A    between atoms: P_18  and  O_20 
DOCKED: REMARK   15  A    between atoms: P_18  and  O_21 
DOCKED: REMARK   16  A    between atoms: O_22  and  P_23 
DOCKED: REMARK   17  A    between atoms: P_23  and  O_25 
DOCKED: REMARK   18  A    between atoms: P_23  and  O_26 
DOCKED: REMARK   19  A    between atoms: O_27  and  P_28 
DOCKED: REMARK   20  A    between atoms: P_28  and  O_30 
DOCKED: REMARK   21  A    between atoms: P_28  and  O_31 
DOCKED: REMARK   22  A    between atoms: O_32  and  P_33 
DOCKED: REMARK   23  A    between atoms: P_33  and  O_35 
DOCKED: REMARK   24  A    between atoms: P_33  and  O_36 
DOCKED: USER                              x       y       z     vdW  Elec       q    Type
DOCKED: USER                           _______ _______ _______ _____ _____    ______ ____
DOCKED: ROOT
DOCKED: ATOM      1  C   UNL d   1       3.972  20.490  -6.813 -0.00 +0.03    +0.194 C 
DOCKED: ATOM      2  C   UNL d   1       5.359  20.136  -6.272 -0.02 +0.02    +0.194 C 
DOCKED: ATOM      3  C   UNL d   1       5.521  18.628  -6.072 -0.10 +0.02    +0.194 C 
DOCKED: ATOM      4  C   UNL d   1       5.160  17.814  -7.312 -0.17 +0.02    +0.194 C 
DOCKED: ATOM      5  C   UNL d   1       3.836  18.212  -7.952 -0.11 +0.05    +0.194 C 
DOCKED: ATOM      6  C   UNL d   1       3.648  19.724  -8.096 -0.02 +0.04    +0.194 C 
DOCKED: ENDROOT
DOCKED: BRANCH   1   7
DOCKED: ATOM      7  O   UNL d   1       3.960  21.883  -7.134 +0.00 -0.03    -0.278 OA
DOCKED: BRANCH   7   8
DOCKED: ATOM      8  P   UNL d   1       3.965  22.938  -5.934 +0.01 +0.04    +0.473 P 
DOCKED: ATOM      9  O   UNL d   1       3.384  24.268  -6.262 +0.00 -0.02    -0.228 OA
DOCKED: BRANCH   8  10
DOCKED: ATOM     10  O   UNL d   1       3.193  22.188  -4.757 +0.00 -0.02    -0.303 OA
DOCKED: ATOM     11  H   UNL d   1       2.313  21.907  -5.070 +0.00 +0.03    +0.222 HD
DOCKED: ENDBRANCH   8  10
DOCKED: BRANCH   8  12
DOCKED: ATOM     12  O   UNL d   1       5.461  22.947  -5.399 +0.00 -0.02    -0.303 OA
DOCKED: ATOM     13  H   UNL d   1       6.030  22.273  -5.833 +0.00 +0.01    +0.222 HD
DOCKED: ENDBRANCH   8  12
DOCKED: ENDBRANCH   7   8
DOCKED: ENDBRANCH   1   7
DOCKED: BRANCH   2  14
DOCKED: ATOM     14  O   UNL d   1       6.351  20.582  -7.205 -0.01 -0.03    -0.278 OA
DOCKED: BRANCH  14  15
DOCKED: ATOM     15  P   UNL d   1       7.776  20.986  -6.596 -0.00 +0.04    +0.473 P 
DOCKED: ATOM     16  O   UNL d   1       8.343  22.302  -7.028 -0.00 -0.02    -0.228 OA
DOCKED: BRANCH  15  17
DOCKED: ATOM     17  O   UNL d   1       7.564  20.893  -5.019 -0.01 -0.02    -0.303 OA
DOCKED: ATOM     18  H   UNL d   1       7.854  20.026  -4.676 +0.03 +0.01    +0.222 HD
DOCKED: ENDBRANCH  15  17
DOCKED: BRANCH  15  19
DOCKED: ATOM     19  O   UNL d   1       8.698  19.719  -6.869 -0.05 -0.03    -0.303 OA
DOCKED: ATOM     20  H   UNL d   1       8.814  19.178  -6.067 +0.05 +0.02    +0.222 HD
DOCKED: ENDBRANCH  15  19
DOCKED: ENDBRANCH  14  15
DOCKED: ENDBRANCH   2  14
DOCKED: BRANCH   6  21
DOCKED: ATOM     21  O   UNL d   1       2.267  19.942  -8.376 -0.01 -0.09    -0.278 OA
DOCKED: BRANCH  21  22
DOCKED: ATOM     22  P   UNL d   1       1.199  19.878  -7.193 -0.04 +0.29    +0.473 P 
DOCKED: ATOM     23  O   UNL d   1       1.476  18.970  -6.042 -0.49 -0.25    -0.228 OA
DOCKED: BRANCH  22  24
DOCKED: ATOM     24  O   UNL d   1       1.048  21.415  -6.808 -0.00 -0.08    -0.303 OA
DOCKED: ATOM     25  H   UNL d   1       1.911  21.726  -6.435 +0.01 +0.04    +0.222 HD
DOCKED: ENDBRANCH  22  24
DOCKED: BRANCH  22  26
DOCKED: ATOM     26  O   UNL d   1      -0.161  19.602  -7.996 -0.07 -0.23    -0.303 OA
DOCKED: ATOM     27  H   UNL d   1       0.022  18.990  -8.737 +0.02 +0.17    +0.222 HD
DOCKED: ENDBRANCH  22  26
DOCKED: ENDBRANCH  21  22
DOCKED: ENDBRANCH   6  21
DOCKED: BRANCH   3  28
DOCKED: ATOM     28  O   UNL d   1       6.901  18.373  -5.841 -0.14 -0.02    -0.278 OA
DOCKED: BRANCH  28  29
DOCKED: ATOM     29  P   UNL d   1       7.406  17.930  -4.397 -0.14 +0.02    +0.473 P 
DOCKED: ATOM     30  O   UNL d   1       8.871  18.035  -4.171 -0.16 -0.02    -0.228 OA
DOCKED: BRANCH  29  31
DOCKED: ATOM     31  O   UNL d   1       6.463  18.840  -3.479 -0.03 -0.00    -0.303 OA
DOCKED: ATOM     32  H   UNL d   1       6.909  19.705  -3.331 +0.02 +0.00    +0.222 HD
DOCKED: ENDBRANCH  29  31
DOCKED: BRANCH  29  33
DOCKED: ATOM     33  O   UNL d   1       6.756  16.484  -4.245 -0.20 +0.00    -0.303 OA
DOCKED: ATOM     34  H   UNL d   1       6.315  16.239  -5.095 -0.06 -0.05    +0.222 HD
DOCKED: ENDBRANCH  29  33
DOCKED: ENDBRANCH  28  29
DOCKED: ENDBRANCH   3  28
DOCKED: BRANCH   5  35
DOCKED: ATOM     35  O   UNL d   1       3.863  17.665  -9.269 -0.13 -0.06    -0.278 OA
DOCKED: BRANCH  35  36
DOCKED: ATOM     36  P   UNL d   1       2.665  16.746  -9.783 -0.18 +0.16    +0.473 P 
DOCKED: ATOM     37  O   UNL d   1       2.556  16.599 -11.267 -0.18 -0.07    -0.228 OA
DOCKED: BRANCH  36  38
DOCKED: ATOM     38  O   UNL d   1       2.945  15.382  -9.009 -0.30 -0.10    -0.303 OA
DOCKED: ATOM     39  H   UNL d   1       3.355  15.584  -8.140 +0.12 +0.07    +0.222 HD
DOCKED: ENDBRANCH  36  38
DOCKED: BRANCH  36  40
DOCKED: ATOM     40  O   UNL d   1       1.412  17.366  -9.025 -0.12 -0.21    -0.303 OA
DOCKED: ATOM     41  H   UNL d   1       1.675  17.809  -8.188 +0.04 +0.20    +0.222 HD
DOCKED: ENDBRANCH  36  40
DOCKED: ENDBRANCH  35  36
DOCKED: ENDBRANCH   5  35
DOCKED: BRANCH   4  42
DOCKED: ATOM     42  O   UNL d   1       5.031  16.452  -6.891 -0.16 +0.01    -0.278 OA
DOCKED: BRANCH  42  43
DOCKED: ATOM     43  P   UNL d   1       3.743  16.021  -6.055 -0.16 +0.12    +0.473 P 
DOCKED: ATOM     44  O   UNL d   1       2.463  16.722  -6.357 -0.34 -0.22    -0.228 OA
DOCKED: BRANCH  43  45
DOCKED: ATOM     45  O   UNL d   1       3.691  14.447  -6.279 -0.30 -0.04    -0.303 OA
DOCKED: ATOM     46  H   UNL d   1       4.577  14.043  -6.186 -0.36 -0.05    +0.222 HD
DOCKED: ENDBRANCH  43  45
DOCKED: BRANCH  43  47
DOCKED: ATOM     47  O   UNL d   1       4.243  16.118  -4.535 -0.15 -0.02    -0.303 OA
DOCKED: ATOM     48  H   UNL d   1       4.831  16.895  -4.438 +0.08 +0.01    +0.222 HD
DOCKED: ENDBRANCH  43  47
DOCKED: ENDBRANCH  42  43
DOCKED: ENDBRANCH   4  42
DOCKED: TORSDOF 24
DOCKED: TER
DOCKED: ENDMDL
________________________________________________________________________________


	BEGINNING GENETIC ALGORITHM DOCKING 12 of 100
Run: 12 Seed: 1905228848 2059473881 [ Run 12 of 100 GA/GALS ]
Beginning LAMARCKIAN GENETIC ALGORITHM (LGA), with a maximum of 25000000 energy evaluations.

Final-Value: -17.521


	FINAL GENETIC ALGORITHM DOCKED STATE
	_______________________________________________


Detailed state:  trans 0.365 4.335 -16.506 quatxyzw 0.029837 -0.136938 -0.565872 -0.812494 center 0.035 0.082 -0.065 ntor 24 -106.4983 -17.4806 148.3956 -18.8150 41.2714 -138.8775 -89.7870 -0.6712 29.1544 100.7635 -25.9581 179.4392 -176.3503 172.7707 136.3359 159.7021 -72.7832 158.9600 62.4404 12.2616 -15.6724 19.6549 -178.3658 -177.9516
State:	  0.365   4.335 -16.506   0.051 -0.235 -0.971 -71.319   -106.50  -17.48  148.40  -18.81   41.27 -138.88  -89.79   -0.67   29.15  100.76  -25.96  179.44 -176.35  172.77  136.34  159.70  -72.78  158.96   62.44   12.26  -15.67   19.65 -178.37 -177.95

DOCKED: MODEL       12
DOCKED: USER    Run = 12
DOCKED: USER    DPF = D:/Protein_go_brrr/autodock/final/AncB/IHP/dock.dpf
DOCKED: USER  
DOCKED: USER    Estimated Free Energy of Binding    =   +1.73 kcal/mol  [=(1)+(2)+(3)-(4)]
DOCKED: USER    
DOCKED: USER    (1) Final Intermolecular Energy     =   -5.43 kcal/mol
DOCKED: USER        vdW + Hbond + desolv Energy     =   -5.48 kcal/mol
DOCKED: USER        Electrostatic Energy            =   +0.06 kcal/mol
DOCKED: USER    (2) Final Total Internal Energy     =  -12.09 kcal/mol
DOCKED: USER    (3) Torsional Free Energy           =   +7.16 kcal/mol
DOCKED: USER    (4) Unbound System's Energy  [=(2)] =  -12.09 kcal/mol
DOCKED: USER    
DOCKED: USER    
DOCKED: USER    NEWDPF move IHP_ideal_opt.pdbqt
DOCKED: USER    NEWDPF about 0.035000 0.082000 -0.065000
DOCKED: USER    NEWDPF tran0 0.364834 4.334727 -16.505997
DOCKED: USER    NEWDPF quaternion0 0.029837 -0.136938 -0.565872 -0.812494
DOCKED: USER    NEWDPF axisangle0 0.051181 -0.234897 -0.970672 -71.319333
DOCKED: USER    NEWDPF quat0 0.051181 -0.234897 -0.970672 -71.319333
DOCKED: USER    NEWDPF dihe0 -106.50 -17.48 148.40 -18.81 41.27 -138.88 -89.79 -0.67 29.15 100.76 -25.96 179.44 -176.35 172.77 136.34 159.70 -72.78 158.96 62.44 12.26 -15.67 19.65 -178.37 -177.95 
DOCKED: USER  keepresnum = 1 
DOCKED: USER  
DOCKED: REMARK  24 active torsions:
DOCKED: REMARK  status: ('A' for Active; 'I' for Inactive)
DOCKED: REMARK    1  A    between atoms: C_1  and  O_7 
DOCKED: REMARK    2  A    between atoms: C_2  and  O_12 
DOCKED: REMARK    3  A    between atoms: C_3  and  O_17 
DOCKED: REMARK    4  A    between atoms: C_4  and  O_22 
DOCKED: REMARK    5  A    between atoms: C_5  and  O_27 
DOCKED: REMARK    6  A    between atoms: C_6  and  O_32 
DOCKED: REMARK    7  A    between atoms: O_7  and  P_8 
DOCKED: REMARK    8  A    between atoms: P_8  and  O_10 
DOCKED: REMARK    9  A    between atoms: P_8  and  O_11 
DOCKED: REMARK   10  A    between atoms: O_12  and  P_13 
DOCKED: REMARK   11  A    between atoms: P_13  and  O_15 
DOCKED: REMARK   12  A    between atoms: P_13  and  O_16 
DOCKED: REMARK   13  A    between atoms: O_17  and  P_18 
DOCKED: REMARK   14  A    between atoms: P_18  and  O_20 
DOCKED: REMARK   15  A    between atoms: P_18  and  O_21 
DOCKED: REMARK   16  A    between atoms: O_22  and  P_23 
DOCKED: REMARK   17  A    between atoms: P_23  and  O_25 
DOCKED: REMARK   18  A    between atoms: P_23  and  O_26 
DOCKED: REMARK   19  A    between atoms: O_27  and  P_28 
DOCKED: REMARK   20  A    between atoms: P_28  and  O_30 
DOCKED: REMARK   21  A    between atoms: P_28  and  O_31 
DOCKED: REMARK   22  A    between atoms: O_32  and  P_33 
DOCKED: REMARK   23  A    between atoms: P_33  and  O_35 
DOCKED: REMARK   24  A    between atoms: P_33  and  O_36 
DOCKED: USER                              x       y       z     vdW  Elec       q    Type
DOCKED: USER                           _______ _______ _______ _____ _____    ______ ____
DOCKED: ROOT
DOCKED: ATOM      1  C   UNL d   1      -0.244   2.939 -15.690 -0.09 +0.18    +0.194 C 
DOCKED: ATOM      2  C   UNL d   1      -1.284   3.770 -16.444 -0.06 +0.23    +0.194 C 
DOCKED: ATOM      3  C   UNL d   1      -1.077   5.270 -16.226 -0.07 +0.25    +0.194 C 
DOCKED: ATOM      4  C   UNL d   1       0.350   5.729 -16.518 -0.10 +0.15    +0.194 C 
DOCKED: ATOM      5  C   UNL d   1       1.425   4.858 -15.878 -0.17 +0.13    +0.194 C 
DOCKED: ATOM      6  C   UNL d   1       1.184   3.356 -16.044 -0.11 +0.13    +0.194 C 
DOCKED: ENDROOT
DOCKED: BRANCH   1   7
DOCKED: ATOM      7  O   UNL d   1      -0.397   1.572 -16.080 -0.02 -0.23    -0.278 OA
DOCKED: BRANCH   7   8
DOCKED: ATOM      8  P   UNL d   1      -1.798   0.857 -15.805 -0.03 +0.54    +0.473 P 
DOCKED: ATOM      9  O   UNL d   1      -1.720  -0.399 -15.010 -0.60 -0.40    -0.228 OA
DOCKED: BRANCH   8  10
DOCKED: ATOM     10  O   UNL d   1      -2.680   1.988 -15.107 -0.37 -0.53    -0.303 OA
DOCKED: ATOM     11  H   UNL d   1      -3.230   2.435 -15.778 +0.02 +0.40    +0.222 HD
DOCKED: ENDBRANCH   8  10
DOCKED: BRANCH   8  12
DOCKED: ATOM     12  O   UNL d   1      -2.486   0.733 -17.232 -0.01 -0.27    -0.303 OA
DOCKED: ATOM     13  H   UNL d   1      -2.670   1.605 -17.648 +0.01 +0.18    +0.222 HD
DOCKED: ENDBRANCH   8  12
DOCKED: ENDBRANCH   7   8
DOCKED: ENDBRANCH   1   7
DOCKED: BRANCH   2  14
DOCKED: ATOM     14  O   UNL d   1      -1.176   3.493 -17.846 -0.00 -0.21    -0.278 OA
DOCKED: BRANCH  14  15
DOCKED: ATOM     15  P   UNL d   1      -2.544   3.468 -18.678 +0.01 +0.32    +0.473 P 
DOCKED: ATOM     16  O   UNL d   1      -2.758   2.296 -19.584 +0.00 -0.12    -0.228 OA
DOCKED: BRANCH  15  17
DOCKED: ATOM     17  O   UNL d   1      -3.676   3.604 -17.566 -0.03 -0.32    -0.303 OA
DOCKED: ATOM     18  H   UNL d   1      -3.513   4.375 -16.990 +0.00 +0.34    +0.222 HD
DOCKED: ENDBRANCH  15  17
DOCKED: BRANCH  15  19
DOCKED: ATOM     19  O   UNL d   1      -2.609   4.896 -19.376 +0.00 -0.17    -0.303 OA
DOCKED: ATOM     20  H   UNL d   1      -2.901   5.588 -18.754 +0.01 +0.14    +0.222 HD
DOCKED: ENDBRANCH  15  19
DOCKED: ENDBRANCH  14  15
DOCKED: ENDBRANCH   2  14
DOCKED: BRANCH   6  21
DOCKED: ATOM     21  O   UNL d   1       2.053   2.697 -15.125 -0.15 -0.15    -0.278 OA
DOCKED: BRANCH  21  22
DOCKED: ATOM     22  P   UNL d   1       3.180   1.708 -15.670 -0.11 +0.20    +0.473 P 
DOCKED: ATOM     23  O   UNL d   1       4.255   1.278 -14.731 -0.32 -0.06    -0.228 OA
DOCKED: BRANCH  22  24
DOCKED: ATOM     24  O   UNL d   1       2.308   0.522 -16.275 -0.03 -0.14    -0.303 OA
DOCKED: ATOM     25  H   UNL d   1       1.432   0.516 -15.812 +0.06 +0.12    +0.222 HD
DOCKED: ENDBRANCH  22  24
DOCKED: BRANCH  22  26
DOCKED: ATOM     26  O   UNL d   1       3.667   2.470 -16.995 -0.00 -0.14    -0.303 OA
DOCKED: ATOM     27  H   UNL d   1       3.816   3.415 -16.786 -0.27 +0.07    +0.222 HD
DOCKED: ENDBRANCH  22  26
DOCKED: ENDBRANCH  21  22
DOCKED: ENDBRANCH   6  21
DOCKED: BRANCH   3  28
DOCKED: ATOM     28  O   UNL d   1      -1.893   5.956 -17.166 -0.04 -0.28    -0.278 OA
DOCKED: BRANCH  28  29
DOCKED: ATOM     29  P   UNL d   1      -2.856   7.131 -16.689 -0.03 +0.50    +0.473 P 
DOCKED: ATOM     30  O   UNL d   1      -2.823   8.364 -17.517 -0.01 -0.13    -0.228 OA
DOCKED: BRANCH  29  31
DOCKED: ATOM     31  O   UNL d   1      -4.246   6.342 -16.618 -0.58 -0.46    -0.303 OA
DOCKED: ATOM     32  H   UNL d   1      -4.287   5.709 -17.372 +0.01 +0.25    +0.222 HD
DOCKED: ENDBRANCH  29  31
DOCKED: BRANCH  29  33
DOCKED: ATOM     33  O   UNL d   1      -2.460   7.285 -15.154 -0.12 -0.45    -0.303 OA
DOCKED: ATOM     34  H   UNL d   1      -1.496   7.492 -15.090 +0.07 +0.24    +0.222 HD
DOCKED: ENDBRANCH  29  33
DOCKED: ENDBRANCH  28  29
DOCKED: ENDBRANCH   3  28
DOCKED: BRANCH   5  35
DOCKED: ATOM     35  O   UNL d   1       2.634   5.168 -16.568 -0.22 -0.18    -0.278 OA
DOCKED: BRANCH  35  36
DOCKED: ATOM     36  P   UNL d   1       2.664   5.211 -18.162 -0.15 +0.35    +0.473 P 
DOCKED: ATOM     37  O   UNL d   1       1.674   4.324 -18.849 -0.04 -0.13    -0.228 OA
DOCKED: BRANCH  36  38
DOCKED: ATOM     38  O   UNL d   1       2.462   6.764 -18.450 -0.11 -0.33    -0.303 OA
DOCKED: ATOM     39  H   UNL d   1       1.787   7.120 -17.833 +0.06 +0.20    +0.222 HD
DOCKED: ENDBRANCH  36  38
DOCKED: BRANCH  36  40
DOCKED: ATOM     40  O   UNL d   1       4.202   4.959 -18.480 -0.21 -0.24    -0.303 OA
DOCKED: ATOM     41  H   UNL d   1       4.513   4.101 -18.117 -0.46 +0.06    +0.222 HD
DOCKED: ENDBRANCH  36  40
DOCKED: ENDBRANCH  35  36
DOCKED: ENDBRANCH   5  35
DOCKED: BRANCH   4  42
DOCKED: ATOM     42  O   UNL d   1       0.486   7.041 -15.962 -0.12 -0.21    -0.278 OA
DOCKED: BRANCH  42  43
DOCKED: ATOM     43  P   UNL d   1       0.529   7.206 -14.376 -0.27 +0.35    +0.473 P 
DOCKED: ATOM     44  O   UNL d   1       0.109   8.519 -13.811 -0.10 -0.14    -0.228 OA
DOCKED: BRANCH  43  45
DOCKED: ATOM     45  O   UNL d   1      -0.342   5.973 -13.873 -0.59 -0.37    -0.303 OA
DOCKED: ATOM     46  H   UNL d   1      -1.257   6.245 -13.657 +0.10 +0.40    +0.222 HD
DOCKED: ENDBRANCH  43  45
DOCKED: BRANCH  43  47
DOCKED: ATOM     47  O   UNL d   1       2.013   6.733 -13.999 -0.35 -0.18    -0.303 OA
DOCKED: ATOM     48  H   UNL d   1       2.478   6.451 -14.813 +0.12 +0.15    +0.222 HD
DOCKED: ENDBRANCH  43  47
DOCKED: ENDBRANCH  42  43
DOCKED: ENDBRANCH   4  42
DOCKED: TORSDOF 24
DOCKED: TER
DOCKED: ENDMDL
________________________________________________________________________________


	BEGINNING GENETIC ALGORITHM DOCKING 13 of 100
Run: 13 Seed: 2077250457 1442504770 [ Run 13 of 100 GA/GALS ]
Beginning LAMARCKIAN GENETIC ALGORITHM (LGA), with a maximum of 25000000 energy evaluations.

Final-Value: -18.665


	FINAL GENETIC ALGORITHM DOCKED STATE
	_______________________________________________


Detailed state:  trans 15.216 -3.673 3.668 quatxyzw 0.416907 -0.166364 0.842533 -0.297742 center 0.035 0.082 -0.065 ntor 24 -145.7903 -33.2327 152.7386 3.6826 88.5566 135.0691 -85.5533 -1.4109 79.4101 102.2235 -19.6947 -134.2465 37.1656 -177.0604 -98.1440 4.6959 126.8139 -25.9929 -13.4814 6.6208 -19.1164 -10.0384 -3.2508 170.0573
State:	 15.216  -3.673   3.668   0.437 -0.174  0.883 -145.356   -145.79  -33.23  152.74    3.68   88.56  135.07  -85.55   -1.41   79.41  102.22  -19.69 -134.25   37.17 -177.06  -98.14    4.70  126.81  -25.99  -13.48    6.62  -19.12  -10.04   -3.25  170.06

DOCKED: MODEL       13
DOCKED: USER    Run = 13
DOCKED: USER    DPF = D:/Protein_go_brrr/autodock/final/AncB/IHP/dock.dpf
DOCKED: USER  
DOCKED: USER    Estimated Free Energy of Binding    =   +3.58 kcal/mol  [=(1)+(2)+(3)-(4)]
DOCKED: USER    
DOCKED: USER    (1) Final Intermolecular Energy     =   -3.58 kcal/mol
DOCKED: USER        vdW + Hbond + desolv Energy     =   -3.74 kcal/mol
DOCKED: USER        Electrostatic Energy            =   +0.16 kcal/mol
DOCKED: USER    (2) Final Total Internal Energy     =  -15.09 kcal/mol
DOCKED: USER    (3) Torsional Free Energy           =   +7.16 kcal/mol
DOCKED: USER    (4) Unbound System's Energy  [=(2)] =  -15.09 kcal/mol
DOCKED: USER    
DOCKED: USER    
DOCKED: USER    NEWDPF move IHP_ideal_opt.pdbqt
DOCKED: USER    NEWDPF about 0.035000 0.082000 -0.065000
DOCKED: USER    NEWDPF tran0 15.215750 -3.673317 3.668408
DOCKED: USER    NEWDPF quaternion0 0.416907 -0.166364 0.842533 -0.297742
DOCKED: USER    NEWDPF axisangle0 0.436713 -0.174267 0.882560 -145.355981
DOCKED: USER    NEWDPF quat0 0.436713 -0.174267 0.882560 -145.355981
DOCKED: USER    NEWDPF dihe0 -145.79 -33.23 152.74 3.68 88.56 135.07 -85.55 -1.41 79.41 102.22 -19.69 -134.25 37.17 -177.06 -98.14 4.70 126.81 -25.99 -13.48 6.62 -19.12 -10.04 -3.25 170.06 
DOCKED: USER  keepresnum = 1 
DOCKED: USER  
DOCKED: REMARK  24 active torsions:
DOCKED: REMARK  status: ('A' for Active; 'I' for Inactive)
DOCKED: REMARK    1  A    between atoms: C_1  and  O_7 
DOCKED: REMARK    2  A    between atoms: C_2  and  O_12 
DOCKED: REMARK    3  A    between atoms: C_3  and  O_17 
DOCKED: REMARK    4  A    between atoms: C_4  and  O_22 
DOCKED: REMARK    5  A    between atoms: C_5  and  O_27 
DOCKED: REMARK    6  A    between atoms: C_6  and  O_32 
DOCKED: REMARK    7  A    between atoms: O_7  and  P_8 
DOCKED: REMARK    8  A    between atoms: P_8  and  O_10 
DOCKED: REMARK    9  A    between atoms: P_8  and  O_11 
DOCKED: REMARK   10  A    between atoms: O_12  and  P_13 
DOCKED: REMARK   11  A    between atoms: P_13  and  O_15 
DOCKED: REMARK   12  A    between atoms: P_13  and  O_16 
DOCKED: REMARK   13  A    between atoms: O_17  and  P_18 
DOCKED: REMARK   14  A    between atoms: P_18  and  O_20 
DOCKED: REMARK   15  A    between atoms: P_18  and  O_21 
DOCKED: REMARK   16  A    between atoms: O_22  and  P_23 
DOCKED: REMARK   17  A    between atoms: P_23  and  O_25 
DOCKED: REMARK   18  A    between atoms: P_23  and  O_26 
DOCKED: REMARK   19  A    between atoms: O_27  and  P_28 
DOCKED: REMARK   20  A    between atoms: P_28  and  O_30 
DOCKED: REMARK   21  A    between atoms: P_28  and  O_31 
DOCKED: REMARK   22  A    between atoms: O_32  and  P_33 
DOCKED: REMARK   23  A    between atoms: P_33  and  O_35 
DOCKED: REMARK   24  A    between atoms: P_33  and  O_36 
DOCKED: USER                              x       y       z     vdW  Elec       q    Type
DOCKED: USER                           _______ _______ _______ _____ _____    ______ ____
DOCKED: ROOT
DOCKED: ATOM      1  C   UNL d   1      15.667  -2.955   5.174 -0.10 +0.02    +0.194 C 
DOCKED: ATOM      2  C   UNL d   1      16.552  -2.596   3.979 -0.14 +0.01    +0.194 C 
DOCKED: ATOM      3  C   UNL d   1      16.859  -3.820   3.113 -0.13 +0.01    +0.194 C 
DOCKED: ATOM      4  C   UNL d   1      15.609  -4.590   2.695 -0.16 +0.01    +0.194 C 
DOCKED: ATOM      5  C   UNL d   1      14.641  -4.870   3.838 -0.15 +0.01    +0.194 C 
DOCKED: ATOM      6  C   UNL d   1      14.382  -3.662   4.739 -0.16 +0.02    +0.194 C 
DOCKED: ENDROOT
DOCKED: BRANCH   1   7
DOCKED: ATOM      7  O   UNL d   1      15.286  -1.742   5.827 -0.11 -0.03    -0.278 OA
DOCKED: BRANCH   7   8
DOCKED: ATOM      8  P   UNL d   1      15.347  -1.687   7.422 -0.02 +0.03    +0.473 P 
DOCKED: ATOM      9  O   UNL d   1      16.654  -1.258   7.989 -0.01 -0.01    -0.228 OA
DOCKED: BRANCH   8  10
DOCKED: ATOM     10  O   UNL d   1      14.142  -0.722   7.823 -0.04 -0.02    -0.303 OA
DOCKED: ATOM     11  H   UNL d   1      13.309  -1.068   7.451 +0.04 +0.02    +0.222 HD
DOCKED: ENDBRANCH   8  10
DOCKED: BRANCH   8  12
DOCKED: ATOM     12  O   UNL d   1      14.813  -3.104   7.905 -0.00 -0.02    -0.303 OA
DOCKED: ATOM     13  H   UNL d   1      13.833  -3.179   7.870 +0.03 +0.01    +0.222 HD
DOCKED: ENDBRANCH   8  12
DOCKED: ENDBRANCH   7   8
DOCKED: ENDBRANCH   1   7
DOCKED: BRANCH   2  14
DOCKED: ATOM     14  O   UNL d   1      15.875  -1.625   3.171 -0.20 -0.02    -0.278 OA
DOCKED: BRANCH  14  15
DOCKED: ATOM     15  P   UNL d   1      16.765  -0.422   2.601 -0.19 -0.02    +0.473 P 
DOCKED: ATOM     16  O   UNL d   1      16.343   0.963   2.977 -0.26 +0.02    -0.228 OA
DOCKED: BRANCH  15  17
DOCKED: ATOM     17  O   UNL d   1      18.243  -0.771   3.085 -0.07 -0.01    -0.303 OA
DOCKED: ATOM     18  H   UNL d   1      18.518  -1.652   2.768 +0.05 +0.01    +0.222 HD
DOCKED: ENDBRANCH  15  17
DOCKED: BRANCH  15  19
DOCKED: ATOM     19  O   UNL d   1      16.865  -0.708   1.040 -0.28 +0.02    -0.303 OA
DOCKED: ATOM     20  H   UNL d   1      17.227  -1.595   0.858 +0.10 +0.01    +0.222 HD
DOCKED: ENDBRANCH  15  19
DOCKED: ENDBRANCH  14  15
DOCKED: ENDBRANCH   2  14
DOCKED: BRANCH   6  21
DOCKED: ATOM     21  O   UNL d   1      13.757  -4.156   5.922 -0.07 -0.02    -0.278 OA
DOCKED: BRANCH  21  22
DOCKED: ATOM     22  P   UNL d   1      12.317  -3.613   6.342 -0.12 +0.05    +0.473 P 
DOCKED: ATOM     23  O   UNL d   1      12.200  -2.193   6.781 -0.24 -0.02    -0.228 OA
DOCKED: BRANCH  22  24
DOCKED: ATOM     24  O   UNL d   1      11.441  -3.993   5.069 -0.39 -0.05    -0.303 OA
DOCKED: ATOM     25  H   UNL d   1      11.897  -4.731   4.590 +0.10 +0.04    +0.222 HD
DOCKED: ENDBRANCH  22  24
DOCKED: BRANCH  22  26
DOCKED: ATOM     26  O   UNL d   1      11.850  -4.718   7.406 -0.20 -0.05    -0.303 OA
DOCKED: ATOM     27  H   UNL d   1      12.133  -5.603   7.097 +0.05 +0.04    +0.222 HD
DOCKED: ENDBRANCH  22  26
DOCKED: ENDBRANCH  21  22
DOCKED: ENDBRANCH   6  21
DOCKED: BRANCH   3  28
DOCKED: ATOM     28  O   UNL d   1      17.438  -3.353   1.901 -0.11 -0.02    -0.278 OA
DOCKED: BRANCH  28  29
DOCKED: ATOM     29  P   UNL d   1      19.015  -3.411   1.689 -0.06 +0.03    +0.473 P 
DOCKED: ATOM     30  O   UNL d   1      19.827  -3.491   2.931 -0.02 -0.01    -0.228 OA
DOCKED: BRANCH  29  31
DOCKED: ATOM     31  O   UNL d   1      19.116  -4.645   0.675 -0.08 -0.02    -0.303 OA
DOCKED: ATOM     32  H   UNL d   1      18.407  -5.292   0.898 +0.04 +0.01    +0.222 HD
DOCKED: ENDBRANCH  29  31
DOCKED: BRANCH  29  33
DOCKED: ATOM     33  O   UNL d   1      19.271  -2.157   0.742 -0.09 -0.03    -0.303 OA
DOCKED: ATOM     34  H   UNL d   1      18.936  -1.342   1.190 +0.06 +0.01    +0.222 HD
DOCKED: ENDBRANCH  29  33
DOCKED: ENDBRANCH  28  29
DOCKED: ENDBRANCH   3  28
DOCKED: BRANCH   5  35
DOCKED: ATOM     35  O   UNL d   1      13.401  -5.207   3.220 -0.19 -0.00    -0.278 OA
DOCKED: BRANCH  35  36
DOCKED: ATOM     36  P   UNL d   1      12.647  -6.557   3.614 -0.14 -0.05    +0.473 P 
DOCKED: ATOM     37  O   UNL d   1      11.265  -6.708   3.061 -0.35 +0.12    -0.228 OA
DOCKED: BRANCH  36  38
DOCKED: ATOM     38  O   UNL d   1      13.676  -7.664   3.113 -0.06 +0.04    -0.303 OA
DOCKED: ATOM     39  H   UNL d   1      14.517  -7.227   2.856 +0.06 -0.01    +0.222 HD
DOCKED: ENDBRANCH  36  38
DOCKED: BRANCH  36  40
DOCKED: ATOM     40  O   UNL d   1      12.798  -6.581   5.197 -0.08 -0.01    -0.303 OA
DOCKED: ATOM     41  H   UNL d   1      12.376  -5.798   5.615 +0.06 +0.04    +0.222 HD
DOCKED: ENDBRANCH  36  40
DOCKED: ENDBRANCH  35  36
DOCKED: ENDBRANCH   5  35
DOCKED: BRANCH   4  42
DOCKED: ATOM     42  O   UNL d   1      16.050  -5.858   2.197 -0.10 -0.01    -0.278 OA
DOCKED: BRANCH  42  43
DOCKED: ATOM     43  P   UNL d   1      16.888  -6.816   3.159 -0.01 +0.01    +0.473 P 
DOCKED: ATOM     44  O   UNL d   1      16.791  -6.570   4.626 -0.01 -0.01    -0.228 OA
DOCKED: BRANCH  43  45
DOCKED: ATOM     45  O   UNL d   1      16.411  -8.266   2.710 -0.01 +0.00    -0.303 OA
DOCKED: ATOM     46  H   UNL d   1      15.659  -8.580   3.252 +0.02 -0.01    +0.222 HD
DOCKED: ENDBRANCH  43  45
DOCKED: BRANCH  43  47
DOCKED: ATOM     47  O   UNL d   1      18.366  -6.753   2.543 -0.01 -0.01    -0.303 OA
DOCKED: ATOM     48  H   UNL d   1      18.590  -5.822   2.336 +0.02 +0.01    +0.222 HD
DOCKED: ENDBRANCH  43  47
DOCKED: ENDBRANCH  42  43
DOCKED: ENDBRANCH   4  42
DOCKED: TORSDOF 24
DOCKED: TER
DOCKED: ENDMDL
________________________________________________________________________________


	BEGINNING GENETIC ALGORITHM DOCKING 14 of 100
Run: 14 Seed: 2117935268 266608729 [ Run 14 of 100 GA/GALS ]
Beginning LAMARCKIAN GENETIC ALGORITHM (LGA), with a maximum of 25000000 energy evaluations.

Final-Value: -19.428


	FINAL GENETIC ALGORITHM DOCKED STATE
	_______________________________________________


Detailed state:  trans -12.797 10.771 -0.408 quatxyzw -0.822519 -0.062202 -0.324307 0.463054 center 0.035 0.082 -0.065 ntor 24 -158.7503 37.5170 151.6912 -20.6265 25.7551 -179.7371 -118.5001 -11.1412 80.6325 125.6799 179.0586 -59.7867 48.1173 171.4671 -54.5043 170.5918 111.8915 47.7145 33.7904 14.8547 -175.4112 10.8671 5.5931 180.0000
State:	-12.797  10.771  -0.408  -0.928 -0.070 -0.366 124.831   -158.75   37.52  151.69  -20.63   25.76 -179.74 -118.50  -11.14   80.63  125.68  179.06  -59.79   48.12  171.47  -54.50  170.59  111.89   47.71   33.79   14.85 -175.41   10.87    5.59  180.00

DOCKED: MODEL       14
DOCKED: USER    Run = 14
DOCKED: USER    DPF = D:/Protein_go_brrr/autodock/final/AncB/IHP/dock.dpf
DOCKED: USER  
DOCKED: USER    Estimated Free Energy of Binding    =   +1.46 kcal/mol  [=(1)+(2)+(3)-(4)]
DOCKED: USER    
DOCKED: USER    (1) Final Intermolecular Energy     =   -5.70 kcal/mol
DOCKED: USER        vdW + Hbond + desolv Energy     =   -5.55 kcal/mol
DOCKED: USER        Electrostatic Energy            =   -0.15 kcal/mol
DOCKED: USER    (2) Final Total Internal Energy     =  -13.73 kcal/mol
DOCKED: USER    (3) Torsional Free Energy           =   +7.16 kcal/mol
DOCKED: USER    (4) Unbound System's Energy  [=(2)] =  -13.73 kcal/mol
DOCKED: USER    
DOCKED: USER    
DOCKED: USER    NEWDPF move IHP_ideal_opt.pdbqt
DOCKED: USER    NEWDPF about 0.035000 0.082000 -0.065000
DOCKED: USER    NEWDPF tran0 -12.796909 10.770806 -0.408448
DOCKED: USER    NEWDPF quaternion0 -0.822519 -0.062202 -0.324307 0.463054
DOCKED: USER    NEWDPF axisangle0 -0.928005 -0.070179 -0.365898 124.831267
DOCKED: USER    NEWDPF quat0 -0.928005 -0.070179 -0.365898 124.831267
DOCKED: USER    NEWDPF dihe0 -158.75 37.52 151.69 -20.63 25.76 -179.74 -118.50 -11.14 80.63 125.68 179.06 -59.79 48.12 171.47 -54.50 170.59 111.89 47.71 33.79 14.85 -175.41 10.87 5.59 180.00 
DOCKED: USER  keepresnum = 1 
DOCKED: USER  
DOCKED: REMARK  24 active torsions:
DOCKED: REMARK  status: ('A' for Active; 'I' for Inactive)
DOCKED: REMARK    1  A    between atoms: C_1  and  O_7 
DOCKED: REMARK    2  A    between atoms: C_2  and  O_12 
DOCKED: REMARK    3  A    between atoms: C_3  and  O_17 
DOCKED: REMARK    4  A    between atoms: C_4  and  O_22 
DOCKED: REMARK    5  A    between atoms: C_5  and  O_27 
DOCKED: REMARK    6  A    between atoms: C_6  and  O_32 
DOCKED: REMARK    7  A    between atoms: O_7  and  P_8 
DOCKED: REMARK    8  A    between atoms: P_8  and  O_10 
DOCKED: REMARK    9  A    between atoms: P_8  and  O_11 
DOCKED: REMARK   10  A    between atoms: O_12  and  P_13 
DOCKED: REMARK   11  A    between atoms: P_13  and  O_15 
DOCKED: REMARK   12  A    between atoms: P_13  and  O_16 
DOCKED: REMARK   13  A    between atoms: O_17  and  P_18 
DOCKED: REMARK   14  A    between atoms: P_18  and  O_20 
DOCKED: REMARK   15  A    between atoms: P_18  and  O_21 
DOCKED: REMARK   16  A    between atoms: O_22  and  P_23 
DOCKED: REMARK   17  A    between atoms: P_23  and  O_25 
DOCKED: REMARK   18  A    between atoms: P_23  and  O_26 
DOCKED: REMARK   19  A    between atoms: O_27  and  P_28 
DOCKED: REMARK   20  A    between atoms: P_28  and  O_30 
DOCKED: REMARK   21  A    between atoms: P_28  and  O_31 
DOCKED: REMARK   22  A    between atoms: O_32  and  P_33 
DOCKED: REMARK   23  A    between atoms: P_33  and  O_35 
DOCKED: REMARK   24  A    between atoms: P_33  and  O_36 
DOCKED: USER                              x       y       z     vdW  Elec       q    Type
DOCKED: USER                           _______ _______ _______ _____ _____    ______ ____
DOCKED: ROOT
DOCKED: ATOM      1  C   UNL d   1     -11.174  11.205  -0.810 -0.06 +0.00    +0.194 C 
DOCKED: ATOM      2  C   UNL d   1     -12.209  11.422  -1.915 -0.01 +0.02    +0.194 C 
DOCKED: ATOM      3  C   UNL d   1     -13.178  10.243  -2.023 -0.00 +0.03    +0.194 C 
DOCKED: ATOM      4  C   UNL d   1     -13.826   9.873  -0.691 -0.01 +0.03    +0.194 C 
DOCKED: ATOM      5  C   UNL d   1     -12.842   9.759   0.467 -0.08 +0.01    +0.194 C 
DOCKED: ATOM      6  C   UNL d   1     -11.833  10.907   0.538 -0.08 -0.01    +0.194 C 
DOCKED: ENDROOT
DOCKED: BRANCH   1   7
DOCKED: ATOM      7  O   UNL d   1     -10.423  12.412  -0.659 -0.07 +0.03    -0.278 OA
DOCKED: BRANCH   7   8
DOCKED: ATOM      8  P   UNL d   1      -9.116  12.610  -1.556 -0.15 -0.07    +0.473 P 
DOCKED: ATOM      9  O   UNL d   1      -9.299  13.467  -2.759 -0.08 +0.02    -0.228 OA
DOCKED: BRANCH   8  10
DOCKED: ATOM     10  O   UNL d   1      -8.030  13.182  -0.537 -0.53 +0.13    -0.303 OA
DOCKED: ATOM     11  H   UNL d   1      -8.074  12.685   0.301 -0.19 -0.06    +0.222 HD
DOCKED: ENDBRANCH   8  10
DOCKED: BRANCH   8  12
DOCKED: ATOM     12  O   UNL d   1      -8.575  11.140  -1.828 -0.21 -0.02    -0.303 OA
DOCKED: ATOM     13  H   UNL d   1      -9.054  10.452  -1.313 +0.11 +0.02    +0.222 HD
DOCKED: ENDBRANCH   8  12
DOCKED: ENDBRANCH   7   8
DOCKED: ENDBRANCH   1   7
DOCKED: BRANCH   2  14
DOCKED: ATOM     14  O   UNL d   1     -12.961  12.607  -1.625 +0.00 -0.01    -0.278 OA
DOCKED: BRANCH  14  15
DOCKED: ATOM     15  P   UNL d   1     -13.450  13.469  -2.883 +0.00 +0.04    +0.473 P 
DOCKED: ATOM     16  O   UNL d   1     -13.223  14.947  -2.813 +0.00 -0.01    -0.228 OA
DOCKED: BRANCH  15  17
DOCKED: ATOM     17  O   UNL d   1     -12.720  12.791  -4.126 +0.00 -0.04    -0.303 OA
DOCKED: ATOM     18  H   UNL d   1     -12.927  11.838  -4.178 +0.01 +0.04    +0.222 HD
DOCKED: ENDBRANCH  15  17
DOCKED: BRANCH  15  19
DOCKED: ATOM     19  O   UNL d   1     -14.958  13.017  -3.112 +0.00 -0.03    -0.303 OA
DOCKED: ATOM     20  H   UNL d   1     -15.011  12.173  -3.597 +0.00 +0.03    +0.222 HD
DOCKED: ENDBRANCH  15  19
DOCKED: ENDBRANCH  14  15
DOCKED: ENDBRANCH   2  14
DOCKED: BRANCH   6  21
DOCKED: ATOM     21  O   UNL d   1     -10.798  10.492   1.427 -0.19 +0.05    -0.278 OA
DOCKED: BRANCH  21  22
DOCKED: ATOM     22  P   UNL d   1      -9.622   9.557   0.891 -0.32 -0.06    +0.473 P 
DOCKED: ATOM     23  O   UNL d   1      -9.887   8.705  -0.304 -0.26 -0.01    -0.228 OA
DOCKED: BRANCH  22  24
DOCKED: ATOM     24  O   UNL d   1      -8.432  10.599   0.717 -0.37 +0.06    -0.303 OA
DOCKED: ATOM     25  H   UNL d   1      -8.807  11.435   0.339 -0.12 -0.04    +0.222 HD
DOCKED: ENDBRANCH  22  24
DOCKED: BRANCH  22  26
DOCKED: ATOM     26  O   UNL d   1      -9.190   8.781   2.226 -0.39 +0.10    -0.303 OA
DOCKED: ATOM     27  H   UNL d   1      -9.810   9.012   2.947 -0.40 -0.16    +0.222 HD
DOCKED: ENDBRANCH  22  26
DOCKED: ENDBRANCH  21  22
DOCKED: ENDBRANCH   6  21
DOCKED: BRANCH   3  28
DOCKED: ATOM     28  O   UNL d   1     -14.251  10.646  -2.865 +0.00 -0.04    -0.278 OA
DOCKED: BRANCH  28  29
DOCKED: ATOM     29  P   UNL d   1     -14.579   9.833  -4.195 +0.01 +0.09    +0.473 P 
DOCKED: ATOM     30  O   UNL d   1     -16.018   9.735  -4.547 +0.00 -0.04    -0.228 OA
DOCKED: BRANCH  29  31
DOCKED: ATOM     31  O   UNL d   1     -13.628  10.598  -5.231 +0.00 -0.06    -0.303 OA
DOCKED: ATOM     32  H   UNL d   1     -13.962  11.518  -5.343 +0.00 +0.04    +0.222 HD
DOCKED: ENDBRANCH  29  31
DOCKED: BRANCH  29  33
DOCKED: ATOM     33  O   UNL d   1     -13.803   8.465  -3.950 +0.00 -0.08    -0.303 OA
DOCKED: ATOM     34  H   UNL d   1     -14.014   8.133  -3.043 +0.03 +0.07    +0.222 HD
DOCKED: ENDBRANCH  29  33
DOCKED: ENDBRANCH  28  29
DOCKED: ENDBRANCH   3  28
DOCKED: BRANCH   5  35
DOCKED: ATOM     35  O   UNL d   1     -13.632   9.821   1.653 -0.06 -0.01    -0.278 OA
DOCKED: BRANCH  35  36
DOCKED: ATOM     36  P   UNL d   1     -13.349   8.817   2.860 -0.16 +0.02    +0.473 P 
DOCKED: ATOM     37  O   UNL d   1     -13.805   9.284   4.207 -0.19 -0.01    -0.228 OA
DOCKED: BRANCH  36  38
DOCKED: ATOM     38  O   UNL d   1     -14.063   7.487   2.352 -0.24 -0.06    -0.303 OA
DOCKED: ATOM     39  H   UNL d   1     -14.312   7.597   1.409 +0.06 +0.05    +0.222 HD
DOCKED: ENDBRANCH  36  38
DOCKED: BRANCH  36  40
DOCKED: ATOM     40  O   UNL d   1     -11.798   8.509   2.690 -0.21 +0.05    -0.303 OA
DOCKED: ATOM     41  H   UNL d   1     -11.241   9.199   3.114 -0.29 -0.09    +0.222 HD
DOCKED: ENDBRANCH  36  40
DOCKED: ENDBRANCH  35  36
DOCKED: ENDBRANCH   5  35
DOCKED: BRANCH   4  42
DOCKED: ATOM     42  O   UNL d   1     -14.424   8.584  -0.864 -0.02 -0.07    -0.278 OA
DOCKED: BRANCH  42  43
DOCKED: ATOM     43  P   UNL d   1     -13.477   7.314  -1.051 -0.08 +0.18    +0.473 P 
DOCKED: ATOM     44  O   UNL d   1     -13.119   6.538   0.169 -0.72 -0.11    -0.228 OA
DOCKED: BRANCH  43  45
DOCKED: ATOM     45  O   UNL d   1     -14.245   6.468  -2.159 -0.39 -0.26    -0.303 OA
DOCKED: ATOM     46  H   UNL d   1     -13.797   6.524  -3.027 +0.05 +0.15    +0.222 HD
DOCKED: ENDBRANCH  43  45
DOCKED: BRANCH  43  47
DOCKED: ATOM     47  O   UNL d   1     -12.241   7.899  -1.887 -0.05 -0.07    -0.303 OA
DOCKED: ATOM     48  H   UNL d   1     -11.419   7.790  -1.365 +0.09 +0.04    +0.222 HD
DOCKED: ENDBRANCH  43  47
DOCKED: ENDBRANCH  42  43
DOCKED: ENDBRANCH   4  42
DOCKED: TORSDOF 24
DOCKED: TER
DOCKED: ENDMDL
________________________________________________________________________________


	BEGINNING GENETIC ALGORITHM DOCKING 15 of 100
Run: 15 Seed: 1437356721 111817771 [ Run 15 of 100 GA/GALS ]
Beginning LAMARCKIAN GENETIC ALGORITHM (LGA), with a maximum of 25000000 energy evaluations.

Final-Value: -17.532


	FINAL GENETIC ALGORITHM DOCKED STATE
	_______________________________________________


Detailed state:  trans -17.140 -8.023 14.540 quatxyzw -0.797381 -0.225854 -0.559598 0.004946 center 0.035 0.082 -0.065 ntor 24 -160.7951 -24.1364 86.9511 69.2479 108.9028 142.3521 -93.8627 -28.4980 5.7668 101.6567 57.9806 -37.0626 42.1310 -64.2416 76.5995 71.3609 9.4328 -81.4592 -143.1334 -3.5886 20.9960 141.0317 -32.6523 168.6354
State:	-17.140  -8.023  14.540  -0.797 -0.226 -0.560 179.433   -160.80  -24.14   86.95   69.25  108.90  142.35  -93.86  -28.50    5.77  101.66   57.98  -37.06   42.13  -64.24   76.60   71.36    9.43  -81.46 -143.13   -3.59   21.00  141.03  -32.65  168.64

DOCKED: MODEL       15
DOCKED: USER    Run = 15
DOCKED: USER    DPF = D:/Protein_go_brrr/autodock/final/AncB/IHP/dock.dpf
DOCKED: USER  
DOCKED: USER    Estimated Free Energy of Binding    =   +1.89 kcal/mol  [=(1)+(2)+(3)-(4)]
DOCKED: USER    
DOCKED: USER    (1) Final Intermolecular Energy     =   -5.27 kcal/mol
DOCKED: USER        vdW + Hbond + desolv Energy     =   -4.98 kcal/mol
DOCKED: USER        Electrostatic Energy            =   -0.29 kcal/mol
DOCKED: USER    (2) Final Total Internal Energy     =  -12.26 kcal/mol
DOCKED: USER    (3) Torsional Free Energy           =   +7.16 kcal/mol
DOCKED: USER    (4) Unbound System's Energy  [=(2)] =  -12.26 kcal/mol
DOCKED: USER    
DOCKED: USER    
DOCKED: USER    NEWDPF move IHP_ideal_opt.pdbqt
DOCKED: USER    NEWDPF about 0.035000 0.082000 -0.065000
DOCKED: USER    NEWDPF tran0 -17.139841 -8.022541 14.540278
DOCKED: USER    NEWDPF quaternion0 -0.797381 -0.225854 -0.559598 0.004946
DOCKED: USER    NEWDPF axisangle0 -0.797390 -0.225857 -0.559605 179.433283
DOCKED: USER    NEWDPF quat0 -0.797390 -0.225857 -0.559605 179.433283
DOCKED: USER    NEWDPF dihe0 -160.80 -24.14 86.95 69.25 108.90 142.35 -93.86 -28.50 5.77 101.66 57.98 -37.06 42.13 -64.24 76.60 71.36 9.43 -81.46 -143.13 -3.59 21.00 141.03 -32.65 168.64 
DOCKED: USER  keepresnum = 1 
DOCKED: USER  
DOCKED: REMARK  24 active torsions:
DOCKED: REMARK  status: ('A' for Active; 'I' for Inactive)
DOCKED: REMARK    1  A    between atoms: C_1  and  O_7 
DOCKED: REMARK    2  A    between atoms: C_2  and  O_12 
DOCKED: REMARK    3  A    between atoms: C_3  and  O_17 
DOCKED: REMARK    4  A    between atoms: C_4  and  O_22 
DOCKED: REMARK    5  A    between atoms: C_5  and  O_27 
DOCKED: REMARK    6  A    between atoms: C_6  and  O_32 
DOCKED: REMARK    7  A    between atoms: O_7  and  P_8 
DOCKED: REMARK    8  A    between atoms: P_8  and  O_10 
DOCKED: REMARK    9  A    between atoms: P_8  and  O_11 
DOCKED: REMARK   10  A    between atoms: O_12  and  P_13 
DOCKED: REMARK   11  A    between atoms: P_13  and  O_15 
DOCKED: REMARK   12  A    between atoms: P_13  and  O_16 
DOCKED: REMARK   13  A    between atoms: O_17  and  P_18 
DOCKED: REMARK   14  A    between atoms: P_18  and  O_20 
DOCKED: REMARK   15  A    between atoms: P_18  and  O_21 
DOCKED: REMARK   16  A    between atoms: O_22  and  P_23 
DOCKED: REMARK   17  A    between atoms: P_23  and  O_25 
DOCKED: REMARK   18  A    between atoms: P_23  and  O_26 
DOCKED: REMARK   19  A    between atoms: O_27  and  P_28 
DOCKED: REMARK   20  A    between atoms: P_28  and  O_30 
DOCKED: REMARK   21  A    between atoms: P_28  and  O_31 
DOCKED: REMARK   22  A    between atoms: O_32  and  P_33 
DOCKED: REMARK   23  A    between atoms: P_33  and  O_35 
DOCKED: REMARK   24  A    between atoms: P_33  and  O_36 
DOCKED: USER                              x       y       z     vdW  Elec       q    Type
DOCKED: USER                           _______ _______ _______ _____ _____    ______ ____
DOCKED: ROOT
DOCKED: ATOM      1  C   UNL d   1     -16.407  -6.573  15.129 -0.17 +0.00    +0.194 C 
DOCKED: ATOM      2  C   UNL d   1     -17.361  -6.398  13.946 -0.21 +0.08    +0.194 C 
DOCKED: ATOM      3  C   UNL d   1     -17.154  -7.482  12.886 -0.10 +0.13    +0.194 C 
DOCKED: ATOM      4  C   UNL d   1     -17.196  -8.897  13.456 -0.12 +0.03    +0.194 C 
DOCKED: ATOM      5  C   UNL d   1     -16.346  -9.088  14.706 -0.12 +0.00    +0.194 C 
DOCKED: ATOM      6  C   UNL d   1     -16.507  -7.971  15.740 -0.14 -0.00    +0.194 C 
DOCKED: ENDROOT
DOCKED: BRANCH   1   7
DOCKED: ATOM      7  O   UNL d   1     -16.777  -5.637  16.143 -0.21 -0.01    -0.278 OA
DOCKED: BRANCH   7   8
DOCKED: ATOM      8  P   UNL d   1     -17.762  -6.123  17.303 -0.08 +0.00    +0.473 P 
DOCKED: ATOM      9  O   UNL d   1     -17.091  -6.617  18.536 -0.10 +0.01    -0.228 OA
DOCKED: BRANCH   8  10
DOCKED: ATOM     10  O   UNL d   1     -18.706  -4.863  17.563 -0.06 +0.00    -0.303 OA
DOCKED: ATOM     11  H   UNL d   1     -18.952  -4.458  16.710 +0.04 +0.01    +0.222 HD
DOCKED: ENDBRANCH   8  10
DOCKED: BRANCH   8  12
DOCKED: ATOM     12  O   UNL d   1     -18.756  -7.143  16.599 -0.02 -0.02    -0.303 OA
DOCKED: ATOM     13  H   UNL d   1     -19.374  -6.707  15.969 +0.03 +0.02    +0.222 HD
DOCKED: ENDBRANCH   8  12
DOCKED: ENDBRANCH   7   8
DOCKED: ENDBRANCH   1   7
DOCKED: BRANCH   2  14
DOCKED: ATOM     14  O   UNL d   1     -18.711  -6.475  14.420 -0.05 -0.07    -0.278 OA
DOCKED: BRANCH  14  15
DOCKED: ATOM     15  P   UNL d   1     -19.685  -5.274  14.004 -0.02 +0.13    +0.473 P 
DOCKED: ATOM     16  O   UNL d   1     -19.051  -4.094  13.338 -0.10 -0.09    -0.228 OA
DOCKED: BRANCH  15  17
DOCKED: ATOM     17  O   UNL d   1     -20.796  -5.972  13.099 -0.01 -0.07    -0.303 OA
DOCKED: ATOM     18  H   UNL d   1     -20.556  -6.897  12.898 +0.02 +0.06    +0.222 HD
DOCKED: ENDBRANCH  15  17
DOCKED: BRANCH  15  19
DOCKED: ATOM     19  O   UNL d   1     -20.508  -4.954  15.328 -0.01 -0.03    -0.303 OA
DOCKED: ATOM     20  H   UNL d   1     -20.147  -5.428  16.100 +0.02 +0.02    +0.222 HD
DOCKED: ENDBRANCH  15  19
DOCKED: ENDBRANCH  14  15
DOCKED: ENDBRANCH   2  14
DOCKED: BRANCH   6  21
DOCKED: ATOM     21  O   UNL d   1     -15.427  -8.103  16.661 -0.18 +0.02    -0.278 OA
DOCKED: BRANCH  21  22
DOCKED: ATOM     22  P   UNL d   1     -15.520  -9.171  17.843 -0.05 -0.00    +0.473 P 
DOCKED: ATOM     23  O   UNL d   1     -14.691 -10.407  17.744 -0.06 -0.01    -0.228 OA
DOCKED: BRANCH  22  24
DOCKED: ATOM     24  O   UNL d   1     -15.224  -8.269  19.121 -0.06 +0.02    -0.303 OA
DOCKED: ATOM     25  H   UNL d   1     -15.724  -7.419  19.021 +0.05 -0.02    +0.222 HD
DOCKED: ENDBRANCH  22  24
DOCKED: BRANCH  22  26
DOCKED: ATOM     26  O   UNL d   1     -17.104  -9.394  17.956 -0.01 -0.00    -0.303 OA
DOCKED: ATOM     27  H   UNL d   1     -17.564  -8.563  17.719 +0.03 +0.00    +0.222 HD
DOCKED: ENDBRANCH  22  26
DOCKED: ENDBRANCH  21  22
DOCKED: ENDBRANCH   6  21
DOCKED: BRANCH   3  28
DOCKED: ATOM     28  O   UNL d   1     -18.247  -7.408  11.979 -0.41 -0.27    -0.278 OA
DOCKED: BRANCH  28  29
DOCKED: ATOM     29  P   UNL d   1     -19.366  -8.542  11.974 -0.02 +0.12    +0.473 P 
DOCKED: ATOM     30  O   UNL d   1     -19.867  -8.953  13.311 -0.00 -0.03    -0.228 OA
DOCKED: BRANCH  29  31
DOCKED: ATOM     31  O   UNL d   1     -20.426  -7.883  10.973 -0.02 -0.07    -0.303 OA
DOCKED: ATOM     32  H   UNL d   1     -20.507  -6.925  11.186 +0.02 +0.07    +0.222 HD
DOCKED: ENDBRANCH  29  31
DOCKED: BRANCH  29  33
DOCKED: ATOM     33  O   UNL d   1     -18.692  -9.672  11.079 -0.04 -0.02    -0.303 OA
DOCKED: ATOM     34  H   UNL d   1     -17.711  -9.630  11.193 +0.07 +0.00    +0.222 HD
DOCKED: ENDBRANCH  29  33
DOCKED: ENDBRANCH  28  29
DOCKED: ENDBRANCH   3  28
DOCKED: BRANCH   5  35
DOCKED: ATOM     35  O   UNL d   1     -16.814 -10.291  15.312 -0.04 -0.02    -0.278 OA
DOCKED: BRANCH  35  36
DOCKED: ATOM     36  P   UNL d   1     -16.043 -11.666  15.068 -0.07 +0.06    +0.473 P 
DOCKED: ATOM     37  O   UNL d   1     -14.579 -11.649  15.377 -0.20 -0.04    -0.228 OA
DOCKED: BRANCH  36  38
DOCKED: ATOM     38  O   UNL d   1     -16.888 -12.677  15.962 -0.02 -0.03    -0.303 OA
DOCKED: ATOM     39  H   UNL d   1     -16.806 -12.418  16.905 +0.02 +0.02    +0.222 HD
DOCKED: ENDBRANCH  36  38
DOCKED: BRANCH  36  40
DOCKED: ATOM     40  O   UNL d   1     -16.462 -12.031  13.578 -0.38 -0.06    -0.303 OA
DOCKED: ATOM     41  H   UNL d   1     -16.184 -11.336  12.941 +0.07 +0.04    +0.222 HD
DOCKED: ENDBRANCH  36  40
DOCKED: ENDBRANCH  35  36
DOCKED: ENDBRANCH   5  35
DOCKED: BRANCH   4  42
DOCKED: ATOM     42  O   UNL d   1     -16.664  -9.766  12.450 -0.11 -0.03    -0.278 OA
DOCKED: BRANCH  42  43
DOCKED: ATOM     43  P   UNL d   1     -15.191  -9.498  11.900 -0.25 -0.00    +0.473 P 
DOCKED: ATOM     44  O   UNL d   1     -14.753  -8.080  11.771 -0.78 -0.04    -0.228 OA
DOCKED: BRANCH  43  45
DOCKED: ATOM     45  O   UNL d   1     -14.289 -10.371  12.877 -0.62 -0.10    -0.303 OA
DOCKED: ATOM     46  H   UNL d   1     -14.785 -10.642  13.675 +0.08 +0.05    +0.222 HD
DOCKED: ENDBRANCH  43  45
DOCKED: BRANCH  43  47
DOCKED: ATOM     47  O   UNL d   1     -15.141 -10.362  10.551 -0.29 +0.15    -0.303 OA
DOCKED: ATOM     48  H   UNL d   1     -14.637  -9.869   9.870 -0.31 -0.30    +0.222 HD
DOCKED: ENDBRANCH  43  47
DOCKED: ENDBRANCH  42  43
DOCKED: ENDBRANCH   4  42
DOCKED: TORSDOF 24
DOCKED: TER
DOCKED: ENDMDL
________________________________________________________________________________


	BEGINNING GENETIC ALGORITHM DOCKING 16 of 100
Run: 16 Seed: 68389545 993763931 [ Run 16 of 100 GA/GALS ]
Beginning LAMARCKIAN GENETIC ALGORITHM (LGA), with a maximum of 25000000 energy evaluations.

Final-Value: -18.490


	FINAL GENETIC ALGORITHM DOCKED STATE
	_______________________________________________


Detailed state:  trans 4.197 -14.567 1.052 quatxyzw -0.336633 -0.776589 0.259668 -0.464930 center 0.035 0.082 -0.065 ntor 24 113.6891 92.0566 41.1155 49.7725 32.8050 149.6202 -118.1552 -47.4128 160.2108 -11.1118 -80.1781 -74.9729 -34.1575 141.7584 167.0807 -172.0411 38.1385 -65.7141 0.2230 -19.4741 -23.3463 2.0425 169.8161 171.1186
State:	  4.197 -14.567   1.052  -0.380 -0.877  0.293 -124.589    113.69   92.06   41.12   49.77   32.80  149.62 -118.16  -47.41  160.21  -11.11  -80.18  -74.97  -34.16  141.76  167.08 -172.04   38.14  -65.71    0.22  -19.47  -23.35    2.04  169.82  171.12

DOCKED: MODEL       16
DOCKED: USER    Run = 16
DOCKED: USER    DPF = D:/Protein_go_brrr/autodock/final/AncB/IHP/dock.dpf
DOCKED: USER  
DOCKED: USER    Estimated Free Energy of Binding    =   +2.38 kcal/mol  [=(1)+(2)+(3)-(4)]
DOCKED: USER    
DOCKED: USER    (1) Final Intermolecular Energy     =   -4.78 kcal/mol
DOCKED: USER        vdW + Hbond + desolv Energy     =   -4.59 kcal/mol
DOCKED: USER        Electrostatic Energy            =   -0.18 kcal/mol
DOCKED: USER    (2) Final Total Internal Energy     =  -13.71 kcal/mol
DOCKED: USER    (3) Torsional Free Energy           =   +7.16 kcal/mol
DOCKED: USER    (4) Unbound System's Energy  [=(2)] =  -13.71 kcal/mol
DOCKED: USER    
DOCKED: USER    
DOCKED: USER    NEWDPF move IHP_ideal_opt.pdbqt
DOCKED: USER    NEWDPF about 0.035000 0.082000 -0.065000
DOCKED: USER    NEWDPF tran0 4.196530 -14.566571 1.051888
DOCKED: USER    NEWDPF quaternion0 -0.336633 -0.776589 0.259668 -0.464930
DOCKED: USER    NEWDPF axisangle0 -0.380227 -0.877157 0.293295 -124.588606
DOCKED: USER    NEWDPF quat0 -0.380227 -0.877157 0.293295 -124.588606
DOCKED: USER    NEWDPF dihe0 113.69 92.06 41.12 49.77 32.80 149.62 -118.16 -47.41 160.21 -11.11 -80.18 -74.97 -34.16 141.76 167.08 -172.04 38.14 -65.71 0.22 -19.47 -23.35 2.04 169.82 171.12 
DOCKED: USER  keepresnum = 1 
DOCKED: USER  
DOCKED: REMARK  24 active torsions:
DOCKED: REMARK  status: ('A' for Active; 'I' for Inactive)
DOCKED: REMARK    1  A    between atoms: C_1  and  O_7 
DOCKED: REMARK    2  A    between atoms: C_2  and  O_12 
DOCKED: REMARK    3  A    between atoms: C_3  and  O_17 
DOCKED: REMARK    4  A    between atoms: C_4  and  O_22 
DOCKED: REMARK    5  A    between atoms: C_5  and  O_27 
DOCKED: REMARK    6  A    between atoms: C_6  and  O_32 
DOCKED: REMARK    7  A    between atoms: O_7  and  P_8 
DOCKED: REMARK    8  A    between atoms: P_8  and  O_10 
DOCKED: REMARK    9  A    between atoms: P_8  and  O_11 
DOCKED: REMARK   10  A    between atoms: O_12  and  P_13 
DOCKED: REMARK   11  A    between atoms: P_13  and  O_15 
DOCKED: REMARK   12  A    between atoms: P_13  and  O_16 
DOCKED: REMARK   13  A    between atoms: O_17  and  P_18 
DOCKED: REMARK   14  A    between atoms: P_18  and  O_20 
DOCKED: REMARK   15  A    between atoms: P_18  and  O_21 
DOCKED: REMARK   16  A    between atoms: O_22  and  P_23 
DOCKED: REMARK   17  A    between atoms: P_23  and  O_25 
DOCKED: REMARK   18  A    between atoms: P_23  and  O_26 
DOCKED: REMARK   19  A    between atoms: O_27  and  P_28 
DOCKED: REMARK   20  A    between atoms: P_28  and  O_30 
DOCKED: REMARK   21  A    between atoms: P_28  and  O_31 
DOCKED: REMARK   22  A    between atoms: O_32  and  P_33 
DOCKED: REMARK   23  A    between atoms: P_33  and  O_35 
DOCKED: REMARK   24  A    between atoms: P_33  and  O_36 
DOCKED: USER                              x       y       z     vdW  Elec       q    Type
DOCKED: USER                           _______ _______ _______ _____ _____    ______ ____
DOCKED: ROOT
DOCKED: ATOM      1  C   UNL d   1       2.810 -14.247   2.031 -0.08 +0.02    +0.194 C 
DOCKED: ATOM      2  C   UNL d   1       3.340 -15.681   2.084 -0.02 +0.01    +0.194 C 
DOCKED: ATOM      3  C   UNL d   1       3.711 -16.199   0.693 -0.04 +0.01    +0.194 C 
DOCKED: ATOM      4  C   UNL d   1       4.649 -15.265  -0.067 -0.09 -0.00    +0.194 C 
DOCKED: ATOM      5  C   UNL d   1       4.219 -13.803  -0.047 -0.19 +0.01    +0.194 C 
DOCKED: ATOM      6  C   UNL d   1       3.789 -13.303   1.333 -0.14 +0.01    +0.194 C 
DOCKED: ENDROOT
DOCKED: BRANCH   1   7
DOCKED: ATOM      7  O   UNL d   1       2.652 -13.781   3.373 -0.03 -0.03    -0.278 OA
DOCKED: BRANCH   7   8
DOCKED: ATOM      8  P   UNL d   1       1.206 -13.284   3.839 -0.09 +0.13    +0.473 P 
DOCKED: ATOM      9  O   UNL d   1       0.079 -13.724   2.973 -0.48 -0.15    -0.228 OA
DOCKED: BRANCH   8  10
DOCKED: ATOM     10  O   UNL d   1       1.084 -13.804   5.342 -0.05 -0.07    -0.303 OA
DOCKED: ATOM     11  H   UNL d   1       1.405 -14.723   5.397 +0.02 +0.04    +0.222 HD
DOCKED: ENDBRANCH   8  10
DOCKED: BRANCH   8  12
DOCKED: ATOM     12  O   UNL d   1       1.355 -11.715   4.041 -0.18 -0.06    -0.303 OA
DOCKED: ATOM     13  H   UNL d   1       1.816 -11.272   3.293 +0.12 +0.03    +0.222 HD
DOCKED: ENDBRANCH   8  12
DOCKED: ENDBRANCH   7   8
DOCKED: ENDBRANCH   1   7
DOCKED: BRANCH   2  14
DOCKED: ATOM     14  O   UNL d   1       4.510 -15.716   2.911 -0.00 -0.01    -0.278 OA
DOCKED: BRANCH  14  15
DOCKED: ATOM     15  P   UNL d   1       4.382 -16.505   4.299 +0.01 +0.03    +0.473 P 
DOCKED: ATOM     16  O   UNL d   1       5.427 -16.223   5.332 +0.00 -0.01    -0.228 OA
DOCKED: BRANCH  15  17
DOCKED: ATOM     17  O   UNL d   1       2.909 -16.166   4.803 +0.00 -0.03    -0.303 OA
DOCKED: ATOM     18  H   UNL d   1       2.766 -15.201   4.847 +0.02 +0.03    +0.222 HD
DOCKED: ENDBRANCH  15  17
DOCKED: BRANCH  15  19
DOCKED: ATOM     19  O   UNL d   1       4.231 -18.031   3.875 +0.00 -0.02    -0.303 OA
DOCKED: ATOM     20  H   UNL d   1       4.093 -18.127   2.914 +0.00 +0.01    +0.222 HD
DOCKED: ENDBRANCH  15  19
DOCKED: ENDBRANCH  14  15
DOCKED: ENDBRANCH   2  14
DOCKED: BRANCH   6  21
DOCKED: ATOM     21  O   UNL d   1       3.105 -12.068   1.129 -0.51 -0.06    -0.278 OA
DOCKED: BRANCH  21  22
DOCKED: ATOM     22  P   UNL d   1       3.578 -10.762   1.914 -0.22 -0.02    +0.473 P 
DOCKED: ATOM     23  O   UNL d   1       2.637  -9.607   1.992 -0.33 -0.01    -0.228 OA
DOCKED: BRANCH  22  24
DOCKED: ATOM     24  O   UNL d   1       4.011 -11.367   3.321 -0.08 +0.03    -0.303 OA
DOCKED: ATOM     25  H   UNL d   1       3.420 -12.137   3.520 +0.09 +0.00    +0.222 HD
DOCKED: ENDBRANCH  22  24
DOCKED: BRANCH  22  26
DOCKED: ATOM     26  O   UNL d   1       4.997 -10.467   1.229 -0.35 +0.13    -0.303 OA
DOCKED: ATOM     27  H   UNL d   1       5.354 -11.299   0.857 +0.12 -0.09    +0.222 HD
DOCKED: ENDBRANCH  22  26
DOCKED: ENDBRANCH  21  22
DOCKED: ENDBRANCH   6  21
DOCKED: BRANCH   3  28
DOCKED: ATOM     28  O   UNL d   1       4.441 -17.407   0.867 -0.00 -0.00    -0.278 OA
DOCKED: BRANCH  28  29
DOCKED: ATOM     29  P   UNL d   1       3.821 -18.797   0.396 +0.01 +0.00    +0.473 P 
DOCKED: ATOM     30  O   UNL d   1       4.792 -19.909   0.234 -0.00 +0.00    -0.228 OA
DOCKED: BRANCH  29  31
DOCKED: ATOM     31  O   UNL d   1       2.682 -18.983   1.505 +0.00 -0.02    -0.303 OA
DOCKED: ATOM     32  H   UNL d   1       3.114 -19.115   2.380 +0.00 +0.02    +0.222 HD
DOCKED: ENDBRANCH  29  31
DOCKED: BRANCH  29  33
DOCKED: ATOM     33  O   UNL d   1       2.991 -18.372  -0.894 -0.02 +0.01    -0.303 OA
DOCKED: ATOM     34  H   UNL d   1       3.238 -17.449  -1.145 +0.06 -0.01    +0.222 HD
DOCKED: ENDBRANCH  29  33
DOCKED: ENDBRANCH  28  29
DOCKED: ENDBRANCH   3  28
DOCKED: BRANCH   5  35
DOCKED: ATOM     35  O   UNL d   1       5.372 -13.055  -0.425 -0.22 +0.03    -0.278 OA
DOCKED: BRANCH  35  36
DOCKED: ATOM     36  P   UNL d   1       6.709 -13.144   0.442 -0.15 -0.17    +0.473 P 
DOCKED: ATOM     37  O   UNL d   1       7.589 -14.318   0.150 -0.07 +0.06    -0.228 OA
DOCKED: BRANCH  36  38
DOCKED: ATOM     38  O   UNL d   1       7.383 -11.732   0.148 -0.21 +0.24    -0.303 OA
DOCKED: ATOM     39  H   UNL d   1       7.073 -11.083   0.817 -0.37 -0.29    +0.222 HD
DOCKED: ENDBRANCH  36  38
DOCKED: BRANCH  36  40
DOCKED: ATOM     40  O   UNL d   1       6.160 -13.005   1.928 -0.07 +0.11    -0.303 OA
DOCKED: ATOM     41  H   UNL d   1       5.593 -12.209   2.034 +0.08 -0.09    +0.222 HD
DOCKED: ENDBRANCH  36  40
DOCKED: ENDBRANCH  35  36
DOCKED: ENDBRANCH   5  35
DOCKED: BRANCH   4  42
DOCKED: ATOM     42  O   UNL d   1       4.639 -15.688  -1.434 -0.10 +0.01    -0.278 OA
DOCKED: BRANCH  42  43
DOCKED: ATOM     43  P   UNL d   1       3.259 -15.680  -2.234 -0.20 -0.03    +0.473 P 
DOCKED: ATOM     44  O   UNL d   1       2.002 -15.677  -1.435 -0.23 +0.00    -0.228 OA
DOCKED: BRANCH  43  45
DOCKED: ATOM     45  O   UNL d   1       3.422 -14.423  -3.197 -0.30 -0.01    -0.303 OA
DOCKED: ATOM     46  H   UNL d   1       2.554 -14.039  -3.433 -0.19 +0.01    +0.222 HD
DOCKED: ENDBRANCH  43  45
DOCKED: BRANCH  43  47
DOCKED: ATOM     47  O   UNL d   1       3.424 -16.900  -3.261 -0.21 +0.06    -0.303 OA
DOCKED: ATOM     48  H   UNL d   1       2.898 -17.663  -2.942 +0.09 -0.05    +0.222 HD
DOCKED: ENDBRANCH  43  47
DOCKED: ENDBRANCH  42  43
DOCKED: ENDBRANCH   4  42
DOCKED: TORSDOF 24
DOCKED: TER
DOCKED: ENDMDL
________________________________________________________________________________


	BEGINNING GENETIC ALGORITHM DOCKING 17 of 100
Run: 17 Seed: 2115774705 1907254037 [ Run 17 of 100 GA/GALS ]
Beginning LAMARCKIAN GENETIC ALGORITHM (LGA), with a maximum of 25000000 energy evaluations.

Final-Value: -16.893


	FINAL GENETIC ALGORITHM DOCKED STATE
	_______________________________________________


Detailed state:  trans 15.376 5.778 -15.707 quatxyzw -0.674550 -0.125954 0.666656 -0.291010 center 0.035 0.082 -0.065 ntor 24 115.7209 120.5361 2.6785 59.1434 -178.7313 94.0990 -165.0907 -8.5348 32.8339 179.3031 -143.9531 -157.2403 -77.1674 -174.2055 79.6880 65.4347 -124.8837 1.7185 -147.4656 -4.9917 167.6938 145.9647 -29.0156 136.4294
State:	 15.376   5.778 -15.707  -0.705 -0.132  0.697 -146.163    115.72  120.54    2.68   59.14 -178.73   94.10 -165.09   -8.53   32.83  179.30 -143.95 -157.24  -77.17 -174.21   79.69   65.43 -124.88    1.72 -147.47   -4.99  167.69  145.96  -29.02  136.43

DOCKED: MODEL       17
DOCKED: USER    Run = 17
DOCKED: USER    DPF = D:/Protein_go_brrr/autodock/final/AncB/IHP/dock.dpf
DOCKED: USER  
DOCKED: USER    Estimated Free Energy of Binding    =   +0.10 kcal/mol  [=(1)+(2)+(3)-(4)]
DOCKED: USER    
DOCKED: USER    (1) Final Intermolecular Energy     =   -7.06 kcal/mol
DOCKED: USER        vdW + Hbond + desolv Energy     =   -6.69 kcal/mol
DOCKED: USER        Electrostatic Energy            =   -0.36 kcal/mol
DOCKED: USER    (2) Final Total Internal Energy     =   -9.84 kcal/mol
DOCKED: USER    (3) Torsional Free Energy           =   +7.16 kcal/mol
DOCKED: USER    (4) Unbound System's Energy  [=(2)] =   -9.84 kcal/mol
DOCKED: USER    
DOCKED: USER    
DOCKED: USER    NEWDPF move IHP_ideal_opt.pdbqt
DOCKED: USER    NEWDPF about 0.035000 0.082000 -0.065000
DOCKED: USER    NEWDPF tran0 15.376289 5.777781 -15.706619
DOCKED: USER    NEWDPF quaternion0 -0.674550 -0.125954 0.666656 -0.291010
DOCKED: USER    NEWDPF axisangle0 -0.705066 -0.131652 0.696814 -146.163140
DOCKED: USER    NEWDPF quat0 -0.705066 -0.131652 0.696814 -146.163140
DOCKED: USER    NEWDPF dihe0 115.72 120.54 2.68 59.14 -178.73 94.10 -165.09 -8.53 32.83 179.30 -143.95 -157.24 -77.17 -174.21 79.69 65.43 -124.88 1.72 -147.47 -4.99 167.69 145.96 -29.02 136.43 
DOCKED: USER  keepresnum = 1 
DOCKED: USER  
DOCKED: REMARK  24 active torsions:
DOCKED: REMARK  status: ('A' for Active; 'I' for Inactive)
DOCKED: REMARK    1  A    between atoms: C_1  and  O_7 
DOCKED: REMARK    2  A    between atoms: C_2  and  O_12 
DOCKED: REMARK    3  A    between atoms: C_3  and  O_17 
DOCKED: REMARK    4  A    between atoms: C_4  and  O_22 
DOCKED: REMARK    5  A    between atoms: C_5  and  O_27 
DOCKED: REMARK    6  A    between atoms: C_6  and  O_32 
DOCKED: REMARK    7  A    between atoms: O_7  and  P_8 
DOCKED: REMARK    8  A    between atoms: P_8  and  O_10 
DOCKED: REMARK    9  A    between atoms: P_8  and  O_11 
DOCKED: REMARK   10  A    between atoms: O_12  and  P_13 
DOCKED: REMARK   11  A    between atoms: P_13  and  O_15 
DOCKED: REMARK   12  A    between atoms: P_13  and  O_16 
DOCKED: REMARK   13  A    between atoms: O_17  and  P_18 
DOCKED: REMARK   14  A    between atoms: P_18  and  O_20 
DOCKED: REMARK   15  A    between atoms: P_18  and  O_21 
DOCKED: REMARK   16  A    between atoms: O_22  and  P_23 
DOCKED: REMARK   17  A    between atoms: P_23  and  O_25 
DOCKED: REMARK   18  A    between atoms: P_23  and  O_26 
DOCKED: REMARK   19  A    between atoms: O_27  and  P_28 
DOCKED: REMARK   20  A    between atoms: P_28  and  O_30 
DOCKED: REMARK   21  A    between atoms: P_28  and  O_31 
DOCKED: REMARK   22  A    between atoms: O_32  and  P_33 
DOCKED: REMARK   23  A    between atoms: P_33  and  O_35 
DOCKED: REMARK   24  A    between atoms: P_33  and  O_36 
DOCKED: USER                              x       y       z     vdW  Elec       q    Type
DOCKED: USER                           _______ _______ _______ _____ _____    ______ ____
DOCKED: ROOT
DOCKED: ATOM      1  C   UNL d   1      14.900   7.364 -16.198 -0.14 +0.03    +0.194 C 
DOCKED: ATOM      2  C   UNL d   1      15.335   7.227 -14.738 -0.24 +0.05    +0.194 C 
DOCKED: ATOM      3  C   UNL d   1      14.758   5.967 -14.090 -0.26 +0.05    +0.194 C 
DOCKED: ATOM      4  C   UNL d   1      15.031   4.698 -14.895 -0.13 +0.05    +0.194 C 
DOCKED: ATOM      5  C   UNL d   1      14.718   4.827 -16.381 -0.13 +0.04    +0.194 C 
DOCKED: ATOM      6  C   UNL d   1      15.243   6.117 -17.014 -0.09 +0.04    +0.194 C 
DOCKED: ENDROOT
DOCKED: BRANCH   1   7
DOCKED: ATOM      7  O   UNL d   1      15.613   8.460 -16.775 -0.13 -0.07    -0.278 OA
DOCKED: BRANCH   7   8
DOCKED: ATOM      8  P   UNL d   1      17.022   8.168 -17.470 +0.00 +0.10    +0.473 P 
DOCKED: ATOM      9  O   UNL d   1      17.737   6.964 -16.966 -0.01 -0.05    -0.228 OA
DOCKED: BRANCH   8  10
DOCKED: ATOM     10  O   UNL d   1      16.676   8.088 -19.025 -0.00 -0.06    -0.303 OA
DOCKED: ATOM     11  H   UNL d   1      15.850   7.585 -19.151 +0.02 +0.04    +0.222 HD
DOCKED: ENDBRANCH   8  10
DOCKED: BRANCH   8  12
DOCKED: ATOM     12  O   UNL d   1      17.820   9.539 -17.377 -0.01 -0.06    -0.303 OA
DOCKED: ATOM     13  H   UNL d   1      18.166   9.723 -16.475 +0.04 +0.05    +0.222 HD
DOCKED: ENDBRANCH   8  12
DOCKED: ENDBRANCH   7   8
DOCKED: ENDBRANCH   1   7
DOCKED: BRANCH   2  14
DOCKED: ATOM     14  O   UNL d   1      16.765   7.155 -14.681 -0.10 -0.08    -0.278 OA
DOCKED: BRANCH  14  15
DOCKED: ATOM     15  P   UNL d   1      17.497   8.199 -13.712 -0.14 +0.17    +0.473 P 
DOCKED: ATOM     16  O   UNL d   1      18.447   9.160 -14.353 -0.12 -0.07    -0.228 OA
DOCKED: BRANCH  15  17
DOCKED: ATOM     17  O   UNL d   1      16.300   8.927 -12.953 -0.59 -0.14    -0.303 OA
DOCKED: ATOM     18  H   UNL d   1      16.037   9.746 -13.415 -0.42 +0.02    +0.222 HD
DOCKED: ENDBRANCH  15  17
DOCKED: BRANCH  15  19
DOCKED: ATOM     19  O   UNL d   1      18.110   7.299 -12.552 -0.14 -0.15    -0.303 OA
DOCKED: ATOM     20  H   UNL d   1      17.904   6.355 -12.681 +0.07 +0.10    +0.222 HD
DOCKED: ENDBRANCH  15  19
DOCKED: ENDBRANCH  14  15
DOCKED: ENDBRANCH   2  14
DOCKED: BRANCH   6  21
DOCKED: ATOM     21  O   UNL d   1      14.592   6.251 -18.276 -0.06 -0.05    -0.278 OA
DOCKED: BRANCH  21  22
DOCKED: ATOM     22  P   UNL d   1      13.014   6.480 -18.332 -0.12 +0.08    +0.473 P 
DOCKED: ATOM     23  O   UNL d   1      12.510   7.816 -18.764 -0.13 -0.08    -0.228 OA
DOCKED: BRANCH  22  24
DOCKED: ATOM     24  O   UNL d   1      12.541   5.263 -19.241 -0.12 -0.03    -0.303 OA
DOCKED: ATOM     25  H   UNL d   1      11.974   4.666 -18.688 -0.30 -0.04    +0.222 HD
DOCKED: ENDBRANCH  22  24
DOCKED: BRANCH  22  26
DOCKED: ATOM     26  O   UNL d   1      12.563   5.997 -16.871 -0.17 +0.00    -0.303 OA
DOCKED: ATOM     27  H   UNL d   1      12.513   5.019 -16.857 -0.49 -0.04    +0.222 HD
DOCKED: ENDBRANCH  22  26
DOCKED: ENDBRANCH  21  22
DOCKED: ENDBRANCH   6  21
DOCKED: BRANCH   3  28
DOCKED: ATOM     28  O   UNL d   1      15.427   5.777 -12.850 -0.24 -0.13    -0.278 OA
DOCKED: BRANCH  28  29
DOCKED: ATOM     29  P   UNL d   1      16.561   4.668 -12.709 -0.06 +0.22    +0.473 P 
DOCKED: ATOM     30  O   UNL d   1      17.472   4.531 -13.874 -0.03 -0.07    -0.228 OA
DOCKED: BRANCH  29  31
DOCKED: ATOM     31  O   UNL d   1      17.219   5.116 -11.320 -0.16 -0.24    -0.303 OA
DOCKED: ATOM     32  H   UNL d   1      18.137   5.428 -11.495 +0.06 +0.14    +0.222 HD
DOCKED: ENDBRANCH  29  31
DOCKED: BRANCH  29  33
DOCKED: ATOM     33  O   UNL d   1      15.719   3.380 -12.299 -0.11 -0.15    -0.303 OA
DOCKED: ATOM     34  H   UNL d   1      14.970   3.271 -12.934 +0.11 +0.08    +0.222 HD
DOCKED: ENDBRANCH  29  33
DOCKED: ENDBRANCH  28  29
DOCKED: ENDBRANCH   3  28
DOCKED: BRANCH   5  35
DOCKED: ATOM     35  O   UNL d   1      15.396   3.743 -17.014 -0.04 -0.06    -0.278 OA
DOCKED: BRANCH  35  36
DOCKED: ATOM     36  P   UNL d   1      14.590   2.438 -17.454 -0.04 +0.13    +0.473 P 
DOCKED: ATOM     37  O   UNL d   1      14.313   1.453 -16.364 -0.08 -0.08    -0.228 OA
DOCKED: BRANCH  36  38
DOCKED: ATOM     38  O   UNL d   1      13.285   3.068 -18.114 -0.10 -0.08    -0.303 OA
DOCKED: ATOM     39  H   UNL d   1      13.019   3.864 -17.605 -0.34 +0.02    +0.222 HD
DOCKED: ENDBRANCH  36  38
DOCKED: BRANCH  36  40
DOCKED: ATOM     40  O   UNL d   1      15.436   1.920 -18.697 -0.02 -0.06    -0.303 OA
DOCKED: ATOM     41  H   UNL d   1      15.549   0.944 -18.680 +0.02 +0.05    +0.222 HD
DOCKED: ENDBRANCH  36  40
DOCKED: ENDBRANCH  35  36
DOCKED: ENDBRANCH   5  35
DOCKED: BRANCH   4  42
DOCKED: ATOM     42  O   UNL d   1      14.170   3.681 -14.371 -0.15 -0.08    -0.278 OA
DOCKED: BRANCH  42  43
DOCKED: ATOM     43  P   UNL d   1      12.818   4.115 -13.644 -0.28 +0.10    +0.473 P 
DOCKED: ATOM     44  O   UNL d   1      11.960   5.120 -14.331 -0.54 -0.01    -0.228 OA
DOCKED: BRANCH  43  45
DOCKED: ATOM     45  O   UNL d   1      12.101   2.719 -13.380 -0.29 -0.03    -0.303 OA
DOCKED: ATOM     46  H   UNL d   1      11.632   2.714 -12.521 -0.34 -0.03    +0.222 HD
DOCKED: ENDBRANCH  43  45
DOCKED: BRANCH  43  47
DOCKED: ATOM     47  O   UNL d   1      13.306   4.514 -12.170 -0.30 -0.12    -0.303 OA
DOCKED: ATOM     48  H   UNL d   1      14.262   4.728 -12.194 +0.14 +0.11    +0.222 HD
DOCKED: ENDBRANCH  43  47
DOCKED: ENDBRANCH  42  43
DOCKED: ENDBRANCH   4  42
DOCKED: TORSDOF 24
DOCKED: TER
DOCKED: ENDMDL
________________________________________________________________________________


	BEGINNING GENETIC ALGORITHM DOCKING 18 of 100
Run: 18 Seed: 1068531944 1614701457 [ Run 18 of 100 GA/GALS ]
Beginning LAMARCKIAN GENETIC ALGORITHM (LGA), with a maximum of 25000000 energy evaluations.

Final-Value: -18.581


	FINAL GENETIC ALGORITHM DOCKED STATE
	_______________________________________________


Detailed state:  trans -20.786 -4.927 6.421 quatxyzw 0.253659 -0.303054 0.914740 -0.084057 center 0.035 0.082 -0.065 ntor 24 119.3237 95.4522 72.7963 -179.7149 16.6490 75.9769 -68.0215 7.4238 158.4995 -29.4249 -167.7106 149.5279 -80.9087 64.1503 179.8509 165.0464 95.1588 179.3083 -146.9669 -11.0431 15.7284 -16.1598 -50.6448 34.2870
State:	-20.786  -4.927   6.421   0.255 -0.304  0.918 -170.356    119.32   95.45   72.80 -179.71   16.65   75.98  -68.02    7.42  158.50  -29.42 -167.71  149.53  -80.91   64.15  179.85  165.05   95.16  179.31 -146.97  -11.04   15.73  -16.16  -50.64   34.29

DOCKED: MODEL       18
DOCKED: USER    Run = 18
DOCKED: USER    DPF = D:/Protein_go_brrr/autodock/final/AncB/IHP/dock.dpf
DOCKED: USER  
DOCKED: USER    Estimated Free Energy of Binding    =   +2.40 kcal/mol  [=(1)+(2)+(3)-(4)]
DOCKED: USER    
DOCKED: USER    (1) Final Intermolecular Energy     =   -4.76 kcal/mol
DOCKED: USER        vdW + Hbond + desolv Energy     =   -4.34 kcal/mol
DOCKED: USER        Electrostatic Energy            =   -0.42 kcal/mol
DOCKED: USER    (2) Final Total Internal Energy     =  -13.82 kcal/mol
DOCKED: USER    (3) Torsional Free Energy           =   +7.16 kcal/mol
DOCKED: USER    (4) Unbound System's Energy  [=(2)] =  -13.82 kcal/mol
DOCKED: USER    
DOCKED: USER    
DOCKED: USER    NEWDPF move IHP_ideal_opt.pdbqt
DOCKED: USER    NEWDPF about 0.035000 0.082000 -0.065000
DOCKED: USER    NEWDPF tran0 -20.786361 -4.926882 6.420973
DOCKED: USER    NEWDPF quaternion0 0.253659 -0.303054 0.914740 -0.084057
DOCKED: USER    NEWDPF axisangle0 0.254560 -0.304130 0.917989 -170.356372
DOCKED: USER    NEWDPF quat0 0.254560 -0.304130 0.917989 -170.356372
DOCKED: USER    NEWDPF dihe0 119.32 95.45 72.80 -179.71 16.65 75.98 -68.02 7.42 158.50 -29.42 -167.71 149.53 -80.91 64.15 179.85 165.05 95.16 179.31 -146.97 -11.04 15.73 -16.16 -50.64 34.29 
DOCKED: USER  keepresnum = 1 
DOCKED: USER  
DOCKED: REMARK  24 active torsions:
DOCKED: REMARK  status: ('A' for Active; 'I' for Inactive)
DOCKED: REMARK    1  A    between atoms: C_1  and  O_7 
DOCKED: REMARK    2  A    between atoms: C_2  and  O_12 
DOCKED: REMARK    3  A    between atoms: C_3  and  O_17 
DOCKED: REMARK    4  A    between atoms: C_4  and  O_22 
DOCKED: REMARK    5  A    between atoms: C_5  and  O_27 
DOCKED: REMARK    6  A    between atoms: C_6  and  O_32 
DOCKED: REMARK    7  A    between atoms: O_7  and  P_8 
DOCKED: REMARK    8  A    between atoms: P_8  and  O_10 
DOCKED: REMARK    9  A    between atoms: P_8  and  O_11 
DOCKED: REMARK   10  A    between atoms: O_12  and  P_13 
DOCKED: REMARK   11  A    between atoms: P_13  and  O_15 
DOCKED: REMARK   12  A    between atoms: P_13  and  O_16 
DOCKED: REMARK   13  A    between atoms: O_17  and  P_18 
DOCKED: REMARK   14  A    between atoms: P_18  and  O_20 
DOCKED: REMARK   15  A    between atoms: P_18  and  O_21 
DOCKED: REMARK   16  A    between atoms: O_22  and  P_23 
DOCKED: REMARK   17  A    between atoms: P_23  and  O_25 
DOCKED: REMARK   18  A    between atoms: P_23  and  O_26 
DOCKED: REMARK   19  A    between atoms: O_27  and  P_28 
DOCKED: REMARK   20  A    between atoms: P_28  and  O_30 
DOCKED: REMARK   21  A    between atoms: P_28  and  O_31 
DOCKED: REMARK   22  A    between atoms: O_32  and  P_33 
DOCKED: REMARK   23  A    between atoms: P_33  and  O_35 
DOCKED: REMARK   24  A    between atoms: P_33  and  O_36 
DOCKED: USER                              x       y       z     vdW  Elec       q    Type
DOCKED: USER                           _______ _______ _______ _____ _____    ______ ____
DOCKED: ROOT
DOCKED: ATOM      1  C   UNL d   1     -21.261  -4.687   8.065 -0.00 +0.02    +0.194 C 
DOCKED: ATOM      2  C   UNL d   1     -20.096  -3.822   7.580 -0.03 +0.03    +0.194 C 
DOCKED: ATOM      3  C   UNL d   1     -19.102  -4.628   6.742 -0.09 +0.00    +0.194 C 
DOCKED: ATOM      4  C   UNL d   1     -19.762  -5.399   5.601 -0.05 -0.00    +0.194 C 
DOCKED: ATOM      5  C   UNL d   1     -20.998  -6.186   6.018 -0.01 +0.01    +0.194 C 
DOCKED: ATOM      6  C   UNL d   1     -21.963  -5.398   6.907 +0.01 +0.01    +0.194 C 
DOCKED: ENDROOT
DOCKED: BRANCH   1   7
DOCKED: ATOM      7  O   UNL d   1     -22.223  -3.832   8.686 +0.00 -0.03    -0.278 OA
DOCKED: BRANCH   7   8
DOCKED: ATOM      8  P   UNL d   1     -23.385  -3.213   7.781 +0.01 +0.04    +0.473 P 
DOCKED: ATOM      9  O   UNL d   1     -23.027  -3.000   6.352 +0.00 -0.02    -0.228 OA
DOCKED: BRANCH   8  10
DOCKED: ATOM     10  O   UNL d   1     -24.607  -4.221   7.979 +0.00 -0.02    -0.303 OA
DOCKED: ATOM     11  H   UNL d   1     -24.272  -5.136   8.015 +0.00 +0.02    +0.222 HD
DOCKED: ENDBRANCH   8  10
DOCKED: BRANCH   8  12
DOCKED: ATOM     12  O   UNL d   1     -23.884  -1.928   8.571 +0.00 -0.02    -0.303 OA
DOCKED: ATOM     13  H   UNL d   1     -23.148  -1.333   8.842 +0.00 +0.02    +0.222 HD
DOCKED: ENDBRANCH   8  12
DOCKED: ENDBRANCH   7   8
DOCKED: ENDBRANCH   1   7
DOCKED: BRANCH   2  14
DOCKED: ATOM     14  O   UNL d   1     -20.611  -2.754   6.775 -0.00 -0.03    -0.278 OA
DOCKED: BRANCH  14  15
DOCKED: ATOM     15  P   UNL d   1     -20.299  -1.265   7.275 +0.01 +0.05    +0.473 P 
DOCKED: ATOM     16  O   UNL d   1     -19.517  -0.393   6.343 -0.03 -0.02    -0.228 OA
DOCKED: BRANCH  15  17
DOCKED: ATOM     17  O   UNL d   1     -21.732  -0.665   7.625 +0.00 -0.03    -0.303 OA
DOCKED: ATOM     18  H   UNL d   1     -22.438  -1.138   7.145 +0.00 +0.02    +0.222 HD
DOCKED: ENDBRANCH  15  17
DOCKED: BRANCH  15  19
DOCKED: ATOM     19  O   UNL d   1     -19.670  -1.457   8.724 -0.01 -0.05    -0.303 OA
DOCKED: ATOM     20  H   UNL d   1     -18.770  -1.088   8.778 +0.05 +0.04    +0.222 HD
DOCKED: ENDBRANCH  15  19
DOCKED: ENDBRANCH  14  15
DOCKED: ENDBRANCH   2  14
DOCKED: BRANCH   6  21
DOCKED: ATOM     21  O   UNL d   1     -22.860  -6.346   7.482 +0.00 -0.02    -0.278 OA
DOCKED: BRANCH  21  22
DOCKED: ATOM     22  P   UNL d   1     -24.178  -6.771   6.689 +0.00 +0.04    +0.473 P 
DOCKED: ATOM     23  O   UNL d   1     -25.379  -7.167   7.479 +0.00 -0.02    -0.228 OA
DOCKED: BRANCH  22  24
DOCKED: ATOM     24  O   UNL d   1     -24.394  -5.522   5.726 +0.00 -0.02    -0.303 OA
DOCKED: ATOM     25  H   UNL d   1     -24.340  -4.698   6.273 +0.00 +0.02    +0.222 HD
DOCKED: ENDBRANCH  22  24
DOCKED: BRANCH  22  26
DOCKED: ATOM     26  O   UNL d   1     -23.606  -7.874   5.676 +0.00 -0.02    -0.303 OA
DOCKED: ATOM     27  H   UNL d   1     -23.448  -7.460   4.804 +0.00 +0.02    +0.222 HD
DOCKED: ENDBRANCH  22  26
DOCKED: ENDBRANCH  21  22
DOCKED: ENDBRANCH   6  21
DOCKED: BRANCH   3  28
DOCKED: ATOM     28  O   UNL d   1     -18.223  -3.704   6.113 -0.12 -0.01    -0.278 OA
DOCKED: BRANCH  28  29
DOCKED: ATOM     29  P   UNL d   1     -16.827  -3.336   6.786 -0.29 +0.07    +0.473 P 
DOCKED: ATOM     30  O   UNL d   1     -15.676  -3.221   5.853 -0.71 -0.04    -0.228 OA
DOCKED: BRANCH  29  31
DOCKED: ATOM     31  O   UNL d   1     -17.244  -2.016   7.590 -0.12 -0.06    -0.303 OA
DOCKED: ATOM     32  H   UNL d   1     -18.102  -1.690   7.234 +0.08 +0.03    +0.222 HD
DOCKED: ENDBRANCH  29  31
DOCKED: BRANCH  29  33
DOCKED: ATOM     33  O   UNL d   1     -16.713  -4.429   7.939 -0.68 -0.17    -0.303 OA
DOCKED: ATOM     34  H   UNL d   1     -16.618  -5.322   7.526 -0.23 -0.13    +0.222 HD
DOCKED: ENDBRANCH  29  33
DOCKED: ENDBRANCH  28  29
DOCKED: ENDBRANCH   3  28
DOCKED: BRANCH   5  35
DOCKED: ATOM     35  O   UNL d   1     -21.692  -6.486   4.809 +0.00 -0.02    -0.278 OA
DOCKED: BRANCH  35  36
DOCKED: ATOM     36  P   UNL d   1     -21.215  -7.697   3.887 +0.02 +0.04    +0.473 P 
DOCKED: ATOM     37  O   UNL d   1     -22.310  -8.524   3.291 -0.00 -0.02    -0.228 OA
DOCKED: BRANCH  36  38
DOCKED: ATOM     38  O   UNL d   1     -20.301  -6.952   2.817 -0.02 -0.03    -0.303 OA
DOCKED: ATOM     39  H   UNL d   1     -19.382  -6.904   3.158 +0.07 +0.02    +0.222 HD
DOCKED: ENDBRANCH  36  38
DOCKED: BRANCH  36  40
DOCKED: ATOM     40  O   UNL d   1     -20.173  -8.448   4.825 -0.02 -0.01    -0.303 OA
DOCKED: ATOM     41  H   UNL d   1     -19.345  -7.929   4.937 +0.06 -0.00    +0.222 HD
DOCKED: ENDBRANCH  36  40
DOCKED: ENDBRANCH  35  36
DOCKED: ENDBRANCH   5  35
DOCKED: BRANCH   4  42
DOCKED: ATOM     42  O   UNL d   1     -18.799  -6.346   5.129 -0.12 +0.02    -0.278 OA
DOCKED: BRANCH  42  43
DOCKED: ATOM     43  P   UNL d   1     -17.606  -5.836   4.202 -0.27 +0.03    +0.473 P 
DOCKED: ATOM     44  O   UNL d   1     -17.284  -6.642   2.991 -0.37 -0.05    -0.228 OA
DOCKED: BRANCH  43  45
DOCKED: ATOM     45  O   UNL d   1     -18.023  -4.333   3.891 -0.19 +0.03    -0.303 OA
DOCKED: ATOM     46  H   UNL d   1     -17.354  -3.700   4.219 -0.37 -0.06    +0.222 HD
DOCKED: ENDBRANCH  43  45
DOCKED: BRANCH  43  47
DOCKED: ATOM     47  O   UNL d   1     -16.399  -5.632   5.237 -0.95 -0.04    -0.303 OA
DOCKED: ATOM     48  H   UNL d   1     -16.763  -5.369   6.108 -0.02 -0.05    +0.222 HD
DOCKED: ENDBRANCH  43  47
DOCKED: ENDBRANCH  42  43
DOCKED: ENDBRANCH   4  42
DOCKED: TORSDOF 24
DOCKED: TER
DOCKED: ENDMDL
________________________________________________________________________________


	BEGINNING GENETIC ALGORITHM DOCKING 19 of 100
Run: 19 Seed: 1495166543 1074625138 [ Run 19 of 100 GA/GALS ]
Beginning LAMARCKIAN GENETIC ALGORITHM (LGA), with a maximum of 25000000 energy evaluations.

Final-Value: -18.872


	FINAL GENETIC ALGORITHM DOCKED STATE
	_______________________________________________


Detailed state:  trans -3.245 -12.261 9.065 quatxyzw -0.366069 -0.338039 0.302017 0.812717 center 0.035 0.082 -0.065 ntor 24 -144.8615 -36.5587 72.4882 93.7760 30.1332 -158.4093 -116.8006 -8.0855 -24.6239 91.3814 55.7118 -79.5427 77.7649 109.3015 168.4581 172.6437 -166.2655 81.7912 -21.8356 -9.8443 -2.1823 13.2376 -50.3589 19.8999
State:	 -3.245 -12.261   9.065  -0.628 -0.580  0.518 71.276   -144.86  -36.56   72.49   93.78   30.13 -158.41 -116.80   -8.09  -24.62   91.38   55.71  -79.54   77.76  109.30  168.46  172.64 -166.27   81.79  -21.84   -9.84   -2.18   13.24  -50.36   19.90

DOCKED: MODEL       19
DOCKED: USER    Run = 19
DOCKED: USER    DPF = D:/Protein_go_brrr/autodock/final/AncB/IHP/dock.dpf
DOCKED: USER  
DOCKED: USER    Estimated Free Energy of Binding    =   +2.27 kcal/mol  [=(1)+(2)+(3)-(4)]
DOCKED: USER    
DOCKED: USER    (1) Final Intermolecular Energy     =   -4.89 kcal/mol
DOCKED: USER        vdW + Hbond + desolv Energy     =   -4.56 kcal/mol
DOCKED: USER        Electrostatic Energy            =   -0.33 kcal/mol
DOCKED: USER    (2) Final Total Internal Energy     =  -13.98 kcal/mol
DOCKED: USER    (3) Torsional Free Energy           =   +7.16 kcal/mol
DOCKED: USER    (4) Unbound System's Energy  [=(2)] =  -13.98 kcal/mol
DOCKED: USER    
DOCKED: USER    
DOCKED: USER    NEWDPF move IHP_ideal_opt.pdbqt
DOCKED: USER    NEWDPF about 0.035000 0.082000 -0.065000
DOCKED: USER    NEWDPF tran0 -3.245382 -12.261387 9.065281
DOCKED: USER    NEWDPF quaternion0 -0.366069 -0.338039 0.302017 0.812717
DOCKED: USER    NEWDPF axisangle0 -0.628273 -0.580166 0.518344 71.275509
DOCKED: USER    NEWDPF quat0 -0.628273 -0.580166 0.518344 71.275509
DOCKED: USER    NEWDPF dihe0 -144.86 -36.56 72.49 93.78 30.13 -158.41 -116.80 -8.09 -24.62 91.38 55.71 -79.54 77.76 109.30 168.46 172.64 -166.27 81.79 -21.84 -9.84 -2.18 13.24 -50.36 19.90 
DOCKED: USER  keepresnum = 1 
DOCKED: USER  
DOCKED: REMARK  24 active torsions:
DOCKED: REMARK  status: ('A' for Active; 'I' for Inactive)
DOCKED: REMARK    1  A    between atoms: C_1  and  O_7 
DOCKED: REMARK    2  A    between atoms: C_2  and  O_12 
DOCKED: REMARK    3  A    between atoms: C_3  and  O_17 
DOCKED: REMARK    4  A    between atoms: C_4  and  O_22 
DOCKED: REMARK    5  A    between atoms: C_5  and  O_27 
DOCKED: REMARK    6  A    between atoms: C_6  and  O_32 
DOCKED: REMARK    7  A    between atoms: O_7  and  P_8 
DOCKED: REMARK    8  A    between atoms: P_8  and  O_10 
DOCKED: REMARK    9  A    between atoms: P_8  and  O_11 
DOCKED: REMARK   10  A    between atoms: O_12  and  P_13 
DOCKED: REMARK   11  A    between atoms: P_13  and  O_15 
DOCKED: REMARK   12  A    between atoms: P_13  and  O_16 
DOCKED: REMARK   13  A    between atoms: O_17  and  P_18 
DOCKED: REMARK   14  A    between atoms: P_18  and  O_20 
DOCKED: REMARK   15  A    between atoms: P_18  and  O_21 
DOCKED: REMARK   16  A    between atoms: O_22  and  P_23 
DOCKED: REMARK   17  A    between atoms: P_23  and  O_25 
DOCKED: REMARK   18  A    between atoms: P_23  and  O_26 
DOCKED: REMARK   19  A    between atoms: O_27  and  P_28 
DOCKED: REMARK   20  A    between atoms: P_28  and  O_30 
DOCKED: REMARK   21  A    between atoms: P_28  and  O_31 
DOCKED: REMARK   22  A    between atoms: O_32  and  P_33 
DOCKED: REMARK   23  A    between atoms: P_33  and  O_35 
DOCKED: REMARK   24  A    between atoms: P_33  and  O_36 
DOCKED: USER                              x       y       z     vdW  Elec       q    Type
DOCKED: USER                           _______ _______ _______ _____ _____    ______ ____
DOCKED: ROOT
DOCKED: ATOM      1  C   UNL d   1      -2.903 -13.687   8.151 -0.05 +0.07    +0.194 C 
DOCKED: ATOM      2  C   UNL d   1      -4.353 -13.530   8.613 -0.09 +0.10    +0.194 C 
DOCKED: ATOM      3  C   UNL d   1      -4.437 -13.047  10.062 -0.09 +0.08    +0.194 C 
DOCKED: ATOM      4  C   UNL d   1      -3.608 -11.792  10.327 -0.12 +0.06    +0.194 C 
DOCKED: ATOM      5  C   UNL d   1      -2.188 -11.860   9.781 -0.08 +0.05    +0.194 C 
DOCKED: ATOM      6  C   UNL d   1      -2.099 -12.402   8.352 -0.10 +0.05    +0.194 C 
DOCKED: ENDROOT
DOCKED: BRANCH   1   7
DOCKED: ATOM      7  O   UNL d   1      -2.910 -13.970   6.750 -0.08 -0.12    -0.278 OA
DOCKED: BRANCH   7   8
DOCKED: ATOM      8  P   UNL d   1      -1.806 -14.971   6.173 -0.02 +0.18    +0.473 P 
DOCKED: ATOM      9  O   UNL d   1      -2.336 -16.073   5.324 -0.05 -0.12    -0.228 OA
DOCKED: BRANCH   8  10
DOCKED: ATOM     10  O   UNL d   1      -0.786 -14.018   5.400 -0.07 -0.11    -0.303 OA
DOCKED: ATOM     11  H   UNL d   1      -0.437 -13.346   6.015 +0.05 +0.06    +0.222 HD
DOCKED: ENDBRANCH   8  10
DOCKED: BRANCH   8  12
DOCKED: ATOM     12  O   UNL d   1      -0.953 -15.418   7.436 -0.00 -0.09    -0.303 OA
DOCKED: ATOM     13  H   UNL d   1      -0.264 -14.762   7.687 +0.02 +0.05    +0.222 HD
DOCKED: ENDBRANCH   8  12
DOCKED: ENDBRANCH   7   8
DOCKED: ENDBRANCH   1   7
DOCKED: BRANCH   2  14
DOCKED: ATOM     14  O   UNL d   1      -5.010 -12.571   7.773 -0.17 -0.16    -0.278 OA
DOCKED: BRANCH  14  15
DOCKED: ATOM     15  P   UNL d   1      -6.311 -13.078   6.990 -0.23 +0.47    +0.473 P 
DOCKED: ATOM     16  O   UNL d   1      -7.195 -12.023   6.402 -0.37 -0.21    -0.228 OA
DOCKED: BRANCH  15  17
DOCKED: ATOM     17  O   UNL d   1      -5.738 -14.084   5.896 -0.29 -0.46    -0.303 OA
DOCKED: ATOM     18  H   UNL d   1      -4.801 -13.893   5.699 +0.07 +0.22    +0.222 HD
DOCKED: ENDBRANCH  15  17
DOCKED: BRANCH  15  19
DOCKED: ATOM     19  O   UNL d   1      -7.019 -14.079   8.004 -0.23 -0.38    -0.303 OA
DOCKED: ATOM     20  H   UNL d   1      -6.903 -13.796   8.930 +0.06 +0.20    +0.222 HD
DOCKED: ENDBRANCH  15  19
DOCKED: ENDBRANCH  14  15
DOCKED: ENDBRANCH   2  14
DOCKED: BRANCH   6  21
DOCKED: ATOM     21  O   UNL d   1      -0.730 -12.725   8.119 -0.04 -0.06    -0.278 OA
DOCKED: BRANCH  21  22
DOCKED: ATOM     22  P   UNL d   1       0.166 -11.767   7.210 -0.10 +0.08    +0.473 P 
DOCKED: ATOM     23  O   UNL d   1       1.429 -12.317   6.639 -0.06 -0.03    -0.228 OA
DOCKED: BRANCH  22  24
DOCKED: ATOM     24  O   UNL d   1      -0.890 -11.262   6.131 -0.21 -0.05    -0.303 OA
DOCKED: ATOM     25  H   UNL d   1      -1.509 -12.010   5.932 +0.08 +0.06    +0.222 HD
DOCKED: ENDBRANCH  22  24
DOCKED: BRANCH  22  26
DOCKED: ATOM     26  O   UNL d   1       0.322 -10.478   8.150 -0.09 -0.05    -0.303 OA
DOCKED: ATOM     27  H   UNL d   1       0.253 -10.753   9.087 +0.05 +0.04    +0.222 HD
DOCKED: ENDBRANCH  22  26
DOCKED: ENDBRANCH  21  22
DOCKED: ENDBRANCH   6  21
DOCKED: BRANCH   3  28
DOCKED: ATOM     28  O   UNL d   1      -5.785 -12.667  10.310 -0.18 -0.15    -0.278 OA
DOCKED: BRANCH  28  29
DOCKED: ATOM     29  P   UNL d   1      -6.599 -13.327  11.509 -0.17 +0.25    +0.473 P 
DOCKED: ATOM     30  O   UNL d   1      -7.589 -12.442  12.175 -0.85 -0.16    -0.228 OA
DOCKED: BRANCH  29  31
DOCKED: ATOM     31  O   UNL d   1      -7.168 -14.631  10.777 -0.14 -0.19    -0.303 OA
DOCKED: ATOM     32  H   UNL d   1      -7.792 -14.346  10.070 -0.27 +0.14    +0.222 HD
DOCKED: ENDBRANCH  29  31
DOCKED: BRANCH  29  33
DOCKED: ATOM     33  O   UNL d   1      -5.433 -13.916  12.420 -0.03 -0.11    -0.303 OA
DOCKED: ATOM     34  H   UNL d   1      -4.767 -13.205  12.588 +0.05 +0.08    +0.222 HD
DOCKED: ENDBRANCH  29  33
DOCKED: ENDBRANCH  28  29
DOCKED: ENDBRANCH   3  28
DOCKED: BRANCH   5  35
DOCKED: ATOM     35  O   UNL d   1      -1.720 -10.513   9.749 -0.12 -0.06    -0.278 OA
DOCKED: BRANCH  35  36
DOCKED: ATOM     36  P   UNL d   1      -1.182  -9.817  11.079 -0.09 +0.08    +0.473 P 
DOCKED: ATOM     37  O   UNL d   1      -1.893  -8.564  11.484 -0.25 -0.05    -0.228 OA
DOCKED: BRANCH  36  38
DOCKED: ATOM     38  O   UNL d   1      -1.293 -11.003  12.136 -0.02 -0.05    -0.303 OA
DOCKED: ATOM     39  H   UNL d   1      -2.149 -10.930  12.612 +0.04 +0.05    +0.222 HD
DOCKED: ENDBRANCH  36  38
DOCKED: BRANCH  36  40
DOCKED: ATOM     40  O   UNL d   1       0.378  -9.702  10.796 -0.06 -0.04    -0.303 OA
DOCKED: ATOM     41  H   UNL d   1       0.560  -9.303   9.916 +0.06 +0.03    +0.222 HD
DOCKED: ENDBRANCH  36  40
DOCKED: ENDBRANCH  35  36
DOCKED: ENDBRANCH   5  35
DOCKED: BRANCH   4  42
DOCKED: ATOM     42  O   UNL d   1      -3.507 -11.655  11.748 -0.05 -0.09    -0.278 OA
DOCKED: BRANCH  42  43
DOCKED: ATOM     43  P   UNL d   1      -4.601 -10.788  12.519 -0.09 +0.23    +0.473 P 
DOCKED: ATOM     44  O   UNL d   1      -5.293 -11.425  13.675 -0.12 -0.11    -0.228 OA
DOCKED: BRANCH  43  45
DOCKED: ATOM     45  O   UNL d   1      -3.800  -9.464  12.890 -0.12 -0.14    -0.303 OA
DOCKED: ATOM     46  H   UNL d   1      -2.834  -9.599  12.823 +0.06 +0.06    +0.222 HD
DOCKED: ENDBRANCH  43  45
DOCKED: BRANCH  43  47
DOCKED: ATOM     47  O   UNL d   1      -5.557 -10.272  11.340 -0.16 -0.20    -0.303 OA
DOCKED: ATOM     48  H   UNL d   1      -6.355 -10.838  11.301 +0.13 +0.15    +0.222 HD
DOCKED: ENDBRANCH  43  47
DOCKED: ENDBRANCH  42  43
DOCKED: ENDBRANCH   4  42
DOCKED: TORSDOF 24
DOCKED: TER
DOCKED: ENDMDL
________________________________________________________________________________


	BEGINNING GENETIC ALGORITHM DOCKING 20 of 100
Run: 20 Seed: 1844801458 360005230 [ Run 20 of 100 GA/GALS ]
Beginning LAMARCKIAN GENETIC ALGORITHM (LGA), with a maximum of 25000000 energy evaluations.

Final-Value: -17.192


	FINAL GENETIC ALGORITHM DOCKED STATE
	_______________________________________________


Detailed state:  trans -13.396 9.983 18.362 quatxyzw -0.380612 -0.491262 -0.616990 0.482825 center 0.035 0.082 -0.065 ntor 24 -123.2195 -1.4597 -166.4131 -38.6819 -8.7272 -180.0000 -93.1961 -17.9803 133.3654 -38.8915 88.5610 -34.9204 64.4459 -180.0000 179.3554 -27.2060 175.5862 40.4408 40.8728 17.8227 172.5284 3.1785 15.0080 -177.4750
State:	-13.396   9.983  18.362  -0.435 -0.561 -0.705 122.260   -123.22   -1.46 -166.41  -38.68   -8.73 -180.00  -93.20  -17.98  133.37  -38.89   88.56  -34.92   64.45 -180.00  179.36  -27.21  175.59   40.44   40.87   17.82  172.53    3.18   15.01 -177.48

DOCKED: MODEL       20
DOCKED: USER    Run = 20
DOCKED: USER    DPF = D:/Protein_go_brrr/autodock/final/AncB/IHP/dock.dpf
DOCKED: USER  
DOCKED: USER    Estimated Free Energy of Binding    =   +3.80 kcal/mol  [=(1)+(2)+(3)-(4)]
DOCKED: USER    
DOCKED: USER    (1) Final Intermolecular Energy     =   -3.36 kcal/mol
DOCKED: USER        vdW + Hbond + desolv Energy     =   -3.08 kcal/mol
DOCKED: USER        Electrostatic Energy            =   -0.28 kcal/mol
DOCKED: USER    (2) Final Total Internal Energy     =  -13.84 kcal/mol
DOCKED: USER    (3) Torsional Free Energy           =   +7.16 kcal/mol
DOCKED: USER    (4) Unbound System's Energy  [=(2)] =  -13.84 kcal/mol
DOCKED: USER    
DOCKED: USER    
DOCKED: USER    NEWDPF move IHP_ideal_opt.pdbqt
DOCKED: USER    NEWDPF about 0.035000 0.082000 -0.065000
DOCKED: USER    NEWDPF tran0 -13.395529 9.983204 18.362495
DOCKED: USER    NEWDPF quaternion0 -0.380612 -0.491262 -0.616990 0.482825
DOCKED: USER    NEWDPF axisangle0 -0.434629 -0.560982 -0.704554 122.259876
DOCKED: USER    NEWDPF quat0 -0.434629 -0.560982 -0.704554 122.259876
DOCKED: USER    NEWDPF dihe0 -123.22 -1.46 -166.41 -38.68 -8.73 -180.00 -93.20 -17.98 133.37 -38.89 88.56 -34.92 64.45 -180.00 179.36 -27.21 175.59 40.44 40.87 17.82 172.53 3.18 15.01 -177.48 
DOCKED: USER  keepresnum = 1 
DOCKED: USER  
DOCKED: REMARK  24 active torsions:
DOCKED: REMARK  status: ('A' for Active; 'I' for Inactive)
DOCKED: REMARK    1  A    between atoms: C_1  and  O_7 
DOCKED: REMARK    2  A    between atoms: C_2  and  O_12 
DOCKED: REMARK    3  A    between atoms: C_3  and  O_17 
DOCKED: REMARK    4  A    between atoms: C_4  and  O_22 
DOCKED: REMARK    5  A    between atoms: C_5  and  O_27 
DOCKED: REMARK    6  A    between atoms: C_6  and  O_32 
DOCKED: REMARK    7  A    between atoms: O_7  and  P_8 
DOCKED: REMARK    8  A    between atoms: P_8  and  O_10 
DOCKED: REMARK    9  A    between atoms: P_8  and  O_11 
DOCKED: REMARK   10  A    between atoms: O_12  and  P_13 
DOCKED: REMARK   11  A    between atoms: P_13  and  O_15 
DOCKED: REMARK   12  A    between atoms: P_13  and  O_16 
DOCKED: REMARK   13  A    between atoms: O_17  and  P_18 
DOCKED: REMARK   14  A    between atoms: P_18  and  O_20 
DOCKED: REMARK   15  A    between atoms: P_18  and  O_21 
DOCKED: REMARK   16  A    between atoms: O_22  and  P_23 
DOCKED: REMARK   17  A    between atoms: P_23  and  O_25 
DOCKED: REMARK   18  A    between atoms: P_23  and  O_26 
DOCKED: REMARK   19  A    between atoms: O_27  and  P_28 
DOCKED: REMARK   20  A    between atoms: P_28  and  O_30 
DOCKED: REMARK   21  A    between atoms: P_28  and  O_31 
DOCKED: REMARK   22  A    between atoms: O_32  and  P_33 
DOCKED: REMARK   23  A    between atoms: P_33  and  O_35 
DOCKED: REMARK   24  A    between atoms: P_33  and  O_36 
DOCKED: USER                              x       y       z     vdW  Elec       q    Type
DOCKED: USER                           _______ _______ _______ _____ _____    ______ ____
DOCKED: ROOT
DOCKED: ATOM      1  C   UNL d   1     -12.758  11.432  17.672 +0.00 +0.03    +0.194 C 
DOCKED: ATOM      2  C   UNL d   1     -12.623  10.175  16.811 -0.03 +0.04    +0.194 C 
DOCKED: ATOM      3  C   UNL d   1     -12.182   8.966  17.639 -0.04 +0.02    +0.194 C 
DOCKED: ATOM      4  C   UNL d   1     -13.052   8.732  18.871 -0.03 +0.00    +0.194 C 
DOCKED: ATOM      5  C   UNL d   1     -13.308   9.985  19.698 +0.00 +0.00    +0.194 C 
DOCKED: ATOM      6  C   UNL d   1     -13.689  11.210  18.864 +0.01 +0.01    +0.194 C 
DOCKED: ENDROOT
DOCKED: BRANCH   1   7
DOCKED: ATOM      7  O   UNL d   1     -13.334  12.464  16.868 -0.00 -0.06    -0.278 OA
DOCKED: BRANCH   7   8
DOCKED: ATOM      8  P   UNL d   1     -12.377  13.289  15.890 -0.03 +0.24    +0.473 P 
DOCKED: ATOM      9  O   UNL d   1     -12.670  13.132  14.439 -0.11 -0.15    -0.228 OA
DOCKED: BRANCH   8  10
DOCKED: ATOM     10  O   UNL d   1     -12.510  14.795  16.399 -0.01 -0.07    -0.303 OA
DOCKED: ATOM     11  H   UNL d   1     -11.960  14.921  17.194 +0.01 +0.04    +0.222 HD
DOCKED: ENDBRANCH   8  10
DOCKED: BRANCH   8  12
DOCKED: ATOM     12  O   UNL d   1     -10.901  12.914  16.344 -0.49 -0.25    -0.303 OA
DOCKED: ATOM     13  H   UNL d   1     -10.775  12.955  17.319 +0.02 +0.08    +0.222 HD
DOCKED: ENDBRANCH   8  12
DOCKED: ENDBRANCH   7   8
DOCKED: ENDBRANCH   1   7
DOCKED: BRANCH   2  14
DOCKED: ATOM     14  O   UNL d   1     -13.892   9.881  16.213 -0.03 -0.04    -0.278 OA
DOCKED: BRANCH  14  15
DOCKED: ATOM     15  P   UNL d   1     -13.859   9.162  14.782 -0.05 +0.05    +0.473 P 
DOCKED: ATOM     16  O   UNL d   1     -14.598   9.841  13.672 -0.08 -0.03    -0.228 OA
DOCKED: BRANCH  15  17
DOCKED: ATOM     17  O   UNL d   1     -12.306   8.985  14.473 +0.11 -0.05    -0.303 OA
DOCKED: ATOM     18  H   UNL d   1     -12.002   8.085  14.702 -0.44 -0.02    +0.222 HD
DOCKED: ENDBRANCH  15  17
DOCKED: BRANCH  15  19
DOCKED: ATOM     19  O   UNL d   1     -14.298   7.663  15.082 -0.59 -0.03    -0.303 OA
DOCKED: ATOM     20  H   UNL d   1     -13.528   7.069  15.154 -0.38 -0.01    +0.222 HD
DOCKED: ENDBRANCH  15  19
DOCKED: ENDBRANCH  14  15
DOCKED: ENDBRANCH   2  14
DOCKED: BRANCH   6  21
DOCKED: ATOM     21  O   UNL d   1     -13.556  12.346  19.716 +0.00 -0.01    -0.278 OA
DOCKED: BRANCH  21  22
DOCKED: ATOM     22  P   UNL d   1     -12.106  12.830  20.170 +0.01 +0.00    +0.473 P 
DOCKED: ATOM     23  O   UNL d   1     -11.971  13.510  21.491 +0.00 +0.01    -0.228 OA
DOCKED: BRANCH  22  24
DOCKED: ATOM     24  O   UNL d   1     -11.254  11.494  20.017 +0.01 +0.00    -0.303 OA
DOCKED: ATOM     25  H   UNL d   1     -11.485  10.893  20.770 +0.00 -0.00    +0.222 HD
DOCKED: ENDBRANCH  22  24
DOCKED: BRANCH  22  26
DOCKED: ATOM     26  O   UNL d   1     -11.630  13.675  18.893 +0.01 -0.02    -0.303 OA
DOCKED: ATOM     27  H   UNL d   1     -12.370  13.738  18.256 +0.01 +0.02    +0.222 HD
DOCKED: ENDBRANCH  22  26
DOCKED: ENDBRANCH  21  22
DOCKED: ENDBRANCH   6  21
DOCKED: BRANCH   3  28
DOCKED: ATOM     28  O   UNL d   1     -12.353   7.809  16.831 -0.12 -0.02    -0.278 OA
DOCKED: BRANCH  28  29
DOCKED: ATOM     29  P   UNL d   1     -11.087   6.967  16.354 -0.15 +0.02    +0.473 P 
DOCKED: ATOM     30  O   UNL d   1     -10.023   7.744  15.668 -0.16 -0.04    -0.228 OA
DOCKED: BRANCH  29  31
DOCKED: ATOM     31  O   UNL d   1     -10.692   6.253  17.730 -0.09 +0.01    -0.303 OA
DOCKED: ATOM     32  H   UNL d   1     -10.778   6.908  18.460 +0.05 -0.01    +0.222 HD
DOCKED: ENDBRANCH  29  31
DOCKED: BRANCH  29  33
DOCKED: ATOM     33  O   UNL d   1     -11.764   5.787  15.526 -0.20 -0.02    -0.303 OA
DOCKED: ATOM     34  H   UNL d   1     -12.503   6.157  14.985 -0.36 -0.02    +0.222 HD
DOCKED: ENDBRANCH  29  33
DOCKED: ENDBRANCH  28  29
DOCKED: ENDBRANCH   3  28
DOCKED: BRANCH   5  35
DOCKED: ATOM     35  O   UNL d   1     -14.426   9.679  20.529 -0.00 -0.00    -0.278 OA
DOCKED: BRANCH  35  36
DOCKED: ATOM     36  P   UNL d   1     -14.521  10.282  22.003 +0.01 -0.01    +0.473 P 
DOCKED: ATOM     37  O   UNL d   1     -15.042   9.348  23.049 +0.00 +0.00    -0.228 OA
DOCKED: BRANCH  36  38
DOCKED: ATOM     38  O   UNL d   1     -13.027  10.774  22.251 +0.00 +0.01    -0.303 OA
DOCKED: ATOM     39  H   UNL d   1     -12.811  11.481  21.606 +0.00 -0.00    +0.222 HD
DOCKED: ENDBRANCH  36  38
DOCKED: BRANCH  36  40
DOCKED: ATOM     40  O   UNL d   1     -15.334  11.628  21.767 +0.00 -0.00    -0.303 OA
DOCKED: ATOM     41  H   UNL d   1     -14.755  12.350  21.435 +0.00 +0.00    +0.222 HD
DOCKED: ENDBRANCH  36  40
DOCKED: ENDBRANCH  35  36
DOCKED: ENDBRANCH   5  35
DOCKED: BRANCH   4  42
DOCKED: ATOM     42  O   UNL d   1     -12.345   7.811  19.709 -0.02 +0.01    -0.278 OA
DOCKED: BRANCH  42  43
DOCKED: ATOM     43  P   UNL d   1     -11.039   8.313  20.476 +0.01 -0.02    +0.473 P 
DOCKED: ATOM     44  O   UNL d   1     -11.230   8.974  21.797 +0.00 +0.01    -0.228 OA
DOCKED: BRANCH  43  45
DOCKED: ATOM     45  O   UNL d   1     -10.139   7.002  20.527 -0.00 +0.03    -0.303 OA
DOCKED: ATOM     46  H   UNL d   1     -10.459   6.323  19.900 +0.04 -0.02    +0.222 HD
DOCKED: ENDBRANCH  43  45
DOCKED: BRANCH  43  47
DOCKED: ATOM     47  O   UNL d   1     -10.278   9.188  19.369 +0.00 +0.01    -0.303 OA
DOCKED: ATOM     48  H   UNL d   1      -9.846   9.953  19.803 +0.02 -0.01    +0.222 HD
DOCKED: ENDBRANCH  43  47
DOCKED: ENDBRANCH  42  43
DOCKED: ENDBRANCH   4  42
DOCKED: TORSDOF 24
DOCKED: TER
DOCKED: ENDMDL
________________________________________________________________________________


	BEGINNING GENETIC ALGORITHM DOCKING 21 of 100
Run: 21 Seed: 183690666 2021467096 [ Run 21 of 100 GA/GALS ]
Beginning LAMARCKIAN GENETIC ALGORITHM (LGA), with a maximum of 25000000 energy evaluations.

Final-Value: -19.128


	FINAL GENETIC ALGORITHM DOCKED STATE
	_______________________________________________


Detailed state:  trans 3.968 7.994 17.084 quatxyzw -0.262937 0.873832 -0.049342 0.406015 center 0.035 0.082 -0.065 ntor 24 -167.5166 -139.7512 -179.9290 -8.6681 -162.7866 154.3251 -73.9810 -6.2590 -34.3796 60.2558 31.6286 145.1501 -114.4481 -175.9917 179.9902 -6.6336 -15.8106 159.9230 54.0456 10.2581 -13.9869 -7.2509 170.8478 -5.8098
State:	  3.968   7.994  17.084  -0.288  0.956 -0.054 132.091   -167.52 -139.75 -179.93   -8.67 -162.79  154.33  -73.98   -6.26  -34.38   60.26   31.63  145.15 -114.45 -175.99  179.99   -6.63  -15.81  159.92   54.05   10.26  -13.99   -7.25  170.85   -5.81

DOCKED: MODEL       21
DOCKED: USER    Run = 21
DOCKED: USER    DPF = D:/Protein_go_brrr/autodock/final/AncB/IHP/dock.dpf
DOCKED: USER  
DOCKED: USER    Estimated Free Energy of Binding    =   +2.45 kcal/mol  [=(1)+(2)+(3)-(4)]
DOCKED: USER    
DOCKED: USER    (1) Final Intermolecular Energy     =   -4.71 kcal/mol
DOCKED: USER        vdW + Hbond + desolv Energy     =   -4.71 kcal/mol
DOCKED: USER        Electrostatic Energy            =   +0.01 kcal/mol
DOCKED: USER    (2) Final Total Internal Energy     =  -14.42 kcal/mol
DOCKED: USER    (3) Torsional Free Energy           =   +7.16 kcal/mol
DOCKED: USER    (4) Unbound System's Energy  [=(2)] =  -14.42 kcal/mol
DOCKED: USER    
DOCKED: USER    
DOCKED: USER    NEWDPF move IHP_ideal_opt.pdbqt
DOCKED: USER    NEWDPF about 0.035000 0.082000 -0.065000
DOCKED: USER    NEWDPF tran0 3.968448 7.993928 17.084424
DOCKED: USER    NEWDPF quaternion0 -0.262937 0.873832 -0.049342 0.406015
DOCKED: USER    NEWDPF axisangle0 -0.287720 0.956192 -0.053993 132.090564
DOCKED: USER    NEWDPF quat0 -0.287720 0.956192 -0.053993 132.090564
DOCKED: USER    NEWDPF dihe0 -167.52 -139.75 -179.93 -8.67 -162.79 154.33 -73.98 -6.26 -34.38 60.26 31.63 145.15 -114.45 -175.99 179.99 -6.63 -15.81 159.92 54.05 10.26 -13.99 -7.25 170.85 -5.81 
DOCKED: USER  keepresnum = 1 
DOCKED: USER  
DOCKED: REMARK  24 active torsions:
DOCKED: REMARK  status: ('A' for Active; 'I' for Inactive)
DOCKED: REMARK    1  A    between atoms: C_1  and  O_7 
DOCKED: REMARK    2  A    between atoms: C_2  and  O_12 
DOCKED: REMARK    3  A    between atoms: C_3  and  O_17 
DOCKED: REMARK    4  A    between atoms: C_4  and  O_22 
DOCKED: REMARK    5  A    between atoms: C_5  and  O_27 
DOCKED: REMARK    6  A    between atoms: C_6  and  O_32 
DOCKED: REMARK    7  A    between atoms: O_7  and  P_8 
DOCKED: REMARK    8  A    between atoms: P_8  and  O_10 
DOCKED: REMARK    9  A    between atoms: P_8  and  O_11 
DOCKED: REMARK   10  A    between atoms: O_12  and  P_13 
DOCKED: REMARK   11  A    between atoms: P_13  and  O_15 
DOCKED: REMARK   12  A    between atoms: P_13  and  O_16 
DOCKED: REMARK   13  A    between atoms: O_17  and  P_18 
DOCKED: REMARK   14  A    between atoms: P_18  and  O_20 
DOCKED: REMARK   15  A    between atoms: P_18  and  O_21 
DOCKED: REMARK   16  A    between atoms: O_22  and  P_23 
DOCKED: REMARK   17  A    between atoms: P_23  and  O_25 
DOCKED: REMARK   18  A    between atoms: P_23  and  O_26 
DOCKED: REMARK   19  A    between atoms: O_27  and  P_28 
DOCKED: REMARK   20  A    between atoms: P_28  and  O_30 
DOCKED: REMARK   21  A    between atoms: P_28  and  O_31 
DOCKED: REMARK   22  A    between atoms: O_32  and  P_33 
DOCKED: REMARK   23  A    between atoms: P_33  and  O_35 
DOCKED: REMARK   24  A    between atoms: P_33  and  O_36 
DOCKED: USER                              x       y       z     vdW  Elec       q    Type
DOCKED: USER                           _______ _______ _______ _____ _____    ______ ____
DOCKED: ROOT
DOCKED: ATOM      1  C   UNL d   1       3.205   6.470  17.367 -0.24 -0.07    +0.194 C 
DOCKED: ATOM      2  C   UNL d   1       4.523   6.416  16.592 -0.15 -0.04    +0.194 C 
DOCKED: ATOM      3  C   UNL d   1       4.605   7.519  15.535 -0.18 -0.03    +0.194 C 
DOCKED: ATOM      4  C   UNL d   1       4.322   8.911  16.096 -0.20 -0.04    +0.194 C 
DOCKED: ATOM      5  C   UNL d   1       3.078   8.986  16.971 -0.23 -0.07    +0.194 C 
DOCKED: ATOM      6  C   UNL d   1       2.964   7.848  17.986 -0.25 -0.06    +0.194 C 
DOCKED: ENDROOT
DOCKED: BRANCH   1   7
DOCKED: ATOM      7  O   UNL d   1       3.278   5.528  18.439 -0.21 +0.07    -0.278 OA
DOCKED: BRANCH   7   8
DOCKED: ATOM      8  P   UNL d   1       3.296   3.971  18.081 -0.23 -0.11    +0.473 P 
DOCKED: ATOM      9  O   UNL d   1       2.074   3.466  17.398 -0.43 +0.07    -0.228 OA
DOCKED: BRANCH   8  10
DOCKED: ATOM     10  O   UNL d   1       4.622   3.789  17.212 -0.13 +0.08    -0.303 OA
DOCKED: ATOM     11  H   UNL d   1       5.313   4.393  17.540 +0.05 -0.04    +0.222 HD
DOCKED: ENDBRANCH   8  10
DOCKED: BRANCH   8  12
DOCKED: ATOM     12  O   UNL d   1       3.685   3.240  19.437 -0.15 +0.03    -0.303 OA
DOCKED: ATOM     13  H   UNL d   1       3.655   2.259  19.368 +0.06 -0.02    +0.222 HD
DOCKED: ENDBRANCH   8  12
DOCKED: ENDBRANCH   7   8
DOCKED: ENDBRANCH   1   7
DOCKED: BRANCH   2  14
DOCKED: ATOM     14  O   UNL d   1       5.611   6.580  17.510 -0.03 +0.03    -0.278 OA
DOCKED: BRANCH  14  15
DOCKED: ATOM     15  P   UNL d   1       6.919   5.698  17.234 -0.01 -0.04    +0.473 P 
DOCKED: ATOM     16  O   UNL d   1       7.338   4.760  18.322 -0.01 +0.01    -0.228 OA
DOCKED: BRANCH  15  17
DOCKED: ATOM     17  O   UNL d   1       6.601   4.952  15.863 -0.05 +0.03    -0.303 OA
DOCKED: ATOM     18  H   UNL d   1       6.818   5.516  15.097 +0.05 -0.02    +0.222 HD
DOCKED: ENDBRANCH  15  17
DOCKED: BRANCH  15  19
DOCKED: ATOM     19  O   UNL d   1       8.019   6.752  16.776 -0.00 +0.01    -0.303 OA
DOCKED: ATOM     20  H   UNL d   1       7.809   7.137  15.905 +0.02 -0.01    +0.222 HD
DOCKED: ENDBRANCH  15  19
DOCKED: ENDBRANCH  14  15
DOCKED: ENDBRANCH   2  14
DOCKED: BRANCH   6  21
DOCKED: ATOM     21  O   UNL d   1       1.624   7.860  18.472 -0.31 +0.12    -0.278 OA
DOCKED: BRANCH  21  22
DOCKED: ATOM     22  P   UNL d   1       1.342   8.164  20.012 -0.26 -0.11    +0.473 P 
DOCKED: ATOM     23  O   UNL d   1       0.144   7.540  20.646 -0.27 +0.04    -0.228 OA
DOCKED: BRANCH  22  24
DOCKED: ATOM     24  O   UNL d   1       2.732   7.770  20.681 -0.09 +0.04    -0.303 OA
DOCKED: ATOM     25  H   UNL d   1       3.007   8.511  21.278 +0.06 -0.03    +0.222 HD
DOCKED: ENDBRANCH  22  24
DOCKED: BRANCH  22  26
DOCKED: ATOM     26  O   UNL d   1       1.401   9.765  20.044 -0.20 +0.07    -0.303 OA
DOCKED: ATOM     27  H   UNL d   1       1.883  10.085  19.255 +0.05 -0.04    +0.222 HD
DOCKED: ENDBRANCH  22  26
DOCKED: ENDBRANCH  21  22
DOCKED: ENDBRANCH   6  21
DOCKED: BRANCH   3  28
DOCKED: ATOM     28  O   UNL d   1       5.947   7.566  15.068 -0.07 +0.02    -0.278 OA
DOCKED: BRANCH  28  29
DOCKED: ATOM     29  P   UNL d   1       6.330   6.940  13.655 -0.03 -0.02    +0.473 P 
DOCKED: ATOM     30  O   UNL d   1       5.539   5.751  13.246 -0.18 +0.02    -0.228 OA
DOCKED: BRANCH  29  31
DOCKED: ATOM     31  O   UNL d   1       6.212   8.243  12.732 -0.12 +0.00    -0.303 OA
DOCKED: ATOM     32  H   UNL d   1       5.625   8.894  13.181 +0.10 -0.01    +0.222 HD
DOCKED: ENDBRANCH  29  31
DOCKED: BRANCH  29  33
DOCKED: ATOM     33  O   UNL d   1       7.904   6.746  13.790 -0.03 +0.00    -0.303 OA
DOCKED: ATOM     34  H   UNL d   1       8.095   6.234  14.614 +0.03 -0.00    +0.222 HD
DOCKED: ENDBRANCH  29  33
DOCKED: ENDBRANCH  28  29
DOCKED: ENDBRANCH   3  28
DOCKED: BRANCH   5  35
DOCKED: ATOM     35  O   UNL d   1       3.198  10.199  17.712 -0.20 +0.07    -0.278 OA
DOCKED: BRANCH  35  36
DOCKED: ATOM     36  P   UNL d   1       4.458  10.441  18.660 -0.08 -0.05    +0.473 P 
DOCKED: ATOM     37  O   UNL d   1       5.717   9.745  18.249 -0.03 +0.02    -0.228 OA
DOCKED: BRANCH  36  38
DOCKED: ATOM     38  O   UNL d   1       4.561  12.030  18.667 -0.09 +0.02    -0.303 OA
DOCKED: ATOM     39  H   UNL d   1       5.309  12.306  18.094 +0.03 -0.01    +0.222 HD
DOCKED: ENDBRANCH  36  38
DOCKED: BRANCH  36  40
DOCKED: ATOM     40  O   UNL d   1       3.875  10.089  20.097 -0.06 +0.03    -0.303 OA
DOCKED: ATOM     41  H   UNL d   1       3.053   9.554  20.035 +0.07 -0.03    +0.222 HD
DOCKED: ENDBRANCH  36  40
DOCKED: ENDBRANCH  35  36
DOCKED: ENDBRANCH   5  35
DOCKED: BRANCH   4  42
DOCKED: ATOM     42  O   UNL d   1       4.102   9.773  14.974 -0.27 +0.06    -0.278 OA
DOCKED: BRANCH  42  43
DOCKED: ATOM     43  P   UNL d   1       5.106  10.986  14.724 -0.15 -0.06    +0.473 P 
DOCKED: ATOM     44  O   UNL d   1       4.586  12.166  13.978 -0.27 +0.04    -0.228 OA
DOCKED: BRANCH  43  45
DOCKED: ATOM     45  O   UNL d   1       5.622  11.320  16.192 -0.06 +0.02    -0.303 OA
DOCKED: ATOM     46  H   UNL d   1       4.894  11.285  16.844 +0.06 -0.02    +0.222 HD
DOCKED: ENDBRANCH  43  45
DOCKED: BRANCH  43  47
DOCKED: ATOM     47  O   UNL d   1       6.390  10.272  14.083 -0.09 +0.02    -0.303 OA
DOCKED: ATOM     48  H   UNL d   1       6.513   9.394  14.499 +0.06 -0.01    +0.222 HD
DOCKED: ENDBRANCH  43  47
DOCKED: ENDBRANCH  42  43
DOCKED: ENDBRANCH   4  42
DOCKED: TORSDOF 24
DOCKED: TER
DOCKED: ENDMDL
________________________________________________________________________________


	BEGINNING GENETIC ALGORITHM DOCKING 22 of 100
Run: 22 Seed: 2030001606 697228172 [ Run 22 of 100 GA/GALS ]
Beginning LAMARCKIAN GENETIC ALGORITHM (LGA), with a maximum of 25000000 energy evaluations.

Final-Value: -16.735


	FINAL GENETIC ALGORITHM DOCKED STATE
	_______________________________________________


Detailed state:  trans 15.819 9.517 -17.091 quatxyzw -0.045491 -0.440486 -0.131425 -0.886922 center 0.035 0.082 -0.065 ntor 24 63.6716 43.4414 -59.8239 117.3093 141.1958 58.0904 -24.4460 21.9205 -1.0179 44.8162 118.0532 151.8173 -125.8723 -0.4061 -122.0825 -1.2318 154.7927 25.6950 25.1394 -17.6373 -1.0189 -29.2610 -22.0511 -4.7387
State:	 15.819   9.517 -17.091  -0.098 -0.954 -0.285 -55.022     63.67   43.44  -59.82  117.31  141.20   58.09  -24.45   21.92   -1.02   44.82  118.05  151.82 -125.87   -0.41 -122.08   -1.23  154.79   25.69   25.14  -17.64   -1.02  -29.26  -22.05   -4.74

DOCKED: MODEL       22
DOCKED: USER    Run = 22
DOCKED: USER    DPF = D:/Protein_go_brrr/autodock/final/AncB/IHP/dock.dpf
DOCKED: USER  
DOCKED: USER    Estimated Free Energy of Binding    =   +2.98 kcal/mol  [=(1)+(2)+(3)-(4)]
DOCKED: USER    
DOCKED: USER    (1) Final Intermolecular Energy     =   -4.18 kcal/mol
DOCKED: USER        vdW + Hbond + desolv Energy     =   -4.07 kcal/mol
DOCKED: USER        Electrostatic Energy            =   -0.11 kcal/mol
DOCKED: USER    (2) Final Total Internal Energy     =  -12.56 kcal/mol
DOCKED: USER    (3) Torsional Free Energy           =   +7.16 kcal/mol
DOCKED: USER    (4) Unbound System's Energy  [=(2)] =  -12.56 kcal/mol
DOCKED: USER    
DOCKED: USER    
DOCKED: USER    NEWDPF move IHP_ideal_opt.pdbqt
DOCKED: USER    NEWDPF about 0.035000 0.082000 -0.065000
DOCKED: USER    NEWDPF tran0 15.818967 9.516564 -17.091246
DOCKED: USER    NEWDPF quaternion0 -0.045491 -0.440486 -0.131425 -0.886922
DOCKED: USER    NEWDPF axisangle0 -0.098482 -0.953599 -0.284519 -55.022138
DOCKED: USER    NEWDPF quat0 -0.098482 -0.953599 -0.284519 -55.022138
DOCKED: USER    NEWDPF dihe0 63.67 43.44 -59.82 117.31 141.20 58.09 -24.45 21.92 -1.02 44.82 118.05 151.82 -125.87 -0.41 -122.08 -1.23 154.79 25.69 25.14 -17.64 -1.02 -29.26 -22.05 -4.74 
DOCKED: USER  keepresnum = 1 
DOCKED: USER  
DOCKED: REMARK  24 active torsions:
DOCKED: REMARK  status: ('A' for Active; 'I' for Inactive)
DOCKED: REMARK    1  A    between atoms: C_1  and  O_7 
DOCKED: REMARK    2  A    between atoms: C_2  and  O_12 
DOCKED: REMARK    3  A    between atoms: C_3  and  O_17 
DOCKED: REMARK    4  A    between atoms: C_4  and  O_22 
DOCKED: REMARK    5  A    between atoms: C_5  and  O_27 
DOCKED: REMARK    6  A    between atoms: C_6  and  O_32 
DOCKED: REMARK    7  A    between atoms: O_7  and  P_8 
DOCKED: REMARK    8  A    between atoms: P_8  and  O_10 
DOCKED: REMARK    9  A    between atoms: P_8  and  O_11 
DOCKED: REMARK   10  A    between atoms: O_12  and  P_13 
DOCKED: REMARK   11  A    between atoms: P_13  and  O_15 
DOCKED: REMARK   12  A    between atoms: P_13  and  O_16 
DOCKED: REMARK   13  A    between atoms: O_17  and  P_18 
DOCKED: REMARK   14  A    between atoms: P_18  and  O_20 
DOCKED: REMARK   15  A    between atoms: P_18  and  O_21 
DOCKED: REMARK   16  A    between atoms: O_22  and  P_23 
DOCKED: REMARK   17  A    between atoms: P_23  and  O_25 
DOCKED: REMARK   18  A    between atoms: P_23  and  O_26 
DOCKED: REMARK   19  A    between atoms: O_27  and  P_28 
DOCKED: REMARK   20  A    between atoms: P_28  and  O_30 
DOCKED: REMARK   21  A    between atoms: P_28  and  O_31 
DOCKED: REMARK   22  A    between atoms: O_32  and  P_33 
DOCKED: REMARK   23  A    between atoms: P_33  and  O_35 
DOCKED: REMARK   24  A    between atoms: P_33  and  O_36 
DOCKED: USER                              x       y       z     vdW  Elec       q    Type
DOCKED: USER                           _______ _______ _______ _____ _____    ______ ____
DOCKED: ROOT
DOCKED: ATOM      1  C   UNL d   1      15.691   8.576 -15.648 -0.22 +0.05    +0.194 C 
DOCKED: ATOM      2  C   UNL d   1      15.035   7.972 -16.890 -0.16 +0.04    +0.194 C 
DOCKED: ATOM      3  C   UNL d   1      14.261   9.022 -17.690 -0.13 +0.06    +0.194 C 
DOCKED: ATOM      4  C   UNL d   1      15.092  10.260 -18.020 -0.11 +0.05    +0.194 C 
DOCKED: ATOM      5  C   UNL d   1      15.856  10.829 -16.832 -0.15 +0.06    +0.194 C 
DOCKED: ATOM      6  C   UNL d   1      16.580   9.771 -15.996 -0.17 +0.05    +0.194 C 
DOCKED: ENDROOT
DOCKED: BRANCH   1   7
DOCKED: ATOM      7  O   UNL d   1      16.529   7.580 -15.056 -0.12 -0.08    -0.278 OA
DOCKED: BRANCH   7   8
DOCKED: ATOM      8  P   UNL d   1      15.951   6.730 -13.834 -0.20 +0.17    +0.473 P 
DOCKED: ATOM      9  O   UNL d   1      15.869   7.461 -12.540 -0.77 -0.14    -0.228 OA
DOCKED: BRANCH   8  10
DOCKED: ATOM     10  O   UNL d   1      14.533   6.216 -14.356 -0.23 -0.06    -0.303 OA
DOCKED: ATOM     11  H   UNL d   1      13.836   6.834 -14.068 -0.41 -0.01    +0.222 HD
DOCKED: ENDBRANCH   8  10
DOCKED: BRANCH   8  12
DOCKED: ATOM     12  O   UNL d   1      16.806   5.391 -13.821 -0.04 -0.10    -0.303 OA
DOCKED: ATOM     13  H   UNL d   1      17.465   5.347 -14.550 +0.05 +0.06    +0.222 HD
DOCKED: ENDBRANCH   8  12
DOCKED: ENDBRANCH   7   8
DOCKED: ENDBRANCH   1   7
DOCKED: BRANCH   2  14
DOCKED: ATOM     14  O   UNL d   1      16.053   7.416 -17.732 -0.03 -0.06    -0.278 OA
DOCKED: BRANCH  14  15
DOCKED: ATOM     15  P   UNL d   1      16.040   5.825 -17.915 +0.00 +0.09    +0.473 P 
DOCKED: ATOM     16  O   UNL d   1      14.763   5.215 -18.402 -0.05 -0.04    -0.228 OA
DOCKED: BRANCH  15  17
DOCKED: ATOM     17  O   UNL d   1      17.271   5.537 -18.885 -0.00 -0.05    -0.303 OA
DOCKED: ATOM     18  H   UNL d   1      17.148   4.697 -19.368 +0.01 +0.04    +0.222 HD
DOCKED: ENDBRANCH  15  17
DOCKED: BRANCH  15  19
DOCKED: ATOM     19  O   UNL d   1      16.585   5.262 -16.531 -0.01 -0.06    -0.303 OA
DOCKED: ATOM     20  H   UNL d   1      16.041   5.563 -15.780 +0.06 +0.05    +0.222 HD
DOCKED: ENDBRANCH  15  19
DOCKED: ENDBRANCH  14  15
DOCKED: ENDBRANCH   2  14
DOCKED: BRANCH   6  21
DOCKED: ATOM     21  O   UNL d   1      16.944  10.395 -14.767 -0.17 -0.06    -0.278 OA
DOCKED: BRANCH  21  22
DOCKED: ATOM     22  P   UNL d   1      18.455  10.845 -14.524 -0.11 +0.13    +0.473 P 
DOCKED: ATOM     23  O   UNL d   1      19.379   9.882 -13.859 -0.11 -0.07    -0.228 OA
DOCKED: BRANCH  22  24
DOCKED: ATOM     24  O   UNL d   1      18.898  11.297 -15.984 -0.03 -0.06    -0.303 OA
DOCKED: ATOM     25  H   UNL d   1      18.483  12.176 -16.175 +0.03 +0.04    +0.222 HD
DOCKED: ENDBRANCH  22  24
DOCKED: BRANCH  22  26
DOCKED: ATOM     26  O   UNL d   1      18.259  12.256 -13.787 -0.45 -0.11    -0.303 OA
DOCKED: ATOM     27  H   UNL d   1      18.626  12.967 -14.351 +0.04 +0.06    +0.222 HD
DOCKED: ENDBRANCH  22  26
DOCKED: ENDBRANCH  21  22
DOCKED: ENDBRANCH   6  21
DOCKED: BRANCH   3  28
DOCKED: ATOM     28  O   UNL d   1      13.928   8.445 -18.946 -0.08 -0.07    -0.278 OA
DOCKED: BRANCH  28  29
DOCKED: ATOM     29  P   UNL d   1      12.668   7.480 -19.079 -0.06 +0.13    +0.473 P 
DOCKED: ATOM     30  O   UNL d   1      12.287   6.749 -17.844 -0.19 -0.05    -0.228 OA
DOCKED: BRANCH  29  31
DOCKED: ATOM     31  O   UNL d   1      11.594   8.506 -19.676 -0.09 -0.11    -0.303 OA
DOCKED: ATOM     32  H   UNL d   1      12.073   9.208 -20.173 +0.04 +0.07    +0.222 HD
DOCKED: ENDBRANCH  29  31
DOCKED: BRANCH  29  33
DOCKED: ATOM     33  O   UNL d   1      13.055   6.599 -20.347 -0.03 -0.06    -0.303 OA
DOCKED: ATOM     34  H   UNL d   1      13.670   5.879 -20.063 +0.04 +0.04    +0.222 HD
DOCKED: ENDBRANCH  29  33
DOCKED: ENDBRANCH  28  29
DOCKED: ENDBRANCH   3  28
DOCKED: BRANCH   5  35
DOCKED: ATOM     35  O   UNL d   1      16.856  11.681 -17.387 -0.05 -0.06    -0.278 OA
DOCKED: BRANCH  35  36
DOCKED: ATOM     36  P   UNL d   1      16.731  13.265 -17.246 -0.04 +0.10    +0.473 P 
DOCKED: ATOM     37  O   UNL d   1      17.548  14.065 -18.211 -0.01 -0.04    -0.228 OA
DOCKED: BRANCH  36  38
DOCKED: ATOM     38  O   UNL d   1      15.159  13.482 -17.382 -0.07 -0.09    -0.303 OA
DOCKED: ATOM     39  H   UNL d   1      14.891  13.314 -18.311 +0.03 +0.05    +0.222 HD
DOCKED: ENDBRANCH  36  38
DOCKED: BRANCH  36  40
DOCKED: ATOM     40  O   UNL d   1      17.016  13.492 -15.698 -0.09 -0.07    -0.303 OA
DOCKED: ATOM     41  H   UNL d   1      17.239  12.651 -15.241 +0.04 +0.05    +0.222 HD
DOCKED: ENDBRANCH  36  40
DOCKED: ENDBRANCH  35  36
DOCKED: ENDBRANCH   5  35
DOCKED: BRANCH   4  42
DOCKED: ATOM     42  O   UNL d   1      14.176  11.270 -18.455 -0.08 -0.08    -0.278 OA
DOCKED: BRANCH  42  43
DOCKED: ATOM     43  P   UNL d   1      14.269  11.801 -19.956 +0.00 +0.11    +0.473 P 
DOCKED: ATOM     44  O   UNL d   1      13.824  10.880 -21.039 -0.01 -0.05    -0.228 OA
DOCKED: BRANCH  43  45
DOCKED: ATOM     45  O   UNL d   1      13.460  13.170 -19.893 -0.00 -0.07    -0.303 OA
DOCKED: ATOM     46  H   UNL d   1      13.709  13.697 -19.107 +0.02 +0.05    +0.222 HD
DOCKED: ENDBRANCH  43  45
DOCKED: BRANCH  43  47
DOCKED: ATOM     47  O   UNL d   1      15.781  12.321 -20.067 -0.00 -0.06    -0.303 OA
DOCKED: ATOM     48  H   UNL d   1      16.085  12.621 -19.186 +0.02 +0.04    +0.222 HD
DOCKED: ENDBRANCH  43  47
DOCKED: ENDBRANCH  42  43
DOCKED: ENDBRANCH   4  42
DOCKED: TORSDOF 24
DOCKED: TER
DOCKED: ENDMDL
________________________________________________________________________________


	BEGINNING GENETIC ALGORITHM DOCKING 23 of 100
Run: 23 Seed: 2087634717 1106507063 [ Run 23 of 100 GA/GALS ]
Beginning LAMARCKIAN GENETIC ALGORITHM (LGA), with a maximum of 25000000 energy evaluations.

Final-Value: -18.175


	FINAL GENETIC ALGORITHM DOCKED STATE
	_______________________________________________


Detailed state:  trans 7.853 -13.858 -12.977 quatxyzw -0.479155 -0.230822 -0.164452 0.830715 center 0.035 0.082 -0.065 ntor 24 -179.9686 -159.4838 -5.2093 10.5797 -0.5036 -179.9342 -131.6791 120.8590 -6.0349 83.8719 100.7029 -124.3275 89.9695 169.2346 167.8045 -114.9084 -180.0000 120.8252 2.1767 -39.3516 -24.0324 -52.0261 -26.9253 -1.3754
State:	  7.853 -13.858 -12.977  -0.861 -0.415 -0.295 67.656   -179.97 -159.48   -5.21   10.58   -0.50 -179.93 -131.68  120.86   -6.03   83.87  100.70 -124.33   89.97  169.23  167.80 -114.91 -180.00  120.83    2.18  -39.35  -24.03  -52.03  -26.93   -1.38

DOCKED: MODEL       23
DOCKED: USER    Run = 23
DOCKED: USER    DPF = D:/Protein_go_brrr/autodock/final/AncB/IHP/dock.dpf
DOCKED: USER  
DOCKED: USER    Estimated Free Energy of Binding    =   +1.39 kcal/mol  [=(1)+(2)+(3)-(4)]
DOCKED: USER    
DOCKED: USER    (1) Final Intermolecular Energy     =   -5.77 kcal/mol
DOCKED: USER        vdW + Hbond + desolv Energy     =   -5.72 kcal/mol
DOCKED: USER        Electrostatic Energy            =   -0.05 kcal/mol
DOCKED: USER    (2) Final Total Internal Energy     =  -12.40 kcal/mol
DOCKED: USER    (3) Torsional Free Energy           =   +7.16 kcal/mol
DOCKED: USER    (4) Unbound System's Energy  [=(2)] =  -12.40 kcal/mol
DOCKED: USER    
DOCKED: USER    
DOCKED: USER    NEWDPF move IHP_ideal_opt.pdbqt
DOCKED: USER    NEWDPF about 0.035000 0.082000 -0.065000
DOCKED: USER    NEWDPF tran0 7.852921 -13.857562 -12.976743
DOCKED: USER    NEWDPF quaternion0 -0.479155 -0.230822 -0.164452 0.830715
DOCKED: USER    NEWDPF axisangle0 -0.860709 -0.414627 -0.295407 67.655531
DOCKED: USER    NEWDPF quat0 -0.860709 -0.414627 -0.295407 67.655531
DOCKED: USER    NEWDPF dihe0 -179.97 -159.48 -5.21 10.58 -0.50 -179.93 -131.68 120.86 -6.03 83.87 100.70 -124.33 89.97 169.23 167.80 -114.91 -180.00 120.83 2.18 -39.35 -24.03 -52.03 -26.93 -1.38 
DOCKED: USER  keepresnum = 1 
DOCKED: USER  
DOCKED: REMARK  24 active torsions:
DOCKED: REMARK  status: ('A' for Active; 'I' for Inactive)
DOCKED: REMARK    1  A    between atoms: C_1  and  O_7 
DOCKED: REMARK    2  A    between atoms: C_2  and  O_12 
DOCKED: REMARK    3  A    between atoms: C_3  and  O_17 
DOCKED: REMARK    4  A    between atoms: C_4  and  O_22 
DOCKED: REMARK    5  A    between atoms: C_5  and  O_27 
DOCKED: REMARK    6  A    between atoms: C_6  and  O_32 
DOCKED: REMARK    7  A    between atoms: O_7  and  P_8 
DOCKED: REMARK    8  A    between atoms: P_8  and  O_10 
DOCKED: REMARK    9  A    between atoms: P_8  and  O_11 
DOCKED: REMARK   10  A    between atoms: O_12  and  P_13 
DOCKED: REMARK   11  A    between atoms: P_13  and  O_15 
DOCKED: REMARK   12  A    between atoms: P_13  and  O_16 
DOCKED: REMARK   13  A    between atoms: O_17  and  P_18 
DOCKED: REMARK   14  A    between atoms: P_18  and  O_20 
DOCKED: REMARK   15  A    between atoms: P_18  and  O_21 
DOCKED: REMARK   16  A    between atoms: O_22  and  P_23 
DOCKED: REMARK   17  A    between atoms: P_23  and  O_25 
DOCKED: REMARK   18  A    between atoms: P_23  and  O_26 
DOCKED: REMARK   19  A    between atoms: O_27  and  P_28 
DOCKED: REMARK   20  A    between atoms: P_28  and  O_30 
DOCKED: REMARK   21  A    between atoms: P_28  and  O_31 
DOCKED: REMARK   22  A    between atoms: O_32  and  P_33 
DOCKED: REMARK   23  A    between atoms: P_33  and  O_35 
DOCKED: REMARK   24  A    between atoms: P_33  and  O_36 
DOCKED: USER                              x       y       z     vdW  Elec       q    Type
DOCKED: USER                           _______ _______ _______ _____ _____    ______ ____
DOCKED: ROOT
DOCKED: ATOM      1  C   UNL d   1       9.379 -14.240 -13.691 -0.07 -0.00    +0.194 C 
DOCKED: ATOM      2  C   UNL d   1       8.173 -14.983 -14.270 -0.09 -0.01    +0.194 C 
DOCKED: ATOM      3  C   UNL d   1       7.227 -15.470 -13.171 -0.10 -0.02    +0.194 C 
DOCKED: ATOM      4  C   UNL d   1       6.813 -14.367 -12.201 -0.18 -0.02    +0.194 C 
DOCKED: ATOM      5  C   UNL d   1       7.974 -13.526 -11.686 -0.16 -0.01    +0.194 C 
DOCKED: ATOM      6  C   UNL d   1       8.954 -13.090 -12.777 -0.13 +0.00    +0.194 C 
DOCKED: ENDROOT
DOCKED: BRANCH   1   7
DOCKED: ATOM      7  O   UNL d   1      10.116 -13.672 -14.776 -0.04 -0.01    -0.278 OA
DOCKED: BRANCH   7   8
DOCKED: ATOM      8  P   UNL d   1      11.639 -14.113 -14.971 +0.00 +0.03    +0.473 P 
DOCKED: ATOM      9  O   UNL d   1      12.071 -14.281 -16.385 -0.00 -0.01    -0.228 OA
DOCKED: BRANCH   8  10
DOCKED: ATOM     10  O   UNL d   1      12.469 -12.996 -14.190 +0.00 -0.03    -0.303 OA
DOCKED: ATOM     11  H   UNL d   1      11.895 -12.566 -13.528 +0.02 +0.03    +0.222 HD
DOCKED: ENDBRANCH   8  10
DOCKED: BRANCH   8  12
DOCKED: ATOM     12  O   UNL d   1      11.826 -15.382 -14.033 -0.00 -0.01    -0.303 OA
DOCKED: ATOM     13  H   UNL d   1      12.555 -15.974 -14.326 +0.00 +0.01    +0.222 HD
DOCKED: ENDBRANCH   8  12
DOCKED: ENDBRANCH   7   8
DOCKED: ENDBRANCH   1   7
DOCKED: BRANCH   2  14
DOCKED: ATOM     14  O   UNL d   1       7.451 -14.097 -15.135 -0.13 +0.04    -0.278 OA
DOCKED: BRANCH  14  15
DOCKED: ATOM     15  P   UNL d   1       7.852 -14.127 -16.685 -0.06 -0.02    +0.473 P 
DOCKED: ATOM     16  O   UNL d   1       8.007 -12.802 -17.365 -0.14 +0.01    -0.228 OA
DOCKED: BRANCH  15  17
DOCKED: ATOM     17  O   UNL d   1       9.183 -15.001 -16.725 -0.02 -0.00    -0.303 OA
DOCKED: ATOM     18  H   UNL d   1       9.975 -14.433 -16.794 +0.02 +0.01    +0.222 HD
DOCKED: ENDBRANCH  15  17
DOCKED: BRANCH  15  19
DOCKED: ATOM     19  O   UNL d   1       6.799 -15.119 -17.348 -0.06 +0.01    -0.303 OA
DOCKED: ATOM     20  H   UNL d   1       6.728 -15.954 -16.850 +0.03 -0.01    +0.222 HD
DOCKED: ENDBRANCH  15  19
DOCKED: ENDBRANCH  14  15
DOCKED: ENDBRANCH   2  14
DOCKED: BRANCH   6  21
DOCKED: ATOM     21  O   UNL d   1      10.129 -12.627 -12.114 -0.06 -0.02    -0.278 OA
DOCKED: BRANCH  21  22
DOCKED: ATOM     22  P   UNL d   1      10.703 -11.175 -12.442 -0.06 +0.08    +0.473 P 
DOCKED: ATOM     23  O   UNL d   1      12.115 -10.874 -12.066 -0.06 -0.07    -0.228 OA
DOCKED: BRANCH  22  24
DOCKED: ATOM     24  O   UNL d   1      10.383 -11.042 -13.995 -0.09 -0.04    -0.303 OA
DOCKED: ATOM     25  H   UNL d   1      10.937 -11.704 -14.482 +0.04 +0.02    +0.222 HD
DOCKED: ENDBRANCH  22  24
DOCKED: BRANCH  22  26
DOCKED: ATOM     26  O   UNL d   1       9.585 -10.228 -11.791 -0.11 -0.02    -0.303 OA
DOCKED: ATOM     27  H   UNL d   1       8.938 -10.780 -11.307 -0.34 -0.01    +0.222 HD
DOCKED: ENDBRANCH  22  26
DOCKED: ENDBRANCH  21  22
DOCKED: ENDBRANCH   6  21
DOCKED: BRANCH   3  28
DOCKED: ATOM     28  O   UNL d   1       6.023 -15.891 -13.799 -0.12 +0.04    -0.278 OA
DOCKED: BRANCH  28  29
DOCKED: ATOM     29  P   UNL d   1       6.049 -17.042 -14.900 -0.04 -0.03    +0.473 P 
DOCKED: ATOM     30  O   UNL d   1       5.142 -16.841 -16.059 -0.06 +0.01    -0.228 OA
DOCKED: BRANCH  29  31
DOCKED: ATOM     31  O   UNL d   1       7.619 -17.097 -15.208 -0.01 +0.01    -0.303 OA
DOCKED: ATOM     32  H   UNL d   1       7.845 -16.361 -15.822 +0.03 -0.01    +0.222 HD
DOCKED: ENDBRANCH  29  31
DOCKED: BRANCH  29  33
DOCKED: ATOM     33  O   UNL d   1       5.817 -18.350 -14.023 -0.55 +0.00    -0.303 OA
DOCKED: ATOM     34  H   UNL d   1       5.815 -19.139 -14.617 +0.02 -0.01    +0.222 HD
DOCKED: ENDBRANCH  29  33
DOCKED: ENDBRANCH  28  29
DOCKED: ENDBRANCH   3  28
DOCKED: BRANCH   5  35
DOCKED: ATOM     35  O   UNL d   1       7.386 -12.341 -11.152 -0.21 -0.01    -0.278 OA
DOCKED: BRANCH  35  36
DOCKED: ATOM     36  P   UNL d   1       7.248 -12.153  -9.574 -0.22 -0.03    +0.473 P 
DOCKED: ATOM     37  O   UNL d   1       5.931 -11.625  -9.101 -0.49 +0.02    -0.228 OA
DOCKED: BRANCH  36  38
DOCKED: ATOM     38  O   UNL d   1       7.598 -13.611  -9.039 -0.11 +0.04    -0.303 OA
DOCKED: ATOM     39  H   UNL d   1       6.829 -14.202  -9.190 +0.13 -0.05    +0.222 HD
DOCKED: ENDBRANCH  36  38
DOCKED: BRANCH  36  40
DOCKED: ATOM     40  O   UNL d   1       8.539 -11.294  -9.219 -0.30 +0.02    -0.303 OA
DOCKED: ATOM     41  H   UNL d   1       8.696 -10.583  -9.879 -0.20 -0.05    +0.222 HD
DOCKED: ENDBRANCH  36  40
DOCKED: ENDBRANCH  35  36
DOCKED: ENDBRANCH   5  35
DOCKED: BRANCH   4  42
DOCKED: ATOM     42  O   UNL d   1       6.225 -15.012 -11.066 -0.12 +0.07    -0.278 OA
DOCKED: BRANCH  42  43
DOCKED: ATOM     43  P   UNL d   1       4.665 -14.821 -10.793 -0.26 -0.14    +0.473 P 
DOCKED: ATOM     44  O   UNL d   1       4.024 -15.733  -9.805 -0.75 +0.10    -0.228 OA
DOCKED: BRANCH  43  45
DOCKED: ATOM     45  O   UNL d   1       4.563 -13.278 -10.417 -0.38 +0.04    -0.303 OA
DOCKED: ATOM     46  H   UNL d   1       5.277 -12.759 -10.838 -0.01 -0.03    +0.222 HD
DOCKED: ENDBRANCH  43  45
DOCKED: BRANCH  43  47
DOCKED: ATOM     47  O   UNL d   1       4.030 -14.840 -12.265 -0.40 +0.09    -0.303 OA
DOCKED: ATOM     48  H   UNL d   1       4.307 -15.659 -12.725 +0.11 -0.06    +0.222 HD
DOCKED: ENDBRANCH  43  47
DOCKED: ENDBRANCH  42  43
DOCKED: ENDBRANCH   4  42
DOCKED: TORSDOF 24
DOCKED: TER
DOCKED: ENDMDL
________________________________________________________________________________


	BEGINNING GENETIC ALGORITHM DOCKING 24 of 100
Run: 24 Seed: 1539961842 2124867978 [ Run 24 of 100 GA/GALS ]
Beginning LAMARCKIAN GENETIC ALGORITHM (LGA), with a maximum of 25000000 energy evaluations.

Final-Value: -17.563


	FINAL GENETIC ALGORITHM DOCKED STATE
	_______________________________________________


Detailed state:  trans -8.528 17.719 16.248 quatxyzw 0.362966 -0.434403 0.447511 -0.692303 center 0.035 0.082 -0.065 ntor 24 -44.5578 37.6173 142.7031 14.6187 88.9297 81.2433 -52.9815 10.4178 89.3327 60.9859 47.6098 111.3413 164.6701 180.0000 52.4960 13.3774 115.0306 -96.4541 47.0521 6.6714 177.6911 -16.0182 -5.6813 172.0895
State:	 -8.528  17.719  16.248   0.503 -0.602  0.620 -92.375    -44.56   37.62  142.70   14.62   88.93   81.24  -52.98   10.42   89.33   60.99   47.61  111.34  164.67  180.00   52.50   13.38  115.03  -96.45   47.05    6.67  177.69  -16.02   -5.68  172.09

DOCKED: MODEL       24
DOCKED: USER    Run = 24
DOCKED: USER    DPF = D:/Protein_go_brrr/autodock/final/AncB/IHP/dock.dpf
DOCKED: USER  
DOCKED: USER    Estimated Free Energy of Binding    =   +4.07 kcal/mol  [=(1)+(2)+(3)-(4)]
DOCKED: USER    
DOCKED: USER    (1) Final Intermolecular Energy     =   -3.09 kcal/mol
DOCKED: USER        vdW + Hbond + desolv Energy     =   -2.51 kcal/mol
DOCKED: USER        Electrostatic Energy            =   -0.58 kcal/mol
DOCKED: USER    (2) Final Total Internal Energy     =  -14.48 kcal/mol
DOCKED: USER    (3) Torsional Free Energy           =   +7.16 kcal/mol
DOCKED: USER    (4) Unbound System's Energy  [=(2)] =  -14.48 kcal/mol
DOCKED: USER    
DOCKED: USER    
DOCKED: USER    NEWDPF move IHP_ideal_opt.pdbqt
DOCKED: USER    NEWDPF about 0.035000 0.082000 -0.065000
DOCKED: USER    NEWDPF tran0 -8.528057 17.719263 16.247580
DOCKED: USER    NEWDPF quaternion0 0.362966 -0.434403 0.447511 -0.692303
DOCKED: USER    NEWDPF axisangle0 0.502997 -0.601995 0.620159 -92.374592
DOCKED: USER    NEWDPF quat0 0.502997 -0.601995 0.620159 -92.374592
DOCKED: USER    NEWDPF dihe0 -44.56 37.62 142.70 14.62 88.93 81.24 -52.98 10.42 89.33 60.99 47.61 111.34 164.67 180.00 52.50 13.38 115.03 -96.45 47.05 6.67 177.69 -16.02 -5.68 172.09 
DOCKED: USER  keepresnum = 1 
DOCKED: USER  
DOCKED: REMARK  24 active torsions:
DOCKED: REMARK  status: ('A' for Active; 'I' for Inactive)
DOCKED: REMARK    1  A    between atoms: C_1  and  O_7 
DOCKED: REMARK    2  A    between atoms: C_2  and  O_12 
DOCKED: REMARK    3  A    between atoms: C_3  and  O_17 
DOCKED: REMARK    4  A    between atoms: C_4  and  O_22 
DOCKED: REMARK    5  A    between atoms: C_5  and  O_27 
DOCKED: REMARK    6  A    between atoms: C_6  and  O_32 
DOCKED: REMARK    7  A    between atoms: O_7  and  P_8 
DOCKED: REMARK    8  A    between atoms: P_8  and  O_10 
DOCKED: REMARK    9  A    between atoms: P_8  and  O_11 
DOCKED: REMARK   10  A    between atoms: O_12  and  P_13 
DOCKED: REMARK   11  A    between atoms: P_13  and  O_15 
DOCKED: REMARK   12  A    between atoms: P_13  and  O_16 
DOCKED: REMARK   13  A    between atoms: O_17  and  P_18 
DOCKED: REMARK   14  A    between atoms: P_18  and  O_20 
DOCKED: REMARK   15  A    between atoms: P_18  and  O_21 
DOCKED: REMARK   16  A    between atoms: O_22  and  P_23 
DOCKED: REMARK   17  A    between atoms: P_23  and  O_25 
DOCKED: REMARK   18  A    between atoms: P_23  and  O_26 
DOCKED: REMARK   19  A    between atoms: O_27  and  P_28 
DOCKED: REMARK   20  A    between atoms: P_28  and  O_30 
DOCKED: REMARK   21  A    between atoms: P_28  and  O_31 
DOCKED: REMARK   22  A    between atoms: O_32  and  P_33 
DOCKED: REMARK   23  A    between atoms: P_33  and  O_35 
DOCKED: REMARK   24  A    between atoms: P_33  and  O_36 
DOCKED: USER                              x       y       z     vdW  Elec       q    Type
DOCKED: USER                           _______ _______ _______ _____ _____    ______ ____
DOCKED: ROOT
DOCKED: ATOM      1  C   UNL d   1      -7.638  17.097  17.591 -0.02 -0.06    +0.194 C 
DOCKED: ATOM      2  C   UNL d   1      -7.062  16.776  16.211 -0.04 -0.10    +0.194 C 
DOCKED: ATOM      3  C   UNL d   1      -8.154  16.362  15.223 -0.06 -0.01    +0.194 C 
DOCKED: ATOM      4  C   UNL d   1      -9.307  17.360  15.149 -0.01 +0.01    +0.194 C 
DOCKED: ATOM      5  C   UNL d   1      -9.839  17.797  16.508 +0.01 -0.00    +0.194 C 
DOCKED: ATOM      6  C   UNL d   1      -8.744  18.151  17.516 +0.01 -0.02    +0.194 C 
DOCKED: ENDROOT
DOCKED: BRANCH   1   7
DOCKED: ATOM      7  O   UNL d   1      -6.589  17.636  18.399 -0.02 +0.10    -0.278 OA
DOCKED: BRANCH   7   8
DOCKED: ATOM      8  P   UNL d   1      -5.490  16.635  18.983 -0.04 -0.33    +0.473 P 
DOCKED: ATOM      9  O   UNL d   1      -4.999  16.964  20.349 -0.02 +0.09    -0.228 OA
DOCKED: BRANCH   8  10
DOCKED: ATOM     10  O   UNL d   1      -6.185  15.202  18.893 -0.06 +0.38    -0.303 OA
DOCKED: ATOM     11  H   UNL d   1      -5.501  14.507  18.885 -0.52 -0.59    +0.222 HD
DOCKED: ENDBRANCH   8  10
DOCKED: BRANCH   8  12
DOCKED: ATOM     12  O   UNL d   1      -4.378  16.537  17.851 -0.09 +0.32    -0.303 OA
DOCKED: ATOM     13  H   UNL d   1      -4.637  16.988  17.016 +0.01 -0.19    +0.222 HD
DOCKED: ENDBRANCH   8  12
DOCKED: ENDBRANCH   7   8
DOCKED: ENDBRANCH   1   7
DOCKED: BRANCH   2  14
DOCKED: ATOM     14  O   UNL d   1      -6.400  17.940  15.700 -0.02 +0.09    -0.278 OA
DOCKED: BRANCH  14  15
DOCKED: ATOM     15  P   UNL d   1      -4.999  17.700  14.962 -0.01 -0.20    +0.473 P 
DOCKED: ATOM     16  O   UNL d   1      -3.825  18.467  15.485 -0.02 +0.07    -0.228 OA
DOCKED: BRANCH  15  17
DOCKED: ATOM     17  O   UNL d   1      -4.788  16.123  15.034 +0.12 +0.37    -0.303 OA
DOCKED: ATOM     18  H   UNL d   1      -5.599  15.647  14.772 -0.43 -0.31    +0.222 HD
DOCKED: ENDBRANCH  15  17
DOCKED: BRANCH  15  19
DOCKED: ATOM     19  O   UNL d   1      -5.322  17.909  13.419 -0.01 +0.07    -0.303 OA
DOCKED: ATOM     20  H   UNL d   1      -6.143  17.452  13.157 +0.04 -0.04    +0.222 HD
DOCKED: ENDBRANCH  15  19
DOCKED: ENDBRANCH  14  15
DOCKED: ENDBRANCH   2  14
DOCKED: BRANCH   6  21
DOCKED: ATOM     21  O   UNL d   1      -9.364  18.199  18.799 +0.00 +0.02    -0.278 OA
DOCKED: BRANCH  21  22
DOCKED: ATOM     22  P   UNL d   1      -9.756  16.841  19.540 +0.01 -0.04    +0.473 P 
DOCKED: ATOM     23  O   UNL d   1      -8.695  16.125  20.306 -0.00 +0.04    -0.228 OA
DOCKED: BRANCH  22  24
DOCKED: ATOM     24  O   UNL d   1     -11.013  17.293  20.404 +0.00 +0.01    -0.303 OA
DOCKED: ATOM     25  H   UNL d   1     -11.404  18.100  19.981 +0.00 -0.01    +0.222 HD
DOCKED: ENDBRANCH  22  24
DOCKED: BRANCH  22  26
DOCKED: ATOM     26  O   UNL d   1     -10.448  16.012  18.356 +0.01 +0.00    -0.303 OA
DOCKED: ATOM     27  H   UNL d   1     -11.414  16.171  18.374 +0.01 +0.01    +0.222 HD
DOCKED: ENDBRANCH  22  26
DOCKED: ENDBRANCH  21  22
DOCKED: ENDBRANCH   6  21
DOCKED: BRANCH   3  28
DOCKED: ATOM     28  O   UNL d   1      -7.576  16.356  13.924 -0.07 -0.00    -0.278 OA
DOCKED: BRANCH  28  29
DOCKED: ATOM     29  P   UNL d   1      -6.995  15.007  13.308 -0.11 +0.11    +0.473 P 
DOCKED: ATOM     30  O   UNL d   1      -6.837  13.882  14.265 -0.59 -0.02    -0.228 OA
DOCKED: BRANCH  29  31
DOCKED: ATOM     31  O   UNL d   1      -8.018  14.791  12.095 -0.29 -0.24    -0.303 OA
DOCKED: ATOM     32  H   UNL d   1      -8.682  15.518  12.112 +0.04 +0.12    +0.222 HD
DOCKED: ENDBRANCH  29  31
DOCKED: BRANCH  29  33
DOCKED: ATOM     33  O   UNL d   1      -5.679  15.516  12.571 -0.12 +0.05    -0.303 OA
DOCKED: ATOM     34  H   UNL d   1      -5.016  15.790  13.252 +0.06 -0.10    +0.222 HD
DOCKED: ENDBRANCH  29  33
DOCKED: ENDBRANCH  28  29
DOCKED: ENDBRANCH   3  28
DOCKED: BRANCH   5  35
DOCKED: ATOM     35  O   UNL d   1     -10.588  18.986  16.267 +0.00 -0.00    -0.278 OA
DOCKED: BRANCH  35  36
DOCKED: ATOM     36  P   UNL d   1     -12.110  19.086  16.735 +0.00 +0.01    +0.473 P 
DOCKED: ATOM     37  O   UNL d   1     -12.650  20.474  16.879 +0.00 -0.00    -0.228 OA
DOCKED: BRANCH  36  38
DOCKED: ATOM     38  O   UNL d   1     -12.849  18.208  15.631 +0.00 -0.02    -0.303 OA
DOCKED: ATOM     39  H   UNL d   1     -12.193  17.624  15.193 +0.01 +0.02    +0.222 HD
DOCKED: ENDBRANCH  36  38
DOCKED: BRANCH  36  40
DOCKED: ATOM     40  O   UNL d   1     -12.128  18.166  18.032 +0.00 -0.00    -0.303 OA
DOCKED: ATOM     41  H   UNL d   1     -11.225  18.030  18.395 +0.00 -0.00    +0.222 HD
DOCKED: ENDBRANCH  36  40
DOCKED: ENDBRANCH  35  36
DOCKED: ENDBRANCH   5  35
DOCKED: BRANCH   4  42
DOCKED: ATOM     42  O   UNL d   1     -10.382  16.703  14.468 -0.02 -0.07    -0.278 OA
DOCKED: BRANCH  42  43
DOCKED: ATOM     43  P   UNL d   1     -11.004  15.380  15.107 -0.04 +0.23    +0.473 P 
DOCKED: ATOM     44  O   UNL d   1     -10.060  14.299  15.504 -0.18 -0.24    -0.228 OA
DOCKED: BRANCH  43  45
DOCKED: ATOM     45  O   UNL d   1     -11.881  15.951  16.306 -0.00 -0.05    -0.303 OA
DOCKED: ATOM     46  H   UNL d   1     -11.543  16.815  16.617 +0.01 +0.02    +0.222 HD
DOCKED: ENDBRANCH  43  45
DOCKED: BRANCH  43  47
DOCKED: ATOM     47  O   UNL d   1     -12.133  14.959  14.050 -0.06 -0.15    -0.303 OA
DOCKED: ATOM     48  H   UNL d   1     -12.866  15.609  14.084 +0.01 +0.06    +0.222 HD
DOCKED: ENDBRANCH  43  47
DOCKED: ENDBRANCH  42  43
DOCKED: ENDBRANCH   4  42
DOCKED: TORSDOF 24
DOCKED: TER
DOCKED: ENDMDL
________________________________________________________________________________


	BEGINNING GENETIC ALGORITHM DOCKING 25 of 100
Run: 25 Seed: 1538175289 112709238 [ Run 25 of 100 GA/GALS ]
Beginning LAMARCKIAN GENETIC ALGORITHM (LGA), with a maximum of 25000000 energy evaluations.

Final-Value: -21.335


	FINAL GENETIC ALGORITHM DOCKED STATE
	_______________________________________________


Detailed state:  trans -6.708 16.087 10.088 quatxyzw 0.432545 0.556060 -0.621504 -0.342689 center 0.035 0.082 -0.065 ntor 24 107.6743 123.2910 154.4899 10.5595 67.1949 117.3912 61.2142 -158.6841 -179.5934 -62.1603 41.8414 -115.7595 -70.1595 -172.4261 75.6386 -57.2996 77.2994 -66.2623 -152.1756 3.9904 11.6250 1.7860 -39.7717 -1.7560
State:	 -6.708  16.087  10.088   0.460  0.592 -0.662 -139.918    107.67  123.29  154.49   10.56   67.19  117.39   61.21 -158.68 -179.59  -62.16   41.84 -115.76  -70.16 -172.43   75.64  -57.30   77.30  -66.26 -152.18    3.99   11.62    1.79  -39.77   -1.76

DOCKED: MODEL       25
DOCKED: USER    Run = 25
DOCKED: USER    DPF = D:/Protein_go_brrr/autodock/final/AncB/IHP/dock.dpf
DOCKED: USER  
DOCKED: USER    Estimated Free Energy of Binding    =   -0.65 kcal/mol  [=(1)+(2)+(3)-(4)]
DOCKED: USER    Estimated Inhibition Constant, Ki   =  335.47 mM (millimolar)  [Temperature = 298.15 K]
DOCKED: USER    
DOCKED: USER    (1) Final Intermolecular Energy     =   -7.81 kcal/mol
DOCKED: USER        vdW + Hbond + desolv Energy     =   -7.02 kcal/mol
DOCKED: USER        Electrostatic Energy            =   -0.79 kcal/mol
DOCKED: USER    (2) Final Total Internal Energy     =  -13.53 kcal/mol
DOCKED: USER    (3) Torsional Free Energy           =   +7.16 kcal/mol
DOCKED: USER    (4) Unbound System's Energy  [=(2)] =  -13.53 kcal/mol
DOCKED: USER    
DOCKED: USER    
DOCKED: USER    NEWDPF move IHP_ideal_opt.pdbqt
DOCKED: USER    NEWDPF about 0.035000 0.082000 -0.065000
DOCKED: USER    NEWDPF tran0 -6.708365 16.086887 10.087935
DOCKED: USER    NEWDPF quaternion0 0.432545 0.556060 -0.621504 -0.342689
DOCKED: USER    NEWDPF axisangle0 0.460424 0.591900 -0.661562 -139.918475
DOCKED: USER    NEWDPF quat0 0.460424 0.591900 -0.661562 -139.918475
DOCKED: USER    NEWDPF dihe0 107.67 123.29 154.49 10.56 67.19 117.39 61.21 -158.68 -179.59 -62.16 41.84 -115.76 -70.16 -172.43 75.64 -57.30 77.30 -66.26 -152.18 3.99 11.62 1.79 -39.77 -1.76 
DOCKED: USER  keepresnum = 1 
DOCKED: USER  
DOCKED: REMARK  24 active torsions:
DOCKED: REMARK  status: ('A' for Active; 'I' for Inactive)
DOCKED: REMARK    1  A    between atoms: C_1  and  O_7 
DOCKED: REMARK    2  A    between atoms: C_2  and  O_12 
DOCKED: REMARK    3  A    between atoms: C_3  and  O_17 
DOCKED: REMARK    4  A    between atoms: C_4  and  O_22 
DOCKED: REMARK    5  A    between atoms: C_5  and  O_27 
DOCKED: REMARK    6  A    between atoms: C_6  and  O_32 
DOCKED: REMARK    7  A    between atoms: O_7  and  P_8 
DOCKED: REMARK    8  A    between atoms: P_8  and  O_10 
DOCKED: REMARK    9  A    between atoms: P_8  and  O_11 
DOCKED: REMARK   10  A    between atoms: O_12  and  P_13 
DOCKED: REMARK   11  A    between atoms: P_13  and  O_15 
DOCKED: REMARK   12  A    between atoms: P_13  and  O_16 
DOCKED: REMARK   13  A    between atoms: O_17  and  P_18 
DOCKED: REMARK   14  A    between atoms: P_18  and  O_20 
DOCKED: REMARK   15  A    between atoms: P_18  and  O_21 
DOCKED: REMARK   16  A    between atoms: O_22  and  P_23 
DOCKED: REMARK   17  A    between atoms: P_23  and  O_25 
DOCKED: REMARK   18  A    between atoms: P_23  and  O_26 
DOCKED: REMARK   19  A    between atoms: O_27  and  P_28 
DOCKED: REMARK   20  A    between atoms: P_28  and  O_30 
DOCKED: REMARK   21  A    between atoms: P_28  and  O_31 
DOCKED: REMARK   22  A    between atoms: O_32  and  P_33 
DOCKED: REMARK   23  A    between atoms: P_33  and  O_35 
DOCKED: REMARK   24  A    between atoms: P_33  and  O_36 
DOCKED: USER                              x       y       z     vdW  Elec       q    Type
DOCKED: USER                           _______ _______ _______ _____ _____    ______ ____
DOCKED: ROOT
DOCKED: ATOM      1  C   UNL d   1      -8.127  15.505   9.293 -0.16 +0.02    +0.194 C 
DOCKED: ATOM      2  C   UNL d   1      -8.311  15.919  10.754 -0.15 +0.04    +0.194 C 
DOCKED: ATOM      3  C   UNL d   1      -7.160  15.423  11.632 -0.19 +0.04    +0.194 C 
DOCKED: ATOM      4  C   UNL d   1      -5.784  15.805  11.093 -0.15 -0.01    +0.194 C 
DOCKED: ATOM      5  C   UNL d   1      -5.597  15.515   9.609 -0.21 -0.02    +0.194 C 
DOCKED: ATOM      6  C   UNL d   1      -6.776  15.956   8.738 -0.18 -0.02    +0.194 C 
DOCKED: ENDROOT
DOCKED: BRANCH   1   7
DOCKED: ATOM      7  O   UNL d   1      -9.142  16.147   8.517 -0.14 -0.00    -0.278 OA
DOCKED: BRANCH   7   8
DOCKED: ATOM      8  P   UNL d   1      -8.873  17.633   7.997 -0.03 -0.03    +0.473 P 
DOCKED: ATOM      9  O   UNL d   1      -7.795  18.367   8.714 -0.02 +0.01    -0.228 OA
DOCKED: BRANCH   8  10
DOCKED: ATOM     10  O   UNL d   1      -8.581  17.451   6.439 -0.04 +0.04    -0.303 OA
DOCKED: ATOM     11  H   UNL d   1      -7.908  16.757   6.312 +0.03 -0.05    +0.222 HD
DOCKED: ENDBRANCH   8  10
DOCKED: BRANCH   8  12
DOCKED: ATOM     12  O   UNL d   1     -10.300  18.332   7.988 -0.01 +0.01    -0.303 OA
DOCKED: ATOM     13  H   UNL d   1     -10.598  18.613   8.883 +0.02 +0.00    +0.222 HD
DOCKED: ENDBRANCH   8  12
DOCKED: ENDBRANCH   7   8
DOCKED: ENDBRANCH   1   7
DOCKED: BRANCH   2  14
DOCKED: ATOM     14  O   UNL d   1      -8.361  17.349  10.832 -0.03 -0.02    -0.278 OA
DOCKED: BRANCH  14  15
DOCKED: ATOM     15  P   UNL d   1      -9.499  17.975  11.768 -0.00 +0.04    +0.473 P 
DOCKED: ATOM     16  O   UNL d   1     -10.535  18.819  11.094 -0.01 -0.01    -0.228 OA
DOCKED: BRANCH  15  17
DOCKED: ATOM     17  O   UNL d   1     -10.122  16.715  12.517 -0.04 -0.08    -0.303 OA
DOCKED: ATOM     18  H   UNL d   1      -9.441  16.236  13.027 +0.03 +0.09    +0.222 HD
DOCKED: ENDBRANCH  15  17
DOCKED: BRANCH  15  19
DOCKED: ATOM     19  O   UNL d   1      -8.699  18.683  12.947 +0.00 -0.00    -0.303 OA
DOCKED: ATOM     20  H   UNL d   1      -8.026  18.091  13.332 +0.02 -0.00    +0.222 HD
DOCKED: ENDBRANCH  15  19
DOCKED: ENDBRANCH  14  15
DOCKED: ENDBRANCH   2  14
DOCKED: BRANCH   6  21
DOCKED: ATOM     21  O   UNL d   1      -6.611  15.323   7.471 +0.13 +0.11    -0.278 OA
DOCKED: BRANCH  21  22
DOCKED: ATOM     22  P   UNL d   1      -5.799  16.064   6.315 -0.05 -0.17    +0.473 P 
DOCKED: ATOM     23  O   UNL d   1      -4.427  15.576   5.994 -0.21 +0.08    -0.228 OA
DOCKED: BRANCH  22  24
DOCKED: ATOM     24  O   UNL d   1      -6.830  16.004   5.104 -0.15 +0.13    -0.303 OA
DOCKED: ATOM     25  H   UNL d   1      -7.654  15.554   5.422 -0.30 -0.12    +0.222 HD
DOCKED: ENDBRANCH  22  24
DOCKED: BRANCH  22  26
DOCKED: ATOM     26  O   UNL d   1      -5.912  17.597   6.770 -0.02 +0.07    -0.303 OA
DOCKED: ATOM     27  H   UNL d   1      -6.857  17.839   6.857 +0.03 -0.04    +0.222 HD
DOCKED: ENDBRANCH  22  26
DOCKED: ENDBRANCH  21  22
DOCKED: ENDBRANCH   6  21
DOCKED: BRANCH   3  28
DOCKED: ATOM     28  O   UNL d   1      -7.268  16.078  12.890 -0.09 -0.03    -0.278 OA
DOCKED: BRANCH  28  29
DOCKED: ATOM     29  P   UNL d   1      -7.637  15.250  14.199 -0.07 +0.12    +0.473 P 
DOCKED: ATOM     30  O   UNL d   1      -9.086  15.005  14.415 -0.24 -0.23    -0.228 OA
DOCKED: BRANCH  29  31
DOCKED: ATOM     31  O   UNL d   1      -6.707  13.965  13.989 -0.60 -0.03    -0.303 OA
DOCKED: ATOM     32  H   UNL d   1      -6.010  13.964  14.685 -0.47 -0.44    +0.222 HD
DOCKED: ENDBRANCH  29  31
DOCKED: BRANCH  29  33
DOCKED: ATOM     33  O   UNL d   1      -6.867  16.059  15.334 -0.07 +0.20    -0.303 OA
DOCKED: ATOM     34  H   UNL d   1      -6.021  15.592  15.544 -0.50 -0.42    +0.222 HD
DOCKED: ENDBRANCH  29  33
DOCKED: ENDBRANCH  28  29
DOCKED: ENDBRANCH   3  28
DOCKED: BRANCH   5  35
DOCKED: ATOM     35  O   UNL d   1      -4.466  16.284   9.204 -0.08 +0.05    -0.278 OA
DOCKED: BRANCH  35  36
DOCKED: ATOM     36  P   UNL d   1      -3.001  15.655   9.268 -0.06 -0.15    +0.473 P 
DOCKED: ATOM     37  O   UNL d   1      -2.258  15.617   7.971 -0.60 +0.05    -0.228 OA
DOCKED: BRANCH  36  38
DOCKED: ATOM     38  O   UNL d   1      -2.311  16.549  10.392 -0.05 +0.13    -0.303 OA
DOCKED: ATOM     39  H   UNL d   1      -2.166  16.001  11.193 -0.45 -0.14    +0.222 HD
DOCKED: ENDBRANCH  36  38
DOCKED: BRANCH  36  40
DOCKED: ATOM     40  O   UNL d   1      -3.261  14.263   9.993 -0.26 +0.09    -0.303 OA
DOCKED: ATOM     41  H   UNL d   1      -2.976  14.283  10.933 -0.23 -0.09    +0.222 HD
DOCKED: ENDBRANCH  36  40
DOCKED: ENDBRANCH  35  36
DOCKED: ENDBRANCH   5  35
DOCKED: BRANCH   4  42
DOCKED: ATOM     42  O   UNL d   1      -4.826  15.012  11.801 -0.20 +0.05    -0.278 OA
DOCKED: BRANCH  42  43
DOCKED: ATOM     43  P   UNL d   1      -3.812  15.734  12.798 -0.18 -0.20    +0.473 P 
DOCKED: ATOM     44  O   UNL d   1      -3.585  17.194  12.608 -0.06 +0.06    -0.228 OA
DOCKED: BRANCH  43  45
DOCKED: ATOM     45  O   UNL d   1      -4.392  15.347  14.228 +0.02 +0.35    -0.303 OA
DOCKED: ATOM     46  H   UNL d   1      -5.365  15.242  14.203 -0.38 -0.26    +0.222 HD
DOCKED: ENDBRANCH  43  45
DOCKED: BRANCH  43  47
DOCKED: ATOM     47  O   UNL d   1      -2.502  14.814  12.718 -0.15 +0.15    -0.303 OA
DOCKED: ATOM     48  H   UNL d   1      -2.145  14.839  11.806 -0.47 -0.16    +0.222 HD
DOCKED: ENDBRANCH  43  47
DOCKED: ENDBRANCH  42  43
DOCKED: ENDBRANCH   4  42
DOCKED: TORSDOF 24
DOCKED: TER
DOCKED: ENDMDL
________________________________________________________________________________


	BEGINNING GENETIC ALGORITHM DOCKING 26 of 100
Run: 26 Seed: 1339409574 1903924266 [ Run 26 of 100 GA/GALS ]
Beginning LAMARCKIAN GENETIC ALGORITHM (LGA), with a maximum of 25000000 energy evaluations.

Final-Value: -17.851


	FINAL GENETIC ALGORITHM DOCKED STATE
	_______________________________________________


Detailed state:  trans -5.874 17.836 9.670 quatxyzw -0.295733 0.786638 -0.428610 0.331716 center 0.035 0.082 -0.065 ntor 24 36.3194 43.2225 49.9674 157.9042 26.2229 -104.3070 170.7293 -23.9011 91.9324 120.3836 -131.7294 141.7479 43.7986 -81.8294 -53.1572 30.2906 95.7863 171.0126 34.7007 7.8651 -175.0809 -2.9679 4.5787 179.0241
State:	 -5.874  17.836   9.670  -0.313  0.834 -0.454 141.254     36.32   43.22   49.97  157.90   26.22 -104.31  170.73  -23.90   91.93  120.38 -131.73  141.75   43.80  -81.83  -53.16   30.29   95.79  171.01   34.70    7.87 -175.08   -2.97    4.58  179.02

DOCKED: MODEL       26
DOCKED: USER    Run = 26
DOCKED: USER    DPF = D:/Protein_go_brrr/autodock/final/AncB/IHP/dock.dpf
DOCKED: USER  
DOCKED: USER    Estimated Free Energy of Binding    =   +1.98 kcal/mol  [=(1)+(2)+(3)-(4)]
DOCKED: USER    
DOCKED: USER    (1) Final Intermolecular Energy     =   -5.18 kcal/mol
DOCKED: USER        vdW + Hbond + desolv Energy     =   -4.83 kcal/mol
DOCKED: USER        Electrostatic Energy            =   -0.36 kcal/mol
DOCKED: USER    (2) Final Total Internal Energy     =  -12.67 kcal/mol
DOCKED: USER    (3) Torsional Free Energy           =   +7.16 kcal/mol
DOCKED: USER    (4) Unbound System's Energy  [=(2)] =  -12.67 kcal/mol
DOCKED: USER    
DOCKED: USER    
DOCKED: USER    NEWDPF move IHP_ideal_opt.pdbqt
DOCKED: USER    NEWDPF about 0.035000 0.082000 -0.065000
DOCKED: USER    NEWDPF tran0 -5.873528 17.835806 9.669746
DOCKED: USER    NEWDPF quaternion0 -0.295733 0.786638 -0.428610 0.331716
DOCKED: USER    NEWDPF axisangle0 -0.313483 0.833852 -0.454335 141.254030
DOCKED: USER    NEWDPF quat0 -0.313483 0.833852 -0.454335 141.254030
DOCKED: USER    NEWDPF dihe0 36.32 43.22 49.97 157.90 26.22 -104.31 170.73 -23.90 91.93 120.38 -131.73 141.75 43.80 -81.83 -53.16 30.29 95.79 171.01 34.70 7.87 -175.08 -2.97 4.58 179.02 
DOCKED: USER  keepresnum = 1 
DOCKED: USER  
DOCKED: REMARK  24 active torsions:
DOCKED: REMARK  status: ('A' for Active; 'I' for Inactive)
DOCKED: REMARK    1  A    between atoms: C_1  and  O_7 
DOCKED: REMARK    2  A    between atoms: C_2  and  O_12 
DOCKED: REMARK    3  A    between atoms: C_3  and  O_17 
DOCKED: REMARK    4  A    between atoms: C_4  and  O_22 
DOCKED: REMARK    5  A    between atoms: C_5  and  O_27 
DOCKED: REMARK    6  A    between atoms: C_6  and  O_32 
DOCKED: REMARK    7  A    between atoms: O_7  and  P_8 
DOCKED: REMARK    8  A    between atoms: P_8  and  O_10 
DOCKED: REMARK    9  A    between atoms: P_8  and  O_11 
DOCKED: REMARK   10  A    between atoms: O_12  and  P_13 
DOCKED: REMARK   11  A    between atoms: P_13  and  O_15 
DOCKED: REMARK   12  A    between atoms: P_13  and  O_16 
DOCKED: REMARK   13  A    between atoms: O_17  and  P_18 
DOCKED: REMARK   14  A    between atoms: P_18  and  O_20 
DOCKED: REMARK   15  A    between atoms: P_18  and  O_21 
DOCKED: REMARK   16  A    between atoms: O_22  and  P_23 
DOCKED: REMARK   17  A    between atoms: P_23  and  O_25 
DOCKED: REMARK   18  A    between atoms: P_23  and  O_26 
DOCKED: REMARK   19  A    between atoms: O_27  and  P_28 
DOCKED: REMARK   20  A    between atoms: P_28  and  O_30 
DOCKED: REMARK   21  A    between atoms: P_28  and  O_31 
DOCKED: REMARK   22  A    between atoms: O_32  and  P_33 
DOCKED: REMARK   23  A    between atoms: P_33  and  O_35 
DOCKED: REMARK   24  A    between atoms: P_33  and  O_36 
DOCKED: USER                              x       y       z     vdW  Elec       q    Type
DOCKED: USER                           _______ _______ _______ _____ _____    ______ ____
DOCKED: ROOT
DOCKED: ATOM      1  C   UNL d   1      -6.178  16.514  10.740 -0.09 -0.01    +0.194 C 
DOCKED: ATOM      2  C   UNL d   1      -4.721  16.693  10.309 -0.09 -0.03    +0.194 C 
DOCKED: ATOM      3  C   UNL d   1      -4.607  17.003   8.814 -0.07 -0.03    +0.194 C 
DOCKED: ATOM      4  C   UNL d   1      -5.487  18.169   8.373 -0.02 -0.03    +0.194 C 
DOCKED: ATOM      5  C   UNL d   1      -6.922  18.090   8.877 -0.03 -0.02    +0.194 C 
DOCKED: ATOM      6  C   UNL d   1      -7.038  17.720  10.358 -0.03 -0.01    +0.194 C 
DOCKED: ENDROOT
DOCKED: BRANCH   1   7
DOCKED: ATOM      7  O   UNL d   1      -6.211  16.402  12.164 -0.06 +0.02    -0.278 OA
DOCKED: BRANCH   7   8
DOCKED: ATOM      8  P   UNL d   1      -6.036  14.954  12.816 -0.17 -0.04    +0.473 P 
DOCKED: ATOM      9  O   UNL d   1      -4.649  14.613  13.234 -0.29 +0.13    -0.228 OA
DOCKED: BRANCH   8  10
DOCKED: ATOM     10  O   UNL d   1      -7.077  14.945  14.025 -0.48 -0.02    -0.303 OA
DOCKED: ATOM     11  H   UNL d   1      -6.605  14.777  14.861 -0.43 -0.26    +0.222 HD
DOCKED: ENDBRANCH   8  10
DOCKED: BRANCH   8  12
DOCKED: ATOM     12  O   UNL d   1      -6.715  13.953  11.785 -0.23 -0.14    -0.303 OA
DOCKED: ATOM     13  H   UNL d   1      -7.114  14.409  11.010 +0.07 +0.08    +0.222 HD
DOCKED: ENDBRANCH   8  12
DOCKED: ENDBRANCH   7   8
DOCKED: ENDBRANCH   1   7
DOCKED: BRANCH   2  14
DOCKED: ATOM     14  O   UNL d   1      -4.147  17.780  11.045 -0.02 +0.05    -0.278 OA
DOCKED: BRANCH  14  15
DOCKED: ATOM     15  P   UNL d   1      -2.644  17.579  11.561 -0.04 -0.13    +0.473 P 
DOCKED: ATOM     16  O   UNL d   1      -2.193  16.170  11.787 -0.07 +0.12    -0.228 OA
DOCKED: BRANCH  15  17
DOCKED: ATOM     17  O   UNL d   1      -1.758  18.345  10.481 -0.04 +0.07    -0.303 OA
DOCKED: ATOM     18  H   UNL d   1      -2.041  18.124   9.573 +0.04 -0.05    +0.222 HD
DOCKED: ENDBRANCH  15  17
DOCKED: BRANCH  15  19
DOCKED: ATOM     19  O   UNL d   1      -2.523  18.547  12.818 -0.01 +0.06    -0.303 OA
DOCKED: ATOM     20  H   UNL d   1      -2.647  18.065  13.657 +0.04 -0.06    +0.222 HD
DOCKED: ENDBRANCH  15  19
DOCKED: ENDBRANCH  14  15
DOCKED: ENDBRANCH   2  14
DOCKED: BRANCH   6  21
DOCKED: ATOM     21  O   UNL d   1      -8.397  17.353  10.585 -0.03 -0.02    -0.278 OA
DOCKED: BRANCH  21  22
DOCKED: ATOM     22  P   UNL d   1      -8.888  15.876  10.236 -0.09 +0.10    +0.473 P 
DOCKED: ATOM     23  O   UNL d   1      -8.109  15.093   9.233 -0.18 -0.03    -0.228 OA
DOCKED: BRANCH  22  24
DOCKED: ATOM     24  O   UNL d   1      -8.973  15.211  11.680 -0.12 -0.19    -0.303 OA
DOCKED: ATOM     25  H   UNL d   1      -8.196  15.524  12.210 +0.05 +0.11    +0.222 HD
DOCKED: ENDBRANCH  22  24
DOCKED: BRANCH  22  26
DOCKED: ATOM     26  O   UNL d   1     -10.434  16.119   9.892 -0.10 -0.05    -0.303 OA
DOCKED: ATOM     27  H   UNL d   1     -10.512  16.435   8.969 +0.04 +0.01    +0.222 HD
DOCKED: ENDBRANCH  22  26
DOCKED: ENDBRANCH  21  22
DOCKED: ENDBRANCH   6  21
DOCKED: BRANCH   3  28
DOCKED: ATOM     28  O   UNL d   1      -3.271  17.422   8.565 -0.05 +0.07    -0.278 OA
DOCKED: BRANCH  28  29
DOCKED: ATOM     29  P   UNL d   1      -2.259  16.468   7.790 -0.11 -0.13    +0.473 P 
DOCKED: ATOM     30  O   UNL d   1      -2.839  15.199   7.280 -0.74 +0.03    -0.228 OA
DOCKED: BRANCH  29  31
DOCKED: ATOM     31  O   UNL d   1      -1.686  17.493   6.702 -0.14 +0.12    -0.303 OA
DOCKED: ATOM     32  H   UNL d   1      -1.632  17.031   5.834 +0.06 -0.13    +0.222 HD
DOCKED: ENDBRANCH  29  31
DOCKED: BRANCH  29  33
DOCKED: ATOM     33  O   UNL d   1      -1.056  16.345   8.825 -0.15 +0.13    -0.303 OA
DOCKED: ATOM     34  H   UNL d   1      -1.421  16.345   9.744 -0.45 -0.13    +0.222 HD
DOCKED: ENDBRANCH  29  33
DOCKED: ENDBRANCH  28  29
DOCKED: ENDBRANCH   3  28
DOCKED: BRANCH   5  35
DOCKED: ATOM     35  O   UNL d   1      -7.457  19.403   8.730 -0.00 +0.02    -0.278 OA
DOCKED: BRANCH  35  36
DOCKED: ATOM     36  P   UNL d   1      -8.915  19.614   8.117 -0.00 -0.02    +0.473 P 
DOCKED: ATOM     37  O   UNL d   1      -9.742  20.675   8.770 -0.00 +0.01    -0.228 OA
DOCKED: BRANCH  36  38
DOCKED: ATOM     38  O   UNL d   1      -8.586  19.893   6.583 -0.00 +0.02    -0.303 OA
DOCKED: ATOM     39  H   UNL d   1      -7.700  19.526   6.373 +0.01 -0.03    +0.222 HD
DOCKED: ENDBRANCH  36  38
DOCKED: BRANCH  36  40
DOCKED: ATOM     40  O   UNL d   1      -9.502  18.136   8.120 -0.01 +0.01    -0.303 OA
DOCKED: ATOM     41  H   UNL d   1      -9.811  17.869   9.014 +0.03 +0.00    +0.222 HD
DOCKED: ENDBRANCH  36  40
DOCKED: ENDBRANCH  35  36
DOCKED: ENDBRANCH   5  35
DOCKED: BRANCH   4  42
DOCKED: ATOM     42  O   UNL d   1      -5.541  18.130   6.943 -0.01 +0.06    -0.278 OA
DOCKED: BRANCH  42  43
DOCKED: ATOM     43  P   UNL d   1      -6.302  16.921   6.233 -0.04 -0.13    +0.473 P 
DOCKED: ATOM     44  O   UNL d   1      -5.724  16.395   4.965 -0.14 +0.09    -0.228 OA
DOCKED: BRANCH  43  45
DOCKED: ATOM     45  O   UNL d   1      -6.407  15.842   7.398 -0.12 +0.09    -0.303 OA
DOCKED: ATOM     46  H   UNL d   1      -7.157  15.232   7.254 -0.49 -0.11    +0.222 HD
DOCKED: ENDBRANCH  43  45
DOCKED: BRANCH  43  47
DOCKED: ATOM     47  O   UNL d   1      -7.814  17.445   6.138 -0.04 +0.06    -0.303 OA
DOCKED: ATOM     48  H   UNL d   1      -8.040  17.928   6.960 +0.03 -0.03    +0.222 HD
DOCKED: ENDBRANCH  43  47
DOCKED: ENDBRANCH  42  43
DOCKED: ENDBRANCH   4  42
DOCKED: TORSDOF 24
DOCKED: TER
DOCKED: ENDMDL
________________________________________________________________________________


	BEGINNING GENETIC ALGORITHM DOCKING 27 of 100
Run: 27 Seed: 1953949699 394550808 [ Run 27 of 100 GA/GALS ]
Beginning LAMARCKIAN GENETIC ALGORITHM (LGA), with a maximum of 25000000 energy evaluations.

Final-Value: -18.766


	FINAL GENETIC ALGORITHM DOCKED STATE
	_______________________________________________


Detailed state:  trans -1.901 -11.990 8.078 quatxyzw 0.210846 -0.811354 -0.544058 -0.035345 center 0.035 0.082 -0.065 ntor 24 177.8652 90.9180 168.4400 -16.0089 32.9084 -114.6240 -95.8540 -36.2408 20.6701 80.6438 13.7811 -114.8255 -66.2507 177.3101 104.7457 -3.7891 -49.1520 -42.0581 -24.7393 19.3404 -1.7516 10.6994 -7.7755 -36.4798
State:	 -1.901 -11.990   8.078   0.211 -0.812 -0.544 -175.949    177.87   90.92  168.44  -16.01   32.91 -114.62  -95.85  -36.24   20.67   80.64   13.78 -114.83  -66.25  177.31  104.75   -3.79  -49.15  -42.06  -24.74   19.34   -1.75   10.70   -7.78  -36.48

DOCKED: MODEL       27
DOCKED: USER    Run = 27
DOCKED: USER    DPF = D:/Protein_go_brrr/autodock/final/AncB/IHP/dock.dpf
DOCKED: USER  
DOCKED: USER    Estimated Free Energy of Binding    =   +2.43 kcal/mol  [=(1)+(2)+(3)-(4)]
DOCKED: USER    
DOCKED: USER    (1) Final Intermolecular Energy     =   -4.73 kcal/mol
DOCKED: USER        vdW + Hbond + desolv Energy     =   -4.42 kcal/mol
DOCKED: USER        Electrostatic Energy            =   -0.31 kcal/mol
DOCKED: USER    (2) Final Total Internal Energy     =  -14.04 kcal/mol
DOCKED: USER    (3) Torsional Free Energy           =   +7.16 kcal/mol
DOCKED: USER    (4) Unbound System's Energy  [=(2)] =  -14.04 kcal/mol
DOCKED: USER    
DOCKED: USER    
DOCKED: USER    NEWDPF move IHP_ideal_opt.pdbqt
DOCKED: USER    NEWDPF about 0.035000 0.082000 -0.065000
DOCKED: USER    NEWDPF tran0 -1.901080 -11.989621 8.078196
DOCKED: USER    NEWDPF quaternion0 0.210846 -0.811354 -0.544058 -0.035345
DOCKED: USER    NEWDPF axisangle0 0.210978 -0.811861 -0.544399 -175.948877
DOCKED: USER    NEWDPF quat0 0.210978 -0.811861 -0.544399 -175.948877
DOCKED: USER    NEWDPF dihe0 177.87 90.92 168.44 -16.01 32.91 -114.62 -95.85 -36.24 20.67 80.64 13.78 -114.83 -66.25 177.31 104.75 -3.79 -49.15 -42.06 -24.74 19.34 -1.75 10.70 -7.78 -36.48 
DOCKED: USER  keepresnum = 1 
DOCKED: USER  
DOCKED: REMARK  24 active torsions:
DOCKED: REMARK  status: ('A' for Active; 'I' for Inactive)
DOCKED: REMARK    1  A    between atoms: C_1  and  O_7 
DOCKED: REMARK    2  A    between atoms: C_2  and  O_12 
DOCKED: REMARK    3  A    between atoms: C_3  and  O_17 
DOCKED: REMARK    4  A    between atoms: C_4  and  O_22 
DOCKED: REMARK    5  A    between atoms: C_5  and  O_27 
DOCKED: REMARK    6  A    between atoms: C_6  and  O_32 
DOCKED: REMARK    7  A    between atoms: O_7  and  P_8 
DOCKED: REMARK    8  A    between atoms: P_8  and  O_10 
DOCKED: REMARK    9  A    between atoms: P_8  and  O_11 
DOCKED: REMARK   10  A    between atoms: O_12  and  P_13 
DOCKED: REMARK   11  A    between atoms: P_13  and  O_15 
DOCKED: REMARK   12  A    between atoms: P_13  and  O_16 
DOCKED: REMARK   13  A    between atoms: O_17  and  P_18 
DOCKED: REMARK   14  A    between atoms: P_18  and  O_20 
DOCKED: REMARK   15  A    between atoms: P_18  and  O_21 
DOCKED: REMARK   16  A    between atoms: O_22  and  P_23 
DOCKED: REMARK   17  A    between atoms: P_23  and  O_25 
DOCKED: REMARK   18  A    between atoms: P_23  and  O_26 
DOCKED: REMARK   19  A    between atoms: O_27  and  P_28 
DOCKED: REMARK   20  A    between atoms: P_28  and  O_30 
DOCKED: REMARK   21  A    between atoms: P_28  and  O_31 
DOCKED: REMARK   22  A    between atoms: O_32  and  P_33 
DOCKED: REMARK   23  A    between atoms: P_33  and  O_35 
DOCKED: REMARK   24  A    between atoms: P_33  and  O_36 
DOCKED: USER                              x       y       z     vdW  Elec       q    Type
DOCKED: USER                           _______ _______ _______ _____ _____    ______ ____
DOCKED: ROOT
DOCKED: ATOM      1  C   UNL d   1      -2.997 -12.063   6.745 -0.25 +0.07    +0.194 C 
DOCKED: ATOM      2  C   UNL d   1      -1.513 -12.165   6.387 -0.10 +0.05    +0.194 C 
DOCKED: ATOM      3  C   UNL d   1      -0.671 -11.156   7.171 -0.21 +0.04    +0.194 C 
DOCKED: ATOM      4  C   UNL d   1      -0.907 -11.218   8.678 -0.14 +0.04    +0.194 C 
DOCKED: ATOM      5  C   UNL d   1      -2.377 -11.235   9.076 -0.17 +0.05    +0.194 C 
DOCKED: ATOM      6  C   UNL d   1      -3.231 -12.199   8.250 -0.15 +0.07    +0.194 C 
DOCKED: ENDROOT
DOCKED: BRANCH   1   7
DOCKED: ATOM      7  O   UNL d   1      -3.684 -13.143   6.107 -0.15 -0.13    -0.278 OA
DOCKED: BRANCH   7   8
DOCKED: ATOM      8  P   UNL d   1      -5.187 -12.904   5.621 -0.19 +0.40    +0.473 P 
DOCKED: ATOM      9  O   UNL d   1      -5.845 -11.691   6.179 -0.31 -0.16    -0.228 OA
DOCKED: BRANCH   8  10
DOCKED: ATOM     10  O   UNL d   1      -5.081 -12.885   4.030 -0.28 -0.25    -0.303 OA
DOCKED: ATOM     11  H   UNL d   1      -4.254 -13.323   3.752 -0.42 +0.05    +0.222 HD
DOCKED: ENDBRANCH   8  10
DOCKED: BRANCH   8  12
DOCKED: ATOM     12  O   UNL d   1      -5.931 -14.282   5.889 -0.35 -0.53    -0.303 OA
DOCKED: ATOM     13  H   UNL d   1      -5.736 -14.660   6.776 +0.07 +0.31    +0.222 HD
DOCKED: ENDBRANCH   8  12
DOCKED: ENDBRANCH   7   8
DOCKED: ENDBRANCH   1   7
DOCKED: BRANCH   2  14
DOCKED: ATOM     14  O   UNL d   1      -1.048 -13.485   6.695 -0.08 -0.08    -0.278 OA
DOCKED: BRANCH  14  15
DOCKED: ATOM     15  P   UNL d   1       0.160 -14.045   5.805 -0.04 +0.12    +0.473 P 
DOCKED: ATOM     16  O   UNL d   1      -0.044 -15.379   5.157 -0.06 -0.07    -0.228 OA
DOCKED: BRANCH  15  17
DOCKED: ATOM     17  O   UNL d   1       0.435 -12.882   4.750 -0.12 -0.10    -0.303 OA
DOCKED: ATOM     18  H   UNL d   1       0.867 -12.117   5.175 +0.07 +0.05    +0.222 HD
DOCKED: ENDBRANCH  15  17
DOCKED: BRANCH  15  19
DOCKED: ATOM     19  O   UNL d   1       1.435 -13.928   6.748 -0.01 -0.05    -0.303 OA
DOCKED: ATOM     20  H   UNL d   1       1.747 -13.007   6.820 +0.03 +0.03    +0.222 HD
DOCKED: ENDBRANCH  15  19
DOCKED: ENDBRANCH  14  15
DOCKED: ENDBRANCH   2  14
DOCKED: BRANCH   6  21
DOCKED: ATOM     21  O   UNL d   1      -4.594 -11.856   8.493 -0.17 -0.13    -0.278 OA
DOCKED: BRANCH  21  22
DOCKED: ATOM     22  P   UNL d   1      -5.481 -12.769   9.454 -0.13 +0.26    +0.473 P 
DOCKED: ATOM     23  O   UNL d   1      -6.339 -12.096  10.472 -0.22 -0.14    -0.228 OA
DOCKED: BRANCH  22  24
DOCKED: ATOM     24  O   UNL d   1      -6.270 -13.672   8.407 -0.21 -0.26    -0.303 OA
DOCKED: ATOM     25  H   UNL d   1      -6.436 -13.128   7.595 +0.09 +0.21    +0.222 HD
DOCKED: ENDBRANCH  22  24
DOCKED: BRANCH  22  26
DOCKED: ATOM     26  O   UNL d   1      -4.391 -13.799  10.023 -0.03 -0.13    -0.303 OA
DOCKED: ATOM     27  H   UNL d   1      -3.798 -13.329  10.644 +0.05 +0.08    +0.222 HD
DOCKED: ENDBRANCH  22  26
DOCKED: ENDBRANCH  21  22
DOCKED: ENDBRANCH   6  21
DOCKED: BRANCH   3  28
DOCKED: ATOM     28  O   UNL d   1       0.696 -11.506   6.989 -0.11 -0.04    -0.278 OA
DOCKED: BRANCH  28  29
DOCKED: ATOM     29  P   UNL d   1       1.715 -10.461   6.352 -0.11 +0.06    +0.473 P 
DOCKED: ATOM     30  O   UNL d   1       1.125  -9.495   5.390 -0.27 -0.02    -0.228 OA
DOCKED: BRANCH  29  31
DOCKED: ATOM     31  O   UNL d   1       2.362  -9.855   7.685 -0.08 -0.04    -0.303 OA
DOCKED: ATOM     32  H   UNL d   1       1.641  -9.678   8.332 +0.07 +0.03    +0.222 HD
DOCKED: ENDBRANCH  29  31
DOCKED: BRANCH  29  33
DOCKED: ATOM     33  O   UNL d   1       2.868 -11.411   5.803 -0.04 -0.03    -0.303 OA
DOCKED: ATOM     34  H   UNL d   1       2.498 -12.317   5.662 +0.05 +0.02    +0.222 HD
DOCKED: ENDBRANCH  29  33
DOCKED: ENDBRANCH  28  29
DOCKED: ENDBRANCH   3  28
DOCKED: BRANCH   5  35
DOCKED: ATOM     35  O   UNL d   1      -2.409 -11.697  10.425 -0.05 -0.07    -0.278 OA
DOCKED: BRANCH  35  36
DOCKED: ATOM     36  P   UNL d   1      -3.081 -10.807  11.565 -0.08 +0.14    +0.473 P 
DOCKED: ATOM     37  O   UNL d   1      -3.551  -9.454  11.133 -0.22 -0.08    -0.228 OA
DOCKED: BRANCH  36  38
DOCKED: ATOM     38  O   UNL d   1      -4.239 -11.767  12.087 -0.06 -0.11    -0.303 OA
DOCKED: ATOM     39  H   UNL d   1      -4.747 -12.106  11.318 +0.08 +0.09    +0.222 HD
DOCKED: ENDBRANCH  36  38
DOCKED: BRANCH  36  40
DOCKED: ATOM     40  O   UNL d   1      -1.991 -10.857  12.722 -0.03 -0.06    -0.303 OA
DOCKED: ATOM     41  H   UNL d   1      -1.077 -10.810  12.364 +0.04 +0.04    +0.222 HD
DOCKED: ENDBRANCH  36  40
DOCKED: ENDBRANCH  35  36
DOCKED: ENDBRANCH   5  35
DOCKED: BRANCH   4  42
DOCKED: ATOM     42  O   UNL d   1      -0.333 -10.032   9.237 -0.06 -0.05    -0.278 OA
DOCKED: BRANCH  42  43
DOCKED: ATOM     43  P   UNL d   1       0.294 -10.094  10.702 -0.03 +0.06    +0.473 P 
DOCKED: ATOM     44  O   UNL d   1       0.323 -11.420  11.381 -0.02 -0.03    -0.228 OA
DOCKED: BRANCH  43  45
DOCKED: ATOM     45  O   UNL d   1       1.729  -9.438  10.495 -0.04 -0.03    -0.303 OA
DOCKED: ATOM     46  H   UNL d   1       2.258  -9.934   9.839 +0.04 +0.02    +0.222 HD
DOCKED: ENDBRANCH  43  45
DOCKED: BRANCH  43  47
DOCKED: ATOM     47  O   UNL d   1      -0.485  -8.933  11.485 -0.11 -0.04    -0.303 OA
DOCKED: ATOM     48  H   UNL d   1      -1.437  -9.160  11.535 +0.08 +0.04    +0.222 HD
DOCKED: ENDBRANCH  43  47
DOCKED: ENDBRANCH  42  43
DOCKED: ENDBRANCH   4  42
DOCKED: TORSDOF 24
DOCKED: TER
DOCKED: ENDMDL
________________________________________________________________________________


	BEGINNING GENETIC ALGORITHM DOCKING 28 of 100
Run: 28 Seed: 905759664 1680618242 [ Run 28 of 100 GA/GALS ]
Beginning LAMARCKIAN GENETIC ALGORITHM (LGA), with a maximum of 25000000 energy evaluations.

Final-Value: -18.249


	FINAL GENETIC ALGORITHM DOCKED STATE
	_______________________________________________


Detailed state:  trans 10.566 12.289 4.750 quatxyzw 0.749249 0.468207 0.360880 0.298619 center 0.035 0.082 -0.065 ntor 24 -155.4887 -4.0174 105.4003 122.3236 2.4075 -113.6648 -149.0477 -100.6354 37.6046 98.6631 33.1754 -136.4017 89.8060 93.5900 -19.9259 62.5188 -76.2116 134.2058 -10.0282 7.5844 158.6869 27.6427 -7.8463 -10.2362
State:	 10.566  12.289   4.750   0.785  0.491  0.378 145.251   -155.49   -4.02  105.40  122.32    2.41 -113.66 -149.05 -100.64   37.60   98.66   33.18 -136.40   89.81   93.59  -19.93   62.52  -76.21  134.21  -10.03    7.58  158.69   27.64   -7.85  -10.24

DOCKED: MODEL       28
DOCKED: USER    Run = 28
DOCKED: USER    DPF = D:/Protein_go_brrr/autodock/final/AncB/IHP/dock.dpf
DOCKED: USER  
DOCKED: USER    Estimated Free Energy of Binding    =   +3.32 kcal/mol  [=(1)+(2)+(3)-(4)]
DOCKED: USER    
DOCKED: USER    (1) Final Intermolecular Energy     =   -3.84 kcal/mol
DOCKED: USER        vdW + Hbond + desolv Energy     =   -3.73 kcal/mol
DOCKED: USER        Electrostatic Energy            =   -0.11 kcal/mol
DOCKED: USER    (2) Final Total Internal Energy     =  -14.41 kcal/mol
DOCKED: USER    (3) Torsional Free Energy           =   +7.16 kcal/mol
DOCKED: USER    (4) Unbound System's Energy  [=(2)] =  -14.41 kcal/mol
DOCKED: USER    
DOCKED: USER    
DOCKED: USER    NEWDPF move IHP_ideal_opt.pdbqt
DOCKED: USER    NEWDPF about 0.035000 0.082000 -0.065000
DOCKED: USER    NEWDPF tran0 10.565888 12.288604 4.749580
DOCKED: USER    NEWDPF quaternion0 0.749249 0.468207 0.360880 0.298619
DOCKED: USER    NEWDPF axisangle0 0.785070 0.490591 0.378134 145.250699
DOCKED: USER    NEWDPF quat0 0.785070 0.490591 0.378134 145.250699
DOCKED: USER    NEWDPF dihe0 -155.49 -4.02 105.40 122.32 2.41 -113.66 -149.05 -100.64 37.60 98.66 33.18 -136.40 89.81 93.59 -19.93 62.52 -76.21 134.21 -10.03 7.58 158.69 27.64 -7.85 -10.24 
DOCKED: USER  keepresnum = 1 
DOCKED: USER  
DOCKED: REMARK  24 active torsions:
DOCKED: REMARK  status: ('A' for Active; 'I' for Inactive)
DOCKED: REMARK    1  A    between atoms: C_1  and  O_7 
DOCKED: REMARK    2  A    between atoms: C_2  and  O_12 
DOCKED: REMARK    3  A    between atoms: C_3  and  O_17 
DOCKED: REMARK    4  A    between atoms: C_4  and  O_22 
DOCKED: REMARK    5  A    between atoms: C_5  and  O_27 
DOCKED: REMARK    6  A    between atoms: C_6  and  O_32 
DOCKED: REMARK    7  A    between atoms: O_7  and  P_8 
DOCKED: REMARK    8  A    between atoms: P_8  and  O_10 
DOCKED: REMARK    9  A    between atoms: P_8  and  O_11 
DOCKED: REMARK   10  A    between atoms: O_12  and  P_13 
DOCKED: REMARK   11  A    between atoms: P_13  and  O_15 
DOCKED: REMARK   12  A    between atoms: P_13  and  O_16 
DOCKED: REMARK   13  A    between atoms: O_17  and  P_18 
DOCKED: REMARK   14  A    between atoms: P_18  and  O_20 
DOCKED: REMARK   15  A    between atoms: P_18  and  O_21 
DOCKED: REMARK   16  A    between atoms: O_22  and  P_23 
DOCKED: REMARK   17  A    between atoms: P_23  and  O_25 
DOCKED: REMARK   18  A    between atoms: P_23  and  O_26 
DOCKED: REMARK   19  A    between atoms: O_27  and  P_28 
DOCKED: REMARK   20  A    between atoms: P_28  and  O_30 
DOCKED: REMARK   21  A    between atoms: P_28  and  O_31 
DOCKED: REMARK   22  A    between atoms: O_32  and  P_33 
DOCKED: REMARK   23  A    between atoms: P_33  and  O_35 
DOCKED: REMARK   24  A    between atoms: P_33  and  O_36 
DOCKED: USER                              x       y       z     vdW  Elec       q    Type
DOCKED: USER                           _______ _______ _______ _____ _____    ______ ____
DOCKED: ROOT
DOCKED: ATOM      1  C   UNL d   1      10.335  13.859   5.431 -0.02 +0.04    +0.194 C 
DOCKED: ATOM      2  C   UNL d   1       9.126  13.271   4.702 -0.06 +0.05    +0.194 C 
DOCKED: ATOM      3  C   UNL d   1       9.528  12.600   3.387 -0.09 +0.06    +0.194 C 
DOCKED: ATOM      4  C   UNL d   1      10.654  11.582   3.551 -0.11 +0.10    +0.194 C 
DOCKED: ATOM      5  C   UNL d   1      11.834  12.089   4.371 -0.06 +0.08    +0.194 C 
DOCKED: ATOM      6  C   UNL d   1      11.429  12.815   5.656 -0.04 +0.07    +0.194 C 
DOCKED: ENDROOT
DOCKED: BRANCH   1   7
DOCKED: ATOM      7  O   UNL d   1       9.905  14.309   6.718 -0.00 -0.04    -0.278 OA
DOCKED: BRANCH   7   8
DOCKED: ATOM      8  P   UNL d   1      10.348  15.767   7.200 +0.01 +0.02    +0.473 P 
DOCKED: ATOM      9  O   UNL d   1       9.311  16.525   7.951 -0.00 -0.00    -0.228 OA
DOCKED: BRANCH   8  10
DOCKED: ATOM     10  O   UNL d   1      11.674  15.507   8.048 +0.00 -0.02    -0.303 OA
DOCKED: ATOM     11  H   UNL d   1      12.265  14.906   7.555 +0.00 +0.02    +0.222 HD
DOCKED: ENDBRANCH   8  10
DOCKED: BRANCH   8  12
DOCKED: ATOM     12  O   UNL d   1      10.920  16.476   5.898 +0.00 -0.01    -0.303 OA
DOCKED: ATOM     13  H   UNL d   1      11.571  15.922   5.412 +0.00 +0.02    +0.222 HD
DOCKED: ENDBRANCH   8  12
DOCKED: ENDBRANCH   7   8
DOCKED: ENDBRANCH   1   7
DOCKED: BRANCH   2  14
DOCKED: ATOM     14  O   UNL d   1       8.505  12.291   5.544 -0.07 -0.17    -0.278 OA
DOCKED: BRANCH  14  15
DOCKED: ATOM     15  P   UNL d   1       6.904  12.280   5.569 -0.09 +0.11    +0.473 P 
DOCKED: ATOM     16  O   UNL d   1       6.244  10.957   5.801 -0.87 -0.11    -0.228 OA
DOCKED: BRANCH  15  17
DOCKED: ATOM     17  O   UNL d   1       6.527  13.361   6.678 -0.07 +0.01    -0.303 OA
DOCKED: ATOM     18  H   UNL d   1       7.314  13.867   6.958 +0.06 +0.01    +0.222 HD
DOCKED: ENDBRANCH  15  17
DOCKED: BRANCH  15  19
DOCKED: ATOM     19  O   UNL d   1       6.481  13.033   4.233 -0.15 +0.10    -0.303 OA
DOCKED: ATOM     20  H   UNL d   1       6.785  12.556   3.439 +0.11 -0.05    +0.222 HD
DOCKED: ENDBRANCH  15  19
DOCKED: ENDBRANCH  14  15
DOCKED: ENDBRANCH   2  14
DOCKED: BRANCH   6  21
DOCKED: ATOM     21  O   UNL d   1      12.584  13.511   6.117 +0.00 -0.06    -0.278 OA
DOCKED: BRANCH  21  22
DOCKED: ATOM     22  P   UNL d   1      13.317  14.553   5.157 +0.01 +0.06    +0.473 P 
DOCKED: ATOM     23  O   UNL d   1      12.636  14.940   3.887 -0.00 -0.03    -0.228 OA
DOCKED: BRANCH  22  24
DOCKED: ATOM     24  O   UNL d   1      13.611  15.761   6.151 +0.00 -0.03    -0.303 OA
DOCKED: ATOM     25  H   UNL d   1      12.742  16.126   6.458 +0.00 +0.02    +0.222 HD
DOCKED: ENDBRANCH  22  24
DOCKED: BRANCH  22  26
DOCKED: ATOM     26  O   UNL d   1      14.768  13.890   5.003 +0.00 -0.04    -0.303 OA
DOCKED: ATOM     27  H   UNL d   1      14.700  13.094   4.437 +0.01 +0.04    +0.222 HD
DOCKED: ENDBRANCH  22  26
DOCKED: ENDBRANCH  21  22
DOCKED: ENDBRANCH   6  21
DOCKED: BRANCH   3  28
DOCKED: ATOM     28  O   UNL d   1       8.409  11.853   2.928 -0.15 -0.09    -0.278 OA
DOCKED: BRANCH  28  29
DOCKED: ATOM     29  P   UNL d   1       8.016  11.860   1.384 -0.21 +0.02    +0.473 P 
DOCKED: ATOM     30  O   UNL d   1       9.157  11.888   0.433 -0.20 -0.02    -0.228 OA
DOCKED: BRANCH  29  31
DOCKED: ATOM     31  O   UNL d   1       7.060  10.577   1.334 -0.35 -0.02    -0.303 OA
DOCKED: ATOM     32  H   UNL d   1       7.586   9.806   1.018 -0.24 +0.02    +0.222 HD
DOCKED: ENDBRANCH  29  31
DOCKED: BRANCH  29  33
DOCKED: ATOM     33  O   UNL d   1       6.985  13.070   1.307 -0.22 +0.09    -0.303 OA
DOCKED: ATOM     34  H   UNL d   1       6.389  13.035   2.095 +0.11 -0.13    +0.222 HD
DOCKED: ENDBRANCH  29  33
DOCKED: ENDBRANCH  28  29
DOCKED: ENDBRANCH   3  28
DOCKED: BRANCH   5  35
DOCKED: ATOM     35  O   UNL d   1      12.564  10.927   4.757 -0.08 -0.15    -0.278 OA
DOCKED: BRANCH  35  36
DOCKED: ATOM     36  P   UNL d   1      14.105  10.779   4.370 -0.01 +0.14    +0.473 P 
DOCKED: ATOM     37  O   UNL d   1      14.510  11.421   3.081 -0.03 -0.05    -0.228 OA
DOCKED: BRANCH  36  38
DOCKED: ATOM     38  O   UNL d   1      14.824  11.382   5.657 +0.00 -0.07    -0.303 OA
DOCKED: ATOM     39  H   UNL d   1      14.262  12.092   6.035 +0.01 +0.05    +0.222 HD
DOCKED: ENDBRANCH  36  38
DOCKED: BRANCH  36  40
DOCKED: ATOM     40  O   UNL d   1      14.339   9.211   4.501 -0.05 -0.11    -0.303 OA
DOCKED: ATOM     41  H   UNL d   1      13.724   8.702   3.927 +0.06 +0.10    +0.222 HD
DOCKED: ENDBRANCH  36  40
DOCKED: ENDBRANCH  35  36
DOCKED: ENDBRANCH   5  35
DOCKED: BRANCH   4  42
DOCKED: ATOM     42  O   UNL d   1      11.147  11.294   2.238 -0.10 -0.10    -0.278 OA
DOCKED: BRANCH  42  43
DOCKED: ATOM     43  P   UNL d   1      11.108   9.788   1.713 -0.25 +0.22    +0.473 P 
DOCKED: ATOM     44  O   UNL d   1      11.627   9.525   0.342 -0.37 -0.07    -0.228 OA
DOCKED: BRANCH  43  45
DOCKED: ATOM     45  O   UNL d   1      11.875   8.998   2.862 -0.24 -0.21    -0.303 OA
DOCKED: ATOM     46  H   UNL d   1      12.646   9.503   3.190 +0.07 +0.12    +0.222 HD
DOCKED: ENDBRANCH  43  45
DOCKED: BRANCH  43  47
DOCKED: ATOM     47  O   UNL d   1       9.589   9.349   1.974 -0.19 -0.22    -0.303 OA
DOCKED: ATOM     48  H   UNL d   1       8.992  10.080   1.711 +0.13 +0.10    +0.222 HD
DOCKED: ENDBRANCH  43  47
DOCKED: ENDBRANCH  42  43
DOCKED: ENDBRANCH   4  42
DOCKED: TORSDOF 24
DOCKED: TER
DOCKED: ENDMDL
________________________________________________________________________________


	BEGINNING GENETIC ALGORITHM DOCKING 29 of 100
Run: 29 Seed: 1839843053 2110244107 [ Run 29 of 100 GA/GALS ]
Beginning LAMARCKIAN GENETIC ALGORITHM (LGA), with a maximum of 25000000 energy evaluations.

Final-Value: -17.871


	FINAL GENETIC ALGORITHM DOCKED STATE
	_______________________________________________


Detailed state:  trans -17.883 -0.415 6.179 quatxyzw -0.222866 0.839187 -0.180069 -0.462246 center 0.035 0.082 -0.065 ntor 24 50.0132 64.8135 148.9128 43.8358 159.5027 163.1001 -101.0965 -6.4990 164.8095 -5.5179 -56.7054 27.0757 -25.1915 -142.4697 -128.5621 50.0131 179.8778 -107.8539 46.9996 -7.0740 -48.9648 160.5596 33.0823 -96.2921
State:	-17.883  -0.415   6.179  -0.251  0.946 -0.203 -124.936     50.01   64.81  148.91   43.84  159.50  163.10 -101.10   -6.50  164.81   -5.52  -56.71   27.08  -25.19 -142.47 -128.56   50.01  179.88 -107.85   47.00   -7.07  -48.96  160.56   33.08  -96.29

DOCKED: MODEL       29
DOCKED: USER    Run = 29
DOCKED: USER    DPF = D:/Protein_go_brrr/autodock/final/AncB/IHP/dock.dpf
DOCKED: USER  
DOCKED: USER    Estimated Free Energy of Binding    =   +2.21 kcal/mol  [=(1)+(2)+(3)-(4)]
DOCKED: USER    
DOCKED: USER    (1) Final Intermolecular Energy     =   -4.94 kcal/mol
DOCKED: USER        vdW + Hbond + desolv Energy     =   -4.70 kcal/mol
DOCKED: USER        Electrostatic Energy            =   -0.24 kcal/mol
DOCKED: USER    (2) Final Total Internal Energy     =  -12.93 kcal/mol
DOCKED: USER    (3) Torsional Free Energy           =   +7.16 kcal/mol
DOCKED: USER    (4) Unbound System's Energy  [=(2)] =  -12.93 kcal/mol
DOCKED: USER    
DOCKED: USER    
DOCKED: USER    NEWDPF move IHP_ideal_opt.pdbqt
DOCKED: USER    NEWDPF about 0.035000 0.082000 -0.065000
DOCKED: USER    NEWDPF tran0 -17.883044 -0.414654 6.178552
DOCKED: USER    NEWDPF quaternion0 -0.222866 0.839187 -0.180069 -0.462246
DOCKED: USER    NEWDPF axisangle0 -0.251328 0.946361 -0.203066 -124.935768
DOCKED: USER    NEWDPF quat0 -0.251328 0.946361 -0.203066 -124.935768
DOCKED: USER    NEWDPF dihe0 50.01 64.81 148.91 43.84 159.50 163.10 -101.10 -6.50 164.81 -5.52 -56.71 27.08 -25.19 -142.47 -128.56 50.01 179.88 -107.85 47.00 -7.07 -48.96 160.56 33.08 -96.29 
DOCKED: USER  keepresnum = 1 
DOCKED: USER  
DOCKED: REMARK  24 active torsions:
DOCKED: REMARK  status: ('A' for Active; 'I' for Inactive)
DOCKED: REMARK    1  A    between atoms: C_1  and  O_7 
DOCKED: REMARK    2  A    between atoms: C_2  and  O_12 
DOCKED: REMARK    3  A    between atoms: C_3  and  O_17 
DOCKED: REMARK    4  A    between atoms: C_4  and  O_22 
DOCKED: REMARK    5  A    between atoms: C_5  and  O_27 
DOCKED: REMARK    6  A    between atoms: C_6  and  O_32 
DOCKED: REMARK    7  A    between atoms: O_7  and  P_8 
DOCKED: REMARK    8  A    between atoms: P_8  and  O_10 
DOCKED: REMARK    9  A    between atoms: P_8  and  O_11 
DOCKED: REMARK   10  A    between atoms: O_12  and  P_13 
DOCKED: REMARK   11  A    between atoms: P_13  and  O_15 
DOCKED: REMARK   12  A    between atoms: P_13  and  O_16 
DOCKED: REMARK   13  A    between atoms: O_17  and  P_18 
DOCKED: REMARK   14  A    between atoms: P_18  and  O_20 
DOCKED: REMARK   15  A    between atoms: P_18  and  O_21 
DOCKED: REMARK   16  A    between atoms: O_22  and  P_23 
DOCKED: REMARK   17  A    between atoms: P_23  and  O_25 
DOCKED: REMARK   18  A    between atoms: P_23  and  O_26 
DOCKED: REMARK   19  A    between atoms: O_27  and  P_28 
DOCKED: REMARK   20  A    between atoms: P_28  and  O_30 
DOCKED: REMARK   21  A    between atoms: P_28  and  O_31 
DOCKED: REMARK   22  A    between atoms: O_32  and  P_33 
DOCKED: REMARK   23  A    between atoms: P_33  and  O_35 
DOCKED: REMARK   24  A    between atoms: P_33  and  O_36 
DOCKED: USER                              x       y       z     vdW  Elec       q    Type
DOCKED: USER                           _______ _______ _______ _____ _____    ______ ____
DOCKED: ROOT
DOCKED: ATOM      1  C   UNL d   1     -17.615  -1.910   5.357 +0.06 -0.02    +0.194 C 
DOCKED: ATOM      2  C   UNL d   1     -17.173  -1.872   6.821 -0.22 +0.02    +0.194 C 
DOCKED: ATOM      3  C   UNL d   1     -16.454  -0.565   7.162 -0.25 +0.01    +0.194 C 
DOCKED: ATOM      4  C   UNL d   1     -17.247   0.678   6.766 -0.15 +0.01    +0.194 C 
DOCKED: ATOM      5  C   UNL d   1     -17.805   0.633   5.349 -0.18 +0.01    +0.194 C 
DOCKED: ATOM      6  C   UNL d   1     -18.470  -0.697   4.987 -0.14 -0.01    +0.194 C 
DOCKED: ENDROOT
DOCKED: BRANCH   1   7
DOCKED: ATOM      7  O   UNL d   1     -18.421  -3.075   5.164 -0.13 +0.02    -0.278 OA
DOCKED: BRANCH   7   8
DOCKED: ATOM      8  P   UNL d   1     -17.696  -4.496   5.083 -0.22 -0.02    +0.473 P 
DOCKED: ATOM      9  O   UNL d   1     -16.393  -4.581   5.798 -0.71 -0.01    -0.228 OA
DOCKED: BRANCH   8  10
DOCKED: ATOM     10  O   UNL d   1     -18.786  -5.518   5.641 -0.10 +0.03    -0.303 OA
DOCKED: ATOM     11  H   UNL d   1     -18.520  -5.829   6.527 -0.08 -0.08    +0.222 HD
DOCKED: ENDBRANCH   8  10
DOCKED: BRANCH   8  12
DOCKED: ATOM     12  O   UNL d   1     -17.664  -4.855   3.536 -0.26 -0.00    -0.303 OA
DOCKED: ATOM     13  H   UNL d   1     -17.783  -4.070   2.955 -0.47 -0.05    +0.222 HD
DOCKED: ENDBRANCH   8  12
DOCKED: ENDBRANCH   7   8
DOCKED: ENDBRANCH   1   7
DOCKED: BRANCH   2  14
DOCKED: ATOM     14  O   UNL d   1     -18.328  -1.991   7.660 -0.05 -0.05    -0.278 OA
DOCKED: BRANCH  14  15
DOCKED: ATOM     15  P   UNL d   1     -18.315  -3.180   8.732 -0.07 +0.25    +0.473 P 
DOCKED: ATOM     16  O   UNL d   1     -18.812  -4.512   8.265 -0.39 -0.09    -0.228 OA
DOCKED: BRANCH  15  17
DOCKED: ATOM     17  O   UNL d   1     -16.805  -3.228   9.239 -0.03 -0.31    -0.303 OA
DOCKED: ATOM     18  H   UNL d   1     -16.509  -2.350   9.546 +0.11 +0.14    +0.222 HD
DOCKED: ENDBRANCH  15  17
DOCKED: BRANCH  15  19
DOCKED: ATOM     19  O   UNL d   1     -19.059  -2.577  10.003 -0.07 -0.12    -0.303 OA
DOCKED: ATOM     20  H   UNL d   1     -19.124  -1.606   9.955 +0.04 +0.06    +0.222 HD
DOCKED: ENDBRANCH  15  19
DOCKED: ENDBRANCH  14  15
DOCKED: ENDBRANCH   2  14
DOCKED: BRANCH   6  21
DOCKED: ATOM     21  O   UNL d   1     -18.623  -0.710   3.570 -0.08 +0.04    -0.278 OA
DOCKED: BRANCH  21  22
DOCKED: ATOM     22  P   UNL d   1     -19.818  -1.535   2.909 -0.07 -0.03    +0.473 P 
DOCKED: ATOM     23  O   UNL d   1     -19.522  -2.893   2.370 -0.17 +0.03    -0.228 OA
DOCKED: BRANCH  22  24
DOCKED: ATOM     24  O   UNL d   1     -20.914  -1.498   4.062 -0.02 -0.01    -0.303 OA
DOCKED: ATOM     25  H   UNL d   1     -21.512  -0.726   3.895 +0.02 +0.01    +0.222 HD
DOCKED: ENDBRANCH  22  24
DOCKED: BRANCH  22  26
DOCKED: ATOM     26  O   UNL d   1     -20.405  -0.474   1.860 -0.06 -0.02    -0.303 OA
DOCKED: ATOM     27  H   UNL d   1     -20.007   0.404   2.034 +0.05 +0.02    +0.222 HD
DOCKED: ENDBRANCH  22  26
DOCKED: ENDBRANCH  21  22
DOCKED: ENDBRANCH   6  21
DOCKED: BRANCH   3  28
DOCKED: ATOM     28  O   UNL d   1     -16.333  -0.500   8.577 -0.19 -0.04    -0.278 OA
DOCKED: BRANCH  28  29
DOCKED: ATOM     29  P   UNL d   1     -17.489   0.158   9.454 -0.08 +0.06    +0.473 P 
DOCKED: ATOM     30  O   UNL d   1     -18.838   0.167   8.833 -0.03 -0.03    -0.228 OA
DOCKED: BRANCH  29  31
DOCKED: ATOM     31  O   UNL d   1     -17.318  -0.675  10.810 -0.14 -0.07    -0.303 OA
DOCKED: ATOM     32  H   UNL d   1     -17.285  -1.634  10.587 +0.07 +0.09    +0.222 HD
DOCKED: ENDBRANCH  29  31
DOCKED: BRANCH  29  33
DOCKED: ATOM     33  O   UNL d   1     -16.860   1.572   9.829 -0.14 -0.01    -0.303 OA
DOCKED: ATOM     34  H   UNL d   1     -16.561   2.020   9.000 +0.07 +0.01    +0.222 HD
DOCKED: ENDBRANCH  29  33
DOCKED: ENDBRANCH  28  29
DOCKED: ENDBRANCH   3  28
DOCKED: BRANCH   5  35
DOCKED: ATOM     35  O   UNL d   1     -18.819   1.635   5.300 -0.04 -0.02    -0.278 OA
DOCKED: BRANCH  35  36
DOCKED: ATOM     36  P   UNL d   1     -19.365   2.159   3.896 -0.04 +0.05    +0.473 P 
DOCKED: ATOM     37  O   UNL d   1     -19.526   3.641   3.778 -0.03 -0.03    -0.228 OA
DOCKED: BRANCH  36  38
DOCKED: ATOM     38  O   UNL d   1     -18.310   1.532   2.881 -0.16 -0.05    -0.303 OA
DOCKED: ATOM     39  H   UNL d   1     -18.659   0.681   2.540 +0.05 +0.02    +0.222 HD
DOCKED: ENDBRANCH  36  38
DOCKED: BRANCH  36  40
DOCKED: ATOM     40  O   UNL d   1     -20.670   1.272   3.687 -0.02 -0.03    -0.303 OA
DOCKED: ATOM     41  H   UNL d   1     -20.496   0.322   3.866 +0.03 +0.01    +0.222 HD
DOCKED: ENDBRANCH  36  40
DOCKED: ENDBRANCH  35  36
DOCKED: ENDBRANCH   5  35
DOCKED: BRANCH   4  42
DOCKED: ATOM     42  O   UNL d   1     -16.341   1.785   6.826 -0.10 -0.02    -0.278 OA
DOCKED: BRANCH  42  43
DOCKED: ATOM     43  P   UNL d   1     -16.605   3.050   5.891 -0.10 +0.05    +0.473 P 
DOCKED: ATOM     44  O   UNL d   1     -16.573   2.833   4.417 -0.19 -0.03    -0.228 OA
DOCKED: BRANCH  43  45
DOCKED: ATOM     45  O   UNL d   1     -17.993   3.604   6.437 -0.03 -0.03    -0.303 OA
DOCKED: ATOM     46  H   UNL d   1     -18.631   3.749   5.711 +0.03 +0.02    +0.222 HD
DOCKED: ENDBRANCH  43  45
DOCKED: BRANCH  43  47
DOCKED: ATOM     47  O   UNL d   1     -15.574   4.142   6.452 -0.13 -0.05    -0.303 OA
DOCKED: ATOM     48  H   UNL d   1     -15.916   5.038   6.256 +0.08 +0.03    +0.222 HD
DOCKED: ENDBRANCH  43  47
DOCKED: ENDBRANCH  42  43
DOCKED: ENDBRANCH   4  42
DOCKED: TORSDOF 24
DOCKED: TER
DOCKED: ENDMDL
________________________________________________________________________________


	BEGINNING GENETIC ALGORITHM DOCKING 30 of 100
Run: 30 Seed: 1155713551 1486330425 [ Run 30 of 100 GA/GALS ]
Beginning LAMARCKIAN GENETIC ALGORITHM (LGA), with a maximum of 25000000 energy evaluations.

Final-Value: -15.763


	FINAL GENETIC ALGORITHM DOCKED STATE
	_______________________________________________


Detailed state:  trans 4.707 8.393 17.744 quatxyzw -0.165204 0.475043 -0.607410 -0.614894 center 0.035 0.082 -0.065 ntor 24 152.0457 -153.9950 -125.8062 10.9334 138.6209 123.5647 -60.6575 -39.1743 -98.4382 16.2409 30.7903 -73.2483 104.3593 162.8210 42.8349 -179.2675 -1.6680 -49.5942 -14.3808 3.4495 6.6109 -7.5326 180.0000 173.0816
State:	  4.707   8.393  17.744  -0.209  0.602 -0.770 -104.112    152.05 -154.00 -125.81   10.93  138.62  123.56  -60.66  -39.17  -98.44   16.24   30.79  -73.25  104.36  162.82   42.83 -179.27   -1.67  -49.59  -14.38    3.45    6.61   -7.53  180.00  173.08

DOCKED: MODEL       30
DOCKED: USER    Run = 30
DOCKED: USER    DPF = D:/Protein_go_brrr/autodock/final/AncB/IHP/dock.dpf
DOCKED: USER  
DOCKED: USER    Estimated Free Energy of Binding    =   +2.27 kcal/mol  [=(1)+(2)+(3)-(4)]
DOCKED: USER    
DOCKED: USER    (1) Final Intermolecular Energy     =   -4.89 kcal/mol
DOCKED: USER        vdW + Hbond + desolv Energy     =   -4.75 kcal/mol
DOCKED: USER        Electrostatic Energy            =   -0.14 kcal/mol
DOCKED: USER    (2) Final Total Internal Energy     =  -10.87 kcal/mol
DOCKED: USER    (3) Torsional Free Energy           =   +7.16 kcal/mol
DOCKED: USER    (4) Unbound System's Energy  [=(2)] =  -10.87 kcal/mol
DOCKED: USER    
DOCKED: USER    
DOCKED: USER    NEWDPF move IHP_ideal_opt.pdbqt
DOCKED: USER    NEWDPF about 0.035000 0.082000 -0.065000
DOCKED: USER    NEWDPF tran0 4.707364 8.392588 17.743929
DOCKED: USER    NEWDPF quaternion0 -0.165204 0.475043 -0.607410 -0.614894
DOCKED: USER    NEWDPF axisangle0 -0.209488 0.602381 -0.770229 -104.111628
DOCKED: USER    NEWDPF quat0 -0.209488 0.602381 -0.770229 -104.111628
DOCKED: USER    NEWDPF dihe0 152.05 -154.00 -125.81 10.93 138.62 123.56 -60.66 -39.17 -98.44 16.24 30.79 -73.25 104.36 162.82 42.83 -179.27 -1.67 -49.59 -14.38 3.45 6.61 -7.53 180.00 173.08 
DOCKED: USER  keepresnum = 1 
DOCKED: USER  
DOCKED: REMARK  24 active torsions:
DOCKED: REMARK  status: ('A' for Active; 'I' for Inactive)
DOCKED: REMARK    1  A    between atoms: C_1  and  O_7 
DOCKED: REMARK    2  A    between atoms: C_2  and  O_12 
DOCKED: REMARK    3  A    between atoms: C_3  and  O_17 
DOCKED: REMARK    4  A    between atoms: C_4  and  O_22 
DOCKED: REMARK    5  A    between atoms: C_5  and  O_27 
DOCKED: REMARK    6  A    between atoms: C_6  and  O_32 
DOCKED: REMARK    7  A    between atoms: O_7  and  P_8 
DOCKED: REMARK    8  A    between atoms: P_8  and  O_10 
DOCKED: REMARK    9  A    between atoms: P_8  and  O_11 
DOCKED: REMARK   10  A    between atoms: O_12  and  P_13 
DOCKED: REMARK   11  A    between atoms: P_13  and  O_15 
DOCKED: REMARK   12  A    between atoms: P_13  and  O_16 
DOCKED: REMARK   13  A    between atoms: O_17  and  P_18 
DOCKED: REMARK   14  A    between atoms: P_18  and  O_20 
DOCKED: REMARK   15  A    between atoms: P_18  and  O_21 
DOCKED: REMARK   16  A    between atoms: O_22  and  P_23 
DOCKED: REMARK   17  A    between atoms: P_23  and  O_25 
DOCKED: REMARK   18  A    between atoms: P_23  and  O_26 
DOCKED: REMARK   19  A    between atoms: O_27  and  P_28 
DOCKED: REMARK   20  A    between atoms: P_28  and  O_30 
DOCKED: REMARK   21  A    between atoms: P_28  and  O_31 
DOCKED: REMARK   22  A    between atoms: O_32  and  P_33 
DOCKED: REMARK   23  A    between atoms: P_33  and  O_35 
DOCKED: REMARK   24  A    between atoms: P_33  and  O_36 
DOCKED: USER                              x       y       z     vdW  Elec       q    Type
DOCKED: USER                           _______ _______ _______ _____ _____    ______ ____
DOCKED: ROOT
DOCKED: ATOM      1  C   UNL d   1       4.567   6.780  18.347 -0.08 -0.03    +0.194 C 
DOCKED: ATOM      2  C   UNL d   1       4.039   7.879  19.271 -0.08 -0.03    +0.194 C 
DOCKED: ATOM      3  C   UNL d   1       4.985   9.081  19.318 -0.03 -0.02    +0.194 C 
DOCKED: ATOM      4  C   UNL d   1       5.349   9.615  17.935 -0.05 -0.02    +0.194 C 
DOCKED: ATOM      5  C   UNL d   1       5.772   8.537  16.946 -0.04 -0.02    +0.194 C 
DOCKED: ATOM      6  C   UNL d   1       4.861   7.308  16.942 -0.09 -0.03    +0.194 C 
DOCKED: ENDROOT
DOCKED: BRANCH   1   7
DOCKED: ATOM      7  O   UNL d   1       3.555   5.778  18.223 -0.16 +0.07    -0.278 OA
DOCKED: BRANCH   7   8
DOCKED: ATOM      8  P   UNL d   1       3.994   4.243  18.292 -0.17 -0.09    +0.473 P 
DOCKED: ATOM      9  O   UNL d   1       2.923   3.299  18.712 -0.26 +0.03    -0.228 OA
DOCKED: BRANCH   8  10
DOCKED: ATOM     10  O   UNL d   1       4.563   3.938  16.833 +0.01 +0.11    -0.303 OA
DOCKED: ATOM     11  H   UNL d   1       4.418   4.711  16.257 -0.32 -0.10    +0.222 HD
DOCKED: ENDBRANCH   8  10
DOCKED: BRANCH   8  12
DOCKED: ATOM     12  O   UNL d   1       5.315   4.231  19.174 -0.04 +0.03    -0.303 OA
DOCKED: ATOM     13  H   UNL d   1       5.524   3.344  19.544 +0.04 -0.02    +0.222 HD
DOCKED: ENDBRANCH   8  12
DOCKED: ENDBRANCH   7   8
DOCKED: ENDBRANCH   1   7
DOCKED: BRANCH   2  14
DOCKED: ATOM     14  O   UNL d   1       2.763   8.320  18.790 -0.18 +0.07    -0.278 OA
DOCKED: BRANCH  14  15
DOCKED: ATOM     15  P   UNL d   1       1.610   8.504  19.885 -0.25 -0.12    +0.473 P 
DOCKED: ATOM     16  O   UNL d   1       0.229   8.093  19.482 -0.31 +0.08    -0.228 OA
DOCKED: BRANCH  15  17
DOCKED: ATOM     17  O   UNL d   1       2.147   7.701  21.152 -0.11 +0.04    -0.303 OA
DOCKED: ATOM     18  H   UNL d   1       1.974   8.191  21.979 +0.06 -0.03    +0.222 HD
DOCKED: ENDBRANCH  15  17
DOCKED: BRANCH  15  19
DOCKED: ATOM     19  O   UNL d   1       1.763  10.010  20.374 -0.17 +0.05    -0.303 OA
DOCKED: ATOM     20  H   UNL d   1       2.687  10.224  20.598 +0.06 -0.03    +0.222 HD
DOCKED: ENDBRANCH  15  19
DOCKED: ENDBRANCH  14  15
DOCKED: ENDBRANCH   2  14
DOCKED: BRANCH   6  21
DOCKED: ATOM     21  O   UNL d   1       5.560   6.278  16.246 -0.06 +0.04    -0.278 OA
DOCKED: BRANCH  21  22
DOCKED: ATOM     22  P   UNL d   1       5.280   6.040  14.694 -0.10 -0.08    +0.473 P 
DOCKED: ATOM     23  O   UNL d   1       5.812   7.038  13.721 -0.12 +0.01    -0.228 OA
DOCKED: BRANCH  22  24
DOCKED: ATOM     24  O   UNL d   1       5.817   4.556  14.490 -0.13 +0.06    -0.303 OA
DOCKED: ATOM     25  H   UNL d   1       5.177   3.935  14.921 -0.47 -0.12    +0.222 HD
DOCKED: ENDBRANCH  22  24
DOCKED: BRANCH  22  26
DOCKED: ATOM     26  O   UNL d   1       3.691   5.823  14.680 -0.22 +0.11    -0.303 OA
DOCKED: ATOM     27  H   UNL d   1       3.453   5.150  15.351 -0.43 -0.14    +0.222 HD
DOCKED: ENDBRANCH  22  26
DOCKED: ENDBRANCH  21  22
DOCKED: ENDBRANCH   6  21
DOCKED: BRANCH   3  28
DOCKED: ATOM     28  O   UNL d   1       4.294  10.144  19.963 -0.04 +0.02    -0.278 OA
DOCKED: BRANCH  28  29
DOCKED: ATOM     29  P   UNL d   1       4.620  10.514  21.478 -0.01 -0.03    +0.473 P 
DOCKED: ATOM     30  O   UNL d   1       4.324  11.915  21.873 -0.03 +0.01    -0.228 OA
DOCKED: BRANCH  29  31
DOCKED: ATOM     31  O   UNL d   1       3.805   9.360  22.229 -0.01 +0.02    -0.303 OA
DOCKED: ATOM     32  H   UNL d   1       3.252   8.884  21.566 +0.05 -0.02    +0.222 HD
DOCKED: ENDBRANCH  29  31
DOCKED: BRANCH  29  33
DOCKED: ATOM     33  O   UNL d   1       6.130  10.029  21.622 -0.00 +0.01    -0.303 OA
DOCKED: ATOM     34  H   UNL d   1       6.530   9.953  20.721 +0.01 -0.01    +0.222 HD
DOCKED: ENDBRANCH  29  33
DOCKED: ENDBRANCH  28  29
DOCKED: ENDBRANCH   3  28
DOCKED: BRANCH   5  35
DOCKED: ATOM     35  O   UNL d   1       5.673   9.136  15.655 -0.06 +0.03    -0.278 OA
DOCKED: BRANCH  35  36
DOCKED: ATOM     36  P   UNL d   1       4.349   9.918  15.230 -0.17 -0.09    +0.473 P 
DOCKED: ATOM     37  O   UNL d   1       3.763  10.811  16.276 -0.17 +0.04    -0.228 OA
DOCKED: BRANCH  36  38
DOCKED: ATOM     38  O   UNL d   1       4.827  10.676  13.914 -0.20 +0.07    -0.303 OA
DOCKED: ATOM     39  H   UNL d   1       4.148  11.338  13.660 -0.22 -0.09    +0.222 HD
DOCKED: ENDBRANCH  36  38
DOCKED: BRANCH  36  40
DOCKED: ATOM     40  O   UNL d   1       3.424   8.746  14.682 -0.31 +0.07    -0.303 OA
DOCKED: ATOM     41  H   UNL d   1       3.955   7.983  14.360 +0.14 -0.02    +0.222 HD
DOCKED: ENDBRANCH  36  40
DOCKED: ENDBRANCH  35  36
DOCKED: ENDBRANCH   5  35
DOCKED: BRANCH   4  42
DOCKED: ATOM     42  O   UNL d   1       6.469  10.489  18.110 -0.01 +0.01    -0.278 OA
DOCKED: BRANCH  42  43
DOCKED: ATOM     43  P   UNL d   1       7.832   9.891  18.685 +0.00 -0.02    +0.473 P 
DOCKED: ATOM     44  O   UNL d   1       7.835   8.458  19.093 -0.00 +0.01    -0.228 OA
DOCKED: BRANCH  43  45
DOCKED: ATOM     45  O   UNL d   1       8.878  10.243  17.539 -0.00 +0.00    -0.303 OA
DOCKED: ATOM     46  H   UNL d   1       8.504  10.080  16.650 +0.01 -0.00    +0.222 HD
DOCKED: ENDBRANCH  43  45
DOCKED: BRANCH  43  47
DOCKED: ATOM     47  O   UNL d   1       8.238  10.937  19.829 -0.00 +0.01    -0.303 OA
DOCKED: ATOM     48  H   UNL d   1       8.064  10.539  20.707 +0.00 -0.01    +0.222 HD
DOCKED: ENDBRANCH  43  47
DOCKED: ENDBRANCH  42  43
DOCKED: ENDBRANCH   4  42
DOCKED: TORSDOF 24
DOCKED: TER
DOCKED: ENDMDL
________________________________________________________________________________


	BEGINNING GENETIC ALGORITHM DOCKING 31 of 100
Run: 31 Seed: 188901493 371594626 [ Run 31 of 100 GA/GALS ]
Beginning LAMARCKIAN GENETIC ALGORITHM (LGA), with a maximum of 25000000 energy evaluations.

Final-Value: -20.147


	FINAL GENETIC ALGORITHM DOCKED STATE
	_______________________________________________


Detailed state:  trans 0.337 5.756 -17.217 quatxyzw 0.385804 0.162077 0.858279 -0.297058 center 0.035 0.082 -0.065 ntor 24 136.5667 155.5735 155.6669 -16.9726 -49.0398 -100.6654 -91.1534 37.3628 160.7176 -39.6963 25.1257 159.9150 -178.5729 170.8898 -9.2082 146.1238 66.7535 168.1068 -16.8144 15.6889 146.7969 6.0929 -27.3264 -12.3204
State:	  0.337   5.756 -17.217   0.404  0.170  0.899 -145.438    136.57  155.57  155.67  -16.97  -49.04 -100.67  -91.15   37.36  160.72  -39.70   25.13  159.92 -178.57  170.89   -9.21  146.12   66.75  168.11  -16.81   15.69  146.80    6.09  -27.33  -12.32

DOCKED: MODEL       31
DOCKED: USER    Run = 31
DOCKED: USER    DPF = D:/Protein_go_brrr/autodock/final/AncB/IHP/dock.dpf
DOCKED: USER  
DOCKED: USER    Estimated Free Energy of Binding    =   +0.88 kcal/mol  [=(1)+(2)+(3)-(4)]
DOCKED: USER    
DOCKED: USER    (1) Final Intermolecular Energy     =   -6.28 kcal/mol
DOCKED: USER        vdW + Hbond + desolv Energy     =   -5.81 kcal/mol
DOCKED: USER        Electrostatic Energy            =   -0.47 kcal/mol
DOCKED: USER    (2) Final Total Internal Energy     =  -13.86 kcal/mol
DOCKED: USER    (3) Torsional Free Energy           =   +7.16 kcal/mol
DOCKED: USER    (4) Unbound System's Energy  [=(2)] =  -13.86 kcal/mol
DOCKED: USER    
DOCKED: USER    
DOCKED: USER    NEWDPF move IHP_ideal_opt.pdbqt
DOCKED: USER    NEWDPF about 0.035000 0.082000 -0.065000
DOCKED: USER    NEWDPF tran0 0.337016 5.755684 -17.216949
DOCKED: USER    NEWDPF quaternion0 0.385804 0.162077 0.858279 -0.297058
DOCKED: USER    NEWDPF axisangle0 0.404043 0.169739 0.898854 -145.438031
DOCKED: USER    NEWDPF quat0 0.404043 0.169739 0.898854 -145.438031
DOCKED: USER    NEWDPF dihe0 136.57 155.57 155.67 -16.97 -49.04 -100.67 -91.15 37.36 160.72 -39.70 25.13 159.92 -178.57 170.89 -9.21 146.12 66.75 168.11 -16.81 15.69 146.80 6.09 -27.33 -12.32 
DOCKED: USER  keepresnum = 1 
DOCKED: USER  
DOCKED: REMARK  24 active torsions:
DOCKED: REMARK  status: ('A' for Active; 'I' for Inactive)
DOCKED: REMARK    1  A    between atoms: C_1  and  O_7 
DOCKED: REMARK    2  A    between atoms: C_2  and  O_12 
DOCKED: REMARK    3  A    between atoms: C_3  and  O_17 
DOCKED: REMARK    4  A    between atoms: C_4  and  O_22 
DOCKED: REMARK    5  A    between atoms: C_5  and  O_27 
DOCKED: REMARK    6  A    between atoms: C_6  and  O_32 
DOCKED: REMARK    7  A    between atoms: O_7  and  P_8 
DOCKED: REMARK    8  A    between atoms: P_8  and  O_10 
DOCKED: REMARK    9  A    between atoms: P_8  and  O_11 
DOCKED: REMARK   10  A    between atoms: O_12  and  P_13 
DOCKED: REMARK   11  A    between atoms: P_13  and  O_15 
DOCKED: REMARK   12  A    between atoms: P_13  and  O_16 
DOCKED: REMARK   13  A    between atoms: O_17  and  P_18 
DOCKED: REMARK   14  A    between atoms: P_18  and  O_20 
DOCKED: REMARK   15  A    between atoms: P_18  and  O_21 
DOCKED: REMARK   16  A    between atoms: O_22  and  P_23 
DOCKED: REMARK   17  A    between atoms: P_23  and  O_25 
DOCKED: REMARK   18  A    between atoms: P_23  and  O_26 
DOCKED: REMARK   19  A    between atoms: O_27  and  P_28 
DOCKED: REMARK   20  A    between atoms: P_28  and  O_30 
DOCKED: REMARK   21  A    between atoms: P_28  and  O_31 
DOCKED: REMARK   22  A    between atoms: O_32  and  P_33 
DOCKED: REMARK   23  A    between atoms: P_33  and  O_35 
DOCKED: REMARK   24  A    between atoms: P_33  and  O_36 
DOCKED: USER                              x       y       z     vdW  Elec       q    Type
DOCKED: USER                           _______ _______ _______ _____ _____    ______ ____
DOCKED: ROOT
DOCKED: ATOM      1  C   UNL d   1       0.620   7.275 -16.444 -0.15 +0.14    +0.194 C 
DOCKED: ATOM      2  C   UNL d   1       1.306   7.084 -17.798 -0.12 +0.15    +0.194 C 
DOCKED: ATOM      3  C   UNL d   1       1.924   5.691 -17.929 -0.14 +0.14    +0.194 C 
DOCKED: ATOM      4  C   UNL d   1       0.942   4.565 -17.616 -0.05 +0.12    +0.194 C 
DOCKED: ATOM      5  C   UNL d   1       0.151   4.771 -16.330 -0.09 +0.17    +0.194 C 
DOCKED: ATOM      6  C   UNL d   1      -0.415   6.183 -16.171 -0.10 +0.18    +0.194 C 
DOCKED: ENDROOT
DOCKED: BRANCH   1   7
DOCKED: ATOM      7  O   UNL d   1      -0.075   8.524 -16.468 -0.09 -0.18    -0.278 OA
DOCKED: BRANCH   7   8
DOCKED: ATOM      8  P   UNL d   1      -0.029   9.443 -15.162 -0.13 +0.27    +0.473 P 
DOCKED: ATOM      9  O   UNL d   1      -1.357   9.873 -14.647 -0.08 -0.12    -0.228 OA
DOCKED: BRANCH   8  10
DOCKED: ATOM     10  O   UNL d   1       0.803   8.579 -14.110 -0.30 -0.19    -0.303 OA
DOCKED: ATOM     11  H   UNL d   1       0.777   7.638 -14.367 +0.12 +0.15    +0.222 HD
DOCKED: ENDBRANCH   8  10
DOCKED: BRANCH   8  12
DOCKED: ATOM     12  O   UNL d   1       0.990  10.610 -15.514 -0.21 -0.16    -0.303 OA
DOCKED: ATOM     13  H   UNL d   1       0.553  11.485 -15.619 +0.07 +0.09    +0.222 HD
DOCKED: ENDBRANCH   8  12
DOCKED: ENDBRANCH   7   8
DOCKED: ENDBRANCH   1   7
DOCKED: BRANCH   2  14
DOCKED: ATOM     14  O   UNL d   1       0.337   7.253 -18.841 -0.03 -0.17    -0.278 OA
DOCKED: BRANCH  14  15
DOCKED: ATOM     15  P   UNL d   1       0.864   7.887 -20.213 -0.02 +0.28    +0.473 P 
DOCKED: ATOM     16  O   UNL d   1       0.034   8.979 -20.812 -0.01 -0.10    -0.228 OA
DOCKED: BRANCH  15  17
DOCKED: ATOM     17  O   UNL d   1       2.350   8.354 -19.878 -0.07 -0.34    -0.303 OA
DOCKED: ATOM     18  H   UNL d   1       2.902   7.599 -19.598 +0.04 +0.33    +0.222 HD
DOCKED: ENDBRANCH  15  17
DOCKED: BRANCH  15  19
DOCKED: ATOM     19  O   UNL d   1       1.129   6.632 -21.154 -0.01 -0.15    -0.303 OA
DOCKED: ATOM     20  H   UNL d   1       1.956   6.172 -20.918 +0.02 +0.13    +0.222 HD
DOCKED: ENDBRANCH  15  19
DOCKED: ENDBRANCH  14  15
DOCKED: ENDBRANCH   2  14
DOCKED: BRANCH   6  21
DOCKED: ATOM     21  O   UNL d   1      -0.813   6.316 -14.808 -0.46 -0.38    -0.278 OA
DOCKED: BRANCH  21  22
DOCKED: ATOM     22  P   UNL d   1       0.148   5.793 -13.648 -0.33 +0.48    +0.473 P 
DOCKED: ATOM     23  O   UNL d   1       1.598   5.622 -13.957 -0.24 -0.15    -0.228 OA
DOCKED: BRANCH  22  24
DOCKED: ATOM     24  O   UNL d   1      -0.167   6.822 -12.475 -0.34 -0.22    -0.303 OA
DOCKED: ATOM     25  H   UNL d   1       0.655   7.346 -12.295 -0.28 +0.09    +0.222 HD
DOCKED: ENDBRANCH  22  24
DOCKED: BRANCH  22  26
DOCKED: ATOM     26  O   UNL d   1      -0.624   4.479 -13.152 -1.02 -0.49    -0.303 OA
DOCKED: ATOM     27  H   UNL d   1      -0.369   3.723 -13.718 +0.08 +0.31    +0.222 HD
DOCKED: ENDBRANCH  22  26
DOCKED: ENDBRANCH  21  22
DOCKED: ENDBRANCH   6  21
DOCKED: BRANCH   3  28
DOCKED: ATOM     28  O   UNL d   1       2.285   5.508 -19.292 -0.07 -0.20    -0.278 OA
DOCKED: BRANCH  28  29
DOCKED: ATOM     29  P   UNL d   1       3.812   5.311 -19.701 -0.14 +0.43    +0.473 P 
DOCKED: ATOM     30  O   UNL d   1       4.131   4.034 -20.389 -0.10 -0.13    -0.228 OA
DOCKED: BRANCH  29  31
DOCKED: ATOM     31  O   UNL d   1       4.057   6.661 -20.524 -0.21 -0.43    -0.303 OA
DOCKED: ATOM     32  H   UNL d   1       3.255   6.850 -21.063 +0.03 +0.21    +0.222 HD
DOCKED: ENDBRANCH  29  31
DOCKED: BRANCH  29  33
DOCKED: ATOM     33  O   UNL d   1       4.565   5.595 -18.327 -0.59 -0.38    -0.303 OA
DOCKED: ATOM     34  H   UNL d   1       4.751   4.734 -17.879 -0.47 +0.10    +0.222 HD
DOCKED: ENDBRANCH  29  33
DOCKED: ENDBRANCH  28  29
DOCKED: ENDBRANCH   3  28
DOCKED: BRANCH   5  35
DOCKED: ATOM     35  O   UNL d   1      -0.959   3.879 -16.412 -0.05 -0.31    -0.278 OA
DOCKED: BRANCH  35  36
DOCKED: ATOM     36  P   UNL d   1      -0.963   2.520 -15.577 -0.04 +0.54    +0.473 P 
DOCKED: ATOM     37  O   UNL d   1      -1.950   2.454 -14.455 -0.22 -0.42    -0.228 OA
DOCKED: BRANCH  36  38
DOCKED: ATOM     38  O   UNL d   1      -1.199   1.437 -16.720 -0.00 -0.26    -0.303 OA
DOCKED: ATOM     39  H   UNL d   1      -0.329   1.136 -17.062 +0.03 +0.15    +0.222 HD
DOCKED: ENDBRANCH  36  38
DOCKED: BRANCH  36  40
DOCKED: ATOM     40  O   UNL d   1       0.572   2.349 -15.199 -0.08 -0.23    -0.303 OA
DOCKED: ATOM     41  H   UNL d   1       1.089   1.960 -15.939 +0.06 +0.14    +0.222 HD
DOCKED: ENDBRANCH  36  40
DOCKED: ENDBRANCH  35  36
DOCKED: ENDBRANCH   5  35
DOCKED: BRANCH   4  42
DOCKED: ATOM     42  O   UNL d   1       1.717   3.373 -17.448 -0.05 -0.15    -0.278 OA
DOCKED: BRANCH  42  43
DOCKED: ATOM     43  P   UNL d   1       1.389   2.105 -18.358 +0.01 +0.23    +0.473 P 
DOCKED: ATOM     44  O   UNL d   1       1.573   0.757 -17.750 -0.01 -0.11    -0.228 OA
DOCKED: BRANCH  43  45
DOCKED: ATOM     45  O   UNL d   1      -0.096   2.400 -18.847 +0.01 -0.16    -0.303 OA
DOCKED: ATOM     46  H   UNL d   1      -0.672   2.664 -18.102 +0.02 +0.14    +0.222 HD
DOCKED: ENDBRANCH  43  45
DOCKED: BRANCH  43  47
DOCKED: ATOM     47  O   UNL d   1       2.233   2.383 -19.692 -0.02 -0.13    -0.303 OA
DOCKED: ATOM     48  H   UNL d   1       2.431   3.341 -19.754 +0.03 +0.10    +0.222 HD
DOCKED: ENDBRANCH  43  47
DOCKED: ENDBRANCH  42  43
DOCKED: ENDBRANCH   4  42
DOCKED: TORSDOF 24
DOCKED: TER
DOCKED: ENDMDL
________________________________________________________________________________


	BEGINNING GENETIC ALGORITHM DOCKING 32 of 100
Run: 32 Seed: 313323926 1367332446 [ Run 32 of 100 GA/GALS ]
Beginning LAMARCKIAN GENETIC ALGORITHM (LGA), with a maximum of 25000000 energy evaluations.

Final-Value: -18.462


	FINAL GENETIC ALGORITHM DOCKED STATE
	_______________________________________________


Detailed state:  trans 7.499 -6.771 -17.041 quatxyzw -0.161462 0.419386 -0.529076 0.719808 center 0.035 0.082 -0.065 ntor 24 96.4248 82.7163 112.8645 -1.9175 15.2103 -170.0804 -13.5723 -119.9206 76.5821 87.9420 96.6217 117.9733 137.8519 166.0897 164.1909 74.0406 128.1056 37.0454 38.9076 3.5104 -19.8016 -7.4152 -8.1824 -16.7822
State:	  7.499  -6.771 -17.041  -0.233  0.604 -0.762 87.923     96.42   82.72  112.86   -1.92   15.21 -170.08  -13.57 -119.92   76.58   87.94   96.62  117.97  137.85  166.09  164.19   74.04  128.11   37.05   38.91    3.51  -19.80   -7.42   -8.18  -16.78

DOCKED: MODEL       32
DOCKED: USER    Run = 32
DOCKED: USER    DPF = D:/Protein_go_brrr/autodock/final/AncB/IHP/dock.dpf
DOCKED: USER  
DOCKED: USER    Estimated Free Energy of Binding    =   +2.60 kcal/mol  [=(1)+(2)+(3)-(4)]
DOCKED: USER    
DOCKED: USER    (1) Final Intermolecular Energy     =   -4.56 kcal/mol
DOCKED: USER        vdW + Hbond + desolv Energy     =   -4.43 kcal/mol
DOCKED: USER        Electrostatic Energy            =   -0.12 kcal/mol
DOCKED: USER    (2) Final Total Internal Energy     =  -13.91 kcal/mol
DOCKED: USER    (3) Torsional Free Energy           =   +7.16 kcal/mol
DOCKED: USER    (4) Unbound System's Energy  [=(2)] =  -13.91 kcal/mol
DOCKED: USER    
DOCKED: USER    
DOCKED: USER    NEWDPF move IHP_ideal_opt.pdbqt
DOCKED: USER    NEWDPF about 0.035000 0.082000 -0.065000
DOCKED: USER    NEWDPF tran0 7.499237 -6.770617 -17.040894
DOCKED: USER    NEWDPF quaternion0 -0.161462 0.419386 -0.529076 0.719808
DOCKED: USER    NEWDPF axisangle0 -0.232596 0.604152 -0.762168 87.922755
DOCKED: USER    NEWDPF quat0 -0.232596 0.604152 -0.762168 87.922755
DOCKED: USER    NEWDPF dihe0 96.42 82.72 112.86 -1.92 15.21 -170.08 -13.57 -119.92 76.58 87.94 96.62 117.97 137.85 166.09 164.19 74.04 128.11 37.05 38.91 3.51 -19.80 -7.42 -8.18 -16.78 
DOCKED: USER  keepresnum = 1 
DOCKED: USER  
DOCKED: REMARK  24 active torsions:
DOCKED: REMARK  status: ('A' for Active; 'I' for Inactive)
DOCKED: REMARK    1  A    between atoms: C_1  and  O_7 
DOCKED: REMARK    2  A    between atoms: C_2  and  O_12 
DOCKED: REMARK    3  A    between atoms: C_3  and  O_17 
DOCKED: REMARK    4  A    between atoms: C_4  and  O_22 
DOCKED: REMARK    5  A    between atoms: C_5  and  O_27 
DOCKED: REMARK    6  A    between atoms: C_6  and  O_32 
DOCKED: REMARK    7  A    between atoms: O_7  and  P_8 
DOCKED: REMARK    8  A    between atoms: P_8  and  O_10 
DOCKED: REMARK    9  A    between atoms: P_8  and  O_11 
DOCKED: REMARK   10  A    between atoms: O_12  and  P_13 
DOCKED: REMARK   11  A    between atoms: P_13  and  O_15 
DOCKED: REMARK   12  A    between atoms: P_13  and  O_16 
DOCKED: REMARK   13  A    between atoms: O_17  and  P_18 
DOCKED: REMARK   14  A    between atoms: P_18  and  O_20 
DOCKED: REMARK   15  A    between atoms: P_18  and  O_21 
DOCKED: REMARK   16  A    between atoms: O_22  and  P_23 
DOCKED: REMARK   17  A    between atoms: P_23  and  O_25 
DOCKED: REMARK   18  A    between atoms: P_23  and  O_26 
DOCKED: REMARK   19  A    between atoms: O_27  and  P_28 
DOCKED: REMARK   20  A    between atoms: P_28  and  O_30 
DOCKED: REMARK   21  A    between atoms: P_28  and  O_31 
DOCKED: REMARK   22  A    between atoms: O_32  and  P_33 
DOCKED: REMARK   23  A    between atoms: P_33  and  O_35 
DOCKED: REMARK   24  A    between atoms: P_33  and  O_36 
DOCKED: USER                              x       y       z     vdW  Elec       q    Type
DOCKED: USER                           _______ _______ _______ _____ _____    ______ ____
DOCKED: ROOT
DOCKED: ATOM      1  C   UNL d   1       8.064  -6.865 -15.411 -0.25 +0.01    +0.194 C 
DOCKED: ATOM      2  C   UNL d   1       8.835  -7.709 -16.428 -0.13 +0.02    +0.194 C 
DOCKED: ATOM      3  C   UNL d   1       7.894  -8.428 -17.397 -0.03 +0.01    +0.194 C 
DOCKED: ATOM      4  C   UNL d   1       6.890  -7.493 -18.066 -0.13 +0.01    +0.194 C 
DOCKED: ATOM      5  C   UNL d   1       6.180  -6.552 -17.101 -0.22 -0.00    +0.194 C 
DOCKED: ATOM      6  C   UNL d   1       7.114  -5.880 -16.092 -0.22 +0.01    +0.194 C 
DOCKED: ENDROOT
DOCKED: BRANCH   1   7
DOCKED: ATOM      7  O   UNL d   1       9.009  -6.098 -14.661 -0.18 -0.03    -0.278 OA
DOCKED: BRANCH   7   8
DOCKED: ATOM      8  P   UNL d   1       9.726  -6.787 -13.412 -0.23 +0.11    +0.473 P 
DOCKED: ATOM      9  O   UNL d   1      10.522  -5.868 -12.554 -0.35 -0.11    -0.228 OA
DOCKED: BRANCH   8  10
DOCKED: ATOM     10  O   UNL d   1       8.534  -7.503 -12.628 -0.27 +0.01    -0.303 OA
DOCKED: ATOM     11  H   UNL d   1       7.890  -6.833 -12.332 -0.43 -0.05    +0.222 HD
DOCKED: ENDBRANCH   8  10
DOCKED: BRANCH   8  12
DOCKED: ATOM     12  O   UNL d   1      10.515  -8.026 -14.020 -0.11 -0.07    -0.303 OA
DOCKED: ATOM     13  H   UNL d   1      10.910  -7.836 -14.900 +0.07 +0.05    +0.222 HD
DOCKED: ENDBRANCH   8  12
DOCKED: ENDBRANCH   7   8
DOCKED: ENDBRANCH   1   7
DOCKED: BRANCH   2  14
DOCKED: ATOM     14  O   UNL d   1       9.702  -6.854 -17.183 -0.02 -0.04    -0.278 OA
DOCKED: BRANCH  14  15
DOCKED: ATOM     15  P   UNL d   1      11.199  -7.373 -17.411 +0.01 +0.07    +0.473 P 
DOCKED: ATOM     16  O   UNL d   1      12.290  -6.358 -17.277 -0.01 -0.04    -0.228 OA
DOCKED: BRANCH  15  17
DOCKED: ATOM     17  O   UNL d   1      11.351  -8.582 -16.384 -0.01 -0.05    -0.303 OA
DOCKED: ATOM     18  H   UNL d   1      10.478  -8.893 -16.076 +0.05 +0.03    +0.222 HD
DOCKED: ENDBRANCH  15  17
DOCKED: BRANCH  15  19
DOCKED: ATOM     19  O   UNL d   1      11.145  -8.142 -18.803 -0.00 -0.04    -0.303 OA
DOCKED: ATOM     20  H   UNL d   1      10.537  -8.903 -18.771 +0.01 +0.02    +0.222 HD
DOCKED: ENDBRANCH  15  19
DOCKED: ENDBRANCH  14  15
DOCKED: ENDBRANCH   2  14
DOCKED: BRANCH   6  21
DOCKED: ATOM     21  O   UNL d   1       6.287  -5.324 -15.072 -0.27 -0.00    -0.278 OA
DOCKED: BRANCH  21  22
DOCKED: ATOM     22  P   UNL d   1       6.357  -3.761 -14.760 -0.25 +0.05    +0.473 P 
DOCKED: ATOM     23  O   UNL d   1       5.739  -3.266 -13.496 -0.42 -0.03    -0.228 OA
DOCKED: BRANCH  22  24
DOCKED: ATOM     24  O   UNL d   1       7.915  -3.470 -14.900 -0.25 -0.04    -0.303 OA
DOCKED: ATOM     25  H   UNL d   1       8.403  -4.132 -14.347 +0.12 +0.03    +0.222 HD
DOCKED: ENDBRANCH  22  24
DOCKED: BRANCH  22  26
DOCKED: ATOM     26  O   UNL d   1       5.780  -3.132 -16.118 -0.11 -0.05    -0.303 OA
DOCKED: ATOM     27  H   UNL d   1       5.324  -3.832 -16.628 +0.08 +0.03    +0.222 HD
DOCKED: ENDBRANCH  22  26
DOCKED: ENDBRANCH  21  22
DOCKED: ENDBRANCH   6  21
DOCKED: BRANCH   3  28
DOCKED: ATOM     28  O   UNL d   1       8.686  -8.951 -18.455 -0.05 -0.03    -0.278 OA
DOCKED: BRANCH  28  29
DOCKED: ATOM     29  P   UNL d   1       9.041 -10.503 -18.505 -0.05 +0.04    +0.473 P 
DOCKED: ATOM     30  O   UNL d   1       7.897 -11.428 -18.301 -0.12 -0.01    -0.228 OA
DOCKED: BRANCH  29  31
DOCKED: ATOM     31  O   UNL d   1       9.790 -10.573 -19.917 -0.01 -0.03    -0.303 OA
DOCKED: ATOM     32  H   UNL d   1      10.334  -9.759 -20.025 +0.01 +0.02    +0.222 HD
DOCKED: ENDBRANCH  29  31
DOCKED: BRANCH  29  33
DOCKED: ATOM     33  O   UNL d   1      10.243 -10.603 -17.464 -0.04 -0.03    -0.303 OA
DOCKED: ATOM     34  H   UNL d   1      10.988 -10.035 -17.778 +0.02 +0.02    +0.222 HD
DOCKED: ENDBRANCH  29  33
DOCKED: ENDBRANCH  28  29
DOCKED: ENDBRANCH   3  28
DOCKED: BRANCH   5  35
DOCKED: ATOM     35  O   UNL d   1       5.622  -5.518 -17.909 -0.09 -0.02    -0.278 OA
DOCKED: BRANCH  35  36
DOCKED: ATOM     36  P   UNL d   1       4.053  -5.230 -17.877 -0.10 +0.04    +0.473 P 
DOCKED: ATOM     37  O   UNL d   1       3.604  -4.016 -18.627 -0.06 -0.05    -0.228 OA
DOCKED: BRANCH  36  38
DOCKED: ATOM     38  O   UNL d   1       3.459  -6.599 -18.433 -0.05 +0.02    -0.303 OA
DOCKED: ATOM     39  H   UNL d   1       4.189  -7.248 -18.534 -0.26 -0.03    +0.222 HD
DOCKED: ENDBRANCH  36  38
DOCKED: BRANCH  36  40
DOCKED: ATOM     40  O   UNL d   1       3.731  -5.278 -16.320 +0.01 -0.02    -0.303 OA
DOCKED: ATOM     41  H   UNL d   1       4.383  -4.761 -15.797 +0.07 +0.03    +0.222 HD
DOCKED: ENDBRANCH  36  40
DOCKED: ENDBRANCH  35  36
DOCKED: ENDBRANCH   5  35
DOCKED: BRANCH   4  42
DOCKED: ATOM     42  O   UNL d   1       5.886  -8.320 -18.662 -0.14 -0.01    -0.278 OA
DOCKED: BRANCH  42  43
DOCKED: ATOM     43  P   UNL d   1       5.523  -8.106 -20.201 -0.03 +0.04    +0.473 P 
DOCKED: ATOM     44  O   UNL d   1       6.398  -8.763 -21.211 -0.01 -0.02    -0.228 OA
DOCKED: BRANCH  43  45
DOCKED: ATOM     45  O   UNL d   1       3.999  -8.559 -20.267 -0.06 -0.03    -0.303 OA
DOCKED: ATOM     46  H   UNL d   1       3.566  -8.488 -19.392 +0.03 +0.01    +0.222 HD
DOCKED: ENDBRANCH  43  45
DOCKED: BRANCH  43  47
DOCKED: ATOM     47  O   UNL d   1       5.395  -6.513 -20.328 -0.02 -0.04    -0.303 OA
DOCKED: ATOM     48  H   UNL d   1       4.657  -6.203 -19.764 +0.04 +0.03    +0.222 HD
DOCKED: ENDBRANCH  43  47
DOCKED: ENDBRANCH  42  43
DOCKED: ENDBRANCH   4  42
DOCKED: TORSDOF 24
DOCKED: TER
DOCKED: ENDMDL
________________________________________________________________________________


	BEGINNING GENETIC ALGORITHM DOCKING 33 of 100
Run: 33 Seed: 885475353 560258537 [ Run 33 of 100 GA/GALS ]
Beginning LAMARCKIAN GENETIC ALGORITHM (LGA), with a maximum of 25000000 energy evaluations.

Final-Value: -19.693


	FINAL GENETIC ALGORITHM DOCKED STATE
	_______________________________________________


Detailed state:  trans -5.876 16.205 7.747 quatxyzw -0.747982 -0.078551 -0.369752 -0.545561 center 0.035 0.082 -0.065 ntor 24 137.1350 -61.5038 149.9503 -22.0332 35.8220 -125.8353 -140.4745 -92.9028 84.8610 82.0137 65.1585 -180.0000 -80.9291 166.6332 -53.1791 44.0757 110.1179 139.1469 -144.7190 17.4682 -170.4912 9.1327 -4.6826 -10.1860
State:	 -5.876  16.205   7.747  -0.893 -0.094 -0.441 -113.874    137.13  -61.50  149.95  -22.03   35.82 -125.84 -140.47  -92.90   84.86   82.01   65.16 -180.00  -80.93  166.63  -53.18   44.08  110.12  139.15 -144.72   17.47 -170.49    9.13   -4.68  -10.19

DOCKED: MODEL       33
DOCKED: USER    Run = 33
DOCKED: USER    DPF = D:/Protein_go_brrr/autodock/final/AncB/IHP/dock.dpf
DOCKED: USER  
DOCKED: USER    Estimated Free Energy of Binding    =   +1.59 kcal/mol  [=(1)+(2)+(3)-(4)]
DOCKED: USER    
DOCKED: USER    (1) Final Intermolecular Energy     =   -5.57 kcal/mol
DOCKED: USER        vdW + Hbond + desolv Energy     =   -5.51 kcal/mol
DOCKED: USER        Electrostatic Energy            =   -0.06 kcal/mol
DOCKED: USER    (2) Final Total Internal Energy     =  -14.13 kcal/mol
DOCKED: USER    (3) Torsional Free Energy           =   +7.16 kcal/mol
DOCKED: USER    (4) Unbound System's Energy  [=(2)] =  -14.13 kcal/mol
DOCKED: USER    
DOCKED: USER    
DOCKED: USER    NEWDPF move IHP_ideal_opt.pdbqt
DOCKED: USER    NEWDPF about 0.035000 0.082000 -0.065000
DOCKED: USER    NEWDPF tran0 -5.875545 16.204898 7.746538
DOCKED: USER    NEWDPF quaternion0 -0.747982 -0.078551 -0.369752 -0.545561
DOCKED: USER    NEWDPF axisangle0 -0.892504 -0.093728 -0.441194 -113.873968
DOCKED: USER    NEWDPF quat0 -0.892504 -0.093728 -0.441194 -113.873968
DOCKED: USER    NEWDPF dihe0 137.13 -61.50 149.95 -22.03 35.82 -125.84 -140.47 -92.90 84.86 82.01 65.16 -180.00 -80.93 166.63 -53.18 44.08 110.12 139.15 -144.72 17.47 -170.49 9.13 -4.68 -10.19 
DOCKED: USER  keepresnum = 1 
DOCKED: USER  
DOCKED: REMARK  24 active torsions:
DOCKED: REMARK  status: ('A' for Active; 'I' for Inactive)
DOCKED: REMARK    1  A    between atoms: C_1  and  O_7 
DOCKED: REMARK    2  A    between atoms: C_2  and  O_12 
DOCKED: REMARK    3  A    between atoms: C_3  and  O_17 
DOCKED: REMARK    4  A    between atoms: C_4  and  O_22 
DOCKED: REMARK    5  A    between atoms: C_5  and  O_27 
DOCKED: REMARK    6  A    between atoms: C_6  and  O_32 
DOCKED: REMARK    7  A    between atoms: O_7  and  P_8 
DOCKED: REMARK    8  A    between atoms: P_8  and  O_10 
DOCKED: REMARK    9  A    between atoms: P_8  and  O_11 
DOCKED: REMARK   10  A    between atoms: O_12  and  P_13 
DOCKED: REMARK   11  A    between atoms: P_13  and  O_15 
DOCKED: REMARK   12  A    between atoms: P_13  and  O_16 
DOCKED: REMARK   13  A    between atoms: O_17  and  P_18 
DOCKED: REMARK   14  A    between atoms: P_18  and  O_20 
DOCKED: REMARK   15  A    between atoms: P_18  and  O_21 
DOCKED: REMARK   16  A    between atoms: O_22  and  P_23 
DOCKED: REMARK   17  A    between atoms: P_23  and  O_25 
DOCKED: REMARK   18  A    between atoms: P_23  and  O_26 
DOCKED: REMARK   19  A    between atoms: O_27  and  P_28 
DOCKED: REMARK   20  A    between atoms: P_28  and  O_30 
DOCKED: REMARK   21  A    between atoms: P_28  and  O_31 
DOCKED: REMARK   22  A    between atoms: O_32  and  P_33 
DOCKED: REMARK   23  A    between atoms: P_33  and  O_35 
DOCKED: REMARK   24  A    between atoms: P_33  and  O_36 
DOCKED: USER                              x       y       z     vdW  Elec       q    Type
DOCKED: USER                           _______ _______ _______ _____ _____    ______ ____
DOCKED: ROOT
DOCKED: ATOM      1  C   UNL d   1      -5.073  16.887   9.116 -0.07 -0.03    +0.194 C 
DOCKED: ATOM      2  C   UNL d   1      -6.556  17.236   8.977 -0.06 -0.02    +0.194 C 
DOCKED: ATOM      3  C   UNL d   1      -6.924  17.578   7.531 -0.05 -0.03    +0.194 C 
DOCKED: ATOM      4  C   UNL d   1      -6.487  16.510   6.531 -0.12 -0.06    +0.194 C 
DOCKED: ATOM      5  C   UNL d   1      -5.046  16.048   6.708 -0.15 -0.06    +0.194 C 
DOCKED: ATOM      6  C   UNL d   1      -4.660  15.766   8.162 -0.19 -0.04    +0.194 C 
DOCKED: ENDROOT
DOCKED: BRANCH   1   7
DOCKED: ATOM      7  O   UNL d   1      -4.849  16.416  10.448 -0.07 +0.04    -0.278 OA
DOCKED: BRANCH   7   8
DOCKED: ATOM      8  P   UNL d   1      -4.936  14.845  10.722 -0.09 -0.05    +0.473 P 
DOCKED: ATOM      9  O   UNL d   1      -5.858  14.097   9.825 -0.01 -0.00    -0.228 OA
DOCKED: BRANCH   8  10
DOCKED: ATOM     10  O   UNL d   1      -3.422  14.351  10.621 -0.31 +0.09    -0.303 OA
DOCKED: ATOM     11  H   UNL d   1      -2.899  15.001  10.115 -0.13 -0.10    +0.222 HD
DOCKED: ENDBRANCH   8  10
DOCKED: BRANCH   8  12
DOCKED: ATOM     12  O   UNL d   1      -5.224  14.714  12.279 -0.20 +0.05    -0.303 OA
DOCKED: ATOM     13  H   UNL d   1      -4.444  14.403  12.791 +0.09 -0.09    +0.222 HD
DOCKED: ENDBRANCH   8  12
DOCKED: ENDBRANCH   7   8
DOCKED: ENDBRANCH   1   7
DOCKED: BRANCH   2  14
DOCKED: ATOM     14  O   UNL d   1      -7.342  16.113   9.395 -0.12 +0.00    -0.278 OA
DOCKED: BRANCH  14  15
DOCKED: ATOM     15  P   UNL d   1      -8.766  16.441  10.052 -0.09 +0.05    +0.473 P 
DOCKED: ATOM     16  O   UNL d   1      -9.149  15.643  11.259 -0.15 -0.09    -0.228 OA
DOCKED: BRANCH  15  17
DOCKED: ATOM     17  O   UNL d   1      -8.709  18.007  10.340 -0.01 -0.01    -0.303 OA
DOCKED: ATOM     18  H   UNL d   1      -8.481  18.505   9.531 +0.02 -0.00    +0.222 HD
DOCKED: ENDBRANCH  15  17
DOCKED: BRANCH  15  19
DOCKED: ATOM     19  O   UNL d   1      -9.788  16.377   8.835 -0.10 -0.01    -0.303 OA
DOCKED: ATOM     20  H   UNL d   1      -9.792  17.207   8.324 +0.04 -0.00    +0.222 HD
DOCKED: ENDBRANCH  15  19
DOCKED: ENDBRANCH  14  15
DOCKED: ENDBRANCH   2  14
DOCKED: BRANCH   6  21
DOCKED: ATOM     21  O   UNL d   1      -3.237  15.686   8.202 -0.25 +0.07    -0.278 OA
DOCKED: BRANCH  21  22
DOCKED: ATOM     22  P   UNL d   1      -2.375  17.013   8.402 -0.10 -0.13    +0.473 P 
DOCKED: ATOM     23  O   UNL d   1      -2.993  18.318   8.028 -0.02 +0.05    -0.228 OA
DOCKED: BRANCH  22  24
DOCKED: ATOM     24  O   UNL d   1      -1.942  16.893   9.929 -0.10 +0.12    -0.303 OA
DOCKED: ATOM     25  H   UNL d   1      -2.652  16.400  10.413 -0.06 -0.09    +0.222 HD
DOCKED: ENDBRANCH  22  24
DOCKED: BRANCH  22  26
DOCKED: ATOM     26  O   UNL d   1      -1.015  16.636   7.641 -0.28 +0.11    -0.303 OA
DOCKED: ATOM     27  H   UNL d   1      -1.214  16.443   6.703 +0.07 -0.08    +0.222 HD
DOCKED: ENDBRANCH  22  26
DOCKED: ENDBRANCH  21  22
DOCKED: ENDBRANCH   6  21
DOCKED: BRANCH   3  28
DOCKED: ATOM     28  O   UNL d   1      -8.343  17.613   7.448 -0.03 +0.03    -0.278 OA
DOCKED: BRANCH  28  29
DOCKED: ATOM     29  P   UNL d   1      -9.090  18.950   7.008 -0.00 -0.03    +0.473 P 
DOCKED: ATOM     30  O   UNL d   1      -8.246  19.956   6.314 -0.00 +0.02    -0.228 OA
DOCKED: BRANCH  29  31
DOCKED: ATOM     31  O   UNL d   1     -10.310  18.328   6.180 -0.01 +0.02    -0.303 OA
DOCKED: ATOM     32  H   UNL d   1     -10.029  18.220   5.242 +0.02 -0.02    +0.222 HD
DOCKED: ENDBRANCH  29  31
DOCKED: BRANCH  29  33
DOCKED: ATOM     33  O   UNL d   1      -9.784  19.407   8.367 -0.00 +0.01    -0.303 OA
DOCKED: ATOM     34  H   UNL d   1     -10.047  18.604   8.879 +0.02 -0.00    +0.222 HD
DOCKED: ENDBRANCH  29  33
DOCKED: ENDBRANCH  28  29
DOCKED: ENDBRANCH   3  28
DOCKED: BRANCH   5  35
DOCKED: ATOM     35  O   UNL d   1      -4.946  14.814   6.000 -0.25 +0.11    -0.278 OA
DOCKED: BRANCH  35  36
DOCKED: ATOM     36  P   UNL d   1      -3.821  14.614   4.887 -0.26 -0.20    +0.473 P 
DOCKED: ATOM     37  O   UNL d   1      -3.404  13.199   4.638 -1.06 +0.06    -0.228 OA
DOCKED: BRANCH  36  38
DOCKED: ATOM     38  O   UNL d   1      -4.476  15.335   3.628 -0.30 +0.19    -0.303 OA
DOCKED: ATOM     39  H   UNL d   1      -5.231  15.884   3.929 +0.09 -0.12    +0.222 HD
DOCKED: ENDBRANCH  36  38
DOCKED: BRANCH  36  40
DOCKED: ATOM     40  O   UNL d   1      -2.689  15.626   5.362 -0.42 +0.15    -0.303 OA
DOCKED: ATOM     41  H   UNL d   1      -2.578  15.617   6.338 +0.10 -0.03    +0.222 HD
DOCKED: ENDBRANCH  36  40
DOCKED: ENDBRANCH  35  36
DOCKED: ENDBRANCH   5  35
DOCKED: BRANCH   4  42
DOCKED: ATOM     42  O   UNL d   1      -6.584  17.098   5.229 -0.07 +0.09    -0.278 OA
DOCKED: BRANCH  42  43
DOCKED: ATOM     43  P   UNL d   1      -7.531  16.414   4.144 -0.13 -0.17    +0.473 P 
DOCKED: ATOM     44  O   UNL d   1      -7.523  16.985   2.768 -0.11 +0.09    -0.228 OA
DOCKED: BRANCH  43  45
DOCKED: ATOM     45  O   UNL d   1      -7.098  14.884   4.216 -0.11 +0.16    -0.303 OA
DOCKED: ATOM     46  H   UNL d   1      -6.310  14.762   4.782 -0.40 -0.13    +0.222 HD
DOCKED: ENDBRANCH  43  45
DOCKED: BRANCH  43  47
DOCKED: ATOM     47  O   UNL d   1      -8.959  16.383   4.871 -0.09 +0.07    -0.303 OA
DOCKED: ATOM     48  H   UNL d   1      -8.872  16.764   5.769 +0.04 -0.04    +0.222 HD
DOCKED: ENDBRANCH  43  47
DOCKED: ENDBRANCH  42  43
DOCKED: ENDBRANCH   4  42
DOCKED: TORSDOF 24
DOCKED: TER
DOCKED: ENDMDL
________________________________________________________________________________


	BEGINNING GENETIC ALGORITHM DOCKING 34 of 100
Run: 34 Seed: 60210952 39566881 [ Run 34 of 100 GA/GALS ]
Beginning LAMARCKIAN GENETIC ALGORITHM (LGA), with a maximum of 25000000 energy evaluations.

Final-Value: -17.909


	FINAL GENETIC ALGORITHM DOCKED STATE
	_______________________________________________


Detailed state:  trans -15.211 -6.620 -5.887 quatxyzw 0.408914 0.447620 0.789010 0.099446 center 0.035 0.082 -0.065 ntor 24 88.5387 177.2843 36.7058 -169.9457 120.1302 -175.1342 -30.8920 -134.7522 76.0352 125.7643 98.1259 151.2212 -37.7647 -113.0206 -178.7654 -42.7329 56.7501 -123.8477 47.6545 -2.3931 11.1650 3.4922 178.0524 1.4544
State:	-15.211  -6.620  -5.887   0.411  0.450  0.793 168.585     88.54  177.28   36.71 -169.95  120.13 -175.13  -30.89 -134.75   76.04  125.76   98.13  151.22  -37.76 -113.02 -178.77  -42.73   56.75 -123.85   47.65   -2.39   11.16    3.49  178.05    1.45

DOCKED: MODEL       34
DOCKED: USER    Run = 34
DOCKED: USER    DPF = D:/Protein_go_brrr/autodock/final/AncB/IHP/dock.dpf
DOCKED: USER  
DOCKED: USER    Estimated Free Energy of Binding    =   +1.81 kcal/mol  [=(1)+(2)+(3)-(4)]
DOCKED: USER    
DOCKED: USER    (1) Final Intermolecular Energy     =   -5.35 kcal/mol
DOCKED: USER        vdW + Hbond + desolv Energy     =   -5.26 kcal/mol
DOCKED: USER        Electrostatic Energy            =   -0.09 kcal/mol
DOCKED: USER    (2) Final Total Internal Energy     =  -12.56 kcal/mol
DOCKED: USER    (3) Torsional Free Energy           =   +7.16 kcal/mol
DOCKED: USER    (4) Unbound System's Energy  [=(2)] =  -12.56 kcal/mol
DOCKED: USER    
DOCKED: USER    
DOCKED: USER    NEWDPF move IHP_ideal_opt.pdbqt
DOCKED: USER    NEWDPF about 0.035000 0.082000 -0.065000
DOCKED: USER    NEWDPF tran0 -15.211488 -6.620163 -5.887160
DOCKED: USER    NEWDPF quaternion0 0.408914 0.447620 0.789010 0.099446
DOCKED: USER    NEWDPF axisangle0 0.410951 0.449850 0.792941 168.585433
DOCKED: USER    NEWDPF quat0 0.410951 0.449850 0.792941 168.585433
DOCKED: USER    NEWDPF dihe0 88.54 177.28 36.71 -169.95 120.13 -175.13 -30.89 -134.75 76.04 125.76 98.13 151.22 -37.76 -113.02 -178.77 -42.73 56.75 -123.85 47.65 -2.39 11.16 3.49 178.05 1.45 
DOCKED: USER  keepresnum = 1 
DOCKED: USER  
DOCKED: REMARK  24 active torsions:
DOCKED: REMARK  status: ('A' for Active; 'I' for Inactive)
DOCKED: REMARK    1  A    between atoms: C_1  and  O_7 
DOCKED: REMARK    2  A    between atoms: C_2  and  O_12 
DOCKED: REMARK    3  A    between atoms: C_3  and  O_17 
DOCKED: REMARK    4  A    between atoms: C_4  and  O_22 
DOCKED: REMARK    5  A    between atoms: C_5  and  O_27 
DOCKED: REMARK    6  A    between atoms: C_6  and  O_32 
DOCKED: REMARK    7  A    between atoms: O_7  and  P_8 
DOCKED: REMARK    8  A    between atoms: P_8  and  O_10 
DOCKED: REMARK    9  A    between atoms: P_8  and  O_11 
DOCKED: REMARK   10  A    between atoms: O_12  and  P_13 
DOCKED: REMARK   11  A    between atoms: P_13  and  O_15 
DOCKED: REMARK   12  A    between atoms: P_13  and  O_16 
DOCKED: REMARK   13  A    between atoms: O_17  and  P_18 
DOCKED: REMARK   14  A    between atoms: P_18  and  O_20 
DOCKED: REMARK   15  A    between atoms: P_18  and  O_21 
DOCKED: REMARK   16  A    between atoms: O_22  and  P_23 
DOCKED: REMARK   17  A    between atoms: P_23  and  O_25 
DOCKED: REMARK   18  A    between atoms: P_23  and  O_26 
DOCKED: REMARK   19  A    between atoms: O_27  and  P_28 
DOCKED: REMARK   20  A    between atoms: P_28  and  O_30 
DOCKED: REMARK   21  A    between atoms: P_28  and  O_31 
DOCKED: REMARK   22  A    between atoms: O_32  and  P_33 
DOCKED: REMARK   23  A    between atoms: P_33  and  O_35 
DOCKED: REMARK   24  A    between atoms: P_33  and  O_36 
DOCKED: USER                              x       y       z     vdW  Elec       q    Type
DOCKED: USER                           _______ _______ _______ _____ _____    ______ ____
DOCKED: ROOT
DOCKED: ATOM      1  C   UNL d   1     -16.045  -5.220  -5.313 -0.10 +0.01    +0.194 C 
DOCKED: ATOM      2  C   UNL d   1     -15.865  -5.306  -6.829 -0.02 +0.03    +0.194 C 
DOCKED: ATOM      3  C   UNL d   1     -14.457  -5.772  -7.207 -0.06 +0.04    +0.194 C 
DOCKED: ATOM      4  C   UNL d   1     -14.041  -7.061  -6.503 -0.17 +0.04    +0.194 C 
DOCKED: ATOM      5  C   UNL d   1     -14.309  -7.063  -5.003 -0.20 +0.03    +0.194 C 
DOCKED: ATOM      6  C   UNL d   1     -15.695  -6.539  -4.621 -0.17 +0.02    +0.194 C 
DOCKED: ENDROOT
DOCKED: BRANCH   1   7
DOCKED: ATOM      7  O   UNL d   1     -17.422  -4.950  -5.042 -0.06 -0.01    -0.278 OA
DOCKED: BRANCH   7   8
DOCKED: ATOM      8  P   UNL d   1     -17.971  -3.472  -5.303 -0.04 -0.01    +0.473 P 
DOCKED: ATOM      9  O   UNL d   1     -17.073  -2.598  -6.106 -0.06 +0.03    -0.228 OA
DOCKED: BRANCH   8  10
DOCKED: ATOM     10  O   UNL d   1     -19.396  -3.703  -5.982 -0.01 -0.02    -0.303 OA
DOCKED: ATOM     11  H   UNL d   1     -19.275  -4.071  -6.877 +0.01 +0.02    +0.222 HD
DOCKED: ENDBRANCH   8  10
DOCKED: BRANCH   8  12
DOCKED: ATOM     12  O   UNL d   1     -18.373  -2.921  -3.868 -0.08 +0.01    -0.303 OA
DOCKED: ATOM     13  H   UNL d   1     -18.024  -2.019  -3.690 +0.05 -0.04    +0.222 HD
DOCKED: ENDBRANCH   8  12
DOCKED: ENDBRANCH   7   8
DOCKED: ENDBRANCH   1   7
DOCKED: BRANCH   2  14
DOCKED: ATOM     14  O   UNL d   1     -16.813  -6.241  -7.360 -0.00 -0.06    -0.278 OA
DOCKED: BRANCH  14  15
DOCKED: ATOM     15  P   UNL d   1     -17.702  -5.736  -8.593 +0.01 +0.12    +0.473 P 
DOCKED: ATOM     16  O   UNL d   1     -18.524  -4.505  -8.369 +0.00 -0.04    -0.228 OA
DOCKED: BRANCH  15  17
DOCKED: ATOM     17  O   UNL d   1     -16.657  -5.573  -9.783 -0.00 -0.12    -0.303 OA
DOCKED: ATOM     18  H   UNL d   1     -15.955  -4.936  -9.550 +0.01 +0.08    +0.222 HD
DOCKED: ENDBRANCH  15  17
DOCKED: BRANCH  15  19
DOCKED: ATOM     19  O   UNL d   1     -18.511  -7.026  -9.052 +0.00 -0.08    -0.303 OA
DOCKED: ATOM     20  H   UNL d   1     -19.464  -6.841  -9.144 +0.00 +0.05    +0.222 HD
DOCKED: ENDBRANCH  15  19
DOCKED: ENDBRANCH  14  15
DOCKED: ENDBRANCH   2  14
DOCKED: BRANCH   6  21
DOCKED: ATOM     21  O   UNL d   1     -15.667  -6.281  -3.219 -0.27 -0.00    -0.278 OA
DOCKED: BRANCH  21  22
DOCKED: ATOM     22  P   UNL d   1     -16.101  -7.425  -2.195 -0.21 +0.07    +0.473 P 
DOCKED: ATOM     23  O   UNL d   1     -16.740  -7.016  -0.911 -0.50 -0.07    -0.228 OA
DOCKED: BRANCH  22  24
DOCKED: ATOM     24  O   UNL d   1     -16.996  -8.365  -3.117 -0.12 -0.06    -0.303 OA
DOCKED: ATOM     25  H   UNL d   1     -16.462  -8.613  -3.914 +0.07 +0.04    +0.222 HD
DOCKED: ENDBRANCH  22  24
DOCKED: BRANCH  22  26
DOCKED: ATOM     26  O   UNL d   1     -14.749  -8.278  -2.068 -0.38 +0.01    -0.303 OA
DOCKED: ATOM     27  H   UNL d   1     -14.016  -7.784  -2.490 -0.44 -0.06    +0.222 HD
DOCKED: ENDBRANCH  22  26
DOCKED: ENDBRANCH  21  22
DOCKED: ENDBRANCH   6  21
DOCKED: BRANCH   3  28
DOCKED: ATOM     28  O   UNL d   1     -14.468  -6.087  -8.594 -0.03 -0.12    -0.278 OA
DOCKED: BRANCH  28  29
DOCKED: ATOM     29  P   UNL d   1     -13.612  -5.222  -9.621 -0.03 +0.24    +0.473 P 
DOCKED: ATOM     30  O   UNL d   1     -14.083  -3.829  -9.835 -0.01 -0.08    -0.228 OA
DOCKED: BRANCH  29  31
DOCKED: ATOM     31  O   UNL d   1     -12.152  -5.407  -8.993 -0.08 -0.13    -0.303 OA
DOCKED: ATOM     32  H   UNL d   1     -12.154  -6.211  -8.424 +0.08 +0.09    +0.222 HD
DOCKED: ENDBRANCH  29  31
DOCKED: BRANCH  29  33
DOCKED: ATOM     33  O   UNL d   1     -13.568  -6.170 -10.900 -0.52 -0.38    -0.303 OA
DOCKED: ATOM     34  H   UNL d   1     -12.925  -6.903 -10.734 +0.03 +0.35    +0.222 HD
DOCKED: ENDBRANCH  29  33
DOCKED: ENDBRANCH  28  29
DOCKED: ENDBRANCH   3  28
DOCKED: BRANCH   5  35
DOCKED: ATOM     35  O   UNL d   1     -14.253  -8.430  -4.602 -0.22 -0.04    -0.278 OA
DOCKED: BRANCH  35  36
DOCKED: ATOM     36  P   UNL d   1     -15.108  -9.532  -5.376 -0.11 +0.10    +0.473 P 
DOCKED: ATOM     37  O   UNL d   1     -14.348 -10.364  -6.360 -0.17 -0.06    -0.228 OA
DOCKED: BRANCH  36  38
DOCKED: ATOM     38  O   UNL d   1     -15.740 -10.360  -4.171 -0.13 -0.08    -0.303 OA
DOCKED: ATOM     39  H   UNL d   1     -15.515  -9.917  -3.324 +0.07 +0.06    +0.222 HD
DOCKED: ENDBRANCH  36  38
DOCKED: BRANCH  36  40
DOCKED: ATOM     40  O   UNL d   1     -16.328  -8.682  -5.938 -0.03 -0.07    -0.303 OA
DOCKED: ATOM     41  H   UNL d   1     -16.104  -8.240  -6.787 +0.05 +0.06    +0.222 HD
DOCKED: ENDBRANCH  36  40
DOCKED: ENDBRANCH  35  36
DOCKED: ENDBRANCH   5  35
DOCKED: BRANCH   4  42
DOCKED: ATOM     42  O   UNL d   1     -12.626  -7.190  -6.677 -0.23 -0.03    -0.278 OA
DOCKED: BRANCH  42  43
DOCKED: ATOM     43  P   UNL d   1     -12.069  -8.334  -7.640 -0.28 +0.16    +0.473 P 
DOCKED: ATOM     44  O   UNL d   1     -12.035  -9.724  -7.107 -0.25 -0.04    -0.228 OA
DOCKED: BRANCH  43  45
DOCKED: ATOM     45  O   UNL d   1     -12.963  -8.158  -8.944 -0.15 -0.24    -0.303 OA
DOCKED: ATOM     46  H   UNL d   1     -13.305  -7.245  -9.023 +0.06 +0.16    +0.222 HD
DOCKED: ENDBRANCH  43  45
DOCKED: BRANCH  43  47
DOCKED: ATOM     47  O   UNL d   1     -10.660  -7.746  -8.129 -0.62 -0.14    -0.303 OA
DOCKED: ATOM     48  H   UNL d   1     -10.706  -6.768  -8.145 +0.05 +0.07    +0.222 HD
DOCKED: ENDBRANCH  43  47
DOCKED: ENDBRANCH  42  43
DOCKED: ENDBRANCH   4  42
DOCKED: TORSDOF 24
DOCKED: TER
DOCKED: ENDMDL
________________________________________________________________________________


	BEGINNING GENETIC ALGORITHM DOCKING 35 of 100
Run: 35 Seed: 2125772944 1924672537 [ Run 35 of 100 GA/GALS ]
Beginning LAMARCKIAN GENETIC ALGORITHM (LGA), with a maximum of 25000000 energy evaluations.

Final-Value: -19.099


	FINAL GENETIC ALGORITHM DOCKED STATE
	_______________________________________________


Detailed state:  trans -3.595 16.587 9.363 quatxyzw -0.438006 -0.324673 0.301889 0.782050 center 0.035 0.082 -0.065 ntor 24 -102.0181 -58.9785 16.9099 87.5038 49.1533 124.7434 16.7411 -116.4504 108.7872 -1.4897 162.5755 -65.2232 174.7372 -71.7481 161.0594 -103.6063 26.5444 41.4100 77.3320 22.1670 -7.4896 25.2920 179.3796 -173.7269
State:	 -3.595  16.587   9.363  -0.703 -0.521  0.484 77.103   -102.02  -58.98   16.91   87.50   49.15  124.74   16.74 -116.45  108.79   -1.49  162.58  -65.22  174.74  -71.75  161.06 -103.61   26.54   41.41   77.33   22.17   -7.49   25.29  179.38 -173.73

DOCKED: MODEL       35
DOCKED: USER    Run = 35
DOCKED: USER    DPF = D:/Protein_go_brrr/autodock/final/AncB/IHP/dock.dpf
DOCKED: USER  
DOCKED: USER    Estimated Free Energy of Binding    =   -0.17 kcal/mol  [=(1)+(2)+(3)-(4)]
DOCKED: USER    Estimated Inhibition Constant, Ki   =  755.34 mM (millimolar)  [Temperature = 298.15 K]
DOCKED: USER    
DOCKED: USER    (1) Final Intermolecular Energy     =   -7.33 kcal/mol
DOCKED: USER        vdW + Hbond + desolv Energy     =   -7.03 kcal/mol
DOCKED: USER        Electrostatic Energy            =   -0.30 kcal/mol
DOCKED: USER    (2) Final Total Internal Energy     =  -11.77 kcal/mol
DOCKED: USER    (3) Torsional Free Energy           =   +7.16 kcal/mol
DOCKED: USER    (4) Unbound System's Energy  [=(2)] =  -11.77 kcal/mol
DOCKED: USER    
DOCKED: USER    
DOCKED: USER    NEWDPF move IHP_ideal_opt.pdbqt
DOCKED: USER    NEWDPF about 0.035000 0.082000 -0.065000
DOCKED: USER    NEWDPF tran0 -3.595450 16.586797 9.362979
DOCKED: USER    NEWDPF quaternion0 -0.438006 -0.324673 0.301889 0.782050
DOCKED: USER    NEWDPF axisangle0 -0.702815 -0.520964 0.484404 77.102723
DOCKED: USER    NEWDPF quat0 -0.702815 -0.520964 0.484404 77.102723
DOCKED: USER    NEWDPF dihe0 -102.02 -58.98 16.91 87.50 49.15 124.74 16.74 -116.45 108.79 -1.49 162.58 -65.22 174.74 -71.75 161.06 -103.61 26.54 41.41 77.33 22.17 -7.49 25.29 179.38 -173.73 
DOCKED: USER  keepresnum = 1 
DOCKED: USER  
DOCKED: REMARK  24 active torsions:
DOCKED: REMARK  status: ('A' for Active; 'I' for Inactive)
DOCKED: REMARK    1  A    between atoms: C_1  and  O_7 
DOCKED: REMARK    2  A    between atoms: C_2  and  O_12 
DOCKED: REMARK    3  A    between atoms: C_3  and  O_17 
DOCKED: REMARK    4  A    between atoms: C_4  and  O_22 
DOCKED: REMARK    5  A    between atoms: C_5  and  O_27 
DOCKED: REMARK    6  A    between atoms: C_6  and  O_32 
DOCKED: REMARK    7  A    between atoms: O_7  and  P_8 
DOCKED: REMARK    8  A    between atoms: P_8  and  O_10 
DOCKED: REMARK    9  A    between atoms: P_8  and  O_11 
DOCKED: REMARK   10  A    between atoms: O_12  and  P_13 
DOCKED: REMARK   11  A    between atoms: P_13  and  O_15 
DOCKED: REMARK   12  A    between atoms: P_13  and  O_16 
DOCKED: REMARK   13  A    between atoms: O_17  and  P_18 
DOCKED: REMARK   14  A    between atoms: P_18  and  O_20 
DOCKED: REMARK   15  A    between atoms: P_18  and  O_21 
DOCKED: REMARK   16  A    between atoms: O_22  and  P_23 
DOCKED: REMARK   17  A    between atoms: P_23  and  O_25 
DOCKED: REMARK   18  A    between atoms: P_23  and  O_26 
DOCKED: REMARK   19  A    between atoms: O_27  and  P_28 
DOCKED: REMARK   20  A    between atoms: P_28  and  O_30 
DOCKED: REMARK   21  A    between atoms: P_28  and  O_31 
DOCKED: REMARK   22  A    between atoms: O_32  and  P_33 
DOCKED: REMARK   23  A    between atoms: P_33  and  O_35 
DOCKED: REMARK   24  A    between atoms: P_33  and  O_36 
DOCKED: USER                              x       y       z     vdW  Elec       q    Type
DOCKED: USER                           _______ _______ _______ _____ _____    ______ ____
DOCKED: ROOT
DOCKED: ATOM      1  C   UNL d   1      -3.314  15.269   8.282 -0.29 -0.04    +0.194 C 
DOCKED: ATOM      2  C   UNL d   1      -4.770  15.480   8.703 -0.22 -0.04    +0.194 C 
DOCKED: ATOM      3  C   UNL d   1      -4.890  15.777  10.199 -0.18 -0.03    +0.194 C 
DOCKED: ATOM      4  C   UNL d   1      -3.985  16.916  10.660 -0.09 -0.04    +0.194 C 
DOCKED: ATOM      5  C   UNL d   1      -2.548  16.807  10.166 -0.09 -0.07    +0.194 C 
DOCKED: ATOM      6  C   UNL d   1      -2.428  16.449   8.684 -0.18 -0.06    +0.194 C 
DOCKED: ENDROOT
DOCKED: BRANCH   1   7
DOCKED: ATOM      7  O   UNL d   1      -3.272  15.171   6.856 -0.69 +0.06    -0.278 OA
DOCKED: BRANCH   7   8
DOCKED: ATOM      8  P   UNL d   1      -4.356  14.252   6.126 -0.26 -0.15    +0.473 P 
DOCKED: ATOM      9  O   UNL d   1      -3.811  13.340   5.084 -0.94 +0.05    -0.228 OA
DOCKED: BRANCH   8  10
DOCKED: ATOM     10  O   UNL d   1      -5.077  13.480   7.322 -0.32 +0.09    -0.303 OA
DOCKED: ATOM     11  H   UNL d   1      -5.927  13.912   7.525 -0.16 -0.11    +0.222 HD
DOCKED: ENDBRANCH   8  10
DOCKED: BRANCH   8  12
DOCKED: ATOM     12  O   UNL d   1      -5.491  15.254   5.646 -0.19 +0.14    -0.303 OA
DOCKED: ATOM     13  H   UNL d   1      -6.300  15.218   6.205 -0.44 -0.14    +0.222 HD
DOCKED: ENDBRANCH   8  12
DOCKED: ENDBRANCH   7   8
DOCKED: ENDBRANCH   1   7
DOCKED: BRANCH   2  14
DOCKED: ATOM     14  O   UNL d   1      -5.312  16.588   7.973 -0.06 +0.06    -0.278 OA
DOCKED: BRANCH  14  15
DOCKED: ATOM     15  P   UNL d   1      -6.897  16.591   7.750 -0.08 -0.08    +0.473 P 
DOCKED: ATOM     16  O   UNL d   1      -7.611  15.295   7.977 -0.16 +0.05    -0.228 OA
DOCKED: BRANCH  15  17
DOCKED: ATOM     17  O   UNL d   1      -7.420  17.759   8.699 -0.02 +0.02    -0.303 OA
DOCKED: ATOM     18  H   UNL d   1      -7.465  17.463   9.628 +0.04 -0.01    +0.222 HD
DOCKED: ENDBRANCH  15  17
DOCKED: BRANCH  15  19
DOCKED: ATOM     19  O   UNL d   1      -7.094  17.238   6.310 -0.05 +0.07    -0.303 OA
DOCKED: ATOM     20  H   UNL d   1      -6.320  17.083   5.736 +0.05 -0.07    +0.222 HD
DOCKED: ENDBRANCH  15  19
DOCKED: ENDBRANCH  14  15
DOCKED: ENDBRANCH   2  14
DOCKED: BRANCH   6  21
DOCKED: ATOM     21  O   UNL d   1      -1.077  16.051   8.463 -0.24 +0.11    -0.278 OA
DOCKED: BRANCH  21  22
DOCKED: ATOM     22  P   UNL d   1      -0.104  16.989   7.615 -0.13 -0.19    +0.473 P 
DOCKED: ATOM     23  O   UNL d   1       1.214  16.434   7.188 -0.25 +0.12    -0.228 OA
DOCKED: BRANCH  22  24
DOCKED: ATOM     24  O   UNL d   1      -1.052  17.448   6.422 -0.14 +0.15    -0.303 OA
DOCKED: ATOM     25  H   UNL d   1      -1.829  16.833   6.392 +0.06 -0.09    +0.222 HD
DOCKED: ENDBRANCH  22  24
DOCKED: BRANCH  22  26
DOCKED: ATOM     26  O   UNL d   1      -0.051  18.309   8.523 -0.04 +0.09    -0.303 OA
DOCKED: ATOM     27  H   UNL d   1      -0.963  18.575   8.757 +0.04 -0.06    +0.222 HD
DOCKED: ENDBRANCH  22  26
DOCKED: ENDBRANCH  21  22
DOCKED: ENDBRANCH   6  21
DOCKED: BRANCH   3  28
DOCKED: ATOM     28  O   UNL d   1      -6.216  16.226  10.442 -0.08 +0.01    -0.278 OA
DOCKED: BRANCH  28  29
DOCKED: ATOM     29  P   UNL d   1      -7.034  15.682  11.695 -0.12 +0.08    +0.473 P 
DOCKED: ATOM     30  O   UNL d   1      -8.398  15.172  11.398 -0.15 -0.12    -0.228 OA
DOCKED: BRANCH  29  31
DOCKED: ATOM     31  O   UNL d   1      -5.978  14.632  12.282 -0.21 -0.01    -0.303 OA
DOCKED: ATOM     32  H   UNL d   1      -5.207  15.129  12.640 +0.08 -0.06    +0.222 HD
DOCKED: ENDBRANCH  29  31
DOCKED: BRANCH  29  33
DOCKED: ATOM     33  O   UNL d   1      -6.927  16.897  12.718 -0.03 +0.01    -0.303 OA
DOCKED: ATOM     34  H   UNL d   1      -5.973  17.093  12.885 +0.04 -0.04    +0.222 HD
DOCKED: ENDBRANCH  29  33
DOCKED: ENDBRANCH  28  29
DOCKED: ENDBRANCH   3  28
DOCKED: BRANCH   5  35
DOCKED: ATOM     35  O   UNL d   1      -1.982  18.105  10.332 -0.05 +0.07    -0.278 OA
DOCKED: BRANCH  35  36
DOCKED: ATOM     36  P   UNL d   1      -2.745  19.392   9.779 +0.00 -0.08    +0.473 P 
DOCKED: ATOM     37  O   UNL d   1      -3.984  19.776  10.524 -0.00 +0.03    -0.228 OA
DOCKED: BRANCH  36  38
DOCKED: ATOM     38  O   UNL d   1      -1.594  20.492   9.812 -0.00 +0.04    -0.303 OA
DOCKED: ATOM     39  H   UNL d   1      -0.747  20.080   9.536 +0.01 -0.04    +0.222 HD
DOCKED: ENDBRANCH  36  38
DOCKED: BRANCH  36  40
DOCKED: ATOM     40  O   UNL d   1      -2.907  19.053   8.234 -0.00 +0.06    -0.303 OA
DOCKED: ATOM     41  H   UNL d   1      -2.084  18.669   7.857 +0.03 -0.06    +0.222 HD
DOCKED: ENDBRANCH  36  40
DOCKED: ENDBRANCH  35  36
DOCKED: ENDBRANCH   5  35
DOCKED: BRANCH   4  42
DOCKED: ATOM     42  O   UNL d   1      -3.944  16.860  12.090 -0.06 +0.07    -0.278 OA
DOCKED: BRANCH  42  43
DOCKED: ATOM     43  P   UNL d   1      -3.072  15.725  12.793 -0.18 -0.21    +0.473 P 
DOCKED: ATOM     44  O   UNL d   1      -1.632  16.017  13.038 -0.25 +0.10    -0.228 OA
DOCKED: BRANCH  43  45
DOCKED: ATOM     45  O   UNL d   1      -3.906  15.410  14.112 -0.17 +0.28    -0.303 OA
DOCKED: ATOM     46  H   UNL d   1      -4.568  14.707  13.957 -0.26 -0.26    +0.222 HD
DOCKED: ENDBRANCH  43  45
DOCKED: BRANCH  43  47
DOCKED: ATOM     47  O   UNL d   1      -3.372  14.427  11.901 -0.28 +0.10    -0.303 OA
DOCKED: ATOM     48  H   UNL d   1      -2.552  14.157  11.438 -0.32 -0.11    +0.222 HD
DOCKED: ENDBRANCH  43  47
DOCKED: ENDBRANCH  42  43
DOCKED: ENDBRANCH   4  42
DOCKED: TORSDOF 24
DOCKED: TER
DOCKED: ENDMDL
________________________________________________________________________________


	BEGINNING GENETIC ALGORITHM DOCKING 36 of 100
Run: 36 Seed: 813242727 1139835278 [ Run 36 of 100 GA/GALS ]
Beginning LAMARCKIAN GENETIC ALGORITHM (LGA), with a maximum of 25000000 energy evaluations.

Final-Value: -17.785


	FINAL GENETIC ALGORITHM DOCKED STATE
	_______________________________________________


Detailed state:  trans 8.524 -15.441 -11.615 quatxyzw -0.705602 0.568337 -0.064458 0.418288 center 0.035 0.082 -0.065 ntor 24 100.0590 79.8181 141.4775 -24.7884 6.6476 -140.3707 -133.7354 -38.8249 147.5669 -69.3995 177.0297 148.6780 143.4015 172.6357 -62.2387 179.9100 -152.8648 -180.0000 55.1186 14.8632 -175.9748 7.6377 2.2159 179.9332
State:	  8.524 -15.441 -11.615  -0.777  0.626 -0.071 130.547    100.06   79.82  141.48  -24.79    6.65 -140.37 -133.74  -38.82  147.57  -69.40  177.03  148.68  143.40  172.64  -62.24  179.91 -152.86 -180.00   55.12   14.86 -175.97    7.64    2.22  179.93

DOCKED: MODEL       36
DOCKED: USER    Run = 36
DOCKED: USER    DPF = D:/Protein_go_brrr/autodock/final/AncB/IHP/dock.dpf
DOCKED: USER  
DOCKED: USER    Estimated Free Energy of Binding    =   +2.37 kcal/mol  [=(1)+(2)+(3)-(4)]
DOCKED: USER    
DOCKED: USER    (1) Final Intermolecular Energy     =   -4.79 kcal/mol
DOCKED: USER        vdW + Hbond + desolv Energy     =   -4.00 kcal/mol
DOCKED: USER        Electrostatic Energy            =   -0.79 kcal/mol
DOCKED: USER    (2) Final Total Internal Energy     =  -13.00 kcal/mol
DOCKED: USER    (3) Torsional Free Energy           =   +7.16 kcal/mol
DOCKED: USER    (4) Unbound System's Energy  [=(2)] =  -13.00 kcal/mol
DOCKED: USER    
DOCKED: USER    
DOCKED: USER    NEWDPF move IHP_ideal_opt.pdbqt
DOCKED: USER    NEWDPF about 0.035000 0.082000 -0.065000
DOCKED: USER    NEWDPF tran0 8.523750 -15.440714 -11.614845
DOCKED: USER    NEWDPF quaternion0 -0.705602 0.568337 -0.064458 0.418288
DOCKED: USER    NEWDPF axisangle0 -0.776825 0.625705 -0.070965 130.546951
DOCKED: USER    NEWDPF quat0 -0.776825 0.625705 -0.070965 130.546951
DOCKED: USER    NEWDPF dihe0 100.06 79.82 141.48 -24.79 6.65 -140.37 -133.74 -38.82 147.57 -69.40 177.03 148.68 143.40 172.64 -62.24 179.91 -152.86 -180.00 55.12 14.86 -175.97 7.64 2.22 179.93 
DOCKED: USER  keepresnum = 1 
DOCKED: USER  
DOCKED: REMARK  24 active torsions:
DOCKED: REMARK  status: ('A' for Active; 'I' for Inactive)
DOCKED: REMARK    1  A    between atoms: C_1  and  O_7 
DOCKED: REMARK    2  A    between atoms: C_2  and  O_12 
DOCKED: REMARK    3  A    between atoms: C_3  and  O_17 
DOCKED: REMARK    4  A    between atoms: C_4  and  O_22 
DOCKED: REMARK    5  A    between atoms: C_5  and  O_27 
DOCKED: REMARK    6  A    between atoms: C_6  and  O_32 
DOCKED: REMARK    7  A    between atoms: O_7  and  P_8 
DOCKED: REMARK    8  A    between atoms: P_8  and  O_10 
DOCKED: REMARK    9  A    between atoms: P_8  and  O_11 
DOCKED: REMARK   10  A    between atoms: O_12  and  P_13 
DOCKED: REMARK   11  A    between atoms: P_13  and  O_15 
DOCKED: REMARK   12  A    between atoms: P_13  and  O_16 
DOCKED: REMARK   13  A    between atoms: O_17  and  P_18 
DOCKED: REMARK   14  A    between atoms: P_18  and  O_20 
DOCKED: REMARK   15  A    between atoms: P_18  and  O_21 
DOCKED: REMARK   16  A    between atoms: O_22  and  P_23 
DOCKED: REMARK   17  A    between atoms: P_23  and  O_25 
DOCKED: REMARK   18  A    between atoms: P_23  and  O_26 
DOCKED: REMARK   19  A    between atoms: O_27  and  P_28 
DOCKED: REMARK   20  A    between atoms: P_28  and  O_30 
DOCKED: REMARK   21  A    between atoms: P_28  and  O_31 
DOCKED: REMARK   22  A    between atoms: O_32  and  P_33 
DOCKED: REMARK   23  A    between atoms: P_33  and  O_35 
DOCKED: REMARK   24  A    between atoms: P_33  and  O_36 
DOCKED: USER                              x       y       z     vdW  Elec       q    Type
DOCKED: USER                           _______ _______ _______ _____ _____    ______ ____
DOCKED: ROOT
DOCKED: ATOM      1  C   UNL d   1       9.413 -16.899 -11.872 -0.00 -0.02    +0.194 C 
DOCKED: ATOM      2  C   UNL d   1       9.812 -15.718 -12.758 -0.01 -0.01    +0.194 C 
DOCKED: ATOM      3  C   UNL d   1       8.587 -14.970 -13.290 -0.06 -0.01    +0.194 C 
DOCKED: ATOM      4  C   UNL d   1       7.607 -14.564 -12.192 -0.12 -0.02    +0.194 C 
DOCKED: ATOM      5  C   UNL d   1       7.269 -15.683 -11.216 -0.08 -0.05    +0.194 C 
DOCKED: ATOM      6  C   UNL d   1       8.489 -16.471 -10.731 -0.03 -0.05    +0.194 C 
DOCKED: ENDROOT
DOCKED: BRANCH   1   7
DOCKED: ATOM      7  O   UNL d   1      10.600 -17.434 -11.281 +0.00 +0.03    -0.278 OA
DOCKED: BRANCH   7   8
DOCKED: ATOM      8  P   UNL d   1      11.666 -18.149 -12.232 +0.00 -0.02    +0.473 P 
DOCKED: ATOM      9  O   UNL d   1      12.684 -18.976 -11.528 +0.00 +0.01    -0.228 OA
DOCKED: BRANCH   8  10
DOCKED: ATOM     10  O   UNL d   1      10.772 -18.988 -13.253 +0.00 +0.01    -0.303 OA
DOCKED: ATOM     11  H   UNL d   1      10.204 -19.608 -12.757 +0.01 -0.02    +0.222 HD
DOCKED: ENDBRANCH   8  10
DOCKED: BRANCH   8  12
DOCKED: ATOM     12  O   UNL d   1      12.233 -16.991 -13.160 +0.00 -0.00    -0.303 OA
DOCKED: ATOM     13  H   UNL d   1      12.298 -16.125 -12.699 +0.00 +0.00    +0.222 HD
DOCKED: ENDBRANCH   8  12
DOCKED: ENDBRANCH   7   8
DOCKED: ENDBRANCH   1   7
DOCKED: BRANCH   2  14
DOCKED: ATOM     14  O   UNL d   1      10.605 -14.805 -11.989 -0.00 +0.00    -0.278 OA
DOCKED: BRANCH  14  15
DOCKED: ATOM     15  P   UNL d   1      11.759 -14.022 -12.777 +0.01 +0.03    +0.473 P 
DOCKED: ATOM     16  O   UNL d   1      13.115 -14.009 -12.144 +0.00 -0.02    -0.228 OA
DOCKED: BRANCH  15  17
DOCKED: ATOM     17  O   UNL d   1      11.760 -14.686 -14.225 -0.00 -0.01    -0.303 OA
DOCKED: ATOM     18  H   UNL d   1      10.851 -14.780 -14.569 +0.02 +0.01    +0.222 HD
DOCKED: ENDBRANCH  15  17
DOCKED: BRANCH  15  19
DOCKED: ATOM     19  O   UNL d   1      11.131 -12.592 -13.081 -0.02 -0.03    -0.303 OA
DOCKED: ATOM     20  H   UNL d   1      10.591 -12.601 -13.893 +0.04 +0.02    +0.222 HD
DOCKED: ENDBRANCH  15  19
DOCKED: ENDBRANCH  14  15
DOCKED: ENDBRANCH   2  14
DOCKED: BRANCH   6  21
DOCKED: ATOM     21  O   UNL d   1       7.995 -17.662 -10.123 -0.07 +0.16    -0.278 OA
DOCKED: BRANCH  21  22
DOCKED: ATOM     22  P   UNL d   1       7.597 -18.910 -11.034 -0.08 -0.25    +0.473 P 
DOCKED: ATOM     23  O   UNL d   1       7.055 -18.643 -12.397 -0.10 +0.06    -0.228 OA
DOCKED: BRANCH  22  24
DOCKED: ATOM     24  O   UNL d   1       8.933 -19.774 -11.005 -0.01 +0.09    -0.303 OA
DOCKED: ATOM     25  H   UNL d   1       9.667 -19.219 -11.374 +0.02 -0.04    +0.222 HD
DOCKED: ENDBRANCH  22  24
DOCKED: BRANCH  22  26
DOCKED: ATOM     26  O   UNL d   1       6.644 -19.741 -10.049 -0.14 +0.38    -0.303 OA
DOCKED: ATOM     27  H   UNL d   1       6.014 -19.128  -9.617 -0.22 -0.57    +0.222 HD
DOCKED: ENDBRANCH  22  26
DOCKED: ENDBRANCH  21  22
DOCKED: ENDBRANCH   6  21
DOCKED: BRANCH   3  28
DOCKED: ATOM     28  O   UNL d   1       9.044 -13.749 -13.858 -0.10 +0.00    -0.278 OA
DOCKED: BRANCH  28  29
DOCKED: ATOM     29  P   UNL d   1       8.821 -13.449 -15.406 -0.09 -0.01    +0.473 P 
DOCKED: ATOM     30  O   UNL d   1       8.761 -12.013 -15.778 -0.14 +0.00    -0.228 OA
DOCKED: BRANCH  29  31
DOCKED: ATOM     31  O   UNL d   1      10.015 -14.312 -16.032 -0.02 -0.01    -0.303 OA
DOCKED: ATOM     32  H   UNL d   1      10.846 -13.786 -15.976 +0.02 +0.01    +0.222 HD
DOCKED: ENDBRANCH  29  31
DOCKED: BRANCH  29  33
DOCKED: ATOM     33  O   UNL d   1       7.538 -14.333 -15.736 -0.12 +0.03    -0.303 OA
DOCKED: ATOM     34  H   UNL d   1       7.062 -14.534 -14.894 +0.05 -0.03    +0.222 HD
DOCKED: ENDBRANCH  29  33
DOCKED: ENDBRANCH  28  29
DOCKED: ENDBRANCH   3  28
DOCKED: BRANCH   5  35
DOCKED: ATOM     35  O   UNL d   1       6.702 -15.044 -10.074 -0.09 +0.08    -0.278 OA
DOCKED: BRANCH  35  36
DOCKED: ATOM     36  P   UNL d   1       5.353 -15.597  -9.429 -0.26 -0.25    +0.473 P 
DOCKED: ATOM     37  O   UNL d   1       4.141 -14.746  -9.640 -0.43 +0.03    -0.228 OA
DOCKED: BRANCH  36  38
DOCKED: ATOM     38  O   UNL d   1       5.254 -17.049 -10.076 -0.29 +0.34    -0.303 OA
DOCKED: ATOM     39  H   UNL d   1       5.876 -17.650  -9.613 -0.42 -0.46    +0.222 HD
DOCKED: ENDBRANCH  36  38
DOCKED: BRANCH  36  40
DOCKED: ATOM     40  O   UNL d   1       5.785 -15.878  -7.924 -0.27 +0.24    -0.303 OA
DOCKED: ATOM     41  H   UNL d   1       5.805 -16.840  -7.725 -0.38 -0.43    +0.222 HD
DOCKED: ENDBRANCH  36  40
DOCKED: ENDBRANCH  35  36
DOCKED: ENDBRANCH   5  35
DOCKED: BRANCH   4  42
DOCKED: ATOM     42  O   UNL d   1       6.387 -14.191 -12.843 -0.26 +0.02    -0.278 OA
DOCKED: BRANCH  42  43
DOCKED: ATOM     43  P   UNL d   1       5.519 -15.320 -13.560 -0.12 -0.07    +0.473 P 
DOCKED: ATOM     44  O   UNL d   1       5.000 -15.024 -14.925 -0.11 +0.03    -0.228 OA
DOCKED: BRANCH  43  45
DOCKED: ATOM     45  O   UNL d   1       6.474 -16.592 -13.489 -0.08 +0.04    -0.303 OA
DOCKED: ATOM     46  H   UNL d   1       6.182 -17.220 -12.799 +0.05 -0.05    +0.222 HD
DOCKED: ENDBRANCH  43  45
DOCKED: BRANCH  43  47
DOCKED: ATOM     47  O   UNL d   1       4.410 -15.684 -12.462 -0.22 +0.09    -0.303 OA
DOCKED: ATOM     48  H   UNL d   1       4.796 -15.578 -11.567 +0.12 -0.08    +0.222 HD
DOCKED: ENDBRANCH  43  47
DOCKED: ENDBRANCH  42  43
DOCKED: ENDBRANCH   4  42
DOCKED: TORSDOF 24
DOCKED: TER
DOCKED: ENDMDL
________________________________________________________________________________


	BEGINNING GENETIC ALGORITHM DOCKING 37 of 100
Run: 37 Seed: 702292016 653131326 [ Run 37 of 100 GA/GALS ]
Beginning LAMARCKIAN GENETIC ALGORITHM (LGA), with a maximum of 25000000 energy evaluations.

Final-Value: -16.885


	FINAL GENETIC ALGORITHM DOCKED STATE
	_______________________________________________


Detailed state:  trans -10.406 -18.039 -4.421 quatxyzw -0.327107 -0.435029 0.195637 0.815768 center 0.035 0.082 -0.065 ntor 24 124.2300 126.2006 48.7526 -129.6294 1.6645 -100.1652 -59.8372 20.8884 167.6689 3.9792 167.4913 106.7663 -60.1948 -81.0167 -55.8253 -174.4958 -180.0000 -174.6266 31.5410 -8.5550 -176.5098 -17.4778 22.2954 23.8012
State:	-10.406 -18.039  -4.421  -0.566 -0.752  0.338 70.673    124.23  126.20   48.75 -129.63    1.66 -100.17  -59.84   20.89  167.67    3.98  167.49  106.77  -60.19  -81.02  -55.83 -174.50 -180.00 -174.63   31.54   -8.56 -176.51  -17.48   22.30   23.80

DOCKED: MODEL       37
DOCKED: USER    Run = 37
DOCKED: USER    DPF = D:/Protein_go_brrr/autodock/final/AncB/IHP/dock.dpf
DOCKED: USER  
DOCKED: USER    Estimated Free Energy of Binding    =   +3.34 kcal/mol  [=(1)+(2)+(3)-(4)]
DOCKED: USER    
DOCKED: USER    (1) Final Intermolecular Energy     =   -3.82 kcal/mol
DOCKED: USER        vdW + Hbond + desolv Energy     =   -3.59 kcal/mol
DOCKED: USER        Electrostatic Energy            =   -0.23 kcal/mol
DOCKED: USER    (2) Final Total Internal Energy     =  -13.07 kcal/mol
DOCKED: USER    (3) Torsional Free Energy           =   +7.16 kcal/mol
DOCKED: USER    (4) Unbound System's Energy  [=(2)] =  -13.07 kcal/mol
DOCKED: USER    
DOCKED: USER    
DOCKED: USER    NEWDPF move IHP_ideal_opt.pdbqt
DOCKED: USER    NEWDPF about 0.035000 0.082000 -0.065000
DOCKED: USER    NEWDPF tran0 -10.406489 -18.038527 -4.420554
DOCKED: USER    NEWDPF quaternion0 -0.327107 -0.435029 0.195637 0.815768
DOCKED: USER    NEWDPF axisangle0 -0.565557 -0.752152 0.338250 70.673335
DOCKED: USER    NEWDPF quat0 -0.565557 -0.752152 0.338250 70.673335
DOCKED: USER    NEWDPF dihe0 124.23 126.20 48.75 -129.63 1.66 -100.17 -59.84 20.89 167.67 3.98 167.49 106.77 -60.19 -81.02 -55.83 -174.50 -180.00 -174.63 31.54 -8.56 -176.51 -17.48 22.30 23.80 
DOCKED: USER  keepresnum = 1 
DOCKED: USER  
DOCKED: REMARK  24 active torsions:
DOCKED: REMARK  status: ('A' for Active; 'I' for Inactive)
DOCKED: REMARK    1  A    between atoms: C_1  and  O_7 
DOCKED: REMARK    2  A    between atoms: C_2  and  O_12 
DOCKED: REMARK    3  A    between atoms: C_3  and  O_17 
DOCKED: REMARK    4  A    between atoms: C_4  and  O_22 
DOCKED: REMARK    5  A    between atoms: C_5  and  O_27 
DOCKED: REMARK    6  A    between atoms: C_6  and  O_32 
DOCKED: REMARK    7  A    between atoms: O_7  and  P_8 
DOCKED: REMARK    8  A    between atoms: P_8  and  O_10 
DOCKED: REMARK    9  A    between atoms: P_8  and  O_11 
DOCKED: REMARK   10  A    between atoms: O_12  and  P_13 
DOCKED: REMARK   11  A    between atoms: P_13  and  O_15 
DOCKED: REMARK   12  A    between atoms: P_13  and  O_16 
DOCKED: REMARK   13  A    between atoms: O_17  and  P_18 
DOCKED: REMARK   14  A    between atoms: P_18  and  O_20 
DOCKED: REMARK   15  A    between atoms: P_18  and  O_21 
DOCKED: REMARK   16  A    between atoms: O_22  and  P_23 
DOCKED: REMARK   17  A    between atoms: P_23  and  O_25 
DOCKED: REMARK   18  A    between atoms: P_23  and  O_26 
DOCKED: REMARK   19  A    between atoms: O_27  and  P_28 
DOCKED: REMARK   20  A    between atoms: P_28  and  O_30 
DOCKED: REMARK   21  A    between atoms: P_28  and  O_31 
DOCKED: REMARK   22  A    between atoms: O_32  and  P_33 
DOCKED: REMARK   23  A    between atoms: P_33  and  O_35 
DOCKED: REMARK   24  A    between atoms: P_33  and  O_36 
DOCKED: USER                              x       y       z     vdW  Elec       q    Type
DOCKED: USER                           _______ _______ _______ _____ _____    ______ ____
DOCKED: ROOT
DOCKED: ATOM      1  C   UNL d   1      -9.800 -19.269  -5.471 -0.03 +0.15    +0.194 C 
DOCKED: ATOM      2  C   UNL d   1     -11.180 -19.536  -4.868 +0.01 +0.10    +0.194 C 
DOCKED: ATOM      3  C   UNL d   1     -11.231 -19.168  -3.383 -0.01 +0.12    +0.194 C 
DOCKED: ATOM      4  C   UNL d   1     -10.741 -17.750  -3.098 -0.06 +0.17    +0.194 C 
DOCKED: ATOM      5  C   UNL d   1      -9.422 -17.401  -3.775 -0.11 +0.20    +0.194 C 
DOCKED: ATOM      6  C   UNL d   1      -9.348 -17.825  -5.244 -0.09 +0.20    +0.194 C 
DOCKED: ENDROOT
DOCKED: BRANCH   1   7
DOCKED: ATOM      7  O   UNL d   1      -9.883 -19.472  -6.883 -0.04 -0.25    -0.278 OA
DOCKED: BRANCH   7   8
DOCKED: ATOM      8  P   UNL d   1      -9.565 -20.927  -7.461 -0.01 +0.28    +0.473 P 
DOCKED: ATOM      9  O   UNL d   1      -9.014 -21.892  -6.471 +0.00 -0.10    -0.228 OA
DOCKED: BRANCH   8  10
DOCKED: ATOM     10  O   UNL d   1     -10.949 -21.401  -8.098 +0.00 -0.11    -0.303 OA
DOCKED: ATOM     11  H   UNL d   1     -11.689 -21.043  -7.574 +0.00 +0.08    +0.222 HD
DOCKED: ENDBRANCH   8  10
DOCKED: BRANCH   8  12
DOCKED: ATOM     12  O   UNL d   1      -8.674 -20.673  -8.752 -0.03 -0.24    -0.303 OA
DOCKED: ATOM     13  H   UNL d   1      -7.727 -20.510  -8.541 +0.01 +0.23    +0.222 HD
DOCKED: ENDBRANCH   8  12
DOCKED: ENDBRANCH   7   8
DOCKED: ENDBRANCH   1   7
DOCKED: BRANCH   2  14
DOCKED: ATOM     14  O   UNL d   1     -12.155 -18.752  -5.566 +0.00 -0.13    -0.278 OA
DOCKED: BRANCH  14  15
DOCKED: ATOM     15  P   UNL d   1     -13.369 -19.551  -6.237 +0.01 +0.15    +0.473 P 
DOCKED: ATOM     16  O   UNL d   1     -13.114 -20.981  -6.600 +0.00 -0.07    -0.228 OA
DOCKED: BRANCH  15  17
DOCKED: ATOM     17  O   UNL d   1     -14.565 -19.381  -5.199 +0.00 -0.08    -0.303 OA
DOCKED: ATOM     18  H   UNL d   1     -14.268 -19.564  -4.287 +0.00 +0.07    +0.222 HD
DOCKED: ENDBRANCH  15  17
DOCKED: BRANCH  15  19
DOCKED: ATOM     19  O   UNL d   1     -13.848 -18.616  -7.432 +0.00 -0.09    -0.303 OA
DOCKED: ATOM     20  H   UNL d   1     -14.493 -19.067  -8.007 +0.00 +0.06    +0.222 HD
DOCKED: ENDBRANCH  15  19
DOCKED: ENDBRANCH  14  15
DOCKED: ENDBRANCH   2  14
DOCKED: BRANCH   6  21
DOCKED: ATOM     21  O   UNL d   1      -7.977 -17.751  -5.626 -0.05 -0.44    -0.278 OA
DOCKED: BRANCH  21  22
DOCKED: ATOM     22  P   UNL d   1      -6.986 -18.946  -5.257 -0.05 +0.56    +0.473 P 
DOCKED: ATOM     23  O   UNL d   1      -7.317 -19.797  -4.077 -0.05 -0.19    -0.228 OA
DOCKED: BRANCH  22  24
DOCKED: ATOM     24  O   UNL d   1      -6.891 -19.729  -6.639 -0.56 -0.47    -0.303 OA
DOCKED: ATOM     25  H   UNL d   1      -7.789 -20.091  -6.850 +0.02 +0.27    +0.222 HD
DOCKED: ENDBRANCH  22  24
DOCKED: BRANCH  22  26
DOCKED: ATOM     26  O   UNL d   1      -5.572 -18.192  -5.205 -0.28 -0.30    -0.303 OA
DOCKED: ATOM     27  H   UNL d   1      -5.444 -17.808  -4.313 +0.04 +0.18    +0.222 HD
DOCKED: ENDBRANCH  22  26
DOCKED: ENDBRANCH  21  22
DOCKED: ENDBRANCH   6  21
DOCKED: BRANCH   3  28
DOCKED: ATOM     28  O   UNL d   1     -12.596 -19.183  -2.985 +0.00 -0.13    -0.278 OA
DOCKED: BRANCH  28  29
DOCKED: ATOM     29  P   UNL d   1     -13.236 -20.499  -2.356 +0.01 +0.17    +0.473 P 
DOCKED: ATOM     30  O   UNL d   1     -14.471 -20.292  -1.558 +0.00 -0.07    -0.228 OA
DOCKED: BRANCH  29  31
DOCKED: ATOM     31  O   UNL d   1     -13.363 -21.403  -3.671 +0.00 -0.09    -0.303 OA
DOCKED: ATOM     32  H   UNL d   1     -13.146 -20.848  -4.456 +0.00 +0.07    +0.222 HD
DOCKED: ENDBRANCH  29  31
DOCKED: BRANCH  29  33
DOCKED: ATOM     33  O   UNL d   1     -11.992 -21.148  -1.603 +0.00 -0.13    -0.303 OA
DOCKED: ATOM     34  H   UNL d   1     -11.864 -20.687  -0.738 +0.01 +0.11    +0.222 HD
DOCKED: ENDBRANCH  29  33
DOCKED: ENDBRANCH  28  29
DOCKED: ENDBRANCH   3  28
DOCKED: BRANCH   5  35
DOCKED: ATOM     35  O   UNL d   1      -9.336 -15.978  -3.745 -0.15 -0.29    -0.278 OA
DOCKED: BRANCH  35  36
DOCKED: ATOM     36  P   UNL d   1      -7.912 -15.258  -3.746 -0.20 +0.53    +0.473 P 
DOCKED: ATOM     37  O   UNL d   1      -7.760 -14.128  -2.779 -0.94 -0.25    -0.228 OA
DOCKED: BRANCH  36  38
DOCKED: ATOM     38  O   UNL d   1      -6.928 -16.482  -3.483 -0.25 -0.40    -0.303 OA
DOCKED: ATOM     39  H   UNL d   1      -6.564 -16.791  -4.340 +0.09 +0.25    +0.222 HD
DOCKED: ENDBRANCH  36  38
DOCKED: BRANCH  36  40
DOCKED: ATOM     40  O   UNL d   1      -7.703 -14.923  -5.287 -0.21 -0.30    -0.303 OA
DOCKED: ATOM     41  H   UNL d   1      -8.045 -15.640  -5.865 +0.11 +0.30    +0.222 HD
DOCKED: ENDBRANCH  36  40
DOCKED: ENDBRANCH  35  36
DOCKED: ENDBRANCH   5  35
DOCKED: BRANCH   4  42
DOCKED: ATOM     42  O   UNL d   1     -10.526 -17.662  -1.686 -0.57 -0.39    -0.278 OA
DOCKED: BRANCH  42  43
DOCKED: ATOM     43  P   UNL d   1     -11.747 -17.257  -0.743 -0.04 +0.42    +0.473 P 
DOCKED: ATOM     44  O   UNL d   1     -11.528 -16.148   0.227 -0.19 -0.23    -0.228 OA
DOCKED: BRANCH  43  45
DOCKED: ATOM     45  O   UNL d   1     -12.918 -16.987  -1.786 -0.02 -0.16    -0.303 OA
DOCKED: ATOM     46  H   UNL d   1     -13.473 -17.782  -1.915 +0.02 +0.10    +0.222 HD
DOCKED: ENDBRANCH  43  45
DOCKED: BRANCH  43  47
DOCKED: ATOM     47  O   UNL d   1     -12.196 -18.657  -0.104 -0.02 -0.21    -0.303 OA
DOCKED: ATOM     48  H   UNL d   1     -12.671 -19.183  -0.781 +0.02 +0.12    +0.222 HD
DOCKED: ENDBRANCH  43  47
DOCKED: ENDBRANCH  42  43
DOCKED: ENDBRANCH   4  42
DOCKED: TORSDOF 24
DOCKED: TER
DOCKED: ENDMDL
________________________________________________________________________________


	BEGINNING GENETIC ALGORITHM DOCKING 38 of 100
Run: 38 Seed: 1732015889 2038143699 [ Run 38 of 100 GA/GALS ]
Beginning LAMARCKIAN GENETIC ALGORITHM (LGA), with a maximum of 25000000 energy evaluations.

Final-Value: -18.772


	FINAL GENETIC ALGORITHM DOCKED STATE
	_______________________________________________


Detailed state:  trans 4.391 -15.359 -0.510 quatxyzw 0.038608 -0.925212 -0.312289 -0.212054 center 0.035 0.082 -0.065 ntor 24 -102.1582 7.5640 160.4181 13.1891 15.9029 -180.0000 -90.9601 124.1493 15.2420 166.1094 145.4953 -145.5362 -144.3950 76.2883 149.6122 -168.5034 -56.8154 -29.6084 27.3595 -33.7288 -26.5663 -35.7716 -6.1932 -26.6727
State:	  4.391 -15.359  -0.510   0.040 -0.947 -0.320 -155.515   -102.16    7.56  160.42   13.19   15.90 -180.00  -90.96  124.15   15.24  166.11  145.50 -145.54 -144.40   76.29  149.61 -168.50  -56.82  -29.61   27.36  -33.73  -26.57  -35.77   -6.19  -26.67

DOCKED: MODEL       38
DOCKED: USER    Run = 38
DOCKED: USER    DPF = D:/Protein_go_brrr/autodock/final/AncB/IHP/dock.dpf
DOCKED: USER  
DOCKED: USER    Estimated Free Energy of Binding    =   +1.49 kcal/mol  [=(1)+(2)+(3)-(4)]
DOCKED: USER    
DOCKED: USER    (1) Final Intermolecular Energy     =   -5.67 kcal/mol
DOCKED: USER        vdW + Hbond + desolv Energy     =   -5.38 kcal/mol
DOCKED: USER        Electrostatic Energy            =   -0.29 kcal/mol
DOCKED: USER    (2) Final Total Internal Energy     =  -13.11 kcal/mol
DOCKED: USER    (3) Torsional Free Energy           =   +7.16 kcal/mol
DOCKED: USER    (4) Unbound System's Energy  [=(2)] =  -13.11 kcal/mol
DOCKED: USER    
DOCKED: USER    
DOCKED: USER    NEWDPF move IHP_ideal_opt.pdbqt
DOCKED: USER    NEWDPF about 0.035000 0.082000 -0.065000
DOCKED: USER    NEWDPF tran0 4.390951 -15.359253 -0.509829
DOCKED: USER    NEWDPF quaternion0 0.038608 -0.925212 -0.312289 -0.212054
DOCKED: USER    NEWDPF axisangle0 0.039507 -0.946743 -0.319556 -155.514515
DOCKED: USER    NEWDPF quat0 0.039507 -0.946743 -0.319556 -155.514515
DOCKED: USER    NEWDPF dihe0 -102.16 7.56 160.42 13.19 15.90 -180.00 -90.96 124.15 15.24 166.11 145.50 -145.54 -144.40 76.29 149.61 -168.50 -56.82 -29.61 27.36 -33.73 -26.57 -35.77 -6.19 -26.67 
DOCKED: USER  keepresnum = 1 
DOCKED: USER  
DOCKED: REMARK  24 active torsions:
DOCKED: REMARK  status: ('A' for Active; 'I' for Inactive)
DOCKED: REMARK    1  A    between atoms: C_1  and  O_7 
DOCKED: REMARK    2  A    between atoms: C_2  and  O_12 
DOCKED: REMARK    3  A    between atoms: C_3  and  O_17 
DOCKED: REMARK    4  A    between atoms: C_4  and  O_22 
DOCKED: REMARK    5  A    between atoms: C_5  and  O_27 
DOCKED: REMARK    6  A    between atoms: C_6  and  O_32 
DOCKED: REMARK    7  A    between atoms: O_7  and  P_8 
DOCKED: REMARK    8  A    between atoms: P_8  and  O_10 
DOCKED: REMARK    9  A    between atoms: P_8  and  O_11 
DOCKED: REMARK   10  A    between atoms: O_12  and  P_13 
DOCKED: REMARK   11  A    between atoms: P_13  and  O_15 
DOCKED: REMARK   12  A    between atoms: P_13  and  O_16 
DOCKED: REMARK   13  A    between atoms: O_17  and  P_18 
DOCKED: REMARK   14  A    between atoms: P_18  and  O_20 
DOCKED: REMARK   15  A    between atoms: P_18  and  O_21 
DOCKED: REMARK   16  A    between atoms: O_22  and  P_23 
DOCKED: REMARK   17  A    between atoms: P_23  and  O_25 
DOCKED: REMARK   18  A    between atoms: P_23  and  O_26 
DOCKED: REMARK   19  A    between atoms: O_27  and  P_28 
DOCKED: REMARK   20  A    between atoms: P_28  and  O_30 
DOCKED: REMARK   21  A    between atoms: P_28  and  O_31 
DOCKED: REMARK   22  A    between atoms: O_32  and  P_33 
DOCKED: REMARK   23  A    between atoms: P_33  and  O_35 
DOCKED: REMARK   24  A    between atoms: P_33  and  O_36 
DOCKED: USER                              x       y       z     vdW  Elec       q    Type
DOCKED: USER                           _______ _______ _______ _____ _____    ______ ____
DOCKED: ROOT
DOCKED: ATOM      1  C   UNL d   1       2.871 -15.883  -1.142 -0.19 +0.00    +0.194 C 
DOCKED: ATOM      2  C   UNL d   1       4.107 -16.480  -1.815 -0.13 -0.02    +0.194 C 
DOCKED: ATOM      3  C   UNL d   1       5.187 -15.424  -2.056 -0.14 -0.02    +0.194 C 
DOCKED: ATOM      4  C   UNL d   1       5.541 -14.628  -0.802 -0.13 -0.02    +0.194 C 
DOCKED: ATOM      5  C   UNL d   1       4.331 -14.109  -0.035 -0.17 +0.00    +0.194 C 
DOCKED: ATOM      6  C   UNL d   1       3.225 -15.149   0.153 -0.12 +0.01    +0.194 C 
DOCKED: ENDROOT
DOCKED: BRANCH   1   7
DOCKED: ATOM      7  O   UNL d   1       1.989 -16.954  -0.797 -0.09 -0.01    -0.278 OA
DOCKED: BRANCH   7   8
DOCKED: ATOM      8  P   UNL d   1       0.814 -17.327  -1.812 -0.16 -0.02    +0.473 P 
DOCKED: ATOM      9  O   UNL d   1      -0.485 -16.650  -1.550 -0.30 -0.02    -0.228 OA
DOCKED: BRANCH   8  10
DOCKED: ATOM     10  O   UNL d   1       1.421 -16.986  -3.248 -0.30 +0.09    -0.303 OA
DOCKED: ATOM     11  H   UNL d   1       1.731 -17.807  -3.674 -0.19 -0.10    +0.222 HD
DOCKED: ENDBRANCH   8  10
DOCKED: BRANCH   8  12
DOCKED: ATOM     12  O   UNL d   1       0.776 -18.915  -1.835 -0.07 +0.01    -0.303 OA
DOCKED: ATOM     13  H   UNL d   1       1.670 -19.323  -1.790 +0.05 -0.02    +0.222 HD
DOCKED: ENDBRANCH   8  12
DOCKED: ENDBRANCH   7   8
DOCKED: ENDBRANCH   1   7
DOCKED: BRANCH   2  14
DOCKED: ATOM     14  O   UNL d   1       4.650 -17.503  -0.971 -0.02 +0.02    -0.278 OA
DOCKED: BRANCH  14  15
DOCKED: ATOM     15  P   UNL d   1       4.246 -19.012  -1.325 +0.01 -0.05    +0.473 P 
DOCKED: ATOM     16  O   UNL d   1       5.360 -20.009  -1.387 -0.01 +0.03    -0.228 OA
DOCKED: BRANCH  15  17
DOCKED: ATOM     17  O   UNL d   1       3.145 -19.384  -0.235 -0.00 +0.00    -0.303 OA
DOCKED: ATOM     18  H   UNL d   1       2.345 -18.834  -0.342 +0.03 +0.00    +0.222 HD
DOCKED: ENDBRANCH  15  17
DOCKED: BRANCH  15  19
DOCKED: ATOM     19  O   UNL d   1       3.363 -18.888  -2.642 -0.08 +0.07    -0.303 OA
DOCKED: ATOM     20  H   UNL d   1       2.695 -18.182  -2.563 +0.08 -0.04    +0.222 HD
DOCKED: ENDBRANCH  15  19
DOCKED: ENDBRANCH  14  15
DOCKED: ENDBRANCH   2  14
DOCKED: BRANCH   6  21
DOCKED: ATOM     21  O   UNL d   1       2.058 -14.440   0.564 -0.11 -0.06    -0.278 OA
DOCKED: BRANCH  21  22
DOCKED: ATOM     22  P   UNL d   1       1.257 -14.917   1.859 -0.10 +0.11    +0.473 P 
DOCKED: ATOM     23  O   UNL d   1       0.045 -14.146   2.260 -0.63 -0.12    -0.228 OA
DOCKED: BRANCH  22  24
DOCKED: ATOM     24  O   UNL d   1       0.995 -16.452   1.532 -0.03 -0.06    -0.303 OA
DOCKED: ATOM     25  H   UNL d   1       0.608 -16.512   0.622 +0.08 +0.04    +0.222 HD
DOCKED: ENDBRANCH  22  24
DOCKED: BRANCH  22  26
DOCKED: ATOM     26  O   UNL d   1       2.427 -15.006   2.951 -0.02 -0.04    -0.303 OA
DOCKED: ATOM     27  H   UNL d   1       3.258 -14.663   2.562 +0.04 +0.02    +0.222 HD
DOCKED: ENDBRANCH  22  26
DOCKED: ENDBRANCH  21  22
DOCKED: ENDBRANCH   6  21
DOCKED: BRANCH   3  28
DOCKED: ATOM     28  O   UNL d   1       6.381 -16.106  -2.419 -0.07 +0.05    -0.278 OA
DOCKED: BRANCH  28  29
DOCKED: ATOM     29  P   UNL d   1       6.535 -16.740  -3.872 -0.07 -0.14    +0.473 P 
DOCKED: ATOM     30  O   UNL d   1       7.916 -17.127  -4.259 -0.04 +0.07    -0.228 OA
DOCKED: BRANCH  29  31
DOCKED: ATOM     31  O   UNL d   1       5.451 -17.914  -3.781 -0.10 +0.12    -0.303 OA
DOCKED: ATOM     32  H   UNL d   1       5.496 -18.314  -2.882 +0.05 -0.06    +0.222 HD
DOCKED: ENDBRANCH  29  31
DOCKED: BRANCH  29  33
DOCKED: ATOM     33  O   UNL d   1       5.808 -15.659  -4.787 -0.21 +0.08    -0.303 OA
DOCKED: ATOM     34  H   UNL d   1       5.799 -15.983  -5.721 +0.10 -0.10    +0.222 HD
DOCKED: ENDBRANCH  29  33
DOCKED: ENDBRANCH  28  29
DOCKED: ENDBRANCH   3  28
DOCKED: BRANCH   5  35
DOCKED: ATOM     35  O   UNL d   1       4.813 -13.770   1.264 -0.06 +0.02    -0.278 OA
DOCKED: BRANCH  35  36
DOCKED: ATOM     36  P   UNL d   1       4.594 -12.301   1.845 -0.09 -0.07    +0.473 P 
DOCKED: ATOM     37  O   UNL d   1       4.137 -11.278   0.856 -0.85 +0.01    -0.228 OA
DOCKED: BRANCH  36  38
DOCKED: ATOM     38  O   UNL d   1       3.565 -12.570   3.031 -0.04 -0.00    -0.303 OA
DOCKED: ATOM     39  H   UNL d   1       2.782 -13.043   2.676 +0.08 +0.02    +0.222 HD
DOCKED: ENDBRANCH  36  38
DOCKED: BRANCH  36  40
DOCKED: ATOM     40  O   UNL d   1       5.971 -12.021   2.590 -0.10 +0.18    -0.303 OA
DOCKED: ATOM     41  H   UNL d   1       6.399 -11.197   2.267 -0.32 -0.29    +0.222 HD
DOCKED: ENDBRANCH  36  40
DOCKED: ENDBRANCH  35  36
DOCKED: ENDBRANCH   5  35
DOCKED: BRANCH   4  42
DOCKED: ATOM     42  O   UNL d   1       6.287 -13.485  -1.233 +0.11 +0.05    -0.278 OA
DOCKED: BRANCH  42  43
DOCKED: ATOM     43  P   UNL d   1       7.573 -13.044  -0.399 -0.19 -0.21    +0.473 P 
DOCKED: ATOM     44  O   UNL d   1       8.146 -14.035   0.555 -0.07 +0.07    -0.228 OA
DOCKED: BRANCH  43  45
DOCKED: ATOM     45  O   UNL d   1       8.584 -12.576  -1.536 -0.31 +0.23    -0.303 OA
DOCKED: ATOM     46  H   UNL d   1       8.311 -11.722  -1.928 -0.34 -0.27    +0.222 HD
DOCKED: ENDBRANCH  43  45
DOCKED: BRANCH  43  47
DOCKED: ATOM     47  O   UNL d   1       7.132 -11.643   0.242 -0.24 +0.24    -0.303 OA
DOCKED: ATOM     48  H   UNL d   1       6.172 -11.665   0.437 +0.09 -0.12    +0.222 HD
DOCKED: ENDBRANCH  43  47
DOCKED: ENDBRANCH  42  43
DOCKED: ENDBRANCH   4  42
DOCKED: TORSDOF 24
DOCKED: TER
DOCKED: ENDMDL
________________________________________________________________________________


	BEGINNING GENETIC ALGORITHM DOCKING 39 of 100
Run: 39 Seed: 1445799997 483836231 [ Run 39 of 100 GA/GALS ]
Beginning LAMARCKIAN GENETIC ALGORITHM (LGA), with a maximum of 25000000 energy evaluations.

Final-Value: -19.019


	FINAL GENETIC ALGORITHM DOCKED STATE
	_______________________________________________


Detailed state:  trans -4.418 16.870 10.891 quatxyzw -0.043205 0.541036 0.774230 0.325548 center 0.035 0.082 -0.065 ntor 24 119.2311 61.8238 14.5473 147.0329 -11.4983 171.5388 -119.2801 24.6995 -168.3999 -20.6886 159.4780 114.4072 -62.7759 -81.6460 -129.3016 -173.6636 -179.4707 -176.9410 69.8701 4.6003 -59.0917 -15.2486 36.1062 20.6683
State:	 -4.418  16.870  10.891  -0.046  0.572  0.819 142.002    119.23   61.82   14.55  147.03  -11.50  171.54 -119.28   24.70 -168.40  -20.69  159.48  114.41  -62.78  -81.65 -129.30 -173.66 -179.47 -176.94   69.87    4.60  -59.09  -15.25   36.11   20.67

DOCKED: MODEL       39
DOCKED: USER    Run = 39
DOCKED: USER    DPF = D:/Protein_go_brrr/autodock/final/AncB/IHP/dock.dpf
DOCKED: USER  
DOCKED: USER    Estimated Free Energy of Binding    =   +1.99 kcal/mol  [=(1)+(2)+(3)-(4)]
DOCKED: USER    
DOCKED: USER    (1) Final Intermolecular Energy     =   -5.17 kcal/mol
DOCKED: USER        vdW + Hbond + desolv Energy     =   -4.61 kcal/mol
DOCKED: USER        Electrostatic Energy            =   -0.56 kcal/mol
DOCKED: USER    (2) Final Total Internal Energy     =  -13.85 kcal/mol
DOCKED: USER    (3) Torsional Free Energy           =   +7.16 kcal/mol
DOCKED: USER    (4) Unbound System's Energy  [=(2)] =  -13.85 kcal/mol
DOCKED: USER    
DOCKED: USER    
DOCKED: USER    NEWDPF move IHP_ideal_opt.pdbqt
DOCKED: USER    NEWDPF about 0.035000 0.082000 -0.065000
DOCKED: USER    NEWDPF tran0 -4.417869 16.870249 10.890914
DOCKED: USER    NEWDPF quaternion0 -0.043205 0.541036 0.774230 0.325548
DOCKED: USER    NEWDPF axisangle0 -0.045694 0.572207 0.818835 142.002428
DOCKED: USER    NEWDPF quat0 -0.045694 0.572207 0.818835 142.002428
DOCKED: USER    NEWDPF dihe0 119.23 61.82 14.55 147.03 -11.50 171.54 -119.28 24.70 -168.40 -20.69 159.48 114.41 -62.78 -81.65 -129.30 -173.66 -179.47 -176.94 69.87 4.60 -59.09 -15.25 36.11 20.67 
DOCKED: USER  keepresnum = 1 
DOCKED: USER  
DOCKED: REMARK  24 active torsions:
DOCKED: REMARK  status: ('A' for Active; 'I' for Inactive)
DOCKED: REMARK    1  A    between atoms: C_1  and  O_7 
DOCKED: REMARK    2  A    between atoms: C_2  and  O_12 
DOCKED: REMARK    3  A    between atoms: C_3  and  O_17 
DOCKED: REMARK    4  A    between atoms: C_4  and  O_22 
DOCKED: REMARK    5  A    between atoms: C_5  and  O_27 
DOCKED: REMARK    6  A    between atoms: C_6  and  O_32 
DOCKED: REMARK    7  A    between atoms: O_7  and  P_8 
DOCKED: REMARK    8  A    between atoms: P_8  and  O_10 
DOCKED: REMARK    9  A    between atoms: P_8  and  O_11 
DOCKED: REMARK   10  A    between atoms: O_12  and  P_13 
DOCKED: REMARK   11  A    between atoms: P_13  and  O_15 
DOCKED: REMARK   12  A    between atoms: P_13  and  O_16 
DOCKED: REMARK   13  A    between atoms: O_17  and  P_18 
DOCKED: REMARK   14  A    between atoms: P_18  and  O_20 
DOCKED: REMARK   15  A    between atoms: P_18  and  O_21 
DOCKED: REMARK   16  A    between atoms: O_22  and  P_23 
DOCKED: REMARK   17  A    between atoms: P_23  and  O_25 
DOCKED: REMARK   18  A    between atoms: P_23  and  O_26 
DOCKED: REMARK   19  A    between atoms: O_27  and  P_28 
DOCKED: REMARK   20  A    between atoms: P_28  and  O_30 
DOCKED: REMARK   21  A    between atoms: P_28  and  O_31 
DOCKED: REMARK   22  A    between atoms: O_32  and  P_33 
DOCKED: REMARK   23  A    between atoms: P_33  and  O_35 
DOCKED: REMARK   24  A    between atoms: P_33  and  O_36 
DOCKED: USER                              x       y       z     vdW  Elec       q    Type
DOCKED: USER                           _______ _______ _______ _____ _____    ______ ____
DOCKED: ROOT
DOCKED: ATOM      1  C   UNL d   1      -6.138  17.000  10.805 -0.06 -0.01    +0.194 C 
DOCKED: ATOM      2  C   UNL d   1      -5.373  17.552   9.601 -0.04 -0.02    +0.194 C 
DOCKED: ATOM      3  C   UNL d   1      -4.146  18.359  10.031 -0.02 -0.03    +0.194 C 
DOCKED: ATOM      4  C   UNL d   1      -3.236  17.603  10.996 -0.07 -0.04    +0.194 C 
DOCKED: ATOM      5  C   UNL d   1      -3.974  16.938  12.152 -0.09 -0.05    +0.194 C 
DOCKED: ATOM      6  C   UNL d   1      -5.235  16.183  11.729 -0.12 -0.03    +0.194 C 
DOCKED: ENDROOT
DOCKED: BRANCH   1   7
DOCKED: ATOM      7  O   UNL d   1      -7.158  16.124  10.321 -0.10 -0.01    -0.278 OA
DOCKED: BRANCH   7   8
DOCKED: ATOM      8  P   UNL d   1      -8.162  16.670   9.204 -0.09 +0.00    +0.473 P 
DOCKED: ATOM      9  O   UNL d   1      -8.096  18.137   8.960 -0.02 +0.01    -0.228 OA
DOCKED: BRANCH   8  10
DOCKED: ATOM     10  O   UNL d   1      -7.814  15.801   7.912 -0.16 +0.05    -0.303 OA
DOCKED: ATOM     11  H   UNL d   1      -6.850  15.664   7.861 -0.03 -0.05    +0.222 HD
DOCKED: ENDBRANCH   8  10
DOCKED: BRANCH   8  12
DOCKED: ATOM     12  O   UNL d   1      -9.587  16.099   9.615 -0.12 -0.04    -0.303 OA
DOCKED: ATOM     13  H   UNL d   1      -9.621  15.781  10.545 +0.04 +0.06    +0.222 HD
DOCKED: ENDBRANCH   8  12
DOCKED: ENDBRANCH   7   8
DOCKED: ENDBRANCH   1   7
DOCKED: BRANCH   2  14
DOCKED: ATOM     14  O   UNL d   1      -4.936  16.458   8.784 -0.07 +0.05    -0.278 OA
DOCKED: BRANCH  14  15
DOCKED: ATOM     15  P   UNL d   1      -5.125  16.626   7.203 -0.05 -0.12    +0.473 P 
DOCKED: ATOM     16  O   UNL d   1      -6.220  17.541   6.750 -0.04 +0.05    -0.228 OA
DOCKED: BRANCH  15  17
DOCKED: ATOM     17  O   UNL d   1      -3.688  17.080   6.687 -0.06 +0.10    -0.303 OA
DOCKED: ATOM     18  H   UNL d   1      -3.552  18.038   6.822 +0.04 -0.07    +0.222 HD
DOCKED: ENDBRANCH  15  17
DOCKED: BRANCH  15  19
DOCKED: ATOM     19  O   UNL d   1      -5.205  15.135   6.653 -0.16 +0.12    -0.303 OA
DOCKED: ATOM     20  H   UNL d   1      -6.117  14.791   6.676 -0.40 -0.16    +0.222 HD
DOCKED: ENDBRANCH  15  19
DOCKED: ENDBRANCH  14  15
DOCKED: ENDBRANCH   2  14
DOCKED: BRANCH   6  21
DOCKED: ATOM     21  O   UNL d   1      -5.978  15.923  12.918 -0.09 +0.05    -0.278 OA
DOCKED: BRANCH  21  22
DOCKED: ATOM     22  P   UNL d   1      -7.103  14.791  12.918 -0.11 +0.21    +0.473 P 
DOCKED: ATOM     23  O   UNL d   1      -8.525  15.210  12.757 -0.38 -0.19    -0.228 OA
DOCKED: BRANCH  22  24
DOCKED: ATOM     24  O   UNL d   1      -6.567  13.801  11.792 -0.10 -0.13    -0.303 OA
DOCKED: ATOM     25  H   UNL d   1      -6.775  14.197  10.908 +0.08 +0.07    +0.222 HD
DOCKED: ENDBRANCH  22  24
DOCKED: BRANCH  22  26
DOCKED: ATOM     26  O   UNL d   1      -6.754  13.987  14.260 -0.55 +0.03    -0.303 OA
DOCKED: ATOM     27  H   UNL d   1      -5.953  14.374  14.668 -0.50 -0.46    +0.222 HD
DOCKED: ENDBRANCH  22  26
DOCKED: ENDBRANCH  21  22
DOCKED: ENDBRANCH   6  21
DOCKED: BRANCH   3  28
DOCKED: ATOM     28  O   UNL d   1      -3.356  18.589   8.871 -0.01 +0.05    -0.278 OA
DOCKED: BRANCH  28  29
DOCKED: ATOM     29  P   UNL d   1      -3.507  19.947   8.052 +0.01 -0.08    +0.473 P 
DOCKED: ATOM     30  O   UNL d   1      -2.366  20.289   7.164 -0.00 +0.05    -0.228 OA
DOCKED: BRANCH  29  31
DOCKED: ATOM     31  O   UNL d   1      -4.923  19.694   7.350 +0.00 +0.05    -0.303 OA
DOCKED: ATOM     32  H   UNL d   1      -4.823  18.965   6.696 +0.02 -0.05    +0.222 HD
DOCKED: ENDBRANCH  29  31
DOCKED: BRANCH  29  33
DOCKED: ATOM     33  O   UNL d   1      -3.864  20.991   9.199 +0.00 +0.03    -0.303 OA
DOCKED: ATOM     34  H   UNL d   1      -3.027  21.303   9.623 +0.00 -0.02    +0.222 HD
DOCKED: ENDBRANCH  29  33
DOCKED: ENDBRANCH  28  29
DOCKED: ENDBRANCH   3  28
DOCKED: BRANCH   5  35
DOCKED: ATOM     35  O   UNL d   1      -3.068  15.976  12.687 -0.18 +0.12    -0.278 OA
DOCKED: BRANCH  35  36
DOCKED: ATOM     36  P   UNL d   1      -3.356  15.300  14.103 -0.09 -0.39    +0.473 P 
DOCKED: ATOM     37  O   UNL d   1      -2.183  15.213  15.027 -0.25 +0.19    -0.228 OA
DOCKED: BRANCH  36  38
DOCKED: ATOM     38  O   UNL d   1      -4.557  16.190  14.651 -0.07 +0.29    -0.303 OA
DOCKED: ATOM     39  H   UNL d   1      -5.331  15.612  14.826 -0.43 -0.35    +0.222 HD
DOCKED: ENDBRANCH  36  38
DOCKED: BRANCH  36  40
DOCKED: ATOM     40  O   UNL d   1      -4.052  13.930  13.689 -0.27 +0.25    -0.303 OA
DOCKED: ATOM     41  H   UNL d   1      -4.897  14.082  13.210 +0.01 -0.11    +0.222 HD
DOCKED: ENDBRANCH  36  40
DOCKED: ENDBRANCH  35  36
DOCKED: ENDBRANCH   5  35
DOCKED: BRANCH   4  42
DOCKED: ATOM     42  O   UNL d   1      -2.343  18.566  11.565 -0.02 +0.06    -0.278 OA
DOCKED: BRANCH  42  43
DOCKED: ATOM     43  P   UNL d   1      -0.949  18.847  10.841 -0.01 -0.10    +0.473 P 
DOCKED: ATOM     44  O   UNL d   1       0.277  18.836  11.686 -0.03 +0.04    -0.228 OA
DOCKED: BRANCH  43  45
DOCKED: ATOM     45  O   UNL d   1      -0.942  17.770   9.669 -0.08 +0.09    -0.303 OA
DOCKED: ATOM     46  H   UNL d   1      -1.397  18.106   8.872 +0.04 -0.06    +0.222 HD
DOCKED: ENDBRANCH  43  45
DOCKED: BRANCH  43  47
DOCKED: ATOM     47  O   UNL d   1      -1.222  20.205  10.035 -0.00 +0.05    -0.303 OA
DOCKED: ATOM     48  H   UNL d   1      -1.879  20.034   9.328 +0.01 -0.04    +0.222 HD
DOCKED: ENDBRANCH  43  47
DOCKED: ENDBRANCH  42  43
DOCKED: ENDBRANCH   4  42
DOCKED: TORSDOF 24
DOCKED: TER
DOCKED: ENDMDL
________________________________________________________________________________


	BEGINNING GENETIC ALGORITHM DOCKING 40 of 100
Run: 40 Seed: 796314268 1039070320 [ Run 40 of 100 GA/GALS ]
Beginning LAMARCKIAN GENETIC ALGORITHM (LGA), with a maximum of 25000000 energy evaluations.

Final-Value: -18.500


	FINAL GENETIC ALGORITHM DOCKED STATE
	_______________________________________________


Detailed state:  trans -11.915 8.533 -0.960 quatxyzw -0.849802 0.101224 0.343598 -0.386692 center 0.035 0.082 -0.065 ntor 24 119.2366 88.9306 34.6608 51.1843 3.7423 157.3577 141.9677 -86.3059 88.1705 119.0781 29.8386 -179.4032 -43.0902 173.0280 178.0999 102.3978 114.2008 165.7990 -4.7189 -35.5228 -22.6588 -35.1699 1.9781 6.4460
State:	-11.915   8.533  -0.960  -0.921  0.110  0.373 -134.502    119.24   88.93   34.66   51.18    3.74  157.36  141.97  -86.31   88.17  119.08   29.84 -179.40  -43.09  173.03  178.10  102.40  114.20  165.80   -4.72  -35.52  -22.66  -35.17    1.98    6.45

DOCKED: MODEL       40
DOCKED: USER    Run = 40
DOCKED: USER    DPF = D:/Protein_go_brrr/autodock/final/AncB/IHP/dock.dpf
DOCKED: USER  
DOCKED: USER    Estimated Free Energy of Binding    =   +1.96 kcal/mol  [=(1)+(2)+(3)-(4)]
DOCKED: USER    
DOCKED: USER    (1) Final Intermolecular Energy     =   -5.20 kcal/mol
DOCKED: USER        vdW + Hbond + desolv Energy     =   -5.09 kcal/mol
DOCKED: USER        Electrostatic Energy            =   -0.11 kcal/mol
DOCKED: USER    (2) Final Total Internal Energy     =  -13.30 kcal/mol
DOCKED: USER    (3) Torsional Free Energy           =   +7.16 kcal/mol
DOCKED: USER    (4) Unbound System's Energy  [=(2)] =  -13.30 kcal/mol
DOCKED: USER    
DOCKED: USER    
DOCKED: USER    NEWDPF move IHP_ideal_opt.pdbqt
DOCKED: USER    NEWDPF about 0.035000 0.082000 -0.065000
DOCKED: USER    NEWDPF tran0 -11.915117 8.533356 -0.960328
DOCKED: USER    NEWDPF quaternion0 -0.849802 0.101224 0.343598 -0.386692
DOCKED: USER    NEWDPF axisangle0 -0.921485 0.109763 0.372581 -134.502322
DOCKED: USER    NEWDPF quat0 -0.921485 0.109763 0.372581 -134.502322
DOCKED: USER    NEWDPF dihe0 119.24 88.93 34.66 51.18 3.74 157.36 141.97 -86.31 88.17 119.08 29.84 -179.40 -43.09 173.03 178.10 102.40 114.20 165.80 -4.72 -35.52 -22.66 -35.17 1.98 6.45 
DOCKED: USER  keepresnum = 1 
DOCKED: USER  
DOCKED: REMARK  24 active torsions:
DOCKED: REMARK  status: ('A' for Active; 'I' for Inactive)
DOCKED: REMARK    1  A    between atoms: C_1  and  O_7 
DOCKED: REMARK    2  A    between atoms: C_2  and  O_12 
DOCKED: REMARK    3  A    between atoms: C_3  and  O_17 
DOCKED: REMARK    4  A    between atoms: C_4  and  O_22 
DOCKED: REMARK    5  A    between atoms: C_5  and  O_27 
DOCKED: REMARK    6  A    between atoms: C_6  and  O_32 
DOCKED: REMARK    7  A    between atoms: O_7  and  P_8 
DOCKED: REMARK    8  A    between atoms: P_8  and  O_10 
DOCKED: REMARK    9  A    between atoms: P_8  and  O_11 
DOCKED: REMARK   10  A    between atoms: O_12  and  P_13 
DOCKED: REMARK   11  A    between atoms: P_13  and  O_15 
DOCKED: REMARK   12  A    between atoms: P_13  and  O_16 
DOCKED: REMARK   13  A    between atoms: O_17  and  P_18 
DOCKED: REMARK   14  A    between atoms: P_18  and  O_20 
DOCKED: REMARK   15  A    between atoms: P_18  and  O_21 
DOCKED: REMARK   16  A    between atoms: O_22  and  P_23 
DOCKED: REMARK   17  A    between atoms: P_23  and  O_25 
DOCKED: REMARK   18  A    between atoms: P_23  and  O_26 
DOCKED: REMARK   19  A    between atoms: O_27  and  P_28 
DOCKED: REMARK   20  A    between atoms: P_28  and  O_30 
DOCKED: REMARK   21  A    between atoms: P_28  and  O_31 
DOCKED: REMARK   22  A    between atoms: O_32  and  P_33 
DOCKED: REMARK   23  A    between atoms: P_33  and  O_35 
DOCKED: REMARK   24  A    between atoms: P_33  and  O_36 
DOCKED: USER                              x       y       z     vdW  Elec       q    Type
DOCKED: USER                           _______ _______ _______ _____ _____    ______ ____
DOCKED: ROOT
DOCKED: ATOM      1  C   UNL d   1     -10.995   9.830  -1.636 -0.08 +0.02    +0.194 C 
DOCKED: ATOM      2  C   UNL d   1     -11.384   9.992  -0.165 -0.12 +0.01    +0.194 C 
DOCKED: ATOM      3  C   UNL d   1     -12.835   9.577   0.085 -0.07 +0.02    +0.194 C 
DOCKED: ATOM      4  C   UNL d   1     -13.164   8.185  -0.449 -0.11 +0.05    +0.194 C 
DOCKED: ATOM      5  C   UNL d   1     -12.691   7.941  -1.876 -0.07 +0.05    +0.194 C 
DOCKED: ATOM      6  C   UNL d   1     -11.260   8.412  -2.143 -0.10 +0.04    +0.194 C 
DOCKED: ENDROOT
DOCKED: BRANCH   1   7
DOCKED: ATOM      7  O   UNL d   1      -9.591  10.069  -1.755 -0.10 -0.03    -0.278 OA
DOCKED: BRANCH   7   8
DOCKED: ATOM      8  P   UNL d   1      -9.091  11.142  -2.828 -0.07 +0.05    +0.473 P 
DOCKED: ATOM      9  O   UNL d   1     -10.170  11.939  -3.472 -0.05 -0.04    -0.228 OA
DOCKED: BRANCH   8  10
DOCKED: ATOM     10  O   UNL d   1      -8.044  12.037  -2.023 -0.42 +0.04    -0.303 OA
DOCKED: ATOM     11  H   UNL d   1      -8.366  12.178  -1.113 +0.08 -0.02    +0.222 HD
DOCKED: ENDBRANCH   8  10
DOCKED: BRANCH   8  12
DOCKED: ATOM     12  O   UNL d   1      -8.146  10.330  -3.814 -0.21 -0.08    -0.303 OA
DOCKED: ATOM     13  H   UNL d   1      -8.516   9.455  -4.070 +0.11 +0.07    +0.222 HD
DOCKED: ENDBRANCH   8  12
DOCKED: ENDBRANCH   7   8
DOCKED: ENDBRANCH   1   7
DOCKED: BRANCH   2  14
DOCKED: ATOM     14  O   UNL d   1     -10.529   9.169   0.637 -0.24 +0.01    -0.278 OA
DOCKED: BRANCH  14  15
DOCKED: ATOM     15  P   UNL d   1      -9.252   9.883   1.288 -0.16 -0.12    +0.473 P 
DOCKED: ATOM     16  O   UNL d   1      -7.937   9.188   1.124 -0.32 +0.02    -0.228 OA
DOCKED: BRANCH  15  17
DOCKED: ATOM     17  O   UNL d   1      -9.261  11.345   0.654 -0.37 +0.08    -0.303 OA
DOCKED: ATOM     18  H   UNL d   1      -9.173  11.307  -0.318 +0.08 -0.01    +0.222 HD
DOCKED: ENDBRANCH  15  17
DOCKED: BRANCH  15  19
DOCKED: ATOM     19  O   UNL d   1      -9.687  10.184   2.788 -0.24 +0.17    -0.303 OA
DOCKED: ATOM     20  H   UNL d   1     -10.634  10.002   2.932 -0.27 -0.10    +0.222 HD
DOCKED: ENDBRANCH  15  19
DOCKED: ENDBRANCH  14  15
DOCKED: ENDBRANCH   2  14
DOCKED: BRANCH   6  21
DOCKED: ATOM     21  O   UNL d   1     -11.091   8.435  -3.559 -0.03 -0.06    -0.278 OA
DOCKED: BRANCH  21  22
DOCKED: ATOM     22  P   UNL d   1      -9.891   7.624  -4.227 -0.07 +0.11    +0.473 P 
DOCKED: ATOM     23  O   UNL d   1      -9.334   8.125  -5.517 -0.15 -0.07    -0.228 OA
DOCKED: BRANCH  22  24
DOCKED: ATOM     24  O   UNL d   1      -8.843   7.551  -3.031 -0.23 -0.06    -0.303 OA
DOCKED: ATOM     25  H   UNL d   1      -8.574   8.476  -2.800 +0.15 +0.05    +0.222 HD
DOCKED: ENDBRANCH  22  24
DOCKED: BRANCH  22  26
DOCKED: ATOM     26  O   UNL d   1     -10.477   6.132  -4.246 -0.13 -0.07    -0.303 OA
DOCKED: ATOM     27  H   UNL d   1     -11.238   6.078  -3.632 +0.10 +0.05    +0.222 HD
DOCKED: ENDBRANCH  22  26
DOCKED: ENDBRANCH  21  22
DOCKED: ENDBRANCH   6  21
DOCKED: BRANCH   3  28
DOCKED: ATOM     28  O   UNL d   1     -13.020   9.495   1.493 -0.10 -0.01    -0.278 OA
DOCKED: BRANCH  28  29
DOCKED: ATOM     29  P   UNL d   1     -13.156  10.820   2.366 -0.08 -0.02    +0.473 P 
DOCKED: ATOM     30  O   UNL d   1     -14.471  11.507   2.287 -0.03 -0.00    -0.228 OA
DOCKED: BRANCH  29  31
DOCKED: ATOM     31  O   UNL d   1     -12.716  10.258   3.798 -0.16 +0.03    -0.303 OA
DOCKED: ATOM     32  H   UNL d   1     -12.961  10.920   4.484 -0.24 -0.03    +0.222 HD
DOCKED: ENDBRANCH  29  31
DOCKED: BRANCH  29  33
DOCKED: ATOM     33  O   UNL d   1     -11.880  11.654   1.908 -0.09 +0.04    -0.303 OA
DOCKED: ATOM     34  H   UNL d   1     -11.176  11.027   1.609 +0.10 -0.04    +0.222 HD
DOCKED: ENDBRANCH  29  33
DOCKED: ENDBRANCH  28  29
DOCKED: ENDBRANCH   3  28
DOCKED: BRANCH   5  35
DOCKED: ATOM     35  O   UNL d   1     -12.707   6.525  -2.051 -0.12 -0.12    -0.278 OA
DOCKED: BRANCH  35  36
DOCKED: ATOM     36  P   UNL d   1     -13.371   5.883  -3.352 -0.04 +0.32    +0.473 P 
DOCKED: ATOM     37  O   UNL d   1     -12.916   4.499  -3.692 -0.27 -0.08    -0.228 OA
DOCKED: BRANCH  36  38
DOCKED: ATOM     38  O   UNL d   1     -14.923   5.998  -3.016 -0.52 -0.47    -0.303 OA
DOCKED: ATOM     39  H   UNL d   1     -15.049   6.657  -2.299 +0.03 +0.21    +0.222 HD
DOCKED: ENDBRANCH  36  38
DOCKED: BRANCH  36  40
DOCKED: ATOM     40  O   UNL d   1     -13.132   7.011  -4.448 -0.02 -0.10    -0.303 OA
DOCKED: ATOM     41  H   UNL d   1     -12.206   7.009  -4.777 +0.05 +0.06    +0.222 HD
DOCKED: ENDBRANCH  36  40
DOCKED: ENDBRANCH  35  36
DOCKED: ENDBRANCH   5  35
DOCKED: BRANCH   4  42
DOCKED: ATOM     42  O   UNL d   1     -14.591   8.069  -0.453 -0.04 -0.08    -0.278 OA
DOCKED: BRANCH  42  43
DOCKED: ATOM     43  P   UNL d   1     -15.296   7.187   0.674 -0.06 +0.16    +0.473 P 
DOCKED: ATOM     44  O   UNL d   1     -16.561   6.490   0.309 -0.07 -0.11    -0.228 OA
DOCKED: BRANCH  43  45
DOCKED: ATOM     45  O   UNL d   1     -14.127   6.213   1.138 -0.46 -0.13    -0.303 OA
DOCKED: ATOM     46  H   UNL d   1     -13.627   5.864   0.372 +0.09 +0.12    +0.222 HD
DOCKED: ENDBRANCH  43  45
DOCKED: BRANCH  43  47
DOCKED: ATOM     47  O   UNL d   1     -15.395   8.193   1.918 -0.03 -0.05    -0.303 OA
DOCKED: ATOM     48  H   UNL d   1     -15.002   9.055   1.668 +0.04 +0.03    +0.222 HD
DOCKED: ENDBRANCH  43  47
DOCKED: ENDBRANCH  42  43
DOCKED: ENDBRANCH   4  42
DOCKED: TORSDOF 24
DOCKED: TER
DOCKED: ENDMDL
________________________________________________________________________________


	BEGINNING GENETIC ALGORITHM DOCKING 41 of 100
Run: 41 Seed: 2099322429 1196901968 [ Run 41 of 100 GA/GALS ]
Beginning LAMARCKIAN GENETIC ALGORITHM (LGA), with a maximum of 25000000 energy evaluations.

Final-Value: -17.879


	FINAL GENETIC ALGORITHM DOCKED STATE
	_______________________________________________


Detailed state:  trans -15.249 -7.204 -9.344 quatxyzw 0.146763 0.384227 -0.589313 0.695371 center 0.035 0.082 -0.065 ntor 24 -148.6590 18.6654 1.5041 26.3419 135.6724 73.4033 -146.2714 70.9694 94.3501 110.6615 -27.7823 -81.6186 -150.0739 168.4250 45.7922 -142.5813 84.0880 170.0075 41.4572 -16.7384 -177.7370 -32.9490 9.7830 -31.9638
State:	-15.249  -7.204  -9.344   0.204  0.535 -0.820 91.886   -148.66   18.67    1.50   26.34  135.67   73.40 -146.27   70.97   94.35  110.66  -27.78  -81.62 -150.07  168.42   45.79 -142.58   84.09  170.01   41.46  -16.74 -177.74  -32.95    9.78  -31.96

DOCKED: MODEL       41
DOCKED: USER    Run = 41
DOCKED: USER    DPF = D:/Protein_go_brrr/autodock/final/AncB/IHP/dock.dpf
DOCKED: USER  
DOCKED: USER    Estimated Free Energy of Binding    =   +2.43 kcal/mol  [=(1)+(2)+(3)-(4)]
DOCKED: USER    
DOCKED: USER    (1) Final Intermolecular Energy     =   -4.73 kcal/mol
DOCKED: USER        vdW + Hbond + desolv Energy     =   -4.42 kcal/mol
DOCKED: USER        Electrostatic Energy            =   -0.32 kcal/mol
DOCKED: USER    (2) Final Total Internal Energy     =  -13.15 kcal/mol
DOCKED: USER    (3) Torsional Free Energy           =   +7.16 kcal/mol
DOCKED: USER    (4) Unbound System's Energy  [=(2)] =  -13.15 kcal/mol
DOCKED: USER    
DOCKED: USER    
DOCKED: USER    NEWDPF move IHP_ideal_opt.pdbqt
DOCKED: USER    NEWDPF about 0.035000 0.082000 -0.065000
DOCKED: USER    NEWDPF tran0 -15.248743 -7.204490 -9.344389
DOCKED: USER    NEWDPF quaternion0 0.146763 0.384227 -0.589313 0.695371
DOCKED: USER    NEWDPF axisangle0 0.204220 0.534650 -0.820026 91.886496
DOCKED: USER    NEWDPF quat0 0.204220 0.534650 -0.820026 91.886496
DOCKED: USER    NEWDPF dihe0 -148.66 18.67 1.50 26.34 135.67 73.40 -146.27 70.97 94.35 110.66 -27.78 -81.62 -150.07 168.42 45.79 -142.58 84.09 170.01 41.46 -16.74 -177.74 -32.95 9.78 -31.96 
DOCKED: USER  keepresnum = 1 
DOCKED: USER  
DOCKED: REMARK  24 active torsions:
DOCKED: REMARK  status: ('A' for Active; 'I' for Inactive)
DOCKED: REMARK    1  A    between atoms: C_1  and  O_7 
DOCKED: REMARK    2  A    between atoms: C_2  and  O_12 
DOCKED: REMARK    3  A    between atoms: C_3  and  O_17 
DOCKED: REMARK    4  A    between atoms: C_4  and  O_22 
DOCKED: REMARK    5  A    between atoms: C_5  and  O_27 
DOCKED: REMARK    6  A    between atoms: C_6  and  O_32 
DOCKED: REMARK    7  A    between atoms: O_7  and  P_8 
DOCKED: REMARK    8  A    between atoms: P_8  and  O_10 
DOCKED: REMARK    9  A    between atoms: P_8  and  O_11 
DOCKED: REMARK   10  A    between atoms: O_12  and  P_13 
DOCKED: REMARK   11  A    between atoms: P_13  and  O_15 
DOCKED: REMARK   12  A    between atoms: P_13  and  O_16 
DOCKED: REMARK   13  A    between atoms: O_17  and  P_18 
DOCKED: REMARK   14  A    between atoms: P_18  and  O_20 
DOCKED: REMARK   15  A    between atoms: P_18  and  O_21 
DOCKED: REMARK   16  A    between atoms: O_22  and  P_23 
DOCKED: REMARK   17  A    between atoms: P_23  and  O_25 
DOCKED: REMARK   18  A    between atoms: P_23  and  O_26 
DOCKED: REMARK   19  A    between atoms: O_27  and  P_28 
DOCKED: REMARK   20  A    between atoms: P_28  and  O_30 
DOCKED: REMARK   21  A    between atoms: P_28  and  O_31 
DOCKED: REMARK   22  A    between atoms: O_32  and  P_33 
DOCKED: REMARK   23  A    between atoms: P_33  and  O_35 
DOCKED: REMARK   24  A    between atoms: P_33  and  O_36 
DOCKED: USER                              x       y       z     vdW  Elec       q    Type
DOCKED: USER                           _______ _______ _______ _____ _____    ______ ____
DOCKED: ROOT
DOCKED: ATOM      1  C   UNL d   1     -15.168  -6.466  -7.785 -0.03 +0.06    +0.194 C 
DOCKED: ATOM      2  C   UNL d   1     -14.351  -7.749  -7.952 -0.10 +0.08    +0.194 C 
DOCKED: ATOM      3  C   UNL d   1     -15.132  -8.822  -8.713 -0.08 +0.12    +0.194 C 
DOCKED: ATOM      4  C   UNL d   1     -15.703  -8.325 -10.038 -0.07 +0.18    +0.194 C 
DOCKED: ATOM      5  C   UNL d   1     -16.428  -6.989  -9.939 -0.03 +0.12    +0.194 C 
DOCKED: ATOM      6  C   UNL d   1     -15.675  -5.934  -9.126 -0.02 +0.08    +0.194 C 
DOCKED: ENDROOT
DOCKED: BRANCH   1   7
DOCKED: ATOM      7  O   UNL d   1     -14.316  -5.464  -7.224 -0.04 -0.06    -0.278 OA
DOCKED: BRANCH   7   8
DOCKED: ATOM      8  P   UNL d   1     -14.067  -5.476  -5.646 -0.11 +0.04    +0.473 P 
DOCKED: ATOM      9  O   UNL d   1     -14.904  -4.522  -4.869 -0.19 +0.02    -0.228 OA
DOCKED: BRANCH   8  10
DOCKED: ATOM     10  O   UNL d   1     -14.298  -6.998  -5.229 -0.20 -0.04    -0.303 OA
DOCKED: ATOM     11  H   UNL d   1     -13.736  -7.576  -5.779 +0.08 +0.03    +0.222 HD
DOCKED: ENDBRANCH   8  10
DOCKED: BRANCH   8  12
DOCKED: ATOM     12  O   UNL d   1     -12.495  -5.319  -5.475 -0.10 -0.01    -0.303 OA
DOCKED: ATOM     13  H   UNL d   1     -11.987  -5.655  -6.247 -0.37 -0.02    +0.222 HD
DOCKED: ENDBRANCH   8  12
DOCKED: ENDBRANCH   7   8
DOCKED: ENDBRANCH   1   7
DOCKED: BRANCH   2  14
DOCKED: ATOM     14  O   UNL d   1     -13.156  -7.449  -8.683 -0.14 -0.17    -0.278 OA
DOCKED: BRANCH  14  15
DOCKED: ATOM     15  P   UNL d   1     -11.772  -7.627  -7.897 -0.25 +0.17    +0.473 P 
DOCKED: ATOM     16  O   UNL d   1     -10.757  -6.542  -8.069 -0.31 -0.06    -0.228 OA
DOCKED: BRANCH  15  17
DOCKED: ATOM     17  O   UNL d   1     -12.212  -7.826  -6.379 -0.10 +0.00    -0.303 OA
DOCKED: ATOM     18  H   UNL d   1     -12.202  -6.977  -5.896 -0.36 -0.02    +0.222 HD
DOCKED: ENDBRANCH  15  17
DOCKED: BRANCH  15  19
DOCKED: ATOM     19  O   UNL d   1     -11.283  -9.091  -8.281 -0.68 -0.19    -0.303 OA
DOCKED: ATOM     20  H   UNL d   1     -12.034  -9.701  -8.408 +0.07 +0.13    +0.222 HD
DOCKED: ENDBRANCH  15  19
DOCKED: ENDBRANCH  14  15
DOCKED: ENDBRANCH   2  14
DOCKED: BRANCH   6  21
DOCKED: ATOM     21  O   UNL d   1     -16.606  -4.893  -8.838 +0.00 -0.07    -0.278 OA
DOCKED: BRANCH  21  22
DOCKED: ATOM     22  P   UNL d   1     -17.650  -5.072  -7.645 +0.02 +0.08    +0.473 P 
DOCKED: ATOM     23  O   UNL d   1     -17.156  -4.917  -6.247 -0.02 -0.02    -0.228 OA
DOCKED: BRANCH  22  24
DOCKED: ATOM     24  O   UNL d   1     -18.800  -4.054  -8.064 +0.00 -0.04    -0.303 OA
DOCKED: ATOM     25  H   UNL d   1     -19.257  -4.418  -8.865 +0.00 +0.04    +0.222 HD
DOCKED: ENDBRANCH  22  24
DOCKED: BRANCH  22  26
DOCKED: ATOM     26  O   UNL d   1     -18.314  -6.487  -8.004 +0.00 -0.07    -0.303 OA
DOCKED: ATOM     27  H   UNL d   1     -19.182  -6.336  -8.430 +0.00 +0.05    +0.222 HD
DOCKED: ENDBRANCH  22  26
DOCKED: ENDBRANCH  21  22
DOCKED: ENDBRANCH   6  21
DOCKED: BRANCH   3  28
DOCKED: ATOM     28  O   UNL d   1     -14.216  -9.853  -9.059 -0.11 -0.21    -0.278 OA
DOCKED: BRANCH  28  29
DOCKED: ATOM     29  P   UNL d   1     -13.748 -10.914  -7.968 -0.11 +0.20    +0.473 P 
DOCKED: ATOM     30  O   UNL d   1     -12.602 -11.774  -8.360 -0.18 -0.11    -0.228 OA
DOCKED: BRANCH  29  31
DOCKED: ATOM     31  O   UNL d   1     -13.533  -9.946  -6.712 -0.16 -0.06    -0.303 OA
DOCKED: ATOM     32  H   UNL d   1     -12.584  -9.684  -6.676 -0.33 +0.00    +0.222 HD
DOCKED: ENDBRANCH  29  31
DOCKED: BRANCH  29  33
DOCKED: ATOM     33  O   UNL d   1     -15.113 -11.653  -7.613 -0.03 -0.11    -0.303 OA
DOCKED: ATOM     34  H   UNL d   1     -14.973 -12.630  -7.666 +0.04 +0.07    +0.222 HD
DOCKED: ENDBRANCH  29  33
DOCKED: ENDBRANCH  28  29
DOCKED: ENDBRANCH   3  28
DOCKED: BRANCH   5  35
DOCKED: ATOM     35  O   UNL d   1     -16.523  -6.500 -11.276 -0.05 -0.20    -0.278 OA
DOCKED: BRANCH  35  36
DOCKED: ATOM     36  P   UNL d   1     -17.851  -5.771 -11.774 +0.01 +0.19    +0.473 P 
DOCKED: ATOM     37  O   UNL d   1     -17.651  -4.437 -12.420 +0.00 -0.08    -0.228 OA
DOCKED: BRANCH  36  38
DOCKED: ATOM     38  O   UNL d   1     -18.489  -6.873 -12.730 +0.00 -0.12    -0.303 OA
DOCKED: ATOM     39  H   UNL d   1     -18.160  -7.759 -12.464 +0.01 +0.11    +0.222 HD
DOCKED: ENDBRANCH  36  38
DOCKED: BRANCH  36  40
DOCKED: ATOM     40  O   UNL d   1     -18.769  -5.813 -10.475 +0.00 -0.09    -0.303 OA
DOCKED: ATOM     41  H   UNL d   1     -18.424  -5.227  -9.766 +0.00 +0.06    +0.222 HD
DOCKED: ENDBRANCH  36  40
DOCKED: ENDBRANCH  35  36
DOCKED: ENDBRANCH   5  35
DOCKED: BRANCH   4  42
DOCKED: ATOM     42  O   UNL d   1     -16.665  -9.295 -10.466 -0.04 -0.21    -0.278 OA
DOCKED: BRANCH  42  43
DOCKED: ATOM     43  P   UNL d   1     -16.791  -9.623 -12.022 -0.03 +0.48    +0.473 P 
DOCKED: ATOM     44  O   UNL d   1     -18.151  -9.916 -12.554 -0.01 -0.12    -0.228 OA
DOCKED: BRANCH  43  45
DOCKED: ATOM     45  O   UNL d   1     -16.083  -8.370 -12.700 +0.03 -0.56    -0.303 OA
DOCKED: ATOM     46  H   UNL d   1     -16.738  -7.726 -13.035 +0.01 +0.23    +0.222 HD
DOCKED: ENDBRANCH  43  45
DOCKED: BRANCH  43  47
DOCKED: ATOM     47  O   UNL d   1     -15.699 -10.775 -12.243 -0.43 -0.41    -0.303 OA
DOCKED: ATOM     48  H   UNL d   1     -16.141 -11.648 -12.217 +0.01 +0.17    +0.222 HD
DOCKED: ENDBRANCH  43  47
DOCKED: ENDBRANCH  42  43
DOCKED: ENDBRANCH   4  42
DOCKED: TORSDOF 24
DOCKED: TER
DOCKED: ENDMDL
________________________________________________________________________________


	BEGINNING GENETIC ALGORITHM DOCKING 42 of 100
Run: 42 Seed: 567912573 1715956701 [ Run 42 of 100 GA/GALS ]
Beginning LAMARCKIAN GENETIC ALGORITHM (LGA), with a maximum of 25000000 energy evaluations.

Final-Value: -16.858


	FINAL GENETIC ALGORITHM DOCKED STATE
	_______________________________________________


Detailed state:  trans -0.518 17.029 -13.062 quatxyzw 0.000359 0.442419 -0.452869 -0.774064 center 0.035 0.082 -0.065 ntor 24 26.9178 39.5724 179.9277 -29.3578 15.4006 -138.3589 -131.9325 -90.8926 138.4150 -1.7798 55.9160 -123.1391 -138.8515 180.0000 -16.6907 -148.2461 -156.9639 -79.7369 17.4196 14.8295 -18.3134 5.8561 5.2384 -179.6400
State:	 -0.518  17.029 -13.062   0.001  0.699 -0.715 -78.560     26.92   39.57  179.93  -29.36   15.40 -138.36 -131.93  -90.89  138.41   -1.78   55.92 -123.14 -138.85  180.00  -16.69 -148.25 -156.96  -79.74   17.42   14.83  -18.31    5.86    5.24 -179.64

DOCKED: MODEL       42
DOCKED: USER    Run = 42
DOCKED: USER    DPF = D:/Protein_go_brrr/autodock/final/AncB/IHP/dock.dpf
DOCKED: USER  
DOCKED: USER    Estimated Free Energy of Binding    =   +3.18 kcal/mol  [=(1)+(2)+(3)-(4)]
DOCKED: USER    
DOCKED: USER    (1) Final Intermolecular Energy     =   -3.98 kcal/mol
DOCKED: USER        vdW + Hbond + desolv Energy     =   -3.54 kcal/mol
DOCKED: USER        Electrostatic Energy            =   -0.45 kcal/mol
DOCKED: USER    (2) Final Total Internal Energy     =  -12.87 kcal/mol
DOCKED: USER    (3) Torsional Free Energy           =   +7.16 kcal/mol
DOCKED: USER    (4) Unbound System's Energy  [=(2)] =  -12.87 kcal/mol
DOCKED: USER    
DOCKED: USER    
DOCKED: USER    NEWDPF move IHP_ideal_opt.pdbqt
DOCKED: USER    NEWDPF about 0.035000 0.082000 -0.065000
DOCKED: USER    NEWDPF tran0 -0.517502 17.028554 -13.061802
DOCKED: USER    NEWDPF quaternion0 0.000359 0.442419 -0.452869 -0.774064
DOCKED: USER    NEWDPF axisangle0 0.000567 0.698805 -0.715312 -78.559530
DOCKED: USER    NEWDPF quat0 0.000567 0.698805 -0.715312 -78.559530
DOCKED: USER    NEWDPF dihe0 26.92 39.57 179.93 -29.36 15.40 -138.36 -131.93 -90.89 138.41 -1.78 55.92 -123.14 -138.85 180.00 -16.69 -148.25 -156.96 -79.74 17.42 14.83 -18.31 5.86 5.24 -179.64 
DOCKED: USER  keepresnum = 1 
DOCKED: USER  
DOCKED: REMARK  24 active torsions:
DOCKED: REMARK  status: ('A' for Active; 'I' for Inactive)
DOCKED: REMARK    1  A    between atoms: C_1  and  O_7 
DOCKED: REMARK    2  A    between atoms: C_2  and  O_12 
DOCKED: REMARK    3  A    between atoms: C_3  and  O_17 
DOCKED: REMARK    4  A    between atoms: C_4  and  O_22 
DOCKED: REMARK    5  A    between atoms: C_5  and  O_27 
DOCKED: REMARK    6  A    between atoms: C_6  and  O_32 
DOCKED: REMARK    7  A    between atoms: O_7  and  P_8 
DOCKED: REMARK    8  A    between atoms: P_8  and  O_10 
DOCKED: REMARK    9  A    between atoms: P_8  and  O_11 
DOCKED: REMARK   10  A    between atoms: O_12  and  P_13 
DOCKED: REMARK   11  A    between atoms: P_13  and  O_15 
DOCKED: REMARK   12  A    between atoms: P_13  and  O_16 
DOCKED: REMARK   13  A    between atoms: O_17  and  P_18 
DOCKED: REMARK   14  A    between atoms: P_18  and  O_20 
DOCKED: REMARK   15  A    between atoms: P_18  and  O_21 
DOCKED: REMARK   16  A    between atoms: O_22  and  P_23 
DOCKED: REMARK   17  A    between atoms: P_23  and  O_25 
DOCKED: REMARK   18  A    between atoms: P_23  and  O_26 
DOCKED: REMARK   19  A    between atoms: O_27  and  P_28 
DOCKED: REMARK   20  A    between atoms: P_28  and  O_30 
DOCKED: REMARK   21  A    between atoms: P_28  and  O_31 
DOCKED: REMARK   22  A    between atoms: O_32  and  P_33 
DOCKED: REMARK   23  A    between atoms: P_33  and  O_35 
DOCKED: REMARK   24  A    between atoms: P_33  and  O_36 
DOCKED: USER                              x       y       z     vdW  Elec       q    Type
DOCKED: USER                           _______ _______ _______ _____ _____    ______ ____
DOCKED: ROOT
DOCKED: ATOM      1  C   UNL d   1      -0.350  15.309 -13.084 -0.12 +0.04    +0.194 C 
DOCKED: ATOM      2  C   UNL d   1      -1.414  15.858 -12.131 -0.07 +0.03    +0.194 C 
DOCKED: ATOM      3  C   UNL d   1      -0.913  17.085 -11.367 -0.06 +0.04    +0.194 C 
DOCKED: ATOM      4  C   UNL d   1      -0.340  18.168 -12.278 -0.02 +0.04    +0.194 C 
DOCKED: ATOM      5  C   UNL d   1       0.641  17.647 -13.321 -0.06 +0.04    +0.194 C 
DOCKED: ATOM      6  C   UNL d   1       0.166  16.384 -14.042 -0.08 +0.04    +0.194 C 
DOCKED: ENDROOT
DOCKED: BRANCH   1   7
DOCKED: ATOM      7  O   UNL d   1      -0.949  14.282 -13.878 -0.08 -0.06    -0.278 OA
DOCKED: BRANCH   7   8
DOCKED: ATOM      8  P   UNL d   1      -0.594  12.761 -13.545 -0.14 +0.12    +0.473 P 
DOCKED: ATOM      9  O   UNL d   1       0.624  12.235 -14.219 -0.31 -0.07    -0.228 OA
DOCKED: BRANCH   8  10
DOCKED: ATOM     10  O   UNL d   1      -0.494  12.727 -11.953 -0.24 -0.04    -0.303 OA
DOCKED: ATOM     11  H   UNL d   1       0.332  12.281 -11.686 -0.38 -0.06    +0.222 HD
DOCKED: ENDBRANCH   8  10
DOCKED: BRANCH   8  12
DOCKED: ATOM     12  O   UNL d   1      -1.937  11.955 -13.811 -0.08 -0.10    -0.303 OA
DOCKED: ATOM     13  H   UNL d   1      -2.700  12.538 -14.027 +0.05 +0.06    +0.222 HD
DOCKED: ENDBRANCH   8  12
DOCKED: ENDBRANCH   7   8
DOCKED: ENDBRANCH   1   7
DOCKED: BRANCH   2  14
DOCKED: ATOM     14  O   UNL d   1      -2.571  16.234 -12.890 -0.01 -0.04    -0.278 OA
DOCKED: BRANCH  14  15
DOCKED: ATOM     15  P   UNL d   1      -3.990  16.036 -12.176 +0.02 +0.05    +0.473 P 
DOCKED: ATOM     16  O   UNL d   1      -4.998  15.201 -12.902 -0.00 -0.04    -0.228 OA
DOCKED: BRANCH  15  17
DOCKED: ATOM     17  O   UNL d   1      -3.624  15.452 -10.739 -0.08 +0.05    -0.303 OA
DOCKED: ATOM     18  H   UNL d   1      -3.404  16.169 -10.114 +0.00 -0.06    +0.222 HD
DOCKED: ENDBRANCH  15  17
DOCKED: BRANCH  15  19
DOCKED: ATOM     19  O   UNL d   1      -4.459  17.512 -11.810 +0.00 -0.03    -0.303 OA
DOCKED: ATOM     20  H   UNL d   1      -4.139  17.784 -10.930 +0.02 +0.02    +0.222 HD
DOCKED: ENDBRANCH  15  19
DOCKED: ENDBRANCH  14  15
DOCKED: ENDBRANCH   2  14
DOCKED: BRANCH   6  21
DOCKED: ATOM     21  O   UNL d   1       1.301  15.838 -14.710 -0.04 -0.08    -0.278 OA
DOCKED: BRANCH  21  22
DOCKED: ATOM     22  P   UNL d   1       1.276  15.655 -16.294 -0.05 +0.12    +0.473 P 
DOCKED: ATOM     23  O   UNL d   1       0.195  16.336 -17.065 -0.02 -0.05    -0.228 OA
DOCKED: BRANCH  22  24
DOCKED: ATOM     24  O   UNL d   1       2.755  16.086 -16.695 -0.07 -0.08    -0.303 OA
DOCKED: ATOM     25  H   UNL d   1       2.945  16.964 -16.275 +0.02 +0.05    +0.222 HD
DOCKED: ENDBRANCH  22  24
DOCKED: BRANCH  22  26
DOCKED: ATOM     26  O   UNL d   1       1.345  14.060 -16.439 -0.09 -0.10    -0.303 OA
DOCKED: ATOM     27  H   UNL d   1       0.693  13.654 -15.832 +0.05 +0.07    +0.222 HD
DOCKED: ENDBRANCH  22  26
DOCKED: ENDBRANCH  21  22
DOCKED: ENDBRANCH   6  21
DOCKED: BRANCH   3  28
DOCKED: ATOM     28  O   UNL d   1      -2.035  17.682 -10.731 -0.03 -0.06    -0.278 OA
DOCKED: BRANCH  28  29
DOCKED: ATOM     29  P   UNL d   1      -2.114  17.756  -9.142 -0.05 +0.23    +0.473 P 
DOCKED: ATOM     30  O   UNL d   1      -3.390  18.278  -8.588 -0.10 -0.05    -0.228 OA
DOCKED: BRANCH  29  31
DOCKED: ATOM     31  O   UNL d   1      -1.725  16.248  -8.773 -0.36 -0.08    -0.303 OA
DOCKED: ATOM     32  H   UNL d   1      -2.523  15.681  -8.886 -0.50 -0.30    +0.222 HD
DOCKED: ENDBRANCH  29  31
DOCKED: BRANCH  29  33
DOCKED: ATOM     33  O   UNL d   1      -0.789  18.560  -8.779 -0.45 -0.27    -0.303 OA
DOCKED: ATOM     34  H   UNL d   1      -0.091  18.347  -9.446 +0.03 +0.14    +0.222 HD
DOCKED: ENDBRANCH  29  33
DOCKED: ENDBRANCH  28  29
DOCKED: ENDBRANCH   3  28
DOCKED: BRANCH   5  35
DOCKED: ATOM     35  O   UNL d   1       0.745  18.676 -14.303 -0.02 -0.05    -0.278 OA
DOCKED: BRANCH  35  36
DOCKED: ATOM     36  P   UNL d   1       2.172  19.097 -14.879 -0.02 +0.08    +0.473 P 
DOCKED: ATOM     37  O   UNL d   1       2.636  20.471 -14.512 -0.01 -0.03    -0.228 OA
DOCKED: BRANCH  36  38
DOCKED: ATOM     38  O   UNL d   1       3.102  17.925 -14.334 -0.08 -0.06    -0.303 OA
DOCKED: ATOM     39  H   UNL d   1       2.864  17.088 -14.789 +0.03 +0.06    +0.222 HD
DOCKED: ENDBRANCH  36  38
DOCKED: BRANCH  36  40
DOCKED: ATOM     40  O   UNL d   1       2.020  18.776 -16.429 -0.01 -0.05    -0.303 OA
DOCKED: ATOM     41  H   UNL d   1       1.576  17.912 -16.581 +0.01 +0.04    +0.222 HD
DOCKED: ENDBRANCH  36  40
DOCKED: ENDBRANCH  35  36
DOCKED: ENDBRANCH   5  35
DOCKED: BRANCH   4  42
DOCKED: ATOM     42  O   UNL d   1       0.381  19.077 -11.440 -0.01 -0.06    -0.278 OA
DOCKED: BRANCH  42  43
DOCKED: ATOM     43  P   UNL d   1       1.734  18.586 -10.754 -0.02 +0.13    +0.473 P 
DOCKED: ATOM     44  O   UNL d   1       1.818  17.155 -10.346 -0.14 -0.08    -0.228 OA
DOCKED: BRANCH  43  45
DOCKED: ATOM     45  O   UNL d   1       2.840  19.027 -11.809 -0.03 -0.05    -0.303 OA
DOCKED: ATOM     46  H   UNL d   1       2.445  19.218 -12.683 +0.03 +0.04    +0.222 HD
DOCKED: ENDBRANCH  43  45
DOCKED: BRANCH  43  47
DOCKED: ATOM     47  O   UNL d   1       1.959  19.654  -9.580 -0.01 -0.09    -0.303 OA
DOCKED: ATOM     48  H   UNL d   1       1.166  19.674  -9.006 +0.02 +0.09    +0.222 HD
DOCKED: ENDBRANCH  43  47
DOCKED: ENDBRANCH  42  43
DOCKED: ENDBRANCH   4  42
DOCKED: TORSDOF 24
DOCKED: TER
DOCKED: ENDMDL
________________________________________________________________________________


	BEGINNING GENETIC ALGORITHM DOCKING 43 of 100
Run: 43 Seed: 811702726 1646198705 [ Run 43 of 100 GA/GALS ]
Beginning LAMARCKIAN GENETIC ALGORITHM (LGA), with a maximum of 25000000 energy evaluations.

Final-Value: -17.943


	FINAL GENETIC ALGORITHM DOCKED STATE
	_______________________________________________


Detailed state:  trans -17.212 6.936 -1.061 quatxyzw 0.724881 -0.451604 -0.224491 0.469261 center 0.035 0.082 -0.065 ntor 24 -112.0425 -2.7486 70.4377 55.9086 35.6987 -124.5324 -107.2101 8.8349 15.6825 129.4659 20.8770 -180.0000 93.2678 125.0435 -8.5821 -178.2414 -47.0989 171.3868 -23.6735 -8.4506 147.8024 16.0647 -30.0942 -12.3373
State:	-17.212   6.936  -1.061   0.821 -0.511 -0.254 124.027   -112.04   -2.75   70.44   55.91   35.70 -124.53 -107.21    8.83   15.68  129.47   20.88 -180.00   93.27  125.04   -8.58 -178.24  -47.10  171.39  -23.67   -8.45  147.80   16.06  -30.09  -12.34

DOCKED: MODEL       43
DOCKED: USER    Run = 43
DOCKED: USER    DPF = D:/Protein_go_brrr/autodock/final/AncB/IHP/dock.dpf
DOCKED: USER  
DOCKED: USER    Estimated Free Energy of Binding    =   +4.80 kcal/mol  [=(1)+(2)+(3)-(4)]
DOCKED: USER    
DOCKED: USER    (1) Final Intermolecular Energy     =   -2.36 kcal/mol
DOCKED: USER        vdW + Hbond + desolv Energy     =   -2.33 kcal/mol
DOCKED: USER        Electrostatic Energy            =   -0.03 kcal/mol
DOCKED: USER    (2) Final Total Internal Energy     =  -15.59 kcal/mol
DOCKED: USER    (3) Torsional Free Energy           =   +7.16 kcal/mol
DOCKED: USER    (4) Unbound System's Energy  [=(2)] =  -15.59 kcal/mol
DOCKED: USER    
DOCKED: USER    
DOCKED: USER    NEWDPF move IHP_ideal_opt.pdbqt
DOCKED: USER    NEWDPF about 0.035000 0.082000 -0.065000
DOCKED: USER    NEWDPF tran0 -17.212024 6.936445 -1.061026
DOCKED: USER    NEWDPF quaternion0 0.724881 -0.451604 -0.224491 0.469261
DOCKED: USER    NEWDPF axisangle0 0.820874 -0.511408 -0.254220 124.027354
DOCKED: USER    NEWDPF quat0 0.820874 -0.511408 -0.254220 124.027354
DOCKED: USER    NEWDPF dihe0 -112.04 -2.75 70.44 55.91 35.70 -124.53 -107.21 8.83 15.68 129.47 20.88 -180.00 93.27 125.04 -8.58 -178.24 -47.10 171.39 -23.67 -8.45 147.80 16.06 -30.09 -12.34 
DOCKED: USER  keepresnum = 1 
DOCKED: USER  
DOCKED: REMARK  24 active torsions:
DOCKED: REMARK  status: ('A' for Active; 'I' for Inactive)
DOCKED: REMARK    1  A    between atoms: C_1  and  O_7 
DOCKED: REMARK    2  A    between atoms: C_2  and  O_12 
DOCKED: REMARK    3  A    between atoms: C_3  and  O_17 
DOCKED: REMARK    4  A    between atoms: C_4  and  O_22 
DOCKED: REMARK    5  A    between atoms: C_5  and  O_27 
DOCKED: REMARK    6  A    between atoms: C_6  and  O_32 
DOCKED: REMARK    7  A    between atoms: O_7  and  P_8 
DOCKED: REMARK    8  A    between atoms: P_8  and  O_10 
DOCKED: REMARK    9  A    between atoms: P_8  and  O_11 
DOCKED: REMARK   10  A    between atoms: O_12  and  P_13 
DOCKED: REMARK   11  A    between atoms: P_13  and  O_15 
DOCKED: REMARK   12  A    between atoms: P_13  and  O_16 
DOCKED: REMARK   13  A    between atoms: O_17  and  P_18 
DOCKED: REMARK   14  A    between atoms: P_18  and  O_20 
DOCKED: REMARK   15  A    between atoms: P_18  and  O_21 
DOCKED: REMARK   16  A    between atoms: O_22  and  P_23 
DOCKED: REMARK   17  A    between atoms: P_23  and  O_25 
DOCKED: REMARK   18  A    between atoms: P_23  and  O_26 
DOCKED: REMARK   19  A    between atoms: O_27  and  P_28 
DOCKED: REMARK   20  A    between atoms: P_28  and  O_30 
DOCKED: REMARK   21  A    between atoms: P_28  and  O_31 
DOCKED: REMARK   22  A    between atoms: O_32  and  P_33 
DOCKED: REMARK   23  A    between atoms: P_33  and  O_35 
DOCKED: REMARK   24  A    between atoms: P_33  and  O_36 
DOCKED: USER                              x       y       z     vdW  Elec       q    Type
DOCKED: USER                           _______ _______ _______ _____ _____    ______ ____
DOCKED: ROOT
DOCKED: ATOM      1  C   UNL d   1     -15.750   7.213  -1.939 -0.05 +0.12    +0.194 C 
DOCKED: ATOM      2  C   UNL d   1     -15.704   7.564  -0.450 -0.05 +0.08    +0.194 C 
DOCKED: ATOM      3  C   UNL d   1     -16.970   8.296  -0.001 -0.01 +0.05    +0.194 C 
DOCKED: ATOM      4  C   UNL d   1     -18.255   7.565  -0.382 -0.01 +0.05    +0.194 C 
DOCKED: ATOM      5  C   UNL d   1     -18.295   7.095  -1.831 -0.03 +0.08    +0.194 C 
DOCKED: ATOM      6  C   UNL d   1     -17.006   6.418  -2.299 -0.04 +0.16    +0.194 C 
DOCKED: ENDROOT
DOCKED: BRANCH   1   7
DOCKED: ATOM      7  O   UNL d   1     -14.622   6.388  -2.238 -0.51 -0.29    -0.278 OA
DOCKED: BRANCH   7   8
DOCKED: ATOM      8  P   UNL d   1     -13.940   6.526  -3.676 -0.02 +0.29    +0.473 P 
DOCKED: ATOM      9  O   UNL d   1     -12.462   6.352  -3.693 -0.08 -0.08    -0.228 OA
DOCKED: BRANCH   8  10
DOCKED: ATOM     10  O   UNL d   1     -14.709   5.454  -4.573 -0.36 -0.26    -0.303 OA
DOCKED: ATOM     11  H   UNL d   1     -15.485   5.873  -4.991 +0.02 +0.14    +0.222 HD
DOCKED: ENDBRANCH   8  10
DOCKED: BRANCH   8  12
DOCKED: ATOM     12  O   UNL d   1     -14.484   7.900  -4.260 -0.01 -0.10    -0.303 OA
DOCKED: ATOM     13  H   UNL d   1     -15.459   7.996  -4.174 +0.01 +0.08    +0.222 HD
DOCKED: ENDBRANCH   8  12
DOCKED: ENDBRANCH   7   8
DOCKED: ENDBRANCH   1   7
DOCKED: BRANCH   2  14
DOCKED: ATOM     14  O   UNL d   1     -15.581   6.355   0.310 -0.09 -0.15    -0.278 OA
DOCKED: BRANCH  14  15
DOCKED: ATOM     15  P   UNL d   1     -14.323   6.254   1.295 -0.08 +0.18    +0.473 P 
DOCKED: ATOM     16  O   UNL d   1     -14.185   4.988   2.082 -0.31 -0.07    -0.228 OA
DOCKED: BRANCH  15  17
DOCKED: ATOM     17  O   UNL d   1     -13.069   6.535   0.353 -0.68 -0.16    -0.303 OA
DOCKED: ATOM     18  H   UNL d   1     -13.269   6.305  -0.575 +0.09 +0.11    +0.222 HD
DOCKED: ENDBRANCH  15  17
DOCKED: BRANCH  15  19
DOCKED: ATOM     19  O   UNL d   1     -14.383   7.592   2.154 -0.16 -0.06    -0.303 OA
DOCKED: ATOM     20  H   UNL d   1     -15.104   8.177   1.859 +0.05 +0.04    +0.222 HD
DOCKED: ENDBRANCH  15  19
DOCKED: ENDBRANCH  14  15
DOCKED: ENDBRANCH   2  14
DOCKED: BRANCH   6  21
DOCKED: ATOM     21  O   UNL d   1     -17.066   6.353  -3.722 -0.08 -0.20    -0.278 OA
DOCKED: BRANCH  21  22
DOCKED: ATOM     22  P   UNL d   1     -17.527   7.634  -4.553 +0.00 +0.15    +0.473 P 
DOCKED: ATOM     23  O   UNL d   1     -17.412   8.973  -3.906 +0.00 -0.05    -0.228 OA
DOCKED: BRANCH  22  24
DOCKED: ATOM     24  O   UNL d   1     -16.689   7.469  -5.896 +0.00 -0.08    -0.303 OA
DOCKED: ATOM     25  H   UNL d   1     -15.842   7.005  -5.676 +0.01 +0.07    +0.222 HD
DOCKED: ENDBRANCH  22  24
DOCKED: BRANCH  22  26
DOCKED: ATOM     26  O   UNL d   1     -18.998   7.205  -5.025 +0.00 -0.07    -0.303 OA
DOCKED: ATOM     27  H   UNL d   1     -19.558   7.057  -4.236 +0.01 +0.05    +0.222 HD
DOCKED: ENDBRANCH  22  26
DOCKED: ENDBRANCH  21  22
DOCKED: ENDBRANCH   6  21
DOCKED: BRANCH   3  28
DOCKED: ATOM     28  O   UNL d   1     -16.963   8.330   1.420 -0.01 -0.05    -0.278 OA
DOCKED: BRANCH  28  29
DOCKED: ATOM     29  P   UNL d   1     -17.128   9.714   2.192 +0.01 +0.05    +0.473 P 
DOCKED: ATOM     30  O   UNL d   1     -17.659   9.616   3.576 -0.00 -0.02    -0.228 OA
DOCKED: BRANCH  29  31
DOCKED: ATOM     31  O   UNL d   1     -15.652  10.307   2.021 -0.01 -0.02    -0.303 OA
DOCKED: ATOM     32  H   UNL d   1     -15.007   9.652   2.374 +0.04 +0.02    +0.222 HD
DOCKED: ENDBRANCH  29  31
DOCKED: BRANCH  29  33
DOCKED: ATOM     33  O   UNL d   1     -17.976  10.575   1.156 +0.00 -0.03    -0.303 OA
DOCKED: ATOM     34  H   UNL d   1     -18.883  10.189   1.084 +0.00 +0.02    +0.222 HD
DOCKED: ENDBRANCH  29  33
DOCKED: ENDBRANCH  28  29
DOCKED: ENDBRANCH   3  28
DOCKED: BRANCH   5  35
DOCKED: ATOM     35  O   UNL d   1     -19.330   6.116  -1.891 -0.02 -0.10    -0.278 OA
DOCKED: BRANCH  35  36
DOCKED: ATOM     36  P   UNL d   1     -20.770   6.501  -2.460 +0.01 +0.10    +0.473 P 
DOCKED: ATOM     37  O   UNL d   1     -20.949   7.935  -2.844 +0.00 -0.04    -0.228 OA
DOCKED: BRANCH  36  38
DOCKED: ATOM     38  O   UNL d   1     -20.929   5.474  -3.667 +0.00 -0.07    -0.303 OA
DOCKED: ATOM     39  H   UNL d   1     -20.157   5.561  -4.266 +0.01 +0.06    +0.222 HD
DOCKED: ENDBRANCH  36  38
DOCKED: BRANCH  36  40
DOCKED: ATOM     40  O   UNL d   1     -21.742   5.927  -1.339 +0.00 -0.05    -0.303 OA
DOCKED: ATOM     41  H   UNL d   1     -21.898   6.582  -0.622 +0.00 +0.03    +0.222 HD
DOCKED: ENDBRANCH  36  40
DOCKED: ENDBRANCH  35  36
DOCKED: ENDBRANCH   5  35
DOCKED: BRANCH   4  42
DOCKED: ATOM     42  O   UNL d   1     -19.328   8.497  -0.212 +0.00 -0.05    -0.278 OA
DOCKED: BRANCH  42  43
DOCKED: ATOM     43  P   UNL d   1     -20.537   8.112   0.756 +0.00 +0.06    +0.473 P 
DOCKED: ATOM     44  O   UNL d   1     -21.905   8.539   0.348 +0.00 -0.02    -0.228 OA
DOCKED: BRANCH  43  45
DOCKED: ATOM     45  O   UNL d   1     -20.367   6.538   0.918 -0.00 -0.05    -0.303 OA
DOCKED: ATOM     46  H   UNL d   1     -20.306   6.094   0.049 +0.01 +0.05    +0.222 HD
DOCKED: ENDBRANCH  43  45
DOCKED: BRANCH  43  47
DOCKED: ATOM     47  O   UNL d   1     -20.044   8.642   2.186 +0.00 -0.03    -0.303 OA
DOCKED: ATOM     48  H   UNL d   1     -19.151   9.035   2.095 +0.00 +0.03    +0.222 HD
DOCKED: ENDBRANCH  43  47
DOCKED: ENDBRANCH  42  43
DOCKED: ENDBRANCH   4  42
DOCKED: TORSDOF 24
DOCKED: TER
DOCKED: ENDMDL
________________________________________________________________________________


	BEGINNING GENETIC ALGORITHM DOCKING 44 of 100
Run: 44 Seed: 718432815 698920021 [ Run 44 of 100 GA/GALS ]
Beginning LAMARCKIAN GENETIC ALGORITHM (LGA), with a maximum of 25000000 energy evaluations.

Final-Value: -15.867


	FINAL GENETIC ALGORITHM DOCKED STATE
	_______________________________________________


Detailed state:  trans -3.564 -13.962 10.172 quatxyzw -0.288717 -0.689298 -0.426477 -0.509537 center 0.035 0.082 -0.065 ntor 24 144.6006 173.2746 51.1017 104.0536 94.3330 134.2846 25.1425 -69.3750 -44.7533 137.7953 178.7902 -129.3947 123.3914 -64.0444 -121.5514 -89.1498 72.9422 -7.3372 9.6316 -5.5198 -29.2998 -32.3909 25.2796 153.3993
State:	 -3.564 -13.962  10.172  -0.336 -0.801 -0.496 -118.734    144.60  173.27   51.10  104.05   94.33  134.28   25.14  -69.38  -44.75  137.80  178.79 -129.39  123.39  -64.04 -121.55  -89.15   72.94   -7.34    9.63   -5.52  -29.30  -32.39   25.28  153.40

DOCKED: MODEL       44
DOCKED: USER    Run = 44
DOCKED: USER    DPF = D:/Protein_go_brrr/autodock/final/AncB/IHP/dock.dpf
DOCKED: USER  
DOCKED: USER    Estimated Free Energy of Binding    =   +2.29 kcal/mol  [=(1)+(2)+(3)-(4)]
DOCKED: USER    
DOCKED: USER    (1) Final Intermolecular Energy     =   -4.87 kcal/mol
DOCKED: USER        vdW + Hbond + desolv Energy     =   -4.25 kcal/mol
DOCKED: USER        Electrostatic Energy            =   -0.62 kcal/mol
DOCKED: USER    (2) Final Total Internal Energy     =  -11.00 kcal/mol
DOCKED: USER    (3) Torsional Free Energy           =   +7.16 kcal/mol
DOCKED: USER    (4) Unbound System's Energy  [=(2)] =  -11.00 kcal/mol
DOCKED: USER    
DOCKED: USER    
DOCKED: USER    NEWDPF move IHP_ideal_opt.pdbqt
DOCKED: USER    NEWDPF about 0.035000 0.082000 -0.065000
DOCKED: USER    NEWDPF tran0 -3.564072 -13.961686 10.172354
DOCKED: USER    NEWDPF quaternion0 -0.288717 -0.689298 -0.426477 -0.509537
DOCKED: USER    NEWDPF axisangle0 -0.335542 -0.801091 -0.495645 -118.733979
DOCKED: USER    NEWDPF quat0 -0.335542 -0.801091 -0.495645 -118.733979
DOCKED: USER    NEWDPF dihe0 144.60 173.27 51.10 104.05 94.33 134.28 25.14 -69.38 -44.75 137.80 178.79 -129.39 123.39 -64.04 -121.55 -89.15 72.94 -7.34 9.63 -5.52 -29.30 -32.39 25.28 153.40 
DOCKED: USER  keepresnum = 1 
DOCKED: USER  
DOCKED: REMARK  24 active torsions:
DOCKED: REMARK  status: ('A' for Active; 'I' for Inactive)
DOCKED: REMARK    1  A    between atoms: C_1  and  O_7 
DOCKED: REMARK    2  A    between atoms: C_2  and  O_12 
DOCKED: REMARK    3  A    between atoms: C_3  and  O_17 
DOCKED: REMARK    4  A    between atoms: C_4  and  O_22 
DOCKED: REMARK    5  A    between atoms: C_5  and  O_27 
DOCKED: REMARK    6  A    between atoms: C_6  and  O_32 
DOCKED: REMARK    7  A    between atoms: O_7  and  P_8 
DOCKED: REMARK    8  A    between atoms: P_8  and  O_10 
DOCKED: REMARK    9  A    between atoms: P_8  and  O_11 
DOCKED: REMARK   10  A    between atoms: O_12  and  P_13 
DOCKED: REMARK   11  A    between atoms: P_13  and  O_15 
DOCKED: REMARK   12  A    between atoms: P_13  and  O_16 
DOCKED: REMARK   13  A    between atoms: O_17  and  P_18 
DOCKED: REMARK   14  A    between atoms: P_18  and  O_20 
DOCKED: REMARK   15  A    between atoms: P_18  and  O_21 
DOCKED: REMARK   16  A    between atoms: O_22  and  P_23 
DOCKED: REMARK   17  A    between atoms: P_23  and  O_25 
DOCKED: REMARK   18  A    between atoms: P_23  and  O_26 
DOCKED: REMARK   19  A    between atoms: O_27  and  P_28 
DOCKED: REMARK   20  A    between atoms: P_28  and  O_30 
DOCKED: REMARK   21  A    between atoms: P_28  and  O_31 
DOCKED: REMARK   22  A    between atoms: O_32  and  P_33 
DOCKED: REMARK   23  A    between atoms: P_33  and  O_35 
DOCKED: REMARK   24  A    between atoms: P_33  and  O_36 
DOCKED: USER                              x       y       z     vdW  Elec       q    Type
DOCKED: USER                           _______ _______ _______ _____ _____    ______ ____
DOCKED: ROOT
DOCKED: ATOM      1  C   UNL d   1      -5.058 -13.727  11.008 -0.08 +0.08    +0.194 C 
DOCKED: ATOM      2  C   UNL d   1      -5.167 -14.384   9.631 -0.10 +0.11    +0.194 C 
DOCKED: ATOM      3  C   UNL d   1      -4.267 -13.697   8.602 -0.07 +0.10    +0.194 C 
DOCKED: ATOM      4  C   UNL d   1      -2.818 -13.563   9.064 -0.03 +0.07    +0.194 C 
DOCKED: ATOM      5  C   UNL d   1      -2.666 -13.018  10.479 -0.03 +0.05    +0.194 C 
DOCKED: ATOM      6  C   UNL d   1      -3.610 -13.663  11.496 -0.02 +0.06    +0.194 C 
DOCKED: ENDROOT
DOCKED: BRANCH   1   7
DOCKED: ATOM      7  O   UNL d   1      -5.787 -14.525  11.942 -0.05 -0.12    -0.278 OA
DOCKED: BRANCH   7   8
DOCKED: ATOM      8  P   UNL d   1      -7.110 -13.912  12.595 -0.16 +0.21    +0.473 P 
DOCKED: ATOM      9  O   UNL d   1      -7.875 -14.845  13.467 -0.14 -0.09    -0.228 OA
DOCKED: BRANCH   8  10
DOCKED: ATOM     10  O   UNL d   1      -6.595 -12.613  13.365 -0.13 -0.14    -0.303 OA
DOCKED: ATOM     11  H   UNL d   1      -5.622 -12.634  13.427 +0.06 +0.09    +0.222 HD
DOCKED: ENDBRANCH   8  10
DOCKED: BRANCH   8  12
DOCKED: ATOM     12  O   UNL d   1      -7.916 -13.280  11.380 -0.21 -0.19    -0.303 OA
DOCKED: ATOM     13  H   UNL d   1      -8.850 -13.585  11.337 -0.52 +0.09    +0.222 HD
DOCKED: ENDBRANCH   8  12
DOCKED: ENDBRANCH   7   8
DOCKED: ENDBRANCH   1   7
DOCKED: BRANCH   2  14
DOCKED: ATOM     14  O   UNL d   1      -4.773 -15.758   9.737 -0.02 -0.16    -0.278 OA
DOCKED: BRANCH  14  15
DOCKED: ATOM     15  P   UNL d   1      -5.816 -16.845   9.194 -0.04 +0.45    +0.473 P 
DOCKED: ATOM     16  O   UNL d   1      -7.173 -16.343   8.813 -0.60 -0.48    -0.228 OA
DOCKED: BRANCH  15  17
DOCKED: ATOM     17  O   UNL d   1      -5.053 -17.542   7.981 -0.01 -0.26    -0.303 OA
DOCKED: ATOM     18  H   UNL d   1      -4.615 -16.879   7.414 +0.03 +0.19    +0.222 HD
DOCKED: ENDBRANCH  15  17
DOCKED: BRANCH  15  19
DOCKED: ATOM     19  O   UNL d   1      -5.794 -17.998  10.290 -0.01 -0.19    -0.303 OA
DOCKED: ATOM     20  H   UNL d   1      -5.817 -17.635  11.195 +0.02 +0.12    +0.222 HD
DOCKED: ENDBRANCH  15  19
DOCKED: ENDBRANCH  14  15
DOCKED: ENDBRANCH   2  14
DOCKED: BRANCH   6  21
DOCKED: ATOM     21  O   UNL d   1      -3.596 -12.833  12.655 -0.02 -0.08    -0.278 OA
DOCKED: BRANCH  21  22
DOCKED: ATOM     22  P   UNL d   1      -3.395 -13.488  14.096 +0.01 +0.10    +0.473 P 
DOCKED: ATOM     23  O   UNL d   1      -4.610 -13.890  14.862 -0.01 -0.05    -0.228 OA
DOCKED: BRANCH  22  24
DOCKED: ATOM     24  O   UNL d   1      -2.385 -14.676  13.775 +0.00 -0.05    -0.303 OA
DOCKED: ATOM     25  H   UNL d   1      -1.842 -14.414  12.989 +0.00 +0.04    +0.222 HD
DOCKED: ENDBRANCH  22  24
DOCKED: BRANCH  22  26
DOCKED: ATOM     26  O   UNL d   1      -2.435 -12.420  14.809 -0.00 -0.05    -0.303 OA
DOCKED: ATOM     27  H   UNL d   1      -1.772 -12.103  14.163 +0.01 +0.04    +0.222 HD
DOCKED: ENDBRANCH  22  26
DOCKED: ENDBRANCH  21  22
DOCKED: ENDBRANCH   6  21
DOCKED: BRANCH   3  28
DOCKED: ATOM     28  O   UNL d   1      -4.220 -14.529   7.450 -0.04 -0.19    -0.278 OA
DOCKED: BRANCH  28  29
DOCKED: ATOM     29  P   UNL d   1      -5.432 -14.543   6.417 -0.07 +0.63    +0.473 P 
DOCKED: ATOM     30  O   UNL d   1      -6.169 -15.828   6.311 -0.64 -0.54    -0.228 OA
DOCKED: BRANCH  29  31
DOCKED: ATOM     31  O   UNL d   1      -6.257 -13.274   6.938 -0.23 -0.32    -0.303 OA
DOCKED: ATOM     32  H   UNL d   1      -5.801 -12.456   6.632 +0.12 +0.18    +0.222 HD
DOCKED: ENDBRANCH  29  31
DOCKED: BRANCH  29  33
DOCKED: ATOM     33  O   UNL d   1      -4.746 -13.994   5.089 -0.19 -0.32    -0.303 OA
DOCKED: ATOM     34  H   UNL d   1      -3.845 -13.652   5.311 -0.24 +0.11    +0.222 HD
DOCKED: ENDBRANCH  29  33
DOCKED: ENDBRANCH  28  29
DOCKED: ENDBRANCH   3  28
DOCKED: BRANCH   5  35
DOCKED: ATOM     35  O   UNL d   1      -1.335 -13.341  10.877 -0.01 -0.06    -0.278 OA
DOCKED: BRANCH  35  36
DOCKED: ATOM     36  P   UNL d   1      -0.603 -12.486  12.007 -0.00 +0.07    +0.473 P 
DOCKED: ATOM     37  O   UNL d   1      -0.235 -13.236  13.247 -0.00 -0.03    -0.228 OA
DOCKED: BRANCH  36  38
DOCKED: ATOM     38  O   UNL d   1       0.640 -11.889  11.210 -0.01 -0.04    -0.303 OA
DOCKED: ATOM     39  H   UNL d   1       1.469 -12.259  11.584 +0.00 +0.02    +0.222 HD
DOCKED: ENDBRANCH  36  38
DOCKED: BRANCH  36  40
DOCKED: ATOM     40  O   UNL d   1      -1.580 -11.243  12.178 -0.02 -0.06    -0.303 OA
DOCKED: ATOM     41  H   UNL d   1      -2.205 -11.371  12.926 +0.03 +0.05    +0.222 HD
DOCKED: ENDBRANCH  36  40
DOCKED: ENDBRANCH  35  36
DOCKED: ENDBRANCH   5  35
DOCKED: BRANCH   4  42
DOCKED: ATOM     42  O   UNL d   1      -2.186 -12.629   8.183 -0.06 -0.08    -0.278 OA
DOCKED: BRANCH  42  43
DOCKED: ATOM     43  P   UNL d   1      -2.979 -11.311   7.759 -0.18 +0.14    +0.473 P 
DOCKED: ATOM     44  O   UNL d   1      -3.812 -10.646   8.799 -0.18 -0.07    -0.228 OA
DOCKED: BRANCH  43  45
DOCKED: ATOM     45  O   UNL d   1      -1.828 -10.389   7.160 -0.19 -0.05    -0.303 OA
DOCKED: ATOM     46  H   UNL d   1      -1.876 -10.346   6.184 -0.05 +0.00    +0.222 HD
DOCKED: ENDBRANCH  43  45
DOCKED: BRANCH  43  47
DOCKED: ATOM     47  O   UNL d   1      -3.757 -11.763   6.432 -0.28 -0.12    -0.303 OA
DOCKED: ATOM     48  H   UNL d   1      -4.225 -12.607   6.604 +0.10 +0.12    +0.222 HD
DOCKED: ENDBRANCH  43  47
DOCKED: ENDBRANCH  42  43
DOCKED: ENDBRANCH   4  42
DOCKED: TORSDOF 24
DOCKED: TER
DOCKED: ENDMDL
________________________________________________________________________________


	BEGINNING GENETIC ALGORITHM DOCKING 45 of 100
Run: 45 Seed: 429007034 367803682 [ Run 45 of 100 GA/GALS ]
Beginning LAMARCKIAN GENETIC ALGORITHM (LGA), with a maximum of 25000000 energy evaluations.

Final-Value: -16.164


	FINAL GENETIC ALGORITHM DOCKED STATE
	_______________________________________________


Detailed state:  trans 8.576 -15.534 -8.768 quatxyzw -0.937429 -0.063862 -0.214336 0.266849 center 0.035 0.082 -0.065 ntor 24 170.9751 110.8691 -42.7516 50.2109 -40.4052 -88.5948 -88.4769 46.2138 20.6542 -33.3040 63.8181 180.0000 -81.0217 179.8534 15.8793 72.1941 -87.1462 -51.8911 41.5569 -7.6721 -48.0872 149.2582 179.6300 -177.7296
State:	  8.576 -15.534  -8.768  -0.973 -0.066 -0.222 149.046    170.98  110.87  -42.75   50.21  -40.41  -88.59  -88.48   46.21   20.65  -33.30   63.82  180.00  -81.02  179.85   15.88   72.19  -87.15  -51.89   41.56   -7.67  -48.09  149.26  179.63 -177.73

DOCKED: MODEL       45
DOCKED: USER    Run = 45
DOCKED: USER    DPF = D:/Protein_go_brrr/autodock/final/AncB/IHP/dock.dpf
DOCKED: USER  
DOCKED: USER    Estimated Free Energy of Binding    =   +1.94 kcal/mol  [=(1)+(2)+(3)-(4)]
DOCKED: USER    
DOCKED: USER    (1) Final Intermolecular Energy     =   -5.22 kcal/mol
DOCKED: USER        vdW + Hbond + desolv Energy     =   -4.75 kcal/mol
DOCKED: USER        Electrostatic Energy            =   -0.46 kcal/mol
DOCKED: USER    (2) Final Total Internal Energy     =  -10.95 kcal/mol
DOCKED: USER    (3) Torsional Free Energy           =   +7.16 kcal/mol
DOCKED: USER    (4) Unbound System's Energy  [=(2)] =  -10.95 kcal/mol
DOCKED: USER    
DOCKED: USER    
DOCKED: USER    NEWDPF move IHP_ideal_opt.pdbqt
DOCKED: USER    NEWDPF about 0.035000 0.082000 -0.065000
DOCKED: USER    NEWDPF tran0 8.575999 -15.533537 -8.768369
DOCKED: USER    NEWDPF quaternion0 -0.937429 -0.063862 -0.214336 0.266849
DOCKED: USER    NEWDPF axisangle0 -0.972701 -0.066265 -0.222401 149.046263
DOCKED: USER    NEWDPF quat0 -0.972701 -0.066265 -0.222401 149.046263
DOCKED: USER    NEWDPF dihe0 170.98 110.87 -42.75 50.21 -40.41 -88.59 -88.48 46.21 20.65 -33.30 63.82 180.00 -81.02 179.85 15.88 72.19 -87.15 -51.89 41.56 -7.67 -48.09 149.26 179.63 -177.73 
DOCKED: USER  keepresnum = 1 
DOCKED: USER  
DOCKED: REMARK  24 active torsions:
DOCKED: REMARK  status: ('A' for Active; 'I' for Inactive)
DOCKED: REMARK    1  A    between atoms: C_1  and  O_7 
DOCKED: REMARK    2  A    between atoms: C_2  and  O_12 
DOCKED: REMARK    3  A    between atoms: C_3  and  O_17 
DOCKED: REMARK    4  A    between atoms: C_4  and  O_22 
DOCKED: REMARK    5  A    between atoms: C_5  and  O_27 
DOCKED: REMARK    6  A    between atoms: C_6  and  O_32 
DOCKED: REMARK    7  A    between atoms: O_7  and  P_8 
DOCKED: REMARK    8  A    between atoms: P_8  and  O_10 
DOCKED: REMARK    9  A    between atoms: P_8  and  O_11 
DOCKED: REMARK   10  A    between atoms: O_12  and  P_13 
DOCKED: REMARK   11  A    between atoms: P_13  and  O_15 
DOCKED: REMARK   12  A    between atoms: P_13  and  O_16 
DOCKED: REMARK   13  A    between atoms: O_17  and  P_18 
DOCKED: REMARK   14  A    between atoms: P_18  and  O_20 
DOCKED: REMARK   15  A    between atoms: P_18  and  O_21 
DOCKED: REMARK   16  A    between atoms: O_22  and  P_23 
DOCKED: REMARK   17  A    between atoms: P_23  and  O_25 
DOCKED: REMARK   18  A    between atoms: P_23  and  O_26 
DOCKED: REMARK   19  A    between atoms: O_27  and  P_28 
DOCKED: REMARK   20  A    between atoms: P_28  and  O_30 
DOCKED: REMARK   21  A    between atoms: P_28  and  O_31 
DOCKED: REMARK   22  A    between atoms: O_32  and  P_33 
DOCKED: REMARK   23  A    between atoms: P_33  and  O_35 
DOCKED: REMARK   24  A    between atoms: P_33  and  O_36 
DOCKED: USER                              x       y       z     vdW  Elec       q    Type
DOCKED: USER                           _______ _______ _______ _____ _____    ______ ____
DOCKED: ROOT
DOCKED: ATOM      1  C   UNL d   1      10.044 -14.860  -9.382 -0.00 -0.02    +0.194 C 
DOCKED: ATOM      2  C   UNL d   1       8.755 -14.295  -9.982 -0.04 -0.02    +0.194 C 
DOCKED: ATOM      3  C   UNL d   1       7.742 -15.399 -10.290 -0.06 -0.05    +0.194 C 
DOCKED: ATOM      4  C   UNL d   1       7.470 -16.315  -9.100 -0.10 -0.12    +0.194 C 
DOCKED: ATOM      5  C   UNL d   1       8.728 -16.811  -8.398 -0.04 -0.09    +0.194 C 
DOCKED: ATOM      6  C   UNL d   1       9.768 -15.717  -8.146 -0.01 -0.04    +0.194 C 
DOCKED: ENDROOT
DOCKED: BRANCH   1   7
DOCKED: ATOM      7  O   UNL d   1      10.861 -13.763  -8.966 -0.01 +0.01    -0.278 OA
DOCKED: BRANCH   7   8
DOCKED: ATOM      8  P   UNL d   1      11.738 -13.009 -10.068 +0.02 +0.05    +0.473 P 
DOCKED: ATOM      9  O   UNL d   1      12.171 -13.853 -11.215 -0.00 -0.02    -0.228 OA
DOCKED: BRANCH   8  10
DOCKED: ATOM     10  O   UNL d   1      10.830 -11.773 -10.506 -0.07 -0.06    -0.303 OA
DOCKED: ATOM     11  H   UNL d   1      10.097 -11.664  -9.871 +0.09 +0.03    +0.222 HD
DOCKED: ENDBRANCH   8  10
DOCKED: BRANCH   8  12
DOCKED: ATOM     12  O   UNL d   1      12.901 -12.296  -9.253 -0.03 -0.07    -0.303 OA
DOCKED: ATOM     13  H   UNL d   1      13.515 -12.932  -8.822 +0.02 +0.03    +0.222 HD
DOCKED: ENDBRANCH   8  12
DOCKED: ENDBRANCH   7   8
DOCKED: ENDBRANCH   1   7
DOCKED: BRANCH   2  14
DOCKED: ATOM     14  O   UNL d   1       8.166 -13.381  -9.048 -0.11 +0.03    -0.278 OA
DOCKED: BRANCH  14  15
DOCKED: ATOM     15  P   UNL d   1       7.891 -11.895  -9.577 -0.13 -0.03    +0.473 P 
DOCKED: ATOM     16  O   UNL d   1       8.494 -10.778  -8.785 -0.34 +0.01    -0.228 OA
DOCKED: BRANCH  15  17
DOCKED: ATOM     17  O   UNL d   1       8.394 -11.922 -11.089 -0.17 -0.00    -0.303 OA
DOCKED: ATOM     18  H   UNL d   1       8.881 -11.106 -11.312 -0.15 -0.00    +0.222 HD
DOCKED: ENDBRANCH  15  17
DOCKED: BRANCH  15  19
DOCKED: ATOM     19  O   UNL d   1       6.313 -11.828  -9.767 -0.37 +0.01    -0.303 OA
DOCKED: ATOM     20  H   UNL d   1       5.901 -12.707  -9.674 +0.17 -0.02    +0.222 HD
DOCKED: ENDBRANCH  15  19
DOCKED: ENDBRANCH  14  15
DOCKED: ENDBRANCH   2  14
DOCKED: BRANCH   6  21
DOCKED: ATOM     21  O   UNL d   1      10.988 -16.377  -7.814 +0.00 +0.04    -0.278 OA
DOCKED: BRANCH  21  22
DOCKED: ATOM     22  P   UNL d   1      12.037 -15.664  -6.846 +0.01 -0.06    +0.473 P 
DOCKED: ATOM     23  O   UNL d   1      11.524 -15.028  -5.598 -0.02 +0.05    -0.228 OA
DOCKED: BRANCH  22  24
DOCKED: ATOM     24  O   UNL d   1      13.106 -16.820  -6.616 +0.00 +0.02    -0.303 OA
DOCKED: ATOM     25  H   UNL d   1      12.989 -17.170  -5.696 +0.00 -0.02    +0.222 HD
DOCKED: ENDBRANCH  22  24
DOCKED: BRANCH  22  26
DOCKED: ATOM     26  O   UNL d   1      12.810 -14.695  -7.862 +0.00 +0.01    -0.303 OA
DOCKED: ATOM     27  H   UNL d   1      12.424 -13.797  -7.808 +0.03 -0.01    +0.222 HD
DOCKED: ENDBRANCH  22  26
DOCKED: ENDBRANCH  21  22
DOCKED: ENDBRANCH   6  21
DOCKED: BRANCH   3  28
DOCKED: ATOM     28  O   UNL d   1       6.498 -14.771 -10.575 -0.11 +0.06    -0.278 OA
DOCKED: BRANCH  28  29
DOCKED: ATOM     29  P   UNL d   1       5.362 -14.694  -9.461 -0.20 -0.12    +0.473 P 
DOCKED: ATOM     30  O   UNL d   1       5.815 -14.264  -8.113 -0.08 +0.05    -0.228 OA
DOCKED: BRANCH  29  31
DOCKED: ATOM     31  O   UNL d   1       4.304 -13.752 -10.206 -0.30 +0.03    -0.303 OA
DOCKED: ATOM     32  H   UNL d   1       4.797 -13.075 -10.724 -0.07 -0.04    +0.222 HD
DOCKED: ENDBRANCH  29  31
DOCKED: BRANCH  29  33
DOCKED: ATOM     33  O   UNL d   1       4.690 -16.133  -9.570 -0.75 +0.21    -0.303 OA
DOCKED: ATOM     34  H   UNL d   1       4.976 -16.680  -8.798 -0.51 -0.33    +0.222 HD
DOCKED: ENDBRANCH  29  33
DOCKED: ENDBRANCH  28  29
DOCKED: ENDBRANCH   3  28
DOCKED: BRANCH   5  35
DOCKED: ATOM     35  O   UNL d   1       8.299 -17.285  -7.123 -0.06 +0.17    -0.278 OA
DOCKED: BRANCH  35  36
DOCKED: ATOM     36  P   UNL d   1       7.370 -16.377  -6.198 -0.08 -0.26    +0.473 P 
DOCKED: ATOM     37  O   UNL d   1       7.746 -14.931  -6.127 -0.14 +0.07    -0.228 OA
DOCKED: BRANCH  36  38
DOCKED: ATOM     38  O   UNL d   1       5.928 -16.648  -6.819 -0.14 +0.34    -0.303 OA
DOCKED: ATOM     39  H   UNL d   1       5.971 -16.534  -7.793 -0.30 -0.30    +0.222 HD
DOCKED: ENDBRANCH  36  38
DOCKED: BRANCH  36  40
DOCKED: ATOM     40  O   UNL d   1       7.356 -17.187  -4.830 -0.06 +0.14    -0.303 OA
DOCKED: ATOM     41  H   UNL d   1       6.785 -17.985  -4.885 +0.05 -0.14    +0.222 HD
DOCKED: ENDBRANCH  36  40
DOCKED: ENDBRANCH  35  36
DOCKED: ENDBRANCH   5  35
DOCKED: BRANCH   4  42
DOCKED: ATOM     42  O   UNL d   1       6.790 -17.467  -9.609 +0.01 +0.35    -0.278 OA
DOCKED: BRANCH  42  43
DOCKED: ATOM     43  P   UNL d   1       7.605 -18.514 -10.496 -0.08 -0.32    +0.473 P 
DOCKED: ATOM     44  O   UNL d   1       9.005 -18.160 -10.863 -0.02 +0.06    -0.228 OA
DOCKED: BRANCH  43  45
DOCKED: ATOM     45  O   UNL d   1       7.472 -19.859  -9.657 -0.13 +0.31    -0.303 OA
DOCKED: ATOM     46  H   UNL d   1       7.077 -19.695  -8.777 -0.41 -0.43    +0.222 HD
DOCKED: ENDBRANCH  43  45
DOCKED: BRANCH  43  47
DOCKED: ATOM     47  O   UNL d   1       6.618 -18.798 -11.726 -0.12 +0.14    -0.303 OA
DOCKED: ATOM     48  H   UNL d   1       5.793 -18.283 -11.604 +0.05 -0.14    +0.222 HD
DOCKED: ENDBRANCH  43  47
DOCKED: ENDBRANCH  42  43
DOCKED: ENDBRANCH   4  42
DOCKED: TORSDOF 24
DOCKED: TER
DOCKED: ENDMDL
________________________________________________________________________________


	BEGINNING GENETIC ALGORITHM DOCKING 46 of 100
Run: 46 Seed: 1363256387 214142398 [ Run 46 of 100 GA/GALS ]
Beginning LAMARCKIAN GENETIC ALGORITHM (LGA), with a maximum of 25000000 energy evaluations.

Final-Value: -16.826


	FINAL GENETIC ALGORITHM DOCKED STATE
	_______________________________________________


Detailed state:  trans 10.768 -6.639 -16.901 quatxyzw -0.554366 0.292488 0.541936 0.559852 center 0.035 0.082 -0.065 ntor 24 -169.5142 -28.3751 87.8943 91.8598 -7.4345 179.9554 -4.7487 -90.9588 101.5112 46.1449 -135.6661 142.3741 51.2017 -81.9980 179.3899 -43.3102 120.9445 171.3742 -147.1146 -17.0952 169.1055 145.5339 -24.1833 170.5182
State:	 10.768  -6.639 -16.901  -0.669  0.353  0.654 111.909   -169.51  -28.38   87.89   91.86   -7.43  179.96   -4.75  -90.96  101.51   46.14 -135.67  142.37   51.20  -82.00  179.39  -43.31  120.94  171.37 -147.11  -17.10  169.11  145.53  -24.18  170.52

DOCKED: MODEL       46
DOCKED: USER    Run = 46
DOCKED: USER    DPF = D:/Protein_go_brrr/autodock/final/AncB/IHP/dock.dpf
DOCKED: USER  
DOCKED: USER    Estimated Free Energy of Binding    =   +4.04 kcal/mol  [=(1)+(2)+(3)-(4)]
DOCKED: USER    
DOCKED: USER    (1) Final Intermolecular Energy     =   -3.12 kcal/mol
DOCKED: USER        vdW + Hbond + desolv Energy     =   -2.99 kcal/mol
DOCKED: USER        Electrostatic Energy            =   -0.13 kcal/mol
DOCKED: USER    (2) Final Total Internal Energy     =  -13.71 kcal/mol
DOCKED: USER    (3) Torsional Free Energy           =   +7.16 kcal/mol
DOCKED: USER    (4) Unbound System's Energy  [=(2)] =  -13.71 kcal/mol
DOCKED: USER    
DOCKED: USER    
DOCKED: USER    NEWDPF move IHP_ideal_opt.pdbqt
DOCKED: USER    NEWDPF about 0.035000 0.082000 -0.065000
DOCKED: USER    NEWDPF tran0 10.768120 -6.639052 -16.900882
DOCKED: USER    NEWDPF quaternion0 -0.554366 0.292488 0.541936 0.559852
DOCKED: USER    NEWDPF axisangle0 -0.669046 0.352994 0.654044 111.908833
DOCKED: USER    NEWDPF quat0 -0.669046 0.352994 0.654044 111.908833
DOCKED: USER    NEWDPF dihe0 -169.51 -28.38 87.89 91.86 -7.43 179.96 -4.75 -90.96 101.51 46.14 -135.67 142.37 51.20 -82.00 179.39 -43.31 120.94 171.37 -147.11 -17.10 169.11 145.53 -24.18 170.52 
DOCKED: USER  keepresnum = 1 
DOCKED: USER  
DOCKED: REMARK  24 active torsions:
DOCKED: REMARK  status: ('A' for Active; 'I' for Inactive)
DOCKED: REMARK    1  A    between atoms: C_1  and  O_7 
DOCKED: REMARK    2  A    between atoms: C_2  and  O_12 
DOCKED: REMARK    3  A    between atoms: C_3  and  O_17 
DOCKED: REMARK    4  A    between atoms: C_4  and  O_22 
DOCKED: REMARK    5  A    between atoms: C_5  and  O_27 
DOCKED: REMARK    6  A    between atoms: C_6  and  O_32 
DOCKED: REMARK    7  A    between atoms: O_7  and  P_8 
DOCKED: REMARK    8  A    between atoms: P_8  and  O_10 
DOCKED: REMARK    9  A    between atoms: P_8  and  O_11 
DOCKED: REMARK   10  A    between atoms: O_12  and  P_13 
DOCKED: REMARK   11  A    between atoms: P_13  and  O_15 
DOCKED: REMARK   12  A    between atoms: P_13  and  O_16 
DOCKED: REMARK   13  A    between atoms: O_17  and  P_18 
DOCKED: REMARK   14  A    between atoms: P_18  and  O_20 
DOCKED: REMARK   15  A    between atoms: P_18  and  O_21 
DOCKED: REMARK   16  A    between atoms: O_22  and  P_23 
DOCKED: REMARK   17  A    between atoms: P_23  and  O_25 
DOCKED: REMARK   18  A    between atoms: P_23  and  O_26 
DOCKED: REMARK   19  A    between atoms: O_27  and  P_28 
DOCKED: REMARK   20  A    between atoms: P_28  and  O_30 
DOCKED: REMARK   21  A    between atoms: P_28  and  O_31 
DOCKED: REMARK   22  A    between atoms: O_32  and  P_33 
DOCKED: REMARK   23  A    between atoms: P_33  and  O_35 
DOCKED: REMARK   24  A    between atoms: P_33  and  O_36 
DOCKED: USER                              x       y       z     vdW  Elec       q    Type
DOCKED: USER                           _______ _______ _______ _____ _____    ______ ____
DOCKED: ROOT
DOCKED: ATOM      1  C   UNL d   1      10.086  -7.867 -17.907 -0.02 +0.02    +0.194 C 
DOCKED: ATOM      2  C   UNL d   1       9.900  -6.430 -18.398 -0.01 +0.03    +0.194 C 
DOCKED: ATOM      3  C   UNL d   1       9.514  -5.486 -17.258 -0.04 +0.03    +0.194 C 
DOCKED: ATOM      4  C   UNL d   1      10.460  -5.569 -16.062 -0.08 +0.03    +0.194 C 
DOCKED: ATOM      5  C   UNL d   1      10.764  -6.991 -15.610 -0.06 +0.03    +0.194 C 
DOCKED: ATOM      6  C   UNL d   1      11.090  -7.950 -16.757 -0.02 +0.03    +0.194 C 
DOCKED: ENDROOT
DOCKED: BRANCH   1   7
DOCKED: ATOM      7  O   UNL d   1      10.609  -8.644 -18.987 -0.01 -0.03    -0.278 OA
DOCKED: BRANCH   7   8
DOCKED: ATOM      8  P   UNL d   1      12.194  -8.753 -19.145 +0.00 +0.06    +0.473 P 
DOCKED: ATOM      9  O   UNL d   1      12.788 -10.036 -18.680 -0.00 -0.03    -0.228 OA
DOCKED: BRANCH   8  10
DOCKED: ATOM     10  O   UNL d   1      12.449  -8.468 -20.694 -0.00 -0.03    -0.303 OA
DOCKED: ATOM     11  H   UNL d   1      11.784  -7.836 -21.023 +0.00 +0.03    +0.222 HD
DOCKED: ENDBRANCH   8  10
DOCKED: BRANCH   8  12
DOCKED: ATOM     12  O   UNL d   1      12.769  -7.437 -18.465 +0.00 -0.04    -0.303 OA
DOCKED: ATOM     13  H   UNL d   1      12.623  -6.628 -19.006 +0.00 +0.03    +0.222 HD
DOCKED: ENDBRANCH   8  12
DOCKED: ENDBRANCH   7   8
DOCKED: ENDBRANCH   1   7
DOCKED: BRANCH   2  14
DOCKED: ATOM     14  O   UNL d   1      11.129  -5.971 -18.975 +0.00 -0.04    -0.278 OA
DOCKED: BRANCH  14  15
DOCKED: ATOM     15  P   UNL d   1      11.112  -5.665 -20.547 +0.00 +0.07    +0.473 P 
DOCKED: ATOM     16  O   UNL d   1      10.110  -6.416 -21.367 +0.00 -0.03    -0.228 OA
DOCKED: BRANCH  15  17
DOCKED: ATOM     17  O   UNL d   1      10.921  -4.086 -20.632 +0.00 -0.05    -0.303 OA
DOCKED: ATOM     18  H   UNL d   1      10.738  -3.706 -19.752 +0.01 +0.04    +0.222 HD
DOCKED: ENDBRANCH  15  17
DOCKED: BRANCH  15  19
DOCKED: ATOM     19  O   UNL d   1      12.628  -5.829 -20.999 +0.00 -0.04    -0.303 OA
DOCKED: ATOM     20  H   UNL d   1      13.091  -6.504 -20.470 +0.00 +0.03    +0.222 HD
DOCKED: ENDBRANCH  15  19
DOCKED: ENDBRANCH  14  15
DOCKED: ENDBRANCH   2  14
DOCKED: BRANCH   6  21
DOCKED: ATOM     21  O   UNL d   1      11.009  -9.271 -16.226 -0.03 -0.04    -0.278 OA
DOCKED: BRANCH  21  22
DOCKED: ATOM     22  P   UNL d   1       9.600  -9.848 -15.750 -0.05 +0.06    +0.473 P 
DOCKED: ATOM     23  O   UNL d   1       9.586 -10.854 -14.649 -0.15 -0.03    -0.228 OA
DOCKED: BRANCH  22  24
DOCKED: ATOM     24  O   UNL d   1       8.787  -8.514 -15.447 -0.16 -0.04    -0.303 OA
DOCKED: ATOM     25  H   UNL d   1       9.136  -8.125 -14.605 +0.09 +0.03    +0.222 HD
DOCKED: ENDBRANCH  22  24
DOCKED: BRANCH  22  26
DOCKED: ATOM     26  O   UNL d   1       8.956 -10.319 -17.141 -0.09 -0.02    -0.303 OA
DOCKED: ATOM     27  H   UNL d   1       9.618 -10.215 -17.854 +0.03 +0.02    +0.222 HD
DOCKED: ENDBRANCH  22  26
DOCKED: ENDBRANCH  21  22
DOCKED: ENDBRANCH   6  21
DOCKED: BRANCH   3  28
DOCKED: ATOM     28  O   UNL d   1       9.635  -4.155 -17.743 -0.03 -0.04    -0.278 OA
DOCKED: BRANCH  28  29
DOCKED: ATOM     29  P   UNL d   1      10.880  -3.255 -17.322 -0.07 +0.10    +0.473 P 
DOCKED: ATOM     30  O   UNL d   1      10.910  -2.831 -15.898 -0.13 -0.00    -0.228 OA
DOCKED: BRANCH  29  31
DOCKED: ATOM     31  O   UNL d   1      12.080  -4.185 -17.828 -0.02 -0.06    -0.303 OA
DOCKED: ATOM     32  H   UNL d   1      11.877  -4.490 -18.742 +0.02 +0.04    +0.222 HD
DOCKED: ENDBRANCH  29  31
DOCKED: BRANCH  29  33
DOCKED: ATOM     33  O   UNL d   1      10.843  -2.100 -18.417 -0.57 -0.14    -0.303 OA
DOCKED: ATOM     34  H   UNL d   1      10.490  -2.471 -19.263 +0.03 +0.06    +0.222 HD
DOCKED: ENDBRANCH  29  33
DOCKED: ENDBRANCH  28  29
DOCKED: ENDBRANCH   3  28
DOCKED: BRANCH   5  35
DOCKED: ATOM     35  O   UNL d   1      11.933  -6.897 -14.797 -0.05 -0.07    -0.278 OA
DOCKED: BRANCH  35  36
DOCKED: ATOM     36  P   UNL d   1      11.825  -7.050 -13.213 -0.15 +0.23    +0.473 P 
DOCKED: ATOM     37  O   UNL d   1      13.119  -7.276 -12.498 -0.18 -0.18    -0.228 OA
DOCKED: BRANCH  36  38
DOCKED: ATOM     38  O   UNL d   1      11.078  -5.705 -12.805 -0.28 -0.16    -0.303 OA
DOCKED: ATOM     39  H   UNL d   1      10.477  -5.437 -13.533 +0.11 +0.07    +0.222 HD
DOCKED: ENDBRANCH  36  38
DOCKED: BRANCH  36  40
DOCKED: ATOM     40  O   UNL d   1      10.708  -8.171 -13.055 -0.18 -0.10    -0.303 OA
DOCKED: ATOM     41  H   UNL d   1      10.426  -8.529 -13.926 +0.09 +0.05    +0.222 HD
DOCKED: ENDBRANCH  36  40
DOCKED: ENDBRANCH  35  36
DOCKED: ENDBRANCH   5  35
DOCKED: BRANCH   4  42
DOCKED: ATOM     42  O   UNL d   1       9.808  -4.910 -14.971 -0.18 -0.04    -0.278 OA
DOCKED: BRANCH  42  43
DOCKED: ATOM     43  P   UNL d   1       8.394  -5.457 -14.474 -0.21 +0.04    +0.473 P 
DOCKED: ATOM     44  O   UNL d   1       7.384  -4.453 -14.037 -0.38 -0.02    -0.228 OA
DOCKED: BRANCH  43  45
DOCKED: ATOM     45  O   UNL d   1       7.923  -6.366 -15.692 -0.15 -0.02    -0.303 OA
DOCKED: ATOM     46  H   UNL d   1       7.343  -7.094 -15.392 +0.08 -0.00    +0.222 HD
DOCKED: ENDBRANCH  43  45
DOCKED: BRANCH  43  47
DOCKED: ATOM     47  O   UNL d   1       8.792  -6.559 -13.380 -0.31 -0.02    -0.303 OA
DOCKED: ATOM     48  H   UNL d   1       9.583  -7.048 -13.687 +0.12 +0.04    +0.222 HD
DOCKED: ENDBRANCH  43  47
DOCKED: ENDBRANCH  42  43
DOCKED: ENDBRANCH   4  42
DOCKED: TORSDOF 24
DOCKED: TER
DOCKED: ENDMDL
________________________________________________________________________________


	BEGINNING GENETIC ALGORITHM DOCKING 47 of 100
Run: 47 Seed: 1353347295 1620235692 [ Run 47 of 100 GA/GALS ]
Beginning LAMARCKIAN GENETIC ALGORITHM (LGA), with a maximum of 25000000 energy evaluations.

Final-Value: -20.461


	FINAL GENETIC ALGORITHM DOCKED STATE
	_______________________________________________


Detailed state:  trans 16.208 0.201 -11.456 quatxyzw -0.368766 0.458042 0.047967 0.807408 center 0.035 0.082 -0.065 ntor 24 -143.3456 -25.2869 -180.0000 -23.6400 3.9116 164.3013 -32.6918 -86.5386 -17.0333 67.6823 51.1221 172.1222 47.3366 171.0804 -173.0473 -45.3396 -7.8017 152.7135 -7.8121 19.1212 -30.6087 7.6673 167.0378 -7.6002
State:	 16.208   0.201 -11.456  -0.625  0.776  0.081 72.313   -143.35  -25.29 -180.00  -23.64    3.91  164.30  -32.69  -86.54  -17.03   67.68   51.12  172.12   47.34  171.08 -173.05  -45.34   -7.80  152.71   -7.81   19.12  -30.61    7.67  167.04   -7.60

DOCKED: MODEL       47
DOCKED: USER    Run = 47
DOCKED: USER    DPF = D:/Protein_go_brrr/autodock/final/AncB/IHP/dock.dpf
DOCKED: USER  
DOCKED: USER    Estimated Free Energy of Binding    =   +2.72 kcal/mol  [=(1)+(2)+(3)-(4)]
DOCKED: USER    
DOCKED: USER    (1) Final Intermolecular Energy     =   -4.44 kcal/mol
DOCKED: USER        vdW + Hbond + desolv Energy     =   -4.43 kcal/mol
DOCKED: USER        Electrostatic Energy            =   -0.01 kcal/mol
DOCKED: USER    (2) Final Total Internal Energy     =  -16.02 kcal/mol
DOCKED: USER    (3) Torsional Free Energy           =   +7.16 kcal/mol
DOCKED: USER    (4) Unbound System's Energy  [=(2)] =  -16.02 kcal/mol
DOCKED: USER    
DOCKED: USER    
DOCKED: USER    NEWDPF move IHP_ideal_opt.pdbqt
DOCKED: USER    NEWDPF about 0.035000 0.082000 -0.065000
DOCKED: USER    NEWDPF tran0 16.207786 0.201126 -11.456158
DOCKED: USER    NEWDPF quaternion0 -0.368766 0.458042 0.047967 0.807408
DOCKED: USER    NEWDPF axisangle0 -0.625034 0.776352 0.081302 72.313032
DOCKED: USER    NEWDPF quat0 -0.625034 0.776352 0.081302 72.313032
DOCKED: USER    NEWDPF dihe0 -143.35 -25.29 -180.00 -23.64 3.91 164.30 -32.69 -86.54 -17.03 67.68 51.12 172.12 47.34 171.08 -173.05 -45.34 -7.80 152.71 -7.81 19.12 -30.61 7.67 167.04 -7.60 
DOCKED: USER  keepresnum = 1 
DOCKED: USER  
DOCKED: REMARK  24 active torsions:
DOCKED: REMARK  status: ('A' for Active; 'I' for Inactive)
DOCKED: REMARK    1  A    between atoms: C_1  and  O_7 
DOCKED: REMARK    2  A    between atoms: C_2  and  O_12 
DOCKED: REMARK    3  A    between atoms: C_3  and  O_17 
DOCKED: REMARK    4  A    between atoms: C_4  and  O_22 
DOCKED: REMARK    5  A    between atoms: C_5  and  O_27 
DOCKED: REMARK    6  A    between atoms: C_6  and  O_32 
DOCKED: REMARK    7  A    between atoms: O_7  and  P_8 
DOCKED: REMARK    8  A    between atoms: P_8  and  O_10 
DOCKED: REMARK    9  A    between atoms: P_8  and  O_11 
DOCKED: REMARK   10  A    between atoms: O_12  and  P_13 
DOCKED: REMARK   11  A    between atoms: P_13  and  O_15 
DOCKED: REMARK   12  A    between atoms: P_13  and  O_16 
DOCKED: REMARK   13  A    between atoms: O_17  and  P_18 
DOCKED: REMARK   14  A    between atoms: P_18  and  O_20 
DOCKED: REMARK   15  A    between atoms: P_18  and  O_21 
DOCKED: REMARK   16  A    between atoms: O_22  and  P_23 
DOCKED: REMARK   17  A    between atoms: P_23  and  O_25 
DOCKED: REMARK   18  A    between atoms: P_23  and  O_26 
DOCKED: REMARK   19  A    between atoms: O_27  and  P_28 
DOCKED: REMARK   20  A    between atoms: P_28  and  O_30 
DOCKED: REMARK   21  A    between atoms: P_28  and  O_31 
DOCKED: REMARK   22  A    between atoms: O_32  and  P_33 
DOCKED: REMARK   23  A    between atoms: P_33  and  O_35 
DOCKED: REMARK   24  A    between atoms: P_33  and  O_36 
DOCKED: USER                              x       y       z     vdW  Elec       q    Type
DOCKED: USER                           _______ _______ _______ _____ _____    ______ ____
DOCKED: ROOT
DOCKED: ATOM      1  C   UNL d   1      16.547  -1.398 -10.898 -0.20 +0.07    +0.194 C 
DOCKED: ATOM      2  C   UNL d   1      16.324  -1.258 -12.404 -0.13 +0.06    +0.194 C 
DOCKED: ATOM      3  C   UNL d   1      15.139  -0.342 -12.719 -0.14 +0.06    +0.194 C 
DOCKED: ATOM      4  C   UNL d   1      15.224   1.013 -12.019 -0.25 +0.07    +0.194 C 
DOCKED: ATOM      5  C   UNL d   1      15.559   0.925 -10.536 -0.30 +0.09    +0.194 C 
DOCKED: ATOM      6  C   UNL d   1      16.704  -0.038 -10.215 -0.26 +0.07    +0.194 C 
DOCKED: ENDROOT
DOCKED: BRANCH   1   7
DOCKED: ATOM      7  O   UNL d   1      17.764  -2.120 -10.692 -0.05 -0.08    -0.278 OA
DOCKED: BRANCH   7   8
DOCKED: ATOM      8  P   UNL d   1      17.749  -3.362  -9.687 -0.07 +0.16    +0.473 P 
DOCKED: ATOM      9  O   UNL d   1      17.635  -4.697 -10.335 -0.06 -0.08    -0.228 OA
DOCKED: BRANCH   8  10
DOCKED: ATOM     10  O   UNL d   1      19.088  -3.188  -8.838 -0.03 -0.08    -0.303 OA
DOCKED: ATOM     11  H   UNL d   1      19.076  -2.326  -8.381 +0.06 +0.06    +0.222 HD
DOCKED: ENDBRANCH   8  10
DOCKED: BRANCH   8  12
DOCKED: ATOM     12  O   UNL d   1      16.628  -3.013  -8.616 -0.14 -0.14    -0.303 OA
DOCKED: ATOM     13  H   UNL d   1      16.887  -2.280  -8.012 +0.12 +0.10    +0.222 HD
DOCKED: ENDBRANCH   8  12
DOCKED: ENDBRANCH   7   8
DOCKED: ENDBRANCH   1   7
DOCKED: BRANCH   2  14
DOCKED: ATOM     14  O   UNL d   1      17.502  -0.701 -13.001 -0.02 -0.07    -0.278 OA
DOCKED: BRANCH  14  15
DOCKED: ATOM     15  P   UNL d   1      17.799  -1.115 -14.519 +0.00 +0.10    +0.473 P 
DOCKED: ATOM     16  O   UNL d   1      19.200  -1.534 -14.840 -0.00 -0.04    -0.228 OA
DOCKED: BRANCH  15  17
DOCKED: ATOM     17  O   UNL d   1      16.729  -2.254 -14.827 -0.02 -0.07    -0.303 OA
DOCKED: ATOM     18  H   UNL d   1      15.873  -1.869 -15.096 +0.04 +0.05    +0.222 HD
DOCKED: ENDBRANCH  15  17
DOCKED: BRANCH  15  19
DOCKED: ATOM     19  O   UNL d   1      17.232   0.097 -15.379 -0.01 -0.07    -0.303 OA
DOCKED: ATOM     20  H   UNL d   1      16.272   0.013 -15.532 +0.03 +0.05    +0.222 HD
DOCKED: ENDBRANCH  15  19
DOCKED: ENDBRANCH  14  15
DOCKED: ENDBRANCH   2  14
DOCKED: BRANCH   6  21
DOCKED: ATOM     21  O   UNL d   1      16.667  -0.269  -8.809 -0.29 -0.09    -0.278 OA
DOCKED: BRANCH  21  22
DOCKED: ATOM     22  P   UNL d   1      18.013  -0.185  -7.957 -0.17 +0.17    +0.473 P 
DOCKED: ATOM     23  O   UNL d   1      18.197  -1.148  -6.833 -0.28 -0.08    -0.228 OA
DOCKED: BRANCH  22  24
DOCKED: ATOM     24  O   UNL d   1      19.124  -0.266  -9.094 -0.04 -0.09    -0.303 OA
DOCKED: ATOM     25  H   UNL d   1      19.033  -1.140  -9.552 +0.05 +0.06    +0.222 HD
DOCKED: ENDBRANCH  22  24
DOCKED: BRANCH  22  26
DOCKED: ATOM     26  O   UNL d   1      18.053   1.369  -7.565 -0.23 -0.19    -0.303 OA
DOCKED: ATOM     27  H   UNL d   1      17.362   1.846  -8.068 +0.05 +0.18    +0.222 HD
DOCKED: ENDBRANCH  22  26
DOCKED: ENDBRANCH  21  22
DOCKED: ENDBRANCH   6  21
DOCKED: BRANCH   3  28
DOCKED: ATOM     28  O   UNL d   1      15.180  -0.051 -14.110 -0.12 -0.08    -0.278 OA
DOCKED: BRANCH  28  29
DOCKED: ATOM     29  P   UNL d   1      13.978  -0.489 -15.059 -0.15 +0.13    +0.473 P 
DOCKED: ATOM     30  O   UNL d   1      13.865  -1.947 -15.319 -0.18 -0.05    -0.228 OA
DOCKED: BRANCH  29  31
DOCKED: ATOM     31  O   UNL d   1      12.755   0.211 -14.300 -0.30 -0.07    -0.303 OA
DOCKED: ATOM     32  H   UNL d   1      13.112   0.913 -13.709 +0.00 +0.04    +0.222 HD
DOCKED: ENDBRANCH  29  31
DOCKED: BRANCH  29  33
DOCKED: ATOM     33  O   UNL d   1      14.192   0.453 -16.325 -0.07 -0.10    -0.303 OA
DOCKED: ATOM     34  H   UNL d   1      14.648   1.281 -16.036 +0.05 +0.07    +0.222 HD
DOCKED: ENDBRANCH  29  33
DOCKED: ENDBRANCH  28  29
DOCKED: ENDBRANCH   3  28
DOCKED: BRANCH   5  35
DOCKED: ATOM     35  O   UNL d   1      15.992   2.231 -10.159 -0.19 -0.21    -0.278 OA
DOCKED: BRANCH  35  36
DOCKED: ATOM     36  P   UNL d   1      17.294   2.870 -10.823 -0.08 +0.32    +0.473 P 
DOCKED: ATOM     37  O   UNL d   1      17.503   2.551 -12.269 -0.04 -0.09    -0.228 OA
DOCKED: BRANCH  36  38
DOCKED: ATOM     38  O   UNL d   1      17.088   4.419 -10.517 -0.14 -0.36    -0.303 OA
DOCKED: ATOM     39  H   UNL d   1      16.551   4.820 -11.234 +0.09 +0.19    +0.222 HD
DOCKED: ENDBRANCH  36  38
DOCKED: BRANCH  36  40
DOCKED: ATOM     40  O   UNL d   1      18.441   2.430  -9.813 -0.08 -0.20    -0.303 OA
DOCKED: ATOM     41  H   UNL d   1      18.205   1.607  -9.330 +0.07 +0.13    +0.222 HD
DOCKED: ENDBRANCH  36  40
DOCKED: ENDBRANCH  35  36
DOCKED: ENDBRANCH   5  35
DOCKED: BRANCH   4  42
DOCKED: ATOM     42  O   UNL d   1      13.930   1.615 -12.124 -0.13 -0.08    -0.278 OA
DOCKED: BRANCH  42  43
DOCKED: ATOM     43  P   UNL d   1      13.784   3.000 -12.900 -0.24 +0.14    +0.473 P 
DOCKED: ATOM     44  O   UNL d   1      12.557   3.805 -12.645 -0.47 -0.05    -0.228 OA
DOCKED: BRANCH  43  45
DOCKED: ATOM     45  O   UNL d   1      15.140   3.749 -12.537 -0.14 -0.13    -0.303 OA
DOCKED: ATOM     46  H   UNL d   1      15.537   3.392 -11.717 +0.11 +0.13    +0.222 HD
DOCKED: ENDBRANCH  43  45
DOCKED: BRANCH  43  47
DOCKED: ATOM     47  O   UNL d   1      14.037   2.592 -14.430 -0.17 -0.09    -0.303 OA
DOCKED: ATOM     48  H   UNL d   1      14.348   1.663 -14.468 +0.09 +0.07    +0.222 HD
DOCKED: ENDBRANCH  43  47
DOCKED: ENDBRANCH  42  43
DOCKED: ENDBRANCH   4  42
DOCKED: TORSDOF 24
DOCKED: TER
DOCKED: ENDMDL
________________________________________________________________________________


	BEGINNING GENETIC ALGORITHM DOCKING 48 of 100
Run: 48 Seed: 834773264 216613556 [ Run 48 of 100 GA/GALS ]
Beginning LAMARCKIAN GENETIC ALGORITHM (LGA), with a maximum of 25000000 energy evaluations.

Final-Value: -17.975


	FINAL GENETIC ALGORITHM DOCKED STATE
	_______________________________________________


Detailed state:  trans -17.754 0.352 5.491 quatxyzw 0.722292 0.579497 0.079062 -0.369090 center 0.035 0.082 -0.065 ntor 24 97.2938 65.2937 170.3567 21.5726 35.3291 -3.9093 -37.5745 -0.9642 71.3219 123.7546 159.5639 113.7169 -66.8722 174.3796 -124.6272 120.5083 112.4710 100.3089 58.0084 9.8171 -61.5535 -6.0526 157.8041 -35.1228
State:	-17.754   0.352   5.491   0.777  0.624  0.085 -136.681     97.29   65.29  170.36   21.57   35.33   -3.91  -37.57   -0.96   71.32  123.75  159.56  113.72  -66.87  174.38 -124.63  120.51  112.47  100.31   58.01    9.82  -61.55   -6.05  157.80  -35.12

DOCKED: MODEL       48
DOCKED: USER    Run = 48
DOCKED: USER    DPF = D:/Protein_go_brrr/autodock/final/AncB/IHP/dock.dpf
DOCKED: USER  
DOCKED: USER    Estimated Free Energy of Binding    =   +2.30 kcal/mol  [=(1)+(2)+(3)-(4)]
DOCKED: USER    
DOCKED: USER    (1) Final Intermolecular Energy     =   -4.86 kcal/mol
DOCKED: USER        vdW + Hbond + desolv Energy     =   -4.57 kcal/mol
DOCKED: USER        Electrostatic Energy            =   -0.29 kcal/mol
DOCKED: USER    (2) Final Total Internal Energy     =  -13.11 kcal/mol
DOCKED: USER    (3) Torsional Free Energy           =   +7.16 kcal/mol
DOCKED: USER    (4) Unbound System's Energy  [=(2)] =  -13.11 kcal/mol
DOCKED: USER    
DOCKED: USER    
DOCKED: USER    NEWDPF move IHP_ideal_opt.pdbqt
DOCKED: USER    NEWDPF about 0.035000 0.082000 -0.065000
DOCKED: USER    NEWDPF tran0 -17.753979 0.351911 5.491162
DOCKED: USER    NEWDPF quaternion0 0.722292 0.579497 0.079062 -0.369090
DOCKED: USER    NEWDPF axisangle0 0.777164 0.623521 0.085069 -136.680961
DOCKED: USER    NEWDPF quat0 0.777164 0.623521 0.085069 -136.680961
DOCKED: USER    NEWDPF dihe0 97.29 65.29 170.36 21.57 35.33 -3.91 -37.57 -0.96 71.32 123.75 159.56 113.72 -66.87 174.38 -124.63 120.51 112.47 100.31 58.01 9.82 -61.55 -6.05 157.80 -35.12 
DOCKED: USER  keepresnum = 1 
DOCKED: USER  
DOCKED: REMARK  24 active torsions:
DOCKED: REMARK  status: ('A' for Active; 'I' for Inactive)
DOCKED: REMARK    1  A    between atoms: C_1  and  O_7 
DOCKED: REMARK    2  A    between atoms: C_2  and  O_12 
DOCKED: REMARK    3  A    between atoms: C_3  and  O_17 
DOCKED: REMARK    4  A    between atoms: C_4  and  O_22 
DOCKED: REMARK    5  A    between atoms: C_5  and  O_27 
DOCKED: REMARK    6  A    between atoms: C_6  and  O_32 
DOCKED: REMARK    7  A    between atoms: O_7  and  P_8 
DOCKED: REMARK    8  A    between atoms: P_8  and  O_10 
DOCKED: REMARK    9  A    between atoms: P_8  and  O_11 
DOCKED: REMARK   10  A    between atoms: O_12  and  P_13 
DOCKED: REMARK   11  A    between atoms: P_13  and  O_15 
DOCKED: REMARK   12  A    between atoms: P_13  and  O_16 
DOCKED: REMARK   13  A    between atoms: O_17  and  P_18 
DOCKED: REMARK   14  A    between atoms: P_18  and  O_20 
DOCKED: REMARK   15  A    between atoms: P_18  and  O_21 
DOCKED: REMARK   16  A    between atoms: O_22  and  P_23 
DOCKED: REMARK   17  A    between atoms: P_23  and  O_25 
DOCKED: REMARK   18  A    between atoms: P_23  and  O_26 
DOCKED: REMARK   19  A    between atoms: O_27  and  P_28 
DOCKED: REMARK   20  A    between atoms: P_28  and  O_30 
DOCKED: REMARK   21  A    between atoms: P_28  and  O_31 
DOCKED: REMARK   22  A    between atoms: O_32  and  P_33 
DOCKED: REMARK   23  A    between atoms: P_33  and  O_35 
DOCKED: REMARK   24  A    between atoms: P_33  and  O_36 
DOCKED: USER                              x       y       z     vdW  Elec       q    Type
DOCKED: USER                           _______ _______ _______ _____ _____    ______ ____
DOCKED: ROOT
DOCKED: ATOM      1  C   UNL d   1     -17.621   1.174   3.978 -0.18 +0.02    +0.194 C 
DOCKED: ATOM      2  C   UNL d   1     -18.841   0.265   4.131 -0.15 +0.00    +0.194 C 
DOCKED: ATOM      3  C   UNL d   1     -18.476  -1.068   4.788 -0.07 -0.02    +0.194 C 
DOCKED: ATOM      4  C   UNL d   1     -17.712  -0.901   6.100 -0.18 +0.00    +0.194 C 
DOCKED: ATOM      5  C   UNL d   1     -16.555   0.086   6.023 -0.26 -0.01    +0.194 C 
DOCKED: ATOM      6  C   UNL d   1     -16.903   1.394   5.310 -0.24 +0.01    +0.194 C 
DOCKED: ENDROOT
DOCKED: BRANCH   1   7
DOCKED: ATOM      7  O   UNL d   1     -18.071   2.452   3.520 -0.12 -0.04    -0.278 OA
DOCKED: BRANCH   7   8
DOCKED: ATOM      8  P   UNL d   1     -18.746   2.546   2.075 -0.06 +0.11    +0.473 P 
DOCKED: ATOM      9  O   UNL d   1     -18.525   1.364   1.198 -0.16 -0.06    -0.228 OA
DOCKED: BRANCH   8  10
DOCKED: ATOM     10  O   UNL d   1     -20.287   2.819   2.384 -0.02 -0.05    -0.303 OA
DOCKED: ATOM     11  H   UNL d   1     -20.652   2.079   2.903 +0.03 +0.03    +0.222 HD
DOCKED: ENDBRANCH   8  10
DOCKED: BRANCH   8  12
DOCKED: ATOM     12  O   UNL d   1     -18.271   3.944   1.489 -0.10 -0.11    -0.303 OA
DOCKED: ATOM     13  H   UNL d   1     -17.467   4.296   1.933 +0.04 +0.08    +0.222 HD
DOCKED: ENDBRANCH   8  12
DOCKED: ENDBRANCH   7   8
DOCKED: ENDBRANCH   1   7
DOCKED: BRANCH   2  14
DOCKED: ATOM     14  O   UNL d   1     -19.817   0.925   4.947 -0.03 -0.02    -0.278 OA
DOCKED: BRANCH  14  15
DOCKED: ATOM     15  P   UNL d   1     -21.349   0.738   4.524 -0.00 +0.04    +0.473 P 
DOCKED: ATOM     16  O   UNL d   1     -22.173   1.983   4.414 -0.00 -0.02    -0.228 OA
DOCKED: BRANCH  15  17
DOCKED: ATOM     17  O   UNL d   1     -21.277  -0.076   3.157 -0.01 -0.02    -0.303 OA
DOCKED: ATOM     18  H   UNL d   1     -21.052  -1.013   3.317 +0.03 +0.01    +0.222 HD
DOCKED: ENDBRANCH  15  17
DOCKED: BRANCH  15  19
DOCKED: ATOM     19  O   UNL d   1     -21.906  -0.366   5.525 -0.00 -0.02    -0.303 OA
DOCKED: ATOM     20  H   UNL d   1     -21.243  -1.059   5.701 +0.01 +0.01    +0.222 HD
DOCKED: ENDBRANCH  15  19
DOCKED: ENDBRANCH  14  15
DOCKED: ENDBRANCH   2  14
DOCKED: BRANCH   6  21
DOCKED: ATOM     21  O   UNL d   1     -15.669   2.046   5.018 -0.29 -0.02    -0.278 OA
DOCKED: BRANCH  21  22
DOCKED: ATOM     22  P   UNL d   1     -15.664   3.593   4.629 -0.18 +0.07    +0.473 P 
DOCKED: ATOM     23  O   UNL d   1     -15.691   3.957   3.183 -0.22 -0.05    -0.228 OA
DOCKED: BRANCH  22  24
DOCKED: ATOM     24  O   UNL d   1     -16.890   4.147   5.480 -0.06 -0.04    -0.303 OA
DOCKED: ATOM     25  H   UNL d   1     -17.557   3.420   5.568 +0.05 +0.02    +0.222 HD
DOCKED: ENDBRANCH  22  24
DOCKED: BRANCH  22  26
DOCKED: ATOM     26  O   UNL d   1     -14.408   4.135   5.466 -0.26 -0.05    -0.303 OA
DOCKED: ATOM     27  H   UNL d   1     -14.322   5.100   5.329 +0.12 +0.03    +0.222 HD
DOCKED: ENDBRANCH  22  26
DOCKED: ENDBRANCH  21  22
DOCKED: ENDBRANCH   6  21
DOCKED: BRANCH   3  28
DOCKED: ATOM     28  O   UNL d   1     -19.690  -1.719   5.139 -0.05 -0.00    -0.278 OA
DOCKED: BRANCH  28  29
DOCKED: ATOM     29  P   UNL d   1     -20.222  -2.948   4.276 -0.02 +0.00    +0.473 P 
DOCKED: ATOM     30  O   UNL d   1     -19.841  -4.294   4.777 -0.05 -0.00    -0.228 OA
DOCKED: BRANCH  29  31
DOCKED: ATOM     31  O   UNL d   1     -21.784  -2.604   4.234 -0.00 -0.02    -0.303 OA
DOCKED: ATOM     32  H   UNL d   1     -21.909  -1.673   4.529 +0.01 +0.01    +0.222 HD
DOCKED: ENDBRANCH  29  31
DOCKED: BRANCH  29  33
DOCKED: ATOM     33  O   UNL d   1     -19.737  -2.562   2.810 -0.11 +0.03    -0.303 OA
DOCKED: ATOM     34  H   UNL d   1     -18.754  -2.452   2.815 -0.46 -0.09    +0.222 HD
DOCKED: ENDBRANCH  29  33
DOCKED: ENDBRANCH  28  29
DOCKED: ENDBRANCH   3  28
DOCKED: BRANCH   5  35
DOCKED: ATOM     35  O   UNL d   1     -16.237   0.416   7.374 -0.16 -0.01    -0.278 OA
DOCKED: BRANCH  35  36
DOCKED: ATOM     36  P   UNL d   1     -17.223   1.329   8.232 -0.04 +0.04    +0.473 P 
DOCKED: ATOM     37  O   UNL d   1     -17.110   1.182   9.716 -0.14 -0.01    -0.228 OA
DOCKED: BRANCH  36  38
DOCKED: ATOM     38  O   UNL d   1     -16.873   2.785   7.691 -0.07 -0.03    -0.303 OA
DOCKED: ATOM     39  H   UNL d   1     -16.188   2.712   6.991 +0.09 +0.03    +0.222 HD
DOCKED: ENDBRANCH  36  38
DOCKED: BRANCH  36  40
DOCKED: ATOM     40  O   UNL d   1     -18.638   1.008   7.580 -0.02 -0.02    -0.303 OA
DOCKED: ATOM     41  H   UNL d   1     -19.024   0.178   7.938 +0.04 +0.02    +0.222 HD
DOCKED: ENDBRANCH  36  40
DOCKED: ENDBRANCH  35  36
DOCKED: ENDBRANCH   5  35
DOCKED: BRANCH   4  42
DOCKED: ATOM     42  O   UNL d   1     -17.154  -2.180   6.419 -0.19 -0.01    -0.278 OA
DOCKED: BRANCH  42  43
DOCKED: ATOM     43  P   UNL d   1     -17.025  -2.605   7.951 -0.17 +0.16    +0.473 P 
DOCKED: ATOM     44  O   UNL d   1     -17.203  -4.046   8.282 -0.77 -0.20    -0.228 OA
DOCKED: BRANCH  43  45
DOCKED: ATOM     45  O   UNL d   1     -15.604  -2.015   8.359 -0.27 -0.09    -0.303 OA
DOCKED: ATOM     46  H   UNL d   1     -15.673  -1.083   8.648 +0.13 +0.05    +0.222 HD
DOCKED: ENDBRANCH  43  45
DOCKED: BRANCH  43  47
DOCKED: ATOM     47  O   UNL d   1     -18.023  -1.595   8.696 -0.07 -0.08    -0.303 OA
DOCKED: ATOM     48  H   UNL d   1     -17.667  -0.685   8.634 +0.07 +0.04    +0.222 HD
DOCKED: ENDBRANCH  43  47
DOCKED: ENDBRANCH  42  43
DOCKED: ENDBRANCH   4  42
DOCKED: TORSDOF 24
DOCKED: TER
DOCKED: ENDMDL
________________________________________________________________________________


	BEGINNING GENETIC ALGORITHM DOCKING 49 of 100
Run: 49 Seed: 671819575 979786210 [ Run 49 of 100 GA/GALS ]
Beginning LAMARCKIAN GENETIC ALGORITHM (LGA), with a maximum of 25000000 energy evaluations.

Final-Value: -14.967


	FINAL GENETIC ALGORITHM DOCKED STATE
	_______________________________________________


Detailed state:  trans -9.460 -14.903 -13.862 quatxyzw 0.413280 -0.391640 0.060307 -0.819866 center 0.035 0.082 -0.065 ntor 24 81.5426 80.2585 87.1597 154.7663 -135.2659 -174.7512 -4.8246 164.7222 122.9062 12.6927 45.8854 80.8077 -169.1834 87.4322 9.3204 133.9555 47.9303 174.4461 -20.9719 -20.9405 144.0933 -36.4516 -155.8167 26.0327
State:	 -9.460 -14.903 -13.862   0.722 -0.684  0.105 -69.857     81.54   80.26   87.16  154.77 -135.27 -174.75   -4.82  164.72  122.91   12.69   45.89   80.81 -169.18   87.43    9.32  133.96   47.93  174.45  -20.97  -20.94  144.09  -36.45 -155.82   26.03

DOCKED: MODEL       49
DOCKED: USER    Run = 49
DOCKED: USER    DPF = D:/Protein_go_brrr/autodock/final/AncB/IHP/dock.dpf
DOCKED: USER  
DOCKED: USER    Estimated Free Energy of Binding    =   +2.92 kcal/mol  [=(1)+(2)+(3)-(4)]
DOCKED: USER    
DOCKED: USER    (1) Final Intermolecular Energy     =   -4.24 kcal/mol
DOCKED: USER        vdW + Hbond + desolv Energy     =   -3.21 kcal/mol
DOCKED: USER        Electrostatic Energy            =   -1.04 kcal/mol
DOCKED: USER    (2) Final Total Internal Energy     =  -10.72 kcal/mol
DOCKED: USER    (3) Torsional Free Energy           =   +7.16 kcal/mol
DOCKED: USER    (4) Unbound System's Energy  [=(2)] =  -10.72 kcal/mol
DOCKED: USER    
DOCKED: USER    
DOCKED: USER    NEWDPF move IHP_ideal_opt.pdbqt
DOCKED: USER    NEWDPF about 0.035000 0.082000 -0.065000
DOCKED: USER    NEWDPF tran0 -9.460317 -14.902944 -13.862203
DOCKED: USER    NEWDPF quaternion0 0.413280 -0.391640 0.060307 -0.819866
DOCKED: USER    NEWDPF axisangle0 0.721817 -0.684022 0.105330 -69.857219
DOCKED: USER    NEWDPF quat0 0.721817 -0.684022 0.105330 -69.857219
DOCKED: USER    NEWDPF dihe0 81.54 80.26 87.16 154.77 -135.27 -174.75 -4.82 164.72 122.91 12.69 45.89 80.81 -169.18 87.43 9.32 133.96 47.93 174.45 -20.97 -20.94 144.09 -36.45 -155.82 26.03 
DOCKED: USER  keepresnum = 1 
DOCKED: USER  
DOCKED: REMARK  24 active torsions:
DOCKED: REMARK  status: ('A' for Active; 'I' for Inactive)
DOCKED: REMARK    1  A    between atoms: C_1  and  O_7 
DOCKED: REMARK    2  A    between atoms: C_2  and  O_12 
DOCKED: REMARK    3  A    between atoms: C_3  and  O_17 
DOCKED: REMARK    4  A    between atoms: C_4  and  O_22 
DOCKED: REMARK    5  A    between atoms: C_5  and  O_27 
DOCKED: REMARK    6  A    between atoms: C_6  and  O_32 
DOCKED: REMARK    7  A    between atoms: O_7  and  P_8 
DOCKED: REMARK    8  A    between atoms: P_8  and  O_10 
DOCKED: REMARK    9  A    between atoms: P_8  and  O_11 
DOCKED: REMARK   10  A    between atoms: O_12  and  P_13 
DOCKED: REMARK   11  A    between atoms: P_13  and  O_15 
DOCKED: REMARK   12  A    between atoms: P_13  and  O_16 
DOCKED: REMARK   13  A    between atoms: O_17  and  P_18 
DOCKED: REMARK   14  A    between atoms: P_18  and  O_20 
DOCKED: REMARK   15  A    between atoms: P_18  and  O_21 
DOCKED: REMARK   16  A    between atoms: O_22  and  P_23 
DOCKED: REMARK   17  A    between atoms: P_23  and  O_25 
DOCKED: REMARK   18  A    between atoms: P_23  and  O_26 
DOCKED: REMARK   19  A    between atoms: O_27  and  P_28 
DOCKED: REMARK   20  A    between atoms: P_28  and  O_30 
DOCKED: REMARK   21  A    between atoms: P_28  and  O_31 
DOCKED: REMARK   22  A    between atoms: O_32  and  P_33 
DOCKED: REMARK   23  A    between atoms: P_33  and  O_35 
DOCKED: REMARK   24  A    between atoms: P_33  and  O_36 
DOCKED: USER                              x       y       z     vdW  Elec       q    Type
DOCKED: USER                           _______ _______ _______ _____ _____    ______ ____
DOCKED: ROOT
DOCKED: ATOM      1  C   UNL d   1      -8.694 -16.336 -13.277 -0.07 -0.06    +0.194 C 
DOCKED: ATOM      2  C   UNL d   1      -8.992 -16.312 -14.777 -0.04 -0.06    +0.194 C 
DOCKED: ATOM      3  C   UNL d   1     -10.385 -15.751 -15.069 -0.01 -0.02    +0.194 C 
DOCKED: ATOM      4  C   UNL d   1     -10.640 -14.398 -14.408 -0.05 -0.02    +0.194 C 
DOCKED: ATOM      5  C   UNL d   1     -10.249 -14.344 -12.937 -0.09 -0.04    +0.194 C 
DOCKED: ATOM      6  C   UNL d   1      -8.881 -14.961 -12.636 +0.04 -0.14    +0.194 C 
DOCKED: ENDROOT
DOCKED: BRANCH   1   7
DOCKED: ATOM      7  O   UNL d   1      -7.325 -16.706 -13.100 -0.11 +0.12    -0.278 OA
DOCKED: BRANCH   7   8
DOCKED: ATOM      8  P   UNL d   1      -6.943 -17.631 -11.855 -0.08 +0.16    +0.473 P 
DOCKED: ATOM      9  O   UNL d   1      -6.017 -17.010 -10.868 -0.66 -0.19    -0.228 OA
DOCKED: BRANCH   8  10
DOCKED: ATOM     10  O   UNL d   1      -8.352 -18.034 -11.226 -0.11 -0.24    -0.303 OA
DOCKED: ATOM     11  H   UNL d   1      -8.714 -17.280 -10.724 +0.03 +0.23    +0.222 HD
DOCKED: ENDBRANCH   8  10
DOCKED: BRANCH   8  12
DOCKED: ATOM     12  O   UNL d   1      -6.458 -19.003 -12.492 -0.02 -0.03    -0.303 OA
DOCKED: ATOM     13  H   UNL d   1      -5.976 -18.885 -13.341 +0.03 -0.04    +0.222 HD
DOCKED: ENDBRANCH   8  12
DOCKED: ENDBRANCH   7   8
DOCKED: ENDBRANCH   1   7
DOCKED: BRANCH   2  14
DOCKED: ATOM     14  O   UNL d   1      -8.021 -15.486 -15.432 -0.08 +0.24    -0.278 OA
DOCKED: BRANCH  14  15
DOCKED: ATOM     15  P   UNL d   1      -6.967 -16.234 -16.378 -0.04 -0.30    +0.473 P 
DOCKED: ATOM     16  O   UNL d   1      -6.567 -15.522 -17.632 -0.04 +0.10    -0.228 OA
DOCKED: BRANCH  15  17
DOCKED: ATOM     17  O   UNL d   1      -5.732 -16.537 -15.419 -0.12 +0.32    -0.303 OA
DOCKED: ATOM     18  H   UNL d   1      -5.840 -16.093 -14.556 -0.01 -0.34    +0.222 HD
DOCKED: ENDBRANCH  15  17
DOCKED: BRANCH  15  19
DOCKED: ATOM     19  O   UNL d   1      -7.578 -17.689 -16.580 -0.00 +0.06    -0.303 OA
DOCKED: ATOM     20  H   UNL d   1      -8.103 -17.749 -17.400 +0.01 -0.02    +0.222 HD
DOCKED: ENDBRANCH  15  19
DOCKED: ENDBRANCH  14  15
DOCKED: ENDBRANCH   2  14
DOCKED: BRANCH   6  21
DOCKED: ATOM     21  O   UNL d   1      -8.814 -15.145 -11.223 -0.15 +0.03    -0.278 OA
DOCKED: BRANCH  21  22
DOCKED: ATOM     22  P   UNL d   1     -10.087 -15.695 -10.435 -0.06 +0.22    +0.473 P 
DOCKED: ATOM     23  O   UNL d   1     -10.899 -16.771 -11.072 -0.02 -0.08    -0.228 OA
DOCKED: BRANCH  22  24
DOCKED: ATOM     24  O   UNL d   1      -9.455 -16.082  -9.026 -0.27 -0.44    -0.303 OA
DOCKED: ATOM     25  H   UNL d   1     -10.185 -16.105  -8.357 +0.04 +0.24    +0.222 HD
DOCKED: ENDBRANCH  22  24
DOCKED: BRANCH  22  26
DOCKED: ATOM     26  O   UNL d   1     -10.866 -14.338 -10.087 -0.07 -0.10    -0.303 OA
DOCKED: ATOM     27  H   UNL d   1     -10.465 -13.599 -10.588 +0.07 +0.04    +0.222 HD
DOCKED: ENDBRANCH  22  26
DOCKED: ENDBRANCH  21  22
DOCKED: ENDBRANCH   6  21
DOCKED: BRANCH   3  28
DOCKED: ATOM     28  O   UNL d   1     -10.465 -15.508 -16.468 -0.00 +0.01    -0.278 OA
DOCKED: BRANCH  28  29
DOCKED: ATOM     29  P   UNL d   1     -10.613 -16.722 -17.488 +0.01 +0.01    +0.473 P 
DOCKED: ATOM     30  O   UNL d   1     -11.946 -16.861 -18.129 +0.00 -0.02    -0.228 OA
DOCKED: BRANCH  29  31
DOCKED: ATOM     31  O   UNL d   1      -9.370 -16.429 -18.453 +0.00 +0.00    -0.303 OA
DOCKED: ATOM     32  H   UNL d   1      -8.579 -16.239 -17.897 +0.01 -0.03    +0.222 HD
DOCKED: ENDBRANCH  29  31
DOCKED: BRANCH  29  33
DOCKED: ATOM     33  O   UNL d   1     -10.101 -17.953 -16.619 +0.00 -0.00    -0.303 OA
DOCKED: ATOM     34  H   UNL d   1      -9.505 -18.513 -17.174 +0.00 +0.00    +0.222 HD
DOCKED: ENDBRANCH  29  33
DOCKED: ENDBRANCH  28  29
DOCKED: ENDBRANCH   3  28
DOCKED: BRANCH   5  35
DOCKED: ATOM     35  O   UNL d   1     -10.165 -12.958 -12.610 -0.16 +0.06    -0.278 OA
DOCKED: BRANCH  35  36
DOCKED: ATOM     36  P   UNL d   1      -9.862 -11.880 -13.746 -0.11 -0.08    +0.473 P 
DOCKED: ATOM     37  O   UNL d   1     -11.065 -11.271 -14.394 -0.12 -0.12    -0.228 OA
DOCKED: BRANCH  36  38
DOCKED: ATOM     38  O   UNL d   1      -8.940 -10.839 -12.970 -0.17 +0.08    -0.303 OA
DOCKED: ATOM     39  H   UNL d   1      -8.195 -11.321 -12.551 -0.26 -0.30    +0.222 HD
DOCKED: ENDBRANCH  36  38
DOCKED: BRANCH  36  40
DOCKED: ATOM     40  O   UNL d   1      -8.849 -12.659 -14.692 -0.10 +0.30    -0.303 OA
DOCKED: ATOM     41  H   UNL d   1      -8.321 -13.321 -14.193 -0.43 -0.50    +0.222 HD
DOCKED: ENDBRANCH  36  40
DOCKED: ENDBRANCH  35  36
DOCKED: ENDBRANCH   5  35
DOCKED: BRANCH   4  42
DOCKED: ATOM     42  O   UNL d   1     -12.050 -14.162 -14.478 -0.01 -0.05    -0.278 OA
DOCKED: BRANCH  42  43
DOCKED: ATOM     43  P   UNL d   1     -12.657 -13.507 -15.800 +0.01 +0.12    +0.473 P 
DOCKED: ATOM     44  O   UNL d   1     -13.729 -12.486 -15.630 -0.02 -0.10    -0.228 OA
DOCKED: BRANCH  43  45
DOCKED: ATOM     45  O   UNL d   1     -11.361 -12.972 -16.551 -0.00 -0.05    -0.303 OA
DOCKED: ATOM     46  H   UNL d   1     -10.641 -12.766 -15.922 +0.03 +0.01    +0.222 HD
DOCKED: ENDBRANCH  43  45
DOCKED: BRANCH  43  47
DOCKED: ATOM     47  O   UNL d   1     -13.049 -14.780 -16.692 +0.00 -0.05    -0.303 OA
DOCKED: ATOM     48  H   UNL d   1     -12.354 -14.927 -17.366 +0.00 +0.03    +0.222 HD
DOCKED: ENDBRANCH  43  47
DOCKED: ENDBRANCH  42  43
DOCKED: ENDBRANCH   4  42
DOCKED: TORSDOF 24
DOCKED: TER
DOCKED: ENDMDL
________________________________________________________________________________


	BEGINNING GENETIC ALGORITHM DOCKING 50 of 100
Run: 50 Seed: 356185028 1168166000 [ Run 50 of 100 GA/GALS ]
Beginning LAMARCKIAN GENETIC ALGORITHM (LGA), with a maximum of 25000000 energy evaluations.

Final-Value: -16.956


	FINAL GENETIC ALGORITHM DOCKED STATE
	_______________________________________________


Detailed state:  trans -12.888 -6.040 -7.866 quatxyzw 0.265832 -0.409925 0.859493 0.150221 center 0.035 0.082 -0.065 ntor 24 -145.7396 -19.3323 2.6630 124.6156 65.1687 -39.6575 -75.5463 -1.2758 165.6606 121.7306 135.5544 -61.1103 39.2315 -38.2261 -114.3554 41.3088 44.5582 31.3811 -10.3393 -34.2882 -17.6555 -42.3600 -179.7382 65.4495
State:	-12.888  -6.040  -7.866   0.269 -0.415  0.869 162.720   -145.74  -19.33    2.66  124.62   65.17  -39.66  -75.55   -1.28  165.66  121.73  135.55  -61.11   39.23  -38.23 -114.36   41.31   44.56   31.38  -10.34  -34.29  -17.66  -42.36 -179.74   65.45

DOCKED: MODEL       50
DOCKED: USER    Run = 50
DOCKED: USER    DPF = D:/Protein_go_brrr/autodock/final/AncB/IHP/dock.dpf
DOCKED: USER  
DOCKED: USER    Estimated Free Energy of Binding    =   +2.10 kcal/mol  [=(1)+(2)+(3)-(4)]
DOCKED: USER    
DOCKED: USER    (1) Final Intermolecular Energy     =   -5.06 kcal/mol
DOCKED: USER        vdW + Hbond + desolv Energy     =   -4.81 kcal/mol
DOCKED: USER        Electrostatic Energy            =   -0.25 kcal/mol
DOCKED: USER    (2) Final Total Internal Energy     =  -11.89 kcal/mol
DOCKED: USER    (3) Torsional Free Energy           =   +7.16 kcal/mol
DOCKED: USER    (4) Unbound System's Energy  [=(2)] =  -11.89 kcal/mol
DOCKED: USER    
DOCKED: USER    
DOCKED: USER    NEWDPF move IHP_ideal_opt.pdbqt
DOCKED: USER    NEWDPF about 0.035000 0.082000 -0.065000
DOCKED: USER    NEWDPF tran0 -12.887979 -6.039971 -7.866430
DOCKED: USER    NEWDPF quaternion0 0.265832 -0.409925 0.859493 0.150221
DOCKED: USER    NEWDPF axisangle0 0.268883 -0.414630 0.869358 162.720494
DOCKED: USER    NEWDPF quat0 0.268883 -0.414630 0.869358 162.720494
DOCKED: USER    NEWDPF dihe0 -145.74 -19.33 2.66 124.62 65.17 -39.66 -75.55 -1.28 165.66 121.73 135.55 -61.11 39.23 -38.23 -114.36 41.31 44.56 31.38 -10.34 -34.29 -17.66 -42.36 -179.74 65.45 
DOCKED: USER  keepresnum = 1 
DOCKED: USER  
DOCKED: REMARK  24 active torsions:
DOCKED: REMARK  status: ('A' for Active; 'I' for Inactive)
DOCKED: REMARK    1  A    between atoms: C_1  and  O_7 
DOCKED: REMARK    2  A    between atoms: C_2  and  O_12 
DOCKED: REMARK    3  A    between atoms: C_3  and  O_17 
DOCKED: REMARK    4  A    between atoms: C_4  and  O_22 
DOCKED: REMARK    5  A    between atoms: C_5  and  O_27 
DOCKED: REMARK    6  A    between atoms: C_6  and  O_32 
DOCKED: REMARK    7  A    between atoms: O_7  and  P_8 
DOCKED: REMARK    8  A    between atoms: P_8  and  O_10 
DOCKED: REMARK    9  A    between atoms: P_8  and  O_11 
DOCKED: REMARK   10  A    between atoms: O_12  and  P_13 
DOCKED: REMARK   11  A    between atoms: P_13  and  O_15 
DOCKED: REMARK   12  A    between atoms: P_13  and  O_16 
DOCKED: REMARK   13  A    between atoms: O_17  and  P_18 
DOCKED: REMARK   14  A    between atoms: P_18  and  O_20 
DOCKED: REMARK   15  A    between atoms: P_18  and  O_21 
DOCKED: REMARK   16  A    between atoms: O_22  and  P_23 
DOCKED: REMARK   17  A    between atoms: P_23  and  O_25 
DOCKED: REMARK   18  A    between atoms: P_23  and  O_26 
DOCKED: REMARK   19  A    between atoms: O_27  and  P_28 
DOCKED: REMARK   20  A    between atoms: P_28  and  O_30 
DOCKED: REMARK   21  A    between atoms: P_28  and  O_31 
DOCKED: REMARK   22  A    between atoms: O_32  and  P_33 
DOCKED: REMARK   23  A    between atoms: P_33  and  O_35 
DOCKED: REMARK   24  A    between atoms: P_33  and  O_36 
DOCKED: USER                              x       y       z     vdW  Elec       q    Type
DOCKED: USER                           _______ _______ _______ _____ _____    ______ ____
DOCKED: ROOT
DOCKED: ATOM      1  C   UNL d   1     -13.484  -6.581  -6.338 -0.20 +0.03    +0.194 C 
DOCKED: ATOM      2  C   UNL d   1     -12.715  -5.259  -6.317 -0.16 +0.01    +0.194 C 
DOCKED: ATOM      3  C   UNL d   1     -11.456  -5.322  -7.184 +0.04 +0.01    +0.194 C 
DOCKED: ATOM      4  C   UNL d   1     -11.729  -5.808  -8.606 -0.18 +0.07    +0.194 C 
DOCKED: ATOM      5  C   UNL d   1     -12.591  -7.062  -8.678 -0.19 +0.11    +0.194 C 
DOCKED: ATOM      6  C   UNL d   1     -13.817  -7.025  -7.763 -0.12 +0.07    +0.194 C 
DOCKED: ENDROOT
DOCKED: BRANCH   1   7
DOCKED: ATOM      7  O   UNL d   1     -14.723  -6.388  -5.652 -0.12 -0.04    -0.278 OA
DOCKED: BRANCH   7   8
DOCKED: ATOM      8  P   UNL d   1     -15.167  -7.473  -4.566 -0.17 +0.06    +0.473 P 
DOCKED: ATOM      9  O   UNL d   1     -14.719  -7.193  -3.175 -0.33 +0.00    -0.228 OA
DOCKED: BRANCH   8  10
DOCKED: ATOM     10  O   UNL d   1     -16.754  -7.540  -4.714 -0.04 -0.05    -0.303 OA
DOCKED: ATOM     11  H   UNL d   1     -16.988  -7.757  -5.636 +0.04 +0.04    +0.222 HD
DOCKED: ENDBRANCH   8  10
DOCKED: BRANCH   8  12
DOCKED: ATOM     12  O   UNL d   1     -14.717  -8.871  -5.172 -0.19 -0.05    -0.303 OA
DOCKED: ATOM     13  H   UNL d   1     -15.191  -9.102  -6.002 +0.07 +0.05    +0.222 HD
DOCKED: ENDBRANCH   8  12
DOCKED: ENDBRANCH   7   8
DOCKED: ENDBRANCH   1   7
DOCKED: BRANCH   2  14
DOCKED: ATOM     14  O   UNL d   1     -13.563  -4.218  -6.817 -0.07 -0.02    -0.278 OA
DOCKED: BRANCH  14  15
DOCKED: ATOM     15  P   UNL d   1     -14.322  -3.326  -5.725 -0.12 -0.10    +0.473 P 
DOCKED: ATOM     16  O   UNL d   1     -13.792  -3.381  -4.326 -0.33 +0.07    -0.228 OA
DOCKED: BRANCH  15  17
DOCKED: ATOM     17  O   UNL d   1     -14.294  -1.856  -6.338 -0.12 +0.14    -0.303 OA
DOCKED: ATOM     18  H   UNL d   1     -13.521  -1.354  -6.015 +0.01 -0.13    +0.222 HD
DOCKED: ENDBRANCH  15  17
DOCKED: BRANCH  15  19
DOCKED: ATOM     19  O   UNL d   1     -15.856  -3.713  -5.892 -0.06 +0.03    -0.303 OA
DOCKED: ATOM     20  H   UNL d   1     -16.020  -4.645  -5.659 +0.06 +0.00    +0.222 HD
DOCKED: ENDBRANCH  15  19
DOCKED: ENDBRANCH  14  15
DOCKED: ENDBRANCH   2  14
DOCKED: BRANCH   6  21
DOCKED: ATOM     21  O   UNL d   1     -14.311  -8.359  -7.682 -0.08 -0.11    -0.278 OA
DOCKED: BRANCH  21  22
DOCKED: ATOM     22  P   UNL d   1     -15.796  -8.685  -8.166 -0.01 +0.20    +0.473 P 
DOCKED: ATOM     23  O   UNL d   1     -16.916  -8.462  -7.207 -0.01 -0.06    -0.228 OA
DOCKED: BRANCH  22  24
DOCKED: ATOM     24  O   UNL d   1     -15.892  -7.840  -9.512 -0.05 -0.21    -0.303 OA
DOCKED: ATOM     25  H   UNL d   1     -15.032  -7.364  -9.638 +0.02 +0.19    +0.222 HD
DOCKED: ENDBRANCH  22  24
DOCKED: BRANCH  22  26
DOCKED: ATOM     26  O   UNL d   1     -15.636 -10.179  -8.725 -0.03 -0.15    -0.303 OA
DOCKED: ATOM     27  H   UNL d   1     -16.461 -10.677  -8.554 +0.02 +0.09    +0.222 HD
DOCKED: ENDBRANCH  22  26
DOCKED: ENDBRANCH  21  22
DOCKED: ENDBRANCH   6  21
DOCKED: BRANCH   3  28
DOCKED: ATOM     28  O   UNL d   1     -10.968  -3.994  -7.327 -0.12 -0.04    -0.278 OA
DOCKED: BRANCH  28  29
DOCKED: ATOM     29  P   UNL d   1     -10.362  -3.221  -6.074 -0.19 +0.05    +0.473 P 
DOCKED: ATOM     30  O   UNL d   1     -10.021  -4.068  -4.902 -0.33 -0.02    -0.228 OA
DOCKED: BRANCH  29  31
DOCKED: ATOM     31  O   UNL d   1      -9.156  -2.443  -6.782 -0.17 -0.07    -0.303 OA
DOCKED: ATOM     32  H   UNL d   1      -8.906  -2.931  -7.601 +0.11 +0.06    +0.222 HD
DOCKED: ENDBRANCH  29  31
DOCKED: BRANCH  29  33
DOCKED: ATOM     33  O   UNL d   1     -11.435  -2.068  -5.841 -0.08 -0.01    -0.303 OA
DOCKED: ATOM     34  H   UNL d   1     -12.321  -2.479  -5.691 +0.10 -0.02    +0.222 HD
DOCKED: ENDBRANCH  29  33
DOCKED: ENDBRANCH  28  29
DOCKED: ENDBRANCH   3  28
DOCKED: BRANCH   5  35
DOCKED: ATOM     35  O   UNL d   1     -13.069  -7.126 -10.020 -0.17 -0.33    -0.278 OA
DOCKED: BRANCH  35  36
DOCKED: ATOM     36  P   UNL d   1     -13.732  -5.844 -10.700 -0.04 +0.46    +0.473 P 
DOCKED: ATOM     37  O   UNL d   1     -12.784  -4.926 -11.404 -0.08 -0.17    -0.228 OA
DOCKED: BRANCH  36  38
DOCKED: ATOM     38  O   UNL d   1     -14.827  -6.506 -11.647 -0.56 -0.52    -0.303 OA
DOCKED: ATOM     39  H   UNL d   1     -15.691  -6.514 -11.182 +0.01 +0.23    +0.222 HD
DOCKED: ENDBRANCH  36  38
DOCKED: BRANCH  36  40
DOCKED: ATOM     40  O   UNL d   1     -14.581  -5.227  -9.505 -0.02 -0.14    -0.303 OA
DOCKED: ATOM     41  H   UNL d   1     -14.020  -4.704  -8.891 +0.04 +0.07    +0.222 HD
DOCKED: ENDBRANCH  36  40
DOCKED: ENDBRANCH  35  36
DOCKED: ENDBRANCH   5  35
DOCKED: BRANCH   4  42
DOCKED: ATOM     42  O   UNL d   1     -10.460  -6.135  -9.182 -0.22 -0.13    -0.278 OA
DOCKED: BRANCH  42  43
DOCKED: ATOM     43  P   UNL d   1      -9.245  -5.118  -9.000 -0.22 +0.18    +0.473 P 
DOCKED: ATOM     44  O   UNL d   1      -8.557  -5.100  -7.679 -0.38 -0.07    -0.228 OA
DOCKED: BRANCH  43  45
DOCKED: ATOM     45  O   UNL d   1      -8.296  -5.485 -10.224 -0.27 -0.15    -0.303 OA
DOCKED: ATOM     46  H   UNL d   1      -8.739  -5.323 -11.081 +0.08 +0.12    +0.222 HD
DOCKED: ENDBRANCH  43  45
DOCKED: BRANCH  43  47
DOCKED: ATOM     47  O   UNL d   1      -9.864  -3.718  -9.476 -0.05 -0.11    -0.303 OA
DOCKED: ATOM     48  H   UNL d   1      -9.854  -3.089  -8.725 +0.08 +0.06    +0.222 HD
DOCKED: ENDBRANCH  43  47
DOCKED: ENDBRANCH  42  43
DOCKED: ENDBRANCH   4  42
DOCKED: TORSDOF 24
DOCKED: TER
DOCKED: ENDMDL
________________________________________________________________________________


	BEGINNING GENETIC ALGORITHM DOCKING 51 of 100
Run: 51 Seed: 1503641666 600801763 [ Run 51 of 100 GA/GALS ]
Beginning LAMARCKIAN GENETIC ALGORITHM (LGA), with a maximum of 25000000 energy evaluations.

Final-Value: -18.579


	FINAL GENETIC ALGORITHM DOCKED STATE
	_______________________________________________


Detailed state:  trans 12.351 15.453 -13.126 quatxyzw 0.767815 -0.314695 -0.403471 0.385537 center 0.035 0.082 -0.065 ntor 24 -140.2091 17.5820 46.7702 14.4593 4.9945 -165.9525 -119.0961 -70.9275 121.9117 -42.6331 -179.9579 -144.5591 45.8858 155.9979 -50.2994 -8.8470 169.0696 -39.9865 38.2471 1.8409 -173.2263 23.7159 26.0464 -180.0000
State:	 12.351  15.453 -13.126   0.832 -0.341 -0.437 134.646   -140.21   17.58   46.77   14.46    4.99 -165.95 -119.10  -70.93  121.91  -42.63 -179.96 -144.56   45.89  156.00  -50.30   -8.85  169.07  -39.99   38.25    1.84 -173.23   23.72   26.05 -180.00

DOCKED: MODEL       51
DOCKED: USER    Run = 51
DOCKED: USER    DPF = D:/Protein_go_brrr/autodock/final/AncB/IHP/dock.dpf
DOCKED: USER  
DOCKED: USER    Estimated Free Energy of Binding    =   +2.00 kcal/mol  [=(1)+(2)+(3)-(4)]
DOCKED: USER    
DOCKED: USER    (1) Final Intermolecular Energy     =   -5.16 kcal/mol
DOCKED: USER        vdW + Hbond + desolv Energy     =   -5.07 kcal/mol
DOCKED: USER        Electrostatic Energy            =   -0.09 kcal/mol
DOCKED: USER    (2) Final Total Internal Energy     =  -13.42 kcal/mol
DOCKED: USER    (3) Torsional Free Energy           =   +7.16 kcal/mol
DOCKED: USER    (4) Unbound System's Energy  [=(2)] =  -13.42 kcal/mol
DOCKED: USER    
DOCKED: USER    
DOCKED: USER    NEWDPF move IHP_ideal_opt.pdbqt
DOCKED: USER    NEWDPF about 0.035000 0.082000 -0.065000
DOCKED: USER    NEWDPF tran0 12.350835 15.453109 -13.125676
DOCKED: USER    NEWDPF quaternion0 0.767815 -0.314695 -0.403471 0.385537
DOCKED: USER    NEWDPF axisangle0 0.832146 -0.341062 -0.437276 134.645816
DOCKED: USER    NEWDPF quat0 0.832146 -0.341062 -0.437276 134.645816
DOCKED: USER    NEWDPF dihe0 -140.21 17.58 46.77 14.46 4.99 -165.95 -119.10 -70.93 121.91 -42.63 -179.96 -144.56 45.89 156.00 -50.30 -8.85 169.07 -39.99 38.25 1.84 -173.23 23.72 26.05 -180.00 
DOCKED: USER  keepresnum = 1 
DOCKED: USER  
DOCKED: REMARK  24 active torsions:
DOCKED: REMARK  status: ('A' for Active; 'I' for Inactive)
DOCKED: REMARK    1  A    between atoms: C_1  and  O_7 
DOCKED: REMARK    2  A    between atoms: C_2  and  O_12 
DOCKED: REMARK    3  A    between atoms: C_3  and  O_17 
DOCKED: REMARK    4  A    between atoms: C_4  and  O_22 
DOCKED: REMARK    5  A    between atoms: C_5  and  O_27 
DOCKED: REMARK    6  A    between atoms: C_6  and  O_32 
DOCKED: REMARK    7  A    between atoms: O_7  and  P_8 
DOCKED: REMARK    8  A    between atoms: P_8  and  O_10 
DOCKED: REMARK    9  A    between atoms: P_8  and  O_11 
DOCKED: REMARK   10  A    between atoms: O_12  and  P_13 
DOCKED: REMARK   11  A    between atoms: P_13  and  O_15 
DOCKED: REMARK   12  A    between atoms: P_13  and  O_16 
DOCKED: REMARK   13  A    between atoms: O_17  and  P_18 
DOCKED: REMARK   14  A    between atoms: P_18  and  O_20 
DOCKED: REMARK   15  A    between atoms: P_18  and  O_21 
DOCKED: REMARK   16  A    between atoms: O_22  and  P_23 
DOCKED: REMARK   17  A    between atoms: P_23  and  O_25 
DOCKED: REMARK   18  A    between atoms: P_23  and  O_26 
DOCKED: REMARK   19  A    between atoms: O_27  and  P_28 
DOCKED: REMARK   20  A    between atoms: P_28  and  O_30 
DOCKED: REMARK   21  A    between atoms: P_28  and  O_31 
DOCKED: REMARK   22  A    between atoms: O_32  and  P_33 
DOCKED: REMARK   23  A    between atoms: P_33  and  O_35 
DOCKED: REMARK   24  A    between atoms: P_33  and  O_36 
DOCKED: USER                              x       y       z     vdW  Elec       q    Type
DOCKED: USER                           _______ _______ _______ _____ _____    ______ ____
DOCKED: ROOT
DOCKED: ATOM      1  C   UNL d   1      13.355  16.355 -14.204 -0.08 +0.06    +0.194 C 
DOCKED: ATOM      2  C   UNL d   1      13.538  16.663 -12.717 -0.10 +0.05    +0.194 C 
DOCKED: ATOM      3  C   UNL d   1      12.196  16.763 -11.989 -0.13 +0.03    +0.194 C 
DOCKED: ATOM      4  C   UNL d   1      11.295  15.552 -12.221 -0.25 +0.03    +0.194 C 
DOCKED: ATOM      5  C   UNL d   1      11.175  15.139 -13.682 -0.17 +0.05    +0.194 C 
DOCKED: ATOM      6  C   UNL d   1      12.512  15.099 -14.426 -0.10 +0.07    +0.194 C 
DOCKED: ENDROOT
DOCKED: BRANCH   1   7
DOCKED: ATOM      7  O   UNL d   1      14.644  16.108 -14.771 -0.48 -0.10    -0.278 OA
DOCKED: BRANCH   7   8
DOCKED: ATOM      8  P   UNL d   1      15.517  17.359 -15.245 -0.02 +0.09    +0.473 P 
DOCKED: ATOM      9  O   UNL d   1      16.540  17.822 -14.267 -0.01 -0.04    -0.228 OA
DOCKED: BRANCH   8  10
DOCKED: ATOM     10  O   UNL d   1      16.144  16.889 -16.634 -0.00 -0.05    -0.303 OA
DOCKED: ATOM     11  H   UNL d   1      15.428  16.712 -17.273 +0.01 +0.04    +0.222 HD
DOCKED: ENDBRANCH   8  10
DOCKED: BRANCH   8  12
DOCKED: ATOM     12  O   UNL d   1      14.458  18.449 -15.709 +0.00 -0.05    -0.303 OA
DOCKED: ATOM     13  H   UNL d   1      13.615  18.056 -16.028 +0.01 +0.04    +0.222 HD
DOCKED: ENDBRANCH   8  12
DOCKED: ENDBRANCH   7   8
DOCKED: ENDBRANCH   1   7
DOCKED: BRANCH   2  14
DOCKED: ATOM     14  O   UNL d   1      14.307  15.615 -12.114 -0.12 -0.10    -0.278 OA
DOCKED: BRANCH  14  15
DOCKED: ATOM     15  P   UNL d   1      15.510  16.069 -11.159 -0.08 +0.13    +0.473 P 
DOCKED: ATOM     16  O   UNL d   1      16.705  15.169 -11.109 -0.45 -0.08    -0.228 OA
DOCKED: BRANCH  15  17
DOCKED: ATOM     17  O   UNL d   1      15.866  17.540 -11.655 -0.03 -0.06    -0.303 OA
DOCKED: ATOM     18  H   UNL d   1      15.968  17.568 -12.626 +0.03 +0.04    +0.222 HD
DOCKED: ENDBRANCH  15  17
DOCKED: BRANCH  15  19
DOCKED: ATOM     19  O   UNL d   1      14.815  16.363  -9.759 -0.18 -0.07    -0.303 OA
DOCKED: ATOM     20  H   UNL d   1      13.999  16.887  -9.865 +0.08 +0.04    +0.222 HD
DOCKED: ENDBRANCH  15  19
DOCKED: ENDBRANCH  14  15
DOCKED: ENDBRANCH   2  14
DOCKED: BRANCH   6  21
DOCKED: ATOM     21  O   UNL d   1      12.207  15.040 -15.818 -0.08 -0.09    -0.278 OA
DOCKED: BRANCH  21  22
DOCKED: ATOM     22  P   UNL d   1      11.914  16.386 -16.622 +0.01 +0.10    +0.473 P 
DOCKED: ATOM     23  O   UNL d   1      11.519  17.598 -15.847 -0.00 -0.04    -0.228 OA
DOCKED: BRANCH  22  24
DOCKED: ATOM     24  O   UNL d   1      13.244  16.548 -17.481 -0.00 -0.06    -0.303 OA
DOCKED: ATOM     25  H   UNL d   1      14.007  16.635 -16.854 +0.02 +0.05    +0.222 HD
DOCKED: ENDBRANCH  22  24
DOCKED: BRANCH  22  26
DOCKED: ATOM     26  O   UNL d   1      10.866  15.885 -17.726 -0.00 -0.07    -0.303 OA
DOCKED: ATOM     27  H   UNL d   1      10.462  15.044 -17.428 +0.03 +0.06    +0.222 HD
DOCKED: ENDBRANCH  22  26
DOCKED: ENDBRANCH  21  22
DOCKED: ENDBRANCH   6  21
DOCKED: BRANCH   3  28
DOCKED: ATOM     28  O   UNL d   1      12.465  16.771 -10.593 -0.18 -0.04    -0.278 OA
DOCKED: BRANCH  28  29
DOCKED: ATOM     29  P   UNL d   1      11.739  17.821  -9.640 -0.14 +0.04    +0.473 P 
DOCKED: ATOM     30  O   UNL d   1      11.482  19.157 -10.236 -0.04 -0.02    -0.228 OA
DOCKED: BRANCH  29  31
DOCKED: ATOM     31  O   UNL d   1      10.461  16.963  -9.203 -0.16 -0.02    -0.303 OA
DOCKED: ATOM     32  H   UNL d   1       9.886  16.831  -9.992 +0.10 +0.03    +0.222 HD
DOCKED: ENDBRANCH  29  31
DOCKED: BRANCH  29  33
DOCKED: ATOM     33  O   UNL d   1      12.654  17.777  -8.338 -0.19 -0.02    -0.303 OA
DOCKED: ATOM     34  H   UNL d   1      13.269  17.006  -8.403 +0.08 +0.03    +0.222 HD
DOCKED: ENDBRANCH  29  33
DOCKED: ENDBRANCH  28  29
DOCKED: ENDBRANCH   3  28
DOCKED: BRANCH   5  35
DOCKED: ATOM     35  O   UNL d   1      10.663  13.807 -13.667 -0.27 -0.08    -0.278 OA
DOCKED: BRANCH  35  36
DOCKED: ATOM     36  P   UNL d   1       9.889  13.228 -14.936 -0.23 +0.16    +0.473 P 
DOCKED: ATOM     37  O   UNL d   1       8.785  12.266 -14.634 -0.36 -0.05    -0.228 OA
DOCKED: BRANCH  36  38
DOCKED: ATOM     38  O   UNL d   1       9.415  14.562 -15.665 -0.06 -0.08    -0.303 OA
DOCKED: ATOM     39  H   UNL d   1      10.187  15.155 -15.784 +0.06 +0.06    +0.222 HD
DOCKED: ENDBRANCH  36  38
DOCKED: BRANCH  36  40
DOCKED: ATOM     40  O   UNL d   1      11.080  12.697 -15.847 -0.74 -0.19    -0.303 OA
DOCKED: ATOM     41  H   UNL d   1      11.467  13.415 -16.396 +0.06 +0.10    +0.222 HD
DOCKED: ENDBRANCH  36  40
DOCKED: ENDBRANCH  35  36
DOCKED: ENDBRANCH   5  35
DOCKED: BRANCH   4  42
DOCKED: ATOM     42  O   UNL d   1       9.984  15.921 -11.779 -0.24 -0.02    -0.278 OA
DOCKED: BRANCH  42  43
DOCKED: ATOM     43  P   UNL d   1       9.168  17.012 -12.609 -0.09 +0.03    +0.473 P 
DOCKED: ATOM     44  O   UNL d   1       9.769  17.496 -13.883 -0.04 -0.03    -0.228 OA
DOCKED: BRANCH  43  45
DOCKED: ATOM     45  O   UNL d   1       7.743  16.326 -12.781 -0.08 +0.00    -0.303 OA
DOCKED: ATOM     46  H   UNL d   1       7.070  16.750 -12.212 -0.41 -0.05    +0.222 HD
DOCKED: ENDBRANCH  43  45
DOCKED: BRANCH  43  47
DOCKED: ATOM     47  O   UNL d   1       8.855  18.143 -11.518 -0.11 -0.01    -0.303 OA
DOCKED: ATOM     48  H   UNL d   1       9.605  18.203 -10.890 +0.06 +0.02    +0.222 HD
DOCKED: ENDBRANCH  43  47
DOCKED: ENDBRANCH  42  43
DOCKED: ENDBRANCH   4  42
DOCKED: TORSDOF 24
DOCKED: TER
DOCKED: ENDMDL
________________________________________________________________________________


	BEGINNING GENETIC ALGORITHM DOCKING 52 of 100
Run: 52 Seed: 1598820358 425242770 [ Run 52 of 100 GA/GALS ]
Beginning LAMARCKIAN GENETIC ALGORITHM (LGA), with a maximum of 25000000 energy evaluations.

Final-Value: -18.915


	FINAL GENETIC ALGORITHM DOCKED STATE
	_______________________________________________


Detailed state:  trans 7.585 15.066 -17.902 quatxyzw -0.168338 -0.232239 -0.056192 -0.956331 center 0.035 0.082 -0.065 ntor 24 -92.3421 -8.9796 157.3419 9.8016 -122.5423 -115.1147 -89.9247 -68.1372 -12.0353 31.3661 30.5354 -131.5947 -143.9774 74.4426 4.0550 -161.5211 -158.6878 -16.9822 31.6515 -30.5000 141.6849 -32.7209 -48.0380 139.6273
State:	  7.585  15.066 -17.902  -0.576 -0.795 -0.192 -33.990    -92.34   -8.98  157.34    9.80 -122.54 -115.11  -89.92  -68.14  -12.04   31.37   30.54 -131.59 -143.98   74.44    4.06 -161.52 -158.69  -16.98   31.65  -30.50  141.68  -32.72  -48.04  139.63

DOCKED: MODEL       52
DOCKED: USER    Run = 52
DOCKED: USER    DPF = D:/Protein_go_brrr/autodock/final/AncB/IHP/dock.dpf
DOCKED: USER  
DOCKED: USER    Estimated Free Energy of Binding    =   +2.99 kcal/mol  [=(1)+(2)+(3)-(4)]
DOCKED: USER    
DOCKED: USER    (1) Final Intermolecular Energy     =   -4.17 kcal/mol
DOCKED: USER        vdW + Hbond + desolv Energy     =   -3.90 kcal/mol
DOCKED: USER        Electrostatic Energy            =   -0.27 kcal/mol
DOCKED: USER    (2) Final Total Internal Energy     =  -14.74 kcal/mol
DOCKED: USER    (3) Torsional Free Energy           =   +7.16 kcal/mol
DOCKED: USER    (4) Unbound System's Energy  [=(2)] =  -14.74 kcal/mol
DOCKED: USER    
DOCKED: USER    
DOCKED: USER    NEWDPF move IHP_ideal_opt.pdbqt
DOCKED: USER    NEWDPF about 0.035000 0.082000 -0.065000
DOCKED: USER    NEWDPF tran0 7.584891 15.065677 -17.902246
DOCKED: USER    NEWDPF quaternion0 -0.168338 -0.232239 -0.056192 -0.956331
DOCKED: USER    NEWDPF axisangle0 -0.575940 -0.794564 -0.192251 -33.989523
DOCKED: USER    NEWDPF quat0 -0.575940 -0.794564 -0.192251 -33.989523
DOCKED: USER    NEWDPF dihe0 -92.34 -8.98 157.34 9.80 -122.54 -115.11 -89.92 -68.14 -12.04 31.37 30.54 -131.59 -143.98 74.44 4.06 -161.52 -158.69 -16.98 31.65 -30.50 141.68 -32.72 -48.04 139.63 
DOCKED: USER  keepresnum = 1 
DOCKED: USER  
DOCKED: REMARK  24 active torsions:
DOCKED: REMARK  status: ('A' for Active; 'I' for Inactive)
DOCKED: REMARK    1  A    between atoms: C_1  and  O_7 
DOCKED: REMARK    2  A    between atoms: C_2  and  O_12 
DOCKED: REMARK    3  A    between atoms: C_3  and  O_17 
DOCKED: REMARK    4  A    between atoms: C_4  and  O_22 
DOCKED: REMARK    5  A    between atoms: C_5  and  O_27 
DOCKED: REMARK    6  A    between atoms: C_6  and  O_32 
DOCKED: REMARK    7  A    between atoms: O_7  and  P_8 
DOCKED: REMARK    8  A    between atoms: P_8  and  O_10 
DOCKED: REMARK    9  A    between atoms: P_8  and  O_11 
DOCKED: REMARK   10  A    between atoms: O_12  and  P_13 
DOCKED: REMARK   11  A    between atoms: P_13  and  O_15 
DOCKED: REMARK   12  A    between atoms: P_13  and  O_16 
DOCKED: REMARK   13  A    between atoms: O_17  and  P_18 
DOCKED: REMARK   14  A    between atoms: P_18  and  O_20 
DOCKED: REMARK   15  A    between atoms: P_18  and  O_21 
DOCKED: REMARK   16  A    between atoms: O_22  and  P_23 
DOCKED: REMARK   17  A    between atoms: P_23  and  O_25 
DOCKED: REMARK   18  A    between atoms: P_23  and  O_26 
DOCKED: REMARK   19  A    between atoms: O_27  and  P_28 
DOCKED: REMARK   20  A    between atoms: P_28  and  O_30 
DOCKED: REMARK   21  A    between atoms: P_28  and  O_31 
DOCKED: REMARK   22  A    between atoms: O_32  and  P_33 
DOCKED: REMARK   23  A    between atoms: P_33  and  O_35 
DOCKED: REMARK   24  A    between atoms: P_33  and  O_36 
DOCKED: USER                              x       y       z     vdW  Elec       q    Type
DOCKED: USER                           _______ _______ _______ _____ _____    ______ ____
DOCKED: ROOT
DOCKED: ATOM      1  C   UNL d   1       8.194  14.472 -16.398 -0.09 +0.06    +0.194 C 
DOCKED: ATOM      2  C   UNL d   1       7.096  13.627 -17.047 -0.12 +0.07    +0.194 C 
DOCKED: ATOM      3  C   UNL d   1       5.967  14.496 -17.605 -0.08 +0.07    +0.194 C 
DOCKED: ATOM      4  C   UNL d   1       6.463  15.605 -18.529 -0.02 +0.05    +0.194 C 
DOCKED: ATOM      5  C   UNL d   1       7.635  16.401 -17.970 -0.01 +0.04    +0.194 C 
DOCKED: ATOM      6  C   UNL d   1       8.736  15.534 -17.356 -0.02 +0.05    +0.194 C 
DOCKED: ENDROOT
DOCKED: BRANCH   1   7
DOCKED: ATOM      7  O   UNL d   1       9.281  13.608 -16.060 -0.10 -0.09    -0.278 OA
DOCKED: BRANCH   7   8
DOCKED: ATOM      8  P   UNL d   1       9.297  12.940 -14.609 -0.24 +0.14    +0.473 P 
DOCKED: ATOM      9  O   UNL d   1      10.040  13.705 -13.571 -0.33 -0.06    -0.228 OA
DOCKED: BRANCH   8  10
DOCKED: ATOM     10  O   UNL d   1       7.754  12.741 -14.258 -0.26 -0.08    -0.303 OA
DOCKED: ATOM     11  H   UNL d   1       7.535  11.790 -14.273 -0.06 +0.02    +0.222 HD
DOCKED: ENDBRANCH   8  10
DOCKED: BRANCH   8  12
DOCKED: ATOM     12  O   UNL d   1       9.780  11.445 -14.848 -0.34 -0.11    -0.303 OA
DOCKED: ATOM     13  H   UNL d   1       9.237  10.967 -15.515 -0.48 +0.04    +0.222 HD
DOCKED: ENDBRANCH   8  12
DOCKED: ENDBRANCH   7   8
DOCKED: ENDBRANCH   1   7
DOCKED: BRANCH   2  14
DOCKED: ATOM     14  O   UNL d   1       7.664  12.870 -18.123 -0.05 -0.13    -0.278 OA
DOCKED: BRANCH  14  15
DOCKED: ATOM     15  P   UNL d   1       7.984  11.330 -17.822 -0.17 +0.33    +0.473 P 
DOCKED: ATOM     16  O   UNL d   1       7.472  10.331 -18.813 -0.67 -0.34    -0.228 OA
DOCKED: BRANCH  15  17
DOCKED: ATOM     17  O   UNL d   1       9.569  11.287 -17.666 -0.17 -0.16    -0.303 OA
DOCKED: ATOM     18  H   UNL d   1       9.864  11.843 -16.919 +0.07 +0.11    +0.222 HD
DOCKED: ENDBRANCH  15  17
DOCKED: BRANCH  15  19
DOCKED: ATOM     19  O   UNL d   1       7.509  11.111 -16.320 -0.26 -0.15    -0.303 OA
DOCKED: ATOM     20  H   UNL d   1       7.868  11.796 -15.725 +0.02 +0.07    +0.222 HD
DOCKED: ENDBRANCH  15  19
DOCKED: ENDBRANCH  14  15
DOCKED: ENDBRANCH   2  14
DOCKED: BRANCH   6  21
DOCKED: ATOM     21  O   UNL d   1       9.566  16.404 -16.589 -0.01 -0.06    -0.278 OA
DOCKED: BRANCH  21  22
DOCKED: ATOM     22  P   UNL d   1       8.907  17.578 -15.734 +0.00 +0.08    +0.473 P 
DOCKED: ATOM     23  O   UNL d   1       7.571  17.335 -15.116 -0.06 -0.04    -0.228 OA
DOCKED: BRANCH  22  24
DOCKED: ATOM     24  O   UNL d   1      10.068  17.919 -14.700 -0.01 -0.05    -0.303 OA
DOCKED: ATOM     25  H   UNL d   1       9.810  18.739 -14.207 +0.02 +0.03    +0.222 HD
DOCKED: ENDBRANCH  22  24
DOCKED: BRANCH  22  26
DOCKED: ATOM     26  O   UNL d   1       8.997  18.813 -16.752 -0.00 -0.04    -0.303 OA
DOCKED: ATOM     27  H   UNL d   1       8.362  18.673 -17.484 +0.00 +0.03    +0.222 HD
DOCKED: ENDBRANCH  22  26
DOCKED: ENDBRANCH  21  22
DOCKED: ENDBRANCH   6  21
DOCKED: BRANCH   3  28
DOCKED: ATOM     28  O   UNL d   1       5.149  13.665 -18.419 -0.05 -0.12    -0.278 OA
DOCKED: BRANCH  28  29
DOCKED: ATOM     29  P   UNL d   1       4.098  12.671 -17.752 -0.11 +0.29    +0.473 P 
DOCKED: ATOM     30  O   UNL d   1       3.181  11.982 -18.696 -0.10 -0.16    -0.228 OA
DOCKED: BRANCH  29  31
DOCKED: ATOM     31  O   UNL d   1       5.088  11.749 -16.898 -0.12 -0.26    -0.303 OA
DOCKED: ATOM     32  H   UNL d   1       5.908  11.599 -17.422 +0.08 +0.21    +0.222 HD
DOCKED: ENDBRANCH  29  31
DOCKED: BRANCH  29  33
DOCKED: ATOM     33  O   UNL d   1       3.427  13.592 -16.640 -0.10 -0.14    -0.303 OA
DOCKED: ATOM     34  H   UNL d   1       3.933  14.438 -16.575 +0.05 +0.09    +0.222 HD
DOCKED: ENDBRANCH  29  33
DOCKED: ENDBRANCH  28  29
DOCKED: ENDBRANCH   3  28
DOCKED: BRANCH   5  35
DOCKED: ATOM     35  O   UNL d   1       8.209  17.081 -19.085 -0.00 -0.05    -0.278 OA
DOCKED: BRANCH  35  36
DOCKED: ATOM     36  P   UNL d   1       7.582  18.454 -19.600 -0.00 +0.07    +0.473 P 
DOCKED: ATOM     37  O   UNL d   1       6.975  18.414 -20.966 +0.00 -0.03    -0.228 OA
DOCKED: BRANCH  36  38
DOCKED: ATOM     38  O   UNL d   1       6.551  18.799 -18.436 -0.00 -0.05    -0.303 OA
DOCKED: ATOM     39  H   UNL d   1       5.721  18.297 -18.583 +0.01 +0.04    +0.222 HD
DOCKED: ENDBRANCH  36  38
DOCKED: BRANCH  36  40
DOCKED: ATOM     40  O   UNL d   1       8.776  19.480 -19.370 +0.00 -0.04    -0.303 OA
DOCKED: ATOM     41  H   UNL d   1       9.503  19.080 -18.842 +0.00 +0.03    +0.222 HD
DOCKED: ENDBRANCH  36  40
DOCKED: ENDBRANCH  35  36
DOCKED: ENDBRANCH   5  35
DOCKED: BRANCH   4  42
DOCKED: ATOM     42  O   UNL d   1       5.375  16.521 -18.700 -0.01 -0.06    -0.278 OA
DOCKED: BRANCH  42  43
DOCKED: ATOM     43  P   UNL d   1       4.300  16.667 -17.530 -0.03 +0.11    +0.473 P 
DOCKED: ATOM     44  O   UNL d   1       4.760  16.405 -16.138 -0.09 -0.06    -0.228 OA
DOCKED: BRANCH  43  45
DOCKED: ATOM     45  O   UNL d   1       3.730  18.134 -17.762 -0.01 -0.05    -0.303 OA
DOCKED: ATOM     46  H   UNL d   1       4.446  18.768 -17.969 +0.01 +0.04    +0.222 HD
DOCKED: ENDBRANCH  43  45
DOCKED: BRANCH  43  47
DOCKED: ATOM     47  O   UNL d   1       3.081  15.759 -18.038 -0.03 -0.08    -0.303 OA
DOCKED: ATOM     48  H   UNL d   1       3.427  14.895 -18.343 +0.03 +0.07    +0.222 HD
DOCKED: ENDBRANCH  43  47
DOCKED: ENDBRANCH  42  43
DOCKED: ENDBRANCH   4  42
DOCKED: TORSDOF 24
DOCKED: TER
DOCKED: ENDMDL
________________________________________________________________________________


	BEGINNING GENETIC ALGORITHM DOCKING 53 of 100
Run: 53 Seed: 1385926525 719803408 [ Run 53 of 100 GA/GALS ]
Beginning LAMARCKIAN GENETIC ALGORITHM (LGA), with a maximum of 25000000 energy evaluations.

Final-Value: -19.029


	FINAL GENETIC ALGORITHM DOCKED STATE
	_______________________________________________


Detailed state:  trans 0.292 -17.622 -0.719 quatxyzw -0.970077 0.150429 0.140161 -0.129137 center 0.035 0.082 -0.065 ntor 24 156.1138 21.4770 -5.1840 90.7252 128.9160 121.7111 -95.9213 53.6445 64.4422 120.6908 126.0774 165.3094 -125.1073 -148.5021 95.1113 7.0545 -18.4521 152.9877 20.3329 -62.6014 -39.2020 174.5421 146.3833 -23.3296
State:	  0.292 -17.622  -0.719  -0.978  0.152  0.141 -165.161    156.11   21.48   -5.18   90.73  128.92  121.71  -95.92   53.64   64.44  120.69  126.08  165.31 -125.11 -148.50   95.11    7.05  -18.45  152.99   20.33  -62.60  -39.20  174.54  146.38  -23.33

DOCKED: MODEL       53
DOCKED: USER    Run = 53
DOCKED: USER    DPF = D:/Protein_go_brrr/autodock/final/AncB/IHP/dock.dpf
DOCKED: USER  
DOCKED: USER    Estimated Free Energy of Binding    =   +2.38 kcal/mol  [=(1)+(2)+(3)-(4)]
DOCKED: USER    
DOCKED: USER    (1) Final Intermolecular Energy     =   -4.78 kcal/mol
DOCKED: USER        vdW + Hbond + desolv Energy     =   -4.63 kcal/mol
DOCKED: USER        Electrostatic Energy            =   -0.15 kcal/mol
DOCKED: USER    (2) Final Total Internal Energy     =  -14.25 kcal/mol
DOCKED: USER    (3) Torsional Free Energy           =   +7.16 kcal/mol
DOCKED: USER    (4) Unbound System's Energy  [=(2)] =  -14.25 kcal/mol
DOCKED: USER    
DOCKED: USER    
DOCKED: USER    NEWDPF move IHP_ideal_opt.pdbqt
DOCKED: USER    NEWDPF about 0.035000 0.082000 -0.065000
DOCKED: USER    NEWDPF tran0 0.292496 -17.621879 -0.718639
DOCKED: USER    NEWDPF quaternion0 -0.970077 0.150429 0.140161 -0.129137
DOCKED: USER    NEWDPF axisangle0 -0.978268 0.151699 0.141344 -165.160504
DOCKED: USER    NEWDPF quat0 -0.978268 0.151699 0.141344 -165.160504
DOCKED: USER    NEWDPF dihe0 156.11 21.48 -5.18 90.73 128.92 121.71 -95.92 53.64 64.44 120.69 126.08 165.31 -125.11 -148.50 95.11 7.05 -18.45 152.99 20.33 -62.60 -39.20 174.54 146.38 -23.33 
DOCKED: USER  keepresnum = 1 
DOCKED: USER  
DOCKED: REMARK  24 active torsions:
DOCKED: REMARK  status: ('A' for Active; 'I' for Inactive)
DOCKED: REMARK    1  A    between atoms: C_1  and  O_7 
DOCKED: REMARK    2  A    between atoms: C_2  and  O_12 
DOCKED: REMARK    3  A    between atoms: C_3  and  O_17 
DOCKED: REMARK    4  A    between atoms: C_4  and  O_22 
DOCKED: REMARK    5  A    between atoms: C_5  and  O_27 
DOCKED: REMARK    6  A    between atoms: C_6  and  O_32 
DOCKED: REMARK    7  A    between atoms: O_7  and  P_8 
DOCKED: REMARK    8  A    between atoms: P_8  and  O_10 
DOCKED: REMARK    9  A    between atoms: P_8  and  O_11 
DOCKED: REMARK   10  A    between atoms: O_12  and  P_13 
DOCKED: REMARK   11  A    between atoms: P_13  and  O_15 
DOCKED: REMARK   12  A    between atoms: P_13  and  O_16 
DOCKED: REMARK   13  A    between atoms: O_17  and  P_18 
DOCKED: REMARK   14  A    between atoms: P_18  and  O_20 
DOCKED: REMARK   15  A    between atoms: P_18  and  O_21 
DOCKED: REMARK   16  A    between atoms: O_22  and  P_23 
DOCKED: REMARK   17  A    between atoms: P_23  and  O_25 
DOCKED: REMARK   18  A    between atoms: P_23  and  O_26 
DOCKED: REMARK   19  A    between atoms: O_27  and  P_28 
DOCKED: REMARK   20  A    between atoms: P_28  and  O_30 
DOCKED: REMARK   21  A    between atoms: P_28  and  O_31 
DOCKED: REMARK   22  A    between atoms: O_32  and  P_33 
DOCKED: REMARK   23  A    between atoms: P_33  and  O_35 
DOCKED: REMARK   24  A    between atoms: P_33  and  O_36 
DOCKED: USER                              x       y       z     vdW  Elec       q    Type
DOCKED: USER                           _______ _______ _______ _____ _____    ______ ____
DOCKED: ROOT
DOCKED: ATOM      1  C   UNL d   1       1.547 -16.892  -1.657 -0.21 -0.01    +0.194 C 
DOCKED: ATOM      2  C   UNL d   1       0.754 -15.941  -0.759 -0.19 +0.02    +0.194 C 
DOCKED: ATOM      3  C   UNL d   1      -0.748 -16.229  -0.813 -0.20 +0.05    +0.194 C 
DOCKED: ATOM      4  C   UNL d   1      -1.089 -17.693  -0.546 -0.18 +0.06    +0.194 C 
DOCKED: ATOM      5  C   UNL d   1      -0.242 -18.682  -1.336 -0.12 +0.02    +0.194 C 
DOCKED: ATOM      6  C   UNL d   1       1.254 -18.358  -1.333 -0.10 -0.00    +0.194 C 
DOCKED: ENDROOT
DOCKED: BRANCH   1   7
DOCKED: ATOM      7  O   UNL d   1       2.939 -16.674  -1.419 -0.10 +0.01    -0.278 OA
DOCKED: BRANCH   7   8
DOCKED: ATOM      8  P   UNL d   1       3.765 -15.816  -2.484 -0.19 -0.04    +0.473 P 
DOCKED: ATOM      9  O   UNL d   1       4.055 -16.513  -3.766 -0.23 +0.05    -0.228 OA
DOCKED: BRANCH   8  10
DOCKED: ATOM     10  O   UNL d   1       2.897 -14.491  -2.671 -0.32 -0.01    -0.303 OA
DOCKED: ATOM     11  H   UNL d   1       2.090 -14.550  -2.126 -0.26 +0.01    +0.222 HD
DOCKED: ENDBRANCH   8  10
DOCKED: BRANCH   8  12
DOCKED: ATOM     12  O   UNL d   1       5.029 -15.275  -1.687 -0.11 +0.02    -0.303 OA
DOCKED: ATOM     13  H   UNL d   1       4.882 -15.231  -0.715 +0.07 -0.01    +0.222 HD
DOCKED: ENDBRANCH   8  12
DOCKED: ENDBRANCH   7   8
DOCKED: ENDBRANCH   1   7
DOCKED: BRANCH   2  14
DOCKED: ATOM     14  O   UNL d   1       1.200 -16.095   0.594 -0.09 -0.05    -0.278 OA
DOCKED: BRANCH  14  15
DOCKED: ATOM     15  P   UNL d   1       2.679 -15.579   0.924 -0.03 +0.05    +0.473 P 
DOCKED: ATOM     16  O   UNL d   1       3.780 -16.590   0.831 -0.02 -0.01    -0.228 OA
DOCKED: BRANCH  15  17
DOCKED: ATOM     17  O   UNL d   1       2.888 -14.346  -0.063 -0.11 -0.05    -0.303 OA
DOCKED: ATOM     18  H   UNL d   1       3.425 -14.603  -0.838 +0.10 +0.02    +0.222 HD
DOCKED: ENDBRANCH  15  17
DOCKED: BRANCH  15  19
DOCKED: ATOM     19  O   UNL d   1       2.540 -14.845   2.328 -0.03 -0.04    -0.303 OA
DOCKED: ATOM     20  H   UNL d   1       1.841 -15.246   2.877 +0.04 +0.04    +0.222 HD
DOCKED: ENDBRANCH  15  19
DOCKED: ENDBRANCH  14  15
DOCKED: ENDBRANCH   2  14
DOCKED: BRANCH   6  21
DOCKED: ATOM     21  O   UNL d   1       1.848 -19.141  -2.366 -0.08 +0.04    -0.278 OA
DOCKED: BRANCH  21  22
DOCKED: ATOM     22  P   UNL d   1       3.285 -19.794  -2.137 -0.02 -0.08    +0.473 P 
DOCKED: ATOM     23  O   UNL d   1       3.430 -21.266  -2.330 -0.02 +0.04    -0.228 OA
DOCKED: BRANCH  22  24
DOCKED: ATOM     24  O   UNL d   1       4.202 -18.903  -3.085 -0.09 +0.10    -0.303 OA
DOCKED: ATOM     25  H   UNL d   1       4.175 -17.970  -2.752 +0.07 -0.05    +0.222 HD
DOCKED: ENDBRANCH  22  24
DOCKED: BRANCH  22  26
DOCKED: ATOM     26  O   UNL d   1       3.670 -19.234  -0.684 -0.00 +0.01    -0.303 OA
DOCKED: ATOM     27  H   UNL d   1       3.570 -18.261  -0.678 +0.04 -0.01    +0.222 HD
DOCKED: ENDBRANCH  22  26
DOCKED: ENDBRANCH  21  22
DOCKED: ENDBRANCH   6  21
DOCKED: BRANCH   3  28
DOCKED: ATOM     28  O   UNL d   1      -1.363 -15.500   0.241 -0.32 -0.10    -0.278 OA
DOCKED: BRANCH  28  29
DOCKED: ATOM     29  P   UNL d   1      -1.220 -15.992   1.749 -0.13 +0.21    +0.473 P 
DOCKED: ATOM     30  O   UNL d   1      -0.821 -17.412   1.925 -0.04 -0.08    -0.228 OA
DOCKED: BRANCH  29  31
DOCKED: ATOM     31  O   UNL d   1      -0.216 -14.880   2.312 -0.59 -0.15    -0.303 OA
DOCKED: ATOM     32  H   UNL d   1       0.502 -14.743   1.651 +0.08 +0.07    +0.222 HD
DOCKED: ENDBRANCH  29  31
DOCKED: BRANCH  29  33
DOCKED: ATOM     33  O   UNL d   1      -2.617 -15.554   2.377 -0.11 -0.19    -0.303 OA
DOCKED: ATOM     34  H   UNL d   1      -3.134 -16.365   2.605 +0.07 +0.19    +0.222 HD
DOCKED: ENDBRANCH  29  33
DOCKED: ENDBRANCH  28  29
DOCKED: ENDBRANCH   3  28
DOCKED: BRANCH   5  35
DOCKED: ATOM     35  O   UNL d   1      -0.401 -19.939  -0.680 -0.02 -0.04    -0.278 OA
DOCKED: BRANCH  35  36
DOCKED: ATOM     36  P   UNL d   1       0.481 -20.295   0.600 +0.01 +0.07    +0.473 P 
DOCKED: ATOM     37  O   UNL d   1       0.974 -19.124   1.390 -0.01 -0.04    -0.228 OA
DOCKED: BRANCH  36  38
DOCKED: ATOM     38  O   UNL d   1      -0.490 -21.266   1.405 +0.00 -0.06    -0.303 OA
DOCKED: ATOM     39  H   UNL d   1      -1.360 -21.297   0.952 +0.01 +0.06    +0.222 HD
DOCKED: ENDBRANCH  36  38
DOCKED: BRANCH  36  40
DOCKED: ATOM     40  O   UNL d   1       1.582 -21.271  -0.006 -0.00 -0.02    -0.303 OA
DOCKED: ATOM     41  H   UNL d   1       2.292 -20.775  -0.471 +0.01 +0.00    +0.222 HD
DOCKED: ENDBRANCH  36  40
DOCKED: ENDBRANCH  35  36
DOCKED: ENDBRANCH   5  35
DOCKED: BRANCH   4  42
DOCKED: ATOM     42  O   UNL d   1      -2.448 -17.883  -0.953 -0.23 -0.16    -0.278 OA
DOCKED: BRANCH  42  43
DOCKED: ATOM     43  P   UNL d   1      -3.436 -18.686   0.007 -0.08 +0.45    +0.473 P 
DOCKED: ATOM     44  O   UNL d   1      -4.683 -19.237  -0.594 -0.37 -0.30    -0.228 OA
DOCKED: BRANCH  43  45
DOCKED: ATOM     45  O   UNL d   1      -2.482 -19.787   0.648 -0.02 -0.15    -0.303 OA
DOCKED: ATOM     46  H   UNL d   1      -1.686 -19.382   1.048 +0.03 +0.09    +0.222 HD
DOCKED: ENDBRANCH  43  45
DOCKED: BRANCH  43  47
DOCKED: ATOM     47  O   UNL d   1      -3.647 -17.682   1.238 -0.65 -0.39    -0.303 OA
DOCKED: ATOM     48  H   UNL d   1      -2.954 -16.990   1.213 +0.07 +0.20    +0.222 HD
DOCKED: ENDBRANCH  43  47
DOCKED: ENDBRANCH  42  43
DOCKED: ENDBRANCH   4  42
DOCKED: TORSDOF 24
DOCKED: TER
DOCKED: ENDMDL
________________________________________________________________________________


	BEGINNING GENETIC ALGORITHM DOCKING 54 of 100
Run: 54 Seed: 858297295 814413910 [ Run 54 of 100 GA/GALS ]
Beginning LAMARCKIAN GENETIC ALGORITHM (LGA), with a maximum of 25000000 energy evaluations.

Final-Value: -17.564


	FINAL GENETIC ALGORITHM DOCKED STATE
	_______________________________________________


Detailed state:  trans -7.859 -1.008 -10.964 quatxyzw -0.655220 -0.649143 0.170948 -0.346521 center 0.035 0.082 -0.065 ntor 24 -48.6461 127.3793 54.1485 49.6332 1.0990 -95.3809 -131.0535 -130.9001 105.1162 -48.6031 36.9919 179.0215 -60.7332 137.4992 17.5179 63.7037 109.6259 167.2502 -153.9780 -14.8563 76.7065 6.4875 162.7254 -6.8564
State:	 -7.859  -1.008 -10.964  -0.698 -0.692  0.182 -139.451    -48.65  127.38   54.15   49.63    1.10  -95.38 -131.05 -130.90  105.12  -48.60   36.99  179.02  -60.73  137.50   17.52   63.70  109.63  167.25 -153.98  -14.86   76.71    6.49  162.73   -6.86

DOCKED: MODEL       54
DOCKED: USER    Run = 54
DOCKED: USER    DPF = D:/Protein_go_brrr/autodock/final/AncB/IHP/dock.dpf
DOCKED: USER  
DOCKED: USER    Estimated Free Energy of Binding    =   +2.87 kcal/mol  [=(1)+(2)+(3)-(4)]
DOCKED: USER    
DOCKED: USER    (1) Final Intermolecular Energy     =   -4.29 kcal/mol
DOCKED: USER        vdW + Hbond + desolv Energy     =   -3.91 kcal/mol
DOCKED: USER        Electrostatic Energy            =   -0.37 kcal/mol
DOCKED: USER    (2) Final Total Internal Energy     =  -13.28 kcal/mol
DOCKED: USER    (3) Torsional Free Energy           =   +7.16 kcal/mol
DOCKED: USER    (4) Unbound System's Energy  [=(2)] =  -13.28 kcal/mol
DOCKED: USER    
DOCKED: USER    
DOCKED: USER    NEWDPF move IHP_ideal_opt.pdbqt
DOCKED: USER    NEWDPF about 0.035000 0.082000 -0.065000
DOCKED: USER    NEWDPF tran0 -7.859117 -1.007870 -10.964409
DOCKED: USER    NEWDPF quaternion0 -0.655220 -0.649143 0.170948 -0.346521
DOCKED: USER    NEWDPF axisangle0 -0.698497 -0.692019 0.182239 -139.450614
DOCKED: USER    NEWDPF quat0 -0.698497 -0.692019 0.182239 -139.450614
DOCKED: USER    NEWDPF dihe0 -48.65 127.38 54.15 49.63 1.10 -95.38 -131.05 -130.90 105.12 -48.60 36.99 179.02 -60.73 137.50 17.52 63.70 109.63 167.25 -153.98 -14.86 76.71 6.49 162.73 -6.86 
DOCKED: USER  keepresnum = 1 
DOCKED: USER  
DOCKED: REMARK  24 active torsions:
DOCKED: REMARK  status: ('A' for Active; 'I' for Inactive)
DOCKED: REMARK    1  A    between atoms: C_1  and  O_7 
DOCKED: REMARK    2  A    between atoms: C_2  and  O_12 
DOCKED: REMARK    3  A    between atoms: C_3  and  O_17 
DOCKED: REMARK    4  A    between atoms: C_4  and  O_22 
DOCKED: REMARK    5  A    between atoms: C_5  and  O_27 
DOCKED: REMARK    6  A    between atoms: C_6  and  O_32 
DOCKED: REMARK    7  A    between atoms: O_7  and  P_8 
DOCKED: REMARK    8  A    between atoms: P_8  and  O_10 
DOCKED: REMARK    9  A    between atoms: P_8  and  O_11 
DOCKED: REMARK   10  A    between atoms: O_12  and  P_13 
DOCKED: REMARK   11  A    between atoms: P_13  and  O_15 
DOCKED: REMARK   12  A    between atoms: P_13  and  O_16 
DOCKED: REMARK   13  A    between atoms: O_17  and  P_18 
DOCKED: REMARK   14  A    between atoms: P_18  and  O_20 
DOCKED: REMARK   15  A    between atoms: P_18  and  O_21 
DOCKED: REMARK   16  A    between atoms: O_22  and  P_23 
DOCKED: REMARK   17  A    between atoms: P_23  and  O_25 
DOCKED: REMARK   18  A    between atoms: P_23  and  O_26 
DOCKED: REMARK   19  A    between atoms: O_27  and  P_28 
DOCKED: REMARK   20  A    between atoms: P_28  and  O_30 
DOCKED: REMARK   21  A    between atoms: P_28  and  O_31 
DOCKED: REMARK   22  A    between atoms: O_32  and  P_33 
DOCKED: REMARK   23  A    between atoms: P_33  and  O_35 
DOCKED: REMARK   24  A    between atoms: P_33  and  O_36 
DOCKED: USER                              x       y       z     vdW  Elec       q    Type
DOCKED: USER                           _______ _______ _______ _____ _____    ______ ____
DOCKED: ROOT
DOCKED: ATOM      1  C   UNL d   1      -8.919   0.316 -10.636 -0.03 +0.07    +0.194 C 
DOCKED: ATOM      2  C   UNL d   1      -9.382  -1.045 -10.115 -0.03 +0.07    +0.194 C 
DOCKED: ATOM      3  C   UNL d   1      -9.158  -2.153 -11.148 -0.03 +0.09    +0.194 C 
DOCKED: ATOM      4  C   UNL d   1      -7.729  -2.195 -11.683 -0.08 +0.13    +0.194 C 
DOCKED: ATOM      5  C   UNL d   1      -7.185  -0.837 -12.108 -0.06 +0.15    +0.194 C 
DOCKED: ATOM      6  C   UNL d   1      -7.463   0.283 -11.103 -0.05 +0.11    +0.194 C 
DOCKED: ENDROOT
DOCKED: BRANCH   1   7
DOCKED: ATOM      7  O   UNL d   1      -9.000   1.256  -9.561 -0.04 -0.08    -0.278 OA
DOCKED: BRANCH   7   8
DOCKED: ATOM      8  P   UNL d   1      -7.784   1.333  -8.527 -0.16 +0.13    +0.473 P 
DOCKED: ATOM      9  O   UNL d   1      -6.766   0.257  -8.669 -0.19 -0.08    -0.228 OA
DOCKED: BRANCH   8  10
DOCKED: ATOM     10  O   UNL d   1      -7.186   2.796  -8.742 -0.23 -0.09    -0.303 OA
DOCKED: ATOM     11  H   UNL d   1      -6.750   3.095  -7.923 -0.47 +0.02    +0.222 HD
DOCKED: ENDBRANCH   8  10
DOCKED: BRANCH   8  12
DOCKED: ATOM     12  O   UNL d   1      -8.466   1.459  -7.098 -0.24 -0.04    -0.303 OA
DOCKED: ATOM     13  H   UNL d   1      -8.750   0.593  -6.728 +0.10 +0.04    +0.222 HD
DOCKED: ENDBRANCH   8  12
DOCKED: ENDBRANCH   7   8
DOCKED: ENDBRANCH   1   7
DOCKED: BRANCH   2  14
DOCKED: ATOM     14  O   UNL d   1      -8.642  -1.369  -8.931 -0.07 -0.09    -0.278 OA
DOCKED: BRANCH  14  15
DOCKED: ATOM     15  P   UNL d   1      -9.486  -1.511  -7.577 -0.10 +0.10    +0.473 P 
DOCKED: ATOM     16  O   UNL d   1      -8.706  -1.548  -6.301 -0.19 -0.06    -0.228 OA
DOCKED: BRANCH  15  17
DOCKED: ATOM     17  O   UNL d   1     -10.518  -0.298  -7.635 -0.10 -0.04    -0.303 OA
DOCKED: ATOM     18  H   UNL d   1     -10.087   0.515  -7.961 +0.07 +0.04    +0.222 HD
DOCKED: ENDBRANCH  15  17
DOCKED: BRANCH  15  19
DOCKED: ATOM     19  O   UNL d   1     -10.442  -2.756  -7.834 -0.06 -0.06    -0.303 OA
DOCKED: ATOM     20  H   UNL d   1     -10.422  -3.039  -8.767 +0.07 +0.06    +0.222 HD
DOCKED: ENDBRANCH  15  19
DOCKED: ENDBRANCH  14  15
DOCKED: ENDBRANCH   2  14
DOCKED: BRANCH   6  21
DOCKED: ATOM     21  O   UNL d   1      -7.212   1.514 -11.778 -0.06 -0.18    -0.278 OA
DOCKED: BRANCH  21  22
DOCKED: ATOM     22  P   UNL d   1      -6.197   1.550 -13.008 -0.07 +0.47    +0.473 P 
DOCKED: ATOM     23  O   UNL d   1      -6.340   0.512 -14.070 -0.04 -0.23    -0.228 OA
DOCKED: BRANCH  22  24
DOCKED: ATOM     24  O   UNL d   1      -6.354   3.050 -13.516 -0.09 -0.37    -0.303 OA
DOCKED: ATOM     25  H   UNL d   1      -7.279   3.166 -13.853 +0.02 +0.19    +0.222 HD
DOCKED: ENDBRANCH  22  24
DOCKED: BRANCH  22  26
DOCKED: ATOM     26  O   UNL d   1      -4.780   1.600 -12.260 -0.12 -0.37    -0.303 OA
DOCKED: ATOM     27  H   UNL d   1      -4.459   0.686 -12.118 +0.07 +0.27    +0.222 HD
DOCKED: ENDBRANCH  22  26
DOCKED: ENDBRANCH  21  22
DOCKED: ENDBRANCH   6  21
DOCKED: BRANCH   3  28
DOCKED: ATOM     28  O   UNL d   1      -9.351  -3.398 -10.489 -0.05 -0.12    -0.278 OA
DOCKED: BRANCH  28  29
DOCKED: ATOM     29  P   UNL d   1     -10.525  -4.374 -10.942 -0.05 +0.23    +0.473 P 
DOCKED: ATOM     30  O   UNL d   1     -10.782  -4.433 -12.404 -0.05 -0.13    -0.228 OA
DOCKED: BRANCH  29  31
DOCKED: ATOM     31  O   UNL d   1     -10.052  -5.728 -10.232 -0.16 -0.17    -0.303 OA
DOCKED: ATOM     32  H   UNL d   1      -9.344  -6.139 -10.781 +0.08 +0.13    +0.222 HD
DOCKED: ENDBRANCH  29  31
DOCKED: BRANCH  29  33
DOCKED: ATOM     33  O   UNL d   1     -11.731  -3.896 -10.018 -0.02 -0.12    -0.303 OA
DOCKED: ATOM     34  H   UNL d   1     -11.556  -4.182  -9.088 +0.06 +0.07    +0.222 HD
DOCKED: ENDBRANCH  29  33
DOCKED: ENDBRANCH  28  29
DOCKED: ENDBRANCH   3  28
DOCKED: BRANCH   5  35
DOCKED: ATOM     35  O   UNL d   1      -5.769  -0.993 -12.181 -0.12 -0.35    -0.278 OA
DOCKED: BRANCH  35  36
DOCKED: ATOM     36  P   UNL d   1      -4.920  -1.264 -10.858 -0.08 +0.50    +0.473 P 
DOCKED: ATOM     37  O   UNL d   1      -3.627  -1.990 -11.058 -0.77 -0.37    -0.228 OA
DOCKED: BRANCH  36  38
DOCKED: ATOM     38  O   UNL d   1      -4.760   0.206 -10.267 -0.13 -0.22    -0.303 OA
DOCKED: ATOM     39  H   UNL d   1      -5.576   0.719 -10.455 +0.09 +0.15    +0.222 HD
DOCKED: ENDBRANCH  36  38
DOCKED: BRANCH  36  40
DOCKED: ATOM     40  O   UNL d   1      -5.991  -1.947  -9.901 -0.05 -0.19    -0.303 OA
DOCKED: ATOM     41  H   UNL d   1      -6.471  -1.282  -9.358 +0.08 +0.11    +0.222 HD
DOCKED: ENDBRANCH  36  40
DOCKED: ENDBRANCH  35  36
DOCKED: ENDBRANCH   5  35
DOCKED: BRANCH   4  42
DOCKED: ATOM     42  O   UNL d   1      -7.748  -3.024 -12.850 -0.05 -0.21    -0.278 OA
DOCKED: BRANCH  42  43
DOCKED: ATOM     43  P   UNL d   1      -6.883  -4.364 -12.859 -0.12 +0.43    +0.473 P 
DOCKED: ATOM     44  O   UNL d   1      -6.299  -4.797 -14.159 -0.20 -0.26    -0.228 OA
DOCKED: BRANCH  43  45
DOCKED: ATOM     45  O   UNL d   1      -5.805  -4.091 -11.720 -0.15 -0.32    -0.303 OA
DOCKED: ATOM     46  H   UNL d   1      -5.530  -3.152 -11.706 +0.06 +0.30    +0.222 HD
DOCKED: ENDBRANCH  43  45
DOCKED: BRANCH  43  47
DOCKED: ATOM     47  O   UNL d   1      -7.848  -5.427 -12.146 -0.17 -0.18    -0.303 OA
DOCKED: ATOM     48  H   UNL d   1      -8.675  -4.980 -11.872 +0.07 +0.13    +0.222 HD
DOCKED: ENDBRANCH  43  47
DOCKED: ENDBRANCH  42  43
DOCKED: ENDBRANCH   4  42
DOCKED: TORSDOF 24
DOCKED: TER
DOCKED: ENDMDL
________________________________________________________________________________


	BEGINNING GENETIC ALGORITHM DOCKING 55 of 100
Run: 55 Seed: 408159473 1559090708 [ Run 55 of 100 GA/GALS ]
Beginning LAMARCKIAN GENETIC ALGORITHM (LGA), with a maximum of 25000000 energy evaluations.

Final-Value: -18.754


	FINAL GENETIC ALGORITHM DOCKED STATE
	_______________________________________________


Detailed state:  trans -14.138 9.708 4.455 quatxyzw -0.451773 -0.822046 0.243398 -0.246777 center 0.035 0.082 -0.065 ntor 24 -119.8670 -14.2246 147.9244 9.3571 50.1284 156.5033 -100.2089 -32.5984 112.9199 -13.0981 24.6013 -69.4599 26.3073 159.7560 144.6455 -166.6960 109.8150 -38.0661 -7.8095 -3.0601 -17.8197 -6.4790 -30.5787 -179.8713
State:	-14.138   9.708   4.455  -0.466 -0.848  0.251 -151.426   -119.87  -14.22  147.92    9.36   50.13  156.50 -100.21  -32.60  112.92  -13.10   24.60  -69.46   26.31  159.76  144.65 -166.70  109.82  -38.07   -7.81   -3.06  -17.82   -6.48  -30.58 -179.87

DOCKED: MODEL       55
DOCKED: USER    Run = 55
DOCKED: USER    DPF = D:/Protein_go_brrr/autodock/final/AncB/IHP/dock.dpf
DOCKED: USER  
DOCKED: USER    Estimated Free Energy of Binding    =   +2.81 kcal/mol  [=(1)+(2)+(3)-(4)]
DOCKED: USER    
DOCKED: USER    (1) Final Intermolecular Energy     =   -4.35 kcal/mol
DOCKED: USER        vdW + Hbond + desolv Energy     =   -4.37 kcal/mol
DOCKED: USER        Electrostatic Energy            =   +0.02 kcal/mol
DOCKED: USER    (2) Final Total Internal Energy     =  -14.40 kcal/mol
DOCKED: USER    (3) Torsional Free Energy           =   +7.16 kcal/mol
DOCKED: USER    (4) Unbound System's Energy  [=(2)] =  -14.40 kcal/mol
DOCKED: USER    
DOCKED: USER    
DOCKED: USER    NEWDPF move IHP_ideal_opt.pdbqt
DOCKED: USER    NEWDPF about 0.035000 0.082000 -0.065000
DOCKED: USER    NEWDPF tran0 -14.138071 9.707777 4.454941
DOCKED: USER    NEWDPF quaternion0 -0.451773 -0.822046 0.243398 -0.246777
DOCKED: USER    NEWDPF axisangle0 -0.466191 -0.848281 0.251166 -151.426201
DOCKED: USER    NEWDPF quat0 -0.466191 -0.848281 0.251166 -151.426201
DOCKED: USER    NEWDPF dihe0 -119.87 -14.22 147.92 9.36 50.13 156.50 -100.21 -32.60 112.92 -13.10 24.60 -69.46 26.31 159.76 144.65 -166.70 109.82 -38.07 -7.81 -3.06 -17.82 -6.48 -30.58 -179.87 
DOCKED: USER  keepresnum = 1 
DOCKED: USER  
DOCKED: REMARK  24 active torsions:
DOCKED: REMARK  status: ('A' for Active; 'I' for Inactive)
DOCKED: REMARK    1  A    between atoms: C_1  and  O_7 
DOCKED: REMARK    2  A    between atoms: C_2  and  O_12 
DOCKED: REMARK    3  A    between atoms: C_3  and  O_17 
DOCKED: REMARK    4  A    between atoms: C_4  and  O_22 
DOCKED: REMARK    5  A    between atoms: C_5  and  O_27 
DOCKED: REMARK    6  A    between atoms: C_6  and  O_32 
DOCKED: REMARK    7  A    between atoms: O_7  and  P_8 
DOCKED: REMARK    8  A    between atoms: P_8  and  O_10 
DOCKED: REMARK    9  A    between atoms: P_8  and  O_11 
DOCKED: REMARK   10  A    between atoms: O_12  and  P_13 
DOCKED: REMARK   11  A    between atoms: P_13  and  O_15 
DOCKED: REMARK   12  A    between atoms: P_13  and  O_16 
DOCKED: REMARK   13  A    between atoms: O_17  and  P_18 
DOCKED: REMARK   14  A    between atoms: P_18  and  O_20 
DOCKED: REMARK   15  A    between atoms: P_18  and  O_21 
DOCKED: REMARK   16  A    between atoms: O_22  and  P_23 
DOCKED: REMARK   17  A    between atoms: P_23  and  O_25 
DOCKED: REMARK   18  A    between atoms: P_23  and  O_26 
DOCKED: REMARK   19  A    between atoms: O_27  and  P_28 
DOCKED: REMARK   20  A    between atoms: P_28  and  O_30 
DOCKED: REMARK   21  A    between atoms: P_28  and  O_31 
DOCKED: REMARK   22  A    between atoms: O_32  and  P_33 
DOCKED: REMARK   23  A    between atoms: P_33  and  O_35 
DOCKED: REMARK   24  A    between atoms: P_33  and  O_36 
DOCKED: USER                              x       y       z     vdW  Elec       q    Type
DOCKED: USER                           _______ _______ _______ _____ _____    ______ ____
DOCKED: ROOT
DOCKED: ATOM      1  C   UNL d   1     -15.775  10.229   4.640 -0.06 +0.01    +0.194 C 
DOCKED: ATOM      2  C   UNL d   1     -15.458   8.836   5.190 -0.09 +0.01    +0.194 C 
DOCKED: ATOM      3  C   UNL d   1     -14.573   8.037   4.231 -0.18 +0.02    +0.194 C 
DOCKED: ATOM      4  C   UNL d   1     -13.315   8.790   3.805 -0.17 +0.00    +0.194 C 
DOCKED: ATOM      5  C   UNL d   1     -13.570  10.223   3.358 -0.17 -0.00    +0.194 C 
DOCKED: ATOM      6  C   UNL d   1     -14.505  11.004   4.284 -0.10 -0.00    +0.194 C 
DOCKED: ENDROOT
DOCKED: BRANCH   1   7
DOCKED: ATOM      7  O   UNL d   1     -16.453  10.967   5.660 -0.02 -0.01    -0.278 OA
DOCKED: BRANCH   7   8
DOCKED: ATOM      8  P   UNL d   1     -17.810  11.717   5.278 +0.00 +0.02    +0.473 P 
DOCKED: ATOM      9  O   UNL d   1     -19.011  10.843   5.186 -0.00 -0.01    -0.228 OA
DOCKED: BRANCH   8  10
DOCKED: ATOM     10  O   UNL d   1     -17.947  12.857   6.386 -0.00 -0.01    -0.303 OA
DOCKED: ATOM     11  H   UNL d   1     -17.403  13.626   6.133 +0.01 +0.01    +0.222 HD
DOCKED: ENDBRANCH   8  10
DOCKED: BRANCH   8  12
DOCKED: ATOM     12  O   UNL d   1     -17.464  12.560   3.976 -0.00 -0.01    -0.303 OA
DOCKED: ATOM     13  H   UNL d   1     -16.739  13.210   4.118 +0.01 +0.00    +0.222 HD
DOCKED: ENDBRANCH   8  12
DOCKED: ENDBRANCH   7   8
DOCKED: ENDBRANCH   1   7
DOCKED: BRANCH   2  14
DOCKED: ATOM     14  O   UNL d   1     -14.770   8.973   6.440 -0.12 -0.03    -0.278 OA
DOCKED: BRANCH  14  15
DOCKED: ATOM     15  P   UNL d   1     -15.360   8.144   7.676 -0.11 +0.02    +0.473 P 
DOCKED: ATOM     16  O   UNL d   1     -15.274   8.791   9.022 -0.13 -0.01    -0.228 OA
DOCKED: BRANCH  15  17
DOCKED: ATOM     17  O   UNL d   1     -16.858   7.816   7.243 -0.02 -0.02    -0.303 OA
DOCKED: ATOM     18  H   UNL d   1     -16.886   7.401   6.359 +0.04 +0.02    +0.222 HD
DOCKED: ENDBRANCH  15  17
DOCKED: BRANCH  15  19
DOCKED: ATOM     19  O   UNL d   1     -14.674   6.714   7.558 -0.21 -0.00    -0.303 OA
DOCKED: ATOM     20  H   UNL d   1     -14.761   6.345   6.659 +0.08 +0.02    +0.222 HD
DOCKED: ENDBRANCH  15  19
DOCKED: ENDBRANCH  14  15
DOCKED: ENDBRANCH   2  14
DOCKED: BRANCH   6  21
DOCKED: ATOM     21  O   UNL d   1     -14.913  12.169   3.571 -0.04 +0.01    -0.278 OA
DOCKED: BRANCH  21  22
DOCKED: ATOM     22  P   UNL d   1     -14.586  13.614   4.163 -0.03 -0.03    +0.473 P 
DOCKED: ATOM     23  O   UNL d   1     -14.923  14.808   3.335 -0.01 +0.01    -0.228 OA
DOCKED: BRANCH  22  24
DOCKED: ATOM     24  O   UNL d   1     -15.312  13.558   5.579 -0.03 +0.01    -0.303 OA
DOCKED: ATOM     25  H   UNL d   1     -15.945  12.796   5.570 +0.02 -0.00    +0.222 HD
DOCKED: ENDBRANCH  22  24
DOCKED: BRANCH  22  26
DOCKED: ATOM     26  O   UNL d   1     -13.045  13.456   4.575 -0.03 +0.09    -0.303 OA
DOCKED: ATOM     27  H   UNL d   1     -12.821  12.504   4.625 -0.45 -0.11    +0.222 HD
DOCKED: ENDBRANCH  22  26
DOCKED: ENDBRANCH  21  22
DOCKED: ENDBRANCH   6  21
DOCKED: BRANCH   3  28
DOCKED: ATOM     28  O   UNL d   1     -14.108   6.891   4.933 -0.23 -0.02    -0.278 OA
DOCKED: BRANCH  28  29
DOCKED: ATOM     29  P   UNL d   1     -14.741   5.459   4.644 -0.16 +0.06    +0.473 P 
DOCKED: ATOM     30  O   UNL d   1     -13.995   4.303   5.205 -0.34 -0.04    -0.228 OA
DOCKED: BRANCH  29  31
DOCKED: ATOM     31  O   UNL d   1     -16.228   5.696   5.187 -0.05 -0.04    -0.303 OA
DOCKED: ATOM     32  H   UNL d   1     -16.174   6.108   6.080 +0.07 +0.02    +0.222 HD
DOCKED: ENDBRANCH  29  31
DOCKED: BRANCH  29  33
DOCKED: ATOM     33  O   UNL d   1     -14.935   5.492   3.064 -0.15 -0.06    -0.303 OA
DOCKED: ATOM     34  H   UNL d   1     -14.273   6.113   2.672 +0.09 +0.05    +0.222 HD
DOCKED: ENDBRANCH  29  33
DOCKED: ENDBRANCH  28  29
DOCKED: ENDBRANCH   3  28
DOCKED: BRANCH   5  35
DOCKED: ATOM     35  O   UNL d   1     -12.302  10.873   3.397 -0.22 +0.05    -0.278 OA
DOCKED: BRANCH  35  36
DOCKED: ATOM     36  P   UNL d   1     -11.462  11.082   2.057 -0.17 -0.09    +0.473 P 
DOCKED: ATOM     37  O   UNL d   1     -10.508  12.233   2.066 -0.21 +0.08    -0.228 OA
DOCKED: BRANCH  36  38
DOCKED: ATOM     38  O   UNL d   1     -10.769   9.658   1.882 -0.29 +0.06    -0.303 OA
DOCKED: ATOM     39  H   UNL d   1     -11.426   8.955   2.075 +0.07 -0.03    +0.222 HD
DOCKED: ENDBRANCH  36  38
DOCKED: BRANCH  36  40
DOCKED: ATOM     40  O   UNL d   1     -12.598  11.094   0.943 -0.03 +0.01    -0.303 OA
DOCKED: ATOM     41  H   UNL d   1     -13.159  10.288   0.987 +0.06 +0.01    +0.222 HD
DOCKED: ENDBRANCH  36  40
DOCKED: ENDBRANCH  35  36
DOCKED: ENDBRANCH   5  35
DOCKED: BRANCH   4  42
DOCKED: ATOM     42  O   UNL d   1     -12.772   8.088   2.681 -0.17 -0.01    -0.278 OA
DOCKED: BRANCH  42  43
DOCKED: ATOM     43  P   UNL d   1     -13.567   8.116   1.298 -0.06 +0.10    +0.473 P 
DOCKED: ATOM     44  O   UNL d   1     -14.748   9.019   1.203 -0.04 -0.03    -0.228 OA
DOCKED: BRANCH  43  45
DOCKED: ATOM     45  O   UNL d   1     -12.419   8.432   0.243 -0.24 -0.05    -0.303 OA
DOCKED: ATOM     46  H   UNL d   1     -11.866   9.187   0.529 +0.08 +0.01    +0.222 HD
DOCKED: ENDBRANCH  43  45
DOCKED: BRANCH  43  47
DOCKED: ATOM     47  O   UNL d   1     -13.856   6.566   1.011 -0.64 -0.13    -0.303 OA
DOCKED: ATOM     48  H   UNL d   1     -14.813   6.390   1.125 +0.07 +0.09    +0.222 HD
DOCKED: ENDBRANCH  43  47
DOCKED: ENDBRANCH  42  43
DOCKED: ENDBRANCH   4  42
DOCKED: TORSDOF 24
DOCKED: TER
DOCKED: ENDMDL
________________________________________________________________________________


	BEGINNING GENETIC ALGORITHM DOCKING 56 of 100
Run: 56 Seed: 1582064631 454987210 [ Run 56 of 100 GA/GALS ]
Beginning LAMARCKIAN GENETIC ALGORITHM (LGA), with a maximum of 25000000 energy evaluations.

Final-Value: -17.872


	FINAL GENETIC ALGORITHM DOCKED STATE
	_______________________________________________


Detailed state:  trans -12.836 5.591 -4.795 quatxyzw 0.311432 0.325723 -0.783953 -0.427004 center 0.035 0.082 -0.065 ntor 24 -178.7377 85.5367 74.7466 76.1051 -5.0874 158.7528 9.5242 -152.8022 -14.2760 107.6788 36.5877 175.3552 -52.5736 132.0242 -173.2704 96.9768 -16.6215 167.3132 1.1907 -15.3190 -33.3373 -7.9294 165.2251 -5.6951
State:	-12.836   5.591  -4.795   0.344  0.360 -0.867 -129.445   -178.74   85.54   74.75   76.11   -5.09  158.75    9.52 -152.80  -14.28  107.68   36.59  175.36  -52.57  132.02 -173.27   96.98  -16.62  167.31    1.19  -15.32  -33.34   -7.93  165.23   -5.70

DOCKED: MODEL       56
DOCKED: USER    Run = 56
DOCKED: USER    DPF = D:/Protein_go_brrr/autodock/final/AncB/IHP/dock.dpf
DOCKED: USER  
DOCKED: USER    Estimated Free Energy of Binding    =   +4.40 kcal/mol  [=(1)+(2)+(3)-(4)]
DOCKED: USER    
DOCKED: USER    (1) Final Intermolecular Energy     =   -2.76 kcal/mol
DOCKED: USER        vdW + Hbond + desolv Energy     =   -2.97 kcal/mol
DOCKED: USER        Electrostatic Energy            =   +0.21 kcal/mol
DOCKED: USER    (2) Final Total Internal Energy     =  -15.11 kcal/mol
DOCKED: USER    (3) Torsional Free Energy           =   +7.16 kcal/mol
DOCKED: USER    (4) Unbound System's Energy  [=(2)] =  -15.11 kcal/mol
DOCKED: USER    
DOCKED: USER    
DOCKED: USER    NEWDPF move IHP_ideal_opt.pdbqt
DOCKED: USER    NEWDPF about 0.035000 0.082000 -0.065000
DOCKED: USER    NEWDPF tran0 -12.835557 5.591018 -4.795344
DOCKED: USER    NEWDPF quaternion0 0.311432 0.325723 -0.783953 -0.427004
DOCKED: USER    NEWDPF axisangle0 0.344409 0.360213 -0.866965 -129.444791
DOCKED: USER    NEWDPF quat0 0.344409 0.360213 -0.866965 -129.444791
DOCKED: USER    NEWDPF dihe0 -178.74 85.54 74.75 76.11 -5.09 158.75 9.52 -152.80 -14.28 107.68 36.59 175.36 -52.57 132.02 -173.27 96.98 -16.62 167.31 1.19 -15.32 -33.34 -7.93 165.23 -5.70 
DOCKED: USER  keepresnum = 1 
DOCKED: USER  
DOCKED: REMARK  24 active torsions:
DOCKED: REMARK  status: ('A' for Active; 'I' for Inactive)
DOCKED: REMARK    1  A    between atoms: C_1  and  O_7 
DOCKED: REMARK    2  A    between atoms: C_2  and  O_12 
DOCKED: REMARK    3  A    between atoms: C_3  and  O_17 
DOCKED: REMARK    4  A    between atoms: C_4  and  O_22 
DOCKED: REMARK    5  A    between atoms: C_5  and  O_27 
DOCKED: REMARK    6  A    between atoms: C_6  and  O_32 
DOCKED: REMARK    7  A    between atoms: O_7  and  P_8 
DOCKED: REMARK    8  A    between atoms: P_8  and  O_10 
DOCKED: REMARK    9  A    between atoms: P_8  and  O_11 
DOCKED: REMARK   10  A    between atoms: O_12  and  P_13 
DOCKED: REMARK   11  A    between atoms: P_13  and  O_15 
DOCKED: REMARK   12  A    between atoms: P_13  and  O_16 
DOCKED: REMARK   13  A    between atoms: O_17  and  P_18 
DOCKED: REMARK   14  A    between atoms: P_18  and  O_20 
DOCKED: REMARK   15  A    between atoms: P_18  and  O_21 
DOCKED: REMARK   16  A    between atoms: O_22  and  P_23 
DOCKED: REMARK   17  A    between atoms: P_23  and  O_25 
DOCKED: REMARK   18  A    between atoms: P_23  and  O_26 
DOCKED: REMARK   19  A    between atoms: O_27  and  P_28 
DOCKED: REMARK   20  A    between atoms: P_28  and  O_30 
DOCKED: REMARK   21  A    between atoms: P_28  and  O_31 
DOCKED: REMARK   22  A    between atoms: O_32  and  P_33 
DOCKED: REMARK   23  A    between atoms: P_33  and  O_35 
DOCKED: REMARK   24  A    between atoms: P_33  and  O_36 
DOCKED: USER                              x       y       z     vdW  Elec       q    Type
DOCKED: USER                           _______ _______ _______ _____ _____    ______ ____
DOCKED: ROOT
DOCKED: ATOM      1  C   UNL d   1     -14.329   4.768  -5.069 -0.09 +0.09    +0.194 C 
DOCKED: ATOM      2  C   UNL d   1     -14.403   5.977  -4.134 -0.03 +0.16    +0.194 C 
DOCKED: ATOM      3  C   UNL d   1     -13.230   6.005  -3.151 -0.12 +0.12    +0.194 C 
DOCKED: ATOM      4  C   UNL d   1     -11.870   5.884  -3.833 -0.15 +0.05    +0.194 C 
DOCKED: ATOM      5  C   UNL d   1     -11.788   4.761  -4.859 -0.19 +0.02    +0.194 C 
DOCKED: ATOM      6  C   UNL d   1     -12.990   4.695  -5.803 -0.11 +0.02    +0.194 C 
DOCKED: ENDROOT
DOCKED: BRANCH   1   7
DOCKED: ATOM      7  O   UNL d   1     -15.351   4.907  -6.059 -0.05 -0.09    -0.278 OA
DOCKED: BRANCH   7   8
DOCKED: ATOM      8  P   UNL d   1     -16.452   3.755  -6.180 -0.06 +0.12    +0.473 P 
DOCKED: ATOM      9  O   UNL d   1     -16.281   2.616  -5.237 -0.16 -0.02    -0.228 OA
DOCKED: BRANCH   8  10
DOCKED: ATOM     10  O   UNL d   1     -17.838   4.523  -5.992 -0.01 -0.10    -0.303 OA
DOCKED: ATOM     11  H   UNL d   1     -17.724   5.464  -6.223 +0.01 +0.07    +0.222 HD
DOCKED: ENDBRANCH   8  10
DOCKED: BRANCH   8  12
DOCKED: ATOM     12  O   UNL d   1     -16.488   3.379  -7.723 -0.01 -0.03    -0.303 OA
DOCKED: ATOM     13  H   UNL d   1     -15.594   3.354  -8.135 +0.02 +0.02    +0.222 HD
DOCKED: ENDBRANCH   8  12
DOCKED: ENDBRANCH   7   8
DOCKED: ENDBRANCH   1   7
DOCKED: BRANCH   2  14
DOCKED: ATOM     14  O   UNL d   1     -14.369   7.176  -4.919 -0.02 -0.10    -0.278 OA
DOCKED: BRANCH  14  15
DOCKED: ATOM     15  P   UNL d   1     -15.671   8.106  -4.861 +0.01 +0.14    +0.473 P 
DOCKED: ATOM     16  O   UNL d   1     -15.712   9.264  -5.808 +0.00 -0.05    -0.228 OA
DOCKED: BRANCH  15  17
DOCKED: ATOM     17  O   UNL d   1     -16.881   7.091  -5.074 -0.01 -0.11    -0.303 OA
DOCKED: ATOM     18  H   UNL d   1     -16.579   6.269  -5.504 +0.01 +0.09    +0.222 HD
DOCKED: ENDBRANCH  15  17
DOCKED: BRANCH  15  19
DOCKED: ATOM     19  O   UNL d   1     -15.829   8.472  -3.321 -0.00 -0.10    -0.303 OA
DOCKED: ATOM     20  H   UNL d   1     -15.011   8.293  -2.822 +0.02 +0.08    +0.222 HD
DOCKED: ENDBRANCH  15  19
DOCKED: ENDBRANCH  14  15
DOCKED: ENDBRANCH   2  14
DOCKED: BRANCH   6  21
DOCKED: ATOM     21  O   UNL d   1     -12.937   3.426  -6.451 -0.11 +0.04    -0.278 OA
DOCKED: BRANCH  21  22
DOCKED: ATOM     22  P   UNL d   1     -13.197   3.327  -8.022 -0.01 +0.03    +0.473 P 
DOCKED: ATOM     23  O   UNL d   1     -13.939   2.142  -8.540 -0.03 -0.01    -0.228 OA
DOCKED: BRANCH  22  24
DOCKED: ATOM     24  O   UNL d   1     -13.882   4.730  -8.327 +0.00 -0.04    -0.303 OA
DOCKED: ATOM     25  H   UNL d   1     -14.794   4.719  -7.938 +0.02 +0.03    +0.222 HD
DOCKED: ENDBRANCH  22  24
DOCKED: BRANCH  22  26
DOCKED: ATOM     26  O   UNL d   1     -11.721   3.544  -8.610 -0.01 -0.05    -0.303 OA
DOCKED: ATOM     27  H   UNL d   1     -11.146   3.910  -7.908 +0.05 +0.04    +0.222 HD
DOCKED: ENDBRANCH  22  26
DOCKED: ENDBRANCH  21  22
DOCKED: ENDBRANCH   6  21
DOCKED: BRANCH   3  28
DOCKED: ATOM     28  O   UNL d   1     -13.227   7.282  -2.526 -0.05 -0.11    -0.278 OA
DOCKED: BRANCH  28  29
DOCKED: ATOM     29  P   UNL d   1     -13.782   7.453  -1.043 -0.06 +0.19    +0.473 P 
DOCKED: ATOM     30  O   UNL d   1     -12.938   6.866   0.029 -0.73 -0.10    -0.228 OA
DOCKED: BRANCH  29  31
DOCKED: ATOM     31  O   UNL d   1     -14.003   9.037  -1.008 -0.01 -0.06    -0.303 OA
DOCKED: ATOM     32  H   UNL d   1     -14.661   9.278  -1.700 +0.01 +0.05    +0.222 HD
DOCKED: ENDBRANCH  29  31
DOCKED: BRANCH  29  33
DOCKED: ATOM     33  O   UNL d   1     -15.267   6.894  -1.176 -0.10 -0.20    -0.303 OA
DOCKED: ATOM     34  H   UNL d   1     -15.879   7.649  -1.357 +0.03 +0.10    +0.222 HD
DOCKED: ENDBRANCH  29  33
DOCKED: ENDBRANCH  28  29
DOCKED: ENDBRANCH   3  28
DOCKED: BRANCH   5  35
DOCKED: ATOM     35  O   UNL d   1     -10.642   5.049  -5.658 -0.11 -0.06    -0.278 OA
DOCKED: BRANCH  35  36
DOCKED: ATOM     36  P   UNL d   1     -10.601   6.363  -6.561 -0.02 +0.12    +0.473 P 
DOCKED: ATOM     37  O   UNL d   1     -11.425   7.510  -6.068 -0.03 -0.06    -0.228 OA
DOCKED: BRANCH  36  38
DOCKED: ATOM     38  O   UNL d   1      -9.038   6.662  -6.630 -0.15 -0.09    -0.303 OA
DOCKED: ATOM     39  H   UNL d   1      -8.773   7.172  -5.835 +0.10 +0.06    +0.222 HD
DOCKED: ENDBRANCH  36  38
DOCKED: BRANCH  36  40
DOCKED: ATOM     40  O   UNL d   1     -10.946   5.794  -8.005 -0.02 -0.07    -0.303 OA
DOCKED: ATOM     41  H   UNL d   1     -11.865   5.447  -8.050 +0.03 +0.04    +0.222 HD
DOCKED: ENDBRANCH  36  40
DOCKED: ENDBRANCH  35  36
DOCKED: ENDBRANCH   5  35
DOCKED: BRANCH   4  42
DOCKED: ATOM     42  O   UNL d   1     -10.917   5.588  -2.807 -0.25 -0.06    -0.278 OA
DOCKED: BRANCH  42  43
DOCKED: ATOM     43  P   UNL d   1      -9.749   6.634  -2.514 -0.17 +0.09    +0.473 P 
DOCKED: ATOM     44  O   UNL d   1      -8.433   6.090  -2.077 -0.32 -0.03    -0.228 OA
DOCKED: BRANCH  43  45
DOCKED: ATOM     45  O   UNL d   1      -9.690   7.478  -3.861 -0.13 -0.07    -0.303 OA
DOCKED: ATOM     46  H   UNL d   1      -9.858   6.916  -4.644 +0.10 +0.06    +0.222 HD
DOCKED: ENDBRANCH  43  45
DOCKED: BRANCH  43  47
DOCKED: ATOM     47  O   UNL d   1     -10.436   7.676  -1.507 -0.16 -0.05    -0.303 OA
DOCKED: ATOM     48  H   UNL d   1     -11.386   7.456  -1.414 +0.09 +0.05    +0.222 HD
DOCKED: ENDBRANCH  43  47
DOCKED: ENDBRANCH  42  43
DOCKED: ENDBRANCH   4  42
DOCKED: TORSDOF 24
DOCKED: TER
DOCKED: ENDMDL
________________________________________________________________________________


	BEGINNING GENETIC ALGORITHM DOCKING 57 of 100
Run: 57 Seed: 1458890997 1691045933 [ Run 57 of 100 GA/GALS ]
Beginning LAMARCKIAN GENETIC ALGORITHM (LGA), with a maximum of 25000000 energy evaluations.

Final-Value: -16.987


	FINAL GENETIC ALGORITHM DOCKED STATE
	_______________________________________________


Detailed state:  trans 0.354 17.061 13.089 quatxyzw 0.026485 -0.758393 0.541712 -0.361506 center 0.035 0.082 -0.065 ntor 24 139.9357 103.0961 -44.5978 81.7458 23.5485 56.6974 -101.1056 -20.8286 42.3521 81.3970 -36.6927 -133.1451 163.9282 -143.6271 -52.5929 19.2773 -13.9165 44.6454 30.0209 -38.2398 -177.1310 165.2024 145.8852 -20.0302
State:	  0.354  17.061  13.089   0.028 -0.813  0.581 -137.615    139.94  103.10  -44.60   81.75   23.55   56.70 -101.11  -20.83   42.35   81.40  -36.69 -133.15  163.93 -143.63  -52.59   19.28  -13.92   44.65   30.02  -38.24 -177.13  165.20  145.89  -20.03

DOCKED: MODEL       57
DOCKED: USER    Run = 57
DOCKED: USER    DPF = D:/Protein_go_brrr/autodock/final/AncB/IHP/dock.dpf
DOCKED: USER  
DOCKED: USER    Estimated Free Energy of Binding    =   +2.39 kcal/mol  [=(1)+(2)+(3)-(4)]
DOCKED: USER    
DOCKED: USER    (1) Final Intermolecular Energy     =   -4.77 kcal/mol
DOCKED: USER        vdW + Hbond + desolv Energy     =   -4.78 kcal/mol
DOCKED: USER        Electrostatic Energy            =   +0.01 kcal/mol
DOCKED: USER    (2) Final Total Internal Energy     =  -12.22 kcal/mol
DOCKED: USER    (3) Torsional Free Energy           =   +7.16 kcal/mol
DOCKED: USER    (4) Unbound System's Energy  [=(2)] =  -12.22 kcal/mol
DOCKED: USER    
DOCKED: USER    
DOCKED: USER    NEWDPF move IHP_ideal_opt.pdbqt
DOCKED: USER    NEWDPF about 0.035000 0.082000 -0.065000
DOCKED: USER    NEWDPF tran0 0.354415 17.060986 13.088951
DOCKED: USER    NEWDPF quaternion0 0.026485 -0.758393 0.541712 -0.361506
DOCKED: USER    NEWDPF axisangle0 0.028406 -0.813404 0.581006 -137.614612
DOCKED: USER    NEWDPF quat0 0.028406 -0.813404 0.581006 -137.614612
DOCKED: USER    NEWDPF dihe0 139.94 103.10 -44.60 81.75 23.55 56.70 -101.11 -20.83 42.35 81.40 -36.69 -133.15 163.93 -143.63 -52.59 19.28 -13.92 44.65 30.02 -38.24 -177.13 165.20 145.89 -20.03 
DOCKED: USER  keepresnum = 1 
DOCKED: USER  
DOCKED: REMARK  24 active torsions:
DOCKED: REMARK  status: ('A' for Active; 'I' for Inactive)
DOCKED: REMARK    1  A    between atoms: C_1  and  O_7 
DOCKED: REMARK    2  A    between atoms: C_2  and  O_12 
DOCKED: REMARK    3  A    between atoms: C_3  and  O_17 
DOCKED: REMARK    4  A    between atoms: C_4  and  O_22 
DOCKED: REMARK    5  A    between atoms: C_5  and  O_27 
DOCKED: REMARK    6  A    between atoms: C_6  and  O_32 
DOCKED: REMARK    7  A    between atoms: O_7  and  P_8 
DOCKED: REMARK    8  A    between atoms: P_8  and  O_10 
DOCKED: REMARK    9  A    between atoms: P_8  and  O_11 
DOCKED: REMARK   10  A    between atoms: O_12  and  P_13 
DOCKED: REMARK   11  A    between atoms: P_13  and  O_15 
DOCKED: REMARK   12  A    between atoms: P_13  and  O_16 
DOCKED: REMARK   13  A    between atoms: O_17  and  P_18 
DOCKED: REMARK   14  A    between atoms: P_18  and  O_20 
DOCKED: REMARK   15  A    between atoms: P_18  and  O_21 
DOCKED: REMARK   16  A    between atoms: O_22  and  P_23 
DOCKED: REMARK   17  A    between atoms: P_23  and  O_25 
DOCKED: REMARK   18  A    between atoms: P_23  and  O_26 
DOCKED: REMARK   19  A    between atoms: O_27  and  P_28 
DOCKED: REMARK   20  A    between atoms: P_28  and  O_30 
DOCKED: REMARK   21  A    between atoms: P_28  and  O_31 
DOCKED: REMARK   22  A    between atoms: O_32  and  P_33 
DOCKED: REMARK   23  A    between atoms: P_33  and  O_35 
DOCKED: REMARK   24  A    between atoms: P_33  and  O_36 
DOCKED: USER                              x       y       z     vdW  Elec       q    Type
DOCKED: USER                           _______ _______ _______ _____ _____    ______ ____
DOCKED: ROOT
DOCKED: ATOM      1  C   UNL d   1      -0.597  16.471  14.405 -0.19 -0.06    +0.194 C 
DOCKED: ATOM      2  C   UNL d   1       0.862  16.011  14.386 -0.19 -0.04    +0.194 C 
DOCKED: ATOM      3  C   UNL d   1       1.312  15.611  12.979 -0.26 -0.07    +0.194 C 
DOCKED: ATOM      4  C   UNL d   1       1.031  16.684  11.930 -0.18 -0.07    +0.194 C 
DOCKED: ATOM      5  C   UNL d   1      -0.381  17.254  11.987 -0.11 -0.07    +0.194 C 
DOCKED: ATOM      6  C   UNL d   1      -0.853  17.596  13.402 -0.09 -0.05    +0.194 C 
DOCKED: ENDROOT
DOCKED: BRANCH   1   7
DOCKED: ATOM      7  O   UNL d   1      -0.885  16.986  15.706 -0.08 +0.08    -0.278 OA
DOCKED: BRANCH   7   8
DOCKED: ATOM      8  P   UNL d   1      -1.494  15.992  16.799 -0.22 -0.23    +0.473 P 
DOCKED: ATOM      9  O   UNL d   1      -2.485  16.603  17.726 -0.12 +0.14    -0.228 OA
DOCKED: BRANCH   8  10
DOCKED: ATOM     10  O   UNL d   1      -2.097  14.793  15.937 -0.38 +0.30    -0.303 OA
DOCKED: ATOM     11  H   UNL d   1      -2.208  15.079  15.011 -0.16 -0.20    +0.222 HD
DOCKED: ENDBRANCH   8  10
DOCKED: BRANCH   8  12
DOCKED: ATOM     12  O   UNL d   1      -0.234  15.308  17.483 -0.50 +0.02    -0.303 OA
DOCKED: ATOM     13  H   UNL d   1       0.386  15.958  17.886 +0.04 -0.01    +0.222 HD
DOCKED: ENDBRANCH   8  12
DOCKED: ENDBRANCH   7   8
DOCKED: ENDBRANCH   1   7
DOCKED: BRANCH   2  14
DOCKED: ATOM     14  O   UNL d   1       1.695  17.084  14.844 -0.06 +0.03    -0.278 OA
DOCKED: BRANCH  14  15
DOCKED: ATOM     15  P   UNL d   1       2.048  17.099  16.406 -0.05 -0.03    +0.473 P 
DOCKED: ATOM     16  O   UNL d   1       1.086  17.812  17.305 -0.03 +0.02    -0.228 OA
DOCKED: BRANCH  15  17
DOCKED: ATOM     17  O   UNL d   1       2.218  15.560  16.780 -0.46 -0.03    -0.303 OA
DOCKED: ATOM     18  H   UNL d   1       1.830  15.366  17.655 +0.04 +0.03    +0.222 HD
DOCKED: ENDBRANCH  15  17
DOCKED: BRANCH  15  19
DOCKED: ATOM     19  O   UNL d   1       3.552  17.611  16.468 -0.01 +0.01    -0.303 OA
DOCKED: ATOM     20  H   UNL d   1       3.797  18.109  15.666 +0.02 -0.01    +0.222 HD
DOCKED: ENDBRANCH  15  19
DOCKED: ENDBRANCH  14  15
DOCKED: ENDBRANCH   2  14
DOCKED: BRANCH   6  21
DOCKED: ATOM     21  O   UNL d   1      -2.265  17.780  13.331 -0.03 +0.08    -0.278 OA
DOCKED: BRANCH  21  22
DOCKED: ATOM     22  P   UNL d   1      -3.230  16.509  13.328 -0.11 -0.20    +0.473 P 
DOCKED: ATOM     23  O   UNL d   1      -2.667  15.198  12.893 -0.32 +0.11    -0.228 OA
DOCKED: BRANCH  22  24
DOCKED: ATOM     24  O   UNL d   1      -3.802  16.531  14.813 -0.10 +0.23    -0.303 OA
DOCKED: ATOM     25  H   UNL d   1      -3.052  16.734  15.429 +0.06 -0.14    +0.222 HD
DOCKED: ENDBRANCH  22  24
DOCKED: BRANCH  22  26
DOCKED: ATOM     26  O   UNL d   1      -4.480  17.052  12.484 -0.03 +0.07    -0.303 OA
DOCKED: ATOM     27  H   UNL d   1      -5.277  17.051  13.052 +0.05 -0.06    +0.222 HD
DOCKED: ENDBRANCH  22  26
DOCKED: ENDBRANCH  21  22
DOCKED: ENDBRANCH   6  21
DOCKED: BRANCH   3  28
DOCKED: ATOM     28  O   UNL d   1       2.727  15.471  13.005 -0.22 +0.08    -0.278 OA
DOCKED: BRANCH  28  29
DOCKED: ATOM     29  P   UNL d   1       3.665  16.745  12.825 -0.06 -0.09    +0.473 P 
DOCKED: ATOM     30  O   UNL d   1       2.968  18.011  12.480 -0.03 +0.04    -0.228 OA
DOCKED: BRANCH  29  31
DOCKED: ATOM     31  O   UNL d   1       4.458  16.707  14.214 -0.02 +0.03    -0.303 OA
DOCKED: ATOM     32  H   UNL d   1       3.805  16.614  14.946 +0.04 -0.02    +0.222 HD
DOCKED: ENDBRANCH  29  31
DOCKED: BRANCH  29  33
DOCKED: ATOM     33  O   UNL d   1       4.750  16.216  11.786 -0.08 +0.07    -0.303 OA
DOCKED: ATOM     34  H   UNL d   1       4.303  15.638  11.121 -0.34 -0.10    +0.222 HD
DOCKED: ENDBRANCH  29  33
DOCKED: ENDBRANCH  28  29
DOCKED: ENDBRANCH   3  28
DOCKED: BRANCH   5  35
DOCKED: ATOM     35  O   UNL d   1      -0.335  18.475  11.252 -0.04 +0.06    -0.278 OA
DOCKED: BRANCH  35  36
DOCKED: ATOM     36  P   UNL d   1       0.161  19.819  11.955 +0.01 -0.07    +0.473 P 
DOCKED: ATOM     37  O   UNL d   1       1.173  19.642  13.042 -0.01 +0.03    -0.228 OA
DOCKED: BRANCH  36  38
DOCKED: ATOM     38  O   UNL d   1       0.679  20.665  10.709 -0.00 +0.04    -0.303 OA
DOCKED: ATOM     39  H   UNL d   1       0.972  20.051  10.003 +0.01 -0.03    +0.222 HD
DOCKED: ENDBRANCH  36  38
DOCKED: BRANCH  36  40
DOCKED: ATOM     40  O   UNL d   1      -1.210  20.521  12.351 -0.00 +0.04    -0.303 OA
DOCKED: ATOM     41  H   UNL d   1      -1.870  19.872  12.680 +0.01 -0.03    +0.222 HD
DOCKED: ENDBRANCH  36  40
DOCKED: ENDBRANCH  35  36
DOCKED: ENDBRANCH   5  35
DOCKED: BRANCH   4  42
DOCKED: ATOM     42  O   UNL d   1       1.182  16.062  10.649 -0.13 +0.16    -0.278 OA
DOCKED: BRANCH  42  43
DOCKED: ATOM     43  P   UNL d   1       2.076  16.783   9.542 -0.11 -0.18    +0.473 P 
DOCKED: ATOM     44  O   UNL d   1       3.525  16.440   9.500 -0.14 +0.09    -0.228 OA
DOCKED: BRANCH  43  45
DOCKED: ATOM     45  O   UNL d   1       1.292  16.460   8.196 -0.25 +0.13    -0.303 OA
DOCKED: ATOM     46  H   UNL d   1       1.785  15.827   7.637 +0.06 -0.11    +0.222 HD
DOCKED: ENDBRANCH  43  45
DOCKED: BRANCH  43  47
DOCKED: ATOM     47  O   UNL d   1       1.739  18.335   9.752 -0.03 +0.07    -0.303 OA
DOCKED: ATOM     48  H   UNL d   1       1.766  18.545  10.709 +0.04 -0.05    +0.222 HD
DOCKED: ENDBRANCH  43  47
DOCKED: ENDBRANCH  42  43
DOCKED: ENDBRANCH   4  42
DOCKED: TORSDOF 24
DOCKED: TER
DOCKED: ENDMDL
________________________________________________________________________________


	BEGINNING GENETIC ALGORITHM DOCKING 58 of 100
Run: 58 Seed: 827290398 491038718 [ Run 58 of 100 GA/GALS ]
Beginning LAMARCKIAN GENETIC ALGORITHM (LGA), with a maximum of 25000000 energy evaluations.

Final-Value: -18.943


	FINAL GENETIC ALGORITHM DOCKED STATE
	_______________________________________________


Detailed state:  trans -9.341 -6.076 -14.810 quatxyzw 0.138660 0.189550 0.792251 -0.563190 center 0.035 0.082 -0.065 ntor 24 -118.2942 20.7533 42.4977 9.9426 47.2649 169.1309 -116.8862 -51.4344 150.3139 15.6063 174.6322 -108.4603 180.0000 166.1085 131.0177 48.4609 169.3810 80.9123 60.7360 8.6063 -15.2366 0.6556 179.1504 24.7557
State:	 -9.341  -6.076 -14.810   0.168  0.229  0.959 -111.447   -118.29   20.75   42.50    9.94   47.26  169.13 -116.89  -51.43  150.31   15.61  174.63 -108.46  180.00  166.11  131.02   48.46  169.38   80.91   60.74    8.61  -15.24    0.66  179.15   24.76

DOCKED: MODEL       58
DOCKED: USER    Run = 58
DOCKED: USER    DPF = D:/Protein_go_brrr/autodock/final/AncB/IHP/dock.dpf
DOCKED: USER  
DOCKED: USER    Estimated Free Energy of Binding    =   +3.33 kcal/mol  [=(1)+(2)+(3)-(4)]
DOCKED: USER    
DOCKED: USER    (1) Final Intermolecular Energy     =   -3.83 kcal/mol
DOCKED: USER        vdW + Hbond + desolv Energy     =   -3.82 kcal/mol
DOCKED: USER        Electrostatic Energy            =   -0.01 kcal/mol
DOCKED: USER    (2) Final Total Internal Energy     =  -15.11 kcal/mol
DOCKED: USER    (3) Torsional Free Energy           =   +7.16 kcal/mol
DOCKED: USER    (4) Unbound System's Energy  [=(2)] =  -15.11 kcal/mol
DOCKED: USER    
DOCKED: USER    
DOCKED: USER    NEWDPF move IHP_ideal_opt.pdbqt
DOCKED: USER    NEWDPF about 0.035000 0.082000 -0.065000
DOCKED: USER    NEWDPF tran0 -9.340856 -6.075867 -14.810110
DOCKED: USER    NEWDPF quaternion0 0.138660 0.189550 0.792251 -0.563190
DOCKED: USER    NEWDPF axisangle0 0.167803 0.229389 0.958761 -111.446671
DOCKED: USER    NEWDPF quat0 0.167803 0.229389 0.958761 -111.446671
DOCKED: USER    NEWDPF dihe0 -118.29 20.75 42.50 9.94 47.26 169.13 -116.89 -51.43 150.31 15.61 174.63 -108.46 180.00 166.11 131.02 48.46 169.38 80.91 60.74 8.61 -15.24 0.66 179.15 24.76 
DOCKED: USER  keepresnum = 1 
DOCKED: USER  
DOCKED: REMARK  24 active torsions:
DOCKED: REMARK  status: ('A' for Active; 'I' for Inactive)
DOCKED: REMARK    1  A    between atoms: C_1  and  O_7 
DOCKED: REMARK    2  A    between atoms: C_2  and  O_12 
DOCKED: REMARK    3  A    between atoms: C_3  and  O_17 
DOCKED: REMARK    4  A    between atoms: C_4  and  O_22 
DOCKED: REMARK    5  A    between atoms: C_5  and  O_27 
DOCKED: REMARK    6  A    between atoms: C_6  and  O_32 
DOCKED: REMARK    7  A    between atoms: O_7  and  P_8 
DOCKED: REMARK    8  A    between atoms: P_8  and  O_10 
DOCKED: REMARK    9  A    between atoms: P_8  and  O_11 
DOCKED: REMARK   10  A    between atoms: O_12  and  P_13 
DOCKED: REMARK   11  A    between atoms: P_13  and  O_15 
DOCKED: REMARK   12  A    between atoms: P_13  and  O_16 
DOCKED: REMARK   13  A    between atoms: O_17  and  P_18 
DOCKED: REMARK   14  A    between atoms: P_18  and  O_20 
DOCKED: REMARK   15  A    between atoms: P_18  and  O_21 
DOCKED: REMARK   16  A    between atoms: O_22  and  P_23 
DOCKED: REMARK   17  A    between atoms: P_23  and  O_25 
DOCKED: REMARK   18  A    between atoms: P_23  and  O_26 
DOCKED: REMARK   19  A    between atoms: O_27  and  P_28 
DOCKED: REMARK   20  A    between atoms: P_28  and  O_30 
DOCKED: REMARK   21  A    between atoms: P_28  and  O_31 
DOCKED: REMARK   22  A    between atoms: O_32  and  P_33 
DOCKED: REMARK   23  A    between atoms: P_33  and  O_35 
DOCKED: REMARK   24  A    between atoms: P_33  and  O_36 
DOCKED: USER                              x       y       z     vdW  Elec       q    Type
DOCKED: USER                           _______ _______ _______ _____ _____    ______ ____
DOCKED: ROOT
DOCKED: ATOM      1  C   UNL d   1      -8.662  -4.517 -14.504 -0.03 +0.12    +0.194 C 
DOCKED: ATOM      2  C   UNL d   1      -7.739  -5.513 -15.207 -0.06 +0.14    +0.194 C 
DOCKED: ATOM      3  C   UNL d   1      -7.828  -6.907 -14.582 -0.13 +0.12    +0.194 C 
DOCKED: ATOM      4  C   UNL d   1      -9.260  -7.426 -14.472 -0.12 +0.12    +0.194 C 
DOCKED: ATOM      5  C   UNL d   1     -10.240  -6.421 -13.881 -0.09 +0.15    +0.194 C 
DOCKED: ATOM      6  C   UNL d   1     -10.109  -5.012 -14.462 -0.04 +0.12    +0.194 C 
DOCKED: ENDROOT
DOCKED: BRANCH   1   7
DOCKED: ATOM      7  O   UNL d   1      -8.651  -3.296 -15.248 -0.01 -0.17    -0.278 OA
DOCKED: BRANCH   7   8
DOCKED: ATOM      8  P   UNL d   1      -7.267  -2.512 -15.399 -0.03 +0.44    +0.473 P 
DOCKED: ATOM      9  O   UNL d   1      -7.314  -1.072 -15.027 -0.03 -0.20    -0.228 OA
DOCKED: BRANCH   8  10
DOCKED: ATOM     10  O   UNL d   1      -6.245  -3.357 -14.511 -0.61 -0.51    -0.303 OA
DOCKED: ATOM     11  H   UNL d   1      -5.898  -4.103 -15.034 +0.04 +0.35    +0.222 HD
DOCKED: ENDBRANCH   8  10
DOCKED: BRANCH   8  12
DOCKED: ATOM     12  O   UNL d   1      -6.770  -2.832 -16.873 -0.02 -0.25    -0.303 OA
DOCKED: ATOM     13  H   UNL d   1      -7.135  -3.674 -17.229 +0.02 +0.16    +0.222 HD
DOCKED: ENDBRANCH   8  12
DOCKED: ENDBRANCH   7   8
DOCKED: ENDBRANCH   1   7
DOCKED: BRANCH   2  14
DOCKED: ATOM     14  O   UNL d   1      -8.116  -5.606 -16.587 -0.01 -0.19    -0.278 OA
DOCKED: BRANCH  14  15
DOCKED: ATOM     15  P   UNL d   1      -6.922  -5.705 -17.650 -0.03 +0.42    +0.473 P 
DOCKED: ATOM     16  O   UNL d   1      -7.071  -4.902 -18.904 -0.01 -0.15    -0.228 OA
DOCKED: BRANCH  15  17
DOCKED: ATOM     17  O   UNL d   1      -5.625  -5.308 -16.814 -0.10 -0.34    -0.303 OA
DOCKED: ATOM     18  H   UNL d   1      -5.746  -4.451 -16.362 +0.04 +0.26    +0.222 HD
DOCKED: ENDBRANCH  15  17
DOCKED: BRANCH  15  19
DOCKED: ATOM     19  O   UNL d   1      -6.703  -7.267 -17.857 -0.25 -0.44    -0.303 OA
DOCKED: ATOM     20  H   UNL d   1      -6.623  -7.735 -17.005 +0.04 +0.33    +0.222 HD
DOCKED: ENDBRANCH  15  19
DOCKED: ENDBRANCH  14  15
DOCKED: ENDBRANCH   2  14
DOCKED: BRANCH   6  21
DOCKED: ATOM     21  O   UNL d   1     -10.825  -4.138 -13.592 -0.02 -0.15    -0.278 OA
DOCKED: BRANCH  21  22
DOCKED: ATOM     22  P   UNL d   1     -12.087  -3.332 -14.142 +0.00 +0.22    +0.473 P 
DOCKED: ATOM     23  O   UNL d   1     -13.055  -2.778 -13.153 -0.00 -0.09    -0.228 OA
DOCKED: BRANCH  22  24
DOCKED: ATOM     24  O   UNL d   1     -11.396  -2.247 -15.080 +0.00 -0.12    -0.303 OA
DOCKED: ATOM     25  H   UNL d   1     -10.442  -2.179 -14.822 +0.01 +0.10    +0.222 HD
DOCKED: ENDBRANCH  22  24
DOCKED: BRANCH  22  26
DOCKED: ATOM     26  O   UNL d   1     -12.688  -4.361 -15.214 -0.01 -0.16    -0.303 OA
DOCKED: ATOM     27  H   UNL d   1     -12.091  -5.133 -15.290 +0.01 +0.14    +0.222 HD
DOCKED: ENDBRANCH  22  26
DOCKED: ENDBRANCH  21  22
DOCKED: ENDBRANCH   6  21
DOCKED: BRANCH   3  28
DOCKED: ATOM     28  O   UNL d   1      -7.166  -7.812 -15.457 -0.10 -0.20    -0.278 OA
DOCKED: BRANCH  28  29
DOCKED: ATOM     29  P   UNL d   1      -5.794  -8.493 -15.020 -0.21 +0.36    +0.473 P 
DOCKED: ATOM     30  O   UNL d   1      -5.546  -8.554 -13.557 -0.34 -0.07    -0.228 OA
DOCKED: BRANCH  29  31
DOCKED: ATOM     31  O   UNL d   1      -5.915  -9.887 -15.796 -0.22 -0.19    -0.303 OA
DOCKED: ATOM     32  H   UNL d   1      -6.670 -10.393 -15.416 +0.09 -0.01    +0.222 HD
DOCKED: ENDBRANCH  29  31
DOCKED: BRANCH  29  33
DOCKED: ATOM     33  O   UNL d   1      -4.731  -7.694 -15.897 -0.57 -0.52    -0.303 OA
DOCKED: ATOM     34  H   UNL d   1      -5.188  -6.945 -16.351 +0.06 +0.37    +0.222 HD
DOCKED: ENDBRANCH  29  33
DOCKED: ENDBRANCH  28  29
DOCKED: ENDBRANCH   3  28
DOCKED: BRANCH   5  35
DOCKED: ATOM     35  O   UNL d   1     -11.539  -6.898 -14.227 -0.32 -0.36    -0.278 OA
DOCKED: BRANCH  35  36
DOCKED: ATOM     36  P   UNL d   1     -11.876  -7.293 -15.735 -0.05 +0.44    +0.473 P 
DOCKED: ATOM     37  O   UNL d   1     -13.280  -7.022 -16.175 -0.10 -0.19    -0.228 OA
DOCKED: BRANCH  36  38
DOCKED: ATOM     38  O   UNL d   1     -10.769  -6.479 -16.540 -0.01 -0.17    -0.303 OA
DOCKED: ATOM     39  H   UNL d   1      -9.921  -6.972 -16.508 +0.03 +0.13    +0.222 HD
DOCKED: ENDBRANCH  36  38
DOCKED: BRANCH  36  40
DOCKED: ATOM     40  O   UNL d   1     -11.374  -8.800 -15.812 -0.12 -0.25    -0.303 OA
DOCKED: ATOM     41  H   UNL d   1     -10.663  -8.981 -15.158 +0.03 +0.18    +0.222 HD
DOCKED: ENDBRANCH  36  40
DOCKED: ENDBRANCH  35  36
DOCKED: ENDBRANCH   5  35
DOCKED: BRANCH   4  42
DOCKED: ATOM     42  O   UNL d   1      -9.226  -8.551 -13.588 -0.06 -0.17    -0.278 OA
DOCKED: BRANCH  42  43
DOCKED: ATOM     43  P   UNL d   1      -8.898  -9.993 -14.187 -0.14 +0.07    +0.473 P 
DOCKED: ATOM     44  O   UNL d   1      -7.791 -10.763 -13.554 -0.25 +0.18    -0.228 OA
DOCKED: BRANCH  43  45
DOCKED: ATOM     45  O   UNL d   1     -10.311 -10.722 -14.136 -0.13 -0.13    -0.303 OA
DOCKED: ATOM     46  H   UNL d   1     -10.737 -10.738 -15.016 +0.03 +0.11    +0.222 HD
DOCKED: ENDBRANCH  43  45
DOCKED: BRANCH  43  47
DOCKED: ATOM     47  O   UNL d   1      -8.734  -9.709 -15.756 -0.05 -0.09    -0.303 OA
DOCKED: ATOM     48  H   UNL d   1      -7.907  -9.207 -15.908 +0.07 +0.10    +0.222 HD
DOCKED: ENDBRANCH  43  47
DOCKED: ENDBRANCH  42  43
DOCKED: ENDBRANCH   4  42
DOCKED: TORSDOF 24
DOCKED: TER
DOCKED: ENDMDL
________________________________________________________________________________


	BEGINNING GENETIC ALGORITHM DOCKING 59 of 100
Run: 59 Seed: 92429698 79246189 [ Run 59 of 100 GA/GALS ]
Beginning LAMARCKIAN GENETIC ALGORITHM (LGA), with a maximum of 25000000 energy evaluations.

Final-Value: -16.037


	FINAL GENETIC ALGORITHM DOCKED STATE
	_______________________________________________


Detailed state:  trans -11.598 6.737 19.136 quatxyzw 0.478690 0.721785 -0.498191 -0.041091 center 0.035 0.082 -0.065 ntor 24 99.4315 93.7548 -173.5360 -30.0386 178.0460 94.7526 -141.2266 -61.2951 -156.3739 103.6280 12.2043 -91.5646 -50.0880 -180.0000 110.9545 -137.6872 -3.3074 -42.2376 61.0236 14.9759 -59.3212 -1.7746 -35.2214 -178.2866
State:	-11.598   6.737  19.136   0.479  0.722 -0.499 -175.290     99.43   93.75 -173.54  -30.04  178.05   94.75 -141.23  -61.30 -156.37  103.63   12.20  -91.56  -50.09 -180.00  110.95 -137.69   -3.31  -42.24   61.02   14.98  -59.32   -1.77  -35.22 -178.29

DOCKED: MODEL       59
DOCKED: USER    Run = 59
DOCKED: USER    DPF = D:/Protein_go_brrr/autodock/final/AncB/IHP/dock.dpf
DOCKED: USER  
DOCKED: USER    Estimated Free Energy of Binding    =   +4.15 kcal/mol  [=(1)+(2)+(3)-(4)]
DOCKED: USER    
DOCKED: USER    (1) Final Intermolecular Energy     =   -3.01 kcal/mol
DOCKED: USER        vdW + Hbond + desolv Energy     =   -2.90 kcal/mol
DOCKED: USER        Electrostatic Energy            =   -0.11 kcal/mol
DOCKED: USER    (2) Final Total Internal Energy     =  -13.02 kcal/mol
DOCKED: USER    (3) Torsional Free Energy           =   +7.16 kcal/mol
DOCKED: USER    (4) Unbound System's Energy  [=(2)] =  -13.02 kcal/mol
DOCKED: USER    
DOCKED: USER    
DOCKED: USER    NEWDPF move IHP_ideal_opt.pdbqt
DOCKED: USER    NEWDPF about 0.035000 0.082000 -0.065000
DOCKED: USER    NEWDPF tran0 -11.598271 6.737314 19.135639
DOCKED: USER    NEWDPF quaternion0 0.478690 0.721785 -0.498191 -0.041091
DOCKED: USER    NEWDPF axisangle0 0.479094 0.722395 -0.498612 -175.290028
DOCKED: USER    NEWDPF quat0 0.479094 0.722395 -0.498612 -175.290028
DOCKED: USER    NEWDPF dihe0 99.43 93.75 -173.54 -30.04 178.05 94.75 -141.23 -61.30 -156.37 103.63 12.20 -91.56 -50.09 -180.00 110.95 -137.69 -3.31 -42.24 61.02 14.98 -59.32 -1.77 -35.22 -178.29 
DOCKED: USER  keepresnum = 1 
DOCKED: USER  
DOCKED: REMARK  24 active torsions:
DOCKED: REMARK  status: ('A' for Active; 'I' for Inactive)
DOCKED: REMARK    1  A    between atoms: C_1  and  O_7 
DOCKED: REMARK    2  A    between atoms: C_2  and  O_12 
DOCKED: REMARK    3  A    between atoms: C_3  and  O_17 
DOCKED: REMARK    4  A    between atoms: C_4  and  O_22 
DOCKED: REMARK    5  A    between atoms: C_5  and  O_27 
DOCKED: REMARK    6  A    between atoms: C_6  and  O_32 
DOCKED: REMARK    7  A    between atoms: O_7  and  P_8 
DOCKED: REMARK    8  A    between atoms: P_8  and  O_10 
DOCKED: REMARK    9  A    between atoms: P_8  and  O_11 
DOCKED: REMARK   10  A    between atoms: O_12  and  P_13 
DOCKED: REMARK   11  A    between atoms: P_13  and  O_15 
DOCKED: REMARK   12  A    between atoms: P_13  and  O_16 
DOCKED: REMARK   13  A    between atoms: O_17  and  P_18 
DOCKED: REMARK   14  A    between atoms: P_18  and  O_20 
DOCKED: REMARK   15  A    between atoms: P_18  and  O_21 
DOCKED: REMARK   16  A    between atoms: O_22  and  P_23 
DOCKED: REMARK   17  A    between atoms: P_23  and  O_25 
DOCKED: REMARK   18  A    between atoms: P_23  and  O_26 
DOCKED: REMARK   19  A    between atoms: O_27  and  P_28 
DOCKED: REMARK   20  A    between atoms: P_28  and  O_30 
DOCKED: REMARK   21  A    between atoms: P_28  and  O_31 
DOCKED: REMARK   22  A    between atoms: O_32  and  P_33 
DOCKED: REMARK   23  A    between atoms: P_33  and  O_35 
DOCKED: REMARK   24  A    between atoms: P_33  and  O_36 
DOCKED: USER                              x       y       z     vdW  Elec       q    Type
DOCKED: USER                           _______ _______ _______ _____ _____    ______ ____
DOCKED: ROOT
DOCKED: ATOM      1  C   UNL d   1     -13.253   6.912  18.672 +0.05 -0.01    +0.194 C 
DOCKED: ATOM      2  C   UNL d   1     -13.016   6.344  20.072 -0.08 -0.02    +0.194 C 
DOCKED: ATOM      3  C   UNL d   1     -11.893   5.304  20.079 -0.09 -0.03    +0.194 C 
DOCKED: ATOM      4  C   UNL d   1     -10.604   5.807  19.434 -0.06 -0.02    +0.194 C 
DOCKED: ATOM      5  C   UNL d   1     -10.808   6.485  18.085 -0.10 -0.01    +0.194 C 
DOCKED: ATOM      6  C   UNL d   1     -11.971   7.479  18.062 -0.09 +0.00    +0.194 C 
DOCKED: ENDROOT
DOCKED: BRANCH   1   7
DOCKED: ATOM      7  O   UNL d   1     -14.187   7.989  18.780 -0.06 -0.01    -0.278 OA
DOCKED: BRANCH   7   8
DOCKED: ATOM      8  P   UNL d   1     -15.650   7.672  19.336 -0.01 +0.03    +0.473 P 
DOCKED: ATOM      9  O   UNL d   1     -15.883   6.255  19.728 -0.64 -0.02    -0.228 OA
DOCKED: BRANCH   8  10
DOCKED: ATOM     10  O   UNL d   1     -15.834   8.696  20.545 -0.01 -0.00    -0.303 OA
DOCKED: ATOM     11  H   UNL d   1     -15.130   8.554  21.205 +0.01 -0.00    +0.222 HD
DOCKED: ENDBRANCH   8  10
DOCKED: BRANCH   8  12
DOCKED: ATOM     12  O   UNL d   1     -16.644   8.263  18.246 -0.05 -0.02    -0.303 OA
DOCKED: ATOM     13  H   UNL d   1     -16.413   7.994  17.328 +0.01 +0.03    +0.222 HD
DOCKED: ENDBRANCH   8  12
DOCKED: ENDBRANCH   7   8
DOCKED: ENDBRANCH   1   7
DOCKED: BRANCH   2  14
DOCKED: ATOM     14  O   UNL d   1     -12.653   7.413  20.954 -0.01 +0.02    -0.278 OA
DOCKED: BRANCH  14  15
DOCKED: ATOM     15  P   UNL d   1     -13.142   7.284  22.474 +0.00 -0.03    +0.473 P 
DOCKED: ATOM     16  O   UNL d   1     -13.950   8.420  23.019 +0.00 +0.01    -0.228 OA
DOCKED: BRANCH  15  17
DOCKED: ATOM     17  O   UNL d   1     -13.921   5.896  22.514 -0.00 +0.03    -0.303 OA
DOCKED: ATOM     18  H   UNL d   1     -13.321   5.162  22.746 +0.02 -0.02    +0.222 HD
DOCKED: ENDBRANCH  15  17
DOCKED: BRANCH  15  19
DOCKED: ATOM     19  O   UNL d   1     -11.820   6.932  23.287 +0.00 +0.02    -0.303 OA
DOCKED: ATOM     20  H   UNL d   1     -11.677   5.969  23.342 +0.01 -0.02    +0.222 HD
DOCKED: ENDBRANCH  15  19
DOCKED: ENDBRANCH  14  15
DOCKED: ENDBRANCH   2  14
DOCKED: BRANCH   6  21
DOCKED: ATOM     21  O   UNL d   1     -12.248   7.758  16.691 -0.13 -0.02    -0.278 OA
DOCKED: BRANCH  21  22
DOCKED: ATOM     22  P   UNL d   1     -13.085   9.058  16.300 -0.06 +0.06    +0.473 P 
DOCKED: ATOM     23  O   UNL d   1     -12.677   9.821  15.085 -0.11 -0.07    -0.228 OA
DOCKED: BRANCH  22  24
DOCKED: ATOM     24  O   UNL d   1     -14.571   8.490  16.264 -0.27 -0.05    -0.303 OA
DOCKED: ATOM     25  H   UNL d   1     -15.074   8.892  17.018 +0.02 +0.02    +0.222 HD
DOCKED: ENDBRANCH  22  24
DOCKED: BRANCH  22  26
DOCKED: ATOM     26  O   UNL d   1     -13.077   9.877  17.679 -0.01 -0.03    -0.303 OA
DOCKED: ATOM     27  H   UNL d   1     -13.750   9.499  18.281 +0.02 +0.01    +0.222 HD
DOCKED: ENDBRANCH  22  26
DOCKED: ENDBRANCH  21  22
DOCKED: ENDBRANCH   6  21
DOCKED: BRANCH   3  28
DOCKED: ATOM     28  O   UNL d   1     -11.559   5.044  21.436 -0.02 +0.04    -0.278 OA
DOCKED: BRANCH  28  29
DOCKED: ATOM     29  P   UNL d   1     -11.944   3.652  22.107 -0.02 -0.08    +0.473 P 
DOCKED: ATOM     30  O   UNL d   1     -11.898   3.621  23.591 -0.01 +0.03    -0.228 OA
DOCKED: BRANCH  29  31
DOCKED: ATOM     31  O   UNL d   1     -13.366   3.395  21.419 -0.06 +0.07    -0.303 OA
DOCKED: ATOM     32  H   UNL d   1     -14.065   3.803  21.980 +0.03 -0.04    +0.222 HD
DOCKED: ENDBRANCH  29  31
DOCKED: BRANCH  29  33
DOCKED: ATOM     33  O   UNL d   1     -10.992   2.635  21.336 -0.07 +0.06    -0.303 OA
DOCKED: ATOM     34  H   UNL d   1     -10.474   3.132  20.657 +0.07 -0.04    +0.222 HD
DOCKED: ENDBRANCH  29  33
DOCKED: ENDBRANCH  28  29
DOCKED: ENDBRANCH   3  28
DOCKED: BRANCH   5  35
DOCKED: ATOM     35  O   UNL d   1      -9.616   7.228  17.840 -0.04 +0.01    -0.278 OA
DOCKED: BRANCH  35  36
DOCKED: ATOM     36  P   UNL d   1      -8.443   6.599  16.960 -0.03 -0.01    +0.473 P 
DOCKED: ATOM     37  O   UNL d   1      -8.882   5.842  15.747 -0.29 -0.01    -0.228 OA
DOCKED: BRANCH  36  38
DOCKED: ATOM     38  O   UNL d   1      -7.550   7.880  16.645 -0.12 +0.01    -0.303 OA
DOCKED: ATOM     39  H   UNL d   1      -6.607   7.661  16.805 +0.08 -0.04    +0.222 HD
DOCKED: ENDBRANCH  36  38
DOCKED: BRANCH  36  40
DOCKED: ATOM     40  O   UNL d   1      -7.596   5.800  18.043 -0.08 +0.05    -0.303 OA
DOCKED: ATOM     41  H   UNL d   1      -8.125   5.087  18.466 +0.10 -0.04    +0.222 HD
DOCKED: ENDBRANCH  36  40
DOCKED: ENDBRANCH  35  36
DOCKED: ENDBRANCH   5  35
DOCKED: BRANCH   4  42
DOCKED: ATOM     42  O   UNL d   1      -9.778   4.660  19.208 -0.06 +0.04    -0.278 OA
DOCKED: BRANCH  42  43
DOCKED: ATOM     43  P   UNL d   1     -10.200   3.618  18.076 -0.21 -0.06    +0.473 P 
DOCKED: ATOM     44  O   UNL d   1     -11.400   3.943  17.255 -0.37 +0.02    -0.228 OA
DOCKED: BRANCH  43  45
DOCKED: ATOM     45  O   UNL d   1      -8.859   3.457  17.233 -0.19 +0.03    -0.303 OA
DOCKED: ATOM     46  H   UNL d   1      -8.577   4.308  16.843 +0.14 -0.01    +0.222 HD
DOCKED: ENDBRANCH  43  45
DOCKED: BRANCH  43  47
DOCKED: ATOM     47  O   UNL d   1     -10.258   2.223  18.864 -0.21 +0.05    -0.303 OA
DOCKED: ATOM     48  H   UNL d   1     -11.150   2.110  19.254 +0.09 -0.03    +0.222 HD
DOCKED: ENDBRANCH  43  47
DOCKED: ENDBRANCH  42  43
DOCKED: ENDBRANCH   4  42
DOCKED: TORSDOF 24
DOCKED: TER
DOCKED: ENDMDL
________________________________________________________________________________


	BEGINNING GENETIC ALGORITHM DOCKING 60 of 100
Run: 60 Seed: 767686981 924969470 [ Run 60 of 100 GA/GALS ]
Beginning LAMARCKIAN GENETIC ALGORITHM (LGA), with a maximum of 25000000 energy evaluations.

Final-Value: -18.215


	FINAL GENETIC ALGORITHM DOCKED STATE
	_______________________________________________


Detailed state:  trans 7.786 -3.958 -18.578 quatxyzw -0.578544 0.001170 -0.733820 0.356080 center 0.035 0.082 -0.065 ntor 24 122.4176 63.3877 153.2579 139.6494 -30.3088 51.5299 -13.5080 -6.8454 29.3116 51.4967 83.4500 -146.4648 -85.4343 86.7672 -80.7548 23.6480 -39.1390 153.9050 -145.3148 -16.1157 20.6288 -38.9601 173.6308 9.9068
State:	  7.786  -3.958 -18.578  -0.619  0.001 -0.785 138.281    122.42   63.39  153.26  139.65  -30.31   51.53  -13.51   -6.85   29.31   51.50   83.45 -146.46  -85.43   86.77  -80.75   23.65  -39.14  153.90 -145.31  -16.12   20.63  -38.96  173.63    9.91

DOCKED: MODEL       60
DOCKED: USER    Run = 60
DOCKED: USER    DPF = D:/Protein_go_brrr/autodock/final/AncB/IHP/dock.dpf
DOCKED: USER  
DOCKED: USER    Estimated Free Energy of Binding    =   +2.54 kcal/mol  [=(1)+(2)+(3)-(4)]
DOCKED: USER    
DOCKED: USER    (1) Final Intermolecular Energy     =   -4.62 kcal/mol
DOCKED: USER        vdW + Hbond + desolv Energy     =   -4.43 kcal/mol
DOCKED: USER        Electrostatic Energy            =   -0.19 kcal/mol
DOCKED: USER    (2) Final Total Internal Energy     =  -13.59 kcal/mol
DOCKED: USER    (3) Torsional Free Energy           =   +7.16 kcal/mol
DOCKED: USER    (4) Unbound System's Energy  [=(2)] =  -13.59 kcal/mol
DOCKED: USER    
DOCKED: USER    
DOCKED: USER    NEWDPF move IHP_ideal_opt.pdbqt
DOCKED: USER    NEWDPF about 0.035000 0.082000 -0.065000
DOCKED: USER    NEWDPF tran0 7.785978 -3.957760 -18.577953
DOCKED: USER    NEWDPF quaternion0 -0.578544 0.001170 -0.733820 0.356080
DOCKED: USER    NEWDPF axisangle0 -0.619125 0.001252 -0.785292 138.280643
DOCKED: USER    NEWDPF quat0 -0.619125 0.001252 -0.785292 138.280643
DOCKED: USER    NEWDPF dihe0 122.42 63.39 153.26 139.65 -30.31 51.53 -13.51 -6.85 29.31 51.50 83.45 -146.46 -85.43 86.77 -80.75 23.65 -39.14 153.90 -145.31 -16.12 20.63 -38.96 173.63 9.91 
DOCKED: USER  keepresnum = 1 
DOCKED: USER  
DOCKED: REMARK  24 active torsions:
DOCKED: REMARK  status: ('A' for Active; 'I' for Inactive)
DOCKED: REMARK    1  A    between atoms: C_1  and  O_7 
DOCKED: REMARK    2  A    between atoms: C_2  and  O_12 
DOCKED: REMARK    3  A    between atoms: C_3  and  O_17 
DOCKED: REMARK    4  A    between atoms: C_4  and  O_22 
DOCKED: REMARK    5  A    between atoms: C_5  and  O_27 
DOCKED: REMARK    6  A    between atoms: C_6  and  O_32 
DOCKED: REMARK    7  A    between atoms: O_7  and  P_8 
DOCKED: REMARK    8  A    between atoms: P_8  and  O_10 
DOCKED: REMARK    9  A    between atoms: P_8  and  O_11 
DOCKED: REMARK   10  A    between atoms: O_12  and  P_13 
DOCKED: REMARK   11  A    between atoms: P_13  and  O_15 
DOCKED: REMARK   12  A    between atoms: P_13  and  O_16 
DOCKED: REMARK   13  A    between atoms: O_17  and  P_18 
DOCKED: REMARK   14  A    between atoms: P_18  and  O_20 
DOCKED: REMARK   15  A    between atoms: P_18  and  O_21 
DOCKED: REMARK   16  A    between atoms: O_22  and  P_23 
DOCKED: REMARK   17  A    between atoms: P_23  and  O_25 
DOCKED: REMARK   18  A    between atoms: P_23  and  O_26 
DOCKED: REMARK   19  A    between atoms: O_27  and  P_28 
DOCKED: REMARK   20  A    between atoms: P_28  and  O_30 
DOCKED: REMARK   21  A    between atoms: P_28  and  O_31 
DOCKED: REMARK   22  A    between atoms: O_32  and  P_33 
DOCKED: REMARK   23  A    between atoms: P_33  and  O_35 
DOCKED: REMARK   24  A    between atoms: P_33  and  O_36 
DOCKED: USER                              x       y       z     vdW  Elec       q    Type
DOCKED: USER                           _______ _______ _______ _____ _____    ______ ____
DOCKED: ROOT
DOCKED: ATOM      1  C   UNL d   1       8.826  -2.969 -17.616 -0.09 +0.03    +0.194 C 
DOCKED: ATOM      2  C   UNL d   1       9.030  -2.867 -19.128 -0.04 +0.04    +0.194 C 
DOCKED: ATOM      3  C   UNL d   1       8.994  -4.242 -19.799 -0.00 +0.03    +0.194 C 
DOCKED: ATOM      4  C   UNL d   1       7.753  -5.054 -19.438 -0.00 +0.03    +0.194 C 
DOCKED: ATOM      5  C   UNL d   1       7.445  -5.088 -17.947 -0.04 +0.02    +0.194 C 
DOCKED: ATOM      6  C   UNL d   1       7.542  -3.722 -17.263 -0.06 +0.03    +0.194 C 
DOCKED: ENDROOT
DOCKED: BRANCH   1   7
DOCKED: ATOM      7  O   UNL d   1       8.701  -1.645 -17.092 -0.15 -0.04    -0.278 OA
DOCKED: BRANCH   7   8
DOCKED: ATOM      8  P   UNL d   1       7.238  -1.017 -16.957 -0.20 +0.08    +0.473 P 
DOCKED: ATOM      9  O   UNL d   1       6.274  -1.431 -18.013 -0.07 -0.05    -0.228 OA
DOCKED: BRANCH   8  10
DOCKED: ATOM     10  O   UNL d   1       6.774  -1.428 -15.487 +0.07 +0.01    -0.303 OA
DOCKED: ATOM     11  H   UNL d   1       7.121  -2.314 -15.271 -0.00 +0.01    +0.222 HD
DOCKED: ENDBRANCH   8  10
DOCKED: BRANCH   8  12
DOCKED: ATOM     12  O   UNL d   1       7.472   0.547 -16.807 -0.89 -0.10    -0.303 OA
DOCKED: ATOM     13  H   UNL d   1       8.365   0.834 -17.104 -0.48 +0.03    +0.222 HD
DOCKED: ENDBRANCH   8  12
DOCKED: ENDBRANCH   7   8
DOCKED: ENDBRANCH   1   7
DOCKED: BRANCH   2  14
DOCKED: ATOM     14  O   UNL d   1       7.987  -2.058 -19.687 -0.02 -0.06    -0.278 OA
DOCKED: BRANCH  14  15
DOCKED: ATOM     15  P   UNL d   1       8.435  -0.675 -20.358 -0.05 +0.11    +0.473 P 
DOCKED: ATOM     16  O   UNL d   1       7.706  -0.263 -21.598 -0.02 -0.05    -0.228 OA
DOCKED: BRANCH  15  17
DOCKED: ATOM     17  O   UNL d   1       8.299   0.389 -19.180 -0.17 -0.07    -0.303 OA
DOCKED: ATOM     18  H   UNL d   1       8.845   0.134 -18.411 -0.35 -0.02    +0.222 HD
DOCKED: ENDBRANCH  15  17
DOCKED: BRANCH  15  19
DOCKED: ATOM     19  O   UNL d   1      10.015  -0.796 -20.498 -0.05 -0.07    -0.303 OA
DOCKED: ATOM     20  H   UNL d   1      10.268  -1.328 -21.275 +0.02 +0.05    +0.222 HD
DOCKED: ENDBRANCH  15  19
DOCKED: ENDBRANCH  14  15
DOCKED: ENDBRANCH   2  14
DOCKED: BRANCH   6  21
DOCKED: ATOM     21  O   UNL d   1       7.572  -3.965 -15.859 -0.13 -0.03    -0.278 OA
DOCKED: BRANCH  21  22
DOCKED: ATOM     22  P   UNL d   1       6.209  -4.219 -15.070 -0.24 +0.05    +0.473 P 
DOCKED: ATOM     23  O   UNL d   1       5.093  -3.247 -15.259 -0.23 -0.04    -0.228 OA
DOCKED: BRANCH  22  24
DOCKED: ATOM     24  O   UNL d   1       5.867  -5.717 -15.487 -0.28 -0.00    -0.303 OA
DOCKED: ATOM     25  H   UNL d   1       5.229  -5.688 -16.245 +0.01 +0.00    +0.222 HD
DOCKED: ENDBRANCH  22  24
DOCKED: BRANCH  22  26
DOCKED: ATOM     26  O   UNL d   1       6.732  -4.405 -13.566 -0.36 -0.02    -0.303 OA
DOCKED: ATOM     27  H   UNL d   1       6.443  -5.278 -13.231 -0.44 -0.07    +0.222 HD
DOCKED: ENDBRANCH  22  26
DOCKED: ENDBRANCH  21  22
DOCKED: ENDBRANCH   6  21
DOCKED: BRANCH   3  28
DOCKED: ATOM     28  O   UNL d   1       8.911  -4.031 -21.203 +0.00 -0.04    -0.278 OA
DOCKED: BRANCH  28  29
DOCKED: ATOM     29  P   UNL d   1      10.170  -3.482 -22.009 +0.00 +0.07    +0.473 P 
DOCKED: ATOM     30  O   UNL d   1      11.369  -3.170 -21.190 -0.00 -0.04    -0.228 OA
DOCKED: BRANCH  29  31
DOCKED: ATOM     31  O   UNL d   1      10.322  -4.635 -23.109 +0.00 -0.04    -0.303 OA
DOCKED: ATOM     32  H   UNL d   1       9.422  -4.922 -23.389 +0.00 +0.03    +0.222 HD
DOCKED: ENDBRANCH  29  31
DOCKED: BRANCH  29  33
DOCKED: ATOM     33  O   UNL d   1       9.536  -2.282 -22.843 +0.00 -0.05    -0.303 OA
DOCKED: ATOM     34  H   UNL d   1       9.048  -1.685 -22.224 +0.01 +0.04    +0.222 HD
DOCKED: ENDBRANCH  29  33
DOCKED: ENDBRANCH  28  29
DOCKED: ENDBRANCH   3  28
DOCKED: BRANCH   5  35
DOCKED: ATOM     35  O   UNL d   1       6.089  -5.515 -17.840 -0.07 -0.02    -0.278 OA
DOCKED: BRANCH  35  36
DOCKED: ATOM     36  P   UNL d   1       4.933  -4.719 -18.599 -0.04 +0.07    +0.473 P 
DOCKED: ATOM     37  O   UNL d   1       5.392  -3.612 -19.494 -0.01 -0.04    -0.228 OA
DOCKED: BRANCH  36  38
DOCKED: ATOM     38  O   UNL d   1       4.168  -5.895 -19.353 -0.06 -0.03    -0.303 OA
DOCKED: ATOM     39  H   UNL d   1       4.827  -6.528 -19.712 +0.04 +0.02    +0.222 HD
DOCKED: ENDBRANCH  36  38
DOCKED: BRANCH  36  40
DOCKED: ATOM     40  O   UNL d   1       3.953  -4.326 -17.410 -0.12 -0.05    -0.303 OA
DOCKED: ATOM     41  H   UNL d   1       4.353  -4.513 -16.531 +0.07 +0.03    +0.222 HD
DOCKED: ENDBRANCH  36  40
DOCKED: ENDBRANCH  35  36
DOCKED: ENDBRANCH   5  35
DOCKED: BRANCH   4  42
DOCKED: ATOM     42  O   UNL d   1       8.007  -6.403 -19.846 -0.00 -0.03    -0.278 OA
DOCKED: BRANCH  42  43
DOCKED: ATOM     43  P   UNL d   1       7.363  -6.932 -21.206 +0.00 +0.06    +0.473 P 
DOCKED: ATOM     44  O   UNL d   1       7.257  -8.406 -21.387 -0.01 -0.03    -0.228 OA
DOCKED: BRANCH  43  45
DOCKED: ATOM     45  O   UNL d   1       5.968  -6.168 -21.252 -0.00 -0.04    -0.303 OA
DOCKED: ATOM     46  H   UNL d   1       5.919  -5.471 -20.567 +0.01 +0.03    +0.222 HD
DOCKED: ENDBRANCH  43  45
DOCKED: BRANCH  43  47
DOCKED: ATOM     47  O   UNL d   1       8.198  -6.155 -22.333 +0.00 -0.04    -0.303 OA
DOCKED: ATOM     48  H   UNL d   1       9.114  -6.015 -22.017 +0.00 +0.03    +0.222 HD
DOCKED: ENDBRANCH  43  47
DOCKED: ENDBRANCH  42  43
DOCKED: ENDBRANCH   4  42
DOCKED: TORSDOF 24
DOCKED: TER
DOCKED: ENDMDL
________________________________________________________________________________


	BEGINNING GENETIC ALGORITHM DOCKING 61 of 100
Run: 61 Seed: 1168859847 785418204 [ Run 61 of 100 GA/GALS ]
Beginning LAMARCKIAN GENETIC ALGORITHM (LGA), with a maximum of 25000000 energy evaluations.

Final-Value: -17.862


	FINAL GENETIC ALGORITHM DOCKED STATE
	_______________________________________________


Detailed state:  trans -3.760 -9.660 14.731 quatxyzw -0.000366 0.934131 0.172846 0.312288 center 0.035 0.082 -0.065 ntor 24 80.9131 86.9777 -180.0000 -60.9827 82.0240 -109.4823 -30.0159 -133.6022 32.7360 59.9871 4.0846 -158.0294 152.9256 -155.4571 -6.5067 139.5682 130.9658 -71.1202 32.0329 -23.4762 -57.5693 -37.4902 -20.1330 18.6127
State:	 -3.760  -9.660  14.731  -0.000  0.983  0.182 143.606     80.91   86.98 -180.00  -60.98   82.02 -109.48  -30.02 -133.60   32.74   59.99    4.08 -158.03  152.93 -155.46   -6.51  139.57  130.97  -71.12   32.03  -23.48  -57.57  -37.49  -20.13   18.61

DOCKED: MODEL       61
DOCKED: USER    Run = 61
DOCKED: USER    DPF = D:/Protein_go_brrr/autodock/final/AncB/IHP/dock.dpf
DOCKED: USER  
DOCKED: USER    Estimated Free Energy of Binding    =   +2.08 kcal/mol  [=(1)+(2)+(3)-(4)]
DOCKED: USER    
DOCKED: USER    (1) Final Intermolecular Energy     =   -5.08 kcal/mol
DOCKED: USER        vdW + Hbond + desolv Energy     =   -5.02 kcal/mol
DOCKED: USER        Electrostatic Energy            =   -0.05 kcal/mol
DOCKED: USER    (2) Final Total Internal Energy     =  -12.79 kcal/mol
DOCKED: USER    (3) Torsional Free Energy           =   +7.16 kcal/mol
DOCKED: USER    (4) Unbound System's Energy  [=(2)] =  -12.79 kcal/mol
DOCKED: USER    
DOCKED: USER    
DOCKED: USER    NEWDPF move IHP_ideal_opt.pdbqt
DOCKED: USER    NEWDPF about 0.035000 0.082000 -0.065000
DOCKED: USER    NEWDPF tran0 -3.759501 -9.660100 14.730719
DOCKED: USER    NEWDPF quaternion0 -0.000366 0.934131 0.172846 0.312288
DOCKED: USER    NEWDPF axisangle0 -0.000386 0.983309 0.181945 143.605711
DOCKED: USER    NEWDPF quat0 -0.000386 0.983309 0.181945 143.605711
DOCKED: USER    NEWDPF dihe0 80.91 86.98 -180.00 -60.98 82.02 -109.48 -30.02 -133.60 32.74 59.99 4.08 -158.03 152.93 -155.46 -6.51 139.57 130.97 -71.12 32.03 -23.48 -57.57 -37.49 -20.13 18.61 
DOCKED: USER  keepresnum = 1 
DOCKED: USER  
DOCKED: REMARK  24 active torsions:
DOCKED: REMARK  status: ('A' for Active; 'I' for Inactive)
DOCKED: REMARK    1  A    between atoms: C_1  and  O_7 
DOCKED: REMARK    2  A    between atoms: C_2  and  O_12 
DOCKED: REMARK    3  A    between atoms: C_3  and  O_17 
DOCKED: REMARK    4  A    between atoms: C_4  and  O_22 
DOCKED: REMARK    5  A    between atoms: C_5  and  O_27 
DOCKED: REMARK    6  A    between atoms: C_6  and  O_32 
DOCKED: REMARK    7  A    between atoms: O_7  and  P_8 
DOCKED: REMARK    8  A    between atoms: P_8  and  O_10 
DOCKED: REMARK    9  A    between atoms: P_8  and  O_11 
DOCKED: REMARK   10  A    between atoms: O_12  and  P_13 
DOCKED: REMARK   11  A    between atoms: P_13  and  O_15 
DOCKED: REMARK   12  A    between atoms: P_13  and  O_16 
DOCKED: REMARK   13  A    between atoms: O_17  and  P_18 
DOCKED: REMARK   14  A    between atoms: P_18  and  O_20 
DOCKED: REMARK   15  A    between atoms: P_18  and  O_21 
DOCKED: REMARK   16  A    between atoms: O_22  and  P_23 
DOCKED: REMARK   17  A    between atoms: P_23  and  O_25 
DOCKED: REMARK   18  A    between atoms: P_23  and  O_26 
DOCKED: REMARK   19  A    between atoms: O_27  and  P_28 
DOCKED: REMARK   20  A    between atoms: P_28  and  O_30 
DOCKED: REMARK   21  A    between atoms: P_28  and  O_31 
DOCKED: REMARK   22  A    between atoms: O_32  and  P_33 
DOCKED: REMARK   23  A    between atoms: P_33  and  O_35 
DOCKED: REMARK   24  A    between atoms: P_33  and  O_36 
DOCKED: USER                              x       y       z     vdW  Elec       q    Type
DOCKED: USER                           _______ _______ _______ _____ _____    ______ ____
DOCKED: ROOT
DOCKED: ATOM      1  C   UNL d   1      -5.325 -10.376  14.585 -0.10 +0.12    +0.194 C 
DOCKED: ATOM      2  C   UNL d   1      -4.191 -11.115  13.872 -0.09 +0.07    +0.194 C 
DOCKED: ATOM      3  C   UNL d   1      -3.260 -10.150  13.137 -0.12 +0.06    +0.194 C 
DOCKED: ATOM      4  C   UNL d   1      -2.744  -9.019  14.023 -0.13 +0.05    +0.194 C 
DOCKED: ATOM      5  C   UNL d   1      -3.827  -8.328  14.841 -0.01 +0.06    +0.194 C 
DOCKED: ATOM      6  C   UNL d   1      -4.796  -9.293  15.527 -0.13 +0.09    +0.194 C 
DOCKED: ENDROOT
DOCKED: BRANCH   1   7
DOCKED: ATOM      7  O   UNL d   1      -6.042 -11.321  15.383 -0.07 -0.12    -0.278 OA
DOCKED: BRANCH   7   8
DOCKED: ATOM      8  P   UNL d   1      -7.285 -12.080  14.726 -0.14 +0.23    +0.473 P 
DOCKED: ATOM      9  O   UNL d   1      -8.301 -12.579  15.693 -0.12 -0.08    -0.228 OA
DOCKED: BRANCH   8  10
DOCKED: ATOM     10  O   UNL d   1      -7.874 -11.027  13.683 -0.58 -0.27    -0.303 OA
DOCKED: ATOM     11  H   UNL d   1      -8.385 -10.345  14.159 -0.45 +0.27    +0.222 HD
DOCKED: ENDBRANCH   8  10
DOCKED: BRANCH   8  12
DOCKED: ATOM     12  O   UNL d   1      -6.643 -13.173  13.769 -0.07 -0.12    -0.303 OA
DOCKED: ATOM     13  H   UNL d   1      -5.868 -13.628  14.168 +0.05 +0.07    +0.222 HD
DOCKED: ENDBRANCH   8  12
DOCKED: ENDBRANCH   7   8
DOCKED: ENDBRANCH   1   7
DOCKED: BRANCH   2  14
DOCKED: ATOM     14  O   UNL d   1      -3.424 -11.840  14.842 -0.01 -0.06    -0.278 OA
DOCKED: BRANCH  14  15
DOCKED: ATOM     15  P   UNL d   1      -3.585 -13.434  14.836 +0.01 +0.09    +0.473 P 
DOCKED: ATOM     16  O   UNL d   1      -4.496 -14.021  15.867 -0.00 -0.04    -0.228 OA
DOCKED: BRANCH  15  17
DOCKED: ATOM     17  O   UNL d   1      -4.039 -13.771  13.346 -0.00 -0.08    -0.303 OA
DOCKED: ATOM     18  H   UNL d   1      -3.268 -13.844  12.752 +0.02 +0.05    +0.222 HD
DOCKED: ENDBRANCH  15  17
DOCKED: BRANCH  15  19
DOCKED: ATOM     19  O   UNL d   1      -2.092 -13.983  14.847 -0.00 -0.05    -0.303 OA
DOCKED: ATOM     20  H   UNL d   1      -1.907 -14.539  14.068 +0.00 +0.04    +0.222 HD
DOCKED: ENDBRANCH  15  19
DOCKED: ENDBRANCH  14  15
DOCKED: ENDBRANCH   2  14
DOCKED: BRANCH   6  21
DOCKED: ATOM     21  O   UNL d   1      -5.918  -8.521  15.948 -0.63 -0.24    -0.278 OA
DOCKED: BRANCH  21  22
DOCKED: ATOM     22  P   UNL d   1      -6.880  -9.080  17.092 -0.07 +0.16    +0.473 P 
DOCKED: ATOM     23  O   UNL d   1      -6.329 -10.085  18.047 -0.03 -0.03    -0.228 OA
DOCKED: BRANCH  22  24
DOCKED: ATOM     24  O   UNL d   1      -7.401  -7.735  17.765 -0.20 +0.07    -0.303 OA
DOCKED: ATOM     25  H   UNL d   1      -7.205  -6.985  17.147 -0.17 -0.21    +0.222 HD
DOCKED: ENDBRANCH  22  24
DOCKED: BRANCH  22  26
DOCKED: ATOM     26  O   UNL d   1      -8.159  -9.543  16.244 -0.23 -0.22    -0.303 OA
DOCKED: ATOM     27  H   UNL d   1      -7.958 -10.389  15.795 +0.07 +0.16    +0.222 HD
DOCKED: ENDBRANCH  22  26
DOCKED: ENDBRANCH  21  22
DOCKED: ENDBRANCH   6  21
DOCKED: BRANCH   3  28
DOCKED: ATOM     28  O   UNL d   1      -2.104 -10.882  12.748 -0.04 -0.06    -0.278 OA
DOCKED: BRANCH  28  29
DOCKED: ATOM     29  P   UNL d   1      -2.182 -11.934  11.555 -0.01 +0.11    +0.473 P 
DOCKED: ATOM     30  O   UNL d   1      -1.401 -11.585  10.341 -0.05 -0.05    -0.228 OA
DOCKED: BRANCH  29  31
DOCKED: ATOM     31  O   UNL d   1      -1.760 -13.269  12.332 -0.00 -0.06    -0.303 OA
DOCKED: ATOM     32  H   UNL d   1      -1.924 -13.137  13.294 +0.01 +0.04    +0.222 HD
DOCKED: ENDBRANCH  29  31
DOCKED: BRANCH  29  33
DOCKED: ATOM     33  O   UNL d   1      -3.753 -12.116  11.372 -0.04 -0.10    -0.303 OA
DOCKED: ATOM     34  H   UNL d   1      -4.102 -12.666  12.116 +0.05 +0.07    +0.222 HD
DOCKED: ENDBRANCH  29  33
DOCKED: ENDBRANCH  28  29
DOCKED: ENDBRANCH   3  28
DOCKED: BRANCH   5  35
DOCKED: ATOM     35  O   UNL d   1      -3.141  -7.619  15.871 -0.10 -0.02    -0.278 OA
DOCKED: BRANCH  35  36
DOCKED: ATOM     36  P   UNL d   1      -3.094  -6.025  15.856 -0.17 -0.04    +0.473 P 
DOCKED: ATOM     37  O   UNL d   1      -2.441  -5.388  17.042 -0.13 +0.01    -0.228 OA
DOCKED: BRANCH  36  38
DOCKED: ATOM     38  O   UNL d   1      -2.363  -5.733  14.472 -0.26 +0.01    -0.303 OA
DOCKED: ATOM     39  H   UNL d   1      -1.669  -6.412  14.326 +0.09 +0.01    +0.222 HD
DOCKED: ENDBRANCH  36  38
DOCKED: BRANCH  36  40
DOCKED: ATOM     40  O   UNL d   1      -4.612  -5.642  15.575 -0.26 +0.15    -0.303 OA
DOCKED: ATOM     41  H   UNL d   1      -5.218  -6.391  15.769 -0.38 -0.16    +0.222 HD
DOCKED: ENDBRANCH  36  40
DOCKED: ENDBRANCH  35  36
DOCKED: ENDBRANCH   5  35
DOCKED: BRANCH   4  42
DOCKED: ATOM     42  O   UNL d   1      -2.180  -8.033  13.152 -0.17 -0.06    -0.278 OA
DOCKED: BRANCH  42  43
DOCKED: ATOM     43  P   UNL d   1      -0.622  -8.100  12.816 -0.11 +0.05    +0.473 P 
DOCKED: ATOM     44  O   UNL d   1       0.266  -8.766  13.809 -0.03 -0.02    -0.228 OA
DOCKED: BRANCH  43  45
DOCKED: ATOM     45  O   UNL d   1      -0.605  -8.773  11.374 -0.13 -0.04    -0.303 OA
DOCKED: ATOM     46  H   UNL d   1      -0.883  -9.710  11.412 +0.06 +0.04    +0.222 HD
DOCKED: ENDBRANCH  43  45
DOCKED: BRANCH  43  47
DOCKED: ATOM     47  O   UNL d   1      -0.256  -6.579  12.470 -0.23 -0.02    -0.303 OA
DOCKED: ATOM     48  H   UNL d   1      -0.932  -5.987  12.862 +0.09 +0.01    +0.222 HD
DOCKED: ENDBRANCH  43  47
DOCKED: ENDBRANCH  42  43
DOCKED: ENDBRANCH   4  42
DOCKED: TORSDOF 24
DOCKED: TER
DOCKED: ENDMDL
________________________________________________________________________________


	BEGINNING GENETIC ALGORITHM DOCKING 62 of 100
Run: 62 Seed: 1409477222 2101192542 [ Run 62 of 100 GA/GALS ]
Beginning LAMARCKIAN GENETIC ALGORITHM (LGA), with a maximum of 25000000 energy evaluations.

Final-Value: -17.660


	FINAL GENETIC ALGORITHM DOCKED STATE
	_______________________________________________


Detailed state:  trans -7.197 -11.995 16.478 quatxyzw 0.533440 -0.362927 0.753108 0.128662 center 0.035 0.082 -0.065 ntor 24 146.0355 76.8920 115.4817 -34.4386 116.1627 -63.9884 -10.9263 -110.7328 38.0279 2.6957 -179.7813 83.1617 148.2635 161.9735 74.7336 81.8569 162.0289 73.3958 41.4673 5.8628 179.8765 -7.9175 -6.2825 -33.0522
State:	 -7.197 -11.995  16.478   0.538 -0.366  0.759 165.215    146.04   76.89  115.48  -34.44  116.16  -63.99  -10.93 -110.73   38.03    2.70 -179.78   83.16  148.26  161.97   74.73   81.86  162.03   73.40   41.47    5.86  179.88   -7.92   -6.28  -33.05

DOCKED: MODEL       62
DOCKED: USER    Run = 62
DOCKED: USER    DPF = D:/Protein_go_brrr/autodock/final/AncB/IHP/dock.dpf
DOCKED: USER  
DOCKED: USER    Estimated Free Energy of Binding    =   +2.94 kcal/mol  [=(1)+(2)+(3)-(4)]
DOCKED: USER    
DOCKED: USER    (1) Final Intermolecular Energy     =   -4.22 kcal/mol
DOCKED: USER        vdW + Hbond + desolv Energy     =   -4.01 kcal/mol
DOCKED: USER        Electrostatic Energy            =   -0.21 kcal/mol
DOCKED: USER    (2) Final Total Internal Energy     =  -13.44 kcal/mol
DOCKED: USER    (3) Torsional Free Energy           =   +7.16 kcal/mol
DOCKED: USER    (4) Unbound System's Energy  [=(2)] =  -13.44 kcal/mol
DOCKED: USER    
DOCKED: USER    
DOCKED: USER    NEWDPF move IHP_ideal_opt.pdbqt
DOCKED: USER    NEWDPF about 0.035000 0.082000 -0.065000
DOCKED: USER    NEWDPF tran0 -7.196899 -11.994543 16.478000
DOCKED: USER    NEWDPF quaternion0 0.533440 -0.362927 0.753108 0.128662
DOCKED: USER    NEWDPF axisangle0 0.537911 -0.365968 0.759420 165.215491
DOCKED: USER    NEWDPF quat0 0.537911 -0.365968 0.759420 165.215491
DOCKED: USER    NEWDPF dihe0 146.04 76.89 115.48 -34.44 116.16 -63.99 -10.93 -110.73 38.03 2.70 -179.78 83.16 148.26 161.97 74.73 81.86 162.03 73.40 41.47 5.86 179.88 -7.92 -6.28 -33.05 
DOCKED: USER  keepresnum = 1 
DOCKED: USER  
DOCKED: REMARK  24 active torsions:
DOCKED: REMARK  status: ('A' for Active; 'I' for Inactive)
DOCKED: REMARK    1  A    between atoms: C_1  and  O_7 
DOCKED: REMARK    2  A    between atoms: C_2  and  O_12 
DOCKED: REMARK    3  A    between atoms: C_3  and  O_17 
DOCKED: REMARK    4  A    between atoms: C_4  and  O_22 
DOCKED: REMARK    5  A    between atoms: C_5  and  O_27 
DOCKED: REMARK    6  A    between atoms: C_6  and  O_32 
DOCKED: REMARK    7  A    between atoms: O_7  and  P_8 
DOCKED: REMARK    8  A    between atoms: P_8  and  O_10 
DOCKED: REMARK    9  A    between atoms: P_8  and  O_11 
DOCKED: REMARK   10  A    between atoms: O_12  and  P_13 
DOCKED: REMARK   11  A    between atoms: P_13  and  O_15 
DOCKED: REMARK   12  A    between atoms: P_13  and  O_16 
DOCKED: REMARK   13  A    between atoms: O_17  and  P_18 
DOCKED: REMARK   14  A    between atoms: P_18  and  O_20 
DOCKED: REMARK   15  A    between atoms: P_18  and  O_21 
DOCKED: REMARK   16  A    between atoms: O_22  and  P_23 
DOCKED: REMARK   17  A    between atoms: P_23  and  O_25 
DOCKED: REMARK   18  A    between atoms: P_23  and  O_26 
DOCKED: REMARK   19  A    between atoms: O_27  and  P_28 
DOCKED: REMARK   20  A    between atoms: P_28  and  O_30 
DOCKED: REMARK   21  A    between atoms: P_28  and  O_31 
DOCKED: REMARK   22  A    between atoms: O_32  and  P_33 
DOCKED: REMARK   23  A    between atoms: P_33  and  O_35 
DOCKED: REMARK   24  A    between atoms: P_33  and  O_36 
DOCKED: USER                              x       y       z     vdW  Elec       q    Type
DOCKED: USER                           _______ _______ _______ _____ _____    ______ ____
DOCKED: ROOT
DOCKED: ATOM      1  C   UNL d   1      -6.814 -12.422  18.108 -0.00 +0.03    +0.194 C 
DOCKED: ATOM      2  C   UNL d   1      -6.493 -10.980  17.709 -0.02 +0.04    +0.194 C 
DOCKED: ATOM      3  C   UNL d   1      -5.848 -10.905  16.324 -0.07 +0.07    +0.194 C 
DOCKED: ATOM      4  C   UNL d   1      -6.647 -11.637  15.248 -0.12 +0.09    +0.194 C 
DOCKED: ATOM      5  C   UNL d   1      -7.087 -13.039  15.648 -0.05 +0.06    +0.194 C 
DOCKED: ATOM      6  C   UNL d   1      -7.676 -13.125  17.058 -0.02 +0.04    +0.194 C 
DOCKED: ENDROOT
DOCKED: BRANCH   1   7
DOCKED: ATOM      7  O   UNL d   1      -7.564 -12.392  19.324 +0.00 -0.03    -0.278 OA
DOCKED: BRANCH   7   8
DOCKED: ATOM      8  P   UNL d   1      -6.771 -12.220  20.700 +0.00 +0.03    +0.473 P 
DOCKED: ATOM      9  O   UNL d   1      -7.515 -12.651  21.915 -0.00 -0.01    -0.228 OA
DOCKED: BRANCH   8  10
DOCKED: ATOM     10  O   UNL d   1      -5.418 -13.032  20.471 +0.00 -0.02    -0.303 OA
DOCKED: ATOM     11  H   UNL d   1      -5.492 -13.569  19.660 +0.00 +0.02    +0.222 HD
DOCKED: ENDBRANCH   8  10
DOCKED: BRANCH   8  12
DOCKED: ATOM     12  O   UNL d   1      -6.261 -10.715  20.698 +0.00 -0.01    -0.303 OA
DOCKED: ATOM     13  H   UNL d   1      -6.868 -10.103  20.224 +0.01 +0.01    +0.222 HD
DOCKED: ENDBRANCH   8  12
DOCKED: ENDBRANCH   7   8
DOCKED: ENDBRANCH   1   7
DOCKED: BRANCH   2  14
DOCKED: ATOM     14  O   UNL d   1      -7.708 -10.220  17.689 -0.05 -0.06    -0.278 OA
DOCKED: BRANCH  14  15
DOCKED: ATOM     15  P   UNL d   1      -7.644  -8.752  18.326 -0.07 +0.01    +0.473 P 
DOCKED: ATOM     16  O   UNL d   1      -8.848  -8.299  19.091 -0.06 +0.02    -0.228 OA
DOCKED: BRANCH  15  17
DOCKED: ATOM     17  O   UNL d   1      -6.321  -8.771  19.213 -0.01 +0.00    -0.303 OA
DOCKED: ATOM     18  H   UNL d   1      -5.722  -9.491  18.935 +0.02 +0.01    +0.222 HD
DOCKED: ENDBRANCH  15  17
DOCKED: BRANCH  15  19
DOCKED: ATOM     19  O   UNL d   1      -7.206  -7.814  17.119 -0.44 +0.04    -0.303 OA
DOCKED: ATOM     20  H   UNL d   1      -6.241  -7.679  17.098 -0.05 -0.04    +0.222 HD
DOCKED: ENDBRANCH  15  19
DOCKED: ENDBRANCH  14  15
DOCKED: ENDBRANCH   2  14
DOCKED: BRANCH   6  21
DOCKED: ATOM     21  O   UNL d   1      -7.714 -14.507  17.406 -0.01 -0.04    -0.278 OA
DOCKED: BRANCH  21  22
DOCKED: ATOM     22  P   UNL d   1      -6.375 -15.247  17.857 +0.00 +0.06    +0.473 P 
DOCKED: ATOM     23  O   UNL d   1      -6.192 -15.551  19.306 +0.00 -0.02    -0.228 OA
DOCKED: BRANCH  22  24
DOCKED: ATOM     24  O   UNL d   1      -6.368 -16.520  16.902 -0.00 -0.05    -0.303 OA
DOCKED: ATOM     25  H   UNL d   1      -6.513 -16.208  15.972 +0.01 +0.04    +0.222 HD
DOCKED: ENDBRANCH  22  24
DOCKED: BRANCH  22  26
DOCKED: ATOM     26  O   UNL d   1      -5.250 -14.323  17.186 +0.00 -0.04    -0.303 OA
DOCKED: ATOM     27  H   UNL d   1      -4.651 -13.986  17.883 +0.00 +0.03    +0.222 HD
DOCKED: ENDBRANCH  22  26
DOCKED: ENDBRANCH  21  22
DOCKED: ENDBRANCH   6  21
DOCKED: BRANCH   3  28
DOCKED: ATOM     28  O   UNL d   1      -5.843  -9.540  15.927 -0.40 -0.19    -0.278 OA
DOCKED: BRANCH  28  29
DOCKED: ATOM     29  P   UNL d   1      -4.503  -8.682  16.011 -0.09 +0.13    +0.473 P 
DOCKED: ATOM     30  O   UNL d   1      -3.339  -9.239  15.275 -0.09 -0.05    -0.228 OA
DOCKED: BRANCH  29  31
DOCKED: ATOM     31  O   UNL d   1      -5.053  -7.258  15.531 -0.25 -0.01    -0.303 OA
DOCKED: ATOM     32  H   UNL d   1      -5.937  -7.109  15.938 -0.48 -0.12    +0.222 HD
DOCKED: ENDBRANCH  29  31
DOCKED: BRANCH  29  33
DOCKED: ATOM     33  O   UNL d   1      -4.333  -8.482  17.582 -0.03 -0.01    -0.303 OA
DOCKED: ATOM     34  H   UNL d   1      -5.178  -8.128  17.954 +0.04 -0.00    +0.222 HD
DOCKED: ENDBRANCH  29  33
DOCKED: ENDBRANCH  28  29
DOCKED: ENDBRANCH   3  28
DOCKED: BRANCH   5  35
DOCKED: ATOM     35  O   UNL d   1      -8.126 -13.393  14.737 -0.13 -0.10    -0.278 OA
DOCKED: BRANCH  35  36
DOCKED: ATOM     36  P   UNL d   1      -8.013 -14.726  13.867 -0.11 +0.17    +0.473 P 
DOCKED: ATOM     37  O   UNL d   1      -8.760 -14.715  12.572 -0.20 -0.10    -0.228 OA
DOCKED: BRANCH  36  38
DOCKED: ATOM     38  O   UNL d   1      -6.436 -14.881  13.712 -0.02 -0.10    -0.303 OA
DOCKED: ATOM     39  H   UNL d   1      -6.026 -13.990  13.691 +0.05 +0.07    +0.222 HD
DOCKED: ENDBRANCH  36  38
DOCKED: BRANCH  36  40
DOCKED: ATOM     40  O   UNL d   1      -8.408 -15.852  14.919 -0.05 -0.08    -0.303 OA
DOCKED: ATOM     41  H   UNL d   1      -8.037 -15.665  15.810 +0.03 +0.05    +0.222 HD
DOCKED: ENDBRANCH  36  40
DOCKED: ENDBRANCH  35  36
DOCKED: ENDBRANCH   5  35
DOCKED: BRANCH   4  42
DOCKED: ATOM     42  O   UNL d   1      -5.785 -11.774  14.113 -0.09 -0.13    -0.278 OA
DOCKED: BRANCH  42  43
DOCKED: ATOM     43  P   UNL d   1      -6.412 -11.665  12.651 -0.19 +0.29    +0.473 P 
DOCKED: ATOM     44  O   UNL d   1      -5.913 -10.574  11.769 -0.17 -0.16    -0.228 OA
DOCKED: BRANCH  43  45
DOCKED: ATOM     45  O   UNL d   1      -6.190 -13.128  12.066 -0.12 -0.14    -0.303 OA
DOCKED: ATOM     46  H   UNL d   1      -7.030 -13.626  12.018 +0.06 +0.11    +0.222 HD
DOCKED: ENDBRANCH  43  45
DOCKED: BRANCH  43  47
DOCKED: ATOM     47  O   UNL d   1      -7.991 -11.662  12.929 -0.92 -0.26    -0.303 OA
DOCKED: ATOM     48  H   UNL d   1      -8.343 -12.567  12.798 +0.07 +0.17    +0.222 HD
DOCKED: ENDBRANCH  43  47
DOCKED: ENDBRANCH  42  43
DOCKED: ENDBRANCH   4  42
DOCKED: TORSDOF 24
DOCKED: TER
DOCKED: ENDMDL
________________________________________________________________________________


	BEGINNING GENETIC ALGORITHM DOCKING 63 of 100
Run: 63 Seed: 361986053 1379096345 [ Run 63 of 100 GA/GALS ]
Beginning LAMARCKIAN GENETIC ALGORITHM (LGA), with a maximum of 25000000 energy evaluations.

Final-Value: -20.386


	FINAL GENETIC ALGORITHM DOCKED STATE
	_______________________________________________


Detailed state:  trans -17.281 -9.862 11.185 quatxyzw 0.288720 -0.848638 -0.143081 0.419502 center 0.035 0.082 -0.065 ntor 24 123.3810 64.3435 -168.3421 -38.3128 144.1447 79.5970 -172.4548 44.2767 79.4554 67.6068 23.7749 179.8310 -13.0915 83.2231 -138.1690 2.8822 107.6935 158.0478 -0.6435 -51.9370 -0.1283 176.7743 -6.8162 -15.2794
State:	-17.281  -9.862  11.185   0.318 -0.935 -0.158 130.394    123.38   64.34 -168.34  -38.31  144.14   79.60 -172.45   44.28   79.46   67.61   23.77  179.83  -13.09   83.22 -138.17    2.88  107.69  158.05   -0.64  -51.94   -0.13  176.77   -6.82  -15.28

DOCKED: MODEL       63
DOCKED: USER    Run = 63
DOCKED: USER    DPF = D:/Protein_go_brrr/autodock/final/AncB/IHP/dock.dpf
DOCKED: USER  
DOCKED: USER    Estimated Free Energy of Binding    =   +1.54 kcal/mol  [=(1)+(2)+(3)-(4)]
DOCKED: USER    
DOCKED: USER    (1) Final Intermolecular Energy     =   -5.62 kcal/mol
DOCKED: USER        vdW + Hbond + desolv Energy     =   -5.29 kcal/mol
DOCKED: USER        Electrostatic Energy            =   -0.33 kcal/mol
DOCKED: USER    (2) Final Total Internal Energy     =  -14.76 kcal/mol
DOCKED: USER    (3) Torsional Free Energy           =   +7.16 kcal/mol
DOCKED: USER    (4) Unbound System's Energy  [=(2)] =  -14.76 kcal/mol
DOCKED: USER    
DOCKED: USER    
DOCKED: USER    NEWDPF move IHP_ideal_opt.pdbqt
DOCKED: USER    NEWDPF about 0.035000 0.082000 -0.065000
DOCKED: USER    NEWDPF tran0 -17.281251 -9.862318 11.185104
DOCKED: USER    NEWDPF quaternion0 0.288720 -0.848638 -0.143081 0.419502
DOCKED: USER    NEWDPF axisangle0 0.318060 -0.934876 -0.157621 130.393655
DOCKED: USER    NEWDPF quat0 0.318060 -0.934876 -0.157621 130.393655
DOCKED: USER    NEWDPF dihe0 123.38 64.34 -168.34 -38.31 144.14 79.60 -172.45 44.28 79.46 67.61 23.77 179.83 -13.09 83.22 -138.17 2.88 107.69 158.05 -0.64 -51.94 -0.13 176.77 -6.82 -15.28 
DOCKED: USER  keepresnum = 1 
DOCKED: USER  
DOCKED: REMARK  24 active torsions:
DOCKED: REMARK  status: ('A' for Active; 'I' for Inactive)
DOCKED: REMARK    1  A    between atoms: C_1  and  O_7 
DOCKED: REMARK    2  A    between atoms: C_2  and  O_12 
DOCKED: REMARK    3  A    between atoms: C_3  and  O_17 
DOCKED: REMARK    4  A    between atoms: C_4  and  O_22 
DOCKED: REMARK    5  A    between atoms: C_5  and  O_27 
DOCKED: REMARK    6  A    between atoms: C_6  and  O_32 
DOCKED: REMARK    7  A    between atoms: O_7  and  P_8 
DOCKED: REMARK    8  A    between atoms: P_8  and  O_10 
DOCKED: REMARK    9  A    between atoms: P_8  and  O_11 
DOCKED: REMARK   10  A    between atoms: O_12  and  P_13 
DOCKED: REMARK   11  A    between atoms: P_13  and  O_15 
DOCKED: REMARK   12  A    between atoms: P_13  and  O_16 
DOCKED: REMARK   13  A    between atoms: O_17  and  P_18 
DOCKED: REMARK   14  A    between atoms: P_18  and  O_20 
DOCKED: REMARK   15  A    between atoms: P_18  and  O_21 
DOCKED: REMARK   16  A    between atoms: O_22  and  P_23 
DOCKED: REMARK   17  A    between atoms: P_23  and  O_25 
DOCKED: REMARK   18  A    between atoms: P_23  and  O_26 
DOCKED: REMARK   19  A    between atoms: O_27  and  P_28 
DOCKED: REMARK   20  A    between atoms: P_28  and  O_30 
DOCKED: REMARK   21  A    between atoms: P_28  and  O_31 
DOCKED: REMARK   22  A    between atoms: O_32  and  P_33 
DOCKED: REMARK   23  A    between atoms: P_33  and  O_35 
DOCKED: REMARK   24  A    between atoms: P_33  and  O_36 
DOCKED: USER                              x       y       z     vdW  Elec       q    Type
DOCKED: USER                           _______ _______ _______ _____ _____    ______ ____
DOCKED: ROOT
DOCKED: ATOM      1  C   UNL d   1     -16.845 -10.646   9.709 -0.09 -0.07    +0.194 C 
DOCKED: ATOM      2  C   UNL d   1     -15.986 -11.000  10.924 -0.24 -0.02    +0.194 C 
DOCKED: ATOM      3  C   UNL d   1     -15.639  -9.762  11.753 -0.33 -0.01    +0.194 C 
DOCKED: ATOM      4  C   UNL d   1     -16.861  -8.930  12.133 -0.20 +0.04    +0.194 C 
DOCKED: ATOM      5  C   UNL d   1     -17.807  -8.650  10.972 -0.12 +0.04    +0.194 C 
DOCKED: ATOM      6  C   UNL d   1     -18.105  -9.876  10.106 -0.11 -0.03    +0.194 C 
DOCKED: ENDROOT
DOCKED: BRANCH   1   7
DOCKED: ATOM      7  O   UNL d   1     -17.267 -11.864   9.090 -0.10 +0.02    -0.278 OA
DOCKED: BRANCH   7   8
DOCKED: ATOM      8  P   UNL d   1     -16.909 -12.097   7.551 -0.12 -0.02    +0.473 P 
DOCKED: ATOM      9  O   UNL d   1     -15.563 -11.616   7.136 -0.26 +0.03    -0.228 OA
DOCKED: BRANCH   8  10
DOCKED: ATOM     10  O   UNL d   1     -17.107 -13.667   7.342 +0.01 -0.01    -0.303 OA
DOCKED: ATOM     11  H   UNL d   1     -16.848 -14.140   8.154 -0.05 +0.00    +0.222 HD
DOCKED: ENDBRANCH   8  10
DOCKED: BRANCH   8  12
DOCKED: ATOM     12  O   UNL d   1     -18.140 -11.497   6.745 -0.09 -0.00    -0.303 OA
DOCKED: ATOM     13  H   UNL d   1     -18.680 -10.870   7.277 +0.04 -0.01    +0.222 HD
DOCKED: ENDBRANCH   8  12
DOCKED: ENDBRANCH   7   8
DOCKED: ENDBRANCH   1   7
DOCKED: BRANCH   2  14
DOCKED: ATOM     14  O   UNL d   1     -16.708 -11.918  11.755 -0.18 -0.03    -0.278 OA
DOCKED: BRANCH  14  15
DOCKED: ATOM     15  P   UNL d   1     -16.708 -13.452  11.295 -0.05 +0.05    +0.473 P 
DOCKED: ATOM     16  O   UNL d   1     -16.545 -14.477  12.373 -0.07 -0.04    -0.228 OA
DOCKED: BRANCH  15  17
DOCKED: ATOM     17  O   UNL d   1     -18.073 -13.614  10.489 -0.03 -0.02    -0.303 OA
DOCKED: ATOM     18  H   UNL d   1     -17.929 -13.511   9.529 +0.04 +0.01    +0.222 HD
DOCKED: ENDBRANCH  15  17
DOCKED: BRANCH  15  19
DOCKED: ATOM     19  O   UNL d   1     -15.636 -13.514  10.122 -0.19 -0.02    -0.303 OA
DOCKED: ATOM     20  H   UNL d   1     -16.059 -13.473   9.244 -0.02 +0.00    +0.222 HD
DOCKED: ENDBRANCH  15  19
DOCKED: ENDBRANCH  14  15
DOCKED: ENDBRANCH   2  14
DOCKED: BRANCH   6  21
DOCKED: ATOM     21  O   UNL d   1     -18.699  -9.396   8.902 -0.11 +0.08    -0.278 OA
DOCKED: BRANCH  21  22
DOCKED: ATOM     22  P   UNL d   1     -20.277  -9.511   8.697 -0.02 -0.01    +0.473 P 
DOCKED: ATOM     23  O   UNL d   1     -20.789 -10.513   7.718 -0.01 -0.01    -0.228 OA
DOCKED: BRANCH  22  24
DOCKED: ATOM     24  O   UNL d   1     -20.785  -9.717  10.191 -0.00 -0.02    -0.303 OA
DOCKED: ATOM     25  H   UNL d   1     -20.778  -8.835  10.643 +0.02 +0.02    +0.222 HD
DOCKED: ENDBRANCH  22  24
DOCKED: BRANCH  22  26
DOCKED: ATOM     26  O   UNL d   1     -20.681  -7.985   8.417 -0.03 +0.00    -0.303 OA
DOCKED: ATOM     27  H   UNL d   1     -20.958  -7.566   9.258 +0.02 +0.02    +0.222 HD
DOCKED: ENDBRANCH  22  26
DOCKED: ENDBRANCH  21  22
DOCKED: ENDBRANCH   6  21
DOCKED: BRANCH   3  28
DOCKED: ATOM     28  O   UNL d   1     -15.090 -10.211  12.985 -0.47 -0.05    -0.278 OA
DOCKED: BRANCH  28  29
DOCKED: ATOM     29  P   UNL d   1     -16.028 -10.872  14.090 -0.11 +0.07    +0.473 P 
DOCKED: ATOM     30  O   UNL d   1     -17.467 -10.513  14.007 -0.04 -0.02    -0.228 OA
DOCKED: BRANCH  29  31
DOCKED: ATOM     31  O   UNL d   1     -15.652 -12.415  13.888 -0.39 -0.10    -0.303 OA
DOCKED: ATOM     32  H   UNL d   1     -16.471 -12.910  13.654 +0.04 +0.04    +0.222 HD
DOCKED: ENDBRANCH  29  31
DOCKED: BRANCH  29  33
DOCKED: ATOM     33  O   UNL d   1     -15.270 -10.499  15.439 -0.13 -0.02    -0.303 OA
DOCKED: ATOM     34  H   UNL d   1     -15.748  -9.755  15.881 +0.06 +0.00    +0.222 HD
DOCKED: ENDBRANCH  29  33
DOCKED: ENDBRANCH  28  29
DOCKED: ENDBRANCH   3  28
DOCKED: BRANCH   5  35
DOCKED: ATOM     35  O   UNL d   1     -19.039  -8.245  11.565 -0.09 -0.10    -0.278 OA
DOCKED: BRANCH  35  36
DOCKED: ATOM     36  P   UNL d   1     -19.693  -6.841  11.182 -0.03 +0.27    +0.473 P 
DOCKED: ATOM     37  O   UNL d   1     -21.182  -6.771  11.297 -0.01 -0.05    -0.228 OA
DOCKED: BRANCH  36  38
DOCKED: ATOM     38  O   UNL d   1     -18.914  -5.844  12.150 -0.62 -0.33    -0.303 OA
DOCKED: ATOM     39  H   UNL d   1     -18.174  -6.326  12.579 +0.05 +0.28    +0.222 HD
DOCKED: ENDBRANCH  36  38
DOCKED: BRANCH  36  40
DOCKED: ATOM     40  O   UNL d   1     -19.065  -6.553   9.750 -0.04 -0.19    -0.303 OA
DOCKED: ATOM     41  H   UNL d   1     -18.812  -7.383   9.289 -0.17 -0.03    +0.222 HD
DOCKED: ENDBRANCH  36  40
DOCKED: ENDBRANCH  35  36
DOCKED: ENDBRANCH   5  35
DOCKED: BRANCH   4  42
DOCKED: ATOM     42  O   UNL d   1     -16.375  -7.665  12.595 -0.24 -0.16    -0.278 OA
DOCKED: BRANCH  42  43
DOCKED: ATOM     43  P   UNL d   1     -16.840  -7.137  14.026 -0.12 +0.12    +0.473 P 
DOCKED: ATOM     44  O   UNL d   1     -16.794  -5.667  14.264 -0.33 -0.07    -0.228 OA
DOCKED: BRANCH  43  45
DOCKED: ATOM     45  O   UNL d   1     -18.289  -7.776  14.181 -0.04 -0.07    -0.303 OA
DOCKED: ATOM     46  H   UNL d   1     -18.837  -7.617  13.387 +0.04 +0.07    +0.222 HD
DOCKED: ENDBRANCH  43  45
DOCKED: BRANCH  43  47
DOCKED: ATOM     47  O   UNL d   1     -15.980  -8.029  15.043 +0.01 +0.04    -0.303 OA
DOCKED: ATOM     48  H   UNL d   1     -15.428  -8.657  14.533 -0.38 -0.05    +0.222 HD
DOCKED: ENDBRANCH  43  47
DOCKED: ENDBRANCH  42  43
DOCKED: ENDBRANCH   4  42
DOCKED: TORSDOF 24
DOCKED: TER
DOCKED: ENDMDL
________________________________________________________________________________


	BEGINNING GENETIC ALGORITHM DOCKING 64 of 100
Run: 64 Seed: 1927750718 1040157748 [ Run 64 of 100 GA/GALS ]
Beginning LAMARCKIAN GENETIC ALGORITHM (LGA), with a maximum of 25000000 energy evaluations.

Final-Value: -16.861


	FINAL GENETIC ALGORITHM DOCKED STATE
	_______________________________________________


Detailed state:  trans -11.896 -11.989 -13.598 quatxyzw 0.838361 0.134823 -0.134851 -0.510675 center 0.035 0.082 -0.065 ntor 24 170.8201 126.0697 -70.2906 139.4883 55.8021 -176.6552 124.8426 -5.7357 98.7284 -9.9645 119.8470 99.5247 -10.2705 -13.9941 -25.0917 90.2237 -179.1046 18.8264 -29.9335 -42.2055 157.3002 33.7427 -0.3207 169.6652
State:	-11.896 -11.989 -13.598   0.975  0.157 -0.157 -118.582    170.82  126.07  -70.29  139.49   55.80 -176.66  124.84   -5.74   98.73   -9.96  119.85   99.52  -10.27  -13.99  -25.09   90.22 -179.10   18.83  -29.93  -42.21  157.30   33.74   -0.32  169.67

DOCKED: MODEL       64
DOCKED: USER    Run = 64
DOCKED: USER    DPF = D:/Protein_go_brrr/autodock/final/AncB/IHP/dock.dpf
DOCKED: USER  
DOCKED: USER    Estimated Free Energy of Binding    =   +2.18 kcal/mol  [=(1)+(2)+(3)-(4)]
DOCKED: USER    
DOCKED: USER    (1) Final Intermolecular Energy     =   -4.98 kcal/mol
DOCKED: USER        vdW + Hbond + desolv Energy     =   -4.00 kcal/mol
DOCKED: USER        Electrostatic Energy            =   -0.98 kcal/mol
DOCKED: USER    (2) Final Total Internal Energy     =  -11.88 kcal/mol
DOCKED: USER    (3) Torsional Free Energy           =   +7.16 kcal/mol
DOCKED: USER    (4) Unbound System's Energy  [=(2)] =  -11.88 kcal/mol
DOCKED: USER    
DOCKED: USER    
DOCKED: USER    NEWDPF move IHP_ideal_opt.pdbqt
DOCKED: USER    NEWDPF about 0.035000 0.082000 -0.065000
DOCKED: USER    NEWDPF tran0 -11.895805 -11.988919 -13.597939
DOCKED: USER    NEWDPF quaternion0 0.838361 0.134823 -0.134851 -0.510675
DOCKED: USER    NEWDPF axisangle0 0.975095 0.156812 -0.156845 -118.582401
DOCKED: USER    NEWDPF quat0 0.975095 0.156812 -0.156845 -118.582401
DOCKED: USER    NEWDPF dihe0 170.82 126.07 -70.29 139.49 55.80 -176.66 124.84 -5.74 98.73 -9.96 119.85 99.52 -10.27 -13.99 -25.09 90.22 -179.10 18.83 -29.93 -42.21 157.30 33.74 -0.32 169.67 
DOCKED: USER  keepresnum = 1 
DOCKED: USER  
DOCKED: REMARK  24 active torsions:
DOCKED: REMARK  status: ('A' for Active; 'I' for Inactive)
DOCKED: REMARK    1  A    between atoms: C_1  and  O_7 
DOCKED: REMARK    2  A    between atoms: C_2  and  O_12 
DOCKED: REMARK    3  A    between atoms: C_3  and  O_17 
DOCKED: REMARK    4  A    between atoms: C_4  and  O_22 
DOCKED: REMARK    5  A    between atoms: C_5  and  O_27 
DOCKED: REMARK    6  A    between atoms: C_6  and  O_32 
DOCKED: REMARK    7  A    between atoms: O_7  and  P_8 
DOCKED: REMARK    8  A    between atoms: P_8  and  O_10 
DOCKED: REMARK    9  A    between atoms: P_8  and  O_11 
DOCKED: REMARK   10  A    between atoms: O_12  and  P_13 
DOCKED: REMARK   11  A    between atoms: P_13  and  O_15 
DOCKED: REMARK   12  A    between atoms: P_13  and  O_16 
DOCKED: REMARK   13  A    between atoms: O_17  and  P_18 
DOCKED: REMARK   14  A    between atoms: P_18  and  O_20 
DOCKED: REMARK   15  A    between atoms: P_18  and  O_21 
DOCKED: REMARK   16  A    between atoms: O_22  and  P_23 
DOCKED: REMARK   17  A    between atoms: P_23  and  O_25 
DOCKED: REMARK   18  A    between atoms: P_23  and  O_26 
DOCKED: REMARK   19  A    between atoms: O_27  and  P_28 
DOCKED: REMARK   20  A    between atoms: P_28  and  O_30 
DOCKED: REMARK   21  A    between atoms: P_28  and  O_31 
DOCKED: REMARK   22  A    between atoms: O_32  and  P_33 
DOCKED: REMARK   23  A    between atoms: P_33  and  O_35 
DOCKED: REMARK   24  A    between atoms: P_33  and  O_36 
DOCKED: USER                              x       y       z     vdW  Elec       q    Type
DOCKED: USER                           _______ _______ _______ _____ _____    ______ ____
DOCKED: ROOT
DOCKED: ATOM      1  C   UNL d   1     -11.127 -12.192 -15.132 -0.07 +0.05    +0.194 C 
DOCKED: ATOM      2  C   UNL d   1     -12.544 -11.617 -15.174 -0.07 +0.12    +0.194 C 
DOCKED: ATOM      3  C   UNL d   1     -13.482 -12.353 -14.215 -0.06 +0.13    +0.194 C 
DOCKED: ATOM      4  C   UNL d   1     -12.938 -12.443 -12.791 +0.02 +0.14    +0.194 C 
DOCKED: ATOM      5  C   UNL d   1     -11.488 -12.903 -12.709 -0.11 +0.06    +0.194 C 
DOCKED: ATOM      6  C   UNL d   1     -10.561 -12.211 -13.711 -0.15 +0.02    +0.194 C 
DOCKED: ENDROOT
DOCKED: BRANCH   1   7
DOCKED: ATOM      7  O   UNL d   1     -10.280 -11.348 -15.916 -0.04 -0.06    -0.278 OA
DOCKED: BRANCH   7   8
DOCKED: ATOM      8  P   UNL d   1      -8.987 -11.993 -16.598 -0.03 -0.05    +0.473 P 
DOCKED: ATOM      9  O   UNL d   1      -9.195 -13.341 -17.195 -0.03 +0.03    -0.228 OA
DOCKED: BRANCH   8  10
DOCKED: ATOM     10  O   UNL d   1      -8.525 -10.899 -17.662 -0.01 -0.09    -0.303 OA
DOCKED: ATOM     11  H   UNL d   1      -8.993 -10.060 -17.493 +0.03 +0.09    +0.222 HD
DOCKED: ENDBRANCH   8  10
DOCKED: BRANCH   8  12
DOCKED: ATOM     12  O   UNL d   1      -7.846 -11.890 -15.498 -0.02 +0.29    -0.303 OA
DOCKED: ATOM     13  H   UNL d   1      -7.894 -12.605 -14.823 -0.41 -0.47    +0.222 HD
DOCKED: ENDBRANCH   8  12
DOCKED: ENDBRANCH   7   8
DOCKED: ENDBRANCH   1   7
DOCKED: BRANCH   2  14
DOCKED: ATOM     14  O   UNL d   1     -12.499 -10.235 -14.797 -0.00 -0.39    -0.278 OA
DOCKED: BRANCH  14  15
DOCKED: ATOM     15  P   UNL d   1     -12.271  -9.179 -15.979 -0.05 +0.45    +0.473 P 
DOCKED: ATOM     16  O   UNL d   1     -13.016  -9.425 -17.253 -0.02 -0.13    -0.228 OA
DOCKED: BRANCH  15  17
DOCKED: ATOM     17  O   UNL d   1     -12.628  -7.774 -15.317 -0.65 -0.48    -0.303 OA
DOCKED: ATOM     18  H   UNL d   1     -12.736  -7.082 -15.997 +0.01 +0.20    +0.222 HD
DOCKED: ENDBRANCH  15  17
DOCKED: BRANCH  15  19
DOCKED: ATOM     19  O   UNL d   1     -10.690  -9.074 -16.118 -0.05 -0.18    -0.303 OA
DOCKED: ATOM     20  H   UNL d   1     -10.323  -9.821 -16.626 +0.03 +0.10    +0.222 HD
DOCKED: ENDBRANCH  15  19
DOCKED: ENDBRANCH  14  15
DOCKED: ENDBRANCH   2  14
DOCKED: BRANCH   6  21
DOCKED: ATOM     21  O   UNL d   1      -9.356 -12.971 -13.751 -0.09 +0.25    -0.278 OA
DOCKED: BRANCH  21  22
DOCKED: ATOM     22  P   UNL d   1      -9.415 -14.533 -14.071 -0.02 -0.30    +0.473 P 
DOCKED: ATOM     23  O   UNL d   1     -10.734 -15.128 -14.434 -0.02 +0.02    -0.228 OA
DOCKED: BRANCH  22  24
DOCKED: ATOM     24  O   UNL d   1      -8.287 -14.680 -15.184 -0.02 +0.35    -0.303 OA
DOCKED: ATOM     25  H   UNL d   1      -8.011 -13.771 -15.465 -0.52 -0.36    +0.222 HD
DOCKED: ENDBRANCH  22  24
DOCKED: BRANCH  22  26
DOCKED: ATOM     26  O   UNL d   1      -8.693 -15.157 -12.783 -0.08 +0.24    -0.303 OA
DOCKED: ATOM     27  H   UNL d   1      -8.559 -14.453 -12.116 -0.26 -0.28    +0.222 HD
DOCKED: ENDBRANCH  22  26
DOCKED: ENDBRANCH  21  22
DOCKED: ENDBRANCH   6  21
DOCKED: BRANCH   3  28
DOCKED: ATOM     28  O   UNL d   1     -14.677 -11.589 -14.114 -0.16 -0.28    -0.278 OA
DOCKED: BRANCH  28  29
DOCKED: ATOM     29  P   UNL d   1     -16.087 -12.315 -13.964 -0.02 +0.26    +0.473 P 
DOCKED: ATOM     30  O   UNL d   1     -16.272 -13.102 -12.718 -0.01 -0.10    -0.228 OA
DOCKED: BRANCH  29  31
DOCKED: ATOM     31  O   UNL d   1     -17.068 -11.071 -14.191 -0.03 -0.18    -0.303 OA
DOCKED: ATOM     32  H   UNL d   1     -17.997 -11.398 -14.179 +0.01 +0.09    +0.222 HD
DOCKED: ENDBRANCH  29  31
DOCKED: BRANCH  29  33
DOCKED: ATOM     33  O   UNL d   1     -16.202 -13.109 -15.340 +0.00 -0.10    -0.303 OA
DOCKED: ATOM     34  H   UNL d   1     -15.390 -13.660 -15.462 +0.01 +0.07    +0.222 HD
DOCKED: ENDBRANCH  29  33
DOCKED: ENDBRANCH  28  29
DOCKED: ENDBRANCH   3  28
DOCKED: BRANCH   5  35
DOCKED: ATOM     35  O   UNL d   1     -11.041 -12.542 -11.404 -0.15 -0.10    -0.278 OA
DOCKED: BRANCH  35  36
DOCKED: ATOM     36  P   UNL d   1     -10.303 -13.613 -10.481 -0.16 +0.08    +0.473 P 
DOCKED: ATOM     37  O   UNL d   1     -10.762 -13.663  -9.058 -0.16 -0.10    -0.228 OA
DOCKED: BRANCH  36  38
DOCKED: ATOM     38  O   UNL d   1     -10.541 -14.962 -11.293 -0.04 -0.05    -0.303 OA
DOCKED: ATOM     39  H   UNL d   1     -10.621 -14.752 -12.249 +0.05 +0.00    +0.222 HD
DOCKED: ENDBRANCH  36  38
DOCKED: BRANCH  36  40
DOCKED: ATOM     40  O   UNL d   1      -8.769 -13.280 -10.734 -0.20 +0.17    -0.303 OA
DOCKED: ATOM     41  H   UNL d   1      -8.555 -13.251 -11.693 -0.43 -0.42    +0.222 HD
DOCKED: ENDBRANCH  36  40
DOCKED: ENDBRANCH  35  36
DOCKED: ENDBRANCH   5  35
DOCKED: BRANCH   4  42
DOCKED: ATOM     42  O   UNL d   1     -13.729 -13.420 -12.106 -0.04 -0.14    -0.278 OA
DOCKED: BRANCH  42  43
DOCKED: ATOM     43  P   UNL d   1     -13.791 -14.905 -12.684 +0.01 +0.13    +0.473 P 
DOCKED: ATOM     44  O   UNL d   1     -12.527 -15.693 -12.692 -0.00 -0.05    -0.228 OA
DOCKED: BRANCH  43  45
DOCKED: ATOM     45  O   UNL d   1     -14.962 -15.563 -11.831 +0.00 -0.08    -0.303 OA
DOCKED: ATOM     46  H   UNL d   1     -15.745 -14.979 -11.787 +0.01 +0.06    +0.222 HD
DOCKED: ENDBRANCH  43  45
DOCKED: BRANCH  43  47
DOCKED: ATOM     47  O   UNL d   1     -14.496 -14.714 -14.111 -0.00 -0.08    -0.303 OA
DOCKED: ATOM     48  H   UNL d   1     -15.466 -14.658 -13.987 +0.01 +0.06    +0.222 HD
DOCKED: ENDBRANCH  43  47
DOCKED: ENDBRANCH  42  43
DOCKED: ENDBRANCH   4  42
DOCKED: TORSDOF 24
DOCKED: TER
DOCKED: ENDMDL
________________________________________________________________________________


	BEGINNING GENETIC ALGORITHM DOCKING 65 of 100
Run: 65 Seed: 954383648 1890007290 [ Run 65 of 100 GA/GALS ]
Beginning LAMARCKIAN GENETIC ALGORITHM (LGA), with a maximum of 25000000 energy evaluations.

Final-Value: -18.870


	FINAL GENETIC ALGORITHM DOCKED STATE
	_______________________________________________


Detailed state:  trans -11.041 -18.028 -4.504 quatxyzw -0.644884 0.078543 -0.093153 0.754505 center 0.035 0.082 -0.065 ntor 24 -158.1346 -11.7246 156.1801 -9.5480 -6.5873 -98.8577 -102.9350 29.3871 12.0866 0.1806 141.1402 113.5137 91.3168 -173.1335 -17.7285 176.0551 176.1696 60.4285 -10.3267 15.2283 157.1725 27.6953 -20.0893 -16.0205
State:	-11.041 -18.028  -4.504  -0.983  0.120 -0.142 82.036   -158.13  -11.72  156.18   -9.55   -6.59  -98.86 -102.94   29.39   12.09    0.18  141.14  113.51   91.32 -173.13  -17.73  176.06  176.17   60.43  -10.33   15.23  157.17   27.70  -20.09  -16.02

DOCKED: MODEL       65
DOCKED: USER    Run = 65
DOCKED: USER    DPF = D:/Protein_go_brrr/autodock/final/AncB/IHP/dock.dpf
DOCKED: USER  
DOCKED: USER    Estimated Free Energy of Binding    =   +3.83 kcal/mol  [=(1)+(2)+(3)-(4)]
DOCKED: USER    
DOCKED: USER    (1) Final Intermolecular Energy     =   -3.33 kcal/mol
DOCKED: USER        vdW + Hbond + desolv Energy     =   -3.04 kcal/mol
DOCKED: USER        Electrostatic Energy            =   -0.29 kcal/mol
DOCKED: USER    (2) Final Total Internal Energy     =  -15.54 kcal/mol
DOCKED: USER    (3) Torsional Free Energy           =   +7.16 kcal/mol
DOCKED: USER    (4) Unbound System's Energy  [=(2)] =  -15.54 kcal/mol
DOCKED: USER    
DOCKED: USER    
DOCKED: USER    NEWDPF move IHP_ideal_opt.pdbqt
DOCKED: USER    NEWDPF about 0.035000 0.082000 -0.065000
DOCKED: USER    NEWDPF tran0 -11.040947 -18.027984 -4.504160
DOCKED: USER    NEWDPF quaternion0 -0.644884 0.078543 -0.093153 0.754505
DOCKED: USER    NEWDPF axisangle0 -0.982615 0.119677 -0.141938 82.035681
DOCKED: USER    NEWDPF quat0 -0.982615 0.119677 -0.141938 82.035681
DOCKED: USER    NEWDPF dihe0 -158.13 -11.72 156.18 -9.55 -6.59 -98.86 -102.94 29.39 12.09 0.18 141.14 113.51 91.32 -173.13 -17.73 176.06 176.17 60.43 -10.33 15.23 157.17 27.70 -20.09 -16.02 
DOCKED: USER  keepresnum = 1 
DOCKED: USER  
DOCKED: REMARK  24 active torsions:
DOCKED: REMARK  status: ('A' for Active; 'I' for Inactive)
DOCKED: REMARK    1  A    between atoms: C_1  and  O_7 
DOCKED: REMARK    2  A    between atoms: C_2  and  O_12 
DOCKED: REMARK    3  A    between atoms: C_3  and  O_17 
DOCKED: REMARK    4  A    between atoms: C_4  and  O_22 
DOCKED: REMARK    5  A    between atoms: C_5  and  O_27 
DOCKED: REMARK    6  A    between atoms: C_6  and  O_32 
DOCKED: REMARK    7  A    between atoms: O_7  and  P_8 
DOCKED: REMARK    8  A    between atoms: P_8  and  O_10 
DOCKED: REMARK    9  A    between atoms: P_8  and  O_11 
DOCKED: REMARK   10  A    between atoms: O_12  and  P_13 
DOCKED: REMARK   11  A    between atoms: P_13  and  O_15 
DOCKED: REMARK   12  A    between atoms: P_13  and  O_16 
DOCKED: REMARK   13  A    between atoms: O_17  and  P_18 
DOCKED: REMARK   14  A    between atoms: P_18  and  O_20 
DOCKED: REMARK   15  A    between atoms: P_18  and  O_21 
DOCKED: REMARK   16  A    between atoms: O_22  and  P_23 
DOCKED: REMARK   17  A    between atoms: P_23  and  O_25 
DOCKED: REMARK   18  A    between atoms: P_23  and  O_26 
DOCKED: REMARK   19  A    between atoms: O_27  and  P_28 
DOCKED: REMARK   20  A    between atoms: P_28  and  O_30 
DOCKED: REMARK   21  A    between atoms: P_28  and  O_31 
DOCKED: REMARK   22  A    between atoms: O_32  and  P_33 
DOCKED: REMARK   23  A    between atoms: P_33  and  O_35 
DOCKED: REMARK   24  A    between atoms: P_33  and  O_36 
DOCKED: USER                              x       y       z     vdW  Elec       q    Type
DOCKED: USER                           _______ _______ _______ _____ _____    ______ ____
DOCKED: ROOT
DOCKED: ATOM      1  C   UNL d   1      -9.609 -18.894  -4.933 -0.04 +0.16    +0.194 C 
DOCKED: ATOM      2  C   UNL d   1     -10.626 -18.700  -6.059 -0.03 +0.14    +0.194 C 
DOCKED: ATOM      3  C   UNL d   1     -12.058 -18.946  -5.578 +0.01 +0.09    +0.194 C 
DOCKED: ATOM      4  C   UNL d   1     -12.419 -18.145  -4.329 +0.00 +0.09    +0.194 C 
DOCKED: ATOM      5  C   UNL d   1     -11.375 -18.218  -3.222 -0.03 +0.13    +0.194 C 
DOCKED: ATOM      6  C   UNL d   1      -9.938 -18.033  -3.713 -0.07 +0.17    +0.194 C 
DOCKED: ENDROOT
DOCKED: BRANCH   1   7
DOCKED: ATOM      7  O   UNL d   1      -8.328 -18.481  -5.413 -0.10 -0.34    -0.278 OA
DOCKED: BRANCH   7   8
DOCKED: ATOM      8  P   UNL d   1      -7.075 -19.438  -5.154 -0.06 +0.48    +0.473 P 
DOCKED: ATOM      9  O   UNL d   1      -6.082 -19.492  -6.261 -0.69 -0.30    -0.228 OA
DOCKED: BRANCH   8  10
DOCKED: ATOM     10  O   UNL d   1      -6.458 -18.904  -3.783 -0.12 -0.28    -0.303 OA
DOCKED: ATOM     11  H   UNL d   1      -7.177 -18.733  -3.145 +0.04 +0.26    +0.222 HD
DOCKED: ENDBRANCH   8  10
DOCKED: BRANCH   8  12
DOCKED: ATOM     12  O   UNL d   1      -7.703 -20.830  -4.716 -0.00 -0.19    -0.303 OA
DOCKED: ATOM     13  H   UNL d   1      -8.291 -20.758  -3.931 +0.02 +0.14    +0.222 HD
DOCKED: ENDBRANCH   8  12
DOCKED: ENDBRANCH   7   8
DOCKED: ENDBRANCH   1   7
DOCKED: BRANCH   2  14
DOCKED: ATOM     14  O   UNL d   1     -10.533 -17.355  -6.546 -0.09 -0.25    -0.278 OA
DOCKED: BRANCH  14  15
DOCKED: ATOM     15  P   UNL d   1     -10.819 -17.137  -8.106 -0.02 +0.42    +0.473 P 
DOCKED: ATOM     16  O   UNL d   1      -9.689 -16.601  -8.928 -0.49 -0.36    -0.228 OA
DOCKED: BRANCH  15  17
DOCKED: ATOM     17  O   UNL d   1     -11.328 -18.561  -8.609 -0.03 -0.18    -0.303 OA
DOCKED: ATOM     18  H   UNL d   1     -12.140 -18.831  -8.138 +0.01 +0.10    +0.222 HD
DOCKED: ENDBRANCH  15  17
DOCKED: BRANCH  15  19
DOCKED: ATOM     19  O   UNL d   1     -12.162 -16.285  -8.148 -0.01 -0.15    -0.303 OA
DOCKED: ATOM     20  H   UNL d   1     -12.930 -16.808  -7.853 +0.01 +0.09    +0.222 HD
DOCKED: ENDBRANCH  15  19
DOCKED: ENDBRANCH  14  15
DOCKED: ENDBRANCH   2  14
DOCKED: BRANCH   6  21
DOCKED: ATOM     21  O   UNL d   1      -9.083 -18.462  -2.655 -0.14 -0.37    -0.278 OA
DOCKED: BRANCH  21  22
DOCKED: ATOM     22  P   UNL d   1      -9.255 -19.925  -2.042 -0.03 +0.47    +0.473 P 
DOCKED: ATOM     23  O   UNL d   1     -10.113 -20.900  -2.776 -0.00 -0.13    -0.228 OA
DOCKED: BRANCH  22  24
DOCKED: ATOM     24  O   UNL d   1      -7.741 -20.378  -1.852 -0.07 -0.31    -0.303 OA
DOCKED: ATOM     25  H   UNL d   1      -7.362 -20.568  -2.748 +0.03 +0.17    +0.222 HD
DOCKED: ENDBRANCH  22  24
DOCKED: BRANCH  22  26
DOCKED: ATOM     26  O   UNL d   1      -9.694 -19.596  -0.536 -0.62 -0.43    -0.303 OA
DOCKED: ATOM     27  H   UNL d   1     -10.666 -19.488  -0.500 +0.02 +0.22    +0.222 HD
DOCKED: ENDBRANCH  22  26
DOCKED: ENDBRANCH  21  22
DOCKED: ENDBRANCH   6  21
DOCKED: BRANCH   3  28
DOCKED: ATOM     28  O   UNL d   1     -12.937 -18.479  -6.593 +0.00 -0.11    -0.278 OA
DOCKED: BRANCH  28  29
DOCKED: ATOM     29  P   UNL d   1     -14.230 -19.322  -6.988 +0.01 +0.13    +0.473 P 
DOCKED: ATOM     30  O   UNL d   1     -15.386 -18.528  -7.480 +0.00 -0.05    -0.228 OA
DOCKED: BRANCH  29  31
DOCKED: ATOM     31  O   UNL d   1     -13.580 -20.369  -8.009 +0.00 -0.08    -0.303 OA
DOCKED: ATOM     32  H   UNL d   1     -13.059 -19.870  -8.680 +0.00 +0.07    +0.222 HD
DOCKED: ENDBRANCH  29  31
DOCKED: BRANCH  29  33
DOCKED: ATOM     33  O   UNL d   1     -14.465 -20.203  -5.683 +0.00 -0.08    -0.303 OA
DOCKED: ATOM     34  H   UNL d   1     -15.038 -19.699  -5.054 +0.00 +0.06    +0.222 HD
DOCKED: ENDBRANCH  29  33
DOCKED: ENDBRANCH  28  29
DOCKED: ENDBRANCH   3  28
DOCKED: BRANCH   5  35
DOCKED: ATOM     35  O   UNL d   1     -11.664 -17.130  -2.347 -0.09 -0.21    -0.278 OA
DOCKED: BRANCH  35  36
DOCKED: ATOM     36  P   UNL d   1     -12.238 -17.404  -0.884 -0.02 +0.34    +0.473 P 
DOCKED: ATOM     37  O   UNL d   1     -13.313 -16.469  -0.428 -0.04 -0.12    -0.228 OA
DOCKED: BRANCH  36  38
DOCKED: ATOM     38  O   UNL d   1     -12.697 -18.925  -0.994 -0.00 -0.16    -0.303 OA
DOCKED: ATOM     39  H   UNL d   1     -13.351 -19.011  -1.721 +0.01 +0.10    +0.222 HD
DOCKED: ENDBRANCH  36  38
DOCKED: BRANCH  36  40
DOCKED: ATOM     40  O   UNL d   1     -10.914 -17.466  -0.005 -0.51 -0.41    -0.303 OA
DOCKED: ATOM     41  H   UNL d   1     -10.198 -17.961  -0.461 +0.03 +0.43    +0.222 HD
DOCKED: ENDBRANCH  36  40
DOCKED: ENDBRANCH  35  36
DOCKED: ENDBRANCH   5  35
DOCKED: BRANCH   4  42
DOCKED: ATOM     42  O   UNL d   1     -13.626 -18.712  -3.808 +0.00 -0.10    -0.278 OA
DOCKED: BRANCH  42  43
DOCKED: ATOM     43  P   UNL d   1     -14.868 -17.753  -3.524 +0.01 +0.14    +0.473 P 
DOCKED: ATOM     44  O   UNL d   1     -16.019 -17.821  -4.467 -0.00 -0.06    -0.228 OA
DOCKED: BRANCH  43  45
DOCKED: ATOM     45  O   UNL d   1     -15.240 -18.102  -2.016 +0.00 -0.09    -0.303 OA
DOCKED: ATOM     46  H   UNL d   1     -14.544 -17.804  -1.397 +0.02 +0.08    +0.222 HD
DOCKED: ENDBRANCH  43  45
DOCKED: BRANCH  43  47
DOCKED: ATOM     47  O   UNL d   1     -14.188 -16.310  -3.366 -0.01 -0.11    -0.303 OA
DOCKED: ATOM     48  H   UNL d   1     -13.644 -16.297  -2.551 +0.04 +0.09    +0.222 HD
DOCKED: ENDBRANCH  43  47
DOCKED: ENDBRANCH  42  43
DOCKED: ENDBRANCH   4  42
DOCKED: TORSDOF 24
DOCKED: TER
DOCKED: ENDMDL
________________________________________________________________________________


	BEGINNING GENETIC ALGORITHM DOCKING 66 of 100
Run: 66 Seed: 1471979200 1157726360 [ Run 66 of 100 GA/GALS ]
Beginning LAMARCKIAN GENETIC ALGORITHM (LGA), with a maximum of 25000000 energy evaluations.

Final-Value: -20.525


	FINAL GENETIC ALGORITHM DOCKED STATE
	_______________________________________________


Detailed state:  trans -4.935 -11.673 15.097 quatxyzw -0.676619 0.462233 0.573143 0.005761 center 0.035 0.082 -0.065 ntor 24 -170.4777 -54.7167 105.4227 131.3541 -72.8409 179.7007 102.0507 -108.4237 62.2866 14.5695 -17.4409 -158.8309 -128.3004 95.5898 20.8554 -111.3854 151.7443 -20.7363 47.4612 0.7576 174.5058 11.6308 -4.3128 175.4293
State:	 -4.935 -11.673  15.097  -0.677  0.462  0.573 179.340   -170.48  -54.72  105.42  131.35  -72.84  179.70  102.05 -108.42   62.29   14.57  -17.44 -158.83 -128.30   95.59   20.86 -111.39  151.74  -20.74   47.46    0.76  174.51   11.63   -4.31  175.43

DOCKED: MODEL       66
DOCKED: USER    Run = 66
DOCKED: USER    DPF = D:/Protein_go_brrr/autodock/final/AncB/IHP/dock.dpf
DOCKED: USER  
DOCKED: USER    Estimated Free Energy of Binding    =   +1.72 kcal/mol  [=(1)+(2)+(3)-(4)]
DOCKED: USER    
DOCKED: USER    (1) Final Intermolecular Energy     =   -5.44 kcal/mol
DOCKED: USER        vdW + Hbond + desolv Energy     =   -5.10 kcal/mol
DOCKED: USER        Electrostatic Energy            =   -0.34 kcal/mol
DOCKED: USER    (2) Final Total Internal Energy     =  -15.09 kcal/mol
DOCKED: USER    (3) Torsional Free Energy           =   +7.16 kcal/mol
DOCKED: USER    (4) Unbound System's Energy  [=(2)] =  -15.09 kcal/mol
DOCKED: USER    
DOCKED: USER    
DOCKED: USER    NEWDPF move IHP_ideal_opt.pdbqt
DOCKED: USER    NEWDPF about 0.035000 0.082000 -0.065000
DOCKED: USER    NEWDPF tran0 -4.934960 -11.672822 15.096972
DOCKED: USER    NEWDPF quaternion0 -0.676619 0.462233 0.573143 0.005761
DOCKED: USER    NEWDPF axisangle0 -0.676631 0.462241 0.573153 179.339792
DOCKED: USER    NEWDPF quat0 -0.676631 0.462241 0.573153 179.339792
DOCKED: USER    NEWDPF dihe0 -170.48 -54.72 105.42 131.35 -72.84 179.70 102.05 -108.42 62.29 14.57 -17.44 -158.83 -128.30 95.59 20.86 -111.39 151.74 -20.74 47.46 0.76 174.51 11.63 -4.31 175.43 
DOCKED: USER  keepresnum = 1 
DOCKED: USER  
DOCKED: REMARK  24 active torsions:
DOCKED: REMARK  status: ('A' for Active; 'I' for Inactive)
DOCKED: REMARK    1  A    between atoms: C_1  and  O_7 
DOCKED: REMARK    2  A    between atoms: C_2  and  O_12 
DOCKED: REMARK    3  A    between atoms: C_3  and  O_17 
DOCKED: REMARK    4  A    between atoms: C_4  and  O_22 
DOCKED: REMARK    5  A    between atoms: C_5  and  O_27 
DOCKED: REMARK    6  A    between atoms: C_6  and  O_32 
DOCKED: REMARK    7  A    between atoms: O_7  and  P_8 
DOCKED: REMARK    8  A    between atoms: P_8  and  O_10 
DOCKED: REMARK    9  A    between atoms: P_8  and  O_11 
DOCKED: REMARK   10  A    between atoms: O_12  and  P_13 
DOCKED: REMARK   11  A    between atoms: P_13  and  O_15 
DOCKED: REMARK   12  A    between atoms: P_13  and  O_16 
DOCKED: REMARK   13  A    between atoms: O_17  and  P_18 
DOCKED: REMARK   14  A    between atoms: P_18  and  O_20 
DOCKED: REMARK   15  A    between atoms: P_18  and  O_21 
DOCKED: REMARK   16  A    between atoms: O_22  and  P_23 
DOCKED: REMARK   17  A    between atoms: P_23  and  O_25 
DOCKED: REMARK   18  A    between atoms: P_23  and  O_26 
DOCKED: REMARK   19  A    between atoms: O_27  and  P_28 
DOCKED: REMARK   20  A    between atoms: P_28  and  O_30 
DOCKED: REMARK   21  A    between atoms: P_28  and  O_31 
DOCKED: REMARK   22  A    between atoms: O_32  and  P_33 
DOCKED: REMARK   23  A    between atoms: P_33  and  O_35 
DOCKED: REMARK   24  A    between atoms: P_33  and  O_36 
DOCKED: USER                              x       y       z     vdW  Elec       q    Type
DOCKED: USER                           _______ _______ _______ _____ _____    ______ ____
DOCKED: ROOT
DOCKED: ATOM      1  C   UNL d   1      -5.109 -11.543  13.383 -0.13 +0.09    +0.194 C 
DOCKED: ATOM      2  C   UNL d   1      -4.218 -10.487  14.039 -0.12 +0.08    +0.194 C 
DOCKED: ATOM      3  C   UNL d   1      -4.833  -9.951  15.333 -0.11 +0.09    +0.194 C 
DOCKED: ATOM      4  C   UNL d   1      -5.234 -11.054  16.310 -0.04 +0.06    +0.194 C 
DOCKED: ATOM      5  C   UNL d   1      -6.028 -12.188  15.673 -0.04 +0.06    +0.194 C 
DOCKED: ATOM      6  C   UNL d   1      -5.447 -12.682  14.347 -0.05 +0.06    +0.194 C 
DOCKED: ENDROOT
DOCKED: BRANCH   1   7
DOCKED: ATOM      7  O   UNL d   1      -4.391 -12.113  12.285 -0.06 -0.10    -0.278 OA
DOCKED: BRANCH   7   8
DOCKED: ATOM      8  P   UNL d   1      -4.243 -11.253  10.947 -0.12 +0.18    +0.473 P 
DOCKED: ATOM      9  O   UNL d   1      -5.460 -11.202  10.092 -0.24 -0.11    -0.228 OA
DOCKED: BRANCH   8  10
DOCKED: ATOM     10  O   UNL d   1      -3.776  -9.816  11.461 -0.18 -0.12    -0.303 OA
DOCKED: ATOM     11  H   UNL d   1      -3.237  -9.917  12.267 +0.07 +0.07    +0.222 HD
DOCKED: ENDBRANCH   8  10
DOCKED: BRANCH   8  12
DOCKED: ATOM     12  O   UNL d   1      -2.926 -11.801  10.248 -0.05 -0.09    -0.303 OA
DOCKED: ATOM     13  H   UNL d   1      -2.141 -11.229  10.404 +0.06 +0.05    +0.222 HD
DOCKED: ENDBRANCH   8  12
DOCKED: ENDBRANCH   7   8
DOCKED: ENDBRANCH   1   7
DOCKED: BRANCH   2  14
DOCKED: ATOM     14  O   UNL d   1      -2.947 -11.073  14.346 -0.03 -0.06    -0.278 OA
DOCKED: BRANCH  14  15
DOCKED: ATOM     15  P   UNL d   1      -1.650 -10.239  13.912 -0.02 +0.08    +0.473 P 
DOCKED: ATOM     16  O   UNL d   1      -0.420 -10.430  14.742 -0.01 -0.02    -0.228 OA
DOCKED: BRANCH  15  17
DOCKED: ATOM     17  O   UNL d   1      -1.431 -10.631  12.383 -0.03 -0.05    -0.303 OA
DOCKED: ATOM     18  H   UNL d   1      -2.190 -11.138  12.038 +0.05 +0.05    +0.222 HD
DOCKED: ENDBRANCH  15  17
DOCKED: BRANCH  15  19
DOCKED: ATOM     19  O   UNL d   1      -2.167  -8.740  13.786 -0.11 -0.06    -0.303 OA
DOCKED: ATOM     20  H   UNL d   1      -2.356  -8.349  14.660 +0.06 +0.03    +0.222 HD
DOCKED: ENDBRANCH  15  19
DOCKED: ENDBRANCH  14  15
DOCKED: ENDBRANCH   2  14
DOCKED: BRANCH   6  21
DOCKED: ATOM     21  O   UNL d   1      -6.456 -13.472  13.723 -0.06 -0.10    -0.278 OA
DOCKED: BRANCH  21  22
DOCKED: ATOM     22  P   UNL d   1      -7.743 -12.764  13.100 -0.18 +0.27    +0.473 P 
DOCKED: ATOM     23  O   UNL d   1      -7.536 -11.624  12.161 -0.86 -0.19    -0.228 OA
DOCKED: BRANCH  22  24
DOCKED: ATOM     24  O   UNL d   1      -8.529 -14.003  12.482 -0.31 -0.14    -0.303 OA
DOCKED: ATOM     25  H   UNL d   1      -8.892 -13.730  11.602 -0.52 +0.09    +0.222 HD
DOCKED: ENDBRANCH  22  24
DOCKED: BRANCH  22  26
DOCKED: ATOM     26  O   UNL d   1      -8.607 -12.446  14.413 -0.29 -0.15    -0.303 OA
DOCKED: ATOM     27  H   UNL d   1      -8.084 -12.680  15.206 +0.07 +0.08    +0.222 HD
DOCKED: ENDBRANCH  22  26
DOCKED: ENDBRANCH  21  22
DOCKED: ENDBRANCH   6  21
DOCKED: BRANCH   3  28
DOCKED: ATOM     28  O   UNL d   1      -3.830  -9.199  16.005 -0.07 -0.06    -0.278 OA
DOCKED: BRANCH  28  29
DOCKED: ATOM     29  P   UNL d   1      -4.079  -7.668  16.366 -0.10 +0.02    +0.473 P 
DOCKED: ATOM     30  O   UNL d   1      -2.932  -6.757  16.120 -0.13 +0.00    -0.228 OA
DOCKED: BRANCH  29  31
DOCKED: ATOM     31  O   UNL d   1      -5.415  -7.397  15.528 -0.17 -0.05    -0.303 OA
DOCKED: ATOM     32  H   UNL d   1      -5.914  -6.667  15.961 -0.45 -0.31    +0.222 HD
DOCKED: ENDBRANCH  29  31
DOCKED: BRANCH  29  33
DOCKED: ATOM     33  O   UNL d   1      -4.616  -7.762  17.863 -0.04 +0.01    -0.303 OA
DOCKED: ATOM     34  H   UNL d   1      -5.335  -8.438  17.904 +0.04 +0.01    +0.222 HD
DOCKED: ENDBRANCH  29  33
DOCKED: ENDBRANCH  28  29
DOCKED: ENDBRANCH   3  28
DOCKED: BRANCH   5  35
DOCKED: ATOM     35  O   UNL d   1      -5.956 -13.275  16.593 -0.00 -0.06    -0.278 OA
DOCKED: BRANCH  35  36
DOCKED: ATOM     36  P   UNL d   1      -7.290 -13.979  17.112 +0.01 +0.08    +0.473 P 
DOCKED: ATOM     37  O   UNL d   1      -7.137 -14.833  18.330 -0.00 -0.03    -0.228 OA
DOCKED: BRANCH  36  38
DOCKED: ATOM     38  O   UNL d   1      -8.264 -12.734  17.303 -0.01 -0.06    -0.303 OA
DOCKED: ATOM     39  H   UNL d   1      -7.753 -11.905  17.178 +0.05 +0.05    +0.222 HD
DOCKED: ENDBRANCH  36  38
DOCKED: BRANCH  36  40
DOCKED: ATOM     40  O   UNL d   1      -7.832 -14.690  15.796 -0.03 -0.07    -0.303 OA
DOCKED: ATOM     41  H   UNL d   1      -7.538 -14.224  14.982 +0.05 +0.06    +0.222 HD
DOCKED: ENDBRANCH  36  40
DOCKED: ENDBRANCH  35  36
DOCKED: ENDBRANCH   5  35
DOCKED: BRANCH   4  42
DOCKED: ATOM     42  O   UNL d   1      -6.080 -10.449  17.294 -0.03 -0.07    -0.278 OA
DOCKED: BRANCH  42  43
DOCKED: ATOM     43  P   UNL d   1      -7.486  -9.848  16.838 -0.10 +0.20    +0.473 P 
DOCKED: ATOM     44  O   UNL d   1      -8.108 -10.413  15.608 -0.26 -0.17    -0.228 OA
DOCKED: BRANCH  43  45
DOCKED: ATOM     45  O   UNL d   1      -8.375 -10.007  18.148 -0.04 -0.04    -0.303 OA
DOCKED: ATOM     46  H   UNL d   1      -8.844 -10.865  18.161 +0.05 +0.03    +0.222 HD
DOCKED: ENDBRANCH  43  45
DOCKED: BRANCH  43  47
DOCKED: ATOM     47  O   UNL d   1      -7.219  -8.268  16.815 -0.60 -0.09    -0.303 OA
DOCKED: ATOM     48  H   UNL d   1      -6.254  -8.104  16.758 -0.02 +0.04    +0.222 HD
DOCKED: ENDBRANCH  43  47
DOCKED: ENDBRANCH  42  43
DOCKED: ENDBRANCH   4  42
DOCKED: TORSDOF 24
DOCKED: TER
DOCKED: ENDMDL
________________________________________________________________________________


	BEGINNING GENETIC ALGORITHM DOCKING 67 of 100
Run: 67 Seed: 309092659 1448253258 [ Run 67 of 100 GA/GALS ]
Beginning LAMARCKIAN GENETIC ALGORITHM (LGA), with a maximum of 25000000 energy evaluations.

Final-Value: -19.927


	FINAL GENETIC ALGORITHM DOCKED STATE
	_______________________________________________


Detailed state:  trans 2.277 -13.386 1.320 quatxyzw -0.253630 0.274244 -0.913579 0.160734 center 0.035 0.082 -0.065 ntor 24 161.5732 87.8971 112.9203 101.9345 77.3039 119.6224 -72.5260 3.2788 26.3380 94.4647 125.8944 -58.5673 -20.2326 108.8309 56.1506 149.2595 41.4225 35.0731 44.7098 -0.1045 178.5112 30.8099 40.7628 -167.7618
State:	  2.277 -13.386   1.320  -0.257  0.278 -0.926 161.501    161.57   87.90  112.92  101.93   77.30  119.62  -72.53    3.28   26.34   94.46  125.89  -58.57  -20.23  108.83   56.15  149.26   41.42   35.07   44.71   -0.10  178.51   30.81   40.76 -167.76

DOCKED: MODEL       67
DOCKED: USER    Run = 67
DOCKED: USER    DPF = D:/Protein_go_brrr/autodock/final/AncB/IHP/dock.dpf
DOCKED: USER  
DOCKED: USER    Estimated Free Energy of Binding    =   +0.35 kcal/mol  [=(1)+(2)+(3)-(4)]
DOCKED: USER    
DOCKED: USER    (1) Final Intermolecular Energy     =   -6.81 kcal/mol
DOCKED: USER        vdW + Hbond + desolv Energy     =   -6.71 kcal/mol
DOCKED: USER        Electrostatic Energy            =   -0.10 kcal/mol
DOCKED: USER    (2) Final Total Internal Energy     =  -13.11 kcal/mol
DOCKED: USER    (3) Torsional Free Energy           =   +7.16 kcal/mol
DOCKED: USER    (4) Unbound System's Energy  [=(2)] =  -13.11 kcal/mol
DOCKED: USER    
DOCKED: USER    
DOCKED: USER    NEWDPF move IHP_ideal_opt.pdbqt
DOCKED: USER    NEWDPF about 0.035000 0.082000 -0.065000
DOCKED: USER    NEWDPF tran0 2.277035 -13.385947 1.320310
DOCKED: USER    NEWDPF quaternion0 -0.253630 0.274244 -0.913579 0.160734
DOCKED: USER    NEWDPF axisangle0 -0.256971 0.277857 -0.925614 161.501004
DOCKED: USER    NEWDPF quat0 -0.256971 0.277857 -0.925614 161.501004
DOCKED: USER    NEWDPF dihe0 161.57 87.90 112.92 101.93 77.30 119.62 -72.53 3.28 26.34 94.46 125.89 -58.57 -20.23 108.83 56.15 149.26 41.42 35.07 44.71 -0.10 178.51 30.81 40.76 -167.76 
DOCKED: USER  keepresnum = 1 
DOCKED: USER  
DOCKED: REMARK  24 active torsions:
DOCKED: REMARK  status: ('A' for Active; 'I' for Inactive)
DOCKED: REMARK    1  A    between atoms: C_1  and  O_7 
DOCKED: REMARK    2  A    between atoms: C_2  and  O_12 
DOCKED: REMARK    3  A    between atoms: C_3  and  O_17 
DOCKED: REMARK    4  A    between atoms: C_4  and  O_22 
DOCKED: REMARK    5  A    between atoms: C_5  and  O_27 
DOCKED: REMARK    6  A    between atoms: C_6  and  O_32 
DOCKED: REMARK    7  A    between atoms: O_7  and  P_8 
DOCKED: REMARK    8  A    between atoms: P_8  and  O_10 
DOCKED: REMARK    9  A    between atoms: P_8  and  O_11 
DOCKED: REMARK   10  A    between atoms: O_12  and  P_13 
DOCKED: REMARK   11  A    between atoms: P_13  and  O_15 
DOCKED: REMARK   12  A    between atoms: P_13  and  O_16 
DOCKED: REMARK   13  A    between atoms: O_17  and  P_18 
DOCKED: REMARK   14  A    between atoms: P_18  and  O_20 
DOCKED: REMARK   15  A    between atoms: P_18  and  O_21 
DOCKED: REMARK   16  A    between atoms: O_22  and  P_23 
DOCKED: REMARK   17  A    between atoms: P_23  and  O_25 
DOCKED: REMARK   18  A    between atoms: P_23  and  O_26 
DOCKED: REMARK   19  A    between atoms: O_27  and  P_28 
DOCKED: REMARK   20  A    between atoms: P_28  and  O_30 
DOCKED: REMARK   21  A    between atoms: P_28  and  O_31 
DOCKED: REMARK   22  A    between atoms: O_32  and  P_33 
DOCKED: REMARK   23  A    between atoms: P_33  and  O_35 
DOCKED: REMARK   24  A    between atoms: P_33  and  O_36 
DOCKED: USER                              x       y       z     vdW  Elec       q    Type
DOCKED: USER                           _______ _______ _______ _____ _____    ______ ____
DOCKED: ROOT
DOCKED: ATOM      1  C   UNL d   1       1.931 -12.945   2.954 -0.17 +0.04    +0.194 C 
DOCKED: ATOM      2  C   UNL d   1       3.164 -12.281   2.337 -0.16 +0.01    +0.194 C 
DOCKED: ATOM      3  C   UNL d   1       4.001 -13.278   1.534 -0.12 +0.00    +0.194 C 
DOCKED: ATOM      4  C   UNL d   1       3.186 -14.054   0.502 -0.12 +0.03    +0.194 C 
DOCKED: ATOM      5  C   UNL d   1       1.889 -14.638   1.048 -0.14 +0.04    +0.194 C 
DOCKED: ATOM      6  C   UNL d   1       1.081 -13.659   1.902 -0.24 +0.06    +0.194 C 
DOCKED: ENDROOT
DOCKED: BRANCH   1   7
DOCKED: ATOM      7  O   UNL d   1       1.119 -11.922   3.536 -0.20 -0.07    -0.278 OA
DOCKED: BRANCH   7   8
DOCKED: ATOM      8  P   UNL d   1       1.555 -11.317   4.949 -0.14 +0.07    +0.473 P 
DOCKED: ATOM      9  O   UNL d   1       3.023 -11.288   5.196 -0.07 -0.02    -0.228 OA
DOCKED: BRANCH   8  10
DOCKED: ATOM     10  O   UNL d   1       0.885  -9.870   4.973 -0.23 -0.02    -0.303 OA
DOCKED: ATOM     11  H   UNL d   1       0.344  -9.746   4.171 -0.46 +0.00    +0.222 HD
DOCKED: ENDBRANCH   8  10
DOCKED: BRANCH   8  12
DOCKED: ATOM     12  O   UNL d   1       0.687 -12.104   6.021 -0.11 -0.06    -0.303 OA
DOCKED: ATOM     13  H   UNL d   1       0.631 -13.069   5.839 +0.05 +0.05    +0.222 HD
DOCKED: ENDBRANCH   8  12
DOCKED: ENDBRANCH   7   8
DOCKED: ENDBRANCH   1   7
DOCKED: BRANCH   2  14
DOCKED: ATOM     14  O   UNL d   1       2.738 -11.231   1.460 -0.42 -0.04    -0.278 OA
DOCKED: BRANCH  14  15
DOCKED: ATOM     15  P   UNL d   1       3.466  -9.815   1.634 -0.33 -0.04    +0.473 P 
DOCKED: ATOM     16  O   UNL d   1       3.302  -8.834   0.515 -0.51 +0.04    -0.228 OA
DOCKED: BRANCH  15  17
DOCKED: ATOM     17  O   UNL d   1       2.915  -9.264   3.023 -0.23 -0.02    -0.303 OA
DOCKED: ATOM     18  H   UNL d   1       2.513  -9.980   3.551 +0.14 +0.02    +0.222 HD
DOCKED: ENDBRANCH  15  17
DOCKED: BRANCH  15  19
DOCKED: ATOM     19  O   UNL d   1       4.967 -10.183   2.009 -0.31 +0.14    -0.303 OA
DOCKED: ATOM     20  H   UNL d   1       5.302 -10.922   1.469 +0.11 -0.12    +0.222 HD
DOCKED: ENDBRANCH  15  19
DOCKED: ENDBRANCH  14  15
DOCKED: ENDBRANCH   2  14
DOCKED: BRANCH   6  21
DOCKED: ATOM     21  O   UNL d   1       0.109 -14.430   2.604 -0.67 -0.14    -0.278 OA
DOCKED: BRANCH  21  22
DOCKED: ATOM     22  P   UNL d   1       0.550 -15.304   3.863 -0.04 +0.15    +0.473 P 
DOCKED: ATOM     23  O   UNL d   1       0.586 -14.645   5.201 -0.06 -0.06    -0.228 OA
DOCKED: BRANCH  22  24
DOCKED: ATOM     24  O   UNL d   1      -0.439 -16.547   3.759 -0.04 -0.11    -0.303 OA
DOCKED: ATOM     25  H   UNL d   1      -0.889 -16.510   2.877 +0.06 +0.09    +0.222 HD
DOCKED: ENDBRANCH  22  24
DOCKED: BRANCH  22  26
DOCKED: ATOM     26  O   UNL d   1       1.932 -15.937   3.353 -0.01 -0.05    -0.303 OA
DOCKED: ATOM     27  H   UNL d   1       1.780 -16.397   2.502 +0.03 +0.04    +0.222 HD
DOCKED: ENDBRANCH  22  26
DOCKED: ENDBRANCH  21  22
DOCKED: ENDBRANCH   6  21
DOCKED: BRANCH   3  28
DOCKED: ATOM     28  O   UNL d   1       4.950 -12.532   0.781 -0.23 +0.04    -0.278 OA
DOCKED: BRANCH  28  29
DOCKED: ATOM     29  P   UNL d   1       6.434 -13.077   0.592 -0.15 -0.16    +0.473 P 
DOCKED: ATOM     30  O   UNL d   1       6.883 -13.239  -0.815 -0.23 +0.07    -0.228 OA
DOCKED: BRANCH  29  31
DOCKED: ATOM     31  O   UNL d   1       7.235 -12.025   1.493 -0.10 +0.32    -0.303 OA
DOCKED: ATOM     32  H   UNL d   1       6.683 -11.216   1.597 -0.42 -0.31    +0.222 HD
DOCKED: ENDBRANCH  29  31
DOCKED: BRANCH  29  33
DOCKED: ATOM     33  O   UNL d   1       6.428 -14.385   1.500 -0.02 +0.05    -0.303 OA
DOCKED: ATOM     34  H   UNL d   1       5.765 -15.023   1.140 +0.04 -0.02    +0.222 HD
DOCKED: ENDBRANCH  29  33
DOCKED: ENDBRANCH  28  29
DOCKED: ENDBRANCH   3  28
DOCKED: BRANCH   5  35
DOCKED: ATOM     35  O   UNL d   1       1.095 -14.951  -0.095 -0.16 -0.06    -0.278 OA
DOCKED: BRANCH  35  36
DOCKED: ATOM     36  P   UNL d   1      -0.261 -15.775   0.069 -0.20 +0.12    +0.473 P 
DOCKED: ATOM     37  O   UNL d   1      -1.474 -14.962   0.390 -0.37 -0.07    -0.228 OA
DOCKED: BRANCH  36  38
DOCKED: ATOM     38  O   UNL d   1      -0.341 -16.550  -1.320 -0.25 -0.03    -0.303 OA
DOCKED: ATOM     39  H   UNL d   1      -0.110 -15.933  -2.046 -0.18 -0.05    +0.222 HD
DOCKED: ENDBRANCH  36  38
DOCKED: BRANCH  36  40
DOCKED: ATOM     40  O   UNL d   1       0.150 -16.901   1.114 -0.04 -0.08    -0.303 OA
DOCKED: ATOM     41  H   UNL d   1       0.557 -16.518   1.922 +0.05 +0.05    +0.222 HD
DOCKED: ENDBRANCH  36  40
DOCKED: ENDBRANCH  35  36
DOCKED: ENDBRANCH   5  35
DOCKED: BRANCH   4  42
DOCKED: ATOM     42  O   UNL d   1       3.997 -15.155   0.077 -0.07 -0.01    -0.278 OA
DOCKED: BRANCH  42  43
DOCKED: ATOM     43  P   UNL d   1       4.059 -16.464   0.987 +0.00 +0.01    +0.473 P 
DOCKED: ATOM     44  O   UNL d   1       2.937 -17.436   0.870 -0.01 -0.01    -0.228 OA
DOCKED: BRANCH  43  45
DOCKED: ATOM     45  O   UNL d   1       5.486 -17.070   0.629 -0.00 +0.01    -0.303 OA
DOCKED: ATOM     46  H   UNL d   1       6.195 -16.405   0.735 +0.02 -0.01    +0.222 HD
DOCKED: ENDBRANCH  43  45
DOCKED: BRANCH  43  47
DOCKED: ATOM     47  O   UNL d   1       4.315 -15.876   2.456 -0.00 -0.01    -0.303 OA
DOCKED: ATOM     48  H   UNL d   1       3.580 -16.148   3.045 +0.02 +0.02    +0.222 HD
DOCKED: ENDBRANCH  43  47
DOCKED: ENDBRANCH  42  43
DOCKED: ENDBRANCH   4  42
DOCKED: TORSDOF 24
DOCKED: TER
DOCKED: ENDMDL
________________________________________________________________________________


	BEGINNING GENETIC ALGORITHM DOCKING 68 of 100
Run: 68 Seed: 1689385623 1235739664 [ Run 68 of 100 GA/GALS ]
Beginning LAMARCKIAN GENETIC ALGORITHM (LGA), with a maximum of 25000000 energy evaluations.

Final-Value: -18.989


	FINAL GENETIC ALGORITHM DOCKED STATE
	_______________________________________________


Detailed state:  trans -2.788 19.334 -0.398 quatxyzw -0.314506 0.553271 -0.744963 0.200018 center 0.035 0.082 -0.065 ntor 24 87.1776 -54.6174 117.1243 113.2359 96.5315 147.3135 -129.9070 52.6874 29.2313 8.7448 156.5388 115.4487 -135.8928 109.4778 -117.4502 41.8555 175.6506 66.9150 35.1075 -6.4537 -4.3697 165.5947 -21.6554 -20.3602
State:	 -2.788  19.334  -0.398  -0.321  0.565 -0.760 156.924     87.18  -54.62  117.12  113.24   96.53  147.31 -129.91   52.69   29.23    8.74  156.54  115.45 -135.89  109.48 -117.45   41.86  175.65   66.91   35.11   -6.45   -4.37  165.59  -21.66  -20.36

DOCKED: MODEL       68
DOCKED: USER    Run = 68
DOCKED: USER    DPF = D:/Protein_go_brrr/autodock/final/AncB/IHP/dock.dpf
DOCKED: USER  
DOCKED: USER    Estimated Free Energy of Binding    =   +2.78 kcal/mol  [=(1)+(2)+(3)-(4)]
DOCKED: USER    
DOCKED: USER    (1) Final Intermolecular Energy     =   -4.38 kcal/mol
DOCKED: USER        vdW + Hbond + desolv Energy     =   -2.94 kcal/mol
DOCKED: USER        Electrostatic Energy            =   -1.44 kcal/mol
DOCKED: USER    (2) Final Total Internal Energy     =  -14.60 kcal/mol
DOCKED: USER    (3) Torsional Free Energy           =   +7.16 kcal/mol
DOCKED: USER    (4) Unbound System's Energy  [=(2)] =  -14.60 kcal/mol
DOCKED: USER    
DOCKED: USER    
DOCKED: USER    NEWDPF move IHP_ideal_opt.pdbqt
DOCKED: USER    NEWDPF about 0.035000 0.082000 -0.065000
DOCKED: USER    NEWDPF tran0 -2.788126 19.334295 -0.398053
DOCKED: USER    NEWDPF quaternion0 -0.314506 0.553271 -0.744963 0.200018
DOCKED: USER    NEWDPF axisangle0 -0.320993 0.564682 -0.760327 156.924012
DOCKED: USER    NEWDPF quat0 -0.320993 0.564682 -0.760327 156.924012
DOCKED: USER    NEWDPF dihe0 87.18 -54.62 117.12 113.24 96.53 147.31 -129.91 52.69 29.23 8.74 156.54 115.45 -135.89 109.48 -117.45 41.86 175.65 66.91 35.11 -6.45 -4.37 165.59 -21.66 -20.36 
DOCKED: USER  keepresnum = 1 
DOCKED: USER  
DOCKED: REMARK  24 active torsions:
DOCKED: REMARK  status: ('A' for Active; 'I' for Inactive)
DOCKED: REMARK    1  A    between atoms: C_1  and  O_7 
DOCKED: REMARK    2  A    between atoms: C_2  and  O_12 
DOCKED: REMARK    3  A    between atoms: C_3  and  O_17 
DOCKED: REMARK    4  A    between atoms: C_4  and  O_22 
DOCKED: REMARK    5  A    between atoms: C_5  and  O_27 
DOCKED: REMARK    6  A    between atoms: C_6  and  O_32 
DOCKED: REMARK    7  A    between atoms: O_7  and  P_8 
DOCKED: REMARK    8  A    between atoms: P_8  and  O_10 
DOCKED: REMARK    9  A    between atoms: P_8  and  O_11 
DOCKED: REMARK   10  A    between atoms: O_12  and  P_13 
DOCKED: REMARK   11  A    between atoms: P_13  and  O_15 
DOCKED: REMARK   12  A    between atoms: P_13  and  O_16 
DOCKED: REMARK   13  A    between atoms: O_17  and  P_18 
DOCKED: REMARK   14  A    between atoms: P_18  and  O_20 
DOCKED: REMARK   15  A    between atoms: P_18  and  O_21 
DOCKED: REMARK   16  A    between atoms: O_22  and  P_23 
DOCKED: REMARK   17  A    between atoms: P_23  and  O_25 
DOCKED: REMARK   18  A    between atoms: P_23  and  O_26 
DOCKED: REMARK   19  A    between atoms: O_27  and  P_28 
DOCKED: REMARK   20  A    between atoms: P_28  and  O_30 
DOCKED: REMARK   21  A    between atoms: P_28  and  O_31 
DOCKED: REMARK   22  A    between atoms: O_32  and  P_33 
DOCKED: REMARK   23  A    between atoms: P_33  and  O_35 
DOCKED: REMARK   24  A    between atoms: P_33  and  O_36 
DOCKED: USER                              x       y       z     vdW  Elec       q    Type
DOCKED: USER                           _______ _______ _______ _____ _____    ______ ____
DOCKED: ROOT
DOCKED: ATOM      1  C   UNL d   1      -2.924  18.793   1.237 -0.05 -0.26    +0.194 C 
DOCKED: ATOM      2  C   UNL d   1      -1.594  19.454   0.867 -0.05 -0.24    +0.194 C 
DOCKED: ATOM      3  C   UNL d   1      -1.086  18.981  -0.496 -0.05 -0.21    +0.194 C 
DOCKED: ATOM      4  C   UNL d   1      -2.126  19.117  -1.606 -0.09 -0.11    +0.194 C 
DOCKED: ATOM      5  C   UNL d   1      -3.501  18.574  -1.237 -0.11 -0.19    +0.194 C 
DOCKED: ATOM      6  C   UNL d   1      -3.982  18.997   0.152 -0.10 -0.18    +0.194 C 
DOCKED: ENDROOT
DOCKED: BRANCH   1   7
DOCKED: ATOM      7  O   UNL d   1      -3.412  19.411   2.430 -0.06 +0.22    -0.278 OA
DOCKED: BRANCH   7   8
DOCKED: ATOM      8  P   UNL d   1      -2.934  18.826   3.838 -0.03 -0.39    +0.473 P 
DOCKED: ATOM      9  O   UNL d   1      -3.717  17.663   4.337 -0.09 +0.17    -0.228 OA
DOCKED: BRANCH   8  10
DOCKED: ATOM     10  O   UNL d   1      -1.390  18.495   3.615 -0.09 +0.44    -0.303 OA
DOCKED: ATOM     11  H   UNL d   1      -1.303  17.726   3.021 -0.47 -0.65    +0.222 HD
DOCKED: ENDBRANCH   8  10
DOCKED: BRANCH   8  12
DOCKED: ATOM     12  O   UNL d   1      -2.868  20.084   4.806 -0.00 +0.12    -0.303 OA
DOCKED: ATOM     13  H   UNL d   1      -1.955  20.433   4.924 +0.02 -0.09    +0.222 HD
DOCKED: ENDBRANCH   8  12
DOCKED: ENDBRANCH   7   8
DOCKED: ENDBRANCH   1   7
DOCKED: BRANCH   2  14
DOCKED: ATOM     14  O   UNL d   1      -1.776  20.875   0.819 -0.02 +0.15    -0.278 OA
DOCKED: BRANCH  14  15
DOCKED: ATOM     15  P   UNL d   1      -0.795  21.753   1.730 -0.00 -0.19    +0.473 P 
DOCKED: ATOM     16  O   UNL d   1      -0.736  23.219   1.434 +0.00 +0.04    -0.228 OA
DOCKED: BRANCH  15  17
DOCKED: ATOM     17  O   UNL d   1      -1.266  21.443   3.219 -0.00 +0.12    -0.303 OA
DOCKED: ATOM     18  H   UNL d   1      -1.756  20.599   3.264 +0.02 -0.12    +0.222 HD
DOCKED: ENDBRANCH  15  17
DOCKED: BRANCH  15  19
DOCKED: ATOM     19  O   UNL d   1       0.597  20.985   1.668 -0.03 +0.18    -0.303 OA
DOCKED: ATOM     20  H   UNL d   1       0.883  20.830   0.749 +0.01 -0.13    +0.222 HD
DOCKED: ENDBRANCH  15  19
DOCKED: ENDBRANCH  14  15
DOCKED: ENDBRANCH   2  14
DOCKED: BRANCH   6  21
DOCKED: ATOM     21  O   UNL d   1      -5.085  18.155   0.481 -0.07 +0.37    -0.278 OA
DOCKED: BRANCH  21  22
DOCKED: ATOM     22  P   UNL d   1      -6.567  18.746   0.460 -0.03 -0.33    +0.473 P 
DOCKED: ATOM     23  O   UNL d   1      -7.081  19.401   1.697 -0.02 +0.08    -0.228 OA
DOCKED: BRANCH  22  24
DOCKED: ATOM     24  O   UNL d   1      -6.525  19.684  -0.825 -0.02 +0.14    -0.303 OA
DOCKED: ATOM     25  H   UNL d   1      -5.883  19.293  -1.471 +0.02 -0.14    +0.222 HD
DOCKED: ENDBRANCH  22  24
DOCKED: BRANCH  22  26
DOCKED: ATOM     26  O   UNL d   1      -7.410  17.491  -0.074 -0.07 +0.29    -0.303 OA
DOCKED: ATOM     27  H   UNL d   1      -6.830  16.922  -0.619 -0.30 -0.47    +0.222 HD
DOCKED: ENDBRANCH  22  26
DOCKED: ENDBRANCH  21  22
DOCKED: ENDBRANCH   6  21
DOCKED: BRANCH   3  28
DOCKED: ATOM     28  O   UNL d   1      -0.016  19.837  -0.875 -0.06 +0.17    -0.278 OA
DOCKED: BRANCH  28  29
DOCKED: ATOM     29  P   UNL d   1      -0.315  21.232  -1.583 +0.01 -0.10    +0.473 P 
DOCKED: ATOM     30  O   UNL d   1      -1.714  21.719  -1.476 -0.00 +0.04    -0.228 OA
DOCKED: BRANCH  29  31
DOCKED: ATOM     31  O   UNL d   1       0.821  22.136  -0.909 +0.00 +0.06    -0.303 OA
DOCKED: ATOM     32  H   UNL d   1       0.529  22.383  -0.001 +0.01 -0.05    +0.222 HD
DOCKED: ENDBRANCH  29  31
DOCKED: BRANCH  29  33
DOCKED: ATOM     33  O   UNL d   1       0.253  20.991  -3.051 +0.00 -0.00    -0.303 OA
DOCKED: ATOM     34  H   UNL d   1      -0.502  20.970  -3.688 +0.02 +0.02    +0.222 HD
DOCKED: ENDBRANCH  29  33
DOCKED: ENDBRANCH  28  29
DOCKED: ENDBRANCH   3  28
DOCKED: BRANCH   5  35
DOCKED: ATOM     35  O   UNL d   1      -4.406  19.137  -2.184 -0.05 +0.17    -0.278 OA
DOCKED: BRANCH  35  36
DOCKED: ATOM     36  P   UNL d   1      -5.065  18.220  -3.312 -0.01 -0.30    +0.473 P 
DOCKED: ATOM     37  O   UNL d   1      -5.177  18.845  -4.666 -0.02 +0.04    -0.228 OA
DOCKED: BRANCH  36  38
DOCKED: ATOM     38  O   UNL d   1      -4.138  16.926  -3.262 -0.16 +0.31    -0.303 OA
DOCKED: ATOM     39  H   UNL d   1      -3.203  17.205  -3.156 +0.07 -0.12    +0.222 HD
DOCKED: ENDBRANCH  36  38
DOCKED: BRANCH  36  40
DOCKED: ATOM     40  O   UNL d   1      -6.417  17.749  -2.620 -0.05 +0.31    -0.303 OA
DOCKED: ATOM     41  H   UNL d   1      -6.312  17.646  -1.648 -0.45 -0.38    +0.222 HD
DOCKED: ENDBRANCH  36  40
DOCKED: ENDBRANCH  35  36
DOCKED: ENDBRANCH   5  35
DOCKED: BRANCH   4  42
DOCKED: ATOM     42  O   UNL d   1      -1.653  18.346  -2.715 -0.13 +0.03    -0.278 OA
DOCKED: BRANCH  42  43
DOCKED: ATOM     43  P   UNL d   1      -1.645  19.007  -4.166 +0.03 +0.28    +0.473 P 
DOCKED: ATOM     44  O   UNL d   1      -0.320  19.276  -4.791 -0.06 -0.22    -0.228 OA
DOCKED: BRANCH  43  45
DOCKED: ATOM     45  O   UNL d   1      -2.571  18.021  -5.004 -0.47 -0.34    -0.303 OA
DOCKED: ATOM     46  H   UNL d   1      -3.518  18.234  -4.888 +0.05 +0.05    +0.222 HD
DOCKED: ENDBRANCH  43  45
DOCKED: BRANCH  43  47
DOCKED: ATOM     47  O   UNL d   1      -2.600  20.282  -3.993 -0.00 -0.02    -0.303 OA
DOCKED: ATOM     48  H   UNL d   1      -3.513  19.979  -3.808 +0.03 -0.01    +0.222 HD
DOCKED: ENDBRANCH  43  47
DOCKED: ENDBRANCH  42  43
DOCKED: ENDBRANCH   4  42
DOCKED: TORSDOF 24
DOCKED: TER
DOCKED: ENDMDL
________________________________________________________________________________


	BEGINNING GENETIC ALGORITHM DOCKING 69 of 100
Run: 69 Seed: 1293082542 598766736 [ Run 69 of 100 GA/GALS ]
Beginning LAMARCKIAN GENETIC ALGORITHM (LGA), with a maximum of 25000000 energy evaluations.

Final-Value: -20.090


	FINAL GENETIC ALGORITHM DOCKED STATE
	_______________________________________________


Detailed state:  trans 12.513 -5.494 -14.281 quatxyzw 0.925101 -0.236783 0.109901 -0.275762 center 0.035 0.082 -0.065 ntor 24 92.8237 107.7598 26.2009 31.9385 24.8880 -157.8540 -88.1355 -24.0270 10.6374 -171.6148 148.4851 144.8768 -45.2089 174.5755 -60.4104 43.9793 -106.3384 -172.1122 51.1073 -9.5722 -178.9385 -8.7452 -2.6720 22.3469
State:	 12.513  -5.494 -14.281   0.962 -0.246  0.114 -147.985     92.82  107.76   26.20   31.94   24.89 -157.85  -88.14  -24.03   10.64 -171.61  148.49  144.88  -45.21  174.58  -60.41   43.98 -106.34 -172.11   51.11   -9.57 -178.94   -8.75   -2.67   22.35

DOCKED: MODEL       69
DOCKED: USER    Run = 69
DOCKED: USER    DPF = D:/Protein_go_brrr/autodock/final/AncB/IHP/dock.dpf
DOCKED: USER  
DOCKED: USER    Estimated Free Energy of Binding    =   +1.90 kcal/mol  [=(1)+(2)+(3)-(4)]
DOCKED: USER    
DOCKED: USER    (1) Final Intermolecular Energy     =   -5.26 kcal/mol
DOCKED: USER        vdW + Hbond + desolv Energy     =   -5.01 kcal/mol
DOCKED: USER        Electrostatic Energy            =   -0.25 kcal/mol
DOCKED: USER    (2) Final Total Internal Energy     =  -14.83 kcal/mol
DOCKED: USER    (3) Torsional Free Energy           =   +7.16 kcal/mol
DOCKED: USER    (4) Unbound System's Energy  [=(2)] =  -14.83 kcal/mol
DOCKED: USER    
DOCKED: USER    
DOCKED: USER    NEWDPF move IHP_ideal_opt.pdbqt
DOCKED: USER    NEWDPF about 0.035000 0.082000 -0.065000
DOCKED: USER    NEWDPF tran0 12.512930 -5.493857 -14.280776
DOCKED: USER    NEWDPF quaternion0 0.925101 -0.236783 0.109901 -0.275762
DOCKED: USER    NEWDPF axisangle0 0.962417 -0.246334 0.114335 -147.985147
DOCKED: USER    NEWDPF quat0 0.962417 -0.246334 0.114335 -147.985147
DOCKED: USER    NEWDPF dihe0 92.82 107.76 26.20 31.94 24.89 -157.85 -88.14 -24.03 10.64 -171.61 148.49 144.88 -45.21 174.58 -60.41 43.98 -106.34 -172.11 51.11 -9.57 -178.94 -8.75 -2.67 22.35 
DOCKED: USER  keepresnum = 1 
DOCKED: USER  
DOCKED: REMARK  24 active torsions:
DOCKED: REMARK  status: ('A' for Active; 'I' for Inactive)
DOCKED: REMARK    1  A    between atoms: C_1  and  O_7 
DOCKED: REMARK    2  A    between atoms: C_2  and  O_12 
DOCKED: REMARK    3  A    between atoms: C_3  and  O_17 
DOCKED: REMARK    4  A    between atoms: C_4  and  O_22 
DOCKED: REMARK    5  A    between atoms: C_5  and  O_27 
DOCKED: REMARK    6  A    between atoms: C_6  and  O_32 
DOCKED: REMARK    7  A    between atoms: O_7  and  P_8 
DOCKED: REMARK    8  A    between atoms: P_8  and  O_10 
DOCKED: REMARK    9  A    between atoms: P_8  and  O_11 
DOCKED: REMARK   10  A    between atoms: O_12  and  P_13 
DOCKED: REMARK   11  A    between atoms: P_13  and  O_15 
DOCKED: REMARK   12  A    between atoms: P_13  and  O_16 
DOCKED: REMARK   13  A    between atoms: O_17  and  P_18 
DOCKED: REMARK   14  A    between atoms: P_18  and  O_20 
DOCKED: REMARK   15  A    between atoms: P_18  and  O_21 
DOCKED: REMARK   16  A    between atoms: O_22  and  P_23 
DOCKED: REMARK   17  A    between atoms: P_23  and  O_25 
DOCKED: REMARK   18  A    between atoms: P_23  and  O_26 
DOCKED: REMARK   19  A    between atoms: O_27  and  P_28 
DOCKED: REMARK   20  A    between atoms: P_28  and  O_30 
DOCKED: REMARK   21  A    between atoms: P_28  and  O_31 
DOCKED: REMARK   22  A    between atoms: O_32  and  P_33 
DOCKED: REMARK   23  A    between atoms: P_33  and  O_35 
DOCKED: REMARK   24  A    between atoms: P_33  and  O_36 
DOCKED: USER                              x       y       z     vdW  Elec       q    Type
DOCKED: USER                           _______ _______ _______ _____ _____    ______ ____
DOCKED: ROOT
DOCKED: ATOM      1  C   UNL d   1      14.096  -5.758 -14.921 -0.07 +0.05    +0.194 C 
DOCKED: ATOM      2  C   UNL d   1      13.392  -4.488 -15.402 -0.11 +0.04    +0.194 C 
DOCKED: ATOM      3  C   UNL d   1      11.922  -4.748 -15.738 -0.11 +0.03    +0.194 C 
DOCKED: ATOM      4  C   UNL d   1      11.159  -5.438 -14.610 -0.20 +0.04    +0.194 C 
DOCKED: ATOM      5  C   UNL d   1      11.880  -6.644 -14.021 -0.16 +0.07    +0.194 C 
DOCKED: ATOM      6  C   UNL d   1      13.365  -6.403 -13.742 -0.14 +0.08    +0.194 C 
DOCKED: ENDROOT
DOCKED: BRANCH   1   7
DOCKED: ATOM      7  O   UNL d   1      15.403  -5.399 -14.467 -0.04 -0.08    -0.278 OA
DOCKED: BRANCH   7   8
DOCKED: ATOM      8  P   UNL d   1      16.495  -4.979 -15.554 +0.00 +0.10    +0.473 P 
DOCKED: ATOM      9  O   UNL d   1      15.986  -4.861 -16.947 -0.01 -0.04    -0.228 OA
DOCKED: BRANCH   8  10
DOCKED: ATOM     10  O   UNL d   1      17.099  -3.614 -14.988 -0.01 -0.06    -0.303 OA
DOCKED: ATOM     11  H   UNL d   1      16.406  -2.928 -14.982 +0.03 +0.05    +0.222 HD
DOCKED: ENDBRANCH   8  10
DOCKED: BRANCH   8  12
DOCKED: ATOM     12  O   UNL d   1      17.702  -5.990 -15.339 -0.00 -0.06    -0.303 OA
DOCKED: ATOM     13  H   UNL d   1      17.453  -6.927 -15.506 +0.01 +0.04    +0.222 HD
DOCKED: ENDBRANCH   8  12
DOCKED: ENDBRANCH   7   8
DOCKED: ENDBRANCH   1   7
DOCKED: BRANCH   2  14
DOCKED: ATOM     14  O   UNL d   1      13.456  -3.498 -14.367 -0.16 -0.08    -0.278 OA
DOCKED: BRANCH  14  15
DOCKED: ATOM     15  P   UNL d   1      14.156  -2.109 -14.748 -0.08 +0.12    +0.473 P 
DOCKED: ATOM     16  O   UNL d   1      15.210  -1.610 -13.811 -0.15 -0.07    -0.228 OA
DOCKED: BRANCH  15  17
DOCKED: ATOM     17  O   UNL d   1      14.703  -2.343 -16.226 -0.04 -0.07    -0.303 OA
DOCKED: ATOM     18  H   UNL d   1      15.446  -2.976 -16.230 +0.03 +0.05    +0.222 HD
DOCKED: ENDBRANCH  15  17
DOCKED: BRANCH  15  19
DOCKED: ATOM     19  O   UNL d   1      12.943  -1.113 -15.010 -0.18 -0.05    -0.303 OA
DOCKED: ATOM     20  H   UNL d   1      12.147  -1.586 -15.314 -0.48 -0.01    +0.222 HD
DOCKED: ENDBRANCH  15  19
DOCKED: ENDBRANCH  14  15
DOCKED: ENDBRANCH   2  14
DOCKED: BRANCH   6  21
DOCKED: ATOM     21  O   UNL d   1      13.958  -7.683 -13.533 -0.07 -0.12    -0.278 OA
DOCKED: BRANCH  21  22
DOCKED: ATOM     22  P   UNL d   1      14.311  -8.607 -14.785 +0.01 +0.12    +0.473 P 
DOCKED: ATOM     23  O   UNL d   1      13.464  -8.491 -16.007 -0.01 -0.04    -0.228 OA
DOCKED: BRANCH  22  24
DOCKED: ATOM     24  O   UNL d   1      15.852  -8.279 -15.006 +0.00 -0.07    -0.303 OA
DOCKED: ATOM     25  H   UNL d   1      15.981  -7.304 -14.887 +0.02 +0.05    +0.222 HD
DOCKED: ENDBRANCH  22  24
DOCKED: BRANCH  22  26
DOCKED: ATOM     26  O   UNL d   1      14.375 -10.060 -14.110 -0.00 -0.07    -0.303 OA
DOCKED: ATOM     27  H   UNL d   1      13.786 -10.077 -13.328 +0.03 +0.07    +0.222 HD
DOCKED: ENDBRANCH  22  26
DOCKED: ENDBRANCH  21  22
DOCKED: ENDBRANCH   6  21
DOCKED: BRANCH   3  28
DOCKED: ATOM     28  O   UNL d   1      11.290  -3.484 -15.902 -0.14 -0.02    -0.278 OA
DOCKED: BRANCH  28  29
DOCKED: ATOM     29  P   UNL d   1      10.991  -2.918 -17.361 -0.07 +0.11    +0.473 P 
DOCKED: ATOM     30  O   UNL d   1      11.015  -3.922 -18.455 -0.03 -0.04    -0.228 OA
DOCKED: BRANCH  29  31
DOCKED: ATOM     31  O   UNL d   1       9.601  -2.171 -17.090 -0.14 -0.07    -0.303 OA
DOCKED: ATOM     32  H   UNL d   1       9.082  -2.700 -16.441 +0.07 +0.03    +0.222 HD
DOCKED: ENDBRANCH  29  31
DOCKED: BRANCH  29  33
DOCKED: ATOM     33  O   UNL d   1      12.024  -1.711 -17.469 -0.32 -0.14    -0.303 OA
DOCKED: ATOM     34  H   UNL d   1      12.854  -1.955 -16.991 +0.05 +0.06    +0.222 HD
DOCKED: ENDBRANCH  29  33
DOCKED: ENDBRANCH  28  29
DOCKED: ENDBRANCH   3  28
DOCKED: BRANCH   5  35
DOCKED: ATOM     35  O   UNL d   1      11.252  -6.895 -12.766 -0.26 -0.15    -0.278 OA
DOCKED: BRANCH  35  36
DOCKED: ATOM     36  P   UNL d   1      10.708  -8.353 -12.415 -0.22 +0.19    +0.473 P 
DOCKED: ATOM     37  O   UNL d   1       9.629  -8.871 -13.311 -0.25 -0.04    -0.228 OA
DOCKED: BRANCH  36  38
DOCKED: ATOM     38  O   UNL d   1      12.048  -9.215 -12.438 -0.11 -0.15    -0.303 OA
DOCKED: ATOM     39  H   UNL d   1      12.457  -9.148 -13.327 +0.06 +0.08    +0.222 HD
DOCKED: ENDBRANCH  36  38
DOCKED: BRANCH  36  40
DOCKED: ATOM     40  O   UNL d   1      10.363  -8.224 -10.868 -0.25 -0.21    -0.303 OA
DOCKED: ATOM     41  H   UNL d   1       9.589  -8.777 -10.620 -0.42 +0.01    +0.222 HD
DOCKED: ENDBRANCH  36  40
DOCKED: ENDBRANCH  35  36
DOCKED: ENDBRANCH   5  35
DOCKED: BRANCH   4  42
DOCKED: ATOM     42  O   UNL d   1       9.931  -5.913 -15.170 -0.10 -0.04    -0.278 OA
DOCKED: BRANCH  42  43
DOCKED: ATOM     43  P   UNL d   1       8.661  -4.948 -15.174 -0.16 +0.05    +0.473 P 
DOCKED: ATOM     44  O   UNL d   1       7.401  -5.467 -14.572 -0.28 +0.00    -0.228 OA
DOCKED: BRANCH  43  45
DOCKED: ATOM     45  O   UNL d   1       9.221  -3.631 -14.477 -0.22 -0.02    -0.303 OA
DOCKED: ATOM     46  H   UNL d   1       9.793  -3.121 -15.084 -0.32 -0.02    +0.222 HD
DOCKED: ENDBRANCH  43  45
DOCKED: BRANCH  43  47
DOCKED: ATOM     47  O   UNL d   1       8.557  -4.486 -16.705 -0.04 -0.04    -0.303 OA
DOCKED: ATOM     48  H   UNL d   1       9.459  -4.381 -17.073 +0.06 +0.03    +0.222 HD
DOCKED: ENDBRANCH  43  47
DOCKED: ENDBRANCH  42  43
DOCKED: ENDBRANCH   4  42
DOCKED: TORSDOF 24
DOCKED: TER
DOCKED: ENDMDL
________________________________________________________________________________


	BEGINNING GENETIC ALGORITHM DOCKING 70 of 100
Run: 70 Seed: 484649021 1150462086 [ Run 70 of 100 GA/GALS ]
Beginning LAMARCKIAN GENETIC ALGORITHM (LGA), with a maximum of 25000000 energy evaluations.

Final-Value: -18.227


	FINAL GENETIC ALGORITHM DOCKED STATE
	_______________________________________________


Detailed state:  trans -4.811 17.712 -7.592 quatxyzw 0.502795 0.535079 -0.510518 -0.447503 center 0.035 0.082 -0.065 ntor 24 46.5213 -84.4280 -155.6723 -22.6537 50.8765 107.6655 -30.7856 -131.3325 -8.7258 56.9556 121.8935 97.3629 -147.5591 170.0731 151.9729 -59.1283 -73.4778 -151.2879 -176.0717 25.6402 -3.7171 4.6156 -175.3184 10.7964
State:	 -4.811  17.712  -7.592   0.562  0.598 -0.571 -126.833     46.52  -84.43 -155.67  -22.65   50.88  107.67  -30.79 -131.33   -8.73   56.96  121.89   97.36 -147.56  170.07  151.97  -59.13  -73.48 -151.29 -176.07   25.64   -3.72    4.62 -175.32   10.80

DOCKED: MODEL       70
DOCKED: USER    Run = 70
DOCKED: USER    DPF = D:/Protein_go_brrr/autodock/final/AncB/IHP/dock.dpf
DOCKED: USER  
DOCKED: USER    Estimated Free Energy of Binding    =   +2.94 kcal/mol  [=(1)+(2)+(3)-(4)]
DOCKED: USER    
DOCKED: USER    (1) Final Intermolecular Energy     =   -4.22 kcal/mol
DOCKED: USER        vdW + Hbond + desolv Energy     =   -3.42 kcal/mol
DOCKED: USER        Electrostatic Energy            =   -0.80 kcal/mol
DOCKED: USER    (2) Final Total Internal Energy     =  -14.01 kcal/mol
DOCKED: USER    (3) Torsional Free Energy           =   +7.16 kcal/mol
DOCKED: USER    (4) Unbound System's Energy  [=(2)] =  -14.01 kcal/mol
DOCKED: USER    
DOCKED: USER    
DOCKED: USER    NEWDPF move IHP_ideal_opt.pdbqt
DOCKED: USER    NEWDPF about 0.035000 0.082000 -0.065000
DOCKED: USER    NEWDPF tran0 -4.810714 17.711633 -7.592175
DOCKED: USER    NEWDPF quaternion0 0.502795 0.535079 -0.510518 -0.447503
DOCKED: USER    NEWDPF axisangle0 0.562233 0.598333 -0.570869 -126.832762
DOCKED: USER    NEWDPF quat0 0.562233 0.598333 -0.570869 -126.832762
DOCKED: USER    NEWDPF dihe0 46.52 -84.43 -155.67 -22.65 50.88 107.67 -30.79 -131.33 -8.73 56.96 121.89 97.36 -147.56 170.07 151.97 -59.13 -73.48 -151.29 -176.07 25.64 -3.72 4.62 -175.32 10.80 
DOCKED: USER  keepresnum = 1 
DOCKED: USER  
DOCKED: REMARK  24 active torsions:
DOCKED: REMARK  status: ('A' for Active; 'I' for Inactive)
DOCKED: REMARK    1  A    between atoms: C_1  and  O_7 
DOCKED: REMARK    2  A    between atoms: C_2  and  O_12 
DOCKED: REMARK    3  A    between atoms: C_3  and  O_17 
DOCKED: REMARK    4  A    between atoms: C_4  and  O_22 
DOCKED: REMARK    5  A    between atoms: C_5  and  O_27 
DOCKED: REMARK    6  A    between atoms: C_6  and  O_32 
DOCKED: REMARK    7  A    between atoms: O_7  and  P_8 
DOCKED: REMARK    8  A    between atoms: P_8  and  O_10 
DOCKED: REMARK    9  A    between atoms: P_8  and  O_11 
DOCKED: REMARK   10  A    between atoms: O_12  and  P_13 
DOCKED: REMARK   11  A    between atoms: P_13  and  O_15 
DOCKED: REMARK   12  A    between atoms: P_13  and  O_16 
DOCKED: REMARK   13  A    between atoms: O_17  and  P_18 
DOCKED: REMARK   14  A    between atoms: P_18  and  O_20 
DOCKED: REMARK   15  A    between atoms: P_18  and  O_21 
DOCKED: REMARK   16  A    between atoms: O_22  and  P_23 
DOCKED: REMARK   17  A    between atoms: P_23  and  O_25 
DOCKED: REMARK   18  A    between atoms: P_23  and  O_26 
DOCKED: REMARK   19  A    between atoms: O_27  and  P_28 
DOCKED: REMARK   20  A    between atoms: P_28  and  O_30 
DOCKED: REMARK   21  A    between atoms: P_28  and  O_31 
DOCKED: REMARK   22  A    between atoms: O_32  and  P_33 
DOCKED: REMARK   23  A    between atoms: P_33  and  O_35 
DOCKED: REMARK   24  A    between atoms: P_33  and  O_36 
DOCKED: USER                              x       y       z     vdW  Elec       q    Type
DOCKED: USER                           _______ _______ _______ _____ _____    ______ ____
DOCKED: ROOT
DOCKED: ATOM      1  C   UNL d   1      -5.839  17.049  -8.812 -0.07 -0.02    +0.194 C 
DOCKED: ATOM      2  C   UNL d   1      -6.509  17.337  -7.467 -0.06 -0.02    +0.194 C 
DOCKED: ATOM      3  C   UNL d   1      -5.633  16.897  -6.292 -0.07 -0.09    +0.194 C 
DOCKED: ATOM      4  C   UNL d   1      -4.213  17.453  -6.360 -0.13 -0.02    +0.194 C 
DOCKED: ATOM      5  C   UNL d   1      -3.547  17.290  -7.720 -0.05 -0.01    +0.194 C 
DOCKED: ATOM      6  C   UNL d   1      -4.445  17.671  -8.899 -0.07 -0.01    +0.194 C 
DOCKED: ENDROOT
DOCKED: BRANCH   1   7
DOCKED: ATOM      7  O   UNL d   1      -6.635  17.640  -9.842 -0.00 -0.02    -0.278 OA
DOCKED: BRANCH   7   8
DOCKED: ATOM      8  P   UNL d   1      -6.842  19.224  -9.827 +0.02 +0.04    +0.473 P 
DOCKED: ATOM      9  O   UNL d   1      -8.097  19.690  -9.176 +0.00 -0.02    -0.228 OA
DOCKED: BRANCH   8  10
DOCKED: ATOM     10  O   UNL d   1      -5.524  19.780  -9.119 +0.01 -0.02    -0.303 OA
DOCKED: ATOM     11  H   UNL d   1      -5.753  20.148  -8.245 +0.01 +0.01    +0.222 HD
DOCKED: ENDBRANCH   8  10
DOCKED: BRANCH   8  12
DOCKED: ATOM     12  O   UNL d   1      -6.629  19.683 -11.333 +0.01 -0.03    -0.303 OA
DOCKED: ATOM     13  H   UNL d   1      -5.995  20.430 -11.422 +0.00 +0.02    +0.222 HD
DOCKED: ENDBRANCH   8  12
DOCKED: ENDBRANCH   7   8
DOCKED: ENDBRANCH   1   7
DOCKED: BRANCH   2  14
DOCKED: ATOM     14  O   UNL d   1      -6.748  18.746  -7.357 +0.00 +0.00    -0.278 OA
DOCKED: BRANCH  14  15
DOCKED: ATOM     15  P   UNL d   1      -7.902  19.199  -6.343 +0.03 -0.01    +0.473 P 
DOCKED: ATOM     16  O   UNL d   1      -8.864  20.232  -6.838 +0.00 -0.01    -0.228 OA
DOCKED: BRANCH  15  17
DOCKED: ATOM     17  O   UNL d   1      -8.616  17.835  -5.934 +0.00 +0.00    -0.303 OA
DOCKED: ATOM     18  H   UNL d   1      -8.410  17.592  -5.011 +0.03 -0.02    +0.222 HD
DOCKED: ENDBRANCH  15  17
DOCKED: BRANCH  15  19
DOCKED: ATOM     19  O   UNL d   1      -7.129  19.568  -5.002 +0.01 +0.03    -0.303 OA
DOCKED: ATOM     20  H   UNL d   1      -6.934  18.776  -4.468 +0.02 -0.05    +0.222 HD
DOCKED: ENDBRANCH  15  19
DOCKED: ENDBRANCH  14  15
DOCKED: ENDBRANCH   2  14
DOCKED: BRANCH   6  21
DOCKED: ATOM     21  O   UNL d   1      -3.827  17.150 -10.073 -0.05 +0.01    -0.278 OA
DOCKED: BRANCH  21  22
DOCKED: ATOM     22  P   UNL d   1      -3.092  18.138 -11.087 +0.01 +0.06    +0.473 P 
DOCKED: ATOM     23  O   UNL d   1      -2.499  17.562 -12.328 -0.01 -0.03    -0.228 OA
DOCKED: BRANCH  22  24
DOCKED: ATOM     24  O   UNL d   1      -4.210  19.244 -11.332 +0.01 -0.03    -0.303 OA
DOCKED: ATOM     25  H   UNL d   1      -5.075  18.884 -11.010 +0.01 +0.02    +0.222 HD
DOCKED: ENDBRANCH  22  24
DOCKED: BRANCH  22  26
DOCKED: ATOM     26  O   UNL d   1      -2.075  18.906 -10.113 -0.02 -0.08    -0.303 OA
DOCKED: ATOM     27  H   UNL d   1      -2.586  19.453  -9.482 +0.02 +0.06    +0.222 HD
DOCKED: ENDBRANCH  22  26
DOCKED: ENDBRANCH  21  22
DOCKED: ENDBRANCH   6  21
DOCKED: BRANCH   3  28
DOCKED: ATOM     28  O   UNL d   1      -6.197  17.447  -5.108 -0.06 +0.10    -0.278 OA
DOCKED: BRANCH  28  29
DOCKED: ATOM     29  P   UNL d   1      -6.790  16.491  -3.981 -0.07 -0.32    +0.473 P 
DOCKED: ATOM     30  O   UNL d   1      -8.198  16.060  -4.181 -0.05 +0.06    -0.228 OA
DOCKED: BRANCH  29  31
DOCKED: ATOM     31  O   UNL d   1      -5.674  15.345  -3.971 -0.24 +0.35    -0.303 OA
DOCKED: ATOM     32  H   UNL d   1      -4.847  15.709  -4.364 +0.07 -0.22    +0.222 HD
DOCKED: ENDBRANCH  29  31
DOCKED: BRANCH  29  33
DOCKED: ATOM     33  O   UNL d   1      -6.470  17.306  -2.650 +0.03 +0.38    -0.303 OA
DOCKED: ATOM     34  H   UNL d   1      -5.498  17.263  -2.474 -0.52 -0.43    +0.222 HD
DOCKED: ENDBRANCH  29  33
DOCKED: ENDBRANCH  28  29
DOCKED: ENDBRANCH   3  28
DOCKED: BRANCH   5  35
DOCKED: ATOM     35  O   UNL d   1      -2.444  18.194  -7.722 -0.37 -0.27    -0.278 OA
DOCKED: BRANCH  35  36
DOCKED: ATOM     36  P   UNL d   1      -2.624  19.683  -7.179 -0.03 +0.22    +0.473 P 
DOCKED: ATOM     37  O   UNL d   1      -3.995  20.262  -7.325 -0.00 -0.03    -0.228 OA
DOCKED: BRANCH  36  38
DOCKED: ATOM     38  O   UNL d   1      -2.131  19.541  -5.671 -0.07 -0.20    -0.303 OA
DOCKED: ATOM     39  H   UNL d   1      -2.848  19.140  -5.135 +0.04 +0.10    +0.222 HD
DOCKED: ENDBRANCH  36  38
DOCKED: BRANCH  36  40
DOCKED: ATOM     40  O   UNL d   1      -1.434  20.454  -7.900 -0.02 -0.13    -0.303 OA
DOCKED: ATOM     41  H   UNL d   1      -1.062  19.933  -8.645 +0.02 +0.10    +0.222 HD
DOCKED: ENDBRANCH  36  40
DOCKED: ENDBRANCH  35  36
DOCKED: ENDBRANCH   5  35
DOCKED: BRANCH   4  42
DOCKED: ATOM     42  O   UNL d   1      -3.432  16.710  -5.417 -0.39 -0.04    -0.278 OA
DOCKED: BRANCH  42  43
DOCKED: ATOM     43  P   UNL d   1      -3.121  17.359  -3.993 -0.11 +0.02    +0.473 P 
DOCKED: ATOM     44  O   UNL d   1      -1.741  17.869  -3.758 -0.60 -0.16    -0.228 OA
DOCKED: BRANCH  43  45
DOCKED: ATOM     45  O   UNL d   1      -4.256  18.465  -3.858 -0.05 +0.09    -0.303 OA
DOCKED: ATOM     46  H   UNL d   1      -5.139  18.099  -4.065 +0.05 -0.10    +0.222 HD
DOCKED: ENDBRANCH  43  45
DOCKED: BRANCH  43  47
DOCKED: ATOM     47  O   UNL d   1      -3.630  16.241  -2.963 -0.24 +0.37    -0.303 OA
DOCKED: ATOM     48  H   UNL d   1      -4.594  16.344  -2.827 -0.44 -0.47    +0.222 HD
DOCKED: ENDBRANCH  43  47
DOCKED: ENDBRANCH  42  43
DOCKED: ENDBRANCH   4  42
DOCKED: TORSDOF 24
DOCKED: TER
DOCKED: ENDMDL
________________________________________________________________________________


	BEGINNING GENETIC ALGORITHM DOCKING 71 of 100
Run: 71 Seed: 1120952636 687552077 [ Run 71 of 100 GA/GALS ]
Beginning LAMARCKIAN GENETIC ALGORITHM (LGA), with a maximum of 25000000 energy evaluations.

Final-Value: -16.253


	FINAL GENETIC ALGORITHM DOCKED STATE
	_______________________________________________


Detailed state:  trans -18.839 -7.390 11.515 quatxyzw -0.455582 -0.402533 0.703823 -0.367484 center 0.035 0.082 -0.065 ntor 24 17.7269 113.2768 16.7321 49.5637 165.0005 -180.0000 40.2231 -60.1277 1.6763 59.4348 155.0856 163.6408 95.0683 159.8036 180.0000 87.0898 -134.7646 -147.8898 47.1010 -9.3446 4.8404 -20.2130 -38.0993 169.1049
State:	-18.839  -7.390  11.515  -0.490 -0.433  0.757 -136.879     17.73  113.28   16.73   49.56  165.00 -180.00   40.22  -60.13    1.68   59.43  155.09  163.64   95.07  159.80  180.00   87.09 -134.76 -147.89   47.10   -9.34    4.84  -20.21  -38.10  169.10

DOCKED: MODEL       71
DOCKED: USER    Run = 71
DOCKED: USER    DPF = D:/Protein_go_brrr/autodock/final/AncB/IHP/dock.dpf
DOCKED: USER  
DOCKED: USER    Estimated Free Energy of Binding    =   +3.62 kcal/mol  [=(1)+(2)+(3)-(4)]
DOCKED: USER    
DOCKED: USER    (1) Final Intermolecular Energy     =   -3.54 kcal/mol
DOCKED: USER        vdW + Hbond + desolv Energy     =   -3.32 kcal/mol
DOCKED: USER        Electrostatic Energy            =   -0.22 kcal/mol
DOCKED: USER    (2) Final Total Internal Energy     =  -12.72 kcal/mol
DOCKED: USER    (3) Torsional Free Energy           =   +7.16 kcal/mol
DOCKED: USER    (4) Unbound System's Energy  [=(2)] =  -12.72 kcal/mol
DOCKED: USER    
DOCKED: USER    
DOCKED: USER    NEWDPF move IHP_ideal_opt.pdbqt
DOCKED: USER    NEWDPF about 0.035000 0.082000 -0.065000
DOCKED: USER    NEWDPF tran0 -18.839118 -7.390023 11.514846
DOCKED: USER    NEWDPF quaternion0 -0.455582 -0.402533 0.703823 -0.367484
DOCKED: USER    NEWDPF axisangle0 -0.489858 -0.432818 0.756775 -136.878878
DOCKED: USER    NEWDPF quat0 -0.489858 -0.432818 0.756775 -136.878878
DOCKED: USER    NEWDPF dihe0 17.73 113.28 16.73 49.56 165.00 -180.00 40.22 -60.13 1.68 59.43 155.09 163.64 95.07 159.80 180.00 87.09 -134.76 -147.89 47.10 -9.34 4.84 -20.21 -38.10 169.10 
DOCKED: USER  keepresnum = 1 
DOCKED: USER  
DOCKED: REMARK  24 active torsions:
DOCKED: REMARK  status: ('A' for Active; 'I' for Inactive)
DOCKED: REMARK    1  A    between atoms: C_1  and  O_7 
DOCKED: REMARK    2  A    between atoms: C_2  and  O_12 
DOCKED: REMARK    3  A    between atoms: C_3  and  O_17 
DOCKED: REMARK    4  A    between atoms: C_4  and  O_22 
DOCKED: REMARK    5  A    between atoms: C_5  and  O_27 
DOCKED: REMARK    6  A    between atoms: C_6  and  O_32 
DOCKED: REMARK    7  A    between atoms: O_7  and  P_8 
DOCKED: REMARK    8  A    between atoms: P_8  and  O_10 
DOCKED: REMARK    9  A    between atoms: P_8  and  O_11 
DOCKED: REMARK   10  A    between atoms: O_12  and  P_13 
DOCKED: REMARK   11  A    between atoms: P_13  and  O_15 
DOCKED: REMARK   12  A    between atoms: P_13  and  O_16 
DOCKED: REMARK   13  A    between atoms: O_17  and  P_18 
DOCKED: REMARK   14  A    between atoms: P_18  and  O_20 
DOCKED: REMARK   15  A    between atoms: P_18  and  O_21 
DOCKED: REMARK   16  A    between atoms: O_22  and  P_23 
DOCKED: REMARK   17  A    between atoms: P_23  and  O_25 
DOCKED: REMARK   18  A    between atoms: P_23  and  O_26 
DOCKED: REMARK   19  A    between atoms: O_27  and  P_28 
DOCKED: REMARK   20  A    between atoms: P_28  and  O_30 
DOCKED: REMARK   21  A    between atoms: P_28  and  O_31 
DOCKED: REMARK   22  A    between atoms: O_32  and  P_33 
DOCKED: REMARK   23  A    between atoms: P_33  and  O_35 
DOCKED: REMARK   24  A    between atoms: P_33  and  O_36 
DOCKED: USER                              x       y       z     vdW  Elec       q    Type
DOCKED: USER                           _______ _______ _______ _____ _____    ______ ____
DOCKED: ROOT
DOCKED: ATOM      1  C   UNL d   1     -19.841  -6.105  12.089 -0.06 +0.11    +0.194 C 
DOCKED: ATOM      2  C   UNL d   1     -18.981  -6.797  13.148 -0.07 +0.10    +0.194 C 
DOCKED: ATOM      3  C   UNL d   1     -18.989  -8.318  12.980 -0.04 +0.05    +0.194 C 
DOCKED: ATOM      4  C   UNL d   1     -18.635  -8.768  11.565 -0.09 +0.05    +0.194 C 
DOCKED: ATOM      5  C   UNL d   1     -19.386  -8.023  10.470 -0.09 +0.05    +0.194 C 
DOCKED: ATOM      6  C   UNL d   1     -19.431  -6.506  10.671 +0.04 +0.15    +0.194 C 
DOCKED: ENDROOT
DOCKED: BRANCH   1   7
DOCKED: ATOM      7  O   UNL d   1     -19.644  -4.694  12.206 -0.12 -0.15    -0.278 OA
DOCKED: BRANCH   7   8
DOCKED: ATOM      8  P   UNL d   1     -20.347  -3.928  13.419 -0.01 +0.11    +0.473 P 
DOCKED: ATOM      9  O   UNL d   1     -19.583  -2.771  13.962 -0.05 -0.04    -0.228 OA
DOCKED: BRANCH   8  10
DOCKED: ATOM     10  O   UNL d   1     -21.778  -3.521  12.842 -0.00 -0.04    -0.303 OA
DOCKED: ATOM     11  H   UNL d   1     -22.010  -2.624  13.147 +0.01 +0.02    +0.222 HD
DOCKED: ENDBRANCH   8  10
DOCKED: BRANCH   8  12
DOCKED: ATOM     12  O   UNL d   1     -20.721  -5.064  14.464 -0.01 -0.05    -0.303 OA
DOCKED: ATOM     13  H   UNL d   1     -19.933  -5.477  14.884 +0.03 +0.04    +0.222 HD
DOCKED: ENDBRANCH   8  12
DOCKED: ENDBRANCH   7   8
DOCKED: ENDBRANCH   1   7
DOCKED: BRANCH   2  14
DOCKED: ATOM     14  O   UNL d   1     -17.631  -6.331  13.031 -0.52 -0.28    -0.278 OA
DOCKED: BRANCH  14  15
DOCKED: ATOM     15  P   UNL d   1     -16.991  -5.654  14.333 -0.21 +0.15    +0.473 P 
DOCKED: ATOM     16  O   UNL d   1     -16.049  -4.514  14.104 -0.32 -0.07    -0.228 OA
DOCKED: BRANCH  15  17
DOCKED: ATOM     17  O   UNL d   1     -18.253  -5.245  15.216 -0.10 -0.05    -0.303 OA
DOCKED: ATOM     18  H   UNL d   1     -18.660  -4.421  14.887 +0.06 +0.04    +0.222 HD
DOCKED: ENDBRANCH  15  17
DOCKED: BRANCH  15  19
DOCKED: ATOM     19  O   UNL d   1     -16.401  -6.874  15.166 -0.21 +0.00    -0.303 OA
DOCKED: ATOM     20  H   UNL d   1     -16.690  -7.732  14.802 +0.01 +0.01    +0.222 HD
DOCKED: ENDBRANCH  15  19
DOCKED: ENDBRANCH  14  15
DOCKED: ENDBRANCH   2  14
DOCKED: BRANCH   6  21
DOCKED: ATOM     21  O   UNL d   1     -20.431  -6.003   9.788 -0.04 -0.09    -0.278 OA
DOCKED: BRANCH  21  22
DOCKED: ATOM     22  P   UNL d   1     -20.007  -5.397   8.375 -0.05 +0.08    +0.473 P 
DOCKED: ATOM     23  O   UNL d   1     -20.851  -4.315   7.790 -0.01 -0.03    -0.228 OA
DOCKED: BRANCH  22  24
DOCKED: ATOM     24  O   UNL d   1     -18.490  -4.991   8.637 -0.44 -0.22    -0.303 OA
DOCKED: ATOM     25  H   UNL d   1     -17.912  -5.708   8.271 -0.48 -0.05    +0.222 HD
DOCKED: ENDBRANCH  22  24
DOCKED: BRANCH  22  26
DOCKED: ATOM     26  O   UNL d   1     -19.847  -6.722   7.487 -0.07 +0.04    -0.303 OA
DOCKED: ATOM     27  H   UNL d   1     -20.137  -7.497   8.010 +0.02 -0.02    +0.222 HD
DOCKED: ENDBRANCH  22  26
DOCKED: ENDBRANCH  21  22
DOCKED: ENDBRANCH   6  21
DOCKED: BRANCH   3  28
DOCKED: ATOM     28  O   UNL d   1     -17.964  -8.846  13.812 -0.03 -0.05    -0.278 OA
DOCKED: BRANCH  28  29
DOCKED: ATOM     29  P   UNL d   1     -18.284  -9.264  15.316 +0.02 +0.04    +0.473 P 
DOCKED: ATOM     30  O   UNL d   1     -19.297 -10.338  15.480 +0.00 -0.02    -0.228 OA
DOCKED: BRANCH  29  31
DOCKED: ATOM     31  O   UNL d   1     -16.804  -9.575  15.840 -0.04 -0.01    -0.303 OA
DOCKED: ATOM     32  H   UNL d   1     -16.433  -8.753  16.237 +0.06 -0.00    +0.222 HD
DOCKED: ENDBRANCH  29  31
DOCKED: BRANCH  29  33
DOCKED: ATOM     33  O   UNL d   1     -18.609  -7.859  15.991 -0.01 -0.02    -0.303 OA
DOCKED: ATOM     34  H   UNL d   1     -18.507  -7.146  15.314 +0.05 +0.03    +0.222 HD
DOCKED: ENDBRANCH  29  33
DOCKED: ENDBRANCH  28  29
DOCKED: ENDBRANCH   3  28
DOCKED: BRANCH   5  35
DOCKED: ATOM     35  O   UNL d   1     -18.659  -8.265   9.267 -0.02 +0.10    -0.278 OA
DOCKED: BRANCH  35  36
DOCKED: ATOM     36  P   UNL d   1     -19.053  -9.488   8.322 -0.02 -0.10    +0.473 P 
DOCKED: ATOM     37  O   UNL d   1     -18.353 -10.778   8.610 -0.10 +0.03    -0.228 OA
DOCKED: BRANCH  36  38
DOCKED: ATOM     38  O   UNL d   1     -20.634  -9.546   8.505 -0.01 -0.00    -0.303 OA
DOCKED: ATOM     39  H   UNL d   1     -20.840  -9.836   9.420 +0.02 +0.01    +0.222 HD
DOCKED: ENDBRANCH  36  38
DOCKED: BRANCH  36  40
DOCKED: ATOM     40  O   UNL d   1     -18.859  -8.870   6.869 -0.09 +0.09    -0.303 OA
DOCKED: ATOM     41  H   UNL d   1     -18.305  -8.058   6.890 -0.33 -0.19    +0.222 HD
DOCKED: ENDBRANCH  36  40
DOCKED: ENDBRANCH  35  36
DOCKED: ENDBRANCH   5  35
DOCKED: BRANCH   4  42
DOCKED: ATOM     42  O   UNL d   1     -19.003 -10.148  11.465 -0.01 -0.02    -0.278 OA
DOCKED: BRANCH  42  43
DOCKED: ATOM     43  P   UNL d   1     -20.518 -10.563  11.741 +0.02 +0.04    +0.473 P 
DOCKED: ATOM     44  O   UNL d   1     -20.834 -11.173  13.063 +0.00 -0.02    -0.228 OA
DOCKED: BRANCH  43  45
DOCKED: ATOM     45  O   UNL d   1     -21.310  -9.216  11.439 +0.00 -0.03    -0.303 OA
DOCKED: ATOM     46  H   UNL d   1     -21.469  -9.101  10.481 +0.01 +0.02    +0.222 HD
DOCKED: ENDBRANCH  43  45
DOCKED: BRANCH  43  47
DOCKED: ATOM     47  O   UNL d   1     -20.893 -11.454  10.461 +0.00 -0.02    -0.303 OA
DOCKED: ATOM     48  H   UNL d   1     -20.241 -11.285   9.749 +0.02 +0.01    +0.222 HD
DOCKED: ENDBRANCH  43  47
DOCKED: ENDBRANCH  42  43
DOCKED: ENDBRANCH   4  42
DOCKED: TORSDOF 24
DOCKED: TER
DOCKED: ENDMDL
________________________________________________________________________________


	BEGINNING GENETIC ALGORITHM DOCKING 72 of 100
Run: 72 Seed: 745341221 1556065786 [ Run 72 of 100 GA/GALS ]
Beginning LAMARCKIAN GENETIC ALGORITHM (LGA), with a maximum of 25000000 energy evaluations.

Final-Value: -15.893


	FINAL GENETIC ALGORITHM DOCKED STATE
	_______________________________________________


Detailed state:  trans -11.173 6.534 -7.689 quatxyzw 0.457407 -0.736378 0.059378 -0.494975 center 0.035 0.082 -0.065 ntor 24 42.0455 16.0425 -137.9007 109.9838 155.3818 -119.1789 -49.7939 33.5082 151.1334 102.2558 57.5778 -41.8391 174.8804 77.9395 111.7380 135.6660 -15.8255 115.5655 37.6532 -3.2293 -43.2382 -15.7406 134.4199 161.5849
State:	-11.173   6.534  -7.689   0.526 -0.847  0.068 -120.664     42.05   16.04 -137.90  109.98  155.38 -119.18  -49.79   33.51  151.13  102.26   57.58  -41.84  174.88   77.94  111.74  135.67  -15.83  115.57   37.65   -3.23  -43.24  -15.74  134.42  161.58

DOCKED: MODEL       72
DOCKED: USER    Run = 72
DOCKED: USER    DPF = D:/Protein_go_brrr/autodock/final/AncB/IHP/dock.dpf
DOCKED: USER  
DOCKED: USER    Estimated Free Energy of Binding    =   +3.87 kcal/mol  [=(1)+(2)+(3)-(4)]
DOCKED: USER    
DOCKED: USER    (1) Final Intermolecular Energy     =   -3.29 kcal/mol
DOCKED: USER        vdW + Hbond + desolv Energy     =   -3.17 kcal/mol
DOCKED: USER        Electrostatic Energy            =   -0.12 kcal/mol
DOCKED: USER    (2) Final Total Internal Energy     =  -12.61 kcal/mol
DOCKED: USER    (3) Torsional Free Energy           =   +7.16 kcal/mol
DOCKED: USER    (4) Unbound System's Energy  [=(2)] =  -12.61 kcal/mol
DOCKED: USER    
DOCKED: USER    
DOCKED: USER    NEWDPF move IHP_ideal_opt.pdbqt
DOCKED: USER    NEWDPF about 0.035000 0.082000 -0.065000
DOCKED: USER    NEWDPF tran0 -11.172856 6.534209 -7.689116
DOCKED: USER    NEWDPF quaternion0 0.457407 -0.736378 0.059378 -0.494975
DOCKED: USER    NEWDPF axisangle0 0.526417 -0.847476 0.068336 -120.663829
DOCKED: USER    NEWDPF quat0 0.526417 -0.847476 0.068336 -120.663829
DOCKED: USER    NEWDPF dihe0 42.05 16.04 -137.90 109.98 155.38 -119.18 -49.79 33.51 151.13 102.26 57.58 -41.84 174.88 77.94 111.74 135.67 -15.83 115.57 37.65 -3.23 -43.24 -15.74 134.42 161.58 
DOCKED: USER  keepresnum = 1 
DOCKED: USER  
DOCKED: REMARK  24 active torsions:
DOCKED: REMARK  status: ('A' for Active; 'I' for Inactive)
DOCKED: REMARK    1  A    between atoms: C_1  and  O_7 
DOCKED: REMARK    2  A    between atoms: C_2  and  O_12 
DOCKED: REMARK    3  A    between atoms: C_3  and  O_17 
DOCKED: REMARK    4  A    between atoms: C_4  and  O_22 
DOCKED: REMARK    5  A    between atoms: C_5  and  O_27 
DOCKED: REMARK    6  A    between atoms: C_6  and  O_32 
DOCKED: REMARK    7  A    between atoms: O_7  and  P_8 
DOCKED: REMARK    8  A    between atoms: P_8  and  O_10 
DOCKED: REMARK    9  A    between atoms: P_8  and  O_11 
DOCKED: REMARK   10  A    between atoms: O_12  and  P_13 
DOCKED: REMARK   11  A    between atoms: P_13  and  O_15 
DOCKED: REMARK   12  A    between atoms: P_13  and  O_16 
DOCKED: REMARK   13  A    between atoms: O_17  and  P_18 
DOCKED: REMARK   14  A    between atoms: P_18  and  O_20 
DOCKED: REMARK   15  A    between atoms: P_18  and  O_21 
DOCKED: REMARK   16  A    between atoms: O_22  and  P_23 
DOCKED: REMARK   17  A    between atoms: P_23  and  O_25 
DOCKED: REMARK   18  A    between atoms: P_23  and  O_26 
DOCKED: REMARK   19  A    between atoms: O_27  and  P_28 
DOCKED: REMARK   20  A    between atoms: P_28  and  O_30 
DOCKED: REMARK   21  A    between atoms: P_28  and  O_31 
DOCKED: REMARK   22  A    between atoms: O_32  and  P_33 
DOCKED: REMARK   23  A    between atoms: P_33  and  O_35 
DOCKED: REMARK   24  A    between atoms: P_33  and  O_36 
DOCKED: USER                              x       y       z     vdW  Elec       q    Type
DOCKED: USER                           _______ _______ _______ _____ _____    ______ ____
DOCKED: ROOT
DOCKED: ATOM      1  C   UNL d   1     -11.171   4.826  -7.430 -0.06 +0.04    +0.194 C 
DOCKED: ATOM      2  C   UNL d   1     -10.219   5.331  -8.516 -0.06 +0.05    +0.194 C 
DOCKED: ATOM      3  C   UNL d   1     -10.878   6.392  -9.399 -0.02 +0.05    +0.194 C 
DOCKED: ATOM      4  C   UNL d   1     -11.503   7.535  -8.602 -0.01 +0.05    +0.194 C 
DOCKED: ATOM      5  C   UNL d   1     -12.370   7.077  -7.436 -0.00 +0.04    +0.194 C 
DOCKED: ATOM      6  C   UNL d   1     -11.735   5.972  -6.589 -0.04 +0.04    +0.194 C 
DOCKED: ENDROOT
DOCKED: BRANCH   1   7
DOCKED: ATOM      7  O   UNL d   1     -10.433   3.975  -6.550 -0.14 -0.04    -0.278 OA
DOCKED: BRANCH   7   8
DOCKED: ATOM      8  P   UNL d   1     -10.260   2.438  -6.948 -0.05 +0.04    +0.473 P 
DOCKED: ATOM      9  O   UNL d   1     -10.525   1.468  -5.850 -0.16 +0.02    -0.228 OA
DOCKED: BRANCH   8  10
DOCKED: ATOM     10  O   UNL d   1     -11.233   2.251  -8.199 -0.05 -0.04    -0.303 OA
DOCKED: ATOM     11  H   UNL d   1     -11.945   1.626  -7.968 +0.05 +0.01    +0.222 HD
DOCKED: ENDBRANCH   8  10
DOCKED: BRANCH   8  12
DOCKED: ATOM     12  O   UNL d   1      -8.826   2.344  -7.624 -0.20 -0.06    -0.303 OA
DOCKED: ATOM     13  H   UNL d   1      -8.554   3.179  -8.069 +0.08 +0.05    +0.222 HD
DOCKED: ENDBRANCH   8  12
DOCKED: ENDBRANCH   7   8
DOCKED: ENDBRANCH   1   7
DOCKED: BRANCH   2  14
DOCKED: ATOM     14  O   UNL d   1      -9.065   5.909  -7.893 -0.12 -0.08    -0.278 OA
DOCKED: BRANCH  14  15
DOCKED: ATOM     15  P   UNL d   1      -7.639   5.383  -8.400 -0.19 +0.16    +0.473 P 
DOCKED: ATOM     16  O   UNL d   1      -6.606   6.424  -8.697 -0.33 -0.09    -0.228 OA
DOCKED: BRANCH  15  17
DOCKED: ATOM     17  O   UNL d   1      -7.178   4.361  -7.268 -0.25 -0.06    -0.303 OA
DOCKED: ATOM     18  H   UNL d   1      -6.951   3.492  -7.651 -0.36 +0.03    +0.222 HD
DOCKED: ENDBRANCH  15  17
DOCKED: BRANCH  15  19
DOCKED: ATOM     19  O   UNL d   1      -7.984   4.397  -9.600 -0.14 -0.12    -0.303 OA
DOCKED: ATOM     20  H   UNL d   1      -8.590   4.810 -10.243 +0.06 +0.09    +0.222 HD
DOCKED: ENDBRANCH  15  19
DOCKED: ENDBRANCH  14  15
DOCKED: ENDBRANCH   2  14
DOCKED: BRANCH   6  21
DOCKED: ATOM     21  O   UNL d   1     -12.774   5.425  -5.780 -0.04 -0.05    -0.278 OA
DOCKED: BRANCH  21  22
DOCKED: ATOM     22  P   UNL d   1     -12.444   4.913  -4.306 -0.15 +0.10    +0.473 P 
DOCKED: ATOM     23  O   UNL d   1     -13.450   5.158  -3.233 -0.39 -0.21    -0.228 OA
DOCKED: BRANCH  22  24
DOCKED: ATOM     24  O   UNL d   1     -12.102   3.380  -4.562 -0.22 +0.11    -0.303 OA
DOCKED: ATOM     25  H   UNL d   1     -11.131   3.308  -4.749 -0.27 -0.06    +0.222 HD
DOCKED: ENDBRANCH  22  24
DOCKED: BRANCH  22  26
DOCKED: ATOM     26  O   UNL d   1     -10.989   5.541  -4.062 -0.16 -0.06    -0.303 OA
DOCKED: ATOM     27  H   UNL d   1     -11.062   6.516  -4.023 +0.09 +0.05    +0.222 HD
DOCKED: ENDBRANCH  22  26
DOCKED: ENDBRANCH  21  22
DOCKED: ENDBRANCH   6  21
DOCKED: BRANCH   3  28
DOCKED: ATOM     28  O   UNL d   1      -9.855   6.994 -10.182 -0.02 -0.09    -0.278 OA
DOCKED: BRANCH  28  29
DOCKED: ATOM     29  P   UNL d   1      -9.554   6.466 -11.655 -0.00 +0.18    +0.473 P 
DOCKED: ATOM     30  O   UNL d   1      -9.945   7.382 -12.756 -0.01 -0.08    -0.228 OA
DOCKED: BRANCH  29  31
DOCKED: ATOM     31  O   UNL d   1      -7.998   6.120 -11.515 -0.08 -0.16    -0.303 OA
DOCKED: ATOM     32  H   UNL d   1      -7.718   6.303 -10.588 +0.07 +0.11    +0.222 HD
DOCKED: ENDBRANCH  29  31
DOCKED: BRANCH  29  33
DOCKED: ATOM     33  O   UNL d   1     -10.237   5.027 -11.640 -0.01 -0.10    -0.303 OA
DOCKED: ATOM     34  H   UNL d   1     -11.163   5.107 -11.975 +0.01 +0.06    +0.222 HD
DOCKED: ENDBRANCH  29  33
DOCKED: ENDBRANCH  28  29
DOCKED: ENDBRANCH   3  28
DOCKED: BRANCH   5  35
DOCKED: ATOM     35  O   UNL d   1     -12.520   8.218  -6.594 -0.00 -0.07    -0.278 OA
DOCKED: BRANCH  35  36
DOCKED: ATOM     36  P   UNL d   1     -11.546   8.433  -5.349 +0.01 +0.12    +0.473 P 
DOCKED: ATOM     37  O   UNL d   1     -10.178   7.845  -5.492 -0.08 -0.06    -0.228 OA
DOCKED: BRANCH  36  38
DOCKED: ATOM     38  O   UNL d   1     -11.564  10.017  -5.190 -0.01 -0.08    -0.303 OA
DOCKED: ATOM     39  H   UNL d   1     -12.372  10.281  -4.700 +0.01 +0.05    +0.222 HD
DOCKED: ENDBRANCH  36  38
DOCKED: BRANCH  36  40
DOCKED: ATOM     40  O   UNL d   1     -12.430   7.916  -4.132 -0.00 -0.08    -0.303 OA
DOCKED: ATOM     41  H   UNL d   1     -12.677   6.970  -4.237 +0.05 +0.07    +0.222 HD
DOCKED: ENDBRANCH  36  40
DOCKED: ENDBRANCH  35  36
DOCKED: ENDBRANCH   5  35
DOCKED: BRANCH   4  42
DOCKED: ATOM     42  O   UNL d   1     -12.353   8.253  -9.503 -0.00 -0.07    -0.278 OA
DOCKED: BRANCH  42  43
DOCKED: ATOM     43  P   UNL d   1     -13.416   7.441 -10.372 +0.00 +0.10    +0.473 P 
DOCKED: ATOM     44  O   UNL d   1     -14.549   8.206 -10.962 +0.00 -0.04    -0.228 OA
DOCKED: BRANCH  43  45
DOCKED: ATOM     45  O   UNL d   1     -12.499   6.705 -11.445 -0.00 -0.07    -0.303 OA
DOCKED: ATOM     46  H   UNL d   1     -11.603   7.096 -11.479 +0.01 +0.06    +0.222 HD
DOCKED: ENDBRANCH  43  45
DOCKED: BRANCH  43  47
DOCKED: ATOM     47  O   UNL d   1     -13.827   6.227  -9.409 +0.00 -0.06    -0.303 OA
DOCKED: ATOM     48  H   UNL d   1     -14.797   6.098  -9.449 +0.00 +0.04    +0.222 HD
DOCKED: ENDBRANCH  43  47
DOCKED: ENDBRANCH  42  43
DOCKED: ENDBRANCH   4  42
DOCKED: TORSDOF 24
DOCKED: TER
DOCKED: ENDMDL
________________________________________________________________________________


	BEGINNING GENETIC ALGORITHM DOCKING 73 of 100
Run: 73 Seed: 1492276580 610491552 [ Run 73 of 100 GA/GALS ]
Beginning LAMARCKIAN GENETIC ALGORITHM (LGA), with a maximum of 25000000 energy evaluations.

Final-Value: -17.940


	FINAL GENETIC ALGORITHM DOCKED STATE
	_______________________________________________


Detailed state:  trans -17.558 -12.346 10.824 quatxyzw -0.104932 0.611607 0.526916 0.580763 center 0.035 0.082 -0.065 ntor 24 4.4516 108.2015 -149.8876 9.3473 27.1839 -160.6618 -33.6828 -90.7354 0.8673 99.3212 10.0956 -151.2265 -31.0259 164.6050 169.8562 89.5821 -8.7541 -41.7760 -21.1894 -7.1190 -5.3755 -13.4926 -25.7882 178.9491
State:	-17.558 -12.346  10.824  -0.129  0.751  0.647 108.992      4.45  108.20 -149.89    9.35   27.18 -160.66  -33.68  -90.74    0.87   99.32   10.10 -151.23  -31.03  164.61  169.86   89.58   -8.75  -41.78  -21.19   -7.12   -5.38  -13.49  -25.79  178.95

DOCKED: MODEL       73
DOCKED: USER    Run = 73
DOCKED: USER    DPF = D:/Protein_go_brrr/autodock/final/AncB/IHP/dock.dpf
DOCKED: USER  
DOCKED: USER    Estimated Free Energy of Binding    =   +3.18 kcal/mol  [=(1)+(2)+(3)-(4)]
DOCKED: USER    
DOCKED: USER    (1) Final Intermolecular Energy     =   -3.98 kcal/mol
DOCKED: USER        vdW + Hbond + desolv Energy     =   -3.68 kcal/mol
DOCKED: USER        Electrostatic Energy            =   -0.30 kcal/mol
DOCKED: USER    (2) Final Total Internal Energy     =  -13.96 kcal/mol
DOCKED: USER    (3) Torsional Free Energy           =   +7.16 kcal/mol
DOCKED: USER    (4) Unbound System's Energy  [=(2)] =  -13.96 kcal/mol
DOCKED: USER    
DOCKED: USER    
DOCKED: USER    NEWDPF move IHP_ideal_opt.pdbqt
DOCKED: USER    NEWDPF about 0.035000 0.082000 -0.065000
DOCKED: USER    NEWDPF tran0 -17.558172 -12.346146 10.824263
DOCKED: USER    NEWDPF quaternion0 -0.104932 0.611607 0.526916 0.580763
DOCKED: USER    NEWDPF axisangle0 -0.128898 0.751293 0.647259 108.991541
DOCKED: USER    NEWDPF quat0 -0.128898 0.751293 0.647259 108.991541
DOCKED: USER    NEWDPF dihe0 4.45 108.20 -149.89 9.35 27.18 -160.66 -33.68 -90.74 0.87 99.32 10.10 -151.23 -31.03 164.61 169.86 89.58 -8.75 -41.78 -21.19 -7.12 -5.38 -13.49 -25.79 178.95 
DOCKED: USER  keepresnum = 1 
DOCKED: USER  
DOCKED: REMARK  24 active torsions:
DOCKED: REMARK  status: ('A' for Active; 'I' for Inactive)
DOCKED: REMARK    1  A    between atoms: C_1  and  O_7 
DOCKED: REMARK    2  A    between atoms: C_2  and  O_12 
DOCKED: REMARK    3  A    between atoms: C_3  and  O_17 
DOCKED: REMARK    4  A    between atoms: C_4  and  O_22 
DOCKED: REMARK    5  A    between atoms: C_5  and  O_27 
DOCKED: REMARK    6  A    between atoms: C_6  and  O_32 
DOCKED: REMARK    7  A    between atoms: O_7  and  P_8 
DOCKED: REMARK    8  A    between atoms: P_8  and  O_10 
DOCKED: REMARK    9  A    between atoms: P_8  and  O_11 
DOCKED: REMARK   10  A    between atoms: O_12  and  P_13 
DOCKED: REMARK   11  A    between atoms: P_13  and  O_15 
DOCKED: REMARK   12  A    between atoms: P_13  and  O_16 
DOCKED: REMARK   13  A    between atoms: O_17  and  P_18 
DOCKED: REMARK   14  A    between atoms: P_18  and  O_20 
DOCKED: REMARK   15  A    between atoms: P_18  and  O_21 
DOCKED: REMARK   16  A    between atoms: O_22  and  P_23 
DOCKED: REMARK   17  A    between atoms: P_23  and  O_25 
DOCKED: REMARK   18  A    between atoms: P_23  and  O_26 
DOCKED: REMARK   19  A    between atoms: O_27  and  P_28 
DOCKED: REMARK   20  A    between atoms: P_28  and  O_30 
DOCKED: REMARK   21  A    between atoms: P_28  and  O_31 
DOCKED: REMARK   22  A    between atoms: O_32  and  P_33 
DOCKED: REMARK   23  A    between atoms: P_33  and  O_35 
DOCKED: REMARK   24  A    between atoms: P_33  and  O_36 
DOCKED: USER                              x       y       z     vdW  Elec       q    Type
DOCKED: USER                           _______ _______ _______ _____ _____    ______ ____
DOCKED: ROOT
DOCKED: ATOM      1  C   UNL d   1     -19.017 -13.236  11.077 -0.01 +0.02    +0.194 C 
DOCKED: ATOM      2  C   UNL d   1     -18.725 -12.844   9.627 -0.03 +0.01    +0.194 C 
DOCKED: ATOM      3  C   UNL d   1     -18.222 -11.403   9.520 -0.07 -0.01    +0.194 C 
DOCKED: ATOM      4  C   UNL d   1     -17.046 -11.106  10.447 -0.13 -0.02    +0.194 C 
DOCKED: ATOM      5  C   UNL d   1     -17.248 -11.583  11.879 -0.08 +0.01    +0.194 C 
DOCKED: ATOM      6  C   UNL d   1     -17.809 -13.003  11.986 -0.05 +0.02    +0.194 C 
DOCKED: ENDROOT
DOCKED: BRANCH   1   7
DOCKED: ATOM      7  O   UNL d   1     -19.312 -14.634  11.111 -0.01 -0.03    -0.278 OA
DOCKED: BRANCH   7   8
DOCKED: ATOM      8  P   UNL d   1     -20.426 -15.151  12.132 +0.00 +0.04    +0.473 P 
DOCKED: ATOM      9  O   UNL d   1     -21.379 -14.110  12.606 +0.00 -0.02    -0.228 OA
DOCKED: BRANCH   8  10
DOCKED: ATOM     10  O   UNL d   1     -21.139 -16.347  11.355 -0.00 -0.03    -0.303 OA
DOCKED: ATOM     11  H   UNL d   1     -22.054 -16.447  11.677 +0.00 +0.02    +0.222 HD
DOCKED: ENDBRANCH   8  10
DOCKED: BRANCH   8  12
DOCKED: ATOM     12  O   UNL d   1     -19.622 -15.922  13.265 -0.00 -0.03    -0.303 OA
DOCKED: ATOM     13  H   UNL d   1     -19.007 -15.340  13.766 +0.01 +0.02    +0.222 HD
DOCKED: ENDBRANCH   8  12
DOCKED: ENDBRANCH   7   8
DOCKED: ENDBRANCH   1   7
DOCKED: BRANCH   2  14
DOCKED: ATOM     14  O   UNL d   1     -17.718 -13.719   9.102 -0.06 -0.02    -0.278 OA
DOCKED: BRANCH  14  15
DOCKED: ATOM     15  P   UNL d   1     -18.088 -14.510   7.759 -0.03 +0.04    +0.473 P 
DOCKED: ATOM     16  O   UNL d   1     -17.640 -15.935   7.674 -0.07 -0.03    -0.228 OA
DOCKED: BRANCH  15  17
DOCKED: ATOM     17  O   UNL d   1     -19.668 -14.350   7.638 -0.02 -0.03    -0.303 OA
DOCKED: ATOM     18  H   UNL d   1     -19.909 -13.819   6.855 +0.02 +0.02    +0.222 HD
DOCKED: ENDBRANCH  15  17
DOCKED: BRANCH  15  19
DOCKED: ATOM     19  O   UNL d   1     -17.580 -13.561   6.588 -0.09 -0.02    -0.303 OA
DOCKED: ATOM     20  H   UNL d   1     -17.902 -12.647   6.699 +0.05 +0.01    +0.222 HD
DOCKED: ENDBRANCH  15  19
DOCKED: ENDBRANCH  14  15
DOCKED: ENDBRANCH   2  14
DOCKED: BRANCH   6  21
DOCKED: ATOM     21  O   UNL d   1     -18.258 -13.169  13.329 -0.02 -0.03    -0.278 OA
DOCKED: BRANCH  21  22
DOCKED: ATOM     22  P   UNL d   1     -17.436 -14.102  14.328 -0.04 +0.05    +0.473 P 
DOCKED: ATOM     23  O   UNL d   1     -18.131 -14.621  15.541 -0.01 -0.02    -0.228 OA
DOCKED: BRANCH  22  24
DOCKED: ATOM     24  O   UNL d   1     -16.881 -15.224  13.345 -0.07 -0.04    -0.303 OA
DOCKED: ATOM     25  H   UNL d   1     -17.592 -15.436  12.688 +0.03 +0.03    +0.222 HD
DOCKED: ENDBRANCH  22  24
DOCKED: BRANCH  22  26
DOCKED: ATOM     26  O   UNL d   1     -16.125 -13.217  14.594 -0.15 -0.04    -0.303 OA
DOCKED: ATOM     27  H   UNL d   1     -16.339 -12.273  14.448 +0.04 +0.03    +0.222 HD
DOCKED: ENDBRANCH  22  26
DOCKED: ENDBRANCH  21  22
DOCKED: ENDBRANCH   6  21
DOCKED: BRANCH   3  28
DOCKED: ATOM     28  O   UNL d   1     -17.719 -11.222   8.203 -0.11 +0.03    -0.278 OA
DOCKED: BRANCH  28  29
DOCKED: ATOM     29  P   UNL d   1     -18.631 -10.558   7.078 -0.03 -0.03    +0.473 P 
DOCKED: ATOM     30  O   UNL d   1     -19.028  -9.148   7.325 -0.12 +0.06    -0.228 OA
DOCKED: BRANCH  29  31
DOCKED: ATOM     31  O   UNL d   1     -17.731 -10.842   5.785 -0.13 -0.01    -0.303 OA
DOCKED: ATOM     32  H   UNL d   1     -17.085 -11.554   6.003 +0.06 +0.00    +0.222 HD
DOCKED: ENDBRANCH  29  31
DOCKED: BRANCH  29  33
DOCKED: ATOM     33  O   UNL d   1     -19.806 -11.622   6.929 -0.02 -0.01    -0.303 OA
DOCKED: ATOM     34  H   UNL d   1     -19.447 -12.524   7.112 +0.03 +0.01    +0.222 HD
DOCKED: ENDBRANCH  29  33
DOCKED: ENDBRANCH  28  29
DOCKED: ENDBRANCH   3  28
DOCKED: BRANCH   5  35
DOCKED: ATOM     35  O   UNL d   1     -15.950 -11.600  12.469 -0.72 -0.06    -0.278 OA
DOCKED: BRANCH  35  36
DOCKED: ATOM     36  P   UNL d   1     -15.521 -10.462  13.501 -0.18 +0.07    +0.473 P 
DOCKED: ATOM     37  O   UNL d   1     -16.607  -9.965  14.402 -0.09 -0.02    -0.228 OA
DOCKED: BRANCH  36  38
DOCKED: ATOM     38  O   UNL d   1     -14.305 -11.154  14.262 -0.30 -0.09    -0.303 OA
DOCKED: ATOM     39  H   UNL d   1     -14.649 -11.887  14.817 +0.05 +0.05    +0.222 HD
DOCKED: ENDBRANCH  36  38
DOCKED: BRANCH  36  40
DOCKED: ATOM     40  O   UNL d   1     -14.821  -9.391  12.556 -0.80 -0.06    -0.303 OA
DOCKED: ATOM     41  H   UNL d   1     -15.427  -9.080  11.848 +0.09 -0.00    +0.222 HD
DOCKED: ENDBRANCH  36  40
DOCKED: ENDBRANCH  35  36
DOCKED: ENDBRANCH   5  35
DOCKED: BRANCH   4  42
DOCKED: ATOM     42  O   UNL d   1     -16.905  -9.682  10.494 -0.17 +0.10    -0.278 OA
DOCKED: BRANCH  42  43
DOCKED: ATOM     43  P   UNL d   1     -18.044  -8.817  11.199 -0.08 +0.10    +0.473 P 
DOCKED: ATOM     44  O   UNL d   1     -19.159  -9.554  11.856 -0.02 -0.03    -0.228 OA
DOCKED: BRANCH  43  45
DOCKED: ATOM     45  O   UNL d   1     -17.213  -7.882  12.184 -0.24 -0.22    -0.303 OA
DOCKED: ATOM     46  H   UNL d   1     -16.738  -8.407  12.859 +0.07 +0.06    +0.222 HD
DOCKED: ENDBRANCH  43  45
DOCKED: BRANCH  43  47
DOCKED: ATOM     47  O   UNL d   1     -18.478  -7.781  10.056 -0.11 -0.08    -0.303 OA
DOCKED: ATOM     48  H   UNL d   1     -18.315  -8.182   9.178 -0.09 -0.14    +0.222 HD
DOCKED: ENDBRANCH  43  47
DOCKED: ENDBRANCH  42  43
DOCKED: ENDBRANCH   4  42
DOCKED: TORSDOF 24
DOCKED: TER
DOCKED: ENDMDL
________________________________________________________________________________


	BEGINNING GENETIC ALGORITHM DOCKING 74 of 100
Run: 74 Seed: 1882299954 722419046 [ Run 74 of 100 GA/GALS ]
Beginning LAMARCKIAN GENETIC ALGORITHM (LGA), with a maximum of 25000000 energy evaluations.

Final-Value: -19.287


	FINAL GENETIC ALGORITHM DOCKED STATE
	_______________________________________________


Detailed state:  trans 16.133 8.104 -15.722 quatxyzw -0.376208 -0.509112 0.125760 0.763844 center 0.035 0.082 -0.065 ntor 24 139.8319 67.6331 52.6828 44.3332 6.2574 -123.5241 -35.2363 -17.5491 62.2977 98.3791 158.7176 -85.3133 -41.9082 180.0000 -60.3348 167.5529 59.3860 -8.9444 34.0377 -28.0932 174.3039 -25.8994 24.9017 135.9946
State:	 16.133   8.104 -15.722  -0.583 -0.789  0.195 80.392    139.83   67.63   52.68   44.33    6.26 -123.52  -35.24  -17.55   62.30   98.38  158.72  -85.31  -41.91  180.00  -60.33  167.55   59.39   -8.94   34.04  -28.09  174.30  -25.90   24.90  135.99

DOCKED: MODEL       74
DOCKED: USER    Run = 74
DOCKED: USER    DPF = D:/Protein_go_brrr/autodock/final/AncB/IHP/dock.dpf
DOCKED: USER  
DOCKED: USER    Estimated Free Energy of Binding    =   +1.65 kcal/mol  [=(1)+(2)+(3)-(4)]
DOCKED: USER    
DOCKED: USER    (1) Final Intermolecular Energy     =   -5.51 kcal/mol
DOCKED: USER        vdW + Hbond + desolv Energy     =   -5.44 kcal/mol
DOCKED: USER        Electrostatic Energy            =   -0.07 kcal/mol
DOCKED: USER    (2) Final Total Internal Energy     =  -13.78 kcal/mol
DOCKED: USER    (3) Torsional Free Energy           =   +7.16 kcal/mol
DOCKED: USER    (4) Unbound System's Energy  [=(2)] =  -13.78 kcal/mol
DOCKED: USER    
DOCKED: USER    
DOCKED: USER    NEWDPF move IHP_ideal_opt.pdbqt
DOCKED: USER    NEWDPF about 0.035000 0.082000 -0.065000
DOCKED: USER    NEWDPF tran0 16.132844 8.104091 -15.722476
DOCKED: USER    NEWDPF quaternion0 -0.376208 -0.509112 0.125760 0.763844
DOCKED: USER    NEWDPF axisangle0 -0.582906 -0.788829 0.194855 80.391532
DOCKED: USER    NEWDPF quat0 -0.582906 -0.788829 0.194855 80.391532
DOCKED: USER    NEWDPF dihe0 139.83 67.63 52.68 44.33 6.26 -123.52 -35.24 -17.55 62.30 98.38 158.72 -85.31 -41.91 180.00 -60.33 167.55 59.39 -8.94 34.04 -28.09 174.30 -25.90 24.90 135.99 
DOCKED: USER  keepresnum = 1 
DOCKED: USER  
DOCKED: REMARK  24 active torsions:
DOCKED: REMARK  status: ('A' for Active; 'I' for Inactive)
DOCKED: REMARK    1  A    between atoms: C_1  and  O_7 
DOCKED: REMARK    2  A    between atoms: C_2  and  O_12 
DOCKED: REMARK    3  A    between atoms: C_3  and  O_17 
DOCKED: REMARK    4  A    between atoms: C_4  and  O_22 
DOCKED: REMARK    5  A    between atoms: C_5  and  O_27 
DOCKED: REMARK    6  A    between atoms: C_6  and  O_32 
DOCKED: REMARK    7  A    between atoms: O_7  and  P_8 
DOCKED: REMARK    8  A    between atoms: P_8  and  O_10 
DOCKED: REMARK    9  A    between atoms: P_8  and  O_11 
DOCKED: REMARK   10  A    between atoms: O_12  and  P_13 
DOCKED: REMARK   11  A    between atoms: P_13  and  O_15 
DOCKED: REMARK   12  A    between atoms: P_13  and  O_16 
DOCKED: REMARK   13  A    between atoms: O_17  and  P_18 
DOCKED: REMARK   14  A    between atoms: P_18  and  O_20 
DOCKED: REMARK   15  A    between atoms: P_18  and  O_21 
DOCKED: REMARK   16  A    between atoms: O_22  and  P_23 
DOCKED: REMARK   17  A    between atoms: P_23  and  O_25 
DOCKED: REMARK   18  A    between atoms: P_23  and  O_26 
DOCKED: REMARK   19  A    between atoms: O_27  and  P_28 
DOCKED: REMARK   20  A    between atoms: P_28  and  O_30 
DOCKED: REMARK   21  A    between atoms: P_28  and  O_31 
DOCKED: REMARK   22  A    between atoms: O_32  and  P_33 
DOCKED: REMARK   23  A    between atoms: P_33  and  O_35 
DOCKED: REMARK   24  A    between atoms: P_33  and  O_36 
DOCKED: USER                              x       y       z     vdW  Elec       q    Type
DOCKED: USER                           _______ _______ _______ _____ _____    ______ ____
DOCKED: ROOT
DOCKED: ATOM      1  C   UNL d   1      16.726   7.179 -17.055 -0.03 +0.04    +0.194 C 
DOCKED: ATOM      2  C   UNL d   1      15.450   6.649 -16.399 -0.11 +0.04    +0.194 C 
DOCKED: ATOM      3  C   UNL d   1      15.531   6.709 -14.872 -0.20 +0.05    +0.194 C 
DOCKED: ATOM      4  C   UNL d   1      15.922   8.088 -14.345 -0.31 +0.07    +0.194 C 
DOCKED: ATOM      5  C   UNL d   1      17.122   8.705 -15.051 -0.18 +0.05    +0.194 C 
DOCKED: ATOM      6  C   UNL d   1      17.071   8.590 -16.576 -0.06 +0.04    +0.194 C 
DOCKED: ENDROOT
DOCKED: BRANCH   1   7
DOCKED: ATOM      7  O   UNL d   1      16.506   7.250 -18.466 -0.01 -0.05    -0.278 OA
DOCKED: BRANCH   7   8
DOCKED: ATOM      8  P   UNL d   1      16.828   5.960 -19.351 +0.01 +0.08    +0.473 P 
DOCKED: ATOM      9  O   UNL d   1      17.120   4.722 -18.579 -0.00 -0.04    -0.228 OA
DOCKED: BRANCH   8  10
DOCKED: ATOM     10  O   UNL d   1      15.559   5.820 -20.307 -0.00 -0.05    -0.303 OA
DOCKED: ATOM     11  H   UNL d   1      14.815   6.334 -19.941 +0.03 +0.04    +0.222 HD
DOCKED: ENDBRANCH   8  10
DOCKED: BRANCH   8  12
DOCKED: ATOM     12  O   UNL d   1      17.958   6.428 -20.366 +0.00 -0.05    -0.303 OA
DOCKED: ATOM     13  H   UNL d   1      18.460   7.212 -20.049 +0.00 +0.03    +0.222 HD
DOCKED: ENDBRANCH   8  12
DOCKED: ENDBRANCH   7   8
DOCKED: ENDBRANCH   1   7
DOCKED: BRANCH   2  14
DOCKED: ATOM     14  O   UNL d   1      14.339   7.445 -16.829 -0.16 -0.05    -0.278 OA
DOCKED: BRANCH  14  15
DOCKED: ATOM     15  P   UNL d   1      13.380   6.797 -17.936 -0.11 +0.09    +0.473 P 
DOCKED: ATOM     16  O   UNL d   1      13.170   7.588 -19.189 -0.10 -0.06    -0.228 OA
DOCKED: BRANCH  15  17
DOCKED: ATOM     17  O   UNL d   1      14.019   5.363 -18.210 -0.09 -0.05    -0.303 OA
DOCKED: ATOM     18  H   UNL d   1      14.991   5.418 -18.275 +0.04 +0.04    +0.222 HD
DOCKED: ENDBRANCH  15  17
DOCKED: BRANCH  15  19
DOCKED: ATOM     19  O   UNL d   1      12.059   6.411 -17.139 -0.09 -0.03    -0.303 OA
DOCKED: ATOM     20  H   UNL d   1      12.204   6.416 -16.175 -0.40 -0.01    +0.222 HD
DOCKED: ENDBRANCH  15  19
DOCKED: ENDBRANCH  14  15
DOCKED: ENDBRANCH   2  14
DOCKED: BRANCH   6  21
DOCKED: ATOM     21  O   UNL d   1      18.380   8.887 -17.056 -0.01 -0.05    -0.278 OA
DOCKED: BRANCH  21  22
DOCKED: ATOM     22  P   UNL d   1      19.562   7.838 -16.834 +0.01 +0.09    +0.473 P 
DOCKED: ATOM     23  O   UNL d   1      19.510   6.963 -15.628 -0.01 -0.05    -0.228 OA
DOCKED: BRANCH  22  24
DOCKED: ATOM     24  O   UNL d   1      19.572   7.062 -18.223 +0.00 -0.05    -0.303 OA
DOCKED: ATOM     25  H   UNL d   1      18.683   6.642 -18.349 +0.00 +0.04    +0.222 HD
DOCKED: ENDBRANCH  22  24
DOCKED: BRANCH  22  26
DOCKED: ATOM     26  O   UNL d   1      20.856   8.774 -16.968 +0.00 -0.05    -0.303 OA
DOCKED: ATOM     27  H   UNL d   1      20.842   9.447 -16.258 +0.01 +0.04    +0.222 HD
DOCKED: ENDBRANCH  22  26
DOCKED: ENDBRANCH  21  22
DOCKED: ENDBRANCH   6  21
DOCKED: BRANCH   3  28
DOCKED: ATOM     28  O   UNL d   1      14.225   6.467 -14.364 -0.19 -0.03    -0.278 OA
DOCKED: BRANCH  28  29
DOCKED: ATOM     29  P   UNL d   1      13.707   4.976 -14.155 -0.23 +0.09    +0.473 P 
DOCKED: ATOM     30  O   UNL d   1      12.883   4.748 -12.941 -0.38 -0.06    -0.228 OA
DOCKED: BRANCH  29  31
DOCKED: ATOM     31  O   UNL d   1      13.002   4.725 -15.570 -0.26 -0.04    -0.303 OA
DOCKED: ATOM     32  H   UNL d   1      13.317   5.410 -16.203 +0.02 +0.01    +0.222 HD
DOCKED: ENDBRANCH  29  31
DOCKED: BRANCH  29  33
DOCKED: ATOM     33  O   UNL d   1      15.053   4.134 -14.279 -0.07 -0.09    -0.303 OA
DOCKED: ATOM     34  H   UNL d   1      15.775   4.609 -13.799 +0.09 +0.07    +0.222 HD
DOCKED: ENDBRANCH  29  33
DOCKED: ENDBRANCH  28  29
DOCKED: ENDBRANCH   3  28
DOCKED: BRANCH   5  35
DOCKED: ATOM     35  O   UNL d   1      17.085  10.095 -14.733 -0.21 -0.07    -0.278 OA
DOCKED: BRANCH  35  36
DOCKED: ATOM     36  P   UNL d   1      18.422  10.965 -14.775 -0.11 +0.12    +0.473 P 
DOCKED: ATOM     37  O   UNL d   1      18.573  11.859 -15.964 -0.05 -0.05    -0.228 OA
DOCKED: BRANCH  36  38
DOCKED: ATOM     38  O   UNL d   1      18.352  11.735 -13.382 -0.29 -0.15    -0.303 OA
DOCKED: ATOM     39  H   UNL d   1      17.481  11.565 -12.964 -0.36 +0.05    +0.222 HD
DOCKED: ENDBRANCH  36  38
DOCKED: BRANCH  36  40
DOCKED: ATOM     40  O   UNL d   1      19.550   9.867 -14.549 -0.05 -0.08    -0.303 OA
DOCKED: ATOM     41  H   UNL d   1      19.503   9.153 -15.223 +0.04 +0.05    +0.222 HD
DOCKED: ENDBRANCH  36  40
DOCKED: ENDBRANCH  35  36
DOCKED: ENDBRANCH   5  35
DOCKED: BRANCH   4  42
DOCKED: ATOM     42  O   UNL d   1      16.284   7.918 -12.970 -0.82 -0.15    -0.278 OA
DOCKED: BRANCH  42  43
DOCKED: ATOM     43  P   UNL d   1      16.794   6.490 -12.477 -0.20 +0.25    +0.473 P 
DOCKED: ATOM     44  O   UNL d   1      17.640   5.701 -13.416 -0.06 -0.08    -0.228 OA
DOCKED: BRANCH  43  45
DOCKED: ATOM     45  O   UNL d   1      17.501   6.830 -11.093 -0.18 -0.24    -0.303 OA
DOCKED: ATOM     46  H   UNL d   1      16.858   6.842 -10.356 -0.16 +0.24    +0.222 HD
DOCKED: ENDBRANCH  43  45
DOCKED: BRANCH  43  47
DOCKED: ATOM     47  O   UNL d   1      15.448   5.769 -11.987 -0.30 -0.19    -0.303 OA
DOCKED: ATOM     48  H   UNL d   1      15.081   5.238 -12.723 +0.12 +0.10    +0.222 HD
DOCKED: ENDBRANCH  43  47
DOCKED: ENDBRANCH  42  43
DOCKED: ENDBRANCH   4  42
DOCKED: TORSDOF 24
DOCKED: TER
DOCKED: ENDMDL
________________________________________________________________________________


	BEGINNING GENETIC ALGORITHM DOCKING 75 of 100
Run: 75 Seed: 869152204 1788120068 [ Run 75 of 100 GA/GALS ]
Beginning LAMARCKIAN GENETIC ALGORITHM (LGA), with a maximum of 25000000 energy evaluations.

Final-Value: -17.920


	FINAL GENETIC ALGORITHM DOCKED STATE
	_______________________________________________


Detailed state:  trans 6.018 4.767 15.583 quatxyzw 0.314072 -0.316562 0.696567 0.562087 center 0.035 0.082 -0.065 ntor 24 98.3661 57.0652 36.3566 58.8276 161.7295 109.7382 42.7258 -84.1602 17.2346 12.7155 52.3834 134.0156 174.7985 163.8430 -108.4199 99.1060 177.1376 -176.8930 -8.0144 -28.5875 138.6283 -32.2352 -171.8854 19.9038
State:	  6.018   4.767  15.583   0.380 -0.383  0.842 111.599     98.37   57.07   36.36   58.83  161.73  109.74   42.73  -84.16   17.23   12.72   52.38  134.02  174.80  163.84 -108.42   99.11  177.14 -176.89   -8.01  -28.59  138.63  -32.24 -171.89   19.90

DOCKED: MODEL       75
DOCKED: USER    Run = 75
DOCKED: USER    DPF = D:/Protein_go_brrr/autodock/final/AncB/IHP/dock.dpf
DOCKED: USER  
DOCKED: USER    Estimated Free Energy of Binding    =   +3.19 kcal/mol  [=(1)+(2)+(3)-(4)]
DOCKED: USER    
DOCKED: USER    (1) Final Intermolecular Energy     =   -3.96 kcal/mol
DOCKED: USER        vdW + Hbond + desolv Energy     =   -3.88 kcal/mol
DOCKED: USER        Electrostatic Energy            =   -0.08 kcal/mol
DOCKED: USER    (2) Final Total Internal Energy     =  -13.96 kcal/mol
DOCKED: USER    (3) Torsional Free Energy           =   +7.16 kcal/mol
DOCKED: USER    (4) Unbound System's Energy  [=(2)] =  -13.96 kcal/mol
DOCKED: USER    
DOCKED: USER    
DOCKED: USER    NEWDPF move IHP_ideal_opt.pdbqt
DOCKED: USER    NEWDPF about 0.035000 0.082000 -0.065000
DOCKED: USER    NEWDPF tran0 6.018085 4.766611 15.583124
DOCKED: USER    NEWDPF quaternion0 0.314072 -0.316562 0.696567 0.562087
DOCKED: USER    NEWDPF axisangle0 0.379737 -0.382747 0.842202 111.599434
DOCKED: USER    NEWDPF quat0 0.379737 -0.382747 0.842202 111.599434
DOCKED: USER    NEWDPF dihe0 98.37 57.07 36.36 58.83 161.73 109.74 42.73 -84.16 17.23 12.72 52.38 134.02 174.80 163.84 -108.42 99.11 177.14 -176.89 -8.01 -28.59 138.63 -32.24 -171.89 19.90 
DOCKED: USER  keepresnum = 1 
DOCKED: USER  
DOCKED: REMARK  24 active torsions:
DOCKED: REMARK  status: ('A' for Active; 'I' for Inactive)
DOCKED: REMARK    1  A    between atoms: C_1  and  O_7 
DOCKED: REMARK    2  A    between atoms: C_2  and  O_12 
DOCKED: REMARK    3  A    between atoms: C_3  and  O_17 
DOCKED: REMARK    4  A    between atoms: C_4  and  O_22 
DOCKED: REMARK    5  A    between atoms: C_5  and  O_27 
DOCKED: REMARK    6  A    between atoms: C_6  and  O_32 
DOCKED: REMARK    7  A    between atoms: O_7  and  P_8 
DOCKED: REMARK    8  A    between atoms: P_8  and  O_10 
DOCKED: REMARK    9  A    between atoms: P_8  and  O_11 
DOCKED: REMARK   10  A    between atoms: O_12  and  P_13 
DOCKED: REMARK   11  A    between atoms: P_13  and  O_15 
DOCKED: REMARK   12  A    between atoms: P_13  and  O_16 
DOCKED: REMARK   13  A    between atoms: O_17  and  P_18 
DOCKED: REMARK   14  A    between atoms: P_18  and  O_20 
DOCKED: REMARK   15  A    between atoms: P_18  and  O_21 
DOCKED: REMARK   16  A    between atoms: O_22  and  P_23 
DOCKED: REMARK   17  A    between atoms: P_23  and  O_25 
DOCKED: REMARK   18  A    between atoms: P_23  and  O_26 
DOCKED: REMARK   19  A    between atoms: O_27  and  P_28 
DOCKED: REMARK   20  A    between atoms: P_28  and  O_30 
DOCKED: REMARK   21  A    between atoms: P_28  and  O_31 
DOCKED: REMARK   22  A    between atoms: O_32  and  P_33 
DOCKED: REMARK   23  A    between atoms: P_33  and  O_35 
DOCKED: REMARK   24  A    between atoms: P_33  and  O_36 
DOCKED: USER                              x       y       z     vdW  Elec       q    Type
DOCKED: USER                           _______ _______ _______ _____ _____    ______ ____
DOCKED: ROOT
DOCKED: ATOM      1  C   UNL d   1       5.913   3.616  16.867 -0.10 -0.03    +0.194 C 
DOCKED: ATOM      2  C   UNL d   1       5.364   5.008  17.181 -0.10 -0.03    +0.194 C 
DOCKED: ATOM      3  C   UNL d   1       6.283   6.112  16.655 -0.05 -0.02    +0.194 C 
DOCKED: ATOM      4  C   UNL d   1       6.634   5.950  15.178 -0.07 -0.02    +0.194 C 
DOCKED: ATOM      5  C   UNL d   1       7.078   4.543  14.797 -0.08 -0.01    +0.194 C 
DOCKED: ATOM      6  C   UNL d   1       6.193   3.437  15.374 -0.03 -0.03    +0.194 C 
DOCKED: ENDROOT
DOCKED: BRANCH   1   7
DOCKED: ATOM      7  O   UNL d   1       4.922   2.652  17.233 -0.20 +0.04    -0.278 OA
DOCKED: BRANCH   7   8
DOCKED: ATOM      8  P   UNL d   1       5.367   1.411  18.134 -0.07 -0.02    +0.473 P 
DOCKED: ATOM      9  O   UNL d   1       4.872   0.086  17.671 -0.11 +0.01    -0.228 OA
DOCKED: BRANCH   8  10
DOCKED: ATOM     10  O   UNL d   1       6.959   1.509  18.170 -0.02 +0.01    -0.303 OA
DOCKED: ATOM     11  H   UNL d   1       7.310   1.456  17.261 +0.02 -0.00    +0.222 HD
DOCKED: ENDBRANCH   8  10
DOCKED: BRANCH   8  12
DOCKED: ATOM     12  O   UNL d   1       4.975   1.817  19.619 -0.06 +0.02    -0.303 OA
DOCKED: ATOM     13  H   UNL d   1       4.398   2.612  19.662 +0.05 -0.02    +0.222 HD
DOCKED: ENDBRANCH   8  12
DOCKED: ENDBRANCH   7   8
DOCKED: ENDBRANCH   1   7
DOCKED: BRANCH   2  14
DOCKED: ATOM     14  O   UNL d   1       4.078   5.153  16.565 -0.15 +0.10    -0.278 OA
DOCKED: BRANCH  14  15
DOCKED: ATOM     15  P   UNL d   1       2.804   5.024  17.527 -0.26 -0.18    +0.473 P 
DOCKED: ATOM     16  O   UNL d   1       1.619   4.294  16.979 -0.55 +0.11    -0.228 OA
DOCKED: BRANCH  15  17
DOCKED: ATOM     17  O   UNL d   1       3.385   4.354  18.850 -0.21 +0.05    -0.303 OA
DOCKED: ATOM     18  H   UNL d   1       3.785   3.484  18.658 +0.07 -0.03    +0.222 HD
DOCKED: ENDBRANCH  15  17
DOCKED: BRANCH  15  19
DOCKED: ATOM     19  O   UNL d   1       2.526   6.512  18.018 -0.24 +0.12    -0.303 OA
DOCKED: ATOM     20  H   UNL d   1       3.175   7.140  17.651 +0.09 -0.07    +0.222 HD
DOCKED: ENDBRANCH  15  19
DOCKED: ENDBRANCH  14  15
DOCKED: ENDBRANCH   2  14
DOCKED: BRANCH   6  21
DOCKED: ATOM     21  O   UNL d   1       6.913   2.215  15.227 -0.45 -0.01    -0.278 OA
DOCKED: BRANCH  21  22
DOCKED: ATOM     22  P   UNL d   1       8.498   2.203  15.408 -0.01 -0.00    +0.473 P 
DOCKED: ATOM     23  O   UNL d   1       9.339   2.696  14.279 -0.01 -0.00    -0.228 OA
DOCKED: BRANCH  22  24
DOCKED: ATOM     24  O   UNL d   1       8.676   3.001  16.773 -0.00 +0.00    -0.303 OA
DOCKED: ATOM     25  H   UNL d   1       8.742   2.342  17.509 +0.01 -0.00    +0.222 HD
DOCKED: ENDBRANCH  22  24
DOCKED: BRANCH  22  26
DOCKED: ATOM     26  O   UNL d   1       8.761   0.691  15.872 -0.00 -0.00    -0.303 OA
DOCKED: ATOM     27  H   UNL d   1       8.333   0.541  16.739 +0.01 +0.00    +0.222 HD
DOCKED: ENDBRANCH  22  26
DOCKED: ENDBRANCH  21  22
DOCKED: ENDBRANCH   6  21
DOCKED: BRANCH   3  28
DOCKED: ATOM     28  O   UNL d   1       5.572   7.340  16.741 -0.03 +0.03    -0.278 OA
DOCKED: BRANCH  28  29
DOCKED: ATOM     29  P   UNL d   1       5.432   8.093  18.138 +0.01 -0.05    +0.473 P 
DOCKED: ATOM     30  O   UNL d   1       6.664   8.759  18.633 -0.01 +0.01    -0.228 OA
DOCKED: BRANCH  29  31
DOCKED: ATOM     31  O   UNL d   1       4.174   9.032  17.824 -0.08 +0.05    -0.303 OA
DOCKED: ATOM     32  H   UNL d   1       3.357   8.575  18.130 +0.10 -0.05    +0.222 HD
DOCKED: ENDBRANCH  29  31
DOCKED: BRANCH  29  33
DOCKED: ATOM     33  O   UNL d   1       4.803   6.961  19.065 -0.03 +0.04    -0.303 OA
DOCKED: ATOM     34  H   UNL d   1       4.316   6.314  18.498 +0.07 -0.04    +0.222 HD
DOCKED: ENDBRANCH  29  33
DOCKED: ENDBRANCH  28  29
DOCKED: ENDBRANCH   3  28
DOCKED: BRANCH   5  35
DOCKED: ATOM     35  O   UNL d   1       6.965   4.473  13.377 -0.09 +0.01    -0.278 OA
DOCKED: BRANCH  35  36
DOCKED: ATOM     36  P   UNL d   1       5.708   5.120  12.637 -0.19 -0.03    +0.473 P 
DOCKED: ATOM     37  O   UNL d   1       5.130   4.310  11.520 -0.40 +0.01    -0.228 OA
DOCKED: BRANCH  36  38
DOCKED: ATOM     38  O   UNL d   1       4.707   5.367  13.851 -0.19 +0.08    -0.303 OA
DOCKED: ATOM     39  H   UNL d   1       4.595   4.530  14.351 -0.36 -0.14    +0.222 HD
DOCKED: ENDBRANCH  36  38
DOCKED: BRANCH  36  40
DOCKED: ATOM     40  O   UNL d   1       6.238   6.575  12.275 -0.16 -0.00    -0.303 OA
DOCKED: ATOM     41  H   UNL d   1       6.912   6.888  12.919 +0.08 +0.00    +0.222 HD
DOCKED: ENDBRANCH  36  40
DOCKED: ENDBRANCH  35  36
DOCKED: ENDBRANCH   5  35
DOCKED: BRANCH   4  42
DOCKED: ATOM     42  O   UNL d   1       7.736   6.825  14.915 -0.02 +0.01    -0.278 OA
DOCKED: BRANCH  42  43
DOCKED: ATOM     43  P   UNL d   1       7.439   8.312  14.421 -0.02 -0.01    +0.473 P 
DOCKED: ATOM     44  O   UNL d   1       8.186   8.802  13.229 -0.04 -0.01    -0.228 OA
DOCKED: BRANCH  43  45
DOCKED: ATOM     45  O   UNL d   1       5.858   8.311  14.243 -0.10 +0.02    -0.303 OA
DOCKED: ATOM     46  H   UNL d   1       5.509   7.403  14.147 +0.09 -0.01    +0.222 HD
DOCKED: ENDBRANCH  43  45
DOCKED: BRANCH  43  47
DOCKED: ATOM     47  O   UNL d   1       7.617   9.183  15.755 -0.01 +0.01    -0.303 OA
DOCKED: ATOM     48  H   UNL d   1       7.133   8.751  16.489 +0.02 -0.01    +0.222 HD
DOCKED: ENDBRANCH  43  47
DOCKED: ENDBRANCH  42  43
DOCKED: ENDBRANCH   4  42
DOCKED: TORSDOF 24
DOCKED: TER
DOCKED: ENDMDL
________________________________________________________________________________


	BEGINNING GENETIC ALGORITHM DOCKING 76 of 100
Run: 76 Seed: 1636280498 1378851231 [ Run 76 of 100 GA/GALS ]
Beginning LAMARCKIAN GENETIC ALGORITHM (LGA), with a maximum of 25000000 energy evaluations.

Final-Value: -17.444


	FINAL GENETIC ALGORITHM DOCKED STATE
	_______________________________________________


Detailed state:  trans 13.309 3.380 7.436 quatxyzw -0.941803 0.040273 0.148959 -0.298657 center 0.035 0.082 -0.065 ntor 24 83.1456 102.4263 78.5805 81.2078 83.5170 -115.5139 -15.3545 -162.4485 -11.2273 114.1372 64.6910 103.0032 -67.4165 -73.0744 81.6170 -44.4999 -78.4095 -85.2650 -155.3107 -8.3508 13.3551 140.7742 -179.3747 -178.5735
State:	 13.309   3.380   7.436  -0.987  0.042  0.156 -145.246     83.15  102.43   78.58   81.21   83.52 -115.51  -15.35 -162.45  -11.23  114.14   64.69  103.00  -67.42  -73.07   81.62  -44.50  -78.41  -85.26 -155.31   -8.35   13.36  140.77 -179.37 -178.57

DOCKED: MODEL       76
DOCKED: USER    Run = 76
DOCKED: USER    DPF = D:/Protein_go_brrr/autodock/final/AncB/IHP/dock.dpf
DOCKED: USER  
DOCKED: USER    Estimated Free Energy of Binding    =   +3.43 kcal/mol  [=(1)+(2)+(3)-(4)]
DOCKED: USER    
DOCKED: USER    (1) Final Intermolecular Energy     =   -3.73 kcal/mol
DOCKED: USER        vdW + Hbond + desolv Energy     =   -3.65 kcal/mol
DOCKED: USER        Electrostatic Energy            =   -0.08 kcal/mol
DOCKED: USER    (2) Final Total Internal Energy     =  -13.71 kcal/mol
DOCKED: USER    (3) Torsional Free Energy           =   +7.16 kcal/mol
DOCKED: USER    (4) Unbound System's Energy  [=(2)] =  -13.71 kcal/mol
DOCKED: USER    
DOCKED: USER    
DOCKED: USER    NEWDPF move IHP_ideal_opt.pdbqt
DOCKED: USER    NEWDPF about 0.035000 0.082000 -0.065000
DOCKED: USER    NEWDPF tran0 13.308933 3.379869 7.435567
DOCKED: USER    NEWDPF quaternion0 -0.941803 0.040273 0.148959 -0.298657
DOCKED: USER    NEWDPF axisangle0 -0.986842 0.042199 0.156083 -145.246106
DOCKED: USER    NEWDPF quat0 -0.986842 0.042199 0.156083 -145.246106
DOCKED: USER    NEWDPF dihe0 83.15 102.43 78.58 81.21 83.52 -115.51 -15.35 -162.45 -11.23 114.14 64.69 103.00 -67.42 -73.07 81.62 -44.50 -78.41 -85.26 -155.31 -8.35 13.36 140.77 -179.37 -178.57 
DOCKED: USER  keepresnum = 1 
DOCKED: USER  
DOCKED: REMARK  24 active torsions:
DOCKED: REMARK  status: ('A' for Active; 'I' for Inactive)
DOCKED: REMARK    1  A    between atoms: C_1  and  O_7 
DOCKED: REMARK    2  A    between atoms: C_2  and  O_12 
DOCKED: REMARK    3  A    between atoms: C_3  and  O_17 
DOCKED: REMARK    4  A    between atoms: C_4  and  O_22 
DOCKED: REMARK    5  A    between atoms: C_5  and  O_27 
DOCKED: REMARK    6  A    between atoms: C_6  and  O_32 
DOCKED: REMARK    7  A    between atoms: O_7  and  P_8 
DOCKED: REMARK    8  A    between atoms: P_8  and  O_10 
DOCKED: REMARK    9  A    between atoms: P_8  and  O_11 
DOCKED: REMARK   10  A    between atoms: O_12  and  P_13 
DOCKED: REMARK   11  A    between atoms: P_13  and  O_15 
DOCKED: REMARK   12  A    between atoms: P_13  and  O_16 
DOCKED: REMARK   13  A    between atoms: O_17  and  P_18 
DOCKED: REMARK   14  A    between atoms: P_18  and  O_20 
DOCKED: REMARK   15  A    between atoms: P_18  and  O_21 
DOCKED: REMARK   16  A    between atoms: O_22  and  P_23 
DOCKED: REMARK   17  A    between atoms: P_23  and  O_25 
DOCKED: REMARK   18  A    between atoms: P_23  and  O_26 
DOCKED: REMARK   19  A    between atoms: O_27  and  P_28 
DOCKED: REMARK   20  A    between atoms: P_28  and  O_30 
DOCKED: REMARK   21  A    between atoms: P_28  and  O_31 
DOCKED: REMARK   22  A    between atoms: O_32  and  P_33 
DOCKED: REMARK   23  A    between atoms: P_33  and  O_35 
DOCKED: REMARK   24  A    between atoms: P_33  and  O_36 
DOCKED: USER                              x       y       z     vdW  Elec       q    Type
DOCKED: USER                           _______ _______ _______ _____ _____    ______ ____
DOCKED: ROOT
DOCKED: ATOM      1  C   UNL d   1      14.446   4.577   6.928 -0.07 +0.04    +0.194 C 
DOCKED: ATOM      2  C   UNL d   1      13.484   5.007   8.038 -0.04 +0.04    +0.194 C 
DOCKED: ATOM      3  C   UNL d   1      12.054   4.542   7.759 -0.12 +0.05    +0.194 C 
DOCKED: ATOM      4  C   UNL d   1      11.955   3.049   7.456 -0.12 +0.03    +0.194 C 
DOCKED: ATOM      5  C   UNL d   1      12.974   2.554   6.437 -0.15 +0.02    +0.194 C 
DOCKED: ATOM      6  C   UNL d   1      14.394   3.069   6.681 -0.09 +0.02    +0.194 C 
DOCKED: ENDROOT
DOCKED: BRANCH   1   7
DOCKED: ATOM      7  O   UNL d   1      15.776   4.896   7.343 -0.01 -0.04    -0.278 OA
DOCKED: BRANCH   7   8
DOCKED: ATOM      8  P   UNL d   1      16.532   3.879   8.316 -0.00 +0.04    +0.473 P 
DOCKED: ATOM      9  O   UNL d   1      15.656   2.882   8.990 -0.01 -0.02    -0.228 OA
DOCKED: BRANCH   8  10
DOCKED: ATOM     10  O   UNL d   1      17.645   3.211   7.389 -0.01 -0.02    -0.303 OA
DOCKED: ATOM     11  H   UNL d   1      17.226   2.568   6.786 +0.02 +0.02    +0.222 HD
DOCKED: ENDBRANCH   8  10
DOCKED: BRANCH   8  12
DOCKED: ATOM     12  O   UNL d   1      17.405   4.796   9.275 -0.00 -0.02    -0.303 OA
DOCKED: ATOM     13  H   UNL d   1      16.869   5.457   9.770 +0.00 +0.02    +0.222 HD
DOCKED: ENDBRANCH   8  12
DOCKED: ENDBRANCH   7   8
DOCKED: ENDBRANCH   1   7
DOCKED: BRANCH   2  14
DOCKED: ATOM     14  O   UNL d   1      13.917   4.435   9.278 -0.01 -0.04    -0.278 OA
DOCKED: BRANCH  14  15
DOCKED: ATOM     15  P   UNL d   1      14.205   5.457  10.476 +0.01 +0.05    +0.473 P 
DOCKED: ATOM     16  O   UNL d   1      14.395   6.894  10.103 -0.00 -0.03    -0.228 OA
DOCKED: BRANCH  15  17
DOCKED: ATOM     17  O   UNL d   1      12.986   5.235  11.477 -0.00 -0.03    -0.303 OA
DOCKED: ATOM     18  H   UNL d   1      12.248   4.773  11.035 +0.01 +0.02    +0.222 HD
DOCKED: ENDBRANCH  15  17
DOCKED: BRANCH  15  19
DOCKED: ATOM     19  O   UNL d   1      15.405   4.795  11.283 +0.00 -0.02    -0.303 OA
DOCKED: ATOM     20  H   UNL d   1      15.902   4.161  10.734 +0.00 +0.02    +0.222 HD
DOCKED: ENDBRANCH  15  19
DOCKED: ENDBRANCH  14  15
DOCKED: ENDBRANCH   2  14
DOCKED: BRANCH   6  21
DOCKED: ATOM     21  O   UNL d   1      15.134   2.815   5.489 -0.07 -0.03    -0.278 OA
DOCKED: BRANCH  21  22
DOCKED: ATOM     22  P   UNL d   1      15.892   1.423   5.310 -0.08 +0.04    +0.473 P 
DOCKED: ATOM     23  O   UNL d   1      15.389   0.474   4.274 -0.23 -0.02    -0.228 OA
DOCKED: BRANCH  22  24
DOCKED: ATOM     24  O   UNL d   1      17.398   1.896   5.106 -0.05 -0.02    -0.303 OA
DOCKED: ATOM     25  H   UNL d   1      17.473   2.832   5.424 +0.03 +0.02    +0.222 HD
DOCKED: ENDBRANCH  22  24
DOCKED: BRANCH  22  26
DOCKED: ATOM     26  O   UNL d   1      15.919   0.871   6.815 -0.03 -0.02    -0.303 OA
DOCKED: ATOM     27  H   UNL d   1      15.012   0.616   7.080 +0.03 +0.02    +0.222 HD
DOCKED: ENDBRANCH  22  26
DOCKED: ENDBRANCH  21  22
DOCKED: ENDBRANCH   6  21
DOCKED: BRANCH   3  28
DOCKED: ATOM     28  O   UNL d   1      11.301   4.735   8.950 -0.08 -0.06    -0.278 OA
DOCKED: BRANCH  28  29
DOCKED: ATOM     29  P   UNL d   1      10.833   3.485   9.818 -0.03 +0.05    +0.473 P 
DOCKED: ATOM     30  O   UNL d   1       9.771   2.643   9.208 -0.08 -0.01    -0.228 OA
DOCKED: BRANCH  29  31
DOCKED: ATOM     31  O   UNL d   1      12.247   2.787  10.088 -0.01 -0.02    -0.303 OA
DOCKED: ATOM     32  H   UNL d   1      12.926   3.491  10.208 +0.01 +0.02    +0.222 HD
DOCKED: ENDBRANCH  29  31
DOCKED: BRANCH  29  33
DOCKED: ATOM     33  O   UNL d   1      10.499   4.159  11.222 -0.04 -0.02    -0.303 OA
DOCKED: ATOM     34  H   UNL d   1      11.235   3.967  11.853 +0.01 +0.01    +0.222 HD
DOCKED: ENDBRANCH  29  33
DOCKED: ENDBRANCH  28  29
DOCKED: ENDBRANCH   3  28
DOCKED: BRANCH   5  35
DOCKED: ATOM     35  O   UNL d   1      13.011   1.136   6.585 -0.14 -0.01    -0.278 OA
DOCKED: BRANCH  35  36
DOCKED: ATOM     36  P   UNL d   1      13.160   0.481   8.032 -0.04 +0.02    +0.473 P 
DOCKED: ATOM     37  O   UNL d   1      14.000   1.248   9.004 -0.01 -0.01    -0.228 OA
DOCKED: BRANCH  36  38
DOCKED: ATOM     38  O   UNL d   1      11.639   0.312   8.472 -0.04 +0.01    -0.303 OA
DOCKED: ATOM     39  H   UNL d   1      11.307   1.169   8.815 +0.05 -0.00    +0.222 HD
DOCKED: ENDBRANCH  36  38
DOCKED: BRANCH  36  40
DOCKED: ATOM     40  O   UNL d   1      13.626  -1.001   7.688 -0.07 -0.02    -0.303 OA
DOCKED: ATOM     41  H   UNL d   1      14.556  -1.026   7.371 +0.03 +0.02    +0.222 HD
DOCKED: ENDBRANCH  36  40
DOCKED: ENDBRANCH  35  36
DOCKED: ENDBRANCH   5  35
DOCKED: BRANCH   4  42
DOCKED: ATOM     42  O   UNL d   1      10.657   2.824   6.896 -0.15 -0.03    -0.278 OA
DOCKED: BRANCH  42  43
DOCKED: ATOM     43  P   UNL d   1      10.342   3.374   5.432 -0.31 +0.12    +0.473 P 
DOCKED: ATOM     44  O   UNL d   1      10.884   4.713   5.071 -0.82 -0.16    -0.228 OA
DOCKED: BRANCH  43  45
DOCKED: ATOM     45  O   UNL d   1      10.853   2.191   4.498 -0.31 +0.00    -0.303 OA
DOCKED: ATOM     46  H   UNL d   1      11.335   1.512   5.012 -0.37 -0.06    +0.222 HD
DOCKED: ENDBRANCH  43  45
DOCKED: BRANCH  43  47
DOCKED: ATOM     47  O   UNL d   1       8.751   3.217   5.316 -0.38 -0.07    -0.303 OA
DOCKED: ATOM     48  H   UNL d   1       8.532   2.279   5.134 +0.10 +0.01    +0.222 HD
DOCKED: ENDBRANCH  43  47
DOCKED: ENDBRANCH  42  43
DOCKED: ENDBRANCH   4  42
DOCKED: TORSDOF 24
DOCKED: TER
DOCKED: ENDMDL
________________________________________________________________________________


	BEGINNING GENETIC ALGORITHM DOCKING 77 of 100
Run: 77 Seed: 1224810939 493275210 [ Run 77 of 100 GA/GALS ]
Beginning LAMARCKIAN GENETIC ALGORITHM (LGA), with a maximum of 25000000 energy evaluations.

Final-Value: -16.429


	FINAL GENETIC ALGORITHM DOCKED STATE
	_______________________________________________


Detailed state:  trans -5.651 -19.832 -16.075 quatxyzw 0.455416 -0.180943 0.871690 -0.003482 center 0.035 0.082 -0.065 ntor 24 -89.2170 5.4466 180.0000 145.7260 -12.7890 -60.8339 11.2116 -124.7173 74.1448 -178.1530 149.7041 125.3550 -179.9281 43.5922 -68.0399 120.8099 -94.2676 -141.8292 64.7884 20.6379 -160.3201 -8.3551 171.1522 9.3421
State:	 -5.651 -19.832 -16.075   0.455 -0.181  0.872 -179.601    -89.22    5.45  180.00  145.73  -12.79  -60.83   11.21 -124.72   74.14 -178.15  149.70  125.35 -179.93   43.59  -68.04  120.81  -94.27 -141.83   64.79   20.64 -160.32   -8.36  171.15    9.34

DOCKED: MODEL       77
DOCKED: USER    Run = 77
DOCKED: USER    DPF = D:/Protein_go_brrr/autodock/final/AncB/IHP/dock.dpf
DOCKED: USER  
DOCKED: USER    Estimated Free Energy of Binding    =   +2.68 kcal/mol  [=(1)+(2)+(3)-(4)]
DOCKED: USER    
DOCKED: USER    (1) Final Intermolecular Energy     =   -4.48 kcal/mol
DOCKED: USER        vdW + Hbond + desolv Energy     =   -3.19 kcal/mol
DOCKED: USER        Electrostatic Energy            =   -1.29 kcal/mol
DOCKED: USER    (2) Final Total Internal Energy     =  -11.95 kcal/mol
DOCKED: USER    (3) Torsional Free Energy           =   +7.16 kcal/mol
DOCKED: USER    (4) Unbound System's Energy  [=(2)] =  -11.95 kcal/mol
DOCKED: USER    
DOCKED: USER    
DOCKED: USER    NEWDPF move IHP_ideal_opt.pdbqt
DOCKED: USER    NEWDPF about 0.035000 0.082000 -0.065000
DOCKED: USER    NEWDPF tran0 -5.651197 -19.831614 -16.075469
DOCKED: USER    NEWDPF quaternion0 0.455416 -0.180943 0.871690 -0.003482
DOCKED: USER    NEWDPF axisangle0 0.455419 -0.180944 0.871695 -179.600952
DOCKED: USER    NEWDPF quat0 0.455419 -0.180944 0.871695 -179.600952
DOCKED: USER    NEWDPF dihe0 -89.22 5.45 180.00 145.73 -12.79 -60.83 11.21 -124.72 74.14 -178.15 149.70 125.35 -179.93 43.59 -68.04 120.81 -94.27 -141.83 64.79 20.64 -160.32 -8.36 171.15 9.34 
DOCKED: USER  keepresnum = 1 
DOCKED: USER  
DOCKED: REMARK  24 active torsions:
DOCKED: REMARK  status: ('A' for Active; 'I' for Inactive)
DOCKED: REMARK    1  A    between atoms: C_1  and  O_7 
DOCKED: REMARK    2  A    between atoms: C_2  and  O_12 
DOCKED: REMARK    3  A    between atoms: C_3  and  O_17 
DOCKED: REMARK    4  A    between atoms: C_4  and  O_22 
DOCKED: REMARK    5  A    between atoms: C_5  and  O_27 
DOCKED: REMARK    6  A    between atoms: C_6  and  O_32 
DOCKED: REMARK    7  A    between atoms: O_7  and  P_8 
DOCKED: REMARK    8  A    between atoms: P_8  and  O_10 
DOCKED: REMARK    9  A    between atoms: P_8  and  O_11 
DOCKED: REMARK   10  A    between atoms: O_12  and  P_13 
DOCKED: REMARK   11  A    between atoms: P_13  and  O_15 
DOCKED: REMARK   12  A    between atoms: P_13  and  O_16 
DOCKED: REMARK   13  A    between atoms: O_17  and  P_18 
DOCKED: REMARK   14  A    between atoms: P_18  and  O_20 
DOCKED: REMARK   15  A    between atoms: P_18  and  O_21 
DOCKED: REMARK   16  A    between atoms: O_22  and  P_23 
DOCKED: REMARK   17  A    between atoms: P_23  and  O_25 
DOCKED: REMARK   18  A    between atoms: P_23  and  O_26 
DOCKED: REMARK   19  A    between atoms: O_27  and  P_28 
DOCKED: REMARK   20  A    between atoms: P_28  and  O_30 
DOCKED: REMARK   21  A    between atoms: P_28  and  O_31 
DOCKED: REMARK   22  A    between atoms: O_32  and  P_33 
DOCKED: REMARK   23  A    between atoms: P_33  and  O_35 
DOCKED: REMARK   24  A    between atoms: P_33  and  O_36 
DOCKED: USER                              x       y       z     vdW  Elec       q    Type
DOCKED: USER                           _______ _______ _______ _____ _____    ______ ____
DOCKED: ROOT
DOCKED: ATOM      1  C   UNL d   1      -5.606 -19.453 -14.391 -0.01 -0.04    +0.194 C 
DOCKED: ATOM      2  C   UNL d   1      -5.030 -18.386 -15.324 -0.05 -0.10    +0.194 C 
DOCKED: ATOM      3  C   UNL d   1      -4.160 -19.002 -16.421 -0.02 -0.07    +0.194 C 
DOCKED: ATOM      4  C   UNL d   1      -4.861 -20.122 -17.187 +0.00 -0.02    +0.194 C 
DOCKED: ATOM      5  C   UNL d   1      -5.548 -21.148 -16.295 +0.00 -0.01    +0.194 C 
DOCKED: ATOM      6  C   UNL d   1      -6.369 -20.532 -15.160 +0.01 -0.01    +0.194 C 
DOCKED: ENDROOT
DOCKED: BRANCH   1   7
DOCKED: ATOM      7  O   UNL d   1      -6.536 -18.820 -13.509 -0.01 +0.03    -0.278 OA
DOCKED: BRANCH   7   8
DOCKED: ATOM      8  P   UNL d   1      -6.017 -17.617 -12.594 -0.11 -0.12    +0.473 P 
DOCKED: ATOM      9  O   UNL d   1      -6.323 -17.750 -11.144 -0.70 -0.19    -0.228 OA
DOCKED: BRANCH   8  10
DOCKED: ATOM     10  O   UNL d   1      -4.453 -17.544 -12.902 -0.06 +0.34    -0.303 OA
DOCKED: ATOM     11  H   UNL d   1      -4.250 -16.711 -13.367 -0.51 -0.50    +0.222 HD
DOCKED: ENDBRANCH   8  10
DOCKED: BRANCH   8  12
DOCKED: ATOM     12  O   UNL d   1      -6.557 -16.299 -13.299 -0.14 +0.28    -0.303 OA
DOCKED: ATOM     13  H   UNL d   1      -6.501 -16.337 -14.280 +0.03 -0.25    +0.222 HD
DOCKED: ENDBRANCH   8  12
DOCKED: ENDBRANCH   7   8
DOCKED: ENDBRANCH   1   7
DOCKED: BRANCH   2  14
DOCKED: ATOM     14  O   UNL d   1      -6.110 -17.675 -15.943 -0.03 +0.13    -0.278 OA
DOCKED: BRANCH  14  15
DOCKED: ATOM     15  P   UNL d   1      -5.816 -16.163 -16.378 -0.07 -0.43    +0.473 P 
DOCKED: ATOM     16  O   UNL d   1      -5.486 -15.930 -17.819 -0.04 +0.11    -0.228 OA
DOCKED: BRANCH  15  17
DOCKED: ATOM     17  O   UNL d   1      -7.110 -15.364 -15.904 -0.04 +0.35    -0.303 OA
DOCKED: ATOM     18  H   UNL d   1      -7.042 -15.110 -14.964 -0.30 -0.48    +0.222 HD
DOCKED: ENDBRANCH  15  17
DOCKED: BRANCH  15  19
DOCKED: ATOM     19  O   UNL d   1      -4.727 -15.655 -15.335 -0.03 +0.66    -0.303 OA
DOCKED: ATOM     20  H   UNL d   1      -3.823 -15.882 -15.619 -0.51 -0.60    +0.222 HD
DOCKED: ENDBRANCH  15  19
DOCKED: ENDBRANCH  14  15
DOCKED: ENDBRANCH   2  14
DOCKED: BRANCH   6  21
DOCKED: ATOM     21  O   UNL d   1      -6.651 -21.582 -14.238 +0.00 -0.01    -0.278 OA
DOCKED: BRANCH  21  22
DOCKED: ATOM     22  P   UNL d   1      -5.738 -21.765 -12.943 +0.01 +0.03    +0.473 P 
DOCKED: ATOM     23  O   UNL d   1      -4.272 -21.527 -13.074 -0.00 +0.01    -0.228 OA
DOCKED: BRANCH  22  24
DOCKED: ATOM     24  O   UNL d   1      -6.475 -20.826 -11.890 +0.00 -0.07    -0.303 OA
DOCKED: ATOM     25  H   UNL d   1      -6.218 -19.888 -12.080 +0.03 +0.04    +0.222 HD
DOCKED: ENDBRANCH  22  24
DOCKED: BRANCH  22  26
DOCKED: ATOM     26  O   UNL d   1      -6.171 -23.226 -12.443 +0.00 -0.03    -0.303 OA
DOCKED: ATOM     27  H   UNL d   1      -5.374 -23.788 -12.363 +0.00 +0.02    +0.222 HD
DOCKED: ENDBRANCH  22  26
DOCKED: ENDBRANCH  21  22
DOCKED: ENDBRANCH   6  21
DOCKED: BRANCH   3  28
DOCKED: ATOM     28  O   UNL d   1      -3.904 -17.989 -17.385 -0.02 +0.12    -0.278 OA
DOCKED: BRANCH  28  29
DOCKED: ATOM     29  P   UNL d   1      -2.497 -17.243 -17.414 -0.04 -0.29    +0.473 P 
DOCKED: ATOM     30  O   UNL d   1      -1.495 -17.802 -18.358 -0.02 +0.06    -0.228 OA
DOCKED: BRANCH  29  31
DOCKED: ATOM     31  O   UNL d   1      -2.982 -15.741 -17.676 -0.08 +0.26    -0.303 OA
DOCKED: ATOM     32  H   UNL d   1      -3.533 -15.451 -16.912 -0.31 -0.34    +0.222 HD
DOCKED: ENDBRANCH  29  31
DOCKED: BRANCH  29  33
DOCKED: ATOM     33  O   UNL d   1      -2.099 -17.220 -15.873 -0.01 +0.41    -0.303 OA
DOCKED: ATOM     34  H   UNL d   1      -2.742 -16.650 -15.383 -0.21 -0.57    +0.222 HD
DOCKED: ENDBRANCH  29  33
DOCKED: ENDBRANCH  28  29
DOCKED: ENDBRANCH   3  28
DOCKED: BRANCH   5  35
DOCKED: ATOM     35  O   UNL d   1      -6.459 -21.847 -17.140 +0.00 -0.00    -0.278 OA
DOCKED: BRANCH  35  36
DOCKED: ATOM     36  P   UNL d   1      -7.600 -21.054 -17.924 +0.00 +0.01    +0.473 P 
DOCKED: ATOM     37  O   UNL d   1      -8.421 -20.118 -17.095 +0.00 -0.00    -0.228 OA
DOCKED: BRANCH  36  38
DOCKED: ATOM     38  O   UNL d   1      -6.767 -20.344 -19.081 +0.00 -0.00    -0.303 OA
DOCKED: ATOM     39  H   UNL d   1      -5.832 -20.636 -19.029 +0.00 -0.00    +0.222 HD
DOCKED: ENDBRANCH  36  38
DOCKED: BRANCH  36  40
DOCKED: ATOM     40  O   UNL d   1      -8.374 -22.224 -18.673 +0.00 -0.02    -0.303 OA
DOCKED: ATOM     41  H   UNL d   1      -9.347 -22.080 -18.666 +0.00 +0.01    +0.222 HD
DOCKED: ENDBRANCH  36  40
DOCKED: ENDBRANCH  35  36
DOCKED: ENDBRANCH   5  35
DOCKED: BRANCH   4  42
DOCKED: ATOM     42  O   UNL d   1      -3.850 -20.815 -17.925 +0.00 +0.02    -0.278 OA
DOCKED: BRANCH  42  43
DOCKED: ATOM     43  P   UNL d   1      -3.695 -20.521 -19.485 +0.00 -0.01    +0.473 P 
DOCKED: ATOM     44  O   UNL d   1      -4.378 -21.449 -20.430 +0.00 -0.00    -0.228 OA
DOCKED: BRANCH  43  45
DOCKED: ATOM     45  O   UNL d   1      -4.170 -19.007 -19.604 +0.00 +0.02    -0.303 OA
DOCKED: ATOM     46  H   UNL d   1      -3.479 -18.389 -19.289 +0.01 -0.03    +0.222 HD
DOCKED: ENDBRANCH  43  45
DOCKED: BRANCH  43  47
DOCKED: ATOM     47  O   UNL d   1      -2.110 -20.381 -19.677 +0.00 +0.01    -0.303 OA
DOCKED: ATOM     48  H   UNL d   1      -1.771 -19.691 -19.069 +0.01 -0.02    +0.222 HD
DOCKED: ENDBRANCH  43  47
DOCKED: ENDBRANCH  42  43
DOCKED: ENDBRANCH   4  42
DOCKED: TORSDOF 24
DOCKED: TER
DOCKED: ENDMDL
________________________________________________________________________________


	BEGINNING GENETIC ALGORITHM DOCKING 78 of 100
Run: 78 Seed: 903272597 854086453 [ Run 78 of 100 GA/GALS ]
Beginning LAMARCKIAN GENETIC ALGORITHM (LGA), with a maximum of 25000000 energy evaluations.

Final-Value: -16.960


	FINAL GENETIC ALGORITHM DOCKED STATE
	_______________________________________________


Detailed state:  trans 10.527 12.806 4.373 quatxyzw 0.346432 0.718400 0.436550 -0.416306 center 0.035 0.082 -0.065 ntor 24 -163.7477 -2.4195 41.4674 63.0851 -0.0595 173.0393 -78.7668 84.9626 -28.6110 1.3112 -9.0783 -66.2067 63.0018 153.7303 179.5263 -153.3759 -13.9632 -179.8420 2.6701 -19.0368 -27.5024 -26.9262 5.0610 -34.2524
State:	 10.527  12.806   4.373   0.381  0.790  0.480 -130.797   -163.75   -2.42   41.47   63.09   -0.06  173.04  -78.77   84.96  -28.61    1.31   -9.08  -66.21   63.00  153.73  179.53 -153.38  -13.96 -179.84    2.67  -19.04  -27.50  -26.93    5.06  -34.25

DOCKED: MODEL       78
DOCKED: USER    Run = 78
DOCKED: USER    DPF = D:/Protein_go_brrr/autodock/final/AncB/IHP/dock.dpf
DOCKED: USER  
DOCKED: USER    Estimated Free Energy of Binding    =   +3.31 kcal/mol  [=(1)+(2)+(3)-(4)]
DOCKED: USER    
DOCKED: USER    (1) Final Intermolecular Energy     =   -3.85 kcal/mol
DOCKED: USER        vdW + Hbond + desolv Energy     =   -3.71 kcal/mol
DOCKED: USER        Electrostatic Energy            =   -0.14 kcal/mol
DOCKED: USER    (2) Final Total Internal Energy     =  -13.11 kcal/mol
DOCKED: USER    (3) Torsional Free Energy           =   +7.16 kcal/mol
DOCKED: USER    (4) Unbound System's Energy  [=(2)] =  -13.11 kcal/mol
DOCKED: USER    
DOCKED: USER    
DOCKED: USER    NEWDPF move IHP_ideal_opt.pdbqt
DOCKED: USER    NEWDPF about 0.035000 0.082000 -0.065000
DOCKED: USER    NEWDPF tran0 10.526681 12.806223 4.373184
DOCKED: USER    NEWDPF quaternion0 0.346432 0.718400 0.436550 -0.416306
DOCKED: USER    NEWDPF axisangle0 0.381019 0.790124 0.480134 -130.796883
DOCKED: USER    NEWDPF quat0 0.381019 0.790124 0.480134 -130.796883
DOCKED: USER    NEWDPF dihe0 -163.75 -2.42 41.47 63.09 -0.06 173.04 -78.77 84.96 -28.61 1.31 -9.08 -66.21 63.00 153.73 179.53 -153.38 -13.96 -179.84 2.67 -19.04 -27.50 -26.93 5.06 -34.25 
DOCKED: USER  keepresnum = 1 
DOCKED: USER  
DOCKED: REMARK  24 active torsions:
DOCKED: REMARK  status: ('A' for Active; 'I' for Inactive)
DOCKED: REMARK    1  A    between atoms: C_1  and  O_7 
DOCKED: REMARK    2  A    between atoms: C_2  and  O_12 
DOCKED: REMARK    3  A    between atoms: C_3  and  O_17 
DOCKED: REMARK    4  A    between atoms: C_4  and  O_22 
DOCKED: REMARK    5  A    between atoms: C_5  and  O_27 
DOCKED: REMARK    6  A    between atoms: C_6  and  O_32 
DOCKED: REMARK    7  A    between atoms: O_7  and  P_8 
DOCKED: REMARK    8  A    between atoms: P_8  and  O_10 
DOCKED: REMARK    9  A    between atoms: P_8  and  O_11 
DOCKED: REMARK   10  A    between atoms: O_12  and  P_13 
DOCKED: REMARK   11  A    between atoms: P_13  and  O_15 
DOCKED: REMARK   12  A    between atoms: P_13  and  O_16 
DOCKED: REMARK   13  A    between atoms: O_17  and  P_18 
DOCKED: REMARK   14  A    between atoms: P_18  and  O_20 
DOCKED: REMARK   15  A    between atoms: P_18  and  O_21 
DOCKED: REMARK   16  A    between atoms: O_22  and  P_23 
DOCKED: REMARK   17  A    between atoms: P_23  and  O_25 
DOCKED: REMARK   18  A    between atoms: P_23  and  O_26 
DOCKED: REMARK   19  A    between atoms: O_27  and  P_28 
DOCKED: REMARK   20  A    between atoms: P_28  and  O_30 
DOCKED: REMARK   21  A    between atoms: P_28  and  O_31 
DOCKED: REMARK   22  A    between atoms: O_32  and  P_33 
DOCKED: REMARK   23  A    between atoms: P_33  and  O_35 
DOCKED: REMARK   24  A    between atoms: P_33  and  O_36 
DOCKED: USER                              x       y       z     vdW  Elec       q    Type
DOCKED: USER                           _______ _______ _______ _____ _____    ______ ____
DOCKED: ROOT
DOCKED: ATOM      1  C   UNL d   1      10.602  13.817   2.974 -0.03 +0.03    +0.194 C 
DOCKED: ATOM      2  C   UNL d   1      10.677  12.313   2.707 -0.09 +0.06    +0.194 C 
DOCKED: ATOM      3  C   UNL d   1      11.596  11.605   3.706 -0.09 +0.09    +0.194 C 
DOCKED: ATOM      4  C   UNL d   1      11.256  11.917   5.161 -0.07 +0.11    +0.194 C 
DOCKED: ATOM      5  C   UNL d   1      11.058  13.400   5.449 -0.02 +0.05    +0.194 C 
DOCKED: ATOM      6  C   UNL d   1      10.189  14.121   4.415 -0.01 +0.03    +0.194 C 
DOCKED: ENDROOT
DOCKED: BRANCH   1   7
DOCKED: ATOM      7  O   UNL d   1       9.600  14.372   2.118 -0.04 -0.01    -0.278 OA
DOCKED: BRANCH   7   8
DOCKED: ATOM      8  P   UNL d   1      10.035  15.497   1.071 -0.05 +0.01    +0.473 P 
DOCKED: ATOM      9  O   UNL d   1       9.910  15.108  -0.361 -0.13 -0.02    -0.228 OA
DOCKED: BRANCH   8  10
DOCKED: ATOM     10  O   UNL d   1       9.138  16.757   1.461 -0.02 +0.02    -0.303 OA
DOCKED: ATOM     11  H   UNL d   1       9.056  16.812   2.431 +0.02 -0.02    +0.222 HD
DOCKED: ENDBRANCH   8  10
DOCKED: BRANCH   8  12
DOCKED: ATOM     12  O   UNL d   1      11.481  15.961   1.539 -0.02 -0.02    -0.303 OA
DOCKED: ATOM     13  H   UNL d   1      11.533  16.145   2.504 +0.01 +0.01    +0.222 HD
DOCKED: ENDBRANCH   8  12
DOCKED: ENDBRANCH   7   8
DOCKED: ENDBRANCH   1   7
DOCKED: BRANCH   2  14
DOCKED: ATOM     14  O   UNL d   1       9.363  11.752   2.820 -0.12 -0.11    -0.278 OA
DOCKED: BRANCH  14  15
DOCKED: ATOM     15  P   UNL d   1       8.706  11.193   1.471 -0.26 +0.10    +0.473 P 
DOCKED: ATOM     16  O   UNL d   1       7.213  11.239   1.382 -0.38 -0.01    -0.228 OA
DOCKED: BRANCH  15  17
DOCKED: ATOM     17  O   UNL d   1       9.419  12.029   0.317 -0.11 -0.02    -0.303 OA
DOCKED: ATOM     18  H   UNL d   1       9.331  12.988   0.473 +0.03 +0.01    +0.222 HD
DOCKED: ENDBRANCH  15  17
DOCKED: BRANCH  15  19
DOCKED: ATOM     19  O   UNL d   1       9.361   9.756   1.276 -0.31 -0.13    -0.303 OA
DOCKED: ATOM     20  H   UNL d   1       9.949   9.525   2.018 +0.12 +0.15    +0.222 HD
DOCKED: ENDBRANCH  15  19
DOCKED: ENDBRANCH  14  15
DOCKED: ENDBRANCH   2  14
DOCKED: BRANCH   6  21
DOCKED: ATOM     21  O   UNL d   1      10.380  15.519   4.619 +0.00 -0.02    -0.278 OA
DOCKED: BRANCH  21  22
DOCKED: ATOM     22  P   UNL d   1       9.114  16.479   4.756 +0.01 -0.02    +0.473 P 
DOCKED: ATOM     23  O   UNL d   1       9.250  17.894   4.304 +0.00 +0.01    -0.228 OA
DOCKED: BRANCH  22  24
DOCKED: ATOM     24  O   UNL d   1       7.988  15.643   4.002 -0.01 +0.05    -0.303 OA
DOCKED: ATOM     25  H   UNL d   1       8.234  15.590   3.044 +0.03 -0.03    +0.222 HD
DOCKED: ENDBRANCH  22  24
DOCKED: BRANCH  22  26
DOCKED: ATOM     26  O   UNL d   1       8.709  16.268   6.293 +0.00 +0.01    -0.303 OA
DOCKED: ATOM     27  H   UNL d   1       9.319  15.619   6.700 +0.01 +0.01    +0.222 HD
DOCKED: ENDBRANCH  22  26
DOCKED: ENDBRANCH  21  22
DOCKED: ENDBRANCH   6  21
DOCKED: BRANCH   3  28
DOCKED: ATOM     28  O   UNL d   1      11.389  10.206   3.562 -0.15 -0.22    -0.278 OA
DOCKED: BRANCH  28  29
DOCKED: ATOM     29  P   UNL d   1      12.158   9.392   2.429 -0.22 +0.24    +0.473 P 
DOCKED: ATOM     30  O   UNL d   1      11.851   7.940   2.364 -0.38 -0.14    -0.228 OA
DOCKED: BRANCH  29  31
DOCKED: ATOM     31  O   UNL d   1      11.781  10.273   1.147 -0.19 -0.10    -0.303 OA
DOCKED: ATOM     32  H   UNL d   1      10.918  10.718   1.315 +0.12 +0.07    +0.222 HD
DOCKED: ENDBRANCH  29  31
DOCKED: BRANCH  29  33
DOCKED: ATOM     33  O   UNL d   1      13.675   9.796   2.699 -0.09 -0.10    -0.303 OA
DOCKED: ATOM     34  H   UNL d   1      14.252   9.014   2.517 +0.07 +0.07    +0.222 HD
DOCKED: ENDBRANCH  29  33
DOCKED: ENDBRANCH  28  29
DOCKED: ENDBRANCH   3  28
DOCKED: BRANCH   5  35
DOCKED: ATOM     35  O   UNL d   1      10.368  13.464   6.695 -0.02 -0.07    -0.278 OA
DOCKED: BRANCH  35  36
DOCKED: ATOM     36  P   UNL d   1      10.823  14.507   7.814 +0.01 +0.06    +0.473 P 
DOCKED: ATOM     37  O   UNL d   1      11.426  15.777   7.304 +0.00 -0.02    -0.228 OA
DOCKED: BRANCH  36  38
DOCKED: ATOM     38  O   UNL d   1       9.476  14.707   8.640 -0.00 -0.02    -0.303 OA
DOCKED: ATOM     39  H   UNL d   1       9.035  15.531   8.340 +0.01 +0.00    +0.222 HD
DOCKED: ENDBRANCH  36  38
DOCKED: BRANCH  36  40
DOCKED: ATOM     40  O   UNL d   1      11.727  13.610   8.766 +0.00 -0.04    -0.303 OA
DOCKED: ATOM     41  H   UNL d   1      11.341  12.715   8.898 +0.01 +0.05    +0.222 HD
DOCKED: ENDBRANCH  36  40
DOCKED: ENDBRANCH  35  36
DOCKED: ENDBRANCH   5  35
DOCKED: BRANCH   4  42
DOCKED: ATOM     42  O   UNL d   1      12.368  11.481   5.950 -0.08 -0.14    -0.278 OA
DOCKED: BRANCH  42  43
DOCKED: ATOM     43  P   UNL d   1      12.095  10.881   7.403 -0.05 +0.27    +0.473 P 
DOCKED: ATOM     44  O   UNL d   1      12.958  11.362   8.518 -0.00 -0.06    -0.228 OA
DOCKED: BRANCH  43  45
DOCKED: ATOM     45  O   UNL d   1      10.543  11.164   7.611 -0.61 -0.25    -0.303 OA
DOCKED: ATOM     46  H   UNL d   1      10.384  12.081   7.913 +0.03 +0.10    +0.222 HD
DOCKED: ENDBRANCH  43  45
DOCKED: BRANCH  43  47
DOCKED: ATOM     47  O   UNL d   1      12.107   9.297   7.153 -0.66 -0.32    -0.303 OA
DOCKED: ATOM     48  H   UNL d   1      12.885   8.906   7.601 +0.02 +0.13    +0.222 HD
DOCKED: ENDBRANCH  43  47
DOCKED: ENDBRANCH  42  43
DOCKED: ENDBRANCH   4  42
DOCKED: TORSDOF 24
DOCKED: TER
DOCKED: ENDMDL
________________________________________________________________________________


	BEGINNING GENETIC ALGORITHM DOCKING 79 of 100
Run: 79 Seed: 1310365038 390434240 [ Run 79 of 100 GA/GALS ]
Beginning LAMARCKIAN GENETIC ALGORITHM (LGA), with a maximum of 25000000 energy evaluations.

Final-Value: -16.107


	FINAL GENETIC ALGORITHM DOCKED STATE
	_______________________________________________


Detailed state:  trans 0.199 9.931 -16.723 quatxyzw 0.001354 -0.630784 0.014168 0.775828 center 0.035 0.082 -0.065 ntor 24 -59.3461 98.9076 3.7901 -6.6581 35.8733 -179.6247 -23.3703 -121.7789 127.0684 1.9023 125.6496 122.1967 -13.5292 174.1472 10.5109 124.8275 -113.9633 97.9972 -58.6090 -38.8652 117.3537 -46.2617 138.7960 -46.3389
State:	  0.199   9.931 -16.723   0.002 -1.000  0.022 78.240    -59.35   98.91    3.79   -6.66   35.87 -179.62  -23.37 -121.78  127.07    1.90  125.65  122.20  -13.53  174.15   10.51  124.83 -113.96   98.00  -58.61  -38.87  117.35  -46.26  138.80  -46.34

DOCKED: MODEL       79
DOCKED: USER    Run = 79
DOCKED: USER    DPF = D:/Protein_go_brrr/autodock/final/AncB/IHP/dock.dpf
DOCKED: USER  
DOCKED: USER    Estimated Free Energy of Binding    =   +3.23 kcal/mol  [=(1)+(2)+(3)-(4)]
DOCKED: USER    
DOCKED: USER    (1) Final Intermolecular Energy     =   -3.93 kcal/mol
DOCKED: USER        vdW + Hbond + desolv Energy     =   -3.91 kcal/mol
DOCKED: USER        Electrostatic Energy            =   -0.01 kcal/mol
DOCKED: USER    (2) Final Total Internal Energy     =  -12.18 kcal/mol
DOCKED: USER    (3) Torsional Free Energy           =   +7.16 kcal/mol
DOCKED: USER    (4) Unbound System's Energy  [=(2)] =  -12.18 kcal/mol
DOCKED: USER    
DOCKED: USER    
DOCKED: USER    NEWDPF move IHP_ideal_opt.pdbqt
DOCKED: USER    NEWDPF about 0.035000 0.082000 -0.065000
DOCKED: USER    NEWDPF tran0 0.199163 9.930726 -16.723104
DOCKED: USER    NEWDPF quaternion0 0.001354 -0.630784 0.014168 0.775828
DOCKED: USER    NEWDPF axisangle0 0.002145 -0.999746 0.022455 78.239741
DOCKED: USER    NEWDPF quat0 0.002145 -0.999746 0.022455 78.239741
DOCKED: USER    NEWDPF dihe0 -59.35 98.91 3.79 -6.66 35.87 -179.62 -23.37 -121.78 127.07 1.90 125.65 122.20 -13.53 174.15 10.51 124.83 -113.96 98.00 -58.61 -38.87 117.35 -46.26 138.80 -46.34 
DOCKED: USER  keepresnum = 1 
DOCKED: USER  
DOCKED: REMARK  24 active torsions:
DOCKED: REMARK  status: ('A' for Active; 'I' for Inactive)
DOCKED: REMARK    1  A    between atoms: C_1  and  O_7 
DOCKED: REMARK    2  A    between atoms: C_2  and  O_12 
DOCKED: REMARK    3  A    between atoms: C_3  and  O_17 
DOCKED: REMARK    4  A    between atoms: C_4  and  O_22 
DOCKED: REMARK    5  A    between atoms: C_5  and  O_27 
DOCKED: REMARK    6  A    between atoms: C_6  and  O_32 
DOCKED: REMARK    7  A    between atoms: O_7  and  P_8 
DOCKED: REMARK    8  A    between atoms: P_8  and  O_10 
DOCKED: REMARK    9  A    between atoms: P_8  and  O_11 
DOCKED: REMARK   10  A    between atoms: O_12  and  P_13 
DOCKED: REMARK   11  A    between atoms: P_13  and  O_15 
DOCKED: REMARK   12  A    between atoms: P_13  and  O_16 
DOCKED: REMARK   13  A    between atoms: O_17  and  P_18 
DOCKED: REMARK   14  A    between atoms: P_18  and  O_20 
DOCKED: REMARK   15  A    between atoms: P_18  and  O_21 
DOCKED: REMARK   16  A    between atoms: O_22  and  P_23 
DOCKED: REMARK   17  A    between atoms: P_23  and  O_25 
DOCKED: REMARK   18  A    between atoms: P_23  and  O_26 
DOCKED: REMARK   19  A    between atoms: O_27  and  P_28 
DOCKED: REMARK   20  A    between atoms: P_28  and  O_30 
DOCKED: REMARK   21  A    between atoms: P_28  and  O_31 
DOCKED: REMARK   22  A    between atoms: O_32  and  P_33 
DOCKED: REMARK   23  A    between atoms: P_33  and  O_35 
DOCKED: REMARK   24  A    between atoms: P_33  and  O_36 
DOCKED: USER                              x       y       z     vdW  Elec       q    Type
DOCKED: USER                           _______ _______ _______ _____ _____    ______ ____
DOCKED: ROOT
DOCKED: ATOM      1  C   UNL d   1       1.211   9.001 -17.770 -0.06 +0.15    +0.194 C 
DOCKED: ATOM      2  C   UNL d   1       0.579   8.233 -16.608 -0.15 +0.14    +0.194 C 
DOCKED: ATOM      3  C   UNL d   1       0.642   9.028 -15.302 -0.20 +0.12    +0.194 C 
DOCKED: ATOM      4  C   UNL d   1       0.082  10.442 -15.432 -0.21 +0.09    +0.194 C 
DOCKED: ATOM      5  C   UNL d   1       0.599  11.206 -16.644 -0.14 +0.09    +0.194 C 
DOCKED: ATOM      6  C   UNL d   1       0.593  10.390 -17.939 -0.09 +0.11    +0.194 C 
DOCKED: ENDROOT
DOCKED: BRANCH   1   7
DOCKED: ATOM      7  O   UNL d   1       0.959   8.274 -18.975 -0.06 -0.20    -0.278 OA
DOCKED: BRANCH   7   8
DOCKED: ATOM      8  P   UNL d   1       1.493   8.879 -20.353 -0.04 +0.33    +0.473 P 
DOCKED: ATOM      9  O   UNL d   1       2.825   9.539 -20.278 -0.12 -0.26    -0.228 OA
DOCKED: BRANCH   8  10
DOCKED: ATOM     10  O   UNL d   1       1.462   7.641 -21.358 -0.01 -0.17    -0.303 OA
DOCKED: ATOM     11  H   UNL d   1       1.191   7.946 -22.244 +0.01 +0.10    +0.222 HD
DOCKED: ENDBRANCH   8  10
DOCKED: BRANCH   8  12
DOCKED: ATOM     12  O   UNL d   1       0.303   9.780 -20.897 -0.01 -0.13    -0.303 OA
DOCKED: ATOM     13  H   UNL d   1      -0.008  10.445 -20.243 +0.01 +0.09    +0.222 HD
DOCKED: ENDBRANCH   8  12
DOCKED: ENDBRANCH   7   8
DOCKED: ENDBRANCH   1   7
DOCKED: BRANCH   2  14
DOCKED: ATOM     14  O   UNL d   1      -0.796   7.968 -16.915 -0.03 -0.19    -0.278 OA
DOCKED: BRANCH  14  15
DOCKED: ATOM     15  P   UNL d   1      -1.114   6.568 -17.623 -0.00 +0.35    +0.473 P 
DOCKED: ATOM     16  O   UNL d   1      -1.969   6.614 -18.850 -0.00 -0.13    -0.228 OA
DOCKED: BRANCH  15  17
DOCKED: ATOM     17  O   UNL d   1       0.323   5.935 -17.895 -0.02 -0.20    -0.303 OA
DOCKED: ATOM     18  H   UNL d   1       0.650   6.177 -18.783 +0.04 +0.14    +0.222 HD
DOCKED: ENDBRANCH  15  17
DOCKED: BRANCH  15  19
DOCKED: ATOM     19  O   UNL d   1      -1.653   5.642 -16.447 -0.08 -0.41    -0.303 OA
DOCKED: ATOM     20  H   UNL d   1      -0.957   5.452 -15.791 +0.06 +0.31    +0.222 HD
DOCKED: ENDBRANCH  15  19
DOCKED: ENDBRANCH  14  15
DOCKED: ENDBRANCH   2  14
DOCKED: BRANCH   6  21
DOCKED: ATOM     21  O   UNL d   1       1.403  11.097 -18.875 -0.06 -0.16    -0.278 OA
DOCKED: BRANCH  21  22
DOCKED: ATOM     22  P   UNL d   1       2.375  12.254 -18.366 -0.07 +0.26    +0.473 P 
DOCKED: ATOM     23  O   UNL d   1       3.127  12.036 -17.096 -0.20 -0.15    -0.228 OA
DOCKED: BRANCH  22  24
DOCKED: ATOM     24  O   UNL d   1       3.286  12.501 -19.647 -0.04 -0.16    -0.303 OA
DOCKED: ATOM     25  H   UNL d   1       3.361  11.645 -20.142 +0.02 +0.15    +0.222 HD
DOCKED: ENDBRANCH  22  24
DOCKED: BRANCH  22  26
DOCKED: ATOM     26  O   UNL d   1       1.406  13.531 -18.398 -0.02 -0.10    -0.303 OA
DOCKED: ATOM     27  H   UNL d   1       0.496  13.240 -18.613 +0.03 +0.07    +0.222 HD
DOCKED: ENDBRANCH  22  26
DOCKED: ENDBRANCH  21  22
DOCKED: ENDBRANCH   6  21
DOCKED: BRANCH   3  28
DOCKED: ATOM     28  O   UNL d   1      -0.199   8.373 -14.361 -0.20 -0.19    -0.278 OA
DOCKED: BRANCH  28  29
DOCKED: ATOM     29  P   UNL d   1       0.145   6.901 -13.862 -0.32 +0.39    +0.473 P 
DOCKED: ATOM     30  O   UNL d   1       0.834   6.815 -12.548 -0.49 -0.11    -0.228 OA
DOCKED: BRANCH  29  31
DOCKED: ATOM     31  O   UNL d   1      -1.301   6.224 -13.970 -0.58 -0.58    -0.303 OA
DOCKED: ATOM     32  H   UNL d   1      -1.809   6.681 -14.679 +0.07 +0.41    +0.222 HD
DOCKED: ENDBRANCH  29  31
DOCKED: BRANCH  29  33
DOCKED: ATOM     33  O   UNL d   1       0.913   6.293 -15.117 -0.19 -0.23    -0.303 OA
DOCKED: ATOM     34  H   UNL d   1       0.296   6.268 -15.889 +0.09 +0.19    +0.222 HD
DOCKED: ENDBRANCH  29  33
DOCKED: ENDBRANCH  28  29
DOCKED: ENDBRANCH   3  28
DOCKED: BRANCH   5  35
DOCKED: ATOM     35  O   UNL d   1      -0.304  12.294 -16.830 -0.04 -0.10    -0.278 OA
DOCKED: BRANCH  35  36
DOCKED: ATOM     36  P   UNL d   1      -1.582  12.128 -17.771 +0.00 +0.15    +0.473 P 
DOCKED: ATOM     37  O   UNL d   1      -1.294  12.010 -19.234 -0.01 -0.07    -0.228 OA
DOCKED: BRANCH  36  38
DOCKED: ATOM     38  O   UNL d   1      -2.289  10.848 -17.138 -0.01 -0.11    -0.303 OA
DOCKED: ATOM     39  H   UNL d   1      -2.474  11.020 -16.190 +0.03 +0.08    +0.222 HD
DOCKED: ENDBRANCH  36  38
DOCKED: BRANCH  36  40
DOCKED: ATOM     40  O   UNL d   1      -2.502  13.340 -17.311 -0.00 -0.08    -0.303 OA
DOCKED: ATOM     41  H   UNL d   1      -2.477  13.468 -16.337 +0.02 +0.06    +0.222 HD
DOCKED: ENDBRANCH  36  40
DOCKED: ENDBRANCH  35  36
DOCKED: ENDBRANCH   5  35
DOCKED: BRANCH   4  42
DOCKED: ATOM     42  O   UNL d   1       0.504  11.163 -14.269 -0.30 -0.10    -0.278 OA
DOCKED: BRANCH  42  43
DOCKED: ATOM     43  P   UNL d   1      -0.323  12.450 -13.817 -0.13 +0.13    +0.473 P 
DOCKED: ATOM     44  O   UNL d   1      -0.473  12.692 -12.355 -0.28 -0.03    -0.228 OA
DOCKED: BRANCH  43  45
DOCKED: ATOM     45  O   UNL d   1       0.409  13.627 -14.600 -0.16 -0.09    -0.303 OA
DOCKED: ATOM     46  H   UNL d   1       0.475  13.434 -15.557 +0.06 +0.07    +0.222 HD
DOCKED: ENDBRANCH  43  45
DOCKED: BRANCH  43  47
DOCKED: ATOM     47  O   UNL d   1      -1.692  12.314 -14.640 -0.06 -0.09    -0.303 OA
DOCKED: ATOM     48  H   UNL d   1      -1.491  12.292 -15.599 +0.04 +0.07    +0.222 HD
DOCKED: ENDBRANCH  43  47
DOCKED: ENDBRANCH  42  43
DOCKED: ENDBRANCH   4  42
DOCKED: TORSDOF 24
DOCKED: TER
DOCKED: ENDMDL
________________________________________________________________________________


	BEGINNING GENETIC ALGORITHM DOCKING 80 of 100
Run: 80 Seed: 1551241407 1568127834 [ Run 80 of 100 GA/GALS ]
Beginning LAMARCKIAN GENETIC ALGORITHM (LGA), with a maximum of 25000000 energy evaluations.

Final-Value: -16.848


	FINAL GENETIC ALGORITHM DOCKED STATE
	_______________________________________________


Detailed state:  trans 16.436 -4.209 4.269 quatxyzw -0.866968 -0.054011 0.413223 -0.273305 center 0.035 0.082 -0.065 ntor 24 -180.0000 -143.9585 16.5217 -169.1817 110.4107 164.9095 -86.4013 -75.6277 28.5565 68.6452 -23.4599 -101.7142 98.1562 -91.3741 -110.8245 -7.1279 145.2138 -28.8044 5.6506 1.1327 -17.4016 8.6047 -10.0256 166.0773
State:	 16.436  -4.209   4.269  -0.901 -0.056  0.430 -148.278   -180.00 -143.96   16.52 -169.18  110.41  164.91  -86.40  -75.63   28.56   68.65  -23.46 -101.71   98.16  -91.37 -110.82   -7.13  145.21  -28.80    5.65    1.13  -17.40    8.60  -10.03  166.08

DOCKED: MODEL       80
DOCKED: USER    Run = 80
DOCKED: USER    DPF = D:/Protein_go_brrr/autodock/final/AncB/IHP/dock.dpf
DOCKED: USER  
DOCKED: USER    Estimated Free Energy of Binding    =   +3.57 kcal/mol  [=(1)+(2)+(3)-(4)]
DOCKED: USER    
DOCKED: USER    (1) Final Intermolecular Energy     =   -3.59 kcal/mol
DOCKED: USER        vdW + Hbond + desolv Energy     =   -3.44 kcal/mol
DOCKED: USER        Electrostatic Energy            =   -0.15 kcal/mol
DOCKED: USER    (2) Final Total Internal Energy     =  -13.26 kcal/mol
DOCKED: USER    (3) Torsional Free Energy           =   +7.16 kcal/mol
DOCKED: USER    (4) Unbound System's Energy  [=(2)] =  -13.26 kcal/mol
DOCKED: USER    
DOCKED: USER    
DOCKED: USER    NEWDPF move IHP_ideal_opt.pdbqt
DOCKED: USER    NEWDPF about 0.035000 0.082000 -0.065000
DOCKED: USER    NEWDPF tran0 16.435666 -4.208594 4.268999
DOCKED: USER    NEWDPF quaternion0 -0.866968 -0.054011 0.413223 -0.273305
DOCKED: USER    NEWDPF axisangle0 -0.901282 -0.056148 0.429579 -148.277990
DOCKED: USER    NEWDPF quat0 -0.901282 -0.056148 0.429579 -148.277990
DOCKED: USER    NEWDPF dihe0 -180.00 -143.96 16.52 -169.18 110.41 164.91 -86.40 -75.63 28.56 68.65 -23.46 -101.71 98.16 -91.37 -110.82 -7.13 145.21 -28.80 5.65 1.13 -17.40 8.60 -10.03 166.08 
DOCKED: USER  keepresnum = 1 
DOCKED: USER  
DOCKED: REMARK  24 active torsions:
DOCKED: REMARK  status: ('A' for Active; 'I' for Inactive)
DOCKED: REMARK    1  A    between atoms: C_1  and  O_7 
DOCKED: REMARK    2  A    between atoms: C_2  and  O_12 
DOCKED: REMARK    3  A    between atoms: C_3  and  O_17 
DOCKED: REMARK    4  A    between atoms: C_4  and  O_22 
DOCKED: REMARK    5  A    between atoms: C_5  and  O_27 
DOCKED: REMARK    6  A    between atoms: C_6  and  O_32 
DOCKED: REMARK    7  A    between atoms: O_7  and  P_8 
DOCKED: REMARK    8  A    between atoms: P_8  and  O_10 
DOCKED: REMARK    9  A    between atoms: P_8  and  O_11 
DOCKED: REMARK   10  A    between atoms: O_12  and  P_13 
DOCKED: REMARK   11  A    between atoms: P_13  and  O_15 
DOCKED: REMARK   12  A    between atoms: P_13  and  O_16 
DOCKED: REMARK   13  A    between atoms: O_17  and  P_18 
DOCKED: REMARK   14  A    between atoms: P_18  and  O_20 
DOCKED: REMARK   15  A    between atoms: P_18  and  O_21 
DOCKED: REMARK   16  A    between atoms: O_22  and  P_23 
DOCKED: REMARK   17  A    between atoms: P_23  and  O_25 
DOCKED: REMARK   18  A    between atoms: P_23  and  O_26 
DOCKED: REMARK   19  A    between atoms: O_27  and  P_28 
DOCKED: REMARK   20  A    between atoms: P_28  and  O_30 
DOCKED: REMARK   21  A    between atoms: P_28  and  O_31 
DOCKED: REMARK   22  A    between atoms: O_32  and  P_33 
DOCKED: REMARK   23  A    between atoms: P_33  and  O_35 
DOCKED: REMARK   24  A    between atoms: P_33  and  O_36 
DOCKED: USER                              x       y       z     vdW  Elec       q    Type
DOCKED: USER                           _______ _______ _______ _____ _____    ______ ____
DOCKED: ROOT
DOCKED: ATOM      1  C   UNL d   1      16.781  -2.719   3.466 -0.16 +0.01    +0.194 C 
DOCKED: ATOM      2  C   UNL d   1      16.348  -2.596   4.928 -0.09 +0.01    +0.194 C 
DOCKED: ATOM      3  C   UNL d   1      15.172  -3.522   5.250 -0.10 +0.02    +0.194 C 
DOCKED: ATOM      4  C   UNL d   1      15.418  -4.971   4.840 -0.05 +0.01    +0.194 C 
DOCKED: ATOM      5  C   UNL d   1      15.961  -5.133   3.426 -0.10 +0.01    +0.194 C 
DOCKED: ATOM      6  C   UNL d   1      17.095  -4.165   3.083 -0.11 +0.01    +0.194 C 
DOCKED: ENDROOT
DOCKED: BRANCH   1   7
DOCKED: ATOM      7  O   UNL d   1      17.980  -1.961   3.291 -0.07 -0.01    -0.278 OA
DOCKED: BRANCH   7   8
DOCKED: ATOM      8  P   UNL d   1      17.951  -0.710   2.298 -0.14 +0.01    +0.473 P 
DOCKED: ATOM      9  O   UNL d   1      18.882   0.397   2.650 -0.07 -0.01    -0.228 OA
DOCKED: BRANCH   8  10
DOCKED: ATOM     10  O   UNL d   1      18.244  -1.347   0.865 -0.15 -0.02    -0.303 OA
DOCKED: ATOM     11  H   UNL d   1      18.020  -2.296   0.877 +0.08 +0.02    +0.222 HD
DOCKED: ENDBRANCH   8  10
DOCKED: BRANCH   8  12
DOCKED: ATOM     12  O   UNL d   1      16.417  -0.315   2.178 -0.28 +0.03    -0.303 OA
DOCKED: ATOM     13  H   UNL d   1      16.273   0.535   1.704 -0.40 -0.13    +0.222 HD
DOCKED: ENDBRANCH   8  12
DOCKED: ENDBRANCH   7   8
DOCKED: ENDBRANCH   1   7
DOCKED: BRANCH   2  14
DOCKED: ATOM     14  O   UNL d   1      17.451  -2.949   5.773 -0.01 -0.02    -0.278 OA
DOCKED: BRANCH  14  15
DOCKED: ATOM     15  P   UNL d   1      17.767  -1.956   6.989 +0.00 +0.03    +0.473 P 
DOCKED: ATOM     16  O   UNL d   1      17.558  -0.496   6.735 -0.01 -0.01    -0.228 OA
DOCKED: BRANCH  15  17
DOCKED: ATOM     17  O   UNL d   1      16.871  -2.510   8.184 +0.00 -0.01    -0.303 OA
DOCKED: ATOM     18  H   UNL d   1      15.942  -2.225   8.088 +0.01 +0.01    +0.222 HD
DOCKED: ENDBRANCH  15  17
DOCKED: BRANCH  15  19
DOCKED: ATOM     19  O   UNL d   1      19.227  -2.367   7.467 +0.00 -0.01    -0.303 OA
DOCKED: ATOM     20  H   UNL d   1      19.809  -1.590   7.559 +0.00 +0.01    +0.222 HD
DOCKED: ENDBRANCH  15  19
DOCKED: ENDBRANCH  14  15
DOCKED: ENDBRANCH   2  14
DOCKED: BRANCH   6  21
DOCKED: ATOM     21  O   UNL d   1      17.252  -4.199   1.667 -0.09 -0.02    -0.278 OA
DOCKED: BRANCH  21  22
DOCKED: ATOM     22  P   UNL d   1      18.645  -4.653   1.035 -0.07 +0.03    +0.473 P 
DOCKED: ATOM     23  O   UNL d   1      19.748  -3.651   0.967 -0.07 -0.02    -0.228 OA
DOCKED: BRANCH  22  24
DOCKED: ATOM     24  O   UNL d   1      18.978  -5.957   1.884 -0.02 -0.02    -0.303 OA
DOCKED: ATOM     25  H   UNL d   1      18.150  -6.498   1.955 +0.02 +0.01    +0.222 HD
DOCKED: ENDBRANCH  22  24
DOCKED: BRANCH  22  26
DOCKED: ATOM     26  O   UNL d   1      18.178  -5.279  -0.365 -0.13 -0.02    -0.303 OA
DOCKED: ATOM     27  H   UNL d   1      17.202  -5.346  -0.378 +0.05 +0.02    +0.222 HD
DOCKED: ENDBRANCH  22  26
DOCKED: ENDBRANCH  21  22
DOCKED: ENDBRANCH   6  21
DOCKED: BRANCH   3  28
DOCKED: ATOM     28  O   UNL d   1      15.024  -3.549   6.664 -0.02 -0.02    -0.278 OA
DOCKED: BRANCH  28  29
DOCKED: ATOM     29  P   UNL d   1      13.670  -3.053   7.341 -0.03 +0.03    +0.473 P 
DOCKED: ATOM     30  O   UNL d   1      12.972  -1.945   6.640 -0.50 -0.05    -0.228 OA
DOCKED: BRANCH  29  31
DOCKED: ATOM     31  O   UNL d   1      12.889  -4.445   7.456 -0.03 -0.02    -0.303 OA
DOCKED: ATOM     32  H   UNL d   1      13.120  -5.000   6.675 +0.05 +0.02    +0.222 HD
DOCKED: ENDBRANCH  29  31
DOCKED: BRANCH  29  33
DOCKED: ATOM     33  O   UNL d   1      14.127  -2.781   8.841 -0.00 -0.01    -0.303 OA
DOCKED: ATOM     34  H   UNL d   1      14.993  -3.230   9.000 +0.01 +0.01    +0.222 HD
DOCKED: ENDBRANCH  29  33
DOCKED: ENDBRANCH  28  29
DOCKED: ENDBRANCH   3  28
DOCKED: BRANCH   5  35
DOCKED: ATOM     35  O   UNL d   1      16.501  -6.451   3.367 -0.02 -0.01    -0.278 OA
DOCKED: BRANCH  35  36
DOCKED: ATOM     36  P   UNL d   1      15.938  -7.505   2.310 -0.02 -0.01    +0.473 P 
DOCKED: ATOM     37  O   UNL d   1      16.416  -8.912   2.484 -0.01 +0.00    -0.228 OA
DOCKED: BRANCH  36  38
DOCKED: ATOM     38  O   UNL d   1      14.364  -7.324   2.475 -0.05 +0.02    -0.303 OA
DOCKED: ATOM     39  H   UNL d   1      14.150  -7.236   3.429 +0.06 -0.02    +0.222 HD
DOCKED: ENDBRANCH  36  38
DOCKED: BRANCH  36  40
DOCKED: ATOM     40  O   UNL d   1      16.261  -6.799   0.921 -0.09 -0.00    -0.303 OA
DOCKED: ATOM     41  H   UNL d   1      17.034  -6.197   0.990 +0.04 +0.01    +0.222 HD
DOCKED: ENDBRANCH  36  40
DOCKED: ENDBRANCH  35  36
DOCKED: ENDBRANCH   5  35
DOCKED: BRANCH   4  42
DOCKED: ATOM     42  O   UNL d   1      14.150  -5.635   4.883 -0.04 -0.01    -0.278 OA
DOCKED: BRANCH  42  43
DOCKED: ATOM     43  P   UNL d   1      12.935  -5.032   4.044 -0.08 +0.02    +0.473 P 
DOCKED: ATOM     44  O   UNL d   1      13.261  -4.052   2.970 -0.29 -0.01    -0.228 OA
DOCKED: BRANCH  43  45
DOCKED: ATOM     45  O   UNL d   1      12.184  -6.337   3.529 -0.21 +0.04    -0.303 OA
DOCKED: ATOM     46  H   UNL d   1      12.458  -6.572   2.621 +0.09 -0.05    +0.222 HD
DOCKED: ENDBRANCH  43  45
DOCKED: BRANCH  43  47
DOCKED: ATOM     47  O   UNL d   1      11.933  -4.505   5.179 -0.40 -0.06    -0.303 OA
DOCKED: ATOM     48  H   UNL d   1      12.269  -3.659   5.539 +0.08 +0.03    +0.222 HD
DOCKED: ENDBRANCH  43  47
DOCKED: ENDBRANCH  42  43
DOCKED: ENDBRANCH   4  42
DOCKED: TORSDOF 24
DOCKED: TER
DOCKED: ENDMDL
________________________________________________________________________________


	BEGINNING GENETIC ALGORITHM DOCKING 81 of 100
Run: 81 Seed: 254064726 976070542 [ Run 81 of 100 GA/GALS ]
Beginning LAMARCKIAN GENETIC ALGORITHM (LGA), with a maximum of 25000000 energy evaluations.

Final-Value: -20.231


	FINAL GENETIC ALGORITHM DOCKED STATE
	_______________________________________________


Detailed state:  trans 15.640 -6.704 -2.695 quatxyzw 0.576341 -0.308156 0.519203 -0.550726 center 0.035 0.082 -0.065 ntor 24 -174.7951 67.2191 76.3182 74.1903 14.1363 -179.9987 -98.4462 8.8920 36.3562 -10.5000 116.4870 -160.7202 129.4577 113.0063 -49.5764 -170.7407 146.9333 -4.3069 39.6414 -4.5778 -174.1871 17.5363 -6.9967 -6.9644
State:	 15.640  -6.704  -2.695   0.690 -0.369  0.622 -113.166   -174.80   67.22   76.32   74.19   14.14 -180.00  -98.45    8.89   36.36  -10.50  116.49 -160.72  129.46  113.01  -49.58 -170.74  146.93   -4.31   39.64   -4.58 -174.19   17.54   -7.00   -6.96

DOCKED: MODEL       81
DOCKED: USER    Run = 81
DOCKED: USER    DPF = D:/Protein_go_brrr/autodock/final/AncB/IHP/dock.dpf
DOCKED: USER  
DOCKED: USER    Estimated Free Energy of Binding    =   +0.92 kcal/mol  [=(1)+(2)+(3)-(4)]
DOCKED: USER    
DOCKED: USER    (1) Final Intermolecular Energy     =   -6.24 kcal/mol
DOCKED: USER        vdW + Hbond + desolv Energy     =   -5.74 kcal/mol
DOCKED: USER        Electrostatic Energy            =   -0.51 kcal/mol
DOCKED: USER    (2) Final Total Internal Energy     =  -13.99 kcal/mol
DOCKED: USER    (3) Torsional Free Energy           =   +7.16 kcal/mol
DOCKED: USER    (4) Unbound System's Energy  [=(2)] =  -13.99 kcal/mol
DOCKED: USER    
DOCKED: USER    
DOCKED: USER    NEWDPF move IHP_ideal_opt.pdbqt
DOCKED: USER    NEWDPF about 0.035000 0.082000 -0.065000
DOCKED: USER    NEWDPF tran0 15.639609 -6.704432 -2.694727
DOCKED: USER    NEWDPF quaternion0 0.576341 -0.308156 0.519203 -0.550726
DOCKED: USER    NEWDPF axisangle0 0.690489 -0.369188 0.622033 -113.166332
DOCKED: USER    NEWDPF quat0 0.690489 -0.369188 0.622033 -113.166332
DOCKED: USER    NEWDPF dihe0 -174.80 67.22 76.32 74.19 14.14 -180.00 -98.45 8.89 36.36 -10.50 116.49 -160.72 129.46 113.01 -49.58 -170.74 146.93 -4.31 39.64 -4.58 -174.19 17.54 -7.00 -6.96 
DOCKED: USER  keepresnum = 1 
DOCKED: USER  
DOCKED: REMARK  24 active torsions:
DOCKED: REMARK  status: ('A' for Active; 'I' for Inactive)
DOCKED: REMARK    1  A    between atoms: C_1  and  O_7 
DOCKED: REMARK    2  A    between atoms: C_2  and  O_12 
DOCKED: REMARK    3  A    between atoms: C_3  and  O_17 
DOCKED: REMARK    4  A    between atoms: C_4  and  O_22 
DOCKED: REMARK    5  A    between atoms: C_5  and  O_27 
DOCKED: REMARK    6  A    between atoms: C_6  and  O_32 
DOCKED: REMARK    7  A    between atoms: O_7  and  P_8 
DOCKED: REMARK    8  A    between atoms: P_8  and  O_10 
DOCKED: REMARK    9  A    between atoms: P_8  and  O_11 
DOCKED: REMARK   10  A    between atoms: O_12  and  P_13 
DOCKED: REMARK   11  A    between atoms: P_13  and  O_15 
DOCKED: REMARK   12  A    between atoms: P_13  and  O_16 
DOCKED: REMARK   13  A    between atoms: O_17  and  P_18 
DOCKED: REMARK   14  A    between atoms: P_18  and  O_20 
DOCKED: REMARK   15  A    between atoms: P_18  and  O_21 
DOCKED: REMARK   16  A    between atoms: O_22  and  P_23 
DOCKED: REMARK   17  A    between atoms: P_23  and  O_25 
DOCKED: REMARK   18  A    between atoms: P_23  and  O_26 
DOCKED: REMARK   19  A    between atoms: O_27  and  P_28 
DOCKED: REMARK   20  A    between atoms: P_28  and  O_30 
DOCKED: REMARK   21  A    between atoms: P_28  and  O_31 
DOCKED: REMARK   22  A    between atoms: O_32  and  P_33 
DOCKED: REMARK   23  A    between atoms: P_33  and  O_35 
DOCKED: REMARK   24  A    between atoms: P_33  and  O_36 
DOCKED: USER                              x       y       z     vdW  Elec       q    Type
DOCKED: USER                           _______ _______ _______ _____ _____    ______ ____
DOCKED: ROOT
DOCKED: ATOM      1  C   UNL d   1      17.007  -7.008  -1.684 -0.16 +0.01    +0.194 C 
DOCKED: ATOM      2  C   UNL d   1      17.319  -6.762  -3.161 -0.17 +0.02    +0.194 C 
DOCKED: ATOM      3  C   UNL d   1      16.339  -7.499  -4.077 -0.14 +0.02    +0.194 C 
DOCKED: ATOM      4  C   UNL d   1      14.876  -7.219  -3.741 -0.20 -0.00    +0.194 C 
DOCKED: ATOM      5  C   UNL d   1      14.545  -7.340  -2.259 -0.22 -0.03    +0.194 C 
DOCKED: ATOM      6  C   UNL d   1      15.559  -6.656  -1.340 -0.18 -0.00    +0.194 C 
DOCKED: ENDROOT
DOCKED: BRANCH   1   7
DOCKED: ATOM      7  O   UNL d   1      17.849  -6.156  -0.903 -0.13 -0.02    -0.278 OA
DOCKED: BRANCH   7   8
DOCKED: ATOM      8  P   UNL d   1      19.340  -6.639  -0.594 -0.03 +0.03    +0.473 P 
DOCKED: ATOM      9  O   UNL d   1      20.144  -5.709   0.245 -0.03 -0.02    -0.228 OA
DOCKED: BRANCH   8  10
DOCKED: ATOM     10  O   UNL d   1      19.151  -8.078   0.068 -0.01 -0.01    -0.303 OA
DOCKED: ATOM     11  H   UNL d   1      18.324  -8.481  -0.257 +0.02 +0.01    +0.222 HD
DOCKED: ENDBRANCH   8  10
DOCKED: BRANCH   8  12
DOCKED: ATOM     12  O   UNL d   1      19.958  -7.004  -2.012 -0.01 -0.02    -0.303 OA
DOCKED: ATOM     13  H   UNL d   1      19.495  -6.562  -2.759 +0.03 +0.02    +0.222 HD
DOCKED: ENDBRANCH   8  12
DOCKED: ENDBRANCH   7   8
DOCKED: ENDBRANCH   1   7
DOCKED: BRANCH   2  14
DOCKED: ATOM     14  O   UNL d   1      17.228  -5.357  -3.431 -0.22 -0.05    -0.278 OA
DOCKED: BRANCH  14  15
DOCKED: ATOM     15  P   UNL d   1      18.496  -4.680  -4.136 -0.11 +0.10    +0.473 P 
DOCKED: ATOM     16  O   UNL d   1      18.311  -3.290  -4.658 -0.24 -0.07    -0.228 OA
DOCKED: BRANCH  15  17
DOCKED: ATOM     17  O   UNL d   1      19.648  -4.780  -3.040 -0.08 -0.04    -0.303 OA
DOCKED: ATOM     18  H   UNL d   1      19.275  -4.920  -2.149 +0.05 +0.03    +0.222 HD
DOCKED: ENDBRANCH  15  17
DOCKED: BRANCH  15  19
DOCKED: ATOM     19  O   UNL d   1      18.977  -5.756  -5.204 -0.06 -0.06    -0.303 OA
DOCKED: ATOM     20  H   UNL d   1      18.301  -6.442  -5.354 +0.05 +0.04    +0.222 HD
DOCKED: ENDBRANCH  15  19
DOCKED: ENDBRANCH  14  15
DOCKED: ENDBRANCH   2  14
DOCKED: BRANCH   6  21
DOCKED: ATOM     21  O   UNL d   1      15.313  -7.139  -0.022 -0.13 +0.01    -0.278 OA
DOCKED: BRANCH  21  22
DOCKED: ATOM     22  P   UNL d   1      15.946  -8.528   0.443 -0.02 -0.02    +0.473 P 
DOCKED: ATOM     23  O   UNL d   1      16.398  -9.484  -0.608 -0.02 +0.01    -0.228 OA
DOCKED: BRANCH  22  24
DOCKED: ATOM     24  O   UNL d   1      17.086  -8.046   1.443 -0.02 -0.00    -0.303 OA
DOCKED: ATOM     25  H   UNL d   1      17.640  -7.370   0.976 +0.03 +0.01    +0.222 HD
DOCKED: ENDBRANCH  22  24
DOCKED: BRANCH  22  26
DOCKED: ATOM     26  O   UNL d   1      14.827  -9.073   1.455 -0.02 +0.03    -0.303 OA
DOCKED: ATOM     27  H   UNL d   1      14.053  -8.474   1.432 +0.06 -0.03    +0.222 HD
DOCKED: ENDBRANCH  22  26
DOCKED: ENDBRANCH  21  22
DOCKED: ENDBRANCH   6  21
DOCKED: BRANCH   3  28
DOCKED: ATOM     28  O   UNL d   1      16.526  -6.999  -5.395 -0.12 -0.07    -0.278 OA
DOCKED: BRANCH  28  29
DOCKED: ATOM     29  P   UNL d   1      16.770  -8.001  -6.608 -0.04 +0.15    +0.473 P 
DOCKED: ATOM     30  O   UNL d   1      16.569  -7.427  -7.964 -0.09 -0.13    -0.228 OA
DOCKED: BRANCH  29  31
DOCKED: ATOM     31  O   UNL d   1      18.241  -8.520  -6.250 -0.00 -0.05    -0.303 OA
DOCKED: ATOM     32  H   UNL d   1      18.802  -7.742  -6.026 +0.03 +0.04    +0.222 HD
DOCKED: ENDBRANCH  29  31
DOCKED: BRANCH  29  33
DOCKED: ATOM     33  O   UNL d   1      15.854  -9.240  -6.208 -0.04 -0.07    -0.303 OA
DOCKED: ATOM     34  H   UNL d   1      14.905  -8.968  -6.262 +0.06 +0.07    +0.222 HD
DOCKED: ENDBRANCH  29  33
DOCKED: ENDBRANCH  28  29
DOCKED: ENDBRANCH   3  28
DOCKED: BRANCH   5  35
DOCKED: ATOM     35  O   UNL d   1      13.300  -6.668  -2.085 -0.20 +0.07    -0.278 OA
DOCKED: BRANCH  35  36
DOCKED: ATOM     36  P   UNL d   1      12.054  -7.434  -1.447 -0.28 -0.17    +0.473 P 
DOCKED: ATOM     37  O   UNL d   1      10.740  -6.728  -1.552 -0.56 +0.09    -0.228 OA
DOCKED: BRANCH  36  38
DOCKED: ATOM     38  O   UNL d   1      12.108  -8.833  -2.207 -0.21 +0.27    -0.303 OA
DOCKED: ATOM     39  H   UNL d   1      12.435  -8.689  -3.121 -0.08 -0.25    +0.222 HD
DOCKED: ENDBRANCH  36  38
DOCKED: BRANCH  36  40
DOCKED: ATOM     40  O   UNL d   1      12.577  -7.773   0.016 -0.18 +0.07    -0.303 OA
DOCKED: ATOM     41  H   UNL d   1      13.448  -8.228  -0.004 +0.09 -0.05    +0.222 HD
DOCKED: ENDBRANCH  36  40
DOCKED: ENDBRANCH  35  36
DOCKED: ENDBRANCH   5  35
DOCKED: BRANCH   4  42
DOCKED: ATOM     42  O   UNL d   1      14.098  -8.204  -4.429 -0.15 +0.05    -0.278 OA
DOCKED: BRANCH  42  43
DOCKED: ATOM     43  P   UNL d   1      13.047  -7.727  -5.530 -0.19 +0.05    +0.473 P 
DOCKED: ATOM     44  O   UNL d   1      13.468  -6.637  -6.454 -0.29 -0.17    -0.228 OA
DOCKED: BRANCH  43  45
DOCKED: ATOM     45  O   UNL d   1      12.664  -9.088  -6.260 -0.16 -0.02    -0.303 OA
DOCKED: ATOM     46  H   UNL d   1      12.521  -9.811  -5.617 -0.51 -0.32    +0.222 HD
DOCKED: ENDBRANCH  43  45
DOCKED: BRANCH  43  47
DOCKED: ATOM     47  O   UNL d   1      11.725  -7.434  -4.672 -0.93 +0.08    -0.303 OA
DOCKED: ATOM     48  H   UNL d   1      11.968  -7.333  -3.728 +0.11 -0.10    +0.222 HD
DOCKED: ENDBRANCH  43  47
DOCKED: ENDBRANCH  42  43
DOCKED: ENDBRANCH   4  42
DOCKED: TORSDOF 24
DOCKED: TER
DOCKED: ENDMDL
________________________________________________________________________________


	BEGINNING GENETIC ALGORITHM DOCKING 82 of 100
Run: 82 Seed: 1422010768 184829388 [ Run 82 of 100 GA/GALS ]
Beginning LAMARCKIAN GENETIC ALGORITHM (LGA), with a maximum of 25000000 energy evaluations.

Final-Value: -16.136


	FINAL GENETIC ALGORITHM DOCKED STATE
	_______________________________________________


Detailed state:  trans 2.922 18.060 -12.744 quatxyzw -0.509771 -0.021736 -0.424762 -0.747822 center 0.035 0.082 -0.065 ntor 24 66.2274 34.3850 111.7528 -28.7044 58.6922 115.1082 174.0926 -15.2434 133.7403 121.8482 5.3209 -36.3787 179.6128 -140.8154 -66.7201 40.2577 54.7512 -90.3873 24.0903 -41.2724 170.6586 -51.8883 27.4672 -180.0000
State:	  2.922  18.060 -12.744  -0.768 -0.033 -0.640 -83.196     66.23   34.39  111.75  -28.70   58.69  115.11  174.09  -15.24  133.74  121.85    5.32  -36.38  179.61 -140.82  -66.72   40.26   54.75  -90.39   24.09  -41.27  170.66  -51.89   27.47 -180.00

DOCKED: MODEL       82
DOCKED: USER    Run = 82
DOCKED: USER    DPF = D:/Protein_go_brrr/autodock/final/AncB/IHP/dock.dpf
DOCKED: USER  
DOCKED: USER    Estimated Free Energy of Binding    =   +3.52 kcal/mol  [=(1)+(2)+(3)-(4)]
DOCKED: USER    
DOCKED: USER    (1) Final Intermolecular Energy     =   -3.63 kcal/mol
DOCKED: USER        vdW + Hbond + desolv Energy     =   -3.50 kcal/mol
DOCKED: USER        Electrostatic Energy            =   -0.13 kcal/mol
DOCKED: USER    (2) Final Total Internal Energy     =  -12.50 kcal/mol
DOCKED: USER    (3) Torsional Free Energy           =   +7.16 kcal/mol
DOCKED: USER    (4) Unbound System's Energy  [=(2)] =  -12.50 kcal/mol
DOCKED: USER    
DOCKED: USER    
DOCKED: USER    NEWDPF move IHP_ideal_opt.pdbqt
DOCKED: USER    NEWDPF about 0.035000 0.082000 -0.065000
DOCKED: USER    NEWDPF tran0 2.921777 18.059635 -12.743599
DOCKED: USER    NEWDPF quaternion0 -0.509771 -0.021736 -0.424762 -0.747822
DOCKED: USER    NEWDPF axisangle0 -0.767845 -0.032740 -0.639799 -83.195795
DOCKED: USER    NEWDPF quat0 -0.767845 -0.032740 -0.639799 -83.195795
DOCKED: USER    NEWDPF dihe0 66.23 34.39 111.75 -28.70 58.69 115.11 174.09 -15.24 133.74 121.85 5.32 -36.38 179.61 -140.82 -66.72 40.26 54.75 -90.39 24.09 -41.27 170.66 -51.89 27.47 -180.00 
DOCKED: USER  keepresnum = 1 
DOCKED: USER  
DOCKED: REMARK  24 active torsions:
DOCKED: REMARK  status: ('A' for Active; 'I' for Inactive)
DOCKED: REMARK    1  A    between atoms: C_1  and  O_7 
DOCKED: REMARK    2  A    between atoms: C_2  and  O_12 
DOCKED: REMARK    3  A    between atoms: C_3  and  O_17 
DOCKED: REMARK    4  A    between atoms: C_4  and  O_22 
DOCKED: REMARK    5  A    between atoms: C_5  and  O_27 
DOCKED: REMARK    6  A    between atoms: C_6  and  O_32 
DOCKED: REMARK    7  A    between atoms: O_7  and  P_8 
DOCKED: REMARK    8  A    between atoms: P_8  and  O_10 
DOCKED: REMARK    9  A    between atoms: P_8  and  O_11 
DOCKED: REMARK   10  A    between atoms: O_12  and  P_13 
DOCKED: REMARK   11  A    between atoms: P_13  and  O_15 
DOCKED: REMARK   12  A    between atoms: P_13  and  O_16 
DOCKED: REMARK   13  A    between atoms: O_17  and  P_18 
DOCKED: REMARK   14  A    between atoms: P_18  and  O_20 
DOCKED: REMARK   15  A    between atoms: P_18  and  O_21 
DOCKED: REMARK   16  A    between atoms: O_22  and  P_23 
DOCKED: REMARK   17  A    between atoms: P_23  and  O_25 
DOCKED: REMARK   18  A    between atoms: P_23  and  O_26 
DOCKED: REMARK   19  A    between atoms: O_27  and  P_28 
DOCKED: REMARK   20  A    between atoms: P_28  and  O_30 
DOCKED: REMARK   21  A    between atoms: P_28  and  O_31 
DOCKED: REMARK   22  A    between atoms: O_32  and  P_33 
DOCKED: REMARK   23  A    between atoms: P_33  and  O_35 
DOCKED: REMARK   24  A    between atoms: P_33  and  O_36 
DOCKED: USER                              x       y       z     vdW  Elec       q    Type
DOCKED: USER                           _______ _______ _______ _____ _____    ______ ____
DOCKED: ROOT
DOCKED: ATOM      1  C   UNL d   1       3.454  17.803 -11.120 -0.16 +0.04    +0.194 C 
DOCKED: ATOM      2  C   UNL d   1       1.982  18.184 -11.280 -0.08 +0.05    +0.194 C 
DOCKED: ATOM      3  C   UNL d   1       1.795  19.310 -12.299 -0.03 +0.04    +0.194 C 
DOCKED: ATOM      4  C   UNL d   1       2.466  19.024 -13.641 -0.04 +0.03    +0.194 C 
DOCKED: ATOM      5  C   UNL d   1       3.902  18.531 -13.523 -0.09 +0.03    +0.194 C 
DOCKED: ATOM      6  C   UNL d   1       4.100  17.448 -12.460 -0.14 +0.04    +0.194 C 
DOCKED: ENDROOT
DOCKED: BRANCH   1   7
DOCKED: ATOM      7  O   UNL d   1       3.527  16.641 -10.291 -0.26 -0.06    -0.278 OA
DOCKED: BRANCH   7   8
DOCKED: ATOM      8  P   UNL d   1       3.859  16.834  -8.741 -0.22 +0.11    +0.473 P 
DOCKED: ATOM      9  O   UNL d   1       4.971  15.991  -8.223 -0.34 -0.00    -0.228 OA
DOCKED: BRANCH   8  10
DOCKED: ATOM     10  O   UNL d   1       4.138  18.398  -8.597 -0.06 -0.06    -0.303 OA
DOCKED: ATOM     11  H   UNL d   1       5.090  18.573  -8.715 +0.05 +0.03    +0.222 HD
DOCKED: ENDBRANCH   8  10
DOCKED: BRANCH   8  12
DOCKED: ATOM     12  O   UNL d   1       2.464  16.676  -7.997 -0.05 -0.20    -0.303 OA
DOCKED: ATOM     13  H   UNL d   1       1.697  16.669  -8.613 +0.07 +0.17    +0.222 HD
DOCKED: ENDBRANCH   8  12
DOCKED: ENDBRANCH   7   8
DOCKED: ENDBRANCH   1   7
DOCKED: BRANCH   2  14
DOCKED: ATOM     14  O   UNL d   1       1.248  17.037 -11.728 -0.10 -0.08    -0.278 OA
DOCKED: BRANCH  14  15
DOCKED: ATOM     15  P   UNL d   1       0.631  16.093 -10.591 -0.15 +0.17    +0.473 P 
DOCKED: ATOM     16  O   UNL d   1       1.535  15.042 -10.026 -0.31 -0.09    -0.228 OA
DOCKED: BRANCH  15  17
DOCKED: ATOM     17  O   UNL d   1       0.104  17.113  -9.486 -0.22 -0.21    -0.303 OA
DOCKED: ATOM     18  H   UNL d   1       0.040  18.018  -9.845 +0.04 +0.12    +0.222 HD
DOCKED: ENDBRANCH  15  17
DOCKED: BRANCH  15  19
DOCKED: ATOM     19  O   UNL d   1      -0.733  15.563 -11.213 -0.11 -0.05    -0.303 OA
DOCKED: ATOM     20  H   UNL d   1      -1.475  16.166 -11.022 +0.06 +0.03    +0.222 HD
DOCKED: ENDBRANCH  15  19
DOCKED: ENDBRANCH  14  15
DOCKED: ENDBRANCH   2  14
DOCKED: BRANCH   6  21
DOCKED: ATOM     21  O   UNL d   1       5.504  17.344 -12.234 -0.21 -0.01    -0.278 OA
DOCKED: BRANCH  21  22
DOCKED: ATOM     22  P   UNL d   1       6.283  18.546 -11.531 -0.06 +0.01    +0.473 P 
DOCKED: ATOM     23  O   UNL d   1       5.862  19.941 -11.848 -0.03 -0.02    -0.228 OA
DOCKED: BRANCH  22  24
DOCKED: ATOM     24  O   UNL d   1       6.174  18.149  -9.993 -0.08 +0.01    -0.303 OA
DOCKED: ATOM     25  H   UNL d   1       5.570  17.367  -9.919 -0.30 -0.03    +0.222 HD
DOCKED: ENDBRANCH  22  24
DOCKED: BRANCH  22  26
DOCKED: ATOM     26  O   UNL d   1       7.809  18.180 -11.860 -0.11 +0.00    -0.303 OA
DOCKED: ATOM     27  H   UNL d   1       8.016  17.297 -11.490 -0.36 -0.05    +0.222 HD
DOCKED: ENDBRANCH  22  26
DOCKED: ENDBRANCH  21  22
DOCKED: ENDBRANCH   6  21
DOCKED: BRANCH   3  28
DOCKED: ATOM     28  O   UNL d   1       0.405  19.403 -12.585 -0.01 -0.05    -0.278 OA
DOCKED: BRANCH  28  29
DOCKED: ATOM     29  P   UNL d   1      -0.639  19.692 -11.417 +0.01 +0.10    +0.473 P 
DOCKED: ATOM     30  O   UNL d   1      -0.053  20.173 -10.140 -0.01 -0.06    -0.228 OA
DOCKED: BRANCH  29  31
DOCKED: ATOM     31  O   UNL d   1      -1.639  20.684 -12.177 +0.00 -0.04    -0.303 OA
DOCKED: ATOM     32  H   UNL d   1      -1.831  21.449 -11.587 +0.00 +0.03    +0.222 HD
DOCKED: ENDBRANCH  29  31
DOCKED: BRANCH  29  33
DOCKED: ATOM     33  O   UNL d   1      -1.465  18.332 -11.364 -0.01 -0.06    -0.303 OA
DOCKED: ATOM     34  H   UNL d   1      -0.835  17.572 -11.420 +0.04 +0.05    +0.222 HD
DOCKED: ENDBRANCH  29  33
DOCKED: ENDBRANCH  28  29
DOCKED: ENDBRANCH   3  28
DOCKED: BRANCH   5  35
DOCKED: ATOM     35  O   UNL d   1       4.214  17.943 -14.785 -0.08 -0.05    -0.278 OA
DOCKED: BRANCH  35  36
DOCKED: ATOM     36  P   UNL d   1       5.733  17.784 -15.245 -0.06 +0.09    +0.473 P 
DOCKED: ATOM     37  O   UNL d   1       6.330  16.428 -15.042 -0.11 -0.06    -0.228 OA
DOCKED: BRANCH  36  38
DOCKED: ATOM     38  O   UNL d   1       5.662  18.247 -16.768 -0.02 -0.05    -0.303 OA
DOCKED: ATOM     39  H   UNL d   1       5.395  19.191 -16.804 +0.01 +0.03    +0.222 HD
DOCKED: ENDBRANCH  36  38
DOCKED: BRANCH  36  40
DOCKED: ATOM     40  O   UNL d   1       6.441  19.003 -14.508 -0.02 -0.04    -0.303 OA
DOCKED: ATOM     41  H   UNL d   1       6.628  18.798 -13.564 +0.03 +0.02    +0.222 HD
DOCKED: ENDBRANCH  36  40
DOCKED: ENDBRANCH  35  36
DOCKED: ENDBRANCH   5  35
DOCKED: BRANCH   4  42
DOCKED: ATOM     42  O   UNL d   1       2.504  20.263 -14.357 -0.01 -0.04    -0.278 OA
DOCKED: BRANCH  42  43
DOCKED: ATOM     43  P   UNL d   1       3.459  21.428 -13.834 -0.00 +0.06    +0.473 P 
DOCKED: ATOM     44  O   UNL d   1       3.464  21.707 -12.370 -0.00 -0.03    -0.228 OA
DOCKED: BRANCH  43  45
DOCKED: ATOM     45  O   UNL d   1       4.877  21.007 -14.420 -0.00 -0.04    -0.303 OA
DOCKED: ATOM     46  H   UNL d   1       5.211  20.190 -13.998 +0.02 +0.03    +0.222 HD
DOCKED: ENDBRANCH  43  45
DOCKED: BRANCH  43  47
DOCKED: ATOM     47  O   UNL d   1       3.074  22.668 -14.773 +0.00 -0.03    -0.303 OA
DOCKED: ATOM     48  H   UNL d   1       3.096  23.493 -14.244 +0.00 +0.02    +0.222 HD
DOCKED: ENDBRANCH  43  47
DOCKED: ENDBRANCH  42  43
DOCKED: ENDBRANCH   4  42
DOCKED: TORSDOF 24
DOCKED: TER
DOCKED: ENDMDL
________________________________________________________________________________


	BEGINNING GENETIC ALGORITHM DOCKING 83 of 100
Run: 83 Seed: 975965051 955744771 [ Run 83 of 100 GA/GALS ]
Beginning LAMARCKIAN GENETIC ALGORITHM (LGA), with a maximum of 25000000 energy evaluations.

Final-Value: -18.400


	FINAL GENETIC ALGORITHM DOCKED STATE
	_______________________________________________


Detailed state:  trans 0.841 15.572 -14.587 quatxyzw 0.724961 -0.483341 -0.451957 -0.191175 center 0.035 0.082 -0.065 ntor 24 22.2862 107.3745 -180.0000 -5.7873 13.6713 158.3913 -65.6459 -13.0077 87.2002 4.8523 53.8665 -119.2719 -46.3308 176.0068 -179.9128 -10.4309 -121.9601 112.0569 -13.8223 18.6072 -20.9601 0.8309 -10.2278 2.8675
State:	  0.841  15.572 -14.587   0.739 -0.492 -0.460 -157.957     22.29  107.37 -180.00   -5.79   13.67  158.39  -65.65  -13.01   87.20    4.85   53.87 -119.27  -46.33  176.01 -179.91  -10.43 -121.96  112.06  -13.82   18.61  -20.96    0.83  -10.23    2.87

DOCKED: MODEL       83
DOCKED: USER    Run = 83
DOCKED: USER    DPF = D:/Protein_go_brrr/autodock/final/AncB/IHP/dock.dpf
DOCKED: USER  
DOCKED: USER    Estimated Free Energy of Binding    =   +4.14 kcal/mol  [=(1)+(2)+(3)-(4)]
DOCKED: USER    
DOCKED: USER    (1) Final Intermolecular Energy     =   -3.02 kcal/mol
DOCKED: USER        vdW + Hbond + desolv Energy     =   -2.91 kcal/mol
DOCKED: USER        Electrostatic Energy            =   -0.11 kcal/mol
DOCKED: USER    (2) Final Total Internal Energy     =  -15.38 kcal/mol
DOCKED: USER    (3) Torsional Free Energy           =   +7.16 kcal/mol
DOCKED: USER    (4) Unbound System's Energy  [=(2)] =  -15.38 kcal/mol
DOCKED: USER    
DOCKED: USER    
DOCKED: USER    NEWDPF move IHP_ideal_opt.pdbqt
DOCKED: USER    NEWDPF about 0.035000 0.082000 -0.065000
DOCKED: USER    NEWDPF tran0 0.840527 15.571911 -14.586701
DOCKED: USER    NEWDPF quaternion0 0.724961 -0.483341 -0.451957 -0.191175
DOCKED: USER    NEWDPF axisangle0 0.738583 -0.492423 -0.460449 -157.957218
DOCKED: USER    NEWDPF quat0 0.738583 -0.492423 -0.460449 -157.957218
DOCKED: USER    NEWDPF dihe0 22.29 107.37 -180.00 -5.79 13.67 158.39 -65.65 -13.01 87.20 4.85 53.87 -119.27 -46.33 176.01 -179.91 -10.43 -121.96 112.06 -13.82 18.61 -20.96 0.83 -10.23 2.87 
DOCKED: USER  keepresnum = 1 
DOCKED: USER  
DOCKED: REMARK  24 active torsions:
DOCKED: REMARK  status: ('A' for Active; 'I' for Inactive)
DOCKED: REMARK    1  A    between atoms: C_1  and  O_7 
DOCKED: REMARK    2  A    between atoms: C_2  and  O_12 
DOCKED: REMARK    3  A    between atoms: C_3  and  O_17 
DOCKED: REMARK    4  A    between atoms: C_4  and  O_22 
DOCKED: REMARK    5  A    between atoms: C_5  and  O_27 
DOCKED: REMARK    6  A    between atoms: C_6  and  O_32 
DOCKED: REMARK    7  A    between atoms: O_7  and  P_8 
DOCKED: REMARK    8  A    between atoms: P_8  and  O_10 
DOCKED: REMARK    9  A    between atoms: P_8  and  O_11 
DOCKED: REMARK   10  A    between atoms: O_12  and  P_13 
DOCKED: REMARK   11  A    between atoms: P_13  and  O_15 
DOCKED: REMARK   12  A    between atoms: P_13  and  O_16 
DOCKED: REMARK   13  A    between atoms: O_17  and  P_18 
DOCKED: REMARK   14  A    between atoms: P_18  and  O_20 
DOCKED: REMARK   15  A    between atoms: P_18  and  O_21 
DOCKED: REMARK   16  A    between atoms: O_22  and  P_23 
DOCKED: REMARK   17  A    between atoms: P_23  and  O_25 
DOCKED: REMARK   18  A    between atoms: P_23  and  O_26 
DOCKED: REMARK   19  A    between atoms: O_27  and  P_28 
DOCKED: REMARK   20  A    between atoms: P_28  and  O_30 
DOCKED: REMARK   21  A    between atoms: P_28  and  O_31 
DOCKED: REMARK   22  A    between atoms: O_32  and  P_33 
DOCKED: REMARK   23  A    between atoms: P_33  and  O_35 
DOCKED: REMARK   24  A    between atoms: P_33  and  O_36 
DOCKED: USER                              x       y       z     vdW  Elec       q    Type
DOCKED: USER                           _______ _______ _______ _____ _____    ______ ____
DOCKED: ROOT
DOCKED: ATOM      1  C   UNL d   1       0.801  15.012 -16.220 -0.08 +0.05    +0.194 C 
DOCKED: ATOM      2  C   UNL d   1       1.380  16.413 -16.016 -0.07 +0.05    +0.194 C 
DOCKED: ATOM      3  C   UNL d   1       0.548  17.231 -15.026 -0.05 +0.04    +0.194 C 
DOCKED: ATOM      4  C   UNL d   1       0.306  16.508 -13.703 -0.08 +0.04    +0.194 C 
DOCKED: ATOM      5  C   UNL d   1      -0.164  15.068 -13.860 -0.12 +0.05    +0.194 C 
DOCKED: ATOM      6  C   UNL d   1       0.628  14.267 -14.896 -0.04 +0.06    +0.194 C 
DOCKED: ENDROOT
DOCKED: BRANCH   1   7
DOCKED: ATOM      7  O   UNL d   1       1.721  14.260 -17.015 -0.08 -0.09    -0.278 OA
DOCKED: BRANCH   7   8
DOCKED: ATOM      8  P   UNL d   1       1.140  13.359 -18.200 -0.02 +0.16    +0.473 P 
DOCKED: ATOM      9  O   UNL d   1      -0.323  13.492 -18.435 -0.01 -0.06    -0.228 OA
DOCKED: BRANCH   8  10
DOCKED: ATOM     10  O   UNL d   1       2.020  13.770 -19.465 -0.01 -0.10    -0.303 OA
DOCKED: ATOM     11  H   UNL d   1       1.441  13.893 -20.240 +0.01 +0.06    +0.222 HD
DOCKED: ENDBRANCH   8  10
DOCKED: BRANCH   8  12
DOCKED: ATOM     12  O   UNL d   1       1.663  11.890 -17.895 -0.08 -0.16    -0.303 OA
DOCKED: ATOM     13  H   UNL d   1       1.328  11.530 -17.043 +0.05 +0.12    +0.222 HD
DOCKED: ENDBRANCH   8  12
DOCKED: ENDBRANCH   7   8
DOCKED: ENDBRANCH   1   7
DOCKED: BRANCH   2  14
DOCKED: ATOM     14  O   UNL d   1       2.714  16.296 -15.505 -0.07 -0.08    -0.278 OA
DOCKED: BRANCH  14  15
DOCKED: ATOM     15  P   UNL d   1       3.733  17.469 -15.892 -0.06 +0.10    +0.473 P 
DOCKED: ATOM     16  O   UNL d   1       5.045  17.052 -16.480 -0.07 -0.05    -0.228 OA
DOCKED: BRANCH  15  17
DOCKED: ATOM     17  O   UNL d   1       2.892  18.409 -16.865 -0.01 -0.05    -0.303 OA
DOCKED: ATOM     18  H   UNL d   1       2.349  19.043 -16.358 +0.01 +0.04    +0.222 HD
DOCKED: ENDBRANCH  15  17
DOCKED: BRANCH  15  19
DOCKED: ATOM     19  O   UNL d   1       3.824  18.365 -14.581 -0.06 -0.06    -0.303 OA
DOCKED: ATOM     20  H   UNL d   1       2.973  18.797 -14.381 +0.02 +0.04    +0.222 HD
DOCKED: ENDBRANCH  15  19
DOCKED: ENDBRANCH  14  15
DOCKED: ENDBRANCH   2  14
DOCKED: BRANCH   6  21
DOCKED: ATOM     21  O   UNL d   1      -0.127  13.090 -15.173 -0.11 -0.08    -0.278 OA
DOCKED: BRANCH  21  22
DOCKED: ATOM     22  P   UNL d   1       0.540  11.655 -14.968 -0.20 +0.18    +0.473 P 
DOCKED: ATOM     23  O   UNL d   1       0.085  10.535 -15.841 -0.15 -0.11    -0.228 OA
DOCKED: BRANCH  22  24
DOCKED: ATOM     24  O   UNL d   1       2.090  11.998 -15.076 -0.30 -0.14    -0.303 OA
DOCKED: ATOM     25  H   UNL d   1       2.237  12.501 -15.917 +0.07 +0.11    +0.222 HD
DOCKED: ENDBRANCH  22  24
DOCKED: BRANCH  22  26
DOCKED: ATOM     26  O   UNL d   1       0.359  11.434 -13.390 +0.03 -0.06    -0.303 OA
DOCKED: ATOM     27  H   UNL d   1       0.143  12.291 -12.968 -0.08 +0.03    +0.222 HD
DOCKED: ENDBRANCH  22  26
DOCKED: ENDBRANCH  21  22
DOCKED: ENDBRANCH   6  21
DOCKED: BRANCH   3  28
DOCKED: ATOM     28  O   UNL d   1       1.301  18.390 -14.690 -0.03 -0.05    -0.278 OA
DOCKED: BRANCH  28  29
DOCKED: ATOM     29  P   UNL d   1       0.817  19.830 -15.170 -0.00 +0.07    +0.473 P 
DOCKED: ATOM     30  O   UNL d   1       0.193  19.880 -16.517 -0.00 -0.03    -0.228 OA
DOCKED: BRANCH  29  31
DOCKED: ATOM     31  O   UNL d   1      -0.102  20.244 -13.927 -0.00 -0.04    -0.303 OA
DOCKED: ATOM     32  H   UNL d   1      -0.275  19.441 -13.383 +0.01 +0.04    +0.222 HD
DOCKED: ENDBRANCH  29  31
DOCKED: BRANCH  29  33
DOCKED: ATOM     33  O   UNL d   1       2.125  20.711 -14.949 -0.00 -0.04    -0.303 OA
DOCKED: ATOM     34  H   UNL d   1       2.905  20.225 -15.313 +0.01 +0.03    +0.222 HD
DOCKED: ENDBRANCH  29  33
DOCKED: ENDBRANCH  28  29
DOCKED: ENDBRANCH   3  28
DOCKED: BRANCH   5  35
DOCKED: ATOM     35  O   UNL d   1       0.055  14.449 -12.594 -0.17 -0.07    -0.278 OA
DOCKED: BRANCH  35  36
DOCKED: ATOM     36  P   UNL d   1      -1.167  13.819 -11.784 -0.19 +0.06    +0.473 P 
DOCKED: ATOM     37  O   UNL d   1      -2.041  14.801 -11.070 -0.14 +0.01    -0.228 OA
DOCKED: BRANCH  36  38
DOCKED: ATOM     38  O   UNL d   1      -1.912  12.983 -12.916 -0.10 -0.07    -0.303 OA
DOCKED: ATOM     39  H   UNL d   1      -1.303  12.856 -13.675 +0.07 +0.06    +0.222 HD
DOCKED: ENDBRANCH  36  38
DOCKED: BRANCH  36  40
DOCKED: ATOM     40  O   UNL d   1      -0.451  12.710 -10.897 -0.33 -0.02    -0.303 OA
DOCKED: ATOM     41  H   UNL d   1       0.283  12.273 -11.383 -0.43 -0.05    +0.222 HD
DOCKED: ENDBRANCH  36  40
DOCKED: ENDBRANCH  35  36
DOCKED: ENDBRANCH   5  35
DOCKED: BRANCH   4  42
DOCKED: ATOM     42  O   UNL d   1      -0.737  17.220 -13.027 -0.02 -0.05    -0.278 OA
DOCKED: BRANCH  42  43
DOCKED: ATOM     43  P   UNL d   1      -0.369  18.091 -11.743 -0.01 +0.11    +0.473 P 
DOCKED: ATOM     44  O   UNL d   1      -1.303  19.188 -11.367 -0.01 -0.05    -0.228 OA
DOCKED: BRANCH  43  45
DOCKED: ATOM     45  O   UNL d   1      -0.175  16.985 -10.615 -0.09 -0.10    -0.303 OA
DOCKED: ATOM     46  H   UNL d   1      -0.602  16.141 -10.864 +0.07 +0.05    +0.222 HD
DOCKED: ENDBRANCH  43  45
DOCKED: BRANCH  43  47
DOCKED: ATOM     47  O   UNL d   1       1.145  18.537 -12.025 -0.02 -0.07    -0.303 OA
DOCKED: ATOM     48  H   UNL d   1       1.180  19.052 -12.857 +0.02 +0.04    +0.222 HD
DOCKED: ENDBRANCH  43  47
DOCKED: ENDBRANCH  42  43
DOCKED: ENDBRANCH   4  42
DOCKED: TORSDOF 24
DOCKED: TER
DOCKED: ENDMDL
________________________________________________________________________________


	BEGINNING GENETIC ALGORITHM DOCKING 84 of 100
Run: 84 Seed: 1966628430 1754727089 [ Run 84 of 100 GA/GALS ]
Beginning LAMARCKIAN GENETIC ALGORITHM (LGA), with a maximum of 25000000 energy evaluations.

Final-Value: -19.047


	FINAL GENETIC ALGORITHM DOCKED STATE
	_______________________________________________


Detailed state:  trans -9.206 -18.771 -4.894 quatxyzw -0.324688 0.310639 0.508069 0.734811 center 0.035 0.082 -0.065 ntor 24 -115.4656 -9.7312 165.5945 11.1234 128.7503 120.9886 -25.2058 -118.2352 -2.2247 108.0440 106.4561 -123.5738 180.0000 173.1434 -180.0000 116.2292 -57.4807 105.3107 61.4266 12.7297 3.1943 0.2965 167.3574 -4.4282
State:	 -9.206 -18.771  -4.894  -0.479  0.458  0.749 85.418   -115.47   -9.73  165.59   11.12  128.75  120.99  -25.21 -118.24   -2.22  108.04  106.46 -123.57  180.00  173.14 -180.00  116.23  -57.48  105.31   61.43   12.73    3.19    0.30  167.36   -4.43

DOCKED: MODEL       84
DOCKED: USER    Run = 84
DOCKED: USER    DPF = D:/Protein_go_brrr/autodock/final/AncB/IHP/dock.dpf
DOCKED: USER  
DOCKED: USER    Estimated Free Energy of Binding    =   +3.73 kcal/mol  [=(1)+(2)+(3)-(4)]
DOCKED: USER    
DOCKED: USER    (1) Final Intermolecular Energy     =   -3.43 kcal/mol
DOCKED: USER        vdW + Hbond + desolv Energy     =   -3.36 kcal/mol
DOCKED: USER        Electrostatic Energy            =   -0.07 kcal/mol
DOCKED: USER    (2) Final Total Internal Energy     =  -15.62 kcal/mol
DOCKED: USER    (3) Torsional Free Energy           =   +7.16 kcal/mol
DOCKED: USER    (4) Unbound System's Energy  [=(2)] =  -15.62 kcal/mol
DOCKED: USER    
DOCKED: USER    
DOCKED: USER    NEWDPF move IHP_ideal_opt.pdbqt
DOCKED: USER    NEWDPF about 0.035000 0.082000 -0.065000
DOCKED: USER    NEWDPF tran0 -9.206121 -18.771073 -4.893578
DOCKED: USER    NEWDPF quaternion0 -0.324688 0.310639 0.508069 0.734811
DOCKED: USER    NEWDPF axisangle0 -0.478698 0.457986 0.749064 85.417512
DOCKED: USER    NEWDPF quat0 -0.478698 0.457986 0.749064 85.417512
DOCKED: USER    NEWDPF dihe0 -115.47 -9.73 165.59 11.12 128.75 120.99 -25.21 -118.24 -2.22 108.04 106.46 -123.57 180.00 173.14 -180.00 116.23 -57.48 105.31 61.43 12.73 3.19 0.30 167.36 -4.43 
DOCKED: USER  keepresnum = 1 
DOCKED: USER  
DOCKED: REMARK  24 active torsions:
DOCKED: REMARK  status: ('A' for Active; 'I' for Inactive)
DOCKED: REMARK    1  A    between atoms: C_1  and  O_7 
DOCKED: REMARK    2  A    between atoms: C_2  and  O_12 
DOCKED: REMARK    3  A    between atoms: C_3  and  O_17 
DOCKED: REMARK    4  A    between atoms: C_4  and  O_22 
DOCKED: REMARK    5  A    between atoms: C_5  and  O_27 
DOCKED: REMARK    6  A    between atoms: C_6  and  O_32 
DOCKED: REMARK    7  A    between atoms: O_7  and  P_8 
DOCKED: REMARK    8  A    between atoms: P_8  and  O_10 
DOCKED: REMARK    9  A    between atoms: P_8  and  O_11 
DOCKED: REMARK   10  A    between atoms: O_12  and  P_13 
DOCKED: REMARK   11  A    between atoms: P_13  and  O_15 
DOCKED: REMARK   12  A    between atoms: P_13  and  O_16 
DOCKED: REMARK   13  A    between atoms: O_17  and  P_18 
DOCKED: REMARK   14  A    between atoms: P_18  and  O_20 
DOCKED: REMARK   15  A    between atoms: P_18  and  O_21 
DOCKED: REMARK   16  A    between atoms: O_22  and  P_23 
DOCKED: REMARK   17  A    between atoms: P_23  and  O_25 
DOCKED: REMARK   18  A    between atoms: P_23  and  O_26 
DOCKED: REMARK   19  A    between atoms: O_27  and  P_28 
DOCKED: REMARK   20  A    between atoms: P_28  and  O_30 
DOCKED: REMARK   21  A    between atoms: P_28  and  O_31 
DOCKED: REMARK   22  A    between atoms: O_32  and  P_33 
DOCKED: REMARK   23  A    between atoms: P_33  and  O_35 
DOCKED: REMARK   24  A    between atoms: P_33  and  O_36 
DOCKED: USER                              x       y       z     vdW  Elec       q    Type
DOCKED: USER                           _______ _______ _______ _____ _____    ______ ____
DOCKED: ROOT
DOCKED: ATOM      1  C   UNL d   1      -9.948 -20.329  -4.967 +0.01 +0.11    +0.194 C 
DOCKED: ATOM      2  C   UNL d   1     -10.459 -19.306  -5.983 -0.02 +0.13    +0.194 C 
DOCKED: ATOM      3  C   UNL d   1     -10.661 -17.929  -5.347 -0.03 +0.14    +0.194 C 
DOCKED: ATOM      4  C   UNL d   1      -9.432 -17.429  -4.591 -0.11 +0.19    +0.194 C 
DOCKED: ATOM      5  C   UNL d   1      -8.820 -18.459  -3.651 -0.10 +0.20    +0.194 C 
DOCKED: ATOM      6  C   UNL d   1      -8.675 -19.852  -4.267 -0.03 +0.15    +0.194 C 
DOCKED: ENDROOT
DOCKED: BRANCH   1   7
DOCKED: ATOM      7  O   UNL d   1      -9.622 -21.531  -5.671 +0.01 -0.13    -0.278 OA
DOCKED: BRANCH   7   8
DOCKED: ATOM      8  P   UNL d   1     -10.787 -22.286  -6.462 +0.01 +0.16    +0.473 P 
DOCKED: ATOM      9  O   UNL d   1     -10.921 -23.736  -6.153 +0.00 -0.06    -0.228 OA
DOCKED: BRANCH   8  10
DOCKED: ATOM     10  O   UNL d   1     -12.098 -21.446  -6.116 +0.00 -0.10    -0.303 OA
DOCKED: ATOM     11  H   UNL d   1     -12.188 -20.707  -6.745 +0.00 +0.08    +0.222 HD
DOCKED: ENDBRANCH   8  10
DOCKED: BRANCH   8  12
DOCKED: ATOM     12  O   UNL d   1     -10.552 -21.921  -7.990 +0.00 -0.11    -0.303 OA
DOCKED: ATOM     13  H   UNL d   1     -10.518 -20.952  -8.154 +0.01 +0.10    +0.222 HD
DOCKED: ENDBRANCH   8  12
DOCKED: ENDBRANCH   7   8
DOCKED: ENDBRANCH   1   7
DOCKED: BRANCH   2  14
DOCKED: ATOM     14  O   UNL d   1      -9.502 -19.183  -7.043 -0.09 -0.32    -0.278 OA
DOCKED: BRANCH  14  15
DOCKED: ATOM     15  P   UNL d   1     -10.091 -18.942  -8.513 -0.00 +0.49    +0.473 P 
DOCKED: ATOM     16  O   UNL d   1      -9.552 -19.814  -9.603 -0.04 -0.17    -0.228 OA
DOCKED: BRANCH  15  17
DOCKED: ATOM     17  O   UNL d   1     -11.666 -19.086  -8.328 -0.01 -0.15    -0.303 OA
DOCKED: ATOM     18  H   UNL d   1     -12.031 -18.335  -7.821 +0.01 +0.11    +0.222 HD
DOCKED: ENDBRANCH  15  17
DOCKED: BRANCH  15  19
DOCKED: ATOM     19  O   UNL d   1      -9.939 -17.376  -8.750 -0.56 -0.48    -0.303 OA
DOCKED: ATOM     20  H   UNL d   1     -10.280 -16.863  -7.994 +0.02 +0.27    +0.222 HD
DOCKED: ENDBRANCH  15  19
DOCKED: ENDBRANCH  14  15
DOCKED: ENDBRANCH   2  14
DOCKED: BRANCH   6  21
DOCKED: ATOM     21  O   UNL d   1      -8.425 -20.755  -3.193 -0.02 -0.19    -0.278 OA
DOCKED: BRANCH  21  22
DOCKED: ATOM     22  P   UNL d   1      -6.931 -21.221  -2.881 -0.01 +0.29    +0.473 P 
DOCKED: ATOM     23  O   UNL d   1      -6.723 -22.577  -2.295 -0.00 -0.10    -0.228 OA
DOCKED: BRANCH  22  24
DOCKED: ATOM     24  O   UNL d   1      -6.217 -20.983  -4.283 -0.01 -0.17    -0.303 OA
DOCKED: ATOM     25  H   UNL d   1      -6.257 -20.014  -4.489 +0.05 +0.16    +0.222 HD
DOCKED: ENDBRANCH  22  24
DOCKED: BRANCH  22  26
DOCKED: ATOM     26  O   UNL d   1      -6.380 -19.989  -2.015 -0.08 -0.32    -0.303 OA
DOCKED: ATOM     27  H   UNL d   1      -6.528 -19.157  -2.509 +0.04 +0.27    +0.222 HD
DOCKED: ENDBRANCH  22  26
DOCKED: ENDBRANCH  21  22
DOCKED: ENDBRANCH   6  21
DOCKED: BRANCH   3  28
DOCKED: ATOM     28  O   UNL d   1     -10.862 -16.995  -6.400 -0.05 -0.21    -0.278 OA
DOCKED: BRANCH  28  29
DOCKED: ATOM     29  P   UNL d   1     -12.287 -16.317  -6.613 +0.00 +0.23    +0.473 P 
DOCKED: ATOM     30  O   UNL d   1     -12.503 -15.040  -5.885 -0.07 -0.10    -0.228 OA
DOCKED: BRANCH  29  31
DOCKED: ATOM     31  O   UNL d   1     -12.332 -16.258  -8.212 -0.01 -0.14    -0.303 OA
DOCKED: ATOM     32  H   UNL d   1     -11.763 -16.978  -8.568 +0.02 +0.12    +0.222 HD
DOCKED: ENDBRANCH  29  31
DOCKED: BRANCH  29  33
DOCKED: ATOM     33  O   UNL d   1     -13.280 -17.515  -6.277 +0.00 -0.11    -0.303 OA
DOCKED: ATOM     34  H   UNL d   1     -13.098 -18.266  -6.893 +0.01 +0.08    +0.222 HD
DOCKED: ENDBRANCH  29  33
DOCKED: ENDBRANCH  28  29
DOCKED: ENDBRANCH   3  28
DOCKED: BRANCH   5  35
DOCKED: ATOM     35  O   UNL d   1      -7.505 -17.988  -3.363 -0.16 -0.35    -0.278 OA
DOCKED: BRANCH  35  36
DOCKED: ATOM     36  P   UNL d   1      -6.434 -17.826  -4.535 -0.21 +0.51    +0.473 P 
DOCKED: ATOM     37  O   UNL d   1      -6.797 -18.474  -5.833 -0.38 -0.40    -0.228 OA
DOCKED: BRANCH  36  38
DOCKED: ATOM     38  O   UNL d   1      -6.275 -16.244  -4.614 -0.32 -0.33    -0.303 OA
DOCKED: ATOM     39  H   UNL d   1      -7.084 -15.859  -5.014 +0.11 +0.26    +0.222 HD
DOCKED: ENDBRANCH  36  38
DOCKED: BRANCH  36  40
DOCKED: ATOM     40  O   UNL d   1      -5.090 -18.312  -3.836 -0.23 -0.21    -0.303 OA
DOCKED: ATOM     41  H   UNL d   1      -5.120 -19.269  -3.616 +0.05 +0.14    +0.222 HD
DOCKED: ENDBRANCH  36  40
DOCKED: ENDBRANCH  35  36
DOCKED: ENDBRANCH   5  35
DOCKED: BRANCH   4  42
DOCKED: ATOM     42  O   UNL d   1      -9.860 -16.326  -3.786 -0.10 -0.26    -0.278 OA
DOCKED: BRANCH  42  43
DOCKED: ATOM     43  P   UNL d   1      -9.271 -14.875  -4.089 -0.18 +0.39    +0.473 P 
DOCKED: ATOM     44  O   UNL d   1     -10.130 -13.703  -3.762 -0.29 -0.11    -0.228 OA
DOCKED: BRANCH  43  45
DOCKED: ATOM     45  O   UNL d   1      -7.878 -14.896  -3.319 -0.63 -0.36    -0.303 OA
DOCKED: ATOM     46  H   UNL d   1      -7.479 -15.789  -3.327 +0.10 +0.31    +0.222 HD
DOCKED: ENDBRANCH  43  45
DOCKED: BRANCH  43  47
DOCKED: ATOM     47  O   UNL d   1      -8.800 -14.983  -5.617 -0.16 -0.28    -0.303 OA
DOCKED: ATOM     48  H   UNL d   1      -9.557 -15.272  -6.168 +0.08 +0.20    +0.222 HD
DOCKED: ENDBRANCH  43  47
DOCKED: ENDBRANCH  42  43
DOCKED: ENDBRANCH   4  42
DOCKED: TORSDOF 24
DOCKED: TER
DOCKED: ENDMDL
________________________________________________________________________________


	BEGINNING GENETIC ALGORITHM DOCKING 85 of 100
Run: 85 Seed: 455858220 1976480699 [ Run 85 of 100 GA/GALS ]
Beginning LAMARCKIAN GENETIC ALGORITHM (LGA), with a maximum of 25000000 energy evaluations.

Final-Value: -16.834


	FINAL GENETIC ALGORITHM DOCKED STATE
	_______________________________________________


Detailed state:  trans -12.702 -15.655 -4.815 quatxyzw 0.860348 0.102155 -0.165928 -0.470993 center 0.035 0.082 -0.065 ntor 24 107.0995 176.7151 63.0169 77.9522 7.4284 150.3233 -113.3778 -32.1460 150.7326 19.6050 95.7988 -123.6636 135.6889 -88.9371 151.0680 37.2086 170.6772 92.9917 -2.6369 1.5269 -24.4853 4.6105 170.4390 11.8848
State:	-12.702 -15.655  -4.815   0.975  0.116 -0.188 -123.802    107.10  176.72   63.02   77.95    7.43  150.32 -113.38  -32.15  150.73   19.61   95.80 -123.66  135.69  -88.94  151.07   37.21  170.68   92.99   -2.64    1.53  -24.49    4.61  170.44   11.88

DOCKED: MODEL       85
DOCKED: USER    Run = 85
DOCKED: USER    DPF = D:/Protein_go_brrr/autodock/final/AncB/IHP/dock.dpf
DOCKED: USER  
DOCKED: USER    Estimated Free Energy of Binding    =   +3.93 kcal/mol  [=(1)+(2)+(3)-(4)]
DOCKED: USER    
DOCKED: USER    (1) Final Intermolecular Energy     =   -3.23 kcal/mol
DOCKED: USER        vdW + Hbond + desolv Energy     =   -3.01 kcal/mol
DOCKED: USER        Electrostatic Energy            =   -0.22 kcal/mol
DOCKED: USER    (2) Final Total Internal Energy     =  -13.60 kcal/mol
DOCKED: USER    (3) Torsional Free Energy           =   +7.16 kcal/mol
DOCKED: USER    (4) Unbound System's Energy  [=(2)] =  -13.60 kcal/mol
DOCKED: USER    
DOCKED: USER    
DOCKED: USER    NEWDPF move IHP_ideal_opt.pdbqt
DOCKED: USER    NEWDPF about 0.035000 0.082000 -0.065000
DOCKED: USER    NEWDPF tran0 -12.701784 -15.654620 -4.815316
DOCKED: USER    NEWDPF quaternion0 0.860348 0.102155 -0.165928 -0.470993
DOCKED: USER    NEWDPF axisangle0 0.975299 0.115804 -0.188097 -123.802486
DOCKED: USER    NEWDPF quat0 0.975299 0.115804 -0.188097 -123.802486
DOCKED: USER    NEWDPF dihe0 107.10 176.72 63.02 77.95 7.43 150.32 -113.38 -32.15 150.73 19.61 95.80 -123.66 135.69 -88.94 151.07 37.21 170.68 92.99 -2.64 1.53 -24.49 4.61 170.44 11.88 
DOCKED: USER  keepresnum = 1 
DOCKED: USER  
DOCKED: REMARK  24 active torsions:
DOCKED: REMARK  status: ('A' for Active; 'I' for Inactive)
DOCKED: REMARK    1  A    between atoms: C_1  and  O_7 
DOCKED: REMARK    2  A    between atoms: C_2  and  O_12 
DOCKED: REMARK    3  A    between atoms: C_3  and  O_17 
DOCKED: REMARK    4  A    between atoms: C_4  and  O_22 
DOCKED: REMARK    5  A    between atoms: C_5  and  O_27 
DOCKED: REMARK    6  A    between atoms: C_6  and  O_32 
DOCKED: REMARK    7  A    between atoms: O_7  and  P_8 
DOCKED: REMARK    8  A    between atoms: P_8  and  O_10 
DOCKED: REMARK    9  A    between atoms: P_8  and  O_11 
DOCKED: REMARK   10  A    between atoms: O_12  and  P_13 
DOCKED: REMARK   11  A    between atoms: P_13  and  O_15 
DOCKED: REMARK   12  A    between atoms: P_13  and  O_16 
DOCKED: REMARK   13  A    between atoms: O_17  and  P_18 
DOCKED: REMARK   14  A    between atoms: P_18  and  O_20 
DOCKED: REMARK   15  A    between atoms: P_18  and  O_21 
DOCKED: REMARK   16  A    between atoms: O_22  and  P_23 
DOCKED: REMARK   17  A    between atoms: P_23  and  O_25 
DOCKED: REMARK   18  A    between atoms: P_23  and  O_26 
DOCKED: REMARK   19  A    between atoms: O_27  and  P_28 
DOCKED: REMARK   20  A    between atoms: P_28  and  O_30 
DOCKED: REMARK   21  A    between atoms: P_28  and  O_31 
DOCKED: REMARK   22  A    between atoms: O_32  and  P_33 
DOCKED: REMARK   23  A    between atoms: P_33  and  O_35 
DOCKED: REMARK   24  A    between atoms: P_33  and  O_36 
DOCKED: USER                              x       y       z     vdW  Elec       q    Type
DOCKED: USER                           _______ _______ _______ _____ _____    ______ ____
DOCKED: ROOT
DOCKED: ATOM      1  C   UNL d   1     -11.989 -15.823  -6.380 -0.05 +0.10    +0.194 C 
DOCKED: ATOM      2  C   UNL d   1     -13.339 -15.105  -6.343 -0.04 +0.07    +0.194 C 
DOCKED: ATOM      3  C   UNL d   1     -14.330 -15.809  -5.413 -0.02 +0.06    +0.194 C 
DOCKED: ATOM      4  C   UNL d   1     -13.769 -16.058  -4.015 -0.03 +0.07    +0.194 C 
DOCKED: ATOM      5  C   UNL d   1     -12.374 -16.668  -4.005 -0.03 +0.10    +0.194 C 
DOCKED: ATOM      6  C   UNL d   1     -11.400 -16.003  -4.980 -0.07 +0.11    +0.194 C 
DOCKED: ENDROOT
DOCKED: BRANCH   1   7
DOCKED: ATOM      7  O   UNL d   1     -11.075 -15.015  -7.125 -0.08 -0.17    -0.278 OA
DOCKED: BRANCH   7   8
DOCKED: ATOM      8  P   UNL d   1     -10.319 -15.675  -8.369 -0.05 +0.42    +0.473 P 
DOCKED: ATOM      9  O   UNL d   1      -9.263 -14.828  -8.987 -0.21 -0.18    -0.228 OA
DOCKED: BRANCH   8  10
DOCKED: ATOM     10  O   UNL d   1      -9.762 -17.055  -7.795 -0.46 -0.56    -0.303 OA
DOCKED: ATOM     11  H   UNL d   1      -9.277 -16.892  -6.965 +0.04 +0.42    +0.222 HD
DOCKED: ENDBRANCH   8  10
DOCKED: BRANCH   8  12
DOCKED: ATOM     12  O   UNL d   1     -11.476 -16.162  -9.343 -0.03 -0.16    -0.303 OA
DOCKED: ATOM     13  H   UNL d   1     -11.335 -15.886 -10.277 +0.04 +0.09    +0.222 HD
DOCKED: ENDBRANCH   8  12
DOCKED: ENDBRANCH   7   8
DOCKED: ENDBRANCH   1   7
DOCKED: BRANCH   2  14
DOCKED: ATOM     14  O   UNL d   1     -13.143 -13.766  -5.871 -0.12 -0.10    -0.278 OA
DOCKED: BRANCH  14  15
DOCKED: ATOM     15  P   UNL d   1     -13.860 -12.601  -6.705 -0.08 +0.15    +0.473 P 
DOCKED: ATOM     16  O   UNL d   1     -13.982 -12.810  -8.182 -0.05 -0.09    -0.228 OA
DOCKED: BRANCH  15  17
DOCKED: ATOM     17  O   UNL d   1     -15.271 -12.423  -5.988 -0.06 -0.09    -0.303 OA
DOCKED: ATOM     18  H   UNL d   1     -15.595 -13.273  -5.633 +0.03 +0.06    +0.222 HD
DOCKED: ENDBRANCH  15  17
DOCKED: BRANCH  15  19
DOCKED: ATOM     19  O   UNL d   1     -13.105 -11.273  -6.261 -0.10 -0.06    -0.303 OA
DOCKED: ATOM     20  H   UNL d   1     -12.245 -11.469  -5.846 -0.47 +0.01    +0.222 HD
DOCKED: ENDBRANCH  15  19
DOCKED: ENDBRANCH  14  15
DOCKED: ENDBRANCH   2  14
DOCKED: BRANCH   6  21
DOCKED: ATOM     21  O   UNL d   1     -10.281 -16.878  -5.106 -0.05 -0.22    -0.278 OA
DOCKED: BRANCH  21  22
DOCKED: ATOM     22  P   UNL d   1      -8.807 -16.319  -4.860 -0.12 +0.50    +0.473 P 
DOCKED: ATOM     23  O   UNL d   1      -7.660 -17.257  -5.028 -0.17 -0.30    -0.228 OA
DOCKED: BRANCH  22  24
DOCKED: ATOM     24  O   UNL d   1      -8.777 -15.048  -5.818 -0.14 -0.30    -0.303 OA
DOCKED: ATOM     25  H   UNL d   1      -8.956 -15.356  -6.743 +0.08 +0.28    +0.222 HD
DOCKED: ENDBRANCH  22  24
DOCKED: BRANCH  22  26
DOCKED: ATOM     26  O   UNL d   1      -8.954 -15.640  -3.415 -0.24 -0.36    -0.303 OA
DOCKED: ATOM     27  H   UNL d   1      -9.893 -15.410  -3.261 +0.09 +0.21    +0.222 HD
DOCKED: ENDBRANCH  22  26
DOCKED: ENDBRANCH  21  22
DOCKED: ENDBRANCH   6  21
DOCKED: BRANCH   3  28
DOCKED: ATOM     28  O   UNL d   1     -15.436 -14.936  -5.226 -0.02 -0.08    -0.278 OA
DOCKED: BRANCH  28  29
DOCKED: ATOM     29  P   UNL d   1     -16.881 -15.345  -5.757 +0.00 +0.11    +0.473 P 
DOCKED: ATOM     30  O   UNL d   1     -17.027 -16.756  -6.197 -0.00 -0.05    -0.228 OA
DOCKED: BRANCH  29  31
DOCKED: ATOM     31  O   UNL d   1     -17.777 -14.875  -4.517 -0.00 -0.06    -0.303 OA
DOCKED: ATOM     32  H   UNL d   1     -17.505 -15.388  -3.721 +0.01 +0.05    +0.222 HD
DOCKED: ENDBRANCH  29  31
DOCKED: BRANCH  29  33
DOCKED: ATOM     33  O   UNL d   1     -17.169 -14.218  -6.845 -0.00 -0.07    -0.303 OA
DOCKED: ATOM     34  H   UNL d   1     -16.307 -13.889  -7.201 +0.01 +0.06    +0.222 HD
DOCKED: ENDBRANCH  29  33
DOCKED: ENDBRANCH  28  29
DOCKED: ENDBRANCH   3  28
DOCKED: BRANCH   5  35
DOCKED: ATOM     35  O   UNL d   1     -11.865 -16.450  -2.690 -0.06 -0.19    -0.278 OA
DOCKED: BRANCH  35  36
DOCKED: ATOM     36  P   UNL d   1     -11.729 -14.968  -2.115 -0.16 +0.31    +0.473 P 
DOCKED: ATOM     37  O   UNL d   1     -10.554 -14.729  -1.221 -0.23 -0.24    -0.228 OA
DOCKED: BRANCH  36  38
DOCKED: ATOM     38  O   UNL d   1     -11.724 -14.100  -3.450 -0.17 -0.16    -0.303 OA
DOCKED: ATOM     39  H   UNL d   1     -12.648 -13.983  -3.761 +0.08 +0.10    +0.222 HD
DOCKED: ENDBRANCH  36  38
DOCKED: BRANCH  36  40
DOCKED: ATOM     40  O   UNL d   1     -13.171 -14.710  -1.496 -0.14 -0.13    -0.303 OA
DOCKED: ATOM     41  H   UNL d   1     -13.850 -15.299  -1.895 +0.05 +0.09    +0.222 HD
DOCKED: ENDBRANCH  36  40
DOCKED: ENDBRANCH  35  36
DOCKED: ENDBRANCH   5  35
DOCKED: BRANCH   4  42
DOCKED: ATOM     42  O   UNL d   1     -14.644 -16.996  -3.379 -0.01 -0.09    -0.278 OA
DOCKED: BRANCH  42  43
DOCKED: ATOM     43  P   UNL d   1     -15.748 -16.455  -2.362 +0.00 +0.13    +0.473 P 
DOCKED: ATOM     44  O   UNL d   1     -17.103 -17.071  -2.429 -0.00 -0.05    -0.228 OA
DOCKED: BRANCH  43  45
DOCKED: ATOM     45  O   UNL d   1     -15.030 -16.612  -0.951 -0.01 -0.10    -0.303 OA
DOCKED: ATOM     46  H   UNL d   1     -14.056 -16.632  -1.045 +0.04 +0.09    +0.222 HD
DOCKED: ENDBRANCH  43  45
DOCKED: BRANCH  43  47
DOCKED: ATOM     47  O   UNL d   1     -15.698 -14.868  -2.579 -0.05 -0.08    -0.303 OA
DOCKED: ATOM     48  H   UNL d   1     -15.839 -14.667  -3.527 +0.03 +0.06    +0.222 HD
DOCKED: ENDBRANCH  43  47
DOCKED: ENDBRANCH  42  43
DOCKED: ENDBRANCH   4  42
DOCKED: TORSDOF 24
DOCKED: TER
DOCKED: ENDMDL
________________________________________________________________________________


	BEGINNING GENETIC ALGORITHM DOCKING 86 of 100
Run: 86 Seed: 2089195940 321922206 [ Run 86 of 100 GA/GALS ]
Beginning LAMARCKIAN GENETIC ALGORITHM (LGA), with a maximum of 25000000 energy evaluations.

Final-Value: -17.143


	FINAL GENETIC ALGORITHM DOCKED STATE
	_______________________________________________


Detailed state:  trans -11.182 17.780 2.859 quatxyzw -0.457452 -0.247055 -0.851865 -0.063470 center 0.035 0.082 -0.065 ntor 24 100.7375 109.5636 128.7780 13.9255 9.8549 120.9067 -103.0863 -10.6652 149.4063 -3.5312 163.1090 -168.5510 -71.2553 31.5143 -170.2595 60.0210 -120.8891 -1.5450 -152.2921 -14.9417 11.3188 148.4944 -46.0363 137.2680
State:	-11.182  17.780   2.859  -0.458 -0.248 -0.854 -172.722    100.74  109.56  128.78   13.93    9.85  120.91 -103.09  -10.67  149.41   -3.53  163.11 -168.55  -71.26   31.51 -170.26   60.02 -120.89   -1.54 -152.29  -14.94   11.32  148.49  -46.04  137.27

DOCKED: MODEL       86
DOCKED: USER    Run = 86
DOCKED: USER    DPF = D:/Protein_go_brrr/autodock/final/AncB/IHP/dock.dpf
DOCKED: USER  
DOCKED: USER    Estimated Free Energy of Binding    =   +4.71 kcal/mol  [=(1)+(2)+(3)-(4)]
DOCKED: USER    
DOCKED: USER    (1) Final Intermolecular Energy     =   -2.45 kcal/mol
DOCKED: USER        vdW + Hbond + desolv Energy     =   -2.27 kcal/mol
DOCKED: USER        Electrostatic Energy            =   -0.18 kcal/mol
DOCKED: USER    (2) Final Total Internal Energy     =  -14.70 kcal/mol
DOCKED: USER    (3) Torsional Free Energy           =   +7.16 kcal/mol
DOCKED: USER    (4) Unbound System's Energy  [=(2)] =  -14.70 kcal/mol
DOCKED: USER    
DOCKED: USER    
DOCKED: USER    NEWDPF move IHP_ideal_opt.pdbqt
DOCKED: USER    NEWDPF about 0.035000 0.082000 -0.065000
DOCKED: USER    NEWDPF tran0 -11.181776 17.779832 2.858528
DOCKED: USER    NEWDPF quaternion0 -0.457452 -0.247055 -0.851865 -0.063470
DOCKED: USER    NEWDPF axisangle0 -0.458376 -0.247554 -0.853586 -172.721943
DOCKED: USER    NEWDPF quat0 -0.458376 -0.247554 -0.853586 -172.721943
DOCKED: USER    NEWDPF dihe0 100.74 109.56 128.78 13.93 9.85 120.91 -103.09 -10.67 149.41 -3.53 163.11 -168.55 -71.26 31.51 -170.26 60.02 -120.89 -1.54 -152.29 -14.94 11.32 148.49 -46.04 137.27 
DOCKED: USER  keepresnum = 1 
DOCKED: USER  
DOCKED: REMARK  24 active torsions:
DOCKED: REMARK  status: ('A' for Active; 'I' for Inactive)
DOCKED: REMARK    1  A    between atoms: C_1  and  O_7 
DOCKED: REMARK    2  A    between atoms: C_2  and  O_12 
DOCKED: REMARK    3  A    between atoms: C_3  and  O_17 
DOCKED: REMARK    4  A    between atoms: C_4  and  O_22 
DOCKED: REMARK    5  A    between atoms: C_5  and  O_27 
DOCKED: REMARK    6  A    between atoms: C_6  and  O_32 
DOCKED: REMARK    7  A    between atoms: O_7  and  P_8 
DOCKED: REMARK    8  A    between atoms: P_8  and  O_10 
DOCKED: REMARK    9  A    between atoms: P_8  and  O_11 
DOCKED: REMARK   10  A    between atoms: O_12  and  P_13 
DOCKED: REMARK   11  A    between atoms: P_13  and  O_15 
DOCKED: REMARK   12  A    between atoms: P_13  and  O_16 
DOCKED: REMARK   13  A    between atoms: O_17  and  P_18 
DOCKED: REMARK   14  A    between atoms: P_18  and  O_20 
DOCKED: REMARK   15  A    between atoms: P_18  and  O_21 
DOCKED: REMARK   16  A    between atoms: O_22  and  P_23 
DOCKED: REMARK   17  A    between atoms: P_23  and  O_25 
DOCKED: REMARK   18  A    between atoms: P_23  and  O_26 
DOCKED: REMARK   19  A    between atoms: O_27  and  P_28 
DOCKED: REMARK   20  A    between atoms: P_28  and  O_30 
DOCKED: REMARK   21  A    between atoms: P_28  and  O_31 
DOCKED: REMARK   22  A    between atoms: O_32  and  P_33 
DOCKED: REMARK   23  A    between atoms: P_33  and  O_35 
DOCKED: REMARK   24  A    between atoms: P_33  and  O_36 
DOCKED: USER                              x       y       z     vdW  Elec       q    Type
DOCKED: USER                           _______ _______ _______ _____ _____    ______ ____
DOCKED: ROOT
DOCKED: ATOM      1  C   UNL d   1     -11.605  19.079   3.916 -0.00 -0.01    +0.194 C 
DOCKED: ATOM      2  C   UNL d   1     -11.434  19.454   2.443 +0.00 -0.01    +0.194 C 
DOCKED: ATOM      3  C   UNL d   1     -10.204  18.785   1.826 -0.00 -0.03    +0.194 C 
DOCKED: ATOM      4  C   UNL d   1     -10.169  17.274   2.045 -0.01 -0.04    +0.194 C 
DOCKED: ATOM      5  C   UNL d   1     -10.449  16.848   3.480 -0.03 -0.03    +0.194 C 
DOCKED: ATOM      6  C   UNL d   1     -11.642  17.563   4.117 -0.01 -0.02    +0.194 C 
DOCKED: ENDROOT
DOCKED: BRANCH   1   7
DOCKED: ATOM      7  O   UNL d   1     -12.858  19.599   4.366 -0.00 +0.01    -0.278 OA
DOCKED: BRANCH   7   8
DOCKED: ATOM      8  P   UNL d   1     -14.175  18.728   4.120 +0.00 -0.01    +0.473 P 
DOCKED: ATOM      9  O   UNL d   1     -14.054  17.688   3.063 -0.00 +0.00    -0.228 OA
DOCKED: BRANCH   8  10
DOCKED: ATOM     10  O   UNL d   1     -14.514  18.126   5.558 -0.00 +0.00    -0.303 OA
DOCKED: ATOM     11  H   UNL d   1     -13.749  17.619   5.889 +0.01 -0.00    +0.222 HD
DOCKED: ENDBRANCH   8  10
DOCKED: BRANCH   8  12
DOCKED: ATOM     12  O   UNL d   1     -15.340  19.789   3.920 +0.00 -0.00    -0.303 OA
DOCKED: ATOM     13  H   UNL d   1     -15.222  20.346   3.118 +0.00 +0.00    +0.222 HD
DOCKED: ENDBRANCH   8  12
DOCKED: ENDBRANCH   7   8
DOCKED: ENDBRANCH   1   7
DOCKED: BRANCH   2  14
DOCKED: ATOM     14  O   UNL d   1     -12.596  19.034   1.716 +0.00 +0.01    -0.278 OA
DOCKED: BRANCH  14  15
DOCKED: ATOM     15  P   UNL d   1     -13.472  20.189   1.036 +0.00 -0.01    +0.473 P 
DOCKED: ATOM     16  O   UNL d   1     -13.063  20.623  -0.337 +0.00 +0.00    -0.228 OA
DOCKED: BRANCH  15  17
DOCKED: ATOM     17  O   UNL d   1     -14.961  19.627   1.088 +0.00 -0.00    -0.303 OA
DOCKED: ATOM     18  H   UNL d   1     -15.103  19.080   1.884 +0.00 +0.00    +0.222 HD
DOCKED: ENDBRANCH  15  17
DOCKED: BRANCH  15  19
DOCKED: ATOM     19  O   UNL d   1     -13.527  21.342   2.131 +0.00 +0.00    -0.303 OA
DOCKED: ATOM     20  H   UNL d   1     -13.727  20.988   3.017 +0.00 -0.00    +0.222 HD
DOCKED: ENDBRANCH  15  19
DOCKED: ENDBRANCH  14  15
DOCKED: ENDBRANCH   2  14
DOCKED: BRANCH   6  21
DOCKED: ATOM     21  O   UNL d   1     -11.564  17.326   5.521 -0.01 +0.02    -0.278 OA
DOCKED: BRANCH  21  22
DOCKED: ATOM     22  P   UNL d   1     -12.307  16.064   6.153 -0.05 -0.04    +0.473 P 
DOCKED: ATOM     23  O   UNL d   1     -12.995  16.236   7.466 -0.03 +0.00    -0.228 OA
DOCKED: BRANCH  22  24
DOCKED: ATOM     24  O   UNL d   1     -13.255  15.611   4.957 -0.03 +0.03    -0.303 OA
DOCKED: ATOM     25  H   UNL d   1     -13.820  16.384   4.702 +0.02 -0.01    +0.222 HD
DOCKED: ENDBRANCH  22  24
DOCKED: BRANCH  22  26
DOCKED: ATOM     26  O   UNL d   1     -11.156  14.950   6.104 -0.18 +0.06    -0.303 OA
DOCKED: ATOM     27  H   UNL d   1     -10.805  14.889   5.192 +0.03 -0.05    +0.222 HD
DOCKED: ENDBRANCH  22  26
DOCKED: ENDBRANCH  21  22
DOCKED: ENDBRANCH   6  21
DOCKED: BRANCH   3  28
DOCKED: ATOM     28  O   UNL d   1     -10.282  18.960   0.417 -0.00 +0.04    -0.278 OA
DOCKED: BRANCH  28  29
DOCKED: ATOM     29  P   UNL d   1     -10.787  17.772  -0.515 +0.01 -0.06    +0.473 P 
DOCKED: ATOM     30  O   UNL d   1     -11.832  16.896   0.074 -0.00 +0.02    -0.228 OA
DOCKED: BRANCH  29  31
DOCKED: ATOM     31  O   UNL d   1     -11.186  18.597  -1.827 +0.00 +0.02    -0.303 OA
DOCKED: ATOM     32  H   UNL d   1     -11.780  19.338  -1.564 +0.00 -0.01    +0.222 HD
DOCKED: ENDBRANCH  29  31
DOCKED: BRANCH  29  33
DOCKED: ATOM     33  O   UNL d   1      -9.420  17.076  -0.939 -0.02 +0.10    -0.303 OA
DOCKED: ATOM     34  H   UNL d   1      -8.869  16.930  -0.131 +0.04 -0.10    +0.222 HD
DOCKED: ENDBRANCH  29  33
DOCKED: ENDBRANCH  28  29
DOCKED: ENDBRANCH   3  28
DOCKED: BRANCH   5  35
DOCKED: ATOM     35  O   UNL d   1     -10.777  15.461   3.415 -0.06 +0.05    -0.278 OA
DOCKED: BRANCH  35  36
DOCKED: ATOM     36  P   UNL d   1      -9.622  14.361   3.412 -0.20 -0.17    +0.473 P 
DOCKED: ATOM     37  O   UNL d   1      -8.894  14.194   2.116 -0.20 +0.11    -0.228 OA
DOCKED: BRANCH  36  38
DOCKED: ATOM     38  O   UNL d   1      -8.706  14.847   4.620 -0.12 +0.13    -0.303 OA
DOCKED: ATOM     39  H   UNL d   1      -9.114  14.564   5.467 -0.13 -0.09    +0.222 HD
DOCKED: ENDBRANCH  36  38
DOCKED: BRANCH  36  40
DOCKED: ATOM     40  O   UNL d   1     -10.370  13.082   3.989 -0.30 +0.13    -0.303 OA
DOCKED: ATOM     41  H   UNL d   1     -10.918  13.304   4.775 -0.33 -0.12    +0.222 HD
DOCKED: ENDBRANCH  36  40
DOCKED: ENDBRANCH  35  36
DOCKED: ENDBRANCH   5  35
DOCKED: BRANCH   4  42
DOCKED: ATOM     42  O   UNL d   1      -8.843  16.840   1.728 -0.06 +0.10    -0.278 OA
DOCKED: BRANCH  42  43
DOCKED: ATOM     43  P   UNL d   1      -7.638  17.875   1.871 -0.04 -0.21    +0.473 P 
DOCKED: ATOM     44  O   UNL d   1      -7.604  18.725   3.094 -0.02 +0.06    -0.228 OA
DOCKED: BRANCH  43  45
DOCKED: ATOM     45  O   UNL d   1      -6.357  16.948   1.688 -0.09 +0.26    -0.303 OA
DOCKED: ATOM     46  H   UNL d   1      -6.090  16.889   0.749 -0.43 -0.38    +0.222 HD
DOCKED: ENDBRANCH  43  45
DOCKED: BRANCH  43  47
DOCKED: ATOM     47  O   UNL d   1      -7.668  18.668   0.478 -0.04 +0.14    -0.303 OA
DOCKED: ATOM     48  H   UNL d   1      -8.488  18.439  -0.006 +0.02 -0.08    +0.222 HD
DOCKED: ENDBRANCH  43  47
DOCKED: ENDBRANCH  42  43
DOCKED: ENDBRANCH   4  42
DOCKED: TORSDOF 24
DOCKED: TER
DOCKED: ENDMDL
________________________________________________________________________________


	BEGINNING GENETIC ALGORITHM DOCKING 87 of 100
Run: 87 Seed: 1843516795 86075880 [ Run 87 of 100 GA/GALS ]
Beginning LAMARCKIAN GENETIC ALGORITHM (LGA), with a maximum of 25000000 energy evaluations.

Final-Value: -17.984


	FINAL GENETIC ALGORITHM DOCKED STATE
	_______________________________________________


Detailed state:  trans -11.742 9.719 -2.586 quatxyzw -0.499506 -0.177937 -0.148938 0.834656 center 0.035 0.082 -0.065 ntor 24 -35.3594 -24.3541 54.7565 54.4681 64.3078 -136.4483 -111.5283 -25.2956 81.2348 145.0675 30.6720 -107.4008 -167.7898 138.4620 122.2750 174.5407 91.4764 -80.3471 12.4399 -12.9508 -14.2574 10.9926 15.7277 -179.8671
State:	-11.742   9.719  -2.586  -0.907 -0.323 -0.270 66.840    -35.36  -24.35   54.76   54.47   64.31 -136.45 -111.53  -25.30   81.23  145.07   30.67 -107.40 -167.79  138.46  122.28  174.54   91.48  -80.35   12.44  -12.95  -14.26   10.99   15.73 -179.87

DOCKED: MODEL       87
DOCKED: USER    Run = 87
DOCKED: USER    DPF = D:/Protein_go_brrr/autodock/final/AncB/IHP/dock.dpf
DOCKED: USER  
DOCKED: USER    Estimated Free Energy of Binding    =   +2.70 kcal/mol  [=(1)+(2)+(3)-(4)]
DOCKED: USER    
DOCKED: USER    (1) Final Intermolecular Energy     =   -4.45 kcal/mol
DOCKED: USER        vdW + Hbond + desolv Energy     =   -4.43 kcal/mol
DOCKED: USER        Electrostatic Energy            =   -0.03 kcal/mol
DOCKED: USER    (2) Final Total Internal Energy     =  -13.53 kcal/mol
DOCKED: USER    (3) Torsional Free Energy           =   +7.16 kcal/mol
DOCKED: USER    (4) Unbound System's Energy  [=(2)] =  -13.53 kcal/mol
DOCKED: USER    
DOCKED: USER    
DOCKED: USER    NEWDPF move IHP_ideal_opt.pdbqt
DOCKED: USER    NEWDPF about 0.035000 0.082000 -0.065000
DOCKED: USER    NEWDPF tran0 -11.742306 9.718693 -2.586198
DOCKED: USER    NEWDPF quaternion0 -0.499506 -0.177937 -0.148938 0.834656
DOCKED: USER    NEWDPF axisangle0 -0.906919 -0.323068 -0.270417 66.839999
DOCKED: USER    NEWDPF quat0 -0.906919 -0.323068 -0.270417 66.839999
DOCKED: USER    NEWDPF dihe0 -35.36 -24.35 54.76 54.47 64.31 -136.45 -111.53 -25.30 81.23 145.07 30.67 -107.40 -167.79 138.46 122.28 174.54 91.48 -80.35 12.44 -12.95 -14.26 10.99 15.73 -179.87 
DOCKED: USER  keepresnum = 1 
DOCKED: USER  
DOCKED: REMARK  24 active torsions:
DOCKED: REMARK  status: ('A' for Active; 'I' for Inactive)
DOCKED: REMARK    1  A    between atoms: C_1  and  O_7 
DOCKED: REMARK    2  A    between atoms: C_2  and  O_12 
DOCKED: REMARK    3  A    between atoms: C_3  and  O_17 
DOCKED: REMARK    4  A    between atoms: C_4  and  O_22 
DOCKED: REMARK    5  A    between atoms: C_5  and  O_27 
DOCKED: REMARK    6  A    between atoms: C_6  and  O_32 
DOCKED: REMARK    7  A    between atoms: O_7  and  P_8 
DOCKED: REMARK    8  A    between atoms: P_8  and  O_10 
DOCKED: REMARK    9  A    between atoms: P_8  and  O_11 
DOCKED: REMARK   10  A    between atoms: O_12  and  P_13 
DOCKED: REMARK   11  A    between atoms: P_13  and  O_15 
DOCKED: REMARK   12  A    between atoms: P_13  and  O_16 
DOCKED: REMARK   13  A    between atoms: O_17  and  P_18 
DOCKED: REMARK   14  A    between atoms: P_18  and  O_20 
DOCKED: REMARK   15  A    between atoms: P_18  and  O_21 
DOCKED: REMARK   16  A    between atoms: O_22  and  P_23 
DOCKED: REMARK   17  A    between atoms: P_23  and  O_25 
DOCKED: REMARK   18  A    between atoms: P_23  and  O_26 
DOCKED: REMARK   19  A    between atoms: O_27  and  P_28 
DOCKED: REMARK   20  A    between atoms: P_28  and  O_30 
DOCKED: REMARK   21  A    between atoms: P_28  and  O_31 
DOCKED: REMARK   22  A    between atoms: O_32  and  P_33 
DOCKED: REMARK   23  A    between atoms: P_33  and  O_35 
DOCKED: REMARK   24  A    between atoms: P_33  and  O_36 
DOCKED: USER                              x       y       z     vdW  Elec       q    Type
DOCKED: USER                           _______ _______ _______ _____ _____    ______ ____
DOCKED: ROOT
DOCKED: ATOM      1  C   UNL d   1     -10.209   9.230  -3.213 -0.09 +0.04    +0.194 C 
DOCKED: ATOM      2  C   UNL d   1     -11.430   8.619  -3.903 -0.03 +0.04    +0.194 C 
DOCKED: ATOM      3  C   UNL d   1     -12.489   8.176  -2.891 -0.03 +0.05    +0.194 C 
DOCKED: ATOM      4  C   UNL d   1     -12.874   9.275  -1.903 -0.02 +0.03    +0.194 C 
DOCKED: ATOM      5  C   UNL d   1     -11.684   9.990  -1.277 -0.05 +0.02    +0.194 C 
DOCKED: ATOM      6  C   UNL d   1     -10.596  10.378  -2.281 -0.07 +0.02    +0.194 C 
DOCKED: ENDROOT
DOCKED: BRANCH   1   7
DOCKED: ATOM      7  O   UNL d   1      -9.351   9.770  -4.221 -0.11 -0.08    -0.278 OA
DOCKED: BRANCH   7   8
DOCKED: ATOM      8  P   UNL d   1      -7.957   9.043  -4.502 -0.14 +0.16    +0.473 P 
DOCKED: ATOM      9  O   UNL d   1      -6.748   9.858  -4.203 -0.36 -0.07    -0.228 OA
DOCKED: BRANCH   8  10
DOCKED: ATOM     10  O   UNL d   1      -8.039   7.703  -3.640 -0.28 -0.06    -0.303 OA
DOCKED: ATOM     11  H   UNL d   1      -7.325   7.096  -3.910 +0.06 +0.03    +0.222 HD
DOCKED: ENDBRANCH   8  10
DOCKED: BRANCH   8  12
DOCKED: ATOM     12  O   UNL d   1      -8.071   8.490  -5.987 -0.17 -0.13    -0.303 OA
DOCKED: ATOM     13  H   UNL d   1      -8.711   7.748  -6.074 +0.09 +0.07    +0.222 HD
DOCKED: ENDBRANCH   8  12
DOCKED: ENDBRANCH   7   8
DOCKED: ENDBRANCH   1   7
DOCKED: BRANCH   2  14
DOCKED: ATOM     14  O   UNL d   1     -12.011   9.596  -4.775 -0.00 -0.07    -0.278 OA
DOCKED: BRANCH  14  15
DOCKED: ATOM     15  P   UNL d   1     -12.053   9.230  -6.333 +0.01 +0.13    +0.473 P 
DOCKED: ATOM     16  O   UNL d   1     -12.353  10.350  -7.279 -0.01 -0.07    -0.228 OA
DOCKED: BRANCH  15  17
DOCKED: ATOM     17  O   UNL d   1     -10.639   8.550  -6.610 -0.03 -0.10    -0.303 OA
DOCKED: ATOM     18  H   UNL d   1      -9.924   9.024  -6.143 +0.06 +0.09    +0.222 HD
DOCKED: ENDBRANCH  15  17
DOCKED: BRANCH  15  19
DOCKED: ATOM     19  O   UNL d   1     -13.031   7.978  -6.421 +0.00 -0.07    -0.303 OA
DOCKED: ATOM     20  H   UNL d   1     -13.307   7.674  -5.536 +0.02 +0.06    +0.222 HD
DOCKED: ENDBRANCH  15  19
DOCKED: ENDBRANCH  14  15
DOCKED: ENDBRANCH   2  14
DOCKED: BRANCH   6  21
DOCKED: ATOM     21  O   UNL d   1      -9.435  10.710  -1.522 -0.17 -0.02    -0.278 OA
DOCKED: BRANCH  21  22
DOCKED: ATOM     22  P   UNL d   1      -8.854  12.195  -1.573 -0.16 -0.05    +0.473 P 
DOCKED: ATOM     23  O   UNL d   1      -8.099  12.698  -0.389 -0.68 +0.05    -0.228 OA
DOCKED: BRANCH  22  24
DOCKED: ATOM     24  O   UNL d   1      -8.026  12.175  -2.932 -0.26 +0.03    -0.303 OA
DOCKED: ATOM     25  H   UNL d   1      -8.090  11.264  -3.318 +0.10 +0.03    +0.222 HD
DOCKED: ENDBRANCH  22  24
DOCKED: BRANCH  22  26
DOCKED: ATOM     26  O   UNL d   1     -10.153  13.039  -1.989 -0.03 +0.02    -0.303 OA
DOCKED: ATOM     27  H   UNL d   1     -10.899  12.789  -1.407 +0.05 -0.01    +0.222 HD
DOCKED: ENDBRANCH  22  26
DOCKED: ENDBRANCH  21  22
DOCKED: ENDBRANCH   6  21
DOCKED: BRANCH   3  28
DOCKED: ATOM     28  O   UNL d   1     -13.678   7.887  -3.615 -0.01 -0.09    -0.278 OA
DOCKED: BRANCH  28  29
DOCKED: ATOM     29  P   UNL d   1     -14.338   6.439  -3.533 +0.02 +0.37    +0.473 P 
DOCKED: ATOM     30  O   UNL d   1     -15.817   6.401  -3.663 -0.45 -0.22    -0.228 OA
DOCKED: BRANCH  29  31
DOCKED: ATOM     31  O   UNL d   1     -13.491   5.682  -4.660 -0.10 -0.13    -0.303 OA
DOCKED: ATOM     32  H   UNL d   1     -13.628   6.143  -5.520 +0.04 +0.07    +0.222 HD
DOCKED: ENDBRANCH  29  31
DOCKED: BRANCH  29  33
DOCKED: ATOM     33  O   UNL d   1     -13.719   5.866  -2.183 -0.36 -0.29    -0.303 OA
DOCKED: ATOM     34  H   UNL d   1     -13.600   6.610  -1.543 +0.07 +0.13    +0.222 HD
DOCKED: ENDBRANCH  29  33
DOCKED: ENDBRANCH  28  29
DOCKED: ENDBRANCH   3  28
DOCKED: BRANCH   5  35
DOCKED: ATOM     35  O   UNL d   1     -12.203  11.202  -0.732 -0.01 -0.01    -0.278 OA
DOCKED: BRANCH  35  36
DOCKED: ATOM     36  P   UNL d   1     -11.583  11.814   0.604 -0.02 -0.04    +0.473 P 
DOCKED: ATOM     37  O   UNL d   1     -11.347  13.291   0.587 -0.04 +0.03    -0.228 OA
DOCKED: BRANCH  36  38
DOCKED: ATOM     38  O   UNL d   1     -12.632  11.332   1.701 -0.05 +0.02    -0.303 OA
DOCKED: ATOM     39  H   UNL d   1     -13.236  10.670   1.299 +0.05 +0.00    +0.222 HD
DOCKED: ENDBRANCH  36  38
DOCKED: BRANCH  36  40
DOCKED: ATOM     40  O   UNL d   1     -10.318  10.883   0.849 -0.16 +0.05    -0.303 OA
DOCKED: ATOM     41  H   UNL d   1      -9.481  11.331   0.595 -0.04 -0.05    +0.222 HD
DOCKED: ENDBRANCH  36  40
DOCKED: ENDBRANCH  35  36
DOCKED: ENDBRANCH   5  35
DOCKED: BRANCH   4  42
DOCKED: ATOM     42  O   UNL d   1     -13.593   8.642  -0.839 -0.03 -0.06    -0.278 OA
DOCKED: BRANCH  42  43
DOCKED: ATOM     43  P   UNL d   1     -12.806   7.672   0.153 +0.08 +0.14    +0.473 P 
DOCKED: ATOM     44  O   UNL d   1     -11.700   6.855  -0.420 -0.35 -0.06    -0.228 OA
DOCKED: BRANCH  43  45
DOCKED: ATOM     45  O   UNL d   1     -12.353   8.656   1.318 -0.30 -0.02    -0.303 OA
DOCKED: ATOM     46  H   UNL d   1     -12.026   9.506   0.962 +0.09 +0.00    +0.222 HD
DOCKED: ENDBRANCH  43  45
DOCKED: BRANCH  43  47
DOCKED: ATOM     47  O   UNL d   1     -13.981   6.844   0.863 -0.60 -0.12    -0.303 OA
DOCKED: ATOM     48  H   UNL d   1     -14.370   6.218   0.219 +0.07 +0.12    +0.222 HD
DOCKED: ENDBRANCH  43  47
DOCKED: ENDBRANCH  42  43
DOCKED: ENDBRANCH   4  42
DOCKED: TORSDOF 24
DOCKED: TER
DOCKED: ENDMDL
________________________________________________________________________________


	BEGINNING GENETIC ALGORITHM DOCKING 88 of 100
Run: 88 Seed: 551594523 457031582 [ Run 88 of 100 GA/GALS ]
Beginning LAMARCKIAN GENETIC ALGORITHM (LGA), with a maximum of 25000000 energy evaluations.

Final-Value: -17.844


	FINAL GENETIC ALGORITHM DOCKED STATE
	_______________________________________________


Detailed state:  trans 19.411 3.247 0.344 quatxyzw 0.613431 -0.677277 0.263679 -0.308984 center 0.035 0.082 -0.065 ntor 24 -147.7037 -19.9573 37.4494 34.7843 65.0495 -114.5558 -103.6574 32.9516 14.7912 14.9312 71.3137 105.0565 35.3114 159.3295 -65.4830 -137.6170 -180.0000 171.5532 -137.6697 -21.1940 -171.5945 -29.8762 -175.7777 22.2184
State:	 19.411   3.247   0.344   0.645 -0.712  0.277 -144.004   -147.70  -19.96   37.45   34.78   65.05 -114.56 -103.66   32.95   14.79   14.93   71.31  105.06   35.31  159.33  -65.48 -137.62 -180.00  171.55 -137.67  -21.19 -171.59  -29.88 -175.78   22.22

DOCKED: MODEL       88
DOCKED: USER    Run = 88
DOCKED: USER    DPF = D:/Protein_go_brrr/autodock/final/AncB/IHP/dock.dpf
DOCKED: USER  
DOCKED: USER    Estimated Free Energy of Binding    =   +3.09 kcal/mol  [=(1)+(2)+(3)-(4)]
DOCKED: USER    
DOCKED: USER    (1) Final Intermolecular Energy     =   -4.07 kcal/mol
DOCKED: USER        vdW + Hbond + desolv Energy     =   -3.94 kcal/mol
DOCKED: USER        Electrostatic Energy            =   -0.13 kcal/mol
DOCKED: USER    (2) Final Total Internal Energy     =  -13.78 kcal/mol
DOCKED: USER    (3) Torsional Free Energy           =   +7.16 kcal/mol
DOCKED: USER    (4) Unbound System's Energy  [=(2)] =  -13.78 kcal/mol
DOCKED: USER    
DOCKED: USER    
DOCKED: USER    NEWDPF move IHP_ideal_opt.pdbqt
DOCKED: USER    NEWDPF about 0.035000 0.082000 -0.065000
DOCKED: USER    NEWDPF tran0 19.411129 3.246844 0.344327
DOCKED: USER    NEWDPF quaternion0 0.613431 -0.677277 0.263679 -0.308984
DOCKED: USER    NEWDPF axisangle0 0.644992 -0.712124 0.277245 -144.003916
DOCKED: USER    NEWDPF quat0 0.644992 -0.712124 0.277245 -144.003916
DOCKED: USER    NEWDPF dihe0 -147.70 -19.96 37.45 34.78 65.05 -114.56 -103.66 32.95 14.79 14.93 71.31 105.06 35.31 159.33 -65.48 -137.62 -180.00 171.55 -137.67 -21.19 -171.59 -29.88 -175.78 22.22 
DOCKED: USER  keepresnum = 1 
DOCKED: USER  
DOCKED: REMARK  24 active torsions:
DOCKED: REMARK  status: ('A' for Active; 'I' for Inactive)
DOCKED: REMARK    1  A    between atoms: C_1  and  O_7 
DOCKED: REMARK    2  A    between atoms: C_2  and  O_12 
DOCKED: REMARK    3  A    between atoms: C_3  and  O_17 
DOCKED: REMARK    4  A    between atoms: C_4  and  O_22 
DOCKED: REMARK    5  A    between atoms: C_5  and  O_27 
DOCKED: REMARK    6  A    between atoms: C_6  and  O_32 
DOCKED: REMARK    7  A    between atoms: O_7  and  P_8 
DOCKED: REMARK    8  A    between atoms: P_8  and  O_10 
DOCKED: REMARK    9  A    between atoms: P_8  and  O_11 
DOCKED: REMARK   10  A    between atoms: O_12  and  P_13 
DOCKED: REMARK   11  A    between atoms: P_13  and  O_15 
DOCKED: REMARK   12  A    between atoms: P_13  and  O_16 
DOCKED: REMARK   13  A    between atoms: O_17  and  P_18 
DOCKED: REMARK   14  A    between atoms: P_18  and  O_20 
DOCKED: REMARK   15  A    between atoms: P_18  and  O_21 
DOCKED: REMARK   16  A    between atoms: O_22  and  P_23 
DOCKED: REMARK   17  A    between atoms: P_23  and  O_25 
DOCKED: REMARK   18  A    between atoms: P_23  and  O_26 
DOCKED: REMARK   19  A    between atoms: O_27  and  P_28 
DOCKED: REMARK   20  A    between atoms: P_28  and  O_30 
DOCKED: REMARK   21  A    between atoms: P_28  and  O_31 
DOCKED: REMARK   22  A    between atoms: O_32  and  P_33 
DOCKED: REMARK   23  A    between atoms: P_33  and  O_35 
DOCKED: REMARK   24  A    between atoms: P_33  and  O_36 
DOCKED: USER                              x       y       z     vdW  Elec       q    Type
DOCKED: USER                           _______ _______ _______ _____ _____    ______ ____
DOCKED: ROOT
DOCKED: ATOM      1  C   UNL d   1      20.148   1.731   0.725 -0.07 +0.01    +0.194 C 
DOCKED: ATOM      2  C   UNL d   1      21.052   2.749   0.028 -0.04 +0.02    +0.194 C 
DOCKED: ATOM      3  C   UNL d   1      20.330   3.458  -1.119 -0.09 +0.02    +0.194 C 
DOCKED: ATOM      4  C   UNL d   1      18.991   4.064  -0.704 -0.19 +0.01    +0.194 C 
DOCKED: ATOM      5  C   UNL d   1      18.103   3.118   0.094 -0.27 -0.01    +0.194 C 
DOCKED: ATOM      6  C   UNL d   1      18.840   2.363   1.202 -0.17 +0.00    +0.194 C 
DOCKED: ENDROOT
DOCKED: BRANCH   1   7
DOCKED: ATOM      7  O   UNL d   1      20.832   1.244   1.881 -0.01 -0.02    -0.278 OA
DOCKED: BRANCH   7   8
DOCKED: ATOM      8  P   UNL d   1      20.451   1.860   3.305 -0.00 +0.03    +0.473 P 
DOCKED: ATOM      9  O   UNL d   1      19.310   1.197   3.994 -0.03 -0.01    -0.228 OA
DOCKED: BRANCH   8  10
DOCKED: ATOM     10  O   UNL d   1      21.812   1.789   4.134 -0.00 -0.02    -0.303 OA
DOCKED: ATOM     11  H   UNL d   1      22.522   2.238   3.637 +0.00 +0.02    +0.222 HD
DOCKED: ENDBRANCH   8  10
DOCKED: BRANCH   8  12
DOCKED: ATOM     12  O   UNL d   1      20.297   3.421   3.052 -0.01 -0.02    -0.303 OA
DOCKED: ATOM     13  H   UNL d   1      21.141   3.854   2.791 +0.01 +0.02    +0.222 HD
DOCKED: ENDBRANCH   8  12
DOCKED: ENDBRANCH   7   8
DOCKED: ENDBRANCH   1   7
DOCKED: BRANCH   2  14
DOCKED: ATOM     14  O   UNL d   1      21.469   3.734   0.983 -0.01 -0.02    -0.278 OA
DOCKED: BRANCH  14  15
DOCKED: ATOM     15  P   UNL d   1      23.012   3.712   1.407 +0.00 +0.04    +0.473 P 
DOCKED: ATOM     16  O   UNL d   1      23.325   4.071   2.826 +0.00 -0.02    -0.228 OA
DOCKED: BRANCH  15  17
DOCKED: ATOM     17  O   UNL d   1      23.500   2.245   1.020 -0.00 -0.03    -0.303 OA
DOCKED: ATOM     18  H   UNL d   1      22.971   1.566   1.480 +0.00 +0.02    +0.222 HD
DOCKED: ENDBRANCH  15  17
DOCKED: BRANCH  15  19
DOCKED: ATOM     19  O   UNL d   1      23.741   4.593   0.301 -0.00 -0.03    -0.303 OA
DOCKED: ATOM     20  H   UNL d   1      23.239   4.609  -0.535 +0.00 +0.02    +0.222 HD
DOCKED: ENDBRANCH  15  19
DOCKED: ENDBRANCH  14  15
DOCKED: ENDBRANCH   2  14
DOCKED: BRANCH   6  21
DOCKED: ATOM     21  O   UNL d   1      17.986   1.298   1.613 -0.17 +0.03    -0.278 OA
DOCKED: BRANCH  21  22
DOCKED: ATOM     22  P   UNL d   1      18.023  -0.092   0.832 -0.16 -0.01    +0.473 P 
DOCKED: ATOM     23  O   UNL d   1      18.252  -0.067  -0.641 -0.28 -0.02    -0.228 OA
DOCKED: BRANCH  22  24
DOCKED: ATOM     24  O   UNL d   1      19.110  -0.904   1.663 -0.07 -0.02    -0.303 OA
DOCKED: ATOM     25  H   UNL d   1      19.446  -0.317   2.388 +0.05 +0.01    +0.222 HD
DOCKED: ENDBRANCH  22  24
DOCKED: BRANCH  22  26
DOCKED: ATOM     26  O   UNL d   1      16.656  -0.776   1.319 -0.30 +0.02    -0.303 OA
DOCKED: ATOM     27  H   UNL d   1      15.899  -0.309   0.910 -0.43 -0.07    +0.222 HD
DOCKED: ENDBRANCH  22  26
DOCKED: ENDBRANCH  21  22
DOCKED: ENDBRANCH   6  21
DOCKED: BRANCH   3  28
DOCKED: ATOM     28  O   UNL d   1      21.135   4.560  -1.518 -0.02 -0.04    -0.278 OA
DOCKED: BRANCH  28  29
DOCKED: ATOM     29  P   UNL d   1      22.382   4.337  -2.483 -0.00 +0.07    +0.473 P 
DOCKED: ATOM     30  O   UNL d   1      23.362   5.453  -2.531 -0.00 -0.03    -0.228 OA
DOCKED: BRANCH  29  31
DOCKED: ATOM     31  O   UNL d   1      22.911   2.929  -1.936 -0.01 -0.04    -0.303 OA
DOCKED: ATOM     32  H   UNL d   1      23.026   2.995  -0.960 +0.01 +0.03    +0.222 HD
DOCKED: ENDBRANCH  29  31
DOCKED: BRANCH  29  33
DOCKED: ATOM     33  O   UNL d   1      21.677   3.939  -3.854 -0.02 -0.07    -0.303 OA
DOCKED: ATOM     34  H   UNL d   1      21.535   4.757  -4.391 +0.02 +0.06    +0.222 HD
DOCKED: ENDBRANCH  29  33
DOCKED: ENDBRANCH  28  29
DOCKED: ENDBRANCH   3  28
DOCKED: BRANCH   5  35
DOCKED: ATOM     35  O   UNL d   1      17.127   3.944   0.726 -0.22 +0.04    -0.278 OA
DOCKED: BRANCH  35  36
DOCKED: ATOM     36  P   UNL d   1      17.565   5.297   1.449 -0.19 +0.01    +0.473 P 
DOCKED: ATOM     37  O   UNL d   1      16.946   5.541   2.789 -0.19 -0.03    -0.228 OA
DOCKED: BRANCH  36  38
DOCKED: ATOM     38  O   UNL d   1      19.151   5.153   1.477 -0.05 -0.02    -0.303 OA
DOCKED: ATOM     39  H   UNL d   1      19.389   4.308   1.917 +0.04 +0.01    +0.222 HD
DOCKED: ENDBRANCH  36  38
DOCKED: BRANCH  36  40
DOCKED: ATOM     40  O   UNL d   1      17.299   6.387   0.322 -0.15 +0.00    -0.303 OA
DOCKED: ATOM     41  H   UNL d   1      17.362   6.001  -0.580 -0.27 -0.04    +0.222 HD
DOCKED: ENDBRANCH  36  40
DOCKED: ENDBRANCH  35  36
DOCKED: ENDBRANCH   5  35
DOCKED: BRANCH   4  42
DOCKED: ATOM     42  O   UNL d   1      18.289   4.384  -1.910 -0.19 -0.01    -0.278 OA
DOCKED: BRANCH  42  43
DOCKED: ATOM     43  P   UNL d   1      18.508   5.818  -2.572 -0.12 +0.08    +0.473 P 
DOCKED: ATOM     44  O   UNL d   1      17.325   6.474  -3.197 -0.29 -0.07    -0.228 OA
DOCKED: BRANCH  43  45
DOCKED: ATOM     45  O   UNL d   1      19.165   6.653  -1.387 -0.07 -0.04    -0.303 OA
DOCKED: ATOM     46  H   UNL d   1      19.244   6.117  -0.573 +0.05 +0.02    +0.222 HD
DOCKED: ENDBRANCH  43  45
DOCKED: BRANCH  43  47
DOCKED: ATOM     47  O   UNL d   1      19.763   5.587  -3.542 -0.05 -0.09    -0.303 OA
DOCKED: ATOM     48  H   UNL d   1      20.582   5.548  -3.007 +0.04 +0.05    +0.222 HD
DOCKED: ENDBRANCH  43  47
DOCKED: ENDBRANCH  42  43
DOCKED: ENDBRANCH   4  42
DOCKED: TORSDOF 24
DOCKED: TER
DOCKED: ENDMDL
________________________________________________________________________________


	BEGINNING GENETIC ALGORITHM DOCKING 89 of 100
Run: 89 Seed: 2059071110 2054029932 [ Run 89 of 100 GA/GALS ]
Beginning LAMARCKIAN GENETIC ALGORITHM (LGA), with a maximum of 25000000 energy evaluations.

Final-Value: -17.673


	FINAL GENETIC ALGORITHM DOCKED STATE
	_______________________________________________


Detailed state:  trans -7.334 -15.331 -18.231 quatxyzw -0.857121 -0.486181 -0.029518 0.167631 center 0.035 0.082 -0.065 ntor 24 -163.2221 157.6379 85.6346 106.9824 -179.9723 118.3132 -137.7800 -26.2272 41.6758 105.2330 33.8558 146.0770 43.3411 -82.3564 -159.4677 61.7244 -21.9768 161.0587 -139.8647 -27.2555 18.1295 -17.8107 -34.1281 7.5360
State:	 -7.334 -15.331 -18.231  -0.869 -0.493 -0.030 160.700   -163.22  157.64   85.63  106.98 -179.97  118.31 -137.78  -26.23   41.68  105.23   33.86  146.08   43.34  -82.36 -159.47   61.72  -21.98  161.06 -139.86  -27.26   18.13  -17.81  -34.13    7.54

DOCKED: MODEL       89
DOCKED: USER    Run = 89
DOCKED: USER    DPF = D:/Protein_go_brrr/autodock/final/AncB/IHP/dock.dpf
DOCKED: USER  
DOCKED: USER    Estimated Free Energy of Binding    =   +3.86 kcal/mol  [=(1)+(2)+(3)-(4)]
DOCKED: USER    
DOCKED: USER    (1) Final Intermolecular Energy     =   -3.30 kcal/mol
DOCKED: USER        vdW + Hbond + desolv Energy     =   -2.41 kcal/mol
DOCKED: USER        Electrostatic Energy            =   -0.89 kcal/mol
DOCKED: USER    (2) Final Total Internal Energy     =  -14.37 kcal/mol
DOCKED: USER    (3) Torsional Free Energy           =   +7.16 kcal/mol
DOCKED: USER    (4) Unbound System's Energy  [=(2)] =  -14.37 kcal/mol
DOCKED: USER    
DOCKED: USER    
DOCKED: USER    NEWDPF move IHP_ideal_opt.pdbqt
DOCKED: USER    NEWDPF about 0.035000 0.082000 -0.065000
DOCKED: USER    NEWDPF tran0 -7.334394 -15.331256 -18.231413
DOCKED: USER    NEWDPF quaternion0 -0.857121 -0.486181 -0.029518 0.167631
DOCKED: USER    NEWDPF axisangle0 -0.869423 -0.493160 -0.029941 160.699735
DOCKED: USER    NEWDPF quat0 -0.869423 -0.493160 -0.029941 160.699735
DOCKED: USER    NEWDPF dihe0 -163.22 157.64 85.63 106.98 -179.97 118.31 -137.78 -26.23 41.68 105.23 33.86 146.08 43.34 -82.36 -159.47 61.72 -21.98 161.06 -139.86 -27.26 18.13 -17.81 -34.13 7.54 
DOCKED: USER  keepresnum = 1 
DOCKED: USER  
DOCKED: REMARK  24 active torsions:
DOCKED: REMARK  status: ('A' for Active; 'I' for Inactive)
DOCKED: REMARK    1  A    between atoms: C_1  and  O_7 
DOCKED: REMARK    2  A    between atoms: C_2  and  O_12 
DOCKED: REMARK    3  A    between atoms: C_3  and  O_17 
DOCKED: REMARK    4  A    between atoms: C_4  and  O_22 
DOCKED: REMARK    5  A    between atoms: C_5  and  O_27 
DOCKED: REMARK    6  A    between atoms: C_6  and  O_32 
DOCKED: REMARK    7  A    between atoms: O_7  and  P_8 
DOCKED: REMARK    8  A    between atoms: P_8  and  O_10 
DOCKED: REMARK    9  A    between atoms: P_8  and  O_11 
DOCKED: REMARK   10  A    between atoms: O_12  and  P_13 
DOCKED: REMARK   11  A    between atoms: P_13  and  O_15 
DOCKED: REMARK   12  A    between atoms: P_13  and  O_16 
DOCKED: REMARK   13  A    between atoms: O_17  and  P_18 
DOCKED: REMARK   14  A    between atoms: P_18  and  O_20 
DOCKED: REMARK   15  A    between atoms: P_18  and  O_21 
DOCKED: REMARK   16  A    between atoms: O_22  and  P_23 
DOCKED: REMARK   17  A    between atoms: P_23  and  O_25 
DOCKED: REMARK   18  A    between atoms: P_23  and  O_26 
DOCKED: REMARK   19  A    between atoms: O_27  and  P_28 
DOCKED: REMARK   20  A    between atoms: P_28  and  O_30 
DOCKED: REMARK   21  A    between atoms: P_28  and  O_31 
DOCKED: REMARK   22  A    between atoms: O_32  and  P_33 
DOCKED: REMARK   23  A    between atoms: P_33  and  O_35 
DOCKED: REMARK   24  A    between atoms: P_33  and  O_36 
DOCKED: USER                              x       y       z     vdW  Elec       q    Type
DOCKED: USER                           _______ _______ _______ _____ _____    ______ ____
DOCKED: ROOT
DOCKED: ATOM      1  C   UNL d   1      -7.238 -14.061 -19.398 +0.00 +0.00    +0.194 C 
DOCKED: ATOM      2  C   UNL d   1      -8.635 -14.639 -19.164 +0.01 +0.00    +0.194 C 
DOCKED: ATOM      3  C   UNL d   1      -8.608 -16.166 -19.074 +0.01 -0.00    +0.194 C 
DOCKED: ATOM      4  C   UNL d   1      -7.590 -16.692 -18.065 +0.00 -0.03    +0.194 C 
DOCKED: ATOM      5  C   UNL d   1      -6.210 -16.057 -18.188 -0.02 -0.06    +0.194 C 
DOCKED: ATOM      6  C   UNL d   1      -6.241 -14.534 -18.340 -0.03 -0.06    +0.194 C 
DOCKED: ENDROOT
DOCKED: BRANCH   1   7
DOCKED: ATOM      7  O   UNL d   1      -7.322 -12.637 -19.297 -0.01 -0.06    -0.278 OA
DOCKED: BRANCH   7   8
DOCKED: ATOM      8  P   UNL d   1      -6.923 -11.949 -17.912 -0.06 +0.08    +0.473 P 
DOCKED: ATOM      9  O   UNL d   1      -5.517 -11.468 -17.829 -0.29 -0.20    -0.228 OA
DOCKED: BRANCH   8  10
DOCKED: ATOM     10  O   UNL d   1      -7.997 -10.784 -17.735 -0.03 -0.12    -0.303 OA
DOCKED: ATOM     11  H   UNL d   1      -8.871 -11.096 -18.037 +0.02 +0.06    +0.222 HD
DOCKED: ENDBRANCH   8  10
DOCKED: BRANCH   8  12
DOCKED: ATOM     12  O   UNL d   1      -7.368 -12.985 -16.793 -0.05 +0.23    -0.303 OA
DOCKED: ATOM     13  H   UNL d   1      -6.608 -13.385 -16.313 -0.50 -0.43    +0.222 HD
DOCKED: ENDBRANCH   8  12
DOCKED: ENDBRANCH   7   8
DOCKED: ENDBRANCH   1   7
DOCKED: BRANCH   2  14
DOCKED: ATOM     14  O   UNL d   1      -9.156 -14.119 -17.935 -0.00 +0.02    -0.278 OA
DOCKED: BRANCH  14  15
DOCKED: ATOM     15  P   UNL d   1     -10.272 -12.976 -18.058 +0.02 +0.05    +0.473 P 
DOCKED: ATOM     16  O   UNL d   1     -10.238 -12.134 -19.294 +0.00 -0.04    -0.228 OA
DOCKED: BRANCH  15  17
DOCKED: ATOM     17  O   UNL d   1     -11.648 -13.759 -17.881 +0.00 -0.04    -0.303 OA
DOCKED: ATOM     18  H   UNL d   1     -11.509 -14.725 -17.904 +0.00 +0.02    +0.222 HD
DOCKED: ENDBRANCH  15  17
DOCKED: BRANCH  15  19
DOCKED: ATOM     19  O   UNL d   1     -10.178 -12.181 -16.683 -0.01 -0.03    -0.303 OA
DOCKED: ATOM     20  H   UNL d   1      -9.255 -11.964 -16.455 +0.03 -0.02    +0.222 HD
DOCKED: ENDBRANCH  15  19
DOCKED: ENDBRANCH  14  15
DOCKED: ENDBRANCH   2  14
DOCKED: BRANCH   6  21
DOCKED: ATOM     21  O   UNL d   1      -4.944 -14.138 -18.781 -0.03 +0.05    -0.278 OA
DOCKED: BRANCH  21  22
DOCKED: ATOM     22  P   UNL d   1      -3.779 -13.913 -17.714 -0.08 -0.30    +0.473 P 
DOCKED: ATOM     23  O   UNL d   1      -3.009 -12.637 -17.771 -0.19 +0.01    -0.228 OA
DOCKED: BRANCH  22  24
DOCKED: ATOM     24  O   UNL d   1      -4.541 -14.172 -16.341 +0.00 +0.57    -0.303 OA
DOCKED: ATOM     25  H   UNL d   1      -4.163 -14.989 -15.928 -0.53 -0.58    +0.222 HD
DOCKED: ENDBRANCH  22  24
DOCKED: BRANCH  22  26
DOCKED: ATOM     26  O   UNL d   1      -2.924 -15.259 -17.877 -0.08 +0.23    -0.303 OA
DOCKED: ATOM     27  H   UNL d   1      -3.509 -16.031 -17.738 +0.02 -0.16    +0.222 HD
DOCKED: ENDBRANCH  22  26
DOCKED: ENDBRANCH  21  22
DOCKED: ENDBRANCH   6  21
DOCKED: BRANCH   3  28
DOCKED: ATOM     28  O   UNL d   1      -9.875 -16.589 -18.586 +0.00 -0.00    -0.278 OA
DOCKED: BRANCH  28  29
DOCKED: ATOM     29  P   UNL d   1     -11.040 -16.977 -19.601 +0.00 +0.04    +0.473 P 
DOCKED: ATOM     30  O   UNL d   1     -10.603 -17.656 -20.848 +0.00 -0.02    -0.228 OA
DOCKED: BRANCH  29  31
DOCKED: ATOM     31  O   UNL d   1     -12.000 -17.802 -18.623 +0.00 -0.03    -0.303 OA
DOCKED: ATOM     32  H   UNL d   1     -11.696 -18.739 -18.602 +0.00 +0.02    +0.222 HD
DOCKED: ENDBRANCH  29  31
DOCKED: BRANCH  29  33
DOCKED: ATOM     33  O   UNL d   1     -11.812 -15.594 -19.768 +0.00 -0.03    -0.303 OA
DOCKED: ATOM     34  H   UNL d   1     -11.161 -14.853 -19.698 +0.00 +0.02    +0.222 HD
DOCKED: ENDBRANCH  29  33
DOCKED: ENDBRANCH  28  29
DOCKED: ENDBRANCH   3  28
DOCKED: BRANCH   5  35
DOCKED: ATOM     35  O   UNL d   1      -5.542 -16.343 -16.961 -0.06 +0.19    -0.278 OA
DOCKED: BRANCH  35  36
DOCKED: ATOM     36  P   UNL d   1      -4.553 -17.590 -16.856 -0.04 -0.26    +0.473 P 
DOCKED: ATOM     37  O   UNL d   1      -3.986 -18.074 -18.152 -0.01 +0.06    -0.228 OA
DOCKED: BRANCH  36  38
DOCKED: ATOM     38  O   UNL d   1      -3.464 -17.056 -15.824 -0.08 +0.44    -0.303 OA
DOCKED: ATOM     39  H   UNL d   1      -3.406 -16.078 -15.895 -0.46 -0.57    +0.222 HD
DOCKED: ENDBRANCH  36  38
DOCKED: BRANCH  36  40
DOCKED: ATOM     40  O   UNL d   1      -5.406 -18.630 -16.008 -0.01 +0.10    -0.303 OA
DOCKED: ATOM     41  H   UNL d   1      -6.220 -18.908 -16.484 +0.01 -0.04    +0.222 HD
DOCKED: ENDBRANCH  36  40
DOCKED: ENDBRANCH  35  36
DOCKED: ENDBRANCH   5  35
DOCKED: BRANCH   4  42
DOCKED: ATOM     42  O   UNL d   1      -7.434 -18.091 -18.324 +0.00 +0.02    -0.278 OA
DOCKED: BRANCH  42  43
DOCKED: ATOM     43  P   UNL d   1      -8.136 -19.139 -17.348 +0.01 -0.02    +0.473 P 
DOCKED: ATOM     44  O   UNL d   1      -7.516 -20.488 -17.228 +0.00 +0.00    -0.228 OA
DOCKED: BRANCH  43  45
DOCKED: ATOM     45  O   UNL d   1      -8.219 -18.337 -15.976 +0.00 +0.03    -0.303 OA
DOCKED: ATOM     46  H   UNL d   1      -7.411 -17.806 -15.822 +0.02 -0.06    +0.222 HD
DOCKED: ENDBRANCH  43  45
DOCKED: BRANCH  43  47
DOCKED: ATOM     47  O   UNL d   1      -9.665 -19.120 -17.829 +0.00 -0.01    -0.303 OA
DOCKED: ATOM     48  H   UNL d   1      -9.903 -18.213 -18.112 +0.00 +0.01    +0.222 HD
DOCKED: ENDBRANCH  43  47
DOCKED: ENDBRANCH  42  43
DOCKED: ENDBRANCH   4  42
DOCKED: TORSDOF 24
DOCKED: TER
DOCKED: ENDMDL
________________________________________________________________________________


	BEGINNING GENETIC ALGORITHM DOCKING 90 of 100
Run: 90 Seed: 2107663219 1620483050 [ Run 90 of 100 GA/GALS ]
Beginning LAMARCKIAN GENETIC ALGORITHM (LGA), with a maximum of 25000000 energy evaluations.

Final-Value: -17.504


	FINAL GENETIC ALGORITHM DOCKED STATE
	_______________________________________________


Detailed state:  trans -15.111 8.766 5.603 quatxyzw -0.419351 0.441173 0.310909 0.729964 center 0.035 0.082 -0.065 ntor 24 108.2632 59.0739 166.8496 154.5241 -10.2989 165.2267 -111.8585 -72.3375 74.1130 7.4547 139.0462 177.5564 142.5494 63.6086 171.7887 -136.2583 178.6889 13.4591 54.5684 23.2579 -179.9967 3.4713 24.0146 180.0000
State:	-15.111   8.766   5.603  -0.614  0.645  0.455 86.233    108.26   59.07  166.85  154.52  -10.30  165.23 -111.86  -72.34   74.11    7.45  139.05  177.56  142.55   63.61  171.79 -136.26  178.69   13.46   54.57   23.26 -180.00    3.47   24.01  180.00

DOCKED: MODEL       90
DOCKED: USER    Run = 90
DOCKED: USER    DPF = D:/Protein_go_brrr/autodock/final/AncB/IHP/dock.dpf
DOCKED: USER  
DOCKED: USER    Estimated Free Energy of Binding    =   +3.38 kcal/mol  [=(1)+(2)+(3)-(4)]
DOCKED: USER    
DOCKED: USER    (1) Final Intermolecular Energy     =   -3.78 kcal/mol
DOCKED: USER        vdW + Hbond + desolv Energy     =   -3.73 kcal/mol
DOCKED: USER        Electrostatic Energy            =   -0.05 kcal/mol
DOCKED: USER    (2) Final Total Internal Energy     =  -13.73 kcal/mol
DOCKED: USER    (3) Torsional Free Energy           =   +7.16 kcal/mol
DOCKED: USER    (4) Unbound System's Energy  [=(2)] =  -13.73 kcal/mol
DOCKED: USER    
DOCKED: USER    
DOCKED: USER    NEWDPF move IHP_ideal_opt.pdbqt
DOCKED: USER    NEWDPF about 0.035000 0.082000 -0.065000
DOCKED: USER    NEWDPF tran0 -15.111242 8.765771 5.603063
DOCKED: USER    NEWDPF quaternion0 -0.419351 0.441173 0.310909 0.729964
DOCKED: USER    NEWDPF axisangle0 -0.613547 0.645475 0.454886 86.233330
DOCKED: USER    NEWDPF quat0 -0.613547 0.645475 0.454886 86.233330
DOCKED: USER    NEWDPF dihe0 108.26 59.07 166.85 154.52 -10.30 165.23 -111.86 -72.34 74.11 7.45 139.05 177.56 142.55 63.61 171.79 -136.26 178.69 13.46 54.57 23.26 -180.00 3.47 24.01 180.00 
DOCKED: USER  keepresnum = 1 
DOCKED: USER  
DOCKED: REMARK  24 active torsions:
DOCKED: REMARK  status: ('A' for Active; 'I' for Inactive)
DOCKED: REMARK    1  A    between atoms: C_1  and  O_7 
DOCKED: REMARK    2  A    between atoms: C_2  and  O_12 
DOCKED: REMARK    3  A    between atoms: C_3  and  O_17 
DOCKED: REMARK    4  A    between atoms: C_4  and  O_22 
DOCKED: REMARK    5  A    between atoms: C_5  and  O_27 
DOCKED: REMARK    6  A    between atoms: C_6  and  O_32 
DOCKED: REMARK    7  A    between atoms: O_7  and  P_8 
DOCKED: REMARK    8  A    between atoms: P_8  and  O_10 
DOCKED: REMARK    9  A    between atoms: P_8  and  O_11 
DOCKED: REMARK   10  A    between atoms: O_12  and  P_13 
DOCKED: REMARK   11  A    between atoms: P_13  and  O_15 
DOCKED: REMARK   12  A    between atoms: P_13  and  O_16 
DOCKED: REMARK   13  A    between atoms: O_17  and  P_18 
DOCKED: REMARK   14  A    between atoms: P_18  and  O_20 
DOCKED: REMARK   15  A    between atoms: P_18  and  O_21 
DOCKED: REMARK   16  A    between atoms: O_22  and  P_23 
DOCKED: REMARK   17  A    between atoms: P_23  and  O_25 
DOCKED: REMARK   18  A    between atoms: P_23  and  O_26 
DOCKED: REMARK   19  A    between atoms: O_27  and  P_28 
DOCKED: REMARK   20  A    between atoms: P_28  and  O_30 
DOCKED: REMARK   21  A    between atoms: P_28  and  O_31 
DOCKED: REMARK   22  A    between atoms: O_32  and  P_33 
DOCKED: REMARK   23  A    between atoms: P_33  and  O_35 
DOCKED: REMARK   24  A    between atoms: P_33  and  O_36 
DOCKED: USER                              x       y       z     vdW  Elec       q    Type
DOCKED: USER                           _______ _______ _______ _____ _____    ______ ____
DOCKED: ROOT
DOCKED: ATOM      1  C   UNL d   1     -15.378   7.062   5.501 -0.15 +0.02    +0.194 C 
DOCKED: ATOM      2  C   UNL d   1     -15.633   7.849   4.214 -0.08 +0.02    +0.194 C 
DOCKED: ATOM      3  C   UNL d   1     -16.390   9.151   4.487 -0.03 +0.01    +0.194 C 
DOCKED: ATOM      4  C   UNL d   1     -15.741  10.009   5.569 -0.07 +0.01    +0.194 C 
DOCKED: ATOM      5  C   UNL d   1     -15.365   9.239   6.829 -0.11 +0.01    +0.194 C 
DOCKED: ATOM      6  C   UNL d   1     -14.662   7.908   6.555 -0.19 +0.01    +0.194 C 
DOCKED: ENDROOT
DOCKED: BRANCH   1   7
DOCKED: ATOM      7  O   UNL d   1     -14.525   5.959   5.188 -0.21 -0.03    -0.278 OA
DOCKED: BRANCH   7   8
DOCKED: ATOM      8  P   UNL d   1     -15.105   4.786   4.271 -0.15 +0.07    +0.473 P 
DOCKED: ATOM      9  O   UNL d   1     -14.297   3.537   4.258 -0.32 -0.03    -0.228 OA
DOCKED: BRANCH   8  10
DOCKED: ATOM     10  O   UNL d   1     -16.589   4.569   4.815 -0.06 -0.04    -0.303 OA
DOCKED: ATOM     11  H   UNL d   1     -16.571   4.480   5.786 +0.07 +0.03    +0.222 HD
DOCKED: ENDBRANCH   8  10
DOCKED: BRANCH   8  12
DOCKED: ATOM     12  O   UNL d   1     -15.365   5.459   2.855 -0.13 -0.07    -0.303 OA
DOCKED: ATOM     13  H   UNL d   1     -14.935   6.339   2.762 +0.08 +0.05    +0.222 HD
DOCKED: ENDBRANCH   8  12
DOCKED: ENDBRANCH   7   8
DOCKED: ENDBRANCH   1   7
DOCKED: BRANCH   2  14
DOCKED: ATOM     14  O   UNL d   1     -14.375   8.171   3.607 -0.14 -0.02    -0.278 OA
DOCKED: BRANCH  14  15
DOCKED: ATOM     15  P   UNL d   1     -14.386   8.416   2.025 -0.07 +0.07    +0.473 P 
DOCKED: ATOM     16  O   UNL d   1     -13.956   9.769   1.552 -0.05 -0.02    -0.228 OA
DOCKED: BRANCH  15  17
DOCKED: ATOM     17  O   UNL d   1     -13.479   7.242   1.445 -0.57 -0.11    -0.303 OA
DOCKED: ATOM     18  H   UNL d   1     -13.932   6.380   1.518 +0.08 +0.08    +0.222 HD
DOCKED: ENDBRANCH  15  17
DOCKED: BRANCH  15  19
DOCKED: ATOM     19  O   UNL d   1     -15.837   7.958   1.562 -0.02 -0.06    -0.303 OA
DOCKED: ATOM     20  H   UNL d   1     -16.456   8.710   1.518 +0.02 +0.04    +0.222 HD
DOCKED: ENDBRANCH  15  19
DOCKED: ENDBRANCH  14  15
DOCKED: ENDBRANCH   2  14
DOCKED: BRANCH   6  21
DOCKED: ATOM     21  O   UNL d   1     -14.689   7.169   7.774 -0.22 +0.00    -0.278 OA
DOCKED: BRANCH  21  22
DOCKED: ATOM     22  P   UNL d   1     -16.031   6.431   8.223 -0.11 +0.03    +0.473 P 
DOCKED: ATOM     23  O   UNL d   1     -16.205   6.103   9.667 -0.17 -0.01    -0.228 OA
DOCKED: BRANCH  22  24
DOCKED: ATOM     24  O   UNL d   1     -17.148   7.389   7.616 -0.02 -0.02    -0.303 OA
DOCKED: ATOM     25  H   UNL d   1     -17.212   8.191   8.194 +0.04 +0.01    +0.222 HD
DOCKED: ENDBRANCH  22  24
DOCKED: BRANCH  22  26
DOCKED: ATOM     26  O   UNL d   1     -16.074   5.189   7.210 -0.12 -0.03    -0.303 OA
DOCKED: ATOM     27  H   UNL d   1     -15.378   5.303   6.531 +0.09 +0.03    +0.222 HD
DOCKED: ENDBRANCH  22  26
DOCKED: ENDBRANCH  21  22
DOCKED: ENDBRANCH   6  21
DOCKED: BRANCH   3  28
DOCKED: ATOM     28  O   UNL d   1     -16.336   9.934   3.301 -0.01 -0.02    -0.278 OA
DOCKED: BRANCH  28  29
DOCKED: ATOM     29  P   UNL d   1     -17.665  10.246   2.481 +0.01 +0.04    +0.473 P 
DOCKED: ATOM     30  O   UNL d   1     -17.463  10.701   1.082 +0.00 -0.02    -0.228 OA
DOCKED: BRANCH  29  31
DOCKED: ATOM     31  O   UNL d   1     -18.453   8.869   2.691 +0.00 -0.03    -0.303 OA
DOCKED: ATOM     32  H   UNL d   1     -17.911   8.137   2.315 +0.01 +0.03    +0.222 HD
DOCKED: ENDBRANCH  29  31
DOCKED: BRANCH  29  33
DOCKED: ATOM     33  O   UNL d   1     -18.433  11.242   3.458 -0.00 -0.02    -0.303 OA
DOCKED: ATOM     34  H   UNL d   1     -18.002  11.217   4.347 +0.01 +0.01    +0.222 HD
DOCKED: ENDBRANCH  29  33
DOCKED: ENDBRANCH  28  29
DOCKED: ENDBRANCH   3  28
DOCKED: BRANCH   5  35
DOCKED: ATOM     35  O   UNL d   1     -14.437  10.068   7.526 -0.08 -0.03    -0.278 OA
DOCKED: BRANCH  35  36
DOCKED: ATOM     36  P   UNL d   1     -14.269   9.934   9.107 -0.17 +0.04    +0.473 P 
DOCKED: ATOM     37  O   UNL d   1     -14.177  11.225   9.857 -0.13 -0.03    -0.228 OA
DOCKED: BRANCH  36  38
DOCKED: ATOM     38  O   UNL d   1     -15.529   9.041   9.494 -0.07 -0.02    -0.303 OA
DOCKED: ATOM     39  H   UNL d   1     -16.000   8.777   8.675 +0.06 +0.01    +0.222 HD
DOCKED: ENDBRANCH  36  38
DOCKED: BRANCH  36  40
DOCKED: ATOM     40  O   UNL d   1     -13.038   8.936   9.235 -0.34 -0.01    -0.303 OA
DOCKED: ATOM     41  H   UNL d   1     -13.032   8.269   8.512 -0.39 -0.04    +0.222 HD
DOCKED: ENDBRANCH  36  40
DOCKED: ENDBRANCH  35  36
DOCKED: ENDBRANCH   5  35
DOCKED: BRANCH   4  42
DOCKED: ATOM     42  O   UNL d   1     -16.706  10.995   5.951 -0.02 -0.01    -0.278 OA
DOCKED: BRANCH  42  43
DOCKED: ATOM     43  P   UNL d   1     -18.013  10.531   6.739 +0.00 +0.02    +0.473 P 
DOCKED: ATOM     44  O   UNL d   1     -17.819   9.838   8.043 -0.01 -0.01    -0.228 OA
DOCKED: BRANCH  43  45
DOCKED: ATOM     45  O   UNL d   1     -18.858  11.875   6.836 -0.00 -0.01    -0.303 OA
DOCKED: ATOM     46  H   UNL d   1     -19.153  12.178   5.954 +0.00 +0.01    +0.222 HD
DOCKED: ENDBRANCH  43  45
DOCKED: BRANCH  43  47
DOCKED: ATOM     47  O   UNL d   1     -18.834   9.709   5.635 -0.00 -0.02    -0.303 OA
DOCKED: ATOM     48  H   UNL d   1     -18.359   9.755   4.779 +0.01 +0.02    +0.222 HD
DOCKED: ENDBRANCH  43  47
DOCKED: ENDBRANCH  42  43
DOCKED: ENDBRANCH   4  42
DOCKED: TORSDOF 24
DOCKED: TER
DOCKED: ENDMDL
________________________________________________________________________________


	BEGINNING GENETIC ALGORITHM DOCKING 91 of 100
Run: 91 Seed: 1104741771 884341121 [ Run 91 of 100 GA/GALS ]
Beginning LAMARCKIAN GENETIC ALGORITHM (LGA), with a maximum of 25000000 energy evaluations.

Final-Value: -17.221


	FINAL GENETIC ALGORITHM DOCKED STATE
	_______________________________________________


Detailed state:  trans 12.360 -9.390 3.181 quatxyzw -0.297346 0.529981 -0.493575 -0.622166 center 0.035 0.082 -0.065 ntor 24 -161.8974 40.7213 38.6610 12.3519 43.4020 -127.0025 47.0125 -95.3457 160.1802 -13.2498 128.9761 106.6224 29.3219 -179.9900 -12.1174 105.9956 -178.4240 96.7903 20.3071 -31.0843 -44.4611 -36.7729 30.6276 -49.2279
State:	 12.360  -9.390   3.181  -0.380  0.677 -0.630 -103.051   -161.90   40.72   38.66   12.35   43.40 -127.00   47.01  -95.35  160.18  -13.25  128.98  106.62   29.32 -179.99  -12.12  106.00 -178.42   96.79   20.31  -31.08  -44.46  -36.77   30.63  -49.23

DOCKED: MODEL       91
DOCKED: USER    Run = 91
DOCKED: USER    DPF = D:/Protein_go_brrr/autodock/final/AncB/IHP/dock.dpf
DOCKED: USER  
DOCKED: USER    Estimated Free Energy of Binding    =   +4.72 kcal/mol  [=(1)+(2)+(3)-(4)]
DOCKED: USER    
DOCKED: USER    (1) Final Intermolecular Energy     =   -2.44 kcal/mol
DOCKED: USER        vdW + Hbond + desolv Energy     =   -2.45 kcal/mol
DOCKED: USER        Electrostatic Energy            =   +0.01 kcal/mol
DOCKED: USER    (2) Final Total Internal Energy     =  -14.79 kcal/mol
DOCKED: USER    (3) Torsional Free Energy           =   +7.16 kcal/mol
DOCKED: USER    (4) Unbound System's Energy  [=(2)] =  -14.79 kcal/mol
DOCKED: USER    
DOCKED: USER    
DOCKED: USER    NEWDPF move IHP_ideal_opt.pdbqt
DOCKED: USER    NEWDPF about 0.035000 0.082000 -0.065000
DOCKED: USER    NEWDPF tran0 12.359701 -9.390081 3.180737
DOCKED: USER    NEWDPF quaternion0 -0.297346 0.529981 -0.493575 -0.622166
DOCKED: USER    NEWDPF axisangle0 -0.379808 0.676958 -0.630456 -103.051105
DOCKED: USER    NEWDPF quat0 -0.379808 0.676958 -0.630456 -103.051105
DOCKED: USER    NEWDPF dihe0 -161.90 40.72 38.66 12.35 43.40 -127.00 47.01 -95.35 160.18 -13.25 128.98 106.62 29.32 -179.99 -12.12 106.00 -178.42 96.79 20.31 -31.08 -44.46 -36.77 30.63 -49.23 
DOCKED: USER  keepresnum = 1 
DOCKED: USER  
DOCKED: REMARK  24 active torsions:
DOCKED: REMARK  status: ('A' for Active; 'I' for Inactive)
DOCKED: REMARK    1  A    between atoms: C_1  and  O_7 
DOCKED: REMARK    2  A    between atoms: C_2  and  O_12 
DOCKED: REMARK    3  A    between atoms: C_3  and  O_17 
DOCKED: REMARK    4  A    between atoms: C_4  and  O_22 
DOCKED: REMARK    5  A    between atoms: C_5  and  O_27 
DOCKED: REMARK    6  A    between atoms: C_6  and  O_32 
DOCKED: REMARK    7  A    between atoms: O_7  and  P_8 
DOCKED: REMARK    8  A    between atoms: P_8  and  O_10 
DOCKED: REMARK    9  A    between atoms: P_8  and  O_11 
DOCKED: REMARK   10  A    between atoms: O_12  and  P_13 
DOCKED: REMARK   11  A    between atoms: P_13  and  O_15 
DOCKED: REMARK   12  A    between atoms: P_13  and  O_16 
DOCKED: REMARK   13  A    between atoms: O_17  and  P_18 
DOCKED: REMARK   14  A    between atoms: P_18  and  O_20 
DOCKED: REMARK   15  A    between atoms: P_18  and  O_21 
DOCKED: REMARK   16  A    between atoms: O_22  and  P_23 
DOCKED: REMARK   17  A    between atoms: P_23  and  O_25 
DOCKED: REMARK   18  A    between atoms: P_23  and  O_26 
DOCKED: REMARK   19  A    between atoms: O_27  and  P_28 
DOCKED: REMARK   20  A    between atoms: P_28  and  O_30 
DOCKED: REMARK   21  A    between atoms: P_28  and  O_31 
DOCKED: REMARK   22  A    between atoms: O_32  and  P_33 
DOCKED: REMARK   23  A    between atoms: P_33  and  O_35 
DOCKED: REMARK   24  A    between atoms: P_33  and  O_36 
DOCKED: USER                              x       y       z     vdW  Elec       q    Type
DOCKED: USER                           _______ _______ _______ _____ _____    ______ ____
DOCKED: ROOT
DOCKED: ATOM      1  C   UNL d   1      12.787 -10.974   3.722 -0.05 -0.05    +0.194 C 
DOCKED: ATOM      2  C   UNL d   1      12.256 -10.028   4.800 -0.08 -0.06    +0.194 C 
DOCKED: ATOM      3  C   UNL d   1      12.850  -8.624   4.665 -0.09 -0.04    +0.194 C 
DOCKED: ATOM      4  C   UNL d   1      12.702  -8.041   3.262 -0.15 -0.06    +0.194 C 
DOCKED: ATOM      5  C   UNL d   1      13.113  -8.995   2.147 -0.10 -0.05    +0.194 C 
DOCKED: ATOM      6  C   UNL d   1      12.569 -10.415   2.315 -0.09 -0.07    +0.194 C 
DOCKED: ENDROOT
DOCKED: BRANCH   1   7
DOCKED: ATOM      7  O   UNL d   1      12.060 -12.202   3.810 -0.03 +0.07    -0.278 OA
DOCKED: BRANCH   7   8
DOCKED: ATOM      8  P   UNL d   1      12.764 -13.451   4.515 +0.01 -0.05    +0.473 P 
DOCKED: ATOM      9  O   UNL d   1      12.713 -13.447   6.002 +0.00 +0.01    -0.228 OA
DOCKED: BRANCH   8  10
DOCKED: ATOM     10  O   UNL d   1      12.044 -14.718   3.865 +0.00 +0.03    -0.303 OA
DOCKED: ATOM     11  H   UNL d   1      11.908 -14.564   2.912 +0.01 -0.03    +0.222 HD
DOCKED: ENDBRANCH   8  10
DOCKED: BRANCH   8  12
DOCKED: ATOM     12  O   UNL d   1      14.214 -13.527   3.870 +0.00 +0.02    -0.303 OA
DOCKED: ATOM     13  H   UNL d   1      14.352 -12.868   3.152 +0.01 -0.02    +0.222 HD
DOCKED: ENDBRANCH   8  12
DOCKED: ENDBRANCH   7   8
DOCKED: ENDBRANCH   1   7
DOCKED: BRANCH   2  14
DOCKED: ATOM     14  O   UNL d   1      10.831  -9.934   4.679 -0.15 +0.21    -0.278 OA
DOCKED: BRANCH  14  15
DOCKED: ATOM     15  P   UNL d   1       9.966 -10.810   5.703 -0.11 -0.18    +0.473 P 
DOCKED: ATOM     16  O   UNL d   1       8.971 -11.755   5.105 -0.11 +0.12    -0.228 OA
DOCKED: BRANCH  15  17
DOCKED: ATOM     17  O   UNL d   1      11.057 -11.548   6.599 -0.01 +0.04    -0.303 OA
DOCKED: ATOM     18  H   UNL d   1      11.667 -12.074   6.048 +0.02 -0.03    +0.222 HD
DOCKED: ENDBRANCH  15  17
DOCKED: BRANCH  15  19
DOCKED: ATOM     19  O   UNL d   1       9.373  -9.750   6.730 -0.14 +0.01    -0.303 OA
DOCKED: ATOM     20  H   UNL d   1      10.059  -9.134   7.048 +0.03 +0.02    +0.222 HD
DOCKED: ENDBRANCH  15  19
DOCKED: ENDBRANCH  14  15
DOCKED: ENDBRANCH   2  14
DOCKED: BRANCH   6  21
DOCKED: ATOM     21  O   UNL d   1      13.301 -11.246   1.417 -0.04 +0.07    -0.278 OA
DOCKED: BRANCH  21  22
DOCKED: ATOM     22  P   UNL d   1      12.583 -12.495   0.731 -0.02 -0.13    +0.473 P 
DOCKED: ATOM     23  O   UNL d   1      11.092 -12.530   0.716 -0.10 +0.10    -0.228 OA
DOCKED: BRANCH  22  24
DOCKED: ATOM     24  O   UNL d   1      13.266 -12.512  -0.707 -0.01 +0.09    -0.303 OA
DOCKED: ATOM     25  H   UNL d   1      13.614 -11.604  -0.894 +0.03 -0.07    +0.222 HD
DOCKED: ENDBRANCH  22  24
DOCKED: BRANCH  22  26
DOCKED: ATOM     26  O   UNL d   1      13.308 -13.726   1.457 -0.00 +0.04    -0.303 OA
DOCKED: ATOM     27  H   UNL d   1      13.164 -13.661   2.423 +0.01 -0.03    +0.222 HD
DOCKED: ENDBRANCH  22  26
DOCKED: ENDBRANCH  21  22
DOCKED: ENDBRANCH   6  21
DOCKED: BRANCH   3  28
DOCKED: ATOM     28  O   UNL d   1      12.105  -7.760   5.513 -0.11 +0.01    -0.278 OA
DOCKED: BRANCH  28  29
DOCKED: ATOM     29  P   UNL d   1      12.296  -7.822   7.093 -0.03 +0.03    +0.473 P 
DOCKED: ATOM     30  O   UNL d   1      13.488  -7.110   7.623 -0.01 -0.01    -0.228 OA
DOCKED: BRANCH  29  31
DOCKED: ATOM     31  O   UNL d   1      10.863  -7.292   7.569 -0.06 -0.09    -0.303 OA
DOCKED: ATOM     32  H   UNL d   1      10.302  -8.068   7.801 +0.03 +0.06    +0.222 HD
DOCKED: ENDBRANCH  29  31
DOCKED: BRANCH  29  33
DOCKED: ATOM     33  O   UNL d   1      12.205  -9.386   7.380 -0.01 +0.00    -0.303 OA
DOCKED: ATOM     34  H   UNL d   1      11.538  -9.786   6.770 +0.03 -0.02    +0.222 HD
DOCKED: ENDBRANCH  29  33
DOCKED: ENDBRANCH  28  29
DOCKED: ENDBRANCH   3  28
DOCKED: BRANCH   5  35
DOCKED: ATOM     35  O   UNL d   1      12.540  -8.465   0.954 -0.08 +0.08    -0.278 OA
DOCKED: BRANCH  35  36
DOCKED: ATOM     36  P   UNL d   1      13.097  -8.911  -0.473 -0.07 -0.15    +0.473 P 
DOCKED: ATOM     37  O   UNL d   1      13.331  -7.802  -1.450 -0.21 +0.06    -0.228 OA
DOCKED: BRANCH  36  38
DOCKED: ATOM     38  O   UNL d   1      14.409  -9.719  -0.073 -0.02 +0.05    -0.303 OA
DOCKED: ATOM     39  H   UNL d   1      14.178 -10.663   0.057 +0.03 -0.04    +0.222 HD
DOCKED: ENDBRANCH  36  38
DOCKED: BRANCH  36  40
DOCKED: ATOM     40  O   UNL d   1      12.066 -10.044  -0.901 -0.14 +0.18    -0.303 OA
DOCKED: ATOM     41  H   UNL d   1      11.997 -10.750  -0.220 +0.06 -0.11    +0.222 HD
DOCKED: ENDBRANCH  36  40
DOCKED: ENDBRANCH  35  36
DOCKED: ENDBRANCH   5  35
DOCKED: BRANCH   4  42
DOCKED: ATOM     42  O   UNL d   1      13.575  -6.909   3.190 -0.09 +0.03    -0.278 OA
DOCKED: BRANCH  42  43
DOCKED: ATOM     43  P   UNL d   1      13.322  -5.811   2.060 -0.17 -0.03    +0.473 P 
DOCKED: ATOM     44  O   UNL d   1      13.552  -4.385   2.424 -0.32 -0.01    -0.228 OA
DOCKED: BRANCH  43  45
DOCKED: ATOM     45  O   UNL d   1      14.227  -6.331   0.859 -0.17 +0.01    -0.303 OA
DOCKED: ATOM     46  H   UNL d   1      13.999  -7.249   0.610 +0.09 -0.02    +0.222 HD
DOCKED: ENDBRANCH  43  45
DOCKED: BRANCH  43  47
DOCKED: ATOM     47  O   UNL d   1      11.849  -6.161   1.532 -0.13 +0.07    -0.303 OA
DOCKED: ATOM     48  H   UNL d   1      11.888  -6.968   0.978 +0.12 -0.06    +0.222 HD
DOCKED: ENDBRANCH  43  47
DOCKED: ENDBRANCH  42  43
DOCKED: ENDBRANCH   4  42
DOCKED: TORSDOF 24
DOCKED: TER
DOCKED: ENDMDL
________________________________________________________________________________


	BEGINNING GENETIC ALGORITHM DOCKING 92 of 100
Run: 92 Seed: 228935992 938458449 [ Run 92 of 100 GA/GALS ]
Beginning LAMARCKIAN GENETIC ALGORITHM (LGA), with a maximum of 25000000 energy evaluations.

Final-Value: -18.405


	FINAL GENETIC ALGORITHM DOCKED STATE
	_______________________________________________


Detailed state:  trans 12.106 15.634 -16.730 quatxyzw 0.491536 0.558081 -0.309969 -0.592332 center 0.035 0.082 -0.065 ntor 24 117.1866 115.0792 127.5387 15.1308 163.1332 -138.5062 -95.3627 46.8958 1.0979 64.0851 139.5319 112.3851 -70.4006 30.5130 66.3154 -171.4116 -51.3654 -175.4583 -151.3079 -16.2222 12.5209 -6.9173 170.8508 13.9872
State:	 12.106  15.634 -16.730   0.610  0.693 -0.385 -107.355    117.19  115.08  127.54   15.13  163.13 -138.51  -95.36   46.90    1.10   64.09  139.53  112.39  -70.40   30.51   66.32 -171.41  -51.37 -175.46 -151.31  -16.22   12.52   -6.92  170.85   13.99

DOCKED: MODEL       92
DOCKED: USER    Run = 92
DOCKED: USER    DPF = D:/Protein_go_brrr/autodock/final/AncB/IHP/dock.dpf
DOCKED: USER  
DOCKED: USER    Estimated Free Energy of Binding    =   +4.19 kcal/mol  [=(1)+(2)+(3)-(4)]
DOCKED: USER    
DOCKED: USER    (1) Final Intermolecular Energy     =   -2.97 kcal/mol
DOCKED: USER        vdW + Hbond + desolv Energy     =   -2.90 kcal/mol
DOCKED: USER        Electrostatic Energy            =   -0.07 kcal/mol
DOCKED: USER    (2) Final Total Internal Energy     =  -15.43 kcal/mol
DOCKED: USER    (3) Torsional Free Energy           =   +7.16 kcal/mol
DOCKED: USER    (4) Unbound System's Energy  [=(2)] =  -15.43 kcal/mol
DOCKED: USER    
DOCKED: USER    
DOCKED: USER    NEWDPF move IHP_ideal_opt.pdbqt
DOCKED: USER    NEWDPF about 0.035000 0.082000 -0.065000
DOCKED: USER    NEWDPF tran0 12.106225 15.633578 -16.730240
DOCKED: USER    NEWDPF quaternion0 0.491536 0.558081 -0.309969 -0.592332
DOCKED: USER    NEWDPF axisangle0 0.610077 0.692672 -0.384723 -107.354625
DOCKED: USER    NEWDPF quat0 0.610077 0.692672 -0.384723 -107.354625
DOCKED: USER    NEWDPF dihe0 117.19 115.08 127.54 15.13 163.13 -138.51 -95.36 46.90 1.10 64.09 139.53 112.39 -70.40 30.51 66.32 -171.41 -51.37 -175.46 -151.31 -16.22 12.52 -6.92 170.85 13.99 
DOCKED: USER  keepresnum = 1 
DOCKED: USER  
DOCKED: REMARK  24 active torsions:
DOCKED: REMARK  status: ('A' for Active; 'I' for Inactive)
DOCKED: REMARK    1  A    between atoms: C_1  and  O_7 
DOCKED: REMARK    2  A    between atoms: C_2  and  O_12 
DOCKED: REMARK    3  A    between atoms: C_3  and  O_17 
DOCKED: REMARK    4  A    between atoms: C_4  and  O_22 
DOCKED: REMARK    5  A    between atoms: C_5  and  O_27 
DOCKED: REMARK    6  A    between atoms: C_6  and  O_32 
DOCKED: REMARK    7  A    between atoms: O_7  and  P_8 
DOCKED: REMARK    8  A    between atoms: P_8  and  O_10 
DOCKED: REMARK    9  A    between atoms: P_8  and  O_11 
DOCKED: REMARK   10  A    between atoms: O_12  and  P_13 
DOCKED: REMARK   11  A    between atoms: P_13  and  O_15 
DOCKED: REMARK   12  A    between atoms: P_13  and  O_16 
DOCKED: REMARK   13  A    between atoms: O_17  and  P_18 
DOCKED: REMARK   14  A    between atoms: P_18  and  O_20 
DOCKED: REMARK   15  A    between atoms: P_18  and  O_21 
DOCKED: REMARK   16  A    between atoms: O_22  and  P_23 
DOCKED: REMARK   17  A    between atoms: P_23  and  O_25 
DOCKED: REMARK   18  A    between atoms: P_23  and  O_26 
DOCKED: REMARK   19  A    between atoms: O_27  and  P_28 
DOCKED: REMARK   20  A    between atoms: P_28  and  O_30 
DOCKED: REMARK   21  A    between atoms: P_28  and  O_31 
DOCKED: REMARK   22  A    between atoms: O_32  and  P_33 
DOCKED: REMARK   23  A    between atoms: P_33  and  O_35 
DOCKED: REMARK   24  A    between atoms: P_33  and  O_36 
DOCKED: USER                              x       y       z     vdW  Elec       q    Type
DOCKED: USER                           _______ _______ _______ _____ _____    ______ ____
DOCKED: ROOT
DOCKED: ATOM      1  C   UNL d   1      11.807  14.838 -18.234 -0.01 +0.05    +0.194 C 
DOCKED: ATOM      2  C   UNL d   1      10.708  14.693 -17.180 -0.03 +0.05    +0.194 C 
DOCKED: ATOM      3  C   UNL d   1      11.288  14.417 -15.791 -0.11 +0.07    +0.194 C 
DOCKED: ATOM      4  C   UNL d   1      12.358  15.424 -15.375 -0.09 +0.06    +0.194 C 
DOCKED: ATOM      5  C   UNL d   1      13.413  15.685 -16.443 -0.06 +0.05    +0.194 C 
DOCKED: ATOM      6  C   UNL d   1      12.835  15.901 -17.844 -0.01 +0.04    +0.194 C 
DOCKED: ENDROOT
DOCKED: BRANCH   1   7
DOCKED: ATOM      7  O   UNL d   1      11.198  15.263 -19.456 -0.00 -0.06    -0.278 OA
DOCKED: BRANCH   7   8
DOCKED: ATOM      8  P   UNL d   1      10.974  16.827 -19.689 +0.00 +0.08    +0.473 P 
DOCKED: ATOM      9  O   UNL d   1      11.013  17.661 -18.457 +0.00 -0.04    -0.228 OA
DOCKED: BRANCH   8  10
DOCKED: ATOM     10  O   UNL d   1      12.094  17.225 -20.753 +0.00 -0.04    -0.303 OA
DOCKED: ATOM     11  H   UNL d   1      12.928  16.767 -20.536 +0.00 +0.03    +0.222 HD
DOCKED: ENDBRANCH   8  10
DOCKED: BRANCH   8  12
DOCKED: ATOM     12  O   UNL d   1       9.644  16.929 -20.553 +0.00 -0.05    -0.303 OA
DOCKED: ATOM     13  H   UNL d   1       8.836  16.684 -20.048 +0.00 +0.04    +0.222 HD
DOCKED: ENDBRANCH   8  12
DOCKED: ENDBRANCH   7   8
DOCKED: ENDBRANCH   1   7
DOCKED: BRANCH   2  14
DOCKED: ATOM     14  O   UNL d   1       9.951  15.909 -17.124 -0.01 -0.06    -0.278 OA
DOCKED: BRANCH  14  15
DOCKED: ATOM     15  P   UNL d   1       8.413  15.814 -17.560 +0.01 +0.11    +0.473 P 
DOCKED: ATOM     16  O   UNL d   1       7.437  15.414 -16.498 -0.07 -0.06    -0.228 OA
DOCKED: BRANCH  15  17
DOCKED: ATOM     17  O   UNL d   1       8.097  17.247 -18.180 -0.00 -0.06    -0.303 OA
DOCKED: ATOM     18  H   UNL d   1       8.888  17.627 -18.608 +0.00 +0.04    +0.222 HD
DOCKED: ENDBRANCH  15  17
DOCKED: BRANCH  15  19
DOCKED: ATOM     19  O   UNL d   1       8.424  14.899 -18.861 -0.00 -0.08    -0.303 OA
DOCKED: ATOM     20  H   UNL d   1       9.139  15.152 -19.474 +0.01 +0.05    +0.222 HD
DOCKED: ENDBRANCH  15  19
DOCKED: ENDBRANCH  14  15
DOCKED: ENDBRANCH   2  14
DOCKED: BRANCH   6  21
DOCKED: ATOM     21  O   UNL d   1      13.922  15.787 -18.760 -0.00 -0.05    -0.278 OA
DOCKED: BRANCH  21  22
DOCKED: ATOM     22  P   UNL d   1      14.764  17.083 -19.154 +0.01 +0.07    +0.473 P 
DOCKED: ATOM     23  O   UNL d   1      16.037  17.347 -18.422 +0.00 -0.03    -0.228 OA
DOCKED: BRANCH  22  24
DOCKED: ATOM     24  O   UNL d   1      14.925  16.902 -20.727 +0.00 -0.04    -0.303 OA
DOCKED: ATOM     25  H   UNL d   1      14.221  17.439 -21.173 +0.00 +0.03    +0.222 HD
DOCKED: ENDBRANCH  22  24
DOCKED: BRANCH  22  26
DOCKED: ATOM     26  O   UNL d   1      13.651  18.234 -19.065 +0.00 -0.04    -0.303 OA
DOCKED: ATOM     27  H   UNL d   1      13.155  18.138 -18.227 +0.00 +0.03    +0.222 HD
DOCKED: ENDBRANCH  22  26
DOCKED: ENDBRANCH  21  22
DOCKED: ENDBRANCH   6  21
DOCKED: BRANCH   3  28
DOCKED: ATOM     28  O   UNL d   1      10.236  14.574 -14.848 -0.09 -0.08    -0.278 OA
DOCKED: BRANCH  28  29
DOCKED: ATOM     29  P   UNL d   1       9.538  13.297 -14.201 -0.26 +0.13    +0.473 P 
DOCKED: ATOM     30  O   UNL d   1       8.756  13.552 -12.964 -0.32 -0.06    -0.228 OA
DOCKED: BRANCH  29  31
DOCKED: ATOM     31  O   UNL d   1       8.732  12.747 -15.470 -0.23 -0.10    -0.303 OA
DOCKED: ATOM     32  H   UNL d   1       8.306  13.509 -15.926 +0.10 +0.07    +0.222 HD
DOCKED: ENDBRANCH  29  31
DOCKED: BRANCH  29  33
DOCKED: ATOM     33  O   UNL d   1      10.754  12.275 -14.086 -0.35 -0.12    -0.303 OA
DOCKED: ATOM     34  H   UNL d   1      11.028  12.207 -13.139 -0.40 +0.03    +0.222 HD
DOCKED: ENDBRANCH  29  33
DOCKED: ENDBRANCH  28  29
DOCKED: ENDBRANCH   3  28
DOCKED: BRANCH   5  35
DOCKED: ATOM     35  O   UNL d   1      14.055  16.900 -16.063 -0.02 -0.06    -0.278 OA
DOCKED: BRANCH  35  36
DOCKED: ATOM     36  P   UNL d   1      13.208  18.241 -15.896 +0.01 +0.08    +0.473 P 
DOCKED: ATOM     37  O   UNL d   1      11.775  18.155 -16.319 -0.00 -0.04    -0.228 OA
DOCKED: BRANCH  36  38
DOCKED: ATOM     38  O   UNL d   1      13.416  18.569 -14.352 -0.00 -0.05    -0.303 OA
DOCKED: ATOM     39  H   UNL d   1      12.945  17.895 -13.815 +0.03 +0.04    +0.222 HD
DOCKED: ENDBRANCH  36  38
DOCKED: BRANCH  36  40
DOCKED: ATOM     40  O   UNL d   1      14.117  19.313 -16.641 +0.00 -0.04    -0.303 OA
DOCKED: ATOM     41  H   UNL d   1      14.724  18.889 -17.287 +0.00 +0.03    +0.222 HD
DOCKED: ENDBRANCH  36  40
DOCKED: ENDBRANCH  35  36
DOCKED: ENDBRANCH   5  35
DOCKED: BRANCH   4  42
DOCKED: ATOM     42  O   UNL d   1      13.035  14.866 -14.244 -0.49 -0.14    -0.278 OA
DOCKED: BRANCH  42  43
DOCKED: ATOM     43  P   UNL d   1      12.594  15.320 -12.780 -0.10 +0.14    +0.473 P 
DOCKED: ATOM     44  O   UNL d   1      13.666  15.765 -11.846 -0.22 -0.07    -0.228 OA
DOCKED: BRANCH  43  45
DOCKED: ATOM     45  O   UNL d   1      11.489  16.427 -13.076 -0.05 -0.06    -0.303 OA
DOCKED: ATOM     46  H   UNL d   1      10.696  16.037 -13.495 +0.08 +0.04    +0.222 HD
DOCKED: ENDBRANCH  43  45
DOCKED: BRANCH  43  47
DOCKED: ATOM     47  O   UNL d   1      11.697  14.093 -12.270 -0.34 -0.06    -0.303 OA
DOCKED: ATOM     48  H   UNL d   1      10.866  14.063 -12.788 +0.12 +0.04    +0.222 HD
DOCKED: ENDBRANCH  43  47
DOCKED: ENDBRANCH  42  43
DOCKED: ENDBRANCH   4  42
DOCKED: TORSDOF 24
DOCKED: TER
DOCKED: ENDMDL
________________________________________________________________________________


	BEGINNING GENETIC ALGORITHM DOCKING 93 of 100
Run: 93 Seed: 228944002 31212542 [ Run 93 of 100 GA/GALS ]
Beginning LAMARCKIAN GENETIC ALGORITHM (LGA), with a maximum of 25000000 energy evaluations.

Final-Value: -19.680


	FINAL GENETIC ALGORITHM DOCKED STATE
	_______________________________________________


Detailed state:  trans -18.191 -1.529 9.264 quatxyzw 0.371103 -0.435039 0.745933 0.341477 center 0.035 0.082 -0.065 ntor 24 -160.4895 22.3968 -179.7512 -34.6136 100.1335 139.0401 -98.2120 -18.3938 79.9254 107.4628 106.5034 179.9030 -132.4775 81.5534 -100.5462 38.5984 120.4375 5.1318 18.2196 -45.1891 -19.0178 -62.3201 -0.0943 -7.2407
State:	-18.191  -1.529   9.264   0.395 -0.463  0.794 140.066   -160.49   22.40 -179.75  -34.61  100.13  139.04  -98.21  -18.39   79.93  107.46  106.50  179.90 -132.48   81.55 -100.55   38.60  120.44    5.13   18.22  -45.19  -19.02  -62.32   -0.09   -7.24

DOCKED: MODEL       93
DOCKED: USER    Run = 93
DOCKED: USER    DPF = D:/Protein_go_brrr/autodock/final/AncB/IHP/dock.dpf
DOCKED: USER  
DOCKED: USER    Estimated Free Energy of Binding    =   +1.17 kcal/mol  [=(1)+(2)+(3)-(4)]
DOCKED: USER    
DOCKED: USER    (1) Final Intermolecular Energy     =   -5.99 kcal/mol
DOCKED: USER        vdW + Hbond + desolv Energy     =   -5.61 kcal/mol
DOCKED: USER        Electrostatic Energy            =   -0.38 kcal/mol
DOCKED: USER    (2) Final Total Internal Energy     =  -13.69 kcal/mol
DOCKED: USER    (3) Torsional Free Energy           =   +7.16 kcal/mol
DOCKED: USER    (4) Unbound System's Energy  [=(2)] =  -13.69 kcal/mol
DOCKED: USER    
DOCKED: USER    
DOCKED: USER    NEWDPF move IHP_ideal_opt.pdbqt
DOCKED: USER    NEWDPF about 0.035000 0.082000 -0.065000
DOCKED: USER    NEWDPF tran0 -18.191321 -1.528850 9.263850
DOCKED: USER    NEWDPF quaternion0 0.371103 -0.435039 0.745933 0.341477
DOCKED: USER    NEWDPF axisangle0 0.394837 -0.462862 0.793639 140.066167
DOCKED: USER    NEWDPF quat0 0.394837 -0.462862 0.793639 140.066167
DOCKED: USER    NEWDPF dihe0 -160.49 22.40 -179.75 -34.61 100.13 139.04 -98.21 -18.39 79.93 107.46 106.50 179.90 -132.48 81.55 -100.55 38.60 120.44 5.13 18.22 -45.19 -19.02 -62.32 -0.09 -7.24 
DOCKED: USER  keepresnum = 1 
DOCKED: USER  
DOCKED: REMARK  24 active torsions:
DOCKED: REMARK  status: ('A' for Active; 'I' for Inactive)
DOCKED: REMARK    1  A    between atoms: C_1  and  O_7 
DOCKED: REMARK    2  A    between atoms: C_2  and  O_12 
DOCKED: REMARK    3  A    between atoms: C_3  and  O_17 
DOCKED: REMARK    4  A    between atoms: C_4  and  O_22 
DOCKED: REMARK    5  A    between atoms: C_5  and  O_27 
DOCKED: REMARK    6  A    between atoms: C_6  and  O_32 
DOCKED: REMARK    7  A    between atoms: O_7  and  P_8 
DOCKED: REMARK    8  A    between atoms: P_8  and  O_10 
DOCKED: REMARK    9  A    between atoms: P_8  and  O_11 
DOCKED: REMARK   10  A    between atoms: O_12  and  P_13 
DOCKED: REMARK   11  A    between atoms: P_13  and  O_15 
DOCKED: REMARK   12  A    between atoms: P_13  and  O_16 
DOCKED: REMARK   13  A    between atoms: O_17  and  P_18 
DOCKED: REMARK   14  A    between atoms: P_18  and  O_20 
DOCKED: REMARK   15  A    between atoms: P_18  and  O_21 
DOCKED: REMARK   16  A    between atoms: O_22  and  P_23 
DOCKED: REMARK   17  A    between atoms: P_23  and  O_25 
DOCKED: REMARK   18  A    between atoms: P_23  and  O_26 
DOCKED: REMARK   19  A    between atoms: O_27  and  P_28 
DOCKED: REMARK   20  A    between atoms: P_28  and  O_30 
DOCKED: REMARK   21  A    between atoms: P_28  and  O_31 
DOCKED: REMARK   22  A    between atoms: O_32  and  P_33 
DOCKED: REMARK   23  A    between atoms: P_33  and  O_35 
DOCKED: REMARK   24  A    between atoms: P_33  and  O_36 
DOCKED: USER                              x       y       z     vdW  Elec       q    Type
DOCKED: USER                           _______ _______ _______ _____ _____    ______ ____
DOCKED: ROOT
DOCKED: ATOM      1  C   UNL d   1     -18.300  -2.540  10.660 +0.01 +0.11    +0.194 C 
DOCKED: ATOM      2  C   UNL d   1     -18.150  -1.043  10.938 -0.12 +0.05    +0.194 C 
DOCKED: ATOM      3  C   UNL d   1     -17.107  -0.398  10.023 -0.19 +0.04    +0.194 C 
DOCKED: ATOM      4  C   UNL d   1     -17.343  -0.690   8.543 -0.14 +0.03    +0.194 C 
DOCKED: ATOM      5  C   UNL d   1     -17.610  -2.158   8.235 -0.16 +0.06    +0.194 C 
DOCKED: ATOM      6  C   UNL d   1     -18.608  -2.819   9.189 -0.11 +0.09    +0.194 C 
DOCKED: ENDROOT
DOCKED: BRANCH   1   7
DOCKED: ATOM      7  O   UNL d   1     -19.404  -3.028  11.427 -0.07 -0.12    -0.278 OA
DOCKED: BRANCH   7   8
DOCKED: ATOM      8  P   UNL d   1     -19.097  -3.882  12.741 -0.07 +0.23    +0.473 P 
DOCKED: ATOM      9  O   UNL d   1     -18.774  -5.315  12.501 -0.56 -0.22    -0.228 OA
DOCKED: BRANCH   8  10
DOCKED: ATOM     10  O   UNL d   1     -17.915  -3.083  13.455 -0.17 -0.11    -0.303 OA
DOCKED: ATOM     11  H   UNL d   1     -18.092  -2.125  13.405 +0.07 +0.05    +0.222 HD
DOCKED: ENDBRANCH   8  10
DOCKED: BRANCH   8  12
DOCKED: ATOM     12  O   UNL d   1     -20.322  -3.600  13.712 -0.02 -0.06    -0.303 OA
DOCKED: ATOM     13  H   UNL d   1     -20.787  -2.757  13.512 +0.02 +0.03    +0.222 HD
DOCKED: ENDBRANCH   8  12
DOCKED: ENDBRANCH   7   8
DOCKED: ENDBRANCH   1   7
DOCKED: BRANCH   2  14
DOCKED: ATOM     14  O   UNL d   1     -19.411  -0.399  10.717 -0.02 -0.04    -0.278 OA
DOCKED: BRANCH  14  15
DOCKED: ATOM     15  P   UNL d   1     -20.429  -0.376  11.953 +0.00 +0.05    +0.473 P 
DOCKED: ATOM     16  O   UNL d   1     -21.153   0.910  12.204 -0.00 -0.02    -0.228 OA
DOCKED: BRANCH  15  17
DOCKED: ATOM     17  O   UNL d   1     -21.416  -1.593  11.666 -0.00 -0.04    -0.303 OA
DOCKED: ATOM     18  H   UNL d   1     -21.041  -2.434  11.992 +0.02 +0.04    +0.222 HD
DOCKED: ENDBRANCH  15  17
DOCKED: BRANCH  15  19
DOCKED: ATOM     19  O   UNL d   1     -19.580  -0.934  13.177 -0.02 -0.04    -0.303 OA
DOCKED: ATOM     20  H   UNL d   1     -19.706  -1.894  13.294 +0.04 +0.04    +0.222 HD
DOCKED: ENDBRANCH  15  19
DOCKED: ENDBRANCH  14  15
DOCKED: ENDBRANCH   2  14
DOCKED: BRANCH   6  21
DOCKED: ATOM     21  O   UNL d   1     -18.491  -4.227   8.996 -0.51 -0.26    -0.278 OA
DOCKED: BRANCH  21  22
DOCKED: ATOM     22  P   UNL d   1     -19.767  -5.074   8.550 -0.06 +0.13    +0.473 P 
DOCKED: ATOM     23  O   UNL d   1     -20.866  -5.266   9.539 -0.02 -0.06    -0.228 OA
DOCKED: BRANCH  22  24
DOCKED: ATOM     24  O   UNL d   1     -20.197  -4.331   7.209 -0.01 -0.03    -0.303 OA
DOCKED: ATOM     25  H   UNL d   1     -19.376  -4.010   6.758 +0.06 +0.02    +0.222 HD
DOCKED: ENDBRANCH  22  24
DOCKED: BRANCH  22  26
DOCKED: ATOM     26  O   UNL d   1     -19.088  -6.411   7.984 +0.08 +0.10    -0.303 OA
DOCKED: ATOM     27  H   UNL d   1     -18.242  -6.183   7.548 -0.51 -0.25    +0.222 HD
DOCKED: ENDBRANCH  22  26
DOCKED: ENDBRANCH  21  22
DOCKED: ENDBRANCH   6  21
DOCKED: BRANCH   3  28
DOCKED: ATOM     28  O   UNL d   1     -17.235   1.012  10.155 -0.12 -0.02    -0.278 OA
DOCKED: BRANCH  28  29
DOCKED: ATOM     29  P   UNL d   1     -17.307   1.682  11.598 -0.14 +0.01    +0.473 P 
DOCKED: ATOM     30  O   UNL d   1     -16.942   0.797  12.734 -0.24 -0.01    -0.228 OA
DOCKED: BRANCH  29  31
DOCKED: ATOM     31  O   UNL d   1     -16.386   2.968  11.354 -0.19 +0.04    -0.303 OA
DOCKED: ATOM     32  H   UNL d   1     -15.565   2.684  10.890 -0.48 -0.11    +0.222 HD
DOCKED: ENDBRANCH  29  31
DOCKED: BRANCH  29  33
DOCKED: ATOM     33  O   UNL d   1     -18.775   2.297  11.608 -0.02 -0.01    -0.303 OA
DOCKED: ATOM     34  H   UNL d   1     -19.396   1.654  11.185 +0.03 +0.02    +0.222 HD
DOCKED: ENDBRANCH  29  33
DOCKED: ENDBRANCH  28  29
DOCKED: ENDBRANCH   3  28
DOCKED: BRANCH   5  35
DOCKED: ATOM     35  O   UNL d   1     -18.195  -2.180   6.935 -0.07 -0.03    -0.278 OA
DOCKED: BRANCH  35  36
DOCKED: ATOM     36  P   UNL d   1     -17.633  -3.167   5.816 -0.16 -0.00    +0.473 P 
DOCKED: ATOM     37  O   UNL d   1     -18.519  -3.368   4.628 -0.16 +0.03    -0.228 OA
DOCKED: BRANCH  36  38
DOCKED: ATOM     38  O   UNL d   1     -16.223  -2.507   5.477 -0.56 +0.01    -0.303 OA
DOCKED: ATOM     39  H   UNL d   1     -16.031  -1.805   6.135 +0.07 -0.01    +0.222 HD
DOCKED: ENDBRANCH  36  38
DOCKED: BRANCH  36  40
DOCKED: ATOM     40  O   UNL d   1     -17.256  -4.460   6.662 -0.28 +0.00    -0.303 OA
DOCKED: ATOM     41  H   UNL d   1     -18.052  -4.887   7.049 -0.01 -0.02    +0.222 HD
DOCKED: ENDBRANCH  36  40
DOCKED: ENDBRANCH  35  36
DOCKED: ENDBRANCH   5  35
DOCKED: BRANCH   4  42
DOCKED: ATOM     42  O   UNL d   1     -16.142  -0.327   7.853 -0.19 -0.03    -0.278 OA
DOCKED: BRANCH  42  43
DOCKED: ATOM     43  P   UNL d   1     -16.204   0.824   6.751 -0.05 +0.01    +0.473 P 
DOCKED: ATOM     44  O   UNL d   1     -16.845   2.112   7.138 -0.12 -0.02    -0.228 OA
DOCKED: BRANCH  43  45
DOCKED: ATOM     45  O   UNL d   1     -14.683   0.963   6.305 +0.00 +0.04    -0.303 OA
DOCKED: ATOM     46  H   UNL d   1     -14.220   0.102   6.338 -0.33 -0.10    +0.222 HD
DOCKED: ENDBRANCH  43  45
DOCKED: BRANCH  43  47
DOCKED: ATOM     47  O   UNL d   1     -16.848   0.084   5.484 -0.23 +0.01    -0.303 OA
DOCKED: ATOM     48  H   UNL d   1     -17.012  -0.856   5.707 +0.09 -0.01    +0.222 HD
DOCKED: ENDBRANCH  43  47
DOCKED: ENDBRANCH  42  43
DOCKED: ENDBRANCH   4  42
DOCKED: TORSDOF 24
DOCKED: TER
DOCKED: ENDMDL
________________________________________________________________________________


	BEGINNING GENETIC ALGORITHM DOCKING 94 of 100
Run: 94 Seed: 1260789329 1557520820 [ Run 94 of 100 GA/GALS ]
Beginning LAMARCKIAN GENETIC ALGORITHM (LGA), with a maximum of 25000000 energy evaluations.

Final-Value: -18.797


	FINAL GENETIC ALGORITHM DOCKED STATE
	_______________________________________________


Detailed state:  trans -0.977 -7.040 13.742 quatxyzw -0.828124 -0.275140 0.278147 -0.401426 center 0.035 0.082 -0.065 ntor 24 104.9441 -27.2915 53.7332 86.4162 -179.9820 -116.7606 94.3417 162.0744 6.6443 58.8802 88.9067 94.3713 -77.4114 -65.5349 75.9396 -102.8885 159.0290 180.0000 -150.4023 -4.5175 16.9707 -34.2729 -175.1338 22.0615
State:	 -0.977  -7.040  13.742  -0.904 -0.300  0.304 -132.665    104.94  -27.29   53.73   86.42 -179.98 -116.76   94.34  162.07    6.64   58.88   88.91   94.37  -77.41  -65.53   75.94 -102.89  159.03  180.00 -150.40   -4.52   16.97  -34.27 -175.13   22.06

DOCKED: MODEL       94
DOCKED: USER    Run = 94
DOCKED: USER    DPF = D:/Protein_go_brrr/autodock/final/AncB/IHP/dock.dpf
DOCKED: USER  
DOCKED: USER    Estimated Free Energy of Binding    =   +1.05 kcal/mol  [=(1)+(2)+(3)-(4)]
DOCKED: USER    
DOCKED: USER    (1) Final Intermolecular Energy     =   -6.11 kcal/mol
DOCKED: USER        vdW + Hbond + desolv Energy     =   -5.63 kcal/mol
DOCKED: USER        Electrostatic Energy            =   -0.48 kcal/mol
DOCKED: USER    (2) Final Total Internal Energy     =  -12.69 kcal/mol
DOCKED: USER    (3) Torsional Free Energy           =   +7.16 kcal/mol
DOCKED: USER    (4) Unbound System's Energy  [=(2)] =  -12.69 kcal/mol
DOCKED: USER    
DOCKED: USER    
DOCKED: USER    NEWDPF move IHP_ideal_opt.pdbqt
DOCKED: USER    NEWDPF about 0.035000 0.082000 -0.065000
DOCKED: USER    NEWDPF tran0 -0.977022 -7.039898 13.742493
DOCKED: USER    NEWDPF quaternion0 -0.828124 -0.275140 0.278147 -0.401426
DOCKED: USER    NEWDPF axisangle0 -0.904173 -0.300407 0.303690 -132.665341
DOCKED: USER    NEWDPF quat0 -0.904173 -0.300407 0.303690 -132.665341
DOCKED: USER    NEWDPF dihe0 104.94 -27.29 53.73 86.42 -179.98 -116.76 94.34 162.07 6.64 58.88 88.91 94.37 -77.41 -65.53 75.94 -102.89 159.03 180.00 -150.40 -4.52 16.97 -34.27 -175.13 22.06 
DOCKED: USER  keepresnum = 1 
DOCKED: USER  
DOCKED: REMARK  24 active torsions:
DOCKED: REMARK  status: ('A' for Active; 'I' for Inactive)
DOCKED: REMARK    1  A    between atoms: C_1  and  O_7 
DOCKED: REMARK    2  A    between atoms: C_2  and  O_12 
DOCKED: REMARK    3  A    between atoms: C_3  and  O_17 
DOCKED: REMARK    4  A    between atoms: C_4  and  O_22 
DOCKED: REMARK    5  A    between atoms: C_5  and  O_27 
DOCKED: REMARK    6  A    between atoms: C_6  and  O_32 
DOCKED: REMARK    7  A    between atoms: O_7  and  P_8 
DOCKED: REMARK    8  A    between atoms: P_8  and  O_10 
DOCKED: REMARK    9  A    between atoms: P_8  and  O_11 
DOCKED: REMARK   10  A    between atoms: O_12  and  P_13 
DOCKED: REMARK   11  A    between atoms: P_13  and  O_15 
DOCKED: REMARK   12  A    between atoms: P_13  and  O_16 
DOCKED: REMARK   13  A    between atoms: O_17  and  P_18 
DOCKED: REMARK   14  A    between atoms: P_18  and  O_20 
DOCKED: REMARK   15  A    between atoms: P_18  and  O_21 
DOCKED: REMARK   16  A    between atoms: O_22  and  P_23 
DOCKED: REMARK   17  A    between atoms: P_23  and  O_25 
DOCKED: REMARK   18  A    between atoms: P_23  and  O_26 
DOCKED: REMARK   19  A    between atoms: O_27  and  P_28 
DOCKED: REMARK   20  A    between atoms: P_28  and  O_30 
DOCKED: REMARK   21  A    between atoms: P_28  and  O_31 
DOCKED: REMARK   22  A    between atoms: O_32  and  P_33 
DOCKED: REMARK   23  A    between atoms: P_33  and  O_35 
DOCKED: REMARK   24  A    between atoms: P_33  and  O_36 
DOCKED: USER                              x       y       z     vdW  Elec       q    Type
DOCKED: USER                           _______ _______ _______ _____ _____    ______ ____
DOCKED: ROOT
DOCKED: ATOM      1  C   UNL d   1      -0.853  -5.317  13.755 -0.31 -0.01    +0.194 C 
DOCKED: ATOM      2  C   UNL d   1      -1.654  -5.930  14.905 -0.25 -0.00    +0.194 C 
DOCKED: ATOM      3  C   UNL d   1      -2.582  -7.045  14.417 -0.16 +0.02    +0.194 C 
DOCKED: ATOM      4  C   UNL d   1      -1.863  -8.105  13.585 -0.16 +0.03    +0.194 C 
DOCKED: ATOM      5  C   UNL d   1      -0.961  -7.534  12.499 -0.21 +0.02    +0.194 C 
DOCKED: ATOM      6  C   UNL d   1      -0.078  -6.377  12.971 -0.26 +0.01    +0.194 C 
DOCKED: ENDROOT
DOCKED: BRANCH   1   7
DOCKED: ATOM      7  O   UNL d   1       0.105  -4.413  14.311 -0.33 +0.02    -0.278 OA
DOCKED: BRANCH   7   8
DOCKED: ATOM      8  P   UNL d   1       1.522  -4.994  14.765 -0.13 -0.04    +0.473 P 
DOCKED: ATOM      9  O   UNL d   1       1.525  -6.436  15.130 -0.05 +0.00    -0.228 OA
DOCKED: BRANCH   8  10
DOCKED: ATOM     10  O   UNL d   1       2.489  -4.653  13.543 -0.12 +0.04    -0.303 OA
DOCKED: ATOM     11  H   UNL d   1       2.100  -4.990  12.714 +0.07 -0.01    +0.222 HD
DOCKED: ENDBRANCH   8  10
DOCKED: BRANCH   8  12
DOCKED: ATOM     12  O   UNL d   1       2.038  -3.993  15.886 -0.13 +0.05    -0.303 OA
DOCKED: ATOM     13  H   UNL d   1       2.326  -3.124  15.525 -0.40 -0.08    +0.222 HD
DOCKED: ENDBRANCH   8  12
DOCKED: ENDBRANCH   7   8
DOCKED: ENDBRANCH   1   7
DOCKED: BRANCH   2  14
DOCKED: ATOM     14  O   UNL d   1      -0.745  -6.480  15.866 -0.07 -0.00    -0.278 OA
DOCKED: BRANCH  14  15
DOCKED: ATOM     15  P   UNL d   1      -0.935  -6.005  17.384 -0.03 -0.01    +0.473 P 
DOCKED: ATOM     16  O   UNL d   1      -1.879  -4.868  17.619 -0.06 +0.01    -0.228 OA
DOCKED: BRANCH  15  17
DOCKED: ATOM     17  O   UNL d   1      -1.362  -7.332  18.155 -0.01 +0.00    -0.303 OA
DOCKED: ATOM     18  H   UNL d   1      -2.005  -7.849  17.634 +0.03 +0.00    +0.222 HD
DOCKED: ENDBRANCH  15  17
DOCKED: BRANCH  15  19
DOCKED: ATOM     19  O   UNL d   1       0.547  -5.787  17.919 -0.02 +0.01    -0.303 OA
DOCKED: ATOM     20  H   UNL d   1       1.164  -5.569  17.196 +0.04 -0.01    +0.222 HD
DOCKED: ENDBRANCH  15  19
DOCKED: ENDBRANCH  14  15
DOCKED: ENDBRANCH   2  14
DOCKED: BRANCH   6  21
DOCKED: ATOM     21  O   UNL d   1       0.431  -5.742  11.800 -0.27 -0.01    -0.278 OA
DOCKED: BRANCH  21  22
DOCKED: ATOM     22  P   UNL d   1       1.752  -6.305  11.105 -0.15 +0.01    +0.473 P 
DOCKED: ATOM     23  O   UNL d   1       1.610  -7.057   9.825 -0.14 -0.01    -0.228 OA
DOCKED: BRANCH  22  24
DOCKED: ATOM     24  O   UNL d   1       2.655  -4.998  11.015 -0.19 +0.00    -0.303 OA
DOCKED: ATOM     25  H   UNL d   1       3.440  -5.124  11.607 +0.07 -0.01    +0.222 HD
DOCKED: ENDBRANCH  22  24
DOCKED: BRANCH  22  26
DOCKED: ATOM     26  O   UNL d   1       2.442  -7.101  12.314 -0.04 -0.01    -0.303 OA
DOCKED: ATOM     27  H   UNL d   1       1.906  -7.893  12.526 +0.05 +0.01    +0.222 HD
DOCKED: ENDBRANCH  22  26
DOCKED: ENDBRANCH  21  22
DOCKED: ENDBRANCH   6  21
DOCKED: BRANCH   3  28
DOCKED: ATOM     28  O   UNL d   1      -3.066  -7.731  15.565 -0.11 -0.03    -0.278 OA
DOCKED: BRANCH  28  29
DOCKED: ATOM     29  P   UNL d   1      -4.208  -7.084  16.466 -0.12 -0.04    +0.473 P 
DOCKED: ATOM     30  O   UNL d   1      -3.920  -7.027  17.923 -0.05 +0.02    -0.228 OA
DOCKED: BRANCH  29  31
DOCKED: ATOM     31  O   UNL d   1      -4.404  -5.688  15.710 -0.26 +0.12    -0.303 OA
DOCKED: ATOM     32  H   UNL d   1      -5.353  -5.430  15.765 -0.44 -0.28    +0.222 HD
DOCKED: ENDBRANCH  29  31
DOCKED: BRANCH  29  33
DOCKED: ATOM     33  O   UNL d   1      -5.495  -7.909  16.020 -0.63 -0.10    -0.303 OA
DOCKED: ATOM     34  H   UNL d   1      -6.261  -7.290  15.939 -0.46 -0.07    +0.222 HD
DOCKED: ENDBRANCH  29  33
DOCKED: ENDBRANCH  28  29
DOCKED: ENDBRANCH   3  28
DOCKED: BRANCH   5  35
DOCKED: ATOM     35  O   UNL d   1      -0.091  -8.598  12.119 -0.09 -0.03    -0.278 OA
DOCKED: BRANCH  35  36
DOCKED: ATOM     36  P   UNL d   1       0.599  -9.509  13.231 -0.01 +0.04    +0.473 P 
DOCKED: ATOM     37  O   UNL d   1       1.858 -10.199  12.810 -0.01 -0.02    -0.228 OA
DOCKED: BRANCH  36  38
DOCKED: ATOM     38  O   UNL d   1       0.789  -8.475  14.428 -0.01 -0.02    -0.303 OA
DOCKED: ATOM     39  H   UNL d   1       1.401  -7.763  14.143 +0.04 +0.01    +0.222 HD
DOCKED: ENDBRANCH  36  38
DOCKED: BRANCH  36  40
DOCKED: ATOM     40  O   UNL d   1      -0.604 -10.432  13.710 -0.01 -0.04    -0.303 OA
DOCKED: ATOM     41  H   UNL d   1      -1.346 -10.426  13.065 +0.04 +0.04    +0.222 HD
DOCKED: ENDBRANCH  36  40
DOCKED: ENDBRANCH  35  36
DOCKED: ENDBRANCH   5  35
DOCKED: BRANCH   4  42
DOCKED: ATOM     42  O   UNL d   1      -2.876  -8.875  12.930 -0.14 -0.08    -0.278 OA
DOCKED: BRANCH  42  43
DOCKED: ATOM     43  P   UNL d   1      -3.474 -10.154  13.673 -0.07 +0.16    +0.473 P 
DOCKED: ATOM     44  O   UNL d   1      -3.618 -11.405  12.877 -0.07 -0.07    -0.228 OA
DOCKED: BRANCH  43  45
DOCKED: ATOM     45  O   UNL d   1      -2.525 -10.296  14.942 -0.02 -0.06    -0.303 OA
DOCKED: ATOM     46  H   UNL d   1      -2.010  -9.479  15.097 +0.03 +0.03    +0.222 HD
DOCKED: ENDBRANCH  43  45
DOCKED: BRANCH  43  47
DOCKED: ATOM     47  O   UNL d   1      -4.823  -9.596  14.335 -0.07 -0.20    -0.303 OA
DOCKED: ATOM     48  H   UNL d   1      -4.616  -9.210  15.212 +0.05 +0.11    +0.222 HD
DOCKED: ENDBRANCH  43  47
DOCKED: ENDBRANCH  42  43
DOCKED: ENDBRANCH   4  42
DOCKED: TORSDOF 24
DOCKED: TER
DOCKED: ENDMDL
________________________________________________________________________________


	BEGINNING GENETIC ALGORITHM DOCKING 95 of 100
Run: 95 Seed: 181260524 1387400548 [ Run 95 of 100 GA/GALS ]
Beginning LAMARCKIAN GENETIC ALGORITHM (LGA), with a maximum of 25000000 energy evaluations.

Final-Value: -17.427


	FINAL GENETIC ALGORITHM DOCKED STATE
	_______________________________________________


Detailed state:  trans 15.729 3.730 -13.998 quatxyzw -0.049535 -0.631746 -0.487245 0.600863 center 0.035 0.082 -0.065 ntor 24 73.4228 97.0601 113.8904 93.7017 -147.1251 -97.1969 -133.7134 -9.5787 55.2463 67.7035 -169.9408 142.5102 -18.3776 118.0502 21.9390 46.7258 111.7552 166.0106 35.5605 -7.5396 153.5609 162.9141 140.3475 -169.2909
State:	 15.729   3.730 -13.998  -0.062 -0.790 -0.610 106.137     73.42   97.06  113.89   93.70 -147.13  -97.20 -133.71   -9.58   55.25   67.70 -169.94  142.51  -18.38  118.05   21.94   46.73  111.76  166.01   35.56   -7.54  153.56  162.91  140.35 -169.29

DOCKED: MODEL       95
DOCKED: USER    Run = 95
DOCKED: USER    DPF = D:/Protein_go_brrr/autodock/final/AncB/IHP/dock.dpf
DOCKED: USER  
DOCKED: USER    Estimated Free Energy of Binding    =   +1.60 kcal/mol  [=(1)+(2)+(3)-(4)]
DOCKED: USER    
DOCKED: USER    (1) Final Intermolecular Energy     =   -5.56 kcal/mol
DOCKED: USER        vdW + Hbond + desolv Energy     =   -5.39 kcal/mol
DOCKED: USER        Electrostatic Energy            =   -0.17 kcal/mol
DOCKED: USER    (2) Final Total Internal Energy     =  -11.86 kcal/mol
DOCKED: USER    (3) Torsional Free Energy           =   +7.16 kcal/mol
DOCKED: USER    (4) Unbound System's Energy  [=(2)] =  -11.86 kcal/mol
DOCKED: USER    
DOCKED: USER    
DOCKED: USER    NEWDPF move IHP_ideal_opt.pdbqt
DOCKED: USER    NEWDPF about 0.035000 0.082000 -0.065000
DOCKED: USER    NEWDPF tran0 15.728895 3.730176 -13.998207
DOCKED: USER    NEWDPF quaternion0 -0.049535 -0.631746 -0.487245 0.600863
DOCKED: USER    NEWDPF axisangle0 -0.061969 -0.790322 -0.609550 106.136526
DOCKED: USER    NEWDPF quat0 -0.061969 -0.790322 -0.609550 106.136526
DOCKED: USER    NEWDPF dihe0 73.42 97.06 113.89 93.70 -147.13 -97.20 -133.71 -9.58 55.25 67.70 -169.94 142.51 -18.38 118.05 21.94 46.73 111.76 166.01 35.56 -7.54 153.56 162.91 140.35 -169.29 
DOCKED: USER  keepresnum = 1 
DOCKED: USER  
DOCKED: REMARK  24 active torsions:
DOCKED: REMARK  status: ('A' for Active; 'I' for Inactive)
DOCKED: REMARK    1  A    between atoms: C_1  and  O_7 
DOCKED: REMARK    2  A    between atoms: C_2  and  O_12 
DOCKED: REMARK    3  A    between atoms: C_3  and  O_17 
DOCKED: REMARK    4  A    between atoms: C_4  and  O_22 
DOCKED: REMARK    5  A    between atoms: C_5  and  O_27 
DOCKED: REMARK    6  A    between atoms: C_6  and  O_32 
DOCKED: REMARK    7  A    between atoms: O_7  and  P_8 
DOCKED: REMARK    8  A    between atoms: P_8  and  O_10 
DOCKED: REMARK    9  A    between atoms: P_8  and  O_11 
DOCKED: REMARK   10  A    between atoms: O_12  and  P_13 
DOCKED: REMARK   11  A    between atoms: P_13  and  O_15 
DOCKED: REMARK   12  A    between atoms: P_13  and  O_16 
DOCKED: REMARK   13  A    between atoms: O_17  and  P_18 
DOCKED: REMARK   14  A    between atoms: P_18  and  O_20 
DOCKED: REMARK   15  A    between atoms: P_18  and  O_21 
DOCKED: REMARK   16  A    between atoms: O_22  and  P_23 
DOCKED: REMARK   17  A    between atoms: P_23  and  O_25 
DOCKED: REMARK   18  A    between atoms: P_23  and  O_26 
DOCKED: REMARK   19  A    between atoms: O_27  and  P_28 
DOCKED: REMARK   20  A    between atoms: P_28  and  O_30 
DOCKED: REMARK   21  A    between atoms: P_28  and  O_31 
DOCKED: REMARK   22  A    between atoms: O_32  and  P_33 
DOCKED: REMARK   23  A    between atoms: P_33  and  O_35 
DOCKED: REMARK   24  A    between atoms: P_33  and  O_36 
DOCKED: USER                              x       y       z     vdW  Elec       q    Type
DOCKED: USER                           _______ _______ _______ _____ _____    ______ ____
DOCKED: ROOT
DOCKED: ATOM      1  C   UNL d   1      16.490   4.520 -15.333 -0.03 +0.05    +0.194 C 
DOCKED: ATOM      2  C   UNL d   1      16.953   3.088 -15.061 -0.01 +0.05    +0.194 C 
DOCKED: ATOM      3  C   UNL d   1      17.156   2.832 -13.566 -0.03 +0.06    +0.194 C 
DOCKED: ATOM      4  C   UNL d   1      15.945   3.217 -12.720 -0.12 +0.08    +0.194 C 
DOCKED: ATOM      5  C   UNL d   1      15.379   4.595 -13.039 -0.18 +0.08    +0.194 C 
DOCKED: ATOM      6  C   UNL d   1      15.233   4.874 -14.536 -0.12 +0.05    +0.194 C 
DOCKED: ENDROOT
DOCKED: BRANCH   1   7
DOCKED: ATOM      7  O   UNL d   1      16.159   4.626 -16.719 -0.01 -0.06    -0.278 OA
DOCKED: BRANCH   7   8
DOCKED: ATOM      8  P   UNL d   1      17.324   4.985 -17.752 +0.01 +0.09    +0.473 P 
DOCKED: ATOM      9  O   UNL d   1      18.667   4.448 -17.400 -0.00 -0.04    -0.228 OA
DOCKED: BRANCH   8  10
DOCKED: ATOM     10  O   UNL d   1      16.779   4.446 -19.152 -0.00 -0.05    -0.303 OA
DOCKED: ATOM     11  H   UNL d   1      16.984   3.497 -19.239 +0.01 +0.04    +0.222 HD
DOCKED: ENDBRANCH   8  10
DOCKED: BRANCH   8  12
DOCKED: ATOM     12  O   UNL d   1      17.235   6.560 -17.945 -0.00 -0.06    -0.303 OA
DOCKED: ATOM     13  H   UNL d   1      17.235   7.053 -17.094 +0.03 +0.04    +0.222 HD
DOCKED: ENDBRANCH   8  12
DOCKED: ENDBRANCH   7   8
DOCKED: ENDBRANCH   1   7
DOCKED: BRANCH   2  14
DOCKED: ATOM     14  O   UNL d   1      15.962   2.176 -15.550 -0.03 -0.07    -0.278 OA
DOCKED: BRANCH  14  15
DOCKED: ATOM     15  P   UNL d   1      16.457   1.077 -16.604 -0.00 +0.10    +0.473 P 
DOCKED: ATOM     16  O   UNL d   1      15.463   0.032 -17.003 -0.04 -0.05    -0.228 OA
DOCKED: BRANCH  15  17
DOCKED: ATOM     17  O   UNL d   1      16.981   1.935 -17.840 -0.00 -0.06    -0.303 OA
DOCKED: ATOM     18  H   UNL d   1      17.151   2.861 -17.579 +0.01 +0.04    +0.222 HD
DOCKED: ENDBRANCH  15  17
DOCKED: BRANCH  15  19
DOCKED: ATOM     19  O   UNL d   1      17.821   0.530 -15.995 -0.00 -0.06    -0.303 OA
DOCKED: ATOM     20  H   UNL d   1      17.800   0.514 -15.020 +0.02 +0.05    +0.222 HD
DOCKED: ENDBRANCH  15  19
DOCKED: ENDBRANCH  14  15
DOCKED: ENDBRANCH   2  14
DOCKED: BRANCH   6  21
DOCKED: ATOM     21  O   UNL d   1      15.031   6.278 -14.676 -0.18 -0.06    -0.278 OA
DOCKED: BRANCH  21  22
DOCKED: ATOM     22  P   UNL d   1      16.034   7.297 -13.969 -0.23 +0.18    +0.473 P 
DOCKED: ATOM     23  O   UNL d   1      17.496   7.128 -14.209 -0.09 -0.07    -0.228 OA
DOCKED: BRANCH  22  24
DOCKED: ATOM     24  O   UNL d   1      15.442   8.704 -14.421 -0.60 -0.13    -0.303 OA
DOCKED: ATOM     25  H   UNL d   1      15.593   9.352 -13.687 -0.39 +0.10    +0.222 HD
DOCKED: ENDBRANCH  22  24
DOCKED: BRANCH  22  26
DOCKED: ATOM     26  O   UNL d   1      15.558   7.214 -12.440 -0.60 -0.20    -0.303 OA
DOCKED: ATOM     27  H   UNL d   1      16.045   6.494 -11.990 +0.09 +0.14    +0.222 HD
DOCKED: ENDBRANCH  22  26
DOCKED: ENDBRANCH  21  22
DOCKED: ENDBRANCH   6  21
DOCKED: BRANCH   3  28
DOCKED: ATOM     28  O   UNL d   1      17.310   1.430 -13.389 -0.01 -0.08    -0.278 OA
DOCKED: BRANCH  28  29
DOCKED: ATOM     29  P   UNL d   1      16.031   0.497 -13.210 -0.06 +0.14    +0.473 P 
DOCKED: ATOM     30  O   UNL d   1      14.751   1.062 -13.707 -0.19 -0.07    -0.228 OA
DOCKED: BRANCH  29  31
DOCKED: ATOM     31  O   UNL d   1      16.559  -0.839 -13.917 -0.04 -0.08    -0.303 OA
DOCKED: ATOM     32  H   UNL d   1      16.444  -0.745 -14.890 +0.04 +0.05    +0.222 HD
DOCKED: ENDBRANCH  29  31
DOCKED: BRANCH  29  33
DOCKED: ATOM     33  O   UNL d   1      16.102   0.127 -11.662 -0.15 -0.10    -0.303 OA
DOCKED: ATOM     34  H   UNL d   1      16.225   0.957 -11.139 +0.09 +0.09    +0.222 HD
DOCKED: ENDBRANCH  29  33
DOCKED: ENDBRANCH  28  29
DOCKED: ENDBRANCH   3  28
DOCKED: BRANCH   5  35
DOCKED: ATOM     35  O   UNL d   1      14.067   4.613 -12.479 -0.28 -0.12    -0.278 OA
DOCKED: BRANCH  35  36
DOCKED: ATOM     36  P   UNL d   1      12.818   4.118 -13.340 -0.30 +0.11    +0.473 P 
DOCKED: ATOM     37  O   UNL d   1      11.636   3.652 -12.551 -0.36 -0.03    -0.228 OA
DOCKED: BRANCH  36  38
DOCKED: ATOM     38  O   UNL d   1      12.533   5.387 -14.259 -0.36 -0.01    -0.303 OA
DOCKED: ATOM     39  H   UNL d   1      13.011   6.162 -13.894 -0.36 -0.02    +0.222 HD
DOCKED: ENDBRANCH  36  38
DOCKED: BRANCH  36  40
DOCKED: ATOM     40  O   UNL d   1      13.484   3.068 -14.332 -0.22 -0.09    -0.303 OA
DOCKED: ATOM     41  H   UNL d   1      14.302   2.677 -13.953 +0.11 +0.07    +0.222 HD
DOCKED: ENDBRANCH  36  40
DOCKED: ENDBRANCH  35  36
DOCKED: ENDBRANCH   5  35
DOCKED: BRANCH   4  42
DOCKED: ATOM     42  O   UNL d   1      16.384   3.247 -11.358 -0.14 -0.18    -0.278 OA
DOCKED: BRANCH  42  43
DOCKED: ATOM     43  P   UNL d   1      17.180   4.525 -10.832 -0.09 +0.46    +0.473 P 
DOCKED: ATOM     44  O   UNL d   1      18.207   4.307  -9.775 -0.24 -0.29    -0.228 OA
DOCKED: BRANCH  43  45
DOCKED: ATOM     45  O   UNL d   1      17.753   5.157 -12.175 -0.06 -0.16    -0.303 OA
DOCKED: ATOM     46  H   UNL d   1      17.389   6.050 -12.335 +0.08 +0.12    +0.222 HD
DOCKED: ENDBRANCH  43  45
DOCKED: BRANCH  43  47
DOCKED: ATOM     47  O   UNL d   1      16.012   5.557 -10.459 -0.42 -0.43    -0.303 OA
DOCKED: ATOM     48  H   UNL d   1      15.297   5.490 -11.126 +0.09 +0.20    +0.222 HD
DOCKED: ENDBRANCH  43  47
DOCKED: ENDBRANCH  42  43
DOCKED: ENDBRANCH   4  42
DOCKED: TORSDOF 24
DOCKED: TER
DOCKED: ENDMDL
________________________________________________________________________________


	BEGINNING GENETIC ALGORITHM DOCKING 96 of 100
Run: 96 Seed: 1941928221 1704205316 [ Run 96 of 100 GA/GALS ]
Beginning LAMARCKIAN GENETIC ALGORITHM (LGA), with a maximum of 25000000 energy evaluations.

Final-Value: -15.714


	FINAL GENETIC ALGORITHM DOCKED STATE
	_______________________________________________


Detailed state:  trans -14.898 -15.202 -1.437 quatxyzw -0.684256 -0.162556 -0.121024 -0.700516 center 0.035 0.082 -0.065 ntor 24 -138.3891 -0.8835 99.7466 131.7137 44.9056 179.6419 -131.8844 41.2136 4.6332 -134.1663 -116.0035 -170.2273 -137.6645 -28.8310 130.7561 69.7632 -86.7642 -5.4145 32.3215 -41.6756 -29.7355 152.5634 -180.0000 139.8763
State:	-14.898 -15.202  -1.437  -0.959 -0.228 -0.170 -91.063   -138.39   -0.88   99.75  131.71   44.91  179.64 -131.88   41.21    4.63 -134.17 -116.00 -170.23 -137.66  -28.83  130.76   69.76  -86.76   -5.41   32.32  -41.68  -29.74  152.56 -180.00  139.88

DOCKED: MODEL       96
DOCKED: USER    Run = 96
DOCKED: USER    DPF = D:/Protein_go_brrr/autodock/final/AncB/IHP/dock.dpf
DOCKED: USER  
DOCKED: USER    Estimated Free Energy of Binding    =   +3.45 kcal/mol  [=(1)+(2)+(3)-(4)]
DOCKED: USER    
DOCKED: USER    (1) Final Intermolecular Energy     =   -3.71 kcal/mol
DOCKED: USER        vdW + Hbond + desolv Energy     =   -3.41 kcal/mol
DOCKED: USER        Electrostatic Energy            =   -0.31 kcal/mol
DOCKED: USER    (2) Final Total Internal Energy     =  -12.00 kcal/mol
DOCKED: USER    (3) Torsional Free Energy           =   +7.16 kcal/mol
DOCKED: USER    (4) Unbound System's Energy  [=(2)] =  -12.00 kcal/mol
DOCKED: USER    
DOCKED: USER    
DOCKED: USER    NEWDPF move IHP_ideal_opt.pdbqt
DOCKED: USER    NEWDPF about 0.035000 0.082000 -0.065000
DOCKED: USER    NEWDPF tran0 -14.897979 -15.202452 -1.436852
DOCKED: USER    NEWDPF quaternion0 -0.684256 -0.162556 -0.121024 -0.700516
DOCKED: USER    NEWDPF axisangle0 -0.958829 -0.227786 -0.169587 -91.063148
DOCKED: USER    NEWDPF quat0 -0.958829 -0.227786 -0.169587 -91.063148
DOCKED: USER    NEWDPF dihe0 -138.39 -0.88 99.75 131.71 44.91 179.64 -131.88 41.21 4.63 -134.17 -116.00 -170.23 -137.66 -28.83 130.76 69.76 -86.76 -5.41 32.32 -41.68 -29.74 152.56 -180.00 139.88 
DOCKED: USER  keepresnum = 1 
DOCKED: USER  
DOCKED: REMARK  24 active torsions:
DOCKED: REMARK  status: ('A' for Active; 'I' for Inactive)
DOCKED: REMARK    1  A    between atoms: C_1  and  O_7 
DOCKED: REMARK    2  A    between atoms: C_2  and  O_12 
DOCKED: REMARK    3  A    between atoms: C_3  and  O_17 
DOCKED: REMARK    4  A    between atoms: C_4  and  O_22 
DOCKED: REMARK    5  A    between atoms: C_5  and  O_27 
DOCKED: REMARK    6  A    between atoms: C_6  and  O_32 
DOCKED: REMARK    7  A    between atoms: O_7  and  P_8 
DOCKED: REMARK    8  A    between atoms: P_8  and  O_10 
DOCKED: REMARK    9  A    between atoms: P_8  and  O_11 
DOCKED: REMARK   10  A    between atoms: O_12  and  P_13 
DOCKED: REMARK   11  A    between atoms: P_13  and  O_15 
DOCKED: REMARK   12  A    between atoms: P_13  and  O_16 
DOCKED: REMARK   13  A    between atoms: O_17  and  P_18 
DOCKED: REMARK   14  A    between atoms: P_18  and  O_20 
DOCKED: REMARK   15  A    between atoms: P_18  and  O_21 
DOCKED: REMARK   16  A    between atoms: O_22  and  P_23 
DOCKED: REMARK   17  A    between atoms: P_23  and  O_25 
DOCKED: REMARK   18  A    between atoms: P_23  and  O_26 
DOCKED: REMARK   19  A    between atoms: O_27  and  P_28 
DOCKED: REMARK   20  A    between atoms: P_28  and  O_30 
DOCKED: REMARK   21  A    between atoms: P_28  and  O_31 
DOCKED: REMARK   22  A    between atoms: O_32  and  P_33 
DOCKED: REMARK   23  A    between atoms: P_33  and  O_35 
DOCKED: REMARK   24  A    between atoms: P_33  and  O_36 
DOCKED: USER                              x       y       z     vdW  Elec       q    Type
DOCKED: USER                           _______ _______ _______ _____ _____    ______ ____
DOCKED: ROOT
DOCKED: ATOM      1  C   UNL d   1     -14.145 -14.377  -0.119 -0.13 +0.05    +0.194 C 
DOCKED: ATOM      2  C   UNL d   1     -15.583 -14.839   0.125 -0.10 +0.04    +0.194 C 
DOCKED: ATOM      3  C   UNL d   1     -16.479 -14.565  -1.084 -0.09 +0.04    +0.194 C 
DOCKED: ATOM      4  C   UNL d   1     -15.911 -15.114  -2.391 -0.05 +0.05    +0.194 C 
DOCKED: ATOM      5  C   UNL d   1     -14.444 -14.774  -2.621 -0.06 +0.07    +0.194 C 
DOCKED: ATOM      6  C   UNL d   1     -13.558 -14.989  -1.392 -0.14 +0.08    +0.194 C 
DOCKED: ENDROOT
DOCKED: BRANCH   1   7
DOCKED: ATOM      7  O   UNL d   1     -13.342 -14.821   0.977 -0.12 -0.13    -0.278 OA
DOCKED: BRANCH   7   8
DOCKED: ATOM      8  P   UNL d   1     -13.180 -13.855   2.239 -0.21 +0.20    +0.473 P 
DOCKED: ATOM      9  O   UNL d   1     -12.088 -12.851   2.129 -0.45 -0.14    -0.228 OA
DOCKED: BRANCH   8  10
DOCKED: ATOM     10  O   UNL d   1     -14.623 -13.198   2.411 -0.18 -0.03    -0.303 OA
DOCKED: ATOM     11  H   UNL d   1     -15.275 -13.891   2.626 +0.07 +0.04    +0.222 HD
DOCKED: ENDBRANCH   8  10
DOCKED: BRANCH   8  12
DOCKED: ATOM     12  O   UNL d   1     -13.106 -14.826   3.495 -0.14 -0.20    -0.303 OA
DOCKED: ATOM     13  H   UNL d   1     -13.794 -15.529   3.480 +0.07 +0.13    +0.222 HD
DOCKED: ENDBRANCH   8  12
DOCKED: ENDBRANCH   7   8
DOCKED: ENDBRANCH   1   7
DOCKED: BRANCH   2  14
DOCKED: ATOM     14  O   UNL d   1     -15.583 -16.249   0.384 -0.02 -0.08    -0.278 OA
DOCKED: BRANCH  14  15
DOCKED: ATOM     15  P   UNL d   1     -15.425 -16.696   1.913 -0.02 +0.16    +0.473 P 
DOCKED: ATOM     16  O   UNL d   1     -15.896 -15.724   2.949 -0.07 -0.07    -0.228 OA
DOCKED: BRANCH  15  17
DOCKED: ATOM     17  O   UNL d   1     -16.184 -18.095   1.988 -0.02 -0.09    -0.303 OA
DOCKED: ATOM     18  H   UNL d   1     -16.498 -18.372   1.106 +0.01 +0.06    +0.222 HD
DOCKED: ENDBRANCH  15  17
DOCKED: BRANCH  15  19
DOCKED: ATOM     19  O   UNL d   1     -13.906 -17.149   2.039 -0.03 -0.15    -0.303 OA
DOCKED: ATOM     20  H   UNL d   1     -13.298 -16.387   2.009 +0.06 +0.13    +0.222 HD
DOCKED: ENDBRANCH  15  19
DOCKED: ENDBRANCH  14  15
DOCKED: ENDBRANCH   2  14
DOCKED: BRANCH   6  21
DOCKED: ATOM     21  O   UNL d   1     -12.326 -14.319  -1.648 -0.21 -0.15    -0.278 OA
DOCKED: BRANCH  21  22
DOCKED: ATOM     22  P   UNL d   1     -10.945 -15.072  -1.385 -0.09 +0.46    +0.473 P 
DOCKED: ATOM     23  O   UNL d   1      -9.717 -14.544  -2.047 -0.46 -0.26    -0.228 OA
DOCKED: BRANCH  22  24
DOCKED: ATOM     24  O   UNL d   1     -10.887 -15.098   0.206 -0.10 -0.35    -0.303 OA
DOCKED: ATOM     25  H   UNL d   1     -11.483 -14.383   0.548 +0.10 +0.19    +0.222 HD
DOCKED: ENDBRANCH  22  24
DOCKED: BRANCH  22  26
DOCKED: ATOM     26  O   UNL d   1     -11.331 -16.590  -1.727 -0.27 -0.29    -0.303 OA
DOCKED: ATOM     27  H   UNL d   1     -12.245 -16.618  -2.077 +0.05 +0.14    +0.222 HD
DOCKED: ENDBRANCH  22  26
DOCKED: ENDBRANCH  21  22
DOCKED: ENDBRANCH   6  21
DOCKED: BRANCH   3  28
DOCKED: ATOM     28  O   UNL d   1     -17.700 -15.266  -0.880 -0.01 -0.05    -0.278 OA
DOCKED: BRANCH  28  29
DOCKED: ATOM     29  P   UNL d   1     -17.925 -16.698  -1.540 +0.00 +0.09    +0.473 P 
DOCKED: ATOM     30  O   UNL d   1     -16.776 -17.634  -1.447 -0.00 -0.05    -0.228 OA
DOCKED: BRANCH  29  31
DOCKED: ATOM     31  O   UNL d   1     -19.279 -17.133  -0.806 +0.00 -0.05    -0.303 OA
DOCKED: ATOM     32  H   UNL d   1     -19.055 -17.470   0.092 +0.00 +0.04    +0.222 HD
DOCKED: ENDBRANCH  29  31
DOCKED: BRANCH  29  33
DOCKED: ATOM     33  O   UNL d   1     -18.426 -16.316  -3.003 +0.00 -0.06    -0.303 OA
DOCKED: ATOM     34  H   UNL d   1     -17.669 -16.402  -3.634 +0.01 +0.05    +0.222 HD
DOCKED: ENDBRANCH  29  33
DOCKED: ENDBRANCH  28  29
DOCKED: ENDBRANCH   3  28
DOCKED: BRANCH   5  35
DOCKED: ATOM     35  O   UNL d   1     -13.990 -15.675  -3.628 -0.04 -0.10    -0.278 OA
DOCKED: BRANCH  35  36
DOCKED: ATOM     36  P   UNL d   1     -14.276 -17.239  -3.496 +0.01 +0.16    +0.473 P 
DOCKED: ATOM     37  O   UNL d   1     -14.077 -17.818  -2.131 -0.00 -0.09    -0.228 OA
DOCKED: BRANCH  36  38
DOCKED: ATOM     38  O   UNL d   1     -15.768 -17.346  -4.041 -0.00 -0.08    -0.303 OA
DOCKED: ATOM     39  H   UNL d   1     -16.368 -16.866  -3.429 +0.01 +0.05    +0.222 HD
DOCKED: ENDBRANCH  36  38
DOCKED: BRANCH  36  40
DOCKED: ATOM     40  O   UNL d   1     -13.395 -17.846  -4.672 +0.00 -0.12    -0.303 OA
DOCKED: ATOM     41  H   UNL d   1     -13.522 -18.817  -4.759 +0.01 +0.08    +0.222 HD
DOCKED: ENDBRANCH  36  40
DOCKED: ENDBRANCH  35  36
DOCKED: ENDBRANCH   5  35
DOCKED: BRANCH   4  42
DOCKED: ATOM     42  O   UNL d   1     -16.655 -14.509  -3.453 -0.03 -0.07    -0.278 OA
DOCKED: BRANCH  42  43
DOCKED: ATOM     43  P   UNL d   1     -17.283 -13.060  -3.227 -0.06 +0.12    +0.473 P 
DOCKED: ATOM     44  O   UNL d   1     -16.457 -12.060  -2.495 -0.70 -0.11    -0.228 OA
DOCKED: BRANCH  43  45
DOCKED: ATOM     45  O   UNL d   1     -17.683 -12.619  -4.703 -0.02 -0.07    -0.303 OA
DOCKED: ATOM     46  H   UNL d   1     -18.214 -11.797  -4.700 +0.02 +0.05    +0.222 HD
DOCKED: ENDBRANCH  43  45
DOCKED: BRANCH  43  47
DOCKED: ATOM     47  O   UNL d   1     -18.716 -13.378  -2.583 -0.02 -0.06    -0.303 OA
DOCKED: ATOM     48  H   UNL d   1     -18.769 -14.333  -2.372 +0.01 +0.04    +0.222 HD
DOCKED: ENDBRANCH  43  47
DOCKED: ENDBRANCH  42  43
DOCKED: ENDBRANCH   4  42
DOCKED: TORSDOF 24
DOCKED: TER
DOCKED: ENDMDL
________________________________________________________________________________


	BEGINNING GENETIC ALGORITHM DOCKING 97 of 100
Run: 97 Seed: 326691534 1605345218 [ Run 97 of 100 GA/GALS ]
Beginning LAMARCKIAN GENETIC ALGORITHM (LGA), with a maximum of 25000000 energy evaluations.

Final-Value: -18.658


	FINAL GENETIC ALGORITHM DOCKED STATE
	_______________________________________________


Detailed state:  trans -5.327 17.572 -6.179 quatxyzw -0.891188 -0.029107 -0.153669 0.425820 center 0.035 0.082 -0.065 ntor 24 46.1679 92.0029 88.4550 101.7074 106.1473 86.9089 -28.5189 108.3079 54.7382 -11.2076 47.0257 108.7638 -72.2801 -75.5324 -171.7146 171.3805 64.2584 179.7548 -143.7835 -31.8591 9.4162 -24.9701 -172.3661 14.3388
State:	 -5.327  17.572  -6.179  -0.985 -0.032 -0.170 129.595     46.17   92.00   88.46  101.71  106.15   86.91  -28.52  108.31   54.74  -11.21   47.03  108.76  -72.28  -75.53 -171.71  171.38   64.26  179.75 -143.78  -31.86    9.42  -24.97 -172.37   14.34

DOCKED: MODEL       97
DOCKED: USER    Run = 97
DOCKED: USER    DPF = D:/Protein_go_brrr/autodock/final/AncB/IHP/dock.dpf
DOCKED: USER  
DOCKED: USER    Estimated Free Energy of Binding    =   +2.89 kcal/mol  [=(1)+(2)+(3)-(4)]
DOCKED: USER    
DOCKED: USER    (1) Final Intermolecular Energy     =   -4.27 kcal/mol
DOCKED: USER        vdW + Hbond + desolv Energy     =   -3.34 kcal/mol
DOCKED: USER        Electrostatic Energy            =   -0.94 kcal/mol
DOCKED: USER    (2) Final Total Internal Energy     =  -14.38 kcal/mol
DOCKED: USER    (3) Torsional Free Energy           =   +7.16 kcal/mol
DOCKED: USER    (4) Unbound System's Energy  [=(2)] =  -14.38 kcal/mol
DOCKED: USER    
DOCKED: USER    
DOCKED: USER    NEWDPF move IHP_ideal_opt.pdbqt
DOCKED: USER    NEWDPF about 0.035000 0.082000 -0.065000
DOCKED: USER    NEWDPF tran0 -5.326716 17.572108 -6.178960
DOCKED: USER    NEWDPF quaternion0 -0.891188 -0.029107 -0.153669 0.425820
DOCKED: USER    NEWDPF axisangle0 -0.984947 -0.032169 -0.169836 129.594804
DOCKED: USER    NEWDPF quat0 -0.984947 -0.032169 -0.169836 129.594804
DOCKED: USER    NEWDPF dihe0 46.17 92.00 88.46 101.71 106.15 86.91 -28.52 108.31 54.74 -11.21 47.03 108.76 -72.28 -75.53 -171.71 171.38 64.26 179.75 -143.78 -31.86 9.42 -24.97 -172.37 14.34 
DOCKED: USER  keepresnum = 1 
DOCKED: USER  
DOCKED: REMARK  24 active torsions:
DOCKED: REMARK  status: ('A' for Active; 'I' for Inactive)
DOCKED: REMARK    1  A    between atoms: C_1  and  O_7 
DOCKED: REMARK    2  A    between atoms: C_2  and  O_12 
DOCKED: REMARK    3  A    between atoms: C_3  and  O_17 
DOCKED: REMARK    4  A    between atoms: C_4  and  O_22 
DOCKED: REMARK    5  A    between atoms: C_5  and  O_27 
DOCKED: REMARK    6  A    between atoms: C_6  and  O_32 
DOCKED: REMARK    7  A    between atoms: O_7  and  P_8 
DOCKED: REMARK    8  A    between atoms: P_8  and  O_10 
DOCKED: REMARK    9  A    between atoms: P_8  and  O_11 
DOCKED: REMARK   10  A    between atoms: O_12  and  P_13 
DOCKED: REMARK   11  A    between atoms: P_13  and  O_15 
DOCKED: REMARK   12  A    between atoms: P_13  and  O_16 
DOCKED: REMARK   13  A    between atoms: O_17  and  P_18 
DOCKED: REMARK   14  A    between atoms: P_18  and  O_20 
DOCKED: REMARK   15  A    between atoms: P_18  and  O_21 
DOCKED: REMARK   16  A    between atoms: O_22  and  P_23 
DOCKED: REMARK   17  A    between atoms: P_23  and  O_25 
DOCKED: REMARK   18  A    between atoms: P_23  and  O_26 
DOCKED: REMARK   19  A    between atoms: O_27  and  P_28 
DOCKED: REMARK   20  A    between atoms: P_28  and  O_30 
DOCKED: REMARK   21  A    between atoms: P_28  and  O_31 
DOCKED: REMARK   22  A    between atoms: O_32  and  P_33 
DOCKED: REMARK   23  A    between atoms: P_33  and  O_35 
DOCKED: REMARK   24  A    between atoms: P_33  and  O_36 
DOCKED: USER                              x       y       z     vdW  Elec       q    Type
DOCKED: USER                           _______ _______ _______ _____ _____    ______ ____
DOCKED: ROOT
DOCKED: ATOM      1  C   UNL d   1      -3.829  17.772  -7.016 -0.13 +0.02    +0.194 C 
DOCKED: ATOM      2  C   UNL d   1      -5.062  18.332  -7.726 -0.05 -0.01    +0.194 C 
DOCKED: ATOM      3  C   UNL d   1      -6.250  17.371  -7.641 -0.06 -0.03    +0.194 C 
DOCKED: ATOM      4  C   UNL d   1      -6.559  16.922  -6.215 -0.08 -0.05    +0.194 C 
DOCKED: ATOM      5  C   UNL d   1      -5.337  16.463  -5.430 -0.03 -0.13    +0.194 C 
DOCKED: ATOM      6  C   UNL d   1      -4.129  17.393  -5.565 -0.16 -0.02    +0.194 C 
DOCKED: ENDROOT
DOCKED: BRANCH   1   7
DOCKED: ATOM      7  O   UNL d   1      -2.827  18.792  -6.990 -0.11 -0.19    -0.278 OA
DOCKED: BRANCH   7   8
DOCKED: ATOM      8  P   UNL d   1      -2.739  19.737  -5.705 -0.02 +0.19    +0.473 P 
DOCKED: ATOM      9  O   UNL d   1      -3.975  19.795  -4.878 -0.01 -0.01    -0.228 OA
DOCKED: BRANCH   8  10
DOCKED: ATOM     10  O   UNL d   1      -1.473  19.186  -4.906 -0.15 -0.28    -0.303 OA
DOCKED: ATOM     11  H   UNL d   1      -1.767  18.772  -4.073 +0.04 +0.13    +0.222 HD
DOCKED: ENDBRANCH   8  10
DOCKED: BRANCH   8  12
DOCKED: ATOM     12  O   UNL d   1      -2.206  21.130  -6.253 -0.00 -0.07    -0.303 OA
DOCKED: ATOM     13  H   UNL d   1      -2.677  21.432  -7.062 +0.01 +0.04    +0.222 HD
DOCKED: ENDBRANCH   8  12
DOCKED: ENDBRANCH   7   8
DOCKED: ENDBRANCH   1   7
DOCKED: BRANCH   2  14
DOCKED: ATOM     14  O   UNL d   1      -5.433  19.572  -7.110 +0.00 -0.01    -0.278 OA
DOCKED: BRANCH  14  15
DOCKED: ATOM     15  P   UNL d   1      -4.969  20.909  -7.858 +0.02 +0.04    +0.473 P 
DOCKED: ATOM     16  O   UNL d   1      -3.837  20.778  -8.829 +0.00 -0.03    -0.228 OA
DOCKED: BRANCH  15  17
DOCKED: ATOM     17  O   UNL d   1      -6.302  21.458  -8.535 +0.00 -0.02    -0.303 OA
DOCKED: ATOM     18  H   UNL d   1      -7.033  20.818  -8.441 +0.00 +0.01    +0.222 HD
DOCKED: ENDBRANCH  15  17
DOCKED: BRANCH  15  19
DOCKED: ATOM     19  O   UNL d   1      -4.748  21.963  -6.686 +0.00 -0.02    -0.303 OA
DOCKED: ATOM     20  H   UNL d   1      -4.298  21.561  -5.921 +0.01 +0.01    +0.222 HD
DOCKED: ENDBRANCH  15  19
DOCKED: ENDBRANCH  14  15
DOCKED: ENDBRANCH   2  14
DOCKED: BRANCH   6  21
DOCKED: ATOM     21  O   UNL d   1      -2.999  16.673  -5.078 -0.49 -0.16    -0.278 OA
DOCKED: BRANCH  21  22
DOCKED: ATOM     22  P   UNL d   1      -2.565  16.820  -3.550 -0.17 +0.01    +0.473 P 
DOCKED: ATOM     23  O   UNL d   1      -1.108  16.860  -3.232 -0.45 -0.09    -0.228 OA
DOCKED: BRANCH  22  24
DOCKED: ATOM     24  O   UNL d   1      -3.381  18.111  -3.102 -0.10 +0.13    -0.303 OA
DOCKED: ATOM     25  H   UNL d   1      -4.282  18.063  -3.513 +0.05 -0.11    +0.222 HD
DOCKED: ENDBRANCH  22  24
DOCKED: BRANCH  22  26
DOCKED: ATOM     26  O   UNL d   1      -3.404  15.641  -2.859 -0.32 +0.39    -0.303 OA
DOCKED: ATOM     27  H   UNL d   1      -4.291  15.977  -2.617 -0.36 -0.54    +0.222 HD
DOCKED: ENDBRANCH  22  26
DOCKED: ENDBRANCH  21  22
DOCKED: ENDBRANCH   6  21
DOCKED: BRANCH   3  28
DOCKED: ATOM     28  O   UNL d   1      -7.405  18.078  -8.073 -0.00 -0.01    -0.278 OA
DOCKED: BRANCH  28  29
DOCKED: ATOM     29  P   UNL d   1      -7.766  18.160  -9.622 +0.02 +0.05    +0.473 P 
DOCKED: ATOM     30  O   UNL d   1      -9.217  18.160  -9.942 +0.00 -0.03    -0.228 OA
DOCKED: BRANCH  29  31
DOCKED: ATOM     31  O   UNL d   1      -6.931  19.461 -10.035 +0.01 -0.03    -0.303 OA
DOCKED: ATOM     32  H   UNL d   1      -6.201  19.585  -9.386 +0.01 +0.02    +0.222 HD
DOCKED: ENDBRANCH  29  31
DOCKED: BRANCH  29  33
DOCKED: ATOM     33  O   UNL d   1      -6.895  16.975 -10.231 -0.01 -0.04    -0.303 OA
DOCKED: ATOM     34  H   UNL d   1      -7.193  16.800 -11.157 +0.01 +0.04    +0.222 HD
DOCKED: ENDBRANCH  29  33
DOCKED: ENDBRANCH  28  29
DOCKED: ENDBRANCH   3  28
DOCKED: BRANCH   5  35
DOCKED: ATOM     35  O   UNL d   1      -5.729  16.480  -4.059 -0.18 +0.24    -0.278 OA
DOCKED: BRANCH  35  36
DOCKED: ATOM     36  P   UNL d   1      -6.604  17.685  -3.487 -0.01 -0.30    +0.473 P 
DOCKED: ATOM     37  O   UNL d   1      -8.026  17.353  -3.164 -0.04 +0.10    -0.228 OA
DOCKED: BRANCH  36  38
DOCKED: ATOM     38  O   UNL d   1      -5.739  18.149  -2.233 -0.02 +0.34    -0.303 OA
DOCKED: ATOM     39  H   UNL d   1      -5.084  17.450  -2.018 -0.47 -0.52    +0.222 HD
DOCKED: ENDBRANCH  36  38
DOCKED: BRANCH  36  40
DOCKED: ATOM     40  O   UNL d   1      -6.357  18.827  -4.567 -0.00 +0.07    -0.303 OA
DOCKED: ATOM     41  H   UNL d   1      -5.398  18.984  -4.717 +0.03 -0.04    +0.222 HD
DOCKED: ENDBRANCH  36  40
DOCKED: ENDBRANCH  35  36
DOCKED: ENDBRANCH   5  35
DOCKED: BRANCH   4  42
DOCKED: ATOM     42  O   UNL d   1      -7.441  15.798  -6.316 -0.12 -0.01    -0.278 OA
DOCKED: BRANCH  42  43
DOCKED: ATOM     43  P   UNL d   1      -9.012  16.036  -6.175 -0.02 +0.10    +0.473 P 
DOCKED: ATOM     44  O   UNL d   1      -9.772  15.097  -5.303 -0.04 -0.05    -0.228 OA
DOCKED: BRANCH  43  45
DOCKED: ATOM     45  O   UNL d   1      -9.095  17.558  -5.720 +0.00 -0.00    -0.303 OA
DOCKED: ATOM     46  H   UNL d   1      -8.281  17.839  -5.257 +0.02 -0.02    +0.222 HD
DOCKED: ENDBRANCH  43  45
DOCKED: BRANCH  43  47
DOCKED: ATOM     47  O   UNL d   1      -9.508  16.122  -7.696 -0.03 -0.10    -0.303 OA
DOCKED: ATOM     48  H   UNL d   1      -9.211  16.971  -8.085 +0.02 +0.05    +0.222 HD
DOCKED: ENDBRANCH  43  47
DOCKED: ENDBRANCH  42  43
DOCKED: ENDBRANCH   4  42
DOCKED: TORSDOF 24
DOCKED: TER
DOCKED: ENDMDL
________________________________________________________________________________


	BEGINNING GENETIC ALGORITHM DOCKING 98 of 100
Run: 98 Seed: 1910217375 302713522 [ Run 98 of 100 GA/GALS ]
Beginning LAMARCKIAN GENETIC ALGORITHM (LGA), with a maximum of 25000000 energy evaluations.

Final-Value: -17.434


	FINAL GENETIC ALGORITHM DOCKED STATE
	_______________________________________________


Detailed state:  trans 16.387 -9.169 -8.963 quatxyzw 0.562137 -0.389218 0.651242 0.329232 center 0.035 0.082 -0.065 ntor 24 -133.2645 -81.0934 10.5851 106.9373 83.9013 -111.6607 -115.3337 -59.5886 8.6943 40.4595 80.4550 -138.4431 -144.6541 -85.7229 130.0467 23.8285 158.6802 105.6812 -172.7435 24.2868 -4.7103 13.1468 -16.6957 -2.4006
State:	 16.387  -9.169  -8.963   0.595 -0.412  0.690 141.556   -133.26  -81.09   10.59  106.94   83.90 -111.66 -115.33  -59.59    8.69   40.46   80.46 -138.44 -144.65  -85.72  130.05   23.83  158.68  105.68 -172.74   24.29   -4.71   13.15  -16.70   -2.40

DOCKED: MODEL       98
DOCKED: USER    Run = 98
DOCKED: USER    DPF = D:/Protein_go_brrr/autodock/final/AncB/IHP/dock.dpf
DOCKED: USER  
DOCKED: USER    Estimated Free Energy of Binding    =   +4.43 kcal/mol  [=(1)+(2)+(3)-(4)]
DOCKED: USER    
DOCKED: USER    (1) Final Intermolecular Energy     =   -2.73 kcal/mol
DOCKED: USER        vdW + Hbond + desolv Energy     =   -2.64 kcal/mol
DOCKED: USER        Electrostatic Energy            =   -0.09 kcal/mol
DOCKED: USER    (2) Final Total Internal Energy     =  -14.71 kcal/mol
DOCKED: USER    (3) Torsional Free Energy           =   +7.16 kcal/mol
DOCKED: USER    (4) Unbound System's Energy  [=(2)] =  -14.71 kcal/mol
DOCKED: USER    
DOCKED: USER    
DOCKED: USER    NEWDPF move IHP_ideal_opt.pdbqt
DOCKED: USER    NEWDPF about 0.035000 0.082000 -0.065000
DOCKED: USER    NEWDPF tran0 16.387177 -9.169072 -8.963146
DOCKED: USER    NEWDPF quaternion0 0.562137 -0.389218 0.651242 0.329232
DOCKED: USER    NEWDPF axisangle0 0.595328 -0.412199 0.689694 141.555653
DOCKED: USER    NEWDPF quat0 0.595328 -0.412199 0.689694 141.555653
DOCKED: USER    NEWDPF dihe0 -133.26 -81.09 10.59 106.94 83.90 -111.66 -115.33 -59.59 8.69 40.46 80.46 -138.44 -144.65 -85.72 130.05 23.83 158.68 105.68 -172.74 24.29 -4.71 13.15 -16.70 -2.40 
DOCKED: USER  keepresnum = 1 
DOCKED: USER  
DOCKED: REMARK  24 active torsions:
DOCKED: REMARK  status: ('A' for Active; 'I' for Inactive)
DOCKED: REMARK    1  A    between atoms: C_1  and  O_7 
DOCKED: REMARK    2  A    between atoms: C_2  and  O_12 
DOCKED: REMARK    3  A    between atoms: C_3  and  O_17 
DOCKED: REMARK    4  A    between atoms: C_4  and  O_22 
DOCKED: REMARK    5  A    between atoms: C_5  and  O_27 
DOCKED: REMARK    6  A    between atoms: C_6  and  O_32 
DOCKED: REMARK    7  A    between atoms: O_7  and  P_8 
DOCKED: REMARK    8  A    between atoms: P_8  and  O_10 
DOCKED: REMARK    9  A    between atoms: P_8  and  O_11 
DOCKED: REMARK   10  A    between atoms: O_12  and  P_13 
DOCKED: REMARK   11  A    between atoms: P_13  and  O_15 
DOCKED: REMARK   12  A    between atoms: P_13  and  O_16 
DOCKED: REMARK   13  A    between atoms: O_17  and  P_18 
DOCKED: REMARK   14  A    between atoms: P_18  and  O_20 
DOCKED: REMARK   15  A    between atoms: P_18  and  O_21 
DOCKED: REMARK   16  A    between atoms: O_22  and  P_23 
DOCKED: REMARK   17  A    between atoms: P_23  and  O_25 
DOCKED: REMARK   18  A    between atoms: P_23  and  O_26 
DOCKED: REMARK   19  A    between atoms: O_27  and  P_28 
DOCKED: REMARK   20  A    between atoms: P_28  and  O_30 
DOCKED: REMARK   21  A    between atoms: P_28  and  O_31 
DOCKED: REMARK   22  A    between atoms: O_32  and  P_33 
DOCKED: REMARK   23  A    between atoms: P_33  and  O_35 
DOCKED: REMARK   24  A    between atoms: P_33  and  O_36 
DOCKED: USER                              x       y       z     vdW  Elec       q    Type
DOCKED: USER                           _______ _______ _______ _____ _____    ______ ____
DOCKED: ROOT
DOCKED: ATOM      1  C   UNL d   1      16.987  -9.936  -7.537 -0.02 +0.05    +0.194 C 
DOCKED: ATOM      2  C   UNL d   1      16.818  -8.419  -7.449 -0.06 +0.08    +0.194 C 
DOCKED: ATOM      3  C   UNL d   1      17.318  -7.719  -8.715 -0.06 +0.09    +0.194 C 
DOCKED: ATOM      4  C   UNL d   1      16.719  -8.294  -9.996 -0.04 +0.12    +0.194 C 
DOCKED: ATOM      5  C   UNL d   1      16.762  -9.815 -10.074 -0.04 +0.08    +0.194 C 
DOCKED: ATOM      6  C   UNL d   1      16.321 -10.513  -8.786 -0.03 +0.07    +0.194 C 
DOCKED: ENDROOT
DOCKED: BRANCH   1   7
DOCKED: ATOM      7  O   UNL d   1      16.345 -10.523  -6.402 -0.01 -0.04    -0.278 OA
DOCKED: BRANCH   7   8
DOCKED: ATOM      8  P   UNL d   1      14.761 -10.371  -6.264 -0.05 +0.05    +0.473 P 
DOCKED: ATOM      9  O   UNL d   1      14.306  -9.203  -5.461 -0.13 +0.01    -0.228 OA
DOCKED: BRANCH   8  10
DOCKED: ATOM     10  O   UNL d   1      14.243 -10.336  -7.772 -0.56 -0.21    -0.303 OA
DOCKED: ATOM     11  H   UNL d   1      14.367 -11.213  -8.181 +0.03 +0.09    +0.222 HD
DOCKED: ENDBRANCH   8  10
DOCKED: BRANCH   8  12
DOCKED: ATOM     12  O   UNL d   1      14.251 -11.792  -5.770 -0.03 +0.05    -0.303 OA
DOCKED: ATOM     13  H   UNL d   1      13.543 -12.167  -6.341 +0.03 -0.04    +0.222 HD
DOCKED: ENDBRANCH   8  12
DOCKED: ENDBRANCH   7   8
DOCKED: ENDBRANCH   1   7
DOCKED: BRANCH   2  14
DOCKED: ATOM     14  O   UNL d   1      15.429  -8.113  -7.277 -0.07 -0.19    -0.278 OA
DOCKED: BRANCH  14  15
DOCKED: ATOM     15  P   UNL d   1      15.086  -6.710  -6.585 -0.14 +0.27    +0.473 P 
DOCKED: ATOM     16  O   UNL d   1      16.080  -6.187  -5.595 -0.20 -0.07    -0.228 OA
DOCKED: BRANCH  15  17
DOCKED: ATOM     17  O   UNL d   1      14.855  -5.719  -7.811 -0.25 -0.27    -0.303 OA
DOCKED: ATOM     18  H   UNL d   1      15.701  -5.344  -8.124 +0.08 +0.15    +0.222 HD
DOCKED: ENDBRANCH  15  17
DOCKED: BRANCH  15  19
DOCKED: ATOM     19  O   UNL d   1      13.603  -6.890  -6.037 -0.28 -0.16    -0.303 OA
DOCKED: ATOM     20  H   UNL d   1      13.496  -7.732  -5.556 +0.10 +0.04    +0.222 HD
DOCKED: ENDBRANCH  15  19
DOCKED: ENDBRANCH  14  15
DOCKED: ENDBRANCH   2  14
DOCKED: BRANCH   6  21
DOCKED: ATOM     21  O   UNL d   1      16.737 -11.873  -8.892 +0.00 -0.05    -0.278 OA
DOCKED: BRANCH  21  22
DOCKED: ATOM     22  P   UNL d   1      15.652 -13.015  -9.149 +0.02 +0.07    +0.473 P 
DOCKED: ATOM     23  O   UNL d   1      16.121 -14.322  -9.693 +0.00 -0.02    -0.228 OA
DOCKED: BRANCH  22  24
DOCKED: ATOM     24  O   UNL d   1      14.930 -13.102  -7.733 +0.00 -0.02    -0.303 OA
DOCKED: ATOM     25  H   UNL d   1      15.138 -12.274  -7.230 +0.02 +0.02    +0.222 HD
DOCKED: ENDBRANCH  22  24
DOCKED: BRANCH  22  26
DOCKED: ATOM     26  O   UNL d   1      14.562 -12.237 -10.030 -0.01 -0.08    -0.303 OA
DOCKED: ATOM     27  H   UNL d   1      14.911 -12.112 -10.936 +0.01 +0.05    +0.222 HD
DOCKED: ENDBRANCH  22  26
DOCKED: ENDBRANCH  21  22
DOCKED: ENDBRANCH   6  21
DOCKED: BRANCH   3  28
DOCKED: ATOM     28  O   UNL d   1      16.873  -6.370  -8.663 -0.12 -0.15    -0.278 OA
DOCKED: BRANCH  28  29
DOCKED: ATOM     29  P   UNL d   1      17.920  -5.173  -8.762 -0.05 +0.17    +0.473 P 
DOCKED: ATOM     30  O   UNL d   1      19.346  -5.576  -8.859 -0.02 -0.05    -0.228 OA
DOCKED: BRANCH  29  31
DOCKED: ATOM     31  O   UNL d   1      17.307  -4.369 -10.003 -0.08 -0.12    -0.303 OA
DOCKED: ATOM     32  H   UNL d   1      17.351  -4.943 -10.802 +0.05 +0.09    +0.222 HD
DOCKED: ENDBRANCH  29  31
DOCKED: BRANCH  29  33
DOCKED: ATOM     33  O   UNL d   1      17.510  -4.267  -7.519 -0.10 -0.12    -0.303 OA
DOCKED: ATOM     34  H   UNL d   1      16.743  -4.684  -7.056 +0.11 +0.11    +0.222 HD
DOCKED: ENDBRANCH  29  33
DOCKED: ENDBRANCH  28  29
DOCKED: ENDBRANCH   3  28
DOCKED: BRANCH   5  35
DOCKED: ATOM     35  O   UNL d   1      15.829 -10.177 -11.089 -0.04 -0.12    -0.278 OA
DOCKED: BRANCH  35  36
DOCKED: ATOM     36  P   UNL d   1      16.335 -10.850 -12.444 +0.01 +0.11    +0.473 P 
DOCKED: ATOM     37  O   UNL d   1      15.420 -10.703 -13.618 -0.00 -0.05    -0.228 OA
DOCKED: BRANCH  36  38
DOCKED: ATOM     38  O   UNL d   1      17.760 -10.166 -12.636 +0.00 -0.06    -0.303 OA
DOCKED: ATOM     39  H   UNL d   1      17.641  -9.196 -12.727 +0.01 +0.05    +0.222 HD
DOCKED: ENDBRANCH  36  38
DOCKED: BRANCH  36  40
DOCKED: ATOM     40  O   UNL d   1      16.681 -12.331 -11.979 +0.00 -0.05    -0.303 OA
DOCKED: ATOM     41  H   UNL d   1      16.525 -12.457 -11.017 +0.01 +0.04    +0.222 HD
DOCKED: ENDBRANCH  36  40
DOCKED: ENDBRANCH  35  36
DOCKED: ENDBRANCH   5  35
DOCKED: BRANCH   4  42
DOCKED: ATOM     42  O   UNL d   1      17.506  -7.794 -11.083 -0.03 -0.11    -0.278 OA
DOCKED: BRANCH  42  43
DOCKED: ATOM     43  P   UNL d   1      16.835  -6.787 -12.122 -0.04 +0.20    +0.473 P 
DOCKED: ATOM     44  O   UNL d   1      17.727  -5.806 -12.801 -0.02 -0.06    -0.228 OA
DOCKED: BRANCH  43  45
DOCKED: ATOM     45  O   UNL d   1      16.071  -7.768 -13.115 -0.03 -0.11    -0.303 OA
DOCKED: ATOM     46  H   UNL d   1      16.095  -8.692 -12.795 +0.02 +0.08    +0.222 HD
DOCKED: ENDBRANCH  43  45
DOCKED: BRANCH  43  47
DOCKED: ATOM     47  O   UNL d   1      15.620  -6.156 -11.288 -0.67 -0.26    -0.303 OA
DOCKED: ATOM     48  H   UNL d   1      15.915  -5.980 -10.371 +0.05 +0.20    +0.222 HD
DOCKED: ENDBRANCH  43  47
DOCKED: ENDBRANCH  42  43
DOCKED: ENDBRANCH   4  42
DOCKED: TORSDOF 24
DOCKED: TER
DOCKED: ENDMDL
________________________________________________________________________________


	BEGINNING GENETIC ALGORITHM DOCKING 99 of 100
Run: 99 Seed: 491384719 1479144080 [ Run 99 of 100 GA/GALS ]
Beginning LAMARCKIAN GENETIC ALGORITHM (LGA), with a maximum of 25000000 energy evaluations.

Final-Value: -19.910


	FINAL GENETIC ALGORITHM DOCKED STATE
	_______________________________________________


Detailed state:  trans 7.360 -4.200 -17.774 quatxyzw 0.717653 -0.554620 -0.357877 -0.222026 center 0.035 0.082 -0.065 ntor 24 102.2392 63.3930 31.9810 17.9142 -11.6280 -105.2178 -68.0532 -5.2757 -40.3073 1.9168 9.6572 -103.7983 -49.3648 175.9269 -64.8313 38.3406 -85.5653 -63.6711 51.7584 -9.0072 -174.0892 -15.2871 -146.2756 35.4828
State:	  7.360  -4.200 -17.774   0.736 -0.569 -0.367 -154.344    102.24   63.39   31.98   17.91  -11.63 -105.22  -68.05   -5.28  -40.31    1.92    9.66 -103.80  -49.36  175.93  -64.83   38.34  -85.57  -63.67   51.76   -9.01 -174.09  -15.29 -146.28   35.48

DOCKED: MODEL       99
DOCKED: USER    Run = 99
DOCKED: USER    DPF = D:/Protein_go_brrr/autodock/final/AncB/IHP/dock.dpf
DOCKED: USER  
DOCKED: USER    Estimated Free Energy of Binding    =   +1.17 kcal/mol  [=(1)+(2)+(3)-(4)]
DOCKED: USER    
DOCKED: USER    (1) Final Intermolecular Energy     =   -5.99 kcal/mol
DOCKED: USER        vdW + Hbond + desolv Energy     =   -5.75 kcal/mol
DOCKED: USER        Electrostatic Energy            =   -0.24 kcal/mol
DOCKED: USER    (2) Final Total Internal Energy     =  -13.92 kcal/mol
DOCKED: USER    (3) Torsional Free Energy           =   +7.16 kcal/mol
DOCKED: USER    (4) Unbound System's Energy  [=(2)] =  -13.92 kcal/mol
DOCKED: USER    
DOCKED: USER    
DOCKED: USER    NEWDPF move IHP_ideal_opt.pdbqt
DOCKED: USER    NEWDPF about 0.035000 0.082000 -0.065000
DOCKED: USER    NEWDPF tran0 7.359509 -4.199716 -17.773531
DOCKED: USER    NEWDPF quaternion0 0.717653 -0.554620 -0.357877 -0.222026
DOCKED: USER    NEWDPF axisangle0 0.736023 -0.568817 -0.367038 -154.343874
DOCKED: USER    NEWDPF quat0 0.736023 -0.568817 -0.367038 -154.343874
DOCKED: USER    NEWDPF dihe0 102.24 63.39 31.98 17.91 -11.63 -105.22 -68.05 -5.28 -40.31 1.92 9.66 -103.80 -49.36 175.93 -64.83 38.34 -85.57 -63.67 51.76 -9.01 -174.09 -15.29 -146.28 35.48 
DOCKED: USER  keepresnum = 1 
DOCKED: USER  
DOCKED: REMARK  24 active torsions:
DOCKED: REMARK  status: ('A' for Active; 'I' for Inactive)
DOCKED: REMARK    1  A    between atoms: C_1  and  O_7 
DOCKED: REMARK    2  A    between atoms: C_2  and  O_12 
DOCKED: REMARK    3  A    between atoms: C_3  and  O_17 
DOCKED: REMARK    4  A    between atoms: C_4  and  O_22 
DOCKED: REMARK    5  A    between atoms: C_5  and  O_27 
DOCKED: REMARK    6  A    between atoms: C_6  and  O_32 
DOCKED: REMARK    7  A    between atoms: O_7  and  P_8 
DOCKED: REMARK    8  A    between atoms: P_8  and  O_10 
DOCKED: REMARK    9  A    between atoms: P_8  and  O_11 
DOCKED: REMARK   10  A    between atoms: O_12  and  P_13 
DOCKED: REMARK   11  A    between atoms: P_13  and  O_15 
DOCKED: REMARK   12  A    between atoms: P_13  and  O_16 
DOCKED: REMARK   13  A    between atoms: O_17  and  P_18 
DOCKED: REMARK   14  A    between atoms: P_18  and  O_20 
DOCKED: REMARK   15  A    between atoms: P_18  and  O_21 
DOCKED: REMARK   16  A    between atoms: O_22  and  P_23 
DOCKED: REMARK   17  A    between atoms: P_23  and  O_25 
DOCKED: REMARK   18  A    between atoms: P_23  and  O_26 
DOCKED: REMARK   19  A    between atoms: O_27  and  P_28 
DOCKED: REMARK   20  A    between atoms: P_28  and  O_30 
DOCKED: REMARK   21  A    between atoms: P_28  and  O_31 
DOCKED: REMARK   22  A    between atoms: O_32  and  P_33 
DOCKED: REMARK   23  A    between atoms: P_33  and  O_35 
DOCKED: REMARK   24  A    between atoms: P_33  and  O_36 
DOCKED: USER                              x       y       z     vdW  Elec       q    Type
DOCKED: USER                           _______ _______ _______ _____ _____    ______ ____
DOCKED: ROOT
DOCKED: ATOM      1  C   UNL d   1       7.485  -5.080 -19.254 -0.01 +0.03    +0.194 C 
DOCKED: ATOM      2  C   UNL d   1       8.117  -3.687 -19.258 -0.01 +0.03    +0.194 C 
DOCKED: ATOM      3  C   UNL d   1       7.222  -2.657 -18.568 -0.03 +0.04    +0.194 C 
DOCKED: ATOM      4  C   UNL d   1       6.777  -3.085 -17.171 -0.08 +0.03    +0.194 C 
DOCKED: ATOM      5  C   UNL d   1       6.246  -4.511 -17.100 -0.11 +0.02    +0.194 C 
DOCKED: ATOM      6  C   UNL d   1       7.110  -5.532 -17.843 -0.06 +0.02    +0.194 C 
DOCKED: ENDROOT
DOCKED: BRANCH   1   7
DOCKED: ATOM      7  O   UNL d   1       8.449  -6.009 -19.757 -0.00 -0.04    -0.278 OA
DOCKED: BRANCH   7   8
DOCKED: ATOM      8  P   UNL d   1       8.815  -5.956 -21.311 +0.00 +0.06    +0.473 P 
DOCKED: ATOM      9  O   UNL d   1       8.134  -4.883 -22.084 +0.00 -0.03    -0.228 OA
DOCKED: BRANCH   8  10
DOCKED: ATOM     10  O   UNL d   1      10.406  -5.830 -21.330 +0.00 -0.04    -0.303 OA
DOCKED: ATOM     11  H   UNL d   1      10.679  -5.056 -20.803 +0.00 +0.03    +0.222 HD
DOCKED: ENDBRANCH   8  10
DOCKED: BRANCH   8  12
DOCKED: ATOM     12  O   UNL d   1       8.593  -7.439 -21.838 +0.00 -0.04    -0.303 OA
DOCKED: ATOM     13  H   UNL d   1       8.034  -7.981 -21.238 +0.01 +0.03    +0.222 HD
DOCKED: ENDBRANCH   8  12
DOCKED: ENDBRANCH   7   8
DOCKED: ENDBRANCH   1   7
DOCKED: BRANCH   2  14
DOCKED: ATOM     14  O   UNL d   1       9.370  -3.741 -18.564 -0.02 -0.05    -0.278 OA
DOCKED: BRANCH  14  15
DOCKED: ATOM     15  P   UNL d   1      10.664  -3.273 -19.384 -0.01 +0.10    +0.473 P 
DOCKED: ATOM     16  O   UNL d   1      11.827  -4.214 -19.397 -0.01 -0.04    -0.228 OA
DOCKED: BRANCH  15  17
DOCKED: ATOM     17  O   UNL d   1      10.105  -2.961 -20.843 -0.00 -0.06    -0.303 OA
DOCKED: ATOM     18  H   UNL d   1       9.753  -3.769 -21.265 +0.00 +0.04    +0.222 HD
DOCKED: ENDBRANCH  15  17
DOCKED: BRANCH  15  19
DOCKED: ATOM     19  O   UNL d   1      10.970  -1.810 -18.840 -0.54 -0.14    -0.303 OA
DOCKED: ATOM     20  H   UNL d   1      10.154  -1.289 -18.728 +0.06 +0.13    +0.222 HD
DOCKED: ENDBRANCH  15  19
DOCKED: ENDBRANCH  14  15
DOCKED: ENDBRANCH   2  14
DOCKED: BRANCH   6  21
DOCKED: ATOM     21  O   UNL d   1       6.326  -6.716 -17.977 -0.10 -0.01    -0.278 OA
DOCKED: BRANCH  21  22
DOCKED: ATOM     22  P   UNL d   1       5.284  -6.843 -19.178 -0.06 +0.03    +0.473 P 
DOCKED: ATOM     23  O   UNL d   1       4.573  -5.611 -19.628 -0.04 -0.03    -0.228 OA
DOCKED: BRANCH  22  24
DOCKED: ATOM     24  O   UNL d   1       6.164  -7.552 -20.299 -0.02 -0.03    -0.303 OA
DOCKED: ATOM     25  H   UNL d   1       6.754  -6.868 -20.707 +0.02 +0.03    +0.222 HD
DOCKED: ENDBRANCH  22  24
DOCKED: BRANCH  22  26
DOCKED: ATOM     26  O   UNL d   1       4.353  -8.048 -18.676 -0.08 +0.03    -0.303 OA
DOCKED: ATOM     27  H   UNL d   1       3.698  -7.703 -18.036 -0.51 -0.10    +0.222 HD
DOCKED: ENDBRANCH  22  26
DOCKED: ENDBRANCH  21  22
DOCKED: ENDBRANCH   6  21
DOCKED: BRANCH   3  28
DOCKED: ATOM     28  O   UNL d   1       7.995  -1.479 -18.373 -0.08 -0.05    -0.278 OA
DOCKED: BRANCH  28  29
DOCKED: ATOM     29  P   UNL d   1       7.927  -0.289 -19.429 -0.10 +0.11    +0.473 P 
DOCKED: ATOM     30  O   UNL d   1       6.827  -0.375 -20.423 -0.04 -0.06    -0.228 OA
DOCKED: BRANCH  29  31
DOCKED: ATOM     31  O   UNL d   1       7.912   0.965 -18.435 -0.21 -0.10    -0.303 OA
DOCKED: ATOM     32  H   UNL d   1       7.682   0.647 -17.532 -0.10 +0.07    +0.222 HD
DOCKED: ENDBRANCH  29  31
DOCKED: BRANCH  29  33
DOCKED: ATOM     33  O   UNL d   1       9.413  -0.266 -20.001 -0.08 -0.07    -0.303 OA
DOCKED: ATOM     34  H   UNL d   1       9.647  -1.171 -20.323 +0.03 +0.05    +0.222 HD
DOCKED: ENDBRANCH  29  33
DOCKED: ENDBRANCH  28  29
DOCKED: ENDBRANCH   3  28
DOCKED: BRANCH   5  35
DOCKED: ATOM     35  O   UNL d   1       6.272  -4.865 -15.718 -0.20 -0.02    -0.278 OA
DOCKED: BRANCH  35  36
DOCKED: ATOM     36  P   UNL d   1       7.121  -3.999 -14.682 -0.24 +0.05    +0.473 P 
DOCKED: ATOM     37  O   UNL d   1       8.465  -3.553 -15.163 -0.28 -0.03    -0.228 OA
DOCKED: BRANCH  36  38
DOCKED: ATOM     38  O   UNL d   1       6.116  -2.809 -14.352 -0.22 -0.02    -0.303 OA
DOCKED: ATOM     39  H   UNL d   1       6.463  -1.978 -14.742 -0.32 -0.03    +0.222 HD
DOCKED: ENDBRANCH  36  38
DOCKED: BRANCH  36  40
DOCKED: ATOM     40  O   UNL d   1       7.086  -4.904 -13.374 -0.22 +0.00    -0.303 OA
DOCKED: ATOM     41  H   UNL d   1       6.204  -5.318 -13.242 -0.45 -0.08    +0.222 HD
DOCKED: ENDBRANCH  36  40
DOCKED: ENDBRANCH  35  36
DOCKED: ENDBRANCH   5  35
DOCKED: BRANCH   4  42
DOCKED: ATOM     42  O   UNL d   1       5.704  -2.217 -16.792 -0.07 -0.05    -0.278 OA
DOCKED: BRANCH  42  43
DOCKED: ATOM     43  P   UNL d   1       6.043  -0.723 -16.345 -0.15 +0.09    +0.473 P 
DOCKED: ATOM     44  O   UNL d   1       7.448  -0.426 -15.952 -0.39 -0.02    -0.228 OA
DOCKED: BRANCH  43  45
DOCKED: ATOM     45  O   UNL d   1       5.515   0.137 -17.575 -0.55 -0.14    -0.303 OA
DOCKED: ATOM     46  H   UNL d   1       6.008  -0.069 -18.394 +0.06 +0.09    +0.222 HD
DOCKED: ENDBRANCH  43  45
DOCKED: BRANCH  43  47
DOCKED: ATOM     47  O   UNL d   1       4.932  -0.414 -15.231 -0.15 -0.04    -0.303 OA
DOCKED: ATOM     48  H   UNL d   1       5.166  -0.883 -14.403 -0.38 -0.03    +0.222 HD
DOCKED: ENDBRANCH  43  47
DOCKED: ENDBRANCH  42  43
DOCKED: ENDBRANCH   4  42
DOCKED: TORSDOF 24
DOCKED: TER
DOCKED: ENDMDL
________________________________________________________________________________


	BEGINNING GENETIC ALGORITHM DOCKING 100 of 100
Run: 100 Seed: 606108084 1685406586 [ Run 100 of 100 GA/GALS ]
Beginning LAMARCKIAN GENETIC ALGORITHM (LGA), with a maximum of 25000000 energy evaluations.

Final-Value: -18.501


	FINAL GENETIC ALGORITHM DOCKED STATE
	_______________________________________________


Detailed state:  trans -18.009 -2.444 9.565 quatxyzw -0.817756 -0.259663 0.074660 -0.508209 center 0.035 0.082 -0.065 ntor 24 136.6691 126.0924 75.8802 46.8080 -8.8440 169.6478 -138.2620 -32.6372 43.3941 -17.5554 -57.5776 -42.8927 -38.5461 156.4639 -179.7700 61.1765 159.3980 -94.7329 35.7683 -16.5339 167.2830 155.5872 -7.2909 152.3312
State:	-18.009  -2.444   9.565  -0.950 -0.302  0.087 -118.911    136.67  126.09   75.88   46.81   -8.84  169.65 -138.26  -32.64   43.39  -17.56  -57.58  -42.89  -38.55  156.46 -179.77   61.18  159.40  -94.73   35.77  -16.53  167.28  155.59   -7.29  152.33

DOCKED: MODEL      100
DOCKED: USER    Run = 100
DOCKED: USER    DPF = D:/Protein_go_brrr/autodock/final/AncB/IHP/dock.dpf
DOCKED: USER  
DOCKED: USER    Estimated Free Energy of Binding    =   +1.34 kcal/mol  [=(1)+(2)+(3)-(4)]
DOCKED: USER    
DOCKED: USER    (1) Final Intermolecular Energy     =   -5.82 kcal/mol
DOCKED: USER        vdW + Hbond + desolv Energy     =   -5.68 kcal/mol
DOCKED: USER        Electrostatic Energy            =   -0.14 kcal/mol
DOCKED: USER    (2) Final Total Internal Energy     =  -12.68 kcal/mol
DOCKED: USER    (3) Torsional Free Energy           =   +7.16 kcal/mol
DOCKED: USER    (4) Unbound System's Energy  [=(2)] =  -12.68 kcal/mol
DOCKED: USER    
DOCKED: USER    
DOCKED: USER    NEWDPF move IHP_ideal_opt.pdbqt
DOCKED: USER    NEWDPF about 0.035000 0.082000 -0.065000
DOCKED: USER    NEWDPF tran0 -18.009221 -2.444440 9.565443
DOCKED: USER    NEWDPF quaternion0 -0.817756 -0.259663 0.074660 -0.508209
DOCKED: USER    NEWDPF axisangle0 -0.949517 -0.301501 0.086689 -118.910748
DOCKED: USER    NEWDPF quat0 -0.949517 -0.301501 0.086689 -118.910748
DOCKED: USER    NEWDPF dihe0 136.67 126.09 75.88 46.81 -8.84 169.65 -138.26 -32.64 43.39 -17.56 -57.58 -42.89 -38.55 156.46 -179.77 61.18 159.40 -94.73 35.77 -16.53 167.28 155.59 -7.29 152.33 
DOCKED: USER  keepresnum = 1 
DOCKED: USER  
DOCKED: REMARK  24 active torsions:
DOCKED: REMARK  status: ('A' for Active; 'I' for Inactive)
DOCKED: REMARK    1  A    between atoms: C_1  and  O_7 
DOCKED: REMARK    2  A    between atoms: C_2  and  O_12 
DOCKED: REMARK    3  A    between atoms: C_3  and  O_17 
DOCKED: REMARK    4  A    between atoms: C_4  and  O_22 
DOCKED: REMARK    5  A    between atoms: C_5  and  O_27 
DOCKED: REMARK    6  A    between atoms: C_6  and  O_32 
DOCKED: REMARK    7  A    between atoms: O_7  and  P_8 
DOCKED: REMARK    8  A    between atoms: P_8  and  O_10 
DOCKED: REMARK    9  A    between atoms: P_8  and  O_11 
DOCKED: REMARK   10  A    between atoms: O_12  and  P_13 
DOCKED: REMARK   11  A    between atoms: P_13  and  O_15 
DOCKED: REMARK   12  A    between atoms: P_13  and  O_16 
DOCKED: REMARK   13  A    between atoms: O_17  and  P_18 
DOCKED: REMARK   14  A    between atoms: P_18  and  O_20 
DOCKED: REMARK   15  A    between atoms: P_18  and  O_21 
DOCKED: REMARK   16  A    between atoms: O_22  and  P_23 
DOCKED: REMARK   17  A    between atoms: P_23  and  O_25 
DOCKED: REMARK   18  A    between atoms: P_23  and  O_26 
DOCKED: REMARK   19  A    between atoms: O_27  and  P_28 
DOCKED: REMARK   20  A    between atoms: P_28  and  O_30 
DOCKED: REMARK   21  A    between atoms: P_28  and  O_31 
DOCKED: REMARK   22  A    between atoms: O_32  and  P_33 
DOCKED: REMARK   23  A    between atoms: P_33  and  O_35 
DOCKED: REMARK   24  A    between atoms: P_33  and  O_36 
DOCKED: USER                              x       y       z     vdW  Elec       q    Type
DOCKED: USER                           _______ _______ _______ _____ _____    ______ ____
DOCKED: ROOT
DOCKED: ATOM      1  C   UNL d   1     -17.554  -0.881  10.142 -0.15 +0.05    +0.194 C 
DOCKED: ATOM      2  C   UNL d   1     -18.758  -1.518  10.839 -0.09 +0.05    +0.194 C 
DOCKED: ATOM      3  C   UNL d   1     -19.708  -2.178   9.838 -0.04 +0.05    +0.194 C 
DOCKED: ATOM      4  C   UNL d   1     -19.005  -3.152   8.894 -0.10 +0.08    +0.194 C 
DOCKED: ATOM      5  C   UNL d   1     -17.734  -2.597   8.265 -0.16 +0.07    +0.194 C 
DOCKED: ATOM      6  C   UNL d   1     -16.813  -1.882   9.255 -0.10 +0.08    +0.194 C 
DOCKED: ENDROOT
DOCKED: BRANCH   1   7
DOCKED: ATOM      7  O   UNL d   1     -16.638  -0.442  11.148 -0.15 -0.06    -0.278 OA
DOCKED: BRANCH   7   8
DOCKED: ATOM      8  P   UNL d   1     -16.839   1.013  11.775 -0.20 +0.02    +0.473 P 
DOCKED: ATOM      9  O   UNL d   1     -18.145   1.658  11.468 -0.07 -0.01    -0.228 OA
DOCKED: BRANCH   8  10
DOCKED: ATOM     10  O   UNL d   1     -16.597   0.798  13.337 -0.27 -0.00    -0.303 OA
DOCKED: ATOM     11  H   UNL d   1     -16.727  -0.143  13.561 +0.08 +0.01    +0.222 HD
DOCKED: ENDBRANCH   8  10
DOCKED: BRANCH   8  12
DOCKED: ATOM     12  O   UNL d   1     -15.545   1.830  11.348 -0.28 +0.06    -0.303 OA
DOCKED: ATOM     13  H   UNL d   1     -15.594   2.177  10.429 -0.39 -0.07    +0.222 HD
DOCKED: ENDBRANCH   8  12
DOCKED: ENDBRANCH   7   8
DOCKED: ENDBRANCH   1   7
DOCKED: BRANCH   2  14
DOCKED: ATOM     14  O   UNL d   1     -18.293  -2.517  11.755 -0.10 -0.13    -0.278 OA
DOCKED: BRANCH  14  15
DOCKED: ATOM     15  P   UNL d   1     -18.562  -2.244  13.309 -0.10 +0.12    +0.473 P 
DOCKED: ATOM     16  O   UNL d   1     -17.546  -2.776  14.271 -0.25 -0.05    -0.228 OA
DOCKED: BRANCH  15  17
DOCKED: ATOM     17  O   UNL d   1     -18.731  -0.663  13.402 -0.06 -0.03    -0.303 OA
DOCKED: ATOM     18  H   UNL d   1     -18.337  -0.221  12.625 +0.07 +0.03    +0.222 HD
DOCKED: ENDBRANCH  15  17
DOCKED: BRANCH  15  19
DOCKED: ATOM     19  O   UNL d   1     -20.055  -2.739  13.546 -0.02 -0.05    -0.303 OA
DOCKED: ATOM     20  H   UNL d   1     -20.522  -2.892  12.704 +0.02 +0.04    +0.222 HD
DOCKED: ENDBRANCH  15  19
DOCKED: ENDBRANCH  14  15
DOCKED: ENDBRANCH   2  14
DOCKED: BRANCH   6  21
DOCKED: ATOM     21  O   UNL d   1     -15.872  -1.140   8.482 -0.25 -0.06    -0.278 OA
DOCKED: BRANCH  21  22
DOCKED: ATOM     22  P   UNL d   1     -16.376   0.065   7.566 -0.12 +0.03    +0.473 P 
DOCKED: ATOM     23  O   UNL d   1     -15.617   0.366   6.318 -0.28 +0.02    -0.228 OA
DOCKED: BRANCH  22  24
DOCKED: ATOM     24  O   UNL d   1     -17.906  -0.313   7.343 -0.05 -0.03    -0.303 OA
DOCKED: ATOM     25  H   UNL d   1     -17.947  -1.059   6.691 +0.08 +0.01    +0.222 HD
DOCKED: ENDBRANCH  22  24
DOCKED: BRANCH  22  26
DOCKED: ATOM     26  O   UNL d   1     -16.482   1.260   8.630 +0.01 -0.02    -0.303 OA
DOCKED: ATOM     27  H   UNL d   1     -16.287   0.913   9.524 +0.10 +0.01    +0.222 HD
DOCKED: ENDBRANCH  22  26
DOCKED: ENDBRANCH  21  22
DOCKED: ENDBRANCH   6  21
DOCKED: BRANCH   3  28
DOCKED: ATOM     28  O   UNL d   1     -20.629  -2.969  10.578 -0.01 -0.07    -0.278 OA
DOCKED: BRANCH  28  29
DOCKED: ATOM     29  P   UNL d   1     -20.343  -4.516  10.826 -0.04 +0.20    +0.473 P 
DOCKED: ATOM     30  O   UNL d   1     -18.916  -4.882  11.017 -0.13 -0.30    -0.228 OA
DOCKED: BRANCH  29  31
DOCKED: ATOM     31  O   UNL d   1     -21.333  -4.790  12.053 -0.00 -0.07    -0.303 OA
DOCKED: ATOM     32  H   UNL d   1     -20.864  -4.570  12.891 +0.02 +0.05    +0.222 HD
DOCKED: ENDBRANCH  29  31
DOCKED: BRANCH  29  33
DOCKED: ATOM     33  O   UNL d   1     -21.103  -5.196   9.603 -0.01 -0.07    -0.303 OA
DOCKED: ATOM     34  H   UNL d   1     -21.149  -4.551   8.855 +0.02 +0.04    +0.222 HD
DOCKED: ENDBRANCH  29  33
DOCKED: ENDBRANCH  28  29
DOCKED: ENDBRANCH   3  28
DOCKED: BRANCH   5  35
DOCKED: ATOM     35  O   UNL d   1     -17.021  -3.729   7.771 -0.55 -0.12    -0.278 OA
DOCKED: BRANCH  35  36
DOCKED: ATOM     36  P   UNL d   1     -16.613  -3.814   6.231 -0.32 +0.04    +0.473 P 
DOCKED: ATOM     37  O   UNL d   1     -16.389  -5.194   5.698 -1.03 -0.00    -0.228 OA
DOCKED: BRANCH  36  38
DOCKED: ATOM     38  O   UNL d   1     -17.810  -3.030   5.533 -0.16 +0.01    -0.303 OA
DOCKED: ATOM     39  H   UNL d   1     -18.611  -3.097   6.097 +0.08 +0.01    +0.222 HD
DOCKED: ENDBRANCH  36  38
DOCKED: BRANCH  36  40
DOCKED: ATOM     40  O   UNL d   1     -15.391  -2.801   6.147 -0.74 -0.05    -0.303 OA
DOCKED: ATOM     41  H   UNL d   1     -15.651  -1.893   6.421 +0.05 -0.00    +0.222 HD
DOCKED: ENDBRANCH  36  40
DOCKED: ENDBRANCH  35  36
DOCKED: ENDBRANCH   5  35
DOCKED: BRANCH   4  42
DOCKED: ATOM     42  O   UNL d   1     -19.919  -3.427   7.827 -0.02 -0.05    -0.278 OA
DOCKED: BRANCH  42  43
DOCKED: ATOM     43  P   UNL d   1     -20.775  -2.227   7.217 +0.02 +0.05    +0.473 P 
DOCKED: ATOM     44  O   UNL d   1     -21.492  -1.339   8.174 +0.00 -0.02    -0.228 OA
DOCKED: BRANCH  43  45
DOCKED: ATOM     45  O   UNL d   1     -19.717  -1.475   6.297 -0.02 -0.02    -0.303 OA
DOCKED: ATOM     46  H   UNL d   1     -19.714  -0.512   6.469 +0.03 +0.02    +0.222 HD
DOCKED: ENDBRANCH  43  45
DOCKED: BRANCH  43  47
DOCKED: ATOM     47  O   UNL d   1     -21.697  -2.954   6.124 +0.00 -0.02    -0.303 OA
DOCKED: ATOM     48  H   UNL d   1     -22.612  -2.611   6.194 +0.00 +0.02    +0.222 HD
DOCKED: ENDBRANCH  43  47
DOCKED: ENDBRANCH  42  43
DOCKED: ENDBRANCH   4  42
DOCKED: TORSDOF 24
DOCKED: TER
DOCKED: ENDMDL
________________________________________________________________________________

DPF> analysis                             # perform a ranked cluster analysis


		CLUSTER ANALYSIS OF CONFORMATIONS
		_________________________________

Number of conformations = 100

RMSD cluster analysis will be performed using the ligand atoms only (48 / 48 total atoms).

Outputting structurally similar clusters, ranked in order of increasing energy.


________________________________________________________________________________

Number of distinct conformational clusters found = 84,  out of 100 runs,
Using an rmsd-tolerance of 2.0 A


	CLUSTERING HISTOGRAM
	____________________

________________________________________________________________________________
     |           |     |           |     |                                    
Clus | Lowest    | Run | Mean      | Num | Histogram                          
-ter | Binding   |     | Binding   | in  |                                    
Rank | Energy    |     | Energy    | Clus|    5    10   15   20   25   30   35
_____|___________|_____|___________|_____|____:____|____:____|____:____|____:___
   1 |     -0.65 |  25 |     +0.95 |   3 |###
   2 |     -0.17 |  35 |     +0.91 |   2 |##
   3 |     +0.10 |  17 |     +0.88 |   2 |##
   4 |     +0.35 |  67 |     +0.35 |   1 |#
   5 |     +0.81 |   1 |     +0.81 |   1 |#
   6 |     +0.88 |  31 |     +0.88 |   1 |#
   7 |     +0.92 |  81 |     +0.92 |   1 |#
   8 |     +1.05 |  94 |     +1.05 |   1 |#
   9 |     +1.17 |  93 |     +1.27 |   3 |###
  10 |     +1.17 |  99 |     +1.86 |   2 |##
  11 |     +1.39 |  23 |     +1.39 |   1 |#
  12 |     +1.46 |  14 |     +1.46 |   1 |#
  13 |     +1.49 |  38 |     +1.49 |   1 |#
  14 |     +1.54 |  63 |     +1.54 |   1 |#
  15 |     +1.59 |  33 |     +1.59 |   1 |#
  16 |     +1.60 |  95 |     +1.60 |   1 |#
  17 |     +1.72 |  66 |     +1.72 |   1 |#
  18 |     +1.73 |  12 |     +1.73 |   1 |#
  19 |     +1.74 |   9 |     +1.74 |   1 |#
  20 |     +1.81 |  34 |     +1.81 |   1 |#
  21 |     +1.89 |  15 |     +2.56 |   2 |##
  22 |     +1.90 |  69 |     +1.90 |   1 |#
  23 |     +1.94 |  45 |     +2.42 |   2 |##
  24 |     +1.96 |  40 |     +2.33 |   2 |##
  25 |     +2.00 |  51 |     +2.00 |   1 |#
  26 |     +2.08 |  61 |     +2.08 |   1 |#
  27 |     +2.10 |  50 |     +2.10 |   1 |#
  28 |     +2.18 |  64 |     +2.18 |   1 |#
  29 |     +2.21 |  29 |     +2.25 |   2 |##
  30 |     +2.27 |  30 |     +2.36 |   2 |##
  31 |     +2.27 |  19 |     +2.35 |   2 |##
  32 |     +2.29 |  44 |     +2.29 |   1 |#
  33 |     +2.37 |  36 |     +2.37 |   1 |#
  34 |     +2.38 |  53 |     +2.38 |   1 |#
  35 |     +2.38 |  16 |     +2.38 |   1 |#
  36 |     +2.39 |  57 |     +2.39 |   1 |#
  37 |     +2.40 |  18 |     +2.40 |   1 |#
  38 |     +2.43 |  41 |     +2.43 |   1 |#
  39 |     +2.60 |  32 |     +2.60 |   1 |#
  40 |     +2.68 |  77 |     +2.68 |   1 |#
  41 |     +2.72 |  47 |     +2.72 |   1 |#
  42 |     +2.72 |   4 |     +2.72 |   1 |#
  43 |     +2.78 |  68 |     +2.78 |   1 |#
  44 |     +2.81 |  55 |     +3.10 |   2 |##
  45 |     +2.87 |  54 |     +2.87 |   1 |#
  46 |     +2.89 |  97 |     +2.91 |   2 |##
  47 |     +2.92 |  49 |     +2.92 |   1 |#
  48 |     +2.94 |  62 |     +2.94 |   1 |#
  49 |     +2.97 |   8 |     +2.97 |   1 |#
  50 |     +2.98 |  22 |     +2.98 |   1 |#
  51 |     +2.99 |  52 |     +2.99 |   1 |#
  52 |     +3.06 |  11 |     +3.06 |   1 |#
  53 |     +3.09 |  88 |     +3.09 |   1 |#
  54 |     +3.18 |  42 |     +3.18 |   1 |#
  55 |     +3.18 |  73 |     +3.18 |   1 |#
  56 |     +3.19 |  75 |     +3.19 |   1 |#
  57 |     +3.23 |  79 |     +3.23 |   1 |#
  58 |     +3.29 |   3 |     +3.29 |   1 |#
  59 |     +3.31 |  78 |     +3.31 |   1 |#
  60 |     +3.32 |  28 |     +3.32 |   1 |#
  61 |     +3.33 |  58 |     +3.33 |   1 |#
  62 |     +3.34 |  37 |     +3.34 |   1 |#
  63 |     +3.43 |  76 |     +3.43 |   1 |#
  64 |     +3.45 |  96 |     +3.45 |   1 |#
  65 |     +3.52 |  82 |     +3.52 |   1 |#
  66 |     +3.57 |  80 |     +3.58 |   2 |##
  67 |     +3.62 |  71 |     +3.62 |   1 |#
  68 |     +3.73 |  84 |     +3.73 |   1 |#
  69 |     +3.80 |  20 |     +3.80 |   1 |#
  70 |     +3.83 |  65 |     +3.83 |   1 |#
  71 |     +3.86 |  89 |     +3.86 |   1 |#
  72 |     +3.87 |  72 |     +3.87 |   1 |#
  73 |     +3.91 |   7 |     +3.91 |   1 |#
  74 |     +3.93 |  85 |     +3.93 |   1 |#
  75 |     +4.04 |  46 |     +4.04 |   1 |#
  76 |     +4.07 |  24 |     +4.07 |   1 |#
  77 |     +4.14 |  83 |     +4.14 |   1 |#
  78 |     +4.15 |  59 |     +4.15 |   1 |#
  79 |     +4.19 |  92 |     +4.19 |   1 |#
  80 |     +4.40 |  56 |     +4.40 |   1 |#
  81 |     +4.43 |  98 |     +4.43 |   1 |#
  82 |     +4.71 |  86 |     +4.71 |   1 |#
  83 |     +4.72 |  91 |     +4.72 |   1 |#
  84 |     +4.80 |  43 |     +4.80 |   1 |#
_____|___________|_____|___________|_____|______________________________________


Number of multi-member conformational clusters found = 14, out of 100 runs.

	RMSD TABLE
	__________

_____________________________________________________________________
     |      |      |           |         |                 |
Rank | Sub- | Run  | Binding   | Cluster | Reference       | Grep
     | Rank |      | Energy    | RMSD    | RMSD            | Pattern
_____|______|______|___________|_________|_________________|___________
   1      1     25       -0.65      0.00     17.49           RANKING
   1      2     10       +1.53      1.69     17.43           RANKING
   1      3     26       +1.98      2.00     17.30           RANKING
   2      1     35       -0.17      0.00     16.32           RANKING
   2      2     39       +1.99      1.68     17.50           RANKING
   3      1     17       +0.10      0.00     19.41           RANKING
   3      2     74       +1.65      1.96     20.87           RANKING
   4      1     67       +0.35      0.00     11.22           RANKING
   5      1      1       +0.81      0.00     14.39           RANKING
   6      1     31       +0.88      0.00     16.33           RANKING
   7      1     81       +0.92      0.00     13.81           RANKING
   8      1     94       +1.05      0.00     14.15           RANKING
   9      1     93       +1.17      0.00     17.04           RANKING
   9      2      5       +1.29      1.61     17.56           RANKING
   9      3    100       +1.34      1.70     17.09           RANKING
  10      1     99       +1.17      0.00     18.08           RANKING
  10      2     60       +2.54      1.65     18.53           RANKING
  11      1     23       +1.39      0.00     17.81           RANKING
  12      1     14       +1.46      0.00     12.25           RANKING
  13      1     38       +1.49      0.00     12.88           RANKING
  14      1     63       +1.54      0.00     19.48           RANKING
  15      1     33       +1.59      0.00     15.99           RANKING
  16      1     95       +1.60      0.00     18.77           RANKING
  17      1     66       +1.72      0.00     16.53           RANKING
  18      1     12       +1.73      0.00     15.49           RANKING
  19      1      9       +1.74      0.00     18.05           RANKING
  20      1     34       +1.81      0.00     14.61           RANKING
  21      1     15       +1.89      0.00     20.65           RANKING
  21      2      2       +3.24      1.99     21.66           RANKING
  22      1     69       +1.90      0.00     18.01           RANKING
  23      1     45       +1.94      0.00     16.25           RANKING
  23      2      6       +2.90      1.87     15.12           RANKING
  24      1     40       +1.96      0.00     11.04           RANKING
  24      2     87       +2.70      1.84     11.25           RANKING
  25      1     51       +2.00      0.00     21.05           RANKING
  26      1     61       +2.08      0.00     15.59           RANKING
  27      1     50       +2.10      0.00     13.24           RANKING
  28      1     64       +2.18      0.00     19.10           RANKING
  29      1     29       +2.21      0.00     15.37           RANKING
  29      2     48       +2.30      1.73     15.22           RANKING
  30      1     30       +2.27      0.00     18.55           RANKING
  30      2     21       +2.45      1.90     17.46           RANKING
  31      1     19       +2.27      0.00     13.15           RANKING
  31      2     27       +2.43      1.76     11.99           RANKING
  32      1     44       +2.29      0.00     14.71           RANKING
  33      1     36       +2.37      0.00     18.63           RANKING
  34      1     53       +2.38      0.00     14.23           RANKING
  35      1     16       +2.38      0.00     12.17           RANKING
  36      1     57       +2.39      0.00     18.88           RANKING
  37      1     18       +2.40      0.00     18.13           RANKING
  38      1     41       +2.43      0.00     16.11           RANKING
  39      1     32       +2.60      0.00     17.44           RANKING
  40      1     77       +2.68      0.00     21.74           RANKING
  41      1     47       +2.72      0.00     17.09           RANKING
  42      1      4       +2.72      0.00     16.48           RANKING
  43      1     68       +2.78      0.00     16.08           RANKING
  44      1     55       +2.81      0.00     14.06           RANKING
  44      2     90       +3.38      1.99     14.80           RANKING
  45      1     54       +2.87      0.00     11.11           RANKING
  46      1     97       +2.89      0.00     16.47           RANKING
  46      2     70       +2.94      1.90     16.60           RANKING
  47      1     49       +2.92      0.00     19.54           RANKING
  48      1     62       +2.94      0.00     18.69           RANKING
  49      1      8       +2.97      0.00     11.20           RANKING
  50      1     22       +2.98      0.00     21.99           RANKING
  51      1     52       +2.99      0.00     20.73           RANKING
  52      1     11       +3.06      0.00     16.78           RANKING
  53      1     88       +3.09      0.00     16.47           RANKING
  54      1     42       +3.18      0.00     17.50           RANKING
  55      1     73       +3.18      0.00     20.65           RANKING
  56      1     75       +3.19      0.00     16.20           RANKING
  57      1     79       +3.23      0.00     17.33           RANKING
  58      1      3       +3.29      0.00     17.66           RANKING
  59      1     78       +3.31      0.00     13.56           RANKING
  60      1     28       +3.32      0.00     13.31           RANKING
  61      1     58       +3.33      0.00     16.05           RANKING
  62      1     37       +3.34      0.00     18.24           RANKING
  63      1     76       +3.43      0.00     12.75           RANKING
  64      1     96       +3.45      0.00     17.56           RANKING
  65      1     82       +3.52      0.00     18.59           RANKING
  66      1     80       +3.57      0.00     13.05           RANKING
  66      2     13       +3.58      1.43     12.54           RANKING
  67      1     71       +3.62      0.00     20.16           RANKING
  68      1     84       +3.73      0.00     17.81           RANKING
  69      1     20       +3.80      0.00     21.40           RANKING
  70      1     65       +3.83      0.00     18.41           RANKING
  71      1     89       +3.86      0.00     21.32           RANKING
  72      1     72       +3.87      0.00     11.57           RANKING
  73      1      7       +3.91      0.00     22.06           RANKING
  74      1     85       +3.93      0.00     16.79           RANKING
  75      1     46       +4.04      0.00     18.73           RANKING
  76      1     24       +4.07      0.00     22.14           RANKING
  77      1     83       +4.14      0.00     18.22           RANKING
  78      1     59       +4.15      0.00     20.93           RANKING
  79      1     92       +4.19      0.00     22.65           RANKING
  80      1     56       +4.40      0.00     11.92           RANKING
  81      1     98       +4.43      0.00     17.19           RANKING
  82      1     86       +4.71      0.00     17.60           RANKING
  83      1     91       +4.72      0.00     12.12           RANKING
  84      1     43       +4.80      0.00     15.02           RANKING
_______________________________________________________________________



	INFORMATION ENTROPY ANALYSIS FOR THIS CLUSTERING
	________________________________________________


Information entropy for this clustering = 0.95  (rmstol = 2.00 Angstrom)

_______________________________________________________________________


	STATISTICAL MECHANICAL ANALYSIS
	_______________________________


Partition function, Q =    99.56            at Temperature, T = 298.15 K
Free energy,        A ~ -2725.88 kcal/mol   at Temperature, T = 298.15 K
Internal energy,    U =     2.60 kcal/mol   at Temperature, T = 298.15 K
Entropy,            S =     9.15 kcal/mol/K at Temperature, T = 298.15 K

_______________________________________________________________________


	LOWEST ENERGY DOCKED CONFORMATION from EACH CLUSTER
	___________________________________________________



Keeping original residue number (specified in the input PDBQ file) for outputting.

MODEL       25
USER    Run = 25
USER    Cluster Rank = 1
USER    Number of conformations in this cluster = 3
USER  
USER    RMSD from reference structure       = 17.487 A
USER  
USER    Estimated Free Energy of Binding    =   -0.65 kcal/mol  [=(1)+(2)+(3)-(4)]
USER    Estimated Inhibition Constant, Ki   =  335.47 mM (millimolar)  [Temperature = 298.15 K]
USER    
USER    (1) Final Intermolecular Energy     =   -7.81 kcal/mol
USER        vdW + Hbond + desolv Energy     =   -7.02 kcal/mol
USER        Electrostatic Energy            =   -0.79 kcal/mol
USER    (2) Final Total Internal Energy     =  -13.53 kcal/mol
USER    (3) Torsional Free Energy           =   +7.16 kcal/mol
USER    (4) Unbound System's Energy  [=(2)] =  -13.53 kcal/mol
USER    
USER    
USER  
USER    DPF = D:/Protein_go_brrr/autodock/final/AncB/IHP/dock.dpf
USER    NEWDPF move	IHP_ideal_opt.pdbqt
USER    NEWDPF about	0.035000 0.082000 -0.065000
USER    NEWDPF tran0	-6.708365 16.086887 10.087935
USER    NEWDPF axisangle0	0.460424 0.591900 -0.661562 -139.918475
USER    NEWDPF quaternion0	0.432545 0.556060 -0.621504 -0.342689
USER    NEWDPF dihe0	107.67 123.29 154.49 10.56 67.19 117.39 61.21 -158.68 -179.59 -62.16 41.84 -115.76 -70.16 -172.43 75.64 -57.30 77.30 -66.26 -152.18 3.99 11.62 1.79 -39.77 -1.76 
USER  
USER                              x       y       z    vdW   Elec        q     RMS 
ATOM      1  C   UNL d   1      -8.127  15.505   9.293 -0.16 +0.02    +0.194    17.487
ATOM      2  C   UNL d   1      -8.311  15.919  10.754 -0.15 +0.04    +0.194    17.487
ATOM      3  C   UNL d   1      -7.160  15.423  11.632 -0.19 +0.04    +0.194    17.487
ATOM      4  C   UNL d   1      -5.784  15.805  11.093 -0.15 -0.01    +0.194    17.487
ATOM      5  C   UNL d   1      -5.597  15.515   9.609 -0.21 -0.02    +0.194    17.487
ATOM      6  C   UNL d   1      -6.776  15.956   8.738 -0.18 -0.02    +0.194    17.487
ATOM      7  O   UNL d   1      -9.142  16.147   8.517 -0.14 -0.00    -0.278    17.487
ATOM      8  P   UNL d   1      -8.873  17.633   7.997 -0.03 -0.03    +0.473    17.487
ATOM      9  O   UNL d   1      -7.795  18.367   8.714 -0.02 +0.01    -0.228    17.487
ATOM     10  O   UNL d   1      -8.581  17.451   6.439 -0.04 +0.04    -0.303    17.487
ATOM     11  H   UNL d   1      -7.908  16.757   6.312 +0.03 -0.05    +0.222    17.487
ATOM     12  O   UNL d   1     -10.300  18.332   7.988 -0.01 +0.01    -0.303    17.487
ATOM     13  H   UNL d   1     -10.598  18.613   8.883 +0.02 +0.00    +0.222    17.487
ATOM     14  O   UNL d   1      -8.361  17.349  10.832 -0.03 -0.02    -0.278    17.487
ATOM     15  P   UNL d   1      -9.499  17.975  11.768 -0.00 +0.04    +0.473    17.487
ATOM     16  O   UNL d   1     -10.535  18.819  11.094 -0.01 -0.01    -0.228    17.487
ATOM     17  O   UNL d   1     -10.122  16.715  12.517 -0.04 -0.08    -0.303    17.487
ATOM     18  H   UNL d   1      -9.441  16.236  13.027 +0.03 +0.09    +0.222    17.487
ATOM     19  O   UNL d   1      -8.699  18.683  12.947 +0.00 -0.00    -0.303    17.487
ATOM     20  H   UNL d   1      -8.026  18.091  13.332 +0.02 -0.00    +0.222    17.487
ATOM     21  O   UNL d   1      -6.611  15.323   7.471 +0.13 +0.11    -0.278    17.487
ATOM     22  P   UNL d   1      -5.799  16.064   6.315 -0.05 -0.17    +0.473    17.487
ATOM     23  O   UNL d   1      -4.427  15.576   5.994 -0.21 +0.08    -0.228    17.487
ATOM     24  O   UNL d   1      -6.830  16.004   5.104 -0.15 +0.13    -0.303    17.487
ATOM     25  H   UNL d   1      -7.654  15.554   5.422 -0.30 -0.12    +0.222    17.487
ATOM     26  O   UNL d   1      -5.912  17.597   6.770 -0.02 +0.07    -0.303    17.487
ATOM     27  H   UNL d   1      -6.857  17.839   6.857 +0.03 -0.04    +0.222    17.487
ATOM     28  O   UNL d   1      -7.268  16.078  12.890 -0.09 -0.03    -0.278    17.487
ATOM     29  P   UNL d   1      -7.637  15.250  14.199 -0.07 +0.12    +0.473    17.487
ATOM     30  O   UNL d   1      -9.086  15.005  14.415 -0.24 -0.23    -0.228    17.487
ATOM     31  O   UNL d   1      -6.707  13.965  13.989 -0.60 -0.03    -0.303    17.487
ATOM     32  H   UNL d   1      -6.010  13.964  14.685 -0.47 -0.44    +0.222    17.487
ATOM     33  O   UNL d   1      -6.867  16.059  15.334 -0.07 +0.20    -0.303    17.487
ATOM     34  H   UNL d   1      -6.021  15.592  15.544 -0.50 -0.42    +0.222    17.487
ATOM     35  O   UNL d   1      -4.466  16.284   9.204 -0.08 +0.05    -0.278    17.487
ATOM     36  P   UNL d   1      -3.001  15.655   9.268 -0.06 -0.15    +0.473    17.487
ATOM     37  O   UNL d   1      -2.258  15.617   7.971 -0.60 +0.05    -0.228    17.487
ATOM     38  O   UNL d   1      -2.311  16.549  10.392 -0.05 +0.13    -0.303    17.487
ATOM     39  H   UNL d   1      -2.166  16.001  11.193 -0.45 -0.14    +0.222    17.487
ATOM     40  O   UNL d   1      -3.261  14.263   9.993 -0.26 +0.09    -0.303    17.487
ATOM     41  H   UNL d   1      -2.976  14.283  10.933 -0.23 -0.09    +0.222    17.487
ATOM     42  O   UNL d   1      -4.826  15.012  11.801 -0.20 +0.05    -0.278    17.487
ATOM     43  P   UNL d   1      -3.812  15.734  12.798 -0.18 -0.20    +0.473    17.487
ATOM     44  O   UNL d   1      -3.585  17.194  12.608 -0.06 +0.06    -0.228    17.487
ATOM     45  O   UNL d   1      -4.392  15.347  14.228 +0.02 +0.35    -0.303    17.487
ATOM     46  H   UNL d   1      -5.365  15.242  14.203 -0.38 -0.26    +0.222    17.487
ATOM     47  O   UNL d   1      -2.502  14.814  12.718 -0.15 +0.15    -0.303    17.487
ATOM     48  H   UNL d   1      -2.145  14.839  11.806 -0.47 -0.16    +0.222    17.487
TER
ENDMDL
MODEL       35
USER    Run = 35
USER    Cluster Rank = 2
USER    Number of conformations in this cluster = 2
USER  
USER    RMSD from reference structure       = 16.325 A
USER  
USER    Estimated Free Energy of Binding    =   -0.17 kcal/mol  [=(1)+(2)+(3)-(4)]
USER    Estimated Inhibition Constant, Ki   =  755.34 mM (millimolar)  [Temperature = 298.15 K]
USER    
USER    (1) Final Intermolecular Energy     =   -7.33 kcal/mol
USER        vdW + Hbond + desolv Energy     =   -7.03 kcal/mol
USER        Electrostatic Energy            =   -0.30 kcal/mol
USER    (2) Final Total Internal Energy     =  -11.77 kcal/mol
USER    (3) Torsional Free Energy           =   +7.16 kcal/mol
USER    (4) Unbound System's Energy  [=(2)] =  -11.77 kcal/mol
USER    
USER    
USER  
USER    DPF = D:/Protein_go_brrr/autodock/final/AncB/IHP/dock.dpf
USER    NEWDPF move	IHP_ideal_opt.pdbqt
USER    NEWDPF about	0.035000 0.082000 -0.065000
USER    NEWDPF tran0	-3.595450 16.586797 9.362979
USER    NEWDPF axisangle0	-0.702815 -0.520964 0.484404 77.102723
USER    NEWDPF quaternion0	-0.438006 -0.324673 0.301889 0.782050
USER    NEWDPF dihe0	-102.02 -58.98 16.91 87.50 49.15 124.74 16.74 -116.45 108.79 -1.49 162.58 -65.22 174.74 -71.75 161.06 -103.61 26.54 41.41 77.33 22.17 -7.49 25.29 179.38 -173.73 
USER  
USER                              x       y       z    vdW   Elec        q     RMS 
ATOM      1  C   UNL d   1      -3.314  15.269   8.282 -0.29 -0.04    +0.194    16.325
ATOM      2  C   UNL d   1      -4.770  15.480   8.703 -0.22 -0.04    +0.194    16.325
ATOM      3  C   UNL d   1      -4.890  15.777  10.199 -0.18 -0.03    +0.194    16.325
ATOM      4  C   UNL d   1      -3.985  16.916  10.660 -0.09 -0.04    +0.194    16.325
ATOM      5  C   UNL d   1      -2.548  16.807  10.166 -0.09 -0.07    +0.194    16.325
ATOM      6  C   UNL d   1      -2.428  16.449   8.684 -0.18 -0.06    +0.194    16.325
ATOM      7  O   UNL d   1      -3.272  15.171   6.856 -0.69 +0.06    -0.278    16.325
ATOM      8  P   UNL d   1      -4.356  14.252   6.126 -0.26 -0.15    +0.473    16.325
ATOM      9  O   UNL d   1      -3.811  13.340   5.084 -0.94 +0.05    -0.228    16.325
ATOM     10  O   UNL d   1      -5.077  13.480   7.322 -0.32 +0.09    -0.303    16.325
ATOM     11  H   UNL d   1      -5.927  13.912   7.525 -0.16 -0.11    +0.222    16.325
ATOM     12  O   UNL d   1      -5.491  15.254   5.646 -0.19 +0.14    -0.303    16.325
ATOM     13  H   UNL d   1      -6.300  15.218   6.205 -0.44 -0.14    +0.222    16.325
ATOM     14  O   UNL d   1      -5.312  16.588   7.973 -0.06 +0.06    -0.278    16.325
ATOM     15  P   UNL d   1      -6.897  16.591   7.750 -0.08 -0.08    +0.473    16.325
ATOM     16  O   UNL d   1      -7.611  15.295   7.977 -0.16 +0.05    -0.228    16.325
ATOM     17  O   UNL d   1      -7.420  17.759   8.699 -0.02 +0.02    -0.303    16.325
ATOM     18  H   UNL d   1      -7.465  17.463   9.628 +0.04 -0.01    +0.222    16.325
ATOM     19  O   UNL d   1      -7.094  17.238   6.310 -0.05 +0.07    -0.303    16.325
ATOM     20  H   UNL d   1      -6.320  17.083   5.736 +0.05 -0.07    +0.222    16.325
ATOM     21  O   UNL d   1      -1.077  16.051   8.463 -0.24 +0.11    -0.278    16.325
ATOM     22  P   UNL d   1      -0.104  16.989   7.615 -0.13 -0.19    +0.473    16.325
ATOM     23  O   UNL d   1       1.214  16.434   7.188 -0.25 +0.12    -0.228    16.325
ATOM     24  O   UNL d   1      -1.052  17.448   6.422 -0.14 +0.15    -0.303    16.325
ATOM     25  H   UNL d   1      -1.829  16.833   6.392 +0.06 -0.09    +0.222    16.325
ATOM     26  O   UNL d   1      -0.051  18.309   8.523 -0.04 +0.09    -0.303    16.325
ATOM     27  H   UNL d   1      -0.963  18.575   8.757 +0.04 -0.06    +0.222    16.325
ATOM     28  O   UNL d   1      -6.216  16.226  10.442 -0.08 +0.01    -0.278    16.325
ATOM     29  P   UNL d   1      -7.034  15.682  11.695 -0.12 +0.08    +0.473    16.325
ATOM     30  O   UNL d   1      -8.398  15.172  11.398 -0.15 -0.12    -0.228    16.325
ATOM     31  O   UNL d   1      -5.978  14.632  12.282 -0.21 -0.01    -0.303    16.325
ATOM     32  H   UNL d   1      -5.207  15.129  12.640 +0.08 -0.06    +0.222    16.325
ATOM     33  O   UNL d   1      -6.927  16.897  12.718 -0.03 +0.01    -0.303    16.325
ATOM     34  H   UNL d   1      -5.973  17.093  12.885 +0.04 -0.04    +0.222    16.325
ATOM     35  O   UNL d   1      -1.982  18.105  10.332 -0.05 +0.07    -0.278    16.325
ATOM     36  P   UNL d   1      -2.745  19.392   9.779 +0.00 -0.08    +0.473    16.325
ATOM     37  O   UNL d   1      -3.984  19.776  10.524 -0.00 +0.03    -0.228    16.325
ATOM     38  O   UNL d   1      -1.594  20.492   9.812 -0.00 +0.04    -0.303    16.325
ATOM     39  H   UNL d   1      -0.747  20.080   9.536 +0.01 -0.04    +0.222    16.325
ATOM     40  O   UNL d   1      -2.907  19.053   8.234 -0.00 +0.06    -0.303    16.325
ATOM     41  H   UNL d   1      -2.084  18.669   7.857 +0.03 -0.06    +0.222    16.325
ATOM     42  O   UNL d   1      -3.944  16.860  12.090 -0.06 +0.07    -0.278    16.325
ATOM     43  P   UNL d   1      -3.072  15.725  12.793 -0.18 -0.21    +0.473    16.325
ATOM     44  O   UNL d   1      -1.632  16.017  13.038 -0.25 +0.10    -0.228    16.325
ATOM     45  O   UNL d   1      -3.906  15.410  14.112 -0.17 +0.28    -0.303    16.325
ATOM     46  H   UNL d   1      -4.568  14.707  13.957 -0.26 -0.26    +0.222    16.325
ATOM     47  O   UNL d   1      -3.372  14.427  11.901 -0.28 +0.10    -0.303    16.325
ATOM     48  H   UNL d   1      -2.552  14.157  11.438 -0.32 -0.11    +0.222    16.325
TER
ENDMDL
MODEL       17
USER    Run = 17
USER    Cluster Rank = 3
USER    Number of conformations in this cluster = 2
USER  
USER    RMSD from reference structure       = 19.410 A
USER  
USER    Estimated Free Energy of Binding    =   +0.10 kcal/mol  [=(1)+(2)+(3)-(4)]
USER    
USER    (1) Final Intermolecular Energy     =   -7.06 kcal/mol
USER        vdW + Hbond + desolv Energy     =   -6.69 kcal/mol
USER        Electrostatic Energy            =   -0.36 kcal/mol
USER    (2) Final Total Internal Energy     =   -9.84 kcal/mol
USER    (3) Torsional Free Energy           =   +7.16 kcal/mol
USER    (4) Unbound System's Energy  [=(2)] =   -9.84 kcal/mol
USER    
USER    
USER  
USER    DPF = D:/Protein_go_brrr/autodock/final/AncB/IHP/dock.dpf
USER    NEWDPF move	IHP_ideal_opt.pdbqt
USER    NEWDPF about	0.035000 0.082000 -0.065000
USER    NEWDPF tran0	15.376289 5.777781 -15.706619
USER    NEWDPF axisangle0	-0.705066 -0.131652 0.696814 -146.163140
USER    NEWDPF quaternion0	-0.674550 -0.125954 0.666656 -0.291010
USER    NEWDPF dihe0	115.72 120.54 2.68 59.14 -178.73 94.10 -165.09 -8.53 32.83 179.30 -143.95 -157.24 -77.17 -174.21 79.69 65.43 -124.88 1.72 -147.47 -4.99 167.69 145.96 -29.02 136.43 
USER  
USER                              x       y       z    vdW   Elec        q     RMS 
ATOM      1  C   UNL d   1      14.900   7.364 -16.198 -0.14 +0.03    +0.194    19.410
ATOM      2  C   UNL d   1      15.335   7.227 -14.738 -0.24 +0.05    +0.194    19.410
ATOM      3  C   UNL d   1      14.758   5.967 -14.090 -0.26 +0.05    +0.194    19.410
ATOM      4  C   UNL d   1      15.031   4.698 -14.895 -0.13 +0.05    +0.194    19.410
ATOM      5  C   UNL d   1      14.718   4.827 -16.381 -0.13 +0.04    +0.194    19.410
ATOM      6  C   UNL d   1      15.243   6.117 -17.014 -0.09 +0.04    +0.194    19.410
ATOM      7  O   UNL d   1      15.613   8.460 -16.775 -0.13 -0.07    -0.278    19.410
ATOM      8  P   UNL d   1      17.022   8.168 -17.470 +0.00 +0.10    +0.473    19.410
ATOM      9  O   UNL d   1      17.737   6.964 -16.966 -0.01 -0.05    -0.228    19.410
ATOM     10  O   UNL d   1      16.676   8.088 -19.025 -0.00 -0.06    -0.303    19.410
ATOM     11  H   UNL d   1      15.850   7.585 -19.151 +0.02 +0.04    +0.222    19.410
ATOM     12  O   UNL d   1      17.820   9.539 -17.377 -0.01 -0.06    -0.303    19.410
ATOM     13  H   UNL d   1      18.166   9.723 -16.475 +0.04 +0.05    +0.222    19.410
ATOM     14  O   UNL d   1      16.765   7.155 -14.681 -0.10 -0.08    -0.278    19.410
ATOM     15  P   UNL d   1      17.497   8.199 -13.712 -0.14 +0.17    +0.473    19.410
ATOM     16  O   UNL d   1      18.447   9.160 -14.353 -0.12 -0.07    -0.228    19.410
ATOM     17  O   UNL d   1      16.300   8.927 -12.953 -0.59 -0.14    -0.303    19.410
ATOM     18  H   UNL d   1      16.037   9.746 -13.415 -0.42 +0.02    +0.222    19.410
ATOM     19  O   UNL d   1      18.110   7.299 -12.552 -0.14 -0.15    -0.303    19.410
ATOM     20  H   UNL d   1      17.904   6.355 -12.681 +0.07 +0.10    +0.222    19.410
ATOM     21  O   UNL d   1      14.592   6.251 -18.276 -0.06 -0.05    -0.278    19.410
ATOM     22  P   UNL d   1      13.014   6.480 -18.332 -0.12 +0.08    +0.473    19.410
ATOM     23  O   UNL d   1      12.510   7.816 -18.764 -0.13 -0.08    -0.228    19.410
ATOM     24  O   UNL d   1      12.541   5.263 -19.241 -0.12 -0.03    -0.303    19.410
ATOM     25  H   UNL d   1      11.974   4.666 -18.688 -0.30 -0.04    +0.222    19.410
ATOM     26  O   UNL d   1      12.563   5.997 -16.871 -0.17 +0.00    -0.303    19.410
ATOM     27  H   UNL d   1      12.513   5.019 -16.857 -0.49 -0.04    +0.222    19.410
ATOM     28  O   UNL d   1      15.427   5.777 -12.850 -0.24 -0.13    -0.278    19.410
ATOM     29  P   UNL d   1      16.561   4.668 -12.709 -0.06 +0.22    +0.473    19.410
ATOM     30  O   UNL d   1      17.472   4.531 -13.874 -0.03 -0.07    -0.228    19.410
ATOM     31  O   UNL d   1      17.219   5.116 -11.320 -0.16 -0.24    -0.303    19.410
ATOM     32  H   UNL d   1      18.137   5.428 -11.495 +0.06 +0.14    +0.222    19.410
ATOM     33  O   UNL d   1      15.719   3.380 -12.299 -0.11 -0.15    -0.303    19.410
ATOM     34  H   UNL d   1      14.970   3.271 -12.934 +0.11 +0.08    +0.222    19.410
ATOM     35  O   UNL d   1      15.396   3.743 -17.014 -0.04 -0.06    -0.278    19.410
ATOM     36  P   UNL d   1      14.590   2.438 -17.454 -0.04 +0.13    +0.473    19.410
ATOM     37  O   UNL d   1      14.313   1.453 -16.364 -0.08 -0.08    -0.228    19.410
ATOM     38  O   UNL d   1      13.285   3.068 -18.114 -0.10 -0.08    -0.303    19.410
ATOM     39  H   UNL d   1      13.019   3.864 -17.605 -0.34 +0.02    +0.222    19.410
ATOM     40  O   UNL d   1      15.436   1.920 -18.697 -0.02 -0.06    -0.303    19.410
ATOM     41  H   UNL d   1      15.549   0.944 -18.680 +0.02 +0.05    +0.222    19.410
ATOM     42  O   UNL d   1      14.170   3.681 -14.371 -0.15 -0.08    -0.278    19.410
ATOM     43  P   UNL d   1      12.818   4.115 -13.644 -0.28 +0.10    +0.473    19.410
ATOM     44  O   UNL d   1      11.960   5.120 -14.331 -0.54 -0.01    -0.228    19.410
ATOM     45  O   UNL d   1      12.101   2.719 -13.380 -0.29 -0.03    -0.303    19.410
ATOM     46  H   UNL d   1      11.632   2.714 -12.521 -0.34 -0.03    +0.222    19.410
ATOM     47  O   UNL d   1      13.306   4.514 -12.170 -0.30 -0.12    -0.303    19.410
ATOM     48  H   UNL d   1      14.262   4.728 -12.194 +0.14 +0.11    +0.222    19.410
TER
ENDMDL
MODEL       67
USER    Run = 67
USER    Cluster Rank = 4
USER    Number of conformations in this cluster = 1
USER  
USER    RMSD from reference structure       = 11.216 A
USER  
USER    Estimated Free Energy of Binding    =   +0.35 kcal/mol  [=(1)+(2)+(3)-(4)]
USER    
USER    (1) Final Intermolecular Energy     =   -6.81 kcal/mol
USER        vdW + Hbond + desolv Energy     =   -6.71 kcal/mol
USER        Electrostatic Energy            =   -0.10 kcal/mol
USER    (2) Final Total Internal Energy     =  -13.11 kcal/mol
USER    (3) Torsional Free Energy           =   +7.16 kcal/mol
USER    (4) Unbound System's Energy  [=(2)] =  -13.11 kcal/mol
USER    
USER    
USER  
USER    DPF = D:/Protein_go_brrr/autodock/final/AncB/IHP/dock.dpf
USER    NEWDPF move	IHP_ideal_opt.pdbqt
USER    NEWDPF about	0.035000 0.082000 -0.065000
USER    NEWDPF tran0	2.277035 -13.385947 1.320310
USER    NEWDPF axisangle0	-0.256971 0.277857 -0.925614 161.501004
USER    NEWDPF quaternion0	-0.253630 0.274244 -0.913579 0.160734
USER    NEWDPF dihe0	161.57 87.90 112.92 101.93 77.30 119.62 -72.53 3.28 26.34 94.46 125.89 -58.57 -20.23 108.83 56.15 149.26 41.42 35.07 44.71 -0.10 178.51 30.81 40.76 -167.76 
USER  
USER                              x       y       z    vdW   Elec        q     RMS 
ATOM      1  C   UNL d   1       1.931 -12.945   2.954 -0.17 +0.04    +0.194    11.216
ATOM      2  C   UNL d   1       3.164 -12.281   2.337 -0.16 +0.01    +0.194    11.216
ATOM      3  C   UNL d   1       4.001 -13.278   1.534 -0.12 +0.00    +0.194    11.216
ATOM      4  C   UNL d   1       3.186 -14.054   0.502 -0.12 +0.03    +0.194    11.216
ATOM      5  C   UNL d   1       1.889 -14.638   1.048 -0.14 +0.04    +0.194    11.216
ATOM      6  C   UNL d   1       1.081 -13.659   1.902 -0.24 +0.06    +0.194    11.216
ATOM      7  O   UNL d   1       1.119 -11.922   3.536 -0.20 -0.07    -0.278    11.216
ATOM      8  P   UNL d   1       1.555 -11.317   4.949 -0.14 +0.07    +0.473    11.216
ATOM      9  O   UNL d   1       3.023 -11.288   5.196 -0.07 -0.02    -0.228    11.216
ATOM     10  O   UNL d   1       0.885  -9.870   4.973 -0.23 -0.02    -0.303    11.216
ATOM     11  H   UNL d   1       0.344  -9.746   4.171 -0.46 +0.00    +0.222    11.216
ATOM     12  O   UNL d   1       0.687 -12.104   6.021 -0.11 -0.06    -0.303    11.216
ATOM     13  H   UNL d   1       0.631 -13.069   5.839 +0.05 +0.05    +0.222    11.216
ATOM     14  O   UNL d   1       2.738 -11.231   1.460 -0.42 -0.04    -0.278    11.216
ATOM     15  P   UNL d   1       3.466  -9.815   1.634 -0.33 -0.04    +0.473    11.216
ATOM     16  O   UNL d   1       3.302  -8.834   0.515 -0.51 +0.04    -0.228    11.216
ATOM     17  O   UNL d   1       2.915  -9.264   3.023 -0.23 -0.02    -0.303    11.216
ATOM     18  H   UNL d   1       2.513  -9.980   3.551 +0.14 +0.02    +0.222    11.216
ATOM     19  O   UNL d   1       4.967 -10.183   2.009 -0.31 +0.14    -0.303    11.216
ATOM     20  H   UNL d   1       5.302 -10.922   1.469 +0.11 -0.12    +0.222    11.216
ATOM     21  O   UNL d   1       0.109 -14.430   2.604 -0.67 -0.14    -0.278    11.216
ATOM     22  P   UNL d   1       0.550 -15.304   3.863 -0.04 +0.15    +0.473    11.216
ATOM     23  O   UNL d   1       0.586 -14.645   5.201 -0.06 -0.06    -0.228    11.216
ATOM     24  O   UNL d   1      -0.439 -16.547   3.759 -0.04 -0.11    -0.303    11.216
ATOM     25  H   UNL d   1      -0.889 -16.510   2.877 +0.06 +0.09    +0.222    11.216
ATOM     26  O   UNL d   1       1.932 -15.937   3.353 -0.01 -0.05    -0.303    11.216
ATOM     27  H   UNL d   1       1.780 -16.397   2.502 +0.03 +0.04    +0.222    11.216
ATOM     28  O   UNL d   1       4.950 -12.532   0.781 -0.23 +0.04    -0.278    11.216
ATOM     29  P   UNL d   1       6.434 -13.077   0.592 -0.15 -0.16    +0.473    11.216
ATOM     30  O   UNL d   1       6.883 -13.239  -0.815 -0.23 +0.07    -0.228    11.216
ATOM     31  O   UNL d   1       7.235 -12.025   1.493 -0.10 +0.32    -0.303    11.216
ATOM     32  H   UNL d   1       6.683 -11.216   1.597 -0.42 -0.31    +0.222    11.216
ATOM     33  O   UNL d   1       6.428 -14.385   1.500 -0.02 +0.05    -0.303    11.216
ATOM     34  H   UNL d   1       5.765 -15.023   1.140 +0.04 -0.02    +0.222    11.216
ATOM     35  O   UNL d   1       1.095 -14.951  -0.095 -0.16 -0.06    -0.278    11.216
ATOM     36  P   UNL d   1      -0.261 -15.775   0.069 -0.20 +0.12    +0.473    11.216
ATOM     37  O   UNL d   1      -1.474 -14.962   0.390 -0.37 -0.07    -0.228    11.216
ATOM     38  O   UNL d   1      -0.341 -16.550  -1.320 -0.25 -0.03    -0.303    11.216
ATOM     39  H   UNL d   1      -0.110 -15.933  -2.046 -0.18 -0.05    +0.222    11.216
ATOM     40  O   UNL d   1       0.150 -16.901   1.114 -0.04 -0.08    -0.303    11.216
ATOM     41  H   UNL d   1       0.557 -16.518   1.922 +0.05 +0.05    +0.222    11.216
ATOM     42  O   UNL d   1       3.997 -15.155   0.077 -0.07 -0.01    -0.278    11.216
ATOM     43  P   UNL d   1       4.059 -16.464   0.987 +0.00 +0.01    +0.473    11.216
ATOM     44  O   UNL d   1       2.937 -17.436   0.870 -0.01 -0.01    -0.228    11.216
ATOM     45  O   UNL d   1       5.486 -17.070   0.629 -0.00 +0.01    -0.303    11.216
ATOM     46  H   UNL d   1       6.195 -16.405   0.735 +0.02 -0.01    +0.222    11.216
ATOM     47  O   UNL d   1       4.315 -15.876   2.456 -0.00 -0.01    -0.303    11.216
ATOM     48  H   UNL d   1       3.580 -16.148   3.045 +0.02 +0.02    +0.222    11.216
TER
ENDMDL
MODEL        1
USER    Run = 1
USER    Cluster Rank = 5
USER    Number of conformations in this cluster = 1
USER  
USER    RMSD from reference structure       = 14.394 A
USER  
USER    Estimated Free Energy of Binding    =   +0.81 kcal/mol  [=(1)+(2)+(3)-(4)]
USER    
USER    (1) Final Intermolecular Energy     =   -6.35 kcal/mol
USER        vdW + Hbond + desolv Energy     =   -6.15 kcal/mol
USER        Electrostatic Energy            =   -0.20 kcal/mol
USER    (2) Final Total Internal Energy     =  -14.68 kcal/mol
USER    (3) Torsional Free Energy           =   +7.16 kcal/mol
USER    (4) Unbound System's Energy  [=(2)] =  -14.68 kcal/mol
USER    
USER    
USER  
USER    DPF = D:/Protein_go_brrr/autodock/final/AncB/IHP/dock.dpf
USER    NEWDPF move	IHP_ideal_opt.pdbqt
USER    NEWDPF about	0.035000 0.082000 -0.065000
USER    NEWDPF tran0	1.887085 2.489612 -14.991963
USER    NEWDPF axisangle0	0.836926 0.455831 -0.302940 -175.275385
USER    NEWDPF quaternion0	0.836215 0.455443 -0.302683 -0.041218
USER    NEWDPF dihe0	141.72 153.29 57.00 -140.50 3.40 -97.58 8.53 -139.80 91.65 65.28 3.97 -140.11 -38.29 -177.04 -58.47 -126.91 95.98 -65.48 30.61 -36.35 173.46 39.49 2.27 177.22 
USER  
USER                              x       y       z    vdW   Elec        q     RMS 
ATOM      1  C   UNL d   1       1.321   3.657 -16.133 -0.12 +0.13    +0.194    14.394
ATOM      2  C   UNL d   1       0.360   3.332 -14.988 -0.17 +0.17    +0.194    14.394
ATOM      3  C   UNL d   1       0.302   1.829 -14.706 -0.13 +0.16    +0.194    14.394
ATOM      4  C   UNL d   1       1.678   1.202 -14.500 -0.17 +0.11    +0.194    14.394
ATOM      5  C   UNL d   1       2.703   1.592 -15.557 -0.17 +0.09    +0.194    14.394
ATOM      6  C   UNL d   1       2.718   3.087 -15.884 -0.04 +0.09    +0.194    14.394
ATOM      7  O   UNL d   1       1.450   5.078 -16.218 -0.13 -0.19    -0.278    14.394
ATOM      8  P   UNL d   1       0.467   5.872 -17.195 -0.03 +0.34    +0.473    14.394
ATOM      9  O   UNL d   1      -0.696   5.089 -17.693 -0.02 -0.17    -0.228    14.394
ATOM     10  O   UNL d   1       0.043   7.160 -16.354 -0.07 -0.23    -0.303    14.394
ATOM     11  H   UNL d   1       0.258   7.021 -15.413 +0.10 +0.18    +0.222    14.394
ATOM     12  O   UNL d   1       1.410   6.499 -18.310 -0.07 -0.23    -0.303    14.394
ATOM     13  H   UNL d   1       1.319   6.058 -19.184 +0.04 +0.15    +0.222    14.394
ATOM     14  O   UNL d   1       0.804   4.002 -13.802 -0.76 -0.26    -0.278    14.394
ATOM     15  P   UNL d   1       0.132   5.421 -13.487 -0.30 +0.50    +0.473    14.394
ATOM     16  O   UNL d   1       1.057   6.593 -13.376 -0.50 -0.14    -0.228    14.394
ATOM     17  O   UNL d   1      -0.955   5.599 -14.639 -0.56 -0.57    -0.303    14.394
ATOM     18  H   UNL d   1      -0.619   5.267 -15.493 +0.07 +0.30    +0.222    14.394
ATOM     19  O   UNL d   1      -0.789   5.152 -12.218 -0.65 -0.39    -0.303    14.394
ATOM     20  H   UNL d   1      -1.000   5.977 -11.744 +0.11 +0.21    +0.222    14.394
ATOM     21  O   UNL d   1       3.454   3.236 -17.096 -0.01 -0.12    -0.278    14.394
ATOM     22  P   UNL d   1       2.821   2.737 -18.473 -0.04 +0.23    +0.473    14.394
ATOM     23  O   UNL d   1       1.847   1.608 -18.432 -0.02 -0.10    -0.228    14.394
ATOM     24  O   UNL d   1       2.246   4.093 -19.077 -0.04 -0.16    -0.303    14.394
ATOM     25  H   UNL d   1       1.547   4.432 -18.462 +0.05 +0.13    +0.222    14.394
ATOM     26  O   UNL d   1       4.130   2.505 -19.368 -0.05 -0.15    -0.303    14.394
ATOM     27  H   UNL d   1       4.455   1.592 -19.231 +0.05 +0.12    +0.222    14.394
ATOM     28  O   UNL d   1      -0.383   1.651 -13.473 -0.18 -0.27    -0.278    14.394
ATOM     29  P   UNL d   1      -1.232   0.330 -13.207 -0.11 +0.57    +0.473    14.394
ATOM     30  O   UNL d   1      -2.361   0.475 -12.254 -0.19 -0.29    -0.228    14.394
ATOM     31  O   UNL d   1      -1.599  -0.073 -14.712 -0.39 -0.47    -0.303    14.394
ATOM     32  H   UNL d   1      -0.762  -0.225 -15.209 +0.05 +0.25    +0.222    14.394
ATOM     33  O   UNL d   1      -0.100  -0.724 -12.828 -0.16 -0.27    -0.303    14.394
ATOM     34  H   UNL d   1       0.316  -1.061 -13.658 +0.08 +0.19    +0.222    14.394
ATOM     35  O   UNL d   1       3.976   1.271 -15.000 -0.24 -0.09    -0.278    14.394
ATOM     36  P   UNL d   1       5.054   0.472 -15.864 -0.18 +0.14    +0.473    14.394
ATOM     37  O   UNL d   1       6.470   0.927 -15.708 -0.46 -0.06    -0.228    14.394
ATOM     38  O   UNL d   1       4.794  -1.030 -15.401 -0.14 -0.05    -0.303    14.394
ATOM     39  H   UNL d   1       3.888  -1.099 -15.029 +0.09 +0.05    +0.222    14.394
ATOM     40  O   UNL d   1       4.432   0.535 -17.326 -0.55 -0.15    -0.303    14.394
ATOM     41  H   UNL d   1       3.820   1.298 -17.429 +0.07 +0.12    +0.222    14.394
ATOM     42  O   UNL d   1       1.505  -0.216 -14.584 -0.09 -0.16    -0.278    14.394
ATOM     43  P   UNL d   1       1.069  -0.858 -15.978 -0.04 +0.28    +0.473    14.394
ATOM     44  O   UNL d   1       0.436   0.043 -16.981 -0.02 -0.14    -0.228    14.394
ATOM     45  O   UNL d   1       2.412  -1.549 -16.479 -0.06 -0.12    -0.303    14.394
ATOM     46  H   UNL d   1       3.087  -0.885 -16.723 +0.06 +0.08    +0.222    14.394
ATOM     47  O   UNL d   1       0.194  -2.127 -15.539 -0.13 -0.27    -0.303    14.394
ATOM     48  H   UNL d   1      -0.351  -1.890 -14.760 +0.06 +0.28    +0.222    14.394
TER
ENDMDL
MODEL       31
USER    Run = 31
USER    Cluster Rank = 6
USER    Number of conformations in this cluster = 1
USER  
USER    RMSD from reference structure       = 16.331 A
USER  
USER    Estimated Free Energy of Binding    =   +0.88 kcal/mol  [=(1)+(2)+(3)-(4)]
USER    
USER    (1) Final Intermolecular Energy     =   -6.28 kcal/mol
USER        vdW + Hbond + desolv Energy     =   -5.81 kcal/mol
USER        Electrostatic Energy            =   -0.47 kcal/mol
USER    (2) Final Total Internal Energy     =  -13.86 kcal/mol
USER    (3) Torsional Free Energy           =   +7.16 kcal/mol
USER    (4) Unbound System's Energy  [=(2)] =  -13.86 kcal/mol
USER    
USER    
USER  
USER    DPF = D:/Protein_go_brrr/autodock/final/AncB/IHP/dock.dpf
USER    NEWDPF move	IHP_ideal_opt.pdbqt
USER    NEWDPF about	0.035000 0.082000 -0.065000
USER    NEWDPF tran0	0.337016 5.755684 -17.216949
USER    NEWDPF axisangle0	0.404043 0.169739 0.898854 -145.438031
USER    NEWDPF quaternion0	0.385804 0.162077 0.858279 -0.297058
USER    NEWDPF dihe0	136.57 155.57 155.67 -16.97 -49.04 -100.67 -91.15 37.36 160.72 -39.70 25.13 159.92 -178.57 170.89 -9.21 146.12 66.75 168.11 -16.81 15.69 146.80 6.09 -27.33 -12.32 
USER  
USER                              x       y       z    vdW   Elec        q     RMS 
ATOM      1  C   UNL d   1       0.620   7.275 -16.444 -0.15 +0.14    +0.194    16.331
ATOM      2  C   UNL d   1       1.306   7.084 -17.798 -0.12 +0.15    +0.194    16.331
ATOM      3  C   UNL d   1       1.924   5.691 -17.929 -0.14 +0.14    +0.194    16.331
ATOM      4  C   UNL d   1       0.942   4.565 -17.616 -0.05 +0.12    +0.194    16.331
ATOM      5  C   UNL d   1       0.151   4.771 -16.330 -0.09 +0.17    +0.194    16.331
ATOM      6  C   UNL d   1      -0.415   6.183 -16.171 -0.10 +0.18    +0.194    16.331
ATOM      7  O   UNL d   1      -0.075   8.524 -16.468 -0.09 -0.18    -0.278    16.331
ATOM      8  P   UNL d   1      -0.029   9.443 -15.162 -0.13 +0.27    +0.473    16.331
ATOM      9  O   UNL d   1      -1.357   9.873 -14.647 -0.08 -0.12    -0.228    16.331
ATOM     10  O   UNL d   1       0.803   8.579 -14.110 -0.30 -0.19    -0.303    16.331
ATOM     11  H   UNL d   1       0.777   7.638 -14.367 +0.12 +0.15    +0.222    16.331
ATOM     12  O   UNL d   1       0.990  10.610 -15.514 -0.21 -0.16    -0.303    16.331
ATOM     13  H   UNL d   1       0.553  11.485 -15.619 +0.07 +0.09    +0.222    16.331
ATOM     14  O   UNL d   1       0.337   7.253 -18.841 -0.03 -0.17    -0.278    16.331
ATOM     15  P   UNL d   1       0.864   7.887 -20.213 -0.02 +0.28    +0.473    16.331
ATOM     16  O   UNL d   1       0.034   8.979 -20.812 -0.01 -0.10    -0.228    16.331
ATOM     17  O   UNL d   1       2.350   8.354 -19.878 -0.07 -0.34    -0.303    16.331
ATOM     18  H   UNL d   1       2.902   7.599 -19.598 +0.04 +0.33    +0.222    16.331
ATOM     19  O   UNL d   1       1.129   6.632 -21.154 -0.01 -0.15    -0.303    16.331
ATOM     20  H   UNL d   1       1.956   6.172 -20.918 +0.02 +0.13    +0.222    16.331
ATOM     21  O   UNL d   1      -0.813   6.316 -14.808 -0.46 -0.38    -0.278    16.331
ATOM     22  P   UNL d   1       0.148   5.793 -13.648 -0.33 +0.48    +0.473    16.331
ATOM     23  O   UNL d   1       1.598   5.622 -13.957 -0.24 -0.15    -0.228    16.331
ATOM     24  O   UNL d   1      -0.167   6.822 -12.475 -0.34 -0.22    -0.303    16.331
ATOM     25  H   UNL d   1       0.655   7.346 -12.295 -0.28 +0.09    +0.222    16.331
ATOM     26  O   UNL d   1      -0.624   4.479 -13.152 -1.02 -0.49    -0.303    16.331
ATOM     27  H   UNL d   1      -0.369   3.723 -13.718 +0.08 +0.31    +0.222    16.331
ATOM     28  O   UNL d   1       2.285   5.508 -19.292 -0.07 -0.20    -0.278    16.331
ATOM     29  P   UNL d   1       3.812   5.311 -19.701 -0.14 +0.43    +0.473    16.331
ATOM     30  O   UNL d   1       4.131   4.034 -20.389 -0.10 -0.13    -0.228    16.331
ATOM     31  O   UNL d   1       4.057   6.661 -20.524 -0.21 -0.43    -0.303    16.331
ATOM     32  H   UNL d   1       3.255   6.850 -21.063 +0.03 +0.21    +0.222    16.331
ATOM     33  O   UNL d   1       4.565   5.595 -18.327 -0.59 -0.38    -0.303    16.331
ATOM     34  H   UNL d   1       4.751   4.734 -17.879 -0.47 +0.10    +0.222    16.331
ATOM     35  O   UNL d   1      -0.959   3.879 -16.412 -0.05 -0.31    -0.278    16.331
ATOM     36  P   UNL d   1      -0.963   2.520 -15.577 -0.04 +0.54    +0.473    16.331
ATOM     37  O   UNL d   1      -1.950   2.454 -14.455 -0.22 -0.42    -0.228    16.331
ATOM     38  O   UNL d   1      -1.199   1.437 -16.720 -0.00 -0.26    -0.303    16.331
ATOM     39  H   UNL d   1      -0.329   1.136 -17.062 +0.03 +0.15    +0.222    16.331
ATOM     40  O   UNL d   1       0.572   2.349 -15.199 -0.08 -0.23    -0.303    16.331
ATOM     41  H   UNL d   1       1.089   1.960 -15.939 +0.06 +0.14    +0.222    16.331
ATOM     42  O   UNL d   1       1.717   3.373 -17.448 -0.05 -0.15    -0.278    16.331
ATOM     43  P   UNL d   1       1.389   2.105 -18.358 +0.01 +0.23    +0.473    16.331
ATOM     44  O   UNL d   1       1.573   0.757 -17.750 -0.01 -0.11    -0.228    16.331
ATOM     45  O   UNL d   1      -0.096   2.400 -18.847 +0.01 -0.16    -0.303    16.331
ATOM     46  H   UNL d   1      -0.672   2.664 -18.102 +0.02 +0.14    +0.222    16.331
ATOM     47  O   UNL d   1       2.233   2.383 -19.692 -0.02 -0.13    -0.303    16.331
ATOM     48  H   UNL d   1       2.431   3.341 -19.754 +0.03 +0.10    +0.222    16.331
TER
ENDMDL
MODEL       81
USER    Run = 81
USER    Cluster Rank = 7
USER    Number of conformations in this cluster = 1
USER  
USER    RMSD from reference structure       = 13.807 A
USER  
USER    Estimated Free Energy of Binding    =   +0.92 kcal/mol  [=(1)+(2)+(3)-(4)]
USER    
USER    (1) Final Intermolecular Energy     =   -6.24 kcal/mol
USER        vdW + Hbond + desolv Energy     =   -5.74 kcal/mol
USER        Electrostatic Energy            =   -0.51 kcal/mol
USER    (2) Final Total Internal Energy     =  -13.99 kcal/mol
USER    (3) Torsional Free Energy           =   +7.16 kcal/mol
USER    (4) Unbound System's Energy  [=(2)] =  -13.99 kcal/mol
USER    
USER    
USER  
USER    DPF = D:/Protein_go_brrr/autodock/final/AncB/IHP/dock.dpf
USER    NEWDPF move	IHP_ideal_opt.pdbqt
USER    NEWDPF about	0.035000 0.082000 -0.065000
USER    NEWDPF tran0	15.639609 -6.704432 -2.694727
USER    NEWDPF axisangle0	0.690489 -0.369188 0.622033 -113.166332
USER    NEWDPF quaternion0	0.576341 -0.308156 0.519203 -0.550726
USER    NEWDPF dihe0	-174.80 67.22 76.32 74.19 14.14 -180.00 -98.45 8.89 36.36 -10.50 116.49 -160.72 129.46 113.01 -49.58 -170.74 146.93 -4.31 39.64 -4.58 -174.19 17.54 -7.00 -6.96 
USER  
USER                              x       y       z    vdW   Elec        q     RMS 
ATOM      1  C   UNL d   1      17.007  -7.008  -1.684 -0.16 +0.01    +0.194    13.807
ATOM      2  C   UNL d   1      17.319  -6.762  -3.161 -0.17 +0.02    +0.194    13.807
ATOM      3  C   UNL d   1      16.339  -7.499  -4.077 -0.14 +0.02    +0.194    13.807
ATOM      4  C   UNL d   1      14.876  -7.219  -3.741 -0.20 -0.00    +0.194    13.807
ATOM      5  C   UNL d   1      14.545  -7.340  -2.259 -0.22 -0.03    +0.194    13.807
ATOM      6  C   UNL d   1      15.559  -6.656  -1.340 -0.18 -0.00    +0.194    13.807
ATOM      7  O   UNL d   1      17.849  -6.156  -0.903 -0.13 -0.02    -0.278    13.807
ATOM      8  P   UNL d   1      19.340  -6.639  -0.594 -0.03 +0.03    +0.473    13.807
ATOM      9  O   UNL d   1      20.144  -5.709   0.245 -0.03 -0.02    -0.228    13.807
ATOM     10  O   UNL d   1      19.151  -8.078   0.068 -0.01 -0.01    -0.303    13.807
ATOM     11  H   UNL d   1      18.324  -8.481  -0.257 +0.02 +0.01    +0.222    13.807
ATOM     12  O   UNL d   1      19.958  -7.004  -2.012 -0.01 -0.02    -0.303    13.807
ATOM     13  H   UNL d   1      19.495  -6.562  -2.759 +0.03 +0.02    +0.222    13.807
ATOM     14  O   UNL d   1      17.228  -5.357  -3.431 -0.22 -0.05    -0.278    13.807
ATOM     15  P   UNL d   1      18.496  -4.680  -4.136 -0.11 +0.10    +0.473    13.807
ATOM     16  O   UNL d   1      18.311  -3.290  -4.658 -0.24 -0.07    -0.228    13.807
ATOM     17  O   UNL d   1      19.648  -4.780  -3.040 -0.08 -0.04    -0.303    13.807
ATOM     18  H   UNL d   1      19.275  -4.920  -2.149 +0.05 +0.03    +0.222    13.807
ATOM     19  O   UNL d   1      18.977  -5.756  -5.204 -0.06 -0.06    -0.303    13.807
ATOM     20  H   UNL d   1      18.301  -6.442  -5.354 +0.05 +0.04    +0.222    13.807
ATOM     21  O   UNL d   1      15.313  -7.139  -0.022 -0.13 +0.01    -0.278    13.807
ATOM     22  P   UNL d   1      15.946  -8.528   0.443 -0.02 -0.02    +0.473    13.807
ATOM     23  O   UNL d   1      16.398  -9.484  -0.608 -0.02 +0.01    -0.228    13.807
ATOM     24  O   UNL d   1      17.086  -8.046   1.443 -0.02 -0.00    -0.303    13.807
ATOM     25  H   UNL d   1      17.640  -7.370   0.976 +0.03 +0.01    +0.222    13.807
ATOM     26  O   UNL d   1      14.827  -9.073   1.455 -0.02 +0.03    -0.303    13.807
ATOM     27  H   UNL d   1      14.053  -8.474   1.432 +0.06 -0.03    +0.222    13.807
ATOM     28  O   UNL d   1      16.526  -6.999  -5.395 -0.12 -0.07    -0.278    13.807
ATOM     29  P   UNL d   1      16.770  -8.001  -6.608 -0.04 +0.15    +0.473    13.807
ATOM     30  O   UNL d   1      16.569  -7.427  -7.964 -0.09 -0.13    -0.228    13.807
ATOM     31  O   UNL d   1      18.241  -8.520  -6.250 -0.00 -0.05    -0.303    13.807
ATOM     32  H   UNL d   1      18.802  -7.742  -6.026 +0.03 +0.04    +0.222    13.807
ATOM     33  O   UNL d   1      15.854  -9.240  -6.208 -0.04 -0.07    -0.303    13.807
ATOM     34  H   UNL d   1      14.905  -8.968  -6.262 +0.06 +0.07    +0.222    13.807
ATOM     35  O   UNL d   1      13.300  -6.668  -2.085 -0.20 +0.07    -0.278    13.807
ATOM     36  P   UNL d   1      12.054  -7.434  -1.447 -0.28 -0.17    +0.473    13.807
ATOM     37  O   UNL d   1      10.740  -6.728  -1.552 -0.56 +0.09    -0.228    13.807
ATOM     38  O   UNL d   1      12.108  -8.833  -2.207 -0.21 +0.27    -0.303    13.807
ATOM     39  H   UNL d   1      12.435  -8.689  -3.121 -0.08 -0.25    +0.222    13.807
ATOM     40  O   UNL d   1      12.577  -7.773   0.016 -0.18 +0.07    -0.303    13.807
ATOM     41  H   UNL d   1      13.448  -8.228  -0.004 +0.09 -0.05    +0.222    13.807
ATOM     42  O   UNL d   1      14.098  -8.204  -4.429 -0.15 +0.05    -0.278    13.807
ATOM     43  P   UNL d   1      13.047  -7.727  -5.530 -0.19 +0.05    +0.473    13.807
ATOM     44  O   UNL d   1      13.468  -6.637  -6.454 -0.29 -0.17    -0.228    13.807
ATOM     45  O   UNL d   1      12.664  -9.088  -6.260 -0.16 -0.02    -0.303    13.807
ATOM     46  H   UNL d   1      12.521  -9.811  -5.617 -0.51 -0.32    +0.222    13.807
ATOM     47  O   UNL d   1      11.725  -7.434  -4.672 -0.93 +0.08    -0.303    13.807
ATOM     48  H   UNL d   1      11.968  -7.333  -3.728 +0.11 -0.10    +0.222    13.807
TER
ENDMDL
MODEL       94
USER    Run = 94
USER    Cluster Rank = 8
USER    Number of conformations in this cluster = 1
USER  
USER    RMSD from reference structure       = 14.150 A
USER  
USER    Estimated Free Energy of Binding    =   +1.05 kcal/mol  [=(1)+(2)+(3)-(4)]
USER    
USER    (1) Final Intermolecular Energy     =   -6.11 kcal/mol
USER        vdW + Hbond + desolv Energy     =   -5.63 kcal/mol
USER        Electrostatic Energy            =   -0.48 kcal/mol
USER    (2) Final Total Internal Energy     =  -12.69 kcal/mol
USER    (3) Torsional Free Energy           =   +7.16 kcal/mol
USER    (4) Unbound System's Energy  [=(2)] =  -12.69 kcal/mol
USER    
USER    
USER  
USER    DPF = D:/Protein_go_brrr/autodock/final/AncB/IHP/dock.dpf
USER    NEWDPF move	IHP_ideal_opt.pdbqt
USER    NEWDPF about	0.035000 0.082000 -0.065000
USER    NEWDPF tran0	-0.977022 -7.039898 13.742493
USER    NEWDPF axisangle0	-0.904173 -0.300407 0.303690 -132.665341
USER    NEWDPF quaternion0	-0.828124 -0.275140 0.278147 -0.401426
USER    NEWDPF dihe0	104.94 -27.29 53.73 86.42 -179.98 -116.76 94.34 162.07 6.64 58.88 88.91 94.37 -77.41 -65.53 75.94 -102.89 159.03 180.00 -150.40 -4.52 16.97 -34.27 -175.13 22.06 
USER  
USER                              x       y       z    vdW   Elec        q     RMS 
ATOM      1  C   UNL d   1      -0.853  -5.317  13.755 -0.31 -0.01    +0.194    14.150
ATOM      2  C   UNL d   1      -1.654  -5.930  14.905 -0.25 -0.00    +0.194    14.150
ATOM      3  C   UNL d   1      -2.582  -7.045  14.417 -0.16 +0.02    +0.194    14.150
ATOM      4  C   UNL d   1      -1.863  -8.105  13.585 -0.16 +0.03    +0.194    14.150
ATOM      5  C   UNL d   1      -0.961  -7.534  12.499 -0.21 +0.02    +0.194    14.150
ATOM      6  C   UNL d   1      -0.078  -6.377  12.971 -0.26 +0.01    +0.194    14.150
ATOM      7  O   UNL d   1       0.105  -4.413  14.311 -0.33 +0.02    -0.278    14.150
ATOM      8  P   UNL d   1       1.522  -4.994  14.765 -0.13 -0.04    +0.473    14.150
ATOM      9  O   UNL d   1       1.525  -6.436  15.130 -0.05 +0.00    -0.228    14.150
ATOM     10  O   UNL d   1       2.489  -4.653  13.543 -0.12 +0.04    -0.303    14.150
ATOM     11  H   UNL d   1       2.100  -4.990  12.714 +0.07 -0.01    +0.222    14.150
ATOM     12  O   UNL d   1       2.038  -3.993  15.886 -0.13 +0.05    -0.303    14.150
ATOM     13  H   UNL d   1       2.326  -3.124  15.525 -0.40 -0.08    +0.222    14.150
ATOM     14  O   UNL d   1      -0.745  -6.480  15.866 -0.07 -0.00    -0.278    14.150
ATOM     15  P   UNL d   1      -0.935  -6.005  17.384 -0.03 -0.01    +0.473    14.150
ATOM     16  O   UNL d   1      -1.879  -4.868  17.619 -0.06 +0.01    -0.228    14.150
ATOM     17  O   UNL d   1      -1.362  -7.332  18.155 -0.01 +0.00    -0.303    14.150
ATOM     18  H   UNL d   1      -2.005  -7.849  17.634 +0.03 +0.00    +0.222    14.150
ATOM     19  O   UNL d   1       0.547  -5.787  17.919 -0.02 +0.01    -0.303    14.150
ATOM     20  H   UNL d   1       1.164  -5.569  17.196 +0.04 -0.01    +0.222    14.150
ATOM     21  O   UNL d   1       0.431  -5.742  11.800 -0.27 -0.01    -0.278    14.150
ATOM     22  P   UNL d   1       1.752  -6.305  11.105 -0.15 +0.01    +0.473    14.150
ATOM     23  O   UNL d   1       1.610  -7.057   9.825 -0.14 -0.01    -0.228    14.150
ATOM     24  O   UNL d   1       2.655  -4.998  11.015 -0.19 +0.00    -0.303    14.150
ATOM     25  H   UNL d   1       3.440  -5.124  11.607 +0.07 -0.01    +0.222    14.150
ATOM     26  O   UNL d   1       2.442  -7.101  12.314 -0.04 -0.01    -0.303    14.150
ATOM     27  H   UNL d   1       1.906  -7.893  12.526 +0.05 +0.01    +0.222    14.150
ATOM     28  O   UNL d   1      -3.066  -7.731  15.565 -0.11 -0.03    -0.278    14.150
ATOM     29  P   UNL d   1      -4.208  -7.084  16.466 -0.12 -0.04    +0.473    14.150
ATOM     30  O   UNL d   1      -3.920  -7.027  17.923 -0.05 +0.02    -0.228    14.150
ATOM     31  O   UNL d   1      -4.404  -5.688  15.710 -0.26 +0.12    -0.303    14.150
ATOM     32  H   UNL d   1      -5.353  -5.430  15.765 -0.44 -0.28    +0.222    14.150
ATOM     33  O   UNL d   1      -5.495  -7.909  16.020 -0.63 -0.10    -0.303    14.150
ATOM     34  H   UNL d   1      -6.261  -7.290  15.939 -0.46 -0.07    +0.222    14.150
ATOM     35  O   UNL d   1      -0.091  -8.598  12.119 -0.09 -0.03    -0.278    14.150
ATOM     36  P   UNL d   1       0.599  -9.509  13.231 -0.01 +0.04    +0.473    14.150
ATOM     37  O   UNL d   1       1.858 -10.199  12.810 -0.01 -0.02    -0.228    14.150
ATOM     38  O   UNL d   1       0.789  -8.475  14.428 -0.01 -0.02    -0.303    14.150
ATOM     39  H   UNL d   1       1.401  -7.763  14.143 +0.04 +0.01    +0.222    14.150
ATOM     40  O   UNL d   1      -0.604 -10.432  13.710 -0.01 -0.04    -0.303    14.150
ATOM     41  H   UNL d   1      -1.346 -10.426  13.065 +0.04 +0.04    +0.222    14.150
ATOM     42  O   UNL d   1      -2.876  -8.875  12.930 -0.14 -0.08    -0.278    14.150
ATOM     43  P   UNL d   1      -3.474 -10.154  13.673 -0.07 +0.16    +0.473    14.150
ATOM     44  O   UNL d   1      -3.618 -11.405  12.877 -0.07 -0.07    -0.228    14.150
ATOM     45  O   UNL d   1      -2.525 -10.296  14.942 -0.02 -0.06    -0.303    14.150
ATOM     46  H   UNL d   1      -2.010  -9.479  15.097 +0.03 +0.03    +0.222    14.150
ATOM     47  O   UNL d   1      -4.823  -9.596  14.335 -0.07 -0.20    -0.303    14.150
ATOM     48  H   UNL d   1      -4.616  -9.210  15.212 +0.05 +0.11    +0.222    14.150
TER
ENDMDL
MODEL       93
USER    Run = 93
USER    Cluster Rank = 9
USER    Number of conformations in this cluster = 3
USER  
USER    RMSD from reference structure       = 17.042 A
USER  
USER    Estimated Free Energy of Binding    =   +1.17 kcal/mol  [=(1)+(2)+(3)-(4)]
USER    
USER    (1) Final Intermolecular Energy     =   -5.99 kcal/mol
USER        vdW + Hbond + desolv Energy     =   -5.61 kcal/mol
USER        Electrostatic Energy            =   -0.38 kcal/mol
USER    (2) Final Total Internal Energy     =  -13.69 kcal/mol
USER    (3) Torsional Free Energy           =   +7.16 kcal/mol
USER    (4) Unbound System's Energy  [=(2)] =  -13.69 kcal/mol
USER    
USER    
USER  
USER    DPF = D:/Protein_go_brrr/autodock/final/AncB/IHP/dock.dpf
USER    NEWDPF move	IHP_ideal_opt.pdbqt
USER    NEWDPF about	0.035000 0.082000 -0.065000
USER    NEWDPF tran0	-18.191321 -1.528850 9.263850
USER    NEWDPF axisangle0	0.394837 -0.462862 0.793639 140.066167
USER    NEWDPF quaternion0	0.371103 -0.435039 0.745933 0.341477
USER    NEWDPF dihe0	-160.49 22.40 -179.75 -34.61 100.13 139.04 -98.21 -18.39 79.93 107.46 106.50 179.90 -132.48 81.55 -100.55 38.60 120.44 5.13 18.22 -45.19 -19.02 -62.32 -0.09 -7.24 
USER  
USER                              x       y       z    vdW   Elec        q     RMS 
ATOM      1  C   UNL d   1     -18.300  -2.540  10.660 +0.01 +0.11    +0.194    17.042
ATOM      2  C   UNL d   1     -18.150  -1.043  10.938 -0.12 +0.05    +0.194    17.042
ATOM      3  C   UNL d   1     -17.107  -0.398  10.023 -0.19 +0.04    +0.194    17.042
ATOM      4  C   UNL d   1     -17.343  -0.690   8.543 -0.14 +0.03    +0.194    17.042
ATOM      5  C   UNL d   1     -17.610  -2.158   8.235 -0.16 +0.06    +0.194    17.042
ATOM      6  C   UNL d   1     -18.608  -2.819   9.189 -0.11 +0.09    +0.194    17.042
ATOM      7  O   UNL d   1     -19.404  -3.028  11.427 -0.07 -0.12    -0.278    17.042
ATOM      8  P   UNL d   1     -19.097  -3.882  12.741 -0.07 +0.23    +0.473    17.042
ATOM      9  O   UNL d   1     -18.774  -5.315  12.501 -0.56 -0.22    -0.228    17.042
ATOM     10  O   UNL d   1     -17.915  -3.083  13.455 -0.17 -0.11    -0.303    17.042
ATOM     11  H   UNL d   1     -18.092  -2.125  13.405 +0.07 +0.05    +0.222    17.042
ATOM     12  O   UNL d   1     -20.322  -3.600  13.712 -0.02 -0.06    -0.303    17.042
ATOM     13  H   UNL d   1     -20.787  -2.757  13.512 +0.02 +0.03    +0.222    17.042
ATOM     14  O   UNL d   1     -19.411  -0.399  10.717 -0.02 -0.04    -0.278    17.042
ATOM     15  P   UNL d   1     -20.429  -0.376  11.953 +0.00 +0.05    +0.473    17.042
ATOM     16  O   UNL d   1     -21.153   0.910  12.204 -0.00 -0.02    -0.228    17.042
ATOM     17  O   UNL d   1     -21.416  -1.593  11.666 -0.00 -0.04    -0.303    17.042
ATOM     18  H   UNL d   1     -21.041  -2.434  11.992 +0.02 +0.04    +0.222    17.042
ATOM     19  O   UNL d   1     -19.580  -0.934  13.177 -0.02 -0.04    -0.303    17.042
ATOM     20  H   UNL d   1     -19.706  -1.894  13.294 +0.04 +0.04    +0.222    17.042
ATOM     21  O   UNL d   1     -18.491  -4.227   8.996 -0.51 -0.26    -0.278    17.042
ATOM     22  P   UNL d   1     -19.767  -5.074   8.550 -0.06 +0.13    +0.473    17.042
ATOM     23  O   UNL d   1     -20.866  -5.266   9.539 -0.02 -0.06    -0.228    17.042
ATOM     24  O   UNL d   1     -20.197  -4.331   7.209 -0.01 -0.03    -0.303    17.042
ATOM     25  H   UNL d   1     -19.376  -4.010   6.758 +0.06 +0.02    +0.222    17.042
ATOM     26  O   UNL d   1     -19.088  -6.411   7.984 +0.08 +0.10    -0.303    17.042
ATOM     27  H   UNL d   1     -18.242  -6.183   7.548 -0.51 -0.25    +0.222    17.042
ATOM     28  O   UNL d   1     -17.235   1.012  10.155 -0.12 -0.02    -0.278    17.042
ATOM     29  P   UNL d   1     -17.307   1.682  11.598 -0.14 +0.01    +0.473    17.042
ATOM     30  O   UNL d   1     -16.942   0.797  12.734 -0.24 -0.01    -0.228    17.042
ATOM     31  O   UNL d   1     -16.386   2.968  11.354 -0.19 +0.04    -0.303    17.042
ATOM     32  H   UNL d   1     -15.565   2.684  10.890 -0.48 -0.11    +0.222    17.042
ATOM     33  O   UNL d   1     -18.775   2.297  11.608 -0.02 -0.01    -0.303    17.042
ATOM     34  H   UNL d   1     -19.396   1.654  11.185 +0.03 +0.02    +0.222    17.042
ATOM     35  O   UNL d   1     -18.195  -2.180   6.935 -0.07 -0.03    -0.278    17.042
ATOM     36  P   UNL d   1     -17.633  -3.167   5.816 -0.16 -0.00    +0.473    17.042
ATOM     37  O   UNL d   1     -18.519  -3.368   4.628 -0.16 +0.03    -0.228    17.042
ATOM     38  O   UNL d   1     -16.223  -2.507   5.477 -0.56 +0.01    -0.303    17.042
ATOM     39  H   UNL d   1     -16.031  -1.805   6.135 +0.07 -0.01    +0.222    17.042
ATOM     40  O   UNL d   1     -17.256  -4.460   6.662 -0.28 +0.00    -0.303    17.042
ATOM     41  H   UNL d   1     -18.052  -4.887   7.049 -0.01 -0.02    +0.222    17.042
ATOM     42  O   UNL d   1     -16.142  -0.327   7.853 -0.19 -0.03    -0.278    17.042
ATOM     43  P   UNL d   1     -16.204   0.824   6.751 -0.05 +0.01    +0.473    17.042
ATOM     44  O   UNL d   1     -16.845   2.112   7.138 -0.12 -0.02    -0.228    17.042
ATOM     45  O   UNL d   1     -14.683   0.963   6.305 +0.00 +0.04    -0.303    17.042
ATOM     46  H   UNL d   1     -14.220   0.102   6.338 -0.33 -0.10    +0.222    17.042
ATOM     47  O   UNL d   1     -16.848   0.084   5.484 -0.23 +0.01    -0.303    17.042
ATOM     48  H   UNL d   1     -17.012  -0.856   5.707 +0.09 -0.01    +0.222    17.042
TER
ENDMDL
MODEL       99
USER    Run = 99
USER    Cluster Rank = 10
USER    Number of conformations in this cluster = 2
USER  
USER    RMSD from reference structure       = 18.077 A
USER  
USER    Estimated Free Energy of Binding    =   +1.17 kcal/mol  [=(1)+(2)+(3)-(4)]
USER    
USER    (1) Final Intermolecular Energy     =   -5.99 kcal/mol
USER        vdW + Hbond + desolv Energy     =   -5.75 kcal/mol
USER        Electrostatic Energy            =   -0.24 kcal/mol
USER    (2) Final Total Internal Energy     =  -13.92 kcal/mol
USER    (3) Torsional Free Energy           =   +7.16 kcal/mol
USER    (4) Unbound System's Energy  [=(2)] =  -13.92 kcal/mol
USER    
USER    
USER  
USER    DPF = D:/Protein_go_brrr/autodock/final/AncB/IHP/dock.dpf
USER    NEWDPF move	IHP_ideal_opt.pdbqt
USER    NEWDPF about	0.035000 0.082000 -0.065000
USER    NEWDPF tran0	7.359509 -4.199716 -17.773531
USER    NEWDPF axisangle0	0.736023 -0.568817 -0.367038 -154.343874
USER    NEWDPF quaternion0	0.717653 -0.554620 -0.357877 -0.222026
USER    NEWDPF dihe0	102.24 63.39 31.98 17.91 -11.63 -105.22 -68.05 -5.28 -40.31 1.92 9.66 -103.80 -49.36 175.93 -64.83 38.34 -85.57 -63.67 51.76 -9.01 -174.09 -15.29 -146.28 35.48 
USER  
USER                              x       y       z    vdW   Elec        q     RMS 
ATOM      1  C   UNL d   1       7.485  -5.080 -19.254 -0.01 +0.03    +0.194    18.077
ATOM      2  C   UNL d   1       8.117  -3.687 -19.258 -0.01 +0.03    +0.194    18.077
ATOM      3  C   UNL d   1       7.222  -2.657 -18.568 -0.03 +0.04    +0.194    18.077
ATOM      4  C   UNL d   1       6.777  -3.085 -17.171 -0.08 +0.03    +0.194    18.077
ATOM      5  C   UNL d   1       6.246  -4.511 -17.100 -0.11 +0.02    +0.194    18.077
ATOM      6  C   UNL d   1       7.110  -5.532 -17.843 -0.06 +0.02    +0.194    18.077
ATOM      7  O   UNL d   1       8.449  -6.009 -19.757 -0.00 -0.04    -0.278    18.077
ATOM      8  P   UNL d   1       8.815  -5.956 -21.311 +0.00 +0.06    +0.473    18.077
ATOM      9  O   UNL d   1       8.134  -4.883 -22.084 +0.00 -0.03    -0.228    18.077
ATOM     10  O   UNL d   1      10.406  -5.830 -21.330 +0.00 -0.04    -0.303    18.077
ATOM     11  H   UNL d   1      10.679  -5.056 -20.803 +0.00 +0.03    +0.222    18.077
ATOM     12  O   UNL d   1       8.593  -7.439 -21.838 +0.00 -0.04    -0.303    18.077
ATOM     13  H   UNL d   1       8.034  -7.981 -21.238 +0.01 +0.03    +0.222    18.077
ATOM     14  O   UNL d   1       9.370  -3.741 -18.564 -0.02 -0.05    -0.278    18.077
ATOM     15  P   UNL d   1      10.664  -3.273 -19.384 -0.01 +0.10    +0.473    18.077
ATOM     16  O   UNL d   1      11.827  -4.214 -19.397 -0.01 -0.04    -0.228    18.077
ATOM     17  O   UNL d   1      10.105  -2.961 -20.843 -0.00 -0.06    -0.303    18.077
ATOM     18  H   UNL d   1       9.753  -3.769 -21.265 +0.00 +0.04    +0.222    18.077
ATOM     19  O   UNL d   1      10.970  -1.810 -18.840 -0.54 -0.14    -0.303    18.077
ATOM     20  H   UNL d   1      10.154  -1.289 -18.728 +0.06 +0.13    +0.222    18.077
ATOM     21  O   UNL d   1       6.326  -6.716 -17.977 -0.10 -0.01    -0.278    18.077
ATOM     22  P   UNL d   1       5.284  -6.843 -19.178 -0.06 +0.03    +0.473    18.077
ATOM     23  O   UNL d   1       4.573  -5.611 -19.628 -0.04 -0.03    -0.228    18.077
ATOM     24  O   UNL d   1       6.164  -7.552 -20.299 -0.02 -0.03    -0.303    18.077
ATOM     25  H   UNL d   1       6.754  -6.868 -20.707 +0.02 +0.03    +0.222    18.077
ATOM     26  O   UNL d   1       4.353  -8.048 -18.676 -0.08 +0.03    -0.303    18.077
ATOM     27  H   UNL d   1       3.698  -7.703 -18.036 -0.51 -0.10    +0.222    18.077
ATOM     28  O   UNL d   1       7.995  -1.479 -18.373 -0.08 -0.05    -0.278    18.077
ATOM     29  P   UNL d   1       7.927  -0.289 -19.429 -0.10 +0.11    +0.473    18.077
ATOM     30  O   UNL d   1       6.827  -0.375 -20.423 -0.04 -0.06    -0.228    18.077
ATOM     31  O   UNL d   1       7.912   0.965 -18.435 -0.21 -0.10    -0.303    18.077
ATOM     32  H   UNL d   1       7.682   0.647 -17.532 -0.10 +0.07    +0.222    18.077
ATOM     33  O   UNL d   1       9.413  -0.266 -20.001 -0.08 -0.07    -0.303    18.077
ATOM     34  H   UNL d   1       9.647  -1.171 -20.323 +0.03 +0.05    +0.222    18.077
ATOM     35  O   UNL d   1       6.272  -4.865 -15.718 -0.20 -0.02    -0.278    18.077
ATOM     36  P   UNL d   1       7.121  -3.999 -14.682 -0.24 +0.05    +0.473    18.077
ATOM     37  O   UNL d   1       8.465  -3.553 -15.163 -0.28 -0.03    -0.228    18.077
ATOM     38  O   UNL d   1       6.116  -2.809 -14.352 -0.22 -0.02    -0.303    18.077
ATOM     39  H   UNL d   1       6.463  -1.978 -14.742 -0.32 -0.03    +0.222    18.077
ATOM     40  O   UNL d   1       7.086  -4.904 -13.374 -0.22 +0.00    -0.303    18.077
ATOM     41  H   UNL d   1       6.204  -5.318 -13.242 -0.45 -0.08    +0.222    18.077
ATOM     42  O   UNL d   1       5.704  -2.217 -16.792 -0.07 -0.05    -0.278    18.077
ATOM     43  P   UNL d   1       6.043  -0.723 -16.345 -0.15 +0.09    +0.473    18.077
ATOM     44  O   UNL d   1       7.448  -0.426 -15.952 -0.39 -0.02    -0.228    18.077
ATOM     45  O   UNL d   1       5.515   0.137 -17.575 -0.55 -0.14    -0.303    18.077
ATOM     46  H   UNL d   1       6.008  -0.069 -18.394 +0.06 +0.09    +0.222    18.077
ATOM     47  O   UNL d   1       4.932  -0.414 -15.231 -0.15 -0.04    -0.303    18.077
ATOM     48  H   UNL d   1       5.166  -0.883 -14.403 -0.38 -0.03    +0.222    18.077
TER
ENDMDL
MODEL       23
USER    Run = 23
USER    Cluster Rank = 11
USER    Number of conformations in this cluster = 1
USER  
USER    RMSD from reference structure       = 17.808 A
USER  
USER    Estimated Free Energy of Binding    =   +1.39 kcal/mol  [=(1)+(2)+(3)-(4)]
USER    
USER    (1) Final Intermolecular Energy     =   -5.77 kcal/mol
USER        vdW + Hbond + desolv Energy     =   -5.72 kcal/mol
USER        Electrostatic Energy            =   -0.05 kcal/mol
USER    (2) Final Total Internal Energy     =  -12.40 kcal/mol
USER    (3) Torsional Free Energy           =   +7.16 kcal/mol
USER    (4) Unbound System's Energy  [=(2)] =  -12.40 kcal/mol
USER    
USER    
USER  
USER    DPF = D:/Protein_go_brrr/autodock/final/AncB/IHP/dock.dpf
USER    NEWDPF move	IHP_ideal_opt.pdbqt
USER    NEWDPF about	0.035000 0.082000 -0.065000
USER    NEWDPF tran0	7.852921 -13.857562 -12.976743
USER    NEWDPF axisangle0	-0.860709 -0.414627 -0.295407 67.655531
USER    NEWDPF quaternion0	-0.479155 -0.230822 -0.164452 0.830715
USER    NEWDPF dihe0	-179.97 -159.48 -5.21 10.58 -0.50 -179.93 -131.68 120.86 -6.03 83.87 100.70 -124.33 89.97 169.23 167.80 -114.91 -180.00 120.83 2.18 -39.35 -24.03 -52.03 -26.93 -1.38 
USER  
USER                              x       y       z    vdW   Elec        q     RMS 
ATOM      1  C   UNL d   1       9.379 -14.240 -13.691 -0.07 -0.00    +0.194    17.808
ATOM      2  C   UNL d   1       8.173 -14.983 -14.270 -0.09 -0.01    +0.194    17.808
ATOM      3  C   UNL d   1       7.227 -15.470 -13.171 -0.10 -0.02    +0.194    17.808
ATOM      4  C   UNL d   1       6.813 -14.367 -12.201 -0.18 -0.02    +0.194    17.808
ATOM      5  C   UNL d   1       7.974 -13.526 -11.686 -0.16 -0.01    +0.194    17.808
ATOM      6  C   UNL d   1       8.954 -13.090 -12.777 -0.13 +0.00    +0.194    17.808
ATOM      7  O   UNL d   1      10.116 -13.672 -14.776 -0.04 -0.01    -0.278    17.808
ATOM      8  P   UNL d   1      11.639 -14.113 -14.971 +0.00 +0.03    +0.473    17.808
ATOM      9  O   UNL d   1      12.071 -14.281 -16.385 -0.00 -0.01    -0.228    17.808
ATOM     10  O   UNL d   1      12.469 -12.996 -14.190 +0.00 -0.03    -0.303    17.808
ATOM     11  H   UNL d   1      11.895 -12.566 -13.528 +0.02 +0.03    +0.222    17.808
ATOM     12  O   UNL d   1      11.826 -15.382 -14.033 -0.00 -0.01    -0.303    17.808
ATOM     13  H   UNL d   1      12.555 -15.974 -14.326 +0.00 +0.01    +0.222    17.808
ATOM     14  O   UNL d   1       7.451 -14.097 -15.135 -0.13 +0.04    -0.278    17.808
ATOM     15  P   UNL d   1       7.852 -14.127 -16.685 -0.06 -0.02    +0.473    17.808
ATOM     16  O   UNL d   1       8.007 -12.802 -17.365 -0.14 +0.01    -0.228    17.808
ATOM     17  O   UNL d   1       9.183 -15.001 -16.725 -0.02 -0.00    -0.303    17.808
ATOM     18  H   UNL d   1       9.975 -14.433 -16.794 +0.02 +0.01    +0.222    17.808
ATOM     19  O   UNL d   1       6.799 -15.119 -17.348 -0.06 +0.01    -0.303    17.808
ATOM     20  H   UNL d   1       6.728 -15.954 -16.850 +0.03 -0.01    +0.222    17.808
ATOM     21  O   UNL d   1      10.129 -12.627 -12.114 -0.06 -0.02    -0.278    17.808
ATOM     22  P   UNL d   1      10.703 -11.175 -12.442 -0.06 +0.08    +0.473    17.808
ATOM     23  O   UNL d   1      12.115 -10.874 -12.066 -0.06 -0.07    -0.228    17.808
ATOM     24  O   UNL d   1      10.383 -11.042 -13.995 -0.09 -0.04    -0.303    17.808
ATOM     25  H   UNL d   1      10.937 -11.704 -14.482 +0.04 +0.02    +0.222    17.808
ATOM     26  O   UNL d   1       9.585 -10.228 -11.791 -0.11 -0.02    -0.303    17.808
ATOM     27  H   UNL d   1       8.938 -10.780 -11.307 -0.34 -0.01    +0.222    17.808
ATOM     28  O   UNL d   1       6.023 -15.891 -13.799 -0.12 +0.04    -0.278    17.808
ATOM     29  P   UNL d   1       6.049 -17.042 -14.900 -0.04 -0.03    +0.473    17.808
ATOM     30  O   UNL d   1       5.142 -16.841 -16.059 -0.06 +0.01    -0.228    17.808
ATOM     31  O   UNL d   1       7.619 -17.097 -15.208 -0.01 +0.01    -0.303    17.808
ATOM     32  H   UNL d   1       7.845 -16.361 -15.822 +0.03 -0.01    +0.222    17.808
ATOM     33  O   UNL d   1       5.817 -18.350 -14.023 -0.55 +0.00    -0.303    17.808
ATOM     34  H   UNL d   1       5.815 -19.139 -14.617 +0.02 -0.01    +0.222    17.808
ATOM     35  O   UNL d   1       7.386 -12.341 -11.152 -0.21 -0.01    -0.278    17.808
ATOM     36  P   UNL d   1       7.248 -12.153  -9.574 -0.22 -0.03    +0.473    17.808
ATOM     37  O   UNL d   1       5.931 -11.625  -9.101 -0.49 +0.02    -0.228    17.808
ATOM     38  O   UNL d   1       7.598 -13.611  -9.039 -0.11 +0.04    -0.303    17.808
ATOM     39  H   UNL d   1       6.829 -14.202  -9.190 +0.13 -0.05    +0.222    17.808
ATOM     40  O   UNL d   1       8.539 -11.294  -9.219 -0.30 +0.02    -0.303    17.808
ATOM     41  H   UNL d   1       8.696 -10.583  -9.879 -0.20 -0.05    +0.222    17.808
ATOM     42  O   UNL d   1       6.225 -15.012 -11.066 -0.12 +0.07    -0.278    17.808
ATOM     43  P   UNL d   1       4.665 -14.821 -10.793 -0.26 -0.14    +0.473    17.808
ATOM     44  O   UNL d   1       4.024 -15.733  -9.805 -0.75 +0.10    -0.228    17.808
ATOM     45  O   UNL d   1       4.563 -13.278 -10.417 -0.38 +0.04    -0.303    17.808
ATOM     46  H   UNL d   1       5.277 -12.759 -10.838 -0.01 -0.03    +0.222    17.808
ATOM     47  O   UNL d   1       4.030 -14.840 -12.265 -0.40 +0.09    -0.303    17.808
ATOM     48  H   UNL d   1       4.307 -15.659 -12.725 +0.11 -0.06    +0.222    17.808
TER
ENDMDL
MODEL       14
USER    Run = 14
USER    Cluster Rank = 12
USER    Number of conformations in this cluster = 1
USER  
USER    RMSD from reference structure       = 12.246 A
USER  
USER    Estimated Free Energy of Binding    =   +1.46 kcal/mol  [=(1)+(2)+(3)-(4)]
USER    
USER    (1) Final Intermolecular Energy     =   -5.70 kcal/mol
USER        vdW + Hbond + desolv Energy     =   -5.55 kcal/mol
USER        Electrostatic Energy            =   -0.15 kcal/mol
USER    (2) Final Total Internal Energy     =  -13.73 kcal/mol
USER    (3) Torsional Free Energy           =   +7.16 kcal/mol
USER    (4) Unbound System's Energy  [=(2)] =  -13.73 kcal/mol
USER    
USER    
USER  
USER    DPF = D:/Protein_go_brrr/autodock/final/AncB/IHP/dock.dpf
USER    NEWDPF move	IHP_ideal_opt.pdbqt
USER    NEWDPF about	0.035000 0.082000 -0.065000
USER    NEWDPF tran0	-12.796909 10.770806 -0.408448
USER    NEWDPF axisangle0	-0.928005 -0.070179 -0.365898 124.831267
USER    NEWDPF quaternion0	-0.822519 -0.062202 -0.324307 0.463054
USER    NEWDPF dihe0	-158.75 37.52 151.69 -20.63 25.76 -179.74 -118.50 -11.14 80.63 125.68 179.06 -59.79 48.12 171.47 -54.50 170.59 111.89 47.71 33.79 14.85 -175.41 10.87 5.59 180.00 
USER  
USER                              x       y       z    vdW   Elec        q     RMS 
ATOM      1  C   UNL d   1     -11.174  11.205  -0.810 -0.06 +0.00    +0.194    12.246
ATOM      2  C   UNL d   1     -12.209  11.422  -1.915 -0.01 +0.02    +0.194    12.246
ATOM      3  C   UNL d   1     -13.178  10.243  -2.023 -0.00 +0.03    +0.194    12.246
ATOM      4  C   UNL d   1     -13.826   9.873  -0.691 -0.01 +0.03    +0.194    12.246
ATOM      5  C   UNL d   1     -12.842   9.759   0.467 -0.08 +0.01    +0.194    12.246
ATOM      6  C   UNL d   1     -11.833  10.907   0.538 -0.08 -0.01    +0.194    12.246
ATOM      7  O   UNL d   1     -10.423  12.412  -0.659 -0.07 +0.03    -0.278    12.246
ATOM      8  P   UNL d   1      -9.116  12.610  -1.556 -0.15 -0.07    +0.473    12.246
ATOM      9  O   UNL d   1      -9.299  13.467  -2.759 -0.08 +0.02    -0.228    12.246
ATOM     10  O   UNL d   1      -8.030  13.182  -0.537 -0.53 +0.13    -0.303    12.246
ATOM     11  H   UNL d   1      -8.074  12.685   0.301 -0.19 -0.06    +0.222    12.246
ATOM     12  O   UNL d   1      -8.575  11.140  -1.828 -0.21 -0.02    -0.303    12.246
ATOM     13  H   UNL d   1      -9.054  10.452  -1.313 +0.11 +0.02    +0.222    12.246
ATOM     14  O   UNL d   1     -12.961  12.607  -1.625 +0.00 -0.01    -0.278    12.246
ATOM     15  P   UNL d   1     -13.450  13.469  -2.883 +0.00 +0.04    +0.473    12.246
ATOM     16  O   UNL d   1     -13.223  14.947  -2.813 +0.00 -0.01    -0.228    12.246
ATOM     17  O   UNL d   1     -12.720  12.791  -4.126 +0.00 -0.04    -0.303    12.246
ATOM     18  H   UNL d   1     -12.927  11.838  -4.178 +0.01 +0.04    +0.222    12.246
ATOM     19  O   UNL d   1     -14.958  13.017  -3.112 +0.00 -0.03    -0.303    12.246
ATOM     20  H   UNL d   1     -15.011  12.173  -3.597 +0.00 +0.03    +0.222    12.246
ATOM     21  O   UNL d   1     -10.798  10.492   1.427 -0.19 +0.05    -0.278    12.246
ATOM     22  P   UNL d   1      -9.622   9.557   0.891 -0.32 -0.06    +0.473    12.246
ATOM     23  O   UNL d   1      -9.887   8.705  -0.304 -0.26 -0.01    -0.228    12.246
ATOM     24  O   UNL d   1      -8.432  10.599   0.717 -0.37 +0.06    -0.303    12.246
ATOM     25  H   UNL d   1      -8.807  11.435   0.339 -0.12 -0.04    +0.222    12.246
ATOM     26  O   UNL d   1      -9.190   8.781   2.226 -0.39 +0.10    -0.303    12.246
ATOM     27  H   UNL d   1      -9.810   9.012   2.947 -0.40 -0.16    +0.222    12.246
ATOM     28  O   UNL d   1     -14.251  10.646  -2.865 +0.00 -0.04    -0.278    12.246
ATOM     29  P   UNL d   1     -14.579   9.833  -4.195 +0.01 +0.09    +0.473    12.246
ATOM     30  O   UNL d   1     -16.018   9.735  -4.547 +0.00 -0.04    -0.228    12.246
ATOM     31  O   UNL d   1     -13.628  10.598  -5.231 +0.00 -0.06    -0.303    12.246
ATOM     32  H   UNL d   1     -13.962  11.518  -5.343 +0.00 +0.04    +0.222    12.246
ATOM     33  O   UNL d   1     -13.803   8.465  -3.950 +0.00 -0.08    -0.303    12.246
ATOM     34  H   UNL d   1     -14.014   8.133  -3.043 +0.03 +0.07    +0.222    12.246
ATOM     35  O   UNL d   1     -13.632   9.821   1.653 -0.06 -0.01    -0.278    12.246
ATOM     36  P   UNL d   1     -13.349   8.817   2.860 -0.16 +0.02    +0.473    12.246
ATOM     37  O   UNL d   1     -13.805   9.284   4.207 -0.19 -0.01    -0.228    12.246
ATOM     38  O   UNL d   1     -14.063   7.487   2.352 -0.24 -0.06    -0.303    12.246
ATOM     39  H   UNL d   1     -14.312   7.597   1.409 +0.06 +0.05    +0.222    12.246
ATOM     40  O   UNL d   1     -11.798   8.509   2.690 -0.21 +0.05    -0.303    12.246
ATOM     41  H   UNL d   1     -11.241   9.199   3.114 -0.29 -0.09    +0.222    12.246
ATOM     42  O   UNL d   1     -14.424   8.584  -0.864 -0.02 -0.07    -0.278    12.246
ATOM     43  P   UNL d   1     -13.477   7.314  -1.051 -0.08 +0.18    +0.473    12.246
ATOM     44  O   UNL d   1     -13.119   6.538   0.169 -0.72 -0.11    -0.228    12.246
ATOM     45  O   UNL d   1     -14.245   6.468  -2.159 -0.39 -0.26    -0.303    12.246
ATOM     46  H   UNL d   1     -13.797   6.524  -3.027 +0.05 +0.15    +0.222    12.246
ATOM     47  O   UNL d   1     -12.241   7.899  -1.887 -0.05 -0.07    -0.303    12.246
ATOM     48  H   UNL d   1     -11.419   7.790  -1.365 +0.09 +0.04    +0.222    12.246
TER
ENDMDL
MODEL       38
USER    Run = 38
USER    Cluster Rank = 13
USER    Number of conformations in this cluster = 1
USER  
USER    RMSD from reference structure       = 12.880 A
USER  
USER    Estimated Free Energy of Binding    =   +1.49 kcal/mol  [=(1)+(2)+(3)-(4)]
USER    
USER    (1) Final Intermolecular Energy     =   -5.67 kcal/mol
USER        vdW + Hbond + desolv Energy     =   -5.38 kcal/mol
USER        Electrostatic Energy            =   -0.29 kcal/mol
USER    (2) Final Total Internal Energy     =  -13.11 kcal/mol
USER    (3) Torsional Free Energy           =   +7.16 kcal/mol
USER    (4) Unbound System's Energy  [=(2)] =  -13.11 kcal/mol
USER    
USER    
USER  
USER    DPF = D:/Protein_go_brrr/autodock/final/AncB/IHP/dock.dpf
USER    NEWDPF move	IHP_ideal_opt.pdbqt
USER    NEWDPF about	0.035000 0.082000 -0.065000
USER    NEWDPF tran0	4.390951 -15.359253 -0.509829
USER    NEWDPF axisangle0	0.039507 -0.946743 -0.319556 -155.514515
USER    NEWDPF quaternion0	0.038608 -0.925212 -0.312289 -0.212054
USER    NEWDPF dihe0	-102.16 7.56 160.42 13.19 15.90 -180.00 -90.96 124.15 15.24 166.11 145.50 -145.54 -144.40 76.29 149.61 -168.50 -56.82 -29.61 27.36 -33.73 -26.57 -35.77 -6.19 -26.67 
USER  
USER                              x       y       z    vdW   Elec        q     RMS 
ATOM      1  C   UNL d   1       2.871 -15.883  -1.142 -0.19 +0.00    +0.194    12.880
ATOM      2  C   UNL d   1       4.107 -16.480  -1.815 -0.13 -0.02    +0.194    12.880
ATOM      3  C   UNL d   1       5.187 -15.424  -2.056 -0.14 -0.02    +0.194    12.880
ATOM      4  C   UNL d   1       5.541 -14.628  -0.802 -0.13 -0.02    +0.194    12.880
ATOM      5  C   UNL d   1       4.331 -14.109  -0.035 -0.17 +0.00    +0.194    12.880
ATOM      6  C   UNL d   1       3.225 -15.149   0.153 -0.12 +0.01    +0.194    12.880
ATOM      7  O   UNL d   1       1.989 -16.954  -0.797 -0.09 -0.01    -0.278    12.880
ATOM      8  P   UNL d   1       0.814 -17.327  -1.812 -0.16 -0.02    +0.473    12.880
ATOM      9  O   UNL d   1      -0.485 -16.650  -1.550 -0.30 -0.02    -0.228    12.880
ATOM     10  O   UNL d   1       1.421 -16.986  -3.248 -0.30 +0.09    -0.303    12.880
ATOM     11  H   UNL d   1       1.731 -17.807  -3.674 -0.19 -0.10    +0.222    12.880
ATOM     12  O   UNL d   1       0.776 -18.915  -1.835 -0.07 +0.01    -0.303    12.880
ATOM     13  H   UNL d   1       1.670 -19.323  -1.790 +0.05 -0.02    +0.222    12.880
ATOM     14  O   UNL d   1       4.650 -17.503  -0.971 -0.02 +0.02    -0.278    12.880
ATOM     15  P   UNL d   1       4.246 -19.012  -1.325 +0.01 -0.05    +0.473    12.880
ATOM     16  O   UNL d   1       5.360 -20.009  -1.387 -0.01 +0.03    -0.228    12.880
ATOM     17  O   UNL d   1       3.145 -19.384  -0.235 -0.00 +0.00    -0.303    12.880
ATOM     18  H   UNL d   1       2.345 -18.834  -0.342 +0.03 +0.00    +0.222    12.880
ATOM     19  O   UNL d   1       3.363 -18.888  -2.642 -0.08 +0.07    -0.303    12.880
ATOM     20  H   UNL d   1       2.695 -18.182  -2.563 +0.08 -0.04    +0.222    12.880
ATOM     21  O   UNL d   1       2.058 -14.440   0.564 -0.11 -0.06    -0.278    12.880
ATOM     22  P   UNL d   1       1.257 -14.917   1.859 -0.10 +0.11    +0.473    12.880
ATOM     23  O   UNL d   1       0.045 -14.146   2.260 -0.63 -0.12    -0.228    12.880
ATOM     24  O   UNL d   1       0.995 -16.452   1.532 -0.03 -0.06    -0.303    12.880
ATOM     25  H   UNL d   1       0.608 -16.512   0.622 +0.08 +0.04    +0.222    12.880
ATOM     26  O   UNL d   1       2.427 -15.006   2.951 -0.02 -0.04    -0.303    12.880
ATOM     27  H   UNL d   1       3.258 -14.663   2.562 +0.04 +0.02    +0.222    12.880
ATOM     28  O   UNL d   1       6.381 -16.106  -2.419 -0.07 +0.05    -0.278    12.880
ATOM     29  P   UNL d   1       6.535 -16.740  -3.872 -0.07 -0.14    +0.473    12.880
ATOM     30  O   UNL d   1       7.916 -17.127  -4.259 -0.04 +0.07    -0.228    12.880
ATOM     31  O   UNL d   1       5.451 -17.914  -3.781 -0.10 +0.12    -0.303    12.880
ATOM     32  H   UNL d   1       5.496 -18.314  -2.882 +0.05 -0.06    +0.222    12.880
ATOM     33  O   UNL d   1       5.808 -15.659  -4.787 -0.21 +0.08    -0.303    12.880
ATOM     34  H   UNL d   1       5.799 -15.983  -5.721 +0.10 -0.10    +0.222    12.880
ATOM     35  O   UNL d   1       4.813 -13.770   1.264 -0.06 +0.02    -0.278    12.880
ATOM     36  P   UNL d   1       4.594 -12.301   1.845 -0.09 -0.07    +0.473    12.880
ATOM     37  O   UNL d   1       4.137 -11.278   0.856 -0.85 +0.01    -0.228    12.880
ATOM     38  O   UNL d   1       3.565 -12.570   3.031 -0.04 -0.00    -0.303    12.880
ATOM     39  H   UNL d   1       2.782 -13.043   2.676 +0.08 +0.02    +0.222    12.880
ATOM     40  O   UNL d   1       5.971 -12.021   2.590 -0.10 +0.18    -0.303    12.880
ATOM     41  H   UNL d   1       6.399 -11.197   2.267 -0.32 -0.29    +0.222    12.880
ATOM     42  O   UNL d   1       6.287 -13.485  -1.233 +0.11 +0.05    -0.278    12.880
ATOM     43  P   UNL d   1       7.573 -13.044  -0.399 -0.19 -0.21    +0.473    12.880
ATOM     44  O   UNL d   1       8.146 -14.035   0.555 -0.07 +0.07    -0.228    12.880
ATOM     45  O   UNL d   1       8.584 -12.576  -1.536 -0.31 +0.23    -0.303    12.880
ATOM     46  H   UNL d   1       8.311 -11.722  -1.928 -0.34 -0.27    +0.222    12.880
ATOM     47  O   UNL d   1       7.132 -11.643   0.242 -0.24 +0.24    -0.303    12.880
ATOM     48  H   UNL d   1       6.172 -11.665   0.437 +0.09 -0.12    +0.222    12.880
TER
ENDMDL
MODEL       63
USER    Run = 63
USER    Cluster Rank = 14
USER    Number of conformations in this cluster = 1
USER  
USER    RMSD from reference structure       = 19.484 A
USER  
USER    Estimated Free Energy of Binding    =   +1.54 kcal/mol  [=(1)+(2)+(3)-(4)]
USER    
USER    (1) Final Intermolecular Energy     =   -5.62 kcal/mol
USER        vdW + Hbond + desolv Energy     =   -5.29 kcal/mol
USER        Electrostatic Energy            =   -0.33 kcal/mol
USER    (2) Final Total Internal Energy     =  -14.76 kcal/mol
USER    (3) Torsional Free Energy           =   +7.16 kcal/mol
USER    (4) Unbound System's Energy  [=(2)] =  -14.76 kcal/mol
USER    
USER    
USER  
USER    DPF = D:/Protein_go_brrr/autodock/final/AncB/IHP/dock.dpf
USER    NEWDPF move	IHP_ideal_opt.pdbqt
USER    NEWDPF about	0.035000 0.082000 -0.065000
USER    NEWDPF tran0	-17.281251 -9.862318 11.185104
USER    NEWDPF axisangle0	0.318060 -0.934876 -0.157621 130.393655
USER    NEWDPF quaternion0	0.288720 -0.848638 -0.143081 0.419502
USER    NEWDPF dihe0	123.38 64.34 -168.34 -38.31 144.14 79.60 -172.45 44.28 79.46 67.61 23.77 179.83 -13.09 83.22 -138.17 2.88 107.69 158.05 -0.64 -51.94 -0.13 176.77 -6.82 -15.28 
USER  
USER                              x       y       z    vdW   Elec        q     RMS 
ATOM      1  C   UNL d   1     -16.845 -10.646   9.709 -0.09 -0.07    +0.194    19.484
ATOM      2  C   UNL d   1     -15.986 -11.000  10.924 -0.24 -0.02    +0.194    19.484
ATOM      3  C   UNL d   1     -15.639  -9.762  11.753 -0.33 -0.01    +0.194    19.484
ATOM      4  C   UNL d   1     -16.861  -8.930  12.133 -0.20 +0.04    +0.194    19.484
ATOM      5  C   UNL d   1     -17.807  -8.650  10.972 -0.12 +0.04    +0.194    19.484
ATOM      6  C   UNL d   1     -18.105  -9.876  10.106 -0.11 -0.03    +0.194    19.484
ATOM      7  O   UNL d   1     -17.267 -11.864   9.090 -0.10 +0.02    -0.278    19.484
ATOM      8  P   UNL d   1     -16.909 -12.097   7.551 -0.12 -0.02    +0.473    19.484
ATOM      9  O   UNL d   1     -15.563 -11.616   7.136 -0.26 +0.03    -0.228    19.484
ATOM     10  O   UNL d   1     -17.107 -13.667   7.342 +0.01 -0.01    -0.303    19.484
ATOM     11  H   UNL d   1     -16.848 -14.140   8.154 -0.05 +0.00    +0.222    19.484
ATOM     12  O   UNL d   1     -18.140 -11.497   6.745 -0.09 -0.00    -0.303    19.484
ATOM     13  H   UNL d   1     -18.680 -10.870   7.277 +0.04 -0.01    +0.222    19.484
ATOM     14  O   UNL d   1     -16.708 -11.918  11.755 -0.18 -0.03    -0.278    19.484
ATOM     15  P   UNL d   1     -16.708 -13.452  11.295 -0.05 +0.05    +0.473    19.484
ATOM     16  O   UNL d   1     -16.545 -14.477  12.373 -0.07 -0.04    -0.228    19.484
ATOM     17  O   UNL d   1     -18.073 -13.614  10.489 -0.03 -0.02    -0.303    19.484
ATOM     18  H   UNL d   1     -17.929 -13.511   9.529 +0.04 +0.01    +0.222    19.484
ATOM     19  O   UNL d   1     -15.636 -13.514  10.122 -0.19 -0.02    -0.303    19.484
ATOM     20  H   UNL d   1     -16.059 -13.473   9.244 -0.02 +0.00    +0.222    19.484
ATOM     21  O   UNL d   1     -18.699  -9.396   8.902 -0.11 +0.08    -0.278    19.484
ATOM     22  P   UNL d   1     -20.277  -9.511   8.697 -0.02 -0.01    +0.473    19.484
ATOM     23  O   UNL d   1     -20.789 -10.513   7.718 -0.01 -0.01    -0.228    19.484
ATOM     24  O   UNL d   1     -20.785  -9.717  10.191 -0.00 -0.02    -0.303    19.484
ATOM     25  H   UNL d   1     -20.778  -8.835  10.643 +0.02 +0.02    +0.222    19.484
ATOM     26  O   UNL d   1     -20.681  -7.985   8.417 -0.03 +0.00    -0.303    19.484
ATOM     27  H   UNL d   1     -20.958  -7.566   9.258 +0.02 +0.02    +0.222    19.484
ATOM     28  O   UNL d   1     -15.090 -10.211  12.985 -0.47 -0.05    -0.278    19.484
ATOM     29  P   UNL d   1     -16.028 -10.872  14.090 -0.11 +0.07    +0.473    19.484
ATOM     30  O   UNL d   1     -17.467 -10.513  14.007 -0.04 -0.02    -0.228    19.484
ATOM     31  O   UNL d   1     -15.652 -12.415  13.888 -0.39 -0.10    -0.303    19.484
ATOM     32  H   UNL d   1     -16.471 -12.910  13.654 +0.04 +0.04    +0.222    19.484
ATOM     33  O   UNL d   1     -15.270 -10.499  15.439 -0.13 -0.02    -0.303    19.484
ATOM     34  H   UNL d   1     -15.748  -9.755  15.881 +0.06 +0.00    +0.222    19.484
ATOM     35  O   UNL d   1     -19.039  -8.245  11.565 -0.09 -0.10    -0.278    19.484
ATOM     36  P   UNL d   1     -19.693  -6.841  11.182 -0.03 +0.27    +0.473    19.484
ATOM     37  O   UNL d   1     -21.182  -6.771  11.297 -0.01 -0.05    -0.228    19.484
ATOM     38  O   UNL d   1     -18.914  -5.844  12.150 -0.62 -0.33    -0.303    19.484
ATOM     39  H   UNL d   1     -18.174  -6.326  12.579 +0.05 +0.28    +0.222    19.484
ATOM     40  O   UNL d   1     -19.065  -6.553   9.750 -0.04 -0.19    -0.303    19.484
ATOM     41  H   UNL d   1     -18.812  -7.383   9.289 -0.17 -0.03    +0.222    19.484
ATOM     42  O   UNL d   1     -16.375  -7.665  12.595 -0.24 -0.16    -0.278    19.484
ATOM     43  P   UNL d   1     -16.840  -7.137  14.026 -0.12 +0.12    +0.473    19.484
ATOM     44  O   UNL d   1     -16.794  -5.667  14.264 -0.33 -0.07    -0.228    19.484
ATOM     45  O   UNL d   1     -18.289  -7.776  14.181 -0.04 -0.07    -0.303    19.484
ATOM     46  H   UNL d   1     -18.837  -7.617  13.387 +0.04 +0.07    +0.222    19.484
ATOM     47  O   UNL d   1     -15.980  -8.029  15.043 +0.01 +0.04    -0.303    19.484
ATOM     48  H   UNL d   1     -15.428  -8.657  14.533 -0.38 -0.05    +0.222    19.484
TER
ENDMDL
MODEL       33
USER    Run = 33
USER    Cluster Rank = 15
USER    Number of conformations in this cluster = 1
USER  
USER    RMSD from reference structure       = 15.989 A
USER  
USER    Estimated Free Energy of Binding    =   +1.59 kcal/mol  [=(1)+(2)+(3)-(4)]
USER    
USER    (1) Final Intermolecular Energy     =   -5.57 kcal/mol
USER        vdW + Hbond + desolv Energy     =   -5.51 kcal/mol
USER        Electrostatic Energy            =   -0.06 kcal/mol
USER    (2) Final Total Internal Energy     =  -14.13 kcal/mol
USER    (3) Torsional Free Energy           =   +7.16 kcal/mol
USER    (4) Unbound System's Energy  [=(2)] =  -14.13 kcal/mol
USER    
USER    
USER  
USER    DPF = D:/Protein_go_brrr/autodock/final/AncB/IHP/dock.dpf
USER    NEWDPF move	IHP_ideal_opt.pdbqt
USER    NEWDPF about	0.035000 0.082000 -0.065000
USER    NEWDPF tran0	-5.875545 16.204898 7.746538
USER    NEWDPF axisangle0	-0.892504 -0.093728 -0.441194 -113.873968
USER    NEWDPF quaternion0	-0.747982 -0.078551 -0.369752 -0.545561
USER    NEWDPF dihe0	137.13 -61.50 149.95 -22.03 35.82 -125.84 -140.47 -92.90 84.86 82.01 65.16 -180.00 -80.93 166.63 -53.18 44.08 110.12 139.15 -144.72 17.47 -170.49 9.13 -4.68 -10.19 
USER  
USER                              x       y       z    vdW   Elec        q     RMS 
ATOM      1  C   UNL d   1      -5.073  16.887   9.116 -0.07 -0.03    +0.194    15.989
ATOM      2  C   UNL d   1      -6.556  17.236   8.977 -0.06 -0.02    +0.194    15.989
ATOM      3  C   UNL d   1      -6.924  17.578   7.531 -0.05 -0.03    +0.194    15.989
ATOM      4  C   UNL d   1      -6.487  16.510   6.531 -0.12 -0.06    +0.194    15.989
ATOM      5  C   UNL d   1      -5.046  16.048   6.708 -0.15 -0.06    +0.194    15.989
ATOM      6  C   UNL d   1      -4.660  15.766   8.162 -0.19 -0.04    +0.194    15.989
ATOM      7  O   UNL d   1      -4.849  16.416  10.448 -0.07 +0.04    -0.278    15.989
ATOM      8  P   UNL d   1      -4.936  14.845  10.722 -0.09 -0.05    +0.473    15.989
ATOM      9  O   UNL d   1      -5.858  14.097   9.825 -0.01 -0.00    -0.228    15.989
ATOM     10  O   UNL d   1      -3.422  14.351  10.621 -0.31 +0.09    -0.303    15.989
ATOM     11  H   UNL d   1      -2.899  15.001  10.115 -0.13 -0.10    +0.222    15.989
ATOM     12  O   UNL d   1      -5.224  14.714  12.279 -0.20 +0.05    -0.303    15.989
ATOM     13  H   UNL d   1      -4.444  14.403  12.791 +0.09 -0.09    +0.222    15.989
ATOM     14  O   UNL d   1      -7.342  16.113   9.395 -0.12 +0.00    -0.278    15.989
ATOM     15  P   UNL d   1      -8.766  16.441  10.052 -0.09 +0.05    +0.473    15.989
ATOM     16  O   UNL d   1      -9.149  15.643  11.259 -0.15 -0.09    -0.228    15.989
ATOM     17  O   UNL d   1      -8.709  18.007  10.340 -0.01 -0.01    -0.303    15.989
ATOM     18  H   UNL d   1      -8.481  18.505   9.531 +0.02 -0.00    +0.222    15.989
ATOM     19  O   UNL d   1      -9.788  16.377   8.835 -0.10 -0.01    -0.303    15.989
ATOM     20  H   UNL d   1      -9.792  17.207   8.324 +0.04 -0.00    +0.222    15.989
ATOM     21  O   UNL d   1      -3.237  15.686   8.202 -0.25 +0.07    -0.278    15.989
ATOM     22  P   UNL d   1      -2.375  17.013   8.402 -0.10 -0.13    +0.473    15.989
ATOM     23  O   UNL d   1      -2.993  18.318   8.028 -0.02 +0.05    -0.228    15.989
ATOM     24  O   UNL d   1      -1.942  16.893   9.929 -0.10 +0.12    -0.303    15.989
ATOM     25  H   UNL d   1      -2.652  16.400  10.413 -0.06 -0.09    +0.222    15.989
ATOM     26  O   UNL d   1      -1.015  16.636   7.641 -0.28 +0.11    -0.303    15.989
ATOM     27  H   UNL d   1      -1.214  16.443   6.703 +0.07 -0.08    +0.222    15.989
ATOM     28  O   UNL d   1      -8.343  17.613   7.448 -0.03 +0.03    -0.278    15.989
ATOM     29  P   UNL d   1      -9.090  18.950   7.008 -0.00 -0.03    +0.473    15.989
ATOM     30  O   UNL d   1      -8.246  19.956   6.314 -0.00 +0.02    -0.228    15.989
ATOM     31  O   UNL d   1     -10.310  18.328   6.180 -0.01 +0.02    -0.303    15.989
ATOM     32  H   UNL d   1     -10.029  18.220   5.242 +0.02 -0.02    +0.222    15.989
ATOM     33  O   UNL d   1      -9.784  19.407   8.367 -0.00 +0.01    -0.303    15.989
ATOM     34  H   UNL d   1     -10.047  18.604   8.879 +0.02 -0.00    +0.222    15.989
ATOM     35  O   UNL d   1      -4.946  14.814   6.000 -0.25 +0.11    -0.278    15.989
ATOM     36  P   UNL d   1      -3.821  14.614   4.887 -0.26 -0.20    +0.473    15.989
ATOM     37  O   UNL d   1      -3.404  13.199   4.638 -1.06 +0.06    -0.228    15.989
ATOM     38  O   UNL d   1      -4.476  15.335   3.628 -0.30 +0.19    -0.303    15.989
ATOM     39  H   UNL d   1      -5.231  15.884   3.929 +0.09 -0.12    +0.222    15.989
ATOM     40  O   UNL d   1      -2.689  15.626   5.362 -0.42 +0.15    -0.303    15.989
ATOM     41  H   UNL d   1      -2.578  15.617   6.338 +0.10 -0.03    +0.222    15.989
ATOM     42  O   UNL d   1      -6.584  17.098   5.229 -0.07 +0.09    -0.278    15.989
ATOM     43  P   UNL d   1      -7.531  16.414   4.144 -0.13 -0.17    +0.473    15.989
ATOM     44  O   UNL d   1      -7.523  16.985   2.768 -0.11 +0.09    -0.228    15.989
ATOM     45  O   UNL d   1      -7.098  14.884   4.216 -0.11 +0.16    -0.303    15.989
ATOM     46  H   UNL d   1      -6.310  14.762   4.782 -0.40 -0.13    +0.222    15.989
ATOM     47  O   UNL d   1      -8.959  16.383   4.871 -0.09 +0.07    -0.303    15.989
ATOM     48  H   UNL d   1      -8.872  16.764   5.769 +0.04 -0.04    +0.222    15.989
TER
ENDMDL
MODEL       95
USER    Run = 95
USER    Cluster Rank = 16
USER    Number of conformations in this cluster = 1
USER  
USER    RMSD from reference structure       = 18.766 A
USER  
USER    Estimated Free Energy of Binding    =   +1.60 kcal/mol  [=(1)+(2)+(3)-(4)]
USER    
USER    (1) Final Intermolecular Energy     =   -5.56 kcal/mol
USER        vdW + Hbond + desolv Energy     =   -5.39 kcal/mol
USER        Electrostatic Energy            =   -0.17 kcal/mol
USER    (2) Final Total Internal Energy     =  -11.86 kcal/mol
USER    (3) Torsional Free Energy           =   +7.16 kcal/mol
USER    (4) Unbound System's Energy  [=(2)] =  -11.86 kcal/mol
USER    
USER    
USER  
USER    DPF = D:/Protein_go_brrr/autodock/final/AncB/IHP/dock.dpf
USER    NEWDPF move	IHP_ideal_opt.pdbqt
USER    NEWDPF about	0.035000 0.082000 -0.065000
USER    NEWDPF tran0	15.728895 3.730176 -13.998207
USER    NEWDPF axisangle0	-0.061969 -0.790322 -0.609550 106.136526
USER    NEWDPF quaternion0	-0.049535 -0.631746 -0.487245 0.600863
USER    NEWDPF dihe0	73.42 97.06 113.89 93.70 -147.13 -97.20 -133.71 -9.58 55.25 67.70 -169.94 142.51 -18.38 118.05 21.94 46.73 111.76 166.01 35.56 -7.54 153.56 162.91 140.35 -169.29 
USER  
USER                              x       y       z    vdW   Elec        q     RMS 
ATOM      1  C   UNL d   1      16.490   4.520 -15.333 -0.03 +0.05    +0.194    18.766
ATOM      2  C   UNL d   1      16.953   3.088 -15.061 -0.01 +0.05    +0.194    18.766
ATOM      3  C   UNL d   1      17.156   2.832 -13.566 -0.03 +0.06    +0.194    18.766
ATOM      4  C   UNL d   1      15.945   3.217 -12.720 -0.12 +0.08    +0.194    18.766
ATOM      5  C   UNL d   1      15.379   4.595 -13.039 -0.18 +0.08    +0.194    18.766
ATOM      6  C   UNL d   1      15.233   4.874 -14.536 -0.12 +0.05    +0.194    18.766
ATOM      7  O   UNL d   1      16.159   4.626 -16.719 -0.01 -0.06    -0.278    18.766
ATOM      8  P   UNL d   1      17.324   4.985 -17.752 +0.01 +0.09    +0.473    18.766
ATOM      9  O   UNL d   1      18.667   4.448 -17.400 -0.00 -0.04    -0.228    18.766
ATOM     10  O   UNL d   1      16.779   4.446 -19.152 -0.00 -0.05    -0.303    18.766
ATOM     11  H   UNL d   1      16.984   3.497 -19.239 +0.01 +0.04    +0.222    18.766
ATOM     12  O   UNL d   1      17.235   6.560 -17.945 -0.00 -0.06    -0.303    18.766
ATOM     13  H   UNL d   1      17.235   7.053 -17.094 +0.03 +0.04    +0.222    18.766
ATOM     14  O   UNL d   1      15.962   2.176 -15.550 -0.03 -0.07    -0.278    18.766
ATOM     15  P   UNL d   1      16.457   1.077 -16.604 -0.00 +0.10    +0.473    18.766
ATOM     16  O   UNL d   1      15.463   0.032 -17.003 -0.04 -0.05    -0.228    18.766
ATOM     17  O   UNL d   1      16.981   1.935 -17.840 -0.00 -0.06    -0.303    18.766
ATOM     18  H   UNL d   1      17.151   2.861 -17.579 +0.01 +0.04    +0.222    18.766
ATOM     19  O   UNL d   1      17.821   0.530 -15.995 -0.00 -0.06    -0.303    18.766
ATOM     20  H   UNL d   1      17.800   0.514 -15.020 +0.02 +0.05    +0.222    18.766
ATOM     21  O   UNL d   1      15.031   6.278 -14.676 -0.18 -0.06    -0.278    18.766
ATOM     22  P   UNL d   1      16.034   7.297 -13.969 -0.23 +0.18    +0.473    18.766
ATOM     23  O   UNL d   1      17.496   7.128 -14.209 -0.09 -0.07    -0.228    18.766
ATOM     24  O   UNL d   1      15.442   8.704 -14.421 -0.60 -0.13    -0.303    18.766
ATOM     25  H   UNL d   1      15.593   9.352 -13.687 -0.39 +0.10    +0.222    18.766
ATOM     26  O   UNL d   1      15.558   7.214 -12.440 -0.60 -0.20    -0.303    18.766
ATOM     27  H   UNL d   1      16.045   6.494 -11.990 +0.09 +0.14    +0.222    18.766
ATOM     28  O   UNL d   1      17.310   1.430 -13.389 -0.01 -0.08    -0.278    18.766
ATOM     29  P   UNL d   1      16.031   0.497 -13.210 -0.06 +0.14    +0.473    18.766
ATOM     30  O   UNL d   1      14.751   1.062 -13.707 -0.19 -0.07    -0.228    18.766
ATOM     31  O   UNL d   1      16.559  -0.839 -13.917 -0.04 -0.08    -0.303    18.766
ATOM     32  H   UNL d   1      16.444  -0.745 -14.890 +0.04 +0.05    +0.222    18.766
ATOM     33  O   UNL d   1      16.102   0.127 -11.662 -0.15 -0.10    -0.303    18.766
ATOM     34  H   UNL d   1      16.225   0.957 -11.139 +0.09 +0.09    +0.222    18.766
ATOM     35  O   UNL d   1      14.067   4.613 -12.479 -0.28 -0.12    -0.278    18.766
ATOM     36  P   UNL d   1      12.818   4.118 -13.340 -0.30 +0.11    +0.473    18.766
ATOM     37  O   UNL d   1      11.636   3.652 -12.551 -0.36 -0.03    -0.228    18.766
ATOM     38  O   UNL d   1      12.533   5.387 -14.259 -0.36 -0.01    -0.303    18.766
ATOM     39  H   UNL d   1      13.011   6.162 -13.894 -0.36 -0.02    +0.222    18.766
ATOM     40  O   UNL d   1      13.484   3.068 -14.332 -0.22 -0.09    -0.303    18.766
ATOM     41  H   UNL d   1      14.302   2.677 -13.953 +0.11 +0.07    +0.222    18.766
ATOM     42  O   UNL d   1      16.384   3.247 -11.358 -0.14 -0.18    -0.278    18.766
ATOM     43  P   UNL d   1      17.180   4.525 -10.832 -0.09 +0.46    +0.473    18.766
ATOM     44  O   UNL d   1      18.207   4.307  -9.775 -0.24 -0.29    -0.228    18.766
ATOM     45  O   UNL d   1      17.753   5.157 -12.175 -0.06 -0.16    -0.303    18.766
ATOM     46  H   UNL d   1      17.389   6.050 -12.335 +0.08 +0.12    +0.222    18.766
ATOM     47  O   UNL d   1      16.012   5.557 -10.459 -0.42 -0.43    -0.303    18.766
ATOM     48  H   UNL d   1      15.297   5.490 -11.126 +0.09 +0.20    +0.222    18.766
TER
ENDMDL
MODEL       66
USER    Run = 66
USER    Cluster Rank = 17
USER    Number of conformations in this cluster = 1
USER  
USER    RMSD from reference structure       = 16.526 A
USER  
USER    Estimated Free Energy of Binding    =   +1.72 kcal/mol  [=(1)+(2)+(3)-(4)]
USER    
USER    (1) Final Intermolecular Energy     =   -5.44 kcal/mol
USER        vdW + Hbond + desolv Energy     =   -5.10 kcal/mol
USER        Electrostatic Energy            =   -0.34 kcal/mol
USER    (2) Final Total Internal Energy     =  -15.09 kcal/mol
USER    (3) Torsional Free Energy           =   +7.16 kcal/mol
USER    (4) Unbound System's Energy  [=(2)] =  -15.09 kcal/mol
USER    
USER    
USER  
USER    DPF = D:/Protein_go_brrr/autodock/final/AncB/IHP/dock.dpf
USER    NEWDPF move	IHP_ideal_opt.pdbqt
USER    NEWDPF about	0.035000 0.082000 -0.065000
USER    NEWDPF tran0	-4.934960 -11.672822 15.096972
USER    NEWDPF axisangle0	-0.676631 0.462241 0.573153 179.339792
USER    NEWDPF quaternion0	-0.676619 0.462233 0.573143 0.005761
USER    NEWDPF dihe0	-170.48 -54.72 105.42 131.35 -72.84 179.70 102.05 -108.42 62.29 14.57 -17.44 -158.83 -128.30 95.59 20.86 -111.39 151.74 -20.74 47.46 0.76 174.51 11.63 -4.31 175.43 
USER  
USER                              x       y       z    vdW   Elec        q     RMS 
ATOM      1  C   UNL d   1      -5.109 -11.543  13.383 -0.13 +0.09    +0.194    16.526
ATOM      2  C   UNL d   1      -4.218 -10.487  14.039 -0.12 +0.08    +0.194    16.526
ATOM      3  C   UNL d   1      -4.833  -9.951  15.333 -0.11 +0.09    +0.194    16.526
ATOM      4  C   UNL d   1      -5.234 -11.054  16.310 -0.04 +0.06    +0.194    16.526
ATOM      5  C   UNL d   1      -6.028 -12.188  15.673 -0.04 +0.06    +0.194    16.526
ATOM      6  C   UNL d   1      -5.447 -12.682  14.347 -0.05 +0.06    +0.194    16.526
ATOM      7  O   UNL d   1      -4.391 -12.113  12.285 -0.06 -0.10    -0.278    16.526
ATOM      8  P   UNL d   1      -4.243 -11.253  10.947 -0.12 +0.18    +0.473    16.526
ATOM      9  O   UNL d   1      -5.460 -11.202  10.092 -0.24 -0.11    -0.228    16.526
ATOM     10  O   UNL d   1      -3.776  -9.816  11.461 -0.18 -0.12    -0.303    16.526
ATOM     11  H   UNL d   1      -3.237  -9.917  12.267 +0.07 +0.07    +0.222    16.526
ATOM     12  O   UNL d   1      -2.926 -11.801  10.248 -0.05 -0.09    -0.303    16.526
ATOM     13  H   UNL d   1      -2.141 -11.229  10.404 +0.06 +0.05    +0.222    16.526
ATOM     14  O   UNL d   1      -2.947 -11.073  14.346 -0.03 -0.06    -0.278    16.526
ATOM     15  P   UNL d   1      -1.650 -10.239  13.912 -0.02 +0.08    +0.473    16.526
ATOM     16  O   UNL d   1      -0.420 -10.430  14.742 -0.01 -0.02    -0.228    16.526
ATOM     17  O   UNL d   1      -1.431 -10.631  12.383 -0.03 -0.05    -0.303    16.526
ATOM     18  H   UNL d   1      -2.190 -11.138  12.038 +0.05 +0.05    +0.222    16.526
ATOM     19  O   UNL d   1      -2.167  -8.740  13.786 -0.11 -0.06    -0.303    16.526
ATOM     20  H   UNL d   1      -2.356  -8.349  14.660 +0.06 +0.03    +0.222    16.526
ATOM     21  O   UNL d   1      -6.456 -13.472  13.723 -0.06 -0.10    -0.278    16.526
ATOM     22  P   UNL d   1      -7.743 -12.764  13.100 -0.18 +0.27    +0.473    16.526
ATOM     23  O   UNL d   1      -7.536 -11.624  12.161 -0.86 -0.19    -0.228    16.526
ATOM     24  O   UNL d   1      -8.529 -14.003  12.482 -0.31 -0.14    -0.303    16.526
ATOM     25  H   UNL d   1      -8.892 -13.730  11.602 -0.52 +0.09    +0.222    16.526
ATOM     26  O   UNL d   1      -8.607 -12.446  14.413 -0.29 -0.15    -0.303    16.526
ATOM     27  H   UNL d   1      -8.084 -12.680  15.206 +0.07 +0.08    +0.222    16.526
ATOM     28  O   UNL d   1      -3.830  -9.199  16.005 -0.07 -0.06    -0.278    16.526
ATOM     29  P   UNL d   1      -4.079  -7.668  16.366 -0.10 +0.02    +0.473    16.526
ATOM     30  O   UNL d   1      -2.932  -6.757  16.120 -0.13 +0.00    -0.228    16.526
ATOM     31  O   UNL d   1      -5.415  -7.397  15.528 -0.17 -0.05    -0.303    16.526
ATOM     32  H   UNL d   1      -5.914  -6.667  15.961 -0.45 -0.31    +0.222    16.526
ATOM     33  O   UNL d   1      -4.616  -7.762  17.863 -0.04 +0.01    -0.303    16.526
ATOM     34  H   UNL d   1      -5.335  -8.438  17.904 +0.04 +0.01    +0.222    16.526
ATOM     35  O   UNL d   1      -5.956 -13.275  16.593 -0.00 -0.06    -0.278    16.526
ATOM     36  P   UNL d   1      -7.290 -13.979  17.112 +0.01 +0.08    +0.473    16.526
ATOM     37  O   UNL d   1      -7.137 -14.833  18.330 -0.00 -0.03    -0.228    16.526
ATOM     38  O   UNL d   1      -8.264 -12.734  17.303 -0.01 -0.06    -0.303    16.526
ATOM     39  H   UNL d   1      -7.753 -11.905  17.178 +0.05 +0.05    +0.222    16.526
ATOM     40  O   UNL d   1      -7.832 -14.690  15.796 -0.03 -0.07    -0.303    16.526
ATOM     41  H   UNL d   1      -7.538 -14.224  14.982 +0.05 +0.06    +0.222    16.526
ATOM     42  O   UNL d   1      -6.080 -10.449  17.294 -0.03 -0.07    -0.278    16.526
ATOM     43  P   UNL d   1      -7.486  -9.848  16.838 -0.10 +0.20    +0.473    16.526
ATOM     44  O   UNL d   1      -8.108 -10.413  15.608 -0.26 -0.17    -0.228    16.526
ATOM     45  O   UNL d   1      -8.375 -10.007  18.148 -0.04 -0.04    -0.303    16.526
ATOM     46  H   UNL d   1      -8.844 -10.865  18.161 +0.05 +0.03    +0.222    16.526
ATOM     47  O   UNL d   1      -7.219  -8.268  16.815 -0.60 -0.09    -0.303    16.526
ATOM     48  H   UNL d   1      -6.254  -8.104  16.758 -0.02 +0.04    +0.222    16.526
TER
ENDMDL
MODEL       12
USER    Run = 12
USER    Cluster Rank = 18
USER    Number of conformations in this cluster = 1
USER  
USER    RMSD from reference structure       = 15.488 A
USER  
USER    Estimated Free Energy of Binding    =   +1.73 kcal/mol  [=(1)+(2)+(3)-(4)]
USER    
USER    (1) Final Intermolecular Energy     =   -5.43 kcal/mol
USER        vdW + Hbond + desolv Energy     =   -5.48 kcal/mol
USER        Electrostatic Energy            =   +0.06 kcal/mol
USER    (2) Final Total Internal Energy     =  -12.09 kcal/mol
USER    (3) Torsional Free Energy           =   +7.16 kcal/mol
USER    (4) Unbound System's Energy  [=(2)] =  -12.09 kcal/mol
USER    
USER    
USER  
USER    DPF = D:/Protein_go_brrr/autodock/final/AncB/IHP/dock.dpf
USER    NEWDPF move	IHP_ideal_opt.pdbqt
USER    NEWDPF about	0.035000 0.082000 -0.065000
USER    NEWDPF tran0	0.364834 4.334727 -16.505997
USER    NEWDPF axisangle0	0.051181 -0.234897 -0.970672 -71.319333
USER    NEWDPF quaternion0	0.029837 -0.136938 -0.565872 -0.812494
USER    NEWDPF dihe0	-106.50 -17.48 148.40 -18.81 41.27 -138.88 -89.79 -0.67 29.15 100.76 -25.96 179.44 -176.35 172.77 136.34 159.70 -72.78 158.96 62.44 12.26 -15.67 19.65 -178.37 -177.95 
USER  
USER                              x       y       z    vdW   Elec        q     RMS 
ATOM      1  C   UNL d   1      -0.244   2.939 -15.690 -0.09 +0.18    +0.194    15.488
ATOM      2  C   UNL d   1      -1.284   3.770 -16.444 -0.06 +0.23    +0.194    15.488
ATOM      3  C   UNL d   1      -1.077   5.270 -16.226 -0.07 +0.25    +0.194    15.488
ATOM      4  C   UNL d   1       0.350   5.729 -16.518 -0.10 +0.15    +0.194    15.488
ATOM      5  C   UNL d   1       1.425   4.858 -15.878 -0.17 +0.13    +0.194    15.488
ATOM      6  C   UNL d   1       1.184   3.356 -16.044 -0.11 +0.13    +0.194    15.488
ATOM      7  O   UNL d   1      -0.397   1.572 -16.080 -0.02 -0.23    -0.278    15.488
ATOM      8  P   UNL d   1      -1.798   0.857 -15.805 -0.03 +0.54    +0.473    15.488
ATOM      9  O   UNL d   1      -1.720  -0.399 -15.010 -0.60 -0.40    -0.228    15.488
ATOM     10  O   UNL d   1      -2.680   1.988 -15.107 -0.37 -0.53    -0.303    15.488
ATOM     11  H   UNL d   1      -3.230   2.435 -15.778 +0.02 +0.40    +0.222    15.488
ATOM     12  O   UNL d   1      -2.486   0.733 -17.232 -0.01 -0.27    -0.303    15.488
ATOM     13  H   UNL d   1      -2.670   1.605 -17.648 +0.01 +0.18    +0.222    15.488
ATOM     14  O   UNL d   1      -1.176   3.493 -17.846 -0.00 -0.21    -0.278    15.488
ATOM     15  P   UNL d   1      -2.544   3.468 -18.678 +0.01 +0.32    +0.473    15.488
ATOM     16  O   UNL d   1      -2.758   2.296 -19.584 +0.00 -0.12    -0.228    15.488
ATOM     17  O   UNL d   1      -3.676   3.604 -17.566 -0.03 -0.32    -0.303    15.488
ATOM     18  H   UNL d   1      -3.513   4.375 -16.990 +0.00 +0.34    +0.222    15.488
ATOM     19  O   UNL d   1      -2.609   4.896 -19.376 +0.00 -0.17    -0.303    15.488
ATOM     20  H   UNL d   1      -2.901   5.588 -18.754 +0.01 +0.14    +0.222    15.488
ATOM     21  O   UNL d   1       2.053   2.697 -15.125 -0.15 -0.15    -0.278    15.488
ATOM     22  P   UNL d   1       3.180   1.708 -15.670 -0.11 +0.20    +0.473    15.488
ATOM     23  O   UNL d   1       4.255   1.278 -14.731 -0.32 -0.06    -0.228    15.488
ATOM     24  O   UNL d   1       2.308   0.522 -16.275 -0.03 -0.14    -0.303    15.488
ATOM     25  H   UNL d   1       1.432   0.516 -15.812 +0.06 +0.12    +0.222    15.488
ATOM     26  O   UNL d   1       3.667   2.470 -16.995 -0.00 -0.14    -0.303    15.488
ATOM     27  H   UNL d   1       3.816   3.415 -16.786 -0.27 +0.07    +0.222    15.488
ATOM     28  O   UNL d   1      -1.893   5.956 -17.166 -0.04 -0.28    -0.278    15.488
ATOM     29  P   UNL d   1      -2.856   7.131 -16.689 -0.03 +0.50    +0.473    15.488
ATOM     30  O   UNL d   1      -2.823   8.364 -17.517 -0.01 -0.13    -0.228    15.488
ATOM     31  O   UNL d   1      -4.246   6.342 -16.618 -0.58 -0.46    -0.303    15.488
ATOM     32  H   UNL d   1      -4.287   5.709 -17.372 +0.01 +0.25    +0.222    15.488
ATOM     33  O   UNL d   1      -2.460   7.285 -15.154 -0.12 -0.45    -0.303    15.488
ATOM     34  H   UNL d   1      -1.496   7.492 -15.090 +0.07 +0.24    +0.222    15.488
ATOM     35  O   UNL d   1       2.634   5.168 -16.568 -0.22 -0.18    -0.278    15.488
ATOM     36  P   UNL d   1       2.664   5.211 -18.162 -0.15 +0.35    +0.473    15.488
ATOM     37  O   UNL d   1       1.674   4.324 -18.849 -0.04 -0.13    -0.228    15.488
ATOM     38  O   UNL d   1       2.462   6.764 -18.450 -0.11 -0.33    -0.303    15.488
ATOM     39  H   UNL d   1       1.787   7.120 -17.833 +0.06 +0.20    +0.222    15.488
ATOM     40  O   UNL d   1       4.202   4.959 -18.480 -0.21 -0.24    -0.303    15.488
ATOM     41  H   UNL d   1       4.513   4.101 -18.117 -0.46 +0.06    +0.222    15.488
ATOM     42  O   UNL d   1       0.486   7.041 -15.962 -0.12 -0.21    -0.278    15.488
ATOM     43  P   UNL d   1       0.529   7.206 -14.376 -0.27 +0.35    +0.473    15.488
ATOM     44  O   UNL d   1       0.109   8.519 -13.811 -0.10 -0.14    -0.228    15.488
ATOM     45  O   UNL d   1      -0.342   5.973 -13.873 -0.59 -0.37    -0.303    15.488
ATOM     46  H   UNL d   1      -1.257   6.245 -13.657 +0.10 +0.40    +0.222    15.488
ATOM     47  O   UNL d   1       2.013   6.733 -13.999 -0.35 -0.18    -0.303    15.488
ATOM     48  H   UNL d   1       2.478   6.451 -14.813 +0.12 +0.15    +0.222    15.488
TER
ENDMDL
MODEL        9
USER    Run = 9
USER    Cluster Rank = 19
USER    Number of conformations in this cluster = 1
USER  
USER    RMSD from reference structure       = 18.055 A
USER  
USER    Estimated Free Energy of Binding    =   +1.74 kcal/mol  [=(1)+(2)+(3)-(4)]
USER    
USER    (1) Final Intermolecular Energy     =   -5.42 kcal/mol
USER        vdW + Hbond + desolv Energy     =   -5.38 kcal/mol
USER        Electrostatic Energy            =   -0.04 kcal/mol
USER    (2) Final Total Internal Energy     =  -13.58 kcal/mol
USER    (3) Torsional Free Energy           =   +7.16 kcal/mol
USER    (4) Unbound System's Energy  [=(2)] =  -13.58 kcal/mol
USER    
USER    
USER  
USER    DPF = D:/Protein_go_brrr/autodock/final/AncB/IHP/dock.dpf
USER    NEWDPF move	IHP_ideal_opt.pdbqt
USER    NEWDPF about	0.035000 0.082000 -0.065000
USER    NEWDPF tran0	16.778984 3.501896 -11.881306
USER    NEWDPF axisangle0	-0.247113 0.541075 0.803849 125.107128
USER    NEWDPF quaternion0	-0.219299 0.480173 0.713369 0.460919
USER    NEWDPF dihe0	43.17 27.55 111.19 142.57 2.56 150.82 -70.31 -27.29 -14.01 4.50 136.86 136.18 153.17 65.97 178.68 -4.08 -148.88 97.03 54.53 23.07 -22.51 13.12 163.36 -17.45 
USER  
USER                              x       y       z    vdW   Elec        q     RMS 
ATOM      1  C   UNL d   1      15.184   2.897 -12.156 -0.23 +0.09    +0.194    18.055
ATOM      2  C   UNL d   1      15.701   3.894 -13.195 -0.11 +0.07    +0.194    18.055
ATOM      3  C   UNL d   1      16.422   5.074 -12.539 -0.18 +0.10    +0.194    18.055
ATOM      4  C   UNL d   1      17.511   4.644 -11.559 -0.14 +0.13    +0.194    18.055
ATOM      5  C   UNL d   1      17.072   3.565 -10.577 -0.09 +0.18    +0.194    18.055
ATOM      6  C   UNL d   1      16.297   2.416 -11.225 -0.19 +0.11    +0.194    18.055
ATOM      7  O   UNL d   1      14.683   1.752 -12.849 -0.21 -0.09    -0.278    18.055
ATOM      8  P   UNL d   1      13.364   1.917 -13.735 -0.18 +0.12    +0.473    18.055
ATOM      9  O   UNL d   1      12.583   0.667 -13.943 -0.38 -0.04    -0.228    18.055
ATOM     10  O   UNL d   1      12.536   3.057 -12.986 -0.40 -0.05    -0.303    18.055
ATOM     11  H   UNL d   1      11.707   2.683 -12.636 -0.32 -0.02    +0.222    18.055
ATOM     12  O   UNL d   1      13.842   2.664 -15.053 -0.16 -0.10    -0.303    18.055
ATOM     13  H   UNL d   1      14.716   3.104 -14.951 +0.09 +0.06    +0.222    18.055
ATOM     14  O   UNL d   1      16.621   3.225 -14.067 -0.02 -0.08    -0.278    18.055
ATOM     15  P   UNL d   1      16.794   3.843 -15.534 +0.02 +0.11    +0.473    18.055
ATOM     16  O   UNL d   1      18.175   4.269 -15.925 -0.00 -0.05    -0.228    18.055
ATOM     17  O   UNL d   1      16.198   2.723 -16.498 -0.01 -0.07    -0.303    18.055
ATOM     18  H   UNL d   1      15.667   2.075 -15.998 +0.04 +0.06    +0.222    18.055
ATOM     19  O   UNL d   1      15.677   4.971 -15.624 -0.03 -0.07    -0.303    18.055
ATOM     20  H   UNL d   1      15.973   5.805 -15.217 +0.07 +0.05    +0.222    18.055
ATOM     21  O   UNL d   1      15.673   1.691 -10.167 -0.23 -0.17    -0.278    18.055
ATOM     22  P   UNL d   1      15.930   0.123 -10.022 -0.31 +0.17    +0.473    18.055
ATOM     23  O   UNL d   1      14.858  -0.712  -9.408 -0.50 -0.07    -0.228    18.055
ATOM     24  O   UNL d   1      16.321  -0.281 -11.511 -0.13 -0.10    -0.303    18.055
ATOM     25  H   UNL d   1      15.538  -0.110 -12.093 +0.09 +0.07    +0.222    18.055
ATOM     26  O   UNL d   1      17.353   0.093  -9.285 -0.18 -0.11    -0.303    18.055
ATOM     27  H   UNL d   1      17.824   0.934  -9.460 +0.08 +0.10    +0.222    18.055
ATOM     28  O   UNL d   1      17.098   5.788 -13.565 -0.06 -0.10    -0.278    18.055
ATOM     29  P   UNL d   1      16.818   7.340 -13.785 -0.19 +0.18    +0.473    18.055
ATOM     30  O   UNL d   1      15.453   7.802 -13.425 -0.92 -0.14    -0.228    18.055
ATOM     31  O   UNL d   1      18.037   7.964 -12.957 -0.12 -0.14    -0.303    18.055
ATOM     32  H   UNL d   1      18.384   7.276 -12.343 +0.06 +0.11    +0.222    18.055
ATOM     33  O   UNL d   1      17.274   7.552 -15.296 -0.05 -0.08    -0.303    18.055
ATOM     34  H   UNL d   1      17.101   6.721 -15.803 +0.05 +0.05    +0.222    18.055
ATOM     35  O   UNL d   1      18.274   3.014 -10.044 -0.10 -0.21    -0.278    18.055
ATOM     36  P   UNL d   1      19.273   2.201 -10.986 +0.00 +0.19    +0.473    18.055
ATOM     37  O   UNL d   1      19.250   0.715 -10.820 -0.02 -0.07    -0.228    18.055
ATOM     38  O   UNL d   1      18.839   2.705 -12.433 -0.00 -0.10    -0.303    18.055
ATOM     39  H   UNL d   1      18.073   2.175 -12.741 +0.03 +0.07    +0.222    18.055
ATOM     40  O   UNL d   1      20.659   2.935 -10.725 -0.00 -0.10    -0.303    18.055
ATOM     41  H   UNL d   1      20.543   3.905 -10.612 +0.02 +0.09    +0.222    18.055
ATOM     42  O   UNL d   1      17.856   5.800 -10.788 -0.22 -0.25    -0.278    18.055
ATOM     43  P   UNL d   1      19.391   6.216 -10.666 -0.11 +0.28    +0.473    18.055
ATOM     44  O   UNL d   1      19.710   7.671 -10.664 -0.11 -0.12    -0.228    18.055
ATOM     45  O   UNL d   1      19.858   5.445  -9.355 -0.10 -0.21    -0.303    18.055
ATOM     46  H   UNL d   1      19.804   4.475  -9.472 +0.04 +0.15    +0.222    18.055
ATOM     47  O   UNL d   1      20.096   5.354 -11.820 -0.01 -0.11    -0.303    18.055
ATOM     48  H   UNL d   1      19.756   4.436 -11.791 +0.03 +0.09    +0.222    18.055
TER
ENDMDL
MODEL       34
USER    Run = 34
USER    Cluster Rank = 20
USER    Number of conformations in this cluster = 1
USER  
USER    RMSD from reference structure       = 14.607 A
USER  
USER    Estimated Free Energy of Binding    =   +1.81 kcal/mol  [=(1)+(2)+(3)-(4)]
USER    
USER    (1) Final Intermolecular Energy     =   -5.35 kcal/mol
USER        vdW + Hbond + desolv Energy     =   -5.26 kcal/mol
USER        Electrostatic Energy            =   -0.09 kcal/mol
USER    (2) Final Total Internal Energy     =  -12.56 kcal/mol
USER    (3) Torsional Free Energy           =   +7.16 kcal/mol
USER    (4) Unbound System's Energy  [=(2)] =  -12.56 kcal/mol
USER    
USER    
USER  
USER    DPF = D:/Protein_go_brrr/autodock/final/AncB/IHP/dock.dpf
USER    NEWDPF move	IHP_ideal_opt.pdbqt
USER    NEWDPF about	0.035000 0.082000 -0.065000
USER    NEWDPF tran0	-15.211488 -6.620163 -5.887160
USER    NEWDPF axisangle0	0.410951 0.449850 0.792941 168.585433
USER    NEWDPF quaternion0	0.408914 0.447620 0.789010 0.099446
USER    NEWDPF dihe0	88.54 177.28 36.71 -169.95 120.13 -175.13 -30.89 -134.75 76.04 125.76 98.13 151.22 -37.76 -113.02 -178.77 -42.73 56.75 -123.85 47.65 -2.39 11.16 3.49 178.05 1.45 
USER  
USER                              x       y       z    vdW   Elec        q     RMS 
ATOM      1  C   UNL d   1     -16.045  -5.220  -5.313 -0.10 +0.01    +0.194    14.607
ATOM      2  C   UNL d   1     -15.865  -5.306  -6.829 -0.02 +0.03    +0.194    14.607
ATOM      3  C   UNL d   1     -14.457  -5.772  -7.207 -0.06 +0.04    +0.194    14.607
ATOM      4  C   UNL d   1     -14.041  -7.061  -6.503 -0.17 +0.04    +0.194    14.607
ATOM      5  C   UNL d   1     -14.309  -7.063  -5.003 -0.20 +0.03    +0.194    14.607
ATOM      6  C   UNL d   1     -15.695  -6.539  -4.621 -0.17 +0.02    +0.194    14.607
ATOM      7  O   UNL d   1     -17.422  -4.950  -5.042 -0.06 -0.01    -0.278    14.607
ATOM      8  P   UNL d   1     -17.971  -3.472  -5.303 -0.04 -0.01    +0.473    14.607
ATOM      9  O   UNL d   1     -17.073  -2.598  -6.106 -0.06 +0.03    -0.228    14.607
ATOM     10  O   UNL d   1     -19.396  -3.703  -5.982 -0.01 -0.02    -0.303    14.607
ATOM     11  H   UNL d   1     -19.275  -4.071  -6.877 +0.01 +0.02    +0.222    14.607
ATOM     12  O   UNL d   1     -18.373  -2.921  -3.868 -0.08 +0.01    -0.303    14.607
ATOM     13  H   UNL d   1     -18.024  -2.019  -3.690 +0.05 -0.04    +0.222    14.607
ATOM     14  O   UNL d   1     -16.813  -6.241  -7.360 -0.00 -0.06    -0.278    14.607
ATOM     15  P   UNL d   1     -17.702  -5.736  -8.593 +0.01 +0.12    +0.473    14.607
ATOM     16  O   UNL d   1     -18.524  -4.505  -8.369 +0.00 -0.04    -0.228    14.607
ATOM     17  O   UNL d   1     -16.657  -5.573  -9.783 -0.00 -0.12    -0.303    14.607
ATOM     18  H   UNL d   1     -15.955  -4.936  -9.550 +0.01 +0.08    +0.222    14.607
ATOM     19  O   UNL d   1     -18.511  -7.026  -9.052 +0.00 -0.08    -0.303    14.607
ATOM     20  H   UNL d   1     -19.464  -6.841  -9.144 +0.00 +0.05    +0.222    14.607
ATOM     21  O   UNL d   1     -15.667  -6.281  -3.219 -0.27 -0.00    -0.278    14.607
ATOM     22  P   UNL d   1     -16.101  -7.425  -2.195 -0.21 +0.07    +0.473    14.607
ATOM     23  O   UNL d   1     -16.740  -7.016  -0.911 -0.50 -0.07    -0.228    14.607
ATOM     24  O   UNL d   1     -16.996  -8.365  -3.117 -0.12 -0.06    -0.303    14.607
ATOM     25  H   UNL d   1     -16.462  -8.613  -3.914 +0.07 +0.04    +0.222    14.607
ATOM     26  O   UNL d   1     -14.749  -8.278  -2.068 -0.38 +0.01    -0.303    14.607
ATOM     27  H   UNL d   1     -14.016  -7.784  -2.490 -0.44 -0.06    +0.222    14.607
ATOM     28  O   UNL d   1     -14.468  -6.087  -8.594 -0.03 -0.12    -0.278    14.607
ATOM     29  P   UNL d   1     -13.612  -5.222  -9.621 -0.03 +0.24    +0.473    14.607
ATOM     30  O   UNL d   1     -14.083  -3.829  -9.835 -0.01 -0.08    -0.228    14.607
ATOM     31  O   UNL d   1     -12.152  -5.407  -8.993 -0.08 -0.13    -0.303    14.607
ATOM     32  H   UNL d   1     -12.154  -6.211  -8.424 +0.08 +0.09    +0.222    14.607
ATOM     33  O   UNL d   1     -13.568  -6.170 -10.900 -0.52 -0.38    -0.303    14.607
ATOM     34  H   UNL d   1     -12.925  -6.903 -10.734 +0.03 +0.35    +0.222    14.607
ATOM     35  O   UNL d   1     -14.253  -8.430  -4.602 -0.22 -0.04    -0.278    14.607
ATOM     36  P   UNL d   1     -15.108  -9.532  -5.376 -0.11 +0.10    +0.473    14.607
ATOM     37  O   UNL d   1     -14.348 -10.364  -6.360 -0.17 -0.06    -0.228    14.607
ATOM     38  O   UNL d   1     -15.740 -10.360  -4.171 -0.13 -0.08    -0.303    14.607
ATOM     39  H   UNL d   1     -15.515  -9.917  -3.324 +0.07 +0.06    +0.222    14.607
ATOM     40  O   UNL d   1     -16.328  -8.682  -5.938 -0.03 -0.07    -0.303    14.607
ATOM     41  H   UNL d   1     -16.104  -8.240  -6.787 +0.05 +0.06    +0.222    14.607
ATOM     42  O   UNL d   1     -12.626  -7.190  -6.677 -0.23 -0.03    -0.278    14.607
ATOM     43  P   UNL d   1     -12.069  -8.334  -7.640 -0.28 +0.16    +0.473    14.607
ATOM     44  O   UNL d   1     -12.035  -9.724  -7.107 -0.25 -0.04    -0.228    14.607
ATOM     45  O   UNL d   1     -12.963  -8.158  -8.944 -0.15 -0.24    -0.303    14.607
ATOM     46  H   UNL d   1     -13.305  -7.245  -9.023 +0.06 +0.16    +0.222    14.607
ATOM     47  O   UNL d   1     -10.660  -7.746  -8.129 -0.62 -0.14    -0.303    14.607
ATOM     48  H   UNL d   1     -10.706  -6.768  -8.145 +0.05 +0.07    +0.222    14.607
TER
ENDMDL
MODEL       15
USER    Run = 15
USER    Cluster Rank = 21
USER    Number of conformations in this cluster = 2
USER  
USER    RMSD from reference structure       = 20.649 A
USER  
USER    Estimated Free Energy of Binding    =   +1.89 kcal/mol  [=(1)+(2)+(3)-(4)]
USER    
USER    (1) Final Intermolecular Energy     =   -5.27 kcal/mol
USER        vdW + Hbond + desolv Energy     =   -4.98 kcal/mol
USER        Electrostatic Energy            =   -0.29 kcal/mol
USER    (2) Final Total Internal Energy     =  -12.26 kcal/mol
USER    (3) Torsional Free Energy           =   +7.16 kcal/mol
USER    (4) Unbound System's Energy  [=(2)] =  -12.26 kcal/mol
USER    
USER    
USER  
USER    DPF = D:/Protein_go_brrr/autodock/final/AncB/IHP/dock.dpf
USER    NEWDPF move	IHP_ideal_opt.pdbqt
USER    NEWDPF about	0.035000 0.082000 -0.065000
USER    NEWDPF tran0	-17.139841 -8.022541 14.540278
USER    NEWDPF axisangle0	-0.797390 -0.225857 -0.559605 179.433283
USER    NEWDPF quaternion0	-0.797381 -0.225854 -0.559598 0.004946
USER    NEWDPF dihe0	-160.80 -24.14 86.95 69.25 108.90 142.35 -93.86 -28.50 5.77 101.66 57.98 -37.06 42.13 -64.24 76.60 71.36 9.43 -81.46 -143.13 -3.59 21.00 141.03 -32.65 168.64 
USER  
USER                              x       y       z    vdW   Elec        q     RMS 
ATOM      1  C   UNL d   1     -16.407  -6.573  15.129 -0.17 +0.00    +0.194    20.649
ATOM      2  C   UNL d   1     -17.361  -6.398  13.946 -0.21 +0.08    +0.194    20.649
ATOM      3  C   UNL d   1     -17.154  -7.482  12.886 -0.10 +0.13    +0.194    20.649
ATOM      4  C   UNL d   1     -17.196  -8.897  13.456 -0.12 +0.03    +0.194    20.649
ATOM      5  C   UNL d   1     -16.346  -9.088  14.706 -0.12 +0.00    +0.194    20.649
ATOM      6  C   UNL d   1     -16.507  -7.971  15.740 -0.14 -0.00    +0.194    20.649
ATOM      7  O   UNL d   1     -16.777  -5.637  16.143 -0.21 -0.01    -0.278    20.649
ATOM      8  P   UNL d   1     -17.762  -6.123  17.303 -0.08 +0.00    +0.473    20.649
ATOM      9  O   UNL d   1     -17.091  -6.617  18.536 -0.10 +0.01    -0.228    20.649
ATOM     10  O   UNL d   1     -18.706  -4.863  17.563 -0.06 +0.00    -0.303    20.649
ATOM     11  H   UNL d   1     -18.952  -4.458  16.710 +0.04 +0.01    +0.222    20.649
ATOM     12  O   UNL d   1     -18.756  -7.143  16.599 -0.02 -0.02    -0.303    20.649
ATOM     13  H   UNL d   1     -19.374  -6.707  15.969 +0.03 +0.02    +0.222    20.649
ATOM     14  O   UNL d   1     -18.711  -6.475  14.420 -0.05 -0.07    -0.278    20.649
ATOM     15  P   UNL d   1     -19.685  -5.274  14.004 -0.02 +0.13    +0.473    20.649
ATOM     16  O   UNL d   1     -19.051  -4.094  13.338 -0.10 -0.09    -0.228    20.649
ATOM     17  O   UNL d   1     -20.796  -5.972  13.099 -0.01 -0.07    -0.303    20.649
ATOM     18  H   UNL d   1     -20.556  -6.897  12.898 +0.02 +0.06    +0.222    20.649
ATOM     19  O   UNL d   1     -20.508  -4.954  15.328 -0.01 -0.03    -0.303    20.649
ATOM     20  H   UNL d   1     -20.147  -5.428  16.100 +0.02 +0.02    +0.222    20.649
ATOM     21  O   UNL d   1     -15.427  -8.103  16.661 -0.18 +0.02    -0.278    20.649
ATOM     22  P   UNL d   1     -15.520  -9.171  17.843 -0.05 -0.00    +0.473    20.649
ATOM     23  O   UNL d   1     -14.691 -10.407  17.744 -0.06 -0.01    -0.228    20.649
ATOM     24  O   UNL d   1     -15.224  -8.269  19.121 -0.06 +0.02    -0.303    20.649
ATOM     25  H   UNL d   1     -15.724  -7.419  19.021 +0.05 -0.02    +0.222    20.649
ATOM     26  O   UNL d   1     -17.104  -9.394  17.956 -0.01 -0.00    -0.303    20.649
ATOM     27  H   UNL d   1     -17.564  -8.563  17.719 +0.03 +0.00    +0.222    20.649
ATOM     28  O   UNL d   1     -18.247  -7.408  11.979 -0.41 -0.27    -0.278    20.649
ATOM     29  P   UNL d   1     -19.366  -8.542  11.974 -0.02 +0.12    +0.473    20.649
ATOM     30  O   UNL d   1     -19.867  -8.953  13.311 -0.00 -0.03    -0.228    20.649
ATOM     31  O   UNL d   1     -20.426  -7.883  10.973 -0.02 -0.07    -0.303    20.649
ATOM     32  H   UNL d   1     -20.507  -6.925  11.186 +0.02 +0.07    +0.222    20.649
ATOM     33  O   UNL d   1     -18.692  -9.672  11.079 -0.04 -0.02    -0.303    20.649
ATOM     34  H   UNL d   1     -17.711  -9.630  11.193 +0.07 +0.00    +0.222    20.649
ATOM     35  O   UNL d   1     -16.814 -10.291  15.312 -0.04 -0.02    -0.278    20.649
ATOM     36  P   UNL d   1     -16.043 -11.666  15.068 -0.07 +0.06    +0.473    20.649
ATOM     37  O   UNL d   1     -14.579 -11.649  15.377 -0.20 -0.04    -0.228    20.649
ATOM     38  O   UNL d   1     -16.888 -12.677  15.962 -0.02 -0.03    -0.303    20.649
ATOM     39  H   UNL d   1     -16.806 -12.418  16.905 +0.02 +0.02    +0.222    20.649
ATOM     40  O   UNL d   1     -16.462 -12.031  13.578 -0.38 -0.06    -0.303    20.649
ATOM     41  H   UNL d   1     -16.184 -11.336  12.941 +0.07 +0.04    +0.222    20.649
ATOM     42  O   UNL d   1     -16.664  -9.766  12.450 -0.11 -0.03    -0.278    20.649
ATOM     43  P   UNL d   1     -15.191  -9.498  11.900 -0.25 -0.00    +0.473    20.649
ATOM     44  O   UNL d   1     -14.753  -8.080  11.771 -0.78 -0.04    -0.228    20.649
ATOM     45  O   UNL d   1     -14.289 -10.371  12.877 -0.62 -0.10    -0.303    20.649
ATOM     46  H   UNL d   1     -14.785 -10.642  13.675 +0.08 +0.05    +0.222    20.649
ATOM     47  O   UNL d   1     -15.141 -10.362  10.551 -0.29 +0.15    -0.303    20.649
ATOM     48  H   UNL d   1     -14.637  -9.869   9.870 -0.31 -0.30    +0.222    20.649
TER
ENDMDL
MODEL       69
USER    Run = 69
USER    Cluster Rank = 22
USER    Number of conformations in this cluster = 1
USER  
USER    RMSD from reference structure       = 18.015 A
USER  
USER    Estimated Free Energy of Binding    =   +1.90 kcal/mol  [=(1)+(2)+(3)-(4)]
USER    
USER    (1) Final Intermolecular Energy     =   -5.26 kcal/mol
USER        vdW + Hbond + desolv Energy     =   -5.01 kcal/mol
USER        Electrostatic Energy            =   -0.25 kcal/mol
USER    (2) Final Total Internal Energy     =  -14.83 kcal/mol
USER    (3) Torsional Free Energy           =   +7.16 kcal/mol
USER    (4) Unbound System's Energy  [=(2)] =  -14.83 kcal/mol
USER    
USER    
USER  
USER    DPF = D:/Protein_go_brrr/autodock/final/AncB/IHP/dock.dpf
USER    NEWDPF move	IHP_ideal_opt.pdbqt
USER    NEWDPF about	0.035000 0.082000 -0.065000
USER    NEWDPF tran0	12.512930 -5.493857 -14.280776
USER    NEWDPF axisangle0	0.962417 -0.246334 0.114335 -147.985147
USER    NEWDPF quaternion0	0.925101 -0.236783 0.109901 -0.275762
USER    NEWDPF dihe0	92.82 107.76 26.20 31.94 24.89 -157.85 -88.14 -24.03 10.64 -171.61 148.49 144.88 -45.21 174.58 -60.41 43.98 -106.34 -172.11 51.11 -9.57 -178.94 -8.75 -2.67 22.35 
USER  
USER                              x       y       z    vdW   Elec        q     RMS 
ATOM      1  C   UNL d   1      14.096  -5.758 -14.921 -0.07 +0.05    +0.194    18.015
ATOM      2  C   UNL d   1      13.392  -4.488 -15.402 -0.11 +0.04    +0.194    18.015
ATOM      3  C   UNL d   1      11.922  -4.748 -15.738 -0.11 +0.03    +0.194    18.015
ATOM      4  C   UNL d   1      11.159  -5.438 -14.610 -0.20 +0.04    +0.194    18.015
ATOM      5  C   UNL d   1      11.880  -6.644 -14.021 -0.16 +0.07    +0.194    18.015
ATOM      6  C   UNL d   1      13.365  -6.403 -13.742 -0.14 +0.08    +0.194    18.015
ATOM      7  O   UNL d   1      15.403  -5.399 -14.467 -0.04 -0.08    -0.278    18.015
ATOM      8  P   UNL d   1      16.495  -4.979 -15.554 +0.00 +0.10    +0.473    18.015
ATOM      9  O   UNL d   1      15.986  -4.861 -16.947 -0.01 -0.04    -0.228    18.015
ATOM     10  O   UNL d   1      17.099  -3.614 -14.988 -0.01 -0.06    -0.303    18.015
ATOM     11  H   UNL d   1      16.406  -2.928 -14.982 +0.03 +0.05    +0.222    18.015
ATOM     12  O   UNL d   1      17.702  -5.990 -15.339 -0.00 -0.06    -0.303    18.015
ATOM     13  H   UNL d   1      17.453  -6.927 -15.506 +0.01 +0.04    +0.222    18.015
ATOM     14  O   UNL d   1      13.456  -3.498 -14.367 -0.16 -0.08    -0.278    18.015
ATOM     15  P   UNL d   1      14.156  -2.109 -14.748 -0.08 +0.12    +0.473    18.015
ATOM     16  O   UNL d   1      15.210  -1.610 -13.811 -0.15 -0.07    -0.228    18.015
ATOM     17  O   UNL d   1      14.703  -2.343 -16.226 -0.04 -0.07    -0.303    18.015
ATOM     18  H   UNL d   1      15.446  -2.976 -16.230 +0.03 +0.05    +0.222    18.015
ATOM     19  O   UNL d   1      12.943  -1.113 -15.010 -0.18 -0.05    -0.303    18.015
ATOM     20  H   UNL d   1      12.147  -1.586 -15.314 -0.48 -0.01    +0.222    18.015
ATOM     21  O   UNL d   1      13.958  -7.683 -13.533 -0.07 -0.12    -0.278    18.015
ATOM     22  P   UNL d   1      14.311  -8.607 -14.785 +0.01 +0.12    +0.473    18.015
ATOM     23  O   UNL d   1      13.464  -8.491 -16.007 -0.01 -0.04    -0.228    18.015
ATOM     24  O   UNL d   1      15.852  -8.279 -15.006 +0.00 -0.07    -0.303    18.015
ATOM     25  H   UNL d   1      15.981  -7.304 -14.887 +0.02 +0.05    +0.222    18.015
ATOM     26  O   UNL d   1      14.375 -10.060 -14.110 -0.00 -0.07    -0.303    18.015
ATOM     27  H   UNL d   1      13.786 -10.077 -13.328 +0.03 +0.07    +0.222    18.015
ATOM     28  O   UNL d   1      11.290  -3.484 -15.902 -0.14 -0.02    -0.278    18.015
ATOM     29  P   UNL d   1      10.991  -2.918 -17.361 -0.07 +0.11    +0.473    18.015
ATOM     30  O   UNL d   1      11.015  -3.922 -18.455 -0.03 -0.04    -0.228    18.015
ATOM     31  O   UNL d   1       9.601  -2.171 -17.090 -0.14 -0.07    -0.303    18.015
ATOM     32  H   UNL d   1       9.082  -2.700 -16.441 +0.07 +0.03    +0.222    18.015
ATOM     33  O   UNL d   1      12.024  -1.711 -17.469 -0.32 -0.14    -0.303    18.015
ATOM     34  H   UNL d   1      12.854  -1.955 -16.991 +0.05 +0.06    +0.222    18.015
ATOM     35  O   UNL d   1      11.252  -6.895 -12.766 -0.26 -0.15    -0.278    18.015
ATOM     36  P   UNL d   1      10.708  -8.353 -12.415 -0.22 +0.19    +0.473    18.015
ATOM     37  O   UNL d   1       9.629  -8.871 -13.311 -0.25 -0.04    -0.228    18.015
ATOM     38  O   UNL d   1      12.048  -9.215 -12.438 -0.11 -0.15    -0.303    18.015
ATOM     39  H   UNL d   1      12.457  -9.148 -13.327 +0.06 +0.08    +0.222    18.015
ATOM     40  O   UNL d   1      10.363  -8.224 -10.868 -0.25 -0.21    -0.303    18.015
ATOM     41  H   UNL d   1       9.589  -8.777 -10.620 -0.42 +0.01    +0.222    18.015
ATOM     42  O   UNL d   1       9.931  -5.913 -15.170 -0.10 -0.04    -0.278    18.015
ATOM     43  P   UNL d   1       8.661  -4.948 -15.174 -0.16 +0.05    +0.473    18.015
ATOM     44  O   UNL d   1       7.401  -5.467 -14.572 -0.28 +0.00    -0.228    18.015
ATOM     45  O   UNL d   1       9.221  -3.631 -14.477 -0.22 -0.02    -0.303    18.015
ATOM     46  H   UNL d   1       9.793  -3.121 -15.084 -0.32 -0.02    +0.222    18.015
ATOM     47  O   UNL d   1       8.557  -4.486 -16.705 -0.04 -0.04    -0.303    18.015
ATOM     48  H   UNL d   1       9.459  -4.381 -17.073 +0.06 +0.03    +0.222    18.015
TER
ENDMDL
MODEL       45
USER    Run = 45
USER    Cluster Rank = 23
USER    Number of conformations in this cluster = 2
USER  
USER    RMSD from reference structure       = 16.249 A
USER  
USER    Estimated Free Energy of Binding    =   +1.94 kcal/mol  [=(1)+(2)+(3)-(4)]
USER    
USER    (1) Final Intermolecular Energy     =   -5.22 kcal/mol
USER        vdW + Hbond + desolv Energy     =   -4.75 kcal/mol
USER        Electrostatic Energy            =   -0.46 kcal/mol
USER    (2) Final Total Internal Energy     =  -10.95 kcal/mol
USER    (3) Torsional Free Energy           =   +7.16 kcal/mol
USER    (4) Unbound System's Energy  [=(2)] =  -10.95 kcal/mol
USER    
USER    
USER  
USER    DPF = D:/Protein_go_brrr/autodock/final/AncB/IHP/dock.dpf
USER    NEWDPF move	IHP_ideal_opt.pdbqt
USER    NEWDPF about	0.035000 0.082000 -0.065000
USER    NEWDPF tran0	8.575999 -15.533537 -8.768369
USER    NEWDPF axisangle0	-0.972701 -0.066265 -0.222401 149.046263
USER    NEWDPF quaternion0	-0.937429 -0.063862 -0.214336 0.266849
USER    NEWDPF dihe0	170.98 110.87 -42.75 50.21 -40.41 -88.59 -88.48 46.21 20.65 -33.30 63.82 180.00 -81.02 179.85 15.88 72.19 -87.15 -51.89 41.56 -7.67 -48.09 149.26 179.63 -177.73 
USER  
USER                              x       y       z    vdW   Elec        q     RMS 
ATOM      1  C   UNL d   1      10.044 -14.860  -9.382 -0.00 -0.02    +0.194    16.249
ATOM      2  C   UNL d   1       8.755 -14.295  -9.982 -0.04 -0.02    +0.194    16.249
ATOM      3  C   UNL d   1       7.742 -15.399 -10.290 -0.06 -0.05    +0.194    16.249
ATOM      4  C   UNL d   1       7.470 -16.315  -9.100 -0.10 -0.12    +0.194    16.249
ATOM      5  C   UNL d   1       8.728 -16.811  -8.398 -0.04 -0.09    +0.194    16.249
ATOM      6  C   UNL d   1       9.768 -15.717  -8.146 -0.01 -0.04    +0.194    16.249
ATOM      7  O   UNL d   1      10.861 -13.763  -8.966 -0.01 +0.01    -0.278    16.249
ATOM      8  P   UNL d   1      11.738 -13.009 -10.068 +0.02 +0.05    +0.473    16.249
ATOM      9  O   UNL d   1      12.171 -13.853 -11.215 -0.00 -0.02    -0.228    16.249
ATOM     10  O   UNL d   1      10.830 -11.773 -10.506 -0.07 -0.06    -0.303    16.249
ATOM     11  H   UNL d   1      10.097 -11.664  -9.871 +0.09 +0.03    +0.222    16.249
ATOM     12  O   UNL d   1      12.901 -12.296  -9.253 -0.03 -0.07    -0.303    16.249
ATOM     13  H   UNL d   1      13.515 -12.932  -8.822 +0.02 +0.03    +0.222    16.249
ATOM     14  O   UNL d   1       8.166 -13.381  -9.048 -0.11 +0.03    -0.278    16.249
ATOM     15  P   UNL d   1       7.891 -11.895  -9.577 -0.13 -0.03    +0.473    16.249
ATOM     16  O   UNL d   1       8.494 -10.778  -8.785 -0.34 +0.01    -0.228    16.249
ATOM     17  O   UNL d   1       8.394 -11.922 -11.089 -0.17 -0.00    -0.303    16.249
ATOM     18  H   UNL d   1       8.881 -11.106 -11.312 -0.15 -0.00    +0.222    16.249
ATOM     19  O   UNL d   1       6.313 -11.828  -9.767 -0.37 +0.01    -0.303    16.249
ATOM     20  H   UNL d   1       5.901 -12.707  -9.674 +0.17 -0.02    +0.222    16.249
ATOM     21  O   UNL d   1      10.988 -16.377  -7.814 +0.00 +0.04    -0.278    16.249
ATOM     22  P   UNL d   1      12.037 -15.664  -6.846 +0.01 -0.06    +0.473    16.249
ATOM     23  O   UNL d   1      11.524 -15.028  -5.598 -0.02 +0.05    -0.228    16.249
ATOM     24  O   UNL d   1      13.106 -16.820  -6.616 +0.00 +0.02    -0.303    16.249
ATOM     25  H   UNL d   1      12.989 -17.170  -5.696 +0.00 -0.02    +0.222    16.249
ATOM     26  O   UNL d   1      12.810 -14.695  -7.862 +0.00 +0.01    -0.303    16.249
ATOM     27  H   UNL d   1      12.424 -13.797  -7.808 +0.03 -0.01    +0.222    16.249
ATOM     28  O   UNL d   1       6.498 -14.771 -10.575 -0.11 +0.06    -0.278    16.249
ATOM     29  P   UNL d   1       5.362 -14.694  -9.461 -0.20 -0.12    +0.473    16.249
ATOM     30  O   UNL d   1       5.815 -14.264  -8.113 -0.08 +0.05    -0.228    16.249
ATOM     31  O   UNL d   1       4.304 -13.752 -10.206 -0.30 +0.03    -0.303    16.249
ATOM     32  H   UNL d   1       4.797 -13.075 -10.724 -0.07 -0.04    +0.222    16.249
ATOM     33  O   UNL d   1       4.690 -16.133  -9.570 -0.75 +0.21    -0.303    16.249
ATOM     34  H   UNL d   1       4.976 -16.680  -8.798 -0.51 -0.33    +0.222    16.249
ATOM     35  O   UNL d   1       8.299 -17.285  -7.123 -0.06 +0.17    -0.278    16.249
ATOM     36  P   UNL d   1       7.370 -16.377  -6.198 -0.08 -0.26    +0.473    16.249
ATOM     37  O   UNL d   1       7.746 -14.931  -6.127 -0.14 +0.07    -0.228    16.249
ATOM     38  O   UNL d   1       5.928 -16.648  -6.819 -0.14 +0.34    -0.303    16.249
ATOM     39  H   UNL d   1       5.971 -16.534  -7.793 -0.30 -0.30    +0.222    16.249
ATOM     40  O   UNL d   1       7.356 -17.187  -4.830 -0.06 +0.14    -0.303    16.249
ATOM     41  H   UNL d   1       6.785 -17.985  -4.885 +0.05 -0.14    +0.222    16.249
ATOM     42  O   UNL d   1       6.790 -17.467  -9.609 +0.01 +0.35    -0.278    16.249
ATOM     43  P   UNL d   1       7.605 -18.514 -10.496 -0.08 -0.32    +0.473    16.249
ATOM     44  O   UNL d   1       9.005 -18.160 -10.863 -0.02 +0.06    -0.228    16.249
ATOM     45  O   UNL d   1       7.472 -19.859  -9.657 -0.13 +0.31    -0.303    16.249
ATOM     46  H   UNL d   1       7.077 -19.695  -8.777 -0.41 -0.43    +0.222    16.249
ATOM     47  O   UNL d   1       6.618 -18.798 -11.726 -0.12 +0.14    -0.303    16.249
ATOM     48  H   UNL d   1       5.793 -18.283 -11.604 +0.05 -0.14    +0.222    16.249
TER
ENDMDL
MODEL       40
USER    Run = 40
USER    Cluster Rank = 24
USER    Number of conformations in this cluster = 2
USER  
USER    RMSD from reference structure       = 11.045 A
USER  
USER    Estimated Free Energy of Binding    =   +1.96 kcal/mol  [=(1)+(2)+(3)-(4)]
USER    
USER    (1) Final Intermolecular Energy     =   -5.20 kcal/mol
USER        vdW + Hbond + desolv Energy     =   -5.09 kcal/mol
USER        Electrostatic Energy            =   -0.11 kcal/mol
USER    (2) Final Total Internal Energy     =  -13.30 kcal/mol
USER    (3) Torsional Free Energy           =   +7.16 kcal/mol
USER    (4) Unbound System's Energy  [=(2)] =  -13.30 kcal/mol
USER    
USER    
USER  
USER    DPF = D:/Protein_go_brrr/autodock/final/AncB/IHP/dock.dpf
USER    NEWDPF move	IHP_ideal_opt.pdbqt
USER    NEWDPF about	0.035000 0.082000 -0.065000
USER    NEWDPF tran0	-11.915117 8.533356 -0.960328
USER    NEWDPF axisangle0	-0.921485 0.109763 0.372581 -134.502322
USER    NEWDPF quaternion0	-0.849802 0.101224 0.343598 -0.386692
USER    NEWDPF dihe0	119.24 88.93 34.66 51.18 3.74 157.36 141.97 -86.31 88.17 119.08 29.84 -179.40 -43.09 173.03 178.10 102.40 114.20 165.80 -4.72 -35.52 -22.66 -35.17 1.98 6.45 
USER  
USER                              x       y       z    vdW   Elec        q     RMS 
ATOM      1  C   UNL d   1     -10.995   9.830  -1.636 -0.08 +0.02    +0.194    11.045
ATOM      2  C   UNL d   1     -11.384   9.992  -0.165 -0.12 +0.01    +0.194    11.045
ATOM      3  C   UNL d   1     -12.835   9.577   0.085 -0.07 +0.02    +0.194    11.045
ATOM      4  C   UNL d   1     -13.164   8.185  -0.449 -0.11 +0.05    +0.194    11.045
ATOM      5  C   UNL d   1     -12.691   7.941  -1.876 -0.07 +0.05    +0.194    11.045
ATOM      6  C   UNL d   1     -11.260   8.412  -2.143 -0.10 +0.04    +0.194    11.045
ATOM      7  O   UNL d   1      -9.591  10.069  -1.755 -0.10 -0.03    -0.278    11.045
ATOM      8  P   UNL d   1      -9.091  11.142  -2.828 -0.07 +0.05    +0.473    11.045
ATOM      9  O   UNL d   1     -10.170  11.939  -3.472 -0.05 -0.04    -0.228    11.045
ATOM     10  O   UNL d   1      -8.044  12.037  -2.023 -0.42 +0.04    -0.303    11.045
ATOM     11  H   UNL d   1      -8.366  12.178  -1.113 +0.08 -0.02    +0.222    11.045
ATOM     12  O   UNL d   1      -8.146  10.330  -3.814 -0.21 -0.08    -0.303    11.045
ATOM     13  H   UNL d   1      -8.516   9.455  -4.070 +0.11 +0.07    +0.222    11.045
ATOM     14  O   UNL d   1     -10.529   9.169   0.637 -0.24 +0.01    -0.278    11.045
ATOM     15  P   UNL d   1      -9.252   9.883   1.288 -0.16 -0.12    +0.473    11.045
ATOM     16  O   UNL d   1      -7.937   9.188   1.124 -0.32 +0.02    -0.228    11.045
ATOM     17  O   UNL d   1      -9.261  11.345   0.654 -0.37 +0.08    -0.303    11.045
ATOM     18  H   UNL d   1      -9.173  11.307  -0.318 +0.08 -0.01    +0.222    11.045
ATOM     19  O   UNL d   1      -9.687  10.184   2.788 -0.24 +0.17    -0.303    11.045
ATOM     20  H   UNL d   1     -10.634  10.002   2.932 -0.27 -0.10    +0.222    11.045
ATOM     21  O   UNL d   1     -11.091   8.435  -3.559 -0.03 -0.06    -0.278    11.045
ATOM     22  P   UNL d   1      -9.891   7.624  -4.227 -0.07 +0.11    +0.473    11.045
ATOM     23  O   UNL d   1      -9.334   8.125  -5.517 -0.15 -0.07    -0.228    11.045
ATOM     24  O   UNL d   1      -8.843   7.551  -3.031 -0.23 -0.06    -0.303    11.045
ATOM     25  H   UNL d   1      -8.574   8.476  -2.800 +0.15 +0.05    +0.222    11.045
ATOM     26  O   UNL d   1     -10.477   6.132  -4.246 -0.13 -0.07    -0.303    11.045
ATOM     27  H   UNL d   1     -11.238   6.078  -3.632 +0.10 +0.05    +0.222    11.045
ATOM     28  O   UNL d   1     -13.020   9.495   1.493 -0.10 -0.01    -0.278    11.045
ATOM     29  P   UNL d   1     -13.156  10.820   2.366 -0.08 -0.02    +0.473    11.045
ATOM     30  O   UNL d   1     -14.471  11.507   2.287 -0.03 -0.00    -0.228    11.045
ATOM     31  O   UNL d   1     -12.716  10.258   3.798 -0.16 +0.03    -0.303    11.045
ATOM     32  H   UNL d   1     -12.961  10.920   4.484 -0.24 -0.03    +0.222    11.045
ATOM     33  O   UNL d   1     -11.880  11.654   1.908 -0.09 +0.04    -0.303    11.045
ATOM     34  H   UNL d   1     -11.176  11.027   1.609 +0.10 -0.04    +0.222    11.045
ATOM     35  O   UNL d   1     -12.707   6.525  -2.051 -0.12 -0.12    -0.278    11.045
ATOM     36  P   UNL d   1     -13.371   5.883  -3.352 -0.04 +0.32    +0.473    11.045
ATOM     37  O   UNL d   1     -12.916   4.499  -3.692 -0.27 -0.08    -0.228    11.045
ATOM     38  O   UNL d   1     -14.923   5.998  -3.016 -0.52 -0.47    -0.303    11.045
ATOM     39  H   UNL d   1     -15.049   6.657  -2.299 +0.03 +0.21    +0.222    11.045
ATOM     40  O   UNL d   1     -13.132   7.011  -4.448 -0.02 -0.10    -0.303    11.045
ATOM     41  H   UNL d   1     -12.206   7.009  -4.777 +0.05 +0.06    +0.222    11.045
ATOM     42  O   UNL d   1     -14.591   8.069  -0.453 -0.04 -0.08    -0.278    11.045
ATOM     43  P   UNL d   1     -15.296   7.187   0.674 -0.06 +0.16    +0.473    11.045
ATOM     44  O   UNL d   1     -16.561   6.490   0.309 -0.07 -0.11    -0.228    11.045
ATOM     45  O   UNL d   1     -14.127   6.213   1.138 -0.46 -0.13    -0.303    11.045
ATOM     46  H   UNL d   1     -13.627   5.864   0.372 +0.09 +0.12    +0.222    11.045
ATOM     47  O   UNL d   1     -15.395   8.193   1.918 -0.03 -0.05    -0.303    11.045
ATOM     48  H   UNL d   1     -15.002   9.055   1.668 +0.04 +0.03    +0.222    11.045
TER
ENDMDL
MODEL       51
USER    Run = 51
USER    Cluster Rank = 25
USER    Number of conformations in this cluster = 1
USER  
USER    RMSD from reference structure       = 21.051 A
USER  
USER    Estimated Free Energy of Binding    =   +2.00 kcal/mol  [=(1)+(2)+(3)-(4)]
USER    
USER    (1) Final Intermolecular Energy     =   -5.16 kcal/mol
USER        vdW + Hbond + desolv Energy     =   -5.07 kcal/mol
USER        Electrostatic Energy            =   -0.09 kcal/mol
USER    (2) Final Total Internal Energy     =  -13.42 kcal/mol
USER    (3) Torsional Free Energy           =   +7.16 kcal/mol
USER    (4) Unbound System's Energy  [=(2)] =  -13.42 kcal/mol
USER    
USER    
USER  
USER    DPF = D:/Protein_go_brrr/autodock/final/AncB/IHP/dock.dpf
USER    NEWDPF move	IHP_ideal_opt.pdbqt
USER    NEWDPF about	0.035000 0.082000 -0.065000
USER    NEWDPF tran0	12.350835 15.453109 -13.125676
USER    NEWDPF axisangle0	0.832146 -0.341062 -0.437276 134.645816
USER    NEWDPF quaternion0	0.767815 -0.314695 -0.403471 0.385537
USER    NEWDPF dihe0	-140.21 17.58 46.77 14.46 4.99 -165.95 -119.10 -70.93 121.91 -42.63 -179.96 -144.56 45.89 156.00 -50.30 -8.85 169.07 -39.99 38.25 1.84 -173.23 23.72 26.05 -180.00 
USER  
USER                              x       y       z    vdW   Elec        q     RMS 
ATOM      1  C   UNL d   1      13.355  16.355 -14.204 -0.08 +0.06    +0.194    21.051
ATOM      2  C   UNL d   1      13.538  16.663 -12.717 -0.10 +0.05    +0.194    21.051
ATOM      3  C   UNL d   1      12.196  16.763 -11.989 -0.13 +0.03    +0.194    21.051
ATOM      4  C   UNL d   1      11.295  15.552 -12.221 -0.25 +0.03    +0.194    21.051
ATOM      5  C   UNL d   1      11.175  15.139 -13.682 -0.17 +0.05    +0.194    21.051
ATOM      6  C   UNL d   1      12.512  15.099 -14.426 -0.10 +0.07    +0.194    21.051
ATOM      7  O   UNL d   1      14.644  16.108 -14.771 -0.48 -0.10    -0.278    21.051
ATOM      8  P   UNL d   1      15.517  17.359 -15.245 -0.02 +0.09    +0.473    21.051
ATOM      9  O   UNL d   1      16.540  17.822 -14.267 -0.01 -0.04    -0.228    21.051
ATOM     10  O   UNL d   1      16.144  16.889 -16.634 -0.00 -0.05    -0.303    21.051
ATOM     11  H   UNL d   1      15.428  16.712 -17.273 +0.01 +0.04    +0.222    21.051
ATOM     12  O   UNL d   1      14.458  18.449 -15.709 +0.00 -0.05    -0.303    21.051
ATOM     13  H   UNL d   1      13.615  18.056 -16.028 +0.01 +0.04    +0.222    21.051
ATOM     14  O   UNL d   1      14.307  15.615 -12.114 -0.12 -0.10    -0.278    21.051
ATOM     15  P   UNL d   1      15.510  16.069 -11.159 -0.08 +0.13    +0.473    21.051
ATOM     16  O   UNL d   1      16.705  15.169 -11.109 -0.45 -0.08    -0.228    21.051
ATOM     17  O   UNL d   1      15.866  17.540 -11.655 -0.03 -0.06    -0.303    21.051
ATOM     18  H   UNL d   1      15.968  17.568 -12.626 +0.03 +0.04    +0.222    21.051
ATOM     19  O   UNL d   1      14.815  16.363  -9.759 -0.18 -0.07    -0.303    21.051
ATOM     20  H   UNL d   1      13.999  16.887  -9.865 +0.08 +0.04    +0.222    21.051
ATOM     21  O   UNL d   1      12.207  15.040 -15.818 -0.08 -0.09    -0.278    21.051
ATOM     22  P   UNL d   1      11.914  16.386 -16.622 +0.01 +0.10    +0.473    21.051
ATOM     23  O   UNL d   1      11.519  17.598 -15.847 -0.00 -0.04    -0.228    21.051
ATOM     24  O   UNL d   1      13.244  16.548 -17.481 -0.00 -0.06    -0.303    21.051
ATOM     25  H   UNL d   1      14.007  16.635 -16.854 +0.02 +0.05    +0.222    21.051
ATOM     26  O   UNL d   1      10.866  15.885 -17.726 -0.00 -0.07    -0.303    21.051
ATOM     27  H   UNL d   1      10.462  15.044 -17.428 +0.03 +0.06    +0.222    21.051
ATOM     28  O   UNL d   1      12.465  16.771 -10.593 -0.18 -0.04    -0.278    21.051
ATOM     29  P   UNL d   1      11.739  17.821  -9.640 -0.14 +0.04    +0.473    21.051
ATOM     30  O   UNL d   1      11.482  19.157 -10.236 -0.04 -0.02    -0.228    21.051
ATOM     31  O   UNL d   1      10.461  16.963  -9.203 -0.16 -0.02    -0.303    21.051
ATOM     32  H   UNL d   1       9.886  16.831  -9.992 +0.10 +0.03    +0.222    21.051
ATOM     33  O   UNL d   1      12.654  17.777  -8.338 -0.19 -0.02    -0.303    21.051
ATOM     34  H   UNL d   1      13.269  17.006  -8.403 +0.08 +0.03    +0.222    21.051
ATOM     35  O   UNL d   1      10.663  13.807 -13.667 -0.27 -0.08    -0.278    21.051
ATOM     36  P   UNL d   1       9.889  13.228 -14.936 -0.23 +0.16    +0.473    21.051
ATOM     37  O   UNL d   1       8.785  12.266 -14.634 -0.36 -0.05    -0.228    21.051
ATOM     38  O   UNL d   1       9.415  14.562 -15.665 -0.06 -0.08    -0.303    21.051
ATOM     39  H   UNL d   1      10.187  15.155 -15.784 +0.06 +0.06    +0.222    21.051
ATOM     40  O   UNL d   1      11.080  12.697 -15.847 -0.74 -0.19    -0.303    21.051
ATOM     41  H   UNL d   1      11.467  13.415 -16.396 +0.06 +0.10    +0.222    21.051
ATOM     42  O   UNL d   1       9.984  15.921 -11.779 -0.24 -0.02    -0.278    21.051
ATOM     43  P   UNL d   1       9.168  17.012 -12.609 -0.09 +0.03    +0.473    21.051
ATOM     44  O   UNL d   1       9.769  17.496 -13.883 -0.04 -0.03    -0.228    21.051
ATOM     45  O   UNL d   1       7.743  16.326 -12.781 -0.08 +0.00    -0.303    21.051
ATOM     46  H   UNL d   1       7.070  16.750 -12.212 -0.41 -0.05    +0.222    21.051
ATOM     47  O   UNL d   1       8.855  18.143 -11.518 -0.11 -0.01    -0.303    21.051
ATOM     48  H   UNL d   1       9.605  18.203 -10.890 +0.06 +0.02    +0.222    21.051
TER
ENDMDL
MODEL       61
USER    Run = 61
USER    Cluster Rank = 26
USER    Number of conformations in this cluster = 1
USER  
USER    RMSD from reference structure       = 15.592 A
USER  
USER    Estimated Free Energy of Binding    =   +2.08 kcal/mol  [=(1)+(2)+(3)-(4)]
USER    
USER    (1) Final Intermolecular Energy     =   -5.08 kcal/mol
USER        vdW + Hbond + desolv Energy     =   -5.02 kcal/mol
USER        Electrostatic Energy            =   -0.05 kcal/mol
USER    (2) Final Total Internal Energy     =  -12.79 kcal/mol
USER    (3) Torsional Free Energy           =   +7.16 kcal/mol
USER    (4) Unbound System's Energy  [=(2)] =  -12.79 kcal/mol
USER    
USER    
USER  
USER    DPF = D:/Protein_go_brrr/autodock/final/AncB/IHP/dock.dpf
USER    NEWDPF move	IHP_ideal_opt.pdbqt
USER    NEWDPF about	0.035000 0.082000 -0.065000
USER    NEWDPF tran0	-3.759501 -9.660100 14.730719
USER    NEWDPF axisangle0	-0.000386 0.983309 0.181945 143.605711
USER    NEWDPF quaternion0	-0.000366 0.934131 0.172846 0.312288
USER    NEWDPF dihe0	80.91 86.98 -180.00 -60.98 82.02 -109.48 -30.02 -133.60 32.74 59.99 4.08 -158.03 152.93 -155.46 -6.51 139.57 130.97 -71.12 32.03 -23.48 -57.57 -37.49 -20.13 18.61 
USER  
USER                              x       y       z    vdW   Elec        q     RMS 
ATOM      1  C   UNL d   1      -5.325 -10.376  14.585 -0.10 +0.12    +0.194    15.592
ATOM      2  C   UNL d   1      -4.191 -11.115  13.872 -0.09 +0.07    +0.194    15.592
ATOM      3  C   UNL d   1      -3.260 -10.150  13.137 -0.12 +0.06    +0.194    15.592
ATOM      4  C   UNL d   1      -2.744  -9.019  14.023 -0.13 +0.05    +0.194    15.592
ATOM      5  C   UNL d   1      -3.827  -8.328  14.841 -0.01 +0.06    +0.194    15.592
ATOM      6  C   UNL d   1      -4.796  -9.293  15.527 -0.13 +0.09    +0.194    15.592
ATOM      7  O   UNL d   1      -6.042 -11.321  15.383 -0.07 -0.12    -0.278    15.592
ATOM      8  P   UNL d   1      -7.285 -12.080  14.726 -0.14 +0.23    +0.473    15.592
ATOM      9  O   UNL d   1      -8.301 -12.579  15.693 -0.12 -0.08    -0.228    15.592
ATOM     10  O   UNL d   1      -7.874 -11.027  13.683 -0.58 -0.27    -0.303    15.592
ATOM     11  H   UNL d   1      -8.385 -10.345  14.159 -0.45 +0.27    +0.222    15.592
ATOM     12  O   UNL d   1      -6.643 -13.173  13.769 -0.07 -0.12    -0.303    15.592
ATOM     13  H   UNL d   1      -5.868 -13.628  14.168 +0.05 +0.07    +0.222    15.592
ATOM     14  O   UNL d   1      -3.424 -11.840  14.842 -0.01 -0.06    -0.278    15.592
ATOM     15  P   UNL d   1      -3.585 -13.434  14.836 +0.01 +0.09    +0.473    15.592
ATOM     16  O   UNL d   1      -4.496 -14.021  15.867 -0.00 -0.04    -0.228    15.592
ATOM     17  O   UNL d   1      -4.039 -13.771  13.346 -0.00 -0.08    -0.303    15.592
ATOM     18  H   UNL d   1      -3.268 -13.844  12.752 +0.02 +0.05    +0.222    15.592
ATOM     19  O   UNL d   1      -2.092 -13.983  14.847 -0.00 -0.05    -0.303    15.592
ATOM     20  H   UNL d   1      -1.907 -14.539  14.068 +0.00 +0.04    +0.222    15.592
ATOM     21  O   UNL d   1      -5.918  -8.521  15.948 -0.63 -0.24    -0.278    15.592
ATOM     22  P   UNL d   1      -6.880  -9.080  17.092 -0.07 +0.16    +0.473    15.592
ATOM     23  O   UNL d   1      -6.329 -10.085  18.047 -0.03 -0.03    -0.228    15.592
ATOM     24  O   UNL d   1      -7.401  -7.735  17.765 -0.20 +0.07    -0.303    15.592
ATOM     25  H   UNL d   1      -7.205  -6.985  17.147 -0.17 -0.21    +0.222    15.592
ATOM     26  O   UNL d   1      -8.159  -9.543  16.244 -0.23 -0.22    -0.303    15.592
ATOM     27  H   UNL d   1      -7.958 -10.389  15.795 +0.07 +0.16    +0.222    15.592
ATOM     28  O   UNL d   1      -2.104 -10.882  12.748 -0.04 -0.06    -0.278    15.592
ATOM     29  P   UNL d   1      -2.182 -11.934  11.555 -0.01 +0.11    +0.473    15.592
ATOM     30  O   UNL d   1      -1.401 -11.585  10.341 -0.05 -0.05    -0.228    15.592
ATOM     31  O   UNL d   1      -1.760 -13.269  12.332 -0.00 -0.06    -0.303    15.592
ATOM     32  H   UNL d   1      -1.924 -13.137  13.294 +0.01 +0.04    +0.222    15.592
ATOM     33  O   UNL d   1      -3.753 -12.116  11.372 -0.04 -0.10    -0.303    15.592
ATOM     34  H   UNL d   1      -4.102 -12.666  12.116 +0.05 +0.07    +0.222    15.592
ATOM     35  O   UNL d   1      -3.141  -7.619  15.871 -0.10 -0.02    -0.278    15.592
ATOM     36  P   UNL d   1      -3.094  -6.025  15.856 -0.17 -0.04    +0.473    15.592
ATOM     37  O   UNL d   1      -2.441  -5.388  17.042 -0.13 +0.01    -0.228    15.592
ATOM     38  O   UNL d   1      -2.363  -5.733  14.472 -0.26 +0.01    -0.303    15.592
ATOM     39  H   UNL d   1      -1.669  -6.412  14.326 +0.09 +0.01    +0.222    15.592
ATOM     40  O   UNL d   1      -4.612  -5.642  15.575 -0.26 +0.15    -0.303    15.592
ATOM     41  H   UNL d   1      -5.218  -6.391  15.769 -0.38 -0.16    +0.222    15.592
ATOM     42  O   UNL d   1      -2.180  -8.033  13.152 -0.17 -0.06    -0.278    15.592
ATOM     43  P   UNL d   1      -0.622  -8.100  12.816 -0.11 +0.05    +0.473    15.592
ATOM     44  O   UNL d   1       0.266  -8.766  13.809 -0.03 -0.02    -0.228    15.592
ATOM     45  O   UNL d   1      -0.605  -8.773  11.374 -0.13 -0.04    -0.303    15.592
ATOM     46  H   UNL d   1      -0.883  -9.710  11.412 +0.06 +0.04    +0.222    15.592
ATOM     47  O   UNL d   1      -0.256  -6.579  12.470 -0.23 -0.02    -0.303    15.592
ATOM     48  H   UNL d   1      -0.932  -5.987  12.862 +0.09 +0.01    +0.222    15.592
TER
ENDMDL
MODEL       50
USER    Run = 50
USER    Cluster Rank = 27
USER    Number of conformations in this cluster = 1
USER  
USER    RMSD from reference structure       = 13.244 A
USER  
USER    Estimated Free Energy of Binding    =   +2.10 kcal/mol  [=(1)+(2)+(3)-(4)]
USER    
USER    (1) Final Intermolecular Energy     =   -5.06 kcal/mol
USER        vdW + Hbond + desolv Energy     =   -4.81 kcal/mol
USER        Electrostatic Energy            =   -0.25 kcal/mol
USER    (2) Final Total Internal Energy     =  -11.89 kcal/mol
USER    (3) Torsional Free Energy           =   +7.16 kcal/mol
USER    (4) Unbound System's Energy  [=(2)] =  -11.89 kcal/mol
USER    
USER    
USER  
USER    DPF = D:/Protein_go_brrr/autodock/final/AncB/IHP/dock.dpf
USER    NEWDPF move	IHP_ideal_opt.pdbqt
USER    NEWDPF about	0.035000 0.082000 -0.065000
USER    NEWDPF tran0	-12.887979 -6.039971 -7.866430
USER    NEWDPF axisangle0	0.268883 -0.414630 0.869358 162.720494
USER    NEWDPF quaternion0	0.265832 -0.409925 0.859493 0.150221
USER    NEWDPF dihe0	-145.74 -19.33 2.66 124.62 65.17 -39.66 -75.55 -1.28 165.66 121.73 135.55 -61.11 39.23 -38.23 -114.36 41.31 44.56 31.38 -10.34 -34.29 -17.66 -42.36 -179.74 65.45 
USER  
USER                              x       y       z    vdW   Elec        q     RMS 
ATOM      1  C   UNL d   1     -13.484  -6.581  -6.338 -0.20 +0.03    +0.194    13.244
ATOM      2  C   UNL d   1     -12.715  -5.259  -6.317 -0.16 +0.01    +0.194    13.244
ATOM      3  C   UNL d   1     -11.456  -5.322  -7.184 +0.04 +0.01    +0.194    13.244
ATOM      4  C   UNL d   1     -11.729  -5.808  -8.606 -0.18 +0.07    +0.194    13.244
ATOM      5  C   UNL d   1     -12.591  -7.062  -8.678 -0.19 +0.11    +0.194    13.244
ATOM      6  C   UNL d   1     -13.817  -7.025  -7.763 -0.12 +0.07    +0.194    13.244
ATOM      7  O   UNL d   1     -14.723  -6.388  -5.652 -0.12 -0.04    -0.278    13.244
ATOM      8  P   UNL d   1     -15.167  -7.473  -4.566 -0.17 +0.06    +0.473    13.244
ATOM      9  O   UNL d   1     -14.719  -7.193  -3.175 -0.33 +0.00    -0.228    13.244
ATOM     10  O   UNL d   1     -16.754  -7.540  -4.714 -0.04 -0.05    -0.303    13.244
ATOM     11  H   UNL d   1     -16.988  -7.757  -5.636 +0.04 +0.04    +0.222    13.244
ATOM     12  O   UNL d   1     -14.717  -8.871  -5.172 -0.19 -0.05    -0.303    13.244
ATOM     13  H   UNL d   1     -15.191  -9.102  -6.002 +0.07 +0.05    +0.222    13.244
ATOM     14  O   UNL d   1     -13.563  -4.218  -6.817 -0.07 -0.02    -0.278    13.244
ATOM     15  P   UNL d   1     -14.322  -3.326  -5.725 -0.12 -0.10    +0.473    13.244
ATOM     16  O   UNL d   1     -13.792  -3.381  -4.326 -0.33 +0.07    -0.228    13.244
ATOM     17  O   UNL d   1     -14.294  -1.856  -6.338 -0.12 +0.14    -0.303    13.244
ATOM     18  H   UNL d   1     -13.521  -1.354  -6.015 +0.01 -0.13    +0.222    13.244
ATOM     19  O   UNL d   1     -15.856  -3.713  -5.892 -0.06 +0.03    -0.303    13.244
ATOM     20  H   UNL d   1     -16.020  -4.645  -5.659 +0.06 +0.00    +0.222    13.244
ATOM     21  O   UNL d   1     -14.311  -8.359  -7.682 -0.08 -0.11    -0.278    13.244
ATOM     22  P   UNL d   1     -15.796  -8.685  -8.166 -0.01 +0.20    +0.473    13.244
ATOM     23  O   UNL d   1     -16.916  -8.462  -7.207 -0.01 -0.06    -0.228    13.244
ATOM     24  O   UNL d   1     -15.892  -7.840  -9.512 -0.05 -0.21    -0.303    13.244
ATOM     25  H   UNL d   1     -15.032  -7.364  -9.638 +0.02 +0.19    +0.222    13.244
ATOM     26  O   UNL d   1     -15.636 -10.179  -8.725 -0.03 -0.15    -0.303    13.244
ATOM     27  H   UNL d   1     -16.461 -10.677  -8.554 +0.02 +0.09    +0.222    13.244
ATOM     28  O   UNL d   1     -10.968  -3.994  -7.327 -0.12 -0.04    -0.278    13.244
ATOM     29  P   UNL d   1     -10.362  -3.221  -6.074 -0.19 +0.05    +0.473    13.244
ATOM     30  O   UNL d   1     -10.021  -4.068  -4.902 -0.33 -0.02    -0.228    13.244
ATOM     31  O   UNL d   1      -9.156  -2.443  -6.782 -0.17 -0.07    -0.303    13.244
ATOM     32  H   UNL d   1      -8.906  -2.931  -7.601 +0.11 +0.06    +0.222    13.244
ATOM     33  O   UNL d   1     -11.435  -2.068  -5.841 -0.08 -0.01    -0.303    13.244
ATOM     34  H   UNL d   1     -12.321  -2.479  -5.691 +0.10 -0.02    +0.222    13.244
ATOM     35  O   UNL d   1     -13.069  -7.126 -10.020 -0.17 -0.33    -0.278    13.244
ATOM     36  P   UNL d   1     -13.732  -5.844 -10.700 -0.04 +0.46    +0.473    13.244
ATOM     37  O   UNL d   1     -12.784  -4.926 -11.404 -0.08 -0.17    -0.228    13.244
ATOM     38  O   UNL d   1     -14.827  -6.506 -11.647 -0.56 -0.52    -0.303    13.244
ATOM     39  H   UNL d   1     -15.691  -6.514 -11.182 +0.01 +0.23    +0.222    13.244
ATOM     40  O   UNL d   1     -14.581  -5.227  -9.505 -0.02 -0.14    -0.303    13.244
ATOM     41  H   UNL d   1     -14.020  -4.704  -8.891 +0.04 +0.07    +0.222    13.244
ATOM     42  O   UNL d   1     -10.460  -6.135  -9.182 -0.22 -0.13    -0.278    13.244
ATOM     43  P   UNL d   1      -9.245  -5.118  -9.000 -0.22 +0.18    +0.473    13.244
ATOM     44  O   UNL d   1      -8.557  -5.100  -7.679 -0.38 -0.07    -0.228    13.244
ATOM     45  O   UNL d   1      -8.296  -5.485 -10.224 -0.27 -0.15    -0.303    13.244
ATOM     46  H   UNL d   1      -8.739  -5.323 -11.081 +0.08 +0.12    +0.222    13.244
ATOM     47  O   UNL d   1      -9.864  -3.718  -9.476 -0.05 -0.11    -0.303    13.244
ATOM     48  H   UNL d   1      -9.854  -3.089  -8.725 +0.08 +0.06    +0.222    13.244
TER
ENDMDL
MODEL       64
USER    Run = 64
USER    Cluster Rank = 28
USER    Number of conformations in this cluster = 1
USER  
USER    RMSD from reference structure       = 19.102 A
USER  
USER    Estimated Free Energy of Binding    =   +2.18 kcal/mol  [=(1)+(2)+(3)-(4)]
USER    
USER    (1) Final Intermolecular Energy     =   -4.98 kcal/mol
USER        vdW + Hbond + desolv Energy     =   -4.00 kcal/mol
USER        Electrostatic Energy            =   -0.98 kcal/mol
USER    (2) Final Total Internal Energy     =  -11.88 kcal/mol
USER    (3) Torsional Free Energy           =   +7.16 kcal/mol
USER    (4) Unbound System's Energy  [=(2)] =  -11.88 kcal/mol
USER    
USER    
USER  
USER    DPF = D:/Protein_go_brrr/autodock/final/AncB/IHP/dock.dpf
USER    NEWDPF move	IHP_ideal_opt.pdbqt
USER    NEWDPF about	0.035000 0.082000 -0.065000
USER    NEWDPF tran0	-11.895805 -11.988919 -13.597939
USER    NEWDPF axisangle0	0.975095 0.156812 -0.156845 -118.582401
USER    NEWDPF quaternion0	0.838361 0.134823 -0.134851 -0.510675
USER    NEWDPF dihe0	170.82 126.07 -70.29 139.49 55.80 -176.66 124.84 -5.74 98.73 -9.96 119.85 99.52 -10.27 -13.99 -25.09 90.22 -179.10 18.83 -29.93 -42.21 157.30 33.74 -0.32 169.67 
USER  
USER                              x       y       z    vdW   Elec        q     RMS 
ATOM      1  C   UNL d   1     -11.127 -12.192 -15.132 -0.07 +0.05    +0.194    19.102
ATOM      2  C   UNL d   1     -12.544 -11.617 -15.174 -0.07 +0.12    +0.194    19.102
ATOM      3  C   UNL d   1     -13.482 -12.353 -14.215 -0.06 +0.13    +0.194    19.102
ATOM      4  C   UNL d   1     -12.938 -12.443 -12.791 +0.02 +0.14    +0.194    19.102
ATOM      5  C   UNL d   1     -11.488 -12.903 -12.709 -0.11 +0.06    +0.194    19.102
ATOM      6  C   UNL d   1     -10.561 -12.211 -13.711 -0.15 +0.02    +0.194    19.102
ATOM      7  O   UNL d   1     -10.280 -11.348 -15.916 -0.04 -0.06    -0.278    19.102
ATOM      8  P   UNL d   1      -8.987 -11.993 -16.598 -0.03 -0.05    +0.473    19.102
ATOM      9  O   UNL d   1      -9.195 -13.341 -17.195 -0.03 +0.03    -0.228    19.102
ATOM     10  O   UNL d   1      -8.525 -10.899 -17.662 -0.01 -0.09    -0.303    19.102
ATOM     11  H   UNL d   1      -8.993 -10.060 -17.493 +0.03 +0.09    +0.222    19.102
ATOM     12  O   UNL d   1      -7.846 -11.890 -15.498 -0.02 +0.29    -0.303    19.102
ATOM     13  H   UNL d   1      -7.894 -12.605 -14.823 -0.41 -0.47    +0.222    19.102
ATOM     14  O   UNL d   1     -12.499 -10.235 -14.797 -0.00 -0.39    -0.278    19.102
ATOM     15  P   UNL d   1     -12.271  -9.179 -15.979 -0.05 +0.45    +0.473    19.102
ATOM     16  O   UNL d   1     -13.016  -9.425 -17.253 -0.02 -0.13    -0.228    19.102
ATOM     17  O   UNL d   1     -12.628  -7.774 -15.317 -0.65 -0.48    -0.303    19.102
ATOM     18  H   UNL d   1     -12.736  -7.082 -15.997 +0.01 +0.20    +0.222    19.102
ATOM     19  O   UNL d   1     -10.690  -9.074 -16.118 -0.05 -0.18    -0.303    19.102
ATOM     20  H   UNL d   1     -10.323  -9.821 -16.626 +0.03 +0.10    +0.222    19.102
ATOM     21  O   UNL d   1      -9.356 -12.971 -13.751 -0.09 +0.25    -0.278    19.102
ATOM     22  P   UNL d   1      -9.415 -14.533 -14.071 -0.02 -0.30    +0.473    19.102
ATOM     23  O   UNL d   1     -10.734 -15.128 -14.434 -0.02 +0.02    -0.228    19.102
ATOM     24  O   UNL d   1      -8.287 -14.680 -15.184 -0.02 +0.35    -0.303    19.102
ATOM     25  H   UNL d   1      -8.011 -13.771 -15.465 -0.52 -0.36    +0.222    19.102
ATOM     26  O   UNL d   1      -8.693 -15.157 -12.783 -0.08 +0.24    -0.303    19.102
ATOM     27  H   UNL d   1      -8.559 -14.453 -12.116 -0.26 -0.28    +0.222    19.102
ATOM     28  O   UNL d   1     -14.677 -11.589 -14.114 -0.16 -0.28    -0.278    19.102
ATOM     29  P   UNL d   1     -16.087 -12.315 -13.964 -0.02 +0.26    +0.473    19.102
ATOM     30  O   UNL d   1     -16.272 -13.102 -12.718 -0.01 -0.10    -0.228    19.102
ATOM     31  O   UNL d   1     -17.068 -11.071 -14.191 -0.03 -0.18    -0.303    19.102
ATOM     32  H   UNL d   1     -17.997 -11.398 -14.179 +0.01 +0.09    +0.222    19.102
ATOM     33  O   UNL d   1     -16.202 -13.109 -15.340 +0.00 -0.10    -0.303    19.102
ATOM     34  H   UNL d   1     -15.390 -13.660 -15.462 +0.01 +0.07    +0.222    19.102
ATOM     35  O   UNL d   1     -11.041 -12.542 -11.404 -0.15 -0.10    -0.278    19.102
ATOM     36  P   UNL d   1     -10.303 -13.613 -10.481 -0.16 +0.08    +0.473    19.102
ATOM     37  O   UNL d   1     -10.762 -13.663  -9.058 -0.16 -0.10    -0.228    19.102
ATOM     38  O   UNL d   1     -10.541 -14.962 -11.293 -0.04 -0.05    -0.303    19.102
ATOM     39  H   UNL d   1     -10.621 -14.752 -12.249 +0.05 +0.00    +0.222    19.102
ATOM     40  O   UNL d   1      -8.769 -13.280 -10.734 -0.20 +0.17    -0.303    19.102
ATOM     41  H   UNL d   1      -8.555 -13.251 -11.693 -0.43 -0.42    +0.222    19.102
ATOM     42  O   UNL d   1     -13.729 -13.420 -12.106 -0.04 -0.14    -0.278    19.102
ATOM     43  P   UNL d   1     -13.791 -14.905 -12.684 +0.01 +0.13    +0.473    19.102
ATOM     44  O   UNL d   1     -12.527 -15.693 -12.692 -0.00 -0.05    -0.228    19.102
ATOM     45  O   UNL d   1     -14.962 -15.563 -11.831 +0.00 -0.08    -0.303    19.102
ATOM     46  H   UNL d   1     -15.745 -14.979 -11.787 +0.01 +0.06    +0.222    19.102
ATOM     47  O   UNL d   1     -14.496 -14.714 -14.111 -0.00 -0.08    -0.303    19.102
ATOM     48  H   UNL d   1     -15.466 -14.658 -13.987 +0.01 +0.06    +0.222    19.102
TER
ENDMDL
MODEL       29
USER    Run = 29
USER    Cluster Rank = 29
USER    Number of conformations in this cluster = 2
USER  
USER    RMSD from reference structure       = 15.365 A
USER  
USER    Estimated Free Energy of Binding    =   +2.21 kcal/mol  [=(1)+(2)+(3)-(4)]
USER    
USER    (1) Final Intermolecular Energy     =   -4.94 kcal/mol
USER        vdW + Hbond + desolv Energy     =   -4.70 kcal/mol
USER        Electrostatic Energy            =   -0.24 kcal/mol
USER    (2) Final Total Internal Energy     =  -12.93 kcal/mol
USER    (3) Torsional Free Energy           =   +7.16 kcal/mol
USER    (4) Unbound System's Energy  [=(2)] =  -12.93 kcal/mol
USER    
USER    
USER  
USER    DPF = D:/Protein_go_brrr/autodock/final/AncB/IHP/dock.dpf
USER    NEWDPF move	IHP_ideal_opt.pdbqt
USER    NEWDPF about	0.035000 0.082000 -0.065000
USER    NEWDPF tran0	-17.883044 -0.414654 6.178552
USER    NEWDPF axisangle0	-0.251328 0.946361 -0.203066 -124.935768
USER    NEWDPF quaternion0	-0.222866 0.839187 -0.180069 -0.462246
USER    NEWDPF dihe0	50.01 64.81 148.91 43.84 159.50 163.10 -101.10 -6.50 164.81 -5.52 -56.71 27.08 -25.19 -142.47 -128.56 50.01 179.88 -107.85 47.00 -7.07 -48.96 160.56 33.08 -96.29 
USER  
USER                              x       y       z    vdW   Elec        q     RMS 
ATOM      1  C   UNL d   1     -17.615  -1.910   5.357 +0.06 -0.02    +0.194    15.365
ATOM      2  C   UNL d   1     -17.173  -1.872   6.821 -0.22 +0.02    +0.194    15.365
ATOM      3  C   UNL d   1     -16.454  -0.565   7.162 -0.25 +0.01    +0.194    15.365
ATOM      4  C   UNL d   1     -17.247   0.678   6.766 -0.15 +0.01    +0.194    15.365
ATOM      5  C   UNL d   1     -17.805   0.633   5.349 -0.18 +0.01    +0.194    15.365
ATOM      6  C   UNL d   1     -18.470  -0.697   4.987 -0.14 -0.01    +0.194    15.365
ATOM      7  O   UNL d   1     -18.421  -3.075   5.164 -0.13 +0.02    -0.278    15.365
ATOM      8  P   UNL d   1     -17.696  -4.496   5.083 -0.22 -0.02    +0.473    15.365
ATOM      9  O   UNL d   1     -16.393  -4.581   5.798 -0.71 -0.01    -0.228    15.365
ATOM     10  O   UNL d   1     -18.786  -5.518   5.641 -0.10 +0.03    -0.303    15.365
ATOM     11  H   UNL d   1     -18.520  -5.829   6.527 -0.08 -0.08    +0.222    15.365
ATOM     12  O   UNL d   1     -17.664  -4.855   3.536 -0.26 -0.00    -0.303    15.365
ATOM     13  H   UNL d   1     -17.783  -4.070   2.955 -0.47 -0.05    +0.222    15.365
ATOM     14  O   UNL d   1     -18.328  -1.991   7.660 -0.05 -0.05    -0.278    15.365
ATOM     15  P   UNL d   1     -18.315  -3.180   8.732 -0.07 +0.25    +0.473    15.365
ATOM     16  O   UNL d   1     -18.812  -4.512   8.265 -0.39 -0.09    -0.228    15.365
ATOM     17  O   UNL d   1     -16.805  -3.228   9.239 -0.03 -0.31    -0.303    15.365
ATOM     18  H   UNL d   1     -16.509  -2.350   9.546 +0.11 +0.14    +0.222    15.365
ATOM     19  O   UNL d   1     -19.059  -2.577  10.003 -0.07 -0.12    -0.303    15.365
ATOM     20  H   UNL d   1     -19.124  -1.606   9.955 +0.04 +0.06    +0.222    15.365
ATOM     21  O   UNL d   1     -18.623  -0.710   3.570 -0.08 +0.04    -0.278    15.365
ATOM     22  P   UNL d   1     -19.818  -1.535   2.909 -0.07 -0.03    +0.473    15.365
ATOM     23  O   UNL d   1     -19.522  -2.893   2.370 -0.17 +0.03    -0.228    15.365
ATOM     24  O   UNL d   1     -20.914  -1.498   4.062 -0.02 -0.01    -0.303    15.365
ATOM     25  H   UNL d   1     -21.512  -0.726   3.895 +0.02 +0.01    +0.222    15.365
ATOM     26  O   UNL d   1     -20.405  -0.474   1.860 -0.06 -0.02    -0.303    15.365
ATOM     27  H   UNL d   1     -20.007   0.404   2.034 +0.05 +0.02    +0.222    15.365
ATOM     28  O   UNL d   1     -16.333  -0.500   8.577 -0.19 -0.04    -0.278    15.365
ATOM     29  P   UNL d   1     -17.489   0.158   9.454 -0.08 +0.06    +0.473    15.365
ATOM     30  O   UNL d   1     -18.838   0.167   8.833 -0.03 -0.03    -0.228    15.365
ATOM     31  O   UNL d   1     -17.318  -0.675  10.810 -0.14 -0.07    -0.303    15.365
ATOM     32  H   UNL d   1     -17.285  -1.634  10.587 +0.07 +0.09    +0.222    15.365
ATOM     33  O   UNL d   1     -16.860   1.572   9.829 -0.14 -0.01    -0.303    15.365
ATOM     34  H   UNL d   1     -16.561   2.020   9.000 +0.07 +0.01    +0.222    15.365
ATOM     35  O   UNL d   1     -18.819   1.635   5.300 -0.04 -0.02    -0.278    15.365
ATOM     36  P   UNL d   1     -19.365   2.159   3.896 -0.04 +0.05    +0.473    15.365
ATOM     37  O   UNL d   1     -19.526   3.641   3.778 -0.03 -0.03    -0.228    15.365
ATOM     38  O   UNL d   1     -18.310   1.532   2.881 -0.16 -0.05    -0.303    15.365
ATOM     39  H   UNL d   1     -18.659   0.681   2.540 +0.05 +0.02    +0.222    15.365
ATOM     40  O   UNL d   1     -20.670   1.272   3.687 -0.02 -0.03    -0.303    15.365
ATOM     41  H   UNL d   1     -20.496   0.322   3.866 +0.03 +0.01    +0.222    15.365
ATOM     42  O   UNL d   1     -16.341   1.785   6.826 -0.10 -0.02    -0.278    15.365
ATOM     43  P   UNL d   1     -16.605   3.050   5.891 -0.10 +0.05    +0.473    15.365
ATOM     44  O   UNL d   1     -16.573   2.833   4.417 -0.19 -0.03    -0.228    15.365
ATOM     45  O   UNL d   1     -17.993   3.604   6.437 -0.03 -0.03    -0.303    15.365
ATOM     46  H   UNL d   1     -18.631   3.749   5.711 +0.03 +0.02    +0.222    15.365
ATOM     47  O   UNL d   1     -15.574   4.142   6.452 -0.13 -0.05    -0.303    15.365
ATOM     48  H   UNL d   1     -15.916   5.038   6.256 +0.08 +0.03    +0.222    15.365
TER
ENDMDL
MODEL       30
USER    Run = 30
USER    Cluster Rank = 30
USER    Number of conformations in this cluster = 2
USER  
USER    RMSD from reference structure       = 18.553 A
USER  
USER    Estimated Free Energy of Binding    =   +2.27 kcal/mol  [=(1)+(2)+(3)-(4)]
USER    
USER    (1) Final Intermolecular Energy     =   -4.89 kcal/mol
USER        vdW + Hbond + desolv Energy     =   -4.75 kcal/mol
USER        Electrostatic Energy            =   -0.14 kcal/mol
USER    (2) Final Total Internal Energy     =  -10.87 kcal/mol
USER    (3) Torsional Free Energy           =   +7.16 kcal/mol
USER    (4) Unbound System's Energy  [=(2)] =  -10.87 kcal/mol
USER    
USER    
USER  
USER    DPF = D:/Protein_go_brrr/autodock/final/AncB/IHP/dock.dpf
USER    NEWDPF move	IHP_ideal_opt.pdbqt
USER    NEWDPF about	0.035000 0.082000 -0.065000
USER    NEWDPF tran0	4.707364 8.392588 17.743929
USER    NEWDPF axisangle0	-0.209488 0.602381 -0.770229 -104.111628
USER    NEWDPF quaternion0	-0.165204 0.475043 -0.607410 -0.614894
USER    NEWDPF dihe0	152.05 -154.00 -125.81 10.93 138.62 123.56 -60.66 -39.17 -98.44 16.24 30.79 -73.25 104.36 162.82 42.83 -179.27 -1.67 -49.59 -14.38 3.45 6.61 -7.53 180.00 173.08 
USER  
USER                              x       y       z    vdW   Elec        q     RMS 
ATOM      1  C   UNL d   1       4.567   6.780  18.347 -0.08 -0.03    +0.194    18.553
ATOM      2  C   UNL d   1       4.039   7.879  19.271 -0.08 -0.03    +0.194    18.553
ATOM      3  C   UNL d   1       4.985   9.081  19.318 -0.03 -0.02    +0.194    18.553
ATOM      4  C   UNL d   1       5.349   9.615  17.935 -0.05 -0.02    +0.194    18.553
ATOM      5  C   UNL d   1       5.772   8.537  16.946 -0.04 -0.02    +0.194    18.553
ATOM      6  C   UNL d   1       4.861   7.308  16.942 -0.09 -0.03    +0.194    18.553
ATOM      7  O   UNL d   1       3.555   5.778  18.223 -0.16 +0.07    -0.278    18.553
ATOM      8  P   UNL d   1       3.994   4.243  18.292 -0.17 -0.09    +0.473    18.553
ATOM      9  O   UNL d   1       2.923   3.299  18.712 -0.26 +0.03    -0.228    18.553
ATOM     10  O   UNL d   1       4.563   3.938  16.833 +0.01 +0.11    -0.303    18.553
ATOM     11  H   UNL d   1       4.418   4.711  16.257 -0.32 -0.10    +0.222    18.553
ATOM     12  O   UNL d   1       5.315   4.231  19.174 -0.04 +0.03    -0.303    18.553
ATOM     13  H   UNL d   1       5.524   3.344  19.544 +0.04 -0.02    +0.222    18.553
ATOM     14  O   UNL d   1       2.763   8.320  18.790 -0.18 +0.07    -0.278    18.553
ATOM     15  P   UNL d   1       1.610   8.504  19.885 -0.25 -0.12    +0.473    18.553
ATOM     16  O   UNL d   1       0.229   8.093  19.482 -0.31 +0.08    -0.228    18.553
ATOM     17  O   UNL d   1       2.147   7.701  21.152 -0.11 +0.04    -0.303    18.553
ATOM     18  H   UNL d   1       1.974   8.191  21.979 +0.06 -0.03    +0.222    18.553
ATOM     19  O   UNL d   1       1.763  10.010  20.374 -0.17 +0.05    -0.303    18.553
ATOM     20  H   UNL d   1       2.687  10.224  20.598 +0.06 -0.03    +0.222    18.553
ATOM     21  O   UNL d   1       5.560   6.278  16.246 -0.06 +0.04    -0.278    18.553
ATOM     22  P   UNL d   1       5.280   6.040  14.694 -0.10 -0.08    +0.473    18.553
ATOM     23  O   UNL d   1       5.812   7.038  13.721 -0.12 +0.01    -0.228    18.553
ATOM     24  O   UNL d   1       5.817   4.556  14.490 -0.13 +0.06    -0.303    18.553
ATOM     25  H   UNL d   1       5.177   3.935  14.921 -0.47 -0.12    +0.222    18.553
ATOM     26  O   UNL d   1       3.691   5.823  14.680 -0.22 +0.11    -0.303    18.553
ATOM     27  H   UNL d   1       3.453   5.150  15.351 -0.43 -0.14    +0.222    18.553
ATOM     28  O   UNL d   1       4.294  10.144  19.963 -0.04 +0.02    -0.278    18.553
ATOM     29  P   UNL d   1       4.620  10.514  21.478 -0.01 -0.03    +0.473    18.553
ATOM     30  O   UNL d   1       4.324  11.915  21.873 -0.03 +0.01    -0.228    18.553
ATOM     31  O   UNL d   1       3.805   9.360  22.229 -0.01 +0.02    -0.303    18.553
ATOM     32  H   UNL d   1       3.252   8.884  21.566 +0.05 -0.02    +0.222    18.553
ATOM     33  O   UNL d   1       6.130  10.029  21.622 -0.00 +0.01    -0.303    18.553
ATOM     34  H   UNL d   1       6.530   9.953  20.721 +0.01 -0.01    +0.222    18.553
ATOM     35  O   UNL d   1       5.673   9.136  15.655 -0.06 +0.03    -0.278    18.553
ATOM     36  P   UNL d   1       4.349   9.918  15.230 -0.17 -0.09    +0.473    18.553
ATOM     37  O   UNL d   1       3.763  10.811  16.276 -0.17 +0.04    -0.228    18.553
ATOM     38  O   UNL d   1       4.827  10.676  13.914 -0.20 +0.07    -0.303    18.553
ATOM     39  H   UNL d   1       4.148  11.338  13.660 -0.22 -0.09    +0.222    18.553
ATOM     40  O   UNL d   1       3.424   8.746  14.682 -0.31 +0.07    -0.303    18.553
ATOM     41  H   UNL d   1       3.955   7.983  14.360 +0.14 -0.02    +0.222    18.553
ATOM     42  O   UNL d   1       6.469  10.489  18.110 -0.01 +0.01    -0.278    18.553
ATOM     43  P   UNL d   1       7.832   9.891  18.685 +0.00 -0.02    +0.473    18.553
ATOM     44  O   UNL d   1       7.835   8.458  19.093 -0.00 +0.01    -0.228    18.553
ATOM     45  O   UNL d   1       8.878  10.243  17.539 -0.00 +0.00    -0.303    18.553
ATOM     46  H   UNL d   1       8.504  10.080  16.650 +0.01 -0.00    +0.222    18.553
ATOM     47  O   UNL d   1       8.238  10.937  19.829 -0.00 +0.01    -0.303    18.553
ATOM     48  H   UNL d   1       8.064  10.539  20.707 +0.00 -0.01    +0.222    18.553
TER
ENDMDL
MODEL       19
USER    Run = 19
USER    Cluster Rank = 31
USER    Number of conformations in this cluster = 2
USER  
USER    RMSD from reference structure       = 13.153 A
USER  
USER    Estimated Free Energy of Binding    =   +2.27 kcal/mol  [=(1)+(2)+(3)-(4)]
USER    
USER    (1) Final Intermolecular Energy     =   -4.89 kcal/mol
USER        vdW + Hbond + desolv Energy     =   -4.56 kcal/mol
USER        Electrostatic Energy            =   -0.33 kcal/mol
USER    (2) Final Total Internal Energy     =  -13.98 kcal/mol
USER    (3) Torsional Free Energy           =   +7.16 kcal/mol
USER    (4) Unbound System's Energy  [=(2)] =  -13.98 kcal/mol
USER    
USER    
USER  
USER    DPF = D:/Protein_go_brrr/autodock/final/AncB/IHP/dock.dpf
USER    NEWDPF move	IHP_ideal_opt.pdbqt
USER    NEWDPF about	0.035000 0.082000 -0.065000
USER    NEWDPF tran0	-3.245382 -12.261387 9.065281
USER    NEWDPF axisangle0	-0.628273 -0.580166 0.518344 71.275509
USER    NEWDPF quaternion0	-0.366069 -0.338039 0.302017 0.812717
USER    NEWDPF dihe0	-144.86 -36.56 72.49 93.78 30.13 -158.41 -116.80 -8.09 -24.62 91.38 55.71 -79.54 77.76 109.30 168.46 172.64 -166.27 81.79 -21.84 -9.84 -2.18 13.24 -50.36 19.90 
USER  
USER                              x       y       z    vdW   Elec        q     RMS 
ATOM      1  C   UNL d   1      -2.903 -13.687   8.151 -0.05 +0.07    +0.194    13.153
ATOM      2  C   UNL d   1      -4.353 -13.530   8.613 -0.09 +0.10    +0.194    13.153
ATOM      3  C   UNL d   1      -4.437 -13.047  10.062 -0.09 +0.08    +0.194    13.153
ATOM      4  C   UNL d   1      -3.608 -11.792  10.327 -0.12 +0.06    +0.194    13.153
ATOM      5  C   UNL d   1      -2.188 -11.860   9.781 -0.08 +0.05    +0.194    13.153
ATOM      6  C   UNL d   1      -2.099 -12.402   8.352 -0.10 +0.05    +0.194    13.153
ATOM      7  O   UNL d   1      -2.910 -13.970   6.750 -0.08 -0.12    -0.278    13.153
ATOM      8  P   UNL d   1      -1.806 -14.971   6.173 -0.02 +0.18    +0.473    13.153
ATOM      9  O   UNL d   1      -2.336 -16.073   5.324 -0.05 -0.12    -0.228    13.153
ATOM     10  O   UNL d   1      -0.786 -14.018   5.400 -0.07 -0.11    -0.303    13.153
ATOM     11  H   UNL d   1      -0.437 -13.346   6.015 +0.05 +0.06    +0.222    13.153
ATOM     12  O   UNL d   1      -0.953 -15.418   7.436 -0.00 -0.09    -0.303    13.153
ATOM     13  H   UNL d   1      -0.264 -14.762   7.687 +0.02 +0.05    +0.222    13.153
ATOM     14  O   UNL d   1      -5.010 -12.571   7.773 -0.17 -0.16    -0.278    13.153
ATOM     15  P   UNL d   1      -6.311 -13.078   6.990 -0.23 +0.47    +0.473    13.153
ATOM     16  O   UNL d   1      -7.195 -12.023   6.402 -0.37 -0.21    -0.228    13.153
ATOM     17  O   UNL d   1      -5.738 -14.084   5.896 -0.29 -0.46    -0.303    13.153
ATOM     18  H   UNL d   1      -4.801 -13.893   5.699 +0.07 +0.22    +0.222    13.153
ATOM     19  O   UNL d   1      -7.019 -14.079   8.004 -0.23 -0.38    -0.303    13.153
ATOM     20  H   UNL d   1      -6.903 -13.796   8.930 +0.06 +0.20    +0.222    13.153
ATOM     21  O   UNL d   1      -0.730 -12.725   8.119 -0.04 -0.06    -0.278    13.153
ATOM     22  P   UNL d   1       0.166 -11.767   7.210 -0.10 +0.08    +0.473    13.153
ATOM     23  O   UNL d   1       1.429 -12.317   6.639 -0.06 -0.03    -0.228    13.153
ATOM     24  O   UNL d   1      -0.890 -11.262   6.131 -0.21 -0.05    -0.303    13.153
ATOM     25  H   UNL d   1      -1.509 -12.010   5.932 +0.08 +0.06    +0.222    13.153
ATOM     26  O   UNL d   1       0.322 -10.478   8.150 -0.09 -0.05    -0.303    13.153
ATOM     27  H   UNL d   1       0.253 -10.753   9.087 +0.05 +0.04    +0.222    13.153
ATOM     28  O   UNL d   1      -5.785 -12.667  10.310 -0.18 -0.15    -0.278    13.153
ATOM     29  P   UNL d   1      -6.599 -13.327  11.509 -0.17 +0.25    +0.473    13.153
ATOM     30  O   UNL d   1      -7.589 -12.442  12.175 -0.85 -0.16    -0.228    13.153
ATOM     31  O   UNL d   1      -7.168 -14.631  10.777 -0.14 -0.19    -0.303    13.153
ATOM     32  H   UNL d   1      -7.792 -14.346  10.070 -0.27 +0.14    +0.222    13.153
ATOM     33  O   UNL d   1      -5.433 -13.916  12.420 -0.03 -0.11    -0.303    13.153
ATOM     34  H   UNL d   1      -4.767 -13.205  12.588 +0.05 +0.08    +0.222    13.153
ATOM     35  O   UNL d   1      -1.720 -10.513   9.749 -0.12 -0.06    -0.278    13.153
ATOM     36  P   UNL d   1      -1.182  -9.817  11.079 -0.09 +0.08    +0.473    13.153
ATOM     37  O   UNL d   1      -1.893  -8.564  11.484 -0.25 -0.05    -0.228    13.153
ATOM     38  O   UNL d   1      -1.293 -11.003  12.136 -0.02 -0.05    -0.303    13.153
ATOM     39  H   UNL d   1      -2.149 -10.930  12.612 +0.04 +0.05    +0.222    13.153
ATOM     40  O   UNL d   1       0.378  -9.702  10.796 -0.06 -0.04    -0.303    13.153
ATOM     41  H   UNL d   1       0.560  -9.303   9.916 +0.06 +0.03    +0.222    13.153
ATOM     42  O   UNL d   1      -3.507 -11.655  11.748 -0.05 -0.09    -0.278    13.153
ATOM     43  P   UNL d   1      -4.601 -10.788  12.519 -0.09 +0.23    +0.473    13.153
ATOM     44  O   UNL d   1      -5.293 -11.425  13.675 -0.12 -0.11    -0.228    13.153
ATOM     45  O   UNL d   1      -3.800  -9.464  12.890 -0.12 -0.14    -0.303    13.153
ATOM     46  H   UNL d   1      -2.834  -9.599  12.823 +0.06 +0.06    +0.222    13.153
ATOM     47  O   UNL d   1      -5.557 -10.272  11.340 -0.16 -0.20    -0.303    13.153
ATOM     48  H   UNL d   1      -6.355 -10.838  11.301 +0.13 +0.15    +0.222    13.153
TER
ENDMDL
MODEL       44
USER    Run = 44
USER    Cluster Rank = 32
USER    Number of conformations in this cluster = 1
USER  
USER    RMSD from reference structure       = 14.712 A
USER  
USER    Estimated Free Energy of Binding    =   +2.29 kcal/mol  [=(1)+(2)+(3)-(4)]
USER    
USER    (1) Final Intermolecular Energy     =   -4.87 kcal/mol
USER        vdW + Hbond + desolv Energy     =   -4.25 kcal/mol
USER        Electrostatic Energy            =   -0.62 kcal/mol
USER    (2) Final Total Internal Energy     =  -11.00 kcal/mol
USER    (3) Torsional Free Energy           =   +7.16 kcal/mol
USER    (4) Unbound System's Energy  [=(2)] =  -11.00 kcal/mol
USER    
USER    
USER  
USER    DPF = D:/Protein_go_brrr/autodock/final/AncB/IHP/dock.dpf
USER    NEWDPF move	IHP_ideal_opt.pdbqt
USER    NEWDPF about	0.035000 0.082000 -0.065000
USER    NEWDPF tran0	-3.564072 -13.961686 10.172354
USER    NEWDPF axisangle0	-0.335542 -0.801091 -0.495645 -118.733979
USER    NEWDPF quaternion0	-0.288717 -0.689298 -0.426477 -0.509537
USER    NEWDPF dihe0	144.60 173.27 51.10 104.05 94.33 134.28 25.14 -69.38 -44.75 137.80 178.79 -129.39 123.39 -64.04 -121.55 -89.15 72.94 -7.34 9.63 -5.52 -29.30 -32.39 25.28 153.40 
USER  
USER                              x       y       z    vdW   Elec        q     RMS 
ATOM      1  C   UNL d   1      -5.058 -13.727  11.008 -0.08 +0.08    +0.194    14.712
ATOM      2  C   UNL d   1      -5.167 -14.384   9.631 -0.10 +0.11    +0.194    14.712
ATOM      3  C   UNL d   1      -4.267 -13.697   8.602 -0.07 +0.10    +0.194    14.712
ATOM      4  C   UNL d   1      -2.818 -13.563   9.064 -0.03 +0.07    +0.194    14.712
ATOM      5  C   UNL d   1      -2.666 -13.018  10.479 -0.03 +0.05    +0.194    14.712
ATOM      6  C   UNL d   1      -3.610 -13.663  11.496 -0.02 +0.06    +0.194    14.712
ATOM      7  O   UNL d   1      -5.787 -14.525  11.942 -0.05 -0.12    -0.278    14.712
ATOM      8  P   UNL d   1      -7.110 -13.912  12.595 -0.16 +0.21    +0.473    14.712
ATOM      9  O   UNL d   1      -7.875 -14.845  13.467 -0.14 -0.09    -0.228    14.712
ATOM     10  O   UNL d   1      -6.595 -12.613  13.365 -0.13 -0.14    -0.303    14.712
ATOM     11  H   UNL d   1      -5.622 -12.634  13.427 +0.06 +0.09    +0.222    14.712
ATOM     12  O   UNL d   1      -7.916 -13.280  11.380 -0.21 -0.19    -0.303    14.712
ATOM     13  H   UNL d   1      -8.850 -13.585  11.337 -0.52 +0.09    +0.222    14.712
ATOM     14  O   UNL d   1      -4.773 -15.758   9.737 -0.02 -0.16    -0.278    14.712
ATOM     15  P   UNL d   1      -5.816 -16.845   9.194 -0.04 +0.45    +0.473    14.712
ATOM     16  O   UNL d   1      -7.173 -16.343   8.813 -0.60 -0.48    -0.228    14.712
ATOM     17  O   UNL d   1      -5.053 -17.542   7.981 -0.01 -0.26    -0.303    14.712
ATOM     18  H   UNL d   1      -4.615 -16.879   7.414 +0.03 +0.19    +0.222    14.712
ATOM     19  O   UNL d   1      -5.794 -17.998  10.290 -0.01 -0.19    -0.303    14.712
ATOM     20  H   UNL d   1      -5.817 -17.635  11.195 +0.02 +0.12    +0.222    14.712
ATOM     21  O   UNL d   1      -3.596 -12.833  12.655 -0.02 -0.08    -0.278    14.712
ATOM     22  P   UNL d   1      -3.395 -13.488  14.096 +0.01 +0.10    +0.473    14.712
ATOM     23  O   UNL d   1      -4.610 -13.890  14.862 -0.01 -0.05    -0.228    14.712
ATOM     24  O   UNL d   1      -2.385 -14.676  13.775 +0.00 -0.05    -0.303    14.712
ATOM     25  H   UNL d   1      -1.842 -14.414  12.989 +0.00 +0.04    +0.222    14.712
ATOM     26  O   UNL d   1      -2.435 -12.420  14.809 -0.00 -0.05    -0.303    14.712
ATOM     27  H   UNL d   1      -1.772 -12.103  14.163 +0.01 +0.04    +0.222    14.712
ATOM     28  O   UNL d   1      -4.220 -14.529   7.450 -0.04 -0.19    -0.278    14.712
ATOM     29  P   UNL d   1      -5.432 -14.543   6.417 -0.07 +0.63    +0.473    14.712
ATOM     30  O   UNL d   1      -6.169 -15.828   6.311 -0.64 -0.54    -0.228    14.712
ATOM     31  O   UNL d   1      -6.257 -13.274   6.938 -0.23 -0.32    -0.303    14.712
ATOM     32  H   UNL d   1      -5.801 -12.456   6.632 +0.12 +0.18    +0.222    14.712
ATOM     33  O   UNL d   1      -4.746 -13.994   5.089 -0.19 -0.32    -0.303    14.712
ATOM     34  H   UNL d   1      -3.845 -13.652   5.311 -0.24 +0.11    +0.222    14.712
ATOM     35  O   UNL d   1      -1.335 -13.341  10.877 -0.01 -0.06    -0.278    14.712
ATOM     36  P   UNL d   1      -0.603 -12.486  12.007 -0.00 +0.07    +0.473    14.712
ATOM     37  O   UNL d   1      -0.235 -13.236  13.247 -0.00 -0.03    -0.228    14.712
ATOM     38  O   UNL d   1       0.640 -11.889  11.210 -0.01 -0.04    -0.303    14.712
ATOM     39  H   UNL d   1       1.469 -12.259  11.584 +0.00 +0.02    +0.222    14.712
ATOM     40  O   UNL d   1      -1.580 -11.243  12.178 -0.02 -0.06    -0.303    14.712
ATOM     41  H   UNL d   1      -2.205 -11.371  12.926 +0.03 +0.05    +0.222    14.712
ATOM     42  O   UNL d   1      -2.186 -12.629   8.183 -0.06 -0.08    -0.278    14.712
ATOM     43  P   UNL d   1      -2.979 -11.311   7.759 -0.18 +0.14    +0.473    14.712
ATOM     44  O   UNL d   1      -3.812 -10.646   8.799 -0.18 -0.07    -0.228    14.712
ATOM     45  O   UNL d   1      -1.828 -10.389   7.160 -0.19 -0.05    -0.303    14.712
ATOM     46  H   UNL d   1      -1.876 -10.346   6.184 -0.05 +0.00    +0.222    14.712
ATOM     47  O   UNL d   1      -3.757 -11.763   6.432 -0.28 -0.12    -0.303    14.712
ATOM     48  H   UNL d   1      -4.225 -12.607   6.604 +0.10 +0.12    +0.222    14.712
TER
ENDMDL
MODEL       36
USER    Run = 36
USER    Cluster Rank = 33
USER    Number of conformations in this cluster = 1
USER  
USER    RMSD from reference structure       = 18.632 A
USER  
USER    Estimated Free Energy of Binding    =   +2.37 kcal/mol  [=(1)+(2)+(3)-(4)]
USER    
USER    (1) Final Intermolecular Energy     =   -4.79 kcal/mol
USER        vdW + Hbond + desolv Energy     =   -4.00 kcal/mol
USER        Electrostatic Energy            =   -0.79 kcal/mol
USER    (2) Final Total Internal Energy     =  -13.00 kcal/mol
USER    (3) Torsional Free Energy           =   +7.16 kcal/mol
USER    (4) Unbound System's Energy  [=(2)] =  -13.00 kcal/mol
USER    
USER    
USER  
USER    DPF = D:/Protein_go_brrr/autodock/final/AncB/IHP/dock.dpf
USER    NEWDPF move	IHP_ideal_opt.pdbqt
USER    NEWDPF about	0.035000 0.082000 -0.065000
USER    NEWDPF tran0	8.523750 -15.440714 -11.614845
USER    NEWDPF axisangle0	-0.776825 0.625705 -0.070965 130.546951
USER    NEWDPF quaternion0	-0.705602 0.568337 -0.064458 0.418288
USER    NEWDPF dihe0	100.06 79.82 141.48 -24.79 6.65 -140.37 -133.74 -38.82 147.57 -69.40 177.03 148.68 143.40 172.64 -62.24 179.91 -152.86 -180.00 55.12 14.86 -175.97 7.64 2.22 179.93 
USER  
USER                              x       y       z    vdW   Elec        q     RMS 
ATOM      1  C   UNL d   1       9.413 -16.899 -11.872 -0.00 -0.02    +0.194    18.632
ATOM      2  C   UNL d   1       9.812 -15.718 -12.758 -0.01 -0.01    +0.194    18.632
ATOM      3  C   UNL d   1       8.587 -14.970 -13.290 -0.06 -0.01    +0.194    18.632
ATOM      4  C   UNL d   1       7.607 -14.564 -12.192 -0.12 -0.02    +0.194    18.632
ATOM      5  C   UNL d   1       7.269 -15.683 -11.216 -0.08 -0.05    +0.194    18.632
ATOM      6  C   UNL d   1       8.489 -16.471 -10.731 -0.03 -0.05    +0.194    18.632
ATOM      7  O   UNL d   1      10.600 -17.434 -11.281 +0.00 +0.03    -0.278    18.632
ATOM      8  P   UNL d   1      11.666 -18.149 -12.232 +0.00 -0.02    +0.473    18.632
ATOM      9  O   UNL d   1      12.684 -18.976 -11.528 +0.00 +0.01    -0.228    18.632
ATOM     10  O   UNL d   1      10.772 -18.988 -13.253 +0.00 +0.01    -0.303    18.632
ATOM     11  H   UNL d   1      10.204 -19.608 -12.757 +0.01 -0.02    +0.222    18.632
ATOM     12  O   UNL d   1      12.233 -16.991 -13.160 +0.00 -0.00    -0.303    18.632
ATOM     13  H   UNL d   1      12.298 -16.125 -12.699 +0.00 +0.00    +0.222    18.632
ATOM     14  O   UNL d   1      10.605 -14.805 -11.989 -0.00 +0.00    -0.278    18.632
ATOM     15  P   UNL d   1      11.759 -14.022 -12.777 +0.01 +0.03    +0.473    18.632
ATOM     16  O   UNL d   1      13.115 -14.009 -12.144 +0.00 -0.02    -0.228    18.632
ATOM     17  O   UNL d   1      11.760 -14.686 -14.225 -0.00 -0.01    -0.303    18.632
ATOM     18  H   UNL d   1      10.851 -14.780 -14.569 +0.02 +0.01    +0.222    18.632
ATOM     19  O   UNL d   1      11.131 -12.592 -13.081 -0.02 -0.03    -0.303    18.632
ATOM     20  H   UNL d   1      10.591 -12.601 -13.893 +0.04 +0.02    +0.222    18.632
ATOM     21  O   UNL d   1       7.995 -17.662 -10.123 -0.07 +0.16    -0.278    18.632
ATOM     22  P   UNL d   1       7.597 -18.910 -11.034 -0.08 -0.25    +0.473    18.632
ATOM     23  O   UNL d   1       7.055 -18.643 -12.397 -0.10 +0.06    -0.228    18.632
ATOM     24  O   UNL d   1       8.933 -19.774 -11.005 -0.01 +0.09    -0.303    18.632
ATOM     25  H   UNL d   1       9.667 -19.219 -11.374 +0.02 -0.04    +0.222    18.632
ATOM     26  O   UNL d   1       6.644 -19.741 -10.049 -0.14 +0.38    -0.303    18.632
ATOM     27  H   UNL d   1       6.014 -19.128  -9.617 -0.22 -0.57    +0.222    18.632
ATOM     28  O   UNL d   1       9.044 -13.749 -13.858 -0.10 +0.00    -0.278    18.632
ATOM     29  P   UNL d   1       8.821 -13.449 -15.406 -0.09 -0.01    +0.473    18.632
ATOM     30  O   UNL d   1       8.761 -12.013 -15.778 -0.14 +0.00    -0.228    18.632
ATOM     31  O   UNL d   1      10.015 -14.312 -16.032 -0.02 -0.01    -0.303    18.632
ATOM     32  H   UNL d   1      10.846 -13.786 -15.976 +0.02 +0.01    +0.222    18.632
ATOM     33  O   UNL d   1       7.538 -14.333 -15.736 -0.12 +0.03    -0.303    18.632
ATOM     34  H   UNL d   1       7.062 -14.534 -14.894 +0.05 -0.03    +0.222    18.632
ATOM     35  O   UNL d   1       6.702 -15.044 -10.074 -0.09 +0.08    -0.278    18.632
ATOM     36  P   UNL d   1       5.353 -15.597  -9.429 -0.26 -0.25    +0.473    18.632
ATOM     37  O   UNL d   1       4.141 -14.746  -9.640 -0.43 +0.03    -0.228    18.632
ATOM     38  O   UNL d   1       5.254 -17.049 -10.076 -0.29 +0.34    -0.303    18.632
ATOM     39  H   UNL d   1       5.876 -17.650  -9.613 -0.42 -0.46    +0.222    18.632
ATOM     40  O   UNL d   1       5.785 -15.878  -7.924 -0.27 +0.24    -0.303    18.632
ATOM     41  H   UNL d   1       5.805 -16.840  -7.725 -0.38 -0.43    +0.222    18.632
ATOM     42  O   UNL d   1       6.387 -14.191 -12.843 -0.26 +0.02    -0.278    18.632
ATOM     43  P   UNL d   1       5.519 -15.320 -13.560 -0.12 -0.07    +0.473    18.632
ATOM     44  O   UNL d   1       5.000 -15.024 -14.925 -0.11 +0.03    -0.228    18.632
ATOM     45  O   UNL d   1       6.474 -16.592 -13.489 -0.08 +0.04    -0.303    18.632
ATOM     46  H   UNL d   1       6.182 -17.220 -12.799 +0.05 -0.05    +0.222    18.632
ATOM     47  O   UNL d   1       4.410 -15.684 -12.462 -0.22 +0.09    -0.303    18.632
ATOM     48  H   UNL d   1       4.796 -15.578 -11.567 +0.12 -0.08    +0.222    18.632
TER
ENDMDL
MODEL       53
USER    Run = 53
USER    Cluster Rank = 34
USER    Number of conformations in this cluster = 1
USER  
USER    RMSD from reference structure       = 14.229 A
USER  
USER    Estimated Free Energy of Binding    =   +2.38 kcal/mol  [=(1)+(2)+(3)-(4)]
USER    
USER    (1) Final Intermolecular Energy     =   -4.78 kcal/mol
USER        vdW + Hbond + desolv Energy     =   -4.63 kcal/mol
USER        Electrostatic Energy            =   -0.15 kcal/mol
USER    (2) Final Total Internal Energy     =  -14.25 kcal/mol
USER    (3) Torsional Free Energy           =   +7.16 kcal/mol
USER    (4) Unbound System's Energy  [=(2)] =  -14.25 kcal/mol
USER    
USER    
USER  
USER    DPF = D:/Protein_go_brrr/autodock/final/AncB/IHP/dock.dpf
USER    NEWDPF move	IHP_ideal_opt.pdbqt
USER    NEWDPF about	0.035000 0.082000 -0.065000
USER    NEWDPF tran0	0.292496 -17.621879 -0.718639
USER    NEWDPF axisangle0	-0.978268 0.151699 0.141344 -165.160504
USER    NEWDPF quaternion0	-0.970077 0.150429 0.140161 -0.129137
USER    NEWDPF dihe0	156.11 21.48 -5.18 90.73 128.92 121.71 -95.92 53.64 64.44 120.69 126.08 165.31 -125.11 -148.50 95.11 7.05 -18.45 152.99 20.33 -62.60 -39.20 174.54 146.38 -23.33 
USER  
USER                              x       y       z    vdW   Elec        q     RMS 
ATOM      1  C   UNL d   1       1.547 -16.892  -1.657 -0.21 -0.01    +0.194    14.229
ATOM      2  C   UNL d   1       0.754 -15.941  -0.759 -0.19 +0.02    +0.194    14.229
ATOM      3  C   UNL d   1      -0.748 -16.229  -0.813 -0.20 +0.05    +0.194    14.229
ATOM      4  C   UNL d   1      -1.089 -17.693  -0.546 -0.18 +0.06    +0.194    14.229
ATOM      5  C   UNL d   1      -0.242 -18.682  -1.336 -0.12 +0.02    +0.194    14.229
ATOM      6  C   UNL d   1       1.254 -18.358  -1.333 -0.10 -0.00    +0.194    14.229
ATOM      7  O   UNL d   1       2.939 -16.674  -1.419 -0.10 +0.01    -0.278    14.229
ATOM      8  P   UNL d   1       3.765 -15.816  -2.484 -0.19 -0.04    +0.473    14.229
ATOM      9  O   UNL d   1       4.055 -16.513  -3.766 -0.23 +0.05    -0.228    14.229
ATOM     10  O   UNL d   1       2.897 -14.491  -2.671 -0.32 -0.01    -0.303    14.229
ATOM     11  H   UNL d   1       2.090 -14.550  -2.126 -0.26 +0.01    +0.222    14.229
ATOM     12  O   UNL d   1       5.029 -15.275  -1.687 -0.11 +0.02    -0.303    14.229
ATOM     13  H   UNL d   1       4.882 -15.231  -0.715 +0.07 -0.01    +0.222    14.229
ATOM     14  O   UNL d   1       1.200 -16.095   0.594 -0.09 -0.05    -0.278    14.229
ATOM     15  P   UNL d   1       2.679 -15.579   0.924 -0.03 +0.05    +0.473    14.229
ATOM     16  O   UNL d   1       3.780 -16.590   0.831 -0.02 -0.01    -0.228    14.229
ATOM     17  O   UNL d   1       2.888 -14.346  -0.063 -0.11 -0.05    -0.303    14.229
ATOM     18  H   UNL d   1       3.425 -14.603  -0.838 +0.10 +0.02    +0.222    14.229
ATOM     19  O   UNL d   1       2.540 -14.845   2.328 -0.03 -0.04    -0.303    14.229
ATOM     20  H   UNL d   1       1.841 -15.246   2.877 +0.04 +0.04    +0.222    14.229
ATOM     21  O   UNL d   1       1.848 -19.141  -2.366 -0.08 +0.04    -0.278    14.229
ATOM     22  P   UNL d   1       3.285 -19.794  -2.137 -0.02 -0.08    +0.473    14.229
ATOM     23  O   UNL d   1       3.430 -21.266  -2.330 -0.02 +0.04    -0.228    14.229
ATOM     24  O   UNL d   1       4.202 -18.903  -3.085 -0.09 +0.10    -0.303    14.229
ATOM     25  H   UNL d   1       4.175 -17.970  -2.752 +0.07 -0.05    +0.222    14.229
ATOM     26  O   UNL d   1       3.670 -19.234  -0.684 -0.00 +0.01    -0.303    14.229
ATOM     27  H   UNL d   1       3.570 -18.261  -0.678 +0.04 -0.01    +0.222    14.229
ATOM     28  O   UNL d   1      -1.363 -15.500   0.241 -0.32 -0.10    -0.278    14.229
ATOM     29  P   UNL d   1      -1.220 -15.992   1.749 -0.13 +0.21    +0.473    14.229
ATOM     30  O   UNL d   1      -0.821 -17.412   1.925 -0.04 -0.08    -0.228    14.229
ATOM     31  O   UNL d   1      -0.216 -14.880   2.312 -0.59 -0.15    -0.303    14.229
ATOM     32  H   UNL d   1       0.502 -14.743   1.651 +0.08 +0.07    +0.222    14.229
ATOM     33  O   UNL d   1      -2.617 -15.554   2.377 -0.11 -0.19    -0.303    14.229
ATOM     34  H   UNL d   1      -3.134 -16.365   2.605 +0.07 +0.19    +0.222    14.229
ATOM     35  O   UNL d   1      -0.401 -19.939  -0.680 -0.02 -0.04    -0.278    14.229
ATOM     36  P   UNL d   1       0.481 -20.295   0.600 +0.01 +0.07    +0.473    14.229
ATOM     37  O   UNL d   1       0.974 -19.124   1.390 -0.01 -0.04    -0.228    14.229
ATOM     38  O   UNL d   1      -0.490 -21.266   1.405 +0.00 -0.06    -0.303    14.229
ATOM     39  H   UNL d   1      -1.360 -21.297   0.952 +0.01 +0.06    +0.222    14.229
ATOM     40  O   UNL d   1       1.582 -21.271  -0.006 -0.00 -0.02    -0.303    14.229
ATOM     41  H   UNL d   1       2.292 -20.775  -0.471 +0.01 +0.00    +0.222    14.229
ATOM     42  O   UNL d   1      -2.448 -17.883  -0.953 -0.23 -0.16    -0.278    14.229
ATOM     43  P   UNL d   1      -3.436 -18.686   0.007 -0.08 +0.45    +0.473    14.229
ATOM     44  O   UNL d   1      -4.683 -19.237  -0.594 -0.37 -0.30    -0.228    14.229
ATOM     45  O   UNL d   1      -2.482 -19.787   0.648 -0.02 -0.15    -0.303    14.229
ATOM     46  H   UNL d   1      -1.686 -19.382   1.048 +0.03 +0.09    +0.222    14.229
ATOM     47  O   UNL d   1      -3.647 -17.682   1.238 -0.65 -0.39    -0.303    14.229
ATOM     48  H   UNL d   1      -2.954 -16.990   1.213 +0.07 +0.20    +0.222    14.229
TER
ENDMDL
MODEL       16
USER    Run = 16
USER    Cluster Rank = 35
USER    Number of conformations in this cluster = 1
USER  
USER    RMSD from reference structure       = 12.171 A
USER  
USER    Estimated Free Energy of Binding    =   +2.38 kcal/mol  [=(1)+(2)+(3)-(4)]
USER    
USER    (1) Final Intermolecular Energy     =   -4.78 kcal/mol
USER        vdW + Hbond + desolv Energy     =   -4.59 kcal/mol
USER        Electrostatic Energy            =   -0.18 kcal/mol
USER    (2) Final Total Internal Energy     =  -13.71 kcal/mol
USER    (3) Torsional Free Energy           =   +7.16 kcal/mol
USER    (4) Unbound System's Energy  [=(2)] =  -13.71 kcal/mol
USER    
USER    
USER  
USER    DPF = D:/Protein_go_brrr/autodock/final/AncB/IHP/dock.dpf
USER    NEWDPF move	IHP_ideal_opt.pdbqt
USER    NEWDPF about	0.035000 0.082000 -0.065000
USER    NEWDPF tran0	4.196530 -14.566571 1.051888
USER    NEWDPF axisangle0	-0.380227 -0.877157 0.293295 -124.588606
USER    NEWDPF quaternion0	-0.336633 -0.776589 0.259668 -0.464930
USER    NEWDPF dihe0	113.69 92.06 41.12 49.77 32.80 149.62 -118.16 -47.41 160.21 -11.11 -80.18 -74.97 -34.16 141.76 167.08 -172.04 38.14 -65.71 0.22 -19.47 -23.35 2.04 169.82 171.12 
USER  
USER                              x       y       z    vdW   Elec        q     RMS 
ATOM      1  C   UNL d   1       2.810 -14.247   2.031 -0.08 +0.02    +0.194    12.171
ATOM      2  C   UNL d   1       3.340 -15.681   2.084 -0.02 +0.01    +0.194    12.171
ATOM      3  C   UNL d   1       3.711 -16.199   0.693 -0.04 +0.01    +0.194    12.171
ATOM      4  C   UNL d   1       4.649 -15.265  -0.067 -0.09 -0.00    +0.194    12.171
ATOM      5  C   UNL d   1       4.219 -13.803  -0.047 -0.19 +0.01    +0.194    12.171
ATOM      6  C   UNL d   1       3.789 -13.303   1.333 -0.14 +0.01    +0.194    12.171
ATOM      7  O   UNL d   1       2.652 -13.781   3.373 -0.03 -0.03    -0.278    12.171
ATOM      8  P   UNL d   1       1.206 -13.284   3.839 -0.09 +0.13    +0.473    12.171
ATOM      9  O   UNL d   1       0.079 -13.724   2.973 -0.48 -0.15    -0.228    12.171
ATOM     10  O   UNL d   1       1.084 -13.804   5.342 -0.05 -0.07    -0.303    12.171
ATOM     11  H   UNL d   1       1.405 -14.723   5.397 +0.02 +0.04    +0.222    12.171
ATOM     12  O   UNL d   1       1.355 -11.715   4.041 -0.18 -0.06    -0.303    12.171
ATOM     13  H   UNL d   1       1.816 -11.272   3.293 +0.12 +0.03    +0.222    12.171
ATOM     14  O   UNL d   1       4.510 -15.716   2.911 -0.00 -0.01    -0.278    12.171
ATOM     15  P   UNL d   1       4.382 -16.505   4.299 +0.01 +0.03    +0.473    12.171
ATOM     16  O   UNL d   1       5.427 -16.223   5.332 +0.00 -0.01    -0.228    12.171
ATOM     17  O   UNL d   1       2.909 -16.166   4.803 +0.00 -0.03    -0.303    12.171
ATOM     18  H   UNL d   1       2.766 -15.201   4.847 +0.02 +0.03    +0.222    12.171
ATOM     19  O   UNL d   1       4.231 -18.031   3.875 +0.00 -0.02    -0.303    12.171
ATOM     20  H   UNL d   1       4.093 -18.127   2.914 +0.00 +0.01    +0.222    12.171
ATOM     21  O   UNL d   1       3.105 -12.068   1.129 -0.51 -0.06    -0.278    12.171
ATOM     22  P   UNL d   1       3.578 -10.762   1.914 -0.22 -0.02    +0.473    12.171
ATOM     23  O   UNL d   1       2.637  -9.607   1.992 -0.33 -0.01    -0.228    12.171
ATOM     24  O   UNL d   1       4.011 -11.367   3.321 -0.08 +0.03    -0.303    12.171
ATOM     25  H   UNL d   1       3.420 -12.137   3.520 +0.09 +0.00    +0.222    12.171
ATOM     26  O   UNL d   1       4.997 -10.467   1.229 -0.35 +0.13    -0.303    12.171
ATOM     27  H   UNL d   1       5.354 -11.299   0.857 +0.12 -0.09    +0.222    12.171
ATOM     28  O   UNL d   1       4.441 -17.407   0.867 -0.00 -0.00    -0.278    12.171
ATOM     29  P   UNL d   1       3.821 -18.797   0.396 +0.01 +0.00    +0.473    12.171
ATOM     30  O   UNL d   1       4.792 -19.909   0.234 -0.00 +0.00    -0.228    12.171
ATOM     31  O   UNL d   1       2.682 -18.983   1.505 +0.00 -0.02    -0.303    12.171
ATOM     32  H   UNL d   1       3.114 -19.115   2.380 +0.00 +0.02    +0.222    12.171
ATOM     33  O   UNL d   1       2.991 -18.372  -0.894 -0.02 +0.01    -0.303    12.171
ATOM     34  H   UNL d   1       3.238 -17.449  -1.145 +0.06 -0.01    +0.222    12.171
ATOM     35  O   UNL d   1       5.372 -13.055  -0.425 -0.22 +0.03    -0.278    12.171
ATOM     36  P   UNL d   1       6.709 -13.144   0.442 -0.15 -0.17    +0.473    12.171
ATOM     37  O   UNL d   1       7.589 -14.318   0.150 -0.07 +0.06    -0.228    12.171
ATOM     38  O   UNL d   1       7.383 -11.732   0.148 -0.21 +0.24    -0.303    12.171
ATOM     39  H   UNL d   1       7.073 -11.083   0.817 -0.37 -0.29    +0.222    12.171
ATOM     40  O   UNL d   1       6.160 -13.005   1.928 -0.07 +0.11    -0.303    12.171
ATOM     41  H   UNL d   1       5.593 -12.209   2.034 +0.08 -0.09    +0.222    12.171
ATOM     42  O   UNL d   1       4.639 -15.688  -1.434 -0.10 +0.01    -0.278    12.171
ATOM     43  P   UNL d   1       3.259 -15.680  -2.234 -0.20 -0.03    +0.473    12.171
ATOM     44  O   UNL d   1       2.002 -15.677  -1.435 -0.23 +0.00    -0.228    12.171
ATOM     45  O   UNL d   1       3.422 -14.423  -3.197 -0.30 -0.01    -0.303    12.171
ATOM     46  H   UNL d   1       2.554 -14.039  -3.433 -0.19 +0.01    +0.222    12.171
ATOM     47  O   UNL d   1       3.424 -16.900  -3.261 -0.21 +0.06    -0.303    12.171
ATOM     48  H   UNL d   1       2.898 -17.663  -2.942 +0.09 -0.05    +0.222    12.171
TER
ENDMDL
MODEL       57
USER    Run = 57
USER    Cluster Rank = 36
USER    Number of conformations in this cluster = 1
USER  
USER    RMSD from reference structure       = 18.882 A
USER  
USER    Estimated Free Energy of Binding    =   +2.39 kcal/mol  [=(1)+(2)+(3)-(4)]
USER    
USER    (1) Final Intermolecular Energy     =   -4.77 kcal/mol
USER        vdW + Hbond + desolv Energy     =   -4.78 kcal/mol
USER        Electrostatic Energy            =   +0.01 kcal/mol
USER    (2) Final Total Internal Energy     =  -12.22 kcal/mol
USER    (3) Torsional Free Energy           =   +7.16 kcal/mol
USER    (4) Unbound System's Energy  [=(2)] =  -12.22 kcal/mol
USER    
USER    
USER  
USER    DPF = D:/Protein_go_brrr/autodock/final/AncB/IHP/dock.dpf
USER    NEWDPF move	IHP_ideal_opt.pdbqt
USER    NEWDPF about	0.035000 0.082000 -0.065000
USER    NEWDPF tran0	0.354415 17.060986 13.088951
USER    NEWDPF axisangle0	0.028406 -0.813404 0.581006 -137.614612
USER    NEWDPF quaternion0	0.026485 -0.758393 0.541712 -0.361506
USER    NEWDPF dihe0	139.94 103.10 -44.60 81.75 23.55 56.70 -101.11 -20.83 42.35 81.40 -36.69 -133.15 163.93 -143.63 -52.59 19.28 -13.92 44.65 30.02 -38.24 -177.13 165.20 145.89 -20.03 
USER  
USER                              x       y       z    vdW   Elec        q     RMS 
ATOM      1  C   UNL d   1      -0.597  16.471  14.405 -0.19 -0.06    +0.194    18.882
ATOM      2  C   UNL d   1       0.862  16.011  14.386 -0.19 -0.04    +0.194    18.882
ATOM      3  C   UNL d   1       1.312  15.611  12.979 -0.26 -0.07    +0.194    18.882
ATOM      4  C   UNL d   1       1.031  16.684  11.930 -0.18 -0.07    +0.194    18.882
ATOM      5  C   UNL d   1      -0.381  17.254  11.987 -0.11 -0.07    +0.194    18.882
ATOM      6  C   UNL d   1      -0.853  17.596  13.402 -0.09 -0.05    +0.194    18.882
ATOM      7  O   UNL d   1      -0.885  16.986  15.706 -0.08 +0.08    -0.278    18.882
ATOM      8  P   UNL d   1      -1.494  15.992  16.799 -0.22 -0.23    +0.473    18.882
ATOM      9  O   UNL d   1      -2.485  16.603  17.726 -0.12 +0.14    -0.228    18.882
ATOM     10  O   UNL d   1      -2.097  14.793  15.937 -0.38 +0.30    -0.303    18.882
ATOM     11  H   UNL d   1      -2.208  15.079  15.011 -0.16 -0.20    +0.222    18.882
ATOM     12  O   UNL d   1      -0.234  15.308  17.483 -0.50 +0.02    -0.303    18.882
ATOM     13  H   UNL d   1       0.386  15.958  17.886 +0.04 -0.01    +0.222    18.882
ATOM     14  O   UNL d   1       1.695  17.084  14.844 -0.06 +0.03    -0.278    18.882
ATOM     15  P   UNL d   1       2.048  17.099  16.406 -0.05 -0.03    +0.473    18.882
ATOM     16  O   UNL d   1       1.086  17.812  17.305 -0.03 +0.02    -0.228    18.882
ATOM     17  O   UNL d   1       2.218  15.560  16.780 -0.46 -0.03    -0.303    18.882
ATOM     18  H   UNL d   1       1.830  15.366  17.655 +0.04 +0.03    +0.222    18.882
ATOM     19  O   UNL d   1       3.552  17.611  16.468 -0.01 +0.01    -0.303    18.882
ATOM     20  H   UNL d   1       3.797  18.109  15.666 +0.02 -0.01    +0.222    18.882
ATOM     21  O   UNL d   1      -2.265  17.780  13.331 -0.03 +0.08    -0.278    18.882
ATOM     22  P   UNL d   1      -3.230  16.509  13.328 -0.11 -0.20    +0.473    18.882
ATOM     23  O   UNL d   1      -2.667  15.198  12.893 -0.32 +0.11    -0.228    18.882
ATOM     24  O   UNL d   1      -3.802  16.531  14.813 -0.10 +0.23    -0.303    18.882
ATOM     25  H   UNL d   1      -3.052  16.734  15.429 +0.06 -0.14    +0.222    18.882
ATOM     26  O   UNL d   1      -4.480  17.052  12.484 -0.03 +0.07    -0.303    18.882
ATOM     27  H   UNL d   1      -5.277  17.051  13.052 +0.05 -0.06    +0.222    18.882
ATOM     28  O   UNL d   1       2.727  15.471  13.005 -0.22 +0.08    -0.278    18.882
ATOM     29  P   UNL d   1       3.665  16.745  12.825 -0.06 -0.09    +0.473    18.882
ATOM     30  O   UNL d   1       2.968  18.011  12.480 -0.03 +0.04    -0.228    18.882
ATOM     31  O   UNL d   1       4.458  16.707  14.214 -0.02 +0.03    -0.303    18.882
ATOM     32  H   UNL d   1       3.805  16.614  14.946 +0.04 -0.02    +0.222    18.882
ATOM     33  O   UNL d   1       4.750  16.216  11.786 -0.08 +0.07    -0.303    18.882
ATOM     34  H   UNL d   1       4.303  15.638  11.121 -0.34 -0.10    +0.222    18.882
ATOM     35  O   UNL d   1      -0.335  18.475  11.252 -0.04 +0.06    -0.278    18.882
ATOM     36  P   UNL d   1       0.161  19.819  11.955 +0.01 -0.07    +0.473    18.882
ATOM     37  O   UNL d   1       1.173  19.642  13.042 -0.01 +0.03    -0.228    18.882
ATOM     38  O   UNL d   1       0.679  20.665  10.709 -0.00 +0.04    -0.303    18.882
ATOM     39  H   UNL d   1       0.972  20.051  10.003 +0.01 -0.03    +0.222    18.882
ATOM     40  O   UNL d   1      -1.210  20.521  12.351 -0.00 +0.04    -0.303    18.882
ATOM     41  H   UNL d   1      -1.870  19.872  12.680 +0.01 -0.03    +0.222    18.882
ATOM     42  O   UNL d   1       1.182  16.062  10.649 -0.13 +0.16    -0.278    18.882
ATOM     43  P   UNL d   1       2.076  16.783   9.542 -0.11 -0.18    +0.473    18.882
ATOM     44  O   UNL d   1       3.525  16.440   9.500 -0.14 +0.09    -0.228    18.882
ATOM     45  O   UNL d   1       1.292  16.460   8.196 -0.25 +0.13    -0.303    18.882
ATOM     46  H   UNL d   1       1.785  15.827   7.637 +0.06 -0.11    +0.222    18.882
ATOM     47  O   UNL d   1       1.739  18.335   9.752 -0.03 +0.07    -0.303    18.882
ATOM     48  H   UNL d   1       1.766  18.545  10.709 +0.04 -0.05    +0.222    18.882
TER
ENDMDL
MODEL       18
USER    Run = 18
USER    Cluster Rank = 37
USER    Number of conformations in this cluster = 1
USER  
USER    RMSD from reference structure       = 18.128 A
USER  
USER    Estimated Free Energy of Binding    =   +2.40 kcal/mol  [=(1)+(2)+(3)-(4)]
USER    
USER    (1) Final Intermolecular Energy     =   -4.76 kcal/mol
USER        vdW + Hbond + desolv Energy     =   -4.34 kcal/mol
USER        Electrostatic Energy            =   -0.42 kcal/mol
USER    (2) Final Total Internal Energy     =  -13.82 kcal/mol
USER    (3) Torsional Free Energy           =   +7.16 kcal/mol
USER    (4) Unbound System's Energy  [=(2)] =  -13.82 kcal/mol
USER    
USER    
USER  
USER    DPF = D:/Protein_go_brrr/autodock/final/AncB/IHP/dock.dpf
USER    NEWDPF move	IHP_ideal_opt.pdbqt
USER    NEWDPF about	0.035000 0.082000 -0.065000
USER    NEWDPF tran0	-20.786361 -4.926882 6.420973
USER    NEWDPF axisangle0	0.254560 -0.304130 0.917989 -170.356372
USER    NEWDPF quaternion0	0.253659 -0.303054 0.914740 -0.084057
USER    NEWDPF dihe0	119.32 95.45 72.80 -179.71 16.65 75.98 -68.02 7.42 158.50 -29.42 -167.71 149.53 -80.91 64.15 179.85 165.05 95.16 179.31 -146.97 -11.04 15.73 -16.16 -50.64 34.29 
USER  
USER                              x       y       z    vdW   Elec        q     RMS 
ATOM      1  C   UNL d   1     -21.261  -4.687   8.065 -0.00 +0.02    +0.194    18.128
ATOM      2  C   UNL d   1     -20.096  -3.822   7.580 -0.03 +0.03    +0.194    18.128
ATOM      3  C   UNL d   1     -19.102  -4.628   6.742 -0.09 +0.00    +0.194    18.128
ATOM      4  C   UNL d   1     -19.762  -5.399   5.601 -0.05 -0.00    +0.194    18.128
ATOM      5  C   UNL d   1     -20.998  -6.186   6.018 -0.01 +0.01    +0.194    18.128
ATOM      6  C   UNL d   1     -21.963  -5.398   6.907 +0.01 +0.01    +0.194    18.128
ATOM      7  O   UNL d   1     -22.223  -3.832   8.686 +0.00 -0.03    -0.278    18.128
ATOM      8  P   UNL d   1     -23.385  -3.213   7.781 +0.01 +0.04    +0.473    18.128
ATOM      9  O   UNL d   1     -23.027  -3.000   6.352 +0.00 -0.02    -0.228    18.128
ATOM     10  O   UNL d   1     -24.607  -4.221   7.979 +0.00 -0.02    -0.303    18.128
ATOM     11  H   UNL d   1     -24.272  -5.136   8.015 +0.00 +0.02    +0.222    18.128
ATOM     12  O   UNL d   1     -23.884  -1.928   8.571 +0.00 -0.02    -0.303    18.128
ATOM     13  H   UNL d   1     -23.148  -1.333   8.842 +0.00 +0.02    +0.222    18.128
ATOM     14  O   UNL d   1     -20.611  -2.754   6.775 -0.00 -0.03    -0.278    18.128
ATOM     15  P   UNL d   1     -20.299  -1.265   7.275 +0.01 +0.05    +0.473    18.128
ATOM     16  O   UNL d   1     -19.517  -0.393   6.343 -0.03 -0.02    -0.228    18.128
ATOM     17  O   UNL d   1     -21.732  -0.665   7.625 +0.00 -0.03    -0.303    18.128
ATOM     18  H   UNL d   1     -22.438  -1.138   7.145 +0.00 +0.02    +0.222    18.128
ATOM     19  O   UNL d   1     -19.670  -1.457   8.724 -0.01 -0.05    -0.303    18.128
ATOM     20  H   UNL d   1     -18.770  -1.088   8.778 +0.05 +0.04    +0.222    18.128
ATOM     21  O   UNL d   1     -22.860  -6.346   7.482 +0.00 -0.02    -0.278    18.128
ATOM     22  P   UNL d   1     -24.178  -6.771   6.689 +0.00 +0.04    +0.473    18.128
ATOM     23  O   UNL d   1     -25.379  -7.167   7.479 +0.00 -0.02    -0.228    18.128
ATOM     24  O   UNL d   1     -24.394  -5.522   5.726 +0.00 -0.02    -0.303    18.128
ATOM     25  H   UNL d   1     -24.340  -4.698   6.273 +0.00 +0.02    +0.222    18.128
ATOM     26  O   UNL d   1     -23.606  -7.874   5.676 +0.00 -0.02    -0.303    18.128
ATOM     27  H   UNL d   1     -23.448  -7.460   4.804 +0.00 +0.02    +0.222    18.128
ATOM     28  O   UNL d   1     -18.223  -3.704   6.113 -0.12 -0.01    -0.278    18.128
ATOM     29  P   UNL d   1     -16.827  -3.336   6.786 -0.29 +0.07    +0.473    18.128
ATOM     30  O   UNL d   1     -15.676  -3.221   5.853 -0.71 -0.04    -0.228    18.128
ATOM     31  O   UNL d   1     -17.244  -2.016   7.590 -0.12 -0.06    -0.303    18.128
ATOM     32  H   UNL d   1     -18.102  -1.690   7.234 +0.08 +0.03    +0.222    18.128
ATOM     33  O   UNL d   1     -16.713  -4.429   7.939 -0.68 -0.17    -0.303    18.128
ATOM     34  H   UNL d   1     -16.618  -5.322   7.526 -0.23 -0.13    +0.222    18.128
ATOM     35  O   UNL d   1     -21.692  -6.486   4.809 +0.00 -0.02    -0.278    18.128
ATOM     36  P   UNL d   1     -21.215  -7.697   3.887 +0.02 +0.04    +0.473    18.128
ATOM     37  O   UNL d   1     -22.310  -8.524   3.291 -0.00 -0.02    -0.228    18.128
ATOM     38  O   UNL d   1     -20.301  -6.952   2.817 -0.02 -0.03    -0.303    18.128
ATOM     39  H   UNL d   1     -19.382  -6.904   3.158 +0.07 +0.02    +0.222    18.128
ATOM     40  O   UNL d   1     -20.173  -8.448   4.825 -0.02 -0.01    -0.303    18.128
ATOM     41  H   UNL d   1     -19.345  -7.929   4.937 +0.06 -0.00    +0.222    18.128
ATOM     42  O   UNL d   1     -18.799  -6.346   5.129 -0.12 +0.02    -0.278    18.128
ATOM     43  P   UNL d   1     -17.606  -5.836   4.202 -0.27 +0.03    +0.473    18.128
ATOM     44  O   UNL d   1     -17.284  -6.642   2.991 -0.37 -0.05    -0.228    18.128
ATOM     45  O   UNL d   1     -18.023  -4.333   3.891 -0.19 +0.03    -0.303    18.128
ATOM     46  H   UNL d   1     -17.354  -3.700   4.219 -0.37 -0.06    +0.222    18.128
ATOM     47  O   UNL d   1     -16.399  -5.632   5.237 -0.95 -0.04    -0.303    18.128
ATOM     48  H   UNL d   1     -16.763  -5.369   6.108 -0.02 -0.05    +0.222    18.128
TER
ENDMDL
MODEL       41
USER    Run = 41
USER    Cluster Rank = 38
USER    Number of conformations in this cluster = 1
USER  
USER    RMSD from reference structure       = 16.115 A
USER  
USER    Estimated Free Energy of Binding    =   +2.43 kcal/mol  [=(1)+(2)+(3)-(4)]
USER    
USER    (1) Final Intermolecular Energy     =   -4.73 kcal/mol
USER        vdW + Hbond + desolv Energy     =   -4.42 kcal/mol
USER        Electrostatic Energy            =   -0.32 kcal/mol
USER    (2) Final Total Internal Energy     =  -13.15 kcal/mol
USER    (3) Torsional Free Energy           =   +7.16 kcal/mol
USER    (4) Unbound System's Energy  [=(2)] =  -13.15 kcal/mol
USER    
USER    
USER  
USER    DPF = D:/Protein_go_brrr/autodock/final/AncB/IHP/dock.dpf
USER    NEWDPF move	IHP_ideal_opt.pdbqt
USER    NEWDPF about	0.035000 0.082000 -0.065000
USER    NEWDPF tran0	-15.248743 -7.204490 -9.344389
USER    NEWDPF axisangle0	0.204220 0.534650 -0.820026 91.886496
USER    NEWDPF quaternion0	0.146763 0.384227 -0.589313 0.695371
USER    NEWDPF dihe0	-148.66 18.67 1.50 26.34 135.67 73.40 -146.27 70.97 94.35 110.66 -27.78 -81.62 -150.07 168.42 45.79 -142.58 84.09 170.01 41.46 -16.74 -177.74 -32.95 9.78 -31.96 
USER  
USER                              x       y       z    vdW   Elec        q     RMS 
ATOM      1  C   UNL d   1     -15.168  -6.466  -7.785 -0.03 +0.06    +0.194    16.115
ATOM      2  C   UNL d   1     -14.351  -7.749  -7.952 -0.10 +0.08    +0.194    16.115
ATOM      3  C   UNL d   1     -15.132  -8.822  -8.713 -0.08 +0.12    +0.194    16.115
ATOM      4  C   UNL d   1     -15.703  -8.325 -10.038 -0.07 +0.18    +0.194    16.115
ATOM      5  C   UNL d   1     -16.428  -6.989  -9.939 -0.03 +0.12    +0.194    16.115
ATOM      6  C   UNL d   1     -15.675  -5.934  -9.126 -0.02 +0.08    +0.194    16.115
ATOM      7  O   UNL d   1     -14.316  -5.464  -7.224 -0.04 -0.06    -0.278    16.115
ATOM      8  P   UNL d   1     -14.067  -5.476  -5.646 -0.11 +0.04    +0.473    16.115
ATOM      9  O   UNL d   1     -14.904  -4.522  -4.869 -0.19 +0.02    -0.228    16.115
ATOM     10  O   UNL d   1     -14.298  -6.998  -5.229 -0.20 -0.04    -0.303    16.115
ATOM     11  H   UNL d   1     -13.736  -7.576  -5.779 +0.08 +0.03    +0.222    16.115
ATOM     12  O   UNL d   1     -12.495  -5.319  -5.475 -0.10 -0.01    -0.303    16.115
ATOM     13  H   UNL d   1     -11.987  -5.655  -6.247 -0.37 -0.02    +0.222    16.115
ATOM     14  O   UNL d   1     -13.156  -7.449  -8.683 -0.14 -0.17    -0.278    16.115
ATOM     15  P   UNL d   1     -11.772  -7.627  -7.897 -0.25 +0.17    +0.473    16.115
ATOM     16  O   UNL d   1     -10.757  -6.542  -8.069 -0.31 -0.06    -0.228    16.115
ATOM     17  O   UNL d   1     -12.212  -7.826  -6.379 -0.10 +0.00    -0.303    16.115
ATOM     18  H   UNL d   1     -12.202  -6.977  -5.896 -0.36 -0.02    +0.222    16.115
ATOM     19  O   UNL d   1     -11.283  -9.091  -8.281 -0.68 -0.19    -0.303    16.115
ATOM     20  H   UNL d   1     -12.034  -9.701  -8.408 +0.07 +0.13    +0.222    16.115
ATOM     21  O   UNL d   1     -16.606  -4.893  -8.838 +0.00 -0.07    -0.278    16.115
ATOM     22  P   UNL d   1     -17.650  -5.072  -7.645 +0.02 +0.08    +0.473    16.115
ATOM     23  O   UNL d   1     -17.156  -4.917  -6.247 -0.02 -0.02    -0.228    16.115
ATOM     24  O   UNL d   1     -18.800  -4.054  -8.064 +0.00 -0.04    -0.303    16.115
ATOM     25  H   UNL d   1     -19.257  -4.418  -8.865 +0.00 +0.04    +0.222    16.115
ATOM     26  O   UNL d   1     -18.314  -6.487  -8.004 +0.00 -0.07    -0.303    16.115
ATOM     27  H   UNL d   1     -19.182  -6.336  -8.430 +0.00 +0.05    +0.222    16.115
ATOM     28  O   UNL d   1     -14.216  -9.853  -9.059 -0.11 -0.21    -0.278    16.115
ATOM     29  P   UNL d   1     -13.748 -10.914  -7.968 -0.11 +0.20    +0.473    16.115
ATOM     30  O   UNL d   1     -12.602 -11.774  -8.360 -0.18 -0.11    -0.228    16.115
ATOM     31  O   UNL d   1     -13.533  -9.946  -6.712 -0.16 -0.06    -0.303    16.115
ATOM     32  H   UNL d   1     -12.584  -9.684  -6.676 -0.33 +0.00    +0.222    16.115
ATOM     33  O   UNL d   1     -15.113 -11.653  -7.613 -0.03 -0.11    -0.303    16.115
ATOM     34  H   UNL d   1     -14.973 -12.630  -7.666 +0.04 +0.07    +0.222    16.115
ATOM     35  O   UNL d   1     -16.523  -6.500 -11.276 -0.05 -0.20    -0.278    16.115
ATOM     36  P   UNL d   1     -17.851  -5.771 -11.774 +0.01 +0.19    +0.473    16.115
ATOM     37  O   UNL d   1     -17.651  -4.437 -12.420 +0.00 -0.08    -0.228    16.115
ATOM     38  O   UNL d   1     -18.489  -6.873 -12.730 +0.00 -0.12    -0.303    16.115
ATOM     39  H   UNL d   1     -18.160  -7.759 -12.464 +0.01 +0.11    +0.222    16.115
ATOM     40  O   UNL d   1     -18.769  -5.813 -10.475 +0.00 -0.09    -0.303    16.115
ATOM     41  H   UNL d   1     -18.424  -5.227  -9.766 +0.00 +0.06    +0.222    16.115
ATOM     42  O   UNL d   1     -16.665  -9.295 -10.466 -0.04 -0.21    -0.278    16.115
ATOM     43  P   UNL d   1     -16.791  -9.623 -12.022 -0.03 +0.48    +0.473    16.115
ATOM     44  O   UNL d   1     -18.151  -9.916 -12.554 -0.01 -0.12    -0.228    16.115
ATOM     45  O   UNL d   1     -16.083  -8.370 -12.700 +0.03 -0.56    -0.303    16.115
ATOM     46  H   UNL d   1     -16.738  -7.726 -13.035 +0.01 +0.23    +0.222    16.115
ATOM     47  O   UNL d   1     -15.699 -10.775 -12.243 -0.43 -0.41    -0.303    16.115
ATOM     48  H   UNL d   1     -16.141 -11.648 -12.217 +0.01 +0.17    +0.222    16.115
TER
ENDMDL
MODEL       32
USER    Run = 32
USER    Cluster Rank = 39
USER    Number of conformations in this cluster = 1
USER  
USER    RMSD from reference structure       = 17.443 A
USER  
USER    Estimated Free Energy of Binding    =   +2.60 kcal/mol  [=(1)+(2)+(3)-(4)]
USER    
USER    (1) Final Intermolecular Energy     =   -4.56 kcal/mol
USER        vdW + Hbond + desolv Energy     =   -4.43 kcal/mol
USER        Electrostatic Energy            =   -0.12 kcal/mol
USER    (2) Final Total Internal Energy     =  -13.91 kcal/mol
USER    (3) Torsional Free Energy           =   +7.16 kcal/mol
USER    (4) Unbound System's Energy  [=(2)] =  -13.91 kcal/mol
USER    
USER    
USER  
USER    DPF = D:/Protein_go_brrr/autodock/final/AncB/IHP/dock.dpf
USER    NEWDPF move	IHP_ideal_opt.pdbqt
USER    NEWDPF about	0.035000 0.082000 -0.065000
USER    NEWDPF tran0	7.499237 -6.770617 -17.040894
USER    NEWDPF axisangle0	-0.232596 0.604152 -0.762168 87.922755
USER    NEWDPF quaternion0	-0.161462 0.419386 -0.529076 0.719808
USER    NEWDPF dihe0	96.42 82.72 112.86 -1.92 15.21 -170.08 -13.57 -119.92 76.58 87.94 96.62 117.97 137.85 166.09 164.19 74.04 128.11 37.05 38.91 3.51 -19.80 -7.42 -8.18 -16.78 
USER  
USER                              x       y       z    vdW   Elec        q     RMS 
ATOM      1  C   UNL d   1       8.064  -6.865 -15.411 -0.25 +0.01    +0.194    17.443
ATOM      2  C   UNL d   1       8.835  -7.709 -16.428 -0.13 +0.02    +0.194    17.443
ATOM      3  C   UNL d   1       7.894  -8.428 -17.397 -0.03 +0.01    +0.194    17.443
ATOM      4  C   UNL d   1       6.890  -7.493 -18.066 -0.13 +0.01    +0.194    17.443
ATOM      5  C   UNL d   1       6.180  -6.552 -17.101 -0.22 -0.00    +0.194    17.443
ATOM      6  C   UNL d   1       7.114  -5.880 -16.092 -0.22 +0.01    +0.194    17.443
ATOM      7  O   UNL d   1       9.009  -6.098 -14.661 -0.18 -0.03    -0.278    17.443
ATOM      8  P   UNL d   1       9.726  -6.787 -13.412 -0.23 +0.11    +0.473    17.443
ATOM      9  O   UNL d   1      10.522  -5.868 -12.554 -0.35 -0.11    -0.228    17.443
ATOM     10  O   UNL d   1       8.534  -7.503 -12.628 -0.27 +0.01    -0.303    17.443
ATOM     11  H   UNL d   1       7.890  -6.833 -12.332 -0.43 -0.05    +0.222    17.443
ATOM     12  O   UNL d   1      10.515  -8.026 -14.020 -0.11 -0.07    -0.303    17.443
ATOM     13  H   UNL d   1      10.910  -7.836 -14.900 +0.07 +0.05    +0.222    17.443
ATOM     14  O   UNL d   1       9.702  -6.854 -17.183 -0.02 -0.04    -0.278    17.443
ATOM     15  P   UNL d   1      11.199  -7.373 -17.411 +0.01 +0.07    +0.473    17.443
ATOM     16  O   UNL d   1      12.290  -6.358 -17.277 -0.01 -0.04    -0.228    17.443
ATOM     17  O   UNL d   1      11.351  -8.582 -16.384 -0.01 -0.05    -0.303    17.443
ATOM     18  H   UNL d   1      10.478  -8.893 -16.076 +0.05 +0.03    +0.222    17.443
ATOM     19  O   UNL d   1      11.145  -8.142 -18.803 -0.00 -0.04    -0.303    17.443
ATOM     20  H   UNL d   1      10.537  -8.903 -18.771 +0.01 +0.02    +0.222    17.443
ATOM     21  O   UNL d   1       6.287  -5.324 -15.072 -0.27 -0.00    -0.278    17.443
ATOM     22  P   UNL d   1       6.357  -3.761 -14.760 -0.25 +0.05    +0.473    17.443
ATOM     23  O   UNL d   1       5.739  -3.266 -13.496 -0.42 -0.03    -0.228    17.443
ATOM     24  O   UNL d   1       7.915  -3.470 -14.900 -0.25 -0.04    -0.303    17.443
ATOM     25  H   UNL d   1       8.403  -4.132 -14.347 +0.12 +0.03    +0.222    17.443
ATOM     26  O   UNL d   1       5.780  -3.132 -16.118 -0.11 -0.05    -0.303    17.443
ATOM     27  H   UNL d   1       5.324  -3.832 -16.628 +0.08 +0.03    +0.222    17.443
ATOM     28  O   UNL d   1       8.686  -8.951 -18.455 -0.05 -0.03    -0.278    17.443
ATOM     29  P   UNL d   1       9.041 -10.503 -18.505 -0.05 +0.04    +0.473    17.443
ATOM     30  O   UNL d   1       7.897 -11.428 -18.301 -0.12 -0.01    -0.228    17.443
ATOM     31  O   UNL d   1       9.790 -10.573 -19.917 -0.01 -0.03    -0.303    17.443
ATOM     32  H   UNL d   1      10.334  -9.759 -20.025 +0.01 +0.02    +0.222    17.443
ATOM     33  O   UNL d   1      10.243 -10.603 -17.464 -0.04 -0.03    -0.303    17.443
ATOM     34  H   UNL d   1      10.988 -10.035 -17.778 +0.02 +0.02    +0.222    17.443
ATOM     35  O   UNL d   1       5.622  -5.518 -17.909 -0.09 -0.02    -0.278    17.443
ATOM     36  P   UNL d   1       4.053  -5.230 -17.877 -0.10 +0.04    +0.473    17.443
ATOM     37  O   UNL d   1       3.604  -4.016 -18.627 -0.06 -0.05    -0.228    17.443
ATOM     38  O   UNL d   1       3.459  -6.599 -18.433 -0.05 +0.02    -0.303    17.443
ATOM     39  H   UNL d   1       4.189  -7.248 -18.534 -0.26 -0.03    +0.222    17.443
ATOM     40  O   UNL d   1       3.731  -5.278 -16.320 +0.01 -0.02    -0.303    17.443
ATOM     41  H   UNL d   1       4.383  -4.761 -15.797 +0.07 +0.03    +0.222    17.443
ATOM     42  O   UNL d   1       5.886  -8.320 -18.662 -0.14 -0.01    -0.278    17.443
ATOM     43  P   UNL d   1       5.523  -8.106 -20.201 -0.03 +0.04    +0.473    17.443
ATOM     44  O   UNL d   1       6.398  -8.763 -21.211 -0.01 -0.02    -0.228    17.443
ATOM     45  O   UNL d   1       3.999  -8.559 -20.267 -0.06 -0.03    -0.303    17.443
ATOM     46  H   UNL d   1       3.566  -8.488 -19.392 +0.03 +0.01    +0.222    17.443
ATOM     47  O   UNL d   1       5.395  -6.513 -20.328 -0.02 -0.04    -0.303    17.443
ATOM     48  H   UNL d   1       4.657  -6.203 -19.764 +0.04 +0.03    +0.222    17.443
TER
ENDMDL
MODEL       77
USER    Run = 77
USER    Cluster Rank = 40
USER    Number of conformations in this cluster = 1
USER  
USER    RMSD from reference structure       = 21.742 A
USER  
USER    Estimated Free Energy of Binding    =   +2.68 kcal/mol  [=(1)+(2)+(3)-(4)]
USER    
USER    (1) Final Intermolecular Energy     =   -4.48 kcal/mol
USER        vdW + Hbond + desolv Energy     =   -3.19 kcal/mol
USER        Electrostatic Energy            =   -1.29 kcal/mol
USER    (2) Final Total Internal Energy     =  -11.95 kcal/mol
USER    (3) Torsional Free Energy           =   +7.16 kcal/mol
USER    (4) Unbound System's Energy  [=(2)] =  -11.95 kcal/mol
USER    
USER    
USER  
USER    DPF = D:/Protein_go_brrr/autodock/final/AncB/IHP/dock.dpf
USER    NEWDPF move	IHP_ideal_opt.pdbqt
USER    NEWDPF about	0.035000 0.082000 -0.065000
USER    NEWDPF tran0	-5.651197 -19.831614 -16.075469
USER    NEWDPF axisangle0	0.455419 -0.180944 0.871695 -179.600952
USER    NEWDPF quaternion0	0.455416 -0.180943 0.871690 -0.003482
USER    NEWDPF dihe0	-89.22 5.45 180.00 145.73 -12.79 -60.83 11.21 -124.72 74.14 -178.15 149.70 125.35 -179.93 43.59 -68.04 120.81 -94.27 -141.83 64.79 20.64 -160.32 -8.36 171.15 9.34 
USER  
USER                              x       y       z    vdW   Elec        q     RMS 
ATOM      1  C   UNL d   1      -5.606 -19.453 -14.391 -0.01 -0.04    +0.194    21.742
ATOM      2  C   UNL d   1      -5.030 -18.386 -15.324 -0.05 -0.10    +0.194    21.742
ATOM      3  C   UNL d   1      -4.160 -19.002 -16.421 -0.02 -0.07    +0.194    21.742
ATOM      4  C   UNL d   1      -4.861 -20.122 -17.187 +0.00 -0.02    +0.194    21.742
ATOM      5  C   UNL d   1      -5.548 -21.148 -16.295 +0.00 -0.01    +0.194    21.742
ATOM      6  C   UNL d   1      -6.369 -20.532 -15.160 +0.01 -0.01    +0.194    21.742
ATOM      7  O   UNL d   1      -6.536 -18.820 -13.509 -0.01 +0.03    -0.278    21.742
ATOM      8  P   UNL d   1      -6.017 -17.617 -12.594 -0.11 -0.12    +0.473    21.742
ATOM      9  O   UNL d   1      -6.323 -17.750 -11.144 -0.70 -0.19    -0.228    21.742
ATOM     10  O   UNL d   1      -4.453 -17.544 -12.902 -0.06 +0.34    -0.303    21.742
ATOM     11  H   UNL d   1      -4.250 -16.711 -13.367 -0.51 -0.50    +0.222    21.742
ATOM     12  O   UNL d   1      -6.557 -16.299 -13.299 -0.14 +0.28    -0.303    21.742
ATOM     13  H   UNL d   1      -6.501 -16.337 -14.280 +0.03 -0.25    +0.222    21.742
ATOM     14  O   UNL d   1      -6.110 -17.675 -15.943 -0.03 +0.13    -0.278    21.742
ATOM     15  P   UNL d   1      -5.816 -16.163 -16.378 -0.07 -0.43    +0.473    21.742
ATOM     16  O   UNL d   1      -5.486 -15.930 -17.819 -0.04 +0.11    -0.228    21.742
ATOM     17  O   UNL d   1      -7.110 -15.364 -15.904 -0.04 +0.35    -0.303    21.742
ATOM     18  H   UNL d   1      -7.042 -15.110 -14.964 -0.30 -0.48    +0.222    21.742
ATOM     19  O   UNL d   1      -4.727 -15.655 -15.335 -0.03 +0.66    -0.303    21.742
ATOM     20  H   UNL d   1      -3.823 -15.882 -15.619 -0.51 -0.60    +0.222    21.742
ATOM     21  O   UNL d   1      -6.651 -21.582 -14.238 +0.00 -0.01    -0.278    21.742
ATOM     22  P   UNL d   1      -5.738 -21.765 -12.943 +0.01 +0.03    +0.473    21.742
ATOM     23  O   UNL d   1      -4.272 -21.527 -13.074 -0.00 +0.01    -0.228    21.742
ATOM     24  O   UNL d   1      -6.475 -20.826 -11.890 +0.00 -0.07    -0.303    21.742
ATOM     25  H   UNL d   1      -6.218 -19.888 -12.080 +0.03 +0.04    +0.222    21.742
ATOM     26  O   UNL d   1      -6.171 -23.226 -12.443 +0.00 -0.03    -0.303    21.742
ATOM     27  H   UNL d   1      -5.374 -23.788 -12.363 +0.00 +0.02    +0.222    21.742
ATOM     28  O   UNL d   1      -3.904 -17.989 -17.385 -0.02 +0.12    -0.278    21.742
ATOM     29  P   UNL d   1      -2.497 -17.243 -17.414 -0.04 -0.29    +0.473    21.742
ATOM     30  O   UNL d   1      -1.495 -17.802 -18.358 -0.02 +0.06    -0.228    21.742
ATOM     31  O   UNL d   1      -2.982 -15.741 -17.676 -0.08 +0.26    -0.303    21.742
ATOM     32  H   UNL d   1      -3.533 -15.451 -16.912 -0.31 -0.34    +0.222    21.742
ATOM     33  O   UNL d   1      -2.099 -17.220 -15.873 -0.01 +0.41    -0.303    21.742
ATOM     34  H   UNL d   1      -2.742 -16.650 -15.383 -0.21 -0.57    +0.222    21.742
ATOM     35  O   UNL d   1      -6.459 -21.847 -17.140 +0.00 -0.00    -0.278    21.742
ATOM     36  P   UNL d   1      -7.600 -21.054 -17.924 +0.00 +0.01    +0.473    21.742
ATOM     37  O   UNL d   1      -8.421 -20.118 -17.095 +0.00 -0.00    -0.228    21.742
ATOM     38  O   UNL d   1      -6.767 -20.344 -19.081 +0.00 -0.00    -0.303    21.742
ATOM     39  H   UNL d   1      -5.832 -20.636 -19.029 +0.00 -0.00    +0.222    21.742
ATOM     40  O   UNL d   1      -8.374 -22.224 -18.673 +0.00 -0.02    -0.303    21.742
ATOM     41  H   UNL d   1      -9.347 -22.080 -18.666 +0.00 +0.01    +0.222    21.742
ATOM     42  O   UNL d   1      -3.850 -20.815 -17.925 +0.00 +0.02    -0.278    21.742
ATOM     43  P   UNL d   1      -3.695 -20.521 -19.485 +0.00 -0.01    +0.473    21.742
ATOM     44  O   UNL d   1      -4.378 -21.449 -20.430 +0.00 -0.00    -0.228    21.742
ATOM     45  O   UNL d   1      -4.170 -19.007 -19.604 +0.00 +0.02    -0.303    21.742
ATOM     46  H   UNL d   1      -3.479 -18.389 -19.289 +0.01 -0.03    +0.222    21.742
ATOM     47  O   UNL d   1      -2.110 -20.381 -19.677 +0.00 +0.01    -0.303    21.742
ATOM     48  H   UNL d   1      -1.771 -19.691 -19.069 +0.01 -0.02    +0.222    21.742
TER
ENDMDL
MODEL       47
USER    Run = 47
USER    Cluster Rank = 41
USER    Number of conformations in this cluster = 1
USER  
USER    RMSD from reference structure       = 17.093 A
USER  
USER    Estimated Free Energy of Binding    =   +2.72 kcal/mol  [=(1)+(2)+(3)-(4)]
USER    
USER    (1) Final Intermolecular Energy     =   -4.44 kcal/mol
USER        vdW + Hbond + desolv Energy     =   -4.43 kcal/mol
USER        Electrostatic Energy            =   -0.01 kcal/mol
USER    (2) Final Total Internal Energy     =  -16.02 kcal/mol
USER    (3) Torsional Free Energy           =   +7.16 kcal/mol
USER    (4) Unbound System's Energy  [=(2)] =  -16.02 kcal/mol
USER    
USER    
USER  
USER    DPF = D:/Protein_go_brrr/autodock/final/AncB/IHP/dock.dpf
USER    NEWDPF move	IHP_ideal_opt.pdbqt
USER    NEWDPF about	0.035000 0.082000 -0.065000
USER    NEWDPF tran0	16.207786 0.201126 -11.456158
USER    NEWDPF axisangle0	-0.625034 0.776352 0.081302 72.313032
USER    NEWDPF quaternion0	-0.368766 0.458042 0.047967 0.807408
USER    NEWDPF dihe0	-143.35 -25.29 -180.00 -23.64 3.91 164.30 -32.69 -86.54 -17.03 67.68 51.12 172.12 47.34 171.08 -173.05 -45.34 -7.80 152.71 -7.81 19.12 -30.61 7.67 167.04 -7.60 
USER  
USER                              x       y       z    vdW   Elec        q     RMS 
ATOM      1  C   UNL d   1      16.547  -1.398 -10.898 -0.20 +0.07    +0.194    17.093
ATOM      2  C   UNL d   1      16.324  -1.258 -12.404 -0.13 +0.06    +0.194    17.093
ATOM      3  C   UNL d   1      15.139  -0.342 -12.719 -0.14 +0.06    +0.194    17.093
ATOM      4  C   UNL d   1      15.224   1.013 -12.019 -0.25 +0.07    +0.194    17.093
ATOM      5  C   UNL d   1      15.559   0.925 -10.536 -0.30 +0.09    +0.194    17.093
ATOM      6  C   UNL d   1      16.704  -0.038 -10.215 -0.26 +0.07    +0.194    17.093
ATOM      7  O   UNL d   1      17.764  -2.120 -10.692 -0.05 -0.08    -0.278    17.093
ATOM      8  P   UNL d   1      17.749  -3.362  -9.687 -0.07 +0.16    +0.473    17.093
ATOM      9  O   UNL d   1      17.635  -4.697 -10.335 -0.06 -0.08    -0.228    17.093
ATOM     10  O   UNL d   1      19.088  -3.188  -8.838 -0.03 -0.08    -0.303    17.093
ATOM     11  H   UNL d   1      19.076  -2.326  -8.381 +0.06 +0.06    +0.222    17.093
ATOM     12  O   UNL d   1      16.628  -3.013  -8.616 -0.14 -0.14    -0.303    17.093
ATOM     13  H   UNL d   1      16.887  -2.280  -8.012 +0.12 +0.10    +0.222    17.093
ATOM     14  O   UNL d   1      17.502  -0.701 -13.001 -0.02 -0.07    -0.278    17.093
ATOM     15  P   UNL d   1      17.799  -1.115 -14.519 +0.00 +0.10    +0.473    17.093
ATOM     16  O   UNL d   1      19.200  -1.534 -14.840 -0.00 -0.04    -0.228    17.093
ATOM     17  O   UNL d   1      16.729  -2.254 -14.827 -0.02 -0.07    -0.303    17.093
ATOM     18  H   UNL d   1      15.873  -1.869 -15.096 +0.04 +0.05    +0.222    17.093
ATOM     19  O   UNL d   1      17.232   0.097 -15.379 -0.01 -0.07    -0.303    17.093
ATOM     20  H   UNL d   1      16.272   0.013 -15.532 +0.03 +0.05    +0.222    17.093
ATOM     21  O   UNL d   1      16.667  -0.269  -8.809 -0.29 -0.09    -0.278    17.093
ATOM     22  P   UNL d   1      18.013  -0.185  -7.957 -0.17 +0.17    +0.473    17.093
ATOM     23  O   UNL d   1      18.197  -1.148  -6.833 -0.28 -0.08    -0.228    17.093
ATOM     24  O   UNL d   1      19.124  -0.266  -9.094 -0.04 -0.09    -0.303    17.093
ATOM     25  H   UNL d   1      19.033  -1.140  -9.552 +0.05 +0.06    +0.222    17.093
ATOM     26  O   UNL d   1      18.053   1.369  -7.565 -0.23 -0.19    -0.303    17.093
ATOM     27  H   UNL d   1      17.362   1.846  -8.068 +0.05 +0.18    +0.222    17.093
ATOM     28  O   UNL d   1      15.180  -0.051 -14.110 -0.12 -0.08    -0.278    17.093
ATOM     29  P   UNL d   1      13.978  -0.489 -15.059 -0.15 +0.13    +0.473    17.093
ATOM     30  O   UNL d   1      13.865  -1.947 -15.319 -0.18 -0.05    -0.228    17.093
ATOM     31  O   UNL d   1      12.755   0.211 -14.300 -0.30 -0.07    -0.303    17.093
ATOM     32  H   UNL d   1      13.112   0.913 -13.709 +0.00 +0.04    +0.222    17.093
ATOM     33  O   UNL d   1      14.192   0.453 -16.325 -0.07 -0.10    -0.303    17.093
ATOM     34  H   UNL d   1      14.648   1.281 -16.036 +0.05 +0.07    +0.222    17.093
ATOM     35  O   UNL d   1      15.992   2.231 -10.159 -0.19 -0.21    -0.278    17.093
ATOM     36  P   UNL d   1      17.294   2.870 -10.823 -0.08 +0.32    +0.473    17.093
ATOM     37  O   UNL d   1      17.503   2.551 -12.269 -0.04 -0.09    -0.228    17.093
ATOM     38  O   UNL d   1      17.088   4.419 -10.517 -0.14 -0.36    -0.303    17.093
ATOM     39  H   UNL d   1      16.551   4.820 -11.234 +0.09 +0.19    +0.222    17.093
ATOM     40  O   UNL d   1      18.441   2.430  -9.813 -0.08 -0.20    -0.303    17.093
ATOM     41  H   UNL d   1      18.205   1.607  -9.330 +0.07 +0.13    +0.222    17.093
ATOM     42  O   UNL d   1      13.930   1.615 -12.124 -0.13 -0.08    -0.278    17.093
ATOM     43  P   UNL d   1      13.784   3.000 -12.900 -0.24 +0.14    +0.473    17.093
ATOM     44  O   UNL d   1      12.557   3.805 -12.645 -0.47 -0.05    -0.228    17.093
ATOM     45  O   UNL d   1      15.140   3.749 -12.537 -0.14 -0.13    -0.303    17.093
ATOM     46  H   UNL d   1      15.537   3.392 -11.717 +0.11 +0.13    +0.222    17.093
ATOM     47  O   UNL d   1      14.037   2.592 -14.430 -0.17 -0.09    -0.303    17.093
ATOM     48  H   UNL d   1      14.348   1.663 -14.468 +0.09 +0.07    +0.222    17.093
TER
ENDMDL
MODEL        4
USER    Run = 4
USER    Cluster Rank = 42
USER    Number of conformations in this cluster = 1
USER  
USER    RMSD from reference structure       = 16.483 A
USER  
USER    Estimated Free Energy of Binding    =   +2.72 kcal/mol  [=(1)+(2)+(3)-(4)]
USER    
USER    (1) Final Intermolecular Energy     =   -4.44 kcal/mol
USER        vdW + Hbond + desolv Energy     =   -4.18 kcal/mol
USER        Electrostatic Energy            =   -0.25 kcal/mol
USER    (2) Final Total Internal Energy     =  -13.78 kcal/mol
USER    (3) Torsional Free Energy           =   +7.16 kcal/mol
USER    (4) Unbound System's Energy  [=(2)] =  -13.78 kcal/mol
USER    
USER    
USER  
USER    DPF = D:/Protein_go_brrr/autodock/final/AncB/IHP/dock.dpf
USER    NEWDPF move	IHP_ideal_opt.pdbqt
USER    NEWDPF about	0.035000 0.082000 -0.065000
USER    NEWDPF tran0	-1.323980 5.530193 -16.978604
USER    NEWDPF axisangle0	-0.622119 -0.383556 -0.682535 162.453426
USER    NEWDPF quaternion0	-0.614839 -0.379068 -0.674549 0.152525
USER    NEWDPF dihe0	-161.48 -22.05 49.59 76.43 42.12 33.22 -90.20 28.12 63.34 94.46 4.15 168.29 25.82 132.17 -55.12 8.76 114.53 158.53 -135.66 -21.25 179.81 -8.56 -6.60 -15.73 
USER  
USER                              x       y       z    vdW   Elec        q     RMS 
ATOM      1  C   UNL d   1      -1.055   7.220 -16.739 -0.06 +0.16    +0.194    16.483
ATOM      2  C   UNL d   1      -1.367   6.797 -18.176 -0.01 +0.13    +0.194    16.483
ATOM      3  C   UNL d   1      -0.614   5.524 -18.568 -0.01 +0.12    +0.194    16.483
ATOM      4  C   UNL d   1      -0.808   4.381 -17.575 -0.02 +0.15    +0.194    16.483
ATOM      5  C   UNL d   1      -0.620   4.785 -16.119 -0.09 +0.22    +0.194    16.483
ATOM      6  C   UNL d   1      -1.322   6.091 -15.742 -0.04 +0.28    +0.194    16.483
ATOM      7  O   UNL d   1      -1.920   8.305 -16.396 -0.04 -0.20    -0.278    16.483
ATOM      8  P   UNL d   1      -3.197   7.999 -15.486 -0.05 +0.50    +0.473    16.483
ATOM      9  O   UNL d   1      -2.911   7.824 -14.036 -0.17 -0.29    -0.228    16.483
ATOM     10  O   UNL d   1      -4.187   9.213 -15.789 -0.02 -0.18    -0.303    16.483
ATOM     11  H   UNL d   1      -4.169   9.420 -16.742 +0.01 +0.11    +0.222    16.483
ATOM     12  O   UNL d   1      -3.932   6.785 -16.200 -0.49 -0.48    -0.303    16.483
ATOM     13  H   UNL d   1      -4.314   7.026 -17.074 +0.01 +0.21    +0.222    16.483
ATOM     14  O   UNL d   1      -2.773   6.551 -18.296 -0.01 -0.19    -0.278    16.483
ATOM     15  P   UNL d   1      -3.611   7.598 -19.171 +0.01 +0.22    +0.473    16.483
ATOM     16  O   UNL d   1      -5.100   7.449 -19.154 +0.00 -0.10    -0.228    16.483
ATOM     17  O   UNL d   1      -3.128   9.021 -18.641 +0.00 -0.13    -0.303    16.483
ATOM     18  H   UNL d   1      -3.111   9.045 -17.665 +0.01 +0.11    +0.222    16.483
ATOM     19  O   UNL d   1      -2.933   7.545 -20.609 +0.00 -0.11    -0.303    16.483
ATOM     20  H   UNL d   1      -2.379   6.750 -20.717 +0.00 +0.09    +0.222    16.483
ATOM     21  O   UNL d   1      -0.781   6.504 -14.489 -0.47 -0.36    -0.278    16.483
ATOM     22  P   UNL d   1       0.657   7.192 -14.435 -0.27 +0.35    +0.473    16.483
ATOM     23  O   UNL d   1       1.622   6.895 -15.533 -0.29 -0.17    -0.228    16.483
ATOM     24  O   UNL d   1       0.276   8.729 -14.279 -0.24 -0.19    -0.303    16.483
ATOM     25  H   UNL d   1      -0.637   8.859 -14.642 +0.10 +0.14    +0.222    16.483
ATOM     26  O   UNL d   1       1.141   6.818 -12.953 -0.44 -0.15    -0.303    16.483
ATOM     27  H   UNL d   1       1.611   7.585 -12.566 -0.41 +0.03    +0.222    16.483
ATOM     28  O   UNL d   1      -1.168   5.059 -19.792 +0.00 -0.14    -0.278    16.483
ATOM     29  P   UNL d   1      -0.406   5.312 -21.168 +0.01 +0.19    +0.473    16.483
ATOM     30  O   UNL d   1       0.644   6.362 -21.134 -0.00 -0.11    -0.228    16.483
ATOM     31  O   UNL d   1       0.068   3.821 -21.503 +0.00 -0.11    -0.303    16.483
ATOM     32  H   UNL d   1       0.340   3.382 -20.664 +0.01 +0.09    +0.222    16.483
ATOM     33  O   UNL d   1      -1.613   5.534 -22.182 +0.00 -0.10    -0.303    16.483
ATOM     34  H   UNL d   1      -1.868   6.489 -22.174 +0.00 +0.07    +0.222    16.483
ATOM     35  O   UNL d   1      -1.222   3.747 -15.348 -0.17 -0.47    -0.278    16.483
ATOM     36  P   UNL d   1      -0.376   2.973 -14.239 -0.14 +0.56    +0.473    16.483
ATOM     37  O   UNL d   1      -1.177   2.283 -13.182 -0.30 -0.29    -0.228    16.483
ATOM     38  O   UNL d   1       0.512   1.996 -15.130 -0.07 -0.23    -0.303    16.483
ATOM     39  H   UNL d   1       0.222   2.062 -16.065 +0.05 +0.16    +0.222    16.483
ATOM     40  O   UNL d   1       0.650   4.088 -13.755 -0.78 -0.30    -0.303    16.483
ATOM     41  H   UNL d   1       0.191   4.915 -13.490 +0.11 +0.25    +0.222    16.483
ATOM     42  O   UNL d   1       0.190   3.399 -17.873 -0.00 -0.17    -0.278    16.483
ATOM     43  P   UNL d   1      -0.262   1.890 -18.123 +0.03 +0.27    +0.473    16.483
ATOM     44  O   UNL d   1       0.748   0.822 -17.882 -0.00 -0.12    -0.228    16.483
ATOM     45  O   UNL d   1      -1.570   1.764 -17.226 +0.00 -0.25    -0.303    16.483
ATOM     46  H   UNL d   1      -1.354   1.796 -16.272 +0.03 +0.22    +0.222    16.483
ATOM     47  O   UNL d   1      -0.883   1.934 -19.600 +0.01 -0.14    -0.303    16.483
ATOM     48  H   UNL d   1      -1.011   2.868 -19.868 +0.00 +0.10    +0.222    16.483
TER
ENDMDL
MODEL       68
USER    Run = 68
USER    Cluster Rank = 43
USER    Number of conformations in this cluster = 1
USER  
USER    RMSD from reference structure       = 16.076 A
USER  
USER    Estimated Free Energy of Binding    =   +2.78 kcal/mol  [=(1)+(2)+(3)-(4)]
USER    
USER    (1) Final Intermolecular Energy     =   -4.38 kcal/mol
USER        vdW + Hbond + desolv Energy     =   -2.94 kcal/mol
USER        Electrostatic Energy            =   -1.44 kcal/mol
USER    (2) Final Total Internal Energy     =  -14.60 kcal/mol
USER    (3) Torsional Free Energy           =   +7.16 kcal/mol
USER    (4) Unbound System's Energy  [=(2)] =  -14.60 kcal/mol
USER    
USER    
USER  
USER    DPF = D:/Protein_go_brrr/autodock/final/AncB/IHP/dock.dpf
USER    NEWDPF move	IHP_ideal_opt.pdbqt
USER    NEWDPF about	0.035000 0.082000 -0.065000
USER    NEWDPF tran0	-2.788126 19.334295 -0.398053
USER    NEWDPF axisangle0	-0.320993 0.564682 -0.760327 156.924012
USER    NEWDPF quaternion0	-0.314506 0.553271 -0.744963 0.200018
USER    NEWDPF dihe0	87.18 -54.62 117.12 113.24 96.53 147.31 -129.91 52.69 29.23 8.74 156.54 115.45 -135.89 109.48 -117.45 41.86 175.65 66.91 35.11 -6.45 -4.37 165.59 -21.66 -20.36 
USER  
USER                              x       y       z    vdW   Elec        q     RMS 
ATOM      1  C   UNL d   1      -2.924  18.793   1.237 -0.05 -0.26    +0.194    16.076
ATOM      2  C   UNL d   1      -1.594  19.454   0.867 -0.05 -0.24    +0.194    16.076
ATOM      3  C   UNL d   1      -1.086  18.981  -0.496 -0.05 -0.21    +0.194    16.076
ATOM      4  C   UNL d   1      -2.126  19.117  -1.606 -0.09 -0.11    +0.194    16.076
ATOM      5  C   UNL d   1      -3.501  18.574  -1.237 -0.11 -0.19    +0.194    16.076
ATOM      6  C   UNL d   1      -3.982  18.997   0.152 -0.10 -0.18    +0.194    16.076
ATOM      7  O   UNL d   1      -3.412  19.411   2.430 -0.06 +0.22    -0.278    16.076
ATOM      8  P   UNL d   1      -2.934  18.826   3.838 -0.03 -0.39    +0.473    16.076
ATOM      9  O   UNL d   1      -3.717  17.663   4.337 -0.09 +0.17    -0.228    16.076
ATOM     10  O   UNL d   1      -1.390  18.495   3.615 -0.09 +0.44    -0.303    16.076
ATOM     11  H   UNL d   1      -1.303  17.726   3.021 -0.47 -0.65    +0.222    16.076
ATOM     12  O   UNL d   1      -2.868  20.084   4.806 -0.00 +0.12    -0.303    16.076
ATOM     13  H   UNL d   1      -1.955  20.433   4.924 +0.02 -0.09    +0.222    16.076
ATOM     14  O   UNL d   1      -1.776  20.875   0.819 -0.02 +0.15    -0.278    16.076
ATOM     15  P   UNL d   1      -0.795  21.753   1.730 -0.00 -0.19    +0.473    16.076
ATOM     16  O   UNL d   1      -0.736  23.219   1.434 +0.00 +0.04    -0.228    16.076
ATOM     17  O   UNL d   1      -1.266  21.443   3.219 -0.00 +0.12    -0.303    16.076
ATOM     18  H   UNL d   1      -1.756  20.599   3.264 +0.02 -0.12    +0.222    16.076
ATOM     19  O   UNL d   1       0.597  20.985   1.668 -0.03 +0.18    -0.303    16.076
ATOM     20  H   UNL d   1       0.883  20.830   0.749 +0.01 -0.13    +0.222    16.076
ATOM     21  O   UNL d   1      -5.085  18.155   0.481 -0.07 +0.37    -0.278    16.076
ATOM     22  P   UNL d   1      -6.567  18.746   0.460 -0.03 -0.33    +0.473    16.076
ATOM     23  O   UNL d   1      -7.081  19.401   1.697 -0.02 +0.08    -0.228    16.076
ATOM     24  O   UNL d   1      -6.525  19.684  -0.825 -0.02 +0.14    -0.303    16.076
ATOM     25  H   UNL d   1      -5.883  19.293  -1.471 +0.02 -0.14    +0.222    16.076
ATOM     26  O   UNL d   1      -7.410  17.491  -0.074 -0.07 +0.29    -0.303    16.076
ATOM     27  H   UNL d   1      -6.830  16.922  -0.619 -0.30 -0.47    +0.222    16.076
ATOM     28  O   UNL d   1      -0.016  19.837  -0.875 -0.06 +0.17    -0.278    16.076
ATOM     29  P   UNL d   1      -0.315  21.232  -1.583 +0.01 -0.10    +0.473    16.076
ATOM     30  O   UNL d   1      -1.714  21.719  -1.476 -0.00 +0.04    -0.228    16.076
ATOM     31  O   UNL d   1       0.821  22.136  -0.909 +0.00 +0.06    -0.303    16.076
ATOM     32  H   UNL d   1       0.529  22.383  -0.001 +0.01 -0.05    +0.222    16.076
ATOM     33  O   UNL d   1       0.253  20.991  -3.051 +0.00 -0.00    -0.303    16.076
ATOM     34  H   UNL d   1      -0.502  20.970  -3.688 +0.02 +0.02    +0.222    16.076
ATOM     35  O   UNL d   1      -4.406  19.137  -2.184 -0.05 +0.17    -0.278    16.076
ATOM     36  P   UNL d   1      -5.065  18.220  -3.312 -0.01 -0.30    +0.473    16.076
ATOM     37  O   UNL d   1      -5.177  18.845  -4.666 -0.02 +0.04    -0.228    16.076
ATOM     38  O   UNL d   1      -4.138  16.926  -3.262 -0.16 +0.31    -0.303    16.076
ATOM     39  H   UNL d   1      -3.203  17.205  -3.156 +0.07 -0.12    +0.222    16.076
ATOM     40  O   UNL d   1      -6.417  17.749  -2.620 -0.05 +0.31    -0.303    16.076
ATOM     41  H   UNL d   1      -6.312  17.646  -1.648 -0.45 -0.38    +0.222    16.076
ATOM     42  O   UNL d   1      -1.653  18.346  -2.715 -0.13 +0.03    -0.278    16.076
ATOM     43  P   UNL d   1      -1.645  19.007  -4.166 +0.03 +0.28    +0.473    16.076
ATOM     44  O   UNL d   1      -0.320  19.276  -4.791 -0.06 -0.22    -0.228    16.076
ATOM     45  O   UNL d   1      -2.571  18.021  -5.004 -0.47 -0.34    -0.303    16.076
ATOM     46  H   UNL d   1      -3.518  18.234  -4.888 +0.05 +0.05    +0.222    16.076
ATOM     47  O   UNL d   1      -2.600  20.282  -3.993 -0.00 -0.02    -0.303    16.076
ATOM     48  H   UNL d   1      -3.513  19.979  -3.808 +0.03 -0.01    +0.222    16.076
TER
ENDMDL
MODEL       55
USER    Run = 55
USER    Cluster Rank = 44
USER    Number of conformations in this cluster = 2
USER  
USER    RMSD from reference structure       = 14.060 A
USER  
USER    Estimated Free Energy of Binding    =   +2.81 kcal/mol  [=(1)+(2)+(3)-(4)]
USER    
USER    (1) Final Intermolecular Energy     =   -4.35 kcal/mol
USER        vdW + Hbond + desolv Energy     =   -4.37 kcal/mol
USER        Electrostatic Energy            =   +0.02 kcal/mol
USER    (2) Final Total Internal Energy     =  -14.40 kcal/mol
USER    (3) Torsional Free Energy           =   +7.16 kcal/mol
USER    (4) Unbound System's Energy  [=(2)] =  -14.40 kcal/mol
USER    
USER    
USER  
USER    DPF = D:/Protein_go_brrr/autodock/final/AncB/IHP/dock.dpf
USER    NEWDPF move	IHP_ideal_opt.pdbqt
USER    NEWDPF about	0.035000 0.082000 -0.065000
USER    NEWDPF tran0	-14.138071 9.707777 4.454941
USER    NEWDPF axisangle0	-0.466191 -0.848281 0.251166 -151.426201
USER    NEWDPF quaternion0	-0.451773 -0.822046 0.243398 -0.246777
USER    NEWDPF dihe0	-119.87 -14.22 147.92 9.36 50.13 156.50 -100.21 -32.60 112.92 -13.10 24.60 -69.46 26.31 159.76 144.65 -166.70 109.82 -38.07 -7.81 -3.06 -17.82 -6.48 -30.58 -179.87 
USER  
USER                              x       y       z    vdW   Elec        q     RMS 
ATOM      1  C   UNL d   1     -15.775  10.229   4.640 -0.06 +0.01    +0.194    14.060
ATOM      2  C   UNL d   1     -15.458   8.836   5.190 -0.09 +0.01    +0.194    14.060
ATOM      3  C   UNL d   1     -14.573   8.037   4.231 -0.18 +0.02    +0.194    14.060
ATOM      4  C   UNL d   1     -13.315   8.790   3.805 -0.17 +0.00    +0.194    14.060
ATOM      5  C   UNL d   1     -13.570  10.223   3.358 -0.17 -0.00    +0.194    14.060
ATOM      6  C   UNL d   1     -14.505  11.004   4.284 -0.10 -0.00    +0.194    14.060
ATOM      7  O   UNL d   1     -16.453  10.967   5.660 -0.02 -0.01    -0.278    14.060
ATOM      8  P   UNL d   1     -17.810  11.717   5.278 +0.00 +0.02    +0.473    14.060
ATOM      9  O   UNL d   1     -19.011  10.843   5.186 -0.00 -0.01    -0.228    14.060
ATOM     10  O   UNL d   1     -17.947  12.857   6.386 -0.00 -0.01    -0.303    14.060
ATOM     11  H   UNL d   1     -17.403  13.626   6.133 +0.01 +0.01    +0.222    14.060
ATOM     12  O   UNL d   1     -17.464  12.560   3.976 -0.00 -0.01    -0.303    14.060
ATOM     13  H   UNL d   1     -16.739  13.210   4.118 +0.01 +0.00    +0.222    14.060
ATOM     14  O   UNL d   1     -14.770   8.973   6.440 -0.12 -0.03    -0.278    14.060
ATOM     15  P   UNL d   1     -15.360   8.144   7.676 -0.11 +0.02    +0.473    14.060
ATOM     16  O   UNL d   1     -15.274   8.791   9.022 -0.13 -0.01    -0.228    14.060
ATOM     17  O   UNL d   1     -16.858   7.816   7.243 -0.02 -0.02    -0.303    14.060
ATOM     18  H   UNL d   1     -16.886   7.401   6.359 +0.04 +0.02    +0.222    14.060
ATOM     19  O   UNL d   1     -14.674   6.714   7.558 -0.21 -0.00    -0.303    14.060
ATOM     20  H   UNL d   1     -14.761   6.345   6.659 +0.08 +0.02    +0.222    14.060
ATOM     21  O   UNL d   1     -14.913  12.169   3.571 -0.04 +0.01    -0.278    14.060
ATOM     22  P   UNL d   1     -14.586  13.614   4.163 -0.03 -0.03    +0.473    14.060
ATOM     23  O   UNL d   1     -14.923  14.808   3.335 -0.01 +0.01    -0.228    14.060
ATOM     24  O   UNL d   1     -15.312  13.558   5.579 -0.03 +0.01    -0.303    14.060
ATOM     25  H   UNL d   1     -15.945  12.796   5.570 +0.02 -0.00    +0.222    14.060
ATOM     26  O   UNL d   1     -13.045  13.456   4.575 -0.03 +0.09    -0.303    14.060
ATOM     27  H   UNL d   1     -12.821  12.504   4.625 -0.45 -0.11    +0.222    14.060
ATOM     28  O   UNL d   1     -14.108   6.891   4.933 -0.23 -0.02    -0.278    14.060
ATOM     29  P   UNL d   1     -14.741   5.459   4.644 -0.16 +0.06    +0.473    14.060
ATOM     30  O   UNL d   1     -13.995   4.303   5.205 -0.34 -0.04    -0.228    14.060
ATOM     31  O   UNL d   1     -16.228   5.696   5.187 -0.05 -0.04    -0.303    14.060
ATOM     32  H   UNL d   1     -16.174   6.108   6.080 +0.07 +0.02    +0.222    14.060
ATOM     33  O   UNL d   1     -14.935   5.492   3.064 -0.15 -0.06    -0.303    14.060
ATOM     34  H   UNL d   1     -14.273   6.113   2.672 +0.09 +0.05    +0.222    14.060
ATOM     35  O   UNL d   1     -12.302  10.873   3.397 -0.22 +0.05    -0.278    14.060
ATOM     36  P   UNL d   1     -11.462  11.082   2.057 -0.17 -0.09    +0.473    14.060
ATOM     37  O   UNL d   1     -10.508  12.233   2.066 -0.21 +0.08    -0.228    14.060
ATOM     38  O   UNL d   1     -10.769   9.658   1.882 -0.29 +0.06    -0.303    14.060
ATOM     39  H   UNL d   1     -11.426   8.955   2.075 +0.07 -0.03    +0.222    14.060
ATOM     40  O   UNL d   1     -12.598  11.094   0.943 -0.03 +0.01    -0.303    14.060
ATOM     41  H   UNL d   1     -13.159  10.288   0.987 +0.06 +0.01    +0.222    14.060
ATOM     42  O   UNL d   1     -12.772   8.088   2.681 -0.17 -0.01    -0.278    14.060
ATOM     43  P   UNL d   1     -13.567   8.116   1.298 -0.06 +0.10    +0.473    14.060
ATOM     44  O   UNL d   1     -14.748   9.019   1.203 -0.04 -0.03    -0.228    14.060
ATOM     45  O   UNL d   1     -12.419   8.432   0.243 -0.24 -0.05    -0.303    14.060
ATOM     46  H   UNL d   1     -11.866   9.187   0.529 +0.08 +0.01    +0.222    14.060
ATOM     47  O   UNL d   1     -13.856   6.566   1.011 -0.64 -0.13    -0.303    14.060
ATOM     48  H   UNL d   1     -14.813   6.390   1.125 +0.07 +0.09    +0.222    14.060
TER
ENDMDL
MODEL       54
USER    Run = 54
USER    Cluster Rank = 45
USER    Number of conformations in this cluster = 1
USER  
USER    RMSD from reference structure       = 11.113 A
USER  
USER    Estimated Free Energy of Binding    =   +2.87 kcal/mol  [=(1)+(2)+(3)-(4)]
USER    
USER    (1) Final Intermolecular Energy     =   -4.29 kcal/mol
USER        vdW + Hbond + desolv Energy     =   -3.91 kcal/mol
USER        Electrostatic Energy            =   -0.37 kcal/mol
USER    (2) Final Total Internal Energy     =  -13.28 kcal/mol
USER    (3) Torsional Free Energy           =   +7.16 kcal/mol
USER    (4) Unbound System's Energy  [=(2)] =  -13.28 kcal/mol
USER    
USER    
USER  
USER    DPF = D:/Protein_go_brrr/autodock/final/AncB/IHP/dock.dpf
USER    NEWDPF move	IHP_ideal_opt.pdbqt
USER    NEWDPF about	0.035000 0.082000 -0.065000
USER    NEWDPF tran0	-7.859117 -1.007870 -10.964409
USER    NEWDPF axisangle0	-0.698497 -0.692019 0.182239 -139.450614
USER    NEWDPF quaternion0	-0.655220 -0.649143 0.170948 -0.346521
USER    NEWDPF dihe0	-48.65 127.38 54.15 49.63 1.10 -95.38 -131.05 -130.90 105.12 -48.60 36.99 179.02 -60.73 137.50 17.52 63.70 109.63 167.25 -153.98 -14.86 76.71 6.49 162.73 -6.86 
USER  
USER                              x       y       z    vdW   Elec        q     RMS 
ATOM      1  C   UNL d   1      -8.919   0.316 -10.636 -0.03 +0.07    +0.194    11.113
ATOM      2  C   UNL d   1      -9.382  -1.045 -10.115 -0.03 +0.07    +0.194    11.113
ATOM      3  C   UNL d   1      -9.158  -2.153 -11.148 -0.03 +0.09    +0.194    11.113
ATOM      4  C   UNL d   1      -7.729  -2.195 -11.683 -0.08 +0.13    +0.194    11.113
ATOM      5  C   UNL d   1      -7.185  -0.837 -12.108 -0.06 +0.15    +0.194    11.113
ATOM      6  C   UNL d   1      -7.463   0.283 -11.103 -0.05 +0.11    +0.194    11.113
ATOM      7  O   UNL d   1      -9.000   1.256  -9.561 -0.04 -0.08    -0.278    11.113
ATOM      8  P   UNL d   1      -7.784   1.333  -8.527 -0.16 +0.13    +0.473    11.113
ATOM      9  O   UNL d   1      -6.766   0.257  -8.669 -0.19 -0.08    -0.228    11.113
ATOM     10  O   UNL d   1      -7.186   2.796  -8.742 -0.23 -0.09    -0.303    11.113
ATOM     11  H   UNL d   1      -6.750   3.095  -7.923 -0.47 +0.02    +0.222    11.113
ATOM     12  O   UNL d   1      -8.466   1.459  -7.098 -0.24 -0.04    -0.303    11.113
ATOM     13  H   UNL d   1      -8.750   0.593  -6.728 +0.10 +0.04    +0.222    11.113
ATOM     14  O   UNL d   1      -8.642  -1.369  -8.931 -0.07 -0.09    -0.278    11.113
ATOM     15  P   UNL d   1      -9.486  -1.511  -7.577 -0.10 +0.10    +0.473    11.113
ATOM     16  O   UNL d   1      -8.706  -1.548  -6.301 -0.19 -0.06    -0.228    11.113
ATOM     17  O   UNL d   1     -10.518  -0.298  -7.635 -0.10 -0.04    -0.303    11.113
ATOM     18  H   UNL d   1     -10.087   0.515  -7.961 +0.07 +0.04    +0.222    11.113
ATOM     19  O   UNL d   1     -10.442  -2.756  -7.834 -0.06 -0.06    -0.303    11.113
ATOM     20  H   UNL d   1     -10.422  -3.039  -8.767 +0.07 +0.06    +0.222    11.113
ATOM     21  O   UNL d   1      -7.212   1.514 -11.778 -0.06 -0.18    -0.278    11.113
ATOM     22  P   UNL d   1      -6.197   1.550 -13.008 -0.07 +0.47    +0.473    11.113
ATOM     23  O   UNL d   1      -6.340   0.512 -14.070 -0.04 -0.23    -0.228    11.113
ATOM     24  O   UNL d   1      -6.354   3.050 -13.516 -0.09 -0.37    -0.303    11.113
ATOM     25  H   UNL d   1      -7.279   3.166 -13.853 +0.02 +0.19    +0.222    11.113
ATOM     26  O   UNL d   1      -4.780   1.600 -12.260 -0.12 -0.37    -0.303    11.113
ATOM     27  H   UNL d   1      -4.459   0.686 -12.118 +0.07 +0.27    +0.222    11.113
ATOM     28  O   UNL d   1      -9.351  -3.398 -10.489 -0.05 -0.12    -0.278    11.113
ATOM     29  P   UNL d   1     -10.525  -4.374 -10.942 -0.05 +0.23    +0.473    11.113
ATOM     30  O   UNL d   1     -10.782  -4.433 -12.404 -0.05 -0.13    -0.228    11.113
ATOM     31  O   UNL d   1     -10.052  -5.728 -10.232 -0.16 -0.17    -0.303    11.113
ATOM     32  H   UNL d   1      -9.344  -6.139 -10.781 +0.08 +0.13    +0.222    11.113
ATOM     33  O   UNL d   1     -11.731  -3.896 -10.018 -0.02 -0.12    -0.303    11.113
ATOM     34  H   UNL d   1     -11.556  -4.182  -9.088 +0.06 +0.07    +0.222    11.113
ATOM     35  O   UNL d   1      -5.769  -0.993 -12.181 -0.12 -0.35    -0.278    11.113
ATOM     36  P   UNL d   1      -4.920  -1.264 -10.858 -0.08 +0.50    +0.473    11.113
ATOM     37  O   UNL d   1      -3.627  -1.990 -11.058 -0.77 -0.37    -0.228    11.113
ATOM     38  O   UNL d   1      -4.760   0.206 -10.267 -0.13 -0.22    -0.303    11.113
ATOM     39  H   UNL d   1      -5.576   0.719 -10.455 +0.09 +0.15    +0.222    11.113
ATOM     40  O   UNL d   1      -5.991  -1.947  -9.901 -0.05 -0.19    -0.303    11.113
ATOM     41  H   UNL d   1      -6.471  -1.282  -9.358 +0.08 +0.11    +0.222    11.113
ATOM     42  O   UNL d   1      -7.748  -3.024 -12.850 -0.05 -0.21    -0.278    11.113
ATOM     43  P   UNL d   1      -6.883  -4.364 -12.859 -0.12 +0.43    +0.473    11.113
ATOM     44  O   UNL d   1      -6.299  -4.797 -14.159 -0.20 -0.26    -0.228    11.113
ATOM     45  O   UNL d   1      -5.805  -4.091 -11.720 -0.15 -0.32    -0.303    11.113
ATOM     46  H   UNL d   1      -5.530  -3.152 -11.706 +0.06 +0.30    +0.222    11.113
ATOM     47  O   UNL d   1      -7.848  -5.427 -12.146 -0.17 -0.18    -0.303    11.113
ATOM     48  H   UNL d   1      -8.675  -4.980 -11.872 +0.07 +0.13    +0.222    11.113
TER
ENDMDL
MODEL       97
USER    Run = 97
USER    Cluster Rank = 46
USER    Number of conformations in this cluster = 2
USER  
USER    RMSD from reference structure       = 16.465 A
USER  
USER    Estimated Free Energy of Binding    =   +2.89 kcal/mol  [=(1)+(2)+(3)-(4)]
USER    
USER    (1) Final Intermolecular Energy     =   -4.27 kcal/mol
USER        vdW + Hbond + desolv Energy     =   -3.34 kcal/mol
USER        Electrostatic Energy            =   -0.94 kcal/mol
USER    (2) Final Total Internal Energy     =  -14.38 kcal/mol
USER    (3) Torsional Free Energy           =   +7.16 kcal/mol
USER    (4) Unbound System's Energy  [=(2)] =  -14.38 kcal/mol
USER    
USER    
USER  
USER    DPF = D:/Protein_go_brrr/autodock/final/AncB/IHP/dock.dpf
USER    NEWDPF move	IHP_ideal_opt.pdbqt
USER    NEWDPF about	0.035000 0.082000 -0.065000
USER    NEWDPF tran0	-5.326716 17.572108 -6.178960
USER    NEWDPF axisangle0	-0.984947 -0.032169 -0.169836 129.594804
USER    NEWDPF quaternion0	-0.891188 -0.029107 -0.153669 0.425820
USER    NEWDPF dihe0	46.17 92.00 88.46 101.71 106.15 86.91 -28.52 108.31 54.74 -11.21 47.03 108.76 -72.28 -75.53 -171.71 171.38 64.26 179.75 -143.78 -31.86 9.42 -24.97 -172.37 14.34 
USER  
USER                              x       y       z    vdW   Elec        q     RMS 
ATOM      1  C   UNL d   1      -3.829  17.772  -7.016 -0.13 +0.02    +0.194    16.465
ATOM      2  C   UNL d   1      -5.062  18.332  -7.726 -0.05 -0.01    +0.194    16.465
ATOM      3  C   UNL d   1      -6.250  17.371  -7.641 -0.06 -0.03    +0.194    16.465
ATOM      4  C   UNL d   1      -6.559  16.922  -6.215 -0.08 -0.05    +0.194    16.465
ATOM      5  C   UNL d   1      -5.337  16.463  -5.430 -0.03 -0.13    +0.194    16.465
ATOM      6  C   UNL d   1      -4.129  17.393  -5.565 -0.16 -0.02    +0.194    16.465
ATOM      7  O   UNL d   1      -2.827  18.792  -6.990 -0.11 -0.19    -0.278    16.465
ATOM      8  P   UNL d   1      -2.739  19.737  -5.705 -0.02 +0.19    +0.473    16.465
ATOM      9  O   UNL d   1      -3.975  19.795  -4.878 -0.01 -0.01    -0.228    16.465
ATOM     10  O   UNL d   1      -1.473  19.186  -4.906 -0.15 -0.28    -0.303    16.465
ATOM     11  H   UNL d   1      -1.767  18.772  -4.073 +0.04 +0.13    +0.222    16.465
ATOM     12  O   UNL d   1      -2.206  21.130  -6.253 -0.00 -0.07    -0.303    16.465
ATOM     13  H   UNL d   1      -2.677  21.432  -7.062 +0.01 +0.04    +0.222    16.465
ATOM     14  O   UNL d   1      -5.433  19.572  -7.110 +0.00 -0.01    -0.278    16.465
ATOM     15  P   UNL d   1      -4.969  20.909  -7.858 +0.02 +0.04    +0.473    16.465
ATOM     16  O   UNL d   1      -3.837  20.778  -8.829 +0.00 -0.03    -0.228    16.465
ATOM     17  O   UNL d   1      -6.302  21.458  -8.535 +0.00 -0.02    -0.303    16.465
ATOM     18  H   UNL d   1      -7.033  20.818  -8.441 +0.00 +0.01    +0.222    16.465
ATOM     19  O   UNL d   1      -4.748  21.963  -6.686 +0.00 -0.02    -0.303    16.465
ATOM     20  H   UNL d   1      -4.298  21.561  -5.921 +0.01 +0.01    +0.222    16.465
ATOM     21  O   UNL d   1      -2.999  16.673  -5.078 -0.49 -0.16    -0.278    16.465
ATOM     22  P   UNL d   1      -2.565  16.820  -3.550 -0.17 +0.01    +0.473    16.465
ATOM     23  O   UNL d   1      -1.108  16.860  -3.232 -0.45 -0.09    -0.228    16.465
ATOM     24  O   UNL d   1      -3.381  18.111  -3.102 -0.10 +0.13    -0.303    16.465
ATOM     25  H   UNL d   1      -4.282  18.063  -3.513 +0.05 -0.11    +0.222    16.465
ATOM     26  O   UNL d   1      -3.404  15.641  -2.859 -0.32 +0.39    -0.303    16.465
ATOM     27  H   UNL d   1      -4.291  15.977  -2.617 -0.36 -0.54    +0.222    16.465
ATOM     28  O   UNL d   1      -7.405  18.078  -8.073 -0.00 -0.01    -0.278    16.465
ATOM     29  P   UNL d   1      -7.766  18.160  -9.622 +0.02 +0.05    +0.473    16.465
ATOM     30  O   UNL d   1      -9.217  18.160  -9.942 +0.00 -0.03    -0.228    16.465
ATOM     31  O   UNL d   1      -6.931  19.461 -10.035 +0.01 -0.03    -0.303    16.465
ATOM     32  H   UNL d   1      -6.201  19.585  -9.386 +0.01 +0.02    +0.222    16.465
ATOM     33  O   UNL d   1      -6.895  16.975 -10.231 -0.01 -0.04    -0.303    16.465
ATOM     34  H   UNL d   1      -7.193  16.800 -11.157 +0.01 +0.04    +0.222    16.465
ATOM     35  O   UNL d   1      -5.729  16.480  -4.059 -0.18 +0.24    -0.278    16.465
ATOM     36  P   UNL d   1      -6.604  17.685  -3.487 -0.01 -0.30    +0.473    16.465
ATOM     37  O   UNL d   1      -8.026  17.353  -3.164 -0.04 +0.10    -0.228    16.465
ATOM     38  O   UNL d   1      -5.739  18.149  -2.233 -0.02 +0.34    -0.303    16.465
ATOM     39  H   UNL d   1      -5.084  17.450  -2.018 -0.47 -0.52    +0.222    16.465
ATOM     40  O   UNL d   1      -6.357  18.827  -4.567 -0.00 +0.07    -0.303    16.465
ATOM     41  H   UNL d   1      -5.398  18.984  -4.717 +0.03 -0.04    +0.222    16.465
ATOM     42  O   UNL d   1      -7.441  15.798  -6.316 -0.12 -0.01    -0.278    16.465
ATOM     43  P   UNL d   1      -9.012  16.036  -6.175 -0.02 +0.10    +0.473    16.465
ATOM     44  O   UNL d   1      -9.772  15.097  -5.303 -0.04 -0.05    -0.228    16.465
ATOM     45  O   UNL d   1      -9.095  17.558  -5.720 +0.00 -0.00    -0.303    16.465
ATOM     46  H   UNL d   1      -8.281  17.839  -5.257 +0.02 -0.02    +0.222    16.465
ATOM     47  O   UNL d   1      -9.508  16.122  -7.696 -0.03 -0.10    -0.303    16.465
ATOM     48  H   UNL d   1      -9.211  16.971  -8.085 +0.02 +0.05    +0.222    16.465
TER
ENDMDL
MODEL       49
USER    Run = 49
USER    Cluster Rank = 47
USER    Number of conformations in this cluster = 1
USER  
USER    RMSD from reference structure       = 19.544 A
USER  
USER    Estimated Free Energy of Binding    =   +2.92 kcal/mol  [=(1)+(2)+(3)-(4)]
USER    
USER    (1) Final Intermolecular Energy     =   -4.24 kcal/mol
USER        vdW + Hbond + desolv Energy     =   -3.21 kcal/mol
USER        Electrostatic Energy            =   -1.04 kcal/mol
USER    (2) Final Total Internal Energy     =  -10.72 kcal/mol
USER    (3) Torsional Free Energy           =   +7.16 kcal/mol
USER    (4) Unbound System's Energy  [=(2)] =  -10.72 kcal/mol
USER    
USER    
USER  
USER    DPF = D:/Protein_go_brrr/autodock/final/AncB/IHP/dock.dpf
USER    NEWDPF move	IHP_ideal_opt.pdbqt
USER    NEWDPF about	0.035000 0.082000 -0.065000
USER    NEWDPF tran0	-9.460317 -14.902944 -13.862203
USER    NEWDPF axisangle0	0.721817 -0.684022 0.105330 -69.857219
USER    NEWDPF quaternion0	0.413280 -0.391640 0.060307 -0.819866
USER    NEWDPF dihe0	81.54 80.26 87.16 154.77 -135.27 -174.75 -4.82 164.72 122.91 12.69 45.89 80.81 -169.18 87.43 9.32 133.96 47.93 174.45 -20.97 -20.94 144.09 -36.45 -155.82 26.03 
USER  
USER                              x       y       z    vdW   Elec        q     RMS 
ATOM      1  C   UNL d   1      -8.694 -16.336 -13.277 -0.07 -0.06    +0.194    19.544
ATOM      2  C   UNL d   1      -8.992 -16.312 -14.777 -0.04 -0.06    +0.194    19.544
ATOM      3  C   UNL d   1     -10.385 -15.751 -15.069 -0.01 -0.02    +0.194    19.544
ATOM      4  C   UNL d   1     -10.640 -14.398 -14.408 -0.05 -0.02    +0.194    19.544
ATOM      5  C   UNL d   1     -10.249 -14.344 -12.937 -0.09 -0.04    +0.194    19.544
ATOM      6  C   UNL d   1      -8.881 -14.961 -12.636 +0.04 -0.14    +0.194    19.544
ATOM      7  O   UNL d   1      -7.325 -16.706 -13.100 -0.11 +0.12    -0.278    19.544
ATOM      8  P   UNL d   1      -6.943 -17.631 -11.855 -0.08 +0.16    +0.473    19.544
ATOM      9  O   UNL d   1      -6.017 -17.010 -10.868 -0.66 -0.19    -0.228    19.544
ATOM     10  O   UNL d   1      -8.352 -18.034 -11.226 -0.11 -0.24    -0.303    19.544
ATOM     11  H   UNL d   1      -8.714 -17.280 -10.724 +0.03 +0.23    +0.222    19.544
ATOM     12  O   UNL d   1      -6.458 -19.003 -12.492 -0.02 -0.03    -0.303    19.544
ATOM     13  H   UNL d   1      -5.976 -18.885 -13.341 +0.03 -0.04    +0.222    19.544
ATOM     14  O   UNL d   1      -8.021 -15.486 -15.432 -0.08 +0.24    -0.278    19.544
ATOM     15  P   UNL d   1      -6.967 -16.234 -16.378 -0.04 -0.30    +0.473    19.544
ATOM     16  O   UNL d   1      -6.567 -15.522 -17.632 -0.04 +0.10    -0.228    19.544
ATOM     17  O   UNL d   1      -5.732 -16.537 -15.419 -0.12 +0.32    -0.303    19.544
ATOM     18  H   UNL d   1      -5.840 -16.093 -14.556 -0.01 -0.34    +0.222    19.544
ATOM     19  O   UNL d   1      -7.578 -17.689 -16.580 -0.00 +0.06    -0.303    19.544
ATOM     20  H   UNL d   1      -8.103 -17.749 -17.400 +0.01 -0.02    +0.222    19.544
ATOM     21  O   UNL d   1      -8.814 -15.145 -11.223 -0.15 +0.03    -0.278    19.544
ATOM     22  P   UNL d   1     -10.087 -15.695 -10.435 -0.06 +0.22    +0.473    19.544
ATOM     23  O   UNL d   1     -10.899 -16.771 -11.072 -0.02 -0.08    -0.228    19.544
ATOM     24  O   UNL d   1      -9.455 -16.082  -9.026 -0.27 -0.44    -0.303    19.544
ATOM     25  H   UNL d   1     -10.185 -16.105  -8.357 +0.04 +0.24    +0.222    19.544
ATOM     26  O   UNL d   1     -10.866 -14.338 -10.087 -0.07 -0.10    -0.303    19.544
ATOM     27  H   UNL d   1     -10.465 -13.599 -10.588 +0.07 +0.04    +0.222    19.544
ATOM     28  O   UNL d   1     -10.465 -15.508 -16.468 -0.00 +0.01    -0.278    19.544
ATOM     29  P   UNL d   1     -10.613 -16.722 -17.488 +0.01 +0.01    +0.473    19.544
ATOM     30  O   UNL d   1     -11.946 -16.861 -18.129 +0.00 -0.02    -0.228    19.544
ATOM     31  O   UNL d   1      -9.370 -16.429 -18.453 +0.00 +0.00    -0.303    19.544
ATOM     32  H   UNL d   1      -8.579 -16.239 -17.897 +0.01 -0.03    +0.222    19.544
ATOM     33  O   UNL d   1     -10.101 -17.953 -16.619 +0.00 -0.00    -0.303    19.544
ATOM     34  H   UNL d   1      -9.505 -18.513 -17.174 +0.00 +0.00    +0.222    19.544
ATOM     35  O   UNL d   1     -10.165 -12.958 -12.610 -0.16 +0.06    -0.278    19.544
ATOM     36  P   UNL d   1      -9.862 -11.880 -13.746 -0.11 -0.08    +0.473    19.544
ATOM     37  O   UNL d   1     -11.065 -11.271 -14.394 -0.12 -0.12    -0.228    19.544
ATOM     38  O   UNL d   1      -8.940 -10.839 -12.970 -0.17 +0.08    -0.303    19.544
ATOM     39  H   UNL d   1      -8.195 -11.321 -12.551 -0.26 -0.30    +0.222    19.544
ATOM     40  O   UNL d   1      -8.849 -12.659 -14.692 -0.10 +0.30    -0.303    19.544
ATOM     41  H   UNL d   1      -8.321 -13.321 -14.193 -0.43 -0.50    +0.222    19.544
ATOM     42  O   UNL d   1     -12.050 -14.162 -14.478 -0.01 -0.05    -0.278    19.544
ATOM     43  P   UNL d   1     -12.657 -13.507 -15.800 +0.01 +0.12    +0.473    19.544
ATOM     44  O   UNL d   1     -13.729 -12.486 -15.630 -0.02 -0.10    -0.228    19.544
ATOM     45  O   UNL d   1     -11.361 -12.972 -16.551 -0.00 -0.05    -0.303    19.544
ATOM     46  H   UNL d   1     -10.641 -12.766 -15.922 +0.03 +0.01    +0.222    19.544
ATOM     47  O   UNL d   1     -13.049 -14.780 -16.692 +0.00 -0.05    -0.303    19.544
ATOM     48  H   UNL d   1     -12.354 -14.927 -17.366 +0.00 +0.03    +0.222    19.544
TER
ENDMDL
MODEL       62
USER    Run = 62
USER    Cluster Rank = 48
USER    Number of conformations in this cluster = 1
USER  
USER    RMSD from reference structure       = 18.688 A
USER  
USER    Estimated Free Energy of Binding    =   +2.94 kcal/mol  [=(1)+(2)+(3)-(4)]
USER    
USER    (1) Final Intermolecular Energy     =   -4.22 kcal/mol
USER        vdW + Hbond + desolv Energy     =   -4.01 kcal/mol
USER        Electrostatic Energy            =   -0.21 kcal/mol
USER    (2) Final Total Internal Energy     =  -13.44 kcal/mol
USER    (3) Torsional Free Energy           =   +7.16 kcal/mol
USER    (4) Unbound System's Energy  [=(2)] =  -13.44 kcal/mol
USER    
USER    
USER  
USER    DPF = D:/Protein_go_brrr/autodock/final/AncB/IHP/dock.dpf
USER    NEWDPF move	IHP_ideal_opt.pdbqt
USER    NEWDPF about	0.035000 0.082000 -0.065000
USER    NEWDPF tran0	-7.196899 -11.994543 16.478000
USER    NEWDPF axisangle0	0.537911 -0.365968 0.759420 165.215491
USER    NEWDPF quaternion0	0.533440 -0.362927 0.753108 0.128662
USER    NEWDPF dihe0	146.04 76.89 115.48 -34.44 116.16 -63.99 -10.93 -110.73 38.03 2.70 -179.78 83.16 148.26 161.97 74.73 81.86 162.03 73.40 41.47 5.86 179.88 -7.92 -6.28 -33.05 
USER  
USER                              x       y       z    vdW   Elec        q     RMS 
ATOM      1  C   UNL d   1      -6.814 -12.422  18.108 -0.00 +0.03    +0.194    18.688
ATOM      2  C   UNL d   1      -6.493 -10.980  17.709 -0.02 +0.04    +0.194    18.688
ATOM      3  C   UNL d   1      -5.848 -10.905  16.324 -0.07 +0.07    +0.194    18.688
ATOM      4  C   UNL d   1      -6.647 -11.637  15.248 -0.12 +0.09    +0.194    18.688
ATOM      5  C   UNL d   1      -7.087 -13.039  15.648 -0.05 +0.06    +0.194    18.688
ATOM      6  C   UNL d   1      -7.676 -13.125  17.058 -0.02 +0.04    +0.194    18.688
ATOM      7  O   UNL d   1      -7.564 -12.392  19.324 +0.00 -0.03    -0.278    18.688
ATOM      8  P   UNL d   1      -6.771 -12.220  20.700 +0.00 +0.03    +0.473    18.688
ATOM      9  O   UNL d   1      -7.515 -12.651  21.915 -0.00 -0.01    -0.228    18.688
ATOM     10  O   UNL d   1      -5.418 -13.032  20.471 +0.00 -0.02    -0.303    18.688
ATOM     11  H   UNL d   1      -5.492 -13.569  19.660 +0.00 +0.02    +0.222    18.688
ATOM     12  O   UNL d   1      -6.261 -10.715  20.698 +0.00 -0.01    -0.303    18.688
ATOM     13  H   UNL d   1      -6.868 -10.103  20.224 +0.01 +0.01    +0.222    18.688
ATOM     14  O   UNL d   1      -7.708 -10.220  17.689 -0.05 -0.06    -0.278    18.688
ATOM     15  P   UNL d   1      -7.644  -8.752  18.326 -0.07 +0.01    +0.473    18.688
ATOM     16  O   UNL d   1      -8.848  -8.299  19.091 -0.06 +0.02    -0.228    18.688
ATOM     17  O   UNL d   1      -6.321  -8.771  19.213 -0.01 +0.00    -0.303    18.688
ATOM     18  H   UNL d   1      -5.722  -9.491  18.935 +0.02 +0.01    +0.222    18.688
ATOM     19  O   UNL d   1      -7.206  -7.814  17.119 -0.44 +0.04    -0.303    18.688
ATOM     20  H   UNL d   1      -6.241  -7.679  17.098 -0.05 -0.04    +0.222    18.688
ATOM     21  O   UNL d   1      -7.714 -14.507  17.406 -0.01 -0.04    -0.278    18.688
ATOM     22  P   UNL d   1      -6.375 -15.247  17.857 +0.00 +0.06    +0.473    18.688
ATOM     23  O   UNL d   1      -6.192 -15.551  19.306 +0.00 -0.02    -0.228    18.688
ATOM     24  O   UNL d   1      -6.368 -16.520  16.902 -0.00 -0.05    -0.303    18.688
ATOM     25  H   UNL d   1      -6.513 -16.208  15.972 +0.01 +0.04    +0.222    18.688
ATOM     26  O   UNL d   1      -5.250 -14.323  17.186 +0.00 -0.04    -0.303    18.688
ATOM     27  H   UNL d   1      -4.651 -13.986  17.883 +0.00 +0.03    +0.222    18.688
ATOM     28  O   UNL d   1      -5.843  -9.540  15.927 -0.40 -0.19    -0.278    18.688
ATOM     29  P   UNL d   1      -4.503  -8.682  16.011 -0.09 +0.13    +0.473    18.688
ATOM     30  O   UNL d   1      -3.339  -9.239  15.275 -0.09 -0.05    -0.228    18.688
ATOM     31  O   UNL d   1      -5.053  -7.258  15.531 -0.25 -0.01    -0.303    18.688
ATOM     32  H   UNL d   1      -5.937  -7.109  15.938 -0.48 -0.12    +0.222    18.688
ATOM     33  O   UNL d   1      -4.333  -8.482  17.582 -0.03 -0.01    -0.303    18.688
ATOM     34  H   UNL d   1      -5.178  -8.128  17.954 +0.04 -0.00    +0.222    18.688
ATOM     35  O   UNL d   1      -8.126 -13.393  14.737 -0.13 -0.10    -0.278    18.688
ATOM     36  P   UNL d   1      -8.013 -14.726  13.867 -0.11 +0.17    +0.473    18.688
ATOM     37  O   UNL d   1      -8.760 -14.715  12.572 -0.20 -0.10    -0.228    18.688
ATOM     38  O   UNL d   1      -6.436 -14.881  13.712 -0.02 -0.10    -0.303    18.688
ATOM     39  H   UNL d   1      -6.026 -13.990  13.691 +0.05 +0.07    +0.222    18.688
ATOM     40  O   UNL d   1      -8.408 -15.852  14.919 -0.05 -0.08    -0.303    18.688
ATOM     41  H   UNL d   1      -8.037 -15.665  15.810 +0.03 +0.05    +0.222    18.688
ATOM     42  O   UNL d   1      -5.785 -11.774  14.113 -0.09 -0.13    -0.278    18.688
ATOM     43  P   UNL d   1      -6.412 -11.665  12.651 -0.19 +0.29    +0.473    18.688
ATOM     44  O   UNL d   1      -5.913 -10.574  11.769 -0.17 -0.16    -0.228    18.688
ATOM     45  O   UNL d   1      -6.190 -13.128  12.066 -0.12 -0.14    -0.303    18.688
ATOM     46  H   UNL d   1      -7.030 -13.626  12.018 +0.06 +0.11    +0.222    18.688
ATOM     47  O   UNL d   1      -7.991 -11.662  12.929 -0.92 -0.26    -0.303    18.688
ATOM     48  H   UNL d   1      -8.343 -12.567  12.798 +0.07 +0.17    +0.222    18.688
TER
ENDMDL
MODEL        8
USER    Run = 8
USER    Cluster Rank = 49
USER    Number of conformations in this cluster = 1
USER  
USER    RMSD from reference structure       = 11.197 A
USER  
USER    Estimated Free Energy of Binding    =   +2.97 kcal/mol  [=(1)+(2)+(3)-(4)]
USER    
USER    (1) Final Intermolecular Energy     =   -4.19 kcal/mol
USER        vdW + Hbond + desolv Energy     =   -3.75 kcal/mol
USER        Electrostatic Energy            =   -0.45 kcal/mol
USER    (2) Final Total Internal Energy     =  -12.03 kcal/mol
USER    (3) Torsional Free Energy           =   +7.16 kcal/mol
USER    (4) Unbound System's Energy  [=(2)] =  -12.03 kcal/mol
USER    
USER    
USER  
USER    DPF = D:/Protein_go_brrr/autodock/final/AncB/IHP/dock.dpf
USER    NEWDPF move	IHP_ideal_opt.pdbqt
USER    NEWDPF about	0.035000 0.082000 -0.065000
USER    NEWDPF tran0	3.749228 -13.310123 3.521738
USER    NEWDPF axisangle0	-0.722751 0.356377 -0.592137 -120.214617
USER    NEWDPF quaternion0	-0.626596 0.308965 -0.513360 -0.498377
USER    NEWDPF dihe0	-154.84 144.90 102.58 21.24 49.11 -111.62 15.87 -140.15 87.86 74.20 -149.88 -6.34 123.93 -107.26 -63.17 -34.13 114.10 62.90 45.31 -4.01 166.46 144.72 -11.18 -180.00 
USER  
USER                              x       y       z    vdW   Elec        q     RMS 
ATOM      1  C   UNL d   1       4.745 -13.916   4.797 -0.00 -0.00    +0.194    11.197
ATOM      2  C   UNL d   1       3.941 -12.656   5.127 -0.02 +0.00    +0.194    11.197
ATOM      3  C   UNL d   1       3.976 -11.646   3.979 -0.09 -0.01    +0.194    11.197
ATOM      4  C   UNL d   1       3.577 -12.249   2.634 -0.12 -0.00    +0.194    11.197
ATOM      5  C   UNL d   1       4.270 -13.568   2.316 -0.06 -0.01    +0.194    11.197
ATOM      6  C   UNL d   1       4.289 -14.555   3.485 -0.00 +0.00    +0.194    11.197
ATOM      7  O   UNL d   1       4.522 -14.872   5.836 +0.00 -0.01    -0.278    11.197
ATOM      8  P   UNL d   1       5.288 -14.676   7.225 +0.00 +0.02    +0.473    11.197
ATOM      9  O   UNL d   1       4.925 -15.652   8.288 +0.00 -0.01    -0.228    11.197
ATOM     10  O   UNL d   1       6.831 -14.728   6.825 +0.00 +0.00    -0.303    11.197
ATOM     11  H   UNL d   1       6.988 -14.153   6.053 +0.01 -0.01    +0.222    11.197
ATOM     12  O   UNL d   1       5.090 -13.143   7.593 -0.00 -0.01    -0.303    11.197
ATOM     13  H   UNL d   1       4.375 -12.994   8.251 +0.01 +0.01    +0.222    11.197
ATOM     14  O   UNL d   1       2.578 -13.023   5.372 -0.02 -0.03    -0.278    11.197
ATOM     15  P   UNL d   1       1.933 -12.507   6.744 -0.01 +0.06    +0.473    11.197
ATOM     16  O   UNL d   1       2.699 -12.798   7.997 -0.01 -0.02    -0.228    11.197
ATOM     17  O   UNL d   1       1.709 -10.948   6.505 -0.09 -0.04    -0.303    11.197
ATOM     18  H   UNL d   1       1.904 -10.702   5.580 +0.09 +0.03    +0.222    11.197
ATOM     19  O   UNL d   1       0.440 -13.053   6.711 -0.05 -0.06    -0.303    11.197
ATOM     20  H   UNL d   1       0.057 -13.002   5.815 +0.06 +0.06    +0.222    11.197
ATOM     21  O   UNL d   1       5.243 -15.563   3.157 +0.00 +0.00    -0.278    11.197
ATOM     22  P   UNL d   1       6.783 -15.175   3.001 +0.01 -0.05    +0.473    11.197
ATOM     23  O   UNL d   1       7.118 -13.824   2.465 -0.04 +0.07    -0.228    11.197
ATOM     24  O   UNL d   1       7.343 -15.472   4.460 +0.00 +0.02    -0.303    11.197
ATOM     25  H   UNL d   1       6.572 -15.529   5.081 +0.00 -0.01    +0.222    11.197
ATOM     26  O   UNL d   1       7.350 -16.422   2.168 +0.00 +0.02    -0.303    11.197
ATOM     27  H   UNL d   1       7.051 -16.351   1.239 +0.01 -0.02    +0.222    11.197
ATOM     28  O   UNL d   1       2.995 -10.653   4.253 -0.12 -0.02    -0.278    11.197
ATOM     29  P   UNL d   1       1.616 -10.643   3.456 -0.12 +0.06    +0.473    11.197
ATOM     30  O   UNL d   1       1.729 -10.488   1.983 -0.27 -0.02    -0.228    11.197
ATOM     31  O   UNL d   1       0.972 -12.004   3.996 -0.17 -0.08    -0.303    11.197
ATOM     32  H   UNL d   1       0.763 -11.895   4.952 +0.07 +0.05    +0.222    11.197
ATOM     33  O   UNL d   1       0.788  -9.528   4.235 -0.20 -0.02    -0.303    11.197
ATOM     34  H   UNL d   1       0.400  -9.929   5.051 -0.42 -0.01    +0.222    11.197
ATOM     35  O   UNL d   1       3.502 -14.166   1.274 -0.07 -0.02    -0.278    11.197
ATOM     36  P   UNL d   1       4.171 -14.478  -0.141 -0.09 +0.01    +0.473    11.197
ATOM     37  O   UNL d   1       3.482 -15.520  -0.964 -0.15 -0.00    -0.228    11.197
ATOM     38  O   UNL d   1       4.206 -13.033  -0.810 -0.20 -0.04    -0.303    11.197
ATOM     39  H   UNL d   1       4.095 -12.353  -0.111 +0.13 +0.04    +0.222    11.197
ATOM     40  O   UNL d   1       5.686 -14.754   0.253 -0.05 +0.03    -0.303    11.197
ATOM     41  H   UNL d   1       5.762 -15.170   1.141 +0.04 -0.02    +0.222    11.197
ATOM     42  O   UNL d   1       3.971 -11.312   1.626 -0.33 +0.02    -0.278    11.197
ATOM     43  P   UNL d   1       5.526 -11.081   1.354 -0.17 -0.28    +0.473    11.197
ATOM     44  O   UNL d   1       6.087 -11.614   0.081 -0.36 +0.11    -0.228    11.197
ATOM     45  O   UNL d   1       5.679  -9.506   1.523 -0.31 +0.25    -0.303    11.197
ATOM     46  H   UNL d   1       6.482  -9.278   2.033 -0.07 -0.43    +0.222    11.197
ATOM     47  O   UNL d   1       6.217 -11.622   2.695 -0.12 +0.26    -0.303    11.197
ATOM     48  H   UNL d   1       7.189 -11.630   2.576 -0.45 -0.36    +0.222    11.197
TER
ENDMDL
MODEL       22
USER    Run = 22
USER    Cluster Rank = 50
USER    Number of conformations in this cluster = 1
USER  
USER    RMSD from reference structure       = 21.987 A
USER  
USER    Estimated Free Energy of Binding    =   +2.98 kcal/mol  [=(1)+(2)+(3)-(4)]
USER    
USER    (1) Final Intermolecular Energy     =   -4.18 kcal/mol
USER        vdW + Hbond + desolv Energy     =   -4.07 kcal/mol
USER        Electrostatic Energy            =   -0.11 kcal/mol
USER    (2) Final Total Internal Energy     =  -12.56 kcal/mol
USER    (3) Torsional Free Energy           =   +7.16 kcal/mol
USER    (4) Unbound System's Energy  [=(2)] =  -12.56 kcal/mol
USER    
USER    
USER  
USER    DPF = D:/Protein_go_brrr/autodock/final/AncB/IHP/dock.dpf
USER    NEWDPF move	IHP_ideal_opt.pdbqt
USER    NEWDPF about	0.035000 0.082000 -0.065000
USER    NEWDPF tran0	15.818967 9.516564 -17.091246
USER    NEWDPF axisangle0	-0.098482 -0.953599 -0.284519 -55.022138
USER    NEWDPF quaternion0	-0.045491 -0.440486 -0.131425 -0.886922
USER    NEWDPF dihe0	63.67 43.44 -59.82 117.31 141.20 58.09 -24.45 21.92 -1.02 44.82 118.05 151.82 -125.87 -0.41 -122.08 -1.23 154.79 25.69 25.14 -17.64 -1.02 -29.26 -22.05 -4.74 
USER  
USER                              x       y       z    vdW   Elec        q     RMS 
ATOM      1  C   UNL d   1      15.691   8.576 -15.648 -0.22 +0.05    +0.194    21.987
ATOM      2  C   UNL d   1      15.035   7.972 -16.890 -0.16 +0.04    +0.194    21.987
ATOM      3  C   UNL d   1      14.261   9.022 -17.690 -0.13 +0.06    +0.194    21.987
ATOM      4  C   UNL d   1      15.092  10.260 -18.020 -0.11 +0.05    +0.194    21.987
ATOM      5  C   UNL d   1      15.856  10.829 -16.832 -0.15 +0.06    +0.194    21.987
ATOM      6  C   UNL d   1      16.580   9.771 -15.996 -0.17 +0.05    +0.194    21.987
ATOM      7  O   UNL d   1      16.529   7.580 -15.056 -0.12 -0.08    -0.278    21.987
ATOM      8  P   UNL d   1      15.951   6.730 -13.834 -0.20 +0.17    +0.473    21.987
ATOM      9  O   UNL d   1      15.869   7.461 -12.540 -0.77 -0.14    -0.228    21.987
ATOM     10  O   UNL d   1      14.533   6.216 -14.356 -0.23 -0.06    -0.303    21.987
ATOM     11  H   UNL d   1      13.836   6.834 -14.068 -0.41 -0.01    +0.222    21.987
ATOM     12  O   UNL d   1      16.806   5.391 -13.821 -0.04 -0.10    -0.303    21.987
ATOM     13  H   UNL d   1      17.465   5.347 -14.550 +0.05 +0.06    +0.222    21.987
ATOM     14  O   UNL d   1      16.053   7.416 -17.732 -0.03 -0.06    -0.278    21.987
ATOM     15  P   UNL d   1      16.040   5.825 -17.915 +0.00 +0.09    +0.473    21.987
ATOM     16  O   UNL d   1      14.763   5.215 -18.402 -0.05 -0.04    -0.228    21.987
ATOM     17  O   UNL d   1      17.271   5.537 -18.885 -0.00 -0.05    -0.303    21.987
ATOM     18  H   UNL d   1      17.148   4.697 -19.368 +0.01 +0.04    +0.222    21.987
ATOM     19  O   UNL d   1      16.585   5.262 -16.531 -0.01 -0.06    -0.303    21.987
ATOM     20  H   UNL d   1      16.041   5.563 -15.780 +0.06 +0.05    +0.222    21.987
ATOM     21  O   UNL d   1      16.944  10.395 -14.767 -0.17 -0.06    -0.278    21.987
ATOM     22  P   UNL d   1      18.455  10.845 -14.524 -0.11 +0.13    +0.473    21.987
ATOM     23  O   UNL d   1      19.379   9.882 -13.859 -0.11 -0.07    -0.228    21.987
ATOM     24  O   UNL d   1      18.898  11.297 -15.984 -0.03 -0.06    -0.303    21.987
ATOM     25  H   UNL d   1      18.483  12.176 -16.175 +0.03 +0.04    +0.222    21.987
ATOM     26  O   UNL d   1      18.259  12.256 -13.787 -0.45 -0.11    -0.303    21.987
ATOM     27  H   UNL d   1      18.626  12.967 -14.351 +0.04 +0.06    +0.222    21.987
ATOM     28  O   UNL d   1      13.928   8.445 -18.946 -0.08 -0.07    -0.278    21.987
ATOM     29  P   UNL d   1      12.668   7.480 -19.079 -0.06 +0.13    +0.473    21.987
ATOM     30  O   UNL d   1      12.287   6.749 -17.844 -0.19 -0.05    -0.228    21.987
ATOM     31  O   UNL d   1      11.594   8.506 -19.676 -0.09 -0.11    -0.303    21.987
ATOM     32  H   UNL d   1      12.073   9.208 -20.173 +0.04 +0.07    +0.222    21.987
ATOM     33  O   UNL d   1      13.055   6.599 -20.347 -0.03 -0.06    -0.303    21.987
ATOM     34  H   UNL d   1      13.670   5.879 -20.063 +0.04 +0.04    +0.222    21.987
ATOM     35  O   UNL d   1      16.856  11.681 -17.387 -0.05 -0.06    -0.278    21.987
ATOM     36  P   UNL d   1      16.731  13.265 -17.246 -0.04 +0.10    +0.473    21.987
ATOM     37  O   UNL d   1      17.548  14.065 -18.211 -0.01 -0.04    -0.228    21.987
ATOM     38  O   UNL d   1      15.159  13.482 -17.382 -0.07 -0.09    -0.303    21.987
ATOM     39  H   UNL d   1      14.891  13.314 -18.311 +0.03 +0.05    +0.222    21.987
ATOM     40  O   UNL d   1      17.016  13.492 -15.698 -0.09 -0.07    -0.303    21.987
ATOM     41  H   UNL d   1      17.239  12.651 -15.241 +0.04 +0.05    +0.222    21.987
ATOM     42  O   UNL d   1      14.176  11.270 -18.455 -0.08 -0.08    -0.278    21.987
ATOM     43  P   UNL d   1      14.269  11.801 -19.956 +0.00 +0.11    +0.473    21.987
ATOM     44  O   UNL d   1      13.824  10.880 -21.039 -0.01 -0.05    -0.228    21.987
ATOM     45  O   UNL d   1      13.460  13.170 -19.893 -0.00 -0.07    -0.303    21.987
ATOM     46  H   UNL d   1      13.709  13.697 -19.107 +0.02 +0.05    +0.222    21.987
ATOM     47  O   UNL d   1      15.781  12.321 -20.067 -0.00 -0.06    -0.303    21.987
ATOM     48  H   UNL d   1      16.085  12.621 -19.186 +0.02 +0.04    +0.222    21.987
TER
ENDMDL
MODEL       52
USER    Run = 52
USER    Cluster Rank = 51
USER    Number of conformations in this cluster = 1
USER  
USER    RMSD from reference structure       = 20.730 A
USER  
USER    Estimated Free Energy of Binding    =   +2.99 kcal/mol  [=(1)+(2)+(3)-(4)]
USER    
USER    (1) Final Intermolecular Energy     =   -4.17 kcal/mol
USER        vdW + Hbond + desolv Energy     =   -3.90 kcal/mol
USER        Electrostatic Energy            =   -0.27 kcal/mol
USER    (2) Final Total Internal Energy     =  -14.74 kcal/mol
USER    (3) Torsional Free Energy           =   +7.16 kcal/mol
USER    (4) Unbound System's Energy  [=(2)] =  -14.74 kcal/mol
USER    
USER    
USER  
USER    DPF = D:/Protein_go_brrr/autodock/final/AncB/IHP/dock.dpf
USER    NEWDPF move	IHP_ideal_opt.pdbqt
USER    NEWDPF about	0.035000 0.082000 -0.065000
USER    NEWDPF tran0	7.584891 15.065677 -17.902246
USER    NEWDPF axisangle0	-0.575940 -0.794564 -0.192251 -33.989523
USER    NEWDPF quaternion0	-0.168338 -0.232239 -0.056192 -0.956331
USER    NEWDPF dihe0	-92.34 -8.98 157.34 9.80 -122.54 -115.11 -89.92 -68.14 -12.04 31.37 30.54 -131.59 -143.98 74.44 4.06 -161.52 -158.69 -16.98 31.65 -30.50 141.68 -32.72 -48.04 139.63 
USER  
USER                              x       y       z    vdW   Elec        q     RMS 
ATOM      1  C   UNL d   1       8.194  14.472 -16.398 -0.09 +0.06    +0.194    20.730
ATOM      2  C   UNL d   1       7.096  13.627 -17.047 -0.12 +0.07    +0.194    20.730
ATOM      3  C   UNL d   1       5.967  14.496 -17.605 -0.08 +0.07    +0.194    20.730
ATOM      4  C   UNL d   1       6.463  15.605 -18.529 -0.02 +0.05    +0.194    20.730
ATOM      5  C   UNL d   1       7.635  16.401 -17.970 -0.01 +0.04    +0.194    20.730
ATOM      6  C   UNL d   1       8.736  15.534 -17.356 -0.02 +0.05    +0.194    20.730
ATOM      7  O   UNL d   1       9.281  13.608 -16.060 -0.10 -0.09    -0.278    20.730
ATOM      8  P   UNL d   1       9.297  12.940 -14.609 -0.24 +0.14    +0.473    20.730
ATOM      9  O   UNL d   1      10.040  13.705 -13.571 -0.33 -0.06    -0.228    20.730
ATOM     10  O   UNL d   1       7.754  12.741 -14.258 -0.26 -0.08    -0.303    20.730
ATOM     11  H   UNL d   1       7.535  11.790 -14.273 -0.06 +0.02    +0.222    20.730
ATOM     12  O   UNL d   1       9.780  11.445 -14.848 -0.34 -0.11    -0.303    20.730
ATOM     13  H   UNL d   1       9.237  10.967 -15.515 -0.48 +0.04    +0.222    20.730
ATOM     14  O   UNL d   1       7.664  12.870 -18.123 -0.05 -0.13    -0.278    20.730
ATOM     15  P   UNL d   1       7.984  11.330 -17.822 -0.17 +0.33    +0.473    20.730
ATOM     16  O   UNL d   1       7.472  10.331 -18.813 -0.67 -0.34    -0.228    20.730
ATOM     17  O   UNL d   1       9.569  11.287 -17.666 -0.17 -0.16    -0.303    20.730
ATOM     18  H   UNL d   1       9.864  11.843 -16.919 +0.07 +0.11    +0.222    20.730
ATOM     19  O   UNL d   1       7.509  11.111 -16.320 -0.26 -0.15    -0.303    20.730
ATOM     20  H   UNL d   1       7.868  11.796 -15.725 +0.02 +0.07    +0.222    20.730
ATOM     21  O   UNL d   1       9.566  16.404 -16.589 -0.01 -0.06    -0.278    20.730
ATOM     22  P   UNL d   1       8.907  17.578 -15.734 +0.00 +0.08    +0.473    20.730
ATOM     23  O   UNL d   1       7.571  17.335 -15.116 -0.06 -0.04    -0.228    20.730
ATOM     24  O   UNL d   1      10.068  17.919 -14.700 -0.01 -0.05    -0.303    20.730
ATOM     25  H   UNL d   1       9.810  18.739 -14.207 +0.02 +0.03    +0.222    20.730
ATOM     26  O   UNL d   1       8.997  18.813 -16.752 -0.00 -0.04    -0.303    20.730
ATOM     27  H   UNL d   1       8.362  18.673 -17.484 +0.00 +0.03    +0.222    20.730
ATOM     28  O   UNL d   1       5.149  13.665 -18.419 -0.05 -0.12    -0.278    20.730
ATOM     29  P   UNL d   1       4.098  12.671 -17.752 -0.11 +0.29    +0.473    20.730
ATOM     30  O   UNL d   1       3.181  11.982 -18.696 -0.10 -0.16    -0.228    20.730
ATOM     31  O   UNL d   1       5.088  11.749 -16.898 -0.12 -0.26    -0.303    20.730
ATOM     32  H   UNL d   1       5.908  11.599 -17.422 +0.08 +0.21    +0.222    20.730
ATOM     33  O   UNL d   1       3.427  13.592 -16.640 -0.10 -0.14    -0.303    20.730
ATOM     34  H   UNL d   1       3.933  14.438 -16.575 +0.05 +0.09    +0.222    20.730
ATOM     35  O   UNL d   1       8.209  17.081 -19.085 -0.00 -0.05    -0.278    20.730
ATOM     36  P   UNL d   1       7.582  18.454 -19.600 -0.00 +0.07    +0.473    20.730
ATOM     37  O   UNL d   1       6.975  18.414 -20.966 +0.00 -0.03    -0.228    20.730
ATOM     38  O   UNL d   1       6.551  18.799 -18.436 -0.00 -0.05    -0.303    20.730
ATOM     39  H   UNL d   1       5.721  18.297 -18.583 +0.01 +0.04    +0.222    20.730
ATOM     40  O   UNL d   1       8.776  19.480 -19.370 +0.00 -0.04    -0.303    20.730
ATOM     41  H   UNL d   1       9.503  19.080 -18.842 +0.00 +0.03    +0.222    20.730
ATOM     42  O   UNL d   1       5.375  16.521 -18.700 -0.01 -0.06    -0.278    20.730
ATOM     43  P   UNL d   1       4.300  16.667 -17.530 -0.03 +0.11    +0.473    20.730
ATOM     44  O   UNL d   1       4.760  16.405 -16.138 -0.09 -0.06    -0.228    20.730
ATOM     45  O   UNL d   1       3.730  18.134 -17.762 -0.01 -0.05    -0.303    20.730
ATOM     46  H   UNL d   1       4.446  18.768 -17.969 +0.01 +0.04    +0.222    20.730
ATOM     47  O   UNL d   1       3.081  15.759 -18.038 -0.03 -0.08    -0.303    20.730
ATOM     48  H   UNL d   1       3.427  14.895 -18.343 +0.03 +0.07    +0.222    20.730
TER
ENDMDL
MODEL       11
USER    Run = 11
USER    Cluster Rank = 52
USER    Number of conformations in this cluster = 1
USER  
USER    RMSD from reference structure       = 16.778 A
USER  
USER    Estimated Free Energy of Binding    =   +3.06 kcal/mol  [=(1)+(2)+(3)-(4)]
USER    
USER    (1) Final Intermolecular Energy     =   -4.10 kcal/mol
USER        vdW + Hbond + desolv Energy     =   -3.83 kcal/mol
USER        Electrostatic Energy            =   -0.27 kcal/mol
USER    (2) Final Total Internal Energy     =  -14.21 kcal/mol
USER    (3) Torsional Free Energy           =   +7.16 kcal/mol
USER    (4) Unbound System's Energy  [=(2)] =  -14.21 kcal/mol
USER    
USER    
USER  
USER    DPF = D:/Protein_go_brrr/autodock/final/AncB/IHP/dock.dpf
USER    NEWDPF move	IHP_ideal_opt.pdbqt
USER    NEWDPF about	0.035000 0.082000 -0.065000
USER    NEWDPF tran0	4.730582 19.119911 -7.542618
USER    NEWDPF axisangle0	-0.282965 -0.226831 0.931922 -136.927980
USER    NEWDPF quaternion0	-0.263210 -0.210995 0.866862 -0.367086
USER    NEWDPF dihe0	102.20 39.84 -168.73 -42.25 0.26 -147.93 -140.46 -53.54 102.03 15.48 117.31 -140.78 153.36 173.63 -60.73 -138.63 116.30 -12.90 50.93 19.05 -179.48 -1.14 -3.53 -174.88 
USER  
USER                              x       y       z    vdW   Elec        q     RMS 
ATOM      1  C   UNL d   1       3.972  20.490  -6.813 -0.00 +0.03    +0.194    16.778
ATOM      2  C   UNL d   1       5.359  20.136  -6.272 -0.02 +0.02    +0.194    16.778
ATOM      3  C   UNL d   1       5.521  18.628  -6.072 -0.10 +0.02    +0.194    16.778
ATOM      4  C   UNL d   1       5.160  17.814  -7.312 -0.17 +0.02    +0.194    16.778
ATOM      5  C   UNL d   1       3.836  18.212  -7.952 -0.11 +0.05    +0.194    16.778
ATOM      6  C   UNL d   1       3.648  19.724  -8.096 -0.02 +0.04    +0.194    16.778
ATOM      7  O   UNL d   1       3.960  21.883  -7.134 +0.00 -0.03    -0.278    16.778
ATOM      8  P   UNL d   1       3.965  22.938  -5.934 +0.01 +0.04    +0.473    16.778
ATOM      9  O   UNL d   1       3.384  24.268  -6.262 +0.00 -0.02    -0.228    16.778
ATOM     10  O   UNL d   1       3.193  22.188  -4.757 +0.00 -0.02    -0.303    16.778
ATOM     11  H   UNL d   1       2.313  21.907  -5.070 +0.00 +0.03    +0.222    16.778
ATOM     12  O   UNL d   1       5.461  22.947  -5.399 +0.00 -0.02    -0.303    16.778
ATOM     13  H   UNL d   1       6.030  22.273  -5.833 +0.00 +0.01    +0.222    16.778
ATOM     14  O   UNL d   1       6.351  20.582  -7.205 -0.01 -0.03    -0.278    16.778
ATOM     15  P   UNL d   1       7.776  20.986  -6.596 -0.00 +0.04    +0.473    16.778
ATOM     16  O   UNL d   1       8.343  22.302  -7.028 -0.00 -0.02    -0.228    16.778
ATOM     17  O   UNL d   1       7.564  20.893  -5.019 -0.01 -0.02    -0.303    16.778
ATOM     18  H   UNL d   1       7.854  20.026  -4.676 +0.03 +0.01    +0.222    16.778
ATOM     19  O   UNL d   1       8.698  19.719  -6.869 -0.05 -0.03    -0.303    16.778
ATOM     20  H   UNL d   1       8.814  19.178  -6.067 +0.05 +0.02    +0.222    16.778
ATOM     21  O   UNL d   1       2.267  19.942  -8.376 -0.01 -0.09    -0.278    16.778
ATOM     22  P   UNL d   1       1.199  19.878  -7.193 -0.04 +0.29    +0.473    16.778
ATOM     23  O   UNL d   1       1.476  18.970  -6.042 -0.49 -0.25    -0.228    16.778
ATOM     24  O   UNL d   1       1.048  21.415  -6.808 -0.00 -0.08    -0.303    16.778
ATOM     25  H   UNL d   1       1.911  21.726  -6.435 +0.01 +0.04    +0.222    16.778
ATOM     26  O   UNL d   1      -0.161  19.602  -7.996 -0.07 -0.23    -0.303    16.778
ATOM     27  H   UNL d   1       0.022  18.990  -8.737 +0.02 +0.17    +0.222    16.778
ATOM     28  O   UNL d   1       6.901  18.373  -5.841 -0.14 -0.02    -0.278    16.778
ATOM     29  P   UNL d   1       7.406  17.930  -4.397 -0.14 +0.02    +0.473    16.778
ATOM     30  O   UNL d   1       8.871  18.035  -4.171 -0.16 -0.02    -0.228    16.778
ATOM     31  O   UNL d   1       6.463  18.840  -3.479 -0.03 -0.00    -0.303    16.778
ATOM     32  H   UNL d   1       6.909  19.705  -3.331 +0.02 +0.00    +0.222    16.778
ATOM     33  O   UNL d   1       6.756  16.484  -4.245 -0.20 +0.00    -0.303    16.778
ATOM     34  H   UNL d   1       6.315  16.239  -5.095 -0.06 -0.05    +0.222    16.778
ATOM     35  O   UNL d   1       3.863  17.665  -9.269 -0.13 -0.06    -0.278    16.778
ATOM     36  P   UNL d   1       2.665  16.746  -9.783 -0.18 +0.16    +0.473    16.778
ATOM     37  O   UNL d   1       2.556  16.599 -11.267 -0.18 -0.07    -0.228    16.778
ATOM     38  O   UNL d   1       2.945  15.382  -9.009 -0.30 -0.10    -0.303    16.778
ATOM     39  H   UNL d   1       3.355  15.584  -8.140 +0.12 +0.07    +0.222    16.778
ATOM     40  O   UNL d   1       1.412  17.366  -9.025 -0.12 -0.21    -0.303    16.778
ATOM     41  H   UNL d   1       1.675  17.809  -8.188 +0.04 +0.20    +0.222    16.778
ATOM     42  O   UNL d   1       5.031  16.452  -6.891 -0.16 +0.01    -0.278    16.778
ATOM     43  P   UNL d   1       3.743  16.021  -6.055 -0.16 +0.12    +0.473    16.778
ATOM     44  O   UNL d   1       2.463  16.722  -6.357 -0.34 -0.22    -0.228    16.778
ATOM     45  O   UNL d   1       3.691  14.447  -6.279 -0.30 -0.04    -0.303    16.778
ATOM     46  H   UNL d   1       4.577  14.043  -6.186 -0.36 -0.05    +0.222    16.778
ATOM     47  O   UNL d   1       4.243  16.118  -4.535 -0.15 -0.02    -0.303    16.778
ATOM     48  H   UNL d   1       4.831  16.895  -4.438 +0.08 +0.01    +0.222    16.778
TER
ENDMDL
MODEL       88
USER    Run = 88
USER    Cluster Rank = 53
USER    Number of conformations in this cluster = 1
USER  
USER    RMSD from reference structure       = 16.474 A
USER  
USER    Estimated Free Energy of Binding    =   +3.09 kcal/mol  [=(1)+(2)+(3)-(4)]
USER    
USER    (1) Final Intermolecular Energy     =   -4.07 kcal/mol
USER        vdW + Hbond + desolv Energy     =   -3.94 kcal/mol
USER        Electrostatic Energy            =   -0.13 kcal/mol
USER    (2) Final Total Internal Energy     =  -13.78 kcal/mol
USER    (3) Torsional Free Energy           =   +7.16 kcal/mol
USER    (4) Unbound System's Energy  [=(2)] =  -13.78 kcal/mol
USER    
USER    
USER  
USER    DPF = D:/Protein_go_brrr/autodock/final/AncB/IHP/dock.dpf
USER    NEWDPF move	IHP_ideal_opt.pdbqt
USER    NEWDPF about	0.035000 0.082000 -0.065000
USER    NEWDPF tran0	19.411129 3.246844 0.344327
USER    NEWDPF axisangle0	0.644992 -0.712124 0.277245 -144.003916
USER    NEWDPF quaternion0	0.613431 -0.677277 0.263679 -0.308984
USER    NEWDPF dihe0	-147.70 -19.96 37.45 34.78 65.05 -114.56 -103.66 32.95 14.79 14.93 71.31 105.06 35.31 159.33 -65.48 -137.62 -180.00 171.55 -137.67 -21.19 -171.59 -29.88 -175.78 22.22 
USER  
USER                              x       y       z    vdW   Elec        q     RMS 
ATOM      1  C   UNL d   1      20.148   1.731   0.725 -0.07 +0.01    +0.194    16.474
ATOM      2  C   UNL d   1      21.052   2.749   0.028 -0.04 +0.02    +0.194    16.474
ATOM      3  C   UNL d   1      20.330   3.458  -1.119 -0.09 +0.02    +0.194    16.474
ATOM      4  C   UNL d   1      18.991   4.064  -0.704 -0.19 +0.01    +0.194    16.474
ATOM      5  C   UNL d   1      18.103   3.118   0.094 -0.27 -0.01    +0.194    16.474
ATOM      6  C   UNL d   1      18.840   2.363   1.202 -0.17 +0.00    +0.194    16.474
ATOM      7  O   UNL d   1      20.832   1.244   1.881 -0.01 -0.02    -0.278    16.474
ATOM      8  P   UNL d   1      20.451   1.860   3.305 -0.00 +0.03    +0.473    16.474
ATOM      9  O   UNL d   1      19.310   1.197   3.994 -0.03 -0.01    -0.228    16.474
ATOM     10  O   UNL d   1      21.812   1.789   4.134 -0.00 -0.02    -0.303    16.474
ATOM     11  H   UNL d   1      22.522   2.238   3.637 +0.00 +0.02    +0.222    16.474
ATOM     12  O   UNL d   1      20.297   3.421   3.052 -0.01 -0.02    -0.303    16.474
ATOM     13  H   UNL d   1      21.141   3.854   2.791 +0.01 +0.02    +0.222    16.474
ATOM     14  O   UNL d   1      21.469   3.734   0.983 -0.01 -0.02    -0.278    16.474
ATOM     15  P   UNL d   1      23.012   3.712   1.407 +0.00 +0.04    +0.473    16.474
ATOM     16  O   UNL d   1      23.325   4.071   2.826 +0.00 -0.02    -0.228    16.474
ATOM     17  O   UNL d   1      23.500   2.245   1.020 -0.00 -0.03    -0.303    16.474
ATOM     18  H   UNL d   1      22.971   1.566   1.480 +0.00 +0.02    +0.222    16.474
ATOM     19  O   UNL d   1      23.741   4.593   0.301 -0.00 -0.03    -0.303    16.474
ATOM     20  H   UNL d   1      23.239   4.609  -0.535 +0.00 +0.02    +0.222    16.474
ATOM     21  O   UNL d   1      17.986   1.298   1.613 -0.17 +0.03    -0.278    16.474
ATOM     22  P   UNL d   1      18.023  -0.092   0.832 -0.16 -0.01    +0.473    16.474
ATOM     23  O   UNL d   1      18.252  -0.067  -0.641 -0.28 -0.02    -0.228    16.474
ATOM     24  O   UNL d   1      19.110  -0.904   1.663 -0.07 -0.02    -0.303    16.474
ATOM     25  H   UNL d   1      19.446  -0.317   2.388 +0.05 +0.01    +0.222    16.474
ATOM     26  O   UNL d   1      16.656  -0.776   1.319 -0.30 +0.02    -0.303    16.474
ATOM     27  H   UNL d   1      15.899  -0.309   0.910 -0.43 -0.07    +0.222    16.474
ATOM     28  O   UNL d   1      21.135   4.560  -1.518 -0.02 -0.04    -0.278    16.474
ATOM     29  P   UNL d   1      22.382   4.337  -2.483 -0.00 +0.07    +0.473    16.474
ATOM     30  O   UNL d   1      23.362   5.453  -2.531 -0.00 -0.03    -0.228    16.474
ATOM     31  O   UNL d   1      22.911   2.929  -1.936 -0.01 -0.04    -0.303    16.474
ATOM     32  H   UNL d   1      23.026   2.995  -0.960 +0.01 +0.03    +0.222    16.474
ATOM     33  O   UNL d   1      21.677   3.939  -3.854 -0.02 -0.07    -0.303    16.474
ATOM     34  H   UNL d   1      21.535   4.757  -4.391 +0.02 +0.06    +0.222    16.474
ATOM     35  O   UNL d   1      17.127   3.944   0.726 -0.22 +0.04    -0.278    16.474
ATOM     36  P   UNL d   1      17.565   5.297   1.449 -0.19 +0.01    +0.473    16.474
ATOM     37  O   UNL d   1      16.946   5.541   2.789 -0.19 -0.03    -0.228    16.474
ATOM     38  O   UNL d   1      19.151   5.153   1.477 -0.05 -0.02    -0.303    16.474
ATOM     39  H   UNL d   1      19.389   4.308   1.917 +0.04 +0.01    +0.222    16.474
ATOM     40  O   UNL d   1      17.299   6.387   0.322 -0.15 +0.00    -0.303    16.474
ATOM     41  H   UNL d   1      17.362   6.001  -0.580 -0.27 -0.04    +0.222    16.474
ATOM     42  O   UNL d   1      18.289   4.384  -1.910 -0.19 -0.01    -0.278    16.474
ATOM     43  P   UNL d   1      18.508   5.818  -2.572 -0.12 +0.08    +0.473    16.474
ATOM     44  O   UNL d   1      17.325   6.474  -3.197 -0.29 -0.07    -0.228    16.474
ATOM     45  O   UNL d   1      19.165   6.653  -1.387 -0.07 -0.04    -0.303    16.474
ATOM     46  H   UNL d   1      19.244   6.117  -0.573 +0.05 +0.02    +0.222    16.474
ATOM     47  O   UNL d   1      19.763   5.587  -3.542 -0.05 -0.09    -0.303    16.474
ATOM     48  H   UNL d   1      20.582   5.548  -3.007 +0.04 +0.05    +0.222    16.474
TER
ENDMDL
MODEL       42
USER    Run = 42
USER    Cluster Rank = 54
USER    Number of conformations in this cluster = 1
USER  
USER    RMSD from reference structure       = 17.500 A
USER  
USER    Estimated Free Energy of Binding    =   +3.18 kcal/mol  [=(1)+(2)+(3)-(4)]
USER    
USER    (1) Final Intermolecular Energy     =   -3.98 kcal/mol
USER        vdW + Hbond + desolv Energy     =   -3.54 kcal/mol
USER        Electrostatic Energy            =   -0.45 kcal/mol
USER    (2) Final Total Internal Energy     =  -12.87 kcal/mol
USER    (3) Torsional Free Energy           =   +7.16 kcal/mol
USER    (4) Unbound System's Energy  [=(2)] =  -12.87 kcal/mol
USER    
USER    
USER  
USER    DPF = D:/Protein_go_brrr/autodock/final/AncB/IHP/dock.dpf
USER    NEWDPF move	IHP_ideal_opt.pdbqt
USER    NEWDPF about	0.035000 0.082000 -0.065000
USER    NEWDPF tran0	-0.517502 17.028554 -13.061802
USER    NEWDPF axisangle0	0.000567 0.698805 -0.715312 -78.559530
USER    NEWDPF quaternion0	0.000359 0.442419 -0.452869 -0.774064
USER    NEWDPF dihe0	26.92 39.57 179.93 -29.36 15.40 -138.36 -131.93 -90.89 138.41 -1.78 55.92 -123.14 -138.85 180.00 -16.69 -148.25 -156.96 -79.74 17.42 14.83 -18.31 5.86 5.24 -179.64 
USER  
USER                              x       y       z    vdW   Elec        q     RMS 
ATOM      1  C   UNL d   1      -0.350  15.309 -13.084 -0.12 +0.04    +0.194    17.500
ATOM      2  C   UNL d   1      -1.414  15.858 -12.131 -0.07 +0.03    +0.194    17.500
ATOM      3  C   UNL d   1      -0.913  17.085 -11.367 -0.06 +0.04    +0.194    17.500
ATOM      4  C   UNL d   1      -0.340  18.168 -12.278 -0.02 +0.04    +0.194    17.500
ATOM      5  C   UNL d   1       0.641  17.647 -13.321 -0.06 +0.04    +0.194    17.500
ATOM      6  C   UNL d   1       0.166  16.384 -14.042 -0.08 +0.04    +0.194    17.500
ATOM      7  O   UNL d   1      -0.949  14.282 -13.878 -0.08 -0.06    -0.278    17.500
ATOM      8  P   UNL d   1      -0.594  12.761 -13.545 -0.14 +0.12    +0.473    17.500
ATOM      9  O   UNL d   1       0.624  12.235 -14.219 -0.31 -0.07    -0.228    17.500
ATOM     10  O   UNL d   1      -0.494  12.727 -11.953 -0.24 -0.04    -0.303    17.500
ATOM     11  H   UNL d   1       0.332  12.281 -11.686 -0.38 -0.06    +0.222    17.500
ATOM     12  O   UNL d   1      -1.937  11.955 -13.811 -0.08 -0.10    -0.303    17.500
ATOM     13  H   UNL d   1      -2.700  12.538 -14.027 +0.05 +0.06    +0.222    17.500
ATOM     14  O   UNL d   1      -2.571  16.234 -12.890 -0.01 -0.04    -0.278    17.500
ATOM     15  P   UNL d   1      -3.990  16.036 -12.176 +0.02 +0.05    +0.473    17.500
ATOM     16  O   UNL d   1      -4.998  15.201 -12.902 -0.00 -0.04    -0.228    17.500
ATOM     17  O   UNL d   1      -3.624  15.452 -10.739 -0.08 +0.05    -0.303    17.500
ATOM     18  H   UNL d   1      -3.404  16.169 -10.114 +0.00 -0.06    +0.222    17.500
ATOM     19  O   UNL d   1      -4.459  17.512 -11.810 +0.00 -0.03    -0.303    17.500
ATOM     20  H   UNL d   1      -4.139  17.784 -10.930 +0.02 +0.02    +0.222    17.500
ATOM     21  O   UNL d   1       1.301  15.838 -14.710 -0.04 -0.08    -0.278    17.500
ATOM     22  P   UNL d   1       1.276  15.655 -16.294 -0.05 +0.12    +0.473    17.500
ATOM     23  O   UNL d   1       0.195  16.336 -17.065 -0.02 -0.05    -0.228    17.500
ATOM     24  O   UNL d   1       2.755  16.086 -16.695 -0.07 -0.08    -0.303    17.500
ATOM     25  H   UNL d   1       2.945  16.964 -16.275 +0.02 +0.05    +0.222    17.500
ATOM     26  O   UNL d   1       1.345  14.060 -16.439 -0.09 -0.10    -0.303    17.500
ATOM     27  H   UNL d   1       0.693  13.654 -15.832 +0.05 +0.07    +0.222    17.500
ATOM     28  O   UNL d   1      -2.035  17.682 -10.731 -0.03 -0.06    -0.278    17.500
ATOM     29  P   UNL d   1      -2.114  17.756  -9.142 -0.05 +0.23    +0.473    17.500
ATOM     30  O   UNL d   1      -3.390  18.278  -8.588 -0.10 -0.05    -0.228    17.500
ATOM     31  O   UNL d   1      -1.725  16.248  -8.773 -0.36 -0.08    -0.303    17.500
ATOM     32  H   UNL d   1      -2.523  15.681  -8.886 -0.50 -0.30    +0.222    17.500
ATOM     33  O   UNL d   1      -0.789  18.560  -8.779 -0.45 -0.27    -0.303    17.500
ATOM     34  H   UNL d   1      -0.091  18.347  -9.446 +0.03 +0.14    +0.222    17.500
ATOM     35  O   UNL d   1       0.745  18.676 -14.303 -0.02 -0.05    -0.278    17.500
ATOM     36  P   UNL d   1       2.172  19.097 -14.879 -0.02 +0.08    +0.473    17.500
ATOM     37  O   UNL d   1       2.636  20.471 -14.512 -0.01 -0.03    -0.228    17.500
ATOM     38  O   UNL d   1       3.102  17.925 -14.334 -0.08 -0.06    -0.303    17.500
ATOM     39  H   UNL d   1       2.864  17.088 -14.789 +0.03 +0.06    +0.222    17.500
ATOM     40  O   UNL d   1       2.020  18.776 -16.429 -0.01 -0.05    -0.303    17.500
ATOM     41  H   UNL d   1       1.576  17.912 -16.581 +0.01 +0.04    +0.222    17.500
ATOM     42  O   UNL d   1       0.381  19.077 -11.440 -0.01 -0.06    -0.278    17.500
ATOM     43  P   UNL d   1       1.734  18.586 -10.754 -0.02 +0.13    +0.473    17.500
ATOM     44  O   UNL d   1       1.818  17.155 -10.346 -0.14 -0.08    -0.228    17.500
ATOM     45  O   UNL d   1       2.840  19.027 -11.809 -0.03 -0.05    -0.303    17.500
ATOM     46  H   UNL d   1       2.445  19.218 -12.683 +0.03 +0.04    +0.222    17.500
ATOM     47  O   UNL d   1       1.959  19.654  -9.580 -0.01 -0.09    -0.303    17.500
ATOM     48  H   UNL d   1       1.166  19.674  -9.006 +0.02 +0.09    +0.222    17.500
TER
ENDMDL
MODEL       73
USER    Run = 73
USER    Cluster Rank = 55
USER    Number of conformations in this cluster = 1
USER  
USER    RMSD from reference structure       = 20.651 A
USER  
USER    Estimated Free Energy of Binding    =   +3.18 kcal/mol  [=(1)+(2)+(3)-(4)]
USER    
USER    (1) Final Intermolecular Energy     =   -3.98 kcal/mol
USER        vdW + Hbond + desolv Energy     =   -3.68 kcal/mol
USER        Electrostatic Energy            =   -0.30 kcal/mol
USER    (2) Final Total Internal Energy     =  -13.96 kcal/mol
USER    (3) Torsional Free Energy           =   +7.16 kcal/mol
USER    (4) Unbound System's Energy  [=(2)] =  -13.96 kcal/mol
USER    
USER    
USER  
USER    DPF = D:/Protein_go_brrr/autodock/final/AncB/IHP/dock.dpf
USER    NEWDPF move	IHP_ideal_opt.pdbqt
USER    NEWDPF about	0.035000 0.082000 -0.065000
USER    NEWDPF tran0	-17.558172 -12.346146 10.824263
USER    NEWDPF axisangle0	-0.128898 0.751293 0.647259 108.991541
USER    NEWDPF quaternion0	-0.104932 0.611607 0.526916 0.580763
USER    NEWDPF dihe0	4.45 108.20 -149.89 9.35 27.18 -160.66 -33.68 -90.74 0.87 99.32 10.10 -151.23 -31.03 164.61 169.86 89.58 -8.75 -41.78 -21.19 -7.12 -5.38 -13.49 -25.79 178.95 
USER  
USER                              x       y       z    vdW   Elec        q     RMS 
ATOM      1  C   UNL d   1     -19.017 -13.236  11.077 -0.01 +0.02    +0.194    20.651
ATOM      2  C   UNL d   1     -18.725 -12.844   9.627 -0.03 +0.01    +0.194    20.651
ATOM      3  C   UNL d   1     -18.222 -11.403   9.520 -0.07 -0.01    +0.194    20.651
ATOM      4  C   UNL d   1     -17.046 -11.106  10.447 -0.13 -0.02    +0.194    20.651
ATOM      5  C   UNL d   1     -17.248 -11.583  11.879 -0.08 +0.01    +0.194    20.651
ATOM      6  C   UNL d   1     -17.809 -13.003  11.986 -0.05 +0.02    +0.194    20.651
ATOM      7  O   UNL d   1     -19.312 -14.634  11.111 -0.01 -0.03    -0.278    20.651
ATOM      8  P   UNL d   1     -20.426 -15.151  12.132 +0.00 +0.04    +0.473    20.651
ATOM      9  O   UNL d   1     -21.379 -14.110  12.606 +0.00 -0.02    -0.228    20.651
ATOM     10  O   UNL d   1     -21.139 -16.347  11.355 -0.00 -0.03    -0.303    20.651
ATOM     11  H   UNL d   1     -22.054 -16.447  11.677 +0.00 +0.02    +0.222    20.651
ATOM     12  O   UNL d   1     -19.622 -15.922  13.265 -0.00 -0.03    -0.303    20.651
ATOM     13  H   UNL d   1     -19.007 -15.340  13.766 +0.01 +0.02    +0.222    20.651
ATOM     14  O   UNL d   1     -17.718 -13.719   9.102 -0.06 -0.02    -0.278    20.651
ATOM     15  P   UNL d   1     -18.088 -14.510   7.759 -0.03 +0.04    +0.473    20.651
ATOM     16  O   UNL d   1     -17.640 -15.935   7.674 -0.07 -0.03    -0.228    20.651
ATOM     17  O   UNL d   1     -19.668 -14.350   7.638 -0.02 -0.03    -0.303    20.651
ATOM     18  H   UNL d   1     -19.909 -13.819   6.855 +0.02 +0.02    +0.222    20.651
ATOM     19  O   UNL d   1     -17.580 -13.561   6.588 -0.09 -0.02    -0.303    20.651
ATOM     20  H   UNL d   1     -17.902 -12.647   6.699 +0.05 +0.01    +0.222    20.651
ATOM     21  O   UNL d   1     -18.258 -13.169  13.329 -0.02 -0.03    -0.278    20.651
ATOM     22  P   UNL d   1     -17.436 -14.102  14.328 -0.04 +0.05    +0.473    20.651
ATOM     23  O   UNL d   1     -18.131 -14.621  15.541 -0.01 -0.02    -0.228    20.651
ATOM     24  O   UNL d   1     -16.881 -15.224  13.345 -0.07 -0.04    -0.303    20.651
ATOM     25  H   UNL d   1     -17.592 -15.436  12.688 +0.03 +0.03    +0.222    20.651
ATOM     26  O   UNL d   1     -16.125 -13.217  14.594 -0.15 -0.04    -0.303    20.651
ATOM     27  H   UNL d   1     -16.339 -12.273  14.448 +0.04 +0.03    +0.222    20.651
ATOM     28  O   UNL d   1     -17.719 -11.222   8.203 -0.11 +0.03    -0.278    20.651
ATOM     29  P   UNL d   1     -18.631 -10.558   7.078 -0.03 -0.03    +0.473    20.651
ATOM     30  O   UNL d   1     -19.028  -9.148   7.325 -0.12 +0.06    -0.228    20.651
ATOM     31  O   UNL d   1     -17.731 -10.842   5.785 -0.13 -0.01    -0.303    20.651
ATOM     32  H   UNL d   1     -17.085 -11.554   6.003 +0.06 +0.00    +0.222    20.651
ATOM     33  O   UNL d   1     -19.806 -11.622   6.929 -0.02 -0.01    -0.303    20.651
ATOM     34  H   UNL d   1     -19.447 -12.524   7.112 +0.03 +0.01    +0.222    20.651
ATOM     35  O   UNL d   1     -15.950 -11.600  12.469 -0.72 -0.06    -0.278    20.651
ATOM     36  P   UNL d   1     -15.521 -10.462  13.501 -0.18 +0.07    +0.473    20.651
ATOM     37  O   UNL d   1     -16.607  -9.965  14.402 -0.09 -0.02    -0.228    20.651
ATOM     38  O   UNL d   1     -14.305 -11.154  14.262 -0.30 -0.09    -0.303    20.651
ATOM     39  H   UNL d   1     -14.649 -11.887  14.817 +0.05 +0.05    +0.222    20.651
ATOM     40  O   UNL d   1     -14.821  -9.391  12.556 -0.80 -0.06    -0.303    20.651
ATOM     41  H   UNL d   1     -15.427  -9.080  11.848 +0.09 -0.00    +0.222    20.651
ATOM     42  O   UNL d   1     -16.905  -9.682  10.494 -0.17 +0.10    -0.278    20.651
ATOM     43  P   UNL d   1     -18.044  -8.817  11.199 -0.08 +0.10    +0.473    20.651
ATOM     44  O   UNL d   1     -19.159  -9.554  11.856 -0.02 -0.03    -0.228    20.651
ATOM     45  O   UNL d   1     -17.213  -7.882  12.184 -0.24 -0.22    -0.303    20.651
ATOM     46  H   UNL d   1     -16.738  -8.407  12.859 +0.07 +0.06    +0.222    20.651
ATOM     47  O   UNL d   1     -18.478  -7.781  10.056 -0.11 -0.08    -0.303    20.651
ATOM     48  H   UNL d   1     -18.315  -8.182   9.178 -0.09 -0.14    +0.222    20.651
TER
ENDMDL
MODEL       75
USER    Run = 75
USER    Cluster Rank = 56
USER    Number of conformations in this cluster = 1
USER  
USER    RMSD from reference structure       = 16.203 A
USER  
USER    Estimated Free Energy of Binding    =   +3.19 kcal/mol  [=(1)+(2)+(3)-(4)]
USER    
USER    (1) Final Intermolecular Energy     =   -3.96 kcal/mol
USER        vdW + Hbond + desolv Energy     =   -3.88 kcal/mol
USER        Electrostatic Energy            =   -0.08 kcal/mol
USER    (2) Final Total Internal Energy     =  -13.96 kcal/mol
USER    (3) Torsional Free Energy           =   +7.16 kcal/mol
USER    (4) Unbound System's Energy  [=(2)] =  -13.96 kcal/mol
USER    
USER    
USER  
USER    DPF = D:/Protein_go_brrr/autodock/final/AncB/IHP/dock.dpf
USER    NEWDPF move	IHP_ideal_opt.pdbqt
USER    NEWDPF about	0.035000 0.082000 -0.065000
USER    NEWDPF tran0	6.018085 4.766611 15.583124
USER    NEWDPF axisangle0	0.379737 -0.382747 0.842202 111.599434
USER    NEWDPF quaternion0	0.314072 -0.316562 0.696567 0.562087
USER    NEWDPF dihe0	98.37 57.07 36.36 58.83 161.73 109.74 42.73 -84.16 17.23 12.72 52.38 134.02 174.80 163.84 -108.42 99.11 177.14 -176.89 -8.01 -28.59 138.63 -32.24 -171.89 19.90 
USER  
USER                              x       y       z    vdW   Elec        q     RMS 
ATOM      1  C   UNL d   1       5.913   3.616  16.867 -0.10 -0.03    +0.194    16.203
ATOM      2  C   UNL d   1       5.364   5.008  17.181 -0.10 -0.03    +0.194    16.203
ATOM      3  C   UNL d   1       6.283   6.112  16.655 -0.05 -0.02    +0.194    16.203
ATOM      4  C   UNL d   1       6.634   5.950  15.178 -0.07 -0.02    +0.194    16.203
ATOM      5  C   UNL d   1       7.078   4.543  14.797 -0.08 -0.01    +0.194    16.203
ATOM      6  C   UNL d   1       6.193   3.437  15.374 -0.03 -0.03    +0.194    16.203
ATOM      7  O   UNL d   1       4.922   2.652  17.233 -0.20 +0.04    -0.278    16.203
ATOM      8  P   UNL d   1       5.367   1.411  18.134 -0.07 -0.02    +0.473    16.203
ATOM      9  O   UNL d   1       4.872   0.086  17.671 -0.11 +0.01    -0.228    16.203
ATOM     10  O   UNL d   1       6.959   1.509  18.170 -0.02 +0.01    -0.303    16.203
ATOM     11  H   UNL d   1       7.310   1.456  17.261 +0.02 -0.00    +0.222    16.203
ATOM     12  O   UNL d   1       4.975   1.817  19.619 -0.06 +0.02    -0.303    16.203
ATOM     13  H   UNL d   1       4.398   2.612  19.662 +0.05 -0.02    +0.222    16.203
ATOM     14  O   UNL d   1       4.078   5.153  16.565 -0.15 +0.10    -0.278    16.203
ATOM     15  P   UNL d   1       2.804   5.024  17.527 -0.26 -0.18    +0.473    16.203
ATOM     16  O   UNL d   1       1.619   4.294  16.979 -0.55 +0.11    -0.228    16.203
ATOM     17  O   UNL d   1       3.385   4.354  18.850 -0.21 +0.05    -0.303    16.203
ATOM     18  H   UNL d   1       3.785   3.484  18.658 +0.07 -0.03    +0.222    16.203
ATOM     19  O   UNL d   1       2.526   6.512  18.018 -0.24 +0.12    -0.303    16.203
ATOM     20  H   UNL d   1       3.175   7.140  17.651 +0.09 -0.07    +0.222    16.203
ATOM     21  O   UNL d   1       6.913   2.215  15.227 -0.45 -0.01    -0.278    16.203
ATOM     22  P   UNL d   1       8.498   2.203  15.408 -0.01 -0.00    +0.473    16.203
ATOM     23  O   UNL d   1       9.339   2.696  14.279 -0.01 -0.00    -0.228    16.203
ATOM     24  O   UNL d   1       8.676   3.001  16.773 -0.00 +0.00    -0.303    16.203
ATOM     25  H   UNL d   1       8.742   2.342  17.509 +0.01 -0.00    +0.222    16.203
ATOM     26  O   UNL d   1       8.761   0.691  15.872 -0.00 -0.00    -0.303    16.203
ATOM     27  H   UNL d   1       8.333   0.541  16.739 +0.01 +0.00    +0.222    16.203
ATOM     28  O   UNL d   1       5.572   7.340  16.741 -0.03 +0.03    -0.278    16.203
ATOM     29  P   UNL d   1       5.432   8.093  18.138 +0.01 -0.05    +0.473    16.203
ATOM     30  O   UNL d   1       6.664   8.759  18.633 -0.01 +0.01    -0.228    16.203
ATOM     31  O   UNL d   1       4.174   9.032  17.824 -0.08 +0.05    -0.303    16.203
ATOM     32  H   UNL d   1       3.357   8.575  18.130 +0.10 -0.05    +0.222    16.203
ATOM     33  O   UNL d   1       4.803   6.961  19.065 -0.03 +0.04    -0.303    16.203
ATOM     34  H   UNL d   1       4.316   6.314  18.498 +0.07 -0.04    +0.222    16.203
ATOM     35  O   UNL d   1       6.965   4.473  13.377 -0.09 +0.01    -0.278    16.203
ATOM     36  P   UNL d   1       5.708   5.120  12.637 -0.19 -0.03    +0.473    16.203
ATOM     37  O   UNL d   1       5.130   4.310  11.520 -0.40 +0.01    -0.228    16.203
ATOM     38  O   UNL d   1       4.707   5.367  13.851 -0.19 +0.08    -0.303    16.203
ATOM     39  H   UNL d   1       4.595   4.530  14.351 -0.36 -0.14    +0.222    16.203
ATOM     40  O   UNL d   1       6.238   6.575  12.275 -0.16 -0.00    -0.303    16.203
ATOM     41  H   UNL d   1       6.912   6.888  12.919 +0.08 +0.00    +0.222    16.203
ATOM     42  O   UNL d   1       7.736   6.825  14.915 -0.02 +0.01    -0.278    16.203
ATOM     43  P   UNL d   1       7.439   8.312  14.421 -0.02 -0.01    +0.473    16.203
ATOM     44  O   UNL d   1       8.186   8.802  13.229 -0.04 -0.01    -0.228    16.203
ATOM     45  O   UNL d   1       5.858   8.311  14.243 -0.10 +0.02    -0.303    16.203
ATOM     46  H   UNL d   1       5.509   7.403  14.147 +0.09 -0.01    +0.222    16.203
ATOM     47  O   UNL d   1       7.617   9.183  15.755 -0.01 +0.01    -0.303    16.203
ATOM     48  H   UNL d   1       7.133   8.751  16.489 +0.02 -0.01    +0.222    16.203
TER
ENDMDL
MODEL       79
USER    Run = 79
USER    Cluster Rank = 57
USER    Number of conformations in this cluster = 1
USER  
USER    RMSD from reference structure       = 17.330 A
USER  
USER    Estimated Free Energy of Binding    =   +3.23 kcal/mol  [=(1)+(2)+(3)-(4)]
USER    
USER    (1) Final Intermolecular Energy     =   -3.93 kcal/mol
USER        vdW + Hbond + desolv Energy     =   -3.91 kcal/mol
USER        Electrostatic Energy            =   -0.01 kcal/mol
USER    (2) Final Total Internal Energy     =  -12.18 kcal/mol
USER    (3) Torsional Free Energy           =   +7.16 kcal/mol
USER    (4) Unbound System's Energy  [=(2)] =  -12.18 kcal/mol
USER    
USER    
USER  
USER    DPF = D:/Protein_go_brrr/autodock/final/AncB/IHP/dock.dpf
USER    NEWDPF move	IHP_ideal_opt.pdbqt
USER    NEWDPF about	0.035000 0.082000 -0.065000
USER    NEWDPF tran0	0.199163 9.930726 -16.723104
USER    NEWDPF axisangle0	0.002145 -0.999746 0.022455 78.239741
USER    NEWDPF quaternion0	0.001354 -0.630784 0.014168 0.775828
USER    NEWDPF dihe0	-59.35 98.91 3.79 -6.66 35.87 -179.62 -23.37 -121.78 127.07 1.90 125.65 122.20 -13.53 174.15 10.51 124.83 -113.96 98.00 -58.61 -38.87 117.35 -46.26 138.80 -46.34 
USER  
USER                              x       y       z    vdW   Elec        q     RMS 
ATOM      1  C   UNL d   1       1.211   9.001 -17.770 -0.06 +0.15    +0.194    17.330
ATOM      2  C   UNL d   1       0.579   8.233 -16.608 -0.15 +0.14    +0.194    17.330
ATOM      3  C   UNL d   1       0.642   9.028 -15.302 -0.20 +0.12    +0.194    17.330
ATOM      4  C   UNL d   1       0.082  10.442 -15.432 -0.21 +0.09    +0.194    17.330
ATOM      5  C   UNL d   1       0.599  11.206 -16.644 -0.14 +0.09    +0.194    17.330
ATOM      6  C   UNL d   1       0.593  10.390 -17.939 -0.09 +0.11    +0.194    17.330
ATOM      7  O   UNL d   1       0.959   8.274 -18.975 -0.06 -0.20    -0.278    17.330
ATOM      8  P   UNL d   1       1.493   8.879 -20.353 -0.04 +0.33    +0.473    17.330
ATOM      9  O   UNL d   1       2.825   9.539 -20.278 -0.12 -0.26    -0.228    17.330
ATOM     10  O   UNL d   1       1.462   7.641 -21.358 -0.01 -0.17    -0.303    17.330
ATOM     11  H   UNL d   1       1.191   7.946 -22.244 +0.01 +0.10    +0.222    17.330
ATOM     12  O   UNL d   1       0.303   9.780 -20.897 -0.01 -0.13    -0.303    17.330
ATOM     13  H   UNL d   1      -0.008  10.445 -20.243 +0.01 +0.09    +0.222    17.330
ATOM     14  O   UNL d   1      -0.796   7.968 -16.915 -0.03 -0.19    -0.278    17.330
ATOM     15  P   UNL d   1      -1.114   6.568 -17.623 -0.00 +0.35    +0.473    17.330
ATOM     16  O   UNL d   1      -1.969   6.614 -18.850 -0.00 -0.13    -0.228    17.330
ATOM     17  O   UNL d   1       0.323   5.935 -17.895 -0.02 -0.20    -0.303    17.330
ATOM     18  H   UNL d   1       0.650   6.177 -18.783 +0.04 +0.14    +0.222    17.330
ATOM     19  O   UNL d   1      -1.653   5.642 -16.447 -0.08 -0.41    -0.303    17.330
ATOM     20  H   UNL d   1      -0.957   5.452 -15.791 +0.06 +0.31    +0.222    17.330
ATOM     21  O   UNL d   1       1.403  11.097 -18.875 -0.06 -0.16    -0.278    17.330
ATOM     22  P   UNL d   1       2.375  12.254 -18.366 -0.07 +0.26    +0.473    17.330
ATOM     23  O   UNL d   1       3.127  12.036 -17.096 -0.20 -0.15    -0.228    17.330
ATOM     24  O   UNL d   1       3.286  12.501 -19.647 -0.04 -0.16    -0.303    17.330
ATOM     25  H   UNL d   1       3.361  11.645 -20.142 +0.02 +0.15    +0.222    17.330
ATOM     26  O   UNL d   1       1.406  13.531 -18.398 -0.02 -0.10    -0.303    17.330
ATOM     27  H   UNL d   1       0.496  13.240 -18.613 +0.03 +0.07    +0.222    17.330
ATOM     28  O   UNL d   1      -0.199   8.373 -14.361 -0.20 -0.19    -0.278    17.330
ATOM     29  P   UNL d   1       0.145   6.901 -13.862 -0.32 +0.39    +0.473    17.330
ATOM     30  O   UNL d   1       0.834   6.815 -12.548 -0.49 -0.11    -0.228    17.330
ATOM     31  O   UNL d   1      -1.301   6.224 -13.970 -0.58 -0.58    -0.303    17.330
ATOM     32  H   UNL d   1      -1.809   6.681 -14.679 +0.07 +0.41    +0.222    17.330
ATOM     33  O   UNL d   1       0.913   6.293 -15.117 -0.19 -0.23    -0.303    17.330
ATOM     34  H   UNL d   1       0.296   6.268 -15.889 +0.09 +0.19    +0.222    17.330
ATOM     35  O   UNL d   1      -0.304  12.294 -16.830 -0.04 -0.10    -0.278    17.330
ATOM     36  P   UNL d   1      -1.582  12.128 -17.771 +0.00 +0.15    +0.473    17.330
ATOM     37  O   UNL d   1      -1.294  12.010 -19.234 -0.01 -0.07    -0.228    17.330
ATOM     38  O   UNL d   1      -2.289  10.848 -17.138 -0.01 -0.11    -0.303    17.330
ATOM     39  H   UNL d   1      -2.474  11.020 -16.190 +0.03 +0.08    +0.222    17.330
ATOM     40  O   UNL d   1      -2.502  13.340 -17.311 -0.00 -0.08    -0.303    17.330
ATOM     41  H   UNL d   1      -2.477  13.468 -16.337 +0.02 +0.06    +0.222    17.330
ATOM     42  O   UNL d   1       0.504  11.163 -14.269 -0.30 -0.10    -0.278    17.330
ATOM     43  P   UNL d   1      -0.323  12.450 -13.817 -0.13 +0.13    +0.473    17.330
ATOM     44  O   UNL d   1      -0.473  12.692 -12.355 -0.28 -0.03    -0.228    17.330
ATOM     45  O   UNL d   1       0.409  13.627 -14.600 -0.16 -0.09    -0.303    17.330
ATOM     46  H   UNL d   1       0.475  13.434 -15.557 +0.06 +0.07    +0.222    17.330
ATOM     47  O   UNL d   1      -1.692  12.314 -14.640 -0.06 -0.09    -0.303    17.330
ATOM     48  H   UNL d   1      -1.491  12.292 -15.599 +0.04 +0.07    +0.222    17.330
TER
ENDMDL
MODEL        3
USER    Run = 3
USER    Cluster Rank = 58
USER    Number of conformations in this cluster = 1
USER  
USER    RMSD from reference structure       = 17.658 A
USER  
USER    Estimated Free Energy of Binding    =   +3.29 kcal/mol  [=(1)+(2)+(3)-(4)]
USER    
USER    (1) Final Intermolecular Energy     =   -3.87 kcal/mol
USER        vdW + Hbond + desolv Energy     =   -3.85 kcal/mol
USER        Electrostatic Energy            =   -0.02 kcal/mol
USER    (2) Final Total Internal Energy     =  -12.48 kcal/mol
USER    (3) Torsional Free Energy           =   +7.16 kcal/mol
USER    (4) Unbound System's Energy  [=(2)] =  -12.48 kcal/mol
USER    
USER    
USER  
USER    DPF = D:/Protein_go_brrr/autodock/final/AncB/IHP/dock.dpf
USER    NEWDPF move	IHP_ideal_opt.pdbqt
USER    NEWDPF about	0.035000 0.082000 -0.065000
USER    NEWDPF tran0	5.082077 11.726157 15.289881
USER    NEWDPF axisangle0	0.058393 -0.995157 0.079071 80.854323
USER    NEWDPF quaternion0	0.037867 -0.645340 0.051276 0.761231
USER    NEWDPF dihe0	-168.43 -12.31 78.21 97.18 -45.90 133.18 -12.96 -73.85 -90.70 67.48 122.64 134.77 79.47 -138.46 -31.89 -47.39 16.08 -119.68 9.06 -0.76 173.26 7.28 79.49 -4.56 
USER  
USER                              x       y       z    vdW   Elec        q     RMS 
ATOM      1  C   UNL d   1       6.039  10.680  14.304 -0.15 -0.02    +0.194    17.658
ATOM      2  C   UNL d   1       5.450  10.044  15.564 -0.13 -0.02    +0.194    17.658
ATOM      3  C   UNL d   1       5.576  10.968  16.777 -0.08 -0.01    +0.194    17.658
ATOM      4  C   UNL d   1       5.025  12.369  16.525 -0.12 -0.01    +0.194    17.658
ATOM      5  C   UNL d   1       5.497  12.997  15.220 -0.11 -0.01    +0.194    17.658
ATOM      6  C   UNL d   1       5.428  12.052  14.018 -0.20 -0.02    +0.194    17.658
ATOM      7  O   UNL d   1       5.729   9.836  13.192 -0.21 +0.02    -0.278    17.658
ATOM      8  P   UNL d   1       6.930   9.093  12.445 -0.14 +0.00    +0.473    17.658
ATOM      9  O   UNL d   1       6.727   7.636  12.219 -0.20 -0.01    -0.228    17.658
ATOM     10  O   UNL d   1       7.114   9.919  11.092 -0.21 -0.01    -0.303    17.658
ATOM     11  H   UNL d   1       6.917  10.860  11.255 +0.07 +0.01    +0.222    17.658
ATOM     12  O   UNL d   1       8.234   9.493  13.259 -0.03 -0.01    -0.303    17.658
ATOM     13  H   UNL d   1       8.375  10.466  13.308 +0.04 +0.00    +0.222    17.658
ATOM     14  O   UNL d   1       4.061   9.769  15.342 -0.25 +0.06    -0.278    17.658
ATOM     15  P   UNL d   1       3.553   8.298  15.720 -0.23 -0.12    +0.473    17.658
ATOM     16  O   UNL d   1       3.770   7.228  14.696 -0.25 +0.04    -0.228    17.658
ATOM     17  O   UNL d   1       4.276   7.982  17.105 -0.08 +0.06    -0.303    17.658
ATOM     18  H   UNL d   1       5.031   8.584  17.252 +0.07 -0.03    +0.222    17.658
ATOM     19  O   UNL d   1       2.047   8.505  16.187 -0.29 +0.17    -0.303    17.658
ATOM     20  H   UNL d   1       1.595   9.184  15.653 -0.37 -0.18    +0.222    17.658
ATOM     21  O   UNL d   1       6.204  12.648  12.981 -0.14 +0.02    -0.278    17.658
ATOM     22  P   UNL d   1       7.794  12.699  13.111 -0.02 -0.00    +0.473    17.658
ATOM     23  O   UNL d   1       8.418  12.148  14.349 -0.01 +0.00    -0.228    17.658
ATOM     24  O   UNL d   1       8.253  11.993  11.761 -0.04 -0.01    -0.303    17.658
ATOM     25  H   UNL d   1       8.672  11.126  11.994 +0.04 +0.01    +0.222    17.658
ATOM     26  O   UNL d   1       8.096  14.242  12.798 -0.01 +0.00    -0.303    17.658
ATOM     27  H   UNL d   1       7.526  14.538  12.059 +0.03 -0.01    +0.222    17.658
ATOM     28  O   UNL d   1       4.769  10.425  17.814 -0.08 +0.03    -0.278    17.658
ATOM     29  P   UNL d   1       5.430   9.954  19.184 -0.01 -0.03    +0.473    17.658
ATOM     30  O   UNL d   1       6.209   8.690  19.119 -0.01 +0.02    -0.228    17.658
ATOM     31  O   UNL d   1       6.232  11.281  19.579 -0.01 +0.01    -0.303    17.658
ATOM     32  H   UNL d   1       5.681  12.063  19.343 +0.02 -0.01    +0.222    17.658
ATOM     33  O   UNL d   1       4.189   9.983  20.182 -0.04 +0.03    -0.303    17.658
ATOM     34  H   UNL d   1       3.453  10.493  19.763 +0.05 -0.02    +0.222    17.658
ATOM     35  O   UNL d   1       4.598  14.073  14.961 -0.11 +0.01    -0.278    17.658
ATOM     36  P   UNL d   1       4.276  14.508  13.460 -0.13 -0.07    +0.473    17.658
ATOM     37  O   UNL d   1       3.656  13.452  12.601 -0.10 +0.09    -0.228    17.658
ATOM     38  O   UNL d   1       3.360  15.792  13.682 -0.12 +0.05    -0.303    17.658
ATOM     39  H   UNL d   1       2.852  15.970  12.862 +0.04 -0.06    +0.222    17.658
ATOM     40  O   UNL d   1       5.666  15.109  12.975 -0.06 +0.03    -0.303    17.658
ATOM     41  H   UNL d   1       6.422  14.725  13.473 +0.04 -0.01    +0.222    17.658
ATOM     42  O   UNL d   1       5.503  13.200  17.589 -0.04 +0.01    -0.278    17.658
ATOM     43  P   UNL d   1       4.449  13.840  18.600 -0.09 -0.01    +0.473    17.658
ATOM     44  O   UNL d   1       3.622  14.975  18.103 -0.12 -0.00    -0.228    17.658
ATOM     45  O   UNL d   1       3.604  12.576  19.072 -0.13 +0.01    -0.303    17.658
ATOM     46  H   UNL d   1       4.186  11.844  19.357 +0.04 -0.01    +0.222    17.658
ATOM     47  O   UNL d   1       5.331  14.147  19.903 -0.02 +0.01    -0.303    17.658
ATOM     48  H   UNL d   1       5.884  13.365  20.110 +0.02 -0.01    +0.222    17.658
TER
ENDMDL
MODEL       78
USER    Run = 78
USER    Cluster Rank = 59
USER    Number of conformations in this cluster = 1
USER  
USER    RMSD from reference structure       = 13.564 A
USER  
USER    Estimated Free Energy of Binding    =   +3.31 kcal/mol  [=(1)+(2)+(3)-(4)]
USER    
USER    (1) Final Intermolecular Energy     =   -3.85 kcal/mol
USER        vdW + Hbond + desolv Energy     =   -3.71 kcal/mol
USER        Electrostatic Energy            =   -0.14 kcal/mol
USER    (2) Final Total Internal Energy     =  -13.11 kcal/mol
USER    (3) Torsional Free Energy           =   +7.16 kcal/mol
USER    (4) Unbound System's Energy  [=(2)] =  -13.11 kcal/mol
USER    
USER    
USER  
USER    DPF = D:/Protein_go_brrr/autodock/final/AncB/IHP/dock.dpf
USER    NEWDPF move	IHP_ideal_opt.pdbqt
USER    NEWDPF about	0.035000 0.082000 -0.065000
USER    NEWDPF tran0	10.526681 12.806223 4.373184
USER    NEWDPF axisangle0	0.381019 0.790124 0.480134 -130.796883
USER    NEWDPF quaternion0	0.346432 0.718400 0.436550 -0.416306
USER    NEWDPF dihe0	-163.75 -2.42 41.47 63.09 -0.06 173.04 -78.77 84.96 -28.61 1.31 -9.08 -66.21 63.00 153.73 179.53 -153.38 -13.96 -179.84 2.67 -19.04 -27.50 -26.93 5.06 -34.25 
USER  
USER                              x       y       z    vdW   Elec        q     RMS 
ATOM      1  C   UNL d   1      10.602  13.817   2.974 -0.03 +0.03    +0.194    13.564
ATOM      2  C   UNL d   1      10.677  12.313   2.707 -0.09 +0.06    +0.194    13.564
ATOM      3  C   UNL d   1      11.596  11.605   3.706 -0.09 +0.09    +0.194    13.564
ATOM      4  C   UNL d   1      11.256  11.917   5.161 -0.07 +0.11    +0.194    13.564
ATOM      5  C   UNL d   1      11.058  13.400   5.449 -0.02 +0.05    +0.194    13.564
ATOM      6  C   UNL d   1      10.189  14.121   4.415 -0.01 +0.03    +0.194    13.564
ATOM      7  O   UNL d   1       9.600  14.372   2.118 -0.04 -0.01    -0.278    13.564
ATOM      8  P   UNL d   1      10.035  15.497   1.071 -0.05 +0.01    +0.473    13.564
ATOM      9  O   UNL d   1       9.910  15.108  -0.361 -0.13 -0.02    -0.228    13.564
ATOM     10  O   UNL d   1       9.138  16.757   1.461 -0.02 +0.02    -0.303    13.564
ATOM     11  H   UNL d   1       9.056  16.812   2.431 +0.02 -0.02    +0.222    13.564
ATOM     12  O   UNL d   1      11.481  15.961   1.539 -0.02 -0.02    -0.303    13.564
ATOM     13  H   UNL d   1      11.533  16.145   2.504 +0.01 +0.01    +0.222    13.564
ATOM     14  O   UNL d   1       9.363  11.752   2.820 -0.12 -0.11    -0.278    13.564
ATOM     15  P   UNL d   1       8.706  11.193   1.471 -0.26 +0.10    +0.473    13.564
ATOM     16  O   UNL d   1       7.213  11.239   1.382 -0.38 -0.01    -0.228    13.564
ATOM     17  O   UNL d   1       9.419  12.029   0.317 -0.11 -0.02    -0.303    13.564
ATOM     18  H   UNL d   1       9.331  12.988   0.473 +0.03 +0.01    +0.222    13.564
ATOM     19  O   UNL d   1       9.361   9.756   1.276 -0.31 -0.13    -0.303    13.564
ATOM     20  H   UNL d   1       9.949   9.525   2.018 +0.12 +0.15    +0.222    13.564
ATOM     21  O   UNL d   1      10.380  15.519   4.619 +0.00 -0.02    -0.278    13.564
ATOM     22  P   UNL d   1       9.114  16.479   4.756 +0.01 -0.02    +0.473    13.564
ATOM     23  O   UNL d   1       9.250  17.894   4.304 +0.00 +0.01    -0.228    13.564
ATOM     24  O   UNL d   1       7.988  15.643   4.002 -0.01 +0.05    -0.303    13.564
ATOM     25  H   UNL d   1       8.234  15.590   3.044 +0.03 -0.03    +0.222    13.564
ATOM     26  O   UNL d   1       8.709  16.268   6.293 +0.00 +0.01    -0.303    13.564
ATOM     27  H   UNL d   1       9.319  15.619   6.700 +0.01 +0.01    +0.222    13.564
ATOM     28  O   UNL d   1      11.389  10.206   3.562 -0.15 -0.22    -0.278    13.564
ATOM     29  P   UNL d   1      12.158   9.392   2.429 -0.22 +0.24    +0.473    13.564
ATOM     30  O   UNL d   1      11.851   7.940   2.364 -0.38 -0.14    -0.228    13.564
ATOM     31  O   UNL d   1      11.781  10.273   1.147 -0.19 -0.10    -0.303    13.564
ATOM     32  H   UNL d   1      10.918  10.718   1.315 +0.12 +0.07    +0.222    13.564
ATOM     33  O   UNL d   1      13.675   9.796   2.699 -0.09 -0.10    -0.303    13.564
ATOM     34  H   UNL d   1      14.252   9.014   2.517 +0.07 +0.07    +0.222    13.564
ATOM     35  O   UNL d   1      10.368  13.464   6.695 -0.02 -0.07    -0.278    13.564
ATOM     36  P   UNL d   1      10.823  14.507   7.814 +0.01 +0.06    +0.473    13.564
ATOM     37  O   UNL d   1      11.426  15.777   7.304 +0.00 -0.02    -0.228    13.564
ATOM     38  O   UNL d   1       9.476  14.707   8.640 -0.00 -0.02    -0.303    13.564
ATOM     39  H   UNL d   1       9.035  15.531   8.340 +0.01 +0.00    +0.222    13.564
ATOM     40  O   UNL d   1      11.727  13.610   8.766 +0.00 -0.04    -0.303    13.564
ATOM     41  H   UNL d   1      11.341  12.715   8.898 +0.01 +0.05    +0.222    13.564
ATOM     42  O   UNL d   1      12.368  11.481   5.950 -0.08 -0.14    -0.278    13.564
ATOM     43  P   UNL d   1      12.095  10.881   7.403 -0.05 +0.27    +0.473    13.564
ATOM     44  O   UNL d   1      12.958  11.362   8.518 -0.00 -0.06    -0.228    13.564
ATOM     45  O   UNL d   1      10.543  11.164   7.611 -0.61 -0.25    -0.303    13.564
ATOM     46  H   UNL d   1      10.384  12.081   7.913 +0.03 +0.10    +0.222    13.564
ATOM     47  O   UNL d   1      12.107   9.297   7.153 -0.66 -0.32    -0.303    13.564
ATOM     48  H   UNL d   1      12.885   8.906   7.601 +0.02 +0.13    +0.222    13.564
TER
ENDMDL
MODEL       28
USER    Run = 28
USER    Cluster Rank = 60
USER    Number of conformations in this cluster = 1
USER  
USER    RMSD from reference structure       = 13.315 A
USER  
USER    Estimated Free Energy of Binding    =   +3.32 kcal/mol  [=(1)+(2)+(3)-(4)]
USER    
USER    (1) Final Intermolecular Energy     =   -3.84 kcal/mol
USER        vdW + Hbond + desolv Energy     =   -3.73 kcal/mol
USER        Electrostatic Energy            =   -0.11 kcal/mol
USER    (2) Final Total Internal Energy     =  -14.41 kcal/mol
USER    (3) Torsional Free Energy           =   +7.16 kcal/mol
USER    (4) Unbound System's Energy  [=(2)] =  -14.41 kcal/mol
USER    
USER    
USER  
USER    DPF = D:/Protein_go_brrr/autodock/final/AncB/IHP/dock.dpf
USER    NEWDPF move	IHP_ideal_opt.pdbqt
USER    NEWDPF about	0.035000 0.082000 -0.065000
USER    NEWDPF tran0	10.565888 12.288604 4.749580
USER    NEWDPF axisangle0	0.785070 0.490591 0.378134 145.250699
USER    NEWDPF quaternion0	0.749249 0.468207 0.360880 0.298619
USER    NEWDPF dihe0	-155.49 -4.02 105.40 122.32 2.41 -113.66 -149.05 -100.64 37.60 98.66 33.18 -136.40 89.81 93.59 -19.93 62.52 -76.21 134.21 -10.03 7.58 158.69 27.64 -7.85 -10.24 
USER  
USER                              x       y       z    vdW   Elec        q     RMS 
ATOM      1  C   UNL d   1      10.335  13.859   5.431 -0.02 +0.04    +0.194    13.315
ATOM      2  C   UNL d   1       9.126  13.271   4.702 -0.06 +0.05    +0.194    13.315
ATOM      3  C   UNL d   1       9.528  12.600   3.387 -0.09 +0.06    +0.194    13.315
ATOM      4  C   UNL d   1      10.654  11.582   3.551 -0.11 +0.10    +0.194    13.315
ATOM      5  C   UNL d   1      11.834  12.089   4.371 -0.06 +0.08    +0.194    13.315
ATOM      6  C   UNL d   1      11.429  12.815   5.656 -0.04 +0.07    +0.194    13.315
ATOM      7  O   UNL d   1       9.905  14.309   6.718 -0.00 -0.04    -0.278    13.315
ATOM      8  P   UNL d   1      10.348  15.767   7.200 +0.01 +0.02    +0.473    13.315
ATOM      9  O   UNL d   1       9.311  16.525   7.951 -0.00 -0.00    -0.228    13.315
ATOM     10  O   UNL d   1      11.674  15.507   8.048 +0.00 -0.02    -0.303    13.315
ATOM     11  H   UNL d   1      12.265  14.906   7.555 +0.00 +0.02    +0.222    13.315
ATOM     12  O   UNL d   1      10.920  16.476   5.898 +0.00 -0.01    -0.303    13.315
ATOM     13  H   UNL d   1      11.571  15.922   5.412 +0.00 +0.02    +0.222    13.315
ATOM     14  O   UNL d   1       8.505  12.291   5.544 -0.07 -0.17    -0.278    13.315
ATOM     15  P   UNL d   1       6.904  12.280   5.569 -0.09 +0.11    +0.473    13.315
ATOM     16  O   UNL d   1       6.244  10.957   5.801 -0.87 -0.11    -0.228    13.315
ATOM     17  O   UNL d   1       6.527  13.361   6.678 -0.07 +0.01    -0.303    13.315
ATOM     18  H   UNL d   1       7.314  13.867   6.958 +0.06 +0.01    +0.222    13.315
ATOM     19  O   UNL d   1       6.481  13.033   4.233 -0.15 +0.10    -0.303    13.315
ATOM     20  H   UNL d   1       6.785  12.556   3.439 +0.11 -0.05    +0.222    13.315
ATOM     21  O   UNL d   1      12.584  13.511   6.117 +0.00 -0.06    -0.278    13.315
ATOM     22  P   UNL d   1      13.317  14.553   5.157 +0.01 +0.06    +0.473    13.315
ATOM     23  O   UNL d   1      12.636  14.940   3.887 -0.00 -0.03    -0.228    13.315
ATOM     24  O   UNL d   1      13.611  15.761   6.151 +0.00 -0.03    -0.303    13.315
ATOM     25  H   UNL d   1      12.742  16.126   6.458 +0.00 +0.02    +0.222    13.315
ATOM     26  O   UNL d   1      14.768  13.890   5.003 +0.00 -0.04    -0.303    13.315
ATOM     27  H   UNL d   1      14.700  13.094   4.437 +0.01 +0.04    +0.222    13.315
ATOM     28  O   UNL d   1       8.409  11.853   2.928 -0.15 -0.09    -0.278    13.315
ATOM     29  P   UNL d   1       8.016  11.860   1.384 -0.21 +0.02    +0.473    13.315
ATOM     30  O   UNL d   1       9.157  11.888   0.433 -0.20 -0.02    -0.228    13.315
ATOM     31  O   UNL d   1       7.060  10.577   1.334 -0.35 -0.02    -0.303    13.315
ATOM     32  H   UNL d   1       7.586   9.806   1.018 -0.24 +0.02    +0.222    13.315
ATOM     33  O   UNL d   1       6.985  13.070   1.307 -0.22 +0.09    -0.303    13.315
ATOM     34  H   UNL d   1       6.389  13.035   2.095 +0.11 -0.13    +0.222    13.315
ATOM     35  O   UNL d   1      12.564  10.927   4.757 -0.08 -0.15    -0.278    13.315
ATOM     36  P   UNL d   1      14.105  10.779   4.370 -0.01 +0.14    +0.473    13.315
ATOM     37  O   UNL d   1      14.510  11.421   3.081 -0.03 -0.05    -0.228    13.315
ATOM     38  O   UNL d   1      14.824  11.382   5.657 +0.00 -0.07    -0.303    13.315
ATOM     39  H   UNL d   1      14.262  12.092   6.035 +0.01 +0.05    +0.222    13.315
ATOM     40  O   UNL d   1      14.339   9.211   4.501 -0.05 -0.11    -0.303    13.315
ATOM     41  H   UNL d   1      13.724   8.702   3.927 +0.06 +0.10    +0.222    13.315
ATOM     42  O   UNL d   1      11.147  11.294   2.238 -0.10 -0.10    -0.278    13.315
ATOM     43  P   UNL d   1      11.108   9.788   1.713 -0.25 +0.22    +0.473    13.315
ATOM     44  O   UNL d   1      11.627   9.525   0.342 -0.37 -0.07    -0.228    13.315
ATOM     45  O   UNL d   1      11.875   8.998   2.862 -0.24 -0.21    -0.303    13.315
ATOM     46  H   UNL d   1      12.646   9.503   3.190 +0.07 +0.12    +0.222    13.315
ATOM     47  O   UNL d   1       9.589   9.349   1.974 -0.19 -0.22    -0.303    13.315
ATOM     48  H   UNL d   1       8.992  10.080   1.711 +0.13 +0.10    +0.222    13.315
TER
ENDMDL
MODEL       58
USER    Run = 58
USER    Cluster Rank = 61
USER    Number of conformations in this cluster = 1
USER  
USER    RMSD from reference structure       = 16.052 A
USER  
USER    Estimated Free Energy of Binding    =   +3.33 kcal/mol  [=(1)+(2)+(3)-(4)]
USER    
USER    (1) Final Intermolecular Energy     =   -3.83 kcal/mol
USER        vdW + Hbond + desolv Energy     =   -3.82 kcal/mol
USER        Electrostatic Energy            =   -0.01 kcal/mol
USER    (2) Final Total Internal Energy     =  -15.11 kcal/mol
USER    (3) Torsional Free Energy           =   +7.16 kcal/mol
USER    (4) Unbound System's Energy  [=(2)] =  -15.11 kcal/mol
USER    
USER    
USER  
USER    DPF = D:/Protein_go_brrr/autodock/final/AncB/IHP/dock.dpf
USER    NEWDPF move	IHP_ideal_opt.pdbqt
USER    NEWDPF about	0.035000 0.082000 -0.065000
USER    NEWDPF tran0	-9.340856 -6.075867 -14.810110
USER    NEWDPF axisangle0	0.167803 0.229389 0.958761 -111.446671
USER    NEWDPF quaternion0	0.138660 0.189550 0.792251 -0.563190
USER    NEWDPF dihe0	-118.29 20.75 42.50 9.94 47.26 169.13 -116.89 -51.43 150.31 15.61 174.63 -108.46 180.00 166.11 131.02 48.46 169.38 80.91 60.74 8.61 -15.24 0.66 179.15 24.76 
USER  
USER                              x       y       z    vdW   Elec        q     RMS 
ATOM      1  C   UNL d   1      -8.662  -4.517 -14.504 -0.03 +0.12    +0.194    16.052
ATOM      2  C   UNL d   1      -7.739  -5.513 -15.207 -0.06 +0.14    +0.194    16.052
ATOM      3  C   UNL d   1      -7.828  -6.907 -14.582 -0.13 +0.12    +0.194    16.052
ATOM      4  C   UNL d   1      -9.260  -7.426 -14.472 -0.12 +0.12    +0.194    16.052
ATOM      5  C   UNL d   1     -10.240  -6.421 -13.881 -0.09 +0.15    +0.194    16.052
ATOM      6  C   UNL d   1     -10.109  -5.012 -14.462 -0.04 +0.12    +0.194    16.052
ATOM      7  O   UNL d   1      -8.651  -3.296 -15.248 -0.01 -0.17    -0.278    16.052
ATOM      8  P   UNL d   1      -7.267  -2.512 -15.399 -0.03 +0.44    +0.473    16.052
ATOM      9  O   UNL d   1      -7.314  -1.072 -15.027 -0.03 -0.20    -0.228    16.052
ATOM     10  O   UNL d   1      -6.245  -3.357 -14.511 -0.61 -0.51    -0.303    16.052
ATOM     11  H   UNL d   1      -5.898  -4.103 -15.034 +0.04 +0.35    +0.222    16.052
ATOM     12  O   UNL d   1      -6.770  -2.832 -16.873 -0.02 -0.25    -0.303    16.052
ATOM     13  H   UNL d   1      -7.135  -3.674 -17.229 +0.02 +0.16    +0.222    16.052
ATOM     14  O   UNL d   1      -8.116  -5.606 -16.587 -0.01 -0.19    -0.278    16.052
ATOM     15  P   UNL d   1      -6.922  -5.705 -17.650 -0.03 +0.42    +0.473    16.052
ATOM     16  O   UNL d   1      -7.071  -4.902 -18.904 -0.01 -0.15    -0.228    16.052
ATOM     17  O   UNL d   1      -5.625  -5.308 -16.814 -0.10 -0.34    -0.303    16.052
ATOM     18  H   UNL d   1      -5.746  -4.451 -16.362 +0.04 +0.26    +0.222    16.052
ATOM     19  O   UNL d   1      -6.703  -7.267 -17.857 -0.25 -0.44    -0.303    16.052
ATOM     20  H   UNL d   1      -6.623  -7.735 -17.005 +0.04 +0.33    +0.222    16.052
ATOM     21  O   UNL d   1     -10.825  -4.138 -13.592 -0.02 -0.15    -0.278    16.052
ATOM     22  P   UNL d   1     -12.087  -3.332 -14.142 +0.00 +0.22    +0.473    16.052
ATOM     23  O   UNL d   1     -13.055  -2.778 -13.153 -0.00 -0.09    -0.228    16.052
ATOM     24  O   UNL d   1     -11.396  -2.247 -15.080 +0.00 -0.12    -0.303    16.052
ATOM     25  H   UNL d   1     -10.442  -2.179 -14.822 +0.01 +0.10    +0.222    16.052
ATOM     26  O   UNL d   1     -12.688  -4.361 -15.214 -0.01 -0.16    -0.303    16.052
ATOM     27  H   UNL d   1     -12.091  -5.133 -15.290 +0.01 +0.14    +0.222    16.052
ATOM     28  O   UNL d   1      -7.166  -7.812 -15.457 -0.10 -0.20    -0.278    16.052
ATOM     29  P   UNL d   1      -5.794  -8.493 -15.020 -0.21 +0.36    +0.473    16.052
ATOM     30  O   UNL d   1      -5.546  -8.554 -13.557 -0.34 -0.07    -0.228    16.052
ATOM     31  O   UNL d   1      -5.915  -9.887 -15.796 -0.22 -0.19    -0.303    16.052
ATOM     32  H   UNL d   1      -6.670 -10.393 -15.416 +0.09 -0.01    +0.222    16.052
ATOM     33  O   UNL d   1      -4.731  -7.694 -15.897 -0.57 -0.52    -0.303    16.052
ATOM     34  H   UNL d   1      -5.188  -6.945 -16.351 +0.06 +0.37    +0.222    16.052
ATOM     35  O   UNL d   1     -11.539  -6.898 -14.227 -0.32 -0.36    -0.278    16.052
ATOM     36  P   UNL d   1     -11.876  -7.293 -15.735 -0.05 +0.44    +0.473    16.052
ATOM     37  O   UNL d   1     -13.280  -7.022 -16.175 -0.10 -0.19    -0.228    16.052
ATOM     38  O   UNL d   1     -10.769  -6.479 -16.540 -0.01 -0.17    -0.303    16.052
ATOM     39  H   UNL d   1      -9.921  -6.972 -16.508 +0.03 +0.13    +0.222    16.052
ATOM     40  O   UNL d   1     -11.374  -8.800 -15.812 -0.12 -0.25    -0.303    16.052
ATOM     41  H   UNL d   1     -10.663  -8.981 -15.158 +0.03 +0.18    +0.222    16.052
ATOM     42  O   UNL d   1      -9.226  -8.551 -13.588 -0.06 -0.17    -0.278    16.052
ATOM     43  P   UNL d   1      -8.898  -9.993 -14.187 -0.14 +0.07    +0.473    16.052
ATOM     44  O   UNL d   1      -7.791 -10.763 -13.554 -0.25 +0.18    -0.228    16.052
ATOM     45  O   UNL d   1     -10.311 -10.722 -14.136 -0.13 -0.13    -0.303    16.052
ATOM     46  H   UNL d   1     -10.737 -10.738 -15.016 +0.03 +0.11    +0.222    16.052
ATOM     47  O   UNL d   1      -8.734  -9.709 -15.756 -0.05 -0.09    -0.303    16.052
ATOM     48  H   UNL d   1      -7.907  -9.207 -15.908 +0.07 +0.10    +0.222    16.052
TER
ENDMDL
MODEL       37
USER    Run = 37
USER    Cluster Rank = 62
USER    Number of conformations in this cluster = 1
USER  
USER    RMSD from reference structure       = 18.239 A
USER  
USER    Estimated Free Energy of Binding    =   +3.34 kcal/mol  [=(1)+(2)+(3)-(4)]
USER    
USER    (1) Final Intermolecular Energy     =   -3.82 kcal/mol
USER        vdW + Hbond + desolv Energy     =   -3.59 kcal/mol
USER        Electrostatic Energy            =   -0.23 kcal/mol
USER    (2) Final Total Internal Energy     =  -13.07 kcal/mol
USER    (3) Torsional Free Energy           =   +7.16 kcal/mol
USER    (4) Unbound System's Energy  [=(2)] =  -13.07 kcal/mol
USER    
USER    
USER  
USER    DPF = D:/Protein_go_brrr/autodock/final/AncB/IHP/dock.dpf
USER    NEWDPF move	IHP_ideal_opt.pdbqt
USER    NEWDPF about	0.035000 0.082000 -0.065000
USER    NEWDPF tran0	-10.406489 -18.038527 -4.420554
USER    NEWDPF axisangle0	-0.565557 -0.752152 0.338250 70.673335
USER    NEWDPF quaternion0	-0.327107 -0.435029 0.195637 0.815768
USER    NEWDPF dihe0	124.23 126.20 48.75 -129.63 1.66 -100.17 -59.84 20.89 167.67 3.98 167.49 106.77 -60.19 -81.02 -55.83 -174.50 -180.00 -174.63 31.54 -8.56 -176.51 -17.48 22.30 23.80 
USER  
USER                              x       y       z    vdW   Elec        q     RMS 
ATOM      1  C   UNL d   1      -9.800 -19.269  -5.471 -0.03 +0.15    +0.194    18.239
ATOM      2  C   UNL d   1     -11.180 -19.536  -4.868 +0.01 +0.10    +0.194    18.239
ATOM      3  C   UNL d   1     -11.231 -19.168  -3.383 -0.01 +0.12    +0.194    18.239
ATOM      4  C   UNL d   1     -10.741 -17.750  -3.098 -0.06 +0.17    +0.194    18.239
ATOM      5  C   UNL d   1      -9.422 -17.401  -3.775 -0.11 +0.20    +0.194    18.239
ATOM      6  C   UNL d   1      -9.348 -17.825  -5.244 -0.09 +0.20    +0.194    18.239
ATOM      7  O   UNL d   1      -9.883 -19.472  -6.883 -0.04 -0.25    -0.278    18.239
ATOM      8  P   UNL d   1      -9.565 -20.927  -7.461 -0.01 +0.28    +0.473    18.239
ATOM      9  O   UNL d   1      -9.014 -21.892  -6.471 +0.00 -0.10    -0.228    18.239
ATOM     10  O   UNL d   1     -10.949 -21.401  -8.098 +0.00 -0.11    -0.303    18.239
ATOM     11  H   UNL d   1     -11.689 -21.043  -7.574 +0.00 +0.08    +0.222    18.239
ATOM     12  O   UNL d   1      -8.674 -20.673  -8.752 -0.03 -0.24    -0.303    18.239
ATOM     13  H   UNL d   1      -7.727 -20.510  -8.541 +0.01 +0.23    +0.222    18.239
ATOM     14  O   UNL d   1     -12.155 -18.752  -5.566 +0.00 -0.13    -0.278    18.239
ATOM     15  P   UNL d   1     -13.369 -19.551  -6.237 +0.01 +0.15    +0.473    18.239
ATOM     16  O   UNL d   1     -13.114 -20.981  -6.600 +0.00 -0.07    -0.228    18.239
ATOM     17  O   UNL d   1     -14.565 -19.381  -5.199 +0.00 -0.08    -0.303    18.239
ATOM     18  H   UNL d   1     -14.268 -19.564  -4.287 +0.00 +0.07    +0.222    18.239
ATOM     19  O   UNL d   1     -13.848 -18.616  -7.432 +0.00 -0.09    -0.303    18.239
ATOM     20  H   UNL d   1     -14.493 -19.067  -8.007 +0.00 +0.06    +0.222    18.239
ATOM     21  O   UNL d   1      -7.977 -17.751  -5.626 -0.05 -0.44    -0.278    18.239
ATOM     22  P   UNL d   1      -6.986 -18.946  -5.257 -0.05 +0.56    +0.473    18.239
ATOM     23  O   UNL d   1      -7.317 -19.797  -4.077 -0.05 -0.19    -0.228    18.239
ATOM     24  O   UNL d   1      -6.891 -19.729  -6.639 -0.56 -0.47    -0.303    18.239
ATOM     25  H   UNL d   1      -7.789 -20.091  -6.850 +0.02 +0.27    +0.222    18.239
ATOM     26  O   UNL d   1      -5.572 -18.192  -5.205 -0.28 -0.30    -0.303    18.239
ATOM     27  H   UNL d   1      -5.444 -17.808  -4.313 +0.04 +0.18    +0.222    18.239
ATOM     28  O   UNL d   1     -12.596 -19.183  -2.985 +0.00 -0.13    -0.278    18.239
ATOM     29  P   UNL d   1     -13.236 -20.499  -2.356 +0.01 +0.17    +0.473    18.239
ATOM     30  O   UNL d   1     -14.471 -20.292  -1.558 +0.00 -0.07    -0.228    18.239
ATOM     31  O   UNL d   1     -13.363 -21.403  -3.671 +0.00 -0.09    -0.303    18.239
ATOM     32  H   UNL d   1     -13.146 -20.848  -4.456 +0.00 +0.07    +0.222    18.239
ATOM     33  O   UNL d   1     -11.992 -21.148  -1.603 +0.00 -0.13    -0.303    18.239
ATOM     34  H   UNL d   1     -11.864 -20.687  -0.738 +0.01 +0.11    +0.222    18.239
ATOM     35  O   UNL d   1      -9.336 -15.978  -3.745 -0.15 -0.29    -0.278    18.239
ATOM     36  P   UNL d   1      -7.912 -15.258  -3.746 -0.20 +0.53    +0.473    18.239
ATOM     37  O   UNL d   1      -7.760 -14.128  -2.779 -0.94 -0.25    -0.228    18.239
ATOM     38  O   UNL d   1      -6.928 -16.482  -3.483 -0.25 -0.40    -0.303    18.239
ATOM     39  H   UNL d   1      -6.564 -16.791  -4.340 +0.09 +0.25    +0.222    18.239
ATOM     40  O   UNL d   1      -7.703 -14.923  -5.287 -0.21 -0.30    -0.303    18.239
ATOM     41  H   UNL d   1      -8.045 -15.640  -5.865 +0.11 +0.30    +0.222    18.239
ATOM     42  O   UNL d   1     -10.526 -17.662  -1.686 -0.57 -0.39    -0.278    18.239
ATOM     43  P   UNL d   1     -11.747 -17.257  -0.743 -0.04 +0.42    +0.473    18.239
ATOM     44  O   UNL d   1     -11.528 -16.148   0.227 -0.19 -0.23    -0.228    18.239
ATOM     45  O   UNL d   1     -12.918 -16.987  -1.786 -0.02 -0.16    -0.303    18.239
ATOM     46  H   UNL d   1     -13.473 -17.782  -1.915 +0.02 +0.10    +0.222    18.239
ATOM     47  O   UNL d   1     -12.196 -18.657  -0.104 -0.02 -0.21    -0.303    18.239
ATOM     48  H   UNL d   1     -12.671 -19.183  -0.781 +0.02 +0.12    +0.222    18.239
TER
ENDMDL
MODEL       76
USER    Run = 76
USER    Cluster Rank = 63
USER    Number of conformations in this cluster = 1
USER  
USER    RMSD from reference structure       = 12.748 A
USER  
USER    Estimated Free Energy of Binding    =   +3.43 kcal/mol  [=(1)+(2)+(3)-(4)]
USER    
USER    (1) Final Intermolecular Energy     =   -3.73 kcal/mol
USER        vdW + Hbond + desolv Energy     =   -3.65 kcal/mol
USER        Electrostatic Energy            =   -0.08 kcal/mol
USER    (2) Final Total Internal Energy     =  -13.71 kcal/mol
USER    (3) Torsional Free Energy           =   +7.16 kcal/mol
USER    (4) Unbound System's Energy  [=(2)] =  -13.71 kcal/mol
USER    
USER    
USER  
USER    DPF = D:/Protein_go_brrr/autodock/final/AncB/IHP/dock.dpf
USER    NEWDPF move	IHP_ideal_opt.pdbqt
USER    NEWDPF about	0.035000 0.082000 -0.065000
USER    NEWDPF tran0	13.308933 3.379869 7.435567
USER    NEWDPF axisangle0	-0.986842 0.042199 0.156083 -145.246106
USER    NEWDPF quaternion0	-0.941803 0.040273 0.148959 -0.298657
USER    NEWDPF dihe0	83.15 102.43 78.58 81.21 83.52 -115.51 -15.35 -162.45 -11.23 114.14 64.69 103.00 -67.42 -73.07 81.62 -44.50 -78.41 -85.26 -155.31 -8.35 13.36 140.77 -179.37 -178.57 
USER  
USER                              x       y       z    vdW   Elec        q     RMS 
ATOM      1  C   UNL d   1      14.446   4.577   6.928 -0.07 +0.04    +0.194    12.748
ATOM      2  C   UNL d   1      13.484   5.007   8.038 -0.04 +0.04    +0.194    12.748
ATOM      3  C   UNL d   1      12.054   4.542   7.759 -0.12 +0.05    +0.194    12.748
ATOM      4  C   UNL d   1      11.955   3.049   7.456 -0.12 +0.03    +0.194    12.748
ATOM      5  C   UNL d   1      12.974   2.554   6.437 -0.15 +0.02    +0.194    12.748
ATOM      6  C   UNL d   1      14.394   3.069   6.681 -0.09 +0.02    +0.194    12.748
ATOM      7  O   UNL d   1      15.776   4.896   7.343 -0.01 -0.04    -0.278    12.748
ATOM      8  P   UNL d   1      16.532   3.879   8.316 -0.00 +0.04    +0.473    12.748
ATOM      9  O   UNL d   1      15.656   2.882   8.990 -0.01 -0.02    -0.228    12.748
ATOM     10  O   UNL d   1      17.645   3.211   7.389 -0.01 -0.02    -0.303    12.748
ATOM     11  H   UNL d   1      17.226   2.568   6.786 +0.02 +0.02    +0.222    12.748
ATOM     12  O   UNL d   1      17.405   4.796   9.275 -0.00 -0.02    -0.303    12.748
ATOM     13  H   UNL d   1      16.869   5.457   9.770 +0.00 +0.02    +0.222    12.748
ATOM     14  O   UNL d   1      13.917   4.435   9.278 -0.01 -0.04    -0.278    12.748
ATOM     15  P   UNL d   1      14.205   5.457  10.476 +0.01 +0.05    +0.473    12.748
ATOM     16  O   UNL d   1      14.395   6.894  10.103 -0.00 -0.03    -0.228    12.748
ATOM     17  O   UNL d   1      12.986   5.235  11.477 -0.00 -0.03    -0.303    12.748
ATOM     18  H   UNL d   1      12.248   4.773  11.035 +0.01 +0.02    +0.222    12.748
ATOM     19  O   UNL d   1      15.405   4.795  11.283 +0.00 -0.02    -0.303    12.748
ATOM     20  H   UNL d   1      15.902   4.161  10.734 +0.00 +0.02    +0.222    12.748
ATOM     21  O   UNL d   1      15.134   2.815   5.489 -0.07 -0.03    -0.278    12.748
ATOM     22  P   UNL d   1      15.892   1.423   5.310 -0.08 +0.04    +0.473    12.748
ATOM     23  O   UNL d   1      15.389   0.474   4.274 -0.23 -0.02    -0.228    12.748
ATOM     24  O   UNL d   1      17.398   1.896   5.106 -0.05 -0.02    -0.303    12.748
ATOM     25  H   UNL d   1      17.473   2.832   5.424 +0.03 +0.02    +0.222    12.748
ATOM     26  O   UNL d   1      15.919   0.871   6.815 -0.03 -0.02    -0.303    12.748
ATOM     27  H   UNL d   1      15.012   0.616   7.080 +0.03 +0.02    +0.222    12.748
ATOM     28  O   UNL d   1      11.301   4.735   8.950 -0.08 -0.06    -0.278    12.748
ATOM     29  P   UNL d   1      10.833   3.485   9.818 -0.03 +0.05    +0.473    12.748
ATOM     30  O   UNL d   1       9.771   2.643   9.208 -0.08 -0.01    -0.228    12.748
ATOM     31  O   UNL d   1      12.247   2.787  10.088 -0.01 -0.02    -0.303    12.748
ATOM     32  H   UNL d   1      12.926   3.491  10.208 +0.01 +0.02    +0.222    12.748
ATOM     33  O   UNL d   1      10.499   4.159  11.222 -0.04 -0.02    -0.303    12.748
ATOM     34  H   UNL d   1      11.235   3.967  11.853 +0.01 +0.01    +0.222    12.748
ATOM     35  O   UNL d   1      13.011   1.136   6.585 -0.14 -0.01    -0.278    12.748
ATOM     36  P   UNL d   1      13.160   0.481   8.032 -0.04 +0.02    +0.473    12.748
ATOM     37  O   UNL d   1      14.000   1.248   9.004 -0.01 -0.01    -0.228    12.748
ATOM     38  O   UNL d   1      11.639   0.312   8.472 -0.04 +0.01    -0.303    12.748
ATOM     39  H   UNL d   1      11.307   1.169   8.815 +0.05 -0.00    +0.222    12.748
ATOM     40  O   UNL d   1      13.626  -1.001   7.688 -0.07 -0.02    -0.303    12.748
ATOM     41  H   UNL d   1      14.556  -1.026   7.371 +0.03 +0.02    +0.222    12.748
ATOM     42  O   UNL d   1      10.657   2.824   6.896 -0.15 -0.03    -0.278    12.748
ATOM     43  P   UNL d   1      10.342   3.374   5.432 -0.31 +0.12    +0.473    12.748
ATOM     44  O   UNL d   1      10.884   4.713   5.071 -0.82 -0.16    -0.228    12.748
ATOM     45  O   UNL d   1      10.853   2.191   4.498 -0.31 +0.00    -0.303    12.748
ATOM     46  H   UNL d   1      11.335   1.512   5.012 -0.37 -0.06    +0.222    12.748
ATOM     47  O   UNL d   1       8.751   3.217   5.316 -0.38 -0.07    -0.303    12.748
ATOM     48  H   UNL d   1       8.532   2.279   5.134 +0.10 +0.01    +0.222    12.748
TER
ENDMDL
MODEL       96
USER    Run = 96
USER    Cluster Rank = 64
USER    Number of conformations in this cluster = 1
USER  
USER    RMSD from reference structure       = 17.555 A
USER  
USER    Estimated Free Energy of Binding    =   +3.45 kcal/mol  [=(1)+(2)+(3)-(4)]
USER    
USER    (1) Final Intermolecular Energy     =   -3.71 kcal/mol
USER        vdW + Hbond + desolv Energy     =   -3.41 kcal/mol
USER        Electrostatic Energy            =   -0.31 kcal/mol
USER    (2) Final Total Internal Energy     =  -12.00 kcal/mol
USER    (3) Torsional Free Energy           =   +7.16 kcal/mol
USER    (4) Unbound System's Energy  [=(2)] =  -12.00 kcal/mol
USER    
USER    
USER  
USER    DPF = D:/Protein_go_brrr/autodock/final/AncB/IHP/dock.dpf
USER    NEWDPF move	IHP_ideal_opt.pdbqt
USER    NEWDPF about	0.035000 0.082000 -0.065000
USER    NEWDPF tran0	-14.897979 -15.202452 -1.436852
USER    NEWDPF axisangle0	-0.958829 -0.227786 -0.169587 -91.063148
USER    NEWDPF quaternion0	-0.684256 -0.162556 -0.121024 -0.700516
USER    NEWDPF dihe0	-138.39 -0.88 99.75 131.71 44.91 179.64 -131.88 41.21 4.63 -134.17 -116.00 -170.23 -137.66 -28.83 130.76 69.76 -86.76 -5.41 32.32 -41.68 -29.74 152.56 -180.00 139.88 
USER  
USER                              x       y       z    vdW   Elec        q     RMS 
ATOM      1  C   UNL d   1     -14.145 -14.377  -0.119 -0.13 +0.05    +0.194    17.555
ATOM      2  C   UNL d   1     -15.583 -14.839   0.125 -0.10 +0.04    +0.194    17.555
ATOM      3  C   UNL d   1     -16.479 -14.565  -1.084 -0.09 +0.04    +0.194    17.555
ATOM      4  C   UNL d   1     -15.911 -15.114  -2.391 -0.05 +0.05    +0.194    17.555
ATOM      5  C   UNL d   1     -14.444 -14.774  -2.621 -0.06 +0.07    +0.194    17.555
ATOM      6  C   UNL d   1     -13.558 -14.989  -1.392 -0.14 +0.08    +0.194    17.555
ATOM      7  O   UNL d   1     -13.342 -14.821   0.977 -0.12 -0.13    -0.278    17.555
ATOM      8  P   UNL d   1     -13.180 -13.855   2.239 -0.21 +0.20    +0.473    17.555
ATOM      9  O   UNL d   1     -12.088 -12.851   2.129 -0.45 -0.14    -0.228    17.555
ATOM     10  O   UNL d   1     -14.623 -13.198   2.411 -0.18 -0.03    -0.303    17.555
ATOM     11  H   UNL d   1     -15.275 -13.891   2.626 +0.07 +0.04    +0.222    17.555
ATOM     12  O   UNL d   1     -13.106 -14.826   3.495 -0.14 -0.20    -0.303    17.555
ATOM     13  H   UNL d   1     -13.794 -15.529   3.480 +0.07 +0.13    +0.222    17.555
ATOM     14  O   UNL d   1     -15.583 -16.249   0.384 -0.02 -0.08    -0.278    17.555
ATOM     15  P   UNL d   1     -15.425 -16.696   1.913 -0.02 +0.16    +0.473    17.555
ATOM     16  O   UNL d   1     -15.896 -15.724   2.949 -0.07 -0.07    -0.228    17.555
ATOM     17  O   UNL d   1     -16.184 -18.095   1.988 -0.02 -0.09    -0.303    17.555
ATOM     18  H   UNL d   1     -16.498 -18.372   1.106 +0.01 +0.06    +0.222    17.555
ATOM     19  O   UNL d   1     -13.906 -17.149   2.039 -0.03 -0.15    -0.303    17.555
ATOM     20  H   UNL d   1     -13.298 -16.387   2.009 +0.06 +0.13    +0.222    17.555
ATOM     21  O   UNL d   1     -12.326 -14.319  -1.648 -0.21 -0.15    -0.278    17.555
ATOM     22  P   UNL d   1     -10.945 -15.072  -1.385 -0.09 +0.46    +0.473    17.555
ATOM     23  O   UNL d   1      -9.717 -14.544  -2.047 -0.46 -0.26    -0.228    17.555
ATOM     24  O   UNL d   1     -10.887 -15.098   0.206 -0.10 -0.35    -0.303    17.555
ATOM     25  H   UNL d   1     -11.483 -14.383   0.548 +0.10 +0.19    +0.222    17.555
ATOM     26  O   UNL d   1     -11.331 -16.590  -1.727 -0.27 -0.29    -0.303    17.555
ATOM     27  H   UNL d   1     -12.245 -16.618  -2.077 +0.05 +0.14    +0.222    17.555
ATOM     28  O   UNL d   1     -17.700 -15.266  -0.880 -0.01 -0.05    -0.278    17.555
ATOM     29  P   UNL d   1     -17.925 -16.698  -1.540 +0.00 +0.09    +0.473    17.555
ATOM     30  O   UNL d   1     -16.776 -17.634  -1.447 -0.00 -0.05    -0.228    17.555
ATOM     31  O   UNL d   1     -19.279 -17.133  -0.806 +0.00 -0.05    -0.303    17.555
ATOM     32  H   UNL d   1     -19.055 -17.470   0.092 +0.00 +0.04    +0.222    17.555
ATOM     33  O   UNL d   1     -18.426 -16.316  -3.003 +0.00 -0.06    -0.303    17.555
ATOM     34  H   UNL d   1     -17.669 -16.402  -3.634 +0.01 +0.05    +0.222    17.555
ATOM     35  O   UNL d   1     -13.990 -15.675  -3.628 -0.04 -0.10    -0.278    17.555
ATOM     36  P   UNL d   1     -14.276 -17.239  -3.496 +0.01 +0.16    +0.473    17.555
ATOM     37  O   UNL d   1     -14.077 -17.818  -2.131 -0.00 -0.09    -0.228    17.555
ATOM     38  O   UNL d   1     -15.768 -17.346  -4.041 -0.00 -0.08    -0.303    17.555
ATOM     39  H   UNL d   1     -16.368 -16.866  -3.429 +0.01 +0.05    +0.222    17.555
ATOM     40  O   UNL d   1     -13.395 -17.846  -4.672 +0.00 -0.12    -0.303    17.555
ATOM     41  H   UNL d   1     -13.522 -18.817  -4.759 +0.01 +0.08    +0.222    17.555
ATOM     42  O   UNL d   1     -16.655 -14.509  -3.453 -0.03 -0.07    -0.278    17.555
ATOM     43  P   UNL d   1     -17.283 -13.060  -3.227 -0.06 +0.12    +0.473    17.555
ATOM     44  O   UNL d   1     -16.457 -12.060  -2.495 -0.70 -0.11    -0.228    17.555
ATOM     45  O   UNL d   1     -17.683 -12.619  -4.703 -0.02 -0.07    -0.303    17.555
ATOM     46  H   UNL d   1     -18.214 -11.797  -4.700 +0.02 +0.05    +0.222    17.555
ATOM     47  O   UNL d   1     -18.716 -13.378  -2.583 -0.02 -0.06    -0.303    17.555
ATOM     48  H   UNL d   1     -18.769 -14.333  -2.372 +0.01 +0.04    +0.222    17.555
TER
ENDMDL
MODEL       82
USER    Run = 82
USER    Cluster Rank = 65
USER    Number of conformations in this cluster = 1
USER  
USER    RMSD from reference structure       = 18.594 A
USER  
USER    Estimated Free Energy of Binding    =   +3.52 kcal/mol  [=(1)+(2)+(3)-(4)]
USER    
USER    (1) Final Intermolecular Energy     =   -3.63 kcal/mol
USER        vdW + Hbond + desolv Energy     =   -3.50 kcal/mol
USER        Electrostatic Energy            =   -0.13 kcal/mol
USER    (2) Final Total Internal Energy     =  -12.50 kcal/mol
USER    (3) Torsional Free Energy           =   +7.16 kcal/mol
USER    (4) Unbound System's Energy  [=(2)] =  -12.50 kcal/mol
USER    
USER    
USER  
USER    DPF = D:/Protein_go_brrr/autodock/final/AncB/IHP/dock.dpf
USER    NEWDPF move	IHP_ideal_opt.pdbqt
USER    NEWDPF about	0.035000 0.082000 -0.065000
USER    NEWDPF tran0	2.921777 18.059635 -12.743599
USER    NEWDPF axisangle0	-0.767845 -0.032740 -0.639799 -83.195795
USER    NEWDPF quaternion0	-0.509771 -0.021736 -0.424762 -0.747822
USER    NEWDPF dihe0	66.23 34.39 111.75 -28.70 58.69 115.11 174.09 -15.24 133.74 121.85 5.32 -36.38 179.61 -140.82 -66.72 40.26 54.75 -90.39 24.09 -41.27 170.66 -51.89 27.47 -180.00 
USER  
USER                              x       y       z    vdW   Elec        q     RMS 
ATOM      1  C   UNL d   1       3.454  17.803 -11.120 -0.16 +0.04    +0.194    18.594
ATOM      2  C   UNL d   1       1.982  18.184 -11.280 -0.08 +0.05    +0.194    18.594
ATOM      3  C   UNL d   1       1.795  19.310 -12.299 -0.03 +0.04    +0.194    18.594
ATOM      4  C   UNL d   1       2.466  19.024 -13.641 -0.04 +0.03    +0.194    18.594
ATOM      5  C   UNL d   1       3.902  18.531 -13.523 -0.09 +0.03    +0.194    18.594
ATOM      6  C   UNL d   1       4.100  17.448 -12.460 -0.14 +0.04    +0.194    18.594
ATOM      7  O   UNL d   1       3.527  16.641 -10.291 -0.26 -0.06    -0.278    18.594
ATOM      8  P   UNL d   1       3.859  16.834  -8.741 -0.22 +0.11    +0.473    18.594
ATOM      9  O   UNL d   1       4.971  15.991  -8.223 -0.34 -0.00    -0.228    18.594
ATOM     10  O   UNL d   1       4.138  18.398  -8.597 -0.06 -0.06    -0.303    18.594
ATOM     11  H   UNL d   1       5.090  18.573  -8.715 +0.05 +0.03    +0.222    18.594
ATOM     12  O   UNL d   1       2.464  16.676  -7.997 -0.05 -0.20    -0.303    18.594
ATOM     13  H   UNL d   1       1.697  16.669  -8.613 +0.07 +0.17    +0.222    18.594
ATOM     14  O   UNL d   1       1.248  17.037 -11.728 -0.10 -0.08    -0.278    18.594
ATOM     15  P   UNL d   1       0.631  16.093 -10.591 -0.15 +0.17    +0.473    18.594
ATOM     16  O   UNL d   1       1.535  15.042 -10.026 -0.31 -0.09    -0.228    18.594
ATOM     17  O   UNL d   1       0.104  17.113  -9.486 -0.22 -0.21    -0.303    18.594
ATOM     18  H   UNL d   1       0.040  18.018  -9.845 +0.04 +0.12    +0.222    18.594
ATOM     19  O   UNL d   1      -0.733  15.563 -11.213 -0.11 -0.05    -0.303    18.594
ATOM     20  H   UNL d   1      -1.475  16.166 -11.022 +0.06 +0.03    +0.222    18.594
ATOM     21  O   UNL d   1       5.504  17.344 -12.234 -0.21 -0.01    -0.278    18.594
ATOM     22  P   UNL d   1       6.283  18.546 -11.531 -0.06 +0.01    +0.473    18.594
ATOM     23  O   UNL d   1       5.862  19.941 -11.848 -0.03 -0.02    -0.228    18.594
ATOM     24  O   UNL d   1       6.174  18.149  -9.993 -0.08 +0.01    -0.303    18.594
ATOM     25  H   UNL d   1       5.570  17.367  -9.919 -0.30 -0.03    +0.222    18.594
ATOM     26  O   UNL d   1       7.809  18.180 -11.860 -0.11 +0.00    -0.303    18.594
ATOM     27  H   UNL d   1       8.016  17.297 -11.490 -0.36 -0.05    +0.222    18.594
ATOM     28  O   UNL d   1       0.405  19.403 -12.585 -0.01 -0.05    -0.278    18.594
ATOM     29  P   UNL d   1      -0.639  19.692 -11.417 +0.01 +0.10    +0.473    18.594
ATOM     30  O   UNL d   1      -0.053  20.173 -10.140 -0.01 -0.06    -0.228    18.594
ATOM     31  O   UNL d   1      -1.639  20.684 -12.177 +0.00 -0.04    -0.303    18.594
ATOM     32  H   UNL d   1      -1.831  21.449 -11.587 +0.00 +0.03    +0.222    18.594
ATOM     33  O   UNL d   1      -1.465  18.332 -11.364 -0.01 -0.06    -0.303    18.594
ATOM     34  H   UNL d   1      -0.835  17.572 -11.420 +0.04 +0.05    +0.222    18.594
ATOM     35  O   UNL d   1       4.214  17.943 -14.785 -0.08 -0.05    -0.278    18.594
ATOM     36  P   UNL d   1       5.733  17.784 -15.245 -0.06 +0.09    +0.473    18.594
ATOM     37  O   UNL d   1       6.330  16.428 -15.042 -0.11 -0.06    -0.228    18.594
ATOM     38  O   UNL d   1       5.662  18.247 -16.768 -0.02 -0.05    -0.303    18.594
ATOM     39  H   UNL d   1       5.395  19.191 -16.804 +0.01 +0.03    +0.222    18.594
ATOM     40  O   UNL d   1       6.441  19.003 -14.508 -0.02 -0.04    -0.303    18.594
ATOM     41  H   UNL d   1       6.628  18.798 -13.564 +0.03 +0.02    +0.222    18.594
ATOM     42  O   UNL d   1       2.504  20.263 -14.357 -0.01 -0.04    -0.278    18.594
ATOM     43  P   UNL d   1       3.459  21.428 -13.834 -0.00 +0.06    +0.473    18.594
ATOM     44  O   UNL d   1       3.464  21.707 -12.370 -0.00 -0.03    -0.228    18.594
ATOM     45  O   UNL d   1       4.877  21.007 -14.420 -0.00 -0.04    -0.303    18.594
ATOM     46  H   UNL d   1       5.211  20.190 -13.998 +0.02 +0.03    +0.222    18.594
ATOM     47  O   UNL d   1       3.074  22.668 -14.773 +0.00 -0.03    -0.303    18.594
ATOM     48  H   UNL d   1       3.096  23.493 -14.244 +0.00 +0.02    +0.222    18.594
TER
ENDMDL
MODEL       80
USER    Run = 80
USER    Cluster Rank = 66
USER    Number of conformations in this cluster = 2
USER  
USER    RMSD from reference structure       = 13.051 A
USER  
USER    Estimated Free Energy of Binding    =   +3.57 kcal/mol  [=(1)+(2)+(3)-(4)]
USER    
USER    (1) Final Intermolecular Energy     =   -3.59 kcal/mol
USER        vdW + Hbond + desolv Energy     =   -3.44 kcal/mol
USER        Electrostatic Energy            =   -0.15 kcal/mol
USER    (2) Final Total Internal Energy     =  -13.26 kcal/mol
USER    (3) Torsional Free Energy           =   +7.16 kcal/mol
USER    (4) Unbound System's Energy  [=(2)] =  -13.26 kcal/mol
USER    
USER    
USER  
USER    DPF = D:/Protein_go_brrr/autodock/final/AncB/IHP/dock.dpf
USER    NEWDPF move	IHP_ideal_opt.pdbqt
USER    NEWDPF about	0.035000 0.082000 -0.065000
USER    NEWDPF tran0	16.435666 -4.208594 4.268999
USER    NEWDPF axisangle0	-0.901282 -0.056148 0.429579 -148.277990
USER    NEWDPF quaternion0	-0.866968 -0.054011 0.413223 -0.273305
USER    NEWDPF dihe0	-180.00 -143.96 16.52 -169.18 110.41 164.91 -86.40 -75.63 28.56 68.65 -23.46 -101.71 98.16 -91.37 -110.82 -7.13 145.21 -28.80 5.65 1.13 -17.40 8.60 -10.03 166.08 
USER  
USER                              x       y       z    vdW   Elec        q     RMS 
ATOM      1  C   UNL d   1      16.781  -2.719   3.466 -0.16 +0.01    +0.194    13.051
ATOM      2  C   UNL d   1      16.348  -2.596   4.928 -0.09 +0.01    +0.194    13.051
ATOM      3  C   UNL d   1      15.172  -3.522   5.250 -0.10 +0.02    +0.194    13.051
ATOM      4  C   UNL d   1      15.418  -4.971   4.840 -0.05 +0.01    +0.194    13.051
ATOM      5  C   UNL d   1      15.961  -5.133   3.426 -0.10 +0.01    +0.194    13.051
ATOM      6  C   UNL d   1      17.095  -4.165   3.083 -0.11 +0.01    +0.194    13.051
ATOM      7  O   UNL d   1      17.980  -1.961   3.291 -0.07 -0.01    -0.278    13.051
ATOM      8  P   UNL d   1      17.951  -0.710   2.298 -0.14 +0.01    +0.473    13.051
ATOM      9  O   UNL d   1      18.882   0.397   2.650 -0.07 -0.01    -0.228    13.051
ATOM     10  O   UNL d   1      18.244  -1.347   0.865 -0.15 -0.02    -0.303    13.051
ATOM     11  H   UNL d   1      18.020  -2.296   0.877 +0.08 +0.02    +0.222    13.051
ATOM     12  O   UNL d   1      16.417  -0.315   2.178 -0.28 +0.03    -0.303    13.051
ATOM     13  H   UNL d   1      16.273   0.535   1.704 -0.40 -0.13    +0.222    13.051
ATOM     14  O   UNL d   1      17.451  -2.949   5.773 -0.01 -0.02    -0.278    13.051
ATOM     15  P   UNL d   1      17.767  -1.956   6.989 +0.00 +0.03    +0.473    13.051
ATOM     16  O   UNL d   1      17.558  -0.496   6.735 -0.01 -0.01    -0.228    13.051
ATOM     17  O   UNL d   1      16.871  -2.510   8.184 +0.00 -0.01    -0.303    13.051
ATOM     18  H   UNL d   1      15.942  -2.225   8.088 +0.01 +0.01    +0.222    13.051
ATOM     19  O   UNL d   1      19.227  -2.367   7.467 +0.00 -0.01    -0.303    13.051
ATOM     20  H   UNL d   1      19.809  -1.590   7.559 +0.00 +0.01    +0.222    13.051
ATOM     21  O   UNL d   1      17.252  -4.199   1.667 -0.09 -0.02    -0.278    13.051
ATOM     22  P   UNL d   1      18.645  -4.653   1.035 -0.07 +0.03    +0.473    13.051
ATOM     23  O   UNL d   1      19.748  -3.651   0.967 -0.07 -0.02    -0.228    13.051
ATOM     24  O   UNL d   1      18.978  -5.957   1.884 -0.02 -0.02    -0.303    13.051
ATOM     25  H   UNL d   1      18.150  -6.498   1.955 +0.02 +0.01    +0.222    13.051
ATOM     26  O   UNL d   1      18.178  -5.279  -0.365 -0.13 -0.02    -0.303    13.051
ATOM     27  H   UNL d   1      17.202  -5.346  -0.378 +0.05 +0.02    +0.222    13.051
ATOM     28  O   UNL d   1      15.024  -3.549   6.664 -0.02 -0.02    -0.278    13.051
ATOM     29  P   UNL d   1      13.670  -3.053   7.341 -0.03 +0.03    +0.473    13.051
ATOM     30  O   UNL d   1      12.972  -1.945   6.640 -0.50 -0.05    -0.228    13.051
ATOM     31  O   UNL d   1      12.889  -4.445   7.456 -0.03 -0.02    -0.303    13.051
ATOM     32  H   UNL d   1      13.120  -5.000   6.675 +0.05 +0.02    +0.222    13.051
ATOM     33  O   UNL d   1      14.127  -2.781   8.841 -0.00 -0.01    -0.303    13.051
ATOM     34  H   UNL d   1      14.993  -3.230   9.000 +0.01 +0.01    +0.222    13.051
ATOM     35  O   UNL d   1      16.501  -6.451   3.367 -0.02 -0.01    -0.278    13.051
ATOM     36  P   UNL d   1      15.938  -7.505   2.310 -0.02 -0.01    +0.473    13.051
ATOM     37  O   UNL d   1      16.416  -8.912   2.484 -0.01 +0.00    -0.228    13.051
ATOM     38  O   UNL d   1      14.364  -7.324   2.475 -0.05 +0.02    -0.303    13.051
ATOM     39  H   UNL d   1      14.150  -7.236   3.429 +0.06 -0.02    +0.222    13.051
ATOM     40  O   UNL d   1      16.261  -6.799   0.921 -0.09 -0.00    -0.303    13.051
ATOM     41  H   UNL d   1      17.034  -6.197   0.990 +0.04 +0.01    +0.222    13.051
ATOM     42  O   UNL d   1      14.150  -5.635   4.883 -0.04 -0.01    -0.278    13.051
ATOM     43  P   UNL d   1      12.935  -5.032   4.044 -0.08 +0.02    +0.473    13.051
ATOM     44  O   UNL d   1      13.261  -4.052   2.970 -0.29 -0.01    -0.228    13.051
ATOM     45  O   UNL d   1      12.184  -6.337   3.529 -0.21 +0.04    -0.303    13.051
ATOM     46  H   UNL d   1      12.458  -6.572   2.621 +0.09 -0.05    +0.222    13.051
ATOM     47  O   UNL d   1      11.933  -4.505   5.179 -0.40 -0.06    -0.303    13.051
ATOM     48  H   UNL d   1      12.269  -3.659   5.539 +0.08 +0.03    +0.222    13.051
TER
ENDMDL
MODEL       71
USER    Run = 71
USER    Cluster Rank = 67
USER    Number of conformations in this cluster = 1
USER  
USER    RMSD from reference structure       = 20.158 A
USER  
USER    Estimated Free Energy of Binding    =   +3.62 kcal/mol  [=(1)+(2)+(3)-(4)]
USER    
USER    (1) Final Intermolecular Energy     =   -3.54 kcal/mol
USER        vdW + Hbond + desolv Energy     =   -3.32 kcal/mol
USER        Electrostatic Energy            =   -0.22 kcal/mol
USER    (2) Final Total Internal Energy     =  -12.72 kcal/mol
USER    (3) Torsional Free Energy           =   +7.16 kcal/mol
USER    (4) Unbound System's Energy  [=(2)] =  -12.72 kcal/mol
USER    
USER    
USER  
USER    DPF = D:/Protein_go_brrr/autodock/final/AncB/IHP/dock.dpf
USER    NEWDPF move	IHP_ideal_opt.pdbqt
USER    NEWDPF about	0.035000 0.082000 -0.065000
USER    NEWDPF tran0	-18.839118 -7.390023 11.514846
USER    NEWDPF axisangle0	-0.489858 -0.432818 0.756775 -136.878878
USER    NEWDPF quaternion0	-0.455582 -0.402533 0.703823 -0.367484
USER    NEWDPF dihe0	17.73 113.28 16.73 49.56 165.00 -180.00 40.22 -60.13 1.68 59.43 155.09 163.64 95.07 159.80 180.00 87.09 -134.76 -147.89 47.10 -9.34 4.84 -20.21 -38.10 169.10 
USER  
USER                              x       y       z    vdW   Elec        q     RMS 
ATOM      1  C   UNL d   1     -19.841  -6.105  12.089 -0.06 +0.11    +0.194    20.158
ATOM      2  C   UNL d   1     -18.981  -6.797  13.148 -0.07 +0.10    +0.194    20.158
ATOM      3  C   UNL d   1     -18.989  -8.318  12.980 -0.04 +0.05    +0.194    20.158
ATOM      4  C   UNL d   1     -18.635  -8.768  11.565 -0.09 +0.05    +0.194    20.158
ATOM      5  C   UNL d   1     -19.386  -8.023  10.470 -0.09 +0.05    +0.194    20.158
ATOM      6  C   UNL d   1     -19.431  -6.506  10.671 +0.04 +0.15    +0.194    20.158
ATOM      7  O   UNL d   1     -19.644  -4.694  12.206 -0.12 -0.15    -0.278    20.158
ATOM      8  P   UNL d   1     -20.347  -3.928  13.419 -0.01 +0.11    +0.473    20.158
ATOM      9  O   UNL d   1     -19.583  -2.771  13.962 -0.05 -0.04    -0.228    20.158
ATOM     10  O   UNL d   1     -21.778  -3.521  12.842 -0.00 -0.04    -0.303    20.158
ATOM     11  H   UNL d   1     -22.010  -2.624  13.147 +0.01 +0.02    +0.222    20.158
ATOM     12  O   UNL d   1     -20.721  -5.064  14.464 -0.01 -0.05    -0.303    20.158
ATOM     13  H   UNL d   1     -19.933  -5.477  14.884 +0.03 +0.04    +0.222    20.158
ATOM     14  O   UNL d   1     -17.631  -6.331  13.031 -0.52 -0.28    -0.278    20.158
ATOM     15  P   UNL d   1     -16.991  -5.654  14.333 -0.21 +0.15    +0.473    20.158
ATOM     16  O   UNL d   1     -16.049  -4.514  14.104 -0.32 -0.07    -0.228    20.158
ATOM     17  O   UNL d   1     -18.253  -5.245  15.216 -0.10 -0.05    -0.303    20.158
ATOM     18  H   UNL d   1     -18.660  -4.421  14.887 +0.06 +0.04    +0.222    20.158
ATOM     19  O   UNL d   1     -16.401  -6.874  15.166 -0.21 +0.00    -0.303    20.158
ATOM     20  H   UNL d   1     -16.690  -7.732  14.802 +0.01 +0.01    +0.222    20.158
ATOM     21  O   UNL d   1     -20.431  -6.003   9.788 -0.04 -0.09    -0.278    20.158
ATOM     22  P   UNL d   1     -20.007  -5.397   8.375 -0.05 +0.08    +0.473    20.158
ATOM     23  O   UNL d   1     -20.851  -4.315   7.790 -0.01 -0.03    -0.228    20.158
ATOM     24  O   UNL d   1     -18.490  -4.991   8.637 -0.44 -0.22    -0.303    20.158
ATOM     25  H   UNL d   1     -17.912  -5.708   8.271 -0.48 -0.05    +0.222    20.158
ATOM     26  O   UNL d   1     -19.847  -6.722   7.487 -0.07 +0.04    -0.303    20.158
ATOM     27  H   UNL d   1     -20.137  -7.497   8.010 +0.02 -0.02    +0.222    20.158
ATOM     28  O   UNL d   1     -17.964  -8.846  13.812 -0.03 -0.05    -0.278    20.158
ATOM     29  P   UNL d   1     -18.284  -9.264  15.316 +0.02 +0.04    +0.473    20.158
ATOM     30  O   UNL d   1     -19.297 -10.338  15.480 +0.00 -0.02    -0.228    20.158
ATOM     31  O   UNL d   1     -16.804  -9.575  15.840 -0.04 -0.01    -0.303    20.158
ATOM     32  H   UNL d   1     -16.433  -8.753  16.237 +0.06 -0.00    +0.222    20.158
ATOM     33  O   UNL d   1     -18.609  -7.859  15.991 -0.01 -0.02    -0.303    20.158
ATOM     34  H   UNL d   1     -18.507  -7.146  15.314 +0.05 +0.03    +0.222    20.158
ATOM     35  O   UNL d   1     -18.659  -8.265   9.267 -0.02 +0.10    -0.278    20.158
ATOM     36  P   UNL d   1     -19.053  -9.488   8.322 -0.02 -0.10    +0.473    20.158
ATOM     37  O   UNL d   1     -18.353 -10.778   8.610 -0.10 +0.03    -0.228    20.158
ATOM     38  O   UNL d   1     -20.634  -9.546   8.505 -0.01 -0.00    -0.303    20.158
ATOM     39  H   UNL d   1     -20.840  -9.836   9.420 +0.02 +0.01    +0.222    20.158
ATOM     40  O   UNL d   1     -18.859  -8.870   6.869 -0.09 +0.09    -0.303    20.158
ATOM     41  H   UNL d   1     -18.305  -8.058   6.890 -0.33 -0.19    +0.222    20.158
ATOM     42  O   UNL d   1     -19.003 -10.148  11.465 -0.01 -0.02    -0.278    20.158
ATOM     43  P   UNL d   1     -20.518 -10.563  11.741 +0.02 +0.04    +0.473    20.158
ATOM     44  O   UNL d   1     -20.834 -11.173  13.063 +0.00 -0.02    -0.228    20.158
ATOM     45  O   UNL d   1     -21.310  -9.216  11.439 +0.00 -0.03    -0.303    20.158
ATOM     46  H   UNL d   1     -21.469  -9.101  10.481 +0.01 +0.02    +0.222    20.158
ATOM     47  O   UNL d   1     -20.893 -11.454  10.461 +0.00 -0.02    -0.303    20.158
ATOM     48  H   UNL d   1     -20.241 -11.285   9.749 +0.02 +0.01    +0.222    20.158
TER
ENDMDL
MODEL       84
USER    Run = 84
USER    Cluster Rank = 68
USER    Number of conformations in this cluster = 1
USER  
USER    RMSD from reference structure       = 17.809 A
USER  
USER    Estimated Free Energy of Binding    =   +3.73 kcal/mol  [=(1)+(2)+(3)-(4)]
USER    
USER    (1) Final Intermolecular Energy     =   -3.43 kcal/mol
USER        vdW + Hbond + desolv Energy     =   -3.36 kcal/mol
USER        Electrostatic Energy            =   -0.07 kcal/mol
USER    (2) Final Total Internal Energy     =  -15.62 kcal/mol
USER    (3) Torsional Free Energy           =   +7.16 kcal/mol
USER    (4) Unbound System's Energy  [=(2)] =  -15.62 kcal/mol
USER    
USER    
USER  
USER    DPF = D:/Protein_go_brrr/autodock/final/AncB/IHP/dock.dpf
USER    NEWDPF move	IHP_ideal_opt.pdbqt
USER    NEWDPF about	0.035000 0.082000 -0.065000
USER    NEWDPF tran0	-9.206121 -18.771073 -4.893578
USER    NEWDPF axisangle0	-0.478698 0.457986 0.749064 85.417512
USER    NEWDPF quaternion0	-0.324688 0.310639 0.508069 0.734811
USER    NEWDPF dihe0	-115.47 -9.73 165.59 11.12 128.75 120.99 -25.21 -118.24 -2.22 108.04 106.46 -123.57 180.00 173.14 -180.00 116.23 -57.48 105.31 61.43 12.73 3.19 0.30 167.36 -4.43 
USER  
USER                              x       y       z    vdW   Elec        q     RMS 
ATOM      1  C   UNL d   1      -9.948 -20.329  -4.967 +0.01 +0.11    +0.194    17.809
ATOM      2  C   UNL d   1     -10.459 -19.306  -5.983 -0.02 +0.13    +0.194    17.809
ATOM      3  C   UNL d   1     -10.661 -17.929  -5.347 -0.03 +0.14    +0.194    17.809
ATOM      4  C   UNL d   1      -9.432 -17.429  -4.591 -0.11 +0.19    +0.194    17.809
ATOM      5  C   UNL d   1      -8.820 -18.459  -3.651 -0.10 +0.20    +0.194    17.809
ATOM      6  C   UNL d   1      -8.675 -19.852  -4.267 -0.03 +0.15    +0.194    17.809
ATOM      7  O   UNL d   1      -9.622 -21.531  -5.671 +0.01 -0.13    -0.278    17.809
ATOM      8  P   UNL d   1     -10.787 -22.286  -6.462 +0.01 +0.16    +0.473    17.809
ATOM      9  O   UNL d   1     -10.921 -23.736  -6.153 +0.00 -0.06    -0.228    17.809
ATOM     10  O   UNL d   1     -12.098 -21.446  -6.116 +0.00 -0.10    -0.303    17.809
ATOM     11  H   UNL d   1     -12.188 -20.707  -6.745 +0.00 +0.08    +0.222    17.809
ATOM     12  O   UNL d   1     -10.552 -21.921  -7.990 +0.00 -0.11    -0.303    17.809
ATOM     13  H   UNL d   1     -10.518 -20.952  -8.154 +0.01 +0.10    +0.222    17.809
ATOM     14  O   UNL d   1      -9.502 -19.183  -7.043 -0.09 -0.32    -0.278    17.809
ATOM     15  P   UNL d   1     -10.091 -18.942  -8.513 -0.00 +0.49    +0.473    17.809
ATOM     16  O   UNL d   1      -9.552 -19.814  -9.603 -0.04 -0.17    -0.228    17.809
ATOM     17  O   UNL d   1     -11.666 -19.086  -8.328 -0.01 -0.15    -0.303    17.809
ATOM     18  H   UNL d   1     -12.031 -18.335  -7.821 +0.01 +0.11    +0.222    17.809
ATOM     19  O   UNL d   1      -9.939 -17.376  -8.750 -0.56 -0.48    -0.303    17.809
ATOM     20  H   UNL d   1     -10.280 -16.863  -7.994 +0.02 +0.27    +0.222    17.809
ATOM     21  O   UNL d   1      -8.425 -20.755  -3.193 -0.02 -0.19    -0.278    17.809
ATOM     22  P   UNL d   1      -6.931 -21.221  -2.881 -0.01 +0.29    +0.473    17.809
ATOM     23  O   UNL d   1      -6.723 -22.577  -2.295 -0.00 -0.10    -0.228    17.809
ATOM     24  O   UNL d   1      -6.217 -20.983  -4.283 -0.01 -0.17    -0.303    17.809
ATOM     25  H   UNL d   1      -6.257 -20.014  -4.489 +0.05 +0.16    +0.222    17.809
ATOM     26  O   UNL d   1      -6.380 -19.989  -2.015 -0.08 -0.32    -0.303    17.809
ATOM     27  H   UNL d   1      -6.528 -19.157  -2.509 +0.04 +0.27    +0.222    17.809
ATOM     28  O   UNL d   1     -10.862 -16.995  -6.400 -0.05 -0.21    -0.278    17.809
ATOM     29  P   UNL d   1     -12.287 -16.317  -6.613 +0.00 +0.23    +0.473    17.809
ATOM     30  O   UNL d   1     -12.503 -15.040  -5.885 -0.07 -0.10    -0.228    17.809
ATOM     31  O   UNL d   1     -12.332 -16.258  -8.212 -0.01 -0.14    -0.303    17.809
ATOM     32  H   UNL d   1     -11.763 -16.978  -8.568 +0.02 +0.12    +0.222    17.809
ATOM     33  O   UNL d   1     -13.280 -17.515  -6.277 +0.00 -0.11    -0.303    17.809
ATOM     34  H   UNL d   1     -13.098 -18.266  -6.893 +0.01 +0.08    +0.222    17.809
ATOM     35  O   UNL d   1      -7.505 -17.988  -3.363 -0.16 -0.35    -0.278    17.809
ATOM     36  P   UNL d   1      -6.434 -17.826  -4.535 -0.21 +0.51    +0.473    17.809
ATOM     37  O   UNL d   1      -6.797 -18.474  -5.833 -0.38 -0.40    -0.228    17.809
ATOM     38  O   UNL d   1      -6.275 -16.244  -4.614 -0.32 -0.33    -0.303    17.809
ATOM     39  H   UNL d   1      -7.084 -15.859  -5.014 +0.11 +0.26    +0.222    17.809
ATOM     40  O   UNL d   1      -5.090 -18.312  -3.836 -0.23 -0.21    -0.303    17.809
ATOM     41  H   UNL d   1      -5.120 -19.269  -3.616 +0.05 +0.14    +0.222    17.809
ATOM     42  O   UNL d   1      -9.860 -16.326  -3.786 -0.10 -0.26    -0.278    17.809
ATOM     43  P   UNL d   1      -9.271 -14.875  -4.089 -0.18 +0.39    +0.473    17.809
ATOM     44  O   UNL d   1     -10.130 -13.703  -3.762 -0.29 -0.11    -0.228    17.809
ATOM     45  O   UNL d   1      -7.878 -14.896  -3.319 -0.63 -0.36    -0.303    17.809
ATOM     46  H   UNL d   1      -7.479 -15.789  -3.327 +0.10 +0.31    +0.222    17.809
ATOM     47  O   UNL d   1      -8.800 -14.983  -5.617 -0.16 -0.28    -0.303    17.809
ATOM     48  H   UNL d   1      -9.557 -15.272  -6.168 +0.08 +0.20    +0.222    17.809
TER
ENDMDL
MODEL       20
USER    Run = 20
USER    Cluster Rank = 69
USER    Number of conformations in this cluster = 1
USER  
USER    RMSD from reference structure       = 21.395 A
USER  
USER    Estimated Free Energy of Binding    =   +3.80 kcal/mol  [=(1)+(2)+(3)-(4)]
USER    
USER    (1) Final Intermolecular Energy     =   -3.36 kcal/mol
USER        vdW + Hbond + desolv Energy     =   -3.08 kcal/mol
USER        Electrostatic Energy            =   -0.28 kcal/mol
USER    (2) Final Total Internal Energy     =  -13.84 kcal/mol
USER    (3) Torsional Free Energy           =   +7.16 kcal/mol
USER    (4) Unbound System's Energy  [=(2)] =  -13.84 kcal/mol
USER    
USER    
USER  
USER    DPF = D:/Protein_go_brrr/autodock/final/AncB/IHP/dock.dpf
USER    NEWDPF move	IHP_ideal_opt.pdbqt
USER    NEWDPF about	0.035000 0.082000 -0.065000
USER    NEWDPF tran0	-13.395529 9.983204 18.362495
USER    NEWDPF axisangle0	-0.434629 -0.560982 -0.704554 122.259876
USER    NEWDPF quaternion0	-0.380612 -0.491262 -0.616990 0.482825
USER    NEWDPF dihe0	-123.22 -1.46 -166.41 -38.68 -8.73 -180.00 -93.20 -17.98 133.37 -38.89 88.56 -34.92 64.45 -180.00 179.36 -27.21 175.59 40.44 40.87 17.82 172.53 3.18 15.01 -177.48 
USER  
USER                              x       y       z    vdW   Elec        q     RMS 
ATOM      1  C   UNL d   1     -12.758  11.432  17.672 +0.00 +0.03    +0.194    21.395
ATOM      2  C   UNL d   1     -12.623  10.175  16.811 -0.03 +0.04    +0.194    21.395
ATOM      3  C   UNL d   1     -12.182   8.966  17.639 -0.04 +0.02    +0.194    21.395
ATOM      4  C   UNL d   1     -13.052   8.732  18.871 -0.03 +0.00    +0.194    21.395
ATOM      5  C   UNL d   1     -13.308   9.985  19.698 +0.00 +0.00    +0.194    21.395
ATOM      6  C   UNL d   1     -13.689  11.210  18.864 +0.01 +0.01    +0.194    21.395
ATOM      7  O   UNL d   1     -13.334  12.464  16.868 -0.00 -0.06    -0.278    21.395
ATOM      8  P   UNL d   1     -12.377  13.289  15.890 -0.03 +0.24    +0.473    21.395
ATOM      9  O   UNL d   1     -12.670  13.132  14.439 -0.11 -0.15    -0.228    21.395
ATOM     10  O   UNL d   1     -12.510  14.795  16.399 -0.01 -0.07    -0.303    21.395
ATOM     11  H   UNL d   1     -11.960  14.921  17.194 +0.01 +0.04    +0.222    21.395
ATOM     12  O   UNL d   1     -10.901  12.914  16.344 -0.49 -0.25    -0.303    21.395
ATOM     13  H   UNL d   1     -10.775  12.955  17.319 +0.02 +0.08    +0.222    21.395
ATOM     14  O   UNL d   1     -13.892   9.881  16.213 -0.03 -0.04    -0.278    21.395
ATOM     15  P   UNL d   1     -13.859   9.162  14.782 -0.05 +0.05    +0.473    21.395
ATOM     16  O   UNL d   1     -14.598   9.841  13.672 -0.08 -0.03    -0.228    21.395
ATOM     17  O   UNL d   1     -12.306   8.985  14.473 +0.11 -0.05    -0.303    21.395
ATOM     18  H   UNL d   1     -12.002   8.085  14.702 -0.44 -0.02    +0.222    21.395
ATOM     19  O   UNL d   1     -14.298   7.663  15.082 -0.59 -0.03    -0.303    21.395
ATOM     20  H   UNL d   1     -13.528   7.069  15.154 -0.38 -0.01    +0.222    21.395
ATOM     21  O   UNL d   1     -13.556  12.346  19.716 +0.00 -0.01    -0.278    21.395
ATOM     22  P   UNL d   1     -12.106  12.830  20.170 +0.01 +0.00    +0.473    21.395
ATOM     23  O   UNL d   1     -11.971  13.510  21.491 +0.00 +0.01    -0.228    21.395
ATOM     24  O   UNL d   1     -11.254  11.494  20.017 +0.01 +0.00    -0.303    21.395
ATOM     25  H   UNL d   1     -11.485  10.893  20.770 +0.00 -0.00    +0.222    21.395
ATOM     26  O   UNL d   1     -11.630  13.675  18.893 +0.01 -0.02    -0.303    21.395
ATOM     27  H   UNL d   1     -12.370  13.738  18.256 +0.01 +0.02    +0.222    21.395
ATOM     28  O   UNL d   1     -12.353   7.809  16.831 -0.12 -0.02    -0.278    21.395
ATOM     29  P   UNL d   1     -11.087   6.967  16.354 -0.15 +0.02    +0.473    21.395
ATOM     30  O   UNL d   1     -10.023   7.744  15.668 -0.16 -0.04    -0.228    21.395
ATOM     31  O   UNL d   1     -10.692   6.253  17.730 -0.09 +0.01    -0.303    21.395
ATOM     32  H   UNL d   1     -10.778   6.908  18.460 +0.05 -0.01    +0.222    21.395
ATOM     33  O   UNL d   1     -11.764   5.787  15.526 -0.20 -0.02    -0.303    21.395
ATOM     34  H   UNL d   1     -12.503   6.157  14.985 -0.36 -0.02    +0.222    21.395
ATOM     35  O   UNL d   1     -14.426   9.679  20.529 -0.00 -0.00    -0.278    21.395
ATOM     36  P   UNL d   1     -14.521  10.282  22.003 +0.01 -0.01    +0.473    21.395
ATOM     37  O   UNL d   1     -15.042   9.348  23.049 +0.00 +0.00    -0.228    21.395
ATOM     38  O   UNL d   1     -13.027  10.774  22.251 +0.00 +0.01    -0.303    21.395
ATOM     39  H   UNL d   1     -12.811  11.481  21.606 +0.00 -0.00    +0.222    21.395
ATOM     40  O   UNL d   1     -15.334  11.628  21.767 +0.00 -0.00    -0.303    21.395
ATOM     41  H   UNL d   1     -14.755  12.350  21.435 +0.00 +0.00    +0.222    21.395
ATOM     42  O   UNL d   1     -12.345   7.811  19.709 -0.02 +0.01    -0.278    21.395
ATOM     43  P   UNL d   1     -11.039   8.313  20.476 +0.01 -0.02    +0.473    21.395
ATOM     44  O   UNL d   1     -11.230   8.974  21.797 +0.00 +0.01    -0.228    21.395
ATOM     45  O   UNL d   1     -10.139   7.002  20.527 -0.00 +0.03    -0.303    21.395
ATOM     46  H   UNL d   1     -10.459   6.323  19.900 +0.04 -0.02    +0.222    21.395
ATOM     47  O   UNL d   1     -10.278   9.188  19.369 +0.00 +0.01    -0.303    21.395
ATOM     48  H   UNL d   1      -9.846   9.953  19.803 +0.02 -0.01    +0.222    21.395
TER
ENDMDL
MODEL       65
USER    Run = 65
USER    Cluster Rank = 70
USER    Number of conformations in this cluster = 1
USER  
USER    RMSD from reference structure       = 18.406 A
USER  
USER    Estimated Free Energy of Binding    =   +3.83 kcal/mol  [=(1)+(2)+(3)-(4)]
USER    
USER    (1) Final Intermolecular Energy     =   -3.33 kcal/mol
USER        vdW + Hbond + desolv Energy     =   -3.04 kcal/mol
USER        Electrostatic Energy            =   -0.29 kcal/mol
USER    (2) Final Total Internal Energy     =  -15.54 kcal/mol
USER    (3) Torsional Free Energy           =   +7.16 kcal/mol
USER    (4) Unbound System's Energy  [=(2)] =  -15.54 kcal/mol
USER    
USER    
USER  
USER    DPF = D:/Protein_go_brrr/autodock/final/AncB/IHP/dock.dpf
USER    NEWDPF move	IHP_ideal_opt.pdbqt
USER    NEWDPF about	0.035000 0.082000 -0.065000
USER    NEWDPF tran0	-11.040947 -18.027984 -4.504160
USER    NEWDPF axisangle0	-0.982615 0.119677 -0.141938 82.035681
USER    NEWDPF quaternion0	-0.644884 0.078543 -0.093153 0.754505
USER    NEWDPF dihe0	-158.13 -11.72 156.18 -9.55 -6.59 -98.86 -102.94 29.39 12.09 0.18 141.14 113.51 91.32 -173.13 -17.73 176.06 176.17 60.43 -10.33 15.23 157.17 27.70 -20.09 -16.02 
USER  
USER                              x       y       z    vdW   Elec        q     RMS 
ATOM      1  C   UNL d   1      -9.609 -18.894  -4.933 -0.04 +0.16    +0.194    18.406
ATOM      2  C   UNL d   1     -10.626 -18.700  -6.059 -0.03 +0.14    +0.194    18.406
ATOM      3  C   UNL d   1     -12.058 -18.946  -5.578 +0.01 +0.09    +0.194    18.406
ATOM      4  C   UNL d   1     -12.419 -18.145  -4.329 +0.00 +0.09    +0.194    18.406
ATOM      5  C   UNL d   1     -11.375 -18.218  -3.222 -0.03 +0.13    +0.194    18.406
ATOM      6  C   UNL d   1      -9.938 -18.033  -3.713 -0.07 +0.17    +0.194    18.406
ATOM      7  O   UNL d   1      -8.328 -18.481  -5.413 -0.10 -0.34    -0.278    18.406
ATOM      8  P   UNL d   1      -7.075 -19.438  -5.154 -0.06 +0.48    +0.473    18.406
ATOM      9  O   UNL d   1      -6.082 -19.492  -6.261 -0.69 -0.30    -0.228    18.406
ATOM     10  O   UNL d   1      -6.458 -18.904  -3.783 -0.12 -0.28    -0.303    18.406
ATOM     11  H   UNL d   1      -7.177 -18.733  -3.145 +0.04 +0.26    +0.222    18.406
ATOM     12  O   UNL d   1      -7.703 -20.830  -4.716 -0.00 -0.19    -0.303    18.406
ATOM     13  H   UNL d   1      -8.291 -20.758  -3.931 +0.02 +0.14    +0.222    18.406
ATOM     14  O   UNL d   1     -10.533 -17.355  -6.546 -0.09 -0.25    -0.278    18.406
ATOM     15  P   UNL d   1     -10.819 -17.137  -8.106 -0.02 +0.42    +0.473    18.406
ATOM     16  O   UNL d   1      -9.689 -16.601  -8.928 -0.49 -0.36    -0.228    18.406
ATOM     17  O   UNL d   1     -11.328 -18.561  -8.609 -0.03 -0.18    -0.303    18.406
ATOM     18  H   UNL d   1     -12.140 -18.831  -8.138 +0.01 +0.10    +0.222    18.406
ATOM     19  O   UNL d   1     -12.162 -16.285  -8.148 -0.01 -0.15    -0.303    18.406
ATOM     20  H   UNL d   1     -12.930 -16.808  -7.853 +0.01 +0.09    +0.222    18.406
ATOM     21  O   UNL d   1      -9.083 -18.462  -2.655 -0.14 -0.37    -0.278    18.406
ATOM     22  P   UNL d   1      -9.255 -19.925  -2.042 -0.03 +0.47    +0.473    18.406
ATOM     23  O   UNL d   1     -10.113 -20.900  -2.776 -0.00 -0.13    -0.228    18.406
ATOM     24  O   UNL d   1      -7.741 -20.378  -1.852 -0.07 -0.31    -0.303    18.406
ATOM     25  H   UNL d   1      -7.362 -20.568  -2.748 +0.03 +0.17    +0.222    18.406
ATOM     26  O   UNL d   1      -9.694 -19.596  -0.536 -0.62 -0.43    -0.303    18.406
ATOM     27  H   UNL d   1     -10.666 -19.488  -0.500 +0.02 +0.22    +0.222    18.406
ATOM     28  O   UNL d   1     -12.937 -18.479  -6.593 +0.00 -0.11    -0.278    18.406
ATOM     29  P   UNL d   1     -14.230 -19.322  -6.988 +0.01 +0.13    +0.473    18.406
ATOM     30  O   UNL d   1     -15.386 -18.528  -7.480 +0.00 -0.05    -0.228    18.406
ATOM     31  O   UNL d   1     -13.580 -20.369  -8.009 +0.00 -0.08    -0.303    18.406
ATOM     32  H   UNL d   1     -13.059 -19.870  -8.680 +0.00 +0.07    +0.222    18.406
ATOM     33  O   UNL d   1     -14.465 -20.203  -5.683 +0.00 -0.08    -0.303    18.406
ATOM     34  H   UNL d   1     -15.038 -19.699  -5.054 +0.00 +0.06    +0.222    18.406
ATOM     35  O   UNL d   1     -11.664 -17.130  -2.347 -0.09 -0.21    -0.278    18.406
ATOM     36  P   UNL d   1     -12.238 -17.404  -0.884 -0.02 +0.34    +0.473    18.406
ATOM     37  O   UNL d   1     -13.313 -16.469  -0.428 -0.04 -0.12    -0.228    18.406
ATOM     38  O   UNL d   1     -12.697 -18.925  -0.994 -0.00 -0.16    -0.303    18.406
ATOM     39  H   UNL d   1     -13.351 -19.011  -1.721 +0.01 +0.10    +0.222    18.406
ATOM     40  O   UNL d   1     -10.914 -17.466  -0.005 -0.51 -0.41    -0.303    18.406
ATOM     41  H   UNL d   1     -10.198 -17.961  -0.461 +0.03 +0.43    +0.222    18.406
ATOM     42  O   UNL d   1     -13.626 -18.712  -3.808 +0.00 -0.10    -0.278    18.406
ATOM     43  P   UNL d   1     -14.868 -17.753  -3.524 +0.01 +0.14    +0.473    18.406
ATOM     44  O   UNL d   1     -16.019 -17.821  -4.467 -0.00 -0.06    -0.228    18.406
ATOM     45  O   UNL d   1     -15.240 -18.102  -2.016 +0.00 -0.09    -0.303    18.406
ATOM     46  H   UNL d   1     -14.544 -17.804  -1.397 +0.02 +0.08    +0.222    18.406
ATOM     47  O   UNL d   1     -14.188 -16.310  -3.366 -0.01 -0.11    -0.303    18.406
ATOM     48  H   UNL d   1     -13.644 -16.297  -2.551 +0.04 +0.09    +0.222    18.406
TER
ENDMDL
MODEL       89
USER    Run = 89
USER    Cluster Rank = 71
USER    Number of conformations in this cluster = 1
USER  
USER    RMSD from reference structure       = 21.322 A
USER  
USER    Estimated Free Energy of Binding    =   +3.86 kcal/mol  [=(1)+(2)+(3)-(4)]
USER    
USER    (1) Final Intermolecular Energy     =   -3.30 kcal/mol
USER        vdW + Hbond + desolv Energy     =   -2.41 kcal/mol
USER        Electrostatic Energy            =   -0.89 kcal/mol
USER    (2) Final Total Internal Energy     =  -14.37 kcal/mol
USER    (3) Torsional Free Energy           =   +7.16 kcal/mol
USER    (4) Unbound System's Energy  [=(2)] =  -14.37 kcal/mol
USER    
USER    
USER  
USER    DPF = D:/Protein_go_brrr/autodock/final/AncB/IHP/dock.dpf
USER    NEWDPF move	IHP_ideal_opt.pdbqt
USER    NEWDPF about	0.035000 0.082000 -0.065000
USER    NEWDPF tran0	-7.334394 -15.331256 -18.231413
USER    NEWDPF axisangle0	-0.869423 -0.493160 -0.029941 160.699735
USER    NEWDPF quaternion0	-0.857121 -0.486181 -0.029518 0.167631
USER    NEWDPF dihe0	-163.22 157.64 85.63 106.98 -179.97 118.31 -137.78 -26.23 41.68 105.23 33.86 146.08 43.34 -82.36 -159.47 61.72 -21.98 161.06 -139.86 -27.26 18.13 -17.81 -34.13 7.54 
USER  
USER                              x       y       z    vdW   Elec        q     RMS 
ATOM      1  C   UNL d   1      -7.238 -14.061 -19.398 +0.00 +0.00    +0.194    21.322
ATOM      2  C   UNL d   1      -8.635 -14.639 -19.164 +0.01 +0.00    +0.194    21.322
ATOM      3  C   UNL d   1      -8.608 -16.166 -19.074 +0.01 -0.00    +0.194    21.322
ATOM      4  C   UNL d   1      -7.590 -16.692 -18.065 +0.00 -0.03    +0.194    21.322
ATOM      5  C   UNL d   1      -6.210 -16.057 -18.188 -0.02 -0.06    +0.194    21.322
ATOM      6  C   UNL d   1      -6.241 -14.534 -18.340 -0.03 -0.06    +0.194    21.322
ATOM      7  O   UNL d   1      -7.322 -12.637 -19.297 -0.01 -0.06    -0.278    21.322
ATOM      8  P   UNL d   1      -6.923 -11.949 -17.912 -0.06 +0.08    +0.473    21.322
ATOM      9  O   UNL d   1      -5.517 -11.468 -17.829 -0.29 -0.20    -0.228    21.322
ATOM     10  O   UNL d   1      -7.997 -10.784 -17.735 -0.03 -0.12    -0.303    21.322
ATOM     11  H   UNL d   1      -8.871 -11.096 -18.037 +0.02 +0.06    +0.222    21.322
ATOM     12  O   UNL d   1      -7.368 -12.985 -16.793 -0.05 +0.23    -0.303    21.322
ATOM     13  H   UNL d   1      -6.608 -13.385 -16.313 -0.50 -0.43    +0.222    21.322
ATOM     14  O   UNL d   1      -9.156 -14.119 -17.935 -0.00 +0.02    -0.278    21.322
ATOM     15  P   UNL d   1     -10.272 -12.976 -18.058 +0.02 +0.05    +0.473    21.322
ATOM     16  O   UNL d   1     -10.238 -12.134 -19.294 +0.00 -0.04    -0.228    21.322
ATOM     17  O   UNL d   1     -11.648 -13.759 -17.881 +0.00 -0.04    -0.303    21.322
ATOM     18  H   UNL d   1     -11.509 -14.725 -17.904 +0.00 +0.02    +0.222    21.322
ATOM     19  O   UNL d   1     -10.178 -12.181 -16.683 -0.01 -0.03    -0.303    21.322
ATOM     20  H   UNL d   1      -9.255 -11.964 -16.455 +0.03 -0.02    +0.222    21.322
ATOM     21  O   UNL d   1      -4.944 -14.138 -18.781 -0.03 +0.05    -0.278    21.322
ATOM     22  P   UNL d   1      -3.779 -13.913 -17.714 -0.08 -0.30    +0.473    21.322
ATOM     23  O   UNL d   1      -3.009 -12.637 -17.771 -0.19 +0.01    -0.228    21.322
ATOM     24  O   UNL d   1      -4.541 -14.172 -16.341 +0.00 +0.57    -0.303    21.322
ATOM     25  H   UNL d   1      -4.163 -14.989 -15.928 -0.53 -0.58    +0.222    21.322
ATOM     26  O   UNL d   1      -2.924 -15.259 -17.877 -0.08 +0.23    -0.303    21.322
ATOM     27  H   UNL d   1      -3.509 -16.031 -17.738 +0.02 -0.16    +0.222    21.322
ATOM     28  O   UNL d   1      -9.875 -16.589 -18.586 +0.00 -0.00    -0.278    21.322
ATOM     29  P   UNL d   1     -11.040 -16.977 -19.601 +0.00 +0.04    +0.473    21.322
ATOM     30  O   UNL d   1     -10.603 -17.656 -20.848 +0.00 -0.02    -0.228    21.322
ATOM     31  O   UNL d   1     -12.000 -17.802 -18.623 +0.00 -0.03    -0.303    21.322
ATOM     32  H   UNL d   1     -11.696 -18.739 -18.602 +0.00 +0.02    +0.222    21.322
ATOM     33  O   UNL d   1     -11.812 -15.594 -19.768 +0.00 -0.03    -0.303    21.322
ATOM     34  H   UNL d   1     -11.161 -14.853 -19.698 +0.00 +0.02    +0.222    21.322
ATOM     35  O   UNL d   1      -5.542 -16.343 -16.961 -0.06 +0.19    -0.278    21.322
ATOM     36  P   UNL d   1      -4.553 -17.590 -16.856 -0.04 -0.26    +0.473    21.322
ATOM     37  O   UNL d   1      -3.986 -18.074 -18.152 -0.01 +0.06    -0.228    21.322
ATOM     38  O   UNL d   1      -3.464 -17.056 -15.824 -0.08 +0.44    -0.303    21.322
ATOM     39  H   UNL d   1      -3.406 -16.078 -15.895 -0.46 -0.57    +0.222    21.322
ATOM     40  O   UNL d   1      -5.406 -18.630 -16.008 -0.01 +0.10    -0.303    21.322
ATOM     41  H   UNL d   1      -6.220 -18.908 -16.484 +0.01 -0.04    +0.222    21.322
ATOM     42  O   UNL d   1      -7.434 -18.091 -18.324 +0.00 +0.02    -0.278    21.322
ATOM     43  P   UNL d   1      -8.136 -19.139 -17.348 +0.01 -0.02    +0.473    21.322
ATOM     44  O   UNL d   1      -7.516 -20.488 -17.228 +0.00 +0.00    -0.228    21.322
ATOM     45  O   UNL d   1      -8.219 -18.337 -15.976 +0.00 +0.03    -0.303    21.322
ATOM     46  H   UNL d   1      -7.411 -17.806 -15.822 +0.02 -0.06    +0.222    21.322
ATOM     47  O   UNL d   1      -9.665 -19.120 -17.829 +0.00 -0.01    -0.303    21.322
ATOM     48  H   UNL d   1      -9.903 -18.213 -18.112 +0.00 +0.01    +0.222    21.322
TER
ENDMDL
MODEL       72
USER    Run = 72
USER    Cluster Rank = 72
USER    Number of conformations in this cluster = 1
USER  
USER    RMSD from reference structure       = 11.571 A
USER  
USER    Estimated Free Energy of Binding    =   +3.87 kcal/mol  [=(1)+(2)+(3)-(4)]
USER    
USER    (1) Final Intermolecular Energy     =   -3.29 kcal/mol
USER        vdW + Hbond + desolv Energy     =   -3.17 kcal/mol
USER        Electrostatic Energy            =   -0.12 kcal/mol
USER    (2) Final Total Internal Energy     =  -12.61 kcal/mol
USER    (3) Torsional Free Energy           =   +7.16 kcal/mol
USER    (4) Unbound System's Energy  [=(2)] =  -12.61 kcal/mol
USER    
USER    
USER  
USER    DPF = D:/Protein_go_brrr/autodock/final/AncB/IHP/dock.dpf
USER    NEWDPF move	IHP_ideal_opt.pdbqt
USER    NEWDPF about	0.035000 0.082000 -0.065000
USER    NEWDPF tran0	-11.172856 6.534209 -7.689116
USER    NEWDPF axisangle0	0.526417 -0.847476 0.068336 -120.663829
USER    NEWDPF quaternion0	0.457407 -0.736378 0.059378 -0.494975
USER    NEWDPF dihe0	42.05 16.04 -137.90 109.98 155.38 -119.18 -49.79 33.51 151.13 102.26 57.58 -41.84 174.88 77.94 111.74 135.67 -15.83 115.57 37.65 -3.23 -43.24 -15.74 134.42 161.58 
USER  
USER                              x       y       z    vdW   Elec        q     RMS 
ATOM      1  C   UNL d   1     -11.171   4.826  -7.430 -0.06 +0.04    +0.194    11.571
ATOM      2  C   UNL d   1     -10.219   5.331  -8.516 -0.06 +0.05    +0.194    11.571
ATOM      3  C   UNL d   1     -10.878   6.392  -9.399 -0.02 +0.05    +0.194    11.571
ATOM      4  C   UNL d   1     -11.503   7.535  -8.602 -0.01 +0.05    +0.194    11.571
ATOM      5  C   UNL d   1     -12.370   7.077  -7.436 -0.00 +0.04    +0.194    11.571
ATOM      6  C   UNL d   1     -11.735   5.972  -6.589 -0.04 +0.04    +0.194    11.571
ATOM      7  O   UNL d   1     -10.433   3.975  -6.550 -0.14 -0.04    -0.278    11.571
ATOM      8  P   UNL d   1     -10.260   2.438  -6.948 -0.05 +0.04    +0.473    11.571
ATOM      9  O   UNL d   1     -10.525   1.468  -5.850 -0.16 +0.02    -0.228    11.571
ATOM     10  O   UNL d   1     -11.233   2.251  -8.199 -0.05 -0.04    -0.303    11.571
ATOM     11  H   UNL d   1     -11.945   1.626  -7.968 +0.05 +0.01    +0.222    11.571
ATOM     12  O   UNL d   1      -8.826   2.344  -7.624 -0.20 -0.06    -0.303    11.571
ATOM     13  H   UNL d   1      -8.554   3.179  -8.069 +0.08 +0.05    +0.222    11.571
ATOM     14  O   UNL d   1      -9.065   5.909  -7.893 -0.12 -0.08    -0.278    11.571
ATOM     15  P   UNL d   1      -7.639   5.383  -8.400 -0.19 +0.16    +0.473    11.571
ATOM     16  O   UNL d   1      -6.606   6.424  -8.697 -0.33 -0.09    -0.228    11.571
ATOM     17  O   UNL d   1      -7.178   4.361  -7.268 -0.25 -0.06    -0.303    11.571
ATOM     18  H   UNL d   1      -6.951   3.492  -7.651 -0.36 +0.03    +0.222    11.571
ATOM     19  O   UNL d   1      -7.984   4.397  -9.600 -0.14 -0.12    -0.303    11.571
ATOM     20  H   UNL d   1      -8.590   4.810 -10.243 +0.06 +0.09    +0.222    11.571
ATOM     21  O   UNL d   1     -12.774   5.425  -5.780 -0.04 -0.05    -0.278    11.571
ATOM     22  P   UNL d   1     -12.444   4.913  -4.306 -0.15 +0.10    +0.473    11.571
ATOM     23  O   UNL d   1     -13.450   5.158  -3.233 -0.39 -0.21    -0.228    11.571
ATOM     24  O   UNL d   1     -12.102   3.380  -4.562 -0.22 +0.11    -0.303    11.571
ATOM     25  H   UNL d   1     -11.131   3.308  -4.749 -0.27 -0.06    +0.222    11.571
ATOM     26  O   UNL d   1     -10.989   5.541  -4.062 -0.16 -0.06    -0.303    11.571
ATOM     27  H   UNL d   1     -11.062   6.516  -4.023 +0.09 +0.05    +0.222    11.571
ATOM     28  O   UNL d   1      -9.855   6.994 -10.182 -0.02 -0.09    -0.278    11.571
ATOM     29  P   UNL d   1      -9.554   6.466 -11.655 -0.00 +0.18    +0.473    11.571
ATOM     30  O   UNL d   1      -9.945   7.382 -12.756 -0.01 -0.08    -0.228    11.571
ATOM     31  O   UNL d   1      -7.998   6.120 -11.515 -0.08 -0.16    -0.303    11.571
ATOM     32  H   UNL d   1      -7.718   6.303 -10.588 +0.07 +0.11    +0.222    11.571
ATOM     33  O   UNL d   1     -10.237   5.027 -11.640 -0.01 -0.10    -0.303    11.571
ATOM     34  H   UNL d   1     -11.163   5.107 -11.975 +0.01 +0.06    +0.222    11.571
ATOM     35  O   UNL d   1     -12.520   8.218  -6.594 -0.00 -0.07    -0.278    11.571
ATOM     36  P   UNL d   1     -11.546   8.433  -5.349 +0.01 +0.12    +0.473    11.571
ATOM     37  O   UNL d   1     -10.178   7.845  -5.492 -0.08 -0.06    -0.228    11.571
ATOM     38  O   UNL d   1     -11.564  10.017  -5.190 -0.01 -0.08    -0.303    11.571
ATOM     39  H   UNL d   1     -12.372  10.281  -4.700 +0.01 +0.05    +0.222    11.571
ATOM     40  O   UNL d   1     -12.430   7.916  -4.132 -0.00 -0.08    -0.303    11.571
ATOM     41  H   UNL d   1     -12.677   6.970  -4.237 +0.05 +0.07    +0.222    11.571
ATOM     42  O   UNL d   1     -12.353   8.253  -9.503 -0.00 -0.07    -0.278    11.571
ATOM     43  P   UNL d   1     -13.416   7.441 -10.372 +0.00 +0.10    +0.473    11.571
ATOM     44  O   UNL d   1     -14.549   8.206 -10.962 +0.00 -0.04    -0.228    11.571
ATOM     45  O   UNL d   1     -12.499   6.705 -11.445 -0.00 -0.07    -0.303    11.571
ATOM     46  H   UNL d   1     -11.603   7.096 -11.479 +0.01 +0.06    +0.222    11.571
ATOM     47  O   UNL d   1     -13.827   6.227  -9.409 +0.00 -0.06    -0.303    11.571
ATOM     48  H   UNL d   1     -14.797   6.098  -9.449 +0.00 +0.04    +0.222    11.571
TER
ENDMDL
MODEL        7
USER    Run = 7
USER    Cluster Rank = 73
USER    Number of conformations in this cluster = 1
USER  
USER    RMSD from reference structure       = 22.063 A
USER  
USER    Estimated Free Energy of Binding    =   +3.91 kcal/mol  [=(1)+(2)+(3)-(4)]
USER    
USER    (1) Final Intermolecular Energy     =   -3.25 kcal/mol
USER        vdW + Hbond + desolv Energy     =   -3.20 kcal/mol
USER        Electrostatic Energy            =   -0.04 kcal/mol
USER    (2) Final Total Internal Energy     =  -14.00 kcal/mol
USER    (3) Torsional Free Energy           =   +7.16 kcal/mol
USER    (4) Unbound System's Energy  [=(2)] =  -14.00 kcal/mol
USER    
USER    
USER  
USER    DPF = D:/Protein_go_brrr/autodock/final/AncB/IHP/dock.dpf
USER    NEWDPF move	IHP_ideal_opt.pdbqt
USER    NEWDPF about	0.035000 0.082000 -0.065000
USER    NEWDPF tran0	10.245467 15.746395 -17.157822
USER    NEWDPF axisangle0	0.070467 -0.342080 -0.937025 31.338956
USER    NEWDPF quaternion0	0.019032 -0.092392 -0.253079 0.962836
USER    NEWDPF dihe0	87.63 42.35 85.49 109.64 110.41 -168.70 -132.76 0.86 88.93 122.27 25.53 163.13 155.77 106.46 104.15 -178.59 108.11 -180.00 28.37 -4.74 -50.27 15.04 159.64 -12.61 
USER  
USER                              x       y       z    vdW   Elec        q     RMS 
ATOM      1  C   UNL d   1      11.886  15.645 -16.625 -0.03 +0.05    +0.194    22.063
ATOM      2  C   UNL d   1      11.151  14.310 -16.761 -0.07 +0.06    +0.194    22.063
ATOM      3  C   UNL d   1       9.729  14.386 -16.202 -0.08 +0.06    +0.194    22.063
ATOM      4  C   UNL d   1       8.921  15.550 -16.771 -0.03 +0.05    +0.194    22.063
ATOM      5  C   UNL d   1       9.660  16.882 -16.760 -0.01 +0.04    +0.194    22.063
ATOM      6  C   UNL d   1      11.103  16.794 -17.261 -0.00 +0.04    +0.194    22.063
ATOM      7  O   UNL d   1      13.131  15.542 -17.319 -0.02 -0.07    -0.278    22.063
ATOM      8  P   UNL d   1      14.431  15.125 -16.489 -0.05 +0.14    +0.473    22.063
ATOM      9  O   UNL d   1      15.719  15.629 -17.039 -0.03 -0.05    -0.228    22.063
ATOM     10  O   UNL d   1      14.130  15.648 -15.012 -0.61 -0.13    -0.303    22.063
ATOM     11  H   UNL d   1      14.161  16.623 -14.998 +0.03 +0.06    +0.222    22.063
ATOM     12  O   UNL d   1      14.320  13.550 -16.313 -0.06 -0.13    -0.303    22.063
ATOM     13  H   UNL d   1      13.493  13.177 -16.692 +0.04 +0.10    +0.222    22.063
ATOM     14  O   UNL d   1      11.078  13.957 -18.148 -0.02 -0.08    -0.278    22.063
ATOM     15  P   UNL d   1      11.619  12.503 -18.546 -0.05 +0.17    +0.473    22.063
ATOM     16  O   UNL d   1      11.180  11.962 -19.871 -0.03 -0.07    -0.228    22.063
ATOM     17  O   UNL d   1      13.202  12.631 -18.425 -0.06 -0.10    -0.303    22.063
ATOM     18  H   UNL d   1      13.471  13.562 -18.308 +0.03 +0.06    +0.222    22.063
ATOM     19  O   UNL d   1      11.275  11.594 -17.287 -0.41 -0.20    -0.303    22.063
ATOM     20  H   UNL d   1      10.345  11.696 -17.011 +0.06 +0.13    +0.222    22.063
ATOM     21  O   UNL d   1      11.748  18.005 -16.874 +0.00 -0.04    -0.278    22.063
ATOM     22  P   UNL d   1      12.975  18.557 -17.731 +0.01 +0.07    +0.473    22.063
ATOM     23  O   UNL d   1      12.996  20.008 -18.078 +0.00 -0.03    -0.228    22.063
ATOM     24  O   UNL d   1      14.221  18.058 -16.875 +0.00 -0.05    -0.303    22.063
ATOM     25  H   UNL d   1      14.054  17.118 -16.608 +0.01 +0.04    +0.222    22.063
ATOM     26  O   UNL d   1      12.993  17.538 -18.968 +0.00 -0.05    -0.303    22.063
ATOM     27  H   UNL d   1      12.135  17.069 -19.011 +0.00 +0.04    +0.222    22.063
ATOM     28  O   UNL d   1       9.042  13.212 -16.617 -0.10 -0.10    -0.278    22.063
ATOM     29  P   UNL d   1       8.331  12.274 -15.544 -0.25 +0.15    +0.473    22.063
ATOM     30  O   UNL d   1       7.212  11.445 -16.060 -0.39 -0.11    -0.228    22.063
ATOM     31  O   UNL d   1       9.604  11.497 -14.965 -0.42 -0.10    -0.303    22.063
ATOM     32  H   UNL d   1       9.833  10.764 -15.583 -0.38 +0.09    +0.222    22.063
ATOM     33  O   UNL d   1       7.987  13.303 -14.378 -0.27 -0.09    -0.303    22.063
ATOM     34  H   UNL d   1       7.393  14.007 -14.736 +0.10 +0.08    +0.222    22.063
ATOM     35  O   UNL d   1       8.951  17.725 -17.666 -0.00 -0.05    -0.278    22.063
ATOM     36  P   UNL d   1       8.996  17.438 -19.235 +0.00 +0.08    +0.473    22.063
ATOM     37  O   UNL d   1       7.804  17.901 -20.010 -0.00 -0.04    -0.228    22.063
ATOM     38  O   UNL d   1      10.363  18.139 -19.655 +0.00 -0.05    -0.303    22.063
ATOM     39  H   UNL d   1      10.918  18.267 -18.855 +0.00 +0.03    +0.222    22.063
ATOM     40  O   UNL d   1       9.332  15.884 -19.286 +0.00 -0.06    -0.303    22.063
ATOM     41  H   UNL d   1       8.531  15.334 -19.140 +0.01 +0.05    +0.222    22.063
ATOM     42  O   UNL d   1       7.768  15.701 -15.935 -0.07 -0.07    -0.278    22.063
ATOM     43  P   UNL d   1       6.320  15.637 -16.601 -0.03 +0.13    +0.473    22.063
ATOM     44  O   UNL d   1       5.332  16.677 -16.199 -0.09 -0.06    -0.228    22.063
ATOM     45  O   UNL d   1       6.651  15.621 -18.157 -0.02 -0.08    -0.303    22.063
ATOM     46  H   UNL d   1       7.302  16.312 -18.392 +0.01 +0.05    +0.222    22.063
ATOM     47  O   UNL d   1       5.868  14.120 -16.349 -0.05 -0.12    -0.303    22.063
ATOM     48  H   UNL d   1       6.657  13.579 -16.136 +0.09 +0.09    +0.222    22.063
TER
ENDMDL
MODEL       85
USER    Run = 85
USER    Cluster Rank = 74
USER    Number of conformations in this cluster = 1
USER  
USER    RMSD from reference structure       = 16.787 A
USER  
USER    Estimated Free Energy of Binding    =   +3.93 kcal/mol  [=(1)+(2)+(3)-(4)]
USER    
USER    (1) Final Intermolecular Energy     =   -3.23 kcal/mol
USER        vdW + Hbond + desolv Energy     =   -3.01 kcal/mol
USER        Electrostatic Energy            =   -0.22 kcal/mol
USER    (2) Final Total Internal Energy     =  -13.60 kcal/mol
USER    (3) Torsional Free Energy           =   +7.16 kcal/mol
USER    (4) Unbound System's Energy  [=(2)] =  -13.60 kcal/mol
USER    
USER    
USER  
USER    DPF = D:/Protein_go_brrr/autodock/final/AncB/IHP/dock.dpf
USER    NEWDPF move	IHP_ideal_opt.pdbqt
USER    NEWDPF about	0.035000 0.082000 -0.065000
USER    NEWDPF tran0	-12.701784 -15.654620 -4.815316
USER    NEWDPF axisangle0	0.975299 0.115804 -0.188097 -123.802486
USER    NEWDPF quaternion0	0.860348 0.102155 -0.165928 -0.470993
USER    NEWDPF dihe0	107.10 176.72 63.02 77.95 7.43 150.32 -113.38 -32.15 150.73 19.61 95.80 -123.66 135.69 -88.94 151.07 37.21 170.68 92.99 -2.64 1.53 -24.49 4.61 170.44 11.88 
USER  
USER                              x       y       z    vdW   Elec        q     RMS 
ATOM      1  C   UNL d   1     -11.989 -15.823  -6.380 -0.05 +0.10    +0.194    16.787
ATOM      2  C   UNL d   1     -13.339 -15.105  -6.343 -0.04 +0.07    +0.194    16.787
ATOM      3  C   UNL d   1     -14.330 -15.809  -5.413 -0.02 +0.06    +0.194    16.787
ATOM      4  C   UNL d   1     -13.769 -16.058  -4.015 -0.03 +0.07    +0.194    16.787
ATOM      5  C   UNL d   1     -12.374 -16.668  -4.005 -0.03 +0.10    +0.194    16.787
ATOM      6  C   UNL d   1     -11.400 -16.003  -4.980 -0.07 +0.11    +0.194    16.787
ATOM      7  O   UNL d   1     -11.075 -15.015  -7.125 -0.08 -0.17    -0.278    16.787
ATOM      8  P   UNL d   1     -10.319 -15.675  -8.369 -0.05 +0.42    +0.473    16.787
ATOM      9  O   UNL d   1      -9.263 -14.828  -8.987 -0.21 -0.18    -0.228    16.787
ATOM     10  O   UNL d   1      -9.762 -17.055  -7.795 -0.46 -0.56    -0.303    16.787
ATOM     11  H   UNL d   1      -9.277 -16.892  -6.965 +0.04 +0.42    +0.222    16.787
ATOM     12  O   UNL d   1     -11.476 -16.162  -9.343 -0.03 -0.16    -0.303    16.787
ATOM     13  H   UNL d   1     -11.335 -15.886 -10.277 +0.04 +0.09    +0.222    16.787
ATOM     14  O   UNL d   1     -13.143 -13.766  -5.871 -0.12 -0.10    -0.278    16.787
ATOM     15  P   UNL d   1     -13.860 -12.601  -6.705 -0.08 +0.15    +0.473    16.787
ATOM     16  O   UNL d   1     -13.982 -12.810  -8.182 -0.05 -0.09    -0.228    16.787
ATOM     17  O   UNL d   1     -15.271 -12.423  -5.988 -0.06 -0.09    -0.303    16.787
ATOM     18  H   UNL d   1     -15.595 -13.273  -5.633 +0.03 +0.06    +0.222    16.787
ATOM     19  O   UNL d   1     -13.105 -11.273  -6.261 -0.10 -0.06    -0.303    16.787
ATOM     20  H   UNL d   1     -12.245 -11.469  -5.846 -0.47 +0.01    +0.222    16.787
ATOM     21  O   UNL d   1     -10.281 -16.878  -5.106 -0.05 -0.22    -0.278    16.787
ATOM     22  P   UNL d   1      -8.807 -16.319  -4.860 -0.12 +0.50    +0.473    16.787
ATOM     23  O   UNL d   1      -7.660 -17.257  -5.028 -0.17 -0.30    -0.228    16.787
ATOM     24  O   UNL d   1      -8.777 -15.048  -5.818 -0.14 -0.30    -0.303    16.787
ATOM     25  H   UNL d   1      -8.956 -15.356  -6.743 +0.08 +0.28    +0.222    16.787
ATOM     26  O   UNL d   1      -8.954 -15.640  -3.415 -0.24 -0.36    -0.303    16.787
ATOM     27  H   UNL d   1      -9.893 -15.410  -3.261 +0.09 +0.21    +0.222    16.787
ATOM     28  O   UNL d   1     -15.436 -14.936  -5.226 -0.02 -0.08    -0.278    16.787
ATOM     29  P   UNL d   1     -16.881 -15.345  -5.757 +0.00 +0.11    +0.473    16.787
ATOM     30  O   UNL d   1     -17.027 -16.756  -6.197 -0.00 -0.05    -0.228    16.787
ATOM     31  O   UNL d   1     -17.777 -14.875  -4.517 -0.00 -0.06    -0.303    16.787
ATOM     32  H   UNL d   1     -17.505 -15.388  -3.721 +0.01 +0.05    +0.222    16.787
ATOM     33  O   UNL d   1     -17.169 -14.218  -6.845 -0.00 -0.07    -0.303    16.787
ATOM     34  H   UNL d   1     -16.307 -13.889  -7.201 +0.01 +0.06    +0.222    16.787
ATOM     35  O   UNL d   1     -11.865 -16.450  -2.690 -0.06 -0.19    -0.278    16.787
ATOM     36  P   UNL d   1     -11.729 -14.968  -2.115 -0.16 +0.31    +0.473    16.787
ATOM     37  O   UNL d   1     -10.554 -14.729  -1.221 -0.23 -0.24    -0.228    16.787
ATOM     38  O   UNL d   1     -11.724 -14.100  -3.450 -0.17 -0.16    -0.303    16.787
ATOM     39  H   UNL d   1     -12.648 -13.983  -3.761 +0.08 +0.10    +0.222    16.787
ATOM     40  O   UNL d   1     -13.171 -14.710  -1.496 -0.14 -0.13    -0.303    16.787
ATOM     41  H   UNL d   1     -13.850 -15.299  -1.895 +0.05 +0.09    +0.222    16.787
ATOM     42  O   UNL d   1     -14.644 -16.996  -3.379 -0.01 -0.09    -0.278    16.787
ATOM     43  P   UNL d   1     -15.748 -16.455  -2.362 +0.00 +0.13    +0.473    16.787
ATOM     44  O   UNL d   1     -17.103 -17.071  -2.429 -0.00 -0.05    -0.228    16.787
ATOM     45  O   UNL d   1     -15.030 -16.612  -0.951 -0.01 -0.10    -0.303    16.787
ATOM     46  H   UNL d   1     -14.056 -16.632  -1.045 +0.04 +0.09    +0.222    16.787
ATOM     47  O   UNL d   1     -15.698 -14.868  -2.579 -0.05 -0.08    -0.303    16.787
ATOM     48  H   UNL d   1     -15.839 -14.667  -3.527 +0.03 +0.06    +0.222    16.787
TER
ENDMDL
MODEL       46
USER    Run = 46
USER    Cluster Rank = 75
USER    Number of conformations in this cluster = 1
USER  
USER    RMSD from reference structure       = 18.729 A
USER  
USER    Estimated Free Energy of Binding    =   +4.04 kcal/mol  [=(1)+(2)+(3)-(4)]
USER    
USER    (1) Final Intermolecular Energy     =   -3.12 kcal/mol
USER        vdW + Hbond + desolv Energy     =   -2.99 kcal/mol
USER        Electrostatic Energy            =   -0.13 kcal/mol
USER    (2) Final Total Internal Energy     =  -13.71 kcal/mol
USER    (3) Torsional Free Energy           =   +7.16 kcal/mol
USER    (4) Unbound System's Energy  [=(2)] =  -13.71 kcal/mol
USER    
USER    
USER  
USER    DPF = D:/Protein_go_brrr/autodock/final/AncB/IHP/dock.dpf
USER    NEWDPF move	IHP_ideal_opt.pdbqt
USER    NEWDPF about	0.035000 0.082000 -0.065000
USER    NEWDPF tran0	10.768120 -6.639052 -16.900882
USER    NEWDPF axisangle0	-0.669046 0.352994 0.654044 111.908833
USER    NEWDPF quaternion0	-0.554366 0.292488 0.541936 0.559852
USER    NEWDPF dihe0	-169.51 -28.38 87.89 91.86 -7.43 179.96 -4.75 -90.96 101.51 46.14 -135.67 142.37 51.20 -82.00 179.39 -43.31 120.94 171.37 -147.11 -17.10 169.11 145.53 -24.18 170.52 
USER  
USER                              x       y       z    vdW   Elec        q     RMS 
ATOM      1  C   UNL d   1      10.086  -7.867 -17.907 -0.02 +0.02    +0.194    18.729
ATOM      2  C   UNL d   1       9.900  -6.430 -18.398 -0.01 +0.03    +0.194    18.729
ATOM      3  C   UNL d   1       9.514  -5.486 -17.258 -0.04 +0.03    +0.194    18.729
ATOM      4  C   UNL d   1      10.460  -5.569 -16.062 -0.08 +0.03    +0.194    18.729
ATOM      5  C   UNL d   1      10.764  -6.991 -15.610 -0.06 +0.03    +0.194    18.729
ATOM      6  C   UNL d   1      11.090  -7.950 -16.757 -0.02 +0.03    +0.194    18.729
ATOM      7  O   UNL d   1      10.609  -8.644 -18.987 -0.01 -0.03    -0.278    18.729
ATOM      8  P   UNL d   1      12.194  -8.753 -19.145 +0.00 +0.06    +0.473    18.729
ATOM      9  O   UNL d   1      12.788 -10.036 -18.680 -0.00 -0.03    -0.228    18.729
ATOM     10  O   UNL d   1      12.449  -8.468 -20.694 -0.00 -0.03    -0.303    18.729
ATOM     11  H   UNL d   1      11.784  -7.836 -21.023 +0.00 +0.03    +0.222    18.729
ATOM     12  O   UNL d   1      12.769  -7.437 -18.465 +0.00 -0.04    -0.303    18.729
ATOM     13  H   UNL d   1      12.623  -6.628 -19.006 +0.00 +0.03    +0.222    18.729
ATOM     14  O   UNL d   1      11.129  -5.971 -18.975 +0.00 -0.04    -0.278    18.729
ATOM     15  P   UNL d   1      11.112  -5.665 -20.547 +0.00 +0.07    +0.473    18.729
ATOM     16  O   UNL d   1      10.110  -6.416 -21.367 +0.00 -0.03    -0.228    18.729
ATOM     17  O   UNL d   1      10.921  -4.086 -20.632 +0.00 -0.05    -0.303    18.729
ATOM     18  H   UNL d   1      10.738  -3.706 -19.752 +0.01 +0.04    +0.222    18.729
ATOM     19  O   UNL d   1      12.628  -5.829 -20.999 +0.00 -0.04    -0.303    18.729
ATOM     20  H   UNL d   1      13.091  -6.504 -20.470 +0.00 +0.03    +0.222    18.729
ATOM     21  O   UNL d   1      11.009  -9.271 -16.226 -0.03 -0.04    -0.278    18.729
ATOM     22  P   UNL d   1       9.600  -9.848 -15.750 -0.05 +0.06    +0.473    18.729
ATOM     23  O   UNL d   1       9.586 -10.854 -14.649 -0.15 -0.03    -0.228    18.729
ATOM     24  O   UNL d   1       8.787  -8.514 -15.447 -0.16 -0.04    -0.303    18.729
ATOM     25  H   UNL d   1       9.136  -8.125 -14.605 +0.09 +0.03    +0.222    18.729
ATOM     26  O   UNL d   1       8.956 -10.319 -17.141 -0.09 -0.02    -0.303    18.729
ATOM     27  H   UNL d   1       9.618 -10.215 -17.854 +0.03 +0.02    +0.222    18.729
ATOM     28  O   UNL d   1       9.635  -4.155 -17.743 -0.03 -0.04    -0.278    18.729
ATOM     29  P   UNL d   1      10.880  -3.255 -17.322 -0.07 +0.10    +0.473    18.729
ATOM     30  O   UNL d   1      10.910  -2.831 -15.898 -0.13 -0.00    -0.228    18.729
ATOM     31  O   UNL d   1      12.080  -4.185 -17.828 -0.02 -0.06    -0.303    18.729
ATOM     32  H   UNL d   1      11.877  -4.490 -18.742 +0.02 +0.04    +0.222    18.729
ATOM     33  O   UNL d   1      10.843  -2.100 -18.417 -0.57 -0.14    -0.303    18.729
ATOM     34  H   UNL d   1      10.490  -2.471 -19.263 +0.03 +0.06    +0.222    18.729
ATOM     35  O   UNL d   1      11.933  -6.897 -14.797 -0.05 -0.07    -0.278    18.729
ATOM     36  P   UNL d   1      11.825  -7.050 -13.213 -0.15 +0.23    +0.473    18.729
ATOM     37  O   UNL d   1      13.119  -7.276 -12.498 -0.18 -0.18    -0.228    18.729
ATOM     38  O   UNL d   1      11.078  -5.705 -12.805 -0.28 -0.16    -0.303    18.729
ATOM     39  H   UNL d   1      10.477  -5.437 -13.533 +0.11 +0.07    +0.222    18.729
ATOM     40  O   UNL d   1      10.708  -8.171 -13.055 -0.18 -0.10    -0.303    18.729
ATOM     41  H   UNL d   1      10.426  -8.529 -13.926 +0.09 +0.05    +0.222    18.729
ATOM     42  O   UNL d   1       9.808  -4.910 -14.971 -0.18 -0.04    -0.278    18.729
ATOM     43  P   UNL d   1       8.394  -5.457 -14.474 -0.21 +0.04    +0.473    18.729
ATOM     44  O   UNL d   1       7.384  -4.453 -14.037 -0.38 -0.02    -0.228    18.729
ATOM     45  O   UNL d   1       7.923  -6.366 -15.692 -0.15 -0.02    -0.303    18.729
ATOM     46  H   UNL d   1       7.343  -7.094 -15.392 +0.08 -0.00    +0.222    18.729
ATOM     47  O   UNL d   1       8.792  -6.559 -13.380 -0.31 -0.02    -0.303    18.729
ATOM     48  H   UNL d   1       9.583  -7.048 -13.687 +0.12 +0.04    +0.222    18.729
TER
ENDMDL
MODEL       24
USER    Run = 24
USER    Cluster Rank = 76
USER    Number of conformations in this cluster = 1
USER  
USER    RMSD from reference structure       = 22.139 A
USER  
USER    Estimated Free Energy of Binding    =   +4.07 kcal/mol  [=(1)+(2)+(3)-(4)]
USER    
USER    (1) Final Intermolecular Energy     =   -3.09 kcal/mol
USER        vdW + Hbond + desolv Energy     =   -2.51 kcal/mol
USER        Electrostatic Energy            =   -0.58 kcal/mol
USER    (2) Final Total Internal Energy     =  -14.48 kcal/mol
USER    (3) Torsional Free Energy           =   +7.16 kcal/mol
USER    (4) Unbound System's Energy  [=(2)] =  -14.48 kcal/mol
USER    
USER    
USER  
USER    DPF = D:/Protein_go_brrr/autodock/final/AncB/IHP/dock.dpf
USER    NEWDPF move	IHP_ideal_opt.pdbqt
USER    NEWDPF about	0.035000 0.082000 -0.065000
USER    NEWDPF tran0	-8.528057 17.719263 16.247580
USER    NEWDPF axisangle0	0.502997 -0.601995 0.620159 -92.374592
USER    NEWDPF quaternion0	0.362966 -0.434403 0.447511 -0.692303
USER    NEWDPF dihe0	-44.56 37.62 142.70 14.62 88.93 81.24 -52.98 10.42 89.33 60.99 47.61 111.34 164.67 180.00 52.50 13.38 115.03 -96.45 47.05 6.67 177.69 -16.02 -5.68 172.09 
USER  
USER                              x       y       z    vdW   Elec        q     RMS 
ATOM      1  C   UNL d   1      -7.638  17.097  17.591 -0.02 -0.06    +0.194    22.139
ATOM      2  C   UNL d   1      -7.062  16.776  16.211 -0.04 -0.10    +0.194    22.139
ATOM      3  C   UNL d   1      -8.154  16.362  15.223 -0.06 -0.01    +0.194    22.139
ATOM      4  C   UNL d   1      -9.307  17.360  15.149 -0.01 +0.01    +0.194    22.139
ATOM      5  C   UNL d   1      -9.839  17.797  16.508 +0.01 -0.00    +0.194    22.139
ATOM      6  C   UNL d   1      -8.744  18.151  17.516 +0.01 -0.02    +0.194    22.139
ATOM      7  O   UNL d   1      -6.589  17.636  18.399 -0.02 +0.10    -0.278    22.139
ATOM      8  P   UNL d   1      -5.490  16.635  18.983 -0.04 -0.33    +0.473    22.139
ATOM      9  O   UNL d   1      -4.999  16.964  20.349 -0.02 +0.09    -0.228    22.139
ATOM     10  O   UNL d   1      -6.185  15.202  18.893 -0.06 +0.38    -0.303    22.139
ATOM     11  H   UNL d   1      -5.501  14.507  18.885 -0.52 -0.59    +0.222    22.139
ATOM     12  O   UNL d   1      -4.378  16.537  17.851 -0.09 +0.32    -0.303    22.139
ATOM     13  H   UNL d   1      -4.637  16.988  17.016 +0.01 -0.19    +0.222    22.139
ATOM     14  O   UNL d   1      -6.400  17.940  15.700 -0.02 +0.09    -0.278    22.139
ATOM     15  P   UNL d   1      -4.999  17.700  14.962 -0.01 -0.20    +0.473    22.139
ATOM     16  O   UNL d   1      -3.825  18.467  15.485 -0.02 +0.07    -0.228    22.139
ATOM     17  O   UNL d   1      -4.788  16.123  15.034 +0.12 +0.37    -0.303    22.139
ATOM     18  H   UNL d   1      -5.599  15.647  14.772 -0.43 -0.31    +0.222    22.139
ATOM     19  O   UNL d   1      -5.322  17.909  13.419 -0.01 +0.07    -0.303    22.139
ATOM     20  H   UNL d   1      -6.143  17.452  13.157 +0.04 -0.04    +0.222    22.139
ATOM     21  O   UNL d   1      -9.364  18.199  18.799 +0.00 +0.02    -0.278    22.139
ATOM     22  P   UNL d   1      -9.756  16.841  19.540 +0.01 -0.04    +0.473    22.139
ATOM     23  O   UNL d   1      -8.695  16.125  20.306 -0.00 +0.04    -0.228    22.139
ATOM     24  O   UNL d   1     -11.013  17.293  20.404 +0.00 +0.01    -0.303    22.139
ATOM     25  H   UNL d   1     -11.404  18.100  19.981 +0.00 -0.01    +0.222    22.139
ATOM     26  O   UNL d   1     -10.448  16.012  18.356 +0.01 +0.00    -0.303    22.139
ATOM     27  H   UNL d   1     -11.414  16.171  18.374 +0.01 +0.01    +0.222    22.139
ATOM     28  O   UNL d   1      -7.576  16.356  13.924 -0.07 -0.00    -0.278    22.139
ATOM     29  P   UNL d   1      -6.995  15.007  13.308 -0.11 +0.11    +0.473    22.139
ATOM     30  O   UNL d   1      -6.837  13.882  14.265 -0.59 -0.02    -0.228    22.139
ATOM     31  O   UNL d   1      -8.018  14.791  12.095 -0.29 -0.24    -0.303    22.139
ATOM     32  H   UNL d   1      -8.682  15.518  12.112 +0.04 +0.12    +0.222    22.139
ATOM     33  O   UNL d   1      -5.679  15.516  12.571 -0.12 +0.05    -0.303    22.139
ATOM     34  H   UNL d   1      -5.016  15.790  13.252 +0.06 -0.10    +0.222    22.139
ATOM     35  O   UNL d   1     -10.588  18.986  16.267 +0.00 -0.00    -0.278    22.139
ATOM     36  P   UNL d   1     -12.110  19.086  16.735 +0.00 +0.01    +0.473    22.139
ATOM     37  O   UNL d   1     -12.650  20.474  16.879 +0.00 -0.00    -0.228    22.139
ATOM     38  O   UNL d   1     -12.849  18.208  15.631 +0.00 -0.02    -0.303    22.139
ATOM     39  H   UNL d   1     -12.193  17.624  15.193 +0.01 +0.02    +0.222    22.139
ATOM     40  O   UNL d   1     -12.128  18.166  18.032 +0.00 -0.00    -0.303    22.139
ATOM     41  H   UNL d   1     -11.225  18.030  18.395 +0.00 -0.00    +0.222    22.139
ATOM     42  O   UNL d   1     -10.382  16.703  14.468 -0.02 -0.07    -0.278    22.139
ATOM     43  P   UNL d   1     -11.004  15.380  15.107 -0.04 +0.23    +0.473    22.139
ATOM     44  O   UNL d   1     -10.060  14.299  15.504 -0.18 -0.24    -0.228    22.139
ATOM     45  O   UNL d   1     -11.881  15.951  16.306 -0.00 -0.05    -0.303    22.139
ATOM     46  H   UNL d   1     -11.543  16.815  16.617 +0.01 +0.02    +0.222    22.139
ATOM     47  O   UNL d   1     -12.133  14.959  14.050 -0.06 -0.15    -0.303    22.139
ATOM     48  H   UNL d   1     -12.866  15.609  14.084 +0.01 +0.06    +0.222    22.139
TER
ENDMDL
MODEL       83
USER    Run = 83
USER    Cluster Rank = 77
USER    Number of conformations in this cluster = 1
USER  
USER    RMSD from reference structure       = 18.221 A
USER  
USER    Estimated Free Energy of Binding    =   +4.14 kcal/mol  [=(1)+(2)+(3)-(4)]
USER    
USER    (1) Final Intermolecular Energy     =   -3.02 kcal/mol
USER        vdW + Hbond + desolv Energy     =   -2.91 kcal/mol
USER        Electrostatic Energy            =   -0.11 kcal/mol
USER    (2) Final Total Internal Energy     =  -15.38 kcal/mol
USER    (3) Torsional Free Energy           =   +7.16 kcal/mol
USER    (4) Unbound System's Energy  [=(2)] =  -15.38 kcal/mol
USER    
USER    
USER  
USER    DPF = D:/Protein_go_brrr/autodock/final/AncB/IHP/dock.dpf
USER    NEWDPF move	IHP_ideal_opt.pdbqt
USER    NEWDPF about	0.035000 0.082000 -0.065000
USER    NEWDPF tran0	0.840527 15.571911 -14.586701
USER    NEWDPF axisangle0	0.738583 -0.492423 -0.460449 -157.957218
USER    NEWDPF quaternion0	0.724961 -0.483341 -0.451957 -0.191175
USER    NEWDPF dihe0	22.29 107.37 -180.00 -5.79 13.67 158.39 -65.65 -13.01 87.20 4.85 53.87 -119.27 -46.33 176.01 -179.91 -10.43 -121.96 112.06 -13.82 18.61 -20.96 0.83 -10.23 2.87 
USER  
USER                              x       y       z    vdW   Elec        q     RMS 
ATOM      1  C   UNL d   1       0.801  15.012 -16.220 -0.08 +0.05    +0.194    18.221
ATOM      2  C   UNL d   1       1.380  16.413 -16.016 -0.07 +0.05    +0.194    18.221
ATOM      3  C   UNL d   1       0.548  17.231 -15.026 -0.05 +0.04    +0.194    18.221
ATOM      4  C   UNL d   1       0.306  16.508 -13.703 -0.08 +0.04    +0.194    18.221
ATOM      5  C   UNL d   1      -0.164  15.068 -13.860 -0.12 +0.05    +0.194    18.221
ATOM      6  C   UNL d   1       0.628  14.267 -14.896 -0.04 +0.06    +0.194    18.221
ATOM      7  O   UNL d   1       1.721  14.260 -17.015 -0.08 -0.09    -0.278    18.221
ATOM      8  P   UNL d   1       1.140  13.359 -18.200 -0.02 +0.16    +0.473    18.221
ATOM      9  O   UNL d   1      -0.323  13.492 -18.435 -0.01 -0.06    -0.228    18.221
ATOM     10  O   UNL d   1       2.020  13.770 -19.465 -0.01 -0.10    -0.303    18.221
ATOM     11  H   UNL d   1       1.441  13.893 -20.240 +0.01 +0.06    +0.222    18.221
ATOM     12  O   UNL d   1       1.663  11.890 -17.895 -0.08 -0.16    -0.303    18.221
ATOM     13  H   UNL d   1       1.328  11.530 -17.043 +0.05 +0.12    +0.222    18.221
ATOM     14  O   UNL d   1       2.714  16.296 -15.505 -0.07 -0.08    -0.278    18.221
ATOM     15  P   UNL d   1       3.733  17.469 -15.892 -0.06 +0.10    +0.473    18.221
ATOM     16  O   UNL d   1       5.045  17.052 -16.480 -0.07 -0.05    -0.228    18.221
ATOM     17  O   UNL d   1       2.892  18.409 -16.865 -0.01 -0.05    -0.303    18.221
ATOM     18  H   UNL d   1       2.349  19.043 -16.358 +0.01 +0.04    +0.222    18.221
ATOM     19  O   UNL d   1       3.824  18.365 -14.581 -0.06 -0.06    -0.303    18.221
ATOM     20  H   UNL d   1       2.973  18.797 -14.381 +0.02 +0.04    +0.222    18.221
ATOM     21  O   UNL d   1      -0.127  13.090 -15.173 -0.11 -0.08    -0.278    18.221
ATOM     22  P   UNL d   1       0.540  11.655 -14.968 -0.20 +0.18    +0.473    18.221
ATOM     23  O   UNL d   1       0.085  10.535 -15.841 -0.15 -0.11    -0.228    18.221
ATOM     24  O   UNL d   1       2.090  11.998 -15.076 -0.30 -0.14    -0.303    18.221
ATOM     25  H   UNL d   1       2.237  12.501 -15.917 +0.07 +0.11    +0.222    18.221
ATOM     26  O   UNL d   1       0.359  11.434 -13.390 +0.03 -0.06    -0.303    18.221
ATOM     27  H   UNL d   1       0.143  12.291 -12.968 -0.08 +0.03    +0.222    18.221
ATOM     28  O   UNL d   1       1.301  18.390 -14.690 -0.03 -0.05    -0.278    18.221
ATOM     29  P   UNL d   1       0.817  19.830 -15.170 -0.00 +0.07    +0.473    18.221
ATOM     30  O   UNL d   1       0.193  19.880 -16.517 -0.00 -0.03    -0.228    18.221
ATOM     31  O   UNL d   1      -0.102  20.244 -13.927 -0.00 -0.04    -0.303    18.221
ATOM     32  H   UNL d   1      -0.275  19.441 -13.383 +0.01 +0.04    +0.222    18.221
ATOM     33  O   UNL d   1       2.125  20.711 -14.949 -0.00 -0.04    -0.303    18.221
ATOM     34  H   UNL d   1       2.905  20.225 -15.313 +0.01 +0.03    +0.222    18.221
ATOM     35  O   UNL d   1       0.055  14.449 -12.594 -0.17 -0.07    -0.278    18.221
ATOM     36  P   UNL d   1      -1.167  13.819 -11.784 -0.19 +0.06    +0.473    18.221
ATOM     37  O   UNL d   1      -2.041  14.801 -11.070 -0.14 +0.01    -0.228    18.221
ATOM     38  O   UNL d   1      -1.912  12.983 -12.916 -0.10 -0.07    -0.303    18.221
ATOM     39  H   UNL d   1      -1.303  12.856 -13.675 +0.07 +0.06    +0.222    18.221
ATOM     40  O   UNL d   1      -0.451  12.710 -10.897 -0.33 -0.02    -0.303    18.221
ATOM     41  H   UNL d   1       0.283  12.273 -11.383 -0.43 -0.05    +0.222    18.221
ATOM     42  O   UNL d   1      -0.737  17.220 -13.027 -0.02 -0.05    -0.278    18.221
ATOM     43  P   UNL d   1      -0.369  18.091 -11.743 -0.01 +0.11    +0.473    18.221
ATOM     44  O   UNL d   1      -1.303  19.188 -11.367 -0.01 -0.05    -0.228    18.221
ATOM     45  O   UNL d   1      -0.175  16.985 -10.615 -0.09 -0.10    -0.303    18.221
ATOM     46  H   UNL d   1      -0.602  16.141 -10.864 +0.07 +0.05    +0.222    18.221
ATOM     47  O   UNL d   1       1.145  18.537 -12.025 -0.02 -0.07    -0.303    18.221
ATOM     48  H   UNL d   1       1.180  19.052 -12.857 +0.02 +0.04    +0.222    18.221
TER
ENDMDL
MODEL       59
USER    Run = 59
USER    Cluster Rank = 78
USER    Number of conformations in this cluster = 1
USER  
USER    RMSD from reference structure       = 20.925 A
USER  
USER    Estimated Free Energy of Binding    =   +4.15 kcal/mol  [=(1)+(2)+(3)-(4)]
USER    
USER    (1) Final Intermolecular Energy     =   -3.01 kcal/mol
USER        vdW + Hbond + desolv Energy     =   -2.90 kcal/mol
USER        Electrostatic Energy            =   -0.11 kcal/mol
USER    (2) Final Total Internal Energy     =  -13.02 kcal/mol
USER    (3) Torsional Free Energy           =   +7.16 kcal/mol
USER    (4) Unbound System's Energy  [=(2)] =  -13.02 kcal/mol
USER    
USER    
USER  
USER    DPF = D:/Protein_go_brrr/autodock/final/AncB/IHP/dock.dpf
USER    NEWDPF move	IHP_ideal_opt.pdbqt
USER    NEWDPF about	0.035000 0.082000 -0.065000
USER    NEWDPF tran0	-11.598271 6.737314 19.135639
USER    NEWDPF axisangle0	0.479094 0.722395 -0.498612 -175.290028
USER    NEWDPF quaternion0	0.478690 0.721785 -0.498191 -0.041091
USER    NEWDPF dihe0	99.43 93.75 -173.54 -30.04 178.05 94.75 -141.23 -61.30 -156.37 103.63 12.20 -91.56 -50.09 -180.00 110.95 -137.69 -3.31 -42.24 61.02 14.98 -59.32 -1.77 -35.22 -178.29 
USER  
USER                              x       y       z    vdW   Elec        q     RMS 
ATOM      1  C   UNL d   1     -13.253   6.912  18.672 +0.05 -0.01    +0.194    20.925
ATOM      2  C   UNL d   1     -13.016   6.344  20.072 -0.08 -0.02    +0.194    20.925
ATOM      3  C   UNL d   1     -11.893   5.304  20.079 -0.09 -0.03    +0.194    20.925
ATOM      4  C   UNL d   1     -10.604   5.807  19.434 -0.06 -0.02    +0.194    20.925
ATOM      5  C   UNL d   1     -10.808   6.485  18.085 -0.10 -0.01    +0.194    20.925
ATOM      6  C   UNL d   1     -11.971   7.479  18.062 -0.09 +0.00    +0.194    20.925
ATOM      7  O   UNL d   1     -14.187   7.989  18.780 -0.06 -0.01    -0.278    20.925
ATOM      8  P   UNL d   1     -15.650   7.672  19.336 -0.01 +0.03    +0.473    20.925
ATOM      9  O   UNL d   1     -15.883   6.255  19.728 -0.64 -0.02    -0.228    20.925
ATOM     10  O   UNL d   1     -15.834   8.696  20.545 -0.01 -0.00    -0.303    20.925
ATOM     11  H   UNL d   1     -15.130   8.554  21.205 +0.01 -0.00    +0.222    20.925
ATOM     12  O   UNL d   1     -16.644   8.263  18.246 -0.05 -0.02    -0.303    20.925
ATOM     13  H   UNL d   1     -16.413   7.994  17.328 +0.01 +0.03    +0.222    20.925
ATOM     14  O   UNL d   1     -12.653   7.413  20.954 -0.01 +0.02    -0.278    20.925
ATOM     15  P   UNL d   1     -13.142   7.284  22.474 +0.00 -0.03    +0.473    20.925
ATOM     16  O   UNL d   1     -13.950   8.420  23.019 +0.00 +0.01    -0.228    20.925
ATOM     17  O   UNL d   1     -13.921   5.896  22.514 -0.00 +0.03    -0.303    20.925
ATOM     18  H   UNL d   1     -13.321   5.162  22.746 +0.02 -0.02    +0.222    20.925
ATOM     19  O   UNL d   1     -11.820   6.932  23.287 +0.00 +0.02    -0.303    20.925
ATOM     20  H   UNL d   1     -11.677   5.969  23.342 +0.01 -0.02    +0.222    20.925
ATOM     21  O   UNL d   1     -12.248   7.758  16.691 -0.13 -0.02    -0.278    20.925
ATOM     22  P   UNL d   1     -13.085   9.058  16.300 -0.06 +0.06    +0.473    20.925
ATOM     23  O   UNL d   1     -12.677   9.821  15.085 -0.11 -0.07    -0.228    20.925
ATOM     24  O   UNL d   1     -14.571   8.490  16.264 -0.27 -0.05    -0.303    20.925
ATOM     25  H   UNL d   1     -15.074   8.892  17.018 +0.02 +0.02    +0.222    20.925
ATOM     26  O   UNL d   1     -13.077   9.877  17.679 -0.01 -0.03    -0.303    20.925
ATOM     27  H   UNL d   1     -13.750   9.499  18.281 +0.02 +0.01    +0.222    20.925
ATOM     28  O   UNL d   1     -11.559   5.044  21.436 -0.02 +0.04    -0.278    20.925
ATOM     29  P   UNL d   1     -11.944   3.652  22.107 -0.02 -0.08    +0.473    20.925
ATOM     30  O   UNL d   1     -11.898   3.621  23.591 -0.01 +0.03    -0.228    20.925
ATOM     31  O   UNL d   1     -13.366   3.395  21.419 -0.06 +0.07    -0.303    20.925
ATOM     32  H   UNL d   1     -14.065   3.803  21.980 +0.03 -0.04    +0.222    20.925
ATOM     33  O   UNL d   1     -10.992   2.635  21.336 -0.07 +0.06    -0.303    20.925
ATOM     34  H   UNL d   1     -10.474   3.132  20.657 +0.07 -0.04    +0.222    20.925
ATOM     35  O   UNL d   1      -9.616   7.228  17.840 -0.04 +0.01    -0.278    20.925
ATOM     36  P   UNL d   1      -8.443   6.599  16.960 -0.03 -0.01    +0.473    20.925
ATOM     37  O   UNL d   1      -8.882   5.842  15.747 -0.29 -0.01    -0.228    20.925
ATOM     38  O   UNL d   1      -7.550   7.880  16.645 -0.12 +0.01    -0.303    20.925
ATOM     39  H   UNL d   1      -6.607   7.661  16.805 +0.08 -0.04    +0.222    20.925
ATOM     40  O   UNL d   1      -7.596   5.800  18.043 -0.08 +0.05    -0.303    20.925
ATOM     41  H   UNL d   1      -8.125   5.087  18.466 +0.10 -0.04    +0.222    20.925
ATOM     42  O   UNL d   1      -9.778   4.660  19.208 -0.06 +0.04    -0.278    20.925
ATOM     43  P   UNL d   1     -10.200   3.618  18.076 -0.21 -0.06    +0.473    20.925
ATOM     44  O   UNL d   1     -11.400   3.943  17.255 -0.37 +0.02    -0.228    20.925
ATOM     45  O   UNL d   1      -8.859   3.457  17.233 -0.19 +0.03    -0.303    20.925
ATOM     46  H   UNL d   1      -8.577   4.308  16.843 +0.14 -0.01    +0.222    20.925
ATOM     47  O   UNL d   1     -10.258   2.223  18.864 -0.21 +0.05    -0.303    20.925
ATOM     48  H   UNL d   1     -11.150   2.110  19.254 +0.09 -0.03    +0.222    20.925
TER
ENDMDL
MODEL       92
USER    Run = 92
USER    Cluster Rank = 79
USER    Number of conformations in this cluster = 1
USER  
USER    RMSD from reference structure       = 22.655 A
USER  
USER    Estimated Free Energy of Binding    =   +4.19 kcal/mol  [=(1)+(2)+(3)-(4)]
USER    
USER    (1) Final Intermolecular Energy     =   -2.97 kcal/mol
USER        vdW + Hbond + desolv Energy     =   -2.90 kcal/mol
USER        Electrostatic Energy            =   -0.07 kcal/mol
USER    (2) Final Total Internal Energy     =  -15.43 kcal/mol
USER    (3) Torsional Free Energy           =   +7.16 kcal/mol
USER    (4) Unbound System's Energy  [=(2)] =  -15.43 kcal/mol
USER    
USER    
USER  
USER    DPF = D:/Protein_go_brrr/autodock/final/AncB/IHP/dock.dpf
USER    NEWDPF move	IHP_ideal_opt.pdbqt
USER    NEWDPF about	0.035000 0.082000 -0.065000
USER    NEWDPF tran0	12.106225 15.633578 -16.730240
USER    NEWDPF axisangle0	0.610077 0.692672 -0.384723 -107.354625
USER    NEWDPF quaternion0	0.491536 0.558081 -0.309969 -0.592332
USER    NEWDPF dihe0	117.19 115.08 127.54 15.13 163.13 -138.51 -95.36 46.90 1.10 64.09 139.53 112.39 -70.40 30.51 66.32 -171.41 -51.37 -175.46 -151.31 -16.22 12.52 -6.92 170.85 13.99 
USER  
USER                              x       y       z    vdW   Elec        q     RMS 
ATOM      1  C   UNL d   1      11.807  14.838 -18.234 -0.01 +0.05    +0.194    22.655
ATOM      2  C   UNL d   1      10.708  14.693 -17.180 -0.03 +0.05    +0.194    22.655
ATOM      3  C   UNL d   1      11.288  14.417 -15.791 -0.11 +0.07    +0.194    22.655
ATOM      4  C   UNL d   1      12.358  15.424 -15.375 -0.09 +0.06    +0.194    22.655
ATOM      5  C   UNL d   1      13.413  15.685 -16.443 -0.06 +0.05    +0.194    22.655
ATOM      6  C   UNL d   1      12.835  15.901 -17.844 -0.01 +0.04    +0.194    22.655
ATOM      7  O   UNL d   1      11.198  15.263 -19.456 -0.00 -0.06    -0.278    22.655
ATOM      8  P   UNL d   1      10.974  16.827 -19.689 +0.00 +0.08    +0.473    22.655
ATOM      9  O   UNL d   1      11.013  17.661 -18.457 +0.00 -0.04    -0.228    22.655
ATOM     10  O   UNL d   1      12.094  17.225 -20.753 +0.00 -0.04    -0.303    22.655
ATOM     11  H   UNL d   1      12.928  16.767 -20.536 +0.00 +0.03    +0.222    22.655
ATOM     12  O   UNL d   1       9.644  16.929 -20.553 +0.00 -0.05    -0.303    22.655
ATOM     13  H   UNL d   1       8.836  16.684 -20.048 +0.00 +0.04    +0.222    22.655
ATOM     14  O   UNL d   1       9.951  15.909 -17.124 -0.01 -0.06    -0.278    22.655
ATOM     15  P   UNL d   1       8.413  15.814 -17.560 +0.01 +0.11    +0.473    22.655
ATOM     16  O   UNL d   1       7.437  15.414 -16.498 -0.07 -0.06    -0.228    22.655
ATOM     17  O   UNL d   1       8.097  17.247 -18.180 -0.00 -0.06    -0.303    22.655
ATOM     18  H   UNL d   1       8.888  17.627 -18.608 +0.00 +0.04    +0.222    22.655
ATOM     19  O   UNL d   1       8.424  14.899 -18.861 -0.00 -0.08    -0.303    22.655
ATOM     20  H   UNL d   1       9.139  15.152 -19.474 +0.01 +0.05    +0.222    22.655
ATOM     21  O   UNL d   1      13.922  15.787 -18.760 -0.00 -0.05    -0.278    22.655
ATOM     22  P   UNL d   1      14.764  17.083 -19.154 +0.01 +0.07    +0.473    22.655
ATOM     23  O   UNL d   1      16.037  17.347 -18.422 +0.00 -0.03    -0.228    22.655
ATOM     24  O   UNL d   1      14.925  16.902 -20.727 +0.00 -0.04    -0.303    22.655
ATOM     25  H   UNL d   1      14.221  17.439 -21.173 +0.00 +0.03    +0.222    22.655
ATOM     26  O   UNL d   1      13.651  18.234 -19.065 +0.00 -0.04    -0.303    22.655
ATOM     27  H   UNL d   1      13.155  18.138 -18.227 +0.00 +0.03    +0.222    22.655
ATOM     28  O   UNL d   1      10.236  14.574 -14.848 -0.09 -0.08    -0.278    22.655
ATOM     29  P   UNL d   1       9.538  13.297 -14.201 -0.26 +0.13    +0.473    22.655
ATOM     30  O   UNL d   1       8.756  13.552 -12.964 -0.32 -0.06    -0.228    22.655
ATOM     31  O   UNL d   1       8.732  12.747 -15.470 -0.23 -0.10    -0.303    22.655
ATOM     32  H   UNL d   1       8.306  13.509 -15.926 +0.10 +0.07    +0.222    22.655
ATOM     33  O   UNL d   1      10.754  12.275 -14.086 -0.35 -0.12    -0.303    22.655
ATOM     34  H   UNL d   1      11.028  12.207 -13.139 -0.40 +0.03    +0.222    22.655
ATOM     35  O   UNL d   1      14.055  16.900 -16.063 -0.02 -0.06    -0.278    22.655
ATOM     36  P   UNL d   1      13.208  18.241 -15.896 +0.01 +0.08    +0.473    22.655
ATOM     37  O   UNL d   1      11.775  18.155 -16.319 -0.00 -0.04    -0.228    22.655
ATOM     38  O   UNL d   1      13.416  18.569 -14.352 -0.00 -0.05    -0.303    22.655
ATOM     39  H   UNL d   1      12.945  17.895 -13.815 +0.03 +0.04    +0.222    22.655
ATOM     40  O   UNL d   1      14.117  19.313 -16.641 +0.00 -0.04    -0.303    22.655
ATOM     41  H   UNL d   1      14.724  18.889 -17.287 +0.00 +0.03    +0.222    22.655
ATOM     42  O   UNL d   1      13.035  14.866 -14.244 -0.49 -0.14    -0.278    22.655
ATOM     43  P   UNL d   1      12.594  15.320 -12.780 -0.10 +0.14    +0.473    22.655
ATOM     44  O   UNL d   1      13.666  15.765 -11.846 -0.22 -0.07    -0.228    22.655
ATOM     45  O   UNL d   1      11.489  16.427 -13.076 -0.05 -0.06    -0.303    22.655
ATOM     46  H   UNL d   1      10.696  16.037 -13.495 +0.08 +0.04    +0.222    22.655
ATOM     47  O   UNL d   1      11.697  14.093 -12.270 -0.34 -0.06    -0.303    22.655
ATOM     48  H   UNL d   1      10.866  14.063 -12.788 +0.12 +0.04    +0.222    22.655
TER
ENDMDL
MODEL       56
USER    Run = 56
USER    Cluster Rank = 80
USER    Number of conformations in this cluster = 1
USER  
USER    RMSD from reference structure       = 11.918 A
USER  
USER    Estimated Free Energy of Binding    =   +4.40 kcal/mol  [=(1)+(2)+(3)-(4)]
USER    
USER    (1) Final Intermolecular Energy     =   -2.76 kcal/mol
USER        vdW + Hbond + desolv Energy     =   -2.97 kcal/mol
USER        Electrostatic Energy            =   +0.21 kcal/mol
USER    (2) Final Total Internal Energy     =  -15.11 kcal/mol
USER    (3) Torsional Free Energy           =   +7.16 kcal/mol
USER    (4) Unbound System's Energy  [=(2)] =  -15.11 kcal/mol
USER    
USER    
USER  
USER    DPF = D:/Protein_go_brrr/autodock/final/AncB/IHP/dock.dpf
USER    NEWDPF move	IHP_ideal_opt.pdbqt
USER    NEWDPF about	0.035000 0.082000 -0.065000
USER    NEWDPF tran0	-12.835557 5.591018 -4.795344
USER    NEWDPF axisangle0	0.344409 0.360213 -0.866965 -129.444791
USER    NEWDPF quaternion0	0.311432 0.325723 -0.783953 -0.427004
USER    NEWDPF dihe0	-178.74 85.54 74.75 76.11 -5.09 158.75 9.52 -152.80 -14.28 107.68 36.59 175.36 -52.57 132.02 -173.27 96.98 -16.62 167.31 1.19 -15.32 -33.34 -7.93 165.23 -5.70 
USER  
USER                              x       y       z    vdW   Elec        q     RMS 
ATOM      1  C   UNL d   1     -14.329   4.768  -5.069 -0.09 +0.09    +0.194    11.918
ATOM      2  C   UNL d   1     -14.403   5.977  -4.134 -0.03 +0.16    +0.194    11.918
ATOM      3  C   UNL d   1     -13.230   6.005  -3.151 -0.12 +0.12    +0.194    11.918
ATOM      4  C   UNL d   1     -11.870   5.884  -3.833 -0.15 +0.05    +0.194    11.918
ATOM      5  C   UNL d   1     -11.788   4.761  -4.859 -0.19 +0.02    +0.194    11.918
ATOM      6  C   UNL d   1     -12.990   4.695  -5.803 -0.11 +0.02    +0.194    11.918
ATOM      7  O   UNL d   1     -15.351   4.907  -6.059 -0.05 -0.09    -0.278    11.918
ATOM      8  P   UNL d   1     -16.452   3.755  -6.180 -0.06 +0.12    +0.473    11.918
ATOM      9  O   UNL d   1     -16.281   2.616  -5.237 -0.16 -0.02    -0.228    11.918
ATOM     10  O   UNL d   1     -17.838   4.523  -5.992 -0.01 -0.10    -0.303    11.918
ATOM     11  H   UNL d   1     -17.724   5.464  -6.223 +0.01 +0.07    +0.222    11.918
ATOM     12  O   UNL d   1     -16.488   3.379  -7.723 -0.01 -0.03    -0.303    11.918
ATOM     13  H   UNL d   1     -15.594   3.354  -8.135 +0.02 +0.02    +0.222    11.918
ATOM     14  O   UNL d   1     -14.369   7.176  -4.919 -0.02 -0.10    -0.278    11.918
ATOM     15  P   UNL d   1     -15.671   8.106  -4.861 +0.01 +0.14    +0.473    11.918
ATOM     16  O   UNL d   1     -15.712   9.264  -5.808 +0.00 -0.05    -0.228    11.918
ATOM     17  O   UNL d   1     -16.881   7.091  -5.074 -0.01 -0.11    -0.303    11.918
ATOM     18  H   UNL d   1     -16.579   6.269  -5.504 +0.01 +0.09    +0.222    11.918
ATOM     19  O   UNL d   1     -15.829   8.472  -3.321 -0.00 -0.10    -0.303    11.918
ATOM     20  H   UNL d   1     -15.011   8.293  -2.822 +0.02 +0.08    +0.222    11.918
ATOM     21  O   UNL d   1     -12.937   3.426  -6.451 -0.11 +0.04    -0.278    11.918
ATOM     22  P   UNL d   1     -13.197   3.327  -8.022 -0.01 +0.03    +0.473    11.918
ATOM     23  O   UNL d   1     -13.939   2.142  -8.540 -0.03 -0.01    -0.228    11.918
ATOM     24  O   UNL d   1     -13.882   4.730  -8.327 +0.00 -0.04    -0.303    11.918
ATOM     25  H   UNL d   1     -14.794   4.719  -7.938 +0.02 +0.03    +0.222    11.918
ATOM     26  O   UNL d   1     -11.721   3.544  -8.610 -0.01 -0.05    -0.303    11.918
ATOM     27  H   UNL d   1     -11.146   3.910  -7.908 +0.05 +0.04    +0.222    11.918
ATOM     28  O   UNL d   1     -13.227   7.282  -2.526 -0.05 -0.11    -0.278    11.918
ATOM     29  P   UNL d   1     -13.782   7.453  -1.043 -0.06 +0.19    +0.473    11.918
ATOM     30  O   UNL d   1     -12.938   6.866   0.029 -0.73 -0.10    -0.228    11.918
ATOM     31  O   UNL d   1     -14.003   9.037  -1.008 -0.01 -0.06    -0.303    11.918
ATOM     32  H   UNL d   1     -14.661   9.278  -1.700 +0.01 +0.05    +0.222    11.918
ATOM     33  O   UNL d   1     -15.267   6.894  -1.176 -0.10 -0.20    -0.303    11.918
ATOM     34  H   UNL d   1     -15.879   7.649  -1.357 +0.03 +0.10    +0.222    11.918
ATOM     35  O   UNL d   1     -10.642   5.049  -5.658 -0.11 -0.06    -0.278    11.918
ATOM     36  P   UNL d   1     -10.601   6.363  -6.561 -0.02 +0.12    +0.473    11.918
ATOM     37  O   UNL d   1     -11.425   7.510  -6.068 -0.03 -0.06    -0.228    11.918
ATOM     38  O   UNL d   1      -9.038   6.662  -6.630 -0.15 -0.09    -0.303    11.918
ATOM     39  H   UNL d   1      -8.773   7.172  -5.835 +0.10 +0.06    +0.222    11.918
ATOM     40  O   UNL d   1     -10.946   5.794  -8.005 -0.02 -0.07    -0.303    11.918
ATOM     41  H   UNL d   1     -11.865   5.447  -8.050 +0.03 +0.04    +0.222    11.918
ATOM     42  O   UNL d   1     -10.917   5.588  -2.807 -0.25 -0.06    -0.278    11.918
ATOM     43  P   UNL d   1      -9.749   6.634  -2.514 -0.17 +0.09    +0.473    11.918
ATOM     44  O   UNL d   1      -8.433   6.090  -2.077 -0.32 -0.03    -0.228    11.918
ATOM     45  O   UNL d   1      -9.690   7.478  -3.861 -0.13 -0.07    -0.303    11.918
ATOM     46  H   UNL d   1      -9.858   6.916  -4.644 +0.10 +0.06    +0.222    11.918
ATOM     47  O   UNL d   1     -10.436   7.676  -1.507 -0.16 -0.05    -0.303    11.918
ATOM     48  H   UNL d   1     -11.386   7.456  -1.414 +0.09 +0.05    +0.222    11.918
TER
ENDMDL
MODEL       98
USER    Run = 98
USER    Cluster Rank = 81
USER    Number of conformations in this cluster = 1
USER  
USER    RMSD from reference structure       = 17.192 A
USER  
USER    Estimated Free Energy of Binding    =   +4.43 kcal/mol  [=(1)+(2)+(3)-(4)]
USER    
USER    (1) Final Intermolecular Energy     =   -2.73 kcal/mol
USER        vdW + Hbond + desolv Energy     =   -2.64 kcal/mol
USER        Electrostatic Energy            =   -0.09 kcal/mol
USER    (2) Final Total Internal Energy     =  -14.71 kcal/mol
USER    (3) Torsional Free Energy           =   +7.16 kcal/mol
USER    (4) Unbound System's Energy  [=(2)] =  -14.71 kcal/mol
USER    
USER    
USER  
USER    DPF = D:/Protein_go_brrr/autodock/final/AncB/IHP/dock.dpf
USER    NEWDPF move	IHP_ideal_opt.pdbqt
USER    NEWDPF about	0.035000 0.082000 -0.065000
USER    NEWDPF tran0	16.387177 -9.169072 -8.963146
USER    NEWDPF axisangle0	0.595328 -0.412199 0.689694 141.555653
USER    NEWDPF quaternion0	0.562137 -0.389218 0.651242 0.329232
USER    NEWDPF dihe0	-133.26 -81.09 10.59 106.94 83.90 -111.66 -115.33 -59.59 8.69 40.46 80.46 -138.44 -144.65 -85.72 130.05 23.83 158.68 105.68 -172.74 24.29 -4.71 13.15 -16.70 -2.40 
USER  
USER                              x       y       z    vdW   Elec        q     RMS 
ATOM      1  C   UNL d   1      16.987  -9.936  -7.537 -0.02 +0.05    +0.194    17.192
ATOM      2  C   UNL d   1      16.818  -8.419  -7.449 -0.06 +0.08    +0.194    17.192
ATOM      3  C   UNL d   1      17.318  -7.719  -8.715 -0.06 +0.09    +0.194    17.192
ATOM      4  C   UNL d   1      16.719  -8.294  -9.996 -0.04 +0.12    +0.194    17.192
ATOM      5  C   UNL d   1      16.762  -9.815 -10.074 -0.04 +0.08    +0.194    17.192
ATOM      6  C   UNL d   1      16.321 -10.513  -8.786 -0.03 +0.07    +0.194    17.192
ATOM      7  O   UNL d   1      16.345 -10.523  -6.402 -0.01 -0.04    -0.278    17.192
ATOM      8  P   UNL d   1      14.761 -10.371  -6.264 -0.05 +0.05    +0.473    17.192
ATOM      9  O   UNL d   1      14.306  -9.203  -5.461 -0.13 +0.01    -0.228    17.192
ATOM     10  O   UNL d   1      14.243 -10.336  -7.772 -0.56 -0.21    -0.303    17.192
ATOM     11  H   UNL d   1      14.367 -11.213  -8.181 +0.03 +0.09    +0.222    17.192
ATOM     12  O   UNL d   1      14.251 -11.792  -5.770 -0.03 +0.05    -0.303    17.192
ATOM     13  H   UNL d   1      13.543 -12.167  -6.341 +0.03 -0.04    +0.222    17.192
ATOM     14  O   UNL d   1      15.429  -8.113  -7.277 -0.07 -0.19    -0.278    17.192
ATOM     15  P   UNL d   1      15.086  -6.710  -6.585 -0.14 +0.27    +0.473    17.192
ATOM     16  O   UNL d   1      16.080  -6.187  -5.595 -0.20 -0.07    -0.228    17.192
ATOM     17  O   UNL d   1      14.855  -5.719  -7.811 -0.25 -0.27    -0.303    17.192
ATOM     18  H   UNL d   1      15.701  -5.344  -8.124 +0.08 +0.15    +0.222    17.192
ATOM     19  O   UNL d   1      13.603  -6.890  -6.037 -0.28 -0.16    -0.303    17.192
ATOM     20  H   UNL d   1      13.496  -7.732  -5.556 +0.10 +0.04    +0.222    17.192
ATOM     21  O   UNL d   1      16.737 -11.873  -8.892 +0.00 -0.05    -0.278    17.192
ATOM     22  P   UNL d   1      15.652 -13.015  -9.149 +0.02 +0.07    +0.473    17.192
ATOM     23  O   UNL d   1      16.121 -14.322  -9.693 +0.00 -0.02    -0.228    17.192
ATOM     24  O   UNL d   1      14.930 -13.102  -7.733 +0.00 -0.02    -0.303    17.192
ATOM     25  H   UNL d   1      15.138 -12.274  -7.230 +0.02 +0.02    +0.222    17.192
ATOM     26  O   UNL d   1      14.562 -12.237 -10.030 -0.01 -0.08    -0.303    17.192
ATOM     27  H   UNL d   1      14.911 -12.112 -10.936 +0.01 +0.05    +0.222    17.192
ATOM     28  O   UNL d   1      16.873  -6.370  -8.663 -0.12 -0.15    -0.278    17.192
ATOM     29  P   UNL d   1      17.920  -5.173  -8.762 -0.05 +0.17    +0.473    17.192
ATOM     30  O   UNL d   1      19.346  -5.576  -8.859 -0.02 -0.05    -0.228    17.192
ATOM     31  O   UNL d   1      17.307  -4.369 -10.003 -0.08 -0.12    -0.303    17.192
ATOM     32  H   UNL d   1      17.351  -4.943 -10.802 +0.05 +0.09    +0.222    17.192
ATOM     33  O   UNL d   1      17.510  -4.267  -7.519 -0.10 -0.12    -0.303    17.192
ATOM     34  H   UNL d   1      16.743  -4.684  -7.056 +0.11 +0.11    +0.222    17.192
ATOM     35  O   UNL d   1      15.829 -10.177 -11.089 -0.04 -0.12    -0.278    17.192
ATOM     36  P   UNL d   1      16.335 -10.850 -12.444 +0.01 +0.11    +0.473    17.192
ATOM     37  O   UNL d   1      15.420 -10.703 -13.618 -0.00 -0.05    -0.228    17.192
ATOM     38  O   UNL d   1      17.760 -10.166 -12.636 +0.00 -0.06    -0.303    17.192
ATOM     39  H   UNL d   1      17.641  -9.196 -12.727 +0.01 +0.05    +0.222    17.192
ATOM     40  O   UNL d   1      16.681 -12.331 -11.979 +0.00 -0.05    -0.303    17.192
ATOM     41  H   UNL d   1      16.525 -12.457 -11.017 +0.01 +0.04    +0.222    17.192
ATOM     42  O   UNL d   1      17.506  -7.794 -11.083 -0.03 -0.11    -0.278    17.192
ATOM     43  P   UNL d   1      16.835  -6.787 -12.122 -0.04 +0.20    +0.473    17.192
ATOM     44  O   UNL d   1      17.727  -5.806 -12.801 -0.02 -0.06    -0.228    17.192
ATOM     45  O   UNL d   1      16.071  -7.768 -13.115 -0.03 -0.11    -0.303    17.192
ATOM     46  H   UNL d   1      16.095  -8.692 -12.795 +0.02 +0.08    +0.222    17.192
ATOM     47  O   UNL d   1      15.620  -6.156 -11.288 -0.67 -0.26    -0.303    17.192
ATOM     48  H   UNL d   1      15.915  -5.980 -10.371 +0.05 +0.20    +0.222    17.192
TER
ENDMDL
MODEL       86
USER    Run = 86
USER    Cluster Rank = 82
USER    Number of conformations in this cluster = 1
USER  
USER    RMSD from reference structure       = 17.603 A
USER  
USER    Estimated Free Energy of Binding    =   +4.71 kcal/mol  [=(1)+(2)+(3)-(4)]
USER    
USER    (1) Final Intermolecular Energy     =   -2.45 kcal/mol
USER        vdW + Hbond + desolv Energy     =   -2.27 kcal/mol
USER        Electrostatic Energy            =   -0.18 kcal/mol
USER    (2) Final Total Internal Energy     =  -14.70 kcal/mol
USER    (3) Torsional Free Energy           =   +7.16 kcal/mol
USER    (4) Unbound System's Energy  [=(2)] =  -14.70 kcal/mol
USER    
USER    
USER  
USER    DPF = D:/Protein_go_brrr/autodock/final/AncB/IHP/dock.dpf
USER    NEWDPF move	IHP_ideal_opt.pdbqt
USER    NEWDPF about	0.035000 0.082000 -0.065000
USER    NEWDPF tran0	-11.181776 17.779832 2.858528
USER    NEWDPF axisangle0	-0.458376 -0.247554 -0.853586 -172.721943
USER    NEWDPF quaternion0	-0.457452 -0.247055 -0.851865 -0.063470
USER    NEWDPF dihe0	100.74 109.56 128.78 13.93 9.85 120.91 -103.09 -10.67 149.41 -3.53 163.11 -168.55 -71.26 31.51 -170.26 60.02 -120.89 -1.54 -152.29 -14.94 11.32 148.49 -46.04 137.27 
USER  
USER                              x       y       z    vdW   Elec        q     RMS 
ATOM      1  C   UNL d   1     -11.605  19.079   3.916 -0.00 -0.01    +0.194    17.603
ATOM      2  C   UNL d   1     -11.434  19.454   2.443 +0.00 -0.01    +0.194    17.603
ATOM      3  C   UNL d   1     -10.204  18.785   1.826 -0.00 -0.03    +0.194    17.603
ATOM      4  C   UNL d   1     -10.169  17.274   2.045 -0.01 -0.04    +0.194    17.603
ATOM      5  C   UNL d   1     -10.449  16.848   3.480 -0.03 -0.03    +0.194    17.603
ATOM      6  C   UNL d   1     -11.642  17.563   4.117 -0.01 -0.02    +0.194    17.603
ATOM      7  O   UNL d   1     -12.858  19.599   4.366 -0.00 +0.01    -0.278    17.603
ATOM      8  P   UNL d   1     -14.175  18.728   4.120 +0.00 -0.01    +0.473    17.603
ATOM      9  O   UNL d   1     -14.054  17.688   3.063 -0.00 +0.00    -0.228    17.603
ATOM     10  O   UNL d   1     -14.514  18.126   5.558 -0.00 +0.00    -0.303    17.603
ATOM     11  H   UNL d   1     -13.749  17.619   5.889 +0.01 -0.00    +0.222    17.603
ATOM     12  O   UNL d   1     -15.340  19.789   3.920 +0.00 -0.00    -0.303    17.603
ATOM     13  H   UNL d   1     -15.222  20.346   3.118 +0.00 +0.00    +0.222    17.603
ATOM     14  O   UNL d   1     -12.596  19.034   1.716 +0.00 +0.01    -0.278    17.603
ATOM     15  P   UNL d   1     -13.472  20.189   1.036 +0.00 -0.01    +0.473    17.603
ATOM     16  O   UNL d   1     -13.063  20.623  -0.337 +0.00 +0.00    -0.228    17.603
ATOM     17  O   UNL d   1     -14.961  19.627   1.088 +0.00 -0.00    -0.303    17.603
ATOM     18  H   UNL d   1     -15.103  19.080   1.884 +0.00 +0.00    +0.222    17.603
ATOM     19  O   UNL d   1     -13.527  21.342   2.131 +0.00 +0.00    -0.303    17.603
ATOM     20  H   UNL d   1     -13.727  20.988   3.017 +0.00 -0.00    +0.222    17.603
ATOM     21  O   UNL d   1     -11.564  17.326   5.521 -0.01 +0.02    -0.278    17.603
ATOM     22  P   UNL d   1     -12.307  16.064   6.153 -0.05 -0.04    +0.473    17.603
ATOM     23  O   UNL d   1     -12.995  16.236   7.466 -0.03 +0.00    -0.228    17.603
ATOM     24  O   UNL d   1     -13.255  15.611   4.957 -0.03 +0.03    -0.303    17.603
ATOM     25  H   UNL d   1     -13.820  16.384   4.702 +0.02 -0.01    +0.222    17.603
ATOM     26  O   UNL d   1     -11.156  14.950   6.104 -0.18 +0.06    -0.303    17.603
ATOM     27  H   UNL d   1     -10.805  14.889   5.192 +0.03 -0.05    +0.222    17.603
ATOM     28  O   UNL d   1     -10.282  18.960   0.417 -0.00 +0.04    -0.278    17.603
ATOM     29  P   UNL d   1     -10.787  17.772  -0.515 +0.01 -0.06    +0.473    17.603
ATOM     30  O   UNL d   1     -11.832  16.896   0.074 -0.00 +0.02    -0.228    17.603
ATOM     31  O   UNL d   1     -11.186  18.597  -1.827 +0.00 +0.02    -0.303    17.603
ATOM     32  H   UNL d   1     -11.780  19.338  -1.564 +0.00 -0.01    +0.222    17.603
ATOM     33  O   UNL d   1      -9.420  17.076  -0.939 -0.02 +0.10    -0.303    17.603
ATOM     34  H   UNL d   1      -8.869  16.930  -0.131 +0.04 -0.10    +0.222    17.603
ATOM     35  O   UNL d   1     -10.777  15.461   3.415 -0.06 +0.05    -0.278    17.603
ATOM     36  P   UNL d   1      -9.622  14.361   3.412 -0.20 -0.17    +0.473    17.603
ATOM     37  O   UNL d   1      -8.894  14.194   2.116 -0.20 +0.11    -0.228    17.603
ATOM     38  O   UNL d   1      -8.706  14.847   4.620 -0.12 +0.13    -0.303    17.603
ATOM     39  H   UNL d   1      -9.114  14.564   5.467 -0.13 -0.09    +0.222    17.603
ATOM     40  O   UNL d   1     -10.370  13.082   3.989 -0.30 +0.13    -0.303    17.603
ATOM     41  H   UNL d   1     -10.918  13.304   4.775 -0.33 -0.12    +0.222    17.603
ATOM     42  O   UNL d   1      -8.843  16.840   1.728 -0.06 +0.10    -0.278    17.603
ATOM     43  P   UNL d   1      -7.638  17.875   1.871 -0.04 -0.21    +0.473    17.603
ATOM     44  O   UNL d   1      -7.604  18.725   3.094 -0.02 +0.06    -0.228    17.603
ATOM     45  O   UNL d   1      -6.357  16.948   1.688 -0.09 +0.26    -0.303    17.603
ATOM     46  H   UNL d   1      -6.090  16.889   0.749 -0.43 -0.38    +0.222    17.603
ATOM     47  O   UNL d   1      -7.668  18.668   0.478 -0.04 +0.14    -0.303    17.603
ATOM     48  H   UNL d   1      -8.488  18.439  -0.006 +0.02 -0.08    +0.222    17.603
TER
ENDMDL
MODEL       91
USER    Run = 91
USER    Cluster Rank = 83
USER    Number of conformations in this cluster = 1
USER  
USER    RMSD from reference structure       = 12.115 A
USER  
USER    Estimated Free Energy of Binding    =   +4.72 kcal/mol  [=(1)+(2)+(3)-(4)]
USER    
USER    (1) Final Intermolecular Energy     =   -2.44 kcal/mol
USER        vdW + Hbond + desolv Energy     =   -2.45 kcal/mol
USER        Electrostatic Energy            =   +0.01 kcal/mol
USER    (2) Final Total Internal Energy     =  -14.79 kcal/mol
USER    (3) Torsional Free Energy           =   +7.16 kcal/mol
USER    (4) Unbound System's Energy  [=(2)] =  -14.79 kcal/mol
USER    
USER    
USER  
USER    DPF = D:/Protein_go_brrr/autodock/final/AncB/IHP/dock.dpf
USER    NEWDPF move	IHP_ideal_opt.pdbqt
USER    NEWDPF about	0.035000 0.082000 -0.065000
USER    NEWDPF tran0	12.359701 -9.390081 3.180737
USER    NEWDPF axisangle0	-0.379808 0.676958 -0.630456 -103.051105
USER    NEWDPF quaternion0	-0.297346 0.529981 -0.493575 -0.622166
USER    NEWDPF dihe0	-161.90 40.72 38.66 12.35 43.40 -127.00 47.01 -95.35 160.18 -13.25 128.98 106.62 29.32 -179.99 -12.12 106.00 -178.42 96.79 20.31 -31.08 -44.46 -36.77 30.63 -49.23 
USER  
USER                              x       y       z    vdW   Elec        q     RMS 
ATOM      1  C   UNL d   1      12.787 -10.974   3.722 -0.05 -0.05    +0.194    12.115
ATOM      2  C   UNL d   1      12.256 -10.028   4.800 -0.08 -0.06    +0.194    12.115
ATOM      3  C   UNL d   1      12.850  -8.624   4.665 -0.09 -0.04    +0.194    12.115
ATOM      4  C   UNL d   1      12.702  -8.041   3.262 -0.15 -0.06    +0.194    12.115
ATOM      5  C   UNL d   1      13.113  -8.995   2.147 -0.10 -0.05    +0.194    12.115
ATOM      6  C   UNL d   1      12.569 -10.415   2.315 -0.09 -0.07    +0.194    12.115
ATOM      7  O   UNL d   1      12.060 -12.202   3.810 -0.03 +0.07    -0.278    12.115
ATOM      8  P   UNL d   1      12.764 -13.451   4.515 +0.01 -0.05    +0.473    12.115
ATOM      9  O   UNL d   1      12.713 -13.447   6.002 +0.00 +0.01    -0.228    12.115
ATOM     10  O   UNL d   1      12.044 -14.718   3.865 +0.00 +0.03    -0.303    12.115
ATOM     11  H   UNL d   1      11.908 -14.564   2.912 +0.01 -0.03    +0.222    12.115
ATOM     12  O   UNL d   1      14.214 -13.527   3.870 +0.00 +0.02    -0.303    12.115
ATOM     13  H   UNL d   1      14.352 -12.868   3.152 +0.01 -0.02    +0.222    12.115
ATOM     14  O   UNL d   1      10.831  -9.934   4.679 -0.15 +0.21    -0.278    12.115
ATOM     15  P   UNL d   1       9.966 -10.810   5.703 -0.11 -0.18    +0.473    12.115
ATOM     16  O   UNL d   1       8.971 -11.755   5.105 -0.11 +0.12    -0.228    12.115
ATOM     17  O   UNL d   1      11.057 -11.548   6.599 -0.01 +0.04    -0.303    12.115
ATOM     18  H   UNL d   1      11.667 -12.074   6.048 +0.02 -0.03    +0.222    12.115
ATOM     19  O   UNL d   1       9.373  -9.750   6.730 -0.14 +0.01    -0.303    12.115
ATOM     20  H   UNL d   1      10.059  -9.134   7.048 +0.03 +0.02    +0.222    12.115
ATOM     21  O   UNL d   1      13.301 -11.246   1.417 -0.04 +0.07    -0.278    12.115
ATOM     22  P   UNL d   1      12.583 -12.495   0.731 -0.02 -0.13    +0.473    12.115
ATOM     23  O   UNL d   1      11.092 -12.530   0.716 -0.10 +0.10    -0.228    12.115
ATOM     24  O   UNL d   1      13.266 -12.512  -0.707 -0.01 +0.09    -0.303    12.115
ATOM     25  H   UNL d   1      13.614 -11.604  -0.894 +0.03 -0.07    +0.222    12.115
ATOM     26  O   UNL d   1      13.308 -13.726   1.457 -0.00 +0.04    -0.303    12.115
ATOM     27  H   UNL d   1      13.164 -13.661   2.423 +0.01 -0.03    +0.222    12.115
ATOM     28  O   UNL d   1      12.105  -7.760   5.513 -0.11 +0.01    -0.278    12.115
ATOM     29  P   UNL d   1      12.296  -7.822   7.093 -0.03 +0.03    +0.473    12.115
ATOM     30  O   UNL d   1      13.488  -7.110   7.623 -0.01 -0.01    -0.228    12.115
ATOM     31  O   UNL d   1      10.863  -7.292   7.569 -0.06 -0.09    -0.303    12.115
ATOM     32  H   UNL d   1      10.302  -8.068   7.801 +0.03 +0.06    +0.222    12.115
ATOM     33  O   UNL d   1      12.205  -9.386   7.380 -0.01 +0.00    -0.303    12.115
ATOM     34  H   UNL d   1      11.538  -9.786   6.770 +0.03 -0.02    +0.222    12.115
ATOM     35  O   UNL d   1      12.540  -8.465   0.954 -0.08 +0.08    -0.278    12.115
ATOM     36  P   UNL d   1      13.097  -8.911  -0.473 -0.07 -0.15    +0.473    12.115
ATOM     37  O   UNL d   1      13.331  -7.802  -1.450 -0.21 +0.06    -0.228    12.115
ATOM     38  O   UNL d   1      14.409  -9.719  -0.073 -0.02 +0.05    -0.303    12.115
ATOM     39  H   UNL d   1      14.178 -10.663   0.057 +0.03 -0.04    +0.222    12.115
ATOM     40  O   UNL d   1      12.066 -10.044  -0.901 -0.14 +0.18    -0.303    12.115
ATOM     41  H   UNL d   1      11.997 -10.750  -0.220 +0.06 -0.11    +0.222    12.115
ATOM     42  O   UNL d   1      13.575  -6.909   3.190 -0.09 +0.03    -0.278    12.115
ATOM     43  P   UNL d   1      13.322  -5.811   2.060 -0.17 -0.03    +0.473    12.115
ATOM     44  O   UNL d   1      13.552  -4.385   2.424 -0.32 -0.01    -0.228    12.115
ATOM     45  O   UNL d   1      14.227  -6.331   0.859 -0.17 +0.01    -0.303    12.115
ATOM     46  H   UNL d   1      13.999  -7.249   0.610 +0.09 -0.02    +0.222    12.115
ATOM     47  O   UNL d   1      11.849  -6.161   1.532 -0.13 +0.07    -0.303    12.115
ATOM     48  H   UNL d   1      11.888  -6.968   0.978 +0.12 -0.06    +0.222    12.115
TER
ENDMDL
MODEL       43
USER    Run = 43
USER    Cluster Rank = 84
USER    Number of conformations in this cluster = 1
USER  
USER    RMSD from reference structure       = 15.017 A
USER  
USER    Estimated Free Energy of Binding    =   +4.80 kcal/mol  [=(1)+(2)+(3)-(4)]
USER    
USER    (1) Final Intermolecular Energy     =   -2.36 kcal/mol
USER        vdW + Hbond + desolv Energy     =   -2.33 kcal/mol
USER        Electrostatic Energy            =   -0.03 kcal/mol
USER    (2) Final Total Internal Energy     =  -15.59 kcal/mol
USER    (3) Torsional Free Energy           =   +7.16 kcal/mol
USER    (4) Unbound System's Energy  [=(2)] =  -15.59 kcal/mol
USER    
USER    
USER  
USER    DPF = D:/Protein_go_brrr/autodock/final/AncB/IHP/dock.dpf
USER    NEWDPF move	IHP_ideal_opt.pdbqt
USER    NEWDPF about	0.035000 0.082000 -0.065000
USER    NEWDPF tran0	-17.212024 6.936445 -1.061026
USER    NEWDPF axisangle0	0.820874 -0.511408 -0.254220 124.027354
USER    NEWDPF quaternion0	0.724881 -0.451604 -0.224491 0.469261
USER    NEWDPF dihe0	-112.04 -2.75 70.44 55.91 35.70 -124.53 -107.21 8.83 15.68 129.47 20.88 -180.00 93.27 125.04 -8.58 -178.24 -47.10 171.39 -23.67 -8.45 147.80 16.06 -30.09 -12.34 
USER  
USER                              x       y       z    vdW   Elec        q     RMS 
ATOM      1  C   UNL d   1     -15.750   7.213  -1.939 -0.05 +0.12    +0.194    15.017
ATOM      2  C   UNL d   1     -15.704   7.564  -0.450 -0.05 +0.08    +0.194    15.017
ATOM      3  C   UNL d   1     -16.970   8.296  -0.001 -0.01 +0.05    +0.194    15.017
ATOM      4  C   UNL d   1     -18.255   7.565  -0.382 -0.01 +0.05    +0.194    15.017
ATOM      5  C   UNL d   1     -18.295   7.095  -1.831 -0.03 +0.08    +0.194    15.017
ATOM      6  C   UNL d   1     -17.006   6.418  -2.299 -0.04 +0.16    +0.194    15.017
ATOM      7  O   UNL d   1     -14.622   6.388  -2.238 -0.51 -0.29    -0.278    15.017
ATOM      8  P   UNL d   1     -13.940   6.526  -3.676 -0.02 +0.29    +0.473    15.017
ATOM      9  O   UNL d   1     -12.462   6.352  -3.693 -0.08 -0.08    -0.228    15.017
ATOM     10  O   UNL d   1     -14.709   5.454  -4.573 -0.36 -0.26    -0.303    15.017
ATOM     11  H   UNL d   1     -15.485   5.873  -4.991 +0.02 +0.14    +0.222    15.017
ATOM     12  O   UNL d   1     -14.484   7.900  -4.260 -0.01 -0.10    -0.303    15.017
ATOM     13  H   UNL d   1     -15.459   7.996  -4.174 +0.01 +0.08    +0.222    15.017
ATOM     14  O   UNL d   1     -15.581   6.355   0.310 -0.09 -0.15    -0.278    15.017
ATOM     15  P   UNL d   1     -14.323   6.254   1.295 -0.08 +0.18    +0.473    15.017
ATOM     16  O   UNL d   1     -14.185   4.988   2.082 -0.31 -0.07    -0.228    15.017
ATOM     17  O   UNL d   1     -13.069   6.535   0.353 -0.68 -0.16    -0.303    15.017
ATOM     18  H   UNL d   1     -13.269   6.305  -0.575 +0.09 +0.11    +0.222    15.017
ATOM     19  O   UNL d   1     -14.383   7.592   2.154 -0.16 -0.06    -0.303    15.017
ATOM     20  H   UNL d   1     -15.104   8.177   1.859 +0.05 +0.04    +0.222    15.017
ATOM     21  O   UNL d   1     -17.066   6.353  -3.722 -0.08 -0.20    -0.278    15.017
ATOM     22  P   UNL d   1     -17.527   7.634  -4.553 +0.00 +0.15    +0.473    15.017
ATOM     23  O   UNL d   1     -17.412   8.973  -3.906 +0.00 -0.05    -0.228    15.017
ATOM     24  O   UNL d   1     -16.689   7.469  -5.896 +0.00 -0.08    -0.303    15.017
ATOM     25  H   UNL d   1     -15.842   7.005  -5.676 +0.01 +0.07    +0.222    15.017
ATOM     26  O   UNL d   1     -18.998   7.205  -5.025 +0.00 -0.07    -0.303    15.017
ATOM     27  H   UNL d   1     -19.558   7.057  -4.236 +0.01 +0.05    +0.222    15.017
ATOM     28  O   UNL d   1     -16.963   8.330   1.420 -0.01 -0.05    -0.278    15.017
ATOM     29  P   UNL d   1     -17.128   9.714   2.192 +0.01 +0.05    +0.473    15.017
ATOM     30  O   UNL d   1     -17.659   9.616   3.576 -0.00 -0.02    -0.228    15.017
ATOM     31  O   UNL d   1     -15.652  10.307   2.021 -0.01 -0.02    -0.303    15.017
ATOM     32  H   UNL d   1     -15.007   9.652   2.374 +0.04 +0.02    +0.222    15.017
ATOM     33  O   UNL d   1     -17.976  10.575   1.156 +0.00 -0.03    -0.303    15.017
ATOM     34  H   UNL d   1     -18.883  10.189   1.084 +0.00 +0.02    +0.222    15.017
ATOM     35  O   UNL d   1     -19.330   6.116  -1.891 -0.02 -0.10    -0.278    15.017
ATOM     36  P   UNL d   1     -20.770   6.501  -2.460 +0.01 +0.10    +0.473    15.017
ATOM     37  O   UNL d   1     -20.949   7.935  -2.844 +0.00 -0.04    -0.228    15.017
ATOM     38  O   UNL d   1     -20.929   5.474  -3.667 +0.00 -0.07    -0.303    15.017
ATOM     39  H   UNL d   1     -20.157   5.561  -4.266 +0.01 +0.06    +0.222    15.017
ATOM     40  O   UNL d   1     -21.742   5.927  -1.339 +0.00 -0.05    -0.303    15.017
ATOM     41  H   UNL d   1     -21.898   6.582  -0.622 +0.00 +0.03    +0.222    15.017
ATOM     42  O   UNL d   1     -19.328   8.497  -0.212 +0.00 -0.05    -0.278    15.017
ATOM     43  P   UNL d   1     -20.537   8.112   0.756 +0.00 +0.06    +0.473    15.017
ATOM     44  O   UNL d   1     -21.905   8.539   0.348 +0.00 -0.02    -0.228    15.017
ATOM     45  O   UNL d   1     -20.367   6.538   0.918 -0.00 -0.05    -0.303    15.017
ATOM     46  H   UNL d   1     -20.306   6.094   0.049 +0.01 +0.05    +0.222    15.017
ATOM     47  O   UNL d   1     -20.044   8.642   2.186 +0.00 -0.03    -0.303    15.017
ATOM     48  H   UNL d   1     -19.151   9.035   2.095 +0.00 +0.03    +0.222    15.017
TER
ENDMDL


AVSFLD: # AVS field file
AVSFLD: #
AVSFLD: # Created by AutoDock
AVSFLD: #
AVSFLD: ndim=2           # number of dimensions in the field
AVSFLD: nspace=1         # number of physical coordinates
AVSFLD: veclen=7         # vector size
AVSFLD: dim1=48          # atoms
AVSFLD: dim2=84          # conformations
AVSFLD: data=Real       # data type (byte,integer,Real,double)
AVSFLD: field=uniform    # field coordinate layout
AVSFLD: label= x y z vdW Elec q RMS
AVSFLD: variable 1 file = D:/Protein_go_brrr/autodock/final/AncB/IHP/dock.dlg.pdb filetype = ascii offset = 5 stride = 12
AVSFLD: variable 2 file = D:/Protein_go_brrr/autodock/final/AncB/IHP/dock.dlg.pdb filetype = ascii offset = 6 stride = 12
AVSFLD: variable 3 file = D:/Protein_go_brrr/autodock/final/AncB/IHP/dock.dlg.pdb filetype = ascii offset = 7 stride = 12
AVSFLD: variable 4 file = D:/Protein_go_brrr/autodock/final/AncB/IHP/dock.dlg.pdb filetype = ascii offset = 8 stride = 12
AVSFLD: variable 5 file = D:/Protein_go_brrr/autodock/final/AncB/IHP/dock.dlg.pdb filetype = ascii offset = 9 stride = 12
AVSFLD: variable 6 file = D:/Protein_go_brrr/autodock/final/AncB/IHP/dock.dlg.pdb filetype = ascii offset = 10 stride = 12
AVSFLD: variable 7 file = D:/Protein_go_brrr/autodock/final/AncB/IHP/dock.dlg.pdb filetype = ascii offset = 11 stride = 12
AVSFLD: # end of file

>>> Closing the docking parameter file (DPF)...
This docking finished at:			5:07 36" a.m., 10/01/2025


________________________________________________________________________________

D:/autodockScripts/autodock4.exe: Successful Completion on "ACER"

Real= 16h 14m 00.53s,  CPU= 6m 57.11s,  System= 1m 30.97s
________________________________________________________________________________

