          AutoDock 4.2 Release 4.2.6   
         (C) 1989-2012 The Scripps Research Institute
        AutoDock comes with ABSOLUTELY NO WARRANTY.
        AutoDock is free software, and you are welcome
        to redistribute it under certain conditions;
        for details type 'autodock4 -C'

                     main.cc  $Revision: 1.213 $

                   Compiled on Jul 18 2014 at 15:34:58


This file was created at:			12:33 12" p.m., 09/30/2025
                   on host:		"ACER"
Current Working Directory = "D:\Protein_go_brrr\autodock\final\AncB\heme_Fe"

      ________________________________________________________________

                   SETTING UP DEFAULT PARAMETER LIBRARY
      ________________________________________________________________


Random number generator was seeded with values 118808, 1759228392.
Docking parameter file (DPF) used for this docking:		D:/Protein_go_brrr/autodock/final/AncB/heme_Fe/dock.dpf
DPF> autodock_parameter_version 4.2       # used by autodock to validate parameter set

	Autodock parameter version 4.2.
DPF> outlev 1                             # diagnostic output level

Output Level = 1  ADT-COMPATIBLE OUTPUT DURING DOCKING.
DPF> intelec                              # calculate internal electrostatics

Electrostatic energies will be calculated for all non-bonds between moving atoms.
DPF> seed pid time                        # seeds for random generator

Random number generator was seeded with values 118808, 1759228392.
DPF> ligand_types A C OA N Fe HD          # atoms types in ligand

DPF> fld opt_AncB.maps.fld                # grid_data_file

Opening Grid Map Dimensions file:		opt_AncB.maps.fld
Grid Point Spacing =				0.408 Angstroms

Even Number of User-specified Grid Points =	126 x-points
						120 y-points
						126 z-points

Coordinates of Central Grid Point of Maps =	(-0.470, 0.127, 0.025)
Macromolecule file used to create Grid Maps =	opt_AncB.pdbqt
Grid Parameter file used to create Grid Maps =	D:/Protein_go_brrr/autodock/final/AncB/heme_Fe/grid.gpf
Minimum coordinates in grid = (-26.174, -24.353, -25.679)
Maximum coordinates in grid = (25.234, 24.607, 25.729)

DPF> map opt_AncB.A.map                   # atom-specific affinity map

DPF> map opt_AncB.C.map                   # atom-specific affinity map

DPF> map opt_AncB.OA.map                  # atom-specific affinity map

DPF> map opt_AncB.N.map                   # atom-specific affinity map

DPF> map opt_AncB.Fe.map                  # atom-specific affinity map

DPF> map opt_AncB.HD.map                  # atom-specific affinity map

DPF> elecmap opt_AncB.e.map               # electrostatics map

DPF> desolvmap opt_AncB.d.map             # desolvation map

DPF> move heme_Fe_opt.pdbqt               # small molecule

1,4-interactions will be _ignored_ in the non-bonded internal energy calculation.

Ligand PDBQT file = "heme_Fe_opt.pdbqt"

INPUT LIGAND PDBQT FILE:
________________________

INPUT-LIGAND-PDBQT: REMARK  10 active torsions:
INPUT-LIGAND-PDBQT: REMARK  status: ('A' for Active; 'I' for Inactive)
INPUT-LIGAND-PDBQT: REMARK    1  A    between atoms: C_6  and  C_10 
INPUT-LIGAND-PDBQT: REMARK    2  A    between atoms: C_10  and  C_11 
INPUT-LIGAND-PDBQT: REMARK    3  A    between atoms: C_11  and  C_12 
INPUT-LIGAND-PDBQT: REMARK    4  A    between atoms: C_12  and  O_14 
INPUT-LIGAND-PDBQT: REMARK    5  A    between atoms: C_17  and  C_20 
INPUT-LIGAND-PDBQT: REMARK    6  A    between atoms: C_24  and  C_27 
INPUT-LIGAND-PDBQT: REMARK    7  A    between atoms: C_31  and  C_34 
INPUT-LIGAND-PDBQT: REMARK    8  A    between atoms: C_34  and  C_35 
INPUT-LIGAND-PDBQT: REMARK    9  A    between atoms: C_35  and  C_36 
INPUT-LIGAND-PDBQT: REMARK   10  A    between atoms: C_36  and  O_38 
INPUT-LIGAND-PDBQT: ROOT
INPUT-LIGAND-PDBQT: ATOM      1  C   UNL d   1      -2.155  -0.060   0.485  0.00  0.00     0.064 C 
INPUT-LIGAND-PDBQT: ATOM      2  C   UNL d   1       1.497  -3.385   0.291  0.00  0.00     0.064 A 
INPUT-LIGAND-PDBQT: ATOM      3  C   UNL d   1       4.660   0.212  -0.062  0.00  0.00     0.064 C 
INPUT-LIGAND-PDBQT: ATOM      4  C   UNL d   1       1.133   3.443   0.018  0.00  0.00     0.064 C 
INPUT-LIGAND-PDBQT: ATOM      5  C   UNL d   1      -1.427  -1.332   0.379  0.00  0.00     0.066 A 
INPUT-LIGAND-PDBQT: ATOM      6  C   UNL d   1      -2.022  -2.582   0.331  0.00  0.00    -0.021 A 
INPUT-LIGAND-PDBQT: ATOM      7  C   UNL d   1      -1.007  -3.505   0.281  0.00  0.00    -0.025 A 
INPUT-LIGAND-PDBQT: ATOM      8  C   UNL d   1       0.170  -2.782   0.300  0.00  0.00     0.066 A 
INPUT-LIGAND-PDBQT: ATOM      9  C   UNL d   1      -1.169  -4.992   0.200  0.00  0.00     0.051 C 
INPUT-LIGAND-PDBQT: ATOM     10  C   UNL d   1       2.647  -2.710   0.251  0.00  0.00     0.066 A 
INPUT-LIGAND-PDBQT: ATOM     11  C   UNL d   1       3.903  -3.312   0.359  0.00  0.00    -0.021 A 
INPUT-LIGAND-PDBQT: ATOM     12  C   UNL d   1       4.832  -2.294   0.277  0.00  0.00     0.000 A 
INPUT-LIGAND-PDBQT: ATOM     13  C   UNL d   1       4.087  -1.111   0.130  0.00  0.00     0.070 A 
INPUT-LIGAND-PDBQT: ATOM     14  C   UNL d   1       4.202  -4.778   0.598  0.00  0.00     0.052 C 
INPUT-LIGAND-PDBQT: ATOM     15  C   UNL d   1       3.948   1.360  -0.152  0.00  0.00     0.066 A 
INPUT-LIGAND-PDBQT: ATOM     16  C   UNL d   1       4.526   2.591  -0.435  0.00  0.00    -0.021 A 
INPUT-LIGAND-PDBQT: ATOM     17  C   UNL d   1       3.511   3.525  -0.409  0.00  0.00     0.000 A 
INPUT-LIGAND-PDBQT: ATOM     18  C   UNL d   1       2.336   2.841  -0.106  0.00  0.00     0.070 A 
INPUT-LIGAND-PDBQT: ATOM     19  C   UNL d   1       5.979   2.885  -0.695  0.00  0.00     0.052 C 
INPUT-LIGAND-PDBQT: ATOM     20  C   UNL d   1      -0.134   2.748   0.275  0.00  0.00     0.066 A 
INPUT-LIGAND-PDBQT: ATOM     21  C   UNL d   1      -1.347   3.370   0.603  0.00  0.00    -0.025 A 
INPUT-LIGAND-PDBQT: ATOM     22  C   UNL d   1      -2.273   2.354   0.719  0.00  0.00    -0.021 A 
INPUT-LIGAND-PDBQT: ATOM     23  C   UNL d   1      -1.591   1.158   0.465  0.00  0.00     0.066 A 
INPUT-LIGAND-PDBQT: ATOM     24  C   UNL d   1      -1.629   4.841   0.803  0.00  0.00     0.051 C 
INPUT-LIGAND-PDBQT: ATOM     25  N   UNL d   1      -0.089  -1.460   0.350  0.00  0.00    -0.248 N 
INPUT-LIGAND-PDBQT: ATOM     26  N   UNL d   1       2.755  -1.363   0.123  0.00  0.00    -0.248 N 
INPUT-LIGAND-PDBQT: ATOM     27  N   UNL d   1       2.596   1.504   0.009  0.00  0.00    -0.248 N 
INPUT-LIGAND-PDBQT: ATOM     28  N   UNL d   1      -0.277   1.401   0.239  0.00  0.00    -0.248 N 
INPUT-LIGAND-PDBQT: ATOM     29 FE   UNL d   1       1.239   0.021   0.181  0.00  0.00     0.000 Fe
INPUT-LIGAND-PDBQT: ENDROOT
INPUT-LIGAND-PDBQT: BRANCH   6  30
INPUT-LIGAND-PDBQT: ATOM     30  C   UNL d   1      -3.481  -2.886   0.312  0.00  0.00     0.052 C 
INPUT-LIGAND-PDBQT: BRANCH  30  31
INPUT-LIGAND-PDBQT: ATOM     31  C   UNL d   1      -4.006  -2.926  -1.119  0.00  0.00     0.115 C 
INPUT-LIGAND-PDBQT: BRANCH  31  32
INPUT-LIGAND-PDBQT: ATOM     32  C   UNL d   1      -5.478  -3.232  -1.131  0.00  0.00     0.139 C 
INPUT-LIGAND-PDBQT: ATOM     33  O   UNL d   1      -6.086  -3.411  -0.085  0.00  0.00    -0.650 OA
INPUT-LIGAND-PDBQT: BRANCH  32  34
INPUT-LIGAND-PDBQT: ATOM     34  O   UNL d   1      -6.141  -3.312  -2.297  0.00  0.00    -0.776 OA
INPUT-LIGAND-PDBQT: ATOM     35  H   UNL d   1      -7.088  -3.510  -2.286  0.00  0.00     0.167 HD
INPUT-LIGAND-PDBQT: ENDBRANCH  32  34
INPUT-LIGAND-PDBQT: ENDBRANCH  31  32
INPUT-LIGAND-PDBQT: ENDBRANCH  30  31
INPUT-LIGAND-PDBQT: ENDBRANCH   6  30
INPUT-LIGAND-PDBQT: BRANCH  22  36
INPUT-LIGAND-PDBQT: ATOM     36  C   UNL d   1      -3.720   2.522   1.101  0.00  0.00     0.052 C 
INPUT-LIGAND-PDBQT: BRANCH  36  37
INPUT-LIGAND-PDBQT: ATOM     37  C   UNL d   1      -4.581   2.559  -0.153  0.00  0.00     0.115 C 
INPUT-LIGAND-PDBQT: BRANCH  37  38
INPUT-LIGAND-PDBQT: ATOM     38  C   UNL d   1      -6.035   2.706   0.196  0.00  0.00     0.139 C 
INPUT-LIGAND-PDBQT: ATOM     39  O   UNL d   1      -6.394   2.778   1.362  0.00  0.00    -0.650 OA
INPUT-LIGAND-PDBQT: BRANCH  38  40
INPUT-LIGAND-PDBQT: ATOM     40  O   UNL d   1      -6.958   2.756  -0.781  0.00  0.00    -0.776 OA
INPUT-LIGAND-PDBQT: ATOM     41  H   UNL d   1      -7.891   2.847  -0.542  0.00  0.00     0.167 HD
INPUT-LIGAND-PDBQT: ENDBRANCH  38  40
INPUT-LIGAND-PDBQT: ENDBRANCH  37  38
INPUT-LIGAND-PDBQT: ENDBRANCH  36  37
INPUT-LIGAND-PDBQT: ENDBRANCH  22  36
INPUT-LIGAND-PDBQT: BRANCH  12  42
INPUT-LIGAND-PDBQT: ATOM     42  C   UNL d   1       6.314  -2.479   0.357  0.00  0.00     0.004 C 
INPUT-LIGAND-PDBQT: ATOM     43  C   UNL d   1       6.931  -3.422  -0.367  0.00  0.00     0.012 C 
INPUT-LIGAND-PDBQT: ENDBRANCH  12  42
INPUT-LIGAND-PDBQT: BRANCH  17  44
INPUT-LIGAND-PDBQT: ATOM     44  C   UNL d   1       3.653   4.974  -0.677  0.00  0.00     0.004 C 
INPUT-LIGAND-PDBQT: ATOM     45  C   UNL d   1       4.222   5.409  -1.806  0.00  0.00     0.012 C 
INPUT-LIGAND-PDBQT: ENDBRANCH  17  44
INPUT-LIGAND-PDBQT: TORSDOF 10
________________________________________________________________________________

Total charge on ligand                               =	-2.002 e
REMARK  10 active torsions:
REMARK  status: ('A' for Active; 'I' for Inactive)
REMARK    1  A    between atoms: C_6  and  C_10 
REMARK    2  A    between atoms: C_10  and  C_11 
REMARK    3  A    between atoms: C_11  and  C_12 
REMARK    4  A    between atoms: C_12  and  O_14 
REMARK    5  A    between atoms: C_17  and  C_20 
REMARK    6  A    between atoms: C_24  and  C_27 
REMARK    7  A    between atoms: C_31  and  C_34 
REMARK    8  A    between atoms: C_34  and  C_35 
REMARK    9  A    between atoms: C_35  and  C_36 
REMARK   10  A    between atoms: C_36  and  O_38 


Number of Rotatable Bonds in Small Molecule =	10 torsions
Number of atoms in ligand:  45

Number of non-hydrogen atoms in ligand:  43

Number of vibrational degrees of freedom of ligand:  129


Number of torsional degrees of freedom = 10
Estimated loss of torsional free energy upon binding = +2.9830 kcal/mol


DPF> about -0.174 -0.001 -0.047            # small molecule center

Small molecule center of rotation =	(-0.174, -0.001, -0.047)

DPF> tran0 random                         # initial coordinates/A or random

Initial translation =			(-19.079, -6.285, -24.952) Angstroms
DPF> quaternion0 random                   # initial orientation

Each run will begin with a new, random initial orientation.
Initial quaternion,  (x,y,z,w) =	( -0.630, -0.531, 0.550, -0.138 ),
DPF> dihe0 random                         # initial dihedrals (relative) or random

DPF> torsdof 10                            # torsional degrees of freedom

Number of torsional degrees of freedom = 10
Free energy coefficient for torsional degrees of freedom = 0.2983, the factory default value.

Estimated loss of torsional free energy upon binding = +2.9830 kcal/mol

DPF> rmstol 2.0                           # cluster_tolerance/A

Maximum RMS tolerance for conformational cluster analysis = 2.00 Angstroms
DPF> extnrg 1000.0                        # external grid energy

External grid energy (beyond grid map walls) = 1000.00

DPF> e0max 0.0 10000                      # max initial energy; max number of retries

Using user-specified maximum number of retries for simanneal initialization, 10000 retries.
If the simanneal initial energy is greater than e0max, 0.000,
then a new, random initial state will be created.

DPF> ga_pop_size 150                      # number of individuals in population

A population of 150 individuals will be used
DPF> ga_num_evals 25000000                # maximum number of energy evaluations

There will be at most 25000000 function evaluations used.
DPF> ga_num_generations 27000             # maximum number of generations

The GA will run for at most 27000 generations.
DPF> ga_elitism 1                         # number of top individuals to survive to next generation

The 1 best will be preserved each GA generation.
DPF> ga_mutation_rate 0.02                # rate of gene mutation

The mutation rate is 0.020000.
DPF> ga_crossover_rate 0.8                # rate of crossover

The crossover rate is 0.800000.
DPF> ga_window_size 10                    # 

The GA's selection window is 10 generations.
DPF> ga_cauchy_alpha 0.0                  # Alpha parameter of Cauchy distribution

The alpha parameter (for the Cauchy distribution) is being set to 0.000000.
DPF> ga_cauchy_beta 1.0                   # Beta parameter Cauchy distribution

The beta parameter (for the Cauchy distribution) is being set to 1.000000.
DPF> set_ga                               # set the above parameters for GA or LGA

DPF> sw_max_its 300                       # iterations of Solis & Wets local search

Solis & Wets algorithms will perform at most 300 iterations.
DPF> sw_max_succ 4                        # consecutive successes before changing rho

Solis & Wets algorithms expand rho every 4 in a row successes.
DPF> sw_max_fail 4                        # consecutive failures before changing rho

Solis & Wets algorithms contract rho every 4 in a row failures.
DPF> sw_rho 1.0                           # size of local search space to sample

rho is set to 1.000000.
DPF> sw_lb_rho 0.01                       # lower bound on rho

rho will never get smaller than 0.010000.
DPF> ls_search_freq 0.06                  # probability of performing local search on individual

Local search will be performed with frequency 0.060000.
DPF> set_psw1                             # set the above pseudo-Solis & Wets parameters

Creating a new Local Search object using the pseudo-Solis-Wets algorithm (pSW1) with the current settings.

DPF> unbound_model bound                  # state of unbound ligand

DPF> ga_run 100                           # do this many hybrid GA-LS runs

centering ligand on specified point: -0.174 -0.001 -0.047
Furthest true ligand atom from "about" center is 8.241 Angstroms (maxrad).
Number of requested GA dockings = 100 runs
Unbound model to be used is 'same as bound' [AutoDock 4.2 default].

	BEGINNING GENETIC ALGORITHM DOCKING 1 of 100
Run: 1 Seed: 1320787765 884754300 [ Run 1 of 100 GA/GALS ]
Beginning LAMARCKIAN GENETIC ALGORITHM (LGA), with a maximum of 25000000 energy evaluations.

Final-Value: -14.155


	FINAL GENETIC ALGORITHM DOCKED STATE
	_______________________________________________


Detailed state:  trans -5.133 -11.624 12.119 quatxyzw -0.637468 -0.526561 0.041033 -0.560968 center -0.174 -0.001 -0.047 ntor 10 152.0501 96.0437 -163.6385 38.6563 -96.8479 104.6449 5.2446 -39.8593 -0.7928 -2.8563
State:	 -5.133 -11.624  12.119  -0.770 -0.636  0.050 -111.754    152.05   96.04 -163.64   38.66  -96.85  104.64    5.24  -39.86   -0.79   -2.86

DOCKED: MODEL        1
DOCKED: USER    Run = 1
DOCKED: USER    DPF = D:/Protein_go_brrr/autodock/final/AncB/heme_Fe/dock.dpf
DOCKED: USER  
DOCKED: USER    Estimated Free Energy of Binding    =   -9.61 kcal/mol  [=(1)+(2)+(3)-(4)]
DOCKED: USER    Estimated Inhibition Constant, Ki   =   90.98 nM (nanomolar)  [Temperature = 298.15 K]
DOCKED: USER    
DOCKED: USER    (1) Final Intermolecular Energy     =  -12.59 kcal/mol
DOCKED: USER        vdW + Hbond + desolv Energy     =   -8.70 kcal/mol
DOCKED: USER        Electrostatic Energy            =   -3.89 kcal/mol
DOCKED: USER    (2) Final Total Internal Energy     =   -1.57 kcal/mol
DOCKED: USER    (3) Torsional Free Energy           =   +2.98 kcal/mol
DOCKED: USER    (4) Unbound System's Energy  [=(2)] =   -1.57 kcal/mol
DOCKED: USER    
DOCKED: USER    
DOCKED: USER    NEWDPF move heme_Fe_opt.pdbqt
DOCKED: USER    NEWDPF about -0.174000 -0.001000 -0.047000
DOCKED: USER    NEWDPF tran0 -5.133064 -11.624294 12.118960
DOCKED: USER    NEWDPF quaternion0 -0.637468 -0.526561 0.041033 -0.560968
DOCKED: USER    NEWDPF axisangle0 -0.770040 -0.636068 0.049567 -111.754475
DOCKED: USER    NEWDPF quat0 -0.770040 -0.636068 0.049567 -111.754475
DOCKED: USER    NEWDPF dihe0 152.05 96.04 -163.64 38.66 -96.85 104.64 5.24 -39.86 -0.79 -2.86 
DOCKED: USER  keepresnum = 1 
DOCKED: USER  
DOCKED: REMARK  10 active torsions:
DOCKED: REMARK  status: ('A' for Active; 'I' for Inactive)
DOCKED: REMARK    1  A    between atoms: C_6  and  C_10 
DOCKED: REMARK    2  A    between atoms: C_10  and  C_11 
DOCKED: REMARK    3  A    between atoms: C_11  and  C_12 
DOCKED: REMARK    4  A    between atoms: C_12  and  O_14 
DOCKED: REMARK    5  A    between atoms: C_17  and  C_20 
DOCKED: REMARK    6  A    between atoms: C_24  and  C_27 
DOCKED: REMARK    7  A    between atoms: C_31  and  C_34 
DOCKED: REMARK    8  A    between atoms: C_34  and  C_35 
DOCKED: REMARK    9  A    between atoms: C_35  and  C_36 
DOCKED: REMARK   10  A    between atoms: C_36  and  O_38 
DOCKED: USER                              x       y       z     vdW  Elec       q    Type
DOCKED: USER                           _______ _______ _______ _____ _____    ______ ____
DOCKED: ROOT
DOCKED: ATOM      1  C   UNL d   1      -6.388 -12.699  10.902 -0.27 +0.04    +0.064 C 
DOCKED: ATOM      2  C   UNL d   1      -6.728 -10.821  15.461 -0.16 +0.04    +0.064 A 
DOCKED: ATOM      3  C   UNL d   1      -2.853  -8.127  14.566 -0.19 +0.01    +0.064 C 
DOCKED: ATOM      4  C   UNL d   1      -2.444 -10.010  10.187 -0.30 +0.01    +0.064 C 
DOCKED: ATOM      5  C   UNL d   1      -6.793 -12.482  12.297 -0.30 +0.04    +0.066 A 
DOCKED: ATOM      6  C   UNL d   1      -7.807 -13.171  12.943 -0.34 -0.01    -0.021 A 
DOCKED: ATOM      7  C   UNL d   1      -7.903 -12.646  14.207 -0.28 -0.01    -0.025 A 
DOCKED: ATOM      8  C   UNL d   1      -6.943 -11.656  14.286 -0.23 +0.04    +0.066 A 
DOCKED: ATOM      9  C   UNL d   1      -8.853 -13.090  15.278 -0.21 +0.02    +0.051 C 
DOCKED: ATOM     10  C   UNL d   1      -5.771  -9.899  15.583 -0.09 +0.05    +0.066 A 
DOCKED: ATOM     11  C   UNL d   1      -5.662  -9.036  16.676 -0.15 -0.01    -0.021 A 
DOCKED: ATOM     12  C   UNL d   1      -4.562  -8.237  16.434 -0.17 +0.00    +0.000 A 
DOCKED: ATOM     13  C   UNL d   1      -4.057  -8.653  15.190 -0.13 +0.02    +0.070 A 
DOCKED: ATOM     14  C   UNL d   1      -6.600  -8.930  17.861 -0.13 +0.01    +0.052 C 
DOCKED: ATOM     15  C   UNL d   1      -2.392  -8.488  13.345 -0.15 +0.02    +0.066 A 
DOCKED: ATOM     16  C   UNL d   1      -1.185  -8.037  12.826 -0.22 -0.00    -0.021 A 
DOCKED: ATOM     17  C   UNL d   1      -1.066  -8.576  11.562 -0.26 +0.00    +0.000 A 
DOCKED: ATOM     18  C   UNL d   1      -2.208  -9.341  11.337 -0.23 +0.02    +0.070 A 
DOCKED: ATOM     19  C   UNL d   1      -0.192  -7.115  13.481 -0.22 +0.00    +0.052 C 
DOCKED: ATOM     20  C   UNL d   1      -3.604 -10.874   9.937 -0.23 +0.02    +0.066 A 
DOCKED: ATOM     21  C   UNL d   1      -3.962 -11.409   8.692 -0.23 -0.01    -0.025 A 
DOCKED: ATOM     22  C   UNL d   1      -5.081 -12.182   8.921 -0.25 -0.01    -0.021 A 
DOCKED: ATOM     23  C   UNL d   1      -5.364 -12.084  10.289 -0.23 +0.03    +0.066 A 
DOCKED: ATOM     24  C   UNL d   1      -3.295 -11.206   7.351 -0.33 +0.02    +0.051 C 
DOCKED: ATOM     25  N   UNL d   1      -6.263 -11.565  13.125 -0.17 -0.15    -0.248 N 
DOCKED: ATOM     26  N   UNL d   1      -4.799  -9.659  14.667 -0.10 -0.15    -0.248 N 
DOCKED: ATOM     27  N   UNL d   1      -3.003  -9.323  12.448 -0.12 -0.08    -0.248 N 
DOCKED: ATOM     28  N   UNL d   1      -4.486 -11.248  10.895 -0.14 -0.10    -0.248 N 
DOCKED: ATOM     29 FE   UNL d   1      -4.641 -10.453  12.779 -0.05 +0.00    +0.000 Fe
DOCKED: ENDROOT
DOCKED: BRANCH   6  30
DOCKED: ATOM     30  C   UNL d   1      -8.630 -14.286  12.394 +0.08 +0.02    +0.052 C 
DOCKED: BRANCH  30  31
DOCKED: ATOM     31  C   UNL d   1      -7.957 -15.630  12.650 -0.19 +0.05    +0.115 C 
DOCKED: BRANCH  31  32
DOCKED: ATOM     32  C   UNL d   1      -8.725 -16.738  11.985 -0.16 +0.10    +0.139 C 
DOCKED: ATOM     33  O   UNL d   1      -9.533 -17.404  12.617 -0.07 -0.40    -0.650 OA
DOCKED: BRANCH  32  34
DOCKED: ATOM     34  O   UNL d   1      -8.529 -17.007  10.683 -0.11 -1.23    -0.776 OA
DOCKED: ATOM     35  H   UNL d   1      -8.243 -16.295  10.094 -0.34 +0.31    +0.167 HD
DOCKED: ENDBRANCH  32  34
DOCKED: ENDBRANCH  31  32
DOCKED: ENDBRANCH  30  31
DOCKED: ENDBRANCH   6  30
DOCKED: BRANCH  22  36
DOCKED: ATOM     36  C   UNL d   1      -5.861 -12.933   7.875 -0.33 +0.04    +0.052 C 
DOCKED: BRANCH  36  37
DOCKED: ATOM     37  C   UNL d   1      -5.364 -14.368   7.794 -0.17 +0.10    +0.115 C 
DOCKED: BRANCH  37  38
DOCKED: ATOM     38  C   UNL d   1      -6.509 -15.327   7.634 -0.22 +0.22    +0.139 C 
DOCKED: ATOM     39  O   UNL d   1      -6.743 -15.847   6.553 -0.42 -1.66    -0.650 OA
DOCKED: BRANCH  38  40
DOCKED: ATOM     40  O   UNL d   1      -7.293 -15.619   8.687 -0.30 -1.57    -0.776 OA
DOCKED: ATOM     41  H   UNL d   1      -7.013 -16.309   9.305 +0.01 +0.27    +0.167 HD
DOCKED: ENDBRANCH  38  40
DOCKED: ENDBRANCH  37  38
DOCKED: ENDBRANCH  36  37
DOCKED: ENDBRANCH  22  36
DOCKED: BRANCH  12  42
DOCKED: ATOM     42  C   UNL d   1      -4.074  -7.154  17.343 -0.14 -0.00    +0.004 C 
DOCKED: ATOM     43  C   UNL d   1      -4.081  -5.873  16.954 -0.24 -0.00    +0.012 C 
DOCKED: ENDBRANCH  12  42
DOCKED: BRANCH  17  44
DOCKED: ATOM     44  C   UNL d   1       0.075  -8.387  10.638 -0.13 +0.00    +0.004 C 
DOCKED: ATOM     45  C   UNL d   1       1.092  -9.255  10.620 -0.12 +0.00    +0.012 C 
DOCKED: ENDBRANCH  17  44
DOCKED: TORSDOF 10
DOCKED: TER
DOCKED: ENDMDL
________________________________________________________________________________


	BEGINNING GENETIC ALGORITHM DOCKING 2 of 100
Run: 2 Seed: 296394587 792481639 [ Run 2 of 100 GA/GALS ]
Beginning LAMARCKIAN GENETIC ALGORITHM (LGA), with a maximum of 25000000 energy evaluations.

Final-Value: -13.880


	FINAL GENETIC ALGORITHM DOCKED STATE
	_______________________________________________


Detailed state:  trans -5.233 -11.869 12.394 quatxyzw 0.612498 0.565670 -0.061189 0.548744 center -0.174 -0.001 -0.047 ntor 10 -137.6927 71.8383 178.8064 -92.3588 -175.0170 90.2245 14.0657 -45.8440 -6.5196 15.4494
State:	 -5.233 -11.869  12.394   0.733  0.677 -0.073 113.438   -137.69   71.84  178.81  -92.36 -175.02   90.22   14.07  -45.84   -6.52   15.45

DOCKED: MODEL        2
DOCKED: USER    Run = 2
DOCKED: USER    DPF = D:/Protein_go_brrr/autodock/final/AncB/heme_Fe/dock.dpf
DOCKED: USER  
DOCKED: USER    Estimated Free Energy of Binding    =   -9.45 kcal/mol  [=(1)+(2)+(3)-(4)]
DOCKED: USER    Estimated Inhibition Constant, Ki   =  118.84 nM (nanomolar)  [Temperature = 298.15 K]
DOCKED: USER    
DOCKED: USER    (1) Final Intermolecular Energy     =  -12.43 kcal/mol
DOCKED: USER        vdW + Hbond + desolv Energy     =   -8.97 kcal/mol
DOCKED: USER        Electrostatic Energy            =   -3.46 kcal/mol
DOCKED: USER    (2) Final Total Internal Energy     =   -1.45 kcal/mol
DOCKED: USER    (3) Torsional Free Energy           =   +2.98 kcal/mol
DOCKED: USER    (4) Unbound System's Energy  [=(2)] =   -1.45 kcal/mol
DOCKED: USER    
DOCKED: USER    
DOCKED: USER    NEWDPF move heme_Fe_opt.pdbqt
DOCKED: USER    NEWDPF about -0.174000 -0.001000 -0.047000
DOCKED: USER    NEWDPF tran0 -5.232720 -11.869293 12.393676
DOCKED: USER    NEWDPF quaternion0 0.612498 0.565670 -0.061189 0.548744
DOCKED: USER    NEWDPF axisangle0 0.732661 0.676646 -0.073193 113.438194
DOCKED: USER    NEWDPF quat0 0.732661 0.676646 -0.073193 113.438194
DOCKED: USER    NEWDPF dihe0 -137.69 71.84 178.81 -92.36 -175.02 90.22 14.07 -45.84 -6.52 15.45 
DOCKED: USER  keepresnum = 1 
DOCKED: USER  
DOCKED: REMARK  10 active torsions:
DOCKED: REMARK  status: ('A' for Active; 'I' for Inactive)
DOCKED: REMARK    1  A    between atoms: C_6  and  C_10 
DOCKED: REMARK    2  A    between atoms: C_10  and  C_11 
DOCKED: REMARK    3  A    between atoms: C_11  and  C_12 
DOCKED: REMARK    4  A    between atoms: C_12  and  O_14 
DOCKED: REMARK    5  A    between atoms: C_17  and  C_20 
DOCKED: REMARK    6  A    between atoms: C_24  and  C_27 
DOCKED: REMARK    7  A    between atoms: C_31  and  C_34 
DOCKED: REMARK    8  A    between atoms: C_34  and  C_35 
DOCKED: REMARK    9  A    between atoms: C_35  and  C_36 
DOCKED: REMARK   10  A    between atoms: C_36  and  O_38 
DOCKED: USER                              x       y       z     vdW  Elec       q    Type
DOCKED: USER                           _______ _______ _______ _____ _____    ______ ____
DOCKED: ROOT
DOCKED: ATOM      1  C   UNL d   1      -6.338 -13.069  11.148 -0.28 +0.03    +0.064 C 
DOCKED: ATOM      2  C   UNL d   1      -6.996 -11.215  15.683 -0.15 +0.03    +0.064 A 
DOCKED: ATOM      3  C   UNL d   1      -3.385  -8.152  14.880 -0.16 +0.01    +0.064 C 
DOCKED: ATOM      4  C   UNL d   1      -2.662 -10.002  10.528 -0.29 +0.02    +0.064 C 
DOCKED: ATOM      5  C   UNL d   1      -6.804 -12.887  12.530 -0.26 +0.03    +0.066 A 
DOCKED: ATOM      6  C   UNL d   1      -7.762 -13.671  13.151 -0.29 -0.01    -0.021 A 
DOCKED: ATOM      7  C   UNL d   1      -7.947 -13.153  14.409 -0.22 -0.01    -0.025 A 
DOCKED: ATOM      8  C   UNL d   1      -7.093 -12.072  14.508 -0.20 +0.03    +0.066 A 
DOCKED: ATOM      9  C   UNL d   1      -8.879 -13.685  15.455 -0.17 +0.02    +0.051 C 
DOCKED: ATOM     10  C   UNL d   1      -6.141 -10.202  15.826 -0.12 +0.04    +0.066 A 
DOCKED: ATOM     11  C   UNL d   1      -6.150  -9.328  16.916 -0.14 -0.01    -0.021 A 
DOCKED: ATOM     12  C   UNL d   1      -5.128  -8.424  16.700 -0.16 +0.00    +0.000 A 
DOCKED: ATOM     13  C   UNL d   1      -4.548  -8.793  15.473 -0.14 +0.03    +0.070 A 
DOCKED: ATOM     14  C   UNL d   1      -7.128  -9.311  18.072 -0.11 +0.01    +0.052 C 
DOCKED: ATOM     15  C   UNL d   1      -2.855  -8.470  13.676 -0.09 +0.02    +0.066 A 
DOCKED: ATOM     16  C   UNL d   1      -1.684  -7.903  13.189 -0.21 -0.00    -0.021 A 
DOCKED: ATOM     17  C   UNL d   1      -1.475  -8.433  11.932 -0.27 +0.00    +0.000 A 
DOCKED: ATOM     18  C   UNL d   1      -2.528  -9.309  11.680 -0.21 +0.02    +0.070 A 
DOCKED: ATOM     19  C   UNL d   1      -0.807  -6.884  13.865 -0.26 +0.00    +0.052 C 
DOCKED: ATOM     20  C   UNL d   1      -3.722 -10.979  10.252 -0.21 +0.02    +0.066 A 
DOCKED: ATOM     21  C   UNL d   1      -3.989 -11.552   9.000 -0.23 -0.01    -0.025 A 
DOCKED: ATOM     22  C   UNL d   1      -5.032 -12.432   9.203 -0.23 -0.01    -0.021 A 
DOCKED: ATOM     23  C   UNL d   1      -5.363 -12.357  10.561 -0.21 +0.03    +0.066 A 
DOCKED: ATOM     24  C   UNL d   1      -3.307 -11.290   7.678 -0.33 +0.02    +0.051 C 
DOCKED: ATOM     25  N   UNL d   1      -6.392 -11.919  13.367 -0.15 -0.14    -0.248 N 
DOCKED: ATOM     26  N   UNL d   1      -5.171  -9.870  14.936 -0.09 -0.16    -0.248 N 
DOCKED: ATOM     27  N   UNL d   1      -3.353  -9.366  12.768 -0.10 -0.09    -0.248 N 
DOCKED: ATOM     28  N   UNL d   1      -4.591 -11.436  11.186 -0.13 -0.10    -0.248 N 
DOCKED: ATOM     29 FE   UNL d   1      -4.879 -10.652  13.060 -0.05 +0.00    +0.000 Fe
DOCKED: ENDROOT
DOCKED: BRANCH   6  30
DOCKED: ATOM     30  C   UNL d   1      -8.454 -14.865  12.587 -0.12 +0.02    +0.052 C 
DOCKED: BRANCH  30  31
DOCKED: ATOM     31  C   UNL d   1      -7.593 -16.114  12.747 -0.13 +0.05    +0.115 C 
DOCKED: BRANCH  31  32
DOCKED: ATOM     32  C   UNL d   1      -8.121 -17.230  11.890 -0.14 +0.10    +0.139 C 
DOCKED: ATOM     33  O   UNL d   1      -7.623 -18.346  11.943 +0.03 -0.38    -0.650 OA
DOCKED: BRANCH  32  34
DOCKED: ATOM     34  O   UNL d   1      -9.150 -17.011  11.055 -0.38 -1.12    -0.776 OA
DOCKED: ATOM     35  H   UNL d   1      -9.168 -16.193  10.537 -0.47 +0.28    +0.167 HD
DOCKED: ENDBRANCH  32  34
DOCKED: ENDBRANCH  31  32
DOCKED: ENDBRANCH  30  31
DOCKED: ENDBRANCH   6  30
DOCKED: BRANCH  22  36
DOCKED: ATOM     36  C   UNL d   1      -5.703 -13.261   8.139 -0.29 +0.04    +0.052 C 
DOCKED: BRANCH  36  37
DOCKED: ATOM     37  C   UNL d   1      -5.403 -14.735   8.372 -0.15 +0.10    +0.115 C 
DOCKED: BRANCH  37  38
DOCKED: ATOM     38  C   UNL d   1      -6.652 -15.562   8.264 -0.16 +0.22    +0.139 C 
DOCKED: ATOM     39  O   UNL d   1      -6.998 -16.036   7.192 -0.57 -1.53    -0.650 OA
DOCKED: BRANCH  38  40
DOCKED: ATOM     40  O   UNL d   1      -7.405 -15.785   9.356 -0.15 -1.34    -0.776 OA
DOCKED: ATOM     41  H   UNL d   1      -7.414 -16.670   9.749 -0.01 +0.28    +0.167 HD
DOCKED: ENDBRANCH  38  40
DOCKED: ENDBRANCH  37  38
DOCKED: ENDBRANCH  36  37
DOCKED: ENDBRANCH  22  36
DOCKED: BRANCH  12  42
DOCKED: ATOM     42  C   UNL d   1      -4.777  -7.294  17.615 -0.14 -0.00    +0.004 C 
DOCKED: ATOM     43  C   UNL d   1      -4.562  -6.062  17.137 -0.22 -0.00    +0.012 C 
DOCKED: ENDBRANCH  12  42
DOCKED: BRANCH  17  44
DOCKED: ATOM     44  C   UNL d   1      -0.332  -8.135  11.040 -0.30 +0.00    +0.004 C 
DOCKED: ATOM     45  C   UNL d   1       0.167  -6.898  10.955 -0.32 +0.00    +0.012 C 
DOCKED: ENDBRANCH  17  44
DOCKED: TORSDOF 10
DOCKED: TER
DOCKED: ENDMDL
________________________________________________________________________________


	BEGINNING GENETIC ALGORITHM DOCKING 3 of 100
Run: 3 Seed: 30364570 1371320799 [ Run 3 of 100 GA/GALS ]
Beginning LAMARCKIAN GENETIC ALGORITHM (LGA), with a maximum of 25000000 energy evaluations.

Final-Value: -14.481


	FINAL GENETIC ALGORITHM DOCKED STATE
	_______________________________________________


Detailed state:  trans -5.341 -11.897 12.312 quatxyzw 0.613327 0.552396 -0.059442 0.561387 center -0.174 -0.001 -0.047 ntor 10 -130.4233 138.7910 -176.3138 48.4547 148.1872 77.2593 25.1555 4.0501 -27.7818 11.4856
State:	 -5.341 -11.897  12.312   0.741  0.668 -0.072 111.697   -130.42  138.79 -176.31   48.45  148.19   77.26   25.16    4.05  -27.78   11.49

DOCKED: MODEL        3
DOCKED: USER    Run = 3
DOCKED: USER    DPF = D:/Protein_go_brrr/autodock/final/AncB/heme_Fe/dock.dpf
DOCKED: USER  
DOCKED: USER    Estimated Free Energy of Binding    =  -10.53 kcal/mol  [=(1)+(2)+(3)-(4)]
DOCKED: USER    Estimated Inhibition Constant, Ki   =   19.27 nM (nanomolar)  [Temperature = 298.15 K]
DOCKED: USER    
DOCKED: USER    (1) Final Intermolecular Energy     =  -13.51 kcal/mol
DOCKED: USER        vdW + Hbond + desolv Energy     =   -8.94 kcal/mol
DOCKED: USER        Electrostatic Energy            =   -4.57 kcal/mol
DOCKED: USER    (2) Final Total Internal Energy     =   -0.97 kcal/mol
DOCKED: USER    (3) Torsional Free Energy           =   +2.98 kcal/mol
DOCKED: USER    (4) Unbound System's Energy  [=(2)] =   -0.97 kcal/mol
DOCKED: USER    
DOCKED: USER    
DOCKED: USER    NEWDPF move heme_Fe_opt.pdbqt
DOCKED: USER    NEWDPF about -0.174000 -0.001000 -0.047000
DOCKED: USER    NEWDPF tran0 -5.341148 -11.896651 12.311601
DOCKED: USER    NEWDPF quaternion0 0.613327 0.552396 -0.059442 0.561387
DOCKED: USER    NEWDPF axisangle0 0.741133 0.667505 -0.071828 111.696507
DOCKED: USER    NEWDPF quat0 0.741133 0.667505 -0.071828 111.696507
DOCKED: USER    NEWDPF dihe0 -130.42 138.79 -176.31 48.45 148.19 77.26 25.16 4.05 -27.78 11.49 
DOCKED: USER  keepresnum = 1 
DOCKED: USER  
DOCKED: REMARK  10 active torsions:
DOCKED: REMARK  status: ('A' for Active; 'I' for Inactive)
DOCKED: REMARK    1  A    between atoms: C_6  and  C_10 
DOCKED: REMARK    2  A    between atoms: C_10  and  C_11 
DOCKED: REMARK    3  A    between atoms: C_11  and  C_12 
DOCKED: REMARK    4  A    between atoms: C_12  and  O_14 
DOCKED: REMARK    5  A    between atoms: C_17  and  C_20 
DOCKED: REMARK    6  A    between atoms: C_24  and  C_27 
DOCKED: REMARK    7  A    between atoms: C_31  and  C_34 
DOCKED: REMARK    8  A    between atoms: C_34  and  C_35 
DOCKED: REMARK    9  A    between atoms: C_35  and  C_36 
DOCKED: REMARK   10  A    between atoms: C_36  and  O_38 
DOCKED: USER                              x       y       z     vdW  Elec       q    Type
DOCKED: USER                           _______ _______ _______ _____ _____    ______ ____
DOCKED: ROOT
DOCKED: ATOM      1  C   UNL d   1      -6.504 -13.054  11.079 -0.29 +0.04    +0.064 C 
DOCKED: ATOM      2  C   UNL d   1      -7.003 -11.256  15.656 -0.15 +0.03    +0.064 A 
DOCKED: ATOM      3  C   UNL d   1      -3.351  -8.257  14.802 -0.17 +0.02    +0.064 C 
DOCKED: ATOM      4  C   UNL d   1      -2.782 -10.055  10.406 -0.30 +0.02    +0.064 C 
DOCKED: ATOM      5  C   UNL d   1      -6.929 -12.884  12.475 -0.28 +0.03    +0.066 A 
DOCKED: ATOM      6  C   UNL d   1      -7.887 -13.658  13.110 -0.30 -0.01    -0.021 A 
DOCKED: ATOM      7  C   UNL d   1      -8.028 -13.155  14.380 -0.23 -0.01    -0.025 A 
DOCKED: ATOM      8  C   UNL d   1      -7.149 -12.094  14.472 -0.21 +0.03    +0.066 A 
DOCKED: ATOM      9  C   UNL d   1      -8.942 -13.684  15.442 -0.17 +0.02    +0.051 C 
DOCKED: ATOM     10  C   UNL d   1      -6.123 -10.263  15.791 -0.12 +0.04    +0.066 A 
DOCKED: ATOM     11  C   UNL d   1      -6.085  -9.406  16.893 -0.14 -0.01    -0.021 A 
DOCKED: ATOM     12  C   UNL d   1      -5.051  -8.520  16.664 -0.16 +0.00    +0.000 A 
DOCKED: ATOM     13  C   UNL d   1      -4.511  -8.882  15.417 -0.13 +0.03    +0.070 A 
DOCKED: ATOM     14  C   UNL d   1      -7.032  -9.387  18.076 -0.10 +0.01    +0.052 C 
DOCKED: ATOM     15  C   UNL d   1      -2.860  -8.566  13.579 -0.08 +0.02    +0.066 A 
DOCKED: ATOM     16  C   UNL d   1      -1.690  -8.016  13.069 -0.22 -0.00    -0.021 A 
DOCKED: ATOM     17  C   UNL d   1      -1.526  -8.531  11.800 -0.27 +0.00    +0.000 A 
DOCKED: ATOM     18  C   UNL d   1      -2.604  -9.381  11.563 -0.21 +0.02    +0.070 A 
DOCKED: ATOM     19  C   UNL d   1      -0.775  -7.026  13.737 -0.25 +0.00    +0.052 C 
DOCKED: ATOM     20  C   UNL d   1      -3.870 -11.005  10.143 -0.22 +0.02    +0.066 A 
DOCKED: ATOM     21  C   UNL d   1      -4.181 -11.554   8.891 -0.23 -0.01    -0.025 A 
DOCKED: ATOM     22  C   UNL d   1      -5.237 -12.415   9.109 -0.25 -0.01    -0.021 A 
DOCKED: ATOM     23  C   UNL d   1      -5.530 -12.354  10.476 -0.22 +0.03    +0.066 A 
DOCKED: ATOM     24  C   UNL d   1      -3.529 -11.285   7.555 -0.30 +0.02    +0.051 C 
DOCKED: ATOM     25  N   UNL d   1      -6.475 -11.937  13.315 -0.16 -0.14    -0.248 N 
DOCKED: ATOM     26  N   UNL d   1      -5.170  -9.938  14.880 -0.09 -0.16    -0.248 N 
DOCKED: ATOM     27  N   UNL d   1      -3.401  -9.438  12.672 -0.09 -0.09    -0.248 N 
DOCKED: ATOM     28  N   UNL d   1      -4.722 -11.458  11.094 -0.13 -0.11    -0.248 N 
DOCKED: ATOM     29 FE   UNL d   1      -4.945 -10.698  12.986 -0.05 +0.00    +0.000 Fe
DOCKED: ENDROOT
DOCKED: BRANCH   6  30
DOCKED: ATOM     30  C   UNL d   1      -8.618 -14.829  12.548 +0.00 +0.02    +0.052 C 
DOCKED: BRANCH  30  31
DOCKED: ATOM     31  C   UNL d   1      -7.647 -15.946  12.180 -0.16 +0.06    +0.115 C 
DOCKED: BRANCH  31  32
DOCKED: ATOM     32  C   UNL d   1      -8.232 -16.818  11.104 +0.02 +0.15    +0.139 C 
DOCKED: ATOM     33  O   UNL d   1      -7.510 -17.359  10.278 -0.06 -0.84    -0.650 OA
DOCKED: BRANCH  32  34
DOCKED: ATOM     34  O   UNL d   1      -9.560 -17.012  11.041 -0.48 -1.22    -0.776 OA
DOCKED: ATOM     35  H   UNL d   1     -10.149 -16.245  11.072 -0.55 +0.21    +0.167 HD
DOCKED: ENDBRANCH  32  34
DOCKED: ENDBRANCH  31  32
DOCKED: ENDBRANCH  30  31
DOCKED: ENDBRANCH   6  30
DOCKED: BRANCH  22  36
DOCKED: ATOM     36  C   UNL d   1      -5.953 -13.214   8.051 -0.31 +0.04    +0.052 C 
DOCKED: BRANCH  36  37
DOCKED: ATOM     37  C   UNL d   1      -5.599 -14.687   8.194 -0.18 +0.11    +0.115 C 
DOCKED: BRANCH  37  38
DOCKED: ATOM     38  C   UNL d   1      -6.237 -15.502   7.104 -0.18 +0.24    +0.139 C 
DOCKED: ATOM     39  O   UNL d   1      -5.772 -15.507   5.974 -0.38 -1.48    -0.650 OA
DOCKED: BRANCH  38  40
DOCKED: ATOM     40  O   UNL d   1      -7.334 -16.234   7.368 -0.44 -2.15    -0.776 OA
DOCKED: ATOM     41  H   UNL d   1      -7.381 -16.728   8.198 +0.03 +0.49    +0.167 HD
DOCKED: ENDBRANCH  38  40
DOCKED: ENDBRANCH  37  38
DOCKED: ENDBRANCH  36  37
DOCKED: ENDBRANCH  22  36
DOCKED: BRANCH  12  42
DOCKED: ATOM     42  C   UNL d   1      -4.652  -7.412  17.585 -0.13 -0.00    +0.004 C 
DOCKED: ATOM     43  C   UNL d   1      -4.518  -6.157  17.136 -0.22 -0.00    +0.012 C 
DOCKED: ENDBRANCH  12  42
DOCKED: BRANCH  17  44
DOCKED: ATOM     44  C   UNL d   1      -0.401  -8.244  10.882 -0.23 +0.00    +0.004 C 
DOCKED: ATOM     45  C   UNL d   1       0.590  -9.126  10.716 -0.14 +0.00    +0.012 C 
DOCKED: ENDBRANCH  17  44
DOCKED: TORSDOF 10
DOCKED: TER
DOCKED: ENDMDL
________________________________________________________________________________


	BEGINNING GENETIC ALGORITHM DOCKING 4 of 100
Run: 4 Seed: 689940795 620809161 [ Run 4 of 100 GA/GALS ]
Beginning LAMARCKIAN GENETIC ALGORITHM (LGA), with a maximum of 25000000 energy evaluations.

Final-Value: -14.772


	FINAL GENETIC ALGORITHM DOCKED STATE
	_______________________________________________


Detailed state:  trans -5.621 -11.050 11.977 quatxyzw -0.605412 -0.006957 -0.448000 0.657818 center -0.174 -0.001 -0.047 ntor 10 148.1635 -105.2991 47.9001 52.1909 77.8238 118.0308 -31.4474 58.7205 -165.8950 -177.7839
State:	 -5.621 -11.050  11.977  -0.804 -0.009 -0.595 97.733    148.16 -105.30   47.90   52.19   77.82  118.03  -31.45   58.72 -165.90 -177.78

DOCKED: MODEL        4
DOCKED: USER    Run = 4
DOCKED: USER    DPF = D:/Protein_go_brrr/autodock/final/AncB/heme_Fe/dock.dpf
DOCKED: USER  
DOCKED: USER    Estimated Free Energy of Binding    =   -9.79 kcal/mol  [=(1)+(2)+(3)-(4)]
DOCKED: USER    Estimated Inhibition Constant, Ki   =   66.86 nM (nanomolar)  [Temperature = 298.15 K]
DOCKED: USER    
DOCKED: USER    (1) Final Intermolecular Energy     =  -12.77 kcal/mol
DOCKED: USER        vdW + Hbond + desolv Energy     =   -8.92 kcal/mol
DOCKED: USER        Electrostatic Energy            =   -3.86 kcal/mol
DOCKED: USER    (2) Final Total Internal Energy     =   -2.00 kcal/mol
DOCKED: USER    (3) Torsional Free Energy           =   +2.98 kcal/mol
DOCKED: USER    (4) Unbound System's Energy  [=(2)] =   -2.00 kcal/mol
DOCKED: USER    
DOCKED: USER    
DOCKED: USER    NEWDPF move heme_Fe_opt.pdbqt
DOCKED: USER    NEWDPF about -0.174000 -0.001000 -0.047000
DOCKED: USER    NEWDPF tran0 -5.620878 -11.050075 11.977462
DOCKED: USER    NEWDPF quaternion0 -0.605412 -0.006957 -0.448000 0.657818
DOCKED: USER    NEWDPF axisangle0 -0.803811 -0.009237 -0.594813 97.732712
DOCKED: USER    NEWDPF quat0 -0.803811 -0.009237 -0.594813 97.732712
DOCKED: USER    NEWDPF dihe0 148.16 -105.30 47.90 52.19 77.82 118.03 -31.45 58.72 -165.90 -177.78 
DOCKED: USER  keepresnum = 1 
DOCKED: USER  
DOCKED: REMARK  10 active torsions:
DOCKED: REMARK  status: ('A' for Active; 'I' for Inactive)
DOCKED: REMARK    1  A    between atoms: C_6  and  C_10 
DOCKED: REMARK    2  A    between atoms: C_10  and  C_11 
DOCKED: REMARK    3  A    between atoms: C_11  and  C_12 
DOCKED: REMARK    4  A    between atoms: C_12  and  O_14 
DOCKED: REMARK    5  A    between atoms: C_17  and  C_20 
DOCKED: REMARK    6  A    between atoms: C_24  and  C_27 
DOCKED: REMARK    7  A    between atoms: C_31  and  C_34 
DOCKED: REMARK    8  A    between atoms: C_34  and  C_35 
DOCKED: REMARK    9  A    between atoms: C_35  and  C_36 
DOCKED: REMARK   10  A    between atoms: C_36  and  O_38 
DOCKED: USER                              x       y       z     vdW  Elec       q    Type
DOCKED: USER                           _______ _______ _______ _____ _____    ______ ____
DOCKED: ROOT
DOCKED: ATOM      1  C   UNL d   1      -6.479 -12.647  11.016 -0.28 +0.04    +0.064 C 
DOCKED: ATOM      2  C   UNL d   1      -2.468  -9.863  10.242 -0.28 +0.01    +0.064 A 
DOCKED: ATOM      3  C   UNL d   1      -2.860  -8.177  14.722 -0.19 +0.01    +0.064 C 
DOCKED: ATOM      4  C   UNL d   1      -6.804 -10.783  15.456 -0.18 +0.04    +0.064 C 
DOCKED: ATOM      5  C   UNL d   1      -5.363 -11.957  10.354 -0.23 +0.03    +0.066 A 
DOCKED: ATOM      6  C   UNL d   1      -5.019 -12.107   9.021 -0.25 -0.01    -0.021 A 
DOCKED: ATOM      7  C   UNL d   1      -3.903 -11.336   8.808 -0.23 -0.01    -0.025 A 
DOCKED: ATOM      8  C   UNL d   1      -3.608 -10.745  10.021 -0.24 +0.02    +0.066 A 
DOCKED: ATOM      9  C   UNL d   1      -3.180 -11.169   7.506 -0.33 +0.02    +0.051 C 
DOCKED: ATOM     10  C   UNL d   1      -2.194  -9.235  11.387 -0.24 +0.02    +0.066 A 
DOCKED: ATOM     11  C   UNL d   1      -1.033  -8.488  11.602 -0.25 -0.00    -0.021 A 
DOCKED: ATOM     12  C   UNL d   1      -1.114  -8.005  12.893 -0.22 +0.00    +0.000 A 
DOCKED: ATOM     13  C   UNL d   1      -2.328  -8.493  13.406 -0.15 +0.02    +0.070 A 
DOCKED: ATOM     14  C   UNL d   1       0.129  -8.301  10.649 -0.11 +0.01    +0.052 C 
DOCKED: ATOM     15  C   UNL d   1      -4.003  -8.686  15.240 -0.13 +0.02    +0.066 A 
DOCKED: ATOM     16  C   UNL d   1      -4.528  -8.282  16.461 -0.16 -0.00    -0.021 A 
DOCKED: ATOM     17  C   UNL d   1      -5.664  -9.035  16.676 -0.15 +0.00    +0.000 A 
DOCKED: ATOM     18  C   UNL d   1      -5.802  -9.885  15.582 -0.08 +0.05    +0.070 A 
DOCKED: ATOM     19  C   UNL d   1      -3.972  -7.248  17.403 -0.11 -0.00    +0.052 C 
DOCKED: ATOM     20  C   UNL d   1      -7.016 -11.650  14.291 -0.24 +0.04    +0.066 A 
DOCKED: ATOM     21  C   UNL d   1      -7.923 -12.718  14.231 -0.27 -0.01    -0.025 A 
DOCKED: ATOM     22  C   UNL d   1      -7.823 -13.227  12.953 -0.34 -0.01    -0.021 A 
DOCKED: ATOM     23  C   UNL d   1      -6.860 -12.458  12.289 -0.31 +0.04    +0.066 A 
DOCKED: ATOM     24  C   UNL d   1      -8.836 -13.243  15.315 -0.20 +0.02    +0.051 C 
DOCKED: ATOM     25  N   UNL d   1      -4.503 -11.117  10.958 -0.15 -0.10    -0.248 N 
DOCKED: ATOM     26  N   UNL d   1      -2.983  -9.250  12.492 -0.12 -0.08    -0.248 N 
DOCKED: ATOM     27  N   UNL d   1      -4.807  -9.641  14.678 -0.09 -0.15    -0.248 N 
DOCKED: ATOM     28  N   UNL d   1      -6.339 -11.526  13.124 -0.18 -0.16    -0.248 N 
DOCKED: ATOM     29 FE   UNL d   1      -4.662 -10.388  12.810 -0.05 +0.00    +0.000 Fe
DOCKED: ENDROOT
DOCKED: BRANCH   6  30
DOCKED: ATOM     30  C   UNL d   1      -5.726 -12.923   7.994 -0.32 +0.04    +0.052 C 
DOCKED: BRANCH  30  31
DOCKED: ATOM     31  C   UNL d   1      -5.414 -14.405   8.173 -0.17 +0.10    +0.115 C 
DOCKED: BRANCH  31  32
DOCKED: ATOM     32  C   UNL d   1      -6.585 -15.244   7.745 -0.23 +0.22    +0.139 C 
DOCKED: ATOM     33  O   UNL d   1      -6.809 -15.444   6.559 -0.38 -1.61    -0.650 OA
DOCKED: BRANCH  32  34
DOCKED: ATOM     34  O   UNL d   1      -7.400 -15.785   8.666 -0.28 -1.78    -0.776 OA
DOCKED: ATOM     35  H   UNL d   1      -7.033 -16.043   9.524 +0.01 +0.24    +0.167 HD
DOCKED: ENDBRANCH  32  34
DOCKED: ENDBRANCH  31  32
DOCKED: ENDBRANCH  30  31
DOCKED: ENDBRANCH   6  30
DOCKED: BRANCH  22  36
DOCKED: ATOM     36  C   UNL d   1      -8.576 -14.416  12.418 +0.06 +0.02    +0.052 C 
DOCKED: BRANCH  36  37
DOCKED: ATOM     37  C   UNL d   1      -7.891 -15.700  12.864 -0.17 +0.05    +0.115 C 
DOCKED: BRANCH  37  38
DOCKED: ATOM     38  C   UNL d   1      -7.495 -16.538  11.681 -0.14 +0.09    +0.139 C 
DOCKED: ATOM     39  O   UNL d   1      -6.320 -16.797  11.464 +0.03 -0.37    -0.650 OA
DOCKED: BRANCH  38  40
DOCKED: ATOM     40  O   UNL d   1      -8.438 -17.008  10.845 -0.14 -1.07    -0.776 OA
DOCKED: ATOM     41  H   UNL d   1      -8.861 -16.399  10.224 -0.43 +0.38    +0.167 HD
DOCKED: ENDBRANCH  38  40
DOCKED: ENDBRANCH  37  38
DOCKED: ENDBRANCH  36  37
DOCKED: ENDBRANCH  22  36
DOCKED: BRANCH  12  42
DOCKED: ATOM     42  C   UNL d   1      -0.075  -7.157  13.556 -0.22 +0.00    +0.004 C 
DOCKED: ATOM     43  C   UNL d   1      -0.183  -5.822  13.573 -0.39 -0.00    +0.012 C 
DOCKED: ENDBRANCH  12  42
DOCKED: BRANCH  17  44
DOCKED: ATOM     44  C   UNL d   1      -6.568  -8.933  17.844 -0.14 +0.00    +0.004 C 
DOCKED: ATOM     45  C   UNL d   1      -7.770  -8.359  17.731 -0.23 -0.00    +0.012 C 
DOCKED: ENDBRANCH  17  44
DOCKED: TORSDOF 10
DOCKED: TER
DOCKED: ENDMDL
________________________________________________________________________________


	BEGINNING GENETIC ALGORITHM DOCKING 5 of 100
Run: 5 Seed: 1149197888 503467877 [ Run 5 of 100 GA/GALS ]
Beginning LAMARCKIAN GENETIC ALGORITHM (LGA), with a maximum of 25000000 energy evaluations.

Final-Value: -19.019


	FINAL GENETIC ALGORITHM DOCKED STATE
	_______________________________________________


Detailed state:  trans -0.059 -1.619 -9.351 quatxyzw -0.581778 -0.378400 -0.468970 -0.546274 center -0.174 -0.001 -0.047 ntor 10 -31.4934 -180.0000 76.3120 -112.8474 -4.2461 -89.4324 -54.5402 5.6694 -172.4129 159.7881
State:	 -0.059  -1.619  -9.351  -0.695 -0.452 -0.560 -113.776    -31.49 -180.00   76.31 -112.85   -4.25  -89.43  -54.54    5.67 -172.41  159.79

DOCKED: MODEL        5
DOCKED: USER    Run = 5
DOCKED: USER    DPF = D:/Protein_go_brrr/autodock/final/AncB/heme_Fe/dock.dpf
DOCKED: USER  
DOCKED: USER    Estimated Free Energy of Binding    =  -13.90 kcal/mol  [=(1)+(2)+(3)-(4)]
DOCKED: USER    Estimated Inhibition Constant, Ki   =   64.64 pM (picomolar)  [Temperature = 298.15 K]
DOCKED: USER    
DOCKED: USER    (1) Final Intermolecular Energy     =  -16.88 kcal/mol
DOCKED: USER        vdW + Hbond + desolv Energy     =  -13.80 kcal/mol
DOCKED: USER        Electrostatic Energy            =   -3.09 kcal/mol
DOCKED: USER    (2) Final Total Internal Energy     =   -2.14 kcal/mol
DOCKED: USER    (3) Torsional Free Energy           =   +2.98 kcal/mol
DOCKED: USER    (4) Unbound System's Energy  [=(2)] =   -2.14 kcal/mol
DOCKED: USER    
DOCKED: USER    
DOCKED: USER    NEWDPF move heme_Fe_opt.pdbqt
DOCKED: USER    NEWDPF about -0.174000 -0.001000 -0.047000
DOCKED: USER    NEWDPF tran0 -0.059006 -1.619283 -9.350510
DOCKED: USER    NEWDPF quaternion0 -0.581778 -0.378400 -0.468970 -0.546274
DOCKED: USER    NEWDPF axisangle0 -0.694572 -0.451764 -0.559893 -113.776476
DOCKED: USER    NEWDPF quat0 -0.694572 -0.451764 -0.559893 -113.776476
DOCKED: USER    NEWDPF dihe0 -31.49 -180.00 76.31 -112.85 -4.25 -89.43 -54.54 5.67 -172.41 159.79 
DOCKED: USER  keepresnum = 1 
DOCKED: USER  
DOCKED: REMARK  10 active torsions:
DOCKED: REMARK  status: ('A' for Active; 'I' for Inactive)
DOCKED: REMARK    1  A    between atoms: C_6  and  C_10 
DOCKED: REMARK    2  A    between atoms: C_10  and  C_11 
DOCKED: REMARK    3  A    between atoms: C_11  and  C_12 
DOCKED: REMARK    4  A    between atoms: C_12  and  O_14 
DOCKED: REMARK    5  A    between atoms: C_17  and  C_20 
DOCKED: REMARK    6  A    between atoms: C_24  and  C_27 
DOCKED: REMARK    7  A    between atoms: C_31  and  C_34 
DOCKED: REMARK    8  A    between atoms: C_34  and  C_35 
DOCKED: REMARK    9  A    between atoms: C_35  and  C_36 
DOCKED: REMARK   10  A    between atoms: C_36  and  O_38 
DOCKED: USER                              x       y       z     vdW  Elec       q    Type
DOCKED: USER                           _______ _______ _______ _____ _____    ______ ____
DOCKED: ROOT
DOCKED: ATOM      1  C   UNL d   1      -0.587  -0.943 -11.214 -0.19 +0.05    +0.064 C 
DOCKED: ATOM      2  C   UNL d   1      -2.781  -1.010  -6.786 -0.40 +0.02    +0.064 A 
DOCKED: ATOM      3  C   UNL d   1       1.465  -2.007  -4.775 -0.42 +0.01    +0.064 C 
DOCKED: ATOM      4  C   UNL d   1       3.588  -2.051  -9.061 -0.52 +0.02    +0.064 C 
DOCKED: ATOM      5  C   UNL d   1      -1.614  -0.952 -10.163 -0.31 +0.05    +0.066 A 
DOCKED: ATOM      6  C   UNL d   1      -2.974  -0.810 -10.385 -0.29 -0.02    -0.021 A 
DOCKED: ATOM      7  C   UNL d   1      -3.582  -0.825  -9.154 -0.30 -0.01    -0.025 A 
DOCKED: ATOM      8  C   UNL d   1      -2.568  -0.976  -8.227 -0.35 +0.03    +0.066 A 
DOCKED: ATOM      9  C   UNL d   1      -5.053  -0.720  -8.895 -0.30 +0.02    +0.051 C 
DOCKED: ATOM     10  C   UNL d   1      -1.828  -1.211  -5.874 -0.40 +0.02    +0.066 A 
DOCKED: ATOM     11  C   UNL d   1      -2.043  -1.124  -4.496 -0.43 -0.00    -0.021 A 
DOCKED: ATOM     12  C   UNL d   1      -0.830  -1.391  -3.894 -0.36 +0.00    +0.000 A 
DOCKED: ATOM     13  C   UNL d   1       0.073  -1.621  -4.946 -0.38 +0.02    +0.070 A 
DOCKED: ATOM     14  C   UNL d   1      -3.327  -0.738  -3.789 -0.57 +0.01    +0.052 C 
DOCKED: ATOM     15  C   UNL d   1       2.352  -2.179  -5.783 -0.39 +0.02    +0.066 A 
DOCKED: ATOM     16  C   UNL d   1       3.646  -2.645  -5.585 -0.48 -0.00    -0.021 A 
DOCKED: ATOM     17  C   UNL d   1       4.261  -2.655  -6.819 -0.50 +0.00    +0.000 A 
DOCKED: ATOM     18  C   UNL d   1       3.328  -2.191  -7.743 -0.42 +0.02    +0.070 A 
DOCKED: ATOM     19  C   UNL d   1       4.289  -3.042  -4.283 -0.63 +0.01    +0.052 C 
DOCKED: ATOM     20  C   UNL d   1       2.613  -1.624 -10.072 -0.44 +0.02    +0.066 A 
DOCKED: ATOM     21  C   UNL d   1       2.917  -1.285 -11.398 -0.44 -0.01    -0.025 A 
DOCKED: ATOM     22  C   UNL d   1       1.711  -0.984 -11.997 -0.28 -0.01    -0.021 A 
DOCKED: ATOM     23  C   UNL d   1       0.725  -1.145 -11.016 -0.09 +0.04    +0.066 A 
DOCKED: ATOM     24  C   UNL d   1       4.268  -1.238 -12.074 -0.51 +0.01    +0.051 C 
DOCKED: ATOM     25  N   UNL d   1      -1.373  -1.062  -8.845 -0.24 -0.12    -0.248 N 
DOCKED: ATOM     26  N   UNL d   1      -0.532  -1.503  -6.153 -0.25 -0.08    -0.248 N 
DOCKED: ATOM     27  N   UNL d   1       2.140  -1.939  -7.114 -0.19 -0.10    -0.248 N 
DOCKED: ATOM     28  N   UNL d   1       1.286  -1.492  -9.832 -0.26 -0.12    -0.248 N 
DOCKED: ATOM     29 FE   UNL d   1       0.379  -1.498  -7.993 -0.09 +0.00    +0.000 Fe
DOCKED: ENDROOT
DOCKED: BRANCH   6  30
DOCKED: ATOM     30  C   UNL d   1      -3.665  -0.688 -11.699 -0.04 +0.09    +0.052 C 
DOCKED: BRANCH  30  31
DOCKED: ATOM     31  C   UNL d   1      -3.631   0.753 -12.196 -0.22 +0.15    +0.115 C 
DOCKED: BRANCH  31  32
DOCKED: ATOM     32  C   UNL d   1      -3.042   0.818 -13.578 -0.17 +0.22    +0.139 C 
DOCKED: ATOM     33  O   UNL d   1      -2.598  -0.187 -14.115 -0.09 -1.47    -0.650 OA
DOCKED: BRANCH  32  34
DOCKED: ATOM     34  O   UNL d   1      -2.999   1.988 -14.239 -0.38 -1.59    -0.776 OA
DOCKED: ATOM     35  H   UNL d   1      -2.273   2.152 -14.857 +0.02 +0.29    +0.167 HD
DOCKED: ENDBRANCH  32  34
DOCKED: ENDBRANCH  31  32
DOCKED: ENDBRANCH  30  31
DOCKED: ENDBRANCH   6  30
DOCKED: BRANCH  22  36
DOCKED: ATOM     36  C   UNL d   1       1.526  -0.521 -13.418 -0.27 +0.03    +0.052 C 
DOCKED: BRANCH  36  37
DOCKED: ATOM     37  C   UNL d   1       1.267   0.978 -13.439 -0.14 +0.07    +0.115 C 
DOCKED: BRANCH  37  38
DOCKED: ATOM     38  C   UNL d   1       0.961   1.452 -14.832 -0.14 +0.09    +0.139 C 
DOCKED: ATOM     39  O   UNL d   1       1.857   1.815 -15.580 +0.05 -0.35    -0.650 OA
DOCKED: BRANCH  38  40
DOCKED: ATOM     40  O   UNL d   1      -0.311   1.483 -15.266 +0.08 -0.69    -0.776 OA
DOCKED: ATOM     41  H   UNL d   1      -1.018   1.194 -14.672 +0.04 +0.18    +0.167 HD
DOCKED: ENDBRANCH  38  40
DOCKED: ENDBRANCH  37  38
DOCKED: ENDBRANCH  36  37
DOCKED: ENDBRANCH  22  36
DOCKED: BRANCH  12  42
DOCKED: ATOM     42  C   UNL d   1      -0.590  -1.397  -2.418 -0.46 +0.00    +0.004 C 
DOCKED: ATOM     43  C   UNL d   1      -0.079  -2.474  -1.807 -0.56 +0.00    +0.012 C 
DOCKED: ENDBRANCH  12  42
DOCKED: BRANCH  17  44
DOCKED: ATOM     44  C   UNL d   1       5.645  -3.100  -7.100 -0.47 +0.00    +0.004 C 
DOCKED: ATOM     45  C   UNL d   1       6.687  -2.513  -6.502 -0.61 +0.00    +0.012 C 
DOCKED: ENDBRANCH  17  44
DOCKED: TORSDOF 10
DOCKED: TER
DOCKED: ENDMDL
________________________________________________________________________________


	BEGINNING GENETIC ALGORITHM DOCKING 6 of 100
Run: 6 Seed: 191600310 1801154004 [ Run 6 of 100 GA/GALS ]
Beginning LAMARCKIAN GENETIC ALGORITHM (LGA), with a maximum of 25000000 energy evaluations.

Final-Value: -14.320


	FINAL GENETIC ALGORITHM DOCKED STATE
	_______________________________________________


Detailed state:  trans -4.929 -11.387 12.164 quatxyzw -0.629704 -0.544831 0.030795 -0.552887 center -0.174 -0.001 -0.047 ntor 10 126.3575 145.9910 -166.2951 -105.1803 -101.4123 32.3688 16.4559 -6.4129 0.4742 34.8894
State:	 -4.929 -11.387  12.164  -0.756 -0.654  0.037 -112.869    126.36  145.99 -166.30 -105.18 -101.41   32.37   16.46   -6.41    0.47   34.89

DOCKED: MODEL        6
DOCKED: USER    Run = 6
DOCKED: USER    DPF = D:/Protein_go_brrr/autodock/final/AncB/heme_Fe/dock.dpf
DOCKED: USER  
DOCKED: USER    Estimated Free Energy of Binding    =   -9.89 kcal/mol  [=(1)+(2)+(3)-(4)]
DOCKED: USER    Estimated Inhibition Constant, Ki   =   55.93 nM (nanomolar)  [Temperature = 298.15 K]
DOCKED: USER    
DOCKED: USER    (1) Final Intermolecular Energy     =  -12.88 kcal/mol
DOCKED: USER        vdW + Hbond + desolv Energy     =   -8.86 kcal/mol
DOCKED: USER        Electrostatic Energy            =   -4.02 kcal/mol
DOCKED: USER    (2) Final Total Internal Energy     =   -1.44 kcal/mol
DOCKED: USER    (3) Torsional Free Energy           =   +2.98 kcal/mol
DOCKED: USER    (4) Unbound System's Energy  [=(2)] =   -1.44 kcal/mol
DOCKED: USER    
DOCKED: USER    
DOCKED: USER    NEWDPF move heme_Fe_opt.pdbqt
DOCKED: USER    NEWDPF about -0.174000 -0.001000 -0.047000
DOCKED: USER    NEWDPF tran0 -4.929129 -11.386931 12.163952
DOCKED: USER    NEWDPF quaternion0 -0.629704 -0.544831 0.030795 -0.552887
DOCKED: USER    NEWDPF axisangle0 -0.755715 -0.653857 0.036957 -112.869379
DOCKED: USER    NEWDPF quat0 -0.755715 -0.653857 0.036957 -112.869379
DOCKED: USER    NEWDPF dihe0 126.36 145.99 -166.30 -105.18 -101.41 32.37 16.46 -6.41 0.47 34.89 
DOCKED: USER  keepresnum = 1 
DOCKED: USER  
DOCKED: REMARK  10 active torsions:
DOCKED: REMARK  status: ('A' for Active; 'I' for Inactive)
DOCKED: REMARK    1  A    between atoms: C_6  and  C_10 
DOCKED: REMARK    2  A    between atoms: C_10  and  C_11 
DOCKED: REMARK    3  A    between atoms: C_11  and  C_12 
DOCKED: REMARK    4  A    between atoms: C_12  and  O_14 
DOCKED: REMARK    5  A    between atoms: C_17  and  C_20 
DOCKED: REMARK    6  A    between atoms: C_24  and  C_27 
DOCKED: REMARK    7  A    between atoms: C_31  and  C_34 
DOCKED: REMARK    8  A    between atoms: C_34  and  C_35 
DOCKED: REMARK    9  A    between atoms: C_35  and  C_36 
DOCKED: REMARK   10  A    between atoms: C_36  and  O_38 
DOCKED: USER                              x       y       z     vdW  Elec       q    Type
DOCKED: USER                           _______ _______ _______ _____ _____    ______ ____
DOCKED: ROOT
DOCKED: ATOM      1  C   UNL d   1      -6.110 -12.473  10.885 -0.28 +0.04    +0.064 C 
DOCKED: ATOM      2  C   UNL d   1      -6.677 -10.653  15.445 -0.14 +0.04    +0.064 A 
DOCKED: ATOM      3  C   UNL d   1      -2.826  -7.872  14.739 -0.20 +0.01    +0.064 C 
DOCKED: ATOM      4  C   UNL d   1      -2.196  -9.696  10.362 -0.31 +0.01    +0.064 C 
DOCKED: ATOM      5  C   UNL d   1      -6.577 -12.280  12.264 -0.29 +0.04    +0.066 A 
DOCKED: ATOM      6  C   UNL d   1      -7.602 -12.997  12.860 -0.34 -0.01    -0.021 A 
DOCKED: ATOM      7  C   UNL d   1      -7.761 -12.488  14.125 -0.29 -0.01    -0.025 A 
DOCKED: ATOM      8  C   UNL d   1      -6.826 -11.479  14.253 -0.23 +0.04    +0.066 A 
DOCKED: ATOM      9  C   UNL d   1      -8.745 -12.963  15.150 -0.22 +0.02    +0.051 C 
DOCKED: ATOM     10  C   UNL d   1      -5.746  -9.713  15.616 -0.06 +0.05    +0.066 A 
DOCKED: ATOM     11  C   UNL d   1      -5.700  -8.860  16.722 -0.15 -0.01    -0.021 A 
DOCKED: ATOM     12  C   UNL d   1      -4.608  -8.037  16.534 -0.17 +0.00    +0.000 A 
DOCKED: ATOM     13  C   UNL d   1      -4.043  -8.428  15.307 -0.13 +0.02    +0.070 A 
DOCKED: ATOM     14  C   UNL d   1      -6.688  -8.787  17.868 -0.14 +0.00    +0.052 C 
DOCKED: ATOM     15  C   UNL d   1      -2.307  -8.209  13.535 -0.15 +0.01    +0.066 A 
DOCKED: ATOM     16  C   UNL d   1      -1.089  -7.728  13.071 -0.22 -0.00    -0.021 A 
DOCKED: ATOM     17  C   UNL d   1      -0.907  -8.250  11.808 -0.27 +0.00    +0.000 A 
DOCKED: ATOM     18  C   UNL d   1      -2.023  -9.036  11.527 -0.23 +0.02    +0.070 A 
DOCKED: ATOM     19  C   UNL d   1      -0.143  -6.793  13.776 -0.23 +0.00    +0.052 C 
DOCKED: ATOM     20  C   UNL d   1      -3.327 -10.581  10.056 -0.25 +0.02    +0.066 A 
DOCKED: ATOM     21  C   UNL d   1      -3.622 -11.110   8.791 -0.23 -0.01    -0.025 A 
DOCKED: ATOM     22  C   UNL d   1      -4.733 -11.908   8.966 -0.24 -0.01    -0.021 A 
DOCKED: ATOM     23  C   UNL d   1      -5.075 -11.830  10.321 -0.22 +0.03    +0.066 A 
DOCKED: ATOM     24  C   UNL d   1      -2.905 -10.879   7.481 -0.36 +0.01    +0.051 C 
DOCKED: ATOM     25  N   UNL d   1      -6.101 -11.362  13.123 -0.17 -0.16    -0.248 N 
DOCKED: ATOM     26  N   UNL d   1      -4.742  -9.444  14.743 -0.08 -0.15    -0.248 N 
DOCKED: ATOM     27  N   UNL d   1      -2.863  -9.046  12.605 -0.09 -0.08    -0.248 N 
DOCKED: ATOM     28  N   UNL d   1      -4.240 -10.984  10.972 -0.14 -0.10    -0.248 N 
DOCKED: ATOM     29 FE   UNL d   1      -4.490 -10.214  12.856 -0.05 +0.00    +0.000 Fe
DOCKED: ENDROOT
DOCKED: BRANCH   6  30
DOCKED: ATOM     30  C   UNL d   1      -8.378 -14.122  12.267 -0.11 +0.02    +0.052 C 
DOCKED: BRANCH  30  31
DOCKED: ATOM     31  C   UNL d   1      -7.705 -15.458  12.563 -0.18 +0.05    +0.115 C 
DOCKED: BRANCH  31  32
DOCKED: ATOM     32  C   UNL d   1      -8.239 -16.530  11.654 -0.08 +0.11    +0.139 C 
DOCKED: ATOM     33  O   UNL d   1      -9.069 -17.332  12.056 -0.10 -0.50    -0.650 OA
DOCKED: BRANCH  32  34
DOCKED: ATOM     34  O   UNL d   1      -7.805 -16.615  10.385 -0.02 -1.09    -0.776 OA
DOCKED: ATOM     35  H   UNL d   1      -7.854 -15.832   9.818 -0.20 +0.27    +0.167 HD
DOCKED: ENDBRANCH  32  34
DOCKED: ENDBRANCH  31  32
DOCKED: ENDBRANCH  30  31
DOCKED: ENDBRANCH   6  30
DOCKED: BRANCH  22  36
DOCKED: ATOM     36  C   UNL d   1      -5.454 -12.663   7.880 -0.31 +0.03    +0.052 C 
DOCKED: BRANCH  36  37
DOCKED: ATOM     37  C   UNL d   1      -5.692 -14.098   8.323 -0.21 +0.10    +0.115 C 
DOCKED: BRANCH  37  38
DOCKED: ATOM     38  C   UNL d   1      -6.561 -14.829   7.339 -0.25 +0.22    +0.139 C 
DOCKED: ATOM     39  O   UNL d   1      -6.514 -14.565   6.147 -0.19 -1.40    -0.650 OA
DOCKED: BRANCH  38  40
DOCKED: ATOM     40  O   UNL d   1      -7.405 -15.784   7.769 -0.41 -2.06    -0.776 OA
DOCKED: ATOM     41  H   UNL d   1      -7.145 -16.339   8.518 +0.02 +0.38    +0.167 HD
DOCKED: ENDBRANCH  38  40
DOCKED: ENDBRANCH  37  38
DOCKED: ENDBRANCH  36  37
DOCKED: ENDBRANCH  22  36
DOCKED: BRANCH  12  42
DOCKED: ATOM     42  C   UNL d   1      -4.180  -6.955  17.473 -0.14 -0.00    +0.004 C 
DOCKED: ATOM     43  C   UNL d   1      -4.148  -5.674  17.081 -0.25 -0.00    +0.012 C 
DOCKED: ENDBRANCH  12  42
DOCKED: BRANCH  17  44
DOCKED: ATOM     44  C   UNL d   1       0.267  -8.028  10.934 -0.22 +0.00    +0.004 C 
DOCKED: ATOM     45  C   UNL d   1       0.706  -6.792  10.678 -0.30 +0.00    +0.012 C 
DOCKED: ENDBRANCH  17  44
DOCKED: TORSDOF 10
DOCKED: TER
DOCKED: ENDMDL
________________________________________________________________________________


	BEGINNING GENETIC ALGORITHM DOCKING 7 of 100
Run: 7 Seed: 2072156041 70665759 [ Run 7 of 100 GA/GALS ]
Beginning LAMARCKIAN GENETIC ALGORITHM (LGA), with a maximum of 25000000 energy evaluations.

Final-Value: -14.692


	FINAL GENETIC ALGORITHM DOCKED STATE
	_______________________________________________


Detailed state:  trans -5.604 -10.925 12.098 quatxyzw -0.598272 -0.010218 -0.437941 0.670950 center -0.174 -0.001 -0.047 ntor 10 -150.6843 -59.5581 51.8818 52.4156 60.6832 107.8901 -24.5301 64.3969 -173.8543 176.6416
State:	 -5.604 -10.925  12.098  -0.807 -0.014 -0.591 95.719   -150.68  -59.56   51.88   52.42   60.68  107.89  -24.53   64.40 -173.85  176.64

DOCKED: MODEL        7
DOCKED: USER    Run = 7
DOCKED: USER    DPF = D:/Protein_go_brrr/autodock/final/AncB/heme_Fe/dock.dpf
DOCKED: USER  
DOCKED: USER    Estimated Free Energy of Binding    =   -9.61 kcal/mol  [=(1)+(2)+(3)-(4)]
DOCKED: USER    Estimated Inhibition Constant, Ki   =   90.40 nM (nanomolar)  [Temperature = 298.15 K]
DOCKED: USER    
DOCKED: USER    (1) Final Intermolecular Energy     =  -12.59 kcal/mol
DOCKED: USER        vdW + Hbond + desolv Energy     =   -9.22 kcal/mol
DOCKED: USER        Electrostatic Energy            =   -3.37 kcal/mol
DOCKED: USER    (2) Final Total Internal Energy     =   -2.10 kcal/mol
DOCKED: USER    (3) Torsional Free Energy           =   +2.98 kcal/mol
DOCKED: USER    (4) Unbound System's Energy  [=(2)] =   -2.10 kcal/mol
DOCKED: USER    
DOCKED: USER    
DOCKED: USER    NEWDPF move heme_Fe_opt.pdbqt
DOCKED: USER    NEWDPF about -0.174000 -0.001000 -0.047000
DOCKED: USER    NEWDPF tran0 -5.604144 -10.925230 12.098429
DOCKED: USER    NEWDPF quaternion0 -0.598272 -0.010218 -0.437941 0.670950
DOCKED: USER    NEWDPF axisangle0 -0.806837 -0.013780 -0.590613 95.719167
DOCKED: USER    NEWDPF quat0 -0.806837 -0.013780 -0.590613 95.719167
DOCKED: USER    NEWDPF dihe0 -150.68 -59.56 51.88 52.42 60.68 107.89 -24.53 64.40 -173.85 176.64 
DOCKED: USER  keepresnum = 1 
DOCKED: USER  
DOCKED: REMARK  10 active torsions:
DOCKED: REMARK  status: ('A' for Active; 'I' for Inactive)
DOCKED: REMARK    1  A    between atoms: C_6  and  C_10 
DOCKED: REMARK    2  A    between atoms: C_10  and  C_11 
DOCKED: REMARK    3  A    between atoms: C_11  and  C_12 
DOCKED: REMARK    4  A    between atoms: C_12  and  O_14 
DOCKED: REMARK    5  A    between atoms: C_17  and  C_20 
DOCKED: REMARK    6  A    between atoms: C_24  and  C_27 
DOCKED: REMARK    7  A    between atoms: C_31  and  C_34 
DOCKED: REMARK    8  A    between atoms: C_34  and  C_35 
DOCKED: REMARK    9  A    between atoms: C_35  and  C_36 
DOCKED: REMARK   10  A    between atoms: C_36  and  O_38 
DOCKED: USER                              x       y       z     vdW  Elec       q    Type
DOCKED: USER                           _______ _______ _______ _____ _____    ______ ____
DOCKED: ROOT
DOCKED: ATOM      1  C   UNL d   1      -6.505 -12.530  11.191 -0.29 +0.04    +0.064 C 
DOCKED: ATOM      2  C   UNL d   1      -2.445  -9.855  10.300 -0.28 +0.01    +0.064 A 
DOCKED: ATOM      3  C   UNL d   1      -2.756  -8.035  14.734 -0.19 +0.01    +0.064 C 
DOCKED: ATOM      4  C   UNL d   1      -6.746 -10.535  15.580 -0.18 +0.04    +0.064 C 
DOCKED: ATOM      5  C   UNL d   1      -5.381 -11.883  10.500 -0.23 +0.03    +0.066 A 
DOCKED: ATOM      6  C   UNL d   1      -5.054 -12.077   9.168 -0.25 -0.01    -0.021 A 
DOCKED: ATOM      7  C   UNL d   1      -3.925 -11.337   8.922 -0.24 -0.01    -0.025 A 
DOCKED: ATOM      8  C   UNL d   1      -3.605 -10.718  10.115 -0.24 +0.02    +0.066 A 
DOCKED: ATOM      9  C   UNL d   1      -3.212 -11.222   7.609 -0.33 +0.02    +0.051 C 
DOCKED: ATOM     10  C   UNL d   1      -2.147  -9.200  11.424 -0.24 +0.02    +0.066 A 
DOCKED: ATOM     11  C   UNL d   1      -0.968  -8.472  11.606 -0.25 -0.00    -0.021 A 
DOCKED: ATOM     12  C   UNL d   1      -1.026  -7.951  12.884 -0.22 +0.00    +0.000 A 
DOCKED: ATOM     13  C   UNL d   1      -2.245  -8.399  13.422 -0.16 +0.01    +0.070 A 
DOCKED: ATOM     14  C   UNL d   1       0.188  -8.337  10.637 -0.11 +0.01    +0.052 C 
DOCKED: ATOM     15  C   UNL d   1      -3.904  -8.504  15.277 -0.14 +0.02    +0.066 A 
DOCKED: ATOM     16  C   UNL d   1      -4.408  -8.055  16.491 -0.16 -0.00    -0.021 A 
DOCKED: ATOM     17  C   UNL d   1      -5.557  -8.778  16.738 -0.16 +0.00    +0.000 A 
DOCKED: ATOM     18  C   UNL d   1      -5.725  -9.655  15.670 -0.06 +0.05    +0.070 A 
DOCKED: ATOM     19  C   UNL d   1      -3.822  -7.007  17.397 -0.12 -0.00    +0.052 C 
DOCKED: ATOM     20  C   UNL d   1      -6.988 -11.430  14.442 -0.23 +0.04    +0.066 A 
DOCKED: ATOM     21  C   UNL d   1      -7.917 -12.480  14.421 -0.27 -0.01    -0.025 A 
DOCKED: ATOM     22  C   UNL d   1      -7.841 -13.027  13.157 -0.33 -0.01    -0.021 A 
DOCKED: ATOM     23  C   UNL d   1      -6.869 -12.297  12.462 -0.31 +0.04    +0.066 A 
DOCKED: ATOM     24  C   UNL d   1      -8.830 -12.954  15.528 -0.20 +0.02    +0.051 C 
DOCKED: ATOM     25  N   UNL d   1      -4.499 -11.044  11.070 -0.15 -0.10    -0.248 N 
DOCKED: ATOM     26  N   UNL d   1      -2.924  -9.168  12.536 -0.11 -0.08    -0.248 N 
DOCKED: ATOM     27  N   UNL d   1      -4.733  -9.458  14.750 -0.09 -0.15    -0.248 N 
DOCKED: ATOM     28  N   UNL d   1      -6.321 -11.353  13.265 -0.18 -0.16    -0.248 N 
DOCKED: ATOM     29 FE   UNL d   1      -4.624 -10.261  12.902 -0.06 +0.00    +0.000 Fe
DOCKED: ENDROOT
DOCKED: BRANCH   6  30
DOCKED: ATOM     30  C   UNL d   1      -5.789 -12.907   8.171 -0.32 +0.04    +0.052 C 
DOCKED: BRANCH  30  31
DOCKED: ATOM     31  C   UNL d   1      -5.357 -14.367   8.260 -0.16 +0.09    +0.115 C 
DOCKED: BRANCH  31  32
DOCKED: ATOM     32  C   UNL d   1      -6.441 -15.269   7.739 -0.22 +0.21    +0.139 C 
DOCKED: ATOM     33  O   UNL d   1      -6.826 -15.176   6.582 -0.35 -1.52    -0.650 OA
DOCKED: BRANCH  32  34
DOCKED: ATOM     34  O   UNL d   1      -6.998 -16.189   8.544 -0.54 -1.55    -0.776 OA
DOCKED: ATOM     35  H   UNL d   1      -7.041 -16.017   9.495 +0.01 +0.24    +0.167 HD
DOCKED: ENDBRANCH  32  34
DOCKED: ENDBRANCH  31  32
DOCKED: ENDBRANCH  30  31
DOCKED: ENDBRANCH   6  30
DOCKED: BRANCH  22  36
DOCKED: ATOM     36  C   UNL d   1      -8.624 -14.215  12.663 -0.12 +0.02    +0.052 C 
DOCKED: BRANCH  36  37
DOCKED: ATOM     37  C   UNL d   1      -7.888 -15.498  13.020 -0.17 +0.05    +0.115 C 
DOCKED: BRANCH  37  38
DOCKED: ATOM     38  C   UNL d   1      -7.465 -16.238  11.782 -0.14 +0.09    +0.139 C 
DOCKED: ATOM     39  O   UNL d   1      -6.290 -16.279  11.449 +0.02 -0.36    -0.650 OA
DOCKED: BRANCH  38  40
DOCKED: ATOM     40  O   UNL d   1      -8.386 -16.863  11.026 -0.11 -0.91    -0.776 OA
DOCKED: ATOM     41  H   UNL d   1      -8.490 -16.600  10.101 -0.37 +0.39    +0.167 HD
DOCKED: ENDBRANCH  38  40
DOCKED: ENDBRANCH  37  38
DOCKED: ENDBRANCH  36  37
DOCKED: ENDBRANCH  22  36
DOCKED: BRANCH  12  42
DOCKED: ATOM     42  C   UNL d   1       0.037  -7.107  13.512 -0.22 +0.00    +0.004 C 
DOCKED: ATOM     43  C   UNL d   1      -0.081  -5.774  13.562 -0.39 -0.00    +0.012 C 
DOCKED: ENDBRANCH  12  42
DOCKED: BRANCH  17  44
DOCKED: ATOM     44  C   UNL d   1      -6.448  -8.624  17.911 -0.14 +0.00    +0.004 C 
DOCKED: ATOM     45  C   UNL d   1      -7.640  -8.032  17.792 -0.23 -0.00    +0.012 C 
DOCKED: ENDBRANCH  17  44
DOCKED: TORSDOF 10
DOCKED: TER
DOCKED: ENDMDL
________________________________________________________________________________


	BEGINNING GENETIC ALGORITHM DOCKING 8 of 100
Run: 8 Seed: 718592624 1989002555 [ Run 8 of 100 GA/GALS ]
Beginning LAMARCKIAN GENETIC ALGORITHM (LGA), with a maximum of 25000000 energy evaluations.

Final-Value: -19.263


	FINAL GENETIC ALGORITHM DOCKED STATE
	_______________________________________________


Detailed state:  trans -0.203 -1.711 -9.142 quatxyzw 0.590219 0.375848 0.456321 0.549683 center -0.174 -0.001 -0.047 ntor 10 -108.3099 34.0649 73.2607 -113.8707 -16.6921 28.1995 5.5611 57.3943 -151.6947 125.5799
State:	 -0.203  -1.711  -9.142   0.707  0.450  0.546 113.310   -108.31   34.06   73.26 -113.87  -16.69   28.20    5.56   57.39 -151.69  125.58

DOCKED: MODEL        8
DOCKED: USER    Run = 8
DOCKED: USER    DPF = D:/Protein_go_brrr/autodock/final/AncB/heme_Fe/dock.dpf
DOCKED: USER  
DOCKED: USER    Estimated Free Energy of Binding    =  -14.85 kcal/mol  [=(1)+(2)+(3)-(4)]
DOCKED: USER    Estimated Inhibition Constant, Ki   =   12.97 pM (picomolar)  [Temperature = 298.15 K]
DOCKED: USER    
DOCKED: USER    (1) Final Intermolecular Energy     =  -17.84 kcal/mol
DOCKED: USER        vdW + Hbond + desolv Energy     =  -14.27 kcal/mol
DOCKED: USER        Electrostatic Energy            =   -3.57 kcal/mol
DOCKED: USER    (2) Final Total Internal Energy     =   -1.43 kcal/mol
DOCKED: USER    (3) Torsional Free Energy           =   +2.98 kcal/mol
DOCKED: USER    (4) Unbound System's Energy  [=(2)] =   -1.43 kcal/mol
DOCKED: USER    
DOCKED: USER    
DOCKED: USER    NEWDPF move heme_Fe_opt.pdbqt
DOCKED: USER    NEWDPF about -0.174000 -0.001000 -0.047000
DOCKED: USER    NEWDPF tran0 -0.202921 -1.711424 -9.142042
DOCKED: USER    NEWDPF quaternion0 0.590219 0.375848 0.456321 0.549683
DOCKED: USER    NEWDPF axisangle0 0.706533 0.449916 0.546247 113.309523
DOCKED: USER    NEWDPF quat0 0.706533 0.449916 0.546247 113.309523
DOCKED: USER    NEWDPF dihe0 -108.31 34.06 73.26 -113.87 -16.69 28.20 5.56 57.39 -151.69 125.58 
DOCKED: USER  keepresnum = 1 
DOCKED: USER  
DOCKED: REMARK  10 active torsions:
DOCKED: REMARK  status: ('A' for Active; 'I' for Inactive)
DOCKED: REMARK    1  A    between atoms: C_6  and  C_10 
DOCKED: REMARK    2  A    between atoms: C_10  and  C_11 
DOCKED: REMARK    3  A    between atoms: C_11  and  C_12 
DOCKED: REMARK    4  A    between atoms: C_12  and  O_14 
DOCKED: REMARK    5  A    between atoms: C_17  and  C_20 
DOCKED: REMARK    6  A    between atoms: C_24  and  C_27 
DOCKED: REMARK    7  A    between atoms: C_31  and  C_34 
DOCKED: REMARK    8  A    between atoms: C_34  and  C_35 
DOCKED: REMARK    9  A    between atoms: C_35  and  C_36 
DOCKED: REMARK   10  A    between atoms: C_36  and  O_38 
DOCKED: USER                              x       y       z     vdW  Elec       q    Type
DOCKED: USER                           _______ _______ _______ _____ _____    ______ ____
DOCKED: ROOT
DOCKED: ATOM      1  C   UNL d   1      -0.788  -1.062 -10.999 -0.31 +0.05    +0.064 C 
DOCKED: ATOM      2  C   UNL d   1      -2.857  -1.090  -6.509 -0.41 +0.02    +0.064 A 
DOCKED: ATOM      3  C   UNL d   1       1.452  -2.031  -4.606 -0.41 +0.01    +0.064 C 
DOCKED: ATOM      4  C   UNL d   1       3.454  -2.113  -8.950 -0.51 +0.02    +0.064 C 
DOCKED: ATOM      5  C   UNL d   1      -1.785  -1.066  -9.919 -0.32 +0.05    +0.066 A 
DOCKED: ATOM      6  C   UNL d   1      -3.152  -0.937 -10.104 -0.30 -0.02    -0.021 A 
DOCKED: ATOM      7  C   UNL d   1      -3.725  -0.941  -8.856 -0.29 -0.01    -0.025 A 
DOCKED: ATOM      8  C   UNL d   1      -2.685  -1.072  -7.957 -0.35 +0.03    +0.066 A 
DOCKED: ATOM      9  C   UNL d   1      -5.190  -0.844  -8.558 -0.29 +0.02    +0.051 C 
DOCKED: ATOM     10  C   UNL d   1      -1.877  -1.273  -5.622 -0.40 +0.02    +0.066 A 
DOCKED: ATOM     11  C   UNL d   1      -2.055  -1.170  -4.240 -0.42 -0.00    -0.021 A 
DOCKED: ATOM     12  C   UNL d   1      -0.823  -1.421  -3.669 -0.37 +0.00    +0.000 A 
DOCKED: ATOM     13  C   UNL d   1       0.053  -1.657  -4.743 -0.38 +0.01    +0.070 A 
DOCKED: ATOM     14  C   UNL d   1      -3.321  -0.785  -3.502 -0.60 +0.01    +0.052 C 
DOCKED: ATOM     15  C   UNL d   1       2.311  -2.209  -5.637 -0.39 +0.01    +0.066 A 
DOCKED: ATOM     16  C   UNL d   1       3.613  -2.662  -5.469 -0.48 -0.00    -0.021 A 
DOCKED: ATOM     17  C   UNL d   1       4.194  -2.683  -6.720 -0.50 +0.00    +0.000 A 
DOCKED: ATOM     18  C   UNL d   1       3.232  -2.237  -7.623 -0.42 +0.02    +0.070 A 
DOCKED: ATOM     19  C   UNL d   1       4.296  -3.038  -4.181 -0.63 +0.01    +0.052 C 
DOCKED: ATOM     20  C   UNL d   1       2.448  -1.705  -9.938 -0.43 +0.02    +0.066 A 
DOCKED: ATOM     21  C   UNL d   1       2.712  -1.380 -11.276 -0.43 -0.01    -0.025 A 
DOCKED: ATOM     22  C   UNL d   1       1.488  -1.096 -11.844 -0.29 -0.01    -0.021 A 
DOCKED: ATOM     23  C   UNL d   1       0.530  -1.253 -10.835 -0.14 +0.04    +0.066 A 
DOCKED: ATOM     24  C   UNL d   1       4.043  -1.332 -11.990 -0.54 +0.01    +0.051 C 
DOCKED: ATOM     25  N   UNL d   1      -1.507  -1.157  -8.607 -0.22 -0.12    -0.248 N 
DOCKED: ATOM     26  N   UNL d   1      -0.587  -1.559  -5.934 -0.25 -0.07    -0.248 N 
DOCKED: ATOM     27  N   UNL d   1       2.061  -1.987  -6.965 -0.19 -0.09    -0.248 N 
DOCKED: ATOM     28  N   UNL d   1       1.127  -1.580  -9.663 -0.19 -0.13    -0.248 N 
DOCKED: ATOM     29 FE   UNL d   1       0.272  -1.570  -7.799 -0.09 +0.00    +0.000 Fe
DOCKED: ENDROOT
DOCKED: BRANCH   6  30
DOCKED: ATOM     30  C   UNL d   1      -3.881  -0.837 -11.400 -0.16 +0.08    +0.052 C 
DOCKED: BRANCH  30  31
DOCKED: ATOM     31  C   UNL d   1      -3.460   0.415 -12.161 -0.21 +0.16    +0.115 C 
DOCKED: BRANCH  31  32
DOCKED: ATOM     32  C   UNL d   1      -4.294   0.583 -13.401 -0.15 +0.22    +0.139 C 
DOCKED: ATOM     33  O   UNL d   1      -4.945  -0.352 -13.845 +0.06 -1.22    -0.650 OA
DOCKED: BRANCH  32  34
DOCKED: ATOM     34  O   UNL d   1      -4.333   1.768 -14.033 -0.49 -1.38    -0.776 OA
DOCKED: ATOM     35  H   UNL d   1      -3.553   2.063 -14.525 +0.01 +0.37    +0.167 HD
DOCKED: ENDBRANCH  32  34
DOCKED: ENDBRANCH  31  32
DOCKED: ENDBRANCH  30  31
DOCKED: ENDBRANCH   6  30
DOCKED: BRANCH  22  36
DOCKED: ATOM     36  C   UNL d   1       1.259  -0.653 -13.265 -0.27 +0.03    +0.052 C 
DOCKED: BRANCH  36  37
DOCKED: ATOM     37  C   UNL d   1       0.233   0.471 -13.293 -0.06 +0.09    +0.115 C 
DOCKED: BRANCH  37  38
DOCKED: ATOM     38  C   UNL d   1      -0.928   0.118 -14.180 -0.15 +0.17    +0.139 C 
DOCKED: ATOM     39  O   UNL d   1      -1.250  -1.048 -14.355 -0.22 -1.22    -0.650 OA
DOCKED: BRANCH  38  40
DOCKED: ATOM     40  O   UNL d   1      -1.622   1.092 -14.795 +0.03 -0.98    -0.776 OA
DOCKED: ATOM     41  H   UNL d   1      -2.573   0.975 -14.934 +0.03 +0.25    +0.167 HD
DOCKED: ENDBRANCH  38  40
DOCKED: ENDBRANCH  37  38
DOCKED: ENDBRANCH  36  37
DOCKED: ENDBRANCH  22  36
DOCKED: BRANCH  12  42
DOCKED: ATOM     42  C   UNL d   1      -0.542  -1.407  -2.200 -0.48 +0.00    +0.004 C 
DOCKED: ATOM     43  C   UNL d   1      -0.062  -2.492  -1.579 -0.58 +0.00    +0.012 C 
DOCKED: ENDBRANCH  12  42
DOCKED: BRANCH  17  44
DOCKED: ATOM     44  C   UNL d   1       5.573  -3.121  -7.034 -0.46 +0.00    +0.004 C 
DOCKED: ATOM     45  C   UNL d   1       6.628  -2.506  -6.489 -0.64 +0.00    +0.012 C 
DOCKED: ENDBRANCH  17  44
DOCKED: TORSDOF 10
DOCKED: TER
DOCKED: ENDMDL
________________________________________________________________________________


	BEGINNING GENETIC ALGORITHM DOCKING 9 of 100
Run: 9 Seed: 2049509189 436033465 [ Run 9 of 100 GA/GALS ]
Beginning LAMARCKIAN GENETIC ALGORITHM (LGA), with a maximum of 25000000 energy evaluations.

Final-Value: -20.151


	FINAL GENETIC ALGORITHM DOCKED STATE
	_______________________________________________


Detailed state:  trans -0.282 -1.649 -8.978 quatxyzw -0.585066 -0.367126 -0.459049 -0.558740 center -0.174 -0.001 -0.047 ntor 10 -81.6926 -60.1537 67.5131 -120.2386 39.1706 24.4197 -33.7588 -26.1157 -169.0939 37.0762
State:	 -0.282  -1.649  -8.978  -0.705 -0.443 -0.554 -112.063    -81.69  -60.15   67.51 -120.24   39.17   24.42  -33.76  -26.12 -169.09   37.08

DOCKED: MODEL        9
DOCKED: USER    Run = 9
DOCKED: USER    DPF = D:/Protein_go_brrr/autodock/final/AncB/heme_Fe/dock.dpf
DOCKED: USER  
DOCKED: USER    Estimated Free Energy of Binding    =  -15.13 kcal/mol  [=(1)+(2)+(3)-(4)]
DOCKED: USER    Estimated Inhibition Constant, Ki   =    8.15 pM (picomolar)  [Temperature = 298.15 K]
DOCKED: USER    
DOCKED: USER    (1) Final Intermolecular Energy     =  -18.11 kcal/mol
DOCKED: USER        vdW + Hbond + desolv Energy     =  -14.45 kcal/mol
DOCKED: USER        Electrostatic Energy            =   -3.67 kcal/mol
DOCKED: USER    (2) Final Total Internal Energy     =   -2.04 kcal/mol
DOCKED: USER    (3) Torsional Free Energy           =   +2.98 kcal/mol
DOCKED: USER    (4) Unbound System's Energy  [=(2)] =   -2.04 kcal/mol
DOCKED: USER    
DOCKED: USER    
DOCKED: USER    NEWDPF move heme_Fe_opt.pdbqt
DOCKED: USER    NEWDPF about -0.174000 -0.001000 -0.047000
DOCKED: USER    NEWDPF tran0 -0.281952 -1.648812 -8.977937
DOCKED: USER    NEWDPF quaternion0 -0.585066 -0.367126 -0.459049 -0.558740
DOCKED: USER    NEWDPF axisangle0 -0.705457 -0.442671 -0.553509 -112.062555
DOCKED: USER    NEWDPF quat0 -0.705457 -0.442671 -0.553509 -112.062555
DOCKED: USER    NEWDPF dihe0 -81.69 -60.15 67.51 -120.24 39.17 24.42 -33.76 -26.12 -169.09 37.08 
DOCKED: USER  keepresnum = 1 
DOCKED: USER  
DOCKED: REMARK  10 active torsions:
DOCKED: REMARK  status: ('A' for Active; 'I' for Inactive)
DOCKED: REMARK    1  A    between atoms: C_6  and  C_10 
DOCKED: REMARK    2  A    between atoms: C_10  and  C_11 
DOCKED: REMARK    3  A    between atoms: C_11  and  C_12 
DOCKED: REMARK    4  A    between atoms: C_12  and  O_14 
DOCKED: REMARK    5  A    between atoms: C_17  and  C_20 
DOCKED: REMARK    6  A    between atoms: C_24  and  C_27 
DOCKED: REMARK    7  A    between atoms: C_31  and  C_34 
DOCKED: REMARK    8  A    between atoms: C_34  and  C_35 
DOCKED: REMARK    9  A    between atoms: C_35  and  C_36 
DOCKED: REMARK   10  A    between atoms: C_36  and  O_38 
DOCKED: USER                              x       y       z     vdW  Elec       q    Type
DOCKED: USER                           _______ _______ _______ _____ _____    ______ ____
DOCKED: ROOT
DOCKED: ATOM      1  C   UNL d   1      -0.882  -0.950 -10.812 -0.27 +0.05    +0.064 C 
DOCKED: ATOM      2  C   UNL d   1      -2.912  -1.094  -6.307 -0.42 +0.02    +0.064 A 
DOCKED: ATOM      3  C   UNL d   1       1.411  -2.089  -4.466 -0.41 +0.01    +0.064 C 
DOCKED: ATOM      4  C   UNL d   1       3.376  -2.059  -8.828 -0.51 +0.02    +0.064 C 
DOCKED: ATOM      5  C   UNL d   1      -1.870  -0.981  -9.724 -0.32 +0.04    +0.066 A 
DOCKED: ATOM      6  C   UNL d   1      -3.238  -0.846  -9.894 -0.30 -0.02    -0.021 A 
DOCKED: ATOM      7  C   UNL d   1      -3.800  -0.883  -8.642 -0.30 -0.01    -0.025 A 
DOCKED: ATOM      8  C   UNL d   1      -2.753  -1.039  -7.755 -0.36 +0.03    +0.066 A 
DOCKED: ATOM      9  C   UNL d   1      -5.262  -0.792  -8.328 -0.31 +0.02    +0.051 C 
DOCKED: ATOM     10  C   UNL d   1      -1.926  -1.301  -5.434 -0.41 +0.02    +0.066 A 
DOCKED: ATOM     11  C   UNL d   1      -2.092  -1.235  -4.048 -0.43 -0.00    -0.021 A 
DOCKED: ATOM     12  C   UNL d   1      -0.855  -1.502  -3.494 -0.41 +0.00    +0.000 A 
DOCKED: ATOM     13  C   UNL d   1       0.011  -1.711  -4.581 -0.38 +0.01    +0.070 A 
DOCKED: ATOM     14  C   UNL d   1      -3.351  -0.868  -3.289 -0.62 +0.01    +0.052 C 
DOCKED: ATOM     15  C   UNL d   1       2.261  -2.241  -5.509 -0.39 +0.01    +0.066 A 
DOCKED: ATOM     16  C   UNL d   1       3.564  -2.700  -5.364 -0.48 -0.00    -0.021 A 
DOCKED: ATOM     17  C   UNL d   1       4.134  -2.689  -6.620 -0.50 +0.00    +0.000 A 
DOCKED: ATOM     18  C   UNL d   1       3.165  -2.218  -7.503 -0.41 +0.02    +0.070 A 
DOCKED: ATOM     19  C   UNL d   1       4.257  -3.110  -4.092 -0.63 +0.01    +0.052 C 
DOCKED: ATOM     20  C   UNL d   1       2.362  -1.625  -9.796 -0.42 +0.03    +0.066 A 
DOCKED: ATOM     21  C   UNL d   1       2.615  -1.264 -11.127 -0.42 -0.01    -0.025 A 
DOCKED: ATOM     22  C   UNL d   1       1.386  -0.965 -11.677 -0.14 -0.01    -0.021 A 
DOCKED: ATOM     23  C   UNL d   1       0.438  -1.146 -10.664 -0.07 +0.04    +0.066 A 
DOCKED: ATOM     24  C   UNL d   1       3.940  -1.199 -11.851 -0.54 +0.01    +0.051 C 
DOCKED: ATOM     25  N   UNL d   1      -1.581  -1.108  -8.417 -0.24 -0.11    -0.248 N 
DOCKED: ATOM     26  N   UNL d   1      -0.639  -1.580  -5.764 -0.26 -0.07    -0.248 N 
DOCKED: ATOM     27  N   UNL d   1       2.000  -1.984  -6.828 -0.21 -0.09    -0.248 N 
DOCKED: ATOM     28  N   UNL d   1       1.044  -1.506  -9.506 -0.19 -0.14    -0.248 N 
DOCKED: ATOM     29 FE   UNL d   1       0.204  -1.543  -7.636 -0.09 +0.00    +0.000 Fe
DOCKED: ENDROOT
DOCKED: BRANCH   6  30
DOCKED: ATOM     30  C   UNL d   1      -3.978  -0.711 -11.181 -0.23 +0.07    +0.052 C 
DOCKED: BRANCH  30  31
DOCKED: ATOM     31  C   UNL d   1      -3.901   0.720 -11.700 -0.22 +0.13    +0.115 C 
DOCKED: BRANCH  31  32
DOCKED: ATOM     32  C   UNL d   1      -3.867   0.733 -13.203 -0.16 +0.22    +0.139 C 
DOCKED: ATOM     33  O   UNL d   1      -4.552  -0.047 -13.849 +0.04 -1.21    -0.650 OA
DOCKED: BRANCH  32  34
DOCKED: ATOM     34  O   UNL d   1      -3.079   1.607 -13.853 -0.29 -1.36    -0.776 OA
DOCKED: ATOM     35  H   UNL d   1      -2.217   1.311 -14.177 +0.04 +0.25    +0.167 HD
DOCKED: ENDBRANCH  32  34
DOCKED: ENDBRANCH  31  32
DOCKED: ENDBRANCH  30  31
DOCKED: ENDBRANCH   6  30
DOCKED: BRANCH  22  36
DOCKED: ATOM     36  C   UNL d   1       1.146  -0.483 -13.084 -0.27 +0.03    +0.052 C 
DOCKED: BRANCH  36  37
DOCKED: ATOM     37  C   UNL d   1      -0.014  -1.253 -13.699 -0.22 +0.12    +0.115 C 
DOCKED: BRANCH  37  38
DOCKED: ATOM     38  C   UNL d   1      -0.701  -0.437 -14.757 -0.13 +0.17    +0.139 C 
DOCKED: ATOM     39  O   UNL d   1      -0.107   0.457 -15.341 +0.04 -0.54    -0.650 OA
DOCKED: BRANCH  38  40
DOCKED: ATOM     40  O   UNL d   1      -1.986  -0.685 -15.067 -0.42 -1.72    -0.776 OA
DOCKED: ATOM     41  H   UNL d   1      -2.642   0.015 -14.948 +0.02 +0.32    +0.167 HD
DOCKED: ENDBRANCH  38  40
DOCKED: ENDBRANCH  37  38
DOCKED: ENDBRANCH  36  37
DOCKED: ENDBRANCH  22  36
DOCKED: BRANCH  12  42
DOCKED: ATOM     42  C   UNL d   1      -0.562  -1.527  -2.028 -0.52 +0.00    +0.004 C 
DOCKED: ATOM     43  C   UNL d   1      -0.187  -2.659  -1.419 -0.59 +0.00    +0.012 C 
DOCKED: ENDBRANCH  12  42
DOCKED: BRANCH  17  44
DOCKED: ATOM     44  C   UNL d   1       5.510  -3.120  -6.957 -0.46 +0.00    +0.004 C 
DOCKED: ATOM     45  C   UNL d   1       6.570  -2.442  -6.505 -0.66 +0.00    +0.012 C 
DOCKED: ENDBRANCH  17  44
DOCKED: TORSDOF 10
DOCKED: TER
DOCKED: ENDMDL
________________________________________________________________________________


	BEGINNING GENETIC ALGORITHM DOCKING 10 of 100
Run: 10 Seed: 568352078 868682361 [ Run 10 of 100 GA/GALS ]
Beginning LAMARCKIAN GENETIC ALGORITHM (LGA), with a maximum of 25000000 energy evaluations.

Final-Value: -14.423


	FINAL GENETIC ALGORITHM DOCKED STATE
	_______________________________________________


Detailed state:  trans -5.548 -10.954 11.942 quatxyzw 0.603355 0.001249 0.450713 -0.657890 center -0.174 -0.001 -0.047 ntor 10 -162.2449 142.9375 48.3287 54.7296 59.4043 -114.2881 -30.4427 3.4942 -158.3642 179.7485
State:	 -5.548 -10.954  11.942   0.801  0.002  0.598 -97.722   -162.24  142.94   48.33   54.73   59.40 -114.29  -30.44    3.49 -158.36  179.75

DOCKED: MODEL       10
DOCKED: USER    Run = 10
DOCKED: USER    DPF = D:/Protein_go_brrr/autodock/final/AncB/heme_Fe/dock.dpf
DOCKED: USER  
DOCKED: USER    Estimated Free Energy of Binding    =   -9.95 kcal/mol  [=(1)+(2)+(3)-(4)]
DOCKED: USER    Estimated Inhibition Constant, Ki   =   50.73 nM (nanomolar)  [Temperature = 298.15 K]
DOCKED: USER    
DOCKED: USER    (1) Final Intermolecular Energy     =  -12.93 kcal/mol
DOCKED: USER        vdW + Hbond + desolv Energy     =   -9.02 kcal/mol
DOCKED: USER        Electrostatic Energy            =   -3.91 kcal/mol
DOCKED: USER    (2) Final Total Internal Energy     =   -1.49 kcal/mol
DOCKED: USER    (3) Torsional Free Energy           =   +2.98 kcal/mol
DOCKED: USER    (4) Unbound System's Energy  [=(2)] =   -1.49 kcal/mol
DOCKED: USER    
DOCKED: USER    
DOCKED: USER    NEWDPF move heme_Fe_opt.pdbqt
DOCKED: USER    NEWDPF about -0.174000 -0.001000 -0.047000
DOCKED: USER    NEWDPF tran0 -5.548497 -10.954027 11.941629
DOCKED: USER    NEWDPF quaternion0 0.603355 0.001249 0.450713 -0.657890
DOCKED: USER    NEWDPF axisangle0 0.801147 0.001658 0.598466 -97.721757
DOCKED: USER    NEWDPF quat0 0.801147 0.001658 0.598466 -97.721757
DOCKED: USER    NEWDPF dihe0 -162.24 142.94 48.33 54.73 59.40 -114.29 -30.44 3.49 -158.36 179.75 
DOCKED: USER  keepresnum = 1 
DOCKED: USER  
DOCKED: REMARK  10 active torsions:
DOCKED: REMARK  status: ('A' for Active; 'I' for Inactive)
DOCKED: REMARK    1  A    between atoms: C_6  and  C_10 
DOCKED: REMARK    2  A    between atoms: C_10  and  C_11 
DOCKED: REMARK    3  A    between atoms: C_11  and  C_12 
DOCKED: REMARK    4  A    between atoms: C_12  and  O_14 
DOCKED: REMARK    5  A    between atoms: C_17  and  C_20 
DOCKED: REMARK    6  A    between atoms: C_24  and  C_27 
DOCKED: REMARK    7  A    between atoms: C_31  and  C_34 
DOCKED: REMARK    8  A    between atoms: C_34  and  C_35 
DOCKED: REMARK    9  A    between atoms: C_35  and  C_36 
DOCKED: REMARK   10  A    between atoms: C_36  and  O_38 
DOCKED: USER                              x       y       z     vdW  Elec       q    Type
DOCKED: USER                           _______ _______ _______ _____ _____    ______ ____
DOCKED: ROOT
DOCKED: ATOM      1  C   UNL d   1      -6.400 -12.546  10.965 -0.27 +0.04    +0.064 C 
DOCKED: ATOM      2  C   UNL d   1      -2.370  -9.774  10.249 -0.28 +0.01    +0.064 A 
DOCKED: ATOM      3  C   UNL d   1      -2.813  -8.097  14.728 -0.19 +0.01    +0.064 C 
DOCKED: ATOM      4  C   UNL d   1      -6.774 -10.691  15.406 -0.17 +0.04    +0.064 C 
DOCKED: ATOM      5  C   UNL d   1      -5.273 -11.858  10.320 -0.23 +0.03    +0.066 A 
DOCKED: ATOM      6  C   UNL d   1      -4.913 -12.006   8.990 -0.25 -0.01    -0.021 A 
DOCKED: ATOM      7  C   UNL d   1      -3.791 -11.239   8.793 -0.23 -0.01    -0.025 A 
DOCKED: ATOM      8  C   UNL d   1      -3.510 -10.651  10.012 -0.25 +0.02    +0.066 A 
DOCKED: ATOM      9  C   UNL d   1      -3.052 -11.071   7.501 -0.34 +0.01    +0.051 C 
DOCKED: ATOM     10  C   UNL d   1      -2.109  -9.149  11.399 -0.24 +0.01    +0.066 A 
DOCKED: ATOM     11  C   UNL d   1      -0.948  -8.407  11.630 -0.26 -0.00    -0.021 A 
DOCKED: ATOM     12  C   UNL d   1      -1.043  -7.926  12.921 -0.22 +0.00    +0.000 A 
DOCKED: ATOM     13  C   UNL d   1      -2.266  -8.412  13.418 -0.16 +0.01    +0.070 A 
DOCKED: ATOM     14  C   UNL d   1       0.227  -8.222  10.692 -0.12 +0.01    +0.052 C 
DOCKED: ATOM     15  C   UNL d   1      -3.964  -8.603  15.230 -0.13 +0.02    +0.066 A 
DOCKED: ATOM     16  C   UNL d   1      -4.503  -8.200  16.445 -0.16 -0.00    -0.021 A 
DOCKED: ATOM     17  C   UNL d   1      -5.644  -8.950  16.645 -0.15 +0.00    +0.000 A 
DOCKED: ATOM     18  C   UNL d   1      -5.772  -9.797  15.546 -0.06 +0.05    +0.070 A 
DOCKED: ATOM     19  C   UNL d   1      -3.956  -7.170  17.396 -0.12 -0.00    +0.052 C 
DOCKED: ATOM     20  C   UNL d   1      -6.975 -11.555  14.236 -0.24 +0.04    +0.066 A 
DOCKED: ATOM     21  C   UNL d   1      -7.884 -12.620  14.162 -0.28 -0.01    -0.025 A 
DOCKED: ATOM     22  C   UNL d   1      -7.770 -13.126  12.884 -0.34 -0.01    -0.021 A 
DOCKED: ATOM     23  C   UNL d   1      -6.796 -12.358  12.234 -0.30 +0.04    +0.066 A 
DOCKED: ATOM     24  C   UNL d   1      -8.813 -13.144  15.233 -0.21 +0.02    +0.051 C 
DOCKED: ATOM     25  N   UNL d   1      -4.418 -11.022  10.936 -0.15 -0.10    -0.248 N 
DOCKED: ATOM     26  N   UNL d   1      -2.911  -9.164  12.493 -0.11 -0.08    -0.248 N 
DOCKED: ATOM     27  N   UNL d   1      -4.764  -9.554  14.655 -0.08 -0.15    -0.248 N 
DOCKED: ATOM     28  N   UNL d   1      -6.283 -11.430  13.078 -0.18 -0.16    -0.248 N 
DOCKED: ATOM     29 FE   UNL d   1      -4.598 -10.298  12.787 -0.06 +0.00    +0.000 Fe
DOCKED: ENDROOT
DOCKED: BRANCH   6  30
DOCKED: ATOM     30  C   UNL d   1      -5.609 -12.817   7.952 -0.31 +0.04    +0.052 C 
DOCKED: BRANCH  30  31
DOCKED: ATOM     31  C   UNL d   1      -5.458 -14.307   8.240 -0.18 +0.10    +0.115 C 
DOCKED: BRANCH  31  32
DOCKED: ATOM     32  C   UNL d   1      -6.655 -15.064   7.737 -0.23 +0.22    +0.139 C 
DOCKED: ATOM     33  O   UNL d   1      -6.961 -15.032   6.553 -0.30 -1.52    -0.650 OA
DOCKED: BRANCH  32  34
DOCKED: ATOM     34  O   UNL d   1      -7.403 -15.787   8.588 -0.29 -1.83    -0.776 OA
DOCKED: ATOM     35  H   UNL d   1      -7.331 -15.615   9.537 -0.05 +0.24    +0.167 HD
DOCKED: ENDBRANCH  32  34
DOCKED: ENDBRANCH  31  32
DOCKED: ENDBRANCH  30  31
DOCKED: ENDBRANCH   6  30
DOCKED: BRANCH  22  36
DOCKED: ATOM     36  C   UNL d   1      -8.520 -14.311  12.337 +0.03 +0.02    +0.052 C 
DOCKED: BRANCH  36  37
DOCKED: ATOM     37  C   UNL d   1      -7.811 -15.597  12.737 -0.18 +0.05    +0.115 C 
DOCKED: BRANCH  37  38
DOCKED: ATOM     38  C   UNL d   1      -8.499 -16.797  12.151 -0.17 +0.09    +0.139 C 
DOCKED: ATOM     39  O   UNL d   1      -9.046 -17.618  12.872 -0.01 -0.34    -0.650 OA
DOCKED: BRANCH  38  40
DOCKED: ATOM     40  O   UNL d   1      -8.515 -16.978  10.819 -0.12 -1.12    -0.776 OA
DOCKED: ATOM     41  H   UNL d   1      -8.606 -16.207  10.241 -0.43 +0.30    +0.167 HD
DOCKED: ENDBRANCH  38  40
DOCKED: ENDBRANCH  37  38
DOCKED: ENDBRANCH  36  37
DOCKED: ENDBRANCH  22  36
DOCKED: BRANCH  12  42
DOCKED: ATOM     42  C   UNL d   1      -0.010  -7.084  13.599 -0.22 +0.00    +0.004 C 
DOCKED: ATOM     43  C   UNL d   1      -0.118  -5.749  13.625 -0.39 -0.00    +0.012 C 
DOCKED: ENDBRANCH  12  42
DOCKED: BRANCH  17  44
DOCKED: ATOM     44  C   UNL d   1      -6.563  -8.848  17.801 -0.15 +0.00    +0.004 C 
DOCKED: ATOM     45  C   UNL d   1      -7.781  -8.315  17.662 -0.24 -0.00    +0.012 C 
DOCKED: ENDBRANCH  17  44
DOCKED: TORSDOF 10
DOCKED: TER
DOCKED: ENDMDL
________________________________________________________________________________


	BEGINNING GENETIC ALGORITHM DOCKING 11 of 100
Run: 11 Seed: 1399658575 1836667230 [ Run 11 of 100 GA/GALS ]
Beginning LAMARCKIAN GENETIC ALGORITHM (LGA), with a maximum of 25000000 energy evaluations.

Final-Value: -20.277


	FINAL GENETIC ALGORITHM DOCKED STATE
	_______________________________________________


Detailed state:  trans -0.220 -1.611 -9.271 quatxyzw 0.582174 0.369732 0.458941 0.560130 center -0.174 -0.001 -0.047 ntor 10 -57.5072 -62.2490 74.7918 -101.1458 8.6005 151.7169 -57.5125 51.2418 -171.3391 179.7565
State:	 -0.220  -1.611  -9.271   0.703  0.446  0.554 111.870    -57.51  -62.25   74.79 -101.15    8.60  151.72  -57.51   51.24 -171.34  179.76

DOCKED: MODEL       11
DOCKED: USER    Run = 11
DOCKED: USER    DPF = D:/Protein_go_brrr/autodock/final/AncB/heme_Fe/dock.dpf
DOCKED: USER  
DOCKED: USER    Estimated Free Energy of Binding    =  -14.74 kcal/mol  [=(1)+(2)+(3)-(4)]
DOCKED: USER    Estimated Inhibition Constant, Ki   =   15.66 pM (picomolar)  [Temperature = 298.15 K]
DOCKED: USER    
DOCKED: USER    (1) Final Intermolecular Energy     =  -17.72 kcal/mol
DOCKED: USER        vdW + Hbond + desolv Energy     =  -14.19 kcal/mol
DOCKED: USER        Electrostatic Energy            =   -3.54 kcal/mol
DOCKED: USER    (2) Final Total Internal Energy     =   -2.55 kcal/mol
DOCKED: USER    (3) Torsional Free Energy           =   +2.98 kcal/mol
DOCKED: USER    (4) Unbound System's Energy  [=(2)] =   -2.55 kcal/mol
DOCKED: USER    
DOCKED: USER    
DOCKED: USER    NEWDPF move heme_Fe_opt.pdbqt
DOCKED: USER    NEWDPF about -0.174000 -0.001000 -0.047000
DOCKED: USER    NEWDPF tran0 -0.219580 -1.611116 -9.271219
DOCKED: USER    NEWDPF quaternion0 0.582174 0.369732 0.458941 0.560130
DOCKED: USER    NEWDPF axisangle0 0.702765 0.446318 0.554006 111.870487
DOCKED: USER    NEWDPF quat0 0.702765 0.446318 0.554006 111.870487
DOCKED: USER    NEWDPF dihe0 -57.51 -62.25 74.79 -101.15 8.60 151.72 -57.51 51.24 -171.34 179.76 
DOCKED: USER  keepresnum = 1 
DOCKED: USER  
DOCKED: REMARK  10 active torsions:
DOCKED: REMARK  status: ('A' for Active; 'I' for Inactive)
DOCKED: REMARK    1  A    between atoms: C_6  and  C_10 
DOCKED: REMARK    2  A    between atoms: C_10  and  C_11 
DOCKED: REMARK    3  A    between atoms: C_11  and  C_12 
DOCKED: REMARK    4  A    between atoms: C_12  and  O_14 
DOCKED: REMARK    5  A    between atoms: C_17  and  C_20 
DOCKED: REMARK    6  A    between atoms: C_24  and  C_27 
DOCKED: REMARK    7  A    between atoms: C_31  and  C_34 
DOCKED: REMARK    8  A    between atoms: C_34  and  C_35 
DOCKED: REMARK    9  A    between atoms: C_35  and  C_36 
DOCKED: REMARK   10  A    between atoms: C_36  and  O_38 
DOCKED: USER                              x       y       z     vdW  Elec       q    Type
DOCKED: USER                           _______ _______ _______ _____ _____    ______ ____
DOCKED: ROOT
DOCKED: ATOM      1  C   UNL d   1      -0.816  -0.912 -11.106 -0.24 +0.05    +0.064 C 
DOCKED: ATOM      2  C   UNL d   1      -2.865  -1.080  -6.611 -0.40 +0.02    +0.064 A 
DOCKED: ATOM      3  C   UNL d   1       1.456  -2.051  -4.753 -0.43 +0.01    +0.064 C 
DOCKED: ATOM      4  C   UNL d   1       3.441  -1.997  -9.106 -0.51 +0.02    +0.064 C 
DOCKED: ATOM      5  C   UNL d   1      -1.808  -0.952 -10.023 -0.32 +0.05    +0.066 A 
DOCKED: ATOM      6  C   UNL d   1      -3.177  -0.826 -10.198 -0.29 -0.02    -0.021 A 
DOCKED: ATOM      7  C   UNL d   1      -3.744  -0.869  -8.949 -0.29 -0.01    -0.025 A 
DOCKED: ATOM      8  C   UNL d   1      -2.700  -1.020  -8.058 -0.35 +0.03    +0.066 A 
DOCKED: ATOM      9  C   UNL d   1      -5.208  -0.788  -8.642 -0.30 +0.02    +0.051 C 
DOCKED: ATOM     10  C   UNL d   1      -1.881  -1.283  -5.733 -0.40 +0.02    +0.066 A 
DOCKED: ATOM     11  C   UNL d   1      -2.054  -1.221  -4.348 -0.44 -0.00    -0.021 A 
DOCKED: ATOM     12  C   UNL d   1      -0.818  -1.481  -3.790 -0.40 +0.00    +0.000 A 
DOCKED: ATOM     13  C   UNL d   1       0.054  -1.682  -4.874 -0.38 +0.02    +0.070 A 
DOCKED: ATOM     14  C   UNL d   1      -3.318  -0.864  -3.595 -0.60 +0.01    +0.052 C 
DOCKED: ATOM     15  C   UNL d   1       2.312  -2.195  -5.792 -0.39 +0.02    +0.066 A 
DOCKED: ATOM     16  C   UNL d   1       3.617  -2.646  -5.643 -0.47 -0.00    -0.021 A 
DOCKED: ATOM     17  C   UNL d   1       4.193  -2.628  -6.896 -0.50 +0.00    +0.000 A 
DOCKED: ATOM     18  C   UNL d   1       3.224  -2.161  -7.782 -0.42 +0.02    +0.070 A 
DOCKED: ATOM     19  C   UNL d   1       4.308  -3.054  -4.369 -0.63 +0.01    +0.052 C 
DOCKED: ATOM     20  C   UNL d   1       2.428  -1.568 -10.078 -0.42 +0.02    +0.066 A 
DOCKED: ATOM     21  C   UNL d   1       2.685  -1.203 -11.407 -0.42 -0.01    -0.025 A 
DOCKED: ATOM     22  C   UNL d   1       1.456  -0.909 -11.962 -0.21 -0.01    -0.021 A 
DOCKED: ATOM     23  C   UNL d   1       0.504  -1.100 -10.953 -0.07 +0.04    +0.066 A 
DOCKED: ATOM     24  C   UNL d   1       4.012  -1.126 -12.125 -0.53 +0.01    +0.051 C 
DOCKED: ATOM     25  N   UNL d   1      -1.524  -1.080  -8.715 -0.24 -0.12    -0.248 N 
DOCKED: ATOM     26  N   UNL d   1      -0.591  -1.553  -6.059 -0.25 -0.07    -0.248 N 
DOCKED: ATOM     27  N   UNL d   1       2.055  -1.936  -7.112 -0.18 -0.10    -0.248 N 
DOCKED: ATOM     28  N   UNL d   1       1.108  -1.458  -9.794 -0.24 -0.13    -0.248 N 
DOCKED: ATOM     29 FE   UNL d   1       0.260  -1.505  -7.927 -0.09 +0.00    +0.000 Fe
DOCKED: ENDROOT
DOCKED: BRANCH   6  30
DOCKED: ATOM     30  C   UNL d   1      -3.911  -0.693 -11.488 -0.17 +0.08    +0.052 C 
DOCKED: BRANCH  30  31
DOCKED: ATOM     31  C   UNL d   1      -3.889   0.752 -11.976 -0.21 +0.14    +0.115 C 
DOCKED: BRANCH  31  32
DOCKED: ATOM     32  C   UNL d   1      -3.280   0.835 -13.348 -0.17 +0.22    +0.139 C 
DOCKED: ATOM     33  O   UNL d   1      -3.028  -0.181 -13.980 +0.13 -1.54    -0.650 OA
DOCKED: BRANCH  32  34
DOCKED: ATOM     34  O   UNL d   1      -3.008   2.032 -13.894 -0.31 -1.59    -0.776 OA
DOCKED: ATOM     35  H   UNL d   1      -2.100   2.227 -14.169 +0.03 +0.30    +0.167 HD
DOCKED: ENDBRANCH  32  34
DOCKED: ENDBRANCH  31  32
DOCKED: ENDBRANCH  30  31
DOCKED: ENDBRANCH   6  30
DOCKED: BRANCH  22  36
DOCKED: ATOM     36  C   UNL d   1       1.219  -0.426 -13.368 -0.26 +0.03    +0.052 C 
DOCKED: BRANCH  36  37
DOCKED: ATOM     37  C   UNL d   1       1.430   1.079 -13.436 -0.16 +0.06    +0.115 C 
DOCKED: BRANCH  37  38
DOCKED: ATOM     38  C   UNL d   1       0.266   1.757 -14.103 -0.17 +0.11    +0.139 C 
DOCKED: ATOM     39  O   UNL d   1      -0.030   2.909 -13.824 -0.43 -0.71    -0.650 OA
DOCKED: BRANCH  38  40
DOCKED: ATOM     40  O   UNL d   1      -0.465   1.092 -15.015 +0.07 -0.72    -0.776 OA
DOCKED: ATOM     41  H   UNL d   1      -1.402   0.928 -14.837 +0.04 +0.20    +0.167 HD
DOCKED: ENDBRANCH  38  40
DOCKED: ENDBRANCH  37  38
DOCKED: ENDBRANCH  36  37
DOCKED: ENDBRANCH  22  36
DOCKED: BRANCH  12  42
DOCKED: ATOM     42  C   UNL d   1      -0.531  -1.508  -2.322 -0.50 +0.00    +0.004 C 
DOCKED: ATOM     43  C   UNL d   1      -0.014  -2.598  -1.740 -0.57 +0.00    +0.012 C 
DOCKED: ENDBRANCH  12  42
DOCKED: BRANCH  17  44
DOCKED: ATOM     44  C   UNL d   1       5.573  -3.049  -7.228 -0.47 +0.00    +0.004 C 
DOCKED: ATOM     45  C   UNL d   1       6.611  -2.630  -6.497 -0.62 +0.00    +0.012 C 
DOCKED: ENDBRANCH  17  44
DOCKED: TORSDOF 10
DOCKED: TER
DOCKED: ENDMDL
________________________________________________________________________________


	BEGINNING GENETIC ALGORITHM DOCKING 12 of 100
Run: 12 Seed: 1806766760 558503653 [ Run 12 of 100 GA/GALS ]
Beginning LAMARCKIAN GENETIC ALGORITHM (LGA), with a maximum of 25000000 energy evaluations.

Final-Value: -18.822


	FINAL GENETIC ALGORITHM DOCKED STATE
	_______________________________________________


Detailed state:  trans -0.472 -0.953 -9.070 quatxyzw 0.624738 -0.446807 0.274924 -0.578345 center -0.174 -0.001 -0.047 ntor 10 -41.1550 115.0735 78.3999 -135.6199 -137.7047 88.6342 21.0172 -12.3833 -48.3221 17.5461
State:	 -0.472  -0.953  -9.070   0.766 -0.548  0.337 -109.332    -41.15  115.07   78.40 -135.62 -137.70   88.63   21.02  -12.38  -48.32   17.55

DOCKED: MODEL       12
DOCKED: USER    Run = 12
DOCKED: USER    DPF = D:/Protein_go_brrr/autodock/final/AncB/heme_Fe/dock.dpf
DOCKED: USER  
DOCKED: USER    Estimated Free Energy of Binding    =  -14.10 kcal/mol  [=(1)+(2)+(3)-(4)]
DOCKED: USER    Estimated Inhibition Constant, Ki   =   45.92 pM (picomolar)  [Temperature = 298.15 K]
DOCKED: USER    
DOCKED: USER    (1) Final Intermolecular Energy     =  -17.09 kcal/mol
DOCKED: USER        vdW + Hbond + desolv Energy     =  -13.80 kcal/mol
DOCKED: USER        Electrostatic Energy            =   -3.29 kcal/mol
DOCKED: USER    (2) Final Total Internal Energy     =   -1.74 kcal/mol
DOCKED: USER    (3) Torsional Free Energy           =   +2.98 kcal/mol
DOCKED: USER    (4) Unbound System's Energy  [=(2)] =   -1.74 kcal/mol
DOCKED: USER    
DOCKED: USER    
DOCKED: USER    NEWDPF move heme_Fe_opt.pdbqt
DOCKED: USER    NEWDPF about -0.174000 -0.001000 -0.047000
DOCKED: USER    NEWDPF tran0 -0.472375 -0.953104 -9.070122
DOCKED: USER    NEWDPF quaternion0 0.624738 -0.446807 0.274924 -0.578345
DOCKED: USER    NEWDPF axisangle0 0.765805 -0.547697 0.337003 -109.331504
DOCKED: USER    NEWDPF quat0 0.765805 -0.547697 0.337003 -109.331504
DOCKED: USER    NEWDPF dihe0 -41.15 115.07 78.40 -135.62 -137.70 88.63 21.02 -12.38 -48.32 17.55 
DOCKED: USER  keepresnum = 1 
DOCKED: USER  
DOCKED: REMARK  10 active torsions:
DOCKED: REMARK  status: ('A' for Active; 'I' for Inactive)
DOCKED: REMARK    1  A    between atoms: C_6  and  C_10 
DOCKED: REMARK    2  A    between atoms: C_10  and  C_11 
DOCKED: REMARK    3  A    between atoms: C_11  and  C_12 
DOCKED: REMARK    4  A    between atoms: C_12  and  O_14 
DOCKED: REMARK    5  A    between atoms: C_17  and  C_20 
DOCKED: REMARK    6  A    between atoms: C_24  and  C_27 
DOCKED: REMARK    7  A    between atoms: C_31  and  C_34 
DOCKED: REMARK    8  A    between atoms: C_34  and  C_35 
DOCKED: REMARK    9  A    between atoms: C_35  and  C_36 
DOCKED: REMARK   10  A    between atoms: C_36  and  O_38 
DOCKED: USER                              x       y       z     vdW  Elec       q    Type
DOCKED: USER                           _______ _______ _______ _____ _____    ______ ____
DOCKED: ROOT
DOCKED: ATOM      1  C   UNL d   1      -1.403  -0.996 -10.898 -0.35 +0.06    +0.064 C 
DOCKED: ATOM      2  C   UNL d   1       3.186  -1.913  -9.307 -0.46 +0.02    +0.064 A 
DOCKED: ATOM      3  C   UNL d   1       1.517  -2.086  -4.807 -0.43 +0.01    +0.064 C 
DOCKED: ATOM      4  C   UNL d   1      -2.914  -1.095  -6.315 -0.48 +0.02    +0.064 C 
DOCKED: ATOM      5  C   UNL d   1       0.057  -1.155 -10.860 -0.15 +0.04    +0.066 A 
DOCKED: ATOM      6  C   UNL d   1       0.893  -1.051 -11.959 -0.22 -0.01    -0.021 A 
DOCKED: ATOM      7  C   UNL d   1       2.167  -1.310 -11.517 -0.34 -0.01    -0.025 A 
DOCKED: ATOM      8  C   UNL d   1       2.059  -1.562 -10.163 -0.40 +0.03    +0.066 A 
DOCKED: ATOM      9  C   UNL d   1       3.411  -1.294 -12.351 -0.47 +0.01    +0.051 C 
DOCKED: ATOM     10  C   UNL d   1       3.118  -2.104  -7.989 -0.42 +0.02    +0.066 A 
DOCKED: ATOM     11  C   UNL d   1       4.191  -2.552  -7.215 -0.49 -0.01    -0.021 A 
DOCKED: ATOM     12  C   UNL d   1       3.731  -2.626  -5.915 -0.49 +0.00    +0.000 A 
DOCKED: ATOM     13  C   UNL d   1       2.385  -2.224  -5.966 -0.39 +0.02    +0.070 A 
DOCKED: ATOM     14  C   UNL d   1       5.569  -2.955  -7.700 -0.41 +0.01    +0.052 C 
DOCKED: ATOM     15  C   UNL d   1       0.206  -1.749  -4.856 -0.39 +0.01    +0.066 A 
DOCKED: ATOM     16  C   UNL d   1      -0.564  -1.530  -3.721 -0.39 -0.00    -0.021 A 
DOCKED: ATOM     17  C   UNL d   1      -1.843  -1.247  -4.153 -0.42 +0.00    +0.000 A 
DOCKED: ATOM     18  C   UNL d   1      -1.824  -1.305  -5.545 -0.40 +0.02    +0.070 A 
DOCKED: ATOM     19  C   UNL d   1      -0.123  -1.607  -2.283 -0.43 +0.01    +0.052 C 
DOCKED: ATOM     20  C   UNL d   1      -2.919  -1.087  -7.782 -0.35 +0.03    +0.066 A 
DOCKED: ATOM     21  C   UNL d   1      -4.066  -1.071  -8.588 -0.24 -0.01    -0.025 A 
DOCKED: ATOM     22  C   UNL d   1      -3.612  -1.030  -9.891 -0.27 -0.02    -0.021 A 
DOCKED: ATOM     23  C   UNL d   1      -2.214  -1.029  -9.829 -0.32 +0.05    +0.066 A 
DOCKED: ATOM     24  C   UNL d   1      -5.517  -1.096  -8.165 -0.23 +0.02    +0.051 C 
DOCKED: ATOM     25  N   UNL d   1       0.776  -1.458  -9.764 -0.22 -0.13    -0.248 N 
DOCKED: ATOM     26  N   UNL d   1       2.008  -1.914  -7.230 -0.16 -0.11    -0.248 N 
DOCKED: ATOM     27  N   UNL d   1      -0.556  -1.570  -5.979 -0.25 -0.07    -0.248 N 
DOCKED: ATOM     28  N   UNL d   1      -1.797  -1.110  -8.541 -0.24 -0.12    -0.248 N 
DOCKED: ATOM     29 FE   UNL d   1       0.104  -1.512  -7.885 -0.09 +0.00    +0.000 Fe
DOCKED: ENDROOT
DOCKED: BRANCH   6  30
DOCKED: ATOM     30  C   UNL d   1       0.507  -0.703 -13.356 -0.26 +0.04    +0.052 C 
DOCKED: BRANCH  30  31
DOCKED: ATOM     31  C   UNL d   1      -0.528   0.417 -13.367 -0.17 +0.11    +0.115 C 
DOCKED: BRANCH  31  32
DOCKED: ATOM     32  C   UNL d   1      -1.283   0.423 -14.667 -0.12 +0.17    +0.139 C 
DOCKED: ATOM     33  O   UNL d   1      -1.535   1.475 -15.237 +0.01 -0.78    -0.650 OA
DOCKED: BRANCH  32  34
DOCKED: ATOM     34  O   UNL d   1      -1.689  -0.734 -15.217 -0.49 -1.46    -0.776 OA
DOCKED: ATOM     35  H   UNL d   1      -2.569  -0.781 -15.615 +0.02 +0.39    +0.167 HD
DOCKED: ENDBRANCH  32  34
DOCKED: ENDBRANCH  31  32
DOCKED: ENDBRANCH  30  31
DOCKED: ENDBRANCH   6  30
DOCKED: BRANCH  22  36
DOCKED: ATOM     36  C   UNL d   1      -4.476  -1.041 -11.124 -0.22 +0.07    +0.052 C 
DOCKED: BRANCH  36  37
DOCKED: ATOM     37  C   UNL d   1      -4.330   0.281 -11.865 -0.19 +0.14    +0.115 C 
DOCKED: BRANCH  37  38
DOCKED: ATOM     38  C   UNL d   1      -4.914   0.191 -13.246 -0.12 +0.21    +0.139 C 
DOCKED: ATOM     39  O   UNL d   1      -6.094   0.441 -13.443 +0.02 -0.70    -0.650 OA
DOCKED: BRANCH  38  40
DOCKED: ATOM     40  O   UNL d   1      -4.136  -0.171 -14.282 +0.15 -1.67    -0.776 OA
DOCKED: ATOM     41  H   UNL d   1      -3.408   0.408 -14.548 +0.02 +0.30    +0.167 HD
DOCKED: ENDBRANCH  38  40
DOCKED: ENDBRANCH  37  38
DOCKED: ENDBRANCH  36  37
DOCKED: ENDBRANCH  22  36
DOCKED: BRANCH  12  42
DOCKED: ATOM     42  C   UNL d   1       4.546  -3.072  -4.743 -0.67 +0.00    +0.004 C 
DOCKED: ATOM     43  C   UNL d   1       4.656  -2.307  -3.649 -0.61 +0.00    +0.012 C 
DOCKED: ENDBRANCH  12  42
DOCKED: BRANCH  17  44
DOCKED: ATOM     44  C   UNL d   1      -3.002  -0.923  -3.291 -0.61 +0.00    +0.004 C 
DOCKED: ATOM     45  C   UNL d   1      -3.709  -1.892  -2.701 -0.66 +0.00    +0.012 C 
DOCKED: ENDBRANCH  17  44
DOCKED: TORSDOF 10
DOCKED: TER
DOCKED: ENDMDL
________________________________________________________________________________


	BEGINNING GENETIC ALGORITHM DOCKING 13 of 100
Run: 13 Seed: 766618673 1092682092 [ Run 13 of 100 GA/GALS ]
Beginning LAMARCKIAN GENETIC ALGORITHM (LGA), with a maximum of 25000000 energy evaluations.

Final-Value: -19.901


	FINAL GENETIC ALGORITHM DOCKED STATE
	_______________________________________________


Detailed state:  trans -0.225 -1.643 -8.988 quatxyzw -0.582423 -0.366944 -0.462602 -0.558691 center -0.174 -0.001 -0.047 ntor 10 -103.5132 45.4662 72.7846 -118.3934 6.6864 173.3487 -3.6056 -46.2227 -144.5770 37.7034
State:	 -0.225  -1.643  -8.988  -0.702 -0.442 -0.558 -112.069   -103.51   45.47   72.78 -118.39    6.69  173.35   -3.61  -46.22 -144.58   37.70

DOCKED: MODEL       13
DOCKED: USER    Run = 13
DOCKED: USER    DPF = D:/Protein_go_brrr/autodock/final/AncB/heme_Fe/dock.dpf
DOCKED: USER  
DOCKED: USER    Estimated Free Energy of Binding    =  -15.07 kcal/mol  [=(1)+(2)+(3)-(4)]
DOCKED: USER    Estimated Inhibition Constant, Ki   =    8.95 pM (picomolar)  [Temperature = 298.15 K]
DOCKED: USER    
DOCKED: USER    (1) Final Intermolecular Energy     =  -18.06 kcal/mol
DOCKED: USER        vdW + Hbond + desolv Energy     =  -14.57 kcal/mol
DOCKED: USER        Electrostatic Energy            =   -3.49 kcal/mol
DOCKED: USER    (2) Final Total Internal Energy     =   -1.85 kcal/mol
DOCKED: USER    (3) Torsional Free Energy           =   +2.98 kcal/mol
DOCKED: USER    (4) Unbound System's Energy  [=(2)] =   -1.85 kcal/mol
DOCKED: USER    
DOCKED: USER    
DOCKED: USER    NEWDPF move heme_Fe_opt.pdbqt
DOCKED: USER    NEWDPF about -0.174000 -0.001000 -0.047000
DOCKED: USER    NEWDPF tran0 -0.225151 -1.642530 -8.987925
DOCKED: USER    NEWDPF quaternion0 -0.582423 -0.366944 -0.462602 -0.558691
DOCKED: USER    NEWDPF axisangle0 -0.702242 -0.442434 -0.557771 -112.069424
DOCKED: USER    NEWDPF quat0 -0.702242 -0.442434 -0.557771 -112.069424
DOCKED: USER    NEWDPF dihe0 -103.51 45.47 72.78 -118.39 6.69 173.35 -3.61 -46.22 -144.58 37.70 
DOCKED: USER  keepresnum = 1 
DOCKED: USER  
DOCKED: REMARK  10 active torsions:
DOCKED: REMARK  status: ('A' for Active; 'I' for Inactive)
DOCKED: REMARK    1  A    between atoms: C_6  and  C_10 
DOCKED: REMARK    2  A    between atoms: C_10  and  C_11 
DOCKED: REMARK    3  A    between atoms: C_11  and  C_12 
DOCKED: REMARK    4  A    between atoms: C_12  and  O_14 
DOCKED: REMARK    5  A    between atoms: C_17  and  C_20 
DOCKED: REMARK    6  A    between atoms: C_24  and  C_27 
DOCKED: REMARK    7  A    between atoms: C_31  and  C_34 
DOCKED: REMARK    8  A    between atoms: C_34  and  C_35 
DOCKED: REMARK    9  A    between atoms: C_35  and  C_36 
DOCKED: REMARK   10  A    between atoms: C_36  and  O_38 
DOCKED: USER                              x       y       z     vdW  Elec       q    Type
DOCKED: USER                           _______ _______ _______ _____ _____    ______ ____
DOCKED: ROOT
DOCKED: ATOM      1  C   UNL d   1      -0.812  -0.932 -10.821 -0.23 +0.05    +0.064 C 
DOCKED: ATOM      2  C   UNL d   1      -2.871  -1.097  -6.331 -0.42 +0.02    +0.064 A 
DOCKED: ATOM      3  C   UNL d   1       1.437  -2.113  -4.468 -0.41 +0.01    +0.064 C 
DOCKED: ATOM      4  C   UNL d   1       3.431  -2.062  -8.816 -0.51 +0.02    +0.064 C 
DOCKED: ATOM      5  C   UNL d   1      -1.806  -0.967  -9.740 -0.32 +0.04    +0.066 A 
DOCKED: ATOM      6  C   UNL d   1      -3.173  -0.828  -9.918 -0.30 -0.02    -0.021 A 
DOCKED: ATOM      7  C   UNL d   1      -3.744  -0.870  -8.670 -0.31 -0.01    -0.025 A 
DOCKED: ATOM      8  C   UNL d   1      -2.703  -1.034  -7.778 -0.37 +0.03    +0.066 A 
DOCKED: ATOM      9  C   UNL d   1      -5.208  -0.778  -8.365 -0.31 +0.02    +0.051 C 
DOCKED: ATOM     10  C   UNL d   1      -1.891  -1.311  -5.452 -0.41 +0.02    +0.066 A 
DOCKED: ATOM     11  C   UNL d   1      -2.065  -1.253  -4.067 -0.43 -0.00    -0.021 A 
DOCKED: ATOM     12  C   UNL d   1      -0.833  -1.526  -3.507 -0.41 +0.00    +0.000 A 
DOCKED: ATOM     13  C   UNL d   1       0.039  -1.730  -4.590 -0.38 +0.01    +0.070 A 
DOCKED: ATOM     14  C   UNL d   1      -3.329  -0.887  -3.315 -0.62 +0.01    +0.052 C 
DOCKED: ATOM     15  C   UNL d   1       2.294  -2.260  -5.506 -0.39 +0.01    +0.066 A 
DOCKED: ATOM     16  C   UNL d   1       3.595  -2.723  -5.355 -0.49 -0.00    -0.021 A 
DOCKED: ATOM     17  C   UNL d   1       4.173  -2.706  -6.608 -0.50 +0.00    +0.000 A 
DOCKED: ATOM     18  C   UNL d   1       3.211  -2.228  -7.494 -0.41 +0.02    +0.070 A 
DOCKED: ATOM     19  C   UNL d   1       4.279  -3.142  -4.082 -0.63 +0.01    +0.052 C 
DOCKED: ATOM     20  C   UNL d   1       2.424  -1.620  -9.789 -0.43 +0.03    +0.066 A 
DOCKED: ATOM     21  C   UNL d   1       2.687  -1.253 -11.116 -0.43 -0.01    -0.025 A 
DOCKED: ATOM     22  C   UNL d   1       1.462  -0.947 -11.673 -0.15 -0.01    -0.021 A 
DOCKED: ATOM     23  C   UNL d   1       0.506  -1.132 -10.667 -0.05 +0.04    +0.066 A 
DOCKED: ATOM     24  C   UNL d   1       4.016  -1.186 -11.831 -0.54 +0.01    +0.051 C 
DOCKED: ATOM     25  N   UNL d   1      -1.526  -1.102  -8.432 -0.24 -0.12    -0.248 N 
DOCKED: ATOM     26  N   UNL d   1      -0.603  -1.591  -5.776 -0.26 -0.07    -0.248 N 
DOCKED: ATOM     27  N   UNL d   1       2.042  -1.995  -6.825 -0.21 -0.09    -0.248 N 
DOCKED: ATOM     28  N   UNL d   1       1.104  -1.499  -9.507 -0.20 -0.14    -0.248 N 
DOCKED: ATOM     29 FE   UNL d   1       0.253  -1.546  -7.642 -0.09 +0.00    +0.000 Fe
DOCKED: ENDROOT
DOCKED: BRANCH   6  30
DOCKED: ATOM     30  C   UNL d   1      -3.904  -0.684 -11.209 -0.23 +0.07    +0.052 C 
DOCKED: BRANCH  30  31
DOCKED: ATOM     31  C   UNL d   1      -3.358   0.492 -12.011 -0.22 +0.15    +0.115 C 
DOCKED: BRANCH  31  32
DOCKED: ATOM     32  C   UNL d   1      -4.040   0.579 -13.348 -0.15 +0.22    +0.139 C 
DOCKED: ATOM     33  O   UNL d   1      -4.984  -0.151 -13.615 +0.02 -1.10    -0.650 OA
DOCKED: BRANCH  32  34
DOCKED: ATOM     34  O   UNL d   1      -3.615   1.464 -14.266 -0.35 -1.36    -0.776 OA
DOCKED: ATOM     35  H   UNL d   1      -2.807   1.273 -14.763 +0.03 +0.26    +0.167 HD
DOCKED: ENDBRANCH  32  34
DOCKED: ENDBRANCH  31  32
DOCKED: ENDBRANCH  30  31
DOCKED: ENDBRANCH   6  30
DOCKED: BRANCH  22  36
DOCKED: ATOM     36  C   UNL d   1       1.232  -0.457 -13.078 -0.27 +0.03    +0.052 C 
DOCKED: BRANCH  36  37
DOCKED: ATOM     37  C   UNL d   1       0.064  -1.209 -13.699 -0.22 +0.11    +0.115 C 
DOCKED: BRANCH  37  38
DOCKED: ATOM     38  C   UNL d   1      -0.889  -0.263 -14.372 -0.14 +0.18    +0.139 C 
DOCKED: ATOM     39  O   UNL d   1      -1.826  -0.685 -15.034 -0.46 -1.35    -0.650 OA
DOCKED: BRANCH  38  40
DOCKED: ATOM     40  O   UNL d   1      -0.714   1.065 -14.252 +0.06 -0.80    -0.776 OA
DOCKED: ATOM     41  H   UNL d   1      -1.479   1.624 -14.058 +0.04 +0.22    +0.167 HD
DOCKED: ENDBRANCH  38  40
DOCKED: ENDBRANCH  37  38
DOCKED: ENDBRANCH  36  37
DOCKED: ENDBRANCH  22  36
DOCKED: BRANCH  12  42
DOCKED: ATOM     42  C   UNL d   1      -0.549  -1.559  -2.039 -0.51 +0.00    +0.004 C 
DOCKED: ATOM     43  C   UNL d   1      -0.081  -2.669  -1.453 -0.59 +0.00    +0.012 C 
DOCKED: ENDBRANCH  12  42
DOCKED: BRANCH  17  44
DOCKED: ATOM     44  C   UNL d   1       5.550  -3.138  -6.938 -0.46 +0.00    +0.004 C 
DOCKED: ATOM     45  C   UNL d   1       6.609  -2.487  -6.446 -0.65 +0.00    +0.012 C 
DOCKED: ENDBRANCH  17  44
DOCKED: TORSDOF 10
DOCKED: TER
DOCKED: ENDMDL
________________________________________________________________________________


	BEGINNING GENETIC ALGORITHM DOCKING 14 of 100
Run: 14 Seed: 652690075 1544665282 [ Run 14 of 100 GA/GALS ]
Beginning LAMARCKIAN GENETIC ALGORITHM (LGA), with a maximum of 25000000 energy evaluations.

Final-Value: -19.880


	FINAL GENETIC ALGORITHM DOCKED STATE
	_______________________________________________


Detailed state:  trans -0.167 -1.677 -9.152 quatxyzw -0.580507 -0.381185 -0.450963 -0.560662 center -0.174 -0.001 -0.047 ntor 10 47.9059 -54.0471 69.2527 -113.6633 177.4708 162.6971 -59.2103 55.6365 -178.3421 -169.6434
State:	 -0.167  -1.677  -9.152  -0.701 -0.460 -0.545 -111.797     47.91  -54.05   69.25 -113.66  177.47  162.70  -59.21   55.64 -178.34 -169.64

DOCKED: MODEL       14
DOCKED: USER    Run = 14
DOCKED: USER    DPF = D:/Protein_go_brrr/autodock/final/AncB/heme_Fe/dock.dpf
DOCKED: USER  
DOCKED: USER    Estimated Free Energy of Binding    =  -14.87 kcal/mol  [=(1)+(2)+(3)-(4)]
DOCKED: USER    Estimated Inhibition Constant, Ki   =   12.64 pM (picomolar)  [Temperature = 298.15 K]
DOCKED: USER    
DOCKED: USER    (1) Final Intermolecular Energy     =  -17.85 kcal/mol
DOCKED: USER        vdW + Hbond + desolv Energy     =  -14.47 kcal/mol
DOCKED: USER        Electrostatic Energy            =   -3.38 kcal/mol
DOCKED: USER    (2) Final Total Internal Energy     =   -2.03 kcal/mol
DOCKED: USER    (3) Torsional Free Energy           =   +2.98 kcal/mol
DOCKED: USER    (4) Unbound System's Energy  [=(2)] =   -2.03 kcal/mol
DOCKED: USER    
DOCKED: USER    
DOCKED: USER    NEWDPF move heme_Fe_opt.pdbqt
DOCKED: USER    NEWDPF about -0.174000 -0.001000 -0.047000
DOCKED: USER    NEWDPF tran0 -0.167337 -1.677137 -9.152423
DOCKED: USER    NEWDPF quaternion0 -0.580507 -0.381185 -0.450963 -0.560662
DOCKED: USER    NEWDPF axisangle0 -0.701058 -0.460344 -0.544612 -111.796864
DOCKED: USER    NEWDPF quat0 -0.701058 -0.460344 -0.544612 -111.796864
DOCKED: USER    NEWDPF dihe0 47.91 -54.05 69.25 -113.66 177.47 162.70 -59.21 55.64 -178.34 -169.64 
DOCKED: USER  keepresnum = 1 
DOCKED: USER  
DOCKED: REMARK  10 active torsions:
DOCKED: REMARK  status: ('A' for Active; 'I' for Inactive)
DOCKED: REMARK    1  A    between atoms: C_6  and  C_10 
DOCKED: REMARK    2  A    between atoms: C_10  and  C_11 
DOCKED: REMARK    3  A    between atoms: C_11  and  C_12 
DOCKED: REMARK    4  A    between atoms: C_12  and  O_14 
DOCKED: REMARK    5  A    between atoms: C_17  and  C_20 
DOCKED: REMARK    6  A    between atoms: C_24  and  C_27 
DOCKED: REMARK    7  A    between atoms: C_31  and  C_34 
DOCKED: REMARK    8  A    between atoms: C_34  and  C_35 
DOCKED: REMARK    9  A    between atoms: C_35  and  C_36 
DOCKED: REMARK   10  A    between atoms: C_36  and  O_38 
DOCKED: USER                              x       y       z     vdW  Elec       q    Type
DOCKED: USER                           _______ _______ _______ _____ _____    ______ ____
DOCKED: ROOT
DOCKED: ATOM      1  C   UNL d   1      -0.772  -1.018 -10.999 -0.28 +0.05    +0.064 C 
DOCKED: ATOM      2  C   UNL d   1      -2.838  -1.173  -6.512 -0.38 +0.02    +0.064 A 
DOCKED: ATOM      3  C   UNL d   1       1.496  -2.014  -4.621 -0.41 +0.01    +0.064 C 
DOCKED: ATOM      4  C   UNL d   1       3.500  -1.973  -8.965 -0.51 +0.02    +0.064 C 
DOCKED: ATOM      5  C   UNL d   1      -1.768  -1.067  -9.920 -0.32 +0.05    +0.066 A 
DOCKED: ATOM      6  C   UNL d   1      -3.138  -0.976 -10.104 -0.30 -0.02    -0.021 A 
DOCKED: ATOM      7  C   UNL d   1      -3.711  -1.015  -8.857 -0.28 -0.01    -0.025 A 
DOCKED: ATOM      8  C   UNL d   1      -2.667  -1.129  -7.959 -0.35 +0.03    +0.066 A 
DOCKED: ATOM      9  C   UNL d   1      -5.177  -0.966  -8.557 -0.27 +0.02    +0.051 C 
DOCKED: ATOM     10  C   UNL d   1      -1.854  -1.340  -5.627 -0.41 +0.02    +0.066 A 
DOCKED: ATOM     11  C   UNL d   1      -2.034  -1.263  -4.244 -0.44 -0.00    -0.021 A 
DOCKED: ATOM     12  C   UNL d   1      -0.795  -1.486  -3.676 -0.40 +0.00    +0.000 A 
DOCKED: ATOM     13  C   UNL d   1       0.087  -1.680  -4.753 -0.38 +0.01    +0.070 A 
DOCKED: ATOM     14  C   UNL d   1      -3.311  -0.926  -3.501 -0.62 +0.01    +0.052 C 
DOCKED: ATOM     15  C   UNL d   1       2.361  -2.152  -5.654 -0.39 +0.01    +0.066 A 
DOCKED: ATOM     16  C   UNL d   1       3.676  -2.569  -5.493 -0.48 -0.00    -0.021 A 
DOCKED: ATOM     17  C   UNL d   1       4.257  -2.554  -6.744 -0.50 +0.00    +0.000 A 
DOCKED: ATOM     18  C   UNL d   1       3.282  -2.124  -7.640 -0.42 +0.02    +0.070 A 
DOCKED: ATOM     19  C   UNL d   1       4.369  -2.943  -4.210 -0.64 +0.01    +0.052 C 
DOCKED: ATOM     20  C   UNL d   1       2.482  -1.581  -9.947 -0.43 +0.02    +0.066 A 
DOCKED: ATOM     21  C   UNL d   1       2.737  -1.229 -11.280 -0.43 -0.01    -0.025 A 
DOCKED: ATOM     22  C   UNL d   1       1.504  -0.973 -11.845 -0.23 -0.01    -0.021 A 
DOCKED: ATOM     23  C   UNL d   1       0.552  -1.172 -10.838 -0.09 +0.04    +0.066 A 
DOCKED: ATOM     24  C   UNL d   1       4.065  -1.131 -11.993 -0.53 +0.01    +0.051 C 
DOCKED: ATOM     25  N   UNL d   1      -1.487  -1.170  -8.609 -0.22 -0.12    -0.248 N 
DOCKED: ATOM     26  N   UNL d   1      -0.556  -1.583  -5.943 -0.25 -0.07    -0.248 N 
DOCKED: ATOM     27  N   UNL d   1       2.104  -1.918  -6.978 -0.21 -0.09    -0.248 N 
DOCKED: ATOM     28  N   UNL d   1       1.158  -1.499  -9.671 -0.23 -0.13    -0.248 N 
DOCKED: ATOM     29 FE   UNL d   1       0.303  -1.541  -7.807 -0.09 +0.00    +0.000 Fe
DOCKED: ENDROOT
DOCKED: BRANCH   6  30
DOCKED: ATOM     30  C   UNL d   1      -3.869  -0.878 -11.399 -0.14 +0.08    +0.052 C 
DOCKED: BRANCH  30  31
DOCKED: ATOM     31  C   UNL d   1      -4.030   0.578 -11.820 -0.21 +0.14    +0.115 C 
DOCKED: BRANCH  31  32
DOCKED: ATOM     32  C   UNL d   1      -3.385   0.813 -13.158 -0.18 +0.22    +0.139 C 
DOCKED: ATOM     33  O   UNL d   1      -3.446   1.910 -13.695 -0.39 -1.29    -0.650 OA
DOCKED: BRANCH  32  34
DOCKED: ATOM     34  O   UNL d   1      -2.734  -0.186 -13.778 +0.09 -1.75    -0.776 OA
DOCKED: ATOM     35  H   UNL d   1      -1.853  -0.019 -14.140 +0.03 +0.28    +0.167 HD
DOCKED: ENDBRANCH  32  34
DOCKED: ENDBRANCH  31  32
DOCKED: ENDBRANCH  30  31
DOCKED: ENDBRANCH   6  30
DOCKED: BRANCH  22  36
DOCKED: ATOM     36  C   UNL d   1       1.262  -0.515 -13.259 -0.27 +0.03    +0.052 C 
DOCKED: BRANCH  36  37
DOCKED: ATOM     37  C   UNL d   1       1.689   0.938 -13.408 -0.20 +0.06    +0.115 C 
DOCKED: BRANCH  37  38
DOCKED: ATOM     38  C   UNL d   1       0.565   1.776 -13.948 -0.18 +0.11    +0.139 C 
DOCKED: ATOM     39  O   UNL d   1       0.589   2.994 -13.848 -0.41 -0.59    -0.650 OA
DOCKED: BRANCH  38  40
DOCKED: ATOM     40  O   UNL d   1      -0.485   1.186 -14.548 +0.06 -0.75    -0.776 OA
DOCKED: ATOM     41  H   UNL d   1      -1.377   1.381 -14.230 +0.05 +0.21    +0.167 HD
DOCKED: ENDBRANCH  38  40
DOCKED: ENDBRANCH  37  38
DOCKED: ENDBRANCH  36  37
DOCKED: ENDBRANCH  22  36
DOCKED: BRANCH  12  42
DOCKED: ATOM     42  C   UNL d   1      -0.515  -1.485  -2.207 -0.50 +0.00    +0.004 C 
DOCKED: ATOM     43  C   UNL d   1      -0.078  -2.590  -1.588 -0.58 +0.00    +0.012 C 
DOCKED: ENDBRANCH  12  42
DOCKED: BRANCH  17  44
DOCKED: ATOM     44  C   UNL d   1       5.648  -2.947  -7.063 -0.54 +0.00    +0.004 C 
DOCKED: ATOM     45  C   UNL d   1       6.684  -2.312  -6.506 -0.66 +0.00    +0.012 C 
DOCKED: ENDBRANCH  17  44
DOCKED: TORSDOF 10
DOCKED: TER
DOCKED: ENDMDL
________________________________________________________________________________


	BEGINNING GENETIC ALGORITHM DOCKING 15 of 100
Run: 15 Seed: 1672247000 1470659708 [ Run 15 of 100 GA/GALS ]
Beginning LAMARCKIAN GENETIC ALGORITHM (LGA), with a maximum of 25000000 energy evaluations.

Final-Value: -12.394


	FINAL GENETIC ALGORITHM DOCKED STATE
	_______________________________________________


Detailed state:  trans 19.630 4.423 -1.995 quatxyzw 0.273175 -0.817007 -0.042092 -0.506066 center -0.174 -0.001 -0.047 ntor 10 50.8896 104.4752 -163.9749 -156.7542 -125.6838 173.3437 -107.3667 118.9408 176.3564 -157.6136
State:	 19.630   4.423  -1.995   0.317 -0.947 -0.049 -119.196     50.89  104.48 -163.97 -156.75 -125.68  173.34 -107.37  118.94  176.36 -157.61

DOCKED: MODEL       15
DOCKED: USER    Run = 15
DOCKED: USER    DPF = D:/Protein_go_brrr/autodock/final/AncB/heme_Fe/dock.dpf
DOCKED: USER  
DOCKED: USER    Estimated Free Energy of Binding    =   -7.36 kcal/mol  [=(1)+(2)+(3)-(4)]
DOCKED: USER    Estimated Inhibition Constant, Ki   =    4.04 uM (micromolar)  [Temperature = 298.15 K]
DOCKED: USER    
DOCKED: USER    (1) Final Intermolecular Energy     =  -10.34 kcal/mol
DOCKED: USER        vdW + Hbond + desolv Energy     =   -7.60 kcal/mol
DOCKED: USER        Electrostatic Energy            =   -2.74 kcal/mol
DOCKED: USER    (2) Final Total Internal Energy     =   -2.05 kcal/mol
DOCKED: USER    (3) Torsional Free Energy           =   +2.98 kcal/mol
DOCKED: USER    (4) Unbound System's Energy  [=(2)] =   -2.05 kcal/mol
DOCKED: USER    
DOCKED: USER    
DOCKED: USER    NEWDPF move heme_Fe_opt.pdbqt
DOCKED: USER    NEWDPF about -0.174000 -0.001000 -0.047000
DOCKED: USER    NEWDPF tran0 19.630419 4.423495 -1.995106
DOCKED: USER    NEWDPF quaternion0 0.273175 -0.817007 -0.042092 -0.506066
DOCKED: USER    NEWDPF axisangle0 0.316726 -0.947261 -0.048803 -119.195728
DOCKED: USER    NEWDPF quat0 0.316726 -0.947261 -0.048803 -119.195728
DOCKED: USER    NEWDPF dihe0 50.89 104.48 -163.97 -156.75 -125.68 173.34 -107.37 118.94 176.36 -157.61 
DOCKED: USER  keepresnum = 1 
DOCKED: USER  
DOCKED: REMARK  10 active torsions:
DOCKED: REMARK  status: ('A' for Active; 'I' for Inactive)
DOCKED: REMARK    1  A    between atoms: C_6  and  C_10 
DOCKED: REMARK    2  A    between atoms: C_10  and  C_11 
DOCKED: REMARK    3  A    between atoms: C_11  and  C_12 
DOCKED: REMARK    4  A    between atoms: C_12  and  O_14 
DOCKED: REMARK    5  A    between atoms: C_17  and  C_20 
DOCKED: REMARK    6  A    between atoms: C_24  and  C_27 
DOCKED: REMARK    7  A    between atoms: C_31  and  C_34 
DOCKED: REMARK    8  A    between atoms: C_34  and  C_35 
DOCKED: REMARK    9  A    between atoms: C_35  and  C_36 
DOCKED: REMARK   10  A    between atoms: C_36  and  O_38 
DOCKED: USER                              x       y       z     vdW  Elec       q    Type
DOCKED: USER                           _______ _______ _______ _____ _____    ______ ____
DOCKED: ROOT
DOCKED: ATOM      1  C   UNL d   1      19.873   5.232  -3.866 -0.13 +0.02    +0.064 C 
DOCKED: ATOM      2  C   UNL d   1      20.144   0.669  -1.984 -0.09 +0.01    +0.064 A 
DOCKED: ATOM      3  C   UNL d   1      17.921   2.243   1.972 -0.21 -0.00    +0.064 C 
DOCKED: ATOM      4  C   UNL d   1      17.742   6.689   0.213 -0.17 +0.00    +0.064 C 
DOCKED: ATOM      5  C   UNL d   1      20.230   3.820  -3.668 -0.10 +0.02    +0.066 A 
DOCKED: ATOM      6  C   UNL d   1      20.977   3.062  -4.555 -0.08 -0.01    -0.021 A 
DOCKED: ATOM      7  C   UNL d   1      21.048   1.794  -4.033 -0.09 -0.01    -0.025 A 
DOCKED: ATOM      8  C   UNL d   1      20.342   1.827  -2.847 +0.04 +0.02    +0.066 A 
DOCKED: ATOM      9  C   UNL d   1      21.773   0.630  -4.638 -0.07 +0.01    +0.051 C 
DOCKED: ATOM     10  C   UNL d   1      19.516   0.687  -0.807 -0.19 +0.01    +0.066 A 
DOCKED: ATOM     11  C   UNL d   1      19.242  -0.459  -0.057 -0.22 -0.00    -0.021 A 
DOCKED: ATOM     12  C   UNL d   1      18.586  -0.034   1.081 -0.25 +0.00    +0.000 A 
DOCKED: ATOM     13  C   UNL d   1      18.486   1.363   0.961 -0.21 -0.00    +0.070 A 
DOCKED: ATOM     14  C   UNL d   1      19.530  -1.897  -0.439 -0.18 +0.01    +0.052 C 
DOCKED: ATOM     15  C   UNL d   1      17.775   3.583   1.839 -0.25 -0.00    +0.066 A 
DOCKED: ATOM     16  C   UNL d   1      17.322   4.402   2.866 -0.24 -0.00    -0.021 A 
DOCKED: ATOM     17  C   UNL d   1      17.267   5.684   2.360 -0.24 +0.00    +0.000 A 
DOCKED: ATOM     18  C   UNL d   1      17.683   5.616   1.033 -0.22 +0.00    +0.070 A 
DOCKED: ATOM     19  C   UNL d   1      16.933   3.994   4.262 -0.17 +0.01    +0.052 C 
DOCKED: ATOM     20  C   UNL d   1      18.233   6.666  -1.170 -0.17 +0.01    +0.066 A 
DOCKED: ATOM     21  C   UNL d   1      18.114   7.718  -2.089 -0.21 -0.01    -0.025 A 
DOCKED: ATOM     22  C   UNL d   1      18.739   7.286  -3.240 -0.16 -0.01    -0.021 A 
DOCKED: ATOM     23  C   UNL d   1      19.207   5.992  -2.982 -0.14 +0.02    +0.066 A 
DOCKED: ATOM     24  C   UNL d   1      17.446   9.061  -1.905 -0.20 +0.01    +0.051 C 
DOCKED: ATOM     25  N   UNL d   1      19.853   3.063  -2.623 -0.03 -0.06    -0.248 N 
DOCKED: ATOM     26  N   UNL d   1      19.044   1.802  -0.193 -0.15 -0.02    -0.248 N 
DOCKED: ATOM     27  N   UNL d   1      18.037   4.332   0.724 -0.20 +0.01    -0.248 N 
DOCKED: ATOM     28  N   UNL d   1      18.856   5.602  -1.732 -0.12 -0.02    -0.248 N 
DOCKED: ATOM     29 FE   UNL d   1      18.949   3.704  -0.962 -0.05 +0.00    +0.000 Fe
DOCKED: ENDROOT
DOCKED: BRANCH   6  30
DOCKED: ATOM     30  C   UNL d   1      21.610   3.522  -5.824 -0.04 +0.02    +0.052 C 
DOCKED: BRANCH  30  31
DOCKED: ATOM     31  C   UNL d   1      20.694   3.253  -7.013 -0.07 +0.05    +0.115 C 
DOCKED: BRANCH  31  32
DOCKED: ATOM     32  C   UNL d   1      19.530   4.204  -7.007 -0.15 +0.13    +0.139 C 
DOCKED: ATOM     33  O   UNL d   1      18.382   3.785  -7.046 -0.27 -1.11    -0.650 OA
DOCKED: BRANCH  32  34
DOCKED: ATOM     34  O   UNL d   1      19.743   5.530  -6.958 -0.05 -0.64    -0.776 OA
DOCKED: ATOM     35  H   UNL d   1      19.276   6.057  -6.294 +0.05 +0.14    +0.167 HD
DOCKED: ENDBRANCH  32  34
DOCKED: ENDBRANCH  31  32
DOCKED: ENDBRANCH  30  31
DOCKED: ENDBRANCH   6  30
DOCKED: BRANCH  22  36
DOCKED: ATOM     36  C   UNL d   1      18.836   8.056  -4.531 -0.22 +0.02    +0.052 C 
DOCKED: BRANCH  36  37
DOCKED: ATOM     37  C   UNL d   1      17.441   8.339  -5.066 -0.38 +0.06    +0.115 C 
DOCKED: BRANCH  37  38
DOCKED: ATOM     38  C   UNL d   1      16.711   7.061  -5.370 -0.38 +0.15    +0.139 C 
DOCKED: ATOM     39  O   UNL d   1      15.533   7.075  -5.695 -0.47 -0.82    -0.650 OA
DOCKED: BRANCH  38  40
DOCKED: ATOM     40  O   UNL d   1      17.356   5.884  -5.283 -0.17 -1.04    -0.776 OA
DOCKED: ATOM     41  H   UNL d   1      17.974   5.633  -5.984 +0.07 +0.28    +0.167 HD
DOCKED: ENDBRANCH  38  40
DOCKED: ENDBRANCH  37  38
DOCKED: ENDBRANCH  36  37
DOCKED: ENDBRANCH  22  36
DOCKED: BRANCH  12  42
DOCKED: ATOM     42  C   UNL d   1      18.091  -0.932   2.170 -0.25 +0.00    +0.004 C 
DOCKED: ATOM     43  C   UNL d   1      16.782  -1.036   2.436 -0.37 +0.00    +0.012 C 
DOCKED: ENDBRANCH  12  42
DOCKED: BRANCH  17  44
DOCKED: ATOM     44  C   UNL d   1      16.862   6.898   3.104 -0.17 +0.00    +0.004 C 
DOCKED: ATOM     45  C   UNL d   1      15.649   7.435   2.931 -0.23 +0.00    +0.012 C 
DOCKED: ENDBRANCH  17  44
DOCKED: TORSDOF 10
DOCKED: TER
DOCKED: ENDMDL
________________________________________________________________________________


	BEGINNING GENETIC ALGORITHM DOCKING 16 of 100
Run: 16 Seed: 361962453 1963308944 [ Run 16 of 100 GA/GALS ]
Beginning LAMARCKIAN GENETIC ALGORITHM (LGA), with a maximum of 25000000 energy evaluations.

Final-Value: -14.797


	FINAL GENETIC ALGORITHM DOCKED STATE
	_______________________________________________


Detailed state:  trans -4.960 -11.294 12.419 quatxyzw 0.635141 0.545595 -0.043336 0.545017 center -0.174 -0.001 -0.047 ntor 10 -60.9069 174.0616 -167.9979 -103.6308 106.5465 43.7637 56.5909 -14.7794 -1.6826 27.1937
State:	 -4.960 -11.294  12.419   0.758  0.651 -0.052 113.948    -60.91  174.06 -168.00 -103.63  106.55   43.76   56.59  -14.78   -1.68   27.19

DOCKED: MODEL       16
DOCKED: USER    Run = 16
DOCKED: USER    DPF = D:/Protein_go_brrr/autodock/final/AncB/heme_Fe/dock.dpf
DOCKED: USER  
DOCKED: USER    Estimated Free Energy of Binding    =   -9.72 kcal/mol  [=(1)+(2)+(3)-(4)]
DOCKED: USER    Estimated Inhibition Constant, Ki   =   75.40 nM (nanomolar)  [Temperature = 298.15 K]
DOCKED: USER    
DOCKED: USER    (1) Final Intermolecular Energy     =  -12.70 kcal/mol
DOCKED: USER        vdW + Hbond + desolv Energy     =   -9.15 kcal/mol
DOCKED: USER        Electrostatic Energy            =   -3.55 kcal/mol
DOCKED: USER    (2) Final Total Internal Energy     =   -2.10 kcal/mol
DOCKED: USER    (3) Torsional Free Energy           =   +2.98 kcal/mol
DOCKED: USER    (4) Unbound System's Energy  [=(2)] =   -2.10 kcal/mol
DOCKED: USER    
DOCKED: USER    
DOCKED: USER    NEWDPF move heme_Fe_opt.pdbqt
DOCKED: USER    NEWDPF about -0.174000 -0.001000 -0.047000
DOCKED: USER    NEWDPF tran0 -4.959845 -11.294416 12.418660
DOCKED: USER    NEWDPF quaternion0 0.635141 0.545595 -0.043336 0.545017
DOCKED: USER    NEWDPF axisangle0 0.757541 0.650738 -0.051687 113.948297
DOCKED: USER    NEWDPF quat0 0.757541 0.650738 -0.051687 113.948297
DOCKED: USER    NEWDPF dihe0 -60.91 174.06 -168.00 -103.63 106.55 43.76 56.59 -14.78 -1.68 27.19 
DOCKED: USER  keepresnum = 1 
DOCKED: USER  
DOCKED: REMARK  10 active torsions:
DOCKED: REMARK  status: ('A' for Active; 'I' for Inactive)
DOCKED: REMARK    1  A    between atoms: C_6  and  C_10 
DOCKED: REMARK    2  A    between atoms: C_10  and  C_11 
DOCKED: REMARK    3  A    between atoms: C_11  and  C_12 
DOCKED: REMARK    4  A    between atoms: C_12  and  O_14 
DOCKED: REMARK    5  A    between atoms: C_17  and  C_20 
DOCKED: REMARK    6  A    between atoms: C_24  and  C_27 
DOCKED: REMARK    7  A    between atoms: C_31  and  C_34 
DOCKED: REMARK    8  A    between atoms: C_34  and  C_35 
DOCKED: REMARK    9  A    between atoms: C_35  and  C_36 
DOCKED: REMARK   10  A    between atoms: C_36  and  O_38 
DOCKED: USER                              x       y       z     vdW  Elec       q    Type
DOCKED: USER                           _______ _______ _______ _____ _____    ______ ____
DOCKED: ROOT
DOCKED: ATOM      1  C   UNL d   1      -6.138 -12.429  11.179 -0.29 +0.03    +0.064 C 
DOCKED: ATOM      2  C   UNL d   1      -6.695 -10.480  15.687 -0.15 +0.04    +0.064 A 
DOCKED: ATOM      3  C   UNL d   1      -2.875  -7.685  14.876 -0.20 +0.01    +0.064 C 
DOCKED: ATOM      4  C   UNL d   1      -2.254  -9.633  10.551 -0.31 +0.01    +0.064 C 
DOCKED: ATOM      5  C   UNL d   1      -6.599 -12.199  12.556 -0.28 +0.04    +0.066 A 
DOCKED: ATOM      6  C   UNL d   1      -7.613 -12.908  13.178 -0.33 -0.01    -0.021 A 
DOCKED: ATOM      7  C   UNL d   1      -7.770 -12.363  14.429 -0.27 -0.01    -0.025 A 
DOCKED: ATOM      8  C   UNL d   1      -6.843 -11.343  14.522 -0.22 +0.04    +0.066 A 
DOCKED: ATOM      9  C   UNL d   1      -8.743 -12.817  15.474 -0.21 +0.02    +0.051 C 
DOCKED: ATOM     10  C   UNL d   1      -5.772  -9.527  15.825 -0.04 +0.05    +0.066 A 
DOCKED: ATOM     11  C   UNL d   1      -5.728  -8.642  16.904 -0.16 -0.01    -0.021 A 
DOCKED: ATOM     12  C   UNL d   1      -4.644  -7.814  16.686 -0.17 +0.00    +0.000 A 
DOCKED: ATOM     13  C   UNL d   1      -4.083  -8.236  15.468 -0.14 +0.02    +0.070 A 
DOCKED: ATOM     14  C   UNL d   1      -6.710  -8.544  18.054 -0.14 +0.00    +0.052 C 
DOCKED: ATOM     15  C   UNL d   1      -2.360  -8.053  13.679 -0.14 +0.01    +0.066 A 
DOCKED: ATOM     16  C   UNL d   1      -1.150  -7.574  13.194 -0.23 -0.00    -0.021 A 
DOCKED: ATOM     17  C   UNL d   1      -0.970  -8.132  11.945 -0.27 +0.00    +0.000 A 
DOCKED: ATOM     18  C   UNL d   1      -2.080  -8.936  11.695 -0.23 +0.02    +0.070 A 
DOCKED: ATOM     19  C   UNL d   1      -0.208  -6.611  13.865 -0.25 +0.00    +0.052 C 
DOCKED: ATOM     20  C   UNL d   1      -3.378 -10.536  10.278 -0.24 +0.02    +0.066 A 
DOCKED: ATOM     21  C   UNL d   1      -3.675 -11.105   9.031 -0.24 -0.01    -0.025 A 
DOCKED: ATOM     22  C   UNL d   1      -4.778 -11.908   9.236 -0.24 -0.01    -0.021 A 
DOCKED: ATOM     23  C   UNL d   1      -5.112 -11.794  10.591 -0.22 +0.03    +0.066 A 
DOCKED: ATOM     24  C   UNL d   1      -2.968 -10.906   7.710 -0.35 +0.01    +0.051 C 
DOCKED: ATOM     25  N   UNL d   1      -6.126 -11.252  13.384 -0.16 -0.16    -0.248 N 
DOCKED: ATOM     26  N   UNL d   1      -4.776  -9.274  14.938 -0.09 -0.15    -0.248 N 
DOCKED: ATOM     27  N   UNL d   1      -2.914  -8.923  12.778 -0.08 -0.08    -0.248 N 
DOCKED: ATOM     28  N   UNL d   1      -4.282 -10.921  11.211 -0.14 -0.10    -0.248 N 
DOCKED: ATOM     29 FE   UNL d   1      -4.527 -10.097  13.073 -0.06 +0.00    +0.000 Fe
DOCKED: ENDROOT
DOCKED: BRANCH   6  30
DOCKED: ATOM     30  C   UNL d   1      -8.382 -14.058  12.623 -0.24 +0.02    +0.052 C 
DOCKED: BRANCH  30  31
DOCKED: ATOM     31  C   UNL d   1      -7.667 -15.374  12.909 -0.17 +0.05    +0.115 C 
DOCKED: BRANCH  31  32
DOCKED: ATOM     32  C   UNL d   1      -7.399 -16.116  11.629 -0.14 +0.09    +0.139 C 
DOCKED: ATOM     33  O   UNL d   1      -6.268 -16.177  11.169 +0.02 -0.39    -0.650 OA
DOCKED: BRANCH  32  34
DOCKED: ATOM     34  O   UNL d   1      -8.406 -16.720  10.976 -0.05 -0.93    -0.776 OA
DOCKED: ATOM     35  H   UNL d   1      -8.617 -16.439  10.075 -0.39 +0.40    +0.167 HD
DOCKED: ENDBRANCH  32  34
DOCKED: ENDBRANCH  31  32
DOCKED: ENDBRANCH  30  31
DOCKED: ENDBRANCH   6  30
DOCKED: BRANCH  22  36
DOCKED: ATOM     36  C   UNL d   1      -5.498 -12.701   8.177 -0.30 +0.03    +0.052 C 
DOCKED: BRANCH  36  37
DOCKED: ATOM     37  C   UNL d   1      -5.551 -14.167   8.581 -0.19 +0.09    +0.115 C 
DOCKED: BRANCH  37  38
DOCKED: ATOM     38  C   UNL d   1      -6.567 -14.914   7.764 -0.25 +0.20    +0.139 C 
DOCKED: ATOM     39  O   UNL d   1      -6.648 -14.741   6.557 -0.32 -1.30    -0.650 OA
DOCKED: BRANCH  38  40
DOCKED: ATOM     40  O   UNL d   1      -7.402 -15.783   8.362 -0.29 -1.92    -0.776 OA
DOCKED: ATOM     41  H   UNL d   1      -7.278 -15.984   9.300 -0.01 +0.29    +0.167 HD
DOCKED: ENDBRANCH  38  40
DOCKED: ENDBRANCH  37  38
DOCKED: ENDBRANCH  36  37
DOCKED: ENDBRANCH  22  36
DOCKED: BRANCH  12  42
DOCKED: ATOM     42  C   UNL d   1      -4.222  -6.700  17.590 -0.14 -0.00    +0.004 C 
DOCKED: ATOM     43  C   UNL d   1      -4.171  -5.436  17.150 -0.26 -0.00    +0.012 C 
DOCKED: ENDBRANCH  12  42
DOCKED: BRANCH  17  44
DOCKED: ATOM     44  C   UNL d   1       0.197  -7.925  11.058 -0.27 +0.00    +0.004 C 
DOCKED: ATOM     45  C   UNL d   1       0.642  -6.694  10.788 -0.30 +0.00    +0.012 C 
DOCKED: ENDBRANCH  17  44
DOCKED: TORSDOF 10
DOCKED: TER
DOCKED: ENDMDL
________________________________________________________________________________


	BEGINNING GENETIC ALGORITHM DOCKING 17 of 100
Run: 17 Seed: 680998352 545317619 [ Run 17 of 100 GA/GALS ]
Beginning LAMARCKIAN GENETIC ALGORITHM (LGA), with a maximum of 25000000 energy evaluations.

Final-Value: -19.061


	FINAL GENETIC ALGORITHM DOCKED STATE
	_______________________________________________


Detailed state:  trans 0.047 -1.638 -9.281 quatxyzw 0.573724 0.381005 0.476140 0.546779 center -0.174 -0.001 -0.047 ntor 10 52.5256 -110.5257 79.0745 -107.8961 160.2998 -76.2306 -43.1359 -0.7352 -170.8018 125.6202
State:	  0.047  -1.638  -9.281   0.685  0.455  0.569 113.707     52.53 -110.53   79.07 -107.90  160.30  -76.23  -43.14   -0.74 -170.80  125.62

DOCKED: MODEL       17
DOCKED: USER    Run = 17
DOCKED: USER    DPF = D:/Protein_go_brrr/autodock/final/AncB/heme_Fe/dock.dpf
DOCKED: USER  
DOCKED: USER    Estimated Free Energy of Binding    =  -14.17 kcal/mol  [=(1)+(2)+(3)-(4)]
DOCKED: USER    Estimated Inhibition Constant, Ki   =   40.71 pM (picomolar)  [Temperature = 298.15 K]
DOCKED: USER    
DOCKED: USER    (1) Final Intermolecular Energy     =  -17.16 kcal/mol
DOCKED: USER        vdW + Hbond + desolv Energy     =  -14.02 kcal/mol
DOCKED: USER        Electrostatic Energy            =   -3.14 kcal/mol
DOCKED: USER    (2) Final Total Internal Energy     =   -1.90 kcal/mol
DOCKED: USER    (3) Torsional Free Energy           =   +2.98 kcal/mol
DOCKED: USER    (4) Unbound System's Energy  [=(2)] =   -1.90 kcal/mol
DOCKED: USER    
DOCKED: USER    
DOCKED: USER    NEWDPF move heme_Fe_opt.pdbqt
DOCKED: USER    NEWDPF about -0.174000 -0.001000 -0.047000
DOCKED: USER    NEWDPF tran0 0.047069 -1.637819 -9.281154
DOCKED: USER    NEWDPF quaternion0 0.573724 0.381005 0.476140 0.546779
DOCKED: USER    NEWDPF axisangle0 0.685226 0.455052 0.568677 113.707325
DOCKED: USER    NEWDPF quat0 0.685226 0.455052 0.568677 113.707325
DOCKED: USER    NEWDPF dihe0 52.53 -110.53 79.07 -107.90 160.30 -76.23 -43.14 -0.74 -170.80 125.62 
DOCKED: USER  keepresnum = 1 
DOCKED: USER  
DOCKED: REMARK  10 active torsions:
DOCKED: REMARK  status: ('A' for Active; 'I' for Inactive)
DOCKED: REMARK    1  A    between atoms: C_6  and  C_10 
DOCKED: REMARK    2  A    between atoms: C_10  and  C_11 
DOCKED: REMARK    3  A    between atoms: C_11  and  C_12 
DOCKED: REMARK    4  A    between atoms: C_12  and  O_14 
DOCKED: REMARK    5  A    between atoms: C_17  and  C_20 
DOCKED: REMARK    6  A    between atoms: C_24  and  C_27 
DOCKED: REMARK    7  A    between atoms: C_31  and  C_34 
DOCKED: REMARK    8  A    between atoms: C_34  and  C_35 
DOCKED: REMARK    9  A    between atoms: C_35  and  C_36 
DOCKED: REMARK   10  A    between atoms: C_36  and  O_38 
DOCKED: USER                              x       y       z     vdW  Elec       q    Type
DOCKED: USER                           _______ _______ _______ _____ _____    ______ ____
DOCKED: ROOT
DOCKED: ATOM      1  C   UNL d   1      -0.448  -0.939 -11.146 -0.13 +0.05    +0.064 C 
DOCKED: ATOM      2  C   UNL d   1      -2.722  -1.065  -6.759 -0.40 +0.02    +0.064 A 
DOCKED: ATOM      3  C   UNL d   1       1.488  -2.080  -4.683 -0.42 +0.01    +0.064 C 
DOCKED: ATOM      4  C   UNL d   1       3.689  -2.067  -8.930 -0.51 +0.02    +0.064 C 
DOCKED: ATOM      5  C   UNL d   1      -1.494  -0.963 -10.114 -0.31 +0.05    +0.066 A 
DOCKED: ATOM      6  C   UNL d   1      -2.850  -0.821 -10.358 -0.30 -0.02    -0.021 A 
DOCKED: ATOM      7  C   UNL d   1      -3.480  -0.852  -9.139 -0.30 -0.01    -0.025 A 
DOCKED: ATOM      8  C   UNL d   1      -2.484  -1.012  -8.196 -0.35 +0.03    +0.066 A 
DOCKED: ATOM      9  C   UNL d   1      -4.957  -0.752  -8.906 -0.30 +0.03    +0.051 C 
DOCKED: ATOM     10  C   UNL d   1      -1.786  -1.276  -5.832 -0.40 +0.02    +0.066 A 
DOCKED: ATOM     11  C   UNL d   1      -2.027  -1.206  -4.458 -0.44 -0.00    -0.021 A 
DOCKED: ATOM     12  C   UNL d   1      -0.825  -1.479  -3.837 -0.40 +0.00    +0.000 A 
DOCKED: ATOM     13  C   UNL d   1       0.099  -1.694  -4.875 -0.38 +0.02    +0.070 A 
DOCKED: ATOM     14  C   UNL d   1      -3.324  -0.831  -3.770 -0.58 +0.01    +0.052 C 
DOCKED: ATOM     15  C   UNL d   1       2.393  -2.238  -5.677 -0.39 +0.01    +0.066 A 
DOCKED: ATOM     16  C   UNL d   1       3.684  -2.704  -5.461 -0.49 -0.00    -0.021 A 
DOCKED: ATOM     17  C   UNL d   1       4.322  -2.698  -6.684 -0.51 +0.00    +0.000 A 
DOCKED: ATOM     18  C   UNL d   1       3.405  -2.223  -7.619 -0.42 +0.02    +0.070 A 
DOCKED: ATOM     19  C   UNL d   1       4.304  -3.116  -4.153 -0.63 +0.01    +0.052 C 
DOCKED: ATOM     20  C   UNL d   1       2.732  -1.629  -9.953 -0.44 +0.02    +0.066 A 
DOCKED: ATOM     21  C   UNL d   1       3.060  -1.273 -11.269 -0.46 -0.01    -0.025 A 
DOCKED: ATOM     22  C   UNL d   1       1.864  -0.967 -11.886 -0.29 -0.01    -0.021 A 
DOCKED: ATOM     23  C   UNL d   1       0.861  -1.142 -10.926 -0.09 +0.03    +0.066 A 
DOCKED: ATOM     24  C   UNL d   1       4.422  -1.216 -11.920 -0.52 +0.01    +0.051 C 
DOCKED: ATOM     25  N   UNL d   1      -1.277  -1.089  -8.793 -0.24 -0.12    -0.248 N 
DOCKED: ATOM     26  N   UNL d   1      -0.485  -1.562  -6.091 -0.25 -0.07    -0.248 N 
DOCKED: ATOM     27  N   UNL d   1       2.206  -1.982  -7.009 -0.21 -0.09    -0.248 N 
DOCKED: ATOM     28  N   UNL d   1       1.401  -1.503  -9.737 -0.26 -0.12    -0.248 N 
DOCKED: ATOM     29 FE   UNL d   1       0.460  -1.532  -7.915 -0.09 +0.00    +0.000 Fe
DOCKED: ENDROOT
DOCKED: BRANCH   6  30
DOCKED: ATOM     30  C   UNL d   1      -3.517  -0.684 -11.684 -0.05 +0.09    +0.052 C 
DOCKED: BRANCH  30  31
DOCKED: ATOM     31  C   UNL d   1      -3.441   0.756 -12.181 -0.22 +0.15    +0.115 C 
DOCKED: BRANCH  31  32
DOCKED: ATOM     32  C   UNL d   1      -3.094   0.790 -13.643 -0.16 +0.23    +0.139 C 
DOCKED: ATOM     33  O   UNL d   1      -3.329   1.783 -14.317 -0.53 -1.25    -0.650 OA
DOCKED: BRANCH  32  34
DOCKED: ATOM     34  O   UNL d   1      -2.520  -0.276 -14.225 -0.09 -1.81    -0.776 OA
DOCKED: ATOM     35  H   UNL d   1      -1.702  -0.153 -14.729 +0.03 +0.28    +0.167 HD
DOCKED: ENDBRANCH  32  34
DOCKED: ENDBRANCH  31  32
DOCKED: ENDBRANCH  30  31
DOCKED: ENDBRANCH   6  30
DOCKED: BRANCH  22  36
DOCKED: ATOM     36  C   UNL d   1       1.704  -0.487 -13.305 -0.29 +0.03    +0.052 C 
DOCKED: BRANCH  36  37
DOCKED: ATOM     37  C   UNL d   1       0.687   0.644 -13.352 -0.03 +0.08    +0.115 C 
DOCKED: BRANCH  37  38
DOCKED: ATOM     38  C   UNL d   1       0.532   1.171 -14.750 -0.13 +0.10    +0.139 C 
DOCKED: ATOM     39  O   UNL d   1       1.380   1.903 -15.240 +0.04 -0.39    -0.650 OA
DOCKED: BRANCH  38  40
DOCKED: ATOM     40  O   UNL d   1      -0.551   0.842 -15.475 +0.07 -0.71    -0.776 OA
DOCKED: ATOM     41  H   UNL d   1      -1.414   1.196 -15.219 +0.04 +0.19    +0.167 HD
DOCKED: ENDBRANCH  38  40
DOCKED: ENDBRANCH  37  38
DOCKED: ENDBRANCH  36  37
DOCKED: ENDBRANCH  22  36
DOCKED: BRANCH  12  42
DOCKED: ATOM     42  C   UNL d   1      -0.612  -1.503  -2.357 -0.50 +0.00    +0.004 C 
DOCKED: ATOM     43  C   UNL d   1      -0.059  -2.565  -1.757 -0.57 +0.00    +0.012 C 
DOCKED: ENDBRANCH  12  42
DOCKED: BRANCH  17  44
DOCKED: ATOM     44  C   UNL d   1       5.711  -3.137  -6.944 -0.47 +0.00    +0.004 C 
DOCKED: ATOM     45  C   UNL d   1       6.733  -2.625  -6.250 -0.66 +0.00    +0.012 C 
DOCKED: ENDBRANCH  17  44
DOCKED: TORSDOF 10
DOCKED: TER
DOCKED: ENDMDL
________________________________________________________________________________


	BEGINNING GENETIC ALGORITHM DOCKING 18 of 100
Run: 18 Seed: 4336520 1339918591 [ Run 18 of 100 GA/GALS ]
Beginning LAMARCKIAN GENETIC ALGORITHM (LGA), with a maximum of 25000000 energy evaluations.

Final-Value: -18.582


	FINAL GENETIC ALGORITHM DOCKED STATE
	_______________________________________________


Detailed state:  trans 0.112 -1.724 -9.056 quatxyzw 0.580913 0.381422 0.464601 0.548819 center -0.174 -0.001 -0.047 ntor 10 65.5018 98.6359 71.4575 -102.1045 123.5918 -103.8655 -29.8992 42.6424 -166.8076 -179.7335
State:	  0.112  -1.724  -9.056   0.695  0.456  0.556 113.428     65.50   98.64   71.46 -102.10  123.59 -103.87  -29.90   42.64 -166.81 -179.73

DOCKED: MODEL       18
DOCKED: USER    Run = 18
DOCKED: USER    DPF = D:/Protein_go_brrr/autodock/final/AncB/heme_Fe/dock.dpf
DOCKED: USER  
DOCKED: USER    Estimated Free Energy of Binding    =  -14.21 kcal/mol  [=(1)+(2)+(3)-(4)]
DOCKED: USER    Estimated Inhibition Constant, Ki   =   38.31 pM (picomolar)  [Temperature = 298.15 K]
DOCKED: USER    
DOCKED: USER    (1) Final Intermolecular Energy     =  -17.19 kcal/mol
DOCKED: USER        vdW + Hbond + desolv Energy     =  -14.20 kcal/mol
DOCKED: USER        Electrostatic Energy            =   -2.99 kcal/mol
DOCKED: USER    (2) Final Total Internal Energy     =   -1.39 kcal/mol
DOCKED: USER    (3) Torsional Free Energy           =   +2.98 kcal/mol
DOCKED: USER    (4) Unbound System's Energy  [=(2)] =   -1.39 kcal/mol
DOCKED: USER    
DOCKED: USER    
DOCKED: USER    NEWDPF move heme_Fe_opt.pdbqt
DOCKED: USER    NEWDPF about -0.174000 -0.001000 -0.047000
DOCKED: USER    NEWDPF tran0 0.111670 -1.723800 -9.055980
DOCKED: USER    NEWDPF quaternion0 0.580913 0.381422 0.464601 0.548819
DOCKED: USER    NEWDPF axisangle0 0.694921 0.456279 0.555782 113.427886
DOCKED: USER    NEWDPF quat0 0.694921 0.456279 0.555782 113.427886
DOCKED: USER    NEWDPF dihe0 65.50 98.64 71.46 -102.10 123.59 -103.87 -29.90 42.64 -166.81 -179.73 
DOCKED: USER  keepresnum = 1 
DOCKED: USER  
DOCKED: REMARK  10 active torsions:
DOCKED: REMARK  status: ('A' for Active; 'I' for Inactive)
DOCKED: REMARK    1  A    between atoms: C_6  and  C_10 
DOCKED: REMARK    2  A    between atoms: C_10  and  C_11 
DOCKED: REMARK    3  A    between atoms: C_11  and  C_12 
DOCKED: REMARK    4  A    between atoms: C_12  and  O_14 
DOCKED: REMARK    5  A    between atoms: C_17  and  C_20 
DOCKED: REMARK    6  A    between atoms: C_24  and  C_27 
DOCKED: REMARK    7  A    between atoms: C_31  and  C_34 
DOCKED: REMARK    8  A    between atoms: C_34  and  C_35 
DOCKED: REMARK    9  A    between atoms: C_35  and  C_36 
DOCKED: REMARK   10  A    between atoms: C_36  and  O_38 
DOCKED: USER                              x       y       z     vdW  Elec       q    Type
DOCKED: USER                           _______ _______ _______ _____ _____    ______ ____
DOCKED: ROOT
DOCKED: ATOM      1  C   UNL d   1      -0.430  -1.057 -10.920 -0.23 +0.05    +0.064 C 
DOCKED: ATOM      2  C   UNL d   1      -2.609  -1.139  -6.484 -0.41 +0.02    +0.064 A 
DOCKED: ATOM      3  C   UNL d   1       1.653  -2.084  -4.484 -0.39 +0.01    +0.064 C 
DOCKED: ATOM      4  C   UNL d   1       3.765  -2.114  -8.776 -0.51 +0.02    +0.064 C 
DOCKED: ATOM      5  C   UNL d   1      -1.453  -1.076  -9.865 -0.32 +0.04    +0.066 A 
DOCKED: ATOM      6  C   UNL d   1      -2.815  -0.950 -10.083 -0.31 -0.02    -0.021 A 
DOCKED: ATOM      7  C   UNL d   1      -3.419  -0.969  -8.851 -0.30 -0.01    -0.025 A 
DOCKED: ATOM      8  C   UNL d   1      -2.402  -1.106  -7.927 -0.36 +0.03    +0.066 A 
DOCKED: ATOM      9  C   UNL d   1      -4.891  -0.880  -8.588 -0.29 +0.02    +0.051 C 
DOCKED: ATOM     10  C   UNL d   1      -1.652  -1.328  -5.575 -0.39 +0.02    +0.066 A 
DOCKED: ATOM     11  C   UNL d   1      -1.864  -1.240  -4.197 -0.40 -0.00    -0.021 A 
DOCKED: ATOM     12  C   UNL d   1      -0.646  -1.492  -3.598 -0.40 +0.00    +0.000 A 
DOCKED: ATOM     13  C   UNL d   1       0.257  -1.715  -4.652 -0.38 +0.01    +0.070 A 
DOCKED: ATOM     14  C   UNL d   1      -3.150  -0.867  -3.487 -0.58 +0.01    +0.052 C 
DOCKED: ATOM     15  C   UNL d   1       2.539  -2.249  -5.494 -0.39 +0.01    +0.066 A 
DOCKED: ATOM     16  C   UNL d   1       3.839  -2.699  -5.299 -0.50 -0.00    -0.021 A 
DOCKED: ATOM     17  C   UNL d   1       4.450  -2.705  -6.535 -0.51 +0.00    +0.000 A 
DOCKED: ATOM     18  C   UNL d   1       3.509  -2.253  -7.457 -0.42 +0.02    +0.070 A 
DOCKED: ATOM     19  C   UNL d   1       4.490  -3.086  -3.998 -0.59 +0.01    +0.052 C 
DOCKED: ATOM     20  C   UNL d   1       2.782  -1.700  -9.785 -0.44 +0.02    +0.066 A 
DOCKED: ATOM     21  C   UNL d   1       3.078  -1.360 -11.113 -0.47 -0.01    -0.025 A 
DOCKED: ATOM     22  C   UNL d   1       1.867  -1.075 -11.709 -0.32 -0.01    -0.021 A 
DOCKED: ATOM     23  C   UNL d   1       0.885  -1.245 -10.725 -0.13 +0.03    +0.066 A 
DOCKED: ATOM     24  C   UNL d   1       4.426  -1.300 -11.793 -0.54 +0.01    +0.051 C 
DOCKED: ATOM     25  N   UNL d   1      -1.207  -1.180  -8.548 -0.20 -0.12    -0.248 N 
DOCKED: ATOM     26  N   UNL d   1      -0.354  -1.606  -5.857 -0.25 -0.07    -0.248 N 
DOCKED: ATOM     27  N   UNL d   1       2.321  -2.014  -6.825 -0.24 -0.08    -0.248 N 
DOCKED: ATOM     28  N   UNL d   1       1.454  -1.583  -9.542 -0.22 -0.13    -0.248 N 
DOCKED: ATOM     29 FE   UNL d   1       0.552  -1.594  -7.700 -0.09 +0.00    +0.000 Fe
DOCKED: ENDROOT
DOCKED: BRANCH   6  30
DOCKED: ATOM     30  C   UNL d   1      -3.512  -0.839 -11.396 -0.15 +0.08    +0.052 C 
DOCKED: BRANCH  30  31
DOCKED: ATOM     31  C   UNL d   1      -3.376   0.570 -11.963 -0.23 +0.14    +0.115 C 
DOCKED: BRANCH  31  32
DOCKED: ATOM     32  C   UNL d   1      -3.391   0.537 -13.466 -0.15 +0.24    +0.139 C 
DOCKED: ATOM     33  O   UNL d   1      -4.213   1.188 -14.095 -0.19 -1.04    -0.650 OA
DOCKED: BRANCH  32  34
DOCKED: ATOM     34  O   UNL d   1      -2.497  -0.212 -14.133 -0.09 -1.74    -0.776 OA
DOCKED: ATOM     35  H   UNL d   1      -1.838   0.227 -14.689 +0.03 +0.25    +0.167 HD
DOCKED: ENDBRANCH  32  34
DOCKED: ENDBRANCH  31  32
DOCKED: ENDBRANCH  30  31
DOCKED: ENDBRANCH   6  30
DOCKED: BRANCH  22  36
DOCKED: ATOM     36  C   UNL d   1       1.672  -0.617 -13.130 -0.29 +0.03    +0.052 C 
DOCKED: BRANCH  36  37
DOCKED: ATOM     37  C   UNL d   1       1.901   0.884 -13.222 -0.16 +0.05    +0.115 C 
DOCKED: BRANCH  37  38
DOCKED: ATOM     38  C   UNL d   1       0.875   1.533 -14.107 -0.19 +0.10    +0.139 C 
DOCKED: ATOM     39  O   UNL d   1       1.162   1.886 -15.242 +0.04 -0.41    -0.650 OA
DOCKED: BRANCH  38  40
DOCKED: ATOM     40  O   UNL d   1      -0.375   1.733 -13.652 +0.02 -0.76    -0.776 OA
DOCKED: ATOM     41  H   UNL d   1      -1.006   1.000 -13.674 +0.05 +0.18    +0.167 HD
DOCKED: ENDBRANCH  38  40
DOCKED: ENDBRANCH  37  38
DOCKED: ENDBRANCH  36  37
DOCKED: ENDBRANCH  22  36
DOCKED: BRANCH  12  42
DOCKED: ATOM     42  C   UNL d   1      -0.402  -1.492  -2.122 -0.50 +0.00    +0.004 C 
DOCKED: ATOM     43  C   UNL d   1       0.032  -2.594  -1.495 -0.59 +0.00    +0.012 C 
DOCKED: ENDBRANCH  12  42
DOCKED: BRANCH  17  44
DOCKED: ATOM     44  C   UNL d   1       5.838  -3.135  -6.818 -0.50 +0.00    +0.004 C 
DOCKED: ATOM     45  C   UNL d   1       6.858  -2.690  -6.077 -0.71 +0.00    +0.012 C 
DOCKED: ENDBRANCH  17  44
DOCKED: TORSDOF 10
DOCKED: TER
DOCKED: ENDMDL
________________________________________________________________________________


	BEGINNING GENETIC ALGORITHM DOCKING 19 of 100
Run: 19 Seed: 1051650964 1728296819 [ Run 19 of 100 GA/GALS ]
Beginning LAMARCKIAN GENETIC ALGORITHM (LGA), with a maximum of 25000000 energy evaluations.

Final-Value: -19.951


	FINAL GENETIC ALGORITHM DOCKED STATE
	_______________________________________________


Detailed state:  trans -0.253 -1.595 -9.339 quatxyzw -0.585399 -0.364267 -0.463899 -0.556251 center -0.174 -0.001 -0.047 ntor 10 -83.3171 -41.8549 75.3513 -95.3210 2.9005 158.7469 -33.7777 60.5470 -165.6475 164.7773
State:	 -0.253  -1.595  -9.339  -0.704 -0.438 -0.558 -112.406    -83.32  -41.85   75.35  -95.32    2.90  158.75  -33.78   60.55 -165.65  164.78

DOCKED: MODEL       19
DOCKED: USER    Run = 19
DOCKED: USER    DPF = D:/Protein_go_brrr/autodock/final/AncB/heme_Fe/dock.dpf
DOCKED: USER  
DOCKED: USER    Estimated Free Energy of Binding    =  -14.57 kcal/mol  [=(1)+(2)+(3)-(4)]
DOCKED: USER    Estimated Inhibition Constant, Ki   =   20.77 pM (picomolar)  [Temperature = 298.15 K]
DOCKED: USER    
DOCKED: USER    (1) Final Intermolecular Energy     =  -17.56 kcal/mol
DOCKED: USER        vdW + Hbond + desolv Energy     =  -13.86 kcal/mol
DOCKED: USER        Electrostatic Energy            =   -3.69 kcal/mol
DOCKED: USER    (2) Final Total Internal Energy     =   -2.39 kcal/mol
DOCKED: USER    (3) Torsional Free Energy           =   +2.98 kcal/mol
DOCKED: USER    (4) Unbound System's Energy  [=(2)] =   -2.39 kcal/mol
DOCKED: USER    
DOCKED: USER    
DOCKED: USER    NEWDPF move heme_Fe_opt.pdbqt
DOCKED: USER    NEWDPF about -0.174000 -0.001000 -0.047000
DOCKED: USER    NEWDPF tran0 -0.252636 -1.595440 -9.339180
DOCKED: USER    NEWDPF quaternion0 -0.585399 -0.364267 -0.463899 -0.556251
DOCKED: USER    NEWDPF axisangle0 -0.704439 -0.438341 -0.558232 -112.406091
DOCKED: USER    NEWDPF quat0 -0.704439 -0.438341 -0.558232 -112.406091
DOCKED: USER    NEWDPF dihe0 -83.32 -41.85 75.35 -95.32 2.90 158.75 -33.78 60.55 -165.65 164.78 
DOCKED: USER  keepresnum = 1 
DOCKED: USER  
DOCKED: REMARK  10 active torsions:
DOCKED: REMARK  status: ('A' for Active; 'I' for Inactive)
DOCKED: REMARK    1  A    between atoms: C_6  and  C_10 
DOCKED: REMARK    2  A    between atoms: C_10  and  C_11 
DOCKED: REMARK    3  A    between atoms: C_11  and  C_12 
DOCKED: REMARK    4  A    between atoms: C_12  and  O_14 
DOCKED: REMARK    5  A    between atoms: C_17  and  C_20 
DOCKED: REMARK    6  A    between atoms: C_24  and  C_27 
DOCKED: REMARK    7  A    between atoms: C_31  and  C_34 
DOCKED: REMARK    8  A    between atoms: C_34  and  C_35 
DOCKED: REMARK    9  A    between atoms: C_35  and  C_36 
DOCKED: REMARK   10  A    between atoms: C_36  and  O_38 
DOCKED: USER                              x       y       z     vdW  Elec       q    Type
DOCKED: USER                           _______ _______ _______ _____ _____    ______ ____
DOCKED: ROOT
DOCKED: ATOM      1  C   UNL d   1      -0.838  -0.885 -11.173 -0.24 +0.05    +0.064 C 
DOCKED: ATOM      2  C   UNL d   1      -2.887  -1.019  -6.678 -0.40 +0.02    +0.064 A 
DOCKED: ATOM      3  C   UNL d   1       1.417  -2.068  -4.822 -0.43 +0.01    +0.064 C 
DOCKED: ATOM      4  C   UNL d   1       3.400  -2.047  -9.175 -0.52 +0.02    +0.064 C 
DOCKED: ATOM      5  C   UNL d   1      -1.830  -0.908 -10.090 -0.31 +0.05    +0.066 A 
DOCKED: ATOM      6  C   UNL d   1      -3.195  -0.757 -10.265 -0.29 -0.02    -0.021 A 
DOCKED: ATOM      7  C   UNL d   1      -3.764  -0.791  -9.015 -0.30 -0.01    -0.025 A 
DOCKED: ATOM      8  C   UNL d   1      -2.721  -0.961  -8.125 -0.36 +0.03    +0.066 A 
DOCKED: ATOM      9  C   UNL d   1      -5.226  -0.684  -8.707 -0.32 +0.02    +0.051 C 
DOCKED: ATOM     10  C   UNL d   1      -1.907  -1.240  -5.800 -0.40 +0.02    +0.066 A 
DOCKED: ATOM     11  C   UNL d   1      -2.077  -1.176  -4.415 -0.44 -0.00    -0.021 A 
DOCKED: ATOM     12  C   UNL d   1      -0.846  -1.458  -3.857 -0.39 +0.00    +0.000 A 
DOCKED: ATOM     13  C   UNL d   1       0.022  -1.674  -4.942 -0.38 +0.02    +0.070 A 
DOCKED: ATOM     14  C   UNL d   1      -3.335  -0.796  -3.661 -0.58 +0.01    +0.052 C 
DOCKED: ATOM     15  C   UNL d   1       2.270  -2.226  -5.862 -0.39 +0.02    +0.066 A 
DOCKED: ATOM     16  C   UNL d   1       3.567  -2.701  -5.713 -0.47 -0.00    -0.021 A 
DOCKED: ATOM     17  C   UNL d   1       4.142  -2.692  -6.967 -0.50 +0.00    +0.000 A 
DOCKED: ATOM     18  C   UNL d   1       3.182  -2.208  -7.852 -0.42 +0.02    +0.070 A 
DOCKED: ATOM     19  C   UNL d   1       4.250  -3.122  -4.440 -0.63 +0.01    +0.052 C 
DOCKED: ATOM     20  C   UNL d   1       2.395  -1.599 -10.147 -0.42 +0.02    +0.066 A 
DOCKED: ATOM     21  C   UNL d   1       2.658  -1.238 -11.476 -0.41 -0.01    -0.025 A 
DOCKED: ATOM     22  C   UNL d   1       1.434  -0.922 -12.030 -0.22 -0.01    -0.021 A 
DOCKED: ATOM     23  C   UNL d   1       0.479  -1.096 -11.021 -0.08 +0.04    +0.066 A 
DOCKED: ATOM     24  C   UNL d   1       3.986  -1.185 -12.194 -0.52 +0.01    +0.051 C 
DOCKED: ATOM     25  N   UNL d   1      -1.547  -1.041  -8.782 -0.24 -0.12    -0.248 N 
DOCKED: ATOM     26  N   UNL d   1      -0.622  -1.532  -6.126 -0.25 -0.07    -0.248 N 
DOCKED: ATOM     27  N   UNL d   1       2.016  -1.963  -7.181 -0.13 -0.10    -0.248 N 
DOCKED: ATOM     28  N   UNL d   1       1.077  -1.466  -9.862 -0.24 -0.13    -0.248 N 
DOCKED: ATOM     29 FE   UNL d   1       0.229  -1.499  -7.995 -0.09 +0.00    +0.000 Fe
DOCKED: ENDROOT
DOCKED: BRANCH   6  30
DOCKED: ATOM     30  C   UNL d   1      -3.928  -0.610 -11.554 -0.16 +0.08    +0.052 C 
DOCKED: BRANCH  30  31
DOCKED: ATOM     31  C   UNL d   1      -3.763   0.800 -12.112 -0.21 +0.15    +0.115 C 
DOCKED: BRANCH  31  32
DOCKED: ATOM     32  C   UNL d   1      -3.732   0.770 -13.615 -0.15 +0.23    +0.139 C 
DOCKED: ATOM     33  O   UNL d   1      -3.883  -0.281 -14.221 +0.26 -1.55    -0.650 OA
DOCKED: BRANCH  32  34
DOCKED: ATOM     34  O   UNL d   1      -3.535   1.905 -14.307 -0.50 -1.60    -0.776 OA
DOCKED: ATOM     35  H   UNL d   1      -2.643   2.119 -14.614 +0.02 +0.33    +0.167 HD
DOCKED: ENDBRANCH  32  34
DOCKED: ENDBRANCH  31  32
DOCKED: ENDBRANCH  30  31
DOCKED: ENDBRANCH   6  30
DOCKED: BRANCH  22  36
DOCKED: ATOM     36  C   UNL d   1       1.205  -0.434 -13.436 -0.26 +0.03    +0.052 C 
DOCKED: BRANCH  36  37
DOCKED: ATOM     37  C   UNL d   1       1.075   1.082 -13.438 -0.09 +0.07    +0.115 C 
DOCKED: BRANCH  37  38
DOCKED: ATOM     38  C   UNL d   1      -0.260   1.508 -13.981 -0.17 +0.13    +0.139 C 
DOCKED: ATOM     39  O   UNL d   1      -0.717   2.610 -13.720 -0.23 -0.82    -0.650 OA
DOCKED: BRANCH  38  40
DOCKED: ATOM     40  O   UNL d   1      -0.966   0.669 -14.760 +0.04 -0.85    -0.776 OA
DOCKED: ATOM     41  H   UNL d   1      -1.921   0.594 -14.624 +0.03 +0.24    +0.167 HD
DOCKED: ENDBRANCH  38  40
DOCKED: ENDBRANCH  37  38
DOCKED: ENDBRANCH  36  37
DOCKED: ENDBRANCH  22  36
DOCKED: BRANCH  12  42
DOCKED: ATOM     42  C   UNL d   1      -0.559  -1.490  -2.390 -0.49 +0.00    +0.004 C 
DOCKED: ATOM     43  C   UNL d   1      -0.051  -2.586  -1.811 -0.57 +0.00    +0.012 C 
DOCKED: ENDBRANCH  12  42
DOCKED: BRANCH  17  44
DOCKED: ATOM     44  C   UNL d   1       5.514  -3.138  -7.299 -0.42 +0.00    +0.004 C 
DOCKED: ATOM     45  C   UNL d   1       6.544  -2.833  -6.504 -0.60 +0.00    +0.012 C 
DOCKED: ENDBRANCH  17  44
DOCKED: TORSDOF 10
DOCKED: TER
DOCKED: ENDMDL
________________________________________________________________________________


	BEGINNING GENETIC ALGORITHM DOCKING 20 of 100
Run: 20 Seed: 1927143394 892154925 [ Run 20 of 100 GA/GALS ]
Beginning LAMARCKIAN GENETIC ALGORITHM (LGA), with a maximum of 25000000 energy evaluations.

Final-Value: -20.016


	FINAL GENETIC ALGORITHM DOCKED STATE
	_______________________________________________


Detailed state:  trans -0.384 -0.903 -9.207 quatxyzw 0.619637 -0.460907 0.279434 -0.570554 center -0.174 -0.001 -0.047 ntor 10 -79.8272 -48.1858 73.3456 -126.7540 135.3503 15.7018 60.4574 -76.5115 15.9147 3.5206
State:	 -0.384  -0.903  -9.207   0.754 -0.561  0.340 -110.422    -79.83  -48.19   73.35 -126.75  135.35   15.70   60.46  -76.51   15.91    3.52

DOCKED: MODEL       20
DOCKED: USER    Run = 20
DOCKED: USER    DPF = D:/Protein_go_brrr/autodock/final/AncB/heme_Fe/dock.dpf
DOCKED: USER  
DOCKED: USER    Estimated Free Energy of Binding    =  -14.44 kcal/mol  [=(1)+(2)+(3)-(4)]
DOCKED: USER    Estimated Inhibition Constant, Ki   =   26.12 pM (picomolar)  [Temperature = 298.15 K]
DOCKED: USER    
DOCKED: USER    (1) Final Intermolecular Energy     =  -17.42 kcal/mol
DOCKED: USER        vdW + Hbond + desolv Energy     =  -13.91 kcal/mol
DOCKED: USER        Electrostatic Energy            =   -3.51 kcal/mol
DOCKED: USER    (2) Final Total Internal Energy     =   -2.60 kcal/mol
DOCKED: USER    (3) Torsional Free Energy           =   +2.98 kcal/mol
DOCKED: USER    (4) Unbound System's Energy  [=(2)] =   -2.60 kcal/mol
DOCKED: USER    
DOCKED: USER    
DOCKED: USER    NEWDPF move heme_Fe_opt.pdbqt
DOCKED: USER    NEWDPF about -0.174000 -0.001000 -0.047000
DOCKED: USER    NEWDPF tran0 -0.384112 -0.902671 -9.207233
DOCKED: USER    NEWDPF quaternion0 0.619637 -0.460907 0.279434 -0.570554
DOCKED: USER    NEWDPF axisangle0 0.754495 -0.561219 0.340251 -110.422244
DOCKED: USER    NEWDPF quat0 0.754495 -0.561219 0.340251 -110.422244
DOCKED: USER    NEWDPF dihe0 -79.83 -48.19 73.35 -126.75 135.35 15.70 60.46 -76.51 15.91 3.52 
DOCKED: USER  keepresnum = 1 
DOCKED: USER  
DOCKED: REMARK  10 active torsions:
DOCKED: REMARK  status: ('A' for Active; 'I' for Inactive)
DOCKED: REMARK    1  A    between atoms: C_6  and  C_10 
DOCKED: REMARK    2  A    between atoms: C_10  and  C_11 
DOCKED: REMARK    3  A    between atoms: C_11  and  C_12 
DOCKED: REMARK    4  A    between atoms: C_12  and  O_14 
DOCKED: REMARK    5  A    between atoms: C_17  and  C_20 
DOCKED: REMARK    6  A    between atoms: C_24  and  C_27 
DOCKED: REMARK    7  A    between atoms: C_31  and  C_34 
DOCKED: REMARK    8  A    between atoms: C_34  and  C_35 
DOCKED: REMARK    9  A    between atoms: C_35  and  C_36 
DOCKED: REMARK   10  A    between atoms: C_36  and  O_38 
DOCKED: USER                              x       y       z     vdW  Elec       q    Type
DOCKED: USER                           _______ _______ _______ _____ _____    ______ ____
DOCKED: ROOT
DOCKED: ATOM      1  C   UNL d   1      -1.257  -0.920 -11.064 -0.32 +0.06    +0.064 C 
DOCKED: ATOM      2  C   UNL d   1       3.267  -1.907  -9.336 -0.46 +0.02    +0.064 A 
DOCKED: ATOM      3  C   UNL d   1       1.454  -2.092  -4.892 -0.44 +0.01    +0.064 C 
DOCKED: ATOM      4  C   UNL d   1      -2.914  -1.034  -6.532 -0.47 +0.02    +0.064 C 
DOCKED: ATOM      5  C   UNL d   1       0.199  -1.099 -10.981 -0.11 +0.04    +0.066 A 
DOCKED: ATOM      6  C   UNL d   1       1.071  -0.997 -12.052 -0.21 -0.01    -0.021 A 
DOCKED: ATOM      7  C   UNL d   1       2.327  -1.275 -11.572 -0.36 -0.01    -0.025 A 
DOCKED: ATOM      8  C   UNL d   1       2.173  -1.535 -10.224 -0.41 +0.03    +0.066 A 
DOCKED: ATOM      9  C   UNL d   1       3.597  -1.269 -12.366 -0.49 +0.01    +0.051 C 
DOCKED: ATOM     10  C   UNL d   1       3.155  -2.108  -8.022 -0.42 +0.02    +0.066 A 
DOCKED: ATOM     11  C   UNL d   1       4.198  -2.574  -7.218 -0.49 -0.01    -0.021 A 
DOCKED: ATOM     12  C   UNL d   1       3.696  -2.652  -5.934 -0.49 +0.00    +0.000 A 
DOCKED: ATOM     13  C   UNL d   1       2.357  -2.233  -6.024 -0.39 +0.02    +0.070 A 
DOCKED: ATOM     14  C   UNL d   1       5.585  -2.992  -7.662 -0.40 +0.01    +0.052 C 
DOCKED: ATOM     15  C   UNL d   1       0.150  -1.738  -4.980 -0.39 +0.01    +0.066 A 
DOCKED: ATOM     16  C   UNL d   1      -0.652  -1.517  -3.868 -0.39 -0.00    -0.021 A 
DOCKED: ATOM     17  C   UNL d   1      -1.914  -1.216  -4.338 -0.43 +0.00    +0.000 A 
DOCKED: ATOM     18  C   UNL d   1      -1.851  -1.263  -5.729 -0.40 +0.02    +0.070 A 
DOCKED: ATOM     19  C   UNL d   1      -0.259  -1.611  -2.418 -0.44 +0.01    +0.052 C 
DOCKED: ATOM     20  C   UNL d   1      -2.872  -1.015  -7.999 -0.35 +0.03    +0.066 A 
DOCKED: ATOM     21  C   UNL d   1      -3.993  -0.978  -8.840 -0.26 -0.01    -0.025 A 
DOCKED: ATOM     22  C   UNL d   1      -3.497  -0.933 -10.127 -0.28 -0.02    -0.021 A 
DOCKED: ATOM     23  C   UNL d   1      -2.101  -0.951 -10.021 -0.31 +0.05    +0.066 A 
DOCKED: ATOM     24  C   UNL d   1      -5.456  -0.988  -8.464 -0.27 +0.02    +0.051 C 
DOCKED: ATOM     25  N   UNL d   1       0.879  -1.418  -9.865 -0.22 -0.13    -0.248 N 
DOCKED: ATOM     26  N   UNL d   1       2.025  -1.909  -7.297 -0.15 -0.11    -0.248 N 
DOCKED: ATOM     27  N   UNL d   1      -0.573  -1.541  -6.125 -0.25 -0.07    -0.248 N 
DOCKED: ATOM     28  N   UNL d   1      -1.727  -1.046  -8.722 -0.24 -0.12    -0.248 N 
DOCKED: ATOM     29 FE   UNL d   1       0.147  -1.477  -8.009 -0.09 +0.00    +0.000 Fe
DOCKED: ENDROOT
DOCKED: BRANCH   6  30
DOCKED: ATOM     30  C   UNL d   1       0.734  -0.634 -13.458 -0.25 +0.04    +0.052 C 
DOCKED: BRANCH  30  31
DOCKED: ATOM     31  C   UNL d   1       1.176   0.792 -13.768 -0.20 +0.07    +0.115 C 
DOCKED: BRANCH  31  32
DOCKED: ATOM     32  C   UNL d   1      -0.006   1.638 -14.151 -0.16 +0.12    +0.139 C 
DOCKED: ATOM     33  O   UNL d   1      -0.143   2.763 -13.691 -0.35 -0.72    -0.650 OA
DOCKED: BRANCH  32  34
DOCKED: ATOM     34  O   UNL d   1      -0.927   1.163 -15.007 +0.06 -0.81    -0.776 OA
DOCKED: ATOM     35  H   UNL d   1      -1.757   0.811 -14.655 +0.04 +0.22    +0.167 HD
DOCKED: ENDBRANCH  32  34
DOCKED: ENDBRANCH  31  32
DOCKED: ENDBRANCH  30  31
DOCKED: ENDBRANCH   6  30
DOCKED: BRANCH  22  36
DOCKED: ATOM     36  C   UNL d   1      -4.322  -0.924 -11.387 -0.17 +0.07    +0.052 C 
DOCKED: BRANCH  36  37
DOCKED: ATOM     37  C   UNL d   1      -4.417   0.495 -11.928 -0.19 +0.14    +0.115 C 
DOCKED: BRANCH  37  38
DOCKED: ATOM     38  C   UNL d   1      -3.491   0.691 -13.095 -0.18 +0.22    +0.139 C 
DOCKED: ATOM     39  O   UNL d   1      -3.004  -0.269 -13.674 +0.22 -1.56    -0.650 OA
DOCKED: BRANCH  38  40
DOCKED: ATOM     40  O   UNL d   1      -3.187   1.933 -13.510 -0.25 -1.48    -0.776 OA
DOCKED: ATOM     41  H   UNL d   1      -2.261   2.164 -13.664 +0.03 +0.29    +0.167 HD
DOCKED: ENDBRANCH  38  40
DOCKED: ENDBRANCH  37  38
DOCKED: ENDBRANCH  36  37
DOCKED: ENDBRANCH  22  36
DOCKED: BRANCH  12  42
DOCKED: ATOM     42  C   UNL d   1       4.467  -3.118  -4.740 -0.67 +0.00    +0.004 C 
DOCKED: ATOM     43  C   UNL d   1       4.637  -2.322  -3.676 -0.62 +0.00    +0.012 C 
DOCKED: ENDBRANCH  12  42
DOCKED: BRANCH  17  44
DOCKED: ATOM     44  C   UNL d   1      -3.096  -0.883  -3.512 -0.61 +0.00    +0.004 C 
DOCKED: ATOM     45  C   UNL d   1      -3.728  -1.828  -2.809 -0.67 +0.00    +0.012 C 
DOCKED: ENDBRANCH  17  44
DOCKED: TORSDOF 10
DOCKED: TER
DOCKED: ENDMDL
________________________________________________________________________________


	BEGINNING GENETIC ALGORITHM DOCKING 21 of 100
Run: 21 Seed: 1036710557 1380214964 [ Run 21 of 100 GA/GALS ]
Beginning LAMARCKIAN GENETIC ALGORITHM (LGA), with a maximum of 25000000 energy evaluations.

Final-Value: -19.378


	FINAL GENETIC ALGORITHM DOCKED STATE
	_______________________________________________


Detailed state:  trans -0.307 -0.885 -9.140 quatxyzw 0.606619 -0.474268 0.280297 -0.573164 center -0.174 -0.001 -0.047 ntor 10 -143.3935 -20.8510 55.4736 -120.0819 77.7312 -174.9620 -9.4622 -56.7224 -154.9677 -14.2407
State:	 -0.307  -0.885  -9.140   0.740 -0.579  0.342 -110.058   -143.39  -20.85   55.47 -120.08   77.73 -174.96   -9.46  -56.72 -154.97  -14.24

DOCKED: MODEL       21
DOCKED: USER    Run = 21
DOCKED: USER    DPF = D:/Protein_go_brrr/autodock/final/AncB/heme_Fe/dock.dpf
DOCKED: USER  
DOCKED: USER    Estimated Free Energy of Binding    =  -14.91 kcal/mol  [=(1)+(2)+(3)-(4)]
DOCKED: USER    Estimated Inhibition Constant, Ki   =   11.77 pM (picomolar)  [Temperature = 298.15 K]
DOCKED: USER    
DOCKED: USER    (1) Final Intermolecular Energy     =  -17.89 kcal/mol
DOCKED: USER        vdW + Hbond + desolv Energy     =  -14.40 kcal/mol
DOCKED: USER        Electrostatic Energy            =   -3.49 kcal/mol
DOCKED: USER    (2) Final Total Internal Energy     =   -1.48 kcal/mol
DOCKED: USER    (3) Torsional Free Energy           =   +2.98 kcal/mol
DOCKED: USER    (4) Unbound System's Energy  [=(2)] =   -1.48 kcal/mol
DOCKED: USER    
DOCKED: USER    
DOCKED: USER    NEWDPF move heme_Fe_opt.pdbqt
DOCKED: USER    NEWDPF about -0.174000 -0.001000 -0.047000
DOCKED: USER    NEWDPF tran0 -0.307313 -0.885385 -9.139511
DOCKED: USER    NEWDPF quaternion0 0.606619 -0.474268 0.280297 -0.573164
DOCKED: USER    NEWDPF axisangle0 0.740284 -0.578770 0.342058 -110.057681
DOCKED: USER    NEWDPF quat0 0.740284 -0.578770 0.342058 -110.057681
DOCKED: USER    NEWDPF dihe0 -143.39 -20.85 55.47 -120.08 77.73 -174.96 -9.46 -56.72 -154.97 -14.24 
DOCKED: USER  keepresnum = 1 
DOCKED: USER  
DOCKED: REMARK  10 active torsions:
DOCKED: REMARK  status: ('A' for Active; 'I' for Inactive)
DOCKED: REMARK    1  A    between atoms: C_6  and  C_10 
DOCKED: REMARK    2  A    between atoms: C_10  and  C_11 
DOCKED: REMARK    3  A    between atoms: C_11  and  C_12 
DOCKED: REMARK    4  A    between atoms: C_12  and  O_14 
DOCKED: REMARK    5  A    between atoms: C_17  and  C_20 
DOCKED: REMARK    6  A    between atoms: C_24  and  C_27 
DOCKED: REMARK    7  A    between atoms: C_31  and  C_34 
DOCKED: REMARK    8  A    between atoms: C_34  and  C_35 
DOCKED: REMARK    9  A    between atoms: C_35  and  C_36 
DOCKED: REMARK   10  A    between atoms: C_36  and  O_38 
DOCKED: USER                              x       y       z     vdW  Elec       q    Type
DOCKED: USER                           _______ _______ _______ _____ _____    ______ ____
DOCKED: ROOT
DOCKED: ATOM      1  C   UNL d   1      -1.141  -0.900 -11.014 -0.30 +0.05    +0.064 C 
DOCKED: ATOM      2  C   UNL d   1       3.315  -1.997  -9.179 -0.45 +0.02    +0.064 A 
DOCKED: ATOM      3  C   UNL d   1       1.405  -2.076  -4.773 -0.43 +0.01    +0.064 C 
DOCKED: ATOM      4  C   UNL d   1      -2.895  -0.912  -6.517 -0.48 +0.02    +0.064 C 
DOCKED: ATOM      5  C   UNL d   1       0.307  -1.119 -10.898 -0.09 +0.04    +0.066 A 
DOCKED: ATOM      6  C   UNL d   1       1.204  -1.055 -11.951 -0.24 -0.01    -0.021 A 
DOCKED: ATOM      7  C   UNL d   1       2.441  -1.364 -11.442 -0.38 -0.01    -0.025 A 
DOCKED: ATOM      8  C   UNL d   1       2.251  -1.604 -10.094 -0.41 +0.03    +0.066 A 
DOCKED: ATOM      9  C   UNL d   1       3.727  -1.404 -12.208 -0.51 +0.01    +0.051 C 
DOCKED: ATOM     10  C   UNL d   1       3.170  -2.178  -7.865 -0.42 +0.02    +0.066 A 
DOCKED: ATOM     11  C   UNL d   1       4.181  -2.665  -7.034 -0.49 -0.01    -0.021 A 
DOCKED: ATOM     12  C   UNL d   1       3.650  -2.714  -5.761 -0.49 +0.00    +0.000 A 
DOCKED: ATOM     13  C   UNL d   1       2.327  -2.257  -5.884 -0.39 +0.02    +0.070 A 
DOCKED: ATOM     14  C   UNL d   1       5.565  -3.128  -7.444 -0.36 +0.01    +0.052 C 
DOCKED: ATOM     15  C   UNL d   1       0.114  -1.686  -4.893 -0.38 +0.01    +0.066 A 
DOCKED: ATOM     16  C   UNL d   1      -0.705  -1.430  -3.801 -0.36 -0.00    -0.021 A 
DOCKED: ATOM     17  C   UNL d   1      -1.947  -1.097  -4.301 -0.41 +0.00    +0.000 A 
DOCKED: ATOM     18  C   UNL d   1      -1.857  -1.163  -5.690 -0.39 +0.02    +0.070 A 
DOCKED: ATOM     19  C   UNL d   1      -0.345  -1.517  -2.342 -0.44 +0.01    +0.052 C 
DOCKED: ATOM     20  C   UNL d   1      -2.822  -0.911  -7.983 -0.36 +0.03    +0.066 A 
DOCKED: ATOM     21  C   UNL d   1      -3.923  -0.852  -8.849 -0.29 -0.01    -0.025 A 
DOCKED: ATOM     22  C   UNL d   1      -3.400  -0.837 -10.125 -0.28 -0.02    -0.021 A 
DOCKED: ATOM     23  C   UNL d   1      -2.008  -0.894  -9.989 -0.31 +0.05    +0.066 A 
DOCKED: ATOM     24  C   UNL d   1      -5.394  -0.815  -8.504 -0.30 +0.02    +0.051 C 
DOCKED: ATOM     25  N   UNL d   1       0.954  -1.445  -9.765 -0.22 -0.13    -0.248 N 
DOCKED: ATOM     26  N   UNL d   1       2.031  -1.939  -7.168 -0.16 -0.10    -0.248 N 
DOCKED: ATOM     27  N   UNL d   1      -0.580  -1.482  -6.056 -0.25 -0.07    -0.248 N 
DOCKED: ATOM     28  N   UNL d   1      -1.663  -0.984  -8.682 -0.24 -0.12    -0.248 N 
DOCKED: ATOM     29 FE   UNL d   1       0.182  -1.461  -7.924 -0.09 +0.00    +0.000 Fe
DOCKED: ENDROOT
DOCKED: BRANCH   6  30
DOCKED: ATOM     30  C   UNL d   1       0.907  -0.699 -13.368 -0.26 +0.03    +0.052 C 
DOCKED: BRANCH  30  31
DOCKED: ATOM     31  C   UNL d   1       0.009  -1.749 -14.013 -0.18 +0.12    +0.115 C 
DOCKED: BRANCH  31  32
DOCKED: ATOM     32  C   UNL d   1      -0.473  -1.276 -15.356 -0.14 +0.16    +0.139 C 
DOCKED: ATOM     33  O   UNL d   1       0.263  -1.316 -16.332 +0.00 -0.48    -0.650 OA
DOCKED: BRANCH  32  34
DOCKED: ATOM     34  O   UNL d   1      -1.723  -0.802 -15.496 -0.52 -1.40    -0.776 OA
DOCKED: ATOM     35  H   UNL d   1      -2.110  -0.280 -14.779 +0.02 +0.33    +0.167 HD
DOCKED: ENDBRANCH  32  34
DOCKED: ENDBRANCH  31  32
DOCKED: ENDBRANCH  30  31
DOCKED: ENDBRANCH   6  30
DOCKED: BRANCH  22  36
DOCKED: ATOM     36  C   UNL d   1      -4.197  -0.818 -11.403 -0.18 +0.07    +0.052 C 
DOCKED: BRANCH  36  37
DOCKED: ATOM     37  C   UNL d   1      -4.615   0.609 -11.727 -0.19 +0.13    +0.115 C 
DOCKED: BRANCH  37  38
DOCKED: ATOM     38  C   UNL d   1      -4.115   1.022 -13.082 -0.17 +0.21    +0.139 C 
DOCKED: ATOM     39  O   UNL d   1      -4.271   2.165 -13.485 -0.31 -1.30    -0.650 OA
DOCKED: BRANCH  38  40
DOCKED: ATOM     40  O   UNL d   1      -3.490   0.127 -13.869 -0.01 -1.55    -0.776 OA
DOCKED: ATOM     41  H   UNL d   1      -3.447   0.288 -14.822 +0.02 +0.30    +0.167 HD
DOCKED: ENDBRANCH  38  40
DOCKED: ENDBRANCH  37  38
DOCKED: ENDBRANCH  36  37
DOCKED: ENDBRANCH  22  36
DOCKED: BRANCH  12  42
DOCKED: ATOM     42  C   UNL d   1       4.382  -3.187  -4.545 -0.68 +0.00    +0.004 C 
DOCKED: ATOM     43  C   UNL d   1       4.864  -2.317  -3.648 -0.59 +0.00    +0.012 C 
DOCKED: ENDBRANCH  12  42
DOCKED: BRANCH  17  44
DOCKED: ATOM     44  C   UNL d   1      -3.136  -0.720  -3.504 -0.58 +0.00    +0.004 C 
DOCKED: ATOM     45  C   UNL d   1      -3.731  -1.608  -2.701 -0.70 +0.00    +0.012 C 
DOCKED: ENDBRANCH  17  44
DOCKED: TORSDOF 10
DOCKED: TER
DOCKED: ENDMDL
________________________________________________________________________________


	BEGINNING GENETIC ALGORITHM DOCKING 22 of 100
Run: 22 Seed: 938769623 1881260215 [ Run 22 of 100 GA/GALS ]
Beginning LAMARCKIAN GENETIC ALGORITHM (LGA), with a maximum of 25000000 energy evaluations.

Final-Value: -17.893


	FINAL GENETIC ALGORITHM DOCKED STATE
	_______________________________________________


Detailed state:  trans -0.484 -0.911 -9.112 quatxyzw 0.623476 -0.452319 0.271480 -0.577047 center -0.174 -0.001 -0.047 ntor 10 95.9625 -16.9695 74.1509 -133.2956 157.7325 -67.7652 61.8791 -12.6628 -26.8137 -170.2754
State:	 -0.484  -0.911  -9.112   0.763 -0.554  0.332 -109.514     95.96  -16.97   74.15 -133.30  157.73  -67.77   61.88  -12.66  -26.81 -170.28

DOCKED: MODEL       22
DOCKED: USER    Run = 22
DOCKED: USER    DPF = D:/Protein_go_brrr/autodock/final/AncB/heme_Fe/dock.dpf
DOCKED: USER  
DOCKED: USER    Estimated Free Energy of Binding    =  -14.39 kcal/mol  [=(1)+(2)+(3)-(4)]
DOCKED: USER    Estimated Inhibition Constant, Ki   =   28.45 pM (picomolar)  [Temperature = 298.15 K]
DOCKED: USER    
DOCKED: USER    (1) Final Intermolecular Energy     =  -17.37 kcal/mol
DOCKED: USER        vdW + Hbond + desolv Energy     =  -13.88 kcal/mol
DOCKED: USER        Electrostatic Energy            =   -3.49 kcal/mol
DOCKED: USER    (2) Final Total Internal Energy     =   -0.52 kcal/mol
DOCKED: USER    (3) Torsional Free Energy           =   +2.98 kcal/mol
DOCKED: USER    (4) Unbound System's Energy  [=(2)] =   -0.52 kcal/mol
DOCKED: USER    
DOCKED: USER    
DOCKED: USER    NEWDPF move heme_Fe_opt.pdbqt
DOCKED: USER    NEWDPF about -0.174000 -0.001000 -0.047000
DOCKED: USER    NEWDPF tran0 -0.484312 -0.911075 -9.112049
DOCKED: USER    NEWDPF quaternion0 0.623476 -0.452319 0.271480 -0.577047
DOCKED: USER    NEWDPF axisangle0 0.763399 -0.553830 0.332406 -109.513807
DOCKED: USER    NEWDPF quat0 0.763399 -0.553830 0.332406 -109.513807
DOCKED: USER    NEWDPF dihe0 95.96 -16.97 74.15 -133.30 157.73 -67.77 61.88 -12.66 -26.81 -170.28 
DOCKED: USER  keepresnum = 1 
DOCKED: USER  
DOCKED: REMARK  10 active torsions:
DOCKED: REMARK  status: ('A' for Active; 'I' for Inactive)
DOCKED: REMARK    1  A    between atoms: C_6  and  C_10 
DOCKED: REMARK    2  A    between atoms: C_10  and  C_11 
DOCKED: REMARK    3  A    between atoms: C_11  and  C_12 
DOCKED: REMARK    4  A    between atoms: C_12  and  O_14 
DOCKED: REMARK    5  A    between atoms: C_17  and  C_20 
DOCKED: REMARK    6  A    between atoms: C_24  and  C_27 
DOCKED: REMARK    7  A    between atoms: C_31  and  C_34 
DOCKED: REMARK    8  A    between atoms: C_34  and  C_35 
DOCKED: REMARK    9  A    between atoms: C_35  and  C_36 
DOCKED: REMARK   10  A    between atoms: C_36  and  O_38 
DOCKED: USER                              x       y       z     vdW  Elec       q    Type
DOCKED: USER                           _______ _______ _______ _____ _____    ______ ____
DOCKED: ROOT
DOCKED: ATOM      1  C   UNL d   1      -1.409  -0.932 -10.944 -0.34 +0.06    +0.064 C 
DOCKED: ATOM      2  C   UNL d   1       3.164  -1.911  -9.341 -0.46 +0.02    +0.064 A 
DOCKED: ATOM      3  C   UNL d   1       1.475  -2.093  -4.848 -0.44 +0.01    +0.064 C 
DOCKED: ATOM      4  C   UNL d   1      -2.938  -1.043  -6.367 -0.48 +0.02    +0.064 C 
DOCKED: ATOM      5  C   UNL d   1       0.050  -1.108 -10.901 -0.14 +0.04    +0.066 A 
DOCKED: ATOM      6  C   UNL d   1       0.891  -1.007 -11.996 -0.19 -0.01    -0.021 A 
DOCKED: ATOM      7  C   UNL d   1       2.160  -1.282 -11.551 -0.34 -0.01    -0.025 A 
DOCKED: ATOM      8  C   UNL d   1       2.044  -1.541 -10.199 -0.40 +0.03    +0.066 A 
DOCKED: ATOM      9  C   UNL d   1       3.408  -1.275 -12.380 -0.47 +0.01    +0.051 C 
DOCKED: ATOM     10  C   UNL d   1       3.089  -2.110  -8.024 -0.41 +0.02    +0.066 A 
DOCKED: ATOM     11  C   UNL d   1       4.154  -2.574  -7.249 -0.49 -0.01    -0.021 A 
DOCKED: ATOM     12  C   UNL d   1       3.688  -2.651  -5.951 -0.49 +0.00    +0.000 A 
DOCKED: ATOM     13  C   UNL d   1       2.346  -2.234  -6.004 -0.39 +0.02    +0.070 A 
DOCKED: ATOM     14  C   UNL d   1       5.529  -2.990  -7.731 -0.39 +0.01    +0.052 C 
DOCKED: ATOM     15  C   UNL d   1       0.169  -1.741  -4.900 -0.39 +0.01    +0.066 A 
DOCKED: ATOM     16  C   UNL d   1      -0.603  -1.520  -3.767 -0.39 -0.00    -0.021 A 
DOCKED: ATOM     17  C   UNL d   1      -1.877  -1.221  -4.202 -0.42 +0.00    +0.000 A 
DOCKED: ATOM     18  C   UNL d   1      -1.854  -1.270  -5.594 -0.40 +0.02    +0.070 A 
DOCKED: ATOM     19  C   UNL d   1      -0.169  -1.611  -2.328 -0.43 +0.01    +0.052 C 
DOCKED: ATOM     20  C   UNL d   1      -2.937  -1.025  -7.835 -0.36 +0.03    +0.066 A 
DOCKED: ATOM     21  C   UNL d   1      -4.081  -0.991  -8.645 -0.26 -0.01    -0.025 A 
DOCKED: ATOM     22  C   UNL d   1      -3.622  -0.947  -9.945 -0.27 -0.02    -0.021 A 
DOCKED: ATOM     23  C   UNL d   1      -2.223  -0.963  -9.878 -0.31 +0.05    +0.066 A 
DOCKED: ATOM     24  C   UNL d   1      -5.534  -1.003  -8.228 -0.26 +0.02    +0.051 C 
DOCKED: ATOM     25  N   UNL d   1       0.761  -1.425  -9.805 -0.21 -0.13    -0.248 N 
DOCKED: ATOM     26  N   UNL d   1       1.978  -1.912  -7.269 -0.14 -0.11    -0.248 N 
DOCKED: ATOM     27  N   UNL d   1      -0.587  -1.546  -6.025 -0.25 -0.07    -0.248 N 
DOCKED: ATOM     28  N   UNL d   1      -1.812  -1.056  -8.590 -0.24 -0.12    -0.248 N 
DOCKED: ATOM     29 FE   UNL d   1       0.081  -1.484  -7.928 -0.09 +0.00    +0.000 Fe
DOCKED: ENDROOT
DOCKED: BRANCH   6  30
DOCKED: ATOM     30  C   UNL d   1       0.515  -0.645 -13.392 -0.26 +0.04    +0.052 C 
DOCKED: BRANCH  30  31
DOCKED: ATOM     31  C   UNL d   1      -0.058   0.767 -13.449 -0.14 +0.10    +0.115 C 
DOCKED: BRANCH  31  32
DOCKED: ATOM     32  C   UNL d   1      -1.481   0.739 -13.933 -0.17 +0.18    +0.139 C 
DOCKED: ATOM     33  O   UNL d   1      -2.245   1.659 -13.678 -0.10 -0.99    -0.650 OA
DOCKED: BRANCH  32  34
DOCKED: ATOM     34  O   UNL d   1      -1.928  -0.304 -14.654 -0.37 -1.49    -0.776 OA
DOCKED: ATOM     35  H   UNL d   1      -1.772  -0.316 -15.609 +0.02 +0.25    +0.167 HD
DOCKED: ENDBRANCH  32  34
DOCKED: ENDBRANCH  31  32
DOCKED: ENDBRANCH  30  31
DOCKED: ENDBRANCH   6  30
DOCKED: BRANCH  22  36
DOCKED: ATOM     36  C   UNL d   1      -4.481  -0.940 -11.182 -0.21 +0.07    +0.052 C 
DOCKED: BRANCH  36  37
DOCKED: ATOM     37  C   UNL d   1      -5.079  -2.323 -11.399 -0.03 +0.17    +0.115 C 
DOCKED: BRANCH  37  38
DOCKED: ATOM     38  C   UNL d   1      -6.184  -2.278 -12.416 -0.14 +0.19    +0.139 C 
DOCKED: ATOM     39  O   UNL d   1      -7.234  -1.702 -12.172 +0.02 -0.52    -0.650 OA
DOCKED: BRANCH  38  40
DOCKED: ATOM     40  O   UNL d   1      -6.025  -2.880 -13.608 -0.12 -1.56    -0.776 OA
DOCKED: ATOM     41  H   UNL d   1      -6.805  -3.066 -14.149 +0.02 +0.21    +0.167 HD
DOCKED: ENDBRANCH  38  40
DOCKED: ENDBRANCH  37  38
DOCKED: ENDBRANCH  36  37
DOCKED: ENDBRANCH  22  36
DOCKED: BRANCH  12  42
DOCKED: ATOM     42  C   UNL d   1       4.492  -3.114  -4.779 -0.67 +0.00    +0.004 C 
DOCKED: ATOM     43  C   UNL d   1       4.677  -2.322  -3.714 -0.62 +0.00    +0.012 C 
DOCKED: ENDBRANCH  12  42
DOCKED: BRANCH  17  44
DOCKED: ATOM     44  C   UNL d   1      -3.037  -0.889  -3.343 -0.61 +0.00    +0.004 C 
DOCKED: ATOM     45  C   UNL d   1      -3.728  -1.851  -2.724 -0.67 +0.00    +0.012 C 
DOCKED: ENDBRANCH  17  44
DOCKED: TORSDOF 10
DOCKED: TER
DOCKED: ENDMDL
________________________________________________________________________________


	BEGINNING GENETIC ALGORITHM DOCKING 23 of 100
Run: 23 Seed: 821785105 1399104890 [ Run 23 of 100 GA/GALS ]
Beginning LAMARCKIAN GENETIC ALGORITHM (LGA), with a maximum of 25000000 energy evaluations.

Final-Value: -19.948


	FINAL GENETIC ALGORITHM DOCKED STATE
	_______________________________________________


Detailed state:  trans 0.054 -1.642 -9.273 quatxyzw 0.572893 0.381116 0.476198 0.547521 center -0.174 -0.001 -0.047 ntor 10 65.9083 -28.7677 78.8329 -103.4634 168.7866 164.7001 -39.8470 60.6575 -172.5070 175.7244
State:	  0.054  -1.642  -9.273   0.685  0.455  0.569 113.606     65.91  -28.77   78.83 -103.46  168.79  164.70  -39.85   60.66 -172.51  175.72

DOCKED: MODEL       23
DOCKED: USER    Run = 23
DOCKED: USER    DPF = D:/Protein_go_brrr/autodock/final/AncB/heme_Fe/dock.dpf
DOCKED: USER  
DOCKED: USER    Estimated Free Energy of Binding    =  -15.04 kcal/mol  [=(1)+(2)+(3)-(4)]
DOCKED: USER    Estimated Inhibition Constant, Ki   =    9.39 pM (picomolar)  [Temperature = 298.15 K]
DOCKED: USER    
DOCKED: USER    (1) Final Intermolecular Energy     =  -18.03 kcal/mol
DOCKED: USER        vdW + Hbond + desolv Energy     =  -14.50 kcal/mol
DOCKED: USER        Electrostatic Energy            =   -3.53 kcal/mol
DOCKED: USER    (2) Final Total Internal Energy     =   -1.92 kcal/mol
DOCKED: USER    (3) Torsional Free Energy           =   +2.98 kcal/mol
DOCKED: USER    (4) Unbound System's Energy  [=(2)] =   -1.92 kcal/mol
DOCKED: USER    
DOCKED: USER    
DOCKED: USER    NEWDPF move heme_Fe_opt.pdbqt
DOCKED: USER    NEWDPF about -0.174000 -0.001000 -0.047000
DOCKED: USER    NEWDPF tran0 0.053632 -1.641683 -9.273476
DOCKED: USER    NEWDPF quaternion0 0.572893 0.381116 0.476198 0.547521
DOCKED: USER    NEWDPF axisangle0 0.684630 0.455449 0.569076 113.605725
DOCKED: USER    NEWDPF quat0 0.684630 0.455449 0.569076 113.605725
DOCKED: USER    NEWDPF dihe0 65.91 -28.77 78.83 -103.46 168.79 164.70 -39.85 60.66 -172.51 175.72 
DOCKED: USER  keepresnum = 1 
DOCKED: USER  
DOCKED: REMARK  10 active torsions:
DOCKED: REMARK  status: ('A' for Active; 'I' for Inactive)
DOCKED: REMARK    1  A    between atoms: C_6  and  C_10 
DOCKED: REMARK    2  A    between atoms: C_10  and  C_11 
DOCKED: REMARK    3  A    between atoms: C_11  and  C_12 
DOCKED: REMARK    4  A    between atoms: C_12  and  O_14 
DOCKED: REMARK    5  A    between atoms: C_17  and  C_20 
DOCKED: REMARK    6  A    between atoms: C_24  and  C_27 
DOCKED: REMARK    7  A    between atoms: C_31  and  C_34 
DOCKED: REMARK    8  A    between atoms: C_34  and  C_35 
DOCKED: REMARK    9  A    between atoms: C_35  and  C_36 
DOCKED: REMARK   10  A    between atoms: C_36  and  O_38 
DOCKED: USER                              x       y       z     vdW  Elec       q    Type
DOCKED: USER                           _______ _______ _______ _____ _____    ______ ____
DOCKED: ROOT
DOCKED: ATOM      1  C   UNL d   1      -0.442  -0.940 -11.137 -0.12 +0.05    +0.064 C 
DOCKED: ATOM      2  C   UNL d   1      -2.718  -1.077  -6.752 -0.40 +0.02    +0.064 A 
DOCKED: ATOM      3  C   UNL d   1       1.493  -2.090  -4.676 -0.42 +0.01    +0.064 C 
DOCKED: ATOM      4  C   UNL d   1       3.696  -2.067  -8.922 -0.51 +0.02    +0.064 C 
DOCKED: ATOM      5  C   UNL d   1      -1.488  -0.967 -10.106 -0.31 +0.05    +0.066 A 
DOCKED: ATOM      6  C   UNL d   1      -2.844  -0.827 -10.351 -0.30 -0.02    -0.021 A 
DOCKED: ATOM      7  C   UNL d   1      -3.475  -0.861  -9.132 -0.30 -0.01    -0.025 A 
DOCKED: ATOM      8  C   UNL d   1      -2.478  -1.021  -8.189 -0.35 +0.03    +0.066 A 
DOCKED: ATOM      9  C   UNL d   1      -4.951  -0.764  -8.899 -0.30 +0.03    +0.051 C 
DOCKED: ATOM     10  C   UNL d   1      -1.782  -1.288  -5.825 -0.40 +0.02    +0.066 A 
DOCKED: ATOM     11  C   UNL d   1      -2.023  -1.221  -4.451 -0.44 -0.00    -0.021 A 
DOCKED: ATOM     12  C   UNL d   1      -0.820  -1.493  -3.830 -0.40 +0.00    +0.000 A 
DOCKED: ATOM     13  C   UNL d   1       0.104  -1.706  -4.867 -0.38 +0.02    +0.070 A 
DOCKED: ATOM     14  C   UNL d   1      -3.320  -0.849  -3.762 -0.59 +0.01    +0.052 C 
DOCKED: ATOM     15  C   UNL d   1       2.399  -2.245  -5.670 -0.39 +0.01    +0.066 A 
DOCKED: ATOM     16  C   UNL d   1       3.690  -2.709  -5.453 -0.49 -0.00    -0.021 A 
DOCKED: ATOM     17  C   UNL d   1       4.329  -2.700  -6.676 -0.51 +0.00    +0.000 A 
DOCKED: ATOM     18  C   UNL d   1       3.412  -2.225  -7.611 -0.42 +0.02    +0.070 A 
DOCKED: ATOM     19  C   UNL d   1       4.311  -3.122  -4.146 -0.63 +0.01    +0.052 C 
DOCKED: ATOM     20  C   UNL d   1       2.739  -1.628  -9.945 -0.44 +0.02    +0.066 A 
DOCKED: ATOM     21  C   UNL d   1       3.067  -1.269 -11.260 -0.46 -0.01    -0.025 A 
DOCKED: ATOM     22  C   UNL d   1       1.871  -0.964 -11.877 -0.29 -0.01    -0.021 A 
DOCKED: ATOM     23  C   UNL d   1       0.867  -1.142 -10.917 -0.09 +0.03    +0.066 A 
DOCKED: ATOM     24  C   UNL d   1       4.430  -1.209 -11.910 -0.51 +0.01    +0.051 C 
DOCKED: ATOM     25  N   UNL d   1      -1.272  -1.095  -8.785 -0.24 -0.12    -0.248 N 
DOCKED: ATOM     26  N   UNL d   1      -0.480  -1.572  -6.084 -0.25 -0.07    -0.248 N 
DOCKED: ATOM     27  N   UNL d   1       2.212  -1.987  -7.001 -0.21 -0.09    -0.248 N 
DOCKED: ATOM     28  N   UNL d   1       1.407  -1.504  -9.728 -0.26 -0.12    -0.248 N 
DOCKED: ATOM     29 FE   UNL d   1       0.466  -1.538  -7.907 -0.09 +0.00    +0.000 Fe
DOCKED: ENDROOT
DOCKED: BRANCH   6  30
DOCKED: ATOM     30  C   UNL d   1      -3.511  -0.689 -11.676 -0.05 +0.09    +0.052 C 
DOCKED: BRANCH  30  31
DOCKED: ATOM     31  C   UNL d   1      -3.474   0.760 -12.151 -0.22 +0.15    +0.115 C 
DOCKED: BRANCH  31  32
DOCKED: ATOM     32  C   UNL d   1      -3.202   0.822 -13.629 -0.16 +0.23    +0.139 C 
DOCKED: ATOM     33  O   UNL d   1      -3.335   1.871 -14.243 -0.50 -1.31    -0.650 OA
DOCKED: BRANCH  32  34
DOCKED: ATOM     34  O   UNL d   1      -2.810  -0.280 -14.290 +0.04 -1.92    -0.776 OA
DOCKED: ATOM     35  H   UNL d   1      -1.921  -0.307 -14.671 +0.03 +0.32    +0.167 HD
DOCKED: ENDBRANCH  32  34
DOCKED: ENDBRANCH  31  32
DOCKED: ENDBRANCH  30  31
DOCKED: ENDBRANCH   6  30
DOCKED: BRANCH  22  36
DOCKED: ATOM     36  C   UNL d   1       1.711  -0.482 -13.294 -0.29 +0.03    +0.052 C 
DOCKED: BRANCH  36  37
DOCKED: ATOM     37  C   UNL d   1       1.842   1.034 -13.339 -0.18 +0.06    +0.115 C 
DOCKED: BRANCH  37  38
DOCKED: ATOM     38  C   UNL d   1       0.592   1.667 -13.879 -0.18 +0.10    +0.139 C 
DOCKED: ATOM     39  O   UNL d   1       0.386   2.864 -13.738 -0.36 -0.63    -0.650 OA
DOCKED: BRANCH  38  40
DOCKED: ATOM     40  O   UNL d   1      -0.317   0.915 -14.524 +0.07 -0.71    -0.776 OA
DOCKED: ATOM     41  H   UNL d   1      -1.248   1.176 -14.497 +0.04 +0.20    +0.167 HD
DOCKED: ENDBRANCH  38  40
DOCKED: ENDBRANCH  37  38
DOCKED: ENDBRANCH  36  37
DOCKED: ENDBRANCH  22  36
DOCKED: BRANCH  12  42
DOCKED: ATOM     42  C   UNL d   1      -0.608  -1.519  -2.349 -0.50 +0.00    +0.004 C 
DOCKED: ATOM     43  C   UNL d   1      -0.059  -2.584  -1.750 -0.57 +0.00    +0.012 C 
DOCKED: ENDBRANCH  12  42
DOCKED: BRANCH  17  44
DOCKED: ATOM     44  C   UNL d   1       5.719  -3.137  -6.937 -0.47 +0.00    +0.004 C 
DOCKED: ATOM     45  C   UNL d   1       6.730  -2.691  -6.183 -0.67 +0.00    +0.012 C 
DOCKED: ENDBRANCH  17  44
DOCKED: TORSDOF 10
DOCKED: TER
DOCKED: ENDMDL
________________________________________________________________________________


	BEGINNING GENETIC ALGORITHM DOCKING 24 of 100
Run: 24 Seed: 1319429567 623177017 [ Run 24 of 100 GA/GALS ]
Beginning LAMARCKIAN GENETIC ALGORITHM (LGA), with a maximum of 25000000 energy evaluations.

Final-Value: -14.850


	FINAL GENETIC ALGORITHM DOCKED STATE
	_______________________________________________


Detailed state:  trans -5.699 -11.182 12.014 quatxyzw 0.599735 0.022025 0.459650 -0.654641 center -0.174 -0.001 -0.047 ntor 10 -171.5006 0.4767 46.6861 51.1604 53.5002 -69.6299 -5.7964 61.6811 -162.6376 164.3999
State:	 -5.699 -11.182  12.014   0.793  0.029  0.608 -98.215   -171.50    0.48   46.69   51.16   53.50  -69.63   -5.80   61.68 -162.64  164.40

DOCKED: MODEL       24
DOCKED: USER    Run = 24
DOCKED: USER    DPF = D:/Protein_go_brrr/autodock/final/AncB/heme_Fe/dock.dpf
DOCKED: USER  
DOCKED: USER    Estimated Free Energy of Binding    =   -9.68 kcal/mol  [=(1)+(2)+(3)-(4)]
DOCKED: USER    Estimated Inhibition Constant, Ki   =   79.81 nM (nanomolar)  [Temperature = 298.15 K]
DOCKED: USER    
DOCKED: USER    (1) Final Intermolecular Energy     =  -12.67 kcal/mol
DOCKED: USER        vdW + Hbond + desolv Energy     =   -8.73 kcal/mol
DOCKED: USER        Electrostatic Energy            =   -3.93 kcal/mol
DOCKED: USER    (2) Final Total Internal Energy     =   -2.18 kcal/mol
DOCKED: USER    (3) Torsional Free Energy           =   +2.98 kcal/mol
DOCKED: USER    (4) Unbound System's Energy  [=(2)] =   -2.18 kcal/mol
DOCKED: USER    
DOCKED: USER    
DOCKED: USER    NEWDPF move heme_Fe_opt.pdbqt
DOCKED: USER    NEWDPF about -0.174000 -0.001000 -0.047000
DOCKED: USER    NEWDPF tran0 -5.698631 -11.181978 12.014459
DOCKED: USER    NEWDPF quaternion0 0.599735 0.022025 0.459650 -0.654641
DOCKED: USER    NEWDPF axisangle0 0.793363 0.029136 0.608051 -98.215202
DOCKED: USER    NEWDPF quat0 0.793363 0.029136 0.608051 -98.215202
DOCKED: USER    NEWDPF dihe0 -171.50 0.48 46.69 51.16 53.50 -69.63 -5.80 61.68 -162.64 164.40 
DOCKED: USER  keepresnum = 1 
DOCKED: USER  
DOCKED: REMARK  10 active torsions:
DOCKED: REMARK  status: ('A' for Active; 'I' for Inactive)
DOCKED: REMARK    1  A    between atoms: C_6  and  C_10 
DOCKED: REMARK    2  A    between atoms: C_10  and  C_11 
DOCKED: REMARK    3  A    between atoms: C_11  and  C_12 
DOCKED: REMARK    4  A    between atoms: C_12  and  O_14 
DOCKED: REMARK    5  A    between atoms: C_17  and  C_20 
DOCKED: REMARK    6  A    between atoms: C_24  and  C_27 
DOCKED: REMARK    7  A    between atoms: C_31  and  C_34 
DOCKED: REMARK    8  A    between atoms: C_34  and  C_35 
DOCKED: REMARK    9  A    between atoms: C_35  and  C_36 
DOCKED: REMARK   10  A    between atoms: C_36  and  O_38 
DOCKED: USER                              x       y       z     vdW  Elec       q    Type
DOCKED: USER                           _______ _______ _______ _____ _____    ______ ____
DOCKED: ROOT
DOCKED: ATOM      1  C   UNL d   1      -6.498 -12.825  11.081 -0.29 +0.04    +0.064 C 
DOCKED: ATOM      2  C   UNL d   1      -2.592  -9.911  10.256 -0.28 +0.02    +0.064 A 
DOCKED: ATOM      3  C   UNL d   1      -3.043  -8.164  14.708 -0.18 +0.01    +0.064 C 
DOCKED: ATOM      4  C   UNL d   1      -6.889 -10.899  15.490 -0.20 +0.04    +0.064 C 
DOCKED: ATOM      5  C   UNL d   1      -5.408 -12.106  10.407 -0.23 +0.03    +0.066 A 
DOCKED: ATOM      6  C   UNL d   1      -5.060 -12.266   9.076 -0.24 -0.01    -0.021 A 
DOCKED: ATOM      7  C   UNL d   1      -3.972 -11.459   8.849 -0.23 -0.01    -0.025 A 
DOCKED: ATOM      8  C   UNL d   1      -3.699 -10.837  10.051 -0.23 +0.02    +0.066 A 
DOCKED: ATOM      9  C   UNL d   1      -3.257 -11.288   7.544 -0.34 +0.02    +0.051 C 
DOCKED: ATOM     10  C   UNL d   1      -2.341  -9.253  11.390 -0.24 +0.02    +0.066 A 
DOCKED: ATOM     11  C   UNL d   1      -1.208  -8.461  11.591 -0.27 -0.00    -0.021 A 
DOCKED: ATOM     12  C   UNL d   1      -1.305  -7.959  12.874 -0.24 +0.00    +0.000 A 
DOCKED: ATOM     13  C   UNL d   1      -2.501  -8.483  13.396 -0.14 +0.02    +0.070 A 
DOCKED: ATOM     14  C   UNL d   1      -0.053  -8.248  10.634 -0.09 +0.01    +0.052 C 
DOCKED: ATOM     15  C   UNL d   1      -4.166  -8.705  15.235 -0.13 +0.02    +0.066 A 
DOCKED: ATOM     16  C   UNL d   1      -4.706  -8.300  16.449 -0.16 -0.00    -0.021 A 
DOCKED: ATOM     17  C   UNL d   1      -5.813  -9.090  16.679 -0.15 +0.00    +0.000 A 
DOCKED: ATOM     18  C   UNL d   1      -5.921  -9.963  15.599 -0.06 +0.05    +0.070 A 
DOCKED: ATOM     19  C   UNL d   1      -4.188  -7.230  17.373 -0.13 -0.00    +0.052 C 
DOCKED: ATOM     20  C   UNL d   1      -7.071 -11.793  14.340 -0.23 +0.04    +0.066 A 
DOCKED: ATOM     21  C   UNL d   1      -7.937 -12.895  14.299 -0.25 -0.01    -0.025 A 
DOCKED: ATOM     22  C   UNL d   1      -7.819 -13.421  13.029 -0.32 -0.01    -0.021 A 
DOCKED: ATOM     23  C   UNL d   1      -6.885 -12.628  12.351 -0.30 +0.04    +0.066 A 
DOCKED: ATOM     24  C   UNL d   1      -8.830 -13.433  15.392 -0.18 +0.02    +0.051 C 
DOCKED: ATOM     25  N   UNL d   1      -4.580 -11.225  10.995 -0.14 -0.10    -0.248 N 
DOCKED: ATOM     26  N   UNL d   1      -3.128  -9.279  12.495 -0.10 -0.08    -0.248 N 
DOCKED: ATOM     27  N   UNL d   1      -4.935  -9.698  14.690 -0.09 -0.16    -0.248 N 
DOCKED: ATOM     28  N   UNL d   1      -6.399 -11.664  13.170 -0.18 -0.15    -0.248 N 
DOCKED: ATOM     29 FE   UNL d   1      -4.764 -10.472  12.834 -0.05 +0.00    +0.000 Fe
DOCKED: ENDROOT
DOCKED: BRANCH   6  30
DOCKED: ATOM     30  C   UNL d   1      -5.737 -13.125   8.063 -0.30 +0.04    +0.052 C 
DOCKED: BRANCH  30  31
DOCKED: ATOM     31  C   UNL d   1      -5.435 -14.598   8.316 -0.16 +0.10    +0.115 C 
DOCKED: BRANCH  31  32
DOCKED: ATOM     32  C   UNL d   1      -6.230 -15.466   7.380 -0.20 +0.22    +0.139 C 
DOCKED: ATOM     33  O   UNL d   1      -6.188 -15.282   6.172 -0.41 -1.57    -0.650 OA
DOCKED: BRANCH  32  34
DOCKED: ATOM     34  O   UNL d   1      -6.998 -16.455   7.867 -0.58 -1.74    -0.776 OA
DOCKED: ATOM     35  H   UNL d   1      -7.128 -16.522   8.823 +0.02 +0.35    +0.167 HD
DOCKED: ENDBRANCH  32  34
DOCKED: ENDBRANCH  31  32
DOCKED: ENDBRANCH  30  31
DOCKED: ENDBRANCH   6  30
DOCKED: BRANCH  22  36
DOCKED: ATOM     36  C   UNL d   1      -8.528 -14.646  12.515 -0.02 +0.02    +0.052 C 
DOCKED: BRANCH  36  37
DOCKED: ATOM     37  C   UNL d   1      -7.597 -15.847  12.589 -0.15 +0.05    +0.115 C 
DOCKED: BRANCH  37  38
DOCKED: ATOM     38  C   UNL d   1      -7.357 -16.427  11.224 -0.13 +0.11    +0.139 C 
DOCKED: ATOM     39  O   UNL d   1      -8.250 -17.009  10.626 -0.14 -0.96    -0.650 OA
DOCKED: BRANCH  38  40
DOCKED: ATOM     40  O   UNL d   1      -6.147 -16.311  10.648 +0.03 -0.54    -0.776 OA
DOCKED: ATOM     41  H   UNL d   1      -6.007 -16.687   9.768 +0.03 +0.15    +0.167 HD
DOCKED: ENDBRANCH  38  40
DOCKED: ENDBRANCH  37  38
DOCKED: ENDBRANCH  36  37
DOCKED: ENDBRANCH  22  36
DOCKED: BRANCH  12  42
DOCKED: ATOM     42  C   UNL d   1      -0.298  -7.063  13.521 -0.25 +0.00    +0.004 C 
DOCKED: ATOM     43  C   UNL d   1      -0.442  -5.732  13.495 -0.42 -0.00    +0.012 C 
DOCKED: ENDBRANCH  12  42
DOCKED: BRANCH  17  44
DOCKED: ATOM     44  C   UNL d   1      -6.721  -9.002  17.845 -0.14 +0.00    +0.004 C 
DOCKED: ATOM     45  C   UNL d   1      -7.935  -8.455  17.728 -0.23 +0.00    +0.012 C 
DOCKED: ENDBRANCH  17  44
DOCKED: TORSDOF 10
DOCKED: TER
DOCKED: ENDMDL
________________________________________________________________________________


	BEGINNING GENETIC ALGORITHM DOCKING 25 of 100
Run: 25 Seed: 957269264 890959593 [ Run 25 of 100 GA/GALS ]
Beginning LAMARCKIAN GENETIC ALGORITHM (LGA), with a maximum of 25000000 energy evaluations.

Final-Value: -19.538


	FINAL GENETIC ALGORITHM DOCKED STATE
	_______________________________________________


Detailed state:  trans 0.041 -1.748 -9.055 quatxyzw -0.580796 -0.383423 -0.462786 -0.549084 center -0.174 -0.001 -0.047 ntor 10 53.1588 57.0989 70.0542 -104.6256 166.7034 -85.6212 -58.5673 44.8878 179.1298 -178.2165
State:	  0.041  -1.748  -9.055  -0.695 -0.459 -0.554 -113.392     53.16   57.10   70.05 -104.63  166.70  -85.62  -58.57   44.89  179.13 -178.22

DOCKED: MODEL       25
DOCKED: USER    Run = 25
DOCKED: USER    DPF = D:/Protein_go_brrr/autodock/final/AncB/heme_Fe/dock.dpf
DOCKED: USER  
DOCKED: USER    Estimated Free Energy of Binding    =  -14.51 kcal/mol  [=(1)+(2)+(3)-(4)]
DOCKED: USER    Estimated Inhibition Constant, Ki   =   22.94 pM (picomolar)  [Temperature = 298.15 K]
DOCKED: USER    
DOCKED: USER    (1) Final Intermolecular Energy     =  -17.50 kcal/mol
DOCKED: USER        vdW + Hbond + desolv Energy     =  -14.49 kcal/mol
DOCKED: USER        Electrostatic Energy            =   -3.01 kcal/mol
DOCKED: USER    (2) Final Total Internal Energy     =   -2.04 kcal/mol
DOCKED: USER    (3) Torsional Free Energy           =   +2.98 kcal/mol
DOCKED: USER    (4) Unbound System's Energy  [=(2)] =   -2.04 kcal/mol
DOCKED: USER    
DOCKED: USER    
DOCKED: USER    NEWDPF move heme_Fe_opt.pdbqt
DOCKED: USER    NEWDPF about -0.174000 -0.001000 -0.047000
DOCKED: USER    NEWDPF tran0 0.040504 -1.748479 -9.054602
DOCKED: USER    NEWDPF quaternion0 -0.580796 -0.383423 -0.462786 -0.549084
DOCKED: USER    NEWDPF axisangle0 -0.694925 -0.458767 -0.553725 -113.391680
DOCKED: USER    NEWDPF quat0 -0.694925 -0.458767 -0.553725 -113.391680
DOCKED: USER    NEWDPF dihe0 53.16 57.10 70.05 -104.63 166.70 -85.62 -58.57 44.89 179.13 -178.22 
DOCKED: USER  keepresnum = 1 
DOCKED: USER  
DOCKED: REMARK  10 active torsions:
DOCKED: REMARK  status: ('A' for Active; 'I' for Inactive)
DOCKED: REMARK    1  A    between atoms: C_6  and  C_10 
DOCKED: REMARK    2  A    between atoms: C_10  and  C_11 
DOCKED: REMARK    3  A    between atoms: C_11  and  C_12 
DOCKED: REMARK    4  A    between atoms: C_12  and  O_14 
DOCKED: REMARK    5  A    between atoms: C_17  and  C_20 
DOCKED: REMARK    6  A    between atoms: C_24  and  C_27 
DOCKED: REMARK    7  A    between atoms: C_31  and  C_34 
DOCKED: REMARK    8  A    between atoms: C_34  and  C_35 
DOCKED: REMARK    9  A    between atoms: C_35  and  C_36 
DOCKED: REMARK   10  A    between atoms: C_36  and  O_38 
DOCKED: USER                              x       y       z     vdW  Elec       q    Type
DOCKED: USER                           _______ _______ _______ _____ _____    ______ ____
DOCKED: ROOT
DOCKED: ATOM      1  C   UNL d   1      -0.504  -1.090 -10.920 -0.29 +0.05    +0.064 C 
DOCKED: ATOM      2  C   UNL d   1      -2.683  -1.169  -6.485 -0.40 +0.02    +0.064 A 
DOCKED: ATOM      3  C   UNL d   1       1.584  -2.089  -4.481 -0.40 +0.01    +0.064 C 
DOCKED: ATOM      4  C   UNL d   1       3.695  -2.121  -8.774 -0.51 +0.02    +0.064 C 
DOCKED: ATOM      5  C   UNL d   1      -1.527  -1.110  -9.866 -0.32 +0.04    +0.066 A 
DOCKED: ATOM      6  C   UNL d   1      -2.890  -0.991 -10.084 -0.31 -0.02    -0.021 A 
DOCKED: ATOM      7  C   UNL d   1      -3.494  -1.010  -8.851 -0.29 -0.01    -0.025 A 
DOCKED: ATOM      8  C   UNL d   1      -2.476  -1.139  -7.927 -0.35 +0.03    +0.066 A 
DOCKED: ATOM      9  C   UNL d   1      -4.966  -0.927  -8.589 -0.27 +0.02    +0.051 C 
DOCKED: ATOM     10  C   UNL d   1      -1.725  -1.351  -5.575 -0.40 +0.02    +0.066 A 
DOCKED: ATOM     11  C   UNL d   1      -1.938  -1.261  -4.197 -0.42 -0.00    -0.021 A 
DOCKED: ATOM     12  C   UNL d   1      -0.719  -1.505  -3.597 -0.41 +0.00    +0.000 A 
DOCKED: ATOM     13  C   UNL d   1       0.186  -1.726  -4.650 -0.38 +0.01    +0.070 A 
DOCKED: ATOM     14  C   UNL d   1      -3.225  -0.891  -3.488 -0.60 +0.01    +0.052 C 
DOCKED: ATOM     15  C   UNL d   1       2.471  -2.252  -5.491 -0.39 +0.01    +0.066 A 
DOCKED: ATOM     16  C   UNL d   1       3.772  -2.696  -5.295 -0.50 -0.00    -0.021 A 
DOCKED: ATOM     17  C   UNL d   1       4.384  -2.703  -6.531 -0.51 +0.00    +0.000 A 
DOCKED: ATOM     18  C   UNL d   1       3.441  -2.257  -7.454 -0.42 +0.02    +0.070 A 
DOCKED: ATOM     19  C   UNL d   1       4.425  -3.076  -3.993 -0.60 +0.01    +0.052 C 
DOCKED: ATOM     20  C   UNL d   1       2.711  -1.714  -9.784 -0.44 +0.02    +0.066 A 
DOCKED: ATOM     21  C   UNL d   1       3.005  -1.377 -11.112 -0.46 -0.01    -0.025 A 
DOCKED: ATOM     22  C   UNL d   1       1.793  -1.099 -11.709 -0.32 -0.01    -0.021 A 
DOCKED: ATOM     23  C   UNL d   1       0.812  -1.271 -10.725 -0.14 +0.03    +0.066 A 
DOCKED: ATOM     24  C   UNL d   1       4.353  -1.312 -11.793 -0.54 +0.01    +0.051 C 
DOCKED: ATOM     25  N   UNL d   1      -1.281  -1.209  -8.548 -0.19 -0.12    -0.248 N 
DOCKED: ATOM     26  N   UNL d   1      -0.425  -1.623  -5.856 -0.25 -0.07    -0.248 N 
DOCKED: ATOM     27  N   UNL d   1       2.251  -2.022  -6.823 -0.23 -0.08    -0.248 N 
DOCKED: ATOM     28  N   UNL d   1       1.382  -1.602  -9.541 -0.19 -0.13    -0.248 N 
DOCKED: ATOM     29 FE   UNL d   1       0.480  -1.613  -7.699 -0.09 +0.00    +0.000 Fe
DOCKED: ENDROOT
DOCKED: BRANCH   6  30
DOCKED: ATOM     30  C   UNL d   1      -3.587  -0.887 -11.397 -0.13 +0.08    +0.052 C 
DOCKED: BRANCH  30  31
DOCKED: ATOM     31  C   UNL d   1      -3.761   0.572 -11.802 -0.22 +0.14    +0.115 C 
DOCKED: BRANCH  31  32
DOCKED: ATOM     32  C   UNL d   1      -3.097   0.834 -13.126 -0.19 +0.21    +0.139 C 
DOCKED: ATOM     33  O   UNL d   1      -3.323   1.865 -13.744 -0.40 -1.26    -0.650 OA
DOCKED: BRANCH  32  34
DOCKED: ATOM     34  O   UNL d   1      -2.247  -0.068 -13.644 -0.05 -1.46    -0.776 OA
DOCKED: ATOM     35  H   UNL d   1      -1.362   0.219 -13.910 +0.04 +0.22    +0.167 HD
DOCKED: ENDBRANCH  32  34
DOCKED: ENDBRANCH  31  32
DOCKED: ENDBRANCH  30  31
DOCKED: ENDBRANCH   6  30
DOCKED: BRANCH  22  36
DOCKED: ATOM     36  C   UNL d   1       1.596  -0.646 -13.132 -0.29 +0.03    +0.052 C 
DOCKED: BRANCH  36  37
DOCKED: ATOM     37  C   UNL d   1       1.854   0.850 -13.235 -0.15 +0.05    +0.115 C 
DOCKED: BRANCH  37  38
DOCKED: ATOM     38  C   UNL d   1       0.803   1.522 -14.072 -0.18 +0.10    +0.139 C 
DOCKED: ATOM     39  O   UNL d   1       0.911   1.573 -15.288 +0.05 -0.43    -0.650 OA
DOCKED: BRANCH  38  40
DOCKED: ATOM     40  O   UNL d   1      -0.269   2.080 -13.482 -0.08 -0.78    -0.776 OA
DOCKED: ATOM     41  H   UNL d   1      -1.154   1.789 -13.745 +0.05 +0.20    +0.167 HD
DOCKED: ENDBRANCH  38  40
DOCKED: ENDBRANCH  37  38
DOCKED: ENDBRANCH  36  37
DOCKED: ENDBRANCH  22  36
DOCKED: BRANCH  12  42
DOCKED: ATOM     42  C   UNL d   1      -0.474  -1.500  -2.121 -0.51 +0.00    +0.004 C 
DOCKED: ATOM     43  C   UNL d   1      -0.062  -2.605  -1.487 -0.59 +0.00    +0.012 C 
DOCKED: ENDBRANCH  12  42
DOCKED: BRANCH  17  44
DOCKED: ATOM     44  C   UNL d   1       5.774  -3.127  -6.813 -0.50 +0.00    +0.004 C 
DOCKED: ATOM     45  C   UNL d   1       6.796  -2.636  -6.105 -0.70 +0.00    +0.012 C 
DOCKED: ENDBRANCH  17  44
DOCKED: TORSDOF 10
DOCKED: TER
DOCKED: ENDMDL
________________________________________________________________________________


	BEGINNING GENETIC ALGORITHM DOCKING 26 of 100
Run: 26 Seed: 207021244 646023306 [ Run 26 of 100 GA/GALS ]
Beginning LAMARCKIAN GENETIC ALGORITHM (LGA), with a maximum of 25000000 energy evaluations.

Final-Value: -15.318


	FINAL GENETIC ALGORITHM DOCKED STATE
	_______________________________________________


Detailed state:  trans -1.054 0.142 -10.235 quatxyzw 0.736915 -0.130508 -0.139620 -0.648405 center -0.174 -0.001 -0.047 ntor 10 -81.1610 -146.0399 -161.9693 -118.7836 178.0579 -107.0882 -108.1840 39.7495 144.6161 149.6723
State:	 -1.054   0.142 -10.235   0.968 -0.171 -0.183 -99.157    -81.16 -146.04 -161.97 -118.78  178.06 -107.09 -108.18   39.75  144.62  149.67

DOCKED: MODEL       26
DOCKED: USER    Run = 26
DOCKED: USER    DPF = D:/Protein_go_brrr/autodock/final/AncB/heme_Fe/dock.dpf
DOCKED: USER  
DOCKED: USER    Estimated Free Energy of Binding    =  -10.68 kcal/mol  [=(1)+(2)+(3)-(4)]
DOCKED: USER    Estimated Inhibition Constant, Ki   =   14.90 nM (nanomolar)  [Temperature = 298.15 K]
DOCKED: USER    
DOCKED: USER    (1) Final Intermolecular Energy     =  -13.66 kcal/mol
DOCKED: USER        vdW + Hbond + desolv Energy     =  -11.33 kcal/mol
DOCKED: USER        Electrostatic Energy            =   -2.33 kcal/mol
DOCKED: USER    (2) Final Total Internal Energy     =   -1.66 kcal/mol
DOCKED: USER    (3) Torsional Free Energy           =   +2.98 kcal/mol
DOCKED: USER    (4) Unbound System's Energy  [=(2)] =   -1.66 kcal/mol
DOCKED: USER    
DOCKED: USER    
DOCKED: USER    NEWDPF move heme_Fe_opt.pdbqt
DOCKED: USER    NEWDPF about -0.174000 -0.001000 -0.047000
DOCKED: USER    NEWDPF tran0 -1.054090 0.141612 -10.234991
DOCKED: USER    NEWDPF quaternion0 0.736915 -0.130508 -0.139620 -0.648405
DOCKED: USER    NEWDPF axisangle0 0.967976 -0.171429 -0.183398 -99.157048
DOCKED: USER    NEWDPF quat0 0.967976 -0.171429 -0.183398 -99.157048
DOCKED: USER    NEWDPF dihe0 -81.16 -146.04 -161.97 -118.78 178.06 -107.09 -108.18 39.75 144.62 149.67 
DOCKED: USER  keepresnum = 1 
DOCKED: USER  
DOCKED: REMARK  10 active torsions:
DOCKED: REMARK  status: ('A' for Active; 'I' for Inactive)
DOCKED: REMARK    1  A    between atoms: C_6  and  C_10 
DOCKED: REMARK    2  A    between atoms: C_10  and  C_11 
DOCKED: REMARK    3  A    between atoms: C_11  and  C_12 
DOCKED: REMARK    4  A    between atoms: C_12  and  O_14 
DOCKED: REMARK    5  A    between atoms: C_17  and  C_20 
DOCKED: REMARK    6  A    between atoms: C_24  and  C_27 
DOCKED: REMARK    7  A    between atoms: C_31  and  C_34 
DOCKED: REMARK    8  A    between atoms: C_34  and  C_35 
DOCKED: REMARK    9  A    between atoms: C_35  and  C_36 
DOCKED: REMARK   10  A    between atoms: C_36  and  O_38 
DOCKED: USER                              x       y       z     vdW  Elec       q    Type
DOCKED: USER                           _______ _______ _______ _____ _____    ______ ____
DOCKED: ROOT
DOCKED: ATOM      1  C   UNL d   1      -3.089   0.400 -10.285 -0.33 +0.05    +0.064 C 
DOCKED: ATOM      2  C   UNL d   1       0.406  -0.370 -13.694 -0.20 +0.05    +0.064 A 
DOCKED: ATOM      3  C   UNL d   1       3.430  -1.676 -10.198 -0.51 +0.02    +0.064 C 
DOCKED: ATOM      4  C   UNL d   1       0.094  -0.837  -6.874 -0.32 +0.03    +0.064 C 
DOCKED: ATOM      5  C   UNL d   1      -2.360   0.384 -11.561 -0.24 +0.07    +0.066 A 
DOCKED: ATOM      6  C   UNL d   1      -2.880   0.807 -12.773 -0.23 -0.03    -0.021 A 
DOCKED: ATOM      7  C   UNL d   1      -1.910   0.589 -13.720 -0.18 -0.04    -0.025 A 
DOCKED: ATOM      8  C   UNL d   1      -0.834   0.042 -13.048 -0.19 +0.07    +0.066 A 
DOCKED: ATOM      9  C   UNL d   1      -2.013   0.910 -15.180 -0.12 +0.07    +0.051 C 
DOCKED: ATOM     10  C   UNL d   1       1.480  -0.847 -13.061 -0.24 +0.04    +0.066 A 
DOCKED: ATOM     11  C   UNL d   1       2.610  -1.340 -13.718 -0.22 -0.01    -0.021 A 
DOCKED: ATOM     12  C   UNL d   1       3.491  -1.739 -12.732 -0.40 +0.00    +0.000 A 
DOCKED: ATOM     13  C   UNL d   1       2.842  -1.473 -11.513 -0.39 +0.02    +0.070 A 
DOCKED: ATOM     14  C   UNL d   1       2.814  -1.488 -15.212 -0.14 +0.02    +0.052 C 
DOCKED: ATOM     15  C   UNL d   1       2.791  -1.471  -9.023 -0.42 +0.02    +0.066 A 
DOCKED: ATOM     16  C   UNL d   1       3.419  -1.581  -7.789 -0.44 -0.01    -0.021 A 
DOCKED: ATOM     17  C   UNL d   1       2.458  -1.343  -6.828 -0.44 +0.00    +0.000 A 
DOCKED: ATOM     18  C   UNL d   1       1.263  -1.097  -7.500 -0.16 +0.04    +0.070 A 
DOCKED: ATOM     19  C   UNL d   1       4.860  -1.921  -7.519 -0.52 +0.01    +0.052 C 
DOCKED: ATOM     20  C   UNL d   1      -1.169  -0.513  -7.548 -0.34 +0.03    +0.066 A 
DOCKED: ATOM     21  C   UNL d   1      -2.423  -0.439  -6.926 -0.43 -0.01    -0.025 A 
DOCKED: ATOM     22  C   UNL d   1      -3.314  -0.073  -7.914 -0.44 -0.01    -0.021 A 
DOCKED: ATOM     23  C   UNL d   1      -2.573   0.055  -9.095 -0.36 +0.03    +0.066 A 
DOCKED: ATOM     24  C   UNL d   1      -2.776  -0.702  -5.480 -0.49 +0.01    +0.051 C 
DOCKED: ATOM     25  N   UNL d   1      -1.108  -0.073 -11.733 +0.03 -0.23    -0.248 N 
DOCKED: ATOM     26  N   UNL d   1       1.613  -0.938 -11.714 -0.18 -0.12    -0.248 N 
DOCKED: ATOM     27  N   UNL d   1       1.476  -1.132  -8.850 -0.10 -0.15    -0.248 N 
DOCKED: ATOM     28  N   UNL d   1      -1.273  -0.258  -8.875 -0.24 -0.12    -0.248 N 
DOCKED: ATOM     29 FE   UNL d   1       0.170  -0.598 -10.292 -0.08 +0.00    +0.000 Fe
DOCKED: ENDROOT
DOCKED: BRANCH   6  30
DOCKED: ATOM     30  C   UNL d   1      -4.222   1.407 -13.019 -0.15 +0.08    +0.052 C 
DOCKED: BRANCH  30  31
DOCKED: ATOM     31  C   UNL d   1      -4.966   0.640 -14.107 -0.12 +0.16    +0.115 C 
DOCKED: BRANCH  31  32
DOCKED: ATOM     32  C   UNL d   1      -5.411  -0.701 -13.594 +0.11 +0.24    +0.139 C 
DOCKED: ATOM     33  O   UNL d   1      -6.059  -1.456 -14.305 -0.22 -1.10    -0.650 OA
DOCKED: BRANCH  32  34
DOCKED: ATOM     34  O   UNL d   1      -5.100  -1.083 -12.344 -0.09 -1.38    -0.776 OA
DOCKED: ATOM     35  H   UNL d   1      -5.761  -0.985 -11.645 +0.05 +0.18    +0.167 HD
DOCKED: ENDBRANCH  32  34
DOCKED: ENDBRANCH  31  32
DOCKED: ENDBRANCH  30  31
DOCKED: ENDBRANCH   6  30
DOCKED: BRANCH  22  36
DOCKED: ATOM     36  C   UNL d   1      -4.800   0.095  -7.740 -0.40 +0.01    +0.052 C 
DOCKED: BRANCH  36  37
DOCKED: ATOM     37  C   UNL d   1      -5.534  -0.977  -8.533 -0.24 +0.05    +0.115 C 
DOCKED: BRANCH  37  38
DOCKED: ATOM     38  C   UNL d   1      -6.771  -0.418  -9.177 -0.19 +0.06    +0.139 C 
DOCKED: ATOM     39  O   UNL d   1      -7.881  -0.702  -8.751 +0.03 -0.22    -0.650 OA
DOCKED: BRANCH  38  40
DOCKED: ATOM     40  O   UNL d   1      -6.663   0.402 -10.238 +0.08 -0.42    -0.776 OA
DOCKED: ATOM     41  H   UNL d   1      -5.942   0.264 -10.868 +0.06 +0.12    +0.167 HD
DOCKED: ENDBRANCH  38  40
DOCKED: ENDBRANCH  37  38
DOCKED: ENDBRANCH  36  37
DOCKED: ENDBRANCH  22  36
DOCKED: BRANCH  12  42
DOCKED: ATOM     42  C   UNL d   1       4.836  -2.342 -12.979 -0.43 +0.00    +0.004 C 
DOCKED: ATOM     43  C   UNL d   1       5.097  -3.610 -12.634 -0.51 +0.00    +0.012 C 
DOCKED: ENDBRANCH  12  42
DOCKED: BRANCH  17  44
DOCKED: ATOM     44  C   UNL d   1       2.673  -1.331  -5.363 -0.46 +0.00    +0.004 C 
DOCKED: ATOM     45  C   UNL d   1       3.030  -2.444  -4.715 -0.53 +0.00    +0.012 C 
DOCKED: ENDBRANCH  17  44
DOCKED: TORSDOF 10
DOCKED: TER
DOCKED: ENDMDL
________________________________________________________________________________


	BEGINNING GENETIC ALGORITHM DOCKING 27 of 100
Run: 27 Seed: 2111665056 804590673 [ Run 27 of 100 GA/GALS ]
Beginning LAMARCKIAN GENETIC ALGORITHM (LGA), with a maximum of 25000000 energy evaluations.

Final-Value: -14.693


	FINAL GENETIC ALGORITHM DOCKED STATE
	_______________________________________________


Detailed state:  trans -5.845 -11.349 12.011 quatxyzw -0.612192 -0.023254 -0.459295 0.643217 center -0.174 -0.001 -0.047 ntor 10 116.3206 158.3627 44.0164 51.3133 63.1941 -47.9985 9.5777 19.3355 -151.6918 142.4409
State:	 -5.845 -11.349  12.011  -0.800 -0.030 -0.600 99.936    116.32  158.36   44.02   51.31   63.19  -48.00    9.58   19.34 -151.69  142.44

DOCKED: MODEL       27
DOCKED: USER    Run = 27
DOCKED: USER    DPF = D:/Protein_go_brrr/autodock/final/AncB/heme_Fe/dock.dpf
DOCKED: USER  
DOCKED: USER    Estimated Free Energy of Binding    =  -10.21 kcal/mol  [=(1)+(2)+(3)-(4)]
DOCKED: USER    Estimated Inhibition Constant, Ki   =   32.79 nM (nanomolar)  [Temperature = 298.15 K]
DOCKED: USER    
DOCKED: USER    (1) Final Intermolecular Energy     =  -13.19 kcal/mol
DOCKED: USER        vdW + Hbond + desolv Energy     =   -8.72 kcal/mol
DOCKED: USER        Electrostatic Energy            =   -4.47 kcal/mol
DOCKED: USER    (2) Final Total Internal Energy     =   -1.50 kcal/mol
DOCKED: USER    (3) Torsional Free Energy           =   +2.98 kcal/mol
DOCKED: USER    (4) Unbound System's Energy  [=(2)] =   -1.50 kcal/mol
DOCKED: USER    
DOCKED: USER    
DOCKED: USER    NEWDPF move heme_Fe_opt.pdbqt
DOCKED: USER    NEWDPF about -0.174000 -0.001000 -0.047000
DOCKED: USER    NEWDPF tran0 -5.844549 -11.349085 12.011247
DOCKED: USER    NEWDPF quaternion0 -0.612192 -0.023254 -0.459295 0.643217
DOCKED: USER    NEWDPF axisangle0 -0.799536 -0.030370 -0.599850 99.935707
DOCKED: USER    NEWDPF quat0 -0.799536 -0.030370 -0.599850 99.935707
DOCKED: USER    NEWDPF dihe0 116.32 158.36 44.02 51.31 63.19 -48.00 9.58 19.34 -151.69 142.44 
DOCKED: USER  keepresnum = 1 
DOCKED: USER  
DOCKED: REMARK  10 active torsions:
DOCKED: REMARK  status: ('A' for Active; 'I' for Inactive)
DOCKED: REMARK    1  A    between atoms: C_6  and  C_10 
DOCKED: REMARK    2  A    between atoms: C_10  and  C_11 
DOCKED: REMARK    3  A    between atoms: C_11  and  C_12 
DOCKED: REMARK    4  A    between atoms: C_12  and  O_14 
DOCKED: REMARK    5  A    between atoms: C_17  and  C_20 
DOCKED: REMARK    6  A    between atoms: C_24  and  C_27 
DOCKED: REMARK    7  A    between atoms: C_31  and  C_34 
DOCKED: REMARK    8  A    between atoms: C_34  and  C_35 
DOCKED: REMARK    9  A    between atoms: C_35  and  C_36 
DOCKED: REMARK   10  A    between atoms: C_36  and  O_38 
DOCKED: USER                              x       y       z     vdW  Elec       q    Type
DOCKED: USER                           _______ _______ _______ _____ _____    ______ ____
DOCKED: ROOT
DOCKED: ATOM      1  C   UNL d   1      -6.639 -12.973  11.041 -0.28 +0.04    +0.064 C 
DOCKED: ATOM      2  C   UNL d   1      -2.777  -9.993  10.248 -0.28 +0.02    +0.064 A 
DOCKED: ATOM      3  C   UNL d   1      -3.184  -8.380  14.754 -0.18 +0.01    +0.064 C 
DOCKED: ATOM      4  C   UNL d   1      -6.989 -11.180  15.509 -0.19 +0.03    +0.064 C 
DOCKED: ATOM      5  C   UNL d   1      -5.567 -12.223  10.374 -0.23 +0.03    +0.066 A 
DOCKED: ATOM      6  C   UNL d   1      -5.235 -12.341   9.034 -0.25 -0.01    -0.021 A 
DOCKED: ATOM      7  C   UNL d   1      -4.160 -11.515   8.815 -0.23 -0.01    -0.025 A 
DOCKED: ATOM      8  C   UNL d   1      -3.877 -10.925  10.031 -0.23 +0.02    +0.066 A 
DOCKED: ATOM      9  C   UNL d   1      -3.466 -11.299   7.506 -0.32 +0.02    +0.051 C 
DOCKED: ATOM     10  C   UNL d   1      -2.517  -9.366  11.396 -0.23 +0.02    +0.066 A 
DOCKED: ATOM     11  C   UNL d   1      -1.390  -8.567  11.605 -0.26 -0.00    -0.021 A 
DOCKED: ATOM     12  C   UNL d   1      -1.475  -8.104  12.903 -0.23 +0.00    +0.000 A 
DOCKED: ATOM     13  C   UNL d   1      -2.657  -8.655  13.426 -0.11 +0.02    +0.070 A 
DOCKED: ATOM     14  C   UNL d   1      -0.251  -8.314  10.638 -0.11 +0.01    +0.052 C 
DOCKED: ATOM     15  C   UNL d   1      -4.294  -8.949  15.281 -0.13 +0.03    +0.066 A 
DOCKED: ATOM     16  C   UNL d   1      -4.820  -8.585  16.514 -0.15 -0.00    -0.021 A 
DOCKED: ATOM     17  C   UNL d   1      -5.916  -9.394  16.735 -0.15 +0.00    +0.000 A 
DOCKED: ATOM     18  C   UNL d   1      -6.029 -10.237  15.632 -0.12 +0.05    +0.070 A 
DOCKED: ATOM     19  C   UNL d   1      -4.301  -7.537  17.460 -0.11 -0.00    +0.052 C 
DOCKED: ATOM     20  C   UNL d   1      -7.177 -12.042  14.337 -0.23 +0.03    +0.066 A 
DOCKED: ATOM     21  C   UNL d   1      -8.032 -13.152  14.276 -0.24 -0.01    -0.025 A 
DOCKED: ATOM     22  C   UNL d   1      -7.926 -13.640  12.990 -0.31 -0.01    -0.021 A 
DOCKED: ATOM     23  C   UNL d   1      -7.011 -12.818  12.322 -0.30 +0.04    +0.066 A 
DOCKED: ATOM     24  C   UNL d   1      -8.904 -13.732  15.365 -0.17 +0.02    +0.051 C 
DOCKED: ATOM     25  N   UNL d   1      -4.740 -11.350  10.975 -0.14 -0.11    -0.248 N 
DOCKED: ATOM     26  N   UNL d   1      -3.288  -9.432  12.511 -0.10 -0.09    -0.248 N 
DOCKED: ATOM     27  N   UNL d   1      -5.059  -9.935  14.717 -0.10 -0.16    -0.248 N 
DOCKED: ATOM     28  N   UNL d   1      -6.523 -11.872  13.162 -0.18 -0.14    -0.248 N 
DOCKED: ATOM     29 FE   UNL d   1      -4.907 -10.652  12.838 -0.05 +0.00    +0.000 Fe
DOCKED: ENDROOT
DOCKED: BRANCH   6  30
DOCKED: ATOM     30  C   UNL d   1      -5.918 -13.178   8.006 -0.32 +0.04    +0.052 C 
DOCKED: BRANCH  30  31
DOCKED: ATOM     31  C   UNL d   1      -5.822 -14.657   8.364 -0.20 +0.11    +0.115 C 
DOCKED: BRANCH  31  32
DOCKED: ATOM     32  C   UNL d   1      -6.300 -15.507   7.220 -0.19 +0.24    +0.139 C 
DOCKED: ATOM     33  O   UNL d   1      -5.714 -15.493   6.146 -0.53 -1.32    -0.650 OA
DOCKED: BRANCH  32  34
DOCKED: ATOM     34  O   UNL d   1      -7.381 -16.291   7.367 -0.42 -2.20    -0.776 OA
DOCKED: ATOM     35  H   UNL d   1      -7.351 -17.015   8.009 +0.03 +0.46    +0.167 HD
DOCKED: ENDBRANCH  32  34
DOCKED: ENDBRANCH  31  32
DOCKED: ENDBRANCH  30  31
DOCKED: ENDBRANCH   6  30
DOCKED: BRANCH  22  36
DOCKED: ATOM     36  C   UNL d   1      -8.630 -14.857  12.450 +0.09 +0.02    +0.052 C 
DOCKED: BRANCH  36  37
DOCKED: ATOM     37  C   UNL d   1      -7.603 -15.871  11.967 -0.15 +0.06    +0.115 C 
DOCKED: BRANCH  37  38
DOCKED: ATOM     38  C   UNL d   1      -8.229 -16.871  11.036 +0.01 +0.15    +0.139 C 
DOCKED: ATOM     39  O   UNL d   1      -9.278 -17.425  11.329 -0.43 -0.79    -0.650 OA
DOCKED: BRANCH  38  40
DOCKED: ATOM     40  O   UNL d   1      -7.632 -17.165   9.868 -0.04 -1.34    -0.776 OA
DOCKED: ATOM     41  H   UNL d   1      -7.007 -16.533   9.487 +0.02 +0.25    +0.167 HD
DOCKED: ENDBRANCH  38  40
DOCKED: ENDBRANCH  37  38
DOCKED: ENDBRANCH  36  37
DOCKED: ENDBRANCH  22  36
DOCKED: BRANCH  12  42
DOCKED: ATOM     42  C   UNL d   1      -0.468  -7.216  13.562 -0.24 +0.00    +0.004 C 
DOCKED: ATOM     43  C   UNL d   1      -0.599  -5.883  13.530 -0.40 +0.00    +0.012 C 
DOCKED: ENDBRANCH  12  42
DOCKED: BRANCH  17  44
DOCKED: ATOM     44  C   UNL d   1      -6.807  -9.349  17.916 -0.12 +0.00    +0.004 C 
DOCKED: ATOM     45  C   UNL d   1      -8.030  -8.816  17.831 -0.21 +0.00    +0.012 C 
DOCKED: ENDBRANCH  17  44
DOCKED: TORSDOF 10
DOCKED: TER
DOCKED: ENDMDL
________________________________________________________________________________


	BEGINNING GENETIC ALGORITHM DOCKING 28 of 100
Run: 28 Seed: 331382835 1634676036 [ Run 28 of 100 GA/GALS ]
Beginning LAMARCKIAN GENETIC ALGORITHM (LGA), with a maximum of 25000000 energy evaluations.

Final-Value: -18.222


	FINAL GENETIC ALGORITHM DOCKED STATE
	_______________________________________________


Detailed state:  trans -1.147 -0.642 -9.536 quatxyzw 0.655474 -0.402532 0.252275 -0.587094 center -0.174 -0.001 -0.047 ntor 10 -7.0373 142.0210 -177.3205 -130.5588 179.8243 -104.5766 57.8508 6.4839 -29.4935 161.6194
State:	 -1.147  -0.642  -9.536   0.810 -0.497  0.312 -108.098     -7.04  142.02 -177.32 -130.56  179.82 -104.58   57.85    6.48  -29.49  161.62

DOCKED: MODEL       28
DOCKED: USER    Run = 28
DOCKED: USER    DPF = D:/Protein_go_brrr/autodock/final/AncB/heme_Fe/dock.dpf
DOCKED: USER  
DOCKED: USER    Estimated Free Energy of Binding    =  -13.61 kcal/mol  [=(1)+(2)+(3)-(4)]
DOCKED: USER    Estimated Inhibition Constant, Ki   =  104.85 pM (picomolar)  [Temperature = 298.15 K]
DOCKED: USER    
DOCKED: USER    (1) Final Intermolecular Energy     =  -16.60 kcal/mol
DOCKED: USER        vdW + Hbond + desolv Energy     =  -12.52 kcal/mol
DOCKED: USER        Electrostatic Energy            =   -4.08 kcal/mol
DOCKED: USER    (2) Final Total Internal Energy     =   -1.62 kcal/mol
DOCKED: USER    (3) Torsional Free Energy           =   +2.98 kcal/mol
DOCKED: USER    (4) Unbound System's Energy  [=(2)] =   -1.62 kcal/mol
DOCKED: USER    
DOCKED: USER    
DOCKED: USER    NEWDPF move heme_Fe_opt.pdbqt
DOCKED: USER    NEWDPF about -0.174000 -0.001000 -0.047000
DOCKED: USER    NEWDPF tran0 -1.146601 -0.642397 -9.535521
DOCKED: USER    NEWDPF quaternion0 0.655474 -0.402532 0.252275 -0.587094
DOCKED: USER    NEWDPF axisangle0 0.809708 -0.497249 0.311636 -108.097872
DOCKED: USER    NEWDPF quat0 0.809708 -0.497249 0.311636 -108.097872
DOCKED: USER    NEWDPF dihe0 -7.04 142.02 -177.32 -130.56 179.82 -104.58 57.85 6.48 -29.49 161.62 
DOCKED: USER  keepresnum = 1 
DOCKED: USER  
DOCKED: REMARK  10 active torsions:
DOCKED: REMARK  status: ('A' for Active; 'I' for Inactive)
DOCKED: REMARK    1  A    between atoms: C_6  and  C_10 
DOCKED: REMARK    2  A    between atoms: C_10  and  C_11 
DOCKED: REMARK    3  A    between atoms: C_11  and  C_12 
DOCKED: REMARK    4  A    between atoms: C_12  and  O_14 
DOCKED: REMARK    5  A    between atoms: C_17  and  C_20 
DOCKED: REMARK    6  A    between atoms: C_24  and  C_27 
DOCKED: REMARK    7  A    between atoms: C_31  and  C_34 
DOCKED: REMARK    8  A    between atoms: C_34  and  C_35 
DOCKED: REMARK    9  A    between atoms: C_35  and  C_36 
DOCKED: REMARK   10  A    between atoms: C_36  and  O_38 
DOCKED: USER                              x       y       z     vdW  Elec       q    Type
DOCKED: USER                           _______ _______ _______ _____ _____    ______ ____
DOCKED: ROOT
DOCKED: ATOM      1  C   UNL d   1      -2.260  -0.702 -11.258 -0.30 +0.07    +0.064 C 
DOCKED: ATOM      2  C   UNL d   1       2.510  -1.403 -10.172 -0.42 +0.02    +0.064 A 
DOCKED: ATOM      3  C   UNL d   1       1.332  -1.744  -5.529 -0.43 +0.02    +0.064 C 
DOCKED: ATOM      4  C   UNL d   1      -3.276  -0.962  -6.546 -0.43 +0.02    +0.064 C 
DOCKED: ATOM      5  C   UNL d   1      -0.798  -0.785 -11.374 -0.16 +0.06    +0.066 A 
DOCKED: ATOM      6  C   UNL d   1      -0.088  -0.617 -12.552 -0.21 -0.02    -0.021 A 
DOCKED: ATOM      7  C   UNL d   1       1.237  -0.816 -12.250 -0.21 -0.01    -0.025 A 
DOCKED: ATOM      8  C   UNL d   1       1.284  -1.097 -10.898 -0.14 +0.03    +0.066 A 
DOCKED: ATOM      9  C   UNL d   1       2.385  -0.719 -13.208 -0.33 +0.02    +0.051 C 
DOCKED: ATOM     10  C   UNL d   1       2.591  -1.622  -8.859 -0.41 +0.03    +0.066 A 
DOCKED: ATOM     11  C   UNL d   1       3.761  -2.026  -8.210 -0.47 -0.01    -0.021 A 
DOCKED: ATOM     12  C   UNL d   1       3.443  -2.147  -6.872 -0.47 +0.00    +0.000 A 
DOCKED: ATOM     13  C   UNL d   1       2.081  -1.816  -6.774 -0.32 +0.02    +0.070 A 
DOCKED: ATOM     14  C   UNL d   1       5.099  -2.347  -8.845 -0.51 +0.01    +0.052 C 
DOCKED: ATOM     15  C   UNL d   1       0.008  -1.476  -5.434 -0.37 +0.02    +0.066 A 
DOCKED: ATOM     16  C   UNL d   1      -0.648  -1.318  -4.220 -0.35 -0.00    -0.021 A 
DOCKED: ATOM     17  C   UNL d   1      -1.979  -1.096  -4.511 -0.43 +0.00    +0.000 A 
DOCKED: ATOM     18  C   UNL d   1      -2.103  -1.128  -5.898 -0.41 +0.02    +0.070 A 
DOCKED: ATOM     19  C   UNL d   1      -0.057  -1.398  -2.839 -0.33 +0.01    +0.052 C 
DOCKED: ATOM     20  C   UNL d   1      -3.435  -0.928  -8.005 -0.32 +0.03    +0.066 A 
DOCKED: ATOM     21  C   UNL d   1      -4.660  -0.958  -8.687 -0.23 -0.01    -0.025 A 
DOCKED: ATOM     22  C   UNL d   1      -4.347  -0.870 -10.028 -0.23 -0.02    -0.021 A 
DOCKED: ATOM     23  C   UNL d   1      -2.952  -0.797 -10.111 -0.28 +0.05    +0.066 A 
DOCKED: ATOM     24  C   UNL d   1      -6.055  -1.067  -8.117 -0.26 +0.02    +0.051 C 
DOCKED: ATOM     25  N   UNL d   1       0.046  -1.068 -10.367 -0.13 -0.15    -0.248 N 
DOCKED: ATOM     26  N   UNL d   1       1.558  -1.504  -7.985 +0.05 -0.15    -0.248 N 
DOCKED: ATOM     27  N   UNL d   1      -0.875  -1.318  -6.468 -0.25 -0.08    -0.248 N 
DOCKED: ATOM     28  N   UNL d   1      -2.399  -0.878  -8.876 -0.22 -0.13    -0.248 N 
DOCKED: ATOM     29 FE   UNL d   1      -0.422  -1.191  -8.430 -0.09 +0.00    +0.000 Fe
DOCKED: ENDROOT
DOCKED: BRANCH   6  30
DOCKED: ATOM     30  C   UNL d   1      -0.635  -0.265 -13.893 -0.20 +0.06    +0.052 C 
DOCKED: BRANCH  30  31
DOCKED: ATOM     31  C   UNL d   1      -1.355   1.079 -13.847 -0.19 +0.14    +0.115 C 
DOCKED: BRANCH  31  32
DOCKED: ATOM     32  C   UNL d   1      -2.784   0.925 -14.289 -0.15 +0.22    +0.139 C 
DOCKED: ATOM     33  O   UNL d   1      -3.534   1.890 -14.318 -0.53 -1.33    -0.650 OA
DOCKED: BRANCH  32  34
DOCKED: ATOM     34  O   UNL d   1      -3.250  -0.280 -14.658 +0.02 -1.92    -0.776 OA
DOCKED: ATOM     35  H   UNL d   1      -4.195  -0.382 -14.840 +0.01 +0.37    +0.167 HD
DOCKED: ENDBRANCH  32  34
DOCKED: ENDBRANCH  31  32
DOCKED: ENDBRANCH  30  31
DOCKED: ENDBRANCH   6  30
DOCKED: BRANCH  22  36
DOCKED: ATOM     36  C   UNL d   1      -5.334  -0.904 -11.165 -0.19 +0.05    +0.052 C 
DOCKED: BRANCH  36  37
DOCKED: ATOM     37  C   UNL d   1      -5.340  -2.288 -11.798 -0.04 +0.18    +0.115 C 
DOCKED: BRANCH  37  38
DOCKED: ATOM     38  C   UNL d   1      -6.212  -2.317 -13.021 -0.04 +0.22    +0.139 C 
DOCKED: ATOM     39  O   UNL d   1      -7.313  -2.846 -12.992 -0.00 -0.60    -0.650 OA
DOCKED: BRANCH  38  40
DOCKED: ATOM     40  O   UNL d   1      -5.779  -1.761 -14.167 -0.09 -1.71    -0.776 OA
DOCKED: ATOM     41  H   UNL d   1      -5.274  -0.937 -14.128 +0.01 +0.35    +0.167 HD
DOCKED: ENDBRANCH  38  40
DOCKED: ENDBRANCH  37  38
DOCKED: ENDBRANCH  36  37
DOCKED: ENDBRANCH  22  36
DOCKED: BRANCH  12  42
DOCKED: ATOM     42  C   UNL d   1       4.397  -2.570  -5.801 -0.59 +0.00    +0.004 C 
DOCKED: ATOM     43  C   UNL d   1       4.079  -3.547  -4.941 -0.62 +0.00    +0.012 C 
DOCKED: ENDBRANCH  12  42
DOCKED: BRANCH  17  44
DOCKED: ATOM     44  C   UNL d   1      -3.056  -0.849  -3.527 -0.60 +0.00    +0.004 C 
DOCKED: ATOM     45  C   UNL d   1      -3.578  -1.853  -2.815 -0.68 +0.00    +0.012 C 
DOCKED: ENDBRANCH  17  44
DOCKED: TORSDOF 10
DOCKED: TER
DOCKED: ENDMDL
________________________________________________________________________________


	BEGINNING GENETIC ALGORITHM DOCKING 29 of 100
Run: 29 Seed: 1023937754 1541785187 [ Run 29 of 100 GA/GALS ]
Beginning LAMARCKIAN GENETIC ALGORITHM (LGA), with a maximum of 25000000 energy evaluations.

Final-Value: -20.041


	FINAL GENETIC ALGORITHM DOCKED STATE
	_______________________________________________


Detailed state:  trans -0.175 -1.642 -9.016 quatxyzw 0.578331 0.371396 0.466323 0.556903 center -0.174 -0.001 -0.047 ntor 10 -85.6290 31.0698 75.5641 -126.0450 20.4558 168.1689 -28.7111 -54.1010 -171.9477 16.8085
State:	 -0.175  -1.642  -9.016   0.696  0.447  0.561 112.316    -85.63   31.07   75.56 -126.04   20.46  168.17  -28.71  -54.10 -171.95   16.81

DOCKED: MODEL       29
DOCKED: USER    Run = 29
DOCKED: USER    DPF = D:/Protein_go_brrr/autodock/final/AncB/heme_Fe/dock.dpf
DOCKED: USER  
DOCKED: USER    Estimated Free Energy of Binding    =  -15.35 kcal/mol  [=(1)+(2)+(3)-(4)]
DOCKED: USER    Estimated Inhibition Constant, Ki   =    5.64 pM (picomolar)  [Temperature = 298.15 K]
DOCKED: USER    
DOCKED: USER    (1) Final Intermolecular Energy     =  -18.33 kcal/mol
DOCKED: USER        vdW + Hbond + desolv Energy     =  -14.43 kcal/mol
DOCKED: USER        Electrostatic Energy            =   -3.89 kcal/mol
DOCKED: USER    (2) Final Total Internal Energy     =   -1.71 kcal/mol
DOCKED: USER    (3) Torsional Free Energy           =   +2.98 kcal/mol
DOCKED: USER    (4) Unbound System's Energy  [=(2)] =   -1.71 kcal/mol
DOCKED: USER    
DOCKED: USER    
DOCKED: USER    NEWDPF move heme_Fe_opt.pdbqt
DOCKED: USER    NEWDPF about -0.174000 -0.001000 -0.047000
DOCKED: USER    NEWDPF tran0 -0.175452 -1.641668 -9.016376
DOCKED: USER    NEWDPF quaternion0 0.578331 0.371396 0.466323 0.556903
DOCKED: USER    NEWDPF axisangle0 0.696300 0.447154 0.561445 112.316199
DOCKED: USER    NEWDPF quat0 0.696300 0.447154 0.561445 112.316199
DOCKED: USER    NEWDPF dihe0 -85.63 31.07 75.56 -126.04 20.46 168.17 -28.71 -54.10 -171.95 16.81 
DOCKED: USER  keepresnum = 1 
DOCKED: USER  
DOCKED: REMARK  10 active torsions:
DOCKED: REMARK  status: ('A' for Active; 'I' for Inactive)
DOCKED: REMARK    1  A    between atoms: C_6  and  C_10 
DOCKED: REMARK    2  A    between atoms: C_10  and  C_11 
DOCKED: REMARK    3  A    between atoms: C_11  and  C_12 
DOCKED: REMARK    4  A    between atoms: C_12  and  O_14 
DOCKED: REMARK    5  A    between atoms: C_17  and  C_20 
DOCKED: REMARK    6  A    between atoms: C_24  and  C_27 
DOCKED: REMARK    7  A    between atoms: C_31  and  C_34 
DOCKED: REMARK    8  A    between atoms: C_34  and  C_35 
DOCKED: REMARK    9  A    between atoms: C_35  and  C_36 
DOCKED: REMARK   10  A    between atoms: C_36  and  O_38 
DOCKED: USER                              x       y       z     vdW  Elec       q    Type
DOCKED: USER                           _______ _______ _______ _____ _____    ______ ____
DOCKED: ROOT
DOCKED: ATOM      1  C   UNL d   1      -0.737  -0.931 -10.857 -0.20 +0.05    +0.064 C 
DOCKED: ATOM      2  C   UNL d   1      -2.861  -1.106  -6.398 -0.41 +0.02    +0.064 A 
DOCKED: ATOM      3  C   UNL d   1       1.423  -2.113  -4.474 -0.42 +0.01    +0.064 C 
DOCKED: ATOM      4  C   UNL d   1       3.479  -2.052  -8.793 -0.51 +0.02    +0.064 C 
DOCKED: ATOM      5  C   UNL d   1      -1.747  -0.969  -9.791 -0.32 +0.04    +0.066 A 
DOCKED: ATOM      6  C   UNL d   1      -3.112  -0.833  -9.988 -0.30 -0.02    -0.021 A 
DOCKED: ATOM      7  C   UNL d   1      -3.700  -0.878  -8.749 -0.30 -0.01    -0.025 A 
DOCKED: ATOM      8  C   UNL d   1      -2.671  -1.040  -7.841 -0.36 +0.03    +0.066 A 
DOCKED: ATOM      9  C   UNL d   1      -5.168  -0.789  -8.465 -0.31 +0.02    +0.051 C 
DOCKED: ATOM     10  C   UNL d   1      -1.893  -1.319  -5.505 -0.41 +0.02    +0.066 A 
DOCKED: ATOM     11  C   UNL d   1      -2.087  -1.262  -4.123 -0.44 -0.00    -0.021 A 
DOCKED: ATOM     12  C   UNL d   1      -0.863  -1.532  -3.545 -0.41 +0.00    +0.000 A 
DOCKED: ATOM     13  C   UNL d   1       0.026  -1.734  -4.615 -0.38 +0.01    +0.070 A 
DOCKED: ATOM     14  C   UNL d   1      -3.362  -0.900  -3.388 -0.62 +0.01    +0.052 C 
DOCKED: ATOM     15  C   UNL d   1       2.295  -2.257  -5.499 -0.39 +0.01    +0.066 A 
DOCKED: ATOM     16  C   UNL d   1       3.595  -2.717  -5.330 -0.49 -0.00    -0.021 A 
DOCKED: ATOM     17  C   UNL d   1       4.191  -2.697  -6.574 -0.50 +0.00    +0.000 A 
DOCKED: ATOM     18  C   UNL d   1       3.240  -2.221  -7.474 -0.41 +0.02    +0.070 A 
DOCKED: ATOM     19  C   UNL d   1       4.261  -3.136  -4.047 -0.62 +0.01    +0.052 C 
DOCKED: ATOM     20  C   UNL d   1       2.485  -1.612  -9.779 -0.43 +0.03    +0.066 A 
DOCKED: ATOM     21  C   UNL d   1       2.766  -1.243 -11.102 -0.44 -0.01    -0.025 A 
DOCKED: ATOM     22  C   UNL d   1       1.549  -0.939 -11.676 -0.17 -0.01    -0.021 A 
DOCKED: ATOM     23  C   UNL d   1       0.579  -1.128 -10.684 -0.05 +0.04    +0.066 A 
DOCKED: ATOM     24  C   UNL d   1       4.106  -1.172 -11.798 -0.54 +0.01    +0.051 C 
DOCKED: ATOM     25  N   UNL d   1      -1.486  -1.105  -8.479 -0.24 -0.12    -0.248 N 
DOCKED: ATOM     26  N   UNL d   1      -0.599  -1.595  -5.810 -0.25 -0.07    -0.248 N 
DOCKED: ATOM     27  N   UNL d   1       2.061  -1.991  -6.821 -0.21 -0.09    -0.248 N 
DOCKED: ATOM     28  N   UNL d   1       1.161  -1.495  -9.516 -0.21 -0.14    -0.248 N 
DOCKED: ATOM     29 FE   UNL d   1       0.283  -1.545  -7.664 -0.09 +0.00    +0.000 Fe
DOCKED: ENDROOT
DOCKED: BRANCH   6  30
DOCKED: ATOM     30  C   UNL d   1      -3.825  -0.689 -11.289 -0.22 +0.07    +0.052 C 
DOCKED: BRANCH  30  31
DOCKED: ATOM     31  C   UNL d   1      -3.798   0.760 -11.763 -0.22 +0.13    +0.115 C 
DOCKED: BRANCH  31  32
DOCKED: ATOM     32  C   UNL d   1      -3.851   0.824 -13.264 -0.16 +0.22    +0.139 C 
DOCKED: ATOM     33  O   UNL d   1      -4.270  -0.123 -13.914 +0.11 -1.33    -0.650 OA
DOCKED: BRANCH  32  34
DOCKED: ATOM     34  O   UNL d   1      -3.436   1.928 -13.907 -0.41 -1.59    -0.776 OA
DOCKED: ATOM     35  H   UNL d   1      -2.525   1.970 -14.229 +0.03 +0.31    +0.167 HD
DOCKED: ENDBRANCH  32  34
DOCKED: ENDBRANCH  31  32
DOCKED: ENDBRANCH  30  31
DOCKED: ENDBRANCH   6  30
DOCKED: BRANCH  22  36
DOCKED: ATOM     36  C   UNL d   1       1.338  -0.448 -13.084 -0.28 +0.03    +0.052 C 
DOCKED: BRANCH  36  37
DOCKED: ATOM     37  C   UNL d   1       0.578  -1.496 -13.884 -0.20 +0.09    +0.115 C 
DOCKED: BRANCH  37  38
DOCKED: ATOM     38  C   UNL d   1      -0.661  -0.909 -14.500 -0.13 +0.18    +0.139 C 
DOCKED: ATOM     39  O   UNL d   1      -1.287  -1.524 -15.350 -0.33 -1.19    -0.650 OA
DOCKED: BRANCH  38  40
DOCKED: ATOM     40  O   UNL d   1      -1.089   0.307 -14.118 +0.01 -0.95    -0.776 OA
DOCKED: ATOM     41  H   UNL d   1      -2.037   0.499 -14.136 +0.04 +0.25    +0.167 HD
DOCKED: ENDBRANCH  38  40
DOCKED: ENDBRANCH  37  38
DOCKED: ENDBRANCH  36  37
DOCKED: ENDBRANCH  22  36
DOCKED: BRANCH  12  42
DOCKED: ATOM     42  C   UNL d   1      -0.600  -1.567  -2.073 -0.51 +0.00    +0.004 C 
DOCKED: ATOM     43  C   UNL d   1      -0.086  -2.658  -1.490 -0.59 +0.00    +0.012 C 
DOCKED: ENDBRANCH  12  42
DOCKED: BRANCH  17  44
DOCKED: ATOM     44  C   UNL d   1       5.573  -3.126  -6.885 -0.47 +0.00    +0.004 C 
DOCKED: ATOM     45  C   UNL d   1       6.621  -2.388  -6.505 -0.65 +0.00    +0.012 C 
DOCKED: ENDBRANCH  17  44
DOCKED: TORSDOF 10
DOCKED: TER
DOCKED: ENDMDL
________________________________________________________________________________


	BEGINNING GENETIC ALGORITHM DOCKING 30 of 100
Run: 30 Seed: 1971939122 777798083 [ Run 30 of 100 GA/GALS ]
Beginning LAMARCKIAN GENETIC ALGORITHM (LGA), with a maximum of 25000000 energy evaluations.

Final-Value: -14.702


	FINAL GENETIC ALGORITHM DOCKED STATE
	_______________________________________________


Detailed state:  trans -5.579 -11.007 11.943 quatxyzw -0.601848 -0.006422 -0.450029 0.659706 center -0.174 -0.001 -0.047 ntor 10 153.3405 -149.2625 47.6038 54.2742 79.9273 112.6447 -14.8493 54.9204 -164.5726 171.1207
State:	 -5.579 -11.007  11.943  -0.801 -0.009 -0.599 97.445    153.34 -149.26   47.60   54.27   79.93  112.64  -14.85   54.92 -164.57  171.12

DOCKED: MODEL       30
DOCKED: USER    Run = 30
DOCKED: USER    DPF = D:/Protein_go_brrr/autodock/final/AncB/heme_Fe/dock.dpf
DOCKED: USER  
DOCKED: USER    Estimated Free Energy of Binding    =  -10.40 kcal/mol  [=(1)+(2)+(3)-(4)]
DOCKED: USER    Estimated Inhibition Constant, Ki   =   23.82 nM (nanomolar)  [Temperature = 298.15 K]
DOCKED: USER    
DOCKED: USER    (1) Final Intermolecular Energy     =  -13.38 kcal/mol
DOCKED: USER        vdW + Hbond + desolv Energy     =   -9.11 kcal/mol
DOCKED: USER        Electrostatic Energy            =   -4.27 kcal/mol
DOCKED: USER    (2) Final Total Internal Energy     =   -1.32 kcal/mol
DOCKED: USER    (3) Torsional Free Energy           =   +2.98 kcal/mol
DOCKED: USER    (4) Unbound System's Energy  [=(2)] =   -1.32 kcal/mol
DOCKED: USER    
DOCKED: USER    
DOCKED: USER    NEWDPF move heme_Fe_opt.pdbqt
DOCKED: USER    NEWDPF about -0.174000 -0.001000 -0.047000
DOCKED: USER    NEWDPF tran0 -5.578585 -11.006702 11.942533
DOCKED: USER    NEWDPF quaternion0 -0.601848 -0.006422 -0.450029 0.659706
DOCKED: USER    NEWDPF axisangle0 -0.800837 -0.008545 -0.598822 97.445165
DOCKED: USER    NEWDPF quat0 -0.800837 -0.008545 -0.598822 97.445165
DOCKED: USER    NEWDPF dihe0 153.34 -149.26 47.60 54.27 79.93 112.64 -14.85 54.92 -164.57 171.12 
DOCKED: USER  keepresnum = 1 
DOCKED: USER  
DOCKED: REMARK  10 active torsions:
DOCKED: REMARK  status: ('A' for Active; 'I' for Inactive)
DOCKED: REMARK    1  A    between atoms: C_6  and  C_10 
DOCKED: REMARK    2  A    between atoms: C_10  and  C_11 
DOCKED: REMARK    3  A    between atoms: C_11  and  C_12 
DOCKED: REMARK    4  A    between atoms: C_12  and  O_14 
DOCKED: REMARK    5  A    between atoms: C_17  and  C_20 
DOCKED: REMARK    6  A    between atoms: C_24  and  C_27 
DOCKED: REMARK    7  A    between atoms: C_31  and  C_34 
DOCKED: REMARK    8  A    between atoms: C_34  and  C_35 
DOCKED: REMARK    9  A    between atoms: C_35  and  C_36 
DOCKED: REMARK   10  A    between atoms: C_36  and  O_38 
DOCKED: USER                              x       y       z     vdW  Elec       q    Type
DOCKED: USER                           _______ _______ _______ _____ _____    ______ ____
DOCKED: ROOT
DOCKED: ATOM      1  C   UNL d   1      -6.430 -12.610  10.986 -0.27 +0.04    +0.064 C 
DOCKED: ATOM      2  C   UNL d   1      -2.415  -9.830  10.220 -0.28 +0.01    +0.064 A 
DOCKED: ATOM      3  C   UNL d   1      -2.836  -8.115  14.686 -0.19 +0.01    +0.064 C 
DOCKED: ATOM      4  C   UNL d   1      -6.784 -10.718  15.412 -0.18 +0.04    +0.064 C 
DOCKED: ATOM      5  C   UNL d   1      -5.310 -11.924  10.327 -0.23 +0.03    +0.066 A 
DOCKED: ATOM      6  C   UNL d   1      -4.957 -12.082   8.997 -0.25 -0.01    -0.021 A 
DOCKED: ATOM      7  C   UNL d   1      -3.840 -11.313   8.786 -0.24 -0.01    -0.025 A 
DOCKED: ATOM      8  C   UNL d   1      -3.553 -10.713   9.997 -0.24 +0.02    +0.066 A 
DOCKED: ATOM      9  C   UNL d   1      -3.110 -11.154   7.488 -0.34 +0.02    +0.051 C 
DOCKED: ATOM     10  C   UNL d   1      -2.149  -9.194  11.362 -0.24 +0.02    +0.066 A 
DOCKED: ATOM     11  C   UNL d   1      -0.990  -8.446  11.580 -0.26 -0.00    -0.021 A 
DOCKED: ATOM     12  C   UNL d   1      -1.079  -7.954  12.867 -0.23 +0.00    +0.000 A 
DOCKED: ATOM     13  C   UNL d   1      -2.296  -8.439  13.376 -0.15 +0.02    +0.070 A 
DOCKED: ATOM     14  C   UNL d   1       0.179  -8.264  10.633 -0.11 +0.01    +0.052 C 
DOCKED: ATOM     15  C   UNL d   1      -3.982  -8.621  15.200 -0.13 +0.02    +0.066 A 
DOCKED: ATOM     16  C   UNL d   1      -4.515  -8.209  16.415 -0.16 -0.00    -0.021 A 
DOCKED: ATOM     17  C   UNL d   1      -5.652  -8.961  16.628 -0.15 +0.00    +0.000 A 
DOCKED: ATOM     18  C   UNL d   1      -5.783  -9.818  15.538 -0.06 +0.05    +0.070 A 
DOCKED: ATOM     19  C   UNL d   1      -3.966  -7.169  17.353 -0.12 -0.00    +0.052 C 
DOCKED: ATOM     20  C   UNL d   1      -6.989 -11.592  14.251 -0.24 +0.04    +0.066 A 
DOCKED: ATOM     21  C   UNL d   1      -7.894 -12.661  14.192 -0.28 -0.01    -0.025 A 
DOCKED: ATOM     22  C   UNL d   1      -7.786 -13.178  12.918 -0.34 -0.01    -0.021 A 
DOCKED: ATOM     23  C   UNL d   1      -6.819 -12.413  12.255 -0.31 +0.04    +0.066 A 
DOCKED: ATOM     24  C   UNL d   1      -8.814 -13.179  15.274 -0.20 +0.02    +0.051 C 
DOCKED: ATOM     25  N   UNL d   1      -4.455 -11.080  10.930 -0.15 -0.10    -0.248 N 
DOCKED: ATOM     26  N   UNL d   1      -2.945  -9.203  12.462 -0.11 -0.08    -0.248 N 
DOCKED: ATOM     27  N   UNL d   1      -4.782  -9.580  14.639 -0.07 -0.15    -0.248 N 
DOCKED: ATOM     28  N   UNL d   1      -6.304 -11.476  13.088 -0.18 -0.16    -0.248 N 
DOCKED: ATOM     29 FE   UNL d   1      -4.625 -10.339  12.776 -0.06 +0.00    +0.000 Fe
DOCKED: ENDROOT
DOCKED: BRANCH   6  30
DOCKED: ATOM     30  C   UNL d   1      -5.658 -12.905   7.970 -0.31 +0.04    +0.052 C 
DOCKED: BRANCH  30  31
DOCKED: ATOM     31  C   UNL d   1      -5.372 -14.388   8.181 -0.16 +0.10    +0.115 C 
DOCKED: BRANCH  31  32
DOCKED: ATOM     32  C   UNL d   1      -6.342 -15.227   7.395 -0.22 +0.22    +0.139 C 
DOCKED: ATOM     33  O   UNL d   1      -6.178 -15.411   6.197 -0.43 -1.59    -0.650 OA
DOCKED: BRANCH  32  34
DOCKED: ATOM     34  O   UNL d   1      -7.401 -15.784   8.006 -0.34 -2.02    -0.776 OA
DOCKED: ATOM     35  H   UNL d   1      -7.347 -15.983   8.951 +0.01 +0.36    +0.167 HD
DOCKED: ENDBRANCH  32  34
DOCKED: ENDBRANCH  31  32
DOCKED: ENDBRANCH  30  31
DOCKED: ENDBRANCH   6  30
DOCKED: BRANCH  22  36
DOCKED: ATOM     36  C   UNL d   1      -8.535 -14.371  12.386 +0.03 +0.02    +0.052 C 
DOCKED: BRANCH  36  37
DOCKED: ATOM     37  C   UNL d   1      -7.713 -15.633  12.606 -0.17 +0.05    +0.115 C 
DOCKED: BRANCH  37  38
DOCKED: ATOM     38  C   UNL d   1      -7.525 -16.384  11.318 -0.11 +0.11    +0.139 C 
DOCKED: ATOM     39  O   UNL d   1      -6.419 -16.478  10.805 +0.00 -0.47    -0.650 OA
DOCKED: BRANCH  38  40
DOCKED: ATOM     40  O   UNL d   1      -8.581 -16.959  10.716 -0.07 -1.22    -0.776 OA
DOCKED: ATOM     41  H   UNL d   1      -9.455 -16.559  10.817 -0.56 +0.30    +0.167 HD
DOCKED: ENDBRANCH  38  40
DOCKED: ENDBRANCH  37  38
DOCKED: ENDBRANCH  36  37
DOCKED: ENDBRANCH  22  36
DOCKED: BRANCH  12  42
DOCKED: ATOM     42  C   UNL d   1      -0.045  -7.102  13.531 -0.23 +0.00    +0.004 C 
DOCKED: ATOM     43  C   UNL d   1      -0.150  -5.766  13.534 -0.39 -0.00    +0.012 C 
DOCKED: ENDBRANCH  12  42
DOCKED: BRANCH  17  44
DOCKED: ATOM     44  C   UNL d   1      -6.564  -8.852  17.789 -0.15 +0.00    +0.004 C 
DOCKED: ATOM     45  C   UNL d   1      -7.782  -8.317  17.655 -0.24 -0.00    +0.012 C 
DOCKED: ENDBRANCH  17  44
DOCKED: TORSDOF 10
DOCKED: TER
DOCKED: ENDMDL
________________________________________________________________________________


	BEGINNING GENETIC ALGORITHM DOCKING 31 of 100
Run: 31 Seed: 935621713 88465427 [ Run 31 of 100 GA/GALS ]
Beginning LAMARCKIAN GENETIC ALGORITHM (LGA), with a maximum of 25000000 energy evaluations.

Final-Value: -14.780


	FINAL GENETIC ALGORITHM DOCKED STATE
	_______________________________________________


Detailed state:  trans -5.840 -11.288 12.073 quatxyzw 0.600085 0.025066 0.470841 -0.646203 center -0.174 -0.001 -0.047 ntor 10 162.3246 -141.1766 42.4035 49.1093 61.9080 162.4234 -9.6806 21.5309 -166.3977 147.0783
State:	 -5.840 -11.288  12.073   0.786  0.033  0.617 -99.488    162.32 -141.18   42.40   49.11   61.91  162.42   -9.68   21.53 -166.40  147.08

DOCKED: MODEL       31
DOCKED: USER    Run = 31
DOCKED: USER    DPF = D:/Protein_go_brrr/autodock/final/AncB/heme_Fe/dock.dpf
DOCKED: USER  
DOCKED: USER    Estimated Free Energy of Binding    =  -10.92 kcal/mol  [=(1)+(2)+(3)-(4)]
DOCKED: USER    Estimated Inhibition Constant, Ki   =    9.91 nM (nanomolar)  [Temperature = 298.15 K]
DOCKED: USER    
DOCKED: USER    (1) Final Intermolecular Energy     =  -13.90 kcal/mol
DOCKED: USER        vdW + Hbond + desolv Energy     =   -9.61 kcal/mol
DOCKED: USER        Electrostatic Energy            =   -4.29 kcal/mol
DOCKED: USER    (2) Final Total Internal Energy     =   -0.88 kcal/mol
DOCKED: USER    (3) Torsional Free Energy           =   +2.98 kcal/mol
DOCKED: USER    (4) Unbound System's Energy  [=(2)] =   -0.88 kcal/mol
DOCKED: USER    
DOCKED: USER    
DOCKED: USER    NEWDPF move heme_Fe_opt.pdbqt
DOCKED: USER    NEWDPF about -0.174000 -0.001000 -0.047000
DOCKED: USER    NEWDPF tran0 -5.839998 -11.287941 12.073419
DOCKED: USER    NEWDPF quaternion0 0.600085 0.025066 0.470841 -0.646203
DOCKED: USER    NEWDPF axisangle0 0.786310 0.032845 0.616958 -99.488201
DOCKED: USER    NEWDPF quat0 0.786310 0.032845 0.616958 -99.488201
DOCKED: USER    NEWDPF dihe0 162.32 -141.18 42.40 49.11 61.91 162.42 -9.68 21.53 -166.40 147.08 
DOCKED: USER  keepresnum = 1 
DOCKED: USER  
DOCKED: REMARK  10 active torsions:
DOCKED: REMARK  status: ('A' for Active; 'I' for Inactive)
DOCKED: REMARK    1  A    between atoms: C_6  and  C_10 
DOCKED: REMARK    2  A    between atoms: C_10  and  C_11 
DOCKED: REMARK    3  A    between atoms: C_11  and  C_12 
DOCKED: REMARK    4  A    between atoms: C_12  and  O_14 
DOCKED: REMARK    5  A    between atoms: C_17  and  C_20 
DOCKED: REMARK    6  A    between atoms: C_24  and  C_27 
DOCKED: REMARK    7  A    between atoms: C_31  and  C_34 
DOCKED: REMARK    8  A    between atoms: C_34  and  C_35 
DOCKED: REMARK    9  A    between atoms: C_35  and  C_36 
DOCKED: REMARK   10  A    between atoms: C_36  and  O_38 
DOCKED: USER                              x       y       z     vdW  Elec       q    Type
DOCKED: USER                           _______ _______ _______ _____ _____    ______ ____
DOCKED: ROOT
DOCKED: ATOM      1  C   UNL d   1      -6.588 -12.943  11.119 -0.30 +0.04    +0.064 C 
DOCKED: ATOM      2  C   UNL d   1      -2.753  -9.921  10.353 -0.28 +0.02    +0.064 A 
DOCKED: ATOM      3  C   UNL d   1      -3.288  -8.225  14.815 -0.17 +0.01    +0.064 C 
DOCKED: ATOM      4  C   UNL d   1      -7.067 -11.066  15.540 -0.20 +0.04    +0.064 C 
DOCKED: ATOM      5  C   UNL d   1      -5.511 -12.191  10.461 -0.23 +0.03    +0.066 A 
DOCKED: ATOM      6  C   UNL d   1      -5.148 -12.330   9.132 -0.25 -0.01    -0.021 A 
DOCKED: ATOM      7  C   UNL d   1      -4.080 -11.493   8.921 -0.23 -0.01    -0.025 A 
DOCKED: ATOM      8  C   UNL d   1      -3.833 -10.874  10.131 -0.23 +0.02    +0.066 A 
DOCKED: ATOM      9  C   UNL d   1      -3.358 -11.293   7.624 -0.33 +0.02    +0.051 C 
DOCKED: ATOM     10  C   UNL d   1      -2.528  -9.267  11.494 -0.23 +0.02    +0.066 A 
DOCKED: ATOM     11  C   UNL d   1      -1.418  -8.448  11.712 -0.27 -0.00    -0.021 A 
DOCKED: ATOM     12  C   UNL d   1      -1.540  -7.960  12.998 -0.23 +0.00    +0.000 A 
DOCKED: ATOM     13  C   UNL d   1      -2.726  -8.518  13.505 -0.09 +0.02    +0.070 A 
DOCKED: ATOM     14  C   UNL d   1      -0.261  -8.197  10.767 -0.15 +0.01    +0.052 C 
DOCKED: ATOM     15  C   UNL d   1      -4.401  -8.799  15.328 -0.12 +0.03    +0.066 A 
DOCKED: ATOM     16  C   UNL d   1      -4.961  -8.419  16.540 -0.16 -0.00    -0.021 A 
DOCKED: ATOM     17  C   UNL d   1      -6.049  -9.239  16.753 -0.16 +0.00    +0.000 A 
DOCKED: ATOM     18  C   UNL d   1      -6.125 -10.106  15.665 -0.10 +0.05    +0.070 A 
DOCKED: ATOM     19  C   UNL d   1      -4.479  -7.343  17.477 -0.13 -0.00    +0.052 C 
DOCKED: ATOM     20  C   UNL d   1      -7.216 -11.954  14.381 -0.23 +0.04    +0.066 A 
DOCKED: ATOM     21  C   UNL d   1      -8.053 -13.077  14.324 -0.24 -0.01    -0.025 A 
DOCKED: ATOM     22  C   UNL d   1      -7.910 -13.590  13.051 -0.31 -0.01    -0.021 A 
DOCKED: ATOM     23  C   UNL d   1      -6.991 -12.767  12.387 -0.30 +0.04    +0.066 A 
DOCKED: ATOM     24  C   UNL d   1      -8.941 -13.648  15.405 -0.18 +0.02    +0.051 C 
DOCKED: ATOM     25  N   UNL d   1      -4.712 -11.294  11.063 -0.14 -0.11    -0.248 N 
DOCKED: ATOM     26  N   UNL d   1      -3.324  -9.323  12.593 -0.09 -0.09    -0.248 N 
DOCKED: ATOM     27  N   UNL d   1      -5.139  -9.807  14.767 -0.08 -0.17    -0.248 N 
DOCKED: ATOM     28  N   UNL d   1      -6.537 -11.798  13.219 -0.18 -0.15    -0.248 N 
DOCKED: ATOM     29 FE   UNL d   1      -4.932 -10.561  12.907 -0.05 +0.00    +0.000 Fe
DOCKED: ENDROOT
DOCKED: BRANCH   6  30
DOCKED: ATOM     30  C   UNL d   1      -5.793 -13.198   8.106 -0.30 +0.04    +0.052 C 
DOCKED: BRANCH  30  31
DOCKED: ATOM     31  C   UNL d   1      -5.381 -14.654   8.293 -0.15 +0.10    +0.115 C 
DOCKED: BRANCH  31  32
DOCKED: ATOM     32  C   UNL d   1      -6.208 -15.552   7.416 -0.19 +0.22    +0.139 C 
DOCKED: ATOM     33  O   UNL d   1      -6.172 -15.439   6.199 -0.43 -1.59    -0.650 OA
DOCKED: BRANCH  32  34
DOCKED: ATOM     34  O   UNL d   1      -6.998 -16.490   7.964 -0.58 -1.73    -0.776 OA
DOCKED: ATOM     35  H   UNL d   1      -6.843 -16.757   8.881 +0.02 +0.28    +0.167 HD
DOCKED: ENDBRANCH  32  34
DOCKED: ENDBRANCH  31  32
DOCKED: ENDBRANCH  30  31
DOCKED: ENDBRANCH   6  30
DOCKED: BRANCH  22  36
DOCKED: ATOM     36  C   UNL d   1      -8.583 -14.828  12.521 +0.00 +0.02    +0.052 C 
DOCKED: BRANCH  36  37
DOCKED: ATOM     37  C   UNL d   1      -7.534 -15.880  12.189 -0.16 +0.06    +0.115 C 
DOCKED: BRANCH  37  38
DOCKED: ATOM     38  C   UNL d   1      -8.076 -16.895  11.222 -0.09 +0.13    +0.139 C 
DOCKED: ATOM     39  O   UNL d   1      -7.322 -17.620  10.590 -0.02 -0.66    -0.650 OA
DOCKED: BRANCH  38  40
DOCKED: ATOM     40  O   UNL d   1      -9.404 -17.009  11.043 -0.43 -1.19    -0.776 OA
DOCKED: ATOM     41  H   UNL d   1      -9.947 -16.209  11.033 -0.57 +0.21    +0.167 HD
DOCKED: ENDBRANCH  38  40
DOCKED: ENDBRANCH  37  38
DOCKED: ENDBRANCH  36  37
DOCKED: ENDBRANCH  22  36
DOCKED: BRANCH  12  42
DOCKED: ATOM     42  C   UNL d   1      -0.562  -7.043  13.662 -0.26 +0.00    +0.004 C 
DOCKED: ATOM     43  C   UNL d   1      -0.694  -5.713  13.573 -0.42 -0.00    +0.012 C 
DOCKED: ENDBRANCH  12  42
DOCKED: BRANCH  17  44
DOCKED: ATOM     44  C   UNL d   1      -6.969  -9.184  17.912 -0.14 +0.00    +0.004 C 
DOCKED: ATOM     45  C   UNL d   1      -8.181  -8.632  17.799 -0.23 +0.00    +0.012 C 
DOCKED: ENDBRANCH  17  44
DOCKED: TORSDOF 10
DOCKED: TER
DOCKED: ENDMDL
________________________________________________________________________________


	BEGINNING GENETIC ALGORITHM DOCKING 32 of 100
Run: 32 Seed: 1933958121 411811553 [ Run 32 of 100 GA/GALS ]
Beginning LAMARCKIAN GENETIC ALGORITHM (LGA), with a maximum of 25000000 energy evaluations.

Final-Value: -14.842


	FINAL GENETIC ALGORITHM DOCKED STATE
	_______________________________________________


Detailed state:  trans -5.035 -11.388 12.442 quatxyzw 0.637217 0.540626 -0.043614 0.547518 center -0.174 -0.001 -0.047 ntor 10 -76.9650 171.9853 -165.2051 -103.7101 96.8152 63.8225 64.5085 -19.3598 -0.3606 16.1560
State:	 -5.035 -11.388  12.442   0.761  0.646 -0.052 113.606    -76.96  171.99 -165.21 -103.71   96.82   63.82   64.51  -19.36   -0.36   16.16

DOCKED: MODEL       32
DOCKED: USER    Run = 32
DOCKED: USER    DPF = D:/Protein_go_brrr/autodock/final/AncB/heme_Fe/dock.dpf
DOCKED: USER  
DOCKED: USER    Estimated Free Energy of Binding    =   -9.76 kcal/mol  [=(1)+(2)+(3)-(4)]
DOCKED: USER    Estimated Inhibition Constant, Ki   =   70.22 nM (nanomolar)  [Temperature = 298.15 K]
DOCKED: USER    
DOCKED: USER    (1) Final Intermolecular Energy     =  -12.74 kcal/mol
DOCKED: USER        vdW + Hbond + desolv Energy     =   -9.15 kcal/mol
DOCKED: USER        Electrostatic Energy            =   -3.60 kcal/mol
DOCKED: USER    (2) Final Total Internal Energy     =   -2.10 kcal/mol
DOCKED: USER    (3) Torsional Free Energy           =   +2.98 kcal/mol
DOCKED: USER    (4) Unbound System's Energy  [=(2)] =   -2.10 kcal/mol
DOCKED: USER    
DOCKED: USER    
DOCKED: USER    NEWDPF move heme_Fe_opt.pdbqt
DOCKED: USER    NEWDPF about -0.174000 -0.001000 -0.047000
DOCKED: USER    NEWDPF tran0 -5.035114 -11.387749 12.442431
DOCKED: USER    NEWDPF quaternion0 0.637217 0.540626 -0.043614 0.547518
DOCKED: USER    NEWDPF axisangle0 0.761498 0.646068 -0.052120 113.606191
DOCKED: USER    NEWDPF quat0 0.761498 0.646068 -0.052120 113.606191
DOCKED: USER    NEWDPF dihe0 -76.96 171.99 -165.21 -103.71 96.82 63.82 64.51 -19.36 -0.36 16.16 
DOCKED: USER  keepresnum = 1 
DOCKED: USER  
DOCKED: REMARK  10 active torsions:
DOCKED: REMARK  status: ('A' for Active; 'I' for Inactive)
DOCKED: REMARK    1  A    between atoms: C_6  and  C_10 
DOCKED: REMARK    2  A    between atoms: C_10  and  C_11 
DOCKED: REMARK    3  A    between atoms: C_11  and  C_12 
DOCKED: REMARK    4  A    between atoms: C_12  and  O_14 
DOCKED: REMARK    5  A    between atoms: C_17  and  C_20 
DOCKED: REMARK    6  A    between atoms: C_24  and  C_27 
DOCKED: REMARK    7  A    between atoms: C_31  and  C_34 
DOCKED: REMARK    8  A    between atoms: C_34  and  C_35 
DOCKED: REMARK    9  A    between atoms: C_35  and  C_36 
DOCKED: REMARK   10  A    between atoms: C_36  and  O_38 
DOCKED: USER                              x       y       z     vdW  Elec       q    Type
DOCKED: USER                           _______ _______ _______ _____ _____    ______ ____
DOCKED: ROOT
DOCKED: ATOM      1  C   UNL d   1      -6.233 -12.512  11.213 -0.30 +0.04    +0.064 C 
DOCKED: ATOM      2  C   UNL d   1      -6.736 -10.560  15.726 -0.15 +0.04    +0.064 A 
DOCKED: ATOM      3  C   UNL d   1      -2.899  -7.797  14.883 -0.20 +0.01    +0.064 C 
DOCKED: ATOM      4  C   UNL d   1      -2.331  -9.748  10.552 -0.30 +0.01    +0.064 C 
DOCKED: ATOM      5  C   UNL d   1      -6.680 -12.279  12.593 -0.28 +0.04    +0.066 A 
DOCKED: ATOM      6  C   UNL d   1      -7.696 -12.979  13.224 -0.32 -0.01    -0.021 A 
DOCKED: ATOM      7  C   UNL d   1      -7.837 -12.433  14.476 -0.26 -0.01    -0.025 A 
DOCKED: ATOM      8  C   UNL d   1      -6.901 -11.421  14.561 -0.22 +0.04    +0.066 A 
DOCKED: ATOM      9  C   UNL d   1      -8.805 -12.879  15.529 -0.20 +0.02    +0.051 C 
DOCKED: ATOM     10  C   UNL d   1      -5.804  -9.614  15.856 -0.07 +0.05    +0.066 A 
DOCKED: ATOM     11  C   UNL d   1      -5.743  -8.729  16.935 -0.15 -0.01    -0.021 A 
DOCKED: ATOM     12  C   UNL d   1      -4.655  -7.911  16.707 -0.17 +0.00    +0.000 A 
DOCKED: ATOM     13  C   UNL d   1      -4.107  -8.338  15.485 -0.14 +0.02    +0.070 A 
DOCKED: ATOM     14  C   UNL d   1      -6.715  -8.624  18.093 -0.13 +0.00    +0.052 C 
DOCKED: ATOM     15  C   UNL d   1      -2.398  -8.169  13.681 -0.15 +0.01    +0.066 A 
DOCKED: ATOM     16  C   UNL d   1      -1.187  -7.700  13.187 -0.22 -0.00    -0.021 A 
DOCKED: ATOM     17  C   UNL d   1      -1.023  -8.259  11.936 -0.26 +0.00    +0.000 A 
DOCKED: ATOM     18  C   UNL d   1      -2.141  -9.054  11.695 -0.22 +0.02    +0.070 A 
DOCKED: ATOM     19  C   UNL d   1      -0.232  -6.745  13.850 -0.24 +0.00    +0.052 C 
DOCKED: ATOM     20  C   UNL d   1      -3.464 -10.643  10.288 -0.23 +0.02    +0.066 A 
DOCKED: ATOM     21  C   UNL d   1      -3.777 -11.208   9.044 -0.24 -0.01    -0.025 A 
DOCKED: ATOM     22  C   UNL d   1      -4.885 -12.002   9.258 -0.24 -0.01    -0.021 A 
DOCKED: ATOM     23  C   UNL d   1      -5.207 -11.885  10.616 -0.22 +0.03    +0.066 A 
DOCKED: ATOM     24  C   UNL d   1      -3.080 -11.015   7.718 -0.33 +0.01    +0.051 C 
DOCKED: ATOM     25  N   UNL d   1      -6.193 -11.335  13.417 -0.16 -0.16    -0.248 N 
DOCKED: ATOM     26  N   UNL d   1      -4.813  -9.370  14.961 -0.09 -0.15    -0.248 N 
DOCKED: ATOM     27  N   UNL d   1      -2.966  -9.033  12.785 -0.08 -0.08    -0.248 N 
DOCKED: ATOM     28  N   UNL d   1      -4.364 -11.019  11.229 -0.14 -0.10    -0.248 N 
DOCKED: ATOM     29 FE   UNL d   1      -4.587 -10.194  13.094 -0.05 +0.00    +0.000 Fe
DOCKED: ENDROOT
DOCKED: BRANCH   6  30
DOCKED: ATOM     30  C   UNL d   1      -8.479 -14.122  12.675 -0.21 +0.02    +0.052 C 
DOCKED: BRANCH  30  31
DOCKED: ATOM     31  C   UNL d   1      -7.789 -15.446  12.983 -0.17 +0.05    +0.115 C 
DOCKED: BRANCH  31  32
DOCKED: ATOM     32  C   UNL d   1      -7.350 -16.119  11.712 -0.14 +0.08    +0.139 C 
DOCKED: ATOM     33  O   UNL d   1      -6.201 -15.999  11.309 +0.02 -0.37    -0.650 OA
DOCKED: BRANCH  32  34
DOCKED: ATOM     34  O   UNL d   1      -8.219 -16.860  11.006 -0.07 -0.88    -0.776 OA
DOCKED: ATOM     35  H   UNL d   1      -8.607 -16.489  10.201 -0.43 +0.36    +0.167 HD
DOCKED: ENDBRANCH  32  34
DOCKED: ENDBRANCH  31  32
DOCKED: ENDBRANCH  30  31
DOCKED: ENDBRANCH   6  30
DOCKED: BRANCH  22  36
DOCKED: ATOM     36  C   UNL d   1      -5.620 -12.789   8.205 -0.31 +0.03    +0.052 C 
DOCKED: BRANCH  36  37
DOCKED: ATOM     37  C   UNL d   1      -5.450 -14.278   8.465 -0.17 +0.09    +0.115 C 
DOCKED: BRANCH  37  38
DOCKED: ATOM     38  C   UNL d   1      -6.523 -15.072   7.775 -0.24 +0.21    +0.139 C 
DOCKED: ATOM     39  O   UNL d   1      -6.608 -15.080   6.555 -0.39 -1.42    -0.650 OA
DOCKED: BRANCH  38  40
DOCKED: ATOM     40  O   UNL d   1      -7.406 -15.781   8.501 -0.29 -1.87    -0.776 OA
DOCKED: ATOM     41  H   UNL d   1      -7.267 -15.869   9.454 -0.02 +0.26    +0.167 HD
DOCKED: ENDBRANCH  38  40
DOCKED: ENDBRANCH  37  38
DOCKED: ENDBRANCH  36  37
DOCKED: ENDBRANCH  22  36
DOCKED: BRANCH  12  42
DOCKED: ATOM     42  C   UNL d   1      -4.215  -6.801  17.608 -0.13 -0.00    +0.004 C 
DOCKED: ATOM     43  C   UNL d   1      -4.210  -5.530  17.185 -0.25 -0.00    +0.012 C 
DOCKED: ENDBRANCH  12  42
DOCKED: BRANCH  17  44
DOCKED: ATOM     44  C   UNL d   1       0.138  -8.062  11.039 -0.27 +0.00    +0.004 C 
DOCKED: ATOM     45  C   UNL d   1       0.591  -6.834  10.764 -0.30 +0.00    +0.012 C 
DOCKED: ENDBRANCH  17  44
DOCKED: TORSDOF 10
DOCKED: TER
DOCKED: ENDMDL
________________________________________________________________________________


	BEGINNING GENETIC ALGORITHM DOCKING 33 of 100
Run: 33 Seed: 1349033145 654855563 [ Run 33 of 100 GA/GALS ]
Beginning LAMARCKIAN GENETIC ALGORITHM (LGA), with a maximum of 25000000 energy evaluations.

Final-Value: -18.465


	FINAL GENETIC ALGORITHM DOCKED STATE
	_______________________________________________


Detailed state:  trans 0.157 -1.757 -8.974 quatxyzw 0.573959 0.389405 0.469914 0.546001 center -0.174 -0.001 -0.047 ntor 10 67.6573 -49.7006 73.5773 -118.1513 -17.0002 19.8372 -36.8081 -64.1751 -178.7527 -153.2100
State:	  0.157  -1.757  -8.974   0.685  0.465  0.561 113.814     67.66  -49.70   73.58 -118.15  -17.00   19.84  -36.81  -64.18 -178.75 -153.21

DOCKED: MODEL       33
DOCKED: USER    Run = 33
DOCKED: USER    DPF = D:/Protein_go_brrr/autodock/final/AncB/heme_Fe/dock.dpf
DOCKED: USER  
DOCKED: USER    Estimated Free Energy of Binding    =  -14.95 kcal/mol  [=(1)+(2)+(3)-(4)]
DOCKED: USER    Estimated Inhibition Constant, Ki   =   11.04 pM (picomolar)  [Temperature = 298.15 K]
DOCKED: USER    
DOCKED: USER    (1) Final Intermolecular Energy     =  -17.93 kcal/mol
DOCKED: USER        vdW + Hbond + desolv Energy     =  -15.28 kcal/mol
DOCKED: USER        Electrostatic Energy            =   -2.65 kcal/mol
DOCKED: USER    (2) Final Total Internal Energy     =   -0.53 kcal/mol
DOCKED: USER    (3) Torsional Free Energy           =   +2.98 kcal/mol
DOCKED: USER    (4) Unbound System's Energy  [=(2)] =   -0.53 kcal/mol
DOCKED: USER    
DOCKED: USER    
DOCKED: USER    NEWDPF move heme_Fe_opt.pdbqt
DOCKED: USER    NEWDPF about -0.174000 -0.001000 -0.047000
DOCKED: USER    NEWDPF tran0 0.156807 -1.757348 -8.974423
DOCKED: USER    NEWDPF quaternion0 0.573959 0.389405 0.469914 0.546001
DOCKED: USER    NEWDPF axisangle0 0.685091 0.464803 0.560900 113.813852
DOCKED: USER    NEWDPF quat0 0.685091 0.464803 0.560900 113.813852
DOCKED: USER    NEWDPF dihe0 67.66 -49.70 73.58 -118.15 -17.00 19.84 -36.81 -64.18 -178.75 -153.21 
DOCKED: USER  keepresnum = 1 
DOCKED: USER  
DOCKED: REMARK  10 active torsions:
DOCKED: REMARK  status: ('A' for Active; 'I' for Inactive)
DOCKED: REMARK    1  A    between atoms: C_6  and  C_10 
DOCKED: REMARK    2  A    between atoms: C_10  and  C_11 
DOCKED: REMARK    3  A    between atoms: C_11  and  C_12 
DOCKED: REMARK    4  A    between atoms: C_12  and  O_14 
DOCKED: REMARK    5  A    between atoms: C_17  and  C_20 
DOCKED: REMARK    6  A    between atoms: C_24  and  C_27 
DOCKED: REMARK    7  A    between atoms: C_31  and  C_34 
DOCKED: REMARK    8  A    between atoms: C_34  and  C_35 
DOCKED: REMARK    9  A    between atoms: C_35  and  C_36 
DOCKED: REMARK   10  A    between atoms: C_36  and  O_38 
DOCKED: USER                              x       y       z     vdW  Elec       q    Type
DOCKED: USER                           _______ _______ _______ _____ _____    ______ ____
DOCKED: ROOT
DOCKED: ATOM      1  C   UNL d   1      -0.344  -1.092 -10.850 -0.25 +0.04    +0.064 C 
DOCKED: ATOM      2  C   UNL d   1      -2.627  -1.192  -6.467 -0.40 +0.02    +0.064 A 
DOCKED: ATOM      3  C   UNL d   1       1.593  -2.113  -4.367 -0.38 +0.01    +0.064 C 
DOCKED: ATOM      4  C   UNL d   1       3.804  -2.125  -8.609 -0.51 +0.02    +0.064 C 
DOCKED: ATOM      5  C   UNL d   1      -1.392  -1.118  -9.820 -0.32 +0.04    +0.066 A 
DOCKED: ATOM      6  C   UNL d   1      -2.750  -1.000 -10.070 -0.32 -0.02    -0.021 A 
DOCKED: ATOM      7  C   UNL d   1      -3.383  -1.025  -8.852 -0.30 -0.01    -0.025 A 
DOCKED: ATOM      8  C   UNL d   1      -2.386  -1.156  -7.904 -0.35 +0.03    +0.066 A 
DOCKED: ATOM      9  C   UNL d   1      -4.861  -0.945  -8.623 -0.27 +0.02    +0.051 C 
DOCKED: ATOM     10  C   UNL d   1      -1.691  -1.376  -5.535 -0.40 +0.02    +0.066 A 
DOCKED: ATOM     11  C   UNL d   1      -1.936  -1.291  -4.163 -0.42 -0.00    -0.021 A 
DOCKED: ATOM     12  C   UNL d   1      -0.731  -1.536  -3.535 -0.41 +0.00    +0.000 A 
DOCKED: ATOM     13  C   UNL d   1       0.198  -1.752  -4.568 -0.38 +0.01    +0.070 A 
DOCKED: ATOM     14  C   UNL d   1      -3.240  -0.926  -3.483 -0.61 +0.01    +0.052 C 
DOCKED: ATOM     15  C   UNL d   1       2.503  -2.271  -5.357 -0.39 +0.01    +0.066 A 
DOCKED: ATOM     16  C   UNL d   1       3.800  -2.714  -5.131 -0.51 -0.00    -0.021 A 
DOCKED: ATOM     17  C   UNL d   1       4.441  -2.715  -6.353 -0.51 +0.00    +0.000 A 
DOCKED: ATOM     18  C   UNL d   1       3.519  -2.268  -7.297 -0.42 +0.02    +0.070 A 
DOCKED: ATOM     19  C   UNL d   1       4.423  -3.098  -3.816 -0.52 +0.00    +0.052 C 
DOCKED: ATOM     20  C   UNL d   1       2.843  -1.717  -9.641 -0.44 +0.02    +0.066 A 
DOCKED: ATOM     21  C   UNL d   1       3.168  -1.373 -10.960 -0.48 -0.01    -0.025 A 
DOCKED: ATOM     22  C   UNL d   1       1.970  -1.095 -11.584 -0.34 -0.01    -0.021 A 
DOCKED: ATOM     23  C   UNL d   1       0.967  -1.272 -10.624 -0.15 +0.03    +0.066 A 
DOCKED: ATOM     24  C   UNL d   1       4.532  -1.304 -11.609 -0.48 +0.01    +0.051 C 
DOCKED: ATOM     25  N   UNL d   1      -1.177  -1.222  -8.497 -0.18 -0.12    -0.248 N 
DOCKED: ATOM     26  N   UNL d   1      -0.384  -1.645  -5.787 -0.25 -0.07    -0.248 N 
DOCKED: ATOM     27  N   UNL d   1       2.315  -2.036  -6.693 -0.24 -0.08    -0.248 N 
DOCKED: ATOM     28  N   UNL d   1       1.509  -1.608  -9.429 -0.20 -0.13    -0.248 N 
DOCKED: ATOM     29 FE   UNL d   1       0.564  -1.627  -7.608 -0.09 +0.00    +0.000 Fe
DOCKED: ENDROOT
DOCKED: BRANCH   6  30
DOCKED: ATOM     30  C   UNL d   1      -3.416  -0.892 -11.399 -0.13 +0.08    +0.052 C 
DOCKED: BRANCH  30  31
DOCKED: ATOM     31  C   UNL d   1      -3.535   0.567 -11.826 -0.23 +0.14    +0.115 C 
DOCKED: BRANCH  31  32
DOCKED: ATOM     32  C   UNL d   1      -3.332   0.699 -13.310 -0.17 +0.23    +0.139 C 
DOCKED: ATOM     33  O   UNL d   1      -2.809  -0.203 -13.950 +0.07 -1.52    -0.650 OA
DOCKED: BRANCH  32  34
DOCKED: ATOM     34  O   UNL d   1      -3.725   1.814 -13.948 -0.48 -1.51    -0.776 OA
DOCKED: ATOM     35  H   UNL d   1      -4.460   1.762 -14.574 +0.01 +0.29    +0.167 HD
DOCKED: ENDBRANCH  32  34
DOCKED: ENDBRANCH  31  32
DOCKED: ENDBRANCH  30  31
DOCKED: ENDBRANCH   6  30
DOCKED: BRANCH  22  36
DOCKED: ATOM     36  C   UNL d   1       1.806  -0.637 -13.010 -0.31 +0.03    +0.052 C 
DOCKED: BRANCH  36  37
DOCKED: ATOM     37  C   UNL d   1       2.622   0.627 -13.240 -0.34 +0.04    +0.115 C 
DOCKED: BRANCH  37  38
DOCKED: ATOM     38  C   UNL d   1       3.727   0.381 -14.228 -0.32 +0.04    +0.139 C 
DOCKED: ATOM     39  O   UNL d   1       3.681  -0.570 -14.994 +0.04 -0.18    -0.650 OA
DOCKED: BRANCH  38  40
DOCKED: ATOM     40  O   UNL d   1       4.784   1.212 -14.273 -0.02 -0.14    -0.776 OA
DOCKED: ATOM     41  H   UNL d   1       5.676   0.839 -14.255 -0.51 -0.01    +0.167 HD
DOCKED: ENDBRANCH  38  40
DOCKED: ENDBRANCH  37  38
DOCKED: ENDBRANCH  36  37
DOCKED: ENDBRANCH  22  36
DOCKED: BRANCH  12  42
DOCKED: ATOM     42  C   UNL d   1      -0.521  -1.536  -2.054 -0.51 +0.00    +0.004 C 
DOCKED: ATOM     43  C   UNL d   1      -0.056  -2.623  -1.424 -0.59 +0.00    +0.012 C 
DOCKED: ENDBRANCH  12  42
DOCKED: BRANCH  17  44
DOCKED: ATOM     44  C   UNL d   1       5.838  -3.136  -6.604 -0.54 +0.00    +0.004 C 
DOCKED: ATOM     45  C   UNL d   1       6.862  -2.464  -6.069 -0.72 +0.00    +0.012 C 
DOCKED: ENDBRANCH  17  44
DOCKED: TORSDOF 10
DOCKED: TER
DOCKED: ENDMDL
________________________________________________________________________________


	BEGINNING GENETIC ALGORITHM DOCKING 34 of 100
Run: 34 Seed: 2097137788 743118408 [ Run 34 of 100 GA/GALS ]
Beginning LAMARCKIAN GENETIC ALGORITHM (LGA), with a maximum of 25000000 energy evaluations.

Final-Value: -19.171


	FINAL GENETIC ALGORITHM DOCKED STATE
	_______________________________________________


Detailed state:  trans -0.490 -0.916 -9.055 quatxyzw 0.626545 -0.451347 0.267640 -0.576278 center -0.174 -0.001 -0.047 ntor 10 -139.0578 -19.9632 67.1976 -135.1680 166.2712 172.3516 -37.3636 -73.2343 159.0335 1.9713
State:	 -0.490  -0.916  -9.055   0.767 -0.552  0.327 -109.622   -139.06  -19.96   67.20 -135.17  166.27  172.35  -37.36  -73.23  159.03    1.97

DOCKED: MODEL       34
DOCKED: USER    Run = 34
DOCKED: USER    DPF = D:/Protein_go_brrr/autodock/final/AncB/heme_Fe/dock.dpf
DOCKED: USER  
DOCKED: USER    Estimated Free Energy of Binding    =  -14.82 kcal/mol  [=(1)+(2)+(3)-(4)]
DOCKED: USER    Estimated Inhibition Constant, Ki   =   13.69 pM (picomolar)  [Temperature = 298.15 K]
DOCKED: USER    
DOCKED: USER    (1) Final Intermolecular Energy     =  -17.80 kcal/mol
DOCKED: USER        vdW + Hbond + desolv Energy     =  -13.95 kcal/mol
DOCKED: USER        Electrostatic Energy            =   -3.85 kcal/mol
DOCKED: USER    (2) Final Total Internal Energy     =   -1.37 kcal/mol
DOCKED: USER    (3) Torsional Free Energy           =   +2.98 kcal/mol
DOCKED: USER    (4) Unbound System's Energy  [=(2)] =   -1.37 kcal/mol
DOCKED: USER    
DOCKED: USER    
DOCKED: USER    NEWDPF move heme_Fe_opt.pdbqt
DOCKED: USER    NEWDPF about -0.174000 -0.001000 -0.047000
DOCKED: USER    NEWDPF tran0 -0.489541 -0.915932 -9.054546
DOCKED: USER    NEWDPF quaternion0 0.626545 -0.451347 0.267640 -0.576278
DOCKED: USER    NEWDPF axisangle0 0.766647 -0.552272 0.327487 -109.621707
DOCKED: USER    NEWDPF quat0 0.766647 -0.552272 0.327487 -109.621707
DOCKED: USER    NEWDPF dihe0 -139.06 -19.96 67.20 -135.17 166.27 172.35 -37.36 -73.23 159.03 1.97 
DOCKED: USER  keepresnum = 1 
DOCKED: USER  
DOCKED: REMARK  10 active torsions:
DOCKED: REMARK  status: ('A' for Active; 'I' for Inactive)
DOCKED: REMARK    1  A    between atoms: C_6  and  C_10 
DOCKED: REMARK    2  A    between atoms: C_10  and  C_11 
DOCKED: REMARK    3  A    between atoms: C_11  and  C_12 
DOCKED: REMARK    4  A    between atoms: C_12  and  O_14 
DOCKED: REMARK    5  A    between atoms: C_17  and  C_20 
DOCKED: REMARK    6  A    between atoms: C_24  and  C_27 
DOCKED: REMARK    7  A    between atoms: C_31  and  C_34 
DOCKED: REMARK    8  A    between atoms: C_34  and  C_35 
DOCKED: REMARK    9  A    between atoms: C_35  and  C_36 
DOCKED: REMARK   10  A    between atoms: C_36  and  O_38 
DOCKED: USER                              x       y       z     vdW  Elec       q    Type
DOCKED: USER                           _______ _______ _______ _____ _____    ______ ____
DOCKED: ROOT
DOCKED: ATOM      1  C   UNL d   1      -1.426  -0.924 -10.880 -0.34 +0.06    +0.064 C 
DOCKED: ATOM      2  C   UNL d   1       3.157  -1.914  -9.316 -0.46 +0.02    +0.064 A 
DOCKED: ATOM      3  C   UNL d   1       1.499  -2.129  -4.813 -0.43 +0.01    +0.064 C 
DOCKED: ATOM      4  C   UNL d   1      -2.925  -1.068  -6.294 -0.48 +0.02    +0.064 C 
DOCKED: ATOM      5  C   UNL d   1       0.032  -1.100 -10.848 -0.13 +0.04    +0.066 A 
DOCKED: ATOM      6  C   UNL d   1       0.866  -0.990 -11.949 -0.17 -0.01    -0.021 A 
DOCKED: ATOM      7  C   UNL d   1       2.138  -1.269 -11.514 -0.34 -0.01    -0.025 A 
DOCKED: ATOM      8  C   UNL d   1       2.032  -1.538 -10.163 -0.40 +0.03    +0.066 A 
DOCKED: ATOM      9  C   UNL d   1       3.380  -1.256 -12.352 -0.47 +0.01    +0.051 C 
DOCKED: ATOM     10  C   UNL d   1       3.091  -2.122  -8.000 -0.41 +0.02    +0.066 A 
DOCKED: ATOM     11  C   UNL d   1       4.161  -2.593  -7.236 -0.49 -0.01    -0.021 A 
DOCKED: ATOM     12  C   UNL d   1       3.704  -2.679  -5.936 -0.49 +0.00    +0.000 A 
DOCKED: ATOM     13  C   UNL d   1       2.362  -2.262  -5.976 -0.39 +0.02    +0.070 A 
DOCKED: ATOM     14  C   UNL d   1       5.533  -3.005  -7.730 -0.38 +0.01    +0.052 C 
DOCKED: ATOM     15  C   UNL d   1       0.192  -1.777  -4.854 -0.39 +0.01    +0.066 A 
DOCKED: ATOM     16  C   UNL d   1      -0.572  -1.565  -3.713 -0.39 -0.00    -0.021 A 
DOCKED: ATOM     17  C   UNL d   1      -1.849  -1.262  -4.138 -0.42 +0.00    +0.000 A 
DOCKED: ATOM     18  C   UNL d   1      -1.835  -1.301  -5.530 -0.40 +0.02    +0.070 A 
DOCKED: ATOM     19  C   UNL d   1      -0.128  -1.667  -2.279 -0.44 +0.01    +0.052 C 
DOCKED: ATOM     20  C   UNL d   1      -2.934  -1.040  -7.761 -0.36 +0.03    +0.066 A 
DOCKED: ATOM     21  C   UNL d   1      -4.083  -0.999  -8.563 -0.26 -0.01    -0.025 A 
DOCKED: ATOM     22  C   UNL d   1      -3.633  -0.946  -9.866 -0.27 -0.02    -0.021 A 
DOCKED: ATOM     23  C   UNL d   1      -2.234  -0.962  -9.809 -0.31 +0.05    +0.066 A 
DOCKED: ATOM     24  C   UNL d   1      -5.533  -1.014  -8.136 -0.25 +0.02    +0.051 C 
DOCKED: ATOM     25  N   UNL d   1       0.751  -1.425  -9.759 -0.21 -0.13    -0.248 N 
DOCKED: ATOM     26  N   UNL d   1       1.986  -1.930  -7.236 -0.14 -0.11    -0.248 N 
DOCKED: ATOM     27  N   UNL d   1      -0.571  -1.574  -5.972 -0.25 -0.07    -0.248 N 
DOCKED: ATOM     28  N   UNL d   1      -1.814  -1.065  -8.524 -0.24 -0.12    -0.248 N 
DOCKED: ATOM     29 FE   UNL d   1       0.084  -1.497  -7.879 -0.09 +0.00    +0.000 Fe
DOCKED: ENDROOT
DOCKED: BRANCH   6  30
DOCKED: ATOM     30  C   UNL d   1       0.480  -0.618 -13.339 -0.26 +0.04    +0.052 C 
DOCKED: BRANCH  30  31
DOCKED: ATOM     31  C   UNL d   1       0.637  -1.808 -14.280 -0.01 +0.09    +0.115 C 
DOCKED: BRANCH  31  32
DOCKED: ATOM     32  C   UNL d   1      -0.468  -1.822 -15.299 -0.13 +0.17    +0.139 C 
DOCKED: ATOM     33  O   UNL d   1      -0.393  -2.535 -16.290 -0.04 -0.63    -0.650 OA
DOCKED: BRANCH  32  34
DOCKED: ATOM     34  O   UNL d   1      -1.553  -1.048 -15.129 -0.37 -1.59    -0.776 OA
DOCKED: ATOM     35  H   UNL d   1      -1.439  -0.146 -14.798 +0.03 +0.25    +0.167 HD
DOCKED: ENDBRANCH  32  34
DOCKED: ENDBRANCH  31  32
DOCKED: ENDBRANCH  30  31
DOCKED: ENDBRANCH   6  30
DOCKED: BRANCH  22  36
DOCKED: ATOM     36  C   UNL d   1      -4.500  -0.930 -11.097 -0.22 +0.06    +0.052 C 
DOCKED: BRANCH  36  37
DOCKED: ATOM     37  C   UNL d   1      -4.648   0.498 -11.603 -0.19 +0.12    +0.115 C 
DOCKED: BRANCH  37  38
DOCKED: ATOM     38  C   UNL d   1      -3.829   0.717 -12.843 -0.18 +0.21    +0.139 C 
DOCKED: ATOM     39  O   UNL d   1      -3.923   1.756 -13.479 -0.39 -1.15    -0.650 OA
DOCKED: BRANCH  38  40
DOCKED: ATOM     40  O   UNL d   1      -2.982  -0.239 -13.266 +0.16 -1.71    -0.776 OA
DOCKED: ATOM     41  H   UNL d   1      -2.688  -0.232 -14.188 +0.02 +0.39    +0.167 HD
DOCKED: ENDBRANCH  38  40
DOCKED: ENDBRANCH  37  38
DOCKED: ENDBRANCH  36  37
DOCKED: ENDBRANCH  22  36
DOCKED: BRANCH  12  42
DOCKED: ATOM     42  C   UNL d   1       4.517  -3.151  -4.772 -0.67 +0.00    +0.004 C 
DOCKED: ATOM     43  C   UNL d   1       4.825  -2.322  -3.766 -0.62 +0.00    +0.012 C 
DOCKED: ENDBRANCH  12  42
DOCKED: BRANCH  17  44
DOCKED: ATOM     44  C   UNL d   1      -3.002  -0.936  -3.268 -0.62 +0.00    +0.004 C 
DOCKED: ATOM     45  C   UNL d   1      -3.712  -1.905  -2.681 -0.66 +0.00    +0.012 C 
DOCKED: ENDBRANCH  17  44
DOCKED: TORSDOF 10
DOCKED: TER
DOCKED: ENDMDL
________________________________________________________________________________


	BEGINNING GENETIC ALGORITHM DOCKING 35 of 100
Run: 35 Seed: 915164386 2084588481 [ Run 35 of 100 GA/GALS ]
Beginning LAMARCKIAN GENETIC ALGORITHM (LGA), with a maximum of 25000000 energy evaluations.

Final-Value: -14.545


	FINAL GENETIC ALGORITHM DOCKED STATE
	_______________________________________________


Detailed state:  trans -5.725 -11.132 12.054 quatxyzw 0.601682 0.017333 0.450404 -0.659404 center -0.174 -0.001 -0.047 ntor 10 -111.5209 -180.0000 46.3505 47.5659 53.5778 -130.8101 -37.2330 1.7172 -161.6357 173.0144
State:	 -5.725 -11.132  12.054   0.800  0.023  0.599 -97.491   -111.52 -180.00   46.35   47.57   53.58 -130.81  -37.23    1.72 -161.64  173.01

DOCKED: MODEL       35
DOCKED: USER    Run = 35
DOCKED: USER    DPF = D:/Protein_go_brrr/autodock/final/AncB/heme_Fe/dock.dpf
DOCKED: USER  
DOCKED: USER    Estimated Free Energy of Binding    =  -10.08 kcal/mol  [=(1)+(2)+(3)-(4)]
DOCKED: USER    Estimated Inhibition Constant, Ki   =   40.62 nM (nanomolar)  [Temperature = 298.15 K]
DOCKED: USER    
DOCKED: USER    (1) Final Intermolecular Energy     =  -13.07 kcal/mol
DOCKED: USER        vdW + Hbond + desolv Energy     =   -9.33 kcal/mol
DOCKED: USER        Electrostatic Energy            =   -3.73 kcal/mol
DOCKED: USER    (2) Final Total Internal Energy     =   -1.48 kcal/mol
DOCKED: USER    (3) Torsional Free Energy           =   +2.98 kcal/mol
DOCKED: USER    (4) Unbound System's Energy  [=(2)] =   -1.48 kcal/mol
DOCKED: USER    
DOCKED: USER    
DOCKED: USER    NEWDPF move heme_Fe_opt.pdbqt
DOCKED: USER    NEWDPF about -0.174000 -0.001000 -0.047000
DOCKED: USER    NEWDPF tran0 -5.725216 -11.131727 12.054471
DOCKED: USER    NEWDPF quaternion0 0.601682 0.017333 0.450404 -0.659404
DOCKED: USER    NEWDPF axisangle0 0.800334 0.023056 0.599111 -97.491070
DOCKED: USER    NEWDPF quat0 0.800334 0.023056 0.599111 -97.491070
DOCKED: USER    NEWDPF dihe0 -111.52 -180.00 46.35 47.57 53.58 -130.81 -37.23 1.72 -161.64 173.01 
DOCKED: USER  keepresnum = 1 
DOCKED: USER  
DOCKED: REMARK  10 active torsions:
DOCKED: REMARK  status: ('A' for Active; 'I' for Inactive)
DOCKED: REMARK    1  A    between atoms: C_6  and  C_10 
DOCKED: REMARK    2  A    between atoms: C_10  and  C_11 
DOCKED: REMARK    3  A    between atoms: C_11  and  C_12 
DOCKED: REMARK    4  A    between atoms: C_12  and  O_14 
DOCKED: REMARK    5  A    between atoms: C_17  and  C_20 
DOCKED: REMARK    6  A    between atoms: C_24  and  C_27 
DOCKED: REMARK    7  A    between atoms: C_31  and  C_34 
DOCKED: REMARK    8  A    between atoms: C_34  and  C_35 
DOCKED: REMARK    9  A    between atoms: C_35  and  C_36 
DOCKED: REMARK   10  A    between atoms: C_36  and  O_38 
DOCKED: USER                              x       y       z     vdW  Elec       q    Type
DOCKED: USER                           _______ _______ _______ _____ _____    ______ ____
DOCKED: ROOT
DOCKED: ATOM      1  C   UNL d   1      -6.567 -12.756  11.125 -0.29 +0.04    +0.064 C 
DOCKED: ATOM      2  C   UNL d   1      -2.603  -9.928  10.277 -0.28 +0.02    +0.064 A 
DOCKED: ATOM      3  C   UNL d   1      -2.986  -8.175  14.732 -0.18 +0.01    +0.064 C 
DOCKED: ATOM      4  C   UNL d   1      -6.886 -10.826  15.537 -0.19 +0.04    +0.064 C 
DOCKED: ATOM      5  C   UNL d   1      -5.466 -12.061  10.444 -0.23 +0.03    +0.066 A 
DOCKED: ATOM      6  C   UNL d   1      -5.130 -12.227   9.111 -0.25 -0.01    -0.021 A 
DOCKED: ATOM      7  C   UNL d   1      -4.026 -11.444   8.877 -0.23 -0.01    -0.025 A 
DOCKED: ATOM      8  C   UNL d   1      -3.731 -10.829  10.078 -0.24 +0.02    +0.066 A 
DOCKED: ATOM      9  C   UNL d   1      -3.316 -11.288   7.568 -0.34 +0.02    +0.051 C 
DOCKED: ATOM     10  C   UNL d   1      -2.330  -9.277  11.409 -0.24 +0.02    +0.066 A 
DOCKED: ATOM     11  C   UNL d   1      -1.178  -8.511  11.604 -0.26 -0.00    -0.021 A 
DOCKED: ATOM     12  C   UNL d   1      -1.256  -8.008  12.887 -0.23 +0.00    +0.000 A 
DOCKED: ATOM     13  C   UNL d   1      -2.459  -8.505  13.417 -0.15 +0.02    +0.070 A 
DOCKED: ATOM     14  C   UNL d   1      -0.025  -8.323  10.639 -0.10 +0.01    +0.052 C 
DOCKED: ATOM     15  C   UNL d   1      -4.117  -8.692  15.267 -0.13 +0.02    +0.066 A 
DOCKED: ATOM     16  C   UNL d   1      -4.640  -8.276  16.485 -0.16 -0.00    -0.021 A 
DOCKED: ATOM     17  C   UNL d   1      -5.763  -9.042  16.721 -0.16 +0.00    +0.000 A 
DOCKED: ATOM     18  C   UNL d   1      -5.897  -9.911  15.641 -0.06 +0.05    +0.070 A 
DOCKED: ATOM     19  C   UNL d   1      -4.092  -7.219  17.405 -0.12 -0.00    +0.052 C 
DOCKED: ATOM     20  C   UNL d   1      -7.095 -11.714  14.388 -0.24 +0.04    +0.066 A 
DOCKED: ATOM     21  C   UNL d   1      -7.986 -12.796  14.352 -0.26 -0.01    -0.025 A 
DOCKED: ATOM     22  C   UNL d   1      -7.888 -13.324  13.081 -0.33 -0.01    -0.021 A 
DOCKED: ATOM     23  C   UNL d   1      -6.942 -12.552  12.398 -0.31 +0.04    +0.066 A 
DOCKED: ATOM     24  C   UNL d   1      -8.884 -13.316  15.451 -0.19 +0.02    +0.051 C 
DOCKED: ATOM     25  N   UNL d   1      -4.614 -11.199  11.027 -0.15 -0.10    -0.248 N 
DOCKED: ATOM     26  N   UNL d   1      -3.110  -9.286  12.520 -0.10 -0.08    -0.248 N 
DOCKED: ATOM     27  N   UNL d   1      -4.912  -9.667  14.726 -0.10 -0.16    -0.248 N 
DOCKED: ATOM     28  N   UNL d   1      -6.428 -11.599  13.214 -0.18 -0.15    -0.248 N 
DOCKED: ATOM     29 FE   UNL d   1      -4.770 -10.443  12.869 -0.05 +0.00    +0.000 Fe
DOCKED: ENDROOT
DOCKED: BRANCH   6  30
DOCKED: ATOM     30  C   UNL d   1      -5.832 -13.070   8.102 -0.31 +0.04    +0.052 C 
DOCKED: BRANCH  30  31
DOCKED: ATOM     31  C   UNL d   1      -5.582 -14.551   8.367 -0.18 +0.10    +0.115 C 
DOCKED: BRANCH  31  32
DOCKED: ATOM     32  C   UNL d   1      -6.818 -15.354   8.073 -0.15 +0.23    +0.139 C 
DOCKED: ATOM     33  O   UNL d   1      -7.379 -15.263   6.990 -0.38 -1.57    -0.650 OA
DOCKED: BRANCH  32  34
DOCKED: ATOM     34  O   UNL d   1      -7.321 -16.183   9.004 -0.29 -1.68    -0.776 OA
DOCKED: ATOM     35  H   UNL d   1      -7.715 -15.807   9.804 -0.17 +0.26    +0.167 HD
DOCKED: ENDBRANCH  32  34
DOCKED: ENDBRANCH  31  32
DOCKED: ENDBRANCH  30  31
DOCKED: ENDBRANCH   6  30
DOCKED: BRANCH  22  36
DOCKED: ATOM     36  C   UNL d   1      -8.628 -14.532  12.571 -0.00 +0.02    +0.052 C 
DOCKED: BRANCH  36  37
DOCKED: ATOM     37  C   UNL d   1      -7.806 -15.786  12.834 -0.16 +0.05    +0.115 C 
DOCKED: BRANCH  37  38
DOCKED: ATOM     38  C   UNL d   1      -8.509 -17.009  12.316 -0.16 +0.09    +0.139 C 
DOCKED: ATOM     39  O   UNL d   1      -8.641 -17.999  13.020 +0.02 -0.30    -0.650 OA
DOCKED: BRANCH  38  40
DOCKED: ATOM     40  O   UNL d   1      -8.997 -17.022  11.063 -0.34 -1.07    -0.776 OA
DOCKED: ATOM     41  H   UNL d   1      -8.891 -16.237  10.509 -0.48 +0.27    +0.167 HD
DOCKED: ENDBRANCH  38  40
DOCKED: ENDBRANCH  37  38
DOCKED: ENDBRANCH  36  37
DOCKED: ENDBRANCH  22  36
DOCKED: BRANCH  12  42
DOCKED: ATOM     42  C   UNL d   1      -0.225  -7.135  13.529 -0.24 +0.00    +0.004 C 
DOCKED: ATOM     43  C   UNL d   1      -0.336  -5.801  13.498 -0.40 -0.00    +0.012 C 
DOCKED: ENDBRANCH  12  42
DOCKED: BRANCH  17  44
DOCKED: ATOM     44  C   UNL d   1      -6.660  -8.934  17.893 -0.14 +0.00    +0.004 C 
DOCKED: ATOM     45  C   UNL d   1      -7.833  -8.298  17.802 -0.23 -0.00    +0.012 C 
DOCKED: ENDBRANCH  17  44
DOCKED: TORSDOF 10
DOCKED: TER
DOCKED: ENDMDL
________________________________________________________________________________


	BEGINNING GENETIC ALGORITHM DOCKING 36 of 100
Run: 36 Seed: 1968185026 1754203909 [ Run 36 of 100 GA/GALS ]
Beginning LAMARCKIAN GENETIC ALGORITHM (LGA), with a maximum of 25000000 energy evaluations.

Final-Value: -14.613


	FINAL GENETIC ALGORITHM DOCKED STATE
	_______________________________________________


Detailed state:  trans -5.912 -11.320 12.248 quatxyzw -0.598733 -0.024711 -0.475801 0.643834 center -0.174 -0.001 -0.047 ntor 10 173.8167 -139.3595 47.6482 39.6793 49.4603 -179.3967 -10.8830 11.5486 -161.7115 137.6098
State:	 -5.912 -11.320  12.248  -0.782 -0.032 -0.622 99.843    173.82 -139.36   47.65   39.68   49.46 -179.40  -10.88   11.55 -161.71  137.61

DOCKED: MODEL       36
DOCKED: USER    Run = 36
DOCKED: USER    DPF = D:/Protein_go_brrr/autodock/final/AncB/heme_Fe/dock.dpf
DOCKED: USER  
DOCKED: USER    Estimated Free Energy of Binding    =  -10.77 kcal/mol  [=(1)+(2)+(3)-(4)]
DOCKED: USER    Estimated Inhibition Constant, Ki   =   12.85 nM (nanomolar)  [Temperature = 298.15 K]
DOCKED: USER    
DOCKED: USER    (1) Final Intermolecular Energy     =  -13.75 kcal/mol
DOCKED: USER        vdW + Hbond + desolv Energy     =   -9.68 kcal/mol
DOCKED: USER        Electrostatic Energy            =   -4.07 kcal/mol
DOCKED: USER    (2) Final Total Internal Energy     =   -0.86 kcal/mol
DOCKED: USER    (3) Torsional Free Energy           =   +2.98 kcal/mol
DOCKED: USER    (4) Unbound System's Energy  [=(2)] =   -0.86 kcal/mol
DOCKED: USER    
DOCKED: USER    
DOCKED: USER    NEWDPF move heme_Fe_opt.pdbqt
DOCKED: USER    NEWDPF about -0.174000 -0.001000 -0.047000
DOCKED: USER    NEWDPF tran0 -5.912085 -11.320192 12.247741
DOCKED: USER    NEWDPF quaternion0 -0.598733 -0.024711 -0.475801 0.643834
DOCKED: USER    NEWDPF axisangle0 -0.782489 -0.032295 -0.621827 99.843447
DOCKED: USER    NEWDPF quat0 -0.782489 -0.032295 -0.621827 99.843447
DOCKED: USER    NEWDPF dihe0 173.82 -139.36 47.65 39.68 49.46 -179.40 -10.88 11.55 -161.71 137.61 
DOCKED: USER  keepresnum = 1 
DOCKED: USER  
DOCKED: REMARK  10 active torsions:
DOCKED: REMARK  status: ('A' for Active; 'I' for Inactive)
DOCKED: REMARK    1  A    between atoms: C_6  and  C_10 
DOCKED: REMARK    2  A    between atoms: C_10  and  C_11 
DOCKED: REMARK    3  A    between atoms: C_11  and  C_12 
DOCKED: REMARK    4  A    between atoms: C_12  and  O_14 
DOCKED: REMARK    5  A    between atoms: C_17  and  C_20 
DOCKED: REMARK    6  A    between atoms: C_24  and  C_27 
DOCKED: REMARK    7  A    between atoms: C_31  and  C_34 
DOCKED: REMARK    8  A    between atoms: C_34  and  C_35 
DOCKED: REMARK    9  A    between atoms: C_35  and  C_36 
DOCKED: REMARK   10  A    between atoms: C_36  and  O_38 
DOCKED: USER                              x       y       z     vdW  Elec       q    Type
DOCKED: USER                           _______ _______ _______ _____ _____    ______ ____
DOCKED: ROOT
DOCKED: ATOM      1  C   UNL d   1      -6.639 -12.980  11.285 -0.30 +0.04    +0.064 C 
DOCKED: ATOM      2  C   UNL d   1      -2.823  -9.925  10.553 -0.27 +0.02    +0.064 A 
DOCKED: ATOM      3  C   UNL d   1      -3.406  -8.240  15.013 -0.17 +0.01    +0.064 C 
DOCKED: ATOM      4  C   UNL d   1      -7.167 -11.114  15.705 -0.19 +0.03    +0.064 C 
DOCKED: ATOM      5  C   UNL d   1      -5.564 -12.217  10.636 -0.23 +0.03    +0.066 A 
DOCKED: ATOM      6  C   UNL d   1      -5.189 -12.352   9.310 -0.24 -0.01    -0.021 A 
DOCKED: ATOM      7  C   UNL d   1      -4.126 -11.506   9.108 -0.23 -0.01    -0.025 A 
DOCKED: ATOM      8  C   UNL d   1      -3.894 -10.887  10.321 -0.23 +0.02    +0.066 A 
DOCKED: ATOM      9  C   UNL d   1      -3.397 -11.297   7.817 -0.32 +0.02    +0.051 C 
DOCKED: ATOM     10  C   UNL d   1      -2.613  -9.271  11.697 -0.19 +0.02    +0.066 A 
DOCKED: ATOM     11  C   UNL d   1      -1.511  -8.443  11.925 -0.26 -0.00    -0.021 A 
DOCKED: ATOM     12  C   UNL d   1      -1.647  -7.958  13.210 -0.22 +0.00    +0.000 A 
DOCKED: ATOM     13  C   UNL d   1      -2.832  -8.527  13.708 -0.10 +0.02    +0.070 A 
DOCKED: ATOM     14  C   UNL d   1      -0.349  -8.181  10.988 -0.25 +0.01    +0.052 C 
DOCKED: ATOM     15  C   UNL d   1      -4.518  -8.825  15.517 -0.15 +0.03    +0.066 A 
DOCKED: ATOM     16  C   UNL d   1      -5.091  -8.451  16.726 -0.16 -0.00    -0.021 A 
DOCKED: ATOM     17  C   UNL d   1      -6.174  -9.281  16.929 -0.15 +0.00    +0.000 A 
DOCKED: ATOM     18  C   UNL d   1      -6.234 -10.146  15.839 -0.12 +0.05    +0.070 A 
DOCKED: ATOM     19  C   UNL d   1      -4.625  -7.374  17.668 -0.12 -0.01    +0.052 C 
DOCKED: ATOM     20  C   UNL d   1      -7.299 -12.002  14.544 -0.22 +0.03    +0.066 A 
DOCKED: ATOM     21  C   UNL d   1      -8.127 -13.132  14.478 -0.23 -0.01    -0.025 A 
DOCKED: ATOM     22  C   UNL d   1      -7.971 -13.641  13.205 -0.30 -0.01    -0.021 A 
DOCKED: ATOM     23  C   UNL d   1      -7.054 -12.810  12.551 -0.29 +0.04    +0.066 A 
DOCKED: ATOM     24  C   UNL d   1      -9.018 -13.712  15.551 -0.17 +0.01    +0.051 C 
DOCKED: ATOM     25  N   UNL d   1      -4.776 -11.315  11.246 -0.14 -0.11    -0.248 N 
DOCKED: ATOM     26  N   UNL d   1      -3.416  -9.335  12.789 -0.08 -0.09    -0.248 N 
DOCKED: ATOM     27  N   UNL d   1      -5.243  -9.838  14.949 -0.09 -0.17    -0.248 N 
DOCKED: ATOM     28  N   UNL d   1      -6.614 -11.838  13.387 -0.17 -0.15    -0.248 N 
DOCKED: ATOM     29 FE   UNL d   1      -5.016 -10.587  13.090 -0.05 +0.00    +0.000 Fe
DOCKED: ENDROOT
DOCKED: BRANCH   6  30
DOCKED: ATOM     30  C   UNL d   1      -5.820 -13.223   8.278 -0.30 +0.04    +0.052 C 
DOCKED: BRANCH  30  31
DOCKED: ATOM     31  C   UNL d   1      -5.490 -14.689   8.534 -0.16 +0.10    +0.115 C 
DOCKED: BRANCH  31  32
DOCKED: ATOM     32  C   UNL d   1      -6.332 -15.578   7.662 -0.20 +0.22    +0.139 C 
DOCKED: ATOM     33  O   UNL d   1      -6.422 -15.368   6.460 -0.38 -1.51    -0.650 OA
DOCKED: BRANCH  32  34
DOCKED: ATOM     34  O   UNL d   1      -6.997 -16.616   8.197 -0.57 -1.69    -0.776 OA
DOCKED: ATOM     35  H   UNL d   1      -6.853 -16.835   9.129 +0.02 +0.26    +0.167 HD
DOCKED: ENDBRANCH  32  34
DOCKED: ENDBRANCH  31  32
DOCKED: ENDBRANCH  30  31
DOCKED: ENDBRANCH   6  30
DOCKED: BRANCH  22  36
DOCKED: ATOM     36  C   UNL d   1      -8.629 -14.884  12.668 -0.10 +0.02    +0.052 C 
DOCKED: BRANCH  36  37
DOCKED: ATOM     37  C   UNL d   1      -7.569 -15.832  12.126 -0.16 +0.06    +0.115 C 
DOCKED: BRANCH  37  38
DOCKED: ATOM     38  C   UNL d   1      -8.198 -16.957  11.353 -0.13 +0.13    +0.139 C 
DOCKED: ATOM     39  O   UNL d   1      -7.508 -17.829  10.846 -0.01 -0.62    -0.650 OA
DOCKED: BRANCH  38  40
DOCKED: ATOM     40  O   UNL d   1      -9.534 -17.008  11.210 -0.49 -1.08    -0.776 OA
DOCKED: ATOM     41  H   UNL d   1     -10.021 -16.189  11.043 -0.57 +0.20    +0.167 HD
DOCKED: ENDBRANCH  38  40
DOCKED: ENDBRANCH  37  38
DOCKED: ENDBRANCH  36  37
DOCKED: ENDBRANCH  22  36
DOCKED: BRANCH  12  42
DOCKED: ATOM     42  C   UNL d   1      -0.682  -7.035  13.883 -0.25 +0.00    +0.004 C 
DOCKED: ATOM     43  C   UNL d   1      -0.881  -5.710  13.883 -0.41 -0.00    +0.012 C 
DOCKED: ENDBRANCH  12  42
DOCKED: BRANCH  17  44
DOCKED: ATOM     44  C   UNL d   1      -7.102  -9.236  18.081 -0.12 +0.00    +0.004 C 
DOCKED: ATOM     45  C   UNL d   1      -8.238  -8.533  18.018 -0.20 -0.00    +0.012 C 
DOCKED: ENDBRANCH  17  44
DOCKED: TORSDOF 10
DOCKED: TER
DOCKED: ENDMDL
________________________________________________________________________________


	BEGINNING GENETIC ALGORITHM DOCKING 37 of 100
Run: 37 Seed: 310302766 974317135 [ Run 37 of 100 GA/GALS ]
Beginning LAMARCKIAN GENETIC ALGORITHM (LGA), with a maximum of 25000000 energy evaluations.

Final-Value: -14.639


	FINAL GENETIC ALGORITHM DOCKED STATE
	_______________________________________________


Detailed state:  trans -5.863 -11.279 12.171 quatxyzw 0.606203 0.035824 0.456069 -0.650565 center -0.174 -0.001 -0.047 ntor 10 175.7126 -135.0526 46.0582 45.2005 62.4236 128.6557 -1.7048 47.2972 -171.0112 154.2114
State:	 -5.863 -11.279  12.171   0.798  0.047  0.601 -98.832    175.71 -135.05   46.06   45.20   62.42  128.66   -1.70   47.30 -171.01  154.21

DOCKED: MODEL       37
DOCKED: USER    Run = 37
DOCKED: USER    DPF = D:/Protein_go_brrr/autodock/final/AncB/heme_Fe/dock.dpf
DOCKED: USER  
DOCKED: USER    Estimated Free Energy of Binding    =  -10.69 kcal/mol  [=(1)+(2)+(3)-(4)]
DOCKED: USER    Estimated Inhibition Constant, Ki   =   14.68 nM (nanomolar)  [Temperature = 298.15 K]
DOCKED: USER    
DOCKED: USER    (1) Final Intermolecular Energy     =  -13.67 kcal/mol
DOCKED: USER        vdW + Hbond + desolv Energy     =   -9.40 kcal/mol
DOCKED: USER        Electrostatic Energy            =   -4.27 kcal/mol
DOCKED: USER    (2) Final Total Internal Energy     =   -0.97 kcal/mol
DOCKED: USER    (3) Torsional Free Energy           =   +2.98 kcal/mol
DOCKED: USER    (4) Unbound System's Energy  [=(2)] =   -0.97 kcal/mol
DOCKED: USER    
DOCKED: USER    
DOCKED: USER    NEWDPF move heme_Fe_opt.pdbqt
DOCKED: USER    NEWDPF about -0.174000 -0.001000 -0.047000
DOCKED: USER    NEWDPF tran0 -5.863256 -11.279206 12.170907
DOCKED: USER    NEWDPF quaternion0 0.606203 0.035824 0.456069 -0.650565
DOCKED: USER    NEWDPF axisangle0 0.798213 0.047171 0.600525 -98.831515
DOCKED: USER    NEWDPF quat0 0.798213 0.047171 0.600525 -98.831515
DOCKED: USER    NEWDPF dihe0 175.71 -135.05 46.06 45.20 62.42 128.66 -1.70 47.30 -171.01 154.21 
DOCKED: USER  keepresnum = 1 
DOCKED: USER  
DOCKED: REMARK  10 active torsions:
DOCKED: REMARK  status: ('A' for Active; 'I' for Inactive)
DOCKED: REMARK    1  A    between atoms: C_6  and  C_10 
DOCKED: REMARK    2  A    between atoms: C_10  and  C_11 
DOCKED: REMARK    3  A    between atoms: C_11  and  C_12 
DOCKED: REMARK    4  A    between atoms: C_12  and  O_14 
DOCKED: REMARK    5  A    between atoms: C_17  and  C_20 
DOCKED: REMARK    6  A    between atoms: C_24  and  C_27 
DOCKED: REMARK    7  A    between atoms: C_31  and  C_34 
DOCKED: REMARK    8  A    between atoms: C_34  and  C_35 
DOCKED: REMARK    9  A    between atoms: C_35  and  C_36 
DOCKED: REMARK   10  A    between atoms: C_36  and  O_38 
DOCKED: USER                              x       y       z     vdW  Elec       q    Type
DOCKED: USER                           _______ _______ _______ _____ _____    ______ ____
DOCKED: ROOT
DOCKED: ATOM      1  C   UNL d   1      -6.664 -12.934  11.259 -0.30 +0.04    +0.064 C 
DOCKED: ATOM      2  C   UNL d   1      -2.828  -9.960  10.326 -0.28 +0.02    +0.064 A 
DOCKED: ATOM      3  C   UNL d   1      -3.179  -8.222  14.790 -0.17 +0.01    +0.064 C 
DOCKED: ATOM      4  C   UNL d   1      -6.958 -11.016  15.679 -0.18 +0.03    +0.064 C 
DOCKED: ATOM      5  C   UNL d   1      -5.604 -12.198  10.555 -0.23 +0.03    +0.066 A 
DOCKED: ATOM      6  C   UNL d   1      -5.292 -12.352   9.214 -0.25 -0.01    -0.021 A 
DOCKED: ATOM      7  C   UNL d   1      -4.224 -11.529   8.957 -0.23 -0.01    -0.025 A 
DOCKED: ATOM      8  C   UNL d   1      -3.926 -10.903  10.152 -0.24 +0.02    +0.066 A 
DOCKED: ATOM      9  C   UNL d   1      -3.549 -11.346   7.632 -0.30 +0.02    +0.051 C 
DOCKED: ATOM     10  C   UNL d   1      -2.554  -9.299  11.452 -0.22 +0.02    +0.066 A 
DOCKED: ATOM     11  C   UNL d   1      -1.428  -8.490  11.622 -0.27 -0.00    -0.021 A 
DOCKED: ATOM     12  C   UNL d   1      -1.497  -7.990  12.907 -0.23 +0.00    +0.000 A 
DOCKED: ATOM     13  C   UNL d   1      -2.669  -8.532  13.463 -0.10 +0.02    +0.070 A 
DOCKED: ATOM     14  C   UNL d   1      -0.305  -8.259  10.632 -0.10 +0.01    +0.052 C 
DOCKED: ATOM     15  C   UNL d   1      -4.278  -8.780  15.348 -0.13 +0.02    +0.066 A 
DOCKED: ATOM     16  C   UNL d   1      -4.789  -8.384  16.578 -0.16 -0.00    -0.021 A 
DOCKED: ATOM     17  C   UNL d   1      -5.877  -9.191  16.838 -0.15 +0.00    +0.000 A 
DOCKED: ATOM     18  C   UNL d   1      -6.002 -10.065  15.761 -0.12 +0.05    +0.070 A 
DOCKED: ATOM     19  C   UNL d   1      -4.261  -7.306  17.487 -0.12 -0.00    +0.052 C 
DOCKED: ATOM     20  C   UNL d   1      -7.159 -11.912  14.534 -0.22 +0.03    +0.066 A 
DOCKED: ATOM     21  C   UNL d   1      -8.010 -13.027  14.517 -0.23 -0.01    -0.025 A 
DOCKED: ATOM     22  C   UNL d   1      -7.920 -13.551  13.244 -0.30 -0.01    -0.021 A 
DOCKED: ATOM     23  C   UNL d   1      -7.018 -12.744  12.540 -0.30 +0.04    +0.066 A 
DOCKED: ATOM     24  C   UNL d   1      -8.863 -13.579  15.635 -0.16 +0.01    +0.051 C 
DOCKED: ATOM     25  N   UNL d   1      -4.773 -11.305  11.120 -0.15 -0.11    -0.248 N 
DOCKED: ATOM     26  N   UNL d   1      -3.309  -9.337  12.580 -0.09 -0.09    -0.248 N 
DOCKED: ATOM     27  N   UNL d   1      -5.047  -9.785  14.824 -0.09 -0.16    -0.248 N 
DOCKED: ATOM     28  N   UNL d   1      -6.523 -11.773  13.345 -0.17 -0.15    -0.248 N 
DOCKED: ATOM     29 FE   UNL d   1      -4.917 -10.555  12.964 -0.05 +0.00    +0.000 Fe
DOCKED: ENDROOT
DOCKED: BRANCH   6  30
DOCKED: ATOM     30  C   UNL d   1      -5.984 -13.221   8.221 -0.31 +0.04    +0.052 C 
DOCKED: BRANCH  30  31
DOCKED: ATOM     31  C   UNL d   1      -5.496 -14.662   8.330 -0.16 +0.10    +0.115 C 
DOCKED: BRANCH  31  32
DOCKED: ATOM     32  C   UNL d   1      -6.227 -15.540   7.353 -0.19 +0.22    +0.139 C 
DOCKED: ATOM     33  O   UNL d   1      -6.134 -15.346   6.149 -0.43 -1.57    -0.650 OA
DOCKED: BRANCH  32  34
DOCKED: ATOM     34  O   UNL d   1      -6.993 -16.551   7.797 -0.58 -1.75    -0.776 OA
DOCKED: ATOM     35  H   UNL d   1      -7.015 -16.742   8.745 +0.02 +0.33    +0.167 HD
DOCKED: ENDBRANCH  32  34
DOCKED: ENDBRANCH  31  32
DOCKED: ENDBRANCH  30  31
DOCKED: ENDBRANCH   6  30
DOCKED: BRANCH  22  36
DOCKED: ATOM     36  C   UNL d   1      -8.624 -14.786  12.749 -0.10 +0.02    +0.052 C 
DOCKED: BRANCH  36  37
DOCKED: ATOM     37  C   UNL d   1      -7.616 -15.909  12.556 -0.15 +0.05    +0.115 C 
DOCKED: BRANCH  37  38
DOCKED: ATOM     38  C   UNL d   1      -7.820 -16.594  11.234 -0.11 +0.12    +0.139 C 
DOCKED: ATOM     39  O   UNL d   1      -6.885 -16.755  10.463 -0.04 -0.62    -0.650 OA
DOCKED: BRANCH  38  40
DOCKED: ATOM     40  O   UNL d   1      -9.042 -17.035  10.888 -0.24 -1.27    -0.776 OA
DOCKED: ATOM     41  H   UNL d   1      -9.808 -16.462  11.034 -0.58 +0.24    +0.167 HD
DOCKED: ENDBRANCH  38  40
DOCKED: ENDBRANCH  37  38
DOCKED: ENDBRANCH  36  37
DOCKED: ENDBRANCH  22  36
DOCKED: BRANCH  12  42
DOCKED: ATOM     42  C   UNL d   1      -0.486  -7.079  13.527 -0.26 +0.00    +0.004 C 
DOCKED: ATOM     43  C   UNL d   1      -0.645  -5.749  13.494 -0.42 -0.00    +0.012 C 
DOCKED: ENDBRANCH  12  42
DOCKED: BRANCH  17  44
DOCKED: ATOM     44  C   UNL d   1      -6.752  -9.117  18.030 -0.12 +0.00    +0.004 C 
DOCKED: ATOM     45  C   UNL d   1      -7.929  -8.484  17.977 -0.21 -0.00    +0.012 C 
DOCKED: ENDBRANCH  17  44
DOCKED: TORSDOF 10
DOCKED: TER
DOCKED: ENDMDL
________________________________________________________________________________


	BEGINNING GENETIC ALGORITHM DOCKING 38 of 100
Run: 38 Seed: 1469465954 964527877 [ Run 38 of 100 GA/GALS ]
Beginning LAMARCKIAN GENETIC ALGORITHM (LGA), with a maximum of 25000000 energy evaluations.

Final-Value: -19.488


	FINAL GENETIC ALGORITHM DOCKED STATE
	_______________________________________________


Detailed state:  trans -0.406 -0.952 -9.252 quatxyzw -0.617521 0.451700 -0.284675 0.577577 center -0.174 -0.001 -0.047 ntor 10 85.1570 -13.2232 87.0123 -129.3712 -27.8955 179.8519 35.0573 -72.9076 -14.0800 -9.9376
State:	 -0.406  -0.952  -9.252  -0.756  0.553 -0.349 109.439     85.16  -13.22   87.01 -129.37  -27.90  179.85   35.06  -72.91  -14.08   -9.94

DOCKED: MODEL       38
DOCKED: USER    Run = 38
DOCKED: USER    DPF = D:/Protein_go_brrr/autodock/final/AncB/heme_Fe/dock.dpf
DOCKED: USER  
DOCKED: USER    Estimated Free Energy of Binding    =  -14.14 kcal/mol  [=(1)+(2)+(3)-(4)]
DOCKED: USER    Estimated Inhibition Constant, Ki   =   43.26 pM (picomolar)  [Temperature = 298.15 K]
DOCKED: USER    
DOCKED: USER    (1) Final Intermolecular Energy     =  -17.12 kcal/mol
DOCKED: USER        vdW + Hbond + desolv Energy     =  -13.74 kcal/mol
DOCKED: USER        Electrostatic Energy            =   -3.39 kcal/mol
DOCKED: USER    (2) Final Total Internal Energy     =   -2.37 kcal/mol
DOCKED: USER    (3) Torsional Free Energy           =   +2.98 kcal/mol
DOCKED: USER    (4) Unbound System's Energy  [=(2)] =   -2.37 kcal/mol
DOCKED: USER    
DOCKED: USER    
DOCKED: USER    NEWDPF move heme_Fe_opt.pdbqt
DOCKED: USER    NEWDPF about -0.174000 -0.001000 -0.047000
DOCKED: USER    NEWDPF tran0 -0.405552 -0.952482 -9.252090
DOCKED: USER    NEWDPF quaternion0 -0.617521 0.451700 -0.284675 0.577577
DOCKED: USER    NEWDPF axisangle0 -0.756454 0.553326 -0.348723 109.439411
DOCKED: USER    NEWDPF quat0 -0.756454 0.553326 -0.348723 109.439411
DOCKED: USER    NEWDPF dihe0 85.16 -13.22 87.01 -129.37 -27.90 179.85 35.06 -72.91 -14.08 -9.94 
DOCKED: USER  keepresnum = 1 
DOCKED: USER  
DOCKED: REMARK  10 active torsions:
DOCKED: REMARK  status: ('A' for Active; 'I' for Inactive)
DOCKED: REMARK    1  A    between atoms: C_6  and  C_10 
DOCKED: REMARK    2  A    between atoms: C_10  and  C_11 
DOCKED: REMARK    3  A    between atoms: C_11  and  C_12 
DOCKED: REMARK    4  A    between atoms: C_12  and  O_14 
DOCKED: REMARK    5  A    between atoms: C_17  and  C_20 
DOCKED: REMARK    6  A    between atoms: C_24  and  C_27 
DOCKED: REMARK    7  A    between atoms: C_31  and  C_34 
DOCKED: REMARK    8  A    between atoms: C_34  and  C_35 
DOCKED: REMARK    9  A    between atoms: C_35  and  C_36 
DOCKED: REMARK   10  A    between atoms: C_36  and  O_38 
DOCKED: USER                              x       y       z     vdW  Elec       q    Type
DOCKED: USER                           _______ _______ _______ _____ _____    ______ ____
DOCKED: ROOT
DOCKED: ATOM      1  C   UNL d   1      -1.295  -1.020 -11.100 -0.34 +0.06    +0.064 C 
DOCKED: ATOM      2  C   UNL d   1       3.256  -1.918  -9.394 -0.46 +0.02    +0.064 A 
DOCKED: ATOM      3  C   UNL d   1       1.486  -2.029  -4.931 -0.43 +0.01    +0.064 C 
DOCKED: ATOM      4  C   UNL d   1      -2.909  -1.056  -6.551 -0.47 +0.02    +0.064 C 
DOCKED: ATOM      5  C   UNL d   1       0.164  -1.179 -11.026 -0.16 +0.04    +0.066 A 
DOCKED: ATOM      6  C   UNL d   1       1.024  -1.090 -12.108 -0.26 -0.01    -0.021 A 
DOCKED: ATOM      7  C   UNL d   1       2.288  -1.344 -11.634 -0.34 -0.01    -0.025 A 
DOCKED: ATOM      8  C   UNL d   1       2.149  -1.577 -10.279 -0.40 +0.03    +0.066 A 
DOCKED: ATOM      9  C   UNL d   1       3.550  -1.340 -12.440 -0.48 +0.01    +0.051 C 
DOCKED: ATOM     10  C   UNL d   1       3.158  -2.092  -8.075 -0.42 +0.02    +0.066 A 
DOCKED: ATOM     11  C   UNL d   1       4.214  -2.529  -7.271 -0.49 -0.01    -0.021 A 
DOCKED: ATOM     12  C   UNL d   1       3.724  -2.586  -5.981 -0.49 +0.00    +0.000 A 
DOCKED: ATOM     13  C   UNL d   1       2.380  -2.184  -6.067 -0.39 +0.02    +0.070 A 
DOCKED: ATOM     14  C   UNL d   1       5.602  -2.940  -7.719 -0.41 +0.01    +0.052 C 
DOCKED: ATOM     15  C   UNL d   1       0.177  -1.692  -5.013 -0.38 +0.01    +0.066 A 
DOCKED: ATOM     16  C   UNL d   1      -0.618  -1.457  -3.899 -0.37 -0.00    -0.021 A 
DOCKED: ATOM     17  C   UNL d   1      -1.886  -1.180  -4.364 -0.42 +0.00    +0.000 A 
DOCKED: ATOM     18  C   UNL d   1      -1.837  -1.256  -5.753 -0.40 +0.02    +0.070 A 
DOCKED: ATOM     19  C   UNL d   1      -0.209  -1.516  -2.451 -0.42 +0.01    +0.052 C 
DOCKED: ATOM     20  C   UNL d   1      -2.881  -1.067  -8.018 -0.35 +0.03    +0.066 A 
DOCKED: ATOM     21  C   UNL d   1      -4.010  -1.061  -8.850 -0.24 -0.01    -0.025 A 
DOCKED: ATOM     22  C   UNL d   1      -3.526  -1.038 -10.142 -0.28 -0.02    -0.021 A 
DOCKED: ATOM     23  C   UNL d   1      -2.129  -1.038 -10.048 -0.32 +0.05    +0.066 A 
DOCKED: ATOM     24  C   UNL d   1      -5.469  -1.080  -8.459 -0.25 +0.02    +0.051 C 
DOCKED: ATOM     25  N   UNL d   1       0.857  -1.467  -9.911 -0.23 -0.13    -0.248 N 
DOCKED: ATOM     26  N   UNL d   1       2.032  -1.891  -7.344 -0.15 -0.11    -0.248 N 
DOCKED: ATOM     27  N   UNL d   1      -0.559  -1.528  -6.156 -0.25 -0.08    -0.248 N 
DOCKED: ATOM     28  N   UNL d   1      -1.742  -1.101  -8.751 -0.24 -0.12    -0.248 N 
DOCKED: ATOM     29 FE   UNL d   1       0.144  -1.496  -8.047 -0.09 +0.00    +0.000 Fe
DOCKED: ENDROOT
DOCKED: BRANCH   6  30
DOCKED: ATOM     30  C   UNL d   1       0.670  -0.761 -13.518 -0.25 +0.04    +0.052 C 
DOCKED: BRANCH  30  31
DOCKED: ATOM     31  C   UNL d   1       0.384   0.729 -13.668 -0.15 +0.09    +0.115 C 
DOCKED: BRANCH  31  32
DOCKED: ATOM     32  C   UNL d   1      -0.707   0.956 -14.678 -0.12 +0.14    +0.139 C 
DOCKED: ATOM     33  O   UNL d   1      -0.888   0.162 -15.590 -0.01 -0.67    -0.650 OA
DOCKED: BRANCH  32  34
DOCKED: ATOM     34  O   UNL d   1      -1.497   2.039 -14.585 +0.01 -1.07    -0.776 OA
DOCKED: ATOM     35  H   UNL d   1      -2.346   1.963 -14.128 +0.03 +0.29    +0.167 HD
DOCKED: ENDBRANCH  32  34
DOCKED: ENDBRANCH  31  32
DOCKED: ENDBRANCH  30  31
DOCKED: ENDBRANCH   6  30
DOCKED: BRANCH  22  36
DOCKED: ATOM     36  C   UNL d   1      -4.362  -1.065 -11.394 -0.16 +0.08    +0.052 C 
DOCKED: BRANCH  36  37
DOCKED: ATOM     37  C   UNL d   1      -4.758   0.354 -11.777 -0.18 +0.13    +0.115 C 
DOCKED: BRANCH  37  38
DOCKED: ATOM     38  C   UNL d   1      -3.978   0.827 -12.971 -0.17 +0.21    +0.139 C 
DOCKED: ATOM     39  O   UNL d   1      -4.159   1.944 -13.434 -0.33 -1.21    -0.650 OA
DOCKED: BRANCH  38  40
DOCKED: ATOM     40  O   UNL d   1      -3.072   0.015 -13.546 +0.07 -1.59    -0.776 OA
DOCKED: ATOM     41  H   UNL d   1      -2.722   0.245 -14.418 +0.03 +0.31    +0.167 HD
DOCKED: ENDBRANCH  38  40
DOCKED: ENDBRANCH  37  38
DOCKED: ENDBRANCH  36  37
DOCKED: ENDBRANCH  22  36
DOCKED: BRANCH  12  42
DOCKED: ATOM     42  C   UNL d   1       4.512  -3.017  -4.785 -0.67 +0.00    +0.004 C 
DOCKED: ATOM     43  C   UNL d   1       4.461  -2.324  -3.640 -0.64 +0.00    +0.012 C 
DOCKED: ENDBRANCH  12  42
DOCKED: BRANCH  17  44
DOCKED: ATOM     44  C   UNL d   1      -3.065  -0.843  -3.533 -0.60 +0.00    +0.004 C 
DOCKED: ATOM     45  C   UNL d   1      -3.711  -1.790  -2.845 -0.68 +0.00    +0.012 C 
DOCKED: ENDBRANCH  17  44
DOCKED: TORSDOF 10
DOCKED: TER
DOCKED: ENDMDL
________________________________________________________________________________


	BEGINNING GENETIC ALGORITHM DOCKING 39 of 100
Run: 39 Seed: 1438009585 1409206813 [ Run 39 of 100 GA/GALS ]
Beginning LAMARCKIAN GENETIC ALGORITHM (LGA), with a maximum of 25000000 energy evaluations.

Final-Value: -19.377


	FINAL GENETIC ALGORITHM DOCKED STATE
	_______________________________________________


Detailed state:  trans -0.158 -1.712 -9.124 quatxyzw 0.590361 0.392290 0.440875 0.550647 center -0.174 -0.001 -0.047 ntor 10 68.1632 15.5654 79.1030 -120.8764 -172.3038 -73.2745 -58.2346 63.0185 163.4468 169.9992
State:	 -0.158  -1.712  -9.124   0.707  0.470  0.528 113.177     68.16   15.57   79.10 -120.88 -172.30  -73.27  -58.23   63.02  163.45  170.00

DOCKED: MODEL       39
DOCKED: USER    Run = 39
DOCKED: USER    DPF = D:/Protein_go_brrr/autodock/final/AncB/heme_Fe/dock.dpf
DOCKED: USER  
DOCKED: USER    Estimated Free Energy of Binding    =  -13.95 kcal/mol  [=(1)+(2)+(3)-(4)]
DOCKED: USER    Estimated Inhibition Constant, Ki   =   59.77 pM (picomolar)  [Temperature = 298.15 K]
DOCKED: USER    
DOCKED: USER    (1) Final Intermolecular Energy     =  -16.93 kcal/mol
DOCKED: USER        vdW + Hbond + desolv Energy     =  -13.73 kcal/mol
DOCKED: USER        Electrostatic Energy            =   -3.20 kcal/mol
DOCKED: USER    (2) Final Total Internal Energy     =   -2.45 kcal/mol
DOCKED: USER    (3) Torsional Free Energy           =   +2.98 kcal/mol
DOCKED: USER    (4) Unbound System's Energy  [=(2)] =   -2.45 kcal/mol
DOCKED: USER    
DOCKED: USER    
DOCKED: USER    NEWDPF move heme_Fe_opt.pdbqt
DOCKED: USER    NEWDPF about -0.174000 -0.001000 -0.047000
DOCKED: USER    NEWDPF tran0 -0.157800 -1.712135 -9.123875
DOCKED: USER    NEWDPF quaternion0 0.590361 0.392290 0.440875 0.550647
DOCKED: USER    NEWDPF axisangle0 0.707241 0.469956 0.528159 113.177231
DOCKED: USER    NEWDPF quat0 0.707241 0.469956 0.528159 113.177231
DOCKED: USER    NEWDPF dihe0 68.16 15.57 79.10 -120.88 -172.30 -73.27 -58.23 63.02 163.45 170.00 
DOCKED: USER  keepresnum = 1 
DOCKED: USER  
DOCKED: REMARK  10 active torsions:
DOCKED: REMARK  status: ('A' for Active; 'I' for Inactive)
DOCKED: REMARK    1  A    between atoms: C_6  and  C_10 
DOCKED: REMARK    2  A    between atoms: C_10  and  C_11 
DOCKED: REMARK    3  A    between atoms: C_11  and  C_12 
DOCKED: REMARK    4  A    between atoms: C_12  and  O_14 
DOCKED: REMARK    5  A    between atoms: C_17  and  C_20 
DOCKED: REMARK    6  A    between atoms: C_24  and  C_27 
DOCKED: REMARK    7  A    between atoms: C_31  and  C_34 
DOCKED: REMARK    8  A    between atoms: C_34  and  C_35 
DOCKED: REMARK    9  A    between atoms: C_35  and  C_36 
DOCKED: REMARK   10  A    between atoms: C_36  and  O_38 
DOCKED: USER                              x       y       z     vdW  Elec       q    Type
DOCKED: USER                           _______ _______ _______ _____ _____    ______ ____
DOCKED: ROOT
DOCKED: ATOM      1  C   UNL d   1      -0.768  -1.133 -10.996 -0.33 +0.05    +0.064 C 
DOCKED: ATOM      2  C   UNL d   1      -2.831  -1.122  -6.504 -0.40 +0.02    +0.064 A 
DOCKED: ATOM      3  C   UNL d   1       1.510  -1.853  -4.584 -0.36 +0.01    +0.064 C 
DOCKED: ATOM      4  C   UNL d   1       3.512  -1.972  -8.927 -0.51 +0.02    +0.064 C 
DOCKED: ATOM      5  C   UNL d   1      -1.763  -1.146  -9.915 -0.32 +0.05    +0.066 A 
DOCKED: ATOM      6  C   UNL d   1      -3.134  -1.073 -10.101 -0.30 -0.02    -0.021 A 
DOCKED: ATOM      7  C   UNL d   1      -3.706  -1.066  -8.853 -0.27 -0.01    -0.025 A 
DOCKED: ATOM      8  C   UNL d   1      -2.661  -1.136  -7.952 -0.35 +0.03    +0.066 A 
DOCKED: ATOM      9  C   UNL d   1      -5.173  -1.016  -8.554 -0.26 +0.02    +0.051 C 
DOCKED: ATOM     10  C   UNL d   1      -1.845  -1.246  -5.614 -0.40 +0.02    +0.066 A 
DOCKED: ATOM     11  C   UNL d   1      -2.026  -1.115  -4.235 -0.41 -0.00    -0.021 A 
DOCKED: ATOM     12  C   UNL d   1      -0.785  -1.305  -3.659 -0.31 +0.00    +0.000 A 
DOCKED: ATOM     13  C   UNL d   1       0.098  -1.536  -4.728 -0.37 +0.02    +0.070 A 
DOCKED: ATOM     14  C   UNL d   1      -3.305  -0.758  -3.505 -0.59 +0.01    +0.052 C 
DOCKED: ATOM     15  C   UNL d   1       2.375  -2.026  -5.611 -0.39 +0.01    +0.066 A 
DOCKED: ATOM     16  C   UNL d   1       3.693  -2.426  -5.434 -0.48 -0.00    -0.021 A 
DOCKED: ATOM     17  C   UNL d   1       4.274  -2.458  -6.685 -0.50 +0.00    +0.000 A 
DOCKED: ATOM     18  C   UNL d   1       3.295  -2.071  -7.597 -0.42 +0.02    +0.070 A 
DOCKED: ATOM     19  C   UNL d   1       4.390  -2.743  -4.138 -0.64 +0.01    +0.052 C 
DOCKED: ATOM     20  C   UNL d   1       2.491  -1.628  -9.924 -0.43 +0.02    +0.066 A 
DOCKED: ATOM     21  C   UNL d   1       2.742  -1.328 -11.270 -0.43 -0.01    -0.025 A 
DOCKED: ATOM     22  C   UNL d   1       1.507  -1.104 -11.844 -0.29 -0.01    -0.021 A 
DOCKED: ATOM     23  C   UNL d   1       0.557  -1.270 -10.829 -0.15 +0.04    +0.066 A 
DOCKED: ATOM     24  C   UNL d   1       4.070  -1.248 -11.987 -0.53 +0.01    +0.051 C 
DOCKED: ATOM     25  N   UNL d   1      -1.481  -1.193  -8.601 -0.21 -0.12    -0.248 N 
DOCKED: ATOM     26  N   UNL d   1      -0.546  -1.491  -5.920 -0.25 -0.07    -0.248 N 
DOCKED: ATOM     27  N   UNL d   1       2.116  -1.847  -6.943 -0.23 -0.09    -0.248 N 
DOCKED: ATOM     28  N   UNL d   1       1.166  -1.545  -9.650 -0.21 -0.13    -0.248 N 
DOCKED: ATOM     29 FE   UNL d   1       0.312  -1.518  -7.786 -0.09 +0.00    +0.000 Fe
DOCKED: ENDROOT
DOCKED: BRANCH   6  30
DOCKED: ATOM     30  C   UNL d   1      -3.867  -1.033 -11.398 -0.09 +0.08    +0.052 C 
DOCKED: BRANCH  30  31
DOCKED: ATOM     31  C   UNL d   1      -4.430   0.360 -11.658 -0.19 +0.13    +0.115 C 
DOCKED: BRANCH  31  32
DOCKED: ATOM     32  C   UNL d   1      -3.899   0.909 -12.953 -0.18 +0.20    +0.139 C 
DOCKED: ATOM     33  O   UNL d   1      -4.120   2.067 -13.276 -0.21 -1.23    -0.650 OA
DOCKED: BRANCH  32  34
DOCKED: ATOM     34  O   UNL d   1      -3.173   0.127 -13.770 -0.03 -1.54    -0.776 OA
DOCKED: ATOM     35  H   UNL d   1      -2.233   0.320 -13.893 +0.04 +0.28    +0.167 HD
DOCKED: ENDBRANCH  32  34
DOCKED: ENDBRANCH  31  32
DOCKED: ENDBRANCH  30  31
DOCKED: ENDBRANCH   6  30
DOCKED: BRANCH  22  36
DOCKED: ATOM     36  C   UNL d   1       1.261  -0.706 -13.275 -0.27 +0.03    +0.052 C 
DOCKED: BRANCH  36  37
DOCKED: ATOM     37  C   UNL d   1       1.186   0.810 -13.380 -0.07 +0.07    +0.115 C 
DOCKED: BRANCH  37  38
DOCKED: ATOM     38  C   UNL d   1      -0.167   1.250 -13.865 -0.16 +0.12    +0.139 C 
DOCKED: ATOM     39  O   UNL d   1      -0.493   1.095 -15.032 +0.04 -0.61    -0.650 OA
DOCKED: BRANCH  38  40
DOCKED: ATOM     40  O   UNL d   1      -1.032   1.824 -13.010 +0.03 -0.86    -0.776 OA
DOCKED: ATOM     41  H   UNL d   1      -1.963   1.898 -13.262 +0.04 +0.24    +0.167 HD
DOCKED: ENDBRANCH  38  40
DOCKED: ENDBRANCH  37  38
DOCKED: ENDBRANCH  36  37
DOCKED: ENDBRANCH  22  36
DOCKED: BRANCH  12  42
DOCKED: ATOM     42  C   UNL d   1      -0.504  -1.242  -2.192 -0.45 +0.00    +0.004 C 
DOCKED: ATOM     43  C   UNL d   1       0.121  -2.248  -1.566 -0.57 +0.00    +0.012 C 
DOCKED: ENDBRANCH  12  42
DOCKED: BRANCH  17  44
DOCKED: ATOM     44  C   UNL d   1       5.668  -2.852  -6.989 -0.59 +0.00    +0.004 C 
DOCKED: ATOM     45  C   UNL d   1       6.696  -2.104  -6.577 -0.64 +0.00    +0.012 C 
DOCKED: ENDBRANCH  17  44
DOCKED: TORSDOF 10
DOCKED: TER
DOCKED: ENDMDL
________________________________________________________________________________


	BEGINNING GENETIC ALGORITHM DOCKING 40 of 100
Run: 40 Seed: 692722892 1921758730 [ Run 40 of 100 GA/GALS ]
Beginning LAMARCKIAN GENETIC ALGORITHM (LGA), with a maximum of 25000000 energy evaluations.

Final-Value: -19.301


	FINAL GENETIC ALGORITHM DOCKED STATE
	_______________________________________________


Detailed state:  trans -0.385 -0.901 -9.180 quatxyzw -0.608078 0.469024 -0.278190 0.576947 center -0.174 -0.001 -0.047 ntor 10 17.0476 -84.1047 64.7477 -121.3695 -2.0371 4.4104 59.5437 -20.8758 -35.4201 -3.2070
State:	 -0.385  -0.901  -9.180  -0.744  0.574 -0.341 109.528     17.05  -84.10   64.75 -121.37   -2.04    4.41   59.54  -20.88  -35.42   -3.21

DOCKED: MODEL       40
DOCKED: USER    Run = 40
DOCKED: USER    DPF = D:/Protein_go_brrr/autodock/final/AncB/heme_Fe/dock.dpf
DOCKED: USER  
DOCKED: USER    Estimated Free Energy of Binding    =  -14.79 kcal/mol  [=(1)+(2)+(3)-(4)]
DOCKED: USER    Estimated Inhibition Constant, Ki   =   14.48 pM (picomolar)  [Temperature = 298.15 K]
DOCKED: USER    
DOCKED: USER    (1) Final Intermolecular Energy     =  -17.77 kcal/mol
DOCKED: USER        vdW + Hbond + desolv Energy     =  -14.08 kcal/mol
DOCKED: USER        Electrostatic Energy            =   -3.69 kcal/mol
DOCKED: USER    (2) Final Total Internal Energy     =   -1.53 kcal/mol
DOCKED: USER    (3) Torsional Free Energy           =   +2.98 kcal/mol
DOCKED: USER    (4) Unbound System's Energy  [=(2)] =   -1.53 kcal/mol
DOCKED: USER    
DOCKED: USER    
DOCKED: USER    NEWDPF move heme_Fe_opt.pdbqt
DOCKED: USER    NEWDPF about -0.174000 -0.001000 -0.047000
DOCKED: USER    NEWDPF tran0 -0.385468 -0.901132 -9.179875
DOCKED: USER    NEWDPF quaternion0 -0.608078 0.469024 -0.278190 0.576947
DOCKED: USER    NEWDPF axisangle0 -0.744480 0.574235 -0.340593 109.527756
DOCKED: USER    NEWDPF quat0 -0.744480 0.574235 -0.340593 109.527756
DOCKED: USER    NEWDPF dihe0 17.05 -84.10 64.75 -121.37 -2.04 4.41 59.54 -20.88 -35.42 -3.21 
DOCKED: USER  keepresnum = 1 
DOCKED: USER  
DOCKED: REMARK  10 active torsions:
DOCKED: REMARK  status: ('A' for Active; 'I' for Inactive)
DOCKED: REMARK    1  A    between atoms: C_6  and  C_10 
DOCKED: REMARK    2  A    between atoms: C_10  and  C_11 
DOCKED: REMARK    3  A    between atoms: C_11  and  C_12 
DOCKED: REMARK    4  A    between atoms: C_12  and  O_14 
DOCKED: REMARK    5  A    between atoms: C_17  and  C_20 
DOCKED: REMARK    6  A    between atoms: C_24  and  C_27 
DOCKED: REMARK    7  A    between atoms: C_31  and  C_34 
DOCKED: REMARK    8  A    between atoms: C_34  and  C_35 
DOCKED: REMARK    9  A    between atoms: C_35  and  C_36 
DOCKED: REMARK   10  A    between atoms: C_36  and  O_38 
DOCKED: USER                              x       y       z     vdW  Elec       q    Type
DOCKED: USER                           _______ _______ _______ _____ _____    ______ ____
DOCKED: ROOT
DOCKED: ATOM      1  C   UNL d   1      -1.244  -0.925 -11.044 -0.32 +0.06    +0.064 C 
DOCKED: ATOM      2  C   UNL d   1       3.240  -2.001  -9.262 -0.46 +0.02    +0.064 A 
DOCKED: ATOM      3  C   UNL d   1       1.387  -2.070  -4.832 -0.44 +0.01    +0.064 C 
DOCKED: ATOM      4  C   UNL d   1      -2.939  -0.926  -6.524 -0.48 +0.02    +0.064 C 
DOCKED: ATOM      5  C   UNL d   1       0.207  -1.139 -10.945 -0.12 +0.04    +0.066 A 
DOCKED: ATOM      6  C   UNL d   1       1.090  -1.077 -12.011 -0.25 -0.01    -0.021 A 
DOCKED: ATOM      7  C   UNL d   1       2.334  -1.380 -11.516 -0.36 -0.01    -0.025 A 
DOCKED: ATOM      8  C   UNL d   1       2.163  -1.615 -10.165 -0.41 +0.03    +0.066 A 
DOCKED: ATOM      9  C   UNL d   1       3.610  -1.418 -12.299 -0.50 +0.01    +0.051 C 
DOCKED: ATOM     10  C   UNL d   1       3.112  -2.178  -7.946 -0.41 +0.02    +0.066 A 
DOCKED: ATOM     11  C   UNL d   1       4.136  -2.659  -7.126 -0.49 -0.01    -0.021 A 
DOCKED: ATOM     12  C   UNL d   1       3.621  -2.704  -5.846 -0.49 +0.00    +0.000 A 
DOCKED: ATOM     13  C   UNL d   1       2.295  -2.252  -5.953 -0.38 +0.02    +0.070 A 
DOCKED: ATOM     14  C   UNL d   1       5.515  -3.118  -7.552 -0.35 +0.01    +0.052 C 
DOCKED: ATOM     15  C   UNL d   1       0.093  -1.684  -4.936 -0.38 +0.01    +0.066 A 
DOCKED: ATOM     16  C   UNL d   1      -0.713  -1.426  -3.834 -0.36 -0.00    -0.021 A 
DOCKED: ATOM     17  C   UNL d   1      -1.962  -1.099  -4.320 -0.42 +0.00    +0.000 A 
DOCKED: ATOM     18  C   UNL d   1      -1.890  -1.170  -5.709 -0.40 +0.02    +0.070 A 
DOCKED: ATOM     19  C   UNL d   1      -0.333  -1.507  -2.380 -0.44 +0.01    +0.052 C 
DOCKED: ATOM     20  C   UNL d   1      -2.885  -0.930  -7.991 -0.36 +0.03    +0.066 A 
DOCKED: ATOM     21  C   UNL d   1      -3.998  -0.878  -8.843 -0.28 -0.01    -0.025 A 
DOCKED: ATOM     22  C   UNL d   1      -3.491  -0.866 -10.126 -0.28 -0.02    -0.021 A 
DOCKED: ATOM     23  C   UNL d   1      -2.097  -0.918 -10.007 -0.31 +0.05    +0.066 A 
DOCKED: ATOM     24  C   UNL d   1      -5.464  -0.845  -8.478 -0.29 +0.02    +0.051 C 
DOCKED: ATOM     25  N   UNL d   1       0.869  -1.459  -9.819 -0.22 -0.13    -0.248 N 
DOCKED: ATOM     26  N   UNL d   1       1.981  -1.939  -7.234 -0.13 -0.11    -0.248 N 
DOCKED: ATOM     27  N   UNL d   1      -0.616  -1.487  -6.090 -0.25 -0.07    -0.248 N 
DOCKED: ATOM     28  N   UNL d   1      -1.735  -1.003  -8.704 -0.24 -0.12    -0.248 N 
DOCKED: ATOM     29 FE   UNL d   1       0.121  -1.471  -7.968 -0.09 +0.00    +0.000 Fe
DOCKED: ENDROOT
DOCKED: BRANCH   6  30
DOCKED: ATOM     30  C   UNL d   1       0.773  -0.727 -13.424 -0.26 +0.04    +0.052 C 
DOCKED: BRANCH  30  31
DOCKED: ATOM     31  C   UNL d   1       0.048   0.612 -13.500 -0.15 +0.10    +0.115 C 
DOCKED: BRANCH  31  32
DOCKED: ATOM     32  C   UNL d   1      -1.303   0.443 -14.139 -0.15 +0.18    +0.139 C 
DOCKED: ATOM     33  O   UNL d   1      -1.666  -0.650 -14.550 -0.35 -1.32    -0.650 OA
DOCKED: BRANCH  32  34
DOCKED: ATOM     34  O   UNL d   1      -2.126   1.497 -14.264 -0.04 -1.15    -0.776 OA
DOCKED: ATOM     35  H   UNL d   1      -3.065   1.342 -14.440 +0.03 +0.28    +0.167 HD
DOCKED: ENDBRANCH  32  34
DOCKED: ENDBRANCH  31  32
DOCKED: ENDBRANCH  30  31
DOCKED: ENDBRANCH   6  30
DOCKED: BRANCH  22  36
DOCKED: ATOM     36  C   UNL d   1      -4.304  -0.855 -11.393 -0.18 +0.07    +0.052 C 
DOCKED: BRANCH  36  37
DOCKED: ATOM     37  C   UNL d   1      -4.499   0.578 -11.866 -0.19 +0.13    +0.115 C 
DOCKED: BRANCH  37  38
DOCKED: ATOM     38  C   UNL d   1      -4.821   0.622 -13.333 -0.14 +0.20    +0.139 C 
DOCKED: ATOM     39  O   UNL d   1      -4.975  -0.409 -13.970 +0.07 -1.23    -0.650 OA
DOCKED: BRANCH  38  40
DOCKED: ATOM     40  O   UNL d   1      -4.939   1.807 -13.958 -0.27 -1.23    -0.776 OA
DOCKED: ATOM     41  H   UNL d   1      -4.174   2.168 -14.429 +0.01 +0.37    +0.167 HD
DOCKED: ENDBRANCH  38  40
DOCKED: ENDBRANCH  37  38
DOCKED: ENDBRANCH  36  37
DOCKED: ENDBRANCH  22  36
DOCKED: BRANCH  12  42
DOCKED: ATOM     42  C   UNL d   1       4.371  -3.170  -4.638 -0.67 +0.00    +0.004 C 
DOCKED: ATOM     43  C   UNL d   1       4.700  -2.317  -3.660 -0.61 +0.00    +0.012 C 
DOCKED: ENDBRANCH  12  42
DOCKED: BRANCH  17  44
DOCKED: ATOM     44  C   UNL d   1      -3.142  -0.723  -3.508 -0.59 +0.00    +0.004 C 
DOCKED: ATOM     45  C   UNL d   1      -3.739  -1.617  -2.714 -0.70 +0.00    +0.012 C 
DOCKED: ENDBRANCH  17  44
DOCKED: TORSDOF 10
DOCKED: TER
DOCKED: ENDMDL
________________________________________________________________________________


	BEGINNING GENETIC ALGORITHM DOCKING 41 of 100
Run: 41 Seed: 1188503220 549285152 [ Run 41 of 100 GA/GALS ]
Beginning LAMARCKIAN GENETIC ALGORITHM (LGA), with a maximum of 25000000 energy evaluations.

Final-Value: -19.186


	FINAL GENETIC ALGORITHM DOCKED STATE
	_______________________________________________


Detailed state:  trans -0.357 -0.878 -9.142 quatxyzw -0.608036 0.473284 -0.279320 0.572953 center -0.174 -0.001 -0.047 ntor 10 -109.8999 36.2808 54.0101 -122.2709 -46.8459 -166.9701 21.1189 -28.0025 -67.6952 -3.1691
State:	 -0.357  -0.878  -9.142  -0.742  0.577 -0.341 110.087   -109.90   36.28   54.01 -122.27  -46.85 -166.97   21.12  -28.00  -67.70   -3.17

DOCKED: MODEL       41
DOCKED: USER    Run = 41
DOCKED: USER    DPF = D:/Protein_go_brrr/autodock/final/AncB/heme_Fe/dock.dpf
DOCKED: USER  
DOCKED: USER    Estimated Free Energy of Binding    =  -14.74 kcal/mol  [=(1)+(2)+(3)-(4)]
DOCKED: USER    Estimated Inhibition Constant, Ki   =   15.64 pM (picomolar)  [Temperature = 298.15 K]
DOCKED: USER    
DOCKED: USER    (1) Final Intermolecular Energy     =  -17.72 kcal/mol
DOCKED: USER        vdW + Hbond + desolv Energy     =  -14.20 kcal/mol
DOCKED: USER        Electrostatic Energy            =   -3.52 kcal/mol
DOCKED: USER    (2) Final Total Internal Energy     =   -1.46 kcal/mol
DOCKED: USER    (3) Torsional Free Energy           =   +2.98 kcal/mol
DOCKED: USER    (4) Unbound System's Energy  [=(2)] =   -1.46 kcal/mol
DOCKED: USER    
DOCKED: USER    
DOCKED: USER    NEWDPF move heme_Fe_opt.pdbqt
DOCKED: USER    NEWDPF about -0.174000 -0.001000 -0.047000
DOCKED: USER    NEWDPF tran0 -0.356558 -0.877703 -9.142388
DOCKED: USER    NEWDPF quaternion0 -0.608036 0.473284 -0.279320 0.572953
DOCKED: USER    NEWDPF axisangle0 -0.741880 0.577465 -0.340805 110.087252
DOCKED: USER    NEWDPF quat0 -0.741880 0.577465 -0.340805 110.087252
DOCKED: USER    NEWDPF dihe0 -109.90 36.28 54.01 -122.27 -46.85 -166.97 21.12 -28.00 -67.70 -3.17 
DOCKED: USER  keepresnum = 1 
DOCKED: USER  
DOCKED: REMARK  10 active torsions:
DOCKED: REMARK  status: ('A' for Active; 'I' for Inactive)
DOCKED: REMARK    1  A    between atoms: C_6  and  C_10 
DOCKED: REMARK    2  A    between atoms: C_10  and  C_11 
DOCKED: REMARK    3  A    between atoms: C_11  and  C_12 
DOCKED: REMARK    4  A    between atoms: C_12  and  O_14 
DOCKED: REMARK    5  A    between atoms: C_17  and  C_20 
DOCKED: REMARK    6  A    between atoms: C_24  and  C_27 
DOCKED: REMARK    7  A    between atoms: C_31  and  C_34 
DOCKED: REMARK    8  A    between atoms: C_34  and  C_35 
DOCKED: REMARK    9  A    between atoms: C_35  and  C_36 
DOCKED: REMARK   10  A    between atoms: C_36  and  O_38 
DOCKED: USER                              x       y       z     vdW  Elec       q    Type
DOCKED: USER                           _______ _______ _______ _____ _____    ______ ____
DOCKED: ROOT
DOCKED: ATOM      1  C   UNL d   1      -1.196  -0.889 -11.015 -0.31 +0.06    +0.064 C 
DOCKED: ATOM      2  C   UNL d   1       3.267  -1.983  -9.195 -0.45 +0.02    +0.064 A 
DOCKED: ATOM      3  C   UNL d   1       1.370  -2.076  -4.784 -0.43 +0.01    +0.064 C 
DOCKED: ATOM      4  C   UNL d   1      -2.937  -0.914  -6.513 -0.48 +0.02    +0.064 C 
DOCKED: ATOM      5  C   UNL d   1       0.253  -1.106 -10.903 -0.10 +0.04    +0.066 A 
DOCKED: ATOM      6  C   UNL d   1       1.147  -1.039 -11.959 -0.22 -0.01    -0.021 A 
DOCKED: ATOM      7  C   UNL d   1       2.385  -1.346 -11.454 -0.38 -0.01    -0.025 A 
DOCKED: ATOM      8  C   UNL d   1       2.200  -1.590 -10.106 -0.41 +0.03    +0.066 A 
DOCKED: ATOM      9  C   UNL d   1       3.669  -1.383 -12.224 -0.51 +0.01    +0.051 C 
DOCKED: ATOM     10  C   UNL d   1       3.126  -2.168  -7.881 -0.41 +0.02    +0.066 A 
DOCKED: ATOM     11  C   UNL d   1       4.141  -2.656  -7.054 -0.48 -0.01    -0.021 A 
DOCKED: ATOM     12  C   UNL d   1       3.614  -2.708  -5.779 -0.49 +0.00    +0.000 A 
DOCKED: ATOM     13  C   UNL d   1       2.289  -2.252  -5.897 -0.38 +0.02    +0.070 A 
DOCKED: ATOM     14  C   UNL d   1       5.524  -3.115  -7.469 -0.36 +0.01    +0.052 C 
DOCKED: ATOM     15  C   UNL d   1       0.078  -1.688  -4.899 -0.38 +0.01    +0.066 A 
DOCKED: ATOM     16  C   UNL d   1      -0.738  -1.435  -3.804 -0.36 -0.00    -0.021 A 
DOCKED: ATOM     17  C   UNL d   1      -1.982  -1.103  -4.300 -0.42 +0.00    +0.000 A 
DOCKED: ATOM     18  C   UNL d   1      -1.896  -1.165  -5.689 -0.40 +0.02    +0.070 A 
DOCKED: ATOM     19  C   UNL d   1      -0.374  -1.525  -2.346 -0.45 +0.01    +0.052 C 
DOCKED: ATOM     20  C   UNL d   1      -2.868  -0.910  -7.979 -0.36 +0.03    +0.066 A 
DOCKED: ATOM     21  C   UNL d   1      -3.972  -0.850  -8.841 -0.29 -0.01    -0.025 A 
DOCKED: ATOM     22  C   UNL d   1      -3.452  -0.832 -10.119 -0.28 -0.02    -0.021 A 
DOCKED: ATOM     23  C   UNL d   1      -2.059  -0.887  -9.987 -0.31 +0.05    +0.066 A 
DOCKED: ATOM     24  C   UNL d   1      -5.442  -0.817  -8.492 -0.30 +0.02    +0.051 C 
DOCKED: ATOM     25  N   UNL d   1       0.903  -1.434  -9.773 -0.22 -0.13    -0.248 N 
DOCKED: ATOM     26  N   UNL d   1       1.989  -1.932  -7.180 -0.15 -0.10    -0.248 N 
DOCKED: ATOM     27  N   UNL d   1      -0.619  -1.482  -6.059 -0.25 -0.07    -0.248 N 
DOCKED: ATOM     28  N   UNL d   1      -1.711  -0.980  -8.681 -0.24 -0.12    -0.248 N 
DOCKED: ATOM     29 FE   UNL d   1       0.137  -1.456  -7.929 -0.09 +0.00    +0.000 Fe
DOCKED: ENDROOT
DOCKED: BRANCH   6  30
DOCKED: ATOM     30  C   UNL d   1       0.845  -0.680 -13.374 -0.26 +0.04    +0.052 C 
DOCKED: BRANCH  30  31
DOCKED: ATOM     31  C   UNL d   1      -0.453   0.116 -13.464 -0.20 +0.11    +0.115 C 
DOCKED: BRANCH  31  32
DOCKED: ATOM     32  C   UNL d   1      -1.022   0.037 -14.854 -0.11 +0.17    +0.139 C 
DOCKED: ATOM     33  O   UNL d   1      -0.310   0.216 -15.831 +0.03 -0.55    -0.650 OA
DOCKED: BRANCH  32  34
DOCKED: ATOM     34  O   UNL d   1      -2.326  -0.233 -15.034 -0.45 -1.54    -0.776 OA
DOCKED: ATOM     35  H   UNL d   1      -2.982   0.434 -14.788 +0.02 +0.29    +0.167 HD
DOCKED: ENDBRANCH  32  34
DOCKED: ENDBRANCH  31  32
DOCKED: ENDBRANCH  30  31
DOCKED: ENDBRANCH   6  30
DOCKED: BRANCH  22  36
DOCKED: ATOM     36  C   UNL d   1      -4.253  -0.811 -11.394 -0.19 +0.07    +0.052 C 
DOCKED: BRANCH  36  37
DOCKED: ATOM     37  C   UNL d   1      -4.440   0.625 -11.861 -0.19 +0.13    +0.115 C 
DOCKED: BRANCH  37  38
DOCKED: ATOM     38  C   UNL d   1      -4.575   0.693 -13.356 -0.15 +0.21    +0.139 C 
DOCKED: ATOM     39  O   UNL d   1      -4.496   1.762 -13.943 -0.46 -1.12    -0.650 OA
DOCKED: BRANCH  38  40
DOCKED: ATOM     40  O   UNL d   1      -4.787  -0.432 -14.062 +0.21 -1.59    -0.776 OA
DOCKED: ATOM     41  H   UNL d   1      -4.379  -0.523 -14.934 +0.01 +0.37    +0.167 HD
DOCKED: ENDBRANCH  38  40
DOCKED: ENDBRANCH  37  38
DOCKED: ENDBRANCH  36  37
DOCKED: ENDBRANCH  22  36
DOCKED: BRANCH  12  42
DOCKED: ATOM     42  C   UNL d   1       4.350  -3.183  -4.567 -0.68 +0.00    +0.004 C 
DOCKED: ATOM     43  C   UNL d   1       4.858  -2.313  -3.684 -0.59 +0.00    +0.012 C 
DOCKED: ENDBRANCH  12  42
DOCKED: BRANCH  17  44
DOCKED: ATOM     44  C   UNL d   1      -3.169  -0.730  -3.498 -0.59 +0.00    +0.004 C 
DOCKED: ATOM     45  C   UNL d   1      -3.787  -1.632  -2.728 -0.68 +0.00    +0.012 C 
DOCKED: ENDBRANCH  17  44
DOCKED: TORSDOF 10
DOCKED: TER
DOCKED: ENDMDL
________________________________________________________________________________


	BEGINNING GENETIC ALGORITHM DOCKING 42 of 100
Run: 42 Seed: 1897583951 1969390222 [ Run 42 of 100 GA/GALS ]
Beginning LAMARCKIAN GENETIC ALGORITHM (LGA), with a maximum of 25000000 energy evaluations.

Final-Value: -18.577


	FINAL GENETIC ALGORITHM DOCKED STATE
	_______________________________________________


Detailed state:  trans 0.048 -1.642 -9.158 quatxyzw 0.572563 0.380100 0.475145 0.549484 center -0.174 -0.001 -0.047 ntor 10 8.9087 61.6192 76.0400 -104.4878 -32.5182 -97.9812 -42.8067 41.8818 -171.8570 -179.0562
State:	  0.048  -1.642  -9.158   0.685  0.455  0.569 113.337      8.91   61.62   76.04 -104.49  -32.52  -97.98  -42.81   41.88 -171.86 -179.06

DOCKED: MODEL       42
DOCKED: USER    Run = 42
DOCKED: USER    DPF = D:/Protein_go_brrr/autodock/final/AncB/heme_Fe/dock.dpf
DOCKED: USER  
DOCKED: USER    Estimated Free Energy of Binding    =  -14.59 kcal/mol  [=(1)+(2)+(3)-(4)]
DOCKED: USER    Estimated Inhibition Constant, Ki   =   20.11 pM (picomolar)  [Temperature = 298.15 K]
DOCKED: USER    
DOCKED: USER    (1) Final Intermolecular Energy     =  -17.58 kcal/mol
DOCKED: USER        vdW + Hbond + desolv Energy     =  -14.59 kcal/mol
DOCKED: USER        Electrostatic Energy            =   -2.99 kcal/mol
DOCKED: USER    (2) Final Total Internal Energy     =   -1.00 kcal/mol
DOCKED: USER    (3) Torsional Free Energy           =   +2.98 kcal/mol
DOCKED: USER    (4) Unbound System's Energy  [=(2)] =   -1.00 kcal/mol
DOCKED: USER    
DOCKED: USER    
DOCKED: USER    NEWDPF move heme_Fe_opt.pdbqt
DOCKED: USER    NEWDPF about -0.174000 -0.001000 -0.047000
DOCKED: USER    NEWDPF tran0 0.048148 -1.642106 -9.157671
DOCKED: USER    NEWDPF quaternion0 0.572563 0.380100 0.475145 0.549484
DOCKED: USER    NEWDPF axisangle0 0.685291 0.454935 0.568692 113.336804
DOCKED: USER    NEWDPF quat0 0.685291 0.454935 0.568692 113.336804
DOCKED: USER    NEWDPF dihe0 8.91 61.62 76.04 -104.49 -32.52 -97.98 -42.81 41.88 -171.86 -179.06 
DOCKED: USER  keepresnum = 1 
DOCKED: USER  
DOCKED: REMARK  10 active torsions:
DOCKED: REMARK  status: ('A' for Active; 'I' for Inactive)
DOCKED: REMARK    1  A    between atoms: C_6  and  C_10 
DOCKED: REMARK    2  A    between atoms: C_10  and  C_11 
DOCKED: REMARK    3  A    between atoms: C_11  and  C_12 
DOCKED: REMARK    4  A    between atoms: C_12  and  O_14 
DOCKED: REMARK    5  A    between atoms: C_17  and  C_20 
DOCKED: REMARK    6  A    between atoms: C_24  and  C_27 
DOCKED: REMARK    7  A    between atoms: C_31  and  C_34 
DOCKED: REMARK    8  A    between atoms: C_34  and  C_35 
DOCKED: REMARK    9  A    between atoms: C_35  and  C_36 
DOCKED: REMARK   10  A    between atoms: C_36  and  O_38 
DOCKED: USER                              x       y       z     vdW  Elec       q    Type
DOCKED: USER                           _______ _______ _______ _____ _____    ______ ____
DOCKED: ROOT
DOCKED: ATOM      1  C   UNL d   1      -0.455  -0.937 -11.018 -0.10 +0.05    +0.064 C 
DOCKED: ATOM      2  C   UNL d   1      -2.715  -1.090  -6.625 -0.41 +0.02    +0.064 A 
DOCKED: ATOM      3  C   UNL d   1       1.505  -2.100  -4.566 -0.41 +0.01    +0.064 C 
DOCKED: ATOM      4  C   UNL d   1       3.693  -2.060  -8.820 -0.51 +0.02    +0.064 C 
DOCKED: ATOM      5  C   UNL d   1      -1.498  -0.969  -9.982 -0.31 +0.04    +0.066 A 
DOCKED: ATOM      6  C   UNL d   1      -2.855  -0.830 -10.222 -0.30 -0.02    -0.021 A 
DOCKED: ATOM      7  C   UNL d   1      -3.481  -0.869  -9.002 -0.30 -0.01    -0.025 A 
DOCKED: ATOM      8  C   UNL d   1      -2.481  -1.030  -8.062 -0.36 +0.03    +0.066 A 
DOCKED: ATOM      9  C   UNL d   1      -4.957  -0.776  -8.763 -0.30 +0.02    +0.051 C 
DOCKED: ATOM     10  C   UNL d   1      -1.776  -1.302  -5.702 -0.40 +0.02    +0.066 A 
DOCKED: ATOM     11  C   UNL d   1      -2.013  -1.239  -4.326 -0.43 -0.00    -0.021 A 
DOCKED: ATOM     12  C   UNL d   1      -0.807  -1.510  -3.710 -0.41 +0.00    +0.000 A 
DOCKED: ATOM     13  C   UNL d   1       0.114  -1.718  -4.752 -0.38 +0.01    +0.070 A 
DOCKED: ATOM     14  C   UNL d   1      -3.308  -0.872  -3.633 -0.60 +0.01    +0.052 C 
DOCKED: ATOM     15  C   UNL d   1       2.408  -2.250  -5.564 -0.39 +0.01    +0.066 A 
DOCKED: ATOM     16  C   UNL d   1       3.701  -2.713  -5.353 -0.49 -0.00    -0.021 A 
DOCKED: ATOM     17  C   UNL d   1       4.335  -2.699  -6.578 -0.51 +0.00    +0.000 A 
DOCKED: ATOM     18  C   UNL d   1       3.413  -2.223  -7.508 -0.42 +0.02    +0.070 A 
DOCKED: ATOM     19  C   UNL d   1       4.326  -3.128  -4.049 -0.63 +0.01    +0.052 C 
DOCKED: ATOM     20  C   UNL d   1       2.731  -1.621  -9.838 -0.44 +0.02    +0.066 A 
DOCKED: ATOM     21  C   UNL d   1       3.053  -1.258 -11.153 -0.46 -0.01    -0.025 A 
DOCKED: ATOM     22  C   UNL d   1       1.855  -0.953 -11.765 -0.28 -0.01    -0.021 A 
DOCKED: ATOM     23  C   UNL d   1       0.855  -1.136 -10.803 -0.07 +0.03    +0.066 A 
DOCKED: ATOM     24  C   UNL d   1       4.414  -1.193 -11.808 -0.53 +0.01    +0.051 C 
DOCKED: ATOM     25  N   UNL d   1      -1.277  -1.100  -8.663 -0.24 -0.12    -0.248 N 
DOCKED: ATOM     26  N   UNL d   1      -0.474  -1.582  -5.966 -0.25 -0.07    -0.248 N 
DOCKED: ATOM     27  N   UNL d   1       2.215  -1.989  -6.894 -0.22 -0.09    -0.248 N 
DOCKED: ATOM     28  N   UNL d   1       1.400  -1.500  -9.617 -0.25 -0.13    -0.248 N 
DOCKED: ATOM     29 FE   UNL d   1       0.465  -1.541  -7.792 -0.09 +0.00    +0.000 Fe
DOCKED: ENDROOT
DOCKED: BRANCH   6  30
DOCKED: ATOM     30  C   UNL d   1      -3.527  -0.690 -11.545 -0.13 +0.08    +0.052 C 
DOCKED: BRANCH  30  31
DOCKED: ATOM     31  C   UNL d   1      -3.480   0.757 -12.024 -0.23 +0.14    +0.115 C 
DOCKED: BRANCH  31  32
DOCKED: ATOM     32  C   UNL d   1      -3.144   0.816 -13.488 -0.17 +0.22    +0.139 C 
DOCKED: ATOM     33  O   UNL d   1      -2.407  -0.020 -13.993 -0.16 -1.28    -0.650 OA
DOCKED: BRANCH  32  34
DOCKED: ATOM     34  O   UNL d   1      -3.652   1.793 -14.258 -0.53 -1.51    -0.776 OA
DOCKED: ATOM     35  H   UNL d   1      -3.533   1.745 -15.217 +0.01 +0.28    +0.167 HD
DOCKED: ENDBRANCH  32  34
DOCKED: ENDBRANCH  31  32
DOCKED: ENDBRANCH  30  31
DOCKED: ENDBRANCH   6  30
DOCKED: BRANCH  22  36
DOCKED: ATOM     36  C   UNL d   1       1.689  -0.467 -13.181 -0.29 +0.03    +0.052 C 
DOCKED: BRANCH  36  37
DOCKED: ATOM     37  C   UNL d   1       1.945   1.031 -13.243 -0.16 +0.05    +0.115 C 
DOCKED: BRANCH  37  38
DOCKED: ATOM     38  C   UNL d   1       0.954   1.710 -14.145 -0.20 +0.09    +0.139 C 
DOCKED: ATOM     39  O   UNL d   1       1.244   1.980 -15.301 +0.05 -0.40    -0.650 OA
DOCKED: BRANCH  38  40
DOCKED: ATOM     40  O   UNL d   1      -0.267   2.031 -13.682 -0.05 -0.77    -0.776 OA
DOCKED: ATOM     41  H   UNL d   1      -1.046   1.637 -14.098 +0.05 +0.19    +0.167 HD
DOCKED: ENDBRANCH  38  40
DOCKED: ENDBRANCH  37  38
DOCKED: ENDBRANCH  36  37
DOCKED: ENDBRANCH  22  36
DOCKED: BRANCH  12  42
DOCKED: ATOM     42  C   UNL d   1      -0.590  -1.540  -2.231 -0.50 +0.00    +0.004 C 
DOCKED: ATOM     43  C   UNL d   1      -0.087  -2.627  -1.630 -0.58 +0.00    +0.012 C 
DOCKED: ENDBRANCH  12  42
DOCKED: BRANCH  17  44
DOCKED: ATOM     44  C   UNL d   1       5.725  -3.132  -6.845 -0.49 +0.00    +0.004 C 
DOCKED: ATOM     45  C   UNL d   1       6.739  -2.670  -6.107 -0.70 +0.00    +0.012 C 
DOCKED: ENDBRANCH  17  44
DOCKED: TORSDOF 10
DOCKED: TER
DOCKED: ENDMDL
________________________________________________________________________________


	BEGINNING GENETIC ALGORITHM DOCKING 43 of 100
Run: 43 Seed: 1447964927 965619075 [ Run 43 of 100 GA/GALS ]
Beginning LAMARCKIAN GENETIC ALGORITHM (LGA), with a maximum of 25000000 energy evaluations.

Final-Value: -19.878


	FINAL GENETIC ALGORITHM DOCKED STATE
	_______________________________________________


Detailed state:  trans 0.069 -1.646 -9.140 quatxyzw 0.573497 0.378646 0.474097 0.550419 center -0.174 -0.001 -0.047 ntor 10 52.2955 -35.7995 87.9453 -106.1928 172.3974 173.9147 -44.6948 55.3254 -175.2797 178.8233
State:	  0.069  -1.646  -9.140   0.687  0.454  0.568 113.209     52.30  -35.80   87.95 -106.19  172.40  173.91  -44.69   55.33 -175.28  178.82

DOCKED: MODEL       43
DOCKED: USER    Run = 43
DOCKED: USER    DPF = D:/Protein_go_brrr/autodock/final/AncB/heme_Fe/dock.dpf
DOCKED: USER  
DOCKED: USER    Estimated Free Energy of Binding    =  -14.98 kcal/mol  [=(1)+(2)+(3)-(4)]
DOCKED: USER    Estimated Inhibition Constant, Ki   =   10.43 pM (picomolar)  [Temperature = 298.15 K]
DOCKED: USER    
DOCKED: USER    (1) Final Intermolecular Energy     =  -17.96 kcal/mol
DOCKED: USER        vdW + Hbond + desolv Energy     =  -14.55 kcal/mol
DOCKED: USER        Electrostatic Energy            =   -3.42 kcal/mol
DOCKED: USER    (2) Final Total Internal Energy     =   -1.91 kcal/mol
DOCKED: USER    (3) Torsional Free Energy           =   +2.98 kcal/mol
DOCKED: USER    (4) Unbound System's Energy  [=(2)] =   -1.91 kcal/mol
DOCKED: USER    
DOCKED: USER    
DOCKED: USER    NEWDPF move heme_Fe_opt.pdbqt
DOCKED: USER    NEWDPF about -0.174000 -0.001000 -0.047000
DOCKED: USER    NEWDPF tran0 0.069121 -1.646223 -9.139667
DOCKED: USER    NEWDPF quaternion0 0.573497 0.378646 0.474097 0.550419
DOCKED: USER    NEWDPF axisangle0 0.686914 0.453528 0.567856 113.208528
DOCKED: USER    NEWDPF quat0 0.686914 0.453528 0.567856 113.208528
DOCKED: USER    NEWDPF dihe0 52.30 -35.80 87.95 -106.19 172.40 173.91 -44.69 55.33 -175.28 178.82 
DOCKED: USER  keepresnum = 1 
DOCKED: USER  
DOCKED: REMARK  10 active torsions:
DOCKED: REMARK  status: ('A' for Active; 'I' for Inactive)
DOCKED: REMARK    1  A    between atoms: C_6  and  C_10 
DOCKED: REMARK    2  A    between atoms: C_10  and  C_11 
DOCKED: REMARK    3  A    between atoms: C_11  and  C_12 
DOCKED: REMARK    4  A    between atoms: C_12  and  O_14 
DOCKED: REMARK    5  A    between atoms: C_17  and  C_20 
DOCKED: REMARK    6  A    between atoms: C_24  and  C_27 
DOCKED: REMARK    7  A    between atoms: C_31  and  C_34 
DOCKED: REMARK    8  A    between atoms: C_34  and  C_35 
DOCKED: REMARK    9  A    between atoms: C_35  and  C_36 
DOCKED: REMARK   10  A    between atoms: C_36  and  O_38 
DOCKED: USER                              x       y       z     vdW  Elec       q    Type
DOCKED: USER                           _______ _______ _______ _____ _____    ______ ____
DOCKED: ROOT
DOCKED: ATOM      1  C   UNL d   1      -0.442  -0.939 -10.997 -0.09 +0.05    +0.064 C 
DOCKED: ATOM      2  C   UNL d   1      -2.683  -1.095  -6.594 -0.41 +0.02    +0.064 A 
DOCKED: ATOM      3  C   UNL d   1       1.546  -2.107  -4.555 -0.41 +0.01    +0.064 C 
DOCKED: ATOM      4  C   UNL d   1       3.715  -2.066  -8.818 -0.51 +0.02    +0.064 C 
DOCKED: ATOM      5  C   UNL d   1      -1.480  -0.972  -9.957 -0.31 +0.04    +0.066 A 
DOCKED: ATOM      6  C   UNL d   1      -2.838  -0.833 -10.191 -0.31 -0.02    -0.021 A 
DOCKED: ATOM      7  C   UNL d   1      -3.459  -0.872  -8.968 -0.31 -0.01    -0.025 A 
DOCKED: ATOM      8  C   UNL d   1      -2.455  -1.034  -8.033 -0.36 +0.03    +0.066 A 
DOCKED: ATOM      9  C   UNL d   1      -4.934  -0.779  -8.723 -0.30 +0.02    +0.051 C 
DOCKED: ATOM     10  C   UNL d   1      -1.739  -1.307  -5.676 -0.40 +0.02    +0.066 A 
DOCKED: ATOM     11  C   UNL d   1      -1.970  -1.246  -4.299 -0.43 -0.00    -0.021 A 
DOCKED: ATOM     12  C   UNL d   1      -0.762  -1.518  -3.688 -0.41 +0.00    +0.000 A 
DOCKED: ATOM     13  C   UNL d   1       0.154  -1.725  -4.734 -0.38 +0.01    +0.070 A 
DOCKED: ATOM     14  C   UNL d   1      -3.263  -0.878  -3.599 -0.60 +0.01    +0.052 C 
DOCKED: ATOM     15  C   UNL d   1       2.444  -2.257  -5.556 -0.39 +0.01    +0.066 A 
DOCKED: ATOM     16  C   UNL d   1       3.738  -2.720  -5.352 -0.49 -0.00    -0.021 A 
DOCKED: ATOM     17  C   UNL d   1       4.367  -2.706  -6.580 -0.51 +0.00    +0.000 A 
DOCKED: ATOM     18  C   UNL d   1       3.441  -2.230  -7.506 -0.42 +0.02    +0.070 A 
DOCKED: ATOM     19  C   UNL d   1       4.369  -3.137  -4.051 -0.63 +0.01    +0.052 C 
DOCKED: ATOM     20  C   UNL d   1       2.749  -1.626  -9.832 -0.44 +0.02    +0.066 A 
DOCKED: ATOM     21  C   UNL d   1       3.066  -1.262 -11.148 -0.46 -0.01    -0.025 A 
DOCKED: ATOM     22  C   UNL d   1       1.865  -0.957 -11.755 -0.28 -0.01    -0.021 A 
DOCKED: ATOM     23  C   UNL d   1       0.869  -1.139 -10.788 -0.07 +0.03    +0.066 A 
DOCKED: ATOM     24  C   UNL d   1       4.423  -1.197 -11.809 -0.53 +0.01    +0.051 C 
DOCKED: ATOM     25  N   UNL d   1      -1.253  -1.104  -8.639 -0.23 -0.12    -0.248 N 
DOCKED: ATOM     26  N   UNL d   1      -0.439  -1.588  -5.946 -0.25 -0.07    -0.248 N 
DOCKED: ATOM     27  N   UNL d   1       2.246  -1.995  -6.885 -0.23 -0.09    -0.248 N 
DOCKED: ATOM     28  N   UNL d   1       1.419  -1.504  -9.605 -0.25 -0.13    -0.248 N 
DOCKED: ATOM     29 FE   UNL d   1       0.492  -1.547  -7.776 -0.09 +0.00    +0.000 Fe
DOCKED: ENDROOT
DOCKED: BRANCH   6  30
DOCKED: ATOM     30  C   UNL d   1      -3.516  -0.691 -11.511 -0.15 +0.08    +0.052 C 
DOCKED: BRANCH  30  31
DOCKED: ATOM     31  C   UNL d   1      -3.545   0.769 -11.949 -0.22 +0.14    +0.115 C 
DOCKED: BRANCH  31  32
DOCKED: ATOM     32  C   UNL d   1      -3.167   0.890 -13.399 -0.18 +0.22    +0.139 C 
DOCKED: ATOM     33  O   UNL d   1      -3.265   1.962 -13.981 -0.42 -1.35    -0.650 OA
DOCKED: BRANCH  32  34
DOCKED: ATOM     34  O   UNL d   1      -2.716  -0.182 -14.071 +0.01 -1.78    -0.776 OA
DOCKED: ATOM     35  H   UNL d   1      -1.881  -0.116 -14.556 +0.03 +0.29    +0.167 HD
DOCKED: ENDBRANCH  32  34
DOCKED: ENDBRANCH  31  32
DOCKED: ENDBRANCH  30  31
DOCKED: ENDBRANCH   6  30
DOCKED: BRANCH  22  36
DOCKED: ATOM     36  C   UNL d   1       1.692  -0.469 -13.169 -0.29 +0.03    +0.052 C 
DOCKED: BRANCH  36  37
DOCKED: ATOM     37  C   UNL d   1       1.897   1.037 -13.222 -0.12 +0.05    +0.115 C 
DOCKED: BRANCH  37  38
DOCKED: ATOM     38  C   UNL d   1       0.716   1.720 -13.853 -0.18 +0.10    +0.139 C 
DOCKED: ATOM     39  O   UNL d   1       0.642   2.939 -13.885 -0.37 -0.58    -0.650 OA
DOCKED: BRANCH  38  40
DOCKED: ATOM     40  O   UNL d   1      -0.276   0.986 -14.388 +0.07 -0.71    -0.776 OA
DOCKED: ATOM     41  H   UNL d   1      -1.187   1.301 -14.311 +0.05 +0.19    +0.167 HD
DOCKED: ENDBRANCH  38  40
DOCKED: ENDBRANCH  37  38
DOCKED: ENDBRANCH  36  37
DOCKED: ENDBRANCH  22  36
DOCKED: BRANCH  12  42
DOCKED: ATOM     42  C   UNL d   1      -0.538  -1.548  -2.210 -0.50 +0.00    +0.004 C 
DOCKED: ATOM     43  C   UNL d   1       0.177  -2.528  -1.641 -0.59 +0.00    +0.012 C 
DOCKED: ENDBRANCH  12  42
DOCKED: BRANCH  17  44
DOCKED: ATOM     44  C   UNL d   1       5.756  -3.139  -6.853 -0.48 +0.00    +0.004 C 
DOCKED: ATOM     45  C   UNL d   1       6.777  -2.653  -6.141 -0.69 +0.00    +0.012 C 
DOCKED: ENDBRANCH  17  44
DOCKED: TORSDOF 10
DOCKED: TER
DOCKED: ENDMDL
________________________________________________________________________________


	BEGINNING GENETIC ALGORITHM DOCKING 44 of 100
Run: 44 Seed: 1554304815 1853498325 [ Run 44 of 100 GA/GALS ]
Beginning LAMARCKIAN GENETIC ALGORITHM (LGA), with a maximum of 25000000 energy evaluations.

Final-Value: -14.479


	FINAL GENETIC ALGORITHM DOCKED STATE
	_______________________________________________


Detailed state:  trans -5.848 -11.307 12.258 quatxyzw 0.587100 0.025465 0.484710 -0.647859 center -0.174 -0.001 -0.047 ntor 10 179.4973 -107.1633 45.1142 62.1715 48.1348 175.5493 -30.1381 23.8467 -150.7835 161.1282
State:	 -5.848 -11.307  12.258   0.771  0.033  0.636 -99.239    179.50 -107.16   45.11   62.17   48.13  175.55  -30.14   23.85 -150.78  161.13

DOCKED: MODEL       44
DOCKED: USER    Run = 44
DOCKED: USER    DPF = D:/Protein_go_brrr/autodock/final/AncB/heme_Fe/dock.dpf
DOCKED: USER  
DOCKED: USER    Estimated Free Energy of Binding    =   -9.86 kcal/mol  [=(1)+(2)+(3)-(4)]
DOCKED: USER    Estimated Inhibition Constant, Ki   =   58.82 nM (nanomolar)  [Temperature = 298.15 K]
DOCKED: USER    
DOCKED: USER    (1) Final Intermolecular Energy     =  -12.85 kcal/mol
DOCKED: USER        vdW + Hbond + desolv Energy     =   -9.01 kcal/mol
DOCKED: USER        Electrostatic Energy            =   -3.83 kcal/mol
DOCKED: USER    (2) Final Total Internal Energy     =   -1.63 kcal/mol
DOCKED: USER    (3) Torsional Free Energy           =   +2.98 kcal/mol
DOCKED: USER    (4) Unbound System's Energy  [=(2)] =   -1.63 kcal/mol
DOCKED: USER    
DOCKED: USER    
DOCKED: USER    NEWDPF move heme_Fe_opt.pdbqt
DOCKED: USER    NEWDPF about -0.174000 -0.001000 -0.047000
DOCKED: USER    NEWDPF tran0 -5.847728 -11.306895 12.257764
DOCKED: USER    NEWDPF quaternion0 0.587100 0.025465 0.484710 -0.647859
DOCKED: USER    NEWDPF axisangle0 0.770715 0.033429 0.636303 -99.239201
DOCKED: USER    NEWDPF quat0 0.770715 0.033429 0.636303 -99.239201
DOCKED: USER    NEWDPF dihe0 179.50 -107.16 45.11 62.17 48.13 175.55 -30.14 23.85 -150.78 161.13 
DOCKED: USER  keepresnum = 1 
DOCKED: USER  
DOCKED: REMARK  10 active torsions:
DOCKED: REMARK  status: ('A' for Active; 'I' for Inactive)
DOCKED: REMARK    1  A    between atoms: C_6  and  C_10 
DOCKED: REMARK    2  A    between atoms: C_10  and  C_11 
DOCKED: REMARK    3  A    between atoms: C_11  and  C_12 
DOCKED: REMARK    4  A    between atoms: C_12  and  O_14 
DOCKED: REMARK    5  A    between atoms: C_17  and  C_20 
DOCKED: REMARK    6  A    between atoms: C_24  and  C_27 
DOCKED: REMARK    7  A    between atoms: C_31  and  C_34 
DOCKED: REMARK    8  A    between atoms: C_34  and  C_35 
DOCKED: REMARK    9  A    between atoms: C_35  and  C_36 
DOCKED: REMARK   10  A    between atoms: C_36  and  O_38 
DOCKED: USER                              x       y       z     vdW  Elec       q    Type
DOCKED: USER                           _______ _______ _______ _____ _____    ______ ____
DOCKED: ROOT
DOCKED: ATOM      1  C   UNL d   1      -6.540 -12.992  11.314 -0.30 +0.04    +0.064 C 
DOCKED: ATOM      2  C   UNL d   1      -2.736  -9.917  10.600 -0.27 +0.02    +0.064 A 
DOCKED: ATOM      3  C   UNL d   1      -3.428  -8.149  15.012 -0.17 +0.01    +0.064 C 
DOCKED: ATOM      4  C   UNL d   1      -7.177 -11.043  15.684 -0.20 +0.04    +0.064 C 
DOCKED: ATOM      5  C   UNL d   1      -5.458 -12.233  10.672 -0.22 +0.03    +0.066 A 
DOCKED: ATOM      6  C   UNL d   1      -5.054 -12.390   9.357 -0.23 -0.01    -0.021 A 
DOCKED: ATOM      7  C   UNL d   1      -3.995 -11.538   9.161 -0.23 -0.01    -0.025 A 
DOCKED: ATOM      8  C   UNL d   1      -3.793 -10.893  10.365 -0.22 +0.02    +0.066 A 
DOCKED: ATOM      9  C   UNL d   1      -3.240 -11.348   7.881 -0.32 +0.02    +0.051 C 
DOCKED: ATOM     10  C   UNL d   1      -2.556  -9.239  11.735 -0.20 +0.02    +0.066 A 
DOCKED: ATOM     11  C   UNL d   1      -1.467  -8.396  11.969 -0.25 -0.00    -0.021 A 
DOCKED: ATOM     12  C   UNL d   1      -1.634  -7.886  13.241 -0.22 +0.00    +0.000 A 
DOCKED: ATOM     13  C   UNL d   1      -2.824  -8.457  13.725 -0.10 +0.02    +0.070 A 
DOCKED: ATOM     14  C   UNL d   1      -0.288  -8.142  11.052 -0.27 +0.01    +0.052 C 
DOCKED: ATOM     15  C   UNL d   1      -4.545  -8.734  15.504 -0.14 +0.03    +0.066 A 
DOCKED: ATOM     16  C   UNL d   1      -5.146  -8.342  16.693 -0.16 -0.00    -0.021 A 
DOCKED: ATOM     17  C   UNL d   1      -6.226  -9.177  16.891 -0.15 +0.00    +0.000 A 
DOCKED: ATOM     18  C   UNL d   1      -6.256 -10.065  15.817 -0.10 +0.05    +0.070 A 
DOCKED: ATOM     19  C   UNL d   1      -4.710  -7.241  17.623 -0.13 -0.01    +0.052 C 
DOCKED: ATOM     20  C   UNL d   1      -7.277 -11.955  14.538 -0.22 +0.03    +0.066 A 
DOCKED: ATOM     21  C   UNL d   1      -8.093 -13.094  14.478 -0.23 -0.01    -0.025 A 
DOCKED: ATOM     22  C   UNL d   1      -7.905 -13.627  13.219 -0.30 -0.01    -0.021 A 
DOCKED: ATOM     23  C   UNL d   1      -6.982 -12.801  12.567 -0.29 +0.04    +0.066 A 
DOCKED: ATOM     24  C   UNL d   1      -9.002 -13.661  15.544 -0.17 +0.02    +0.051 C 
DOCKED: ATOM     25  N   UNL d   1      -4.691 -11.311  11.280 -0.14 -0.11    -0.248 N 
DOCKED: ATOM     26  N   UNL d   1      -3.382  -9.288  12.811 -0.08 -0.09    -0.248 N 
DOCKED: ATOM     27  N   UNL d   1      -5.249  -9.765  14.942 -0.08 -0.17    -0.248 N 
DOCKED: ATOM     28  N   UNL d   1      -6.569 -11.808  13.392 -0.17 -0.15    -0.248 N 
DOCKED: ATOM     29 FE   UNL d   1      -4.976 -10.549  13.103 -0.05 +0.00    +0.000 Fe
DOCKED: ENDROOT
DOCKED: BRANCH   6  30
DOCKED: ATOM     30  C   UNL d   1      -5.655 -13.288   8.330 -0.28 +0.04    +0.052 C 
DOCKED: BRANCH  30  31
DOCKED: ATOM     31  C   UNL d   1      -5.552 -14.747   8.761 -0.16 +0.09    +0.115 C 
DOCKED: BRANCH  31  32
DOCKED: ATOM     32  C   UNL d   1      -6.699 -15.542   8.203 -0.14 +0.23    +0.139 C 
DOCKED: ATOM     33  O   UNL d   1      -7.005 -15.451   7.022 -0.41 -1.46    -0.650 OA
DOCKED: BRANCH  32  34
DOCKED: ATOM     34  O   UNL d   1      -7.402 -16.363   9.002 -0.22 -1.80    -0.776 OA
DOCKED: ATOM     35  H   UNL d   1      -7.153 -16.438   9.934 -0.00 +0.22    +0.167 HD
DOCKED: ENDBRANCH  32  34
DOCKED: ENDBRANCH  31  32
DOCKED: ENDBRANCH  30  31
DOCKED: ENDBRANCH   6  30
DOCKED: BRANCH  22  36
DOCKED: ATOM     36  C   UNL d   1      -8.541 -14.887  12.693 -0.14 +0.02    +0.052 C 
DOCKED: BRANCH  36  37
DOCKED: ATOM     37  C   UNL d   1      -7.535 -16.027  12.739 -0.13 +0.05    +0.115 C 
DOCKED: BRANCH  37  38
DOCKED: ATOM     38  C   UNL d   1      -7.896 -17.105  11.756 -0.14 +0.10    +0.139 C 
DOCKED: ATOM     39  O   UNL d   1      -7.163 -18.067  11.586 +0.02 -0.40    -0.650 OA
DOCKED: BRANCH  38  40
DOCKED: ATOM     40  O   UNL d   1      -9.036 -17.013  11.049 -0.35 -1.09    -0.776 OA
DOCKED: ATOM     41  H   UNL d   1      -9.096 -16.363  10.335 -0.41 +0.37    +0.167 HD
DOCKED: ENDBRANCH  38  40
DOCKED: ENDBRANCH  37  38
DOCKED: ENDBRANCH  36  37
DOCKED: ENDBRANCH  22  36
DOCKED: BRANCH  12  42
DOCKED: ATOM     42  C   UNL d   1      -0.691  -6.941  13.915 -0.26 +0.00    +0.004 C 
DOCKED: ATOM     43  C   UNL d   1      -0.874  -5.616  13.842 -0.42 -0.00    +0.012 C 
DOCKED: ENDBRANCH  12  42
DOCKED: BRANCH  17  44
DOCKED: ATOM     44  C   UNL d   1      -7.179  -9.118  18.022 -0.14 +0.00    +0.004 C 
DOCKED: ATOM     45  C   UNL d   1      -8.470  -8.835  17.816 -0.22 +0.00    +0.012 C 
DOCKED: ENDBRANCH  17  44
DOCKED: TORSDOF 10
DOCKED: TER
DOCKED: ENDMDL
________________________________________________________________________________


	BEGINNING GENETIC ALGORITHM DOCKING 45 of 100
Run: 45 Seed: 933238809 1148987310 [ Run 45 of 100 GA/GALS ]
Beginning LAMARCKIAN GENETIC ALGORITHM (LGA), with a maximum of 25000000 energy evaluations.

Final-Value: -13.947


	FINAL GENETIC ALGORITHM DOCKED STATE
	_______________________________________________


Detailed state:  trans -5.266 -11.642 12.392 quatxyzw -0.617775 -0.552501 0.039277 -0.558170 center -0.174 -0.001 -0.047 ntor 10 132.5489 169.2783 -171.6322 -99.2705 -121.8697 85.2743 -18.4479 -13.0275 -26.2333 7.9267
State:	 -5.266 -11.642  12.392  -0.745 -0.666  0.047 -112.141    132.55  169.28 -171.63  -99.27 -121.87   85.27  -18.45  -13.03  -26.23    7.93

DOCKED: MODEL       45
DOCKED: USER    Run = 45
DOCKED: USER    DPF = D:/Protein_go_brrr/autodock/final/AncB/heme_Fe/dock.dpf
DOCKED: USER  
DOCKED: USER    Estimated Free Energy of Binding    =  -10.59 kcal/mol  [=(1)+(2)+(3)-(4)]
DOCKED: USER    Estimated Inhibition Constant, Ki   =   17.15 nM (nanomolar)  [Temperature = 298.15 K]
DOCKED: USER    
DOCKED: USER    (1) Final Intermolecular Energy     =  -13.58 kcal/mol
DOCKED: USER        vdW + Hbond + desolv Energy     =   -9.41 kcal/mol
DOCKED: USER        Electrostatic Energy            =   -4.17 kcal/mol
DOCKED: USER    (2) Final Total Internal Energy     =   -0.37 kcal/mol
DOCKED: USER    (3) Torsional Free Energy           =   +2.98 kcal/mol
DOCKED: USER    (4) Unbound System's Energy  [=(2)] =   -0.37 kcal/mol
DOCKED: USER    
DOCKED: USER    
DOCKED: USER    NEWDPF move heme_Fe_opt.pdbqt
DOCKED: USER    NEWDPF about -0.174000 -0.001000 -0.047000
DOCKED: USER    NEWDPF tran0 -5.266127 -11.641950 12.391505
DOCKED: USER    NEWDPF quaternion0 -0.617775 -0.552501 0.039277 -0.558170
DOCKED: USER    NEWDPF axisangle0 -0.744553 -0.665883 0.047337 -112.141319
DOCKED: USER    NEWDPF quat0 -0.744553 -0.665883 0.047337 -112.141319
DOCKED: USER    NEWDPF dihe0 132.55 169.28 -171.63 -99.27 -121.87 85.27 -18.45 -13.03 -26.23 7.93 
DOCKED: USER  keepresnum = 1 
DOCKED: USER  
DOCKED: REMARK  10 active torsions:
DOCKED: REMARK  status: ('A' for Active; 'I' for Inactive)
DOCKED: REMARK    1  A    between atoms: C_6  and  C_10 
DOCKED: REMARK    2  A    between atoms: C_10  and  C_11 
DOCKED: REMARK    3  A    between atoms: C_11  and  C_12 
DOCKED: REMARK    4  A    between atoms: C_12  and  O_14 
DOCKED: REMARK    5  A    between atoms: C_17  and  C_20 
DOCKED: REMARK    6  A    between atoms: C_24  and  C_27 
DOCKED: REMARK    7  A    between atoms: C_31  and  C_34 
DOCKED: REMARK    8  A    between atoms: C_34  and  C_35 
DOCKED: REMARK    9  A    between atoms: C_35  and  C_36 
DOCKED: REMARK   10  A    between atoms: C_36  and  O_38 
DOCKED: USER                              x       y       z     vdW  Elec       q    Type
DOCKED: USER                           _______ _______ _______ _____ _____    ______ ____
DOCKED: ROOT
DOCKED: ATOM      1  C   UNL d   1      -6.423 -12.751  11.110 -0.29 +0.04    +0.064 C 
DOCKED: ATOM      2  C   UNL d   1      -7.007 -11.000  15.695 -0.16 +0.04    +0.064 A 
DOCKED: ATOM      3  C   UNL d   1      -3.252  -8.090  14.988 -0.18 +0.01    +0.064 C 
DOCKED: ATOM      4  C   UNL d   1      -2.604  -9.846  10.585 -0.30 +0.02    +0.064 C 
DOCKED: ATOM      5  C   UNL d   1      -6.884 -12.588  12.496 -0.29 +0.04    +0.066 A 
DOCKED: ATOM      6  C   UNL d   1      -7.880 -13.343  13.092 -0.32 -0.01    -0.021 A 
DOCKED: ATOM      7  C   UNL d   1      -8.045 -12.854  14.364 -0.25 -0.01    -0.025 A 
DOCKED: ATOM      8  C   UNL d   1      -7.141 -11.817  14.496 -0.22 +0.04    +0.066 A 
DOCKED: ATOM      9  C   UNL d   1      -9.003 -13.371  15.392 -0.19 +0.02    +0.051 C 
DOCKED: ATOM     10  C   UNL d   1      -6.105 -10.033  15.869 -0.11 +0.04    +0.066 A 
DOCKED: ATOM     11  C   UNL d   1      -6.076  -9.191  16.984 -0.14 -0.01    -0.021 A 
DOCKED: ATOM     12  C   UNL d   1      -5.012  -8.331  16.796 -0.16 +0.00    +0.000 A 
DOCKED: ATOM     13  C   UNL d   1      -4.447  -8.691  15.560 -0.15 +0.03    +0.070 A 
DOCKED: ATOM     14  C   UNL d   1      -7.056  -9.162  18.139 -0.11 +0.00    +0.052 C 
DOCKED: ATOM     15  C   UNL d   1      -2.734  -8.397  13.775 -0.11 +0.02    +0.066 A 
DOCKED: ATOM     16  C   UNL d   1      -1.536  -7.873  13.307 -0.21 -0.00    -0.021 A 
DOCKED: ATOM     17  C   UNL d   1      -1.349  -8.375  12.036 -0.26 +0.00    +0.000 A 
DOCKED: ATOM     18  C   UNL d   1      -2.442  -9.193  11.757 -0.20 +0.02    +0.070 A 
DOCKED: ATOM     19  C   UNL d   1      -0.614  -6.916  14.015 -0.23 +0.00    +0.052 C 
DOCKED: ATOM     20  C   UNL d   1      -3.709 -10.763  10.279 -0.24 +0.02    +0.066 A 
DOCKED: ATOM     21  C   UNL d   1      -3.998 -11.287   9.011 -0.24 -0.01    -0.025 A 
DOCKED: ATOM     22  C   UNL d   1      -5.082 -12.122   9.186 -0.25 -0.01    -0.021 A 
DOCKED: ATOM     23  C   UNL d   1      -5.414 -12.070  10.545 -0.23 +0.03    +0.066 A 
DOCKED: ATOM     24  C   UNL d   1      -3.301 -11.018   7.698 -0.29 +0.02    +0.051 C 
DOCKED: ATOM     25  N   UNL d   1      -6.429 -11.664  13.361 -0.17 -0.15    -0.248 N 
DOCKED: ATOM     26  N   UNL d   1      -5.118  -9.722  14.991 -0.10 -0.16    -0.248 N 
DOCKED: ATOM     27  N   UNL d   1      -3.272  -9.242  12.841 -0.09 -0.09    -0.248 N 
DOCKED: ATOM     28  N   UNL d   1      -4.601 -11.204  11.198 -0.14 -0.11    -0.248 N 
DOCKED: ATOM     29 FE   UNL d   1      -4.858 -10.463  13.093 -0.05 +0.00    +0.000 Fe
DOCKED: ENDROOT
DOCKED: BRANCH   6  30
DOCKED: ATOM     30  C   UNL d   1      -8.626 -14.486  12.493 +0.05 +0.02    +0.052 C 
DOCKED: BRANCH  30  31
DOCKED: ATOM     31  C   UNL d   1      -7.681 -15.639  12.173 -0.17 +0.06    +0.115 C 
DOCKED: BRANCH  31  32
DOCKED: ATOM     32  C   UNL d   1      -8.451 -16.919  12.000 -0.17 +0.10    +0.139 C 
DOCKED: ATOM     33  O   UNL d   1      -8.208 -17.892  12.700 +0.02 -0.32    -0.650 OA
DOCKED: BRANCH  32  34
DOCKED: ATOM     34  O   UNL d   1      -9.418 -17.004  11.071 -0.43 -1.17    -0.776 OA
DOCKED: ATOM     35  H   UNL d   1     -10.075 -16.296  11.011 -0.56 +0.22    +0.167 HD
DOCKED: ENDBRANCH  32  34
DOCKED: ENDBRANCH  31  32
DOCKED: ENDBRANCH  30  31
DOCKED: ENDBRANCH   6  30
DOCKED: BRANCH  22  36
DOCKED: ATOM     36  C   UNL d   1      -5.788 -12.887   8.098 -0.32 +0.04    +0.052 C 
DOCKED: BRANCH  36  37
DOCKED: ATOM     37  C   UNL d   1      -5.409 -14.358   8.176 -0.17 +0.10    +0.115 C 
DOCKED: BRANCH  37  38
DOCKED: ATOM     38  C   UNL d   1      -6.333 -15.198   7.340 -0.22 +0.22    +0.139 C 
DOCKED: ATOM     39  O   UNL d   1      -6.127 -15.355   6.146 -0.43 -1.57    -0.650 OA
DOCKED: BRANCH  38  40
DOCKED: ATOM     40  O   UNL d   1      -7.404 -15.783   7.906 -0.37 -2.04    -0.776 OA
DOCKED: ATOM     41  H   UNL d   1      -7.482 -15.791   8.870 +0.00 +0.38    +0.167 HD
DOCKED: ENDBRANCH  38  40
DOCKED: ENDBRANCH  37  38
DOCKED: ENDBRANCH  36  37
DOCKED: ENDBRANCH  22  36
DOCKED: BRANCH  12  42
DOCKED: ATOM     42  C   UNL d   1      -4.611  -7.246  17.744 -0.13 -0.00    +0.004 C 
DOCKED: ATOM     43  C   UNL d   1      -4.520  -5.974  17.336 -0.21 -0.00    +0.012 C 
DOCKED: ENDBRANCH  12  42
DOCKED: BRANCH  17  44
DOCKED: ATOM     44  C   UNL d   1      -0.190  -8.107  11.155 -0.29 +0.00    +0.004 C 
DOCKED: ATOM     45  C   UNL d   1       0.281  -6.865  11.002 -0.34 +0.00    +0.012 C 
DOCKED: ENDBRANCH  17  44
DOCKED: TORSDOF 10
DOCKED: TER
DOCKED: ENDMDL
________________________________________________________________________________


	BEGINNING GENETIC ALGORITHM DOCKING 46 of 100
Run: 46 Seed: 1055951194 701703578 [ Run 46 of 100 GA/GALS ]
Beginning LAMARCKIAN GENETIC ALGORITHM (LGA), with a maximum of 25000000 energy evaluations.

Final-Value: -14.204


	FINAL GENETIC ALGORITHM DOCKED STATE
	_______________________________________________


Detailed state:  trans -5.401 -11.334 11.991 quatxyzw 0.571470 0.019632 0.506995 -0.644975 center -0.174 -0.001 -0.047 ntor 10 135.5207 -105.2031 31.1598 58.4583 -80.5323 127.1466 16.1697 59.7749 -48.8123 155.7505
State:	 -5.401 -11.334  11.991   0.748  0.026  0.663 -99.672    135.52 -105.20   31.16   58.46  -80.53  127.15   16.17   59.77  -48.81  155.75

DOCKED: MODEL       46
DOCKED: USER    Run = 46
DOCKED: USER    DPF = D:/Protein_go_brrr/autodock/final/AncB/heme_Fe/dock.dpf
DOCKED: USER  
DOCKED: USER    Estimated Free Energy of Binding    =   -9.30 kcal/mol  [=(1)+(2)+(3)-(4)]
DOCKED: USER    Estimated Inhibition Constant, Ki   =  151.94 nM (nanomolar)  [Temperature = 298.15 K]
DOCKED: USER    
DOCKED: USER    (1) Final Intermolecular Energy     =  -12.28 kcal/mol
DOCKED: USER        vdW + Hbond + desolv Energy     =   -8.26 kcal/mol
DOCKED: USER        Electrostatic Energy            =   -4.03 kcal/mol
DOCKED: USER    (2) Final Total Internal Energy     =   -1.92 kcal/mol
DOCKED: USER    (3) Torsional Free Energy           =   +2.98 kcal/mol
DOCKED: USER    (4) Unbound System's Energy  [=(2)] =   -1.92 kcal/mol
DOCKED: USER    
DOCKED: USER    
DOCKED: USER    NEWDPF move heme_Fe_opt.pdbqt
DOCKED: USER    NEWDPF about -0.174000 -0.001000 -0.047000
DOCKED: USER    NEWDPF tran0 -5.401310 -11.334198 11.990835
DOCKED: USER    NEWDPF quaternion0 0.571470 0.019632 0.506995 -0.644975
DOCKED: USER    NEWDPF axisangle0 0.747797 0.025690 0.663430 -99.672386
DOCKED: USER    NEWDPF quat0 0.747797 0.025690 0.663430 -99.672386
DOCKED: USER    NEWDPF dihe0 135.52 -105.20 31.16 58.46 -80.53 127.15 16.17 59.77 -48.81 155.75 
DOCKED: USER  keepresnum = 1 
DOCKED: USER  
DOCKED: REMARK  10 active torsions:
DOCKED: REMARK  status: ('A' for Active; 'I' for Inactive)
DOCKED: REMARK    1  A    between atoms: C_6  and  C_10 
DOCKED: REMARK    2  A    between atoms: C_10  and  C_11 
DOCKED: REMARK    3  A    between atoms: C_11  and  C_12 
DOCKED: REMARK    4  A    between atoms: C_12  and  O_14 
DOCKED: REMARK    5  A    between atoms: C_17  and  C_20 
DOCKED: REMARK    6  A    between atoms: C_24  and  C_27 
DOCKED: REMARK    7  A    between atoms: C_31  and  C_34 
DOCKED: REMARK    8  A    between atoms: C_34  and  C_35 
DOCKED: REMARK    9  A    between atoms: C_35  and  C_36 
DOCKED: REMARK   10  A    between atoms: C_36  and  O_38 
DOCKED: USER                              x       y       z     vdW  Elec       q    Type
DOCKED: USER                           _______ _______ _______ _____ _____    ______ ____
DOCKED: ROOT
DOCKED: ATOM      1  C   UNL d   1      -6.003 -13.046  11.033 -0.26 +0.03    +0.064 C 
DOCKED: ATOM      2  C   UNL d   1      -2.249  -9.880  10.472 -0.25 +0.01    +0.064 A 
DOCKED: ATOM      3  C   UNL d   1      -3.200  -8.089  14.826 -0.17 +0.01    +0.064 C 
DOCKED: ATOM      4  C   UNL d   1      -6.903 -11.073  15.345 -0.20 +0.04    +0.064 C 
DOCKED: ATOM      5  C   UNL d   1      -4.911 -12.265  10.436 -0.19 +0.03    +0.066 A 
DOCKED: ATOM      6  C   UNL d   1      -4.439 -12.424   9.144 -0.19 -0.01    -0.021 A 
DOCKED: ATOM      7  C   UNL d   1      -3.394 -11.547   8.990 -0.21 -0.01    -0.025 A 
DOCKED: ATOM      8  C   UNL d   1      -3.268 -10.885  10.196 -0.20 +0.02    +0.066 A 
DOCKED: ATOM      9  C   UNL d   1      -2.583 -11.350   7.746 -0.33 +0.01    +0.051 C 
DOCKED: ATOM     10  C   UNL d   1      -2.142  -9.187  11.606 -0.22 +0.02    +0.066 A 
DOCKED: ATOM     11  C   UNL d   1      -1.087  -8.314  11.884 -0.25 -0.00    -0.021 A 
DOCKED: ATOM     12  C   UNL d   1      -1.329  -7.797  13.141 -0.23 +0.00    +0.000 A 
DOCKED: ATOM     13  C   UNL d   1      -2.526  -8.393  13.573 -0.14 +0.02    +0.070 A 
DOCKED: ATOM     14  C   UNL d   1       0.129  -8.038  11.022 -0.24 +0.01    +0.052 C 
DOCKED: ATOM     15  C   UNL d   1      -4.325  -8.698  15.269 -0.10 +0.03    +0.066 A 
DOCKED: ATOM     16  C   UNL d   1      -4.993  -8.310  16.423 -0.17 -0.00    -0.021 A 
DOCKED: ATOM     17  C   UNL d   1      -6.059  -9.172  16.577 -0.12 +0.00    +0.000 A 
DOCKED: ATOM     18  C   UNL d   1      -6.014 -10.069  15.513 -0.09 +0.05    +0.070 A 
DOCKED: ATOM     19  C   UNL d   1      -4.631  -7.190  17.361 -0.15 -0.01    +0.052 C 
DOCKED: ATOM     20  C   UNL d   1      -6.923 -11.998  14.206 -0.21 +0.03    +0.066 A 
DOCKED: ATOM     21  C   UNL d   1      -7.706 -13.158  14.118 -0.23 -0.01    -0.025 A 
DOCKED: ATOM     22  C   UNL d   1      -7.444 -13.697  12.876 -0.28 -0.01    -0.021 A 
DOCKED: ATOM     23  C   UNL d   1      -6.511 -12.854  12.260 -0.24 +0.03    +0.066 A 
DOCKED: ATOM     24  C   UNL d   1      -8.651 -13.738  15.144 -0.18 +0.02    +0.051 C 
DOCKED: ATOM     25  N   UNL d   1      -4.199 -11.317  11.071 -0.11 -0.09    -0.248 N 
DOCKED: ATOM     26  N   UNL d   1      -3.017  -9.247  12.642 -0.11 -0.08    -0.248 N 
DOCKED: ATOM     27  N   UNL d   1      -4.974  -9.752  14.685 -0.09 -0.16    -0.248 N 
DOCKED: ATOM     28  N   UNL d   1      -6.164 -11.843  13.094 -0.15 -0.14    -0.248 N 
DOCKED: ATOM     29 FE   UNL d   1      -4.592 -10.546  12.869 -0.05 +0.00    +0.000 Fe
DOCKED: ENDROOT
DOCKED: BRANCH   6  30
DOCKED: ATOM     30  C   UNL d   1      -4.966 -13.346   8.098 -0.21 +0.03    +0.052 C 
DOCKED: BRANCH  30  31
DOCKED: ATOM     31  C   UNL d   1      -6.491 -13.374   8.122 -0.28 +0.10    +0.115 C 
DOCKED: BRANCH  31  32
DOCKED: ATOM     32  C   UNL d   1      -7.007 -14.567   7.365 -0.26 +0.23    +0.139 C 
DOCKED: ATOM     33  O   UNL d   1      -7.083 -14.545   6.145 +0.02 -1.56    -0.650 OA
DOCKED: BRANCH  32  34
DOCKED: ATOM     34  O   UNL d   1      -7.390 -15.672   8.027 -0.34 -1.93    -0.776 OA
DOCKED: ATOM     35  H   UNL d   1      -6.833 -16.007   8.744 +0.03 +0.28    +0.167 HD
DOCKED: ENDBRANCH  32  34
DOCKED: ENDBRANCH  31  32
DOCKED: ENDBRANCH  30  31
DOCKED: ENDBRANCH   6  30
DOCKED: BRANCH  22  36
DOCKED: ATOM     36  C   UNL d   1      -8.021 -14.978  12.333 -0.19 +0.02    +0.052 C 
DOCKED: BRANCH  36  37
DOCKED: ATOM     37  C   UNL d   1      -6.949 -16.058  12.317 -0.11 +0.05    +0.115 C 
DOCKED: BRANCH  37  38
DOCKED: ATOM     38  C   UNL d   1      -6.732 -16.581  10.925 -0.12 +0.11    +0.139 C 
DOCKED: ATOM     39  O   UNL d   1      -5.612 -16.610  10.436 +0.02 -0.41    -0.650 OA
DOCKED: BRANCH  38  40
DOCKED: ATOM     40  O   UNL d   1      -7.778 -17.019  10.202 -0.04 -1.21    -0.776 OA
DOCKED: ATOM     41  H   UNL d   1      -8.390 -16.374   9.822 -0.29 +0.42    +0.167 HD
DOCKED: ENDBRANCH  38  40
DOCKED: ENDBRANCH  37  38
DOCKED: ENDBRANCH  36  37
DOCKED: ENDBRANCH  22  36
DOCKED: BRANCH  12  42
DOCKED: ATOM     42  C   UNL d   1      -0.444  -6.821  13.850 -0.26 +0.00    +0.004 C 
DOCKED: ATOM     43  C   UNL d   1      -0.473  -5.517  13.545 -0.44 -0.00    +0.012 C 
DOCKED: ENDBRANCH  12  42
DOCKED: BRANCH  17  44
DOCKED: ATOM     44  C   UNL d   1      -7.068  -9.126  17.660 -0.17 +0.00    +0.004 C 
DOCKED: ATOM     45  C   UNL d   1      -8.339  -8.806  17.398 -0.27 +0.00    +0.012 C 
DOCKED: ENDBRANCH  17  44
DOCKED: TORSDOF 10
DOCKED: TER
DOCKED: ENDMDL
________________________________________________________________________________


	BEGINNING GENETIC ALGORITHM DOCKING 47 of 100
Run: 47 Seed: 1141599420 718063357 [ Run 47 of 100 GA/GALS ]
Beginning LAMARCKIAN GENETIC ALGORITHM (LGA), with a maximum of 25000000 energy evaluations.

Final-Value: -14.121


	FINAL GENETIC ALGORITHM DOCKED STATE
	_______________________________________________


Detailed state:  trans -4.867 -11.409 12.168 quatxyzw -0.627590 -0.555618 0.037731 -0.544055 center -0.174 -0.001 -0.047 ntor 10 117.8448 -174.8063 -167.5984 -101.4401 -114.4744 30.1336 6.8564 -23.8940 9.6663 34.9992
State:	 -4.867 -11.409  12.168  -0.748 -0.662  0.045 -114.080    117.84 -174.81 -167.60 -101.44 -114.47   30.13    6.86  -23.89    9.67   35.00

DOCKED: MODEL       47
DOCKED: USER    Run = 47
DOCKED: USER    DPF = D:/Protein_go_brrr/autodock/final/AncB/heme_Fe/dock.dpf
DOCKED: USER  
DOCKED: USER    Estimated Free Energy of Binding    =   -9.72 kcal/mol  [=(1)+(2)+(3)-(4)]
DOCKED: USER    Estimated Inhibition Constant, Ki   =   75.34 nM (nanomolar)  [Temperature = 298.15 K]
DOCKED: USER    
DOCKED: USER    (1) Final Intermolecular Energy     =  -12.70 kcal/mol
DOCKED: USER        vdW + Hbond + desolv Energy     =   -8.99 kcal/mol
DOCKED: USER        Electrostatic Energy            =   -3.71 kcal/mol
DOCKED: USER    (2) Final Total Internal Energy     =   -1.42 kcal/mol
DOCKED: USER    (3) Torsional Free Energy           =   +2.98 kcal/mol
DOCKED: USER    (4) Unbound System's Energy  [=(2)] =   -1.42 kcal/mol
DOCKED: USER    
DOCKED: USER    
DOCKED: USER    NEWDPF move heme_Fe_opt.pdbqt
DOCKED: USER    NEWDPF about -0.174000 -0.001000 -0.047000
DOCKED: USER    NEWDPF tran0 -4.866564 -11.409267 12.168235
DOCKED: USER    NEWDPF quaternion0 -0.627590 -0.555618 0.037731 -0.544055
DOCKED: USER    NEWDPF axisangle0 -0.747977 -0.662199 0.044968 -114.079780
DOCKED: USER    NEWDPF quat0 -0.747977 -0.662199 0.044968 -114.079780
DOCKED: USER    NEWDPF dihe0 117.84 -174.81 -167.60 -101.44 -114.47 30.13 6.86 -23.89 9.67 35.00 
DOCKED: USER  keepresnum = 1 
DOCKED: USER  
DOCKED: REMARK  10 active torsions:
DOCKED: REMARK  status: ('A' for Active; 'I' for Inactive)
DOCKED: REMARK    1  A    between atoms: C_6  and  C_10 
DOCKED: REMARK    2  A    between atoms: C_10  and  C_11 
DOCKED: REMARK    3  A    between atoms: C_11  and  C_12 
DOCKED: REMARK    4  A    between atoms: C_12  and  O_14 
DOCKED: REMARK    5  A    between atoms: C_17  and  C_20 
DOCKED: REMARK    6  A    between atoms: C_24  and  C_27 
DOCKED: REMARK    7  A    between atoms: C_31  and  C_34 
DOCKED: REMARK    8  A    between atoms: C_34  and  C_35 
DOCKED: REMARK    9  A    between atoms: C_35  and  C_36 
DOCKED: REMARK   10  A    between atoms: C_36  and  O_38 
DOCKED: USER                              x       y       z     vdW  Elec       q    Type
DOCKED: USER                           _______ _______ _______ _____ _____    ______ ____
DOCKED: ROOT
DOCKED: ATOM      1  C   UNL d   1      -6.004 -12.544  10.892 -0.28 +0.03    +0.064 C 
DOCKED: ATOM      2  C   UNL d   1      -6.673 -10.667  15.415 -0.14 +0.04    +0.064 A 
DOCKED: ATOM      3  C   UNL d   1      -2.881  -7.805  14.714 -0.20 +0.01    +0.064 C 
DOCKED: ATOM      4  C   UNL d   1      -2.152  -9.681  10.374 -0.31 +0.01    +0.064 C 
DOCKED: ATOM      5  C   UNL d   1      -6.494 -12.340  12.262 -0.27 +0.04    +0.066 A 
DOCKED: ATOM      6  C   UNL d   1      -7.509 -13.072  12.856 -0.33 -0.01    -0.021 A 
DOCKED: ATOM      7  C   UNL d   1      -7.697 -12.548  14.111 -0.28 -0.01    -0.025 A 
DOCKED: ATOM      8  C   UNL d   1      -6.787 -11.515  14.235 -0.23 +0.04    +0.066 A 
DOCKED: ATOM      9  C   UNL d   1      -8.681 -13.031  15.131 -0.22 +0.02    +0.051 C 
DOCKED: ATOM     10  C   UNL d   1      -5.768  -9.702  15.583 -0.05 +0.05    +0.066 A 
DOCKED: ATOM     11  C   UNL d   1      -5.756  -8.832  16.675 -0.15 -0.01    -0.021 A 
DOCKED: ATOM     12  C   UNL d   1      -4.682  -7.985  16.488 -0.18 +0.00    +0.000 A 
DOCKED: ATOM     13  C   UNL d   1      -4.092  -8.382  15.275 -0.11 +0.02    +0.070 A 
DOCKED: ATOM     14  C   UNL d   1      -6.761  -8.765  17.808 -0.15 +0.00    +0.052 C 
DOCKED: ATOM     15  C   UNL d   1      -2.340  -8.148  13.521 -0.14 +0.01    +0.066 A 
DOCKED: ATOM     16  C   UNL d   1      -1.128  -7.644  13.066 -0.23 -0.00    -0.021 A 
DOCKED: ATOM     17  C   UNL d   1      -0.917  -8.182  11.813 -0.27 +0.00    +0.000 A 
DOCKED: ATOM     18  C   UNL d   1      -2.010  -8.998  11.531 -0.23 +0.02    +0.070 A 
DOCKED: ATOM     19  C   UNL d   1      -0.213  -6.677  13.768 -0.25 +0.00    +0.052 C 
DOCKED: ATOM     20  C   UNL d   1      -3.257 -10.598  10.068 -0.24 +0.02    +0.066 A 
DOCKED: ATOM     21  C   UNL d   1      -3.523 -11.153   8.808 -0.24 -0.01    -0.025 A 
DOCKED: ATOM     22  C   UNL d   1      -4.617 -11.975   8.981 -0.23 -0.01    -0.021 A 
DOCKED: ATOM     23  C   UNL d   1      -4.978 -11.885  10.331 -0.22 +0.03    +0.066 A 
DOCKED: ATOM     24  C   UNL d   1      -2.795 -10.925   7.504 -0.37 +0.01    +0.051 C 
DOCKED: ATOM     25  N   UNL d   1      -6.051 -11.398  13.112 -0.16 -0.15    -0.248 N 
DOCKED: ATOM     26  N   UNL d   1      -4.759  -9.423  14.719 -0.08 -0.15    -0.248 N 
DOCKED: ATOM     27  N   UNL d   1      -2.863  -9.013  12.598 -0.09 -0.08    -0.248 N 
DOCKED: ATOM     28  N   UNL d   1      -4.172 -11.008  10.979 -0.14 -0.09    -0.248 N 
DOCKED: ATOM     29 FE   UNL d   1      -4.464 -10.215  12.847 -0.05 +0.00    +0.000 Fe
DOCKED: ENDROOT
DOCKED: BRANCH   6  30
DOCKED: ATOM     30  C   UNL d   1      -8.250 -14.225  12.271 -0.19 +0.02    +0.052 C 
DOCKED: BRANCH  30  31
DOCKED: ATOM     31  C   UNL d   1      -7.684 -15.546  12.781 -0.17 +0.05    +0.115 C 
DOCKED: BRANCH  31  32
DOCKED: ATOM     32  C   UNL d   1      -8.321 -16.704  12.063 -0.17 +0.09    +0.139 C 
DOCKED: ATOM     33  O   UNL d   1      -9.028 -17.498  12.667 -0.02 -0.37    -0.650 OA
DOCKED: BRANCH  32  34
DOCKED: ATOM     34  O   UNL d   1      -8.117 -16.875  10.747 -0.05 -1.00    -0.776 OA
DOCKED: ATOM     35  H   UNL d   1      -8.417 -16.191  10.132 -0.38 +0.31    +0.167 HD
DOCKED: ENDBRANCH  32  34
DOCKED: ENDBRANCH  31  32
DOCKED: ENDBRANCH  30  31
DOCKED: ENDBRANCH   6  30
DOCKED: BRANCH  22  36
DOCKED: ATOM     36  C   UNL d   1      -5.306 -12.764   7.899 -0.29 +0.03    +0.052 C 
DOCKED: BRANCH  36  37
DOCKED: ATOM     37  C   UNL d   1      -5.517 -14.197   8.363 -0.19 +0.09    +0.115 C 
DOCKED: BRANCH  37  38
DOCKED: ATOM     38  C   UNL d   1      -6.669 -14.834   7.638 -0.25 +0.21    +0.139 C 
DOCKED: ATOM     39  O   UNL d   1      -6.951 -14.499   6.497 -0.20 -1.32    -0.650 OA
DOCKED: BRANCH  38  40
DOCKED: ATOM     40  O   UNL d   1      -7.404 -15.781   8.247 -0.29 -1.97    -0.776 OA
DOCKED: ATOM     41  H   UNL d   1      -7.226 -15.991   9.174 +0.00 +0.30    +0.167 HD
DOCKED: ENDBRANCH  38  40
DOCKED: ENDBRANCH  37  38
DOCKED: ENDBRANCH  36  37
DOCKED: ENDBRANCH  22  36
DOCKED: BRANCH  12  42
DOCKED: ATOM     42  C   UNL d   1      -4.293  -6.878  17.416 -0.15 -0.00    +0.004 C 
DOCKED: ATOM     43  C   UNL d   1      -4.261  -5.606  16.996 -0.26 -0.00    +0.012 C 
DOCKED: ENDBRANCH  12  42
DOCKED: BRANCH  17  44
DOCKED: ATOM     44  C   UNL d   1       0.263  -7.945  10.950 -0.24 +0.00    +0.004 C 
DOCKED: ATOM     45  C   UNL d   1       0.720  -6.707  10.740 -0.30 +0.00    +0.012 C 
DOCKED: ENDBRANCH  17  44
DOCKED: TORSDOF 10
DOCKED: TER
DOCKED: ENDMDL
________________________________________________________________________________


	BEGINNING GENETIC ALGORITHM DOCKING 48 of 100
Run: 48 Seed: 1097290352 946274718 [ Run 48 of 100 GA/GALS ]
Beginning LAMARCKIAN GENETIC ALGORITHM (LGA), with a maximum of 25000000 energy evaluations.

Final-Value: -12.035


	FINAL GENETIC ALGORITHM DOCKED STATE
	_______________________________________________


Detailed state:  trans -3.810 -11.418 11.416 quatxyzw 0.796437 0.283747 -0.151399 0.512108 center -0.174 -0.001 -0.047 ntor 10 101.1972 -154.2475 -109.5982 -157.4492 150.8245 -83.3459 86.6922 58.8730 -8.5051 -22.5056
State:	 -3.810 -11.418  11.416   0.927  0.330 -0.176 118.391    101.20 -154.25 -109.60 -157.45  150.82  -83.35   86.69   58.87   -8.51  -22.51

DOCKED: MODEL       48
DOCKED: USER    Run = 48
DOCKED: USER    DPF = D:/Protein_go_brrr/autodock/final/AncB/heme_Fe/dock.dpf
DOCKED: USER  
DOCKED: USER    Estimated Free Energy of Binding    =   -8.37 kcal/mol  [=(1)+(2)+(3)-(4)]
DOCKED: USER    Estimated Inhibition Constant, Ki   =  730.96 nM (nanomolar)  [Temperature = 298.15 K]
DOCKED: USER    
DOCKED: USER    (1) Final Intermolecular Energy     =  -11.35 kcal/mol
DOCKED: USER        vdW + Hbond + desolv Energy     =   -7.91 kcal/mol
DOCKED: USER        Electrostatic Energy            =   -3.45 kcal/mol
DOCKED: USER    (2) Final Total Internal Energy     =   -0.68 kcal/mol
DOCKED: USER    (3) Torsional Free Energy           =   +2.98 kcal/mol
DOCKED: USER    (4) Unbound System's Energy  [=(2)] =   -0.68 kcal/mol
DOCKED: USER    
DOCKED: USER    
DOCKED: USER    NEWDPF move heme_Fe_opt.pdbqt
DOCKED: USER    NEWDPF about -0.174000 -0.001000 -0.047000
DOCKED: USER    NEWDPF tran0 -3.810447 -11.418221 11.415811
DOCKED: USER    NEWDPF quaternion0 0.796437 0.283747 -0.151399 0.512108
DOCKED: USER    NEWDPF axisangle0 0.927253 0.330353 -0.176266 118.391307
DOCKED: USER    NEWDPF quat0 0.927253 0.330353 -0.176266 118.391307
DOCKED: USER    NEWDPF dihe0 101.20 -154.25 -109.60 -157.45 150.82 -83.35 86.69 58.87 -8.51 -22.51 
DOCKED: USER  keepresnum = 1 
DOCKED: USER  
DOCKED: REMARK  10 active torsions:
DOCKED: REMARK  status: ('A' for Active; 'I' for Inactive)
DOCKED: REMARK    1  A    between atoms: C_6  and  C_10 
DOCKED: REMARK    2  A    between atoms: C_10  and  C_11 
DOCKED: REMARK    3  A    between atoms: C_11  and  C_12 
DOCKED: REMARK    4  A    between atoms: C_12  and  O_14 
DOCKED: REMARK    5  A    between atoms: C_17  and  C_20 
DOCKED: REMARK    6  A    between atoms: C_24  and  C_27 
DOCKED: REMARK    7  A    between atoms: C_31  and  C_34 
DOCKED: REMARK    8  A    between atoms: C_34  and  C_35 
DOCKED: REMARK    9  A    between atoms: C_35  and  C_36 
DOCKED: REMARK   10  A    between atoms: C_36  and  O_38 
DOCKED: USER                              x       y       z     vdW  Elec       q    Type
DOCKED: USER                           _______ _______ _______ _____ _____    ______ ____
DOCKED: ROOT
DOCKED: ATOM      1  C   UNL d   1      -5.682 -12.214  11.142 -0.26 +0.03    +0.064 C 
DOCKED: ATOM      2  C   UNL d   1      -3.670  -9.093  14.404 -0.12 +0.02    +0.064 A 
DOCKED: ATOM      3  C   UNL d   1       0.095  -8.562  11.469 -0.19 +0.01    +0.064 C 
DOCKED: ATOM      4  C   UNL d   1      -1.786 -11.660   8.347 -0.20 +0.02    +0.064 C 
DOCKED: ATOM      5  C   UNL d   1      -5.426 -11.449  12.371 -0.21 +0.03    +0.066 A 
DOCKED: ATOM      6  C   UNL d   1      -6.243 -11.453  13.489 -0.24 -0.01    -0.021 A 
DOCKED: ATOM      7  C   UNL d   1      -5.686 -10.583  14.393 -0.11 -0.02    -0.025 A 
DOCKED: ATOM      8  C   UNL d   1      -4.548 -10.082  13.791 -0.09 +0.04    +0.066 A 
DOCKED: ATOM      9  C   UNL d   1      -6.213 -10.272  15.761 -0.15 +0.03    +0.051 C 
DOCKED: ATOM     10  C   UNL d   1      -2.536  -8.636  13.870 -0.16 +0.01    +0.066 A 
DOCKED: ATOM     11  C   UNL d   1      -1.776  -7.606  14.428 -0.18 -0.00    -0.021 A 
DOCKED: ATOM     12  C   UNL d   1      -0.693  -7.422  13.592 -0.21 +0.00    +0.000 A 
DOCKED: ATOM     13  C   UNL d   1      -0.855  -8.353  12.551 -0.18 +0.01    +0.070 A 
DOCKED: ATOM     14  C   UNL d   1      -2.101  -6.789  15.662 -0.20 +0.00    +0.052 C 
DOCKED: ATOM     15  C   UNL d   1      -0.081  -9.421  10.438 -0.08 +0.01    +0.066 A 
DOCKED: ATOM     16  C   UNL d   1       0.893  -9.663   9.478 +0.05 -0.00    -0.021 A 
DOCKED: ATOM     17  C   UNL d   1       0.352 -10.554   8.574 -0.09 +0.00    +0.000 A 
DOCKED: ATOM     18  C   UNL d   1      -0.944 -10.831   9.003 -0.15 +0.01    +0.070 A 
DOCKED: ATOM     19  C   UNL d   1       2.271  -9.064   9.396 -0.10 +0.01    +0.052 C 
DOCKED: ATOM     20  C   UNL d   1      -3.134 -12.023   8.801 -0.15 +0.02    +0.066 A 
DOCKED: ATOM     21  C   UNL d   1      -4.086 -12.716   8.039 -0.18 -0.01    -0.025 A 
DOCKED: ATOM     22  C   UNL d   1      -5.183 -12.874   8.860 -0.23 -0.01    -0.021 A 
DOCKED: ATOM     23  C   UNL d   1      -4.862 -12.269  10.081 -0.19 +0.03    +0.066 A 
DOCKED: ATOM     24  C   UNL d   1      -3.979 -13.204   6.613 -0.23 +0.03    +0.051 C 
DOCKED: ATOM     25  N   UNL d   1      -4.387 -10.618  12.565 -0.12 -0.11    -0.248 N 
DOCKED: ATOM     26  N   UNL d   1      -1.982  -9.088  12.716 -0.12 -0.05    -0.248 N 
DOCKED: ATOM     27  N   UNL d   1      -1.196 -10.169  10.172 -0.10 -0.05    -0.248 N 
DOCKED: ATOM     28  N   UNL d   1      -3.628 -11.713  10.024 -0.08 -0.08    -0.248 N 
DOCKED: ATOM     29 FE   UNL d   1      -2.804 -10.401  11.368 -0.04 +0.00    +0.000 Fe
DOCKED: ENDROOT
DOCKED: BRANCH   6  30
DOCKED: ATOM     30  C   UNL d   1      -7.481 -12.256  13.699 -0.35 +0.03    +0.052 C 
DOCKED: BRANCH  30  31
DOCKED: ATOM     31  C   UNL d   1      -7.135 -13.679  14.126 -0.14 +0.04    +0.115 C 
DOCKED: BRANCH  31  32
DOCKED: ATOM     32  C   UNL d   1      -7.065 -14.585  12.928 -0.15 +0.06    +0.139 C 
DOCKED: ATOM     33  O   UNL d   1      -6.329 -15.562  12.928 +0.04 -0.24    -0.650 OA
DOCKED: BRANCH  32  34
DOCKED: ATOM     34  O   UNL d   1      -7.814 -14.328  11.842 -0.02 -0.37    -0.776 OA
DOCKED: ATOM     35  H   UNL d   1      -8.751 -14.567  11.851 -0.55 +0.06    +0.167 HD
DOCKED: ENDBRANCH  32  34
DOCKED: ENDBRANCH  31  32
DOCKED: ENDBRANCH  30  31
DOCKED: ENDBRANCH   6  30
DOCKED: BRANCH  22  36
DOCKED: ATOM     36  C   UNL d   1      -6.484 -13.526   8.472 -0.28 +0.05    +0.052 C 
DOCKED: BRANCH  36  37
DOCKED: ATOM     37  C   UNL d   1      -6.303 -15.036   8.411 -0.22 +0.14    +0.115 C 
DOCKED: BRANCH  37  38
DOCKED: ATOM     38  C   UNL d   1      -6.652 -15.566   7.049 -0.17 +0.28    +0.139 C 
DOCKED: ATOM     39  O   UNL d   1      -7.812 -15.805   6.749 -0.14 -2.05    -0.650 OA
DOCKED: BRANCH  38  40
DOCKED: ATOM     40  O   UNL d   1      -5.680 -15.784   6.146 -0.52 -1.59    -0.776 OA
DOCKED: ATOM     41  H   UNL d   1      -4.781 -15.962   6.456 +0.04 +0.20    +0.167 HD
DOCKED: ENDBRANCH  38  40
DOCKED: ENDBRANCH  37  38
DOCKED: ENDBRANCH  36  37
DOCKED: ENDBRANCH  22  36
DOCKED: BRANCH  12  42
DOCKED: ATOM     42  C   UNL d   1       0.385  -6.406  13.797 -0.25 +0.00    +0.004 C 
DOCKED: ATOM     43  C   UNL d   1       0.105  -5.096  13.808 -0.42 -0.00    +0.012 C 
DOCKED: ENDBRANCH  12  42
DOCKED: BRANCH  17  44
DOCKED: ATOM     44  C   UNL d   1       1.037 -11.119   7.390 -0.18 +0.00    +0.004 C 
DOCKED: ATOM     45  C   UNL d   1       0.763 -10.670   6.161 -0.29 +0.00    +0.012 C 
DOCKED: ENDBRANCH  17  44
DOCKED: TORSDOF 10
DOCKED: TER
DOCKED: ENDMDL
________________________________________________________________________________


	BEGINNING GENETIC ALGORITHM DOCKING 49 of 100
Run: 49 Seed: 431016995 1757057077 [ Run 49 of 100 GA/GALS ]
Beginning LAMARCKIAN GENETIC ALGORITHM (LGA), with a maximum of 25000000 energy evaluations.

Final-Value: -19.343


	FINAL GENETIC ALGORITHM DOCKED STATE
	_______________________________________________


Detailed state:  trans -0.379 -0.964 -8.924 quatxyzw -0.617337 0.460640 -0.275848 0.574990 center -0.174 -0.001 -0.047 ntor 10 -151.2849 -7.9094 50.3998 -131.1015 85.0894 -115.8007 -0.2930 -66.4767 -153.8166 7.3669
State:	 -0.379  -0.964  -8.924  -0.755  0.563 -0.337 109.802   -151.28   -7.91   50.40 -131.10   85.09 -115.80   -0.29  -66.48 -153.82    7.37

DOCKED: MODEL       49
DOCKED: USER    Run = 49
DOCKED: USER    DPF = D:/Protein_go_brrr/autodock/final/AncB/heme_Fe/dock.dpf
DOCKED: USER  
DOCKED: USER    Estimated Free Energy of Binding    =  -14.16 kcal/mol  [=(1)+(2)+(3)-(4)]
DOCKED: USER    Estimated Inhibition Constant, Ki   =   42.00 pM (picomolar)  [Temperature = 298.15 K]
DOCKED: USER    
DOCKED: USER    (1) Final Intermolecular Energy     =  -17.14 kcal/mol
DOCKED: USER        vdW + Hbond + desolv Energy     =  -13.90 kcal/mol
DOCKED: USER        Electrostatic Energy            =   -3.24 kcal/mol
DOCKED: USER    (2) Final Total Internal Energy     =   -2.20 kcal/mol
DOCKED: USER    (3) Torsional Free Energy           =   +2.98 kcal/mol
DOCKED: USER    (4) Unbound System's Energy  [=(2)] =   -2.20 kcal/mol
DOCKED: USER    
DOCKED: USER    
DOCKED: USER    NEWDPF move heme_Fe_opt.pdbqt
DOCKED: USER    NEWDPF about -0.174000 -0.001000 -0.047000
DOCKED: USER    NEWDPF tran0 -0.379159 -0.963541 -8.924283
DOCKED: USER    NEWDPF quaternion0 -0.617337 0.460640 -0.275848 0.574990
DOCKED: USER    NEWDPF axisangle0 -0.754543 0.563019 -0.337157 109.802184
DOCKED: USER    NEWDPF quat0 -0.754543 0.563019 -0.337157 109.802184
DOCKED: USER    NEWDPF dihe0 -151.28 -7.91 50.40 -131.10 85.09 -115.80 -0.29 -66.48 -153.82 7.37 
DOCKED: USER  keepresnum = 1 
DOCKED: USER  
DOCKED: REMARK  10 active torsions:
DOCKED: REMARK  status: ('A' for Active; 'I' for Inactive)
DOCKED: REMARK    1  A    between atoms: C_6  and  C_10 
DOCKED: REMARK    2  A    between atoms: C_10  and  C_11 
DOCKED: REMARK    3  A    between atoms: C_11  and  C_12 
DOCKED: REMARK    4  A    between atoms: C_12  and  O_14 
DOCKED: REMARK    5  A    between atoms: C_17  and  C_20 
DOCKED: REMARK    6  A    between atoms: C_24  and  C_27 
DOCKED: REMARK    7  A    between atoms: C_31  and  C_34 
DOCKED: REMARK    8  A    between atoms: C_34  and  C_35 
DOCKED: REMARK    9  A    between atoms: C_35  and  C_36 
DOCKED: REMARK   10  A    between atoms: C_36  and  O_38 
DOCKED: USER                              x       y       z     vdW  Elec       q    Type
DOCKED: USER                           _______ _______ _______ _____ _____    ______ ____
DOCKED: ROOT
DOCKED: ATOM      1  C   UNL d   1      -1.266  -0.983 -10.775 -0.34 +0.05    +0.064 C 
DOCKED: ATOM      2  C   UNL d   1       3.263  -1.999  -9.075 -0.45 +0.02    +0.064 A 
DOCKED: ATOM      3  C   UNL d   1       1.482  -2.147  -4.617 -0.43 +0.01    +0.064 C 
DOCKED: ATOM      4  C   UNL d   1      -2.889  -1.060  -6.229 -0.48 +0.02    +0.064 C 
DOCKED: ATOM      5  C   UNL d   1       0.189  -1.173 -10.701 -0.12 +0.04    +0.066 A 
DOCKED: ATOM      6  C   UNL d   1       1.053  -1.084 -11.780 -0.23 -0.01    -0.021 A 
DOCKED: ATOM      7  C   UNL d   1       2.310  -1.370 -11.308 -0.38 -0.01    -0.025 A 
DOCKED: ATOM      8  C   UNL d   1       2.165  -1.623  -9.957 -0.40 +0.03    +0.066 A 
DOCKED: ATOM      9  C   UNL d   1       3.575  -1.379 -12.111 -0.51 +0.01    +0.051 C 
DOCKED: ATOM     10  C   UNL d   1       3.159  -2.192  -7.759 -0.42 +0.02    +0.066 A 
DOCKED: ATOM     11  C   UNL d   1       4.204  -2.664  -6.961 -0.49 -0.01    -0.021 A 
DOCKED: ATOM     12  C   UNL d   1       3.711  -2.731  -5.673 -0.50 +0.00    +0.000 A 
DOCKED: ATOM     13  C   UNL d   1       2.375  -2.301  -5.755 -0.39 +0.02    +0.070 A 
DOCKED: ATOM     14  C   UNL d   1       5.584  -3.095  -7.413 -0.38 +0.01    +0.052 C 
DOCKED: ATOM     15  C   UNL d   1       0.180  -1.783  -4.697 -0.39 +0.01    +0.066 A 
DOCKED: ATOM     16  C   UNL d   1      -0.612  -1.550  -3.580 -0.39 -0.00    -0.021 A 
DOCKED: ATOM     17  C   UNL d   1      -1.874  -1.240  -4.043 -0.41 +0.00    +0.000 A 
DOCKED: ATOM     18  C   UNL d   1      -1.823  -1.295  -5.433 -0.40 +0.02    +0.070 A 
DOCKED: ATOM     19  C   UNL d   1      -0.208  -1.639  -2.133 -0.45 +0.01    +0.052 C 
DOCKED: ATOM     20  C   UNL d   1      -2.859  -1.049  -7.697 -0.36 +0.03    +0.066 A 
DOCKED: ATOM     21  C   UNL d   1      -3.985  -1.007  -8.530 -0.27 -0.01    -0.025 A 
DOCKED: ATOM     22  C   UNL d   1      -3.499  -0.972  -9.821 -0.28 -0.02    -0.021 A 
DOCKED: ATOM     23  C   UNL d   1      -2.103  -1.002  -9.725 -0.32 +0.04    +0.066 A 
DOCKED: ATOM     24  C   UNL d   1      -5.446  -1.003  -8.142 -0.25 +0.02    +0.051 C 
DOCKED: ATOM     25  N   UNL d   1       0.874  -1.493  -9.589 -0.18 -0.14    -0.248 N 
DOCKED: ATOM     26  N   UNL d   1       2.036  -1.981  -7.028 -0.17 -0.10    -0.248 N 
DOCKED: ATOM     27  N   UNL d   1      -0.550  -1.585  -5.838 -0.25 -0.07    -0.248 N 
DOCKED: ATOM     28  N   UNL d   1      -1.719  -1.093  -8.428 -0.24 -0.11    -0.248 N 
DOCKED: ATOM     29 FE   UNL d   1       0.157  -1.537  -7.727 -0.09 +0.00    +0.000 Fe
DOCKED: ENDROOT
DOCKED: BRANCH   6  30
DOCKED: ATOM     30  C   UNL d   1       0.709  -0.725 -13.184 -0.27 +0.04    +0.052 C 
DOCKED: BRANCH  30  31
DOCKED: ATOM     31  C   UNL d   1      -0.209  -1.775 -13.801 -0.14 +0.14    +0.115 C 
DOCKED: BRANCH  31  32
DOCKED: ATOM     32  C   UNL d   1      -0.558  -1.404 -15.215 -0.12 +0.17    +0.139 C 
DOCKED: ATOM     33  O   UNL d   1       0.185  -1.702 -16.140 -0.01 -0.52    -0.650 OA
DOCKED: BRANCH  32  34
DOCKED: ATOM     34  O   UNL d   1      -1.695  -0.737 -15.477 -0.54 -1.36    -0.776 OA
DOCKED: ATOM     35  H   UNL d   1      -2.061  -0.149 -14.801 +0.02 +0.31    +0.167 HD
DOCKED: ENDBRANCH  32  34
DOCKED: ENDBRANCH  31  32
DOCKED: ENDBRANCH  30  31
DOCKED: ENDBRANCH   6  30
DOCKED: BRANCH  22  36
DOCKED: ATOM     36  C   UNL d   1      -4.333  -0.962 -11.075 -0.22 +0.06    +0.052 C 
DOCKED: BRANCH  36  37
DOCKED: ATOM     37  C   UNL d   1      -4.342   0.436 -11.674 -0.20 +0.13    +0.115 C 
DOCKED: BRANCH  37  38
DOCKED: ATOM     38  C   UNL d   1      -3.614   0.464 -12.988 -0.16 +0.22    +0.139 C 
DOCKED: ATOM     39  O   UNL d   1      -2.593   1.122 -13.123 -0.04 -0.94    -0.650 OA
DOCKED: BRANCH  38  40
DOCKED: ATOM     40  O   UNL d   1      -4.088  -0.238 -14.033 +0.23 -1.74    -0.776 OA
DOCKED: ATOM     41  H   UNL d   1      -3.681  -0.119 -14.902 +0.02 +0.35    +0.167 HD
DOCKED: ENDBRANCH  38  40
DOCKED: ENDBRANCH  37  38
DOCKED: ENDBRANCH  36  37
DOCKED: ENDBRANCH  22  36
DOCKED: BRANCH  12  42
DOCKED: ATOM     42  C   UNL d   1       4.487  -3.197  -4.483 -0.69 +0.00    +0.004 C 
DOCKED: ATOM     43  C   UNL d   1       5.062  -2.321  -3.648 -0.52 +0.00    +0.012 C 
DOCKED: ENDBRANCH  12  42
DOCKED: BRANCH  17  44
DOCKED: ATOM     44  C   UNL d   1      -3.047  -0.893  -3.208 -0.62 +0.00    +0.004 C 
DOCKED: ATOM     45  C   UNL d   1      -3.734  -1.842  -2.565 -0.66 +0.00    +0.012 C 
DOCKED: ENDBRANCH  17  44
DOCKED: TORSDOF 10
DOCKED: TER
DOCKED: ENDMDL
________________________________________________________________________________


	BEGINNING GENETIC ALGORITHM DOCKING 50 of 100
Run: 50 Seed: 765009176 105086789 [ Run 50 of 100 GA/GALS ]
Beginning LAMARCKIAN GENETIC ALGORITHM (LGA), with a maximum of 25000000 energy evaluations.

Final-Value: -14.661


	FINAL GENETIC ALGORITHM DOCKED STATE
	_______________________________________________


Detailed state:  trans -5.453 -10.836 11.979 quatxyzw -0.601200 -0.000121 -0.441110 0.666319 center -0.174 -0.001 -0.047 ntor 10 175.2251 -92.4655 49.3143 55.3416 52.0775 95.1193 -25.5322 68.3557 -157.0357 -180.0000
State:	 -5.453 -10.836  11.979  -0.806 -0.000 -0.592 96.433    175.23  -92.47   49.31   55.34   52.08   95.12  -25.53   68.36 -157.04 -180.00

DOCKED: MODEL       50
DOCKED: USER    Run = 50
DOCKED: USER    DPF = D:/Protein_go_brrr/autodock/final/AncB/heme_Fe/dock.dpf
DOCKED: USER  
DOCKED: USER    Estimated Free Energy of Binding    =   -9.54 kcal/mol  [=(1)+(2)+(3)-(4)]
DOCKED: USER    Estimated Inhibition Constant, Ki   =  101.52 nM (nanomolar)  [Temperature = 298.15 K]
DOCKED: USER    
DOCKED: USER    (1) Final Intermolecular Energy     =  -12.52 kcal/mol
DOCKED: USER        vdW + Hbond + desolv Energy     =   -8.95 kcal/mol
DOCKED: USER        Electrostatic Energy            =   -3.58 kcal/mol
DOCKED: USER    (2) Final Total Internal Energy     =   -2.14 kcal/mol
DOCKED: USER    (3) Torsional Free Energy           =   +2.98 kcal/mol
DOCKED: USER    (4) Unbound System's Energy  [=(2)] =   -2.14 kcal/mol
DOCKED: USER    
DOCKED: USER    
DOCKED: USER    NEWDPF move heme_Fe_opt.pdbqt
DOCKED: USER    NEWDPF about -0.174000 -0.001000 -0.047000
DOCKED: USER    NEWDPF tran0 -5.452623 -10.836307 11.978596
DOCKED: USER    NEWDPF quaternion0 -0.601200 -0.000121 -0.441110 0.666319
DOCKED: USER    NEWDPF axisangle0 -0.806258 -0.000163 -0.591564 96.432882
DOCKED: USER    NEWDPF quat0 -0.806258 -0.000163 -0.591564 96.432882
DOCKED: USER    NEWDPF dihe0 175.23 -92.47 49.31 55.34 52.08 95.12 -25.53 68.36 -157.04 -180.00 
DOCKED: USER  keepresnum = 1 
DOCKED: USER  
DOCKED: REMARK  10 active torsions:
DOCKED: REMARK  status: ('A' for Active; 'I' for Inactive)
DOCKED: REMARK    1  A    between atoms: C_6  and  C_10 
DOCKED: REMARK    2  A    between atoms: C_10  and  C_11 
DOCKED: REMARK    3  A    between atoms: C_11  and  C_12 
DOCKED: REMARK    4  A    between atoms: C_12  and  O_14 
DOCKED: REMARK    5  A    between atoms: C_17  and  C_20 
DOCKED: REMARK    6  A    between atoms: C_24  and  C_27 
DOCKED: REMARK    7  A    between atoms: C_31  and  C_34 
DOCKED: REMARK    8  A    between atoms: C_34  and  C_35 
DOCKED: REMARK    9  A    between atoms: C_35  and  C_36 
DOCKED: REMARK   10  A    between atoms: C_36  and  O_38 
DOCKED: USER                              x       y       z     vdW  Elec       q    Type
DOCKED: USER                           _______ _______ _______ _____ _____    ______ ____
DOCKED: ROOT
DOCKED: ATOM      1  C   UNL d   1      -6.346 -12.421  11.028 -0.26 +0.04    +0.064 C 
DOCKED: ATOM      2  C   UNL d   1      -2.264  -9.745  10.247 -0.28 +0.01    +0.064 A 
DOCKED: ATOM      3  C   UNL d   1      -2.633  -8.006  14.708 -0.19 +0.01    +0.064 C 
DOCKED: ATOM      4  C   UNL d   1      -6.644 -10.506  15.449 -0.17 +0.05    +0.064 C 
DOCKED: ATOM      5  C   UNL d   1      -5.210 -11.765  10.366 -0.23 +0.03    +0.066 A 
DOCKED: ATOM      6  C   UNL d   1      -4.864 -11.937   9.035 -0.25 -0.01    -0.021 A 
DOCKED: ATOM      7  C   UNL d   1      -3.728 -11.196   8.820 -0.24 -0.01    -0.025 A 
DOCKED: ATOM      8  C   UNL d   1      -3.424 -10.600  10.029 -0.25 +0.02    +0.066 A 
DOCKED: ATOM      9  C   UNL d   1      -2.996 -11.060   7.520 -0.35 +0.01    +0.051 C 
DOCKED: ATOM     10  C   UNL d   1      -1.979  -9.113  11.386 -0.24 +0.01    +0.066 A 
DOCKED: ATOM     11  C   UNL d   1      -0.801  -8.393  11.600 -0.25 -0.00    -0.021 A 
DOCKED: ATOM     12  C   UNL d   1      -0.875  -7.895  12.885 -0.22 +0.00    +0.000 A 
DOCKED: ATOM     13  C   UNL d   1      -2.104  -8.348  13.398 -0.17 +0.01    +0.070 A 
DOCKED: ATOM     14  C   UNL d   1       0.370  -8.245  10.650 -0.12 +0.01    +0.052 C 
DOCKED: ATOM     15  C   UNL d   1      -3.790  -8.481  15.226 -0.14 +0.02    +0.066 A 
DOCKED: ATOM     16  C   UNL d   1      -4.311  -8.052  16.440 -0.16 -0.00    -0.021 A 
DOCKED: ATOM     17  C   UNL d   1      -5.466  -8.775  16.658 -0.16 +0.00    +0.000 A 
DOCKED: ATOM     18  C   UNL d   1      -5.621  -9.632  15.570 -0.05 +0.05    +0.070 A 
DOCKED: ATOM     19  C   UNL d   1      -3.734  -7.023  17.374 -0.11 -0.00    +0.052 C 
DOCKED: ATOM     20  C   UNL d   1      -6.873 -11.379  14.292 -0.24 +0.04    +0.066 A 
DOCKED: ATOM     21  C   UNL d   1      -7.805 -12.424  14.238 -0.29 -0.01    -0.025 A 
DOCKED: ATOM     22  C   UNL d   1      -7.712 -12.948  12.965 -0.34 -0.01    -0.021 A 
DOCKED: ATOM     23  C   UNL d   1      -6.728 -12.209  12.298 -0.30 +0.04    +0.066 A 
DOCKED: ATOM     24  C   UNL d   1      -8.736 -12.915  15.323 -0.21 +0.02    +0.051 C 
DOCKED: ATOM     25  N   UNL d   1      -4.333 -10.941  10.965 -0.15 -0.10    -0.248 N 
DOCKED: ATOM     26  N   UNL d   1      -2.773  -9.098  12.487 -0.11 -0.07    -0.248 N 
DOCKED: ATOM     27  N   UNL d   1      -4.615  -9.421  14.669 -0.09 -0.14    -0.248 N 
DOCKED: ATOM     28  N   UNL d   1      -6.188 -11.283  13.127 -0.17 -0.16    -0.248 N 
DOCKED: ATOM     29 FE   UNL d   1      -4.481 -10.191  12.809 -0.06 +0.00    +0.000 Fe
DOCKED: ENDROOT
DOCKED: BRANCH   6  30
DOCKED: ATOM     30  C   UNL d   1      -5.587 -12.745   8.013 -0.31 +0.04    +0.052 C 
DOCKED: BRANCH  30  31
DOCKED: ATOM     31  C   UNL d   1      -5.492 -14.233   8.335 -0.18 +0.09    +0.115 C 
DOCKED: BRANCH  31  32
DOCKED: ATOM     32  C   UNL d   1      -6.657 -14.975   7.740 -0.24 +0.21    +0.139 C 
DOCKED: ATOM     33  O   UNL d   1      -6.936 -14.850   6.556 -0.29 -1.44    -0.650 OA
DOCKED: BRANCH  32  34
DOCKED: ATOM     34  O   UNL d   1      -7.404 -15.785   8.508 -0.29 -1.87    -0.776 OA
DOCKED: ATOM     35  H   UNL d   1      -7.140 -15.936   9.427 -0.00 +0.25    +0.167 HD
DOCKED: ENDBRANCH  32  34
DOCKED: ENDBRANCH  31  32
DOCKED: ENDBRANCH  30  31
DOCKED: ENDBRANCH   6  30
DOCKED: BRANCH  22  36
DOCKED: ATOM     36  C   UNL d   1      -8.492 -14.124  12.438 -0.09 +0.02    +0.052 C 
DOCKED: BRANCH  36  37
DOCKED: ATOM     37  C   UNL d   1      -7.811 -15.419  12.853 -0.18 +0.05    +0.115 C 
DOCKED: BRANCH  37  38
DOCKED: ATOM     38  C   UNL d   1      -7.247 -16.138  11.660 -0.14 +0.09    +0.139 C 
DOCKED: ATOM     39  O   UNL d   1      -6.078 -15.991  11.337 +0.02 -0.35    -0.650 OA
DOCKED: BRANCH  38  40
DOCKED: ATOM     40  O   UNL d   1      -8.034 -16.951  10.933 -0.05 -0.88    -0.776 OA
DOCKED: ATOM     41  H   UNL d   1      -8.556 -16.576  10.210 -0.42 +0.36    +0.167 HD
DOCKED: ENDBRANCH  38  40
DOCKED: ENDBRANCH  37  38
DOCKED: ENDBRANCH  36  37
DOCKED: ENDBRANCH  22  36
DOCKED: BRANCH  12  42
DOCKED: ATOM     42  C   UNL d   1       0.181  -7.067  13.545 -0.21 +0.00    +0.004 C 
DOCKED: ATOM     43  C   UNL d   1       0.092  -5.731  13.573 -0.38 -0.00    +0.012 C 
DOCKED: ENDBRANCH  12  42
DOCKED: BRANCH  17  44
DOCKED: ATOM     44  C   UNL d   1      -6.373  -8.639  17.820 -0.15 +0.00    +0.004 C 
DOCKED: ATOM     45  C   UNL d   1      -7.585  -8.092  17.682 -0.24 -0.00    +0.012 C 
DOCKED: ENDBRANCH  17  44
DOCKED: TORSDOF 10
DOCKED: TER
DOCKED: ENDMDL
________________________________________________________________________________


	BEGINNING GENETIC ALGORITHM DOCKING 51 of 100
Run: 51 Seed: 1609037365 1590200454 [ Run 51 of 100 GA/GALS ]
Beginning LAMARCKIAN GENETIC ALGORITHM (LGA), with a maximum of 25000000 energy evaluations.

Final-Value: -12.709


	FINAL GENETIC ALGORITHM DOCKED STATE
	_______________________________________________


Detailed state:  trans -0.486 -15.280 4.332 quatxyzw -0.835769 -0.183001 0.387612 -0.343160 center -0.174 -0.001 -0.047 ntor 10 -59.0525 -163.0749 172.4924 -147.8266 92.6463 79.9349 -125.6166 179.1419 178.6959 173.5089
State:	 -0.486 -15.280   4.332  -0.890 -0.195  0.413 -139.861    -59.05 -163.07  172.49 -147.83   92.65   79.93 -125.62  179.14  178.70  173.51

DOCKED: MODEL       51
DOCKED: USER    Run = 51
DOCKED: USER    DPF = D:/Protein_go_brrr/autodock/final/AncB/heme_Fe/dock.dpf
DOCKED: USER  
DOCKED: USER    Estimated Free Energy of Binding    =   -7.61 kcal/mol  [=(1)+(2)+(3)-(4)]
DOCKED: USER    Estimated Inhibition Constant, Ki   =    2.63 uM (micromolar)  [Temperature = 298.15 K]
DOCKED: USER    
DOCKED: USER    (1) Final Intermolecular Energy     =  -10.60 kcal/mol
DOCKED: USER        vdW + Hbond + desolv Energy     =   -7.39 kcal/mol
DOCKED: USER        Electrostatic Energy            =   -3.21 kcal/mol
DOCKED: USER    (2) Final Total Internal Energy     =   -2.11 kcal/mol
DOCKED: USER    (3) Torsional Free Energy           =   +2.98 kcal/mol
DOCKED: USER    (4) Unbound System's Energy  [=(2)] =   -2.11 kcal/mol
DOCKED: USER    
DOCKED: USER    
DOCKED: USER    NEWDPF move heme_Fe_opt.pdbqt
DOCKED: USER    NEWDPF about -0.174000 -0.001000 -0.047000
DOCKED: USER    NEWDPF tran0 -0.485510 -15.280060 4.332401
DOCKED: USER    NEWDPF quaternion0 -0.835769 -0.183001 0.387612 -0.343160
DOCKED: USER    NEWDPF axisangle0 -0.889800 -0.194831 0.412671 -139.861024
DOCKED: USER    NEWDPF quat0 -0.889800 -0.194831 0.412671 -139.861024
DOCKED: USER    NEWDPF dihe0 -59.05 -163.07 172.49 -147.83 92.65 79.93 -125.62 179.14 178.70 173.51 
DOCKED: USER  keepresnum = 1 
DOCKED: USER  
DOCKED: REMARK  10 active torsions:
DOCKED: REMARK  status: ('A' for Active; 'I' for Inactive)
DOCKED: REMARK    1  A    between atoms: C_6  and  C_10 
DOCKED: REMARK    2  A    between atoms: C_10  and  C_11 
DOCKED: REMARK    3  A    between atoms: C_11  and  C_12 
DOCKED: REMARK    4  A    between atoms: C_12  and  O_14 
DOCKED: REMARK    5  A    between atoms: C_17  and  C_20 
DOCKED: REMARK    6  A    between atoms: C_24  and  C_27 
DOCKED: REMARK    7  A    between atoms: C_31  and  C_34 
DOCKED: REMARK    8  A    between atoms: C_34  and  C_35 
DOCKED: REMARK    9  A    between atoms: C_35  and  C_36 
DOCKED: REMARK   10  A    between atoms: C_36  and  O_38 
DOCKED: USER                              x       y       z     vdW  Elec       q    Type
DOCKED: USER                           _______ _______ _______ _____ _____    ______ ____
DOCKED: ROOT
DOCKED: ATOM      1  C   UNL d   1      -2.152 -16.142   5.162 -0.07 +0.03    +0.064 C 
DOCKED: ATOM      2  C   UNL d   1       0.175 -11.818   5.724 -0.19 +0.01    +0.064 A 
DOCKED: ATOM      3  C   UNL d   1       2.592 -12.670   1.662 -0.27 +0.01    +0.064 C 
DOCKED: ATOM      4  C   UNL d   1       0.428 -16.907   1.156 -0.10 +0.01    +0.064 C 
DOCKED: ATOM      5  C   UNL d   1      -1.661 -14.884   5.741 -0.06 +0.02    +0.066 A 
DOCKED: ATOM      6  C   UNL d   1      -2.050 -14.374   6.969 -0.08 -0.01    -0.021 A 
DOCKED: ATOM      7  C   UNL d   1      -1.406 -13.171   7.122 -0.12 -0.01    -0.025 A 
DOCKED: ATOM      8  C   UNL d   1      -0.647 -12.994   5.981 -0.06 +0.02    +0.066 A 
DOCKED: ATOM      9  C   UNL d   1      -1.505 -12.261   8.308 -0.14 +0.01    +0.051 C 
DOCKED: ATOM     10  C   UNL d   1       0.960 -11.648   4.659 -0.21 +0.01    +0.066 A 
DOCKED: ATOM     11  C   UNL d   1       1.647 -10.464   4.383 -0.33 -0.00    -0.021 A 
DOCKED: ATOM     12  C   UNL d   1       2.339 -10.678   3.208 -0.34 +0.00    +0.000 A 
DOCKED: ATOM     13  C   UNL d   1       2.029 -11.992   2.819 -0.26 +0.01    +0.070 A 
DOCKED: ATOM     14  C   UNL d   1       1.593  -9.167   5.165 -0.36 +0.01    +0.052 C 
DOCKED: ATOM     15  C   UNL d   1       2.257 -13.917   1.254 -0.16 +0.01    +0.066 A 
DOCKED: ATOM     16  C   UNL d   1       2.891 -14.567   0.203 -0.15 -0.00    -0.021 A 
DOCKED: ATOM     17  C   UNL d   1       2.266 -15.788   0.053 -0.17 +0.00    +0.000 A 
DOCKED: ATOM     18  C   UNL d   1       1.261 -15.852   1.015 -0.12 +0.01    +0.070 A 
DOCKED: ATOM     19  C   UNL d   1       4.023 -14.054  -0.646 -0.27 +0.00    +0.052 C 
DOCKED: ATOM     20  C   UNL d   1      -0.600 -17.036   2.195 -0.06 +0.02    +0.066 A 
DOCKED: ATOM     21  C   UNL d   1      -1.596 -18.022   2.232 -0.05 -0.01    -0.025 A 
DOCKED: ATOM     22  C   UNL d   1      -2.312 -17.792   3.388 -0.05 -0.01    -0.021 A 
DOCKED: ATOM     23  C   UNL d   1      -1.732 -16.678   4.006 -0.06 +0.03    +0.066 A 
DOCKED: ATOM     24  C   UNL d   1      -1.870 -19.123   1.234 -0.05 +0.02    +0.051 C 
DOCKED: ATOM     25  N   UNL d   1      -0.797 -14.042   5.148 +0.08 -0.10    -0.248 N 
DOCKED: ATOM     26  N   UNL d   1       1.181 -12.582   3.698 -0.15 -0.07    -0.248 N 
DOCKED: ATOM     27  N   UNL d   1       1.283 -14.721   1.783 -0.11 -0.06    -0.248 N 
DOCKED: ATOM     28  N   UNL d   1      -0.716 -16.193   3.250 -0.06 -0.10    -0.248 N 
DOCKED: ATOM     29 FE   UNL d   1       0.233 -14.389   3.473 -0.04 +0.00    +0.000 Fe
DOCKED: ENDROOT
DOCKED: BRANCH   6  30
DOCKED: ATOM     30  C   UNL d   1      -2.970 -15.004   7.957 -0.04 +0.02    +0.052 C 
DOCKED: BRANCH  30  31
DOCKED: ATOM     31  C   UNL d   1      -4.406 -14.546   7.727 -0.09 +0.08    +0.115 C 
DOCKED: BRANCH  31  32
DOCKED: ATOM     32  C   UNL d   1      -4.819 -14.803   6.304 -0.14 +0.16    +0.139 C 
DOCKED: ATOM     33  O   UNL d   1      -5.380 -15.845   5.997 -0.53 -1.21    -0.650 OA
DOCKED: BRANCH  32  34
DOCKED: ATOM     34  O   UNL d   1      -4.573 -13.886   5.354 +0.05 -0.69    -0.776 OA
DOCKED: ATOM     35  H   UNL d   1      -4.027 -14.132   4.594 -0.43 +0.10    +0.167 HD
DOCKED: ENDBRANCH  32  34
DOCKED: ENDBRANCH  31  32
DOCKED: ENDBRANCH  30  31
DOCKED: ENDBRANCH   6  30
DOCKED: BRANCH  22  36
DOCKED: ATOM     36  C   UNL d   1      -3.516 -18.572   3.847 -0.04 +0.04    +0.052 C 
DOCKED: BRANCH  36  37
DOCKED: ATOM     37  C   UNL d   1      -4.781 -17.944   3.280 -0.16 +0.17    +0.115 C 
DOCKED: BRANCH  37  38
DOCKED: ATOM     38  C   UNL d   1      -4.458 -16.718   2.473 -0.22 +0.22    +0.139 C 
DOCKED: ATOM     39  O   UNL d   1      -4.054 -16.816   1.323 -0.13 -1.07    -0.650 OA
DOCKED: BRANCH  38  40
DOCKED: ATOM     40  O   UNL d   1      -4.610 -15.497   3.016 -0.00 -1.18    -0.776 OA
DOCKED: ATOM     41  H   UNL d   1      -4.688 -15.417   3.977 +0.02 +0.27    +0.167 HD
DOCKED: ENDBRANCH  38  40
DOCKED: ENDBRANCH  37  38
DOCKED: ENDBRANCH  36  37
DOCKED: ENDBRANCH  22  36
DOCKED: BRANCH  12  42
DOCKED: ATOM     42  C   UNL d   1       3.207  -9.667   2.529 -0.50 +0.00    +0.004 C 
DOCKED: ATOM     43  C   UNL d   1       3.201  -9.537   1.196 -0.66 -0.00    +0.012 C 
DOCKED: ENDBRANCH  12  42
DOCKED: BRANCH  17  44
DOCKED: ATOM     44  C   UNL d   1       2.621 -16.833  -0.934 -0.18 -0.00    +0.004 C 
DOCKED: ATOM     45  C   UNL d   1       1.999 -16.899  -2.115 -0.32 -0.00    +0.012 C 
DOCKED: ENDBRANCH  17  44
DOCKED: TORSDOF 10
DOCKED: TER
DOCKED: ENDMDL
________________________________________________________________________________


	BEGINNING GENETIC ALGORITHM DOCKING 52 of 100
Run: 52 Seed: 185798413 416103800 [ Run 52 of 100 GA/GALS ]
Beginning LAMARCKIAN GENETIC ALGORITHM (LGA), with a maximum of 25000000 energy evaluations.

Final-Value: -19.558


	FINAL GENETIC ALGORITHM DOCKED STATE
	_______________________________________________


Detailed state:  trans -0.319 -1.616 -9.011 quatxyzw -0.584239 -0.361982 -0.459507 -0.562573 center -0.174 -0.001 -0.047 ntor 10 -51.3074 -103.4846 73.2625 -115.5212 27.9132 86.4264 -40.3784 -26.7321 -162.4321 7.4301
State:	 -0.319  -1.616  -9.011  -0.707 -0.438 -0.556 -111.532    -51.31 -103.48   73.26 -115.52   27.91   86.43  -40.38  -26.73 -162.43    7.43

DOCKED: MODEL       52
DOCKED: USER    Run = 52
DOCKED: USER    DPF = D:/Protein_go_brrr/autodock/final/AncB/heme_Fe/dock.dpf
DOCKED: USER  
DOCKED: USER    Estimated Free Energy of Binding    =  -14.83 kcal/mol  [=(1)+(2)+(3)-(4)]
DOCKED: USER    Estimated Inhibition Constant, Ki   =   13.55 pM (picomolar)  [Temperature = 298.15 K]
DOCKED: USER    
DOCKED: USER    (1) Final Intermolecular Energy     =  -17.81 kcal/mol
DOCKED: USER        vdW + Hbond + desolv Energy     =  -14.02 kcal/mol
DOCKED: USER        Electrostatic Energy            =   -3.79 kcal/mol
DOCKED: USER    (2) Final Total Internal Energy     =   -1.75 kcal/mol
DOCKED: USER    (3) Torsional Free Energy           =   +2.98 kcal/mol
DOCKED: USER    (4) Unbound System's Energy  [=(2)] =   -1.75 kcal/mol
DOCKED: USER    
DOCKED: USER    
DOCKED: USER    NEWDPF move heme_Fe_opt.pdbqt
DOCKED: USER    NEWDPF about -0.174000 -0.001000 -0.047000
DOCKED: USER    NEWDPF tran0 -0.318606 -1.615831 -9.011285
DOCKED: USER    NEWDPF quaternion0 -0.584239 -0.361982 -0.459507 -0.562573
DOCKED: USER    NEWDPF axisangle0 -0.706671 -0.437838 -0.555800 -111.532198
DOCKED: USER    NEWDPF quat0 -0.706671 -0.437838 -0.555800 -111.532198
DOCKED: USER    NEWDPF dihe0 -51.31 -103.48 73.26 -115.52 27.91 86.43 -40.38 -26.73 -162.43 7.43 
DOCKED: USER  keepresnum = 1 
DOCKED: USER  
DOCKED: REMARK  10 active torsions:
DOCKED: REMARK  status: ('A' for Active; 'I' for Inactive)
DOCKED: REMARK    1  A    between atoms: C_6  and  C_10 
DOCKED: REMARK    2  A    between atoms: C_10  and  C_11 
DOCKED: REMARK    3  A    between atoms: C_11  and  C_12 
DOCKED: REMARK    4  A    between atoms: C_12  and  O_14 
DOCKED: REMARK    5  A    between atoms: C_17  and  C_20 
DOCKED: REMARK    6  A    between atoms: C_24  and  C_27 
DOCKED: REMARK    7  A    between atoms: C_31  and  C_34 
DOCKED: REMARK    8  A    between atoms: C_34  and  C_35 
DOCKED: REMARK    9  A    between atoms: C_35  and  C_36 
DOCKED: REMARK   10  A    between atoms: C_36  and  O_38 
DOCKED: USER                              x       y       z     vdW  Elec       q    Type
DOCKED: USER                           _______ _______ _______ _____ _____    ______ ____
DOCKED: ROOT
DOCKED: ATOM      1  C   UNL d   1      -0.930  -0.897 -10.833 -0.25 +0.05    +0.064 C 
DOCKED: ATOM      2  C   UNL d   1      -2.928  -1.083  -6.316 -0.42 +0.02    +0.064 A 
DOCKED: ATOM      3  C   UNL d   1       1.405  -2.108  -4.517 -0.42 +0.01    +0.064 C 
DOCKED: ATOM      4  C   UNL d   1       3.340  -2.036  -8.892 -0.51 +0.02    +0.064 C 
DOCKED: ATOM      5  C   UNL d   1      -1.910  -0.937  -9.739 -0.32 +0.04    +0.066 A 
DOCKED: ATOM      6  C   UNL d   1      -3.279  -0.797  -9.897 -0.29 -0.02    -0.021 A 
DOCKED: ATOM      7  C   UNL d   1      -3.833  -0.845  -8.642 -0.31 -0.01    -0.025 A 
DOCKED: ATOM      8  C   UNL d   1      -2.779  -1.013  -7.764 -0.37 +0.03    +0.066 A 
DOCKED: ATOM      9  C   UNL d   1      -5.292  -0.754  -8.317 -0.31 +0.02    +0.051 C 
DOCKED: ATOM     10  C   UNL d   1      -1.936  -1.302  -5.452 -0.41 +0.02    +0.066 A 
DOCKED: ATOM     11  C   UNL d   1      -2.091  -1.250  -4.064 -0.44 -0.00    -0.021 A 
DOCKED: ATOM     12  C   UNL d   1      -0.852  -1.525  -3.522 -0.41 +0.00    +0.000 A 
DOCKED: ATOM     13  C   UNL d   1       0.006  -1.725  -4.618 -0.38 +0.01    +0.070 A 
DOCKED: ATOM     14  C   UNL d   1      -3.344  -0.887  -3.293 -0.62 +0.01    +0.052 C 
DOCKED: ATOM     15  C   UNL d   1       2.248  -2.250  -5.567 -0.39 +0.01    +0.066 A 
DOCKED: ATOM     16  C   UNL d   1       3.551  -2.714  -5.437 -0.48 -0.00    -0.021 A 
DOCKED: ATOM     17  C   UNL d   1       4.112  -2.691  -6.697 -0.50 +0.00    +0.000 A 
DOCKED: ATOM     18  C   UNL d   1       3.137  -2.209  -7.567 -0.41 +0.02    +0.070 A 
DOCKED: ATOM     19  C   UNL d   1       4.252  -3.139  -4.174 -0.63 +0.01    +0.052 C 
DOCKED: ATOM     20  C   UNL d   1       2.320  -1.589  -9.848 -0.42 +0.03    +0.066 A 
DOCKED: ATOM     21  C   UNL d   1       2.564  -1.216 -11.177 -0.42 -0.01    -0.025 A 
DOCKED: ATOM     22  C   UNL d   1       1.332  -0.907 -11.715 -0.09 -0.01    -0.021 A 
DOCKED: ATOM     23  C   UNL d   1       0.390  -1.097 -10.697 -0.05 +0.04    +0.066 A 
DOCKED: ATOM     24  C   UNL d   1       3.884  -1.146 -11.910 -0.53 +0.01    +0.051 C 
DOCKED: ATOM     25  N   UNL d   1      -1.612  -1.078  -8.435 -0.24 -0.11    -0.248 N 
DOCKED: ATOM     26  N   UNL d   1      -0.652  -1.580  -5.794 -0.26 -0.07    -0.248 N 
DOCKED: ATOM     27  N   UNL d   1       1.978  -1.979  -6.881 -0.20 -0.09    -0.248 N 
DOCKED: ATOM     28  N   UNL d   1       1.004  -1.470  -9.548 -0.19 -0.14    -0.248 N 
DOCKED: ATOM     29 FE   UNL d   1       0.178  -1.525  -7.672 -0.09 +0.00    +0.000 Fe
DOCKED: ENDROOT
DOCKED: BRANCH   6  30
DOCKED: ATOM     30  C   UNL d   1      -4.028  -0.647 -11.177 -0.23 +0.06    +0.052 C 
DOCKED: BRANCH  30  31
DOCKED: ATOM     31  C   UNL d   1      -3.817   0.744 -11.766 -0.22 +0.13    +0.115 C 
DOCKED: BRANCH  31  32
DOCKED: ATOM     32  C   UNL d   1      -3.652   0.663 -13.259 -0.16 +0.22    +0.139 C 
DOCKED: ATOM     33  O   UNL d   1      -4.168  -0.245 -13.895 +0.19 -1.44    -0.650 OA
DOCKED: BRANCH  32  34
DOCKED: ATOM     34  O   UNL d   1      -2.932   1.593 -13.909 -0.26 -1.34    -0.776 OA
DOCKED: ATOM     35  H   UNL d   1      -2.233   1.307 -14.514 +0.03 +0.24    +0.167 HD
DOCKED: ENDBRANCH  32  34
DOCKED: ENDBRANCH  31  32
DOCKED: ENDBRANCH  30  31
DOCKED: ENDBRANCH   6  30
DOCKED: BRANCH  22  36
DOCKED: ATOM     36  C   UNL d   1       1.083  -0.411 -13.115 -0.26 +0.03    +0.052 C 
DOCKED: BRANCH  36  37
DOCKED: ATOM     37  C   UNL d   1       0.508  -1.535 -13.964 -0.18 +0.10    +0.115 C 
DOCKED: BRANCH  37  38
DOCKED: ATOM     38  C   UNL d   1      -0.347  -0.990 -15.073 -0.14 +0.15    +0.139 C 
DOCKED: ATOM     39  O   UNL d   1       0.150  -0.658 -16.140 +0.02 -0.49    -0.650 OA
DOCKED: BRANCH  38  40
DOCKED: ATOM     40  O   UNL d   1      -1.673  -0.859 -14.897 -0.29 -1.66    -0.776 OA
DOCKED: ATOM     41  H   UNL d   1      -2.006  -0.125 -14.362 +0.03 +0.31    +0.167 HD
DOCKED: ENDBRANCH  38  40
DOCKED: ENDBRANCH  37  38
DOCKED: ENDBRANCH  36  37
DOCKED: ENDBRANCH  22  36
DOCKED: BRANCH  12  42
DOCKED: ATOM     42  C   UNL d   1      -0.548  -1.566  -2.058 -0.51 +0.00    +0.004 C 
DOCKED: ATOM     43  C   UNL d   1      -0.063  -2.675  -1.486 -0.59 +0.00    +0.012 C 
DOCKED: ENDBRANCH  12  42
DOCKED: BRANCH  17  44
DOCKED: ATOM     44  C   UNL d   1       5.484  -3.122  -7.048 -0.45 +0.00    +0.004 C 
DOCKED: ATOM     45  C   UNL d   1       6.550  -2.509  -6.522 -0.64 +0.00    +0.012 C 
DOCKED: ENDBRANCH  17  44
DOCKED: TORSDOF 10
DOCKED: TER
DOCKED: ENDMDL
________________________________________________________________________________


	BEGINNING GENETIC ALGORITHM DOCKING 53 of 100
Run: 53 Seed: 26330408 813944567 [ Run 53 of 100 GA/GALS ]
Beginning LAMARCKIAN GENETIC ALGORITHM (LGA), with a maximum of 25000000 energy evaluations.

Final-Value: -14.245


	FINAL GENETIC ALGORITHM DOCKED STATE
	_______________________________________________


Detailed state:  trans -5.130 -11.541 12.285 quatxyzw -0.638803 -0.534252 0.037749 -0.552341 center -0.174 -0.001 -0.047 ntor 10 102.0430 154.2089 -166.4532 -99.2282 -72.5412 55.3841 34.8965 -14.1967 -2.4431 4.5663
State:	 -5.130 -11.541  12.285  -0.766 -0.641  0.045 -112.945    102.04  154.21 -166.45  -99.23  -72.54   55.38   34.90  -14.20   -2.44    4.57

DOCKED: MODEL       53
DOCKED: USER    Run = 53
DOCKED: USER    DPF = D:/Protein_go_brrr/autodock/final/AncB/heme_Fe/dock.dpf
DOCKED: USER  
DOCKED: USER    Estimated Free Energy of Binding    =   -9.82 kcal/mol  [=(1)+(2)+(3)-(4)]
DOCKED: USER    Estimated Inhibition Constant, Ki   =   62.96 nM (nanomolar)  [Temperature = 298.15 K]
DOCKED: USER    
DOCKED: USER    (1) Final Intermolecular Energy     =  -12.81 kcal/mol
DOCKED: USER        vdW + Hbond + desolv Energy     =   -8.79 kcal/mol
DOCKED: USER        Electrostatic Energy            =   -4.02 kcal/mol
DOCKED: USER    (2) Final Total Internal Energy     =   -1.44 kcal/mol
DOCKED: USER    (3) Torsional Free Energy           =   +2.98 kcal/mol
DOCKED: USER    (4) Unbound System's Energy  [=(2)] =   -1.44 kcal/mol
DOCKED: USER    
DOCKED: USER    
DOCKED: USER    NEWDPF move heme_Fe_opt.pdbqt
DOCKED: USER    NEWDPF about -0.174000 -0.001000 -0.047000
DOCKED: USER    NEWDPF tran0 -5.130076 -11.541115 12.284670
DOCKED: USER    NEWDPF quaternion0 -0.638803 -0.534252 0.037749 -0.552341
DOCKED: USER    NEWDPF axisangle0 -0.766301 -0.640884 0.045284 -112.944519
DOCKED: USER    NEWDPF quat0 -0.766301 -0.640884 0.045284 -112.944519
DOCKED: USER    NEWDPF dihe0 102.04 154.21 -166.45 -99.23 -72.54 55.38 34.90 -14.20 -2.44 4.57 
DOCKED: USER  keepresnum = 1 
DOCKED: USER  
DOCKED: REMARK  10 active torsions:
DOCKED: REMARK  status: ('A' for Active; 'I' for Inactive)
DOCKED: REMARK    1  A    between atoms: C_6  and  C_10 
DOCKED: REMARK    2  A    between atoms: C_10  and  C_11 
DOCKED: REMARK    3  A    between atoms: C_11  and  C_12 
DOCKED: REMARK    4  A    between atoms: C_12  and  O_14 
DOCKED: REMARK    5  A    between atoms: C_17  and  C_20 
DOCKED: REMARK    6  A    between atoms: C_24  and  C_27 
DOCKED: REMARK    7  A    between atoms: C_31  and  C_34 
DOCKED: REMARK    8  A    between atoms: C_34  and  C_35 
DOCKED: REMARK    9  A    between atoms: C_35  and  C_36 
DOCKED: REMARK   10  A    between atoms: C_36  and  O_38 
DOCKED: USER                              x       y       z     vdW  Elec       q    Type
DOCKED: USER                           _______ _______ _______ _____ _____    ______ ____
DOCKED: ROOT
DOCKED: ATOM      1  C   UNL d   1      -6.352 -12.633  11.049 -0.29 +0.04    +0.064 C 
DOCKED: ATOM      2  C   UNL d   1      -6.802 -10.719  15.584 -0.15 +0.04    +0.064 A 
DOCKED: ATOM      3  C   UNL d   1      -2.923  -8.011  14.751 -0.19 +0.01    +0.064 C 
DOCKED: ATOM      4  C   UNL d   1      -2.407  -9.928  10.399 -0.29 +0.01    +0.064 C 
DOCKED: ATOM      5  C   UNL d   1      -6.789 -12.406  12.434 -0.30 +0.04    +0.066 A 
DOCKED: ATOM      6  C   UNL d   1      -7.813 -13.095  13.062 -0.34 -0.01    -0.021 A 
DOCKED: ATOM      7  C   UNL d   1      -7.940 -12.560  14.320 -0.27 -0.01    -0.025 A 
DOCKED: ATOM      8  C   UNL d   1      -6.987 -11.564  14.411 -0.23 +0.04    +0.066 A 
DOCKED: ATOM      9  C   UNL d   1      -8.910 -13.001  15.373 -0.20 +0.02    +0.051 C 
DOCKED: ATOM     10  C   UNL d   1      -5.854  -9.790  15.719 -0.06 +0.05    +0.066 A 
DOCKED: ATOM     11  C   UNL d   1      -5.773  -8.917  16.807 -0.15 -0.01    -0.021 A 
DOCKED: ATOM     12  C   UNL d   1      -4.672  -8.115  16.583 -0.17 +0.00    +0.000 A 
DOCKED: ATOM     13  C   UNL d   1      -4.138  -8.538  15.353 -0.13 +0.02    +0.070 A 
DOCKED: ATOM     14  C   UNL d   1      -6.738  -8.807  17.970 -0.13 +0.00    +0.052 C 
DOCKED: ATOM     15  C   UNL d   1      -2.434  -8.379  13.544 -0.15 +0.01    +0.066 A 
DOCKED: ATOM     16  C   UNL d   1      -1.218  -7.926  13.048 -0.22 -0.00    -0.021 A 
DOCKED: ATOM     17  C   UNL d   1      -1.068  -8.475  11.791 -0.25 +0.00    +0.000 A 
DOCKED: ATOM     18  C   UNL d   1      -2.201  -9.248  11.548 -0.22 +0.02    +0.070 A 
DOCKED: ATOM     19  C   UNL d   1      -0.244  -6.993  13.717 -0.22 +0.00    +0.052 C 
DOCKED: ATOM     20  C   UNL d   1      -3.557 -10.800  10.131 -0.23 +0.02    +0.066 A 
DOCKED: ATOM     21  C   UNL d   1      -3.885 -11.348   8.883 -0.24 -0.01    -0.025 A 
DOCKED: ATOM     22  C   UNL d   1      -5.005 -12.125   9.094 -0.25 -0.01    -0.021 A 
DOCKED: ATOM     23  C   UNL d   1      -5.318 -12.017  10.454 -0.23 +0.03    +0.066 A 
DOCKED: ATOM     24  C   UNL d   1      -3.190 -11.153   7.555 -0.33 +0.02    +0.051 C 
DOCKED: ATOM     25  N   UNL d   1      -6.282 -11.480  13.266 -0.17 -0.15    -0.248 N 
DOCKED: ATOM     26  N   UNL d   1      -4.863  -9.553  14.822 -0.09 -0.15    -0.248 N 
DOCKED: ATOM     27  N   UNL d   1      -3.020  -9.225  12.641 -0.11 -0.08    -0.248 N 
DOCKED: ATOM     28  N   UNL d   1      -4.458 -11.172  11.072 -0.14 -0.10    -0.248 N 
DOCKED: ATOM     29 FE   UNL d   1      -4.659 -10.362  12.946 -0.05 +0.00    +0.000 Fe
DOCKED: ENDROOT
DOCKED: BRANCH   6  30
DOCKED: ATOM     30  C   UNL d   1      -8.618 -14.220  12.506 -0.03 +0.02    +0.052 C 
DOCKED: BRANCH  30  31
DOCKED: ATOM     31  C   UNL d   1      -7.924 -15.555  12.752 -0.19 +0.05    +0.115 C 
DOCKED: BRANCH  31  32
DOCKED: ATOM     32  C   UNL d   1      -8.163 -16.492  11.601 -0.06 +0.11    +0.139 C 
DOCKED: ATOM     33  O   UNL d   1      -9.260 -17.007  11.434 -0.45 -0.73    -0.650 OA
DOCKED: BRANCH  32  34
DOCKED: ATOM     34  O   UNL d   1      -7.168 -16.775  10.743 +0.00 -0.73    -0.776 OA
DOCKED: ATOM     35  H   UNL d   1      -6.940 -16.128  10.060 +0.01 +0.18    +0.167 HD
DOCKED: ENDBRANCH  32  34
DOCKED: ENDBRANCH  31  32
DOCKED: ENDBRANCH  30  31
DOCKED: ENDBRANCH   6  30
DOCKED: BRANCH  22  36
DOCKED: ATOM     36  C   UNL d   1      -5.758 -12.889   8.036 -0.32 +0.04    +0.052 C 
DOCKED: BRANCH  36  37
DOCKED: ATOM     37  C   UNL d   1      -5.384 -14.362   8.103 -0.17 +0.10    +0.115 C 
DOCKED: BRANCH  37  38
DOCKED: ATOM     38  C   UNL d   1      -6.361 -15.202   7.330 -0.22 +0.22    +0.139 C 
DOCKED: ATOM     39  O   UNL d   1      -6.591 -14.968   6.152 -0.17 -1.66    -0.650 OA
DOCKED: BRANCH  38  40
DOCKED: ATOM     40  O   UNL d   1      -6.996 -16.221   7.935 -0.59 -1.71    -0.776 OA
DOCKED: ATOM     41  H   UNL d   1      -6.580 -16.648   8.697 +0.02 +0.25    +0.167 HD
DOCKED: ENDBRANCH  38  40
DOCKED: ENDBRANCH  37  38
DOCKED: ENDBRANCH  36  37
DOCKED: ENDBRANCH  22  36
DOCKED: BRANCH  12  42
DOCKED: ATOM     42  C   UNL d   1      -4.210  -7.022  17.493 -0.14 -0.00    +0.004 C 
DOCKED: ATOM     43  C   UNL d   1      -4.163  -5.750  17.075 -0.24 -0.00    +0.012 C 
DOCKED: ENDBRANCH  12  42
DOCKED: BRANCH  17  44
DOCKED: ATOM     44  C   UNL d   1       0.092  -8.288  10.891 -0.20 +0.00    +0.004 C 
DOCKED: ATOM     45  C   UNL d   1       0.619  -7.075  10.697 -0.25 +0.00    +0.012 C 
DOCKED: ENDBRANCH  17  44
DOCKED: TORSDOF 10
DOCKED: TER
DOCKED: ENDMDL
________________________________________________________________________________


	BEGINNING GENETIC ALGORITHM DOCKING 54 of 100
Run: 54 Seed: 1106560275 1133953199 [ Run 54 of 100 GA/GALS ]
Beginning LAMARCKIAN GENETIC ALGORITHM (LGA), with a maximum of 25000000 energy evaluations.

Final-Value: -19.490


	FINAL GENETIC ALGORITHM DOCKED STATE
	_______________________________________________


Detailed state:  trans 0.087 -1.751 -9.064 quatxyzw 0.581293 0.382337 0.462586 0.549482 center -0.174 -0.001 -0.047 ntor 10 -59.4056 77.2430 71.0613 -102.2988 -1.4750 -113.2463 -56.2392 49.5511 -177.1340 -170.9990
State:	  0.087  -1.751  -9.064   0.696  0.458  0.554 113.337    -59.41   77.24   71.06 -102.30   -1.47 -113.25  -56.24   49.55 -177.13 -171.00

DOCKED: MODEL       54
DOCKED: USER    Run = 54
DOCKED: USER    DPF = D:/Protein_go_brrr/autodock/final/AncB/heme_Fe/dock.dpf
DOCKED: USER  
DOCKED: USER    Estimated Free Energy of Binding    =  -14.51 kcal/mol  [=(1)+(2)+(3)-(4)]
DOCKED: USER    Estimated Inhibition Constant, Ki   =   22.96 pM (picomolar)  [Temperature = 298.15 K]
DOCKED: USER    
DOCKED: USER    (1) Final Intermolecular Energy     =  -17.50 kcal/mol
DOCKED: USER        vdW + Hbond + desolv Energy     =  -14.41 kcal/mol
DOCKED: USER        Electrostatic Energy            =   -3.09 kcal/mol
DOCKED: USER    (2) Final Total Internal Energy     =   -1.99 kcal/mol
DOCKED: USER    (3) Torsional Free Energy           =   +2.98 kcal/mol
DOCKED: USER    (4) Unbound System's Energy  [=(2)] =   -1.99 kcal/mol
DOCKED: USER    
DOCKED: USER    
DOCKED: USER    NEWDPF move heme_Fe_opt.pdbqt
DOCKED: USER    NEWDPF about -0.174000 -0.001000 -0.047000
DOCKED: USER    NEWDPF tran0 0.086889 -1.751206 -9.064448
DOCKED: USER    NEWDPF quaternion0 0.581293 0.382337 0.462586 0.549482
DOCKED: USER    NEWDPF axisangle0 0.695738 0.457612 0.553660 113.336984
DOCKED: USER    NEWDPF quat0 0.695738 0.457612 0.553660 113.336984
DOCKED: USER    NEWDPF dihe0 -59.41 77.24 71.06 -102.30 -1.47 -113.25 -56.24 49.55 -177.13 -171.00 
DOCKED: USER  keepresnum = 1 
DOCKED: USER  
DOCKED: REMARK  10 active torsions:
DOCKED: REMARK  status: ('A' for Active; 'I' for Inactive)
DOCKED: REMARK    1  A    between atoms: C_6  and  C_10 
DOCKED: REMARK    2  A    between atoms: C_10  and  C_11 
DOCKED: REMARK    3  A    between atoms: C_11  and  C_12 
DOCKED: REMARK    4  A    between atoms: C_12  and  O_14 
DOCKED: REMARK    5  A    between atoms: C_17  and  C_20 
DOCKED: REMARK    6  A    between atoms: C_24  and  C_27 
DOCKED: REMARK    7  A    between atoms: C_31  and  C_34 
DOCKED: REMARK    8  A    between atoms: C_34  and  C_35 
DOCKED: REMARK    9  A    between atoms: C_35  and  C_36 
DOCKED: REMARK   10  A    between atoms: C_36  and  O_38 
DOCKED: USER                              x       y       z     vdW  Elec       q    Type
DOCKED: USER                           _______ _______ _______ _____ _____    ______ ____
DOCKED: ROOT
DOCKED: ATOM      1  C   UNL d   1      -0.461  -1.091 -10.928 -0.28 +0.05    +0.064 C 
DOCKED: ATOM      2  C   UNL d   1      -2.631  -1.171  -6.488 -0.40 +0.02    +0.064 A 
DOCKED: ATOM      3  C   UNL d   1       1.640  -2.097  -4.495 -0.40 +0.01    +0.064 C 
DOCKED: ATOM      4  C   UNL d   1       3.742  -2.128  -8.792 -0.51 +0.02    +0.064 C 
DOCKED: ATOM      5  C   UNL d   1      -1.482  -1.110  -9.872 -0.32 +0.04    +0.066 A 
DOCKED: ATOM      6  C   UNL d   1      -2.845  -0.990 -10.087 -0.31 -0.02    -0.021 A 
DOCKED: ATOM      7  C   UNL d   1      -3.446  -1.009  -8.853 -0.30 -0.01    -0.025 A 
DOCKED: ATOM      8  C   UNL d   1      -2.426  -1.140  -7.931 -0.35 +0.03    +0.066 A 
DOCKED: ATOM      9  C   UNL d   1      -4.918  -0.925  -8.587 -0.27 +0.02    +0.051 C 
DOCKED: ATOM     10  C   UNL d   1      -1.670  -1.354  -5.580 -0.40 +0.02    +0.066 A 
DOCKED: ATOM     11  C   UNL d   1      -1.880  -1.265  -4.202 -0.41 -0.00    -0.021 A 
DOCKED: ATOM     12  C   UNL d   1      -0.660  -1.511  -3.605 -0.41 +0.00    +0.000 A 
DOCKED: ATOM     13  C   UNL d   1       0.242  -1.732  -4.660 -0.38 +0.01    +0.070 A 
DOCKED: ATOM     14  C   UNL d   1      -3.165  -0.895  -3.490 -0.59 +0.01    +0.052 C 
DOCKED: ATOM     15  C   UNL d   1       2.524  -2.260  -5.507 -0.39 +0.01    +0.066 A 
DOCKED: ATOM     16  C   UNL d   1       3.826  -2.705  -5.313 -0.50 -0.00    -0.021 A 
DOCKED: ATOM     17  C   UNL d   1       4.435  -2.712  -6.551 -0.51 +0.00    +0.000 A 
DOCKED: ATOM     18  C   UNL d   1       3.490  -2.265  -7.472 -0.42 +0.02    +0.070 A 
DOCKED: ATOM     19  C   UNL d   1       4.481  -3.087  -4.013 -0.60 +0.01    +0.052 C 
DOCKED: ATOM     20  C   UNL d   1       2.755  -1.719  -9.800 -0.44 +0.02    +0.066 A 
DOCKED: ATOM     21  C   UNL d   1       3.047  -1.381 -11.129 -0.46 -0.01    -0.025 A 
DOCKED: ATOM     22  C   UNL d   1       1.834  -1.101 -11.722 -0.32 -0.01    -0.021 A 
DOCKED: ATOM     23  C   UNL d   1       0.855  -1.273 -10.736 -0.14 +0.03    +0.066 A 
DOCKED: ATOM     24  C   UNL d   1       4.394  -1.317 -11.812 -0.54 +0.01    +0.051 C 
DOCKED: ATOM     25  N   UNL d   1      -1.233  -1.211  -8.554 -0.19 -0.12    -0.248 N 
DOCKED: ATOM     26  N   UNL d   1      -0.372  -1.628  -5.865 -0.25 -0.07    -0.248 N 
DOCKED: ATOM     27  N   UNL d   1       2.302  -2.029  -6.838 -0.23 -0.08    -0.248 N 
DOCKED: ATOM     28  N   UNL d   1       1.428  -1.606  -9.554 -0.21 -0.13    -0.248 N 
DOCKED: ATOM     29 FE   UNL d   1       0.530  -1.617  -7.710 -0.09 +0.00    +0.000 Fe
DOCKED: ENDROOT
DOCKED: BRANCH   6  30
DOCKED: ATOM     30  C   UNL d   1      -3.545  -0.884 -11.399 -0.13 +0.08    +0.052 C 
DOCKED: BRANCH  30  31
DOCKED: ATOM     31  C   UNL d   1      -3.636   0.570 -11.846 -0.22 +0.14    +0.115 C 
DOCKED: BRANCH  31  32
DOCKED: ATOM     32  C   UNL d   1      -3.019   0.742 -13.206 -0.18 +0.22    +0.139 C 
DOCKED: ATOM     33  O   UNL d   1      -2.509  -0.208 -13.784 -0.03 -1.42    -0.650 OA
DOCKED: BRANCH  32  34
DOCKED: ATOM     34  O   UNL d   1      -3.022   1.947 -13.802 -0.31 -1.52    -0.776 OA
DOCKED: ATOM     35  H   UNL d   1      -2.178   2.356 -14.039 +0.03 +0.32    +0.167 HD
DOCKED: ENDBRANCH  32  34
DOCKED: ENDBRANCH  31  32
DOCKED: ENDBRANCH  30  31
DOCKED: ENDBRANCH   6  30
DOCKED: BRANCH  22  36
DOCKED: ATOM     36  C   UNL d   1       1.634  -0.647 -13.144 -0.29 +0.03    +0.052 C 
DOCKED: BRANCH  36  37
DOCKED: ATOM     37  C   UNL d   1       2.065   0.805 -13.284 -0.24 +0.05    +0.115 C 
DOCKED: BRANCH  37  38
DOCKED: ATOM     38  C   UNL d   1       1.016   1.613 -13.994 -0.20 +0.09    +0.139 C 
DOCKED: ATOM     39  O   UNL d   1       1.231   2.083 -15.101 +0.04 -0.41    -0.650 OA
DOCKED: BRANCH  38  40
DOCKED: ATOM     40  O   UNL d   1      -0.176   1.827 -13.409 +0.01 -0.73    -0.776 OA
DOCKED: ATOM     41  H   UNL d   1      -0.943   1.316 -13.702 +0.05 +0.18    +0.167 HD
DOCKED: ENDBRANCH  38  40
DOCKED: ENDBRANCH  37  38
DOCKED: ENDBRANCH  36  37
DOCKED: ENDBRANCH  22  36
DOCKED: BRANCH  12  42
DOCKED: ATOM     42  C   UNL d   1      -0.412  -1.507  -2.130 -0.50 +0.00    +0.004 C 
DOCKED: ATOM     43  C   UNL d   1       0.019  -2.608  -1.500 -0.59 +0.00    +0.012 C 
DOCKED: ENDBRANCH  12  42
DOCKED: BRANCH  17  44
DOCKED: ATOM     44  C   UNL d   1       5.824  -3.137  -6.837 -0.50 +0.00    +0.004 C 
DOCKED: ATOM     45  C   UNL d   1       6.844  -2.684  -6.101 -0.70 +0.00    +0.012 C 
DOCKED: ENDBRANCH  17  44
DOCKED: TORSDOF 10
DOCKED: TER
DOCKED: ENDMDL
________________________________________________________________________________


	BEGINNING GENETIC ALGORITHM DOCKING 55 of 100
Run: 55 Seed: 225827166 293791072 [ Run 55 of 100 GA/GALS ]
Beginning LAMARCKIAN GENETIC ALGORITHM (LGA), with a maximum of 25000000 energy evaluations.

Final-Value: -13.429


	FINAL GENETIC ALGORITHM DOCKED STATE
	_______________________________________________


Detailed state:  trans -0.175 -15.339 4.043 quatxyzw 0.828880 0.206388 -0.379754 0.355175 center -0.174 -0.001 -0.047 ntor 10 54.6643 -76.3862 179.6091 -147.1962 -170.4738 128.1482 -77.0996 72.8073 179.9511 -163.1847
State:	 -0.175 -15.339   4.043   0.887  0.221 -0.406 138.392     54.66  -76.39  179.61 -147.20 -170.47  128.15  -77.10   72.81  179.95 -163.18

DOCKED: MODEL       55
DOCKED: USER    Run = 55
DOCKED: USER    DPF = D:/Protein_go_brrr/autodock/final/AncB/heme_Fe/dock.dpf
DOCKED: USER  
DOCKED: USER    Estimated Free Energy of Binding    =   -8.41 kcal/mol  [=(1)+(2)+(3)-(4)]
DOCKED: USER    Estimated Inhibition Constant, Ki   =  687.71 nM (nanomolar)  [Temperature = 298.15 K]
DOCKED: USER    
DOCKED: USER    (1) Final Intermolecular Energy     =  -11.39 kcal/mol
DOCKED: USER        vdW + Hbond + desolv Energy     =   -6.65 kcal/mol
DOCKED: USER        Electrostatic Energy            =   -4.74 kcal/mol
DOCKED: USER    (2) Final Total Internal Energy     =   -2.04 kcal/mol
DOCKED: USER    (3) Torsional Free Energy           =   +2.98 kcal/mol
DOCKED: USER    (4) Unbound System's Energy  [=(2)] =   -2.04 kcal/mol
DOCKED: USER    
DOCKED: USER    
DOCKED: USER    NEWDPF move heme_Fe_opt.pdbqt
DOCKED: USER    NEWDPF about -0.174000 -0.001000 -0.047000
DOCKED: USER    NEWDPF tran0 -0.174975 -15.338706 4.042558
DOCKED: USER    NEWDPF quaternion0 0.828880 0.206388 -0.379754 0.355175
DOCKED: USER    NEWDPF axisangle0 0.886692 0.220783 -0.406241 138.391633
DOCKED: USER    NEWDPF quat0 0.886692 0.220783 -0.406241 138.391633
DOCKED: USER    NEWDPF dihe0 54.66 -76.39 179.61 -147.20 -170.47 128.15 -77.10 72.81 179.95 -163.18 
DOCKED: USER  keepresnum = 1 
DOCKED: USER  
DOCKED: REMARK  10 active torsions:
DOCKED: REMARK  status: ('A' for Active; 'I' for Inactive)
DOCKED: REMARK    1  A    between atoms: C_6  and  C_10 
DOCKED: REMARK    2  A    between atoms: C_10  and  C_11 
DOCKED: REMARK    3  A    between atoms: C_11  and  C_12 
DOCKED: REMARK    4  A    between atoms: C_12  and  O_14 
DOCKED: REMARK    5  A    between atoms: C_17  and  C_20 
DOCKED: REMARK    6  A    between atoms: C_24  and  C_27 
DOCKED: REMARK    7  A    between atoms: C_31  and  C_34 
DOCKED: REMARK    8  A    between atoms: C_34  and  C_35 
DOCKED: REMARK    9  A    between atoms: C_35  and  C_36 
DOCKED: REMARK   10  A    between atoms: C_36  and  O_38 
DOCKED: USER                              x       y       z     vdW  Elec       q    Type
DOCKED: USER                           _______ _______ _______ _____ _____    ______ ____
DOCKED: ROOT
DOCKED: ATOM      1  C   UNL d   1      -1.833 -16.282   4.799 -0.07 +0.03    +0.064 C 
DOCKED: ATOM      2  C   UNL d   1       0.364 -11.928   5.603 -0.19 +0.01    +0.064 A 
DOCKED: ATOM      3  C   UNL d   1       2.880 -12.528   1.556 -0.24 +0.01    +0.064 C 
DOCKED: ATOM      4  C   UNL d   1       0.843 -16.793   0.814 -0.11 +0.01    +0.064 C 
DOCKED: ATOM      5  C   UNL d   1      -1.387 -15.040   5.444 -0.05 +0.03    +0.066 A 
DOCKED: ATOM      6  C   UNL d   1      -1.813 -14.596   6.686 -0.07 -0.01    -0.021 A 
DOCKED: ATOM      7  C   UNL d   1      -1.205 -13.385   6.907 -0.11 -0.01    -0.025 A 
DOCKED: ATOM      8  C   UNL d   1      -0.430 -13.136   5.790 -0.08 +0.02    +0.066 A 
DOCKED: ATOM      9  C   UNL d   1      -1.351 -12.534   8.131 -0.12 +0.01    +0.051 C 
DOCKED: ATOM     10  C   UNL d   1       1.165 -11.689   4.563 -0.23 +0.01    +0.066 A 
DOCKED: ATOM     11  C   UNL d   1       1.824 -10.475   4.356 -0.32 -0.00    -0.021 A 
DOCKED: ATOM     12  C   UNL d   1       2.543 -10.616   3.186 -0.34 +0.00    +0.000 A 
DOCKED: ATOM     13  C   UNL d   1       2.276 -11.920   2.731 -0.25 +0.01    +0.070 A 
DOCKED: ATOM     14  C   UNL d   1       1.720  -9.218   5.194 -0.37 +0.01    +0.052 C 
DOCKED: ATOM     15  C   UNL d   1       2.587 -13.763   1.085 -0.12 +0.01    +0.066 A 
DOCKED: ATOM     16  C   UNL d   1       3.258 -14.348   0.019 -0.16 -0.00    -0.021 A 
DOCKED: ATOM     17  C   UNL d   1       2.669 -15.576  -0.200 -0.18 +0.00    +0.000 A 
DOCKED: ATOM     18  C   UNL d   1       1.649 -15.711   0.739 -0.13 +0.01    +0.070 A 
DOCKED: ATOM     19  C   UNL d   1       4.391 -13.766  -0.783 -0.25 +0.00    +0.052 C 
DOCKED: ATOM     20  C   UNL d   1      -0.201 -16.996   1.826 -0.06 +0.02    +0.066 A 
DOCKED: ATOM     21  C   UNL d   1      -1.170 -18.009   1.797 -0.05 -0.01    -0.025 A 
DOCKED: ATOM     22  C   UNL d   1      -1.914 -17.852   2.949 -0.05 -0.01    -0.021 A 
DOCKED: ATOM     23  C   UNL d   1      -1.376 -16.752   3.628 -0.06 +0.03    +0.066 A 
DOCKED: ATOM     24  C   UNL d   1      -1.396 -19.070   0.745 -0.06 +0.02    +0.051 C 
DOCKED: ATOM     25  N   UNL d   1      -0.535 -14.149   4.907 +0.01 -0.10    -0.248 N 
DOCKED: ATOM     26  N   UNL d   1       1.429 -12.571   3.565 -0.14 -0.06    -0.248 N 
DOCKED: ATOM     27  N   UNL d   1       1.626 -14.617   1.557 -0.10 -0.05    -0.248 N 
DOCKED: ATOM     28  N   UNL d   1      -0.360 -16.207   2.916 -0.06 -0.09    -0.248 N 
DOCKED: ATOM     29 FE   UNL d   1       0.535 -14.390   3.239 -0.04 +0.00    +0.000 Fe
DOCKED: ENDROOT
DOCKED: BRANCH   6  30
DOCKED: ATOM     30  C   UNL d   1      -2.734 -15.296   7.626 -0.03 +0.02    +0.052 C 
DOCKED: BRANCH  30  31
DOCKED: ATOM     31  C   UNL d   1      -4.181 -14.889   7.367 -0.07 +0.08    +0.115 C 
DOCKED: BRANCH  31  32
DOCKED: ATOM     32  C   UNL d   1      -4.905 -15.971   6.616 -0.09 +0.17    +0.139 C 
DOCKED: ATOM     33  O   UNL d   1      -6.023 -15.773   6.161 -0.46 -1.58    -0.650 OA
DOCKED: BRANCH  32  34
DOCKED: ATOM     34  O   UNL d   1      -4.327 -17.171   6.437 +0.04 -0.72    -0.776 OA
DOCKED: ATOM     35  H   UNL d   1      -4.241 -17.521   5.539 +0.03 +0.17    +0.167 HD
DOCKED: ENDBRANCH  32  34
DOCKED: ENDBRANCH  31  32
DOCKED: ENDBRANCH  30  31
DOCKED: ENDBRANCH   6  30
DOCKED: BRANCH  22  36
DOCKED: ATOM     36  C   UNL d   1      -3.105 -18.684   3.347 -0.04 +0.04    +0.052 C 
DOCKED: BRANCH  36  37
DOCKED: ATOM     37  C   UNL d   1      -4.246 -18.446   2.370 -0.14 +0.14    +0.115 C 
DOCKED: BRANCH  37  38
DOCKED: ATOM     38  C   UNL d   1      -5.342 -17.641   3.008 -0.07 +0.29    +0.139 C 
DOCKED: ATOM     39  O   UNL d   1      -5.774 -16.633   2.466 -0.10 -1.99    -0.650 OA
DOCKED: BRANCH  38  40
DOCKED: ATOM     40  O   UNL d   1      -5.857 -18.024   4.190 +0.01 -1.57    -0.776 OA
DOCKED: ATOM     41  H   UNL d   1      -5.595 -17.551   4.992 +0.02 +0.33    +0.167 HD
DOCKED: ENDBRANCH  38  40
DOCKED: ENDBRANCH  37  38
DOCKED: ENDBRANCH  36  37
DOCKED: ENDBRANCH  22  36
DOCKED: BRANCH  12  42
DOCKED: ATOM     42  C   UNL d   1       3.396  -9.552   2.571 -0.49 -0.00    +0.004 C 
DOCKED: ATOM     43  C   UNL d   1       3.307  -9.267   1.266 -0.67 -0.00    +0.012 C 
DOCKED: ENDBRANCH  12  42
DOCKED: BRANCH  17  44
DOCKED: ATOM     44  C   UNL d   1       3.071 -16.565  -1.225 -0.20 -0.00    +0.004 C 
DOCKED: ATOM     45  C   UNL d   1       2.482 -16.585  -2.425 -0.36 -0.00    +0.012 C 
DOCKED: ENDBRANCH  17  44
DOCKED: TORSDOF 10
DOCKED: TER
DOCKED: ENDMDL
________________________________________________________________________________


	BEGINNING GENETIC ALGORITHM DOCKING 56 of 100
Run: 56 Seed: 753202547 382728851 [ Run 56 of 100 GA/GALS ]
Beginning LAMARCKIAN GENETIC ALGORITHM (LGA), with a maximum of 25000000 energy evaluations.

Final-Value: -14.624


	FINAL GENETIC ALGORITHM DOCKED STATE
	_______________________________________________


Detailed state:  trans -5.119 -11.352 11.490 quatxyzw 0.604835 0.008164 0.539651 -0.585564 center -0.174 -0.001 -0.047 ntor 10 -95.1180 -41.1134 29.5958 44.0599 176.6894 -175.7384 35.4390 54.1359 -27.4646 137.7897
State:	 -5.119 -11.352  11.490   0.746  0.010  0.666 -108.314    -95.12  -41.11   29.60   44.06  176.69 -175.74   35.44   54.14  -27.46  137.79

DOCKED: MODEL       56
DOCKED: USER    Run = 56
DOCKED: USER    DPF = D:/Protein_go_brrr/autodock/final/AncB/heme_Fe/dock.dpf
DOCKED: USER  
DOCKED: USER    Estimated Free Energy of Binding    =   -9.18 kcal/mol  [=(1)+(2)+(3)-(4)]
DOCKED: USER    Estimated Inhibition Constant, Ki   =  185.95 nM (nanomolar)  [Temperature = 298.15 K]
DOCKED: USER    
DOCKED: USER    (1) Final Intermolecular Energy     =  -12.17 kcal/mol
DOCKED: USER        vdW + Hbond + desolv Energy     =   -8.28 kcal/mol
DOCKED: USER        Electrostatic Energy            =   -3.89 kcal/mol
DOCKED: USER    (2) Final Total Internal Energy     =   -2.46 kcal/mol
DOCKED: USER    (3) Torsional Free Energy           =   +2.98 kcal/mol
DOCKED: USER    (4) Unbound System's Energy  [=(2)] =   -2.46 kcal/mol
DOCKED: USER    
DOCKED: USER    
DOCKED: USER    NEWDPF move heme_Fe_opt.pdbqt
DOCKED: USER    NEWDPF about -0.174000 -0.001000 -0.047000
DOCKED: USER    NEWDPF tran0 -5.119078 -11.352384 11.489729
DOCKED: USER    NEWDPF quaternion0 0.604835 0.008164 0.539651 -0.585564
DOCKED: USER    NEWDPF axisangle0 0.746132 0.010072 0.665721 -108.314318
DOCKED: USER    NEWDPF quat0 0.746132 0.010072 0.665721 -108.314318
DOCKED: USER    NEWDPF dihe0 -95.12 -41.11 29.60 44.06 176.69 -175.74 35.44 54.14 -27.46 137.79 
DOCKED: USER  keepresnum = 1 
DOCKED: USER  
DOCKED: REMARK  10 active torsions:
DOCKED: REMARK  status: ('A' for Active; 'I' for Inactive)
DOCKED: REMARK    1  A    between atoms: C_6  and  C_10 
DOCKED: REMARK    2  A    between atoms: C_10  and  C_11 
DOCKED: REMARK    3  A    between atoms: C_11  and  C_12 
DOCKED: REMARK    4  A    between atoms: C_12  and  O_14 
DOCKED: REMARK    5  A    between atoms: C_17  and  C_20 
DOCKED: REMARK    6  A    between atoms: C_24  and  C_27 
DOCKED: REMARK    7  A    between atoms: C_31  and  C_34 
DOCKED: REMARK    8  A    between atoms: C_34  and  C_35 
DOCKED: REMARK    9  A    between atoms: C_35  and  C_36 
DOCKED: REMARK   10  A    between atoms: C_36  and  O_38 
DOCKED: USER                              x       y       z     vdW  Elec       q    Type
DOCKED: USER                           _______ _______ _______ _____ _____    ______ ____
DOCKED: ROOT
DOCKED: ATOM      1  C   UNL d   1      -5.557 -12.978  10.316 -0.23 +0.03    +0.064 C 
DOCKED: ATOM      2  C   UNL d   1      -2.092  -9.453  10.228 -0.30 +0.01    +0.064 A 
DOCKED: ATOM      3  C   UNL d   1      -3.244  -8.306  14.748 -0.17 +0.01    +0.064 C 
DOCKED: ATOM      4  C   UNL d   1      -6.673 -11.641  14.818 -0.19 +0.03    +0.064 C 
DOCKED: ATOM      5  C   UNL d   1      -4.532 -12.037   9.843 -0.19 +0.03    +0.066 A 
DOCKED: ATOM      6  C   UNL d   1      -4.034 -11.992   8.551 -0.22 -0.01    -0.021 A 
DOCKED: ATOM      7  C   UNL d   1      -3.070 -11.016   8.529 -0.28 -0.01    -0.025 A 
DOCKED: ATOM      8  C   UNL d   1      -3.016 -10.501   9.810 -0.25 +0.02    +0.066 A 
DOCKED: ATOM      9  C   UNL d   1      -2.266 -10.596   7.337 -0.25 +0.01    +0.051 C 
DOCKED: ATOM     10  C   UNL d   1      -2.059  -8.899  11.441 -0.25 +0.01    +0.066 A 
DOCKED: ATOM     11  C   UNL d   1      -1.088  -7.979  11.847 -0.27 -0.00    -0.021 A 
DOCKED: ATOM     12  C   UNL d   1      -1.388  -7.646  13.152 -0.24 +0.00    +0.000 A 
DOCKED: ATOM     13  C   UNL d   1      -2.533  -8.393  13.482 -0.13 +0.02    +0.070 A 
DOCKED: ATOM     14  C   UNL d   1       0.107  -7.494  11.052 -0.30 +0.00    +0.052 C 
DOCKED: ATOM     15  C   UNL d   1      -4.315  -9.061  15.089 -0.12 +0.03    +0.066 A 
DOCKED: ATOM     16  C   UNL d   1      -5.027  -8.878  16.268 -0.16 -0.01    -0.021 A 
DOCKED: ATOM     17  C   UNL d   1      -6.014  -9.841  16.292 -0.14 +0.00    +0.000 A 
DOCKED: ATOM     18  C   UNL d   1      -5.879 -10.593  15.127 -0.14 +0.04    +0.070 A 
DOCKED: ATOM     19  C   UNL d   1      -4.775  -7.856  17.343 -0.13 -0.00    +0.052 C 
DOCKED: ATOM     20  C   UNL d   1      -6.599 -12.415  13.573 -0.20 +0.03    +0.066 A 
DOCKED: ATOM     21  C   UNL d   1      -7.275 -13.619  13.327 -0.22 -0.01    -0.025 A 
DOCKED: ATOM     22  C   UNL d   1      -6.953 -13.975  12.034 -0.25 -0.01    -0.021 A 
DOCKED: ATOM     23  C   UNL d   1      -6.092 -12.984  11.547 -0.22 +0.03    +0.066 A 
DOCKED: ATOM     24  C   UNL d   1      -8.176 -14.402  14.254 -0.19 +0.02    +0.051 C 
DOCKED: ATOM     25  N   UNL d   1      -3.913 -11.117  10.605 -0.12 -0.09    -0.248 N 
DOCKED: ATOM     26  N   UNL d   1      -2.937  -9.163  12.443 -0.10 -0.08    -0.248 N 
DOCKED: ATOM     27  N   UNL d   1      -4.862 -10.086  14.366 -0.10 -0.15    -0.248 N 
DOCKED: ATOM     28  N   UNL d   1      -5.845 -12.059  12.506 -0.13 -0.12    -0.248 N 
DOCKED: ATOM     29 FE   UNL d   1      -4.392 -10.612  12.476 -0.05 +0.00    +0.000 Fe
DOCKED: ENDROOT
DOCKED: BRANCH   6  30
DOCKED: ATOM     30  C   UNL d   1      -4.467 -12.820   7.390 -0.25 +0.03    +0.052 C 
DOCKED: BRANCH  30  31
DOCKED: ATOM     31  C   UNL d   1      -5.933 -12.564   7.060 -0.35 +0.09    +0.115 C 
DOCKED: BRANCH  31  32
DOCKED: ATOM     32  C   UNL d   1      -6.597 -13.830   6.594 -0.29 +0.20    +0.139 C 
DOCKED: ATOM     33  O   UNL d   1      -7.793 -13.849   6.338 -0.04 -1.21    -0.650 OA
DOCKED: BRANCH  32  34
DOCKED: ATOM     34  O   UNL d   1      -5.878 -14.956   6.453 -0.34 -1.35    -0.776 OA
DOCKED: ATOM     35  H   UNL d   1      -5.732 -15.519   7.226 +0.04 +0.23    +0.167 HD
DOCKED: ENDBRANCH  32  34
DOCKED: ENDBRANCH  31  32
DOCKED: ENDBRANCH  30  31
DOCKED: ENDBRANCH   6  30
DOCKED: BRANCH  22  36
DOCKED: ATOM     36  C   UNL d   1      -7.408 -15.224  11.326 +0.05 +0.03    +0.052 C 
DOCKED: BRANCH  36  37
DOCKED: ATOM     37  C   UNL d   1      -6.200 -15.989  10.806 -0.11 +0.08    +0.115 C 
DOCKED: BRANCH  37  38
DOCKED: ATOM     38  C   UNL d   1      -6.336 -16.278   9.338 -0.13 +0.16    +0.139 C 
DOCKED: ATOM     39  O   UNL d   1      -5.501 -16.951   8.753 +0.01 -0.60    -0.650 OA
DOCKED: BRANCH  38  40
DOCKED: ATOM     40  O   UNL d   1      -7.385 -15.790   8.653 -0.29 -1.78    -0.776 OA
DOCKED: ATOM     41  H   UNL d   1      -7.241 -15.431   7.766 +0.03 +0.37    +0.167 HD
DOCKED: ENDBRANCH  38  40
DOCKED: ENDBRANCH  37  38
DOCKED: ENDBRANCH  36  37
DOCKED: ENDBRANCH  22  36
DOCKED: BRANCH  12  42
DOCKED: ATOM     42  C   UNL d   1      -0.602  -6.692  13.994 -0.28 +0.00    +0.004 C 
DOCKED: ATOM     43  C   UNL d   1      -0.720  -5.368  13.830 -0.42 -0.00    +0.012 C 
DOCKED: ENDBRANCH  12  42
DOCKED: BRANCH  17  44
DOCKED: ATOM     44  C   UNL d   1      -7.034 -10.018  17.350 -0.13 +0.00    +0.004 C 
DOCKED: ATOM     45  C   UNL d   1      -8.265  -9.518  17.205 -0.25 +0.00    +0.012 C 
DOCKED: ENDBRANCH  17  44
DOCKED: TORSDOF 10
DOCKED: TER
DOCKED: ENDMDL
________________________________________________________________________________


	BEGINNING GENETIC ALGORITHM DOCKING 57 of 100
Run: 57 Seed: 1501674268 526568912 [ Run 57 of 100 GA/GALS ]
Beginning LAMARCKIAN GENETIC ALGORITHM (LGA), with a maximum of 25000000 energy evaluations.

Final-Value: -14.469


	FINAL GENETIC ALGORITHM DOCKED STATE
	_______________________________________________


Detailed state:  trans -5.639 -10.989 12.123 quatxyzw 0.594233 0.015580 0.441397 -0.672171 center -0.174 -0.001 -0.047 ntor 10 170.3030 141.3865 49.7302 54.1453 22.6880 -63.7959 4.4438 3.9902 -150.1591 144.5286
State:	 -5.639 -10.989  12.123   0.803  0.021  0.596 -95.530    170.30  141.39   49.73   54.15   22.69  -63.80    4.44    3.99 -150.16  144.53

DOCKED: MODEL       57
DOCKED: USER    Run = 57
DOCKED: USER    DPF = D:/Protein_go_brrr/autodock/final/AncB/heme_Fe/dock.dpf
DOCKED: USER  
DOCKED: USER    Estimated Free Energy of Binding    =   -9.90 kcal/mol  [=(1)+(2)+(3)-(4)]
DOCKED: USER    Estimated Inhibition Constant, Ki   =   54.93 nM (nanomolar)  [Temperature = 298.15 K]
DOCKED: USER    
DOCKED: USER    (1) Final Intermolecular Energy     =  -12.89 kcal/mol
DOCKED: USER        vdW + Hbond + desolv Energy     =   -9.15 kcal/mol
DOCKED: USER        Electrostatic Energy            =   -3.74 kcal/mol
DOCKED: USER    (2) Final Total Internal Energy     =   -1.58 kcal/mol
DOCKED: USER    (3) Torsional Free Energy           =   +2.98 kcal/mol
DOCKED: USER    (4) Unbound System's Energy  [=(2)] =   -1.58 kcal/mol
DOCKED: USER    
DOCKED: USER    
DOCKED: USER    NEWDPF move heme_Fe_opt.pdbqt
DOCKED: USER    NEWDPF about -0.174000 -0.001000 -0.047000
DOCKED: USER    NEWDPF tran0 -5.639435 -10.989002 12.123134
DOCKED: USER    NEWDPF quaternion0 0.594233 0.015580 0.441397 -0.672171
DOCKED: USER    NEWDPF axisangle0 0.802587 0.021043 0.596163 -95.530383
DOCKED: USER    NEWDPF quat0 0.802587 0.021043 0.596163 -95.530383
DOCKED: USER    NEWDPF dihe0 170.30 141.39 49.73 54.15 22.69 -63.80 4.44 3.99 -150.16 144.53 
DOCKED: USER  keepresnum = 1 
DOCKED: USER  
DOCKED: REMARK  10 active torsions:
DOCKED: REMARK  status: ('A' for Active; 'I' for Inactive)
DOCKED: REMARK    1  A    between atoms: C_6  and  C_10 
DOCKED: REMARK    2  A    between atoms: C_10  and  C_11 
DOCKED: REMARK    3  A    between atoms: C_11  and  C_12 
DOCKED: REMARK    4  A    between atoms: C_12  and  O_14 
DOCKED: REMARK    5  A    between atoms: C_17  and  C_20 
DOCKED: REMARK    6  A    between atoms: C_24  and  C_27 
DOCKED: REMARK    7  A    between atoms: C_31  and  C_34 
DOCKED: REMARK    8  A    between atoms: C_34  and  C_35 
DOCKED: REMARK    9  A    between atoms: C_35  and  C_36 
DOCKED: REMARK   10  A    between atoms: C_36  and  O_38 
DOCKED: USER                              x       y       z     vdW  Elec       q    Type
DOCKED: USER                           _______ _______ _______ _____ _____    ______ ____
DOCKED: ROOT
DOCKED: ATOM      1  C   UNL d   1      -6.523 -12.613  11.234 -0.30 +0.04    +0.064 C 
DOCKED: ATOM      2  C   UNL d   1      -2.491  -9.907  10.314 -0.27 +0.02    +0.064 A 
DOCKED: ATOM      3  C   UNL d   1      -2.822  -8.040  14.726 -0.19 +0.01    +0.064 C 
DOCKED: ATOM      4  C   UNL d   1      -6.787 -10.571  15.599 -0.18 +0.04    +0.064 C 
DOCKED: ATOM      5  C   UNL d   1      -5.406 -11.963  10.535 -0.23 +0.03    +0.066 A 
DOCKED: ATOM      6  C   UNL d   1      -5.076 -12.169   9.206 -0.25 -0.01    -0.021 A 
DOCKED: ATOM      7  C   UNL d   1      -3.954 -11.420   8.952 -0.23 -0.01    -0.025 A 
DOCKED: ATOM      8  C   UNL d   1      -3.642 -10.784  10.138 -0.23 +0.02    +0.066 A 
DOCKED: ATOM      9  C   UNL d   1      -3.242 -11.313   7.639 -0.34 +0.02    +0.051 C 
DOCKED: ATOM     10  C   UNL d   1      -2.199  -9.237  11.430 -0.23 +0.02    +0.066 A 
DOCKED: ATOM     11  C   UNL d   1      -1.028  -8.496  11.605 -0.25 -0.00    -0.021 A 
DOCKED: ATOM     12  C   UNL d   1      -1.092  -7.960  12.876 -0.23 +0.00    +0.000 A 
DOCKED: ATOM     13  C   UNL d   1      -2.306  -8.414  13.419 -0.15 +0.02    +0.070 A 
DOCKED: ATOM     14  C   UNL d   1       0.127  -8.360  10.634 -0.11 +0.01    +0.052 C 
DOCKED: ATOM     15  C   UNL d   1      -3.965  -8.515  15.274 -0.13 +0.02    +0.066 A 
DOCKED: ATOM     16  C   UNL d   1      -4.475  -8.057  16.483 -0.16 -0.00    -0.021 A 
DOCKED: ATOM     17  C   UNL d   1      -5.617  -8.788  16.738 -0.16 +0.00    +0.000 A 
DOCKED: ATOM     18  C   UNL d   1      -5.775  -9.679  15.679 -0.06 +0.05    +0.070 A 
DOCKED: ATOM     19  C   UNL d   1      -3.900  -6.992  17.377 -0.12 -0.00    +0.052 C 
DOCKED: ATOM     20  C   UNL d   1      -7.020 -11.481  14.472 -0.23 +0.04    +0.066 A 
DOCKED: ATOM     21  C   UNL d   1      -7.938 -12.540  14.462 -0.26 -0.01    -0.025 A 
DOCKED: ATOM     22  C   UNL d   1      -7.855 -13.101  13.204 -0.33 -0.01    -0.021 A 
DOCKED: ATOM     23  C   UNL d   1      -6.891 -12.369  12.501 -0.31 +0.04    +0.066 A 
DOCKED: ATOM     24  C   UNL d   1      -8.847 -13.011  15.574 -0.19 +0.02    +0.051 C 
DOCKED: ATOM     25  N   UNL d   1      -4.532 -11.109  11.097 -0.15 -0.10    -0.248 N 
DOCKED: ATOM     26  N   UNL d   1      -2.977  -9.200  12.541 -0.10 -0.08    -0.248 N 
DOCKED: ATOM     27  N   UNL d   1      -4.785  -9.482  14.758 -0.08 -0.15    -0.248 N 
DOCKED: ATOM     28  N   UNL d   1      -6.352 -11.411  13.294 -0.18 -0.16    -0.248 N 
DOCKED: ATOM     29 FE   UNL d   1      -4.666 -10.305  12.920 -0.05 +0.00    +0.000 Fe
DOCKED: ENDROOT
DOCKED: BRANCH   6  30
DOCKED: ATOM     30  C   UNL d   1      -5.802 -13.018   8.219 -0.31 +0.04    +0.052 C 
DOCKED: BRANCH  30  31
DOCKED: ATOM     31  C   UNL d   1      -5.827 -14.473   8.672 -0.20 +0.10    +0.115 C 
DOCKED: BRANCH  31  32
DOCKED: ATOM     32  C   UNL d   1      -6.463 -15.341   7.622 -0.22 +0.22    +0.139 C 
DOCKED: ATOM     33  O   UNL d   1      -6.501 -14.979   6.454 -0.35 -1.41    -0.650 OA
DOCKED: BRANCH  32  34
DOCKED: ATOM     34  O   UNL d   1      -6.998 -16.527   7.960 -0.58 -1.73    -0.776 OA
DOCKED: ATOM     35  H   UNL d   1      -6.843 -16.875   8.849 +0.02 +0.28    +0.167 HD
DOCKED: ENDBRANCH  32  34
DOCKED: ENDBRANCH  31  32
DOCKED: ENDBRANCH  30  31
DOCKED: ENDBRANCH   6  30
DOCKED: BRANCH  22  36
DOCKED: ATOM     36  C   UNL d   1      -8.626 -14.302  12.724 -0.12 +0.02    +0.052 C 
DOCKED: BRANCH  36  37
DOCKED: ATOM     37  C   UNL d   1      -7.659 -15.416  12.351 -0.18 +0.05    +0.115 C 
DOCKED: BRANCH  37  38
DOCKED: ATOM     38  C   UNL d   1      -8.394 -16.603  11.795 -0.13 +0.10    +0.139 C 
DOCKED: ATOM     39  O   UNL d   1      -9.180 -17.233  12.488 -0.06 -0.41    -0.650 OA
DOCKED: BRANCH  38  40
DOCKED: ATOM     40  O   UNL d   1      -8.187 -16.984  10.522 -0.04 -1.20    -0.776 OA
DOCKED: ATOM     41  H   UNL d   1      -8.079 -16.307   9.840 -0.26 +0.35    +0.167 HD
DOCKED: ENDBRANCH  38  40
DOCKED: ENDBRANCH  37  38
DOCKED: ENDBRANCH  36  37
DOCKED: ENDBRANCH  22  36
DOCKED: BRANCH  12  42
DOCKED: ATOM     42  C   UNL d   1      -0.038  -7.099  13.496 -0.23 +0.00    +0.004 C 
DOCKED: ATOM     43  C   UNL d   1      -0.149  -5.764  13.492 -0.40 -0.00    +0.012 C 
DOCKED: ENDBRANCH  12  42
DOCKED: BRANCH  17  44
DOCKED: ATOM     44  C   UNL d   1      -6.509  -8.630  17.909 -0.15 +0.00    +0.004 C 
DOCKED: ATOM     45  C   UNL d   1      -7.722  -8.082  17.776 -0.24 -0.00    +0.012 C 
DOCKED: ENDBRANCH  17  44
DOCKED: TORSDOF 10
DOCKED: TER
DOCKED: ENDMDL
________________________________________________________________________________


	BEGINNING GENETIC ALGORITHM DOCKING 58 of 100
Run: 58 Seed: 1626752409 280726556 [ Run 58 of 100 GA/GALS ]
Beginning LAMARCKIAN GENETIC ALGORITHM (LGA), with a maximum of 25000000 energy evaluations.

Final-Value: -14.184


	FINAL GENETIC ALGORITHM DOCKED STATE
	_______________________________________________


Detailed state:  trans -5.290 -11.671 12.508 quatxyzw -0.624338 -0.556312 0.047105 -0.546351 center -0.174 -0.001 -0.047 ntor 10 90.1776 -180.0000 -173.5177 -102.1322 -75.8056 70.6383 48.0761 -0.5803 -15.2676 7.7410
State:	 -5.290 -11.671  12.508  -0.745 -0.664  0.056 -113.766     90.18 -180.00 -173.52 -102.13  -75.81   70.64   48.08   -0.58  -15.27    7.74

DOCKED: MODEL       58
DOCKED: USER    Run = 58
DOCKED: USER    DPF = D:/Protein_go_brrr/autodock/final/AncB/heme_Fe/dock.dpf
DOCKED: USER  
DOCKED: USER    Estimated Free Energy of Binding    =   -9.67 kcal/mol  [=(1)+(2)+(3)-(4)]
DOCKED: USER    Estimated Inhibition Constant, Ki   =   81.32 nM (nanomolar)  [Temperature = 298.15 K]
DOCKED: USER    
DOCKED: USER    (1) Final Intermolecular Energy     =  -12.66 kcal/mol
DOCKED: USER        vdW + Hbond + desolv Energy     =   -8.83 kcal/mol
DOCKED: USER        Electrostatic Energy            =   -3.82 kcal/mol
DOCKED: USER    (2) Final Total Internal Energy     =   -1.53 kcal/mol
DOCKED: USER    (3) Torsional Free Energy           =   +2.98 kcal/mol
DOCKED: USER    (4) Unbound System's Energy  [=(2)] =   -1.53 kcal/mol
DOCKED: USER    
DOCKED: USER    
DOCKED: USER    NEWDPF move heme_Fe_opt.pdbqt
DOCKED: USER    NEWDPF about -0.174000 -0.001000 -0.047000
DOCKED: USER    NEWDPF tran0 -5.290318 -11.671124 12.507738
DOCKED: USER    NEWDPF quaternion0 -0.624338 -0.556312 0.047105 -0.546351
DOCKED: USER    NEWDPF axisangle0 -0.745428 -0.664209 0.056241 -113.765872
DOCKED: USER    NEWDPF quat0 -0.745428 -0.664209 0.056241 -113.765872
DOCKED: USER    NEWDPF dihe0 90.18 -180.00 -173.52 -102.13 -75.81 70.64 48.08 -0.58 -15.27 7.74 
DOCKED: USER  keepresnum = 1 
DOCKED: USER  
DOCKED: REMARK  10 active torsions:
DOCKED: REMARK  status: ('A' for Active; 'I' for Inactive)
DOCKED: REMARK    1  A    between atoms: C_6  and  C_10 
DOCKED: REMARK    2  A    between atoms: C_10  and  C_11 
DOCKED: REMARK    3  A    between atoms: C_11  and  C_12 
DOCKED: REMARK    4  A    between atoms: C_12  and  O_14 
DOCKED: REMARK    5  A    between atoms: C_17  and  C_20 
DOCKED: REMARK    6  A    between atoms: C_24  and  C_27 
DOCKED: REMARK    7  A    between atoms: C_31  and  C_34 
DOCKED: REMARK    8  A    between atoms: C_34  and  C_35 
DOCKED: REMARK    9  A    between atoms: C_35  and  C_36 
DOCKED: REMARK   10  A    between atoms: C_36  and  O_38 
DOCKED: USER                              x       y       z     vdW  Elec       q    Type
DOCKED: USER                           _______ _______ _______ _____ _____    ______ ____
DOCKED: ROOT
DOCKED: ATOM      1  C   UNL d   1      -6.429 -12.827  11.251 -0.30 +0.04    +0.064 C 
DOCKED: ATOM      2  C   UNL d   1      -7.063 -10.942  15.776 -0.16 +0.04    +0.064 A 
DOCKED: ATOM      3  C   UNL d   1      -3.323  -8.028  15.011 -0.18 +0.01    +0.064 C 
DOCKED: ATOM      4  C   UNL d   1      -2.626  -9.911  10.669 -0.29 +0.02    +0.064 C 
DOCKED: ATOM      5  C   UNL d   1      -6.902 -12.625  12.628 -0.29 +0.04    +0.066 A 
DOCKED: ATOM      6  C   UNL d   1      -7.898 -13.369  13.238 -0.31 -0.01    -0.021 A 
DOCKED: ATOM      7  C   UNL d   1      -8.076 -12.843  14.494 -0.25 -0.01    -0.025 A 
DOCKED: ATOM      8  C   UNL d   1      -7.181 -11.797  14.601 -0.22 +0.04    +0.066 A 
DOCKED: ATOM      9  C   UNL d   1      -9.040 -13.336  15.529 -0.19 +0.02    +0.051 C 
DOCKED: ATOM     10  C   UNL d   1      -6.169  -9.964  15.928 -0.11 +0.04    +0.066 A 
DOCKED: ATOM     11  C   UNL d   1      -6.155  -9.089  17.017 -0.14 -0.01    -0.021 A 
DOCKED: ATOM     12  C   UNL d   1      -5.096  -8.227  16.812 -0.16 +0.00    +0.000 A 
DOCKED: ATOM     13  C   UNL d   1      -4.518  -8.620  15.592 -0.14 +0.03    +0.070 A 
DOCKED: ATOM     14  C   UNL d   1      -7.145  -9.032  18.163 -0.12 +0.00    +0.052 C 
DOCKED: ATOM     15  C   UNL d   1      -2.793  -8.368  13.813 -0.10 +0.02    +0.066 A 
DOCKED: ATOM     16  C   UNL d   1      -1.595  -7.849  13.339 -0.21 -0.00    -0.021 A 
DOCKED: ATOM     17  C   UNL d   1      -1.393  -8.388  12.085 -0.25 +0.00    +0.000 A 
DOCKED: ATOM     18  C   UNL d   1      -2.478  -9.222  11.822 -0.20 +0.02    +0.070 A 
DOCKED: ATOM     19  C   UNL d   1      -0.685  -6.865  14.024 -0.24 +0.00    +0.052 C 
DOCKED: ATOM     20  C   UNL d   1      -3.722 -10.845  10.382 -0.22 +0.02    +0.066 A 
DOCKED: ATOM     21  C   UNL d   1      -3.997 -11.409   9.128 -0.24 -0.01    -0.025 A 
DOCKED: ATOM     22  C   UNL d   1      -5.077 -12.246   9.320 -0.24 -0.01    -0.021 A 
DOCKED: ATOM     23  C   UNL d   1      -5.420 -12.156  10.674 -0.22 +0.03    +0.066 A 
DOCKED: ATOM     24  C   UNL d   1      -3.291 -11.176   7.813 -0.31 +0.02    +0.051 C 
DOCKED: ATOM     25  N   UNL d   1      -6.461 -11.673  13.468 -0.16 -0.15    -0.248 N 
DOCKED: ATOM     26  N   UNL d   1      -5.177  -9.673  15.049 -0.10 -0.17    -0.248 N 
DOCKED: ATOM     27  N   UNL d   1      -3.316  -9.244  12.901 -0.10 -0.09    -0.248 N 
DOCKED: ATOM     28  N   UNL d   1      -4.618 -11.265  11.307 -0.14 -0.11    -0.248 N 
DOCKED: ATOM     29 FE   UNL d   1      -4.896 -10.469  13.177 -0.05 +0.00    +0.000 Fe
DOCKED: ENDROOT
DOCKED: BRANCH   6  30
DOCKED: ATOM     30  C   UNL d   1      -8.631 -14.536  12.668 -0.08 +0.02    +0.052 C 
DOCKED: BRANCH  30  31
DOCKED: ATOM     31  C   UNL d   1      -7.740 -15.773  12.643 -0.17 +0.05    +0.115 C 
DOCKED: BRANCH  31  32
DOCKED: ATOM     32  C   UNL d   1      -7.801 -16.437  11.295 -0.06 +0.11    +0.139 C 
DOCKED: ATOM     33  O   UNL d   1      -8.775 -17.104  10.973 -0.30 -0.91    -0.650 OA
DOCKED: BRANCH  32  34
DOCKED: ATOM     34  O   UNL d   1      -6.782 -16.304  10.430 -0.01 -0.71    -0.776 OA
DOCKED: ATOM     35  H   UNL d   1      -6.791 -15.565   9.805 +0.01 +0.17    +0.167 HD
DOCKED: ENDBRANCH  32  34
DOCKED: ENDBRANCH  31  32
DOCKED: ENDBRANCH  30  31
DOCKED: ENDBRANCH   6  30
DOCKED: BRANCH  22  36
DOCKED: ATOM     36  C   UNL d   1      -5.768 -13.049   8.250 -0.31 +0.04    +0.052 C 
DOCKED: BRANCH  36  37
DOCKED: ATOM     37  C   UNL d   1      -5.376 -14.514   8.373 -0.15 +0.09    +0.115 C 
DOCKED: BRANCH  37  38
DOCKED: ATOM     38  C   UNL d   1      -6.077 -15.348   7.338 -0.19 +0.21    +0.139 C 
DOCKED: ATOM     39  O   UNL d   1      -5.778 -15.261   6.157 -0.49 -1.30    -0.650 OA
DOCKED: BRANCH  38  40
DOCKED: ATOM     40  O   UNL d   1      -7.050 -16.200   7.710 -0.50 -1.82    -0.776 OA
DOCKED: ATOM     41  H   UNL d   1      -7.284 -16.267   8.646 +0.02 +0.41    +0.167 HD
DOCKED: ENDBRANCH  38  40
DOCKED: ENDBRANCH  37  38
DOCKED: ENDBRANCH  36  37
DOCKED: ENDBRANCH  22  36
DOCKED: BRANCH  12  42
DOCKED: ATOM     42  C   UNL d   1      -4.710  -7.111  17.729 -0.14 -0.00    +0.004 C 
DOCKED: ATOM     43  C   UNL d   1      -4.589  -5.857  17.276 -0.22 -0.00    +0.012 C 
DOCKED: ENDBRANCH  12  42
DOCKED: BRANCH  17  44
DOCKED: ATOM     44  C   UNL d   1      -0.229  -8.138  11.205 -0.29 +0.00    +0.004 C 
DOCKED: ATOM     45  C   UNL d   1       0.199  -6.893  10.974 -0.33 +0.00    +0.012 C 
DOCKED: ENDBRANCH  17  44
DOCKED: TORSDOF 10
DOCKED: TER
DOCKED: ENDMDL
________________________________________________________________________________


	BEGINNING GENETIC ALGORITHM DOCKING 59 of 100
Run: 59 Seed: 1773781585 1496358691 [ Run 59 of 100 GA/GALS ]
Beginning LAMARCKIAN GENETIC ALGORITHM (LGA), with a maximum of 25000000 energy evaluations.

Final-Value: -14.219


	FINAL GENETIC ALGORITHM DOCKED STATE
	_______________________________________________


Detailed state:  trans -5.844 -11.237 12.039 quatxyzw -0.603953 -0.014668 -0.471389 0.642509 center -0.174 -0.001 -0.047 ntor 10 -134.3637 -160.5825 47.9444 47.8676 -88.2141 172.9485 -9.6697 10.4759 -162.0750 149.7868
State:	 -5.844 -11.237  12.039  -0.788 -0.019 -0.615 100.042   -134.36 -160.58   47.94   47.87  -88.21  172.95   -9.67   10.48 -162.07  149.79

DOCKED: MODEL       59
DOCKED: USER    Run = 59
DOCKED: USER    DPF = D:/Protein_go_brrr/autodock/final/AncB/heme_Fe/dock.dpf
DOCKED: USER  
DOCKED: USER    Estimated Free Energy of Binding    =  -10.94 kcal/mol  [=(1)+(2)+(3)-(4)]
DOCKED: USER    Estimated Inhibition Constant, Ki   =    9.55 nM (nanomolar)  [Temperature = 298.15 K]
DOCKED: USER    
DOCKED: USER    (1) Final Intermolecular Energy     =  -13.92 kcal/mol
DOCKED: USER        vdW + Hbond + desolv Energy     =   -9.55 kcal/mol
DOCKED: USER        Electrostatic Energy            =   -4.37 kcal/mol
DOCKED: USER    (2) Final Total Internal Energy     =   -0.29 kcal/mol
DOCKED: USER    (3) Torsional Free Energy           =   +2.98 kcal/mol
DOCKED: USER    (4) Unbound System's Energy  [=(2)] =   -0.29 kcal/mol
DOCKED: USER    
DOCKED: USER    
DOCKED: USER    NEWDPF move heme_Fe_opt.pdbqt
DOCKED: USER    NEWDPF about -0.174000 -0.001000 -0.047000
DOCKED: USER    NEWDPF tran0 -5.843682 -11.237143 12.039447
DOCKED: USER    NEWDPF quaternion0 -0.603953 -0.014668 -0.471389 0.642509
DOCKED: USER    NEWDPF axisangle0 -0.788164 -0.019142 -0.615167 100.041697
DOCKED: USER    NEWDPF quat0 -0.788164 -0.019142 -0.615167 100.041697
DOCKED: USER    NEWDPF dihe0 -134.36 -160.58 47.94 47.87 -88.21 172.95 -9.67 10.48 -162.07 149.79 
DOCKED: USER  keepresnum = 1 
DOCKED: USER  
DOCKED: REMARK  10 active torsions:
DOCKED: REMARK  status: ('A' for Active; 'I' for Inactive)
DOCKED: REMARK    1  A    between atoms: C_6  and  C_10 
DOCKED: REMARK    2  A    between atoms: C_10  and  C_11 
DOCKED: REMARK    3  A    between atoms: C_11  and  C_12 
DOCKED: REMARK    4  A    between atoms: C_12  and  O_14 
DOCKED: REMARK    5  A    between atoms: C_17  and  C_20 
DOCKED: REMARK    6  A    between atoms: C_24  and  C_27 
DOCKED: REMARK    7  A    between atoms: C_31  and  C_34 
DOCKED: REMARK    8  A    between atoms: C_34  and  C_35 
DOCKED: REMARK    9  A    between atoms: C_35  and  C_36 
DOCKED: REMARK   10  A    between atoms: C_36  and  O_38 
DOCKED: USER                              x       y       z     vdW  Elec       q    Type
DOCKED: USER                           _______ _______ _______ _____ _____    ______ ____
DOCKED: ROOT
DOCKED: ATOM      1  C   UNL d   1      -6.596 -12.867  11.046 -0.29 +0.04    +0.064 C 
DOCKED: ATOM      2  C   UNL d   1      -2.727  -9.864  10.378 -0.29 +0.02    +0.064 A 
DOCKED: ATOM      3  C   UNL d   1      -3.294  -8.249  14.865 -0.17 +0.01    +0.064 C 
DOCKED: ATOM      4  C   UNL d   1      -7.105 -11.071  15.497 -0.20 +0.04    +0.064 C 
DOCKED: ATOM      5  C   UNL d   1      -5.506 -12.112  10.413 -0.23 +0.03    +0.066 A 
DOCKED: ATOM      6  C   UNL d   1      -5.130 -12.229   9.085 -0.25 -0.01    -0.021 A 
DOCKED: ATOM      7  C   UNL d   1      -4.053 -11.397   8.902 -0.23 -0.01    -0.025 A 
DOCKED: ATOM      8  C   UNL d   1      -3.813 -10.803  10.126 -0.24 +0.02    +0.066 A 
DOCKED: ATOM      9  C   UNL d   1      -3.316 -11.178   7.616 -0.32 +0.02    +0.051 C 
DOCKED: ATOM     10  C   UNL d   1      -2.509  -9.234  11.533 -0.22 +0.02    +0.066 A 
DOCKED: ATOM     11  C   UNL d   1      -1.395  -8.429  11.778 -0.26 -0.00    -0.021 A 
DOCKED: ATOM     12  C   UNL d   1      -1.526  -7.964  13.072 -0.22 +0.00    +0.000 A 
DOCKED: ATOM     13  C   UNL d   1      -2.721  -8.522  13.556 -0.10 +0.02    +0.070 A 
DOCKED: ATOM     14  C   UNL d   1      -0.226  -8.170  10.849 -0.18 +0.01    +0.052 C 
DOCKED: ATOM     15  C   UNL d   1      -4.417  -8.824  15.356 -0.13 +0.03    +0.066 A 
DOCKED: ATOM     16  C   UNL d   1      -4.987  -8.462  16.570 -0.16 -0.00    -0.021 A 
DOCKED: ATOM     17  C   UNL d   1      -6.084  -9.277  16.756 -0.16 +0.00    +0.000 A 
DOCKED: ATOM     18  C   UNL d   1      -6.156 -10.122  15.650 -0.10 +0.05    +0.070 A 
DOCKED: ATOM     19  C   UNL d   1      -4.506  -7.409  17.532 -0.12 -0.00    +0.052 C 
DOCKED: ATOM     20  C   UNL d   1      -7.249 -11.936  14.320 -0.24 +0.04    +0.066 A 
DOCKED: ATOM     21  C   UNL d   1      -8.095 -13.050  14.232 -0.25 -0.01    -0.025 A 
DOCKED: ATOM     22  C   UNL d   1      -7.943 -13.539  12.951 -0.32 -0.01    -0.021 A 
DOCKED: ATOM     23  C   UNL d   1      -7.011 -12.712  12.313 -0.31 +0.04    +0.066 A 
DOCKED: ATOM     24  C   UNL d   1      -8.999 -13.634  15.293 -0.18 +0.02    +0.051 C 
DOCKED: ATOM     25  N   UNL d   1      -4.705 -11.233  11.041 -0.15 -0.11    -0.248 N 
DOCKED: ATOM     26  N   UNL d   1      -3.317  -9.304  12.622 -0.09 -0.09    -0.248 N 
DOCKED: ATOM     27  N   UNL d   1      -5.158  -9.815  14.768 -0.08 -0.17    -0.248 N 
DOCKED: ATOM     28  N   UNL d   1      -6.557 -11.763  13.167 -0.19 -0.15    -0.248 N 
DOCKED: ATOM     29 FE   UNL d   1      -4.938 -10.534  12.896 -0.05 +0.00    +0.000 Fe
DOCKED: ENDROOT
DOCKED: BRANCH   6  30
DOCKED: ATOM     30  C   UNL d   1      -5.772 -13.071   8.037 -0.31 +0.04    +0.052 C 
DOCKED: BRANCH  30  31
DOCKED: ATOM     31  C   UNL d   1      -5.460 -14.546   8.263 -0.16 +0.10    +0.115 C 
DOCKED: BRANCH  31  32
DOCKED: ATOM     32  C   UNL d   1      -6.293 -15.405   7.352 -0.21 +0.22    +0.139 C 
DOCKED: ATOM     33  O   UNL d   1      -7.405 -15.783   7.696 -0.46 -1.73    -0.650 OA
DOCKED: BRANCH  32  34
DOCKED: ATOM     34  O   UNL d   1      -5.820 -15.768   6.148 -0.50 -1.71    -0.776 OA
DOCKED: ATOM     35  H   UNL d   1      -4.911 -16.092   6.079 +0.04 +0.24    +0.167 HD
DOCKED: ENDBRANCH  32  34
DOCKED: ENDBRANCH  31  32
DOCKED: ENDBRANCH  30  31
DOCKED: ENDBRANCH   6  30
DOCKED: BRANCH  22  36
DOCKED: ATOM     36  C   UNL d   1      -8.621 -14.762  12.390 +0.15 +0.02    +0.052 C 
DOCKED: BRANCH  36  37
DOCKED: ATOM     37  C   UNL d   1      -7.584 -15.841  12.112 -0.16 +0.06    +0.115 C 
DOCKED: BRANCH  37  38
DOCKED: ATOM     38  C   UNL d   1      -8.187 -16.980  11.339 -0.14 +0.13    +0.139 C 
DOCKED: ATOM     39  O   UNL d   1      -7.485 -17.883  10.908 -0.01 -0.59    -0.650 OA
DOCKED: BRANCH  38  40
DOCKED: ATOM     40  O   UNL d   1      -9.512 -17.011  11.113 -0.47 -1.16    -0.776 OA
DOCKED: ATOM     41  H   UNL d   1     -10.022 -16.193  11.194 -0.56 +0.18    +0.167 HD
DOCKED: ENDBRANCH  38  40
DOCKED: ENDBRANCH  37  38
DOCKED: ENDBRANCH  36  37
DOCKED: ENDBRANCH  22  36
DOCKED: BRANCH  12  42
DOCKED: ATOM     42  C   UNL d   1      -0.547  -7.069  13.763 -0.25 +0.00    +0.004 C 
DOCKED: ATOM     43  C   UNL d   1      -0.727  -5.742  13.791 -0.41 -0.00    +0.012 C 
DOCKED: ENDBRANCH  12  42
DOCKED: BRANCH  17  44
DOCKED: ATOM     44  C   UNL d   1      -7.015  -9.236  17.906 -0.14 +0.00    +0.004 C 
DOCKED: ATOM     45  C   UNL d   1      -8.212  -8.649  17.798 -0.23 +0.00    +0.012 C 
DOCKED: ENDBRANCH  17  44
DOCKED: TORSDOF 10
DOCKED: TER
DOCKED: ENDMDL
________________________________________________________________________________


	BEGINNING GENETIC ALGORITHM DOCKING 60 of 100
Run: 60 Seed: 57063412 196403232 [ Run 60 of 100 GA/GALS ]
Beginning LAMARCKIAN GENETIC ALGORITHM (LGA), with a maximum of 25000000 energy evaluations.

Final-Value: -20.119


	FINAL GENETIC ALGORITHM DOCKED STATE
	_______________________________________________


Detailed state:  trans -0.180 -0.788 -9.386 quatxyzw 0.612419 -0.486640 0.275096 -0.558969 center -0.174 -0.001 -0.047 ntor 10 43.6241 42.6929 82.2492 -118.7335 179.7509 -176.1342 -47.7791 -40.6836 -157.7755 3.5887
State:	 -0.180  -0.788  -9.386   0.739 -0.587  0.332 -112.031     43.62   42.69   82.25 -118.73  179.75 -176.13  -47.78  -40.68 -157.78    3.59

DOCKED: MODEL       60
DOCKED: USER    Run = 60
DOCKED: USER    DPF = D:/Protein_go_brrr/autodock/final/AncB/heme_Fe/dock.dpf
DOCKED: USER  
DOCKED: USER    Estimated Free Energy of Binding    =  -14.72 kcal/mol  [=(1)+(2)+(3)-(4)]
DOCKED: USER    Estimated Inhibition Constant, Ki   =   16.28 pM (picomolar)  [Temperature = 298.15 K]
DOCKED: USER    
DOCKED: USER    (1) Final Intermolecular Energy     =  -17.70 kcal/mol
DOCKED: USER        vdW + Hbond + desolv Energy     =  -13.57 kcal/mol
DOCKED: USER        Electrostatic Energy            =   -4.13 kcal/mol
DOCKED: USER    (2) Final Total Internal Energy     =   -2.42 kcal/mol
DOCKED: USER    (3) Torsional Free Energy           =   +2.98 kcal/mol
DOCKED: USER    (4) Unbound System's Energy  [=(2)] =   -2.42 kcal/mol
DOCKED: USER    
DOCKED: USER    
DOCKED: USER    NEWDPF move heme_Fe_opt.pdbqt
DOCKED: USER    NEWDPF about -0.174000 -0.001000 -0.047000
DOCKED: USER    NEWDPF tran0 -0.179565 -0.788235 -9.386014
DOCKED: USER    NEWDPF quaternion0 0.612419 -0.486640 0.275096 -0.558969
DOCKED: USER    NEWDPF axisangle0 0.738577 -0.586887 0.331766 -112.030905
DOCKED: USER    NEWDPF quat0 0.738577 -0.586887 0.331766 -112.030905
DOCKED: USER    NEWDPF dihe0 43.62 42.69 82.25 -118.73 179.75 -176.13 -47.78 -40.68 -157.78 3.59 
DOCKED: USER  keepresnum = 1 
DOCKED: USER  
DOCKED: REMARK  10 active torsions:
DOCKED: REMARK  status: ('A' for Active; 'I' for Inactive)
DOCKED: REMARK    1  A    between atoms: C_6  and  C_10 
DOCKED: REMARK    2  A    between atoms: C_10  and  C_11 
DOCKED: REMARK    3  A    between atoms: C_11  and  C_12 
DOCKED: REMARK    4  A    between atoms: C_12  and  O_14 
DOCKED: REMARK    5  A    between atoms: C_17  and  C_20 
DOCKED: REMARK    6  A    between atoms: C_24  and  C_27 
DOCKED: REMARK    7  A    between atoms: C_31  and  C_34 
DOCKED: REMARK    8  A    between atoms: C_34  and  C_35 
DOCKED: REMARK    9  A    between atoms: C_35  and  C_36 
DOCKED: REMARK   10  A    between atoms: C_36  and  O_38 
DOCKED: USER                              x       y       z     vdW  Elec       q    Type
DOCKED: USER                           _______ _______ _______ _____ _____    ______ ____
DOCKED: ROOT
DOCKED: ATOM      1  C   UNL d   1      -0.979  -0.729 -11.275 -0.23 +0.06    +0.064 C 
DOCKED: ATOM      2  C   UNL d   1       3.435  -1.926  -9.400 -0.46 +0.02    +0.064 A 
DOCKED: ATOM      3  C   UNL d   1       1.444  -2.148  -5.035 -0.44 +0.01    +0.064 C 
DOCKED: ATOM      4  C   UNL d   1      -2.815  -0.888  -6.813 -0.47 +0.02    +0.064 C 
DOCKED: ATOM      5  C   UNL d   1       0.465  -0.964 -11.140 +0.33 +0.04    +0.066 A 
DOCKED: ATOM      6  C   UNL d   1       1.381  -0.869 -12.175 -0.23 -0.01    -0.021 A 
DOCKED: ATOM      7  C   UNL d   1       2.606  -1.206 -11.654 -0.40 -0.01    -0.025 A 
DOCKED: ATOM      8  C   UNL d   1       2.390  -1.492 -10.320 -0.42 +0.02    +0.066 A 
DOCKED: ATOM      9  C   UNL d   1       3.906  -1.228 -12.399 -0.50 +0.01    +0.051 C 
DOCKED: ATOM     10  C   UNL d   1       3.264  -2.153  -8.097 -0.43 +0.02    +0.066 A 
DOCKED: ATOM     11  C   UNL d   1       4.257  -2.677  -7.265 -0.49 -0.01    -0.021 A 
DOCKED: ATOM     12  C   UNL d   1       3.703  -2.767  -6.004 -0.49 +0.00    +0.000 A 
DOCKED: ATOM     13  C   UNL d   1       2.385  -2.296  -6.135 -0.39 +0.02    +0.070 A 
DOCKED: ATOM     14  C   UNL d   1       5.644  -3.136  -7.667 -0.32 +0.02    +0.052 C 
DOCKED: ATOM     15  C   UNL d   1       0.158  -1.743  -5.164 -0.39 +0.02    +0.066 A 
DOCKED: ATOM     16  C   UNL d   1      -0.679  -1.519  -4.078 -0.39 -0.00    -0.021 A 
DOCKED: ATOM     17  C   UNL d   1      -1.909  -1.159  -4.589 -0.44 +0.00    +0.000 A 
DOCKED: ATOM     18  C   UNL d   1      -1.794  -1.176  -5.977 -0.39 +0.02    +0.070 A 
DOCKED: ATOM     19  C   UNL d   1      -0.346  -1.662  -2.617 -0.44 +0.01    +0.052 C 
DOCKED: ATOM     20  C   UNL d   1      -2.715  -0.836  -8.277 -0.36 +0.03    +0.066 A 
DOCKED: ATOM     21  C   UNL d   1      -3.800  -0.737  -9.159 -0.30 -0.01    -0.025 A 
DOCKED: ATOM     22  C   UNL d   1      -3.253  -0.680 -10.425 -0.28 -0.02    -0.021 A 
DOCKED: ATOM     23  C   UNL d   1      -1.864  -0.753 -10.266 -0.30 +0.05    +0.066 A 
DOCKED: ATOM     24  C   UNL d   1      -5.276  -0.701  -8.839 -0.30 +0.02    +0.051 C 
DOCKED: ATOM     25  N   UNL d   1       1.088  -1.335 -10.008 -0.21 -0.13    -0.248 N 
DOCKED: ATOM     26  N   UNL d   1       2.114  -1.929  -7.411 -0.14 -0.11    -0.248 N 
DOCKED: ATOM     27  N   UNL d   1      -0.512  -1.492  -6.331 -0.24 -0.08    -0.248 N 
DOCKED: ATOM     28  N   UNL d   1      -1.544  -0.893  -8.956 -0.24 -0.13    -0.248 N 
DOCKED: ATOM     29 FE   UNL d   1       0.283  -1.411  -8.183 -0.09 +0.00    +0.000 Fe
DOCKED: ENDROOT
DOCKED: BRANCH   6  30
DOCKED: ATOM     30  C   UNL d   1       1.113  -0.460 -13.583 -0.25 +0.03    +0.052 C 
DOCKED: BRANCH  30  31
DOCKED: ATOM     31  C   UNL d   1       0.277  -1.514 -14.301 -0.20 +0.11    +0.115 C 
DOCKED: BRANCH  31  32
DOCKED: ATOM     32  C   UNL d   1      -0.869  -0.868 -15.030 -0.11 +0.19    +0.139 C 
DOCKED: ATOM     33  O   UNL d   1      -1.657  -1.545 -15.676 -0.33 -1.31    -0.650 OA
DOCKED: BRANCH  32  34
DOCKED: ATOM     34  O   UNL d   1      -1.037   0.464 -14.978 +0.02 -0.87    -0.776 OA
DOCKED: ATOM     35  H   UNL d   1      -1.927   0.820 -14.844 +0.03 +0.23    +0.167 HD
DOCKED: ENDBRANCH  32  34
DOCKED: ENDBRANCH  31  32
DOCKED: ENDBRANCH  30  31
DOCKED: ENDBRANCH   6  30
DOCKED: BRANCH  22  36
DOCKED: ATOM     36  C   UNL d   1      -4.027  -0.610 -11.715 -0.11 +0.08    +0.052 C 
DOCKED: BRANCH  36  37
DOCKED: ATOM     37  C   UNL d   1      -4.048   0.824 -12.224 -0.20 +0.15    +0.115 C 
DOCKED: BRANCH  37  38
DOCKED: ATOM     38  C   UNL d   1      -3.841   0.871 -13.711 -0.15 +0.23    +0.139 C 
DOCKED: ATOM     39  O   UNL d   1      -3.757   1.940 -14.297 -0.55 -1.37    -0.650 OA
DOCKED: BRANCH  38  40
DOCKED: ATOM     40  O   UNL d   1      -3.750  -0.273 -14.413 +0.24 -1.87    -0.776 OA
DOCKED: ATOM     41  H   UNL d   1      -3.079  -0.348 -15.105 +0.02 +0.39    +0.167 HD
DOCKED: ENDBRANCH  38  40
DOCKED: ENDBRANCH  37  38
DOCKED: ENDBRANCH  36  37
DOCKED: ENDBRANCH  22  36
DOCKED: BRANCH  12  42
DOCKED: ATOM     42  C   UNL d   1       4.409  -3.289  -4.794 -0.67 +0.00    +0.004 C 
DOCKED: ATOM     43  C   UNL d   1       4.413  -2.598  -3.646 -0.62 +0.00    +0.012 C 
DOCKED: ENDBRANCH  12  42
DOCKED: BRANCH  17  44
DOCKED: ATOM     44  C   UNL d   1      -3.109  -0.802  -3.799 -0.59 +0.00    +0.004 C 
DOCKED: ATOM     45  C   UNL d   1      -3.709  -1.707  -3.019 -0.68 +0.00    +0.012 C 
DOCKED: ENDBRANCH  17  44
DOCKED: TORSDOF 10
DOCKED: TER
DOCKED: ENDMDL
________________________________________________________________________________


	BEGINNING GENETIC ALGORITHM DOCKING 61 of 100
Run: 61 Seed: 1797553446 1156856557 [ Run 61 of 100 GA/GALS ]
Beginning LAMARCKIAN GENETIC ALGORITHM (LGA), with a maximum of 25000000 energy evaluations.

Final-Value: -14.704


	FINAL GENETIC ALGORITHM DOCKED STATE
	_______________________________________________


Detailed state:  trans -5.084 -11.489 11.331 quatxyzw 0.600889 0.021694 0.530486 -0.597533 center -0.174 -0.001 -0.047 ntor 10 -88.2850 -22.7049 52.3503 33.0951 166.9735 -179.1237 36.4237 60.9467 -22.2110 136.1438
State:	 -5.084 -11.489  11.331   0.749  0.027  0.662 -106.613    -88.28  -22.70   52.35   33.10  166.97 -179.12   36.42   60.95  -22.21  136.14

DOCKED: MODEL       61
DOCKED: USER    Run = 61
DOCKED: USER    DPF = D:/Protein_go_brrr/autodock/final/AncB/heme_Fe/dock.dpf
DOCKED: USER  
DOCKED: USER    Estimated Free Energy of Binding    =   -9.27 kcal/mol  [=(1)+(2)+(3)-(4)]
DOCKED: USER    Estimated Inhibition Constant, Ki   =  160.63 nM (nanomolar)  [Temperature = 298.15 K]
DOCKED: USER    
DOCKED: USER    (1) Final Intermolecular Energy     =  -12.25 kcal/mol
DOCKED: USER        vdW + Hbond + desolv Energy     =   -8.12 kcal/mol
DOCKED: USER        Electrostatic Energy            =   -4.13 kcal/mol
DOCKED: USER    (2) Final Total Internal Energy     =   -2.45 kcal/mol
DOCKED: USER    (3) Torsional Free Energy           =   +2.98 kcal/mol
DOCKED: USER    (4) Unbound System's Energy  [=(2)] =   -2.45 kcal/mol
DOCKED: USER    
DOCKED: USER    
DOCKED: USER    NEWDPF move heme_Fe_opt.pdbqt
DOCKED: USER    NEWDPF about -0.174000 -0.001000 -0.047000
DOCKED: USER    NEWDPF tran0 -5.084301 -11.488613 11.330574
DOCKED: USER    NEWDPF quaternion0 0.600889 0.021694 0.530486 -0.597533
DOCKED: USER    NEWDPF axisangle0 0.749384 0.027055 0.661583 -106.613116
DOCKED: USER    NEWDPF quat0 0.749384 0.027055 0.661583 -106.613116
DOCKED: USER    NEWDPF dihe0 -88.28 -22.70 52.35 33.10 166.97 -179.12 36.42 60.95 -22.21 136.14 
DOCKED: USER  keepresnum = 1 
DOCKED: USER  
DOCKED: REMARK  10 active torsions:
DOCKED: REMARK  status: ('A' for Active; 'I' for Inactive)
DOCKED: REMARK    1  A    between atoms: C_6  and  C_10 
DOCKED: REMARK    2  A    between atoms: C_10  and  C_11 
DOCKED: REMARK    3  A    between atoms: C_11  and  C_12 
DOCKED: REMARK    4  A    between atoms: C_12  and  O_14 
DOCKED: REMARK    5  A    between atoms: C_17  and  C_20 
DOCKED: REMARK    6  A    between atoms: C_24  and  C_27 
DOCKED: REMARK    7  A    between atoms: C_31  and  C_34 
DOCKED: REMARK    8  A    between atoms: C_34  and  C_35 
DOCKED: REMARK    9  A    between atoms: C_35  and  C_36 
DOCKED: REMARK   10  A    between atoms: C_36  and  O_38 
DOCKED: USER                              x       y       z     vdW  Elec       q    Type
DOCKED: USER                           _______ _______ _______ _____ _____    ______ ____
DOCKED: ROOT
DOCKED: ATOM      1  C   UNL d   1      -5.560 -13.149  10.223 -0.23 +0.03    +0.064 C 
DOCKED: ATOM      2  C   UNL d   1      -2.074  -9.656   9.938 -0.29 +0.01    +0.064 A 
DOCKED: ATOM      3  C   UNL d   1      -3.115  -8.348  14.441 -0.15 +0.02    +0.064 C 
DOCKED: ATOM      4  C   UNL d   1      -6.565 -11.653  14.700 -0.19 +0.03    +0.064 C 
DOCKED: ATOM      5  C   UNL d   1      -4.539 -12.232   9.696 -0.18 +0.03    +0.066 A 
DOCKED: ATOM      6  C   UNL d   1      -4.071 -12.236   8.392 -0.21 -0.01    -0.021 A 
DOCKED: ATOM      7  C   UNL d   1      -3.100 -11.268   8.315 -0.28 -0.01    -0.025 A 
DOCKED: ATOM      8  C   UNL d   1      -3.013 -10.710   9.576 -0.24 +0.02    +0.066 A 
DOCKED: ATOM      9  C   UNL d   1      -2.320 -10.895   7.092 -0.35 +0.01    +0.051 C 
DOCKED: ATOM     10  C   UNL d   1      -2.009  -9.062  11.131 -0.26 +0.01    +0.066 A 
DOCKED: ATOM     11  C   UNL d   1      -1.024  -8.136  11.483 -0.28 -0.00    -0.021 A 
DOCKED: ATOM     12  C   UNL d   1      -1.292  -7.756  12.783 -0.25 +0.00    +0.000 A 
DOCKED: ATOM     13  C   UNL d   1      -2.433  -8.483  13.163 -0.12 +0.02    +0.070 A 
DOCKED: ATOM     14  C   UNL d   1       0.156  -7.687  10.645 -0.09 +0.00    +0.052 C 
DOCKED: ATOM     15  C   UNL d   1      -4.183  -9.083  14.831 -0.10 +0.03    +0.066 A 
DOCKED: ATOM     16  C   UNL d   1      -4.867  -8.855  16.019 -0.16 -0.01    -0.021 A 
DOCKED: ATOM     17  C   UNL d   1      -5.860  -9.810  16.097 -0.14 +0.00    +0.000 A 
DOCKED: ATOM     18  C   UNL d   1      -5.756 -10.601  14.956 -0.13 +0.04    +0.070 A 
DOCKED: ATOM     19  C   UNL d   1      -4.584  -7.799  17.053 -0.15 -0.00    +0.052 C 
DOCKED: ATOM     20  C   UNL d   1      -6.524 -12.469  13.482 -0.19 +0.03    +0.066 A 
DOCKED: ATOM     21  C   UNL d   1      -7.214 -13.675  13.291 -0.22 -0.01    -0.025 A 
DOCKED: ATOM     22  C   UNL d   1      -6.923 -14.078  12.004 -0.24 -0.01    -0.021 A 
DOCKED: ATOM     23  C   UNL d   1      -6.067 -13.110  11.465 -0.21 +0.03    +0.066 A 
DOCKED: ATOM     24  C   UNL d   1      -8.099 -14.420  14.265 -0.18 +0.02    +0.051 C 
DOCKED: ATOM     25  N   UNL d   1      -3.897 -11.293  10.411 -0.11 -0.09    -0.248 N 
DOCKED: ATOM     26  N   UNL d   1      -2.866  -9.285  12.160 -0.13 -0.07    -0.248 N 
DOCKED: ATOM     27  N   UNL d   1      -4.754 -10.128  14.156 -0.10 -0.14    -0.248 N 
DOCKED: ATOM     28  N   UNL d   1      -5.792 -12.155  12.386 -0.13 -0.12    -0.248 N 
DOCKED: ATOM     29 FE   UNL d   1      -4.330 -10.721  12.274 -0.05 +0.00    +0.000 Fe
DOCKED: ENDROOT
DOCKED: BRANCH   6  30
DOCKED: ATOM     30  C   UNL d   1      -4.535 -13.099   7.269 -0.23 +0.03    +0.052 C 
DOCKED: BRANCH  30  31
DOCKED: ATOM     31  C   UNL d   1      -5.967 -12.752   6.878 -0.35 +0.10    +0.115 C 
DOCKED: BRANCH  31  32
DOCKED: ATOM     32  C   UNL d   1      -6.722 -13.994   6.491 -0.21 +0.23    +0.139 C 
DOCKED: ATOM     33  O   UNL d   1      -7.939 -13.972   6.375 -0.02 -1.27    -0.650 OA
DOCKED: BRANCH  32  34
DOCKED: ATOM     34  O   UNL d   1      -6.062 -15.143   6.268 -0.38 -1.64    -0.776 OA
DOCKED: ATOM     35  H   UNL d   1      -5.935 -15.761   7.002 +0.04 +0.27    +0.167 HD
DOCKED: ENDBRANCH  32  34
DOCKED: ENDBRANCH  31  32
DOCKED: ENDBRANCH  30  31
DOCKED: ENDBRANCH   6  30
DOCKED: BRANCH  22  36
DOCKED: ATOM     36  C   UNL d   1      -7.403 -15.346  11.350 -0.02 +0.03    +0.052 C 
DOCKED: BRANCH  36  37
DOCKED: ATOM     37  C   UNL d   1      -6.216 -16.118  10.793 -0.11 +0.08    +0.115 C 
DOCKED: BRANCH  37  38
DOCKED: ATOM     38  C   UNL d   1      -6.340 -16.300   9.307 -0.13 +0.16    +0.139 C 
DOCKED: ATOM     39  O   UNL d   1      -5.488 -16.910   8.679 +0.01 -0.60    -0.650 OA
DOCKED: BRANCH  38  40
DOCKED: ATOM     40  O   UNL d   1      -7.397 -15.786   8.654 -0.29 -1.79    -0.776 OA
DOCKED: ATOM     41  H   UNL d   1      -7.322 -15.606   7.706 +0.03 +0.40    +0.167 HD
DOCKED: ENDBRANCH  38  40
DOCKED: ENDBRANCH  37  38
DOCKED: ENDBRANCH  36  37
DOCKED: ENDBRANCH  22  36
DOCKED: BRANCH  12  42
DOCKED: ATOM     42  C   UNL d   1      -0.480  -6.781  13.574 -0.29 +0.00    +0.004 C 
DOCKED: ATOM     43  C   UNL d   1      -0.876  -5.510  13.717 -0.42 -0.00    +0.012 C 
DOCKED: ENDBRANCH  12  42
DOCKED: BRANCH  17  44
DOCKED: ATOM     44  C   UNL d   1      -6.857  -9.942  17.184 -0.14 +0.00    +0.004 C 
DOCKED: ATOM     45  C   UNL d   1      -8.006  -9.259  17.147 -0.26 +0.00    +0.012 C 
DOCKED: ENDBRANCH  17  44
DOCKED: TORSDOF 10
DOCKED: TER
DOCKED: ENDMDL
________________________________________________________________________________


	BEGINNING GENETIC ALGORITHM DOCKING 62 of 100
Run: 62 Seed: 966525946 1174248296 [ Run 62 of 100 GA/GALS ]
Beginning LAMARCKIAN GENETIC ALGORITHM (LGA), with a maximum of 25000000 energy evaluations.

Final-Value: -14.785


	FINAL GENETIC ALGORITHM DOCKED STATE
	_______________________________________________


Detailed state:  trans -5.524 -11.055 12.060 quatxyzw 0.597319 0.015417 0.487020 -0.637011 center -0.174 -0.001 -0.047 ntor 10 145.7405 -104.1588 35.2034 50.7983 48.0836 142.0481 -27.1480 37.3936 -142.1528 170.9785
State:	 -5.524 -11.055  12.060   0.775  0.020  0.632 -100.861    145.74 -104.16   35.20   50.80   48.08  142.05  -27.15   37.39 -142.15  170.98

DOCKED: MODEL       62
DOCKED: USER    Run = 62
DOCKED: USER    DPF = D:/Protein_go_brrr/autodock/final/AncB/heme_Fe/dock.dpf
DOCKED: USER  
DOCKED: USER    Estimated Free Energy of Binding    =   -9.86 kcal/mol  [=(1)+(2)+(3)-(4)]
DOCKED: USER    Estimated Inhibition Constant, Ki   =   59.45 nM (nanomolar)  [Temperature = 298.15 K]
DOCKED: USER    
DOCKED: USER    (1) Final Intermolecular Energy     =  -12.84 kcal/mol
DOCKED: USER        vdW + Hbond + desolv Energy     =   -9.04 kcal/mol
DOCKED: USER        Electrostatic Energy            =   -3.80 kcal/mol
DOCKED: USER    (2) Final Total Internal Energy     =   -1.94 kcal/mol
DOCKED: USER    (3) Torsional Free Energy           =   +2.98 kcal/mol
DOCKED: USER    (4) Unbound System's Energy  [=(2)] =   -1.94 kcal/mol
DOCKED: USER    
DOCKED: USER    
DOCKED: USER    NEWDPF move heme_Fe_opt.pdbqt
DOCKED: USER    NEWDPF about -0.174000 -0.001000 -0.047000
DOCKED: USER    NEWDPF tran0 -5.523746 -11.054646 12.059624
DOCKED: USER    NEWDPF quaternion0 0.597319 0.015417 0.487020 -0.637011
DOCKED: USER    NEWDPF axisangle0 0.774879 0.020000 0.631793 -100.861368
DOCKED: USER    NEWDPF quat0 0.774879 0.020000 0.631793 -100.861368
DOCKED: USER    NEWDPF dihe0 145.74 -104.16 35.20 50.80 48.08 142.05 -27.15 37.39 -142.15 170.98 
DOCKED: USER  keepresnum = 1 
DOCKED: USER  
DOCKED: REMARK  10 active torsions:
DOCKED: REMARK  status: ('A' for Active; 'I' for Inactive)
DOCKED: REMARK    1  A    between atoms: C_6  and  C_10 
DOCKED: REMARK    2  A    between atoms: C_10  and  C_11 
DOCKED: REMARK    3  A    between atoms: C_11  and  C_12 
DOCKED: REMARK    4  A    between atoms: C_12  and  O_14 
DOCKED: REMARK    5  A    between atoms: C_17  and  C_20 
DOCKED: REMARK    6  A    between atoms: C_24  and  C_27 
DOCKED: REMARK    7  A    between atoms: C_31  and  C_34 
DOCKED: REMARK    8  A    between atoms: C_34  and  C_35 
DOCKED: REMARK    9  A    between atoms: C_35  and  C_36 
DOCKED: REMARK   10  A    between atoms: C_36  and  O_38 
DOCKED: USER                              x       y       z     vdW  Elec       q    Type
DOCKED: USER                           _______ _______ _______ _____ _____    ______ ____
DOCKED: ROOT
DOCKED: ATOM      1  C   UNL d   1      -6.209 -12.706  11.052 -0.29 +0.03    +0.064 C 
DOCKED: ATOM      2  C   UNL d   1      -2.406  -9.603  10.470 -0.29 +0.01    +0.064 A 
DOCKED: ATOM      3  C   UNL d   1      -3.122  -7.995  14.938 -0.18 +0.01    +0.064 C 
DOCKED: ATOM      4  C   UNL d   1      -6.872 -10.915  15.486 -0.19 +0.04    +0.064 C 
DOCKED: ATOM      5  C   UNL d   1      -5.124 -11.923  10.444 -0.22 +0.03    +0.066 A 
DOCKED: ATOM      6  C   UNL d   1      -4.713 -12.032   9.126 -0.23 -0.01    -0.021 A 
DOCKED: ATOM      7  C   UNL d   1      -3.654 -11.173   8.966 -0.24 -0.01    -0.025 A 
DOCKED: ATOM      8  C   UNL d   1      -3.460 -10.571  10.194 -0.25 +0.02    +0.066 A 
DOCKED: ATOM      9  C   UNL d   1      -2.893 -10.937   7.698 -0.36 +0.01    +0.051 C 
DOCKED: ATOM     10  C   UNL d   1      -2.232  -8.965  11.628 -0.21 +0.02    +0.066 A 
DOCKED: ATOM     11  C   UNL d   1      -1.145  -8.130  11.898 -0.27 -0.00    -0.021 A 
DOCKED: ATOM     12  C   UNL d   1      -1.319  -7.667  13.187 -0.24 +0.00    +0.000 A 
DOCKED: ATOM     13  C   UNL d   1      -2.511  -8.256  13.644 -0.14 +0.02    +0.070 A 
DOCKED: ATOM     14  C   UNL d   1       0.038  -7.842  10.997 -0.25 +0.01    +0.052 C 
DOCKED: ATOM     15  C   UNL d   1      -4.242  -8.599  15.403 -0.13 +0.02    +0.066 A 
DOCKED: ATOM     16  C   UNL d   1      -4.849  -8.250  16.602 -0.16 -0.00    -0.021 A 
DOCKED: ATOM     17  C   UNL d   1      -5.929  -9.093  16.764 -0.16 +0.00    +0.000 A 
DOCKED: ATOM     18  C   UNL d   1      -5.952  -9.941  15.659 -0.06 +0.05    +0.070 A 
DOCKED: ATOM     19  C   UNL d   1      -4.420  -7.183  17.573 -0.12 -0.01    +0.052 C 
DOCKED: ATOM     20  C   UNL d   1      -6.964 -11.786  14.307 -0.22 +0.04    +0.066 A 
DOCKED: ATOM     21  C   UNL d   1      -7.778 -12.923  14.202 -0.24 -0.01    -0.025 A 
DOCKED: ATOM     22  C   UNL d   1      -7.583 -13.410  12.926 -0.31 -0.01    -0.021 A 
DOCKED: ATOM     23  C   UNL d   1      -6.658 -12.560  12.309 -0.28 +0.04    +0.066 A 
DOCKED: ATOM     24  C   UNL d   1      -8.692 -13.528  15.242 -0.19 +0.02    +0.051 C 
DOCKED: ATOM     25  N   UNL d   1      -4.362 -11.022  11.089 -0.14 -0.10    -0.248 N 
DOCKED: ATOM     26  N   UNL d   1      -3.063  -9.054  12.698 -0.04 -0.08    -0.248 N 
DOCKED: ATOM     27  N   UNL d   1      -4.942  -9.610  14.801 -0.09 -0.16    -0.248 N 
DOCKED: ATOM     28  N   UNL d   1      -6.250 -11.597  13.171 -0.16 -0.15    -0.248 N 
DOCKED: ATOM     29 FE   UNL d   1      -4.658 -10.326  12.936 -0.05 +0.00    +0.000 Fe
DOCKED: ENDROOT
DOCKED: BRANCH   6  30
DOCKED: ATOM     30  C   UNL d   1      -5.308 -12.893   8.064 -0.28 +0.03    +0.052 C 
DOCKED: BRANCH  30  31
DOCKED: ATOM     31  C   UNL d   1      -5.399 -14.342   8.532 -0.16 +0.09    +0.115 C 
DOCKED: BRANCH  31  32
DOCKED: ATOM     32  C   UNL d   1      -6.523 -15.051   7.829 -0.24 +0.20    +0.139 C 
DOCKED: ATOM     33  O   UNL d   1      -6.649 -14.970   6.615 -0.35 -1.37    -0.650 OA
DOCKED: BRANCH  32  34
DOCKED: ATOM     34  O   UNL d   1      -7.402 -15.784   8.532 -0.30 -1.85    -0.776 OA
DOCKED: ATOM     35  H   UNL d   1      -7.095 -16.264   9.314 +0.01 +0.28    +0.167 HD
DOCKED: ENDBRANCH  32  34
DOCKED: ENDBRANCH  31  32
DOCKED: ENDBRANCH  30  31
DOCKED: ENDBRANCH   6  30
DOCKED: BRANCH  22  36
DOCKED: ATOM     36  C   UNL d   1      -8.214 -14.651  12.352 -0.17 +0.02    +0.052 C 
DOCKED: BRANCH  36  37
DOCKED: ATOM     37  C   UNL d   1      -7.301 -15.845  12.584 -0.13 +0.05    +0.115 C 
DOCKED: BRANCH  37  38
DOCKED: ATOM     38  C   UNL d   1      -7.345 -16.791  11.417 -0.13 +0.10    +0.139 C 
DOCKED: ATOM     39  O   UNL d   1      -6.333 -17.360  11.035 +0.02 -0.42    -0.650 OA
DOCKED: BRANCH  38  40
DOCKED: ATOM     40  O   UNL d   1      -8.507 -17.015  10.778 -0.14 -1.15    -0.776 OA
DOCKED: ATOM     41  H   UNL d   1      -8.851 -16.340  10.177 -0.38 +0.38    +0.167 HD
DOCKED: ENDBRANCH  38  40
DOCKED: ENDBRANCH  37  38
DOCKED: ENDBRANCH  36  37
DOCKED: ENDBRANCH  22  36
DOCKED: BRANCH  12  42
DOCKED: ATOM     42  C   UNL d   1      -0.382  -6.745  13.900 -0.26 +0.00    +0.004 C 
DOCKED: ATOM     43  C   UNL d   1      -0.445  -5.420  13.716 -0.43 -0.00    +0.012 C 
DOCKED: ENDBRANCH  12  42
DOCKED: BRANCH  17  44
DOCKED: ATOM     44  C   UNL d   1      -6.888  -9.075  17.892 -0.14 +0.00    +0.004 C 
DOCKED: ATOM     45  C   UNL d   1      -8.117  -8.572  17.737 -0.23 +0.00    +0.012 C 
DOCKED: ENDBRANCH  17  44
DOCKED: TORSDOF 10
DOCKED: TER
DOCKED: ENDMDL
________________________________________________________________________________


	BEGINNING GENETIC ALGORITHM DOCKING 63 of 100
Run: 63 Seed: 615368040 1840573568 [ Run 63 of 100 GA/GALS ]
Beginning LAMARCKIAN GENETIC ALGORITHM (LGA), with a maximum of 25000000 energy evaluations.

Final-Value: -16.184


	FINAL GENETIC ALGORITHM DOCKED STATE
	_______________________________________________


Detailed state:  trans -0.557 -1.768 -7.963 quatxyzw -0.609225 0.108838 0.030317 -0.784908 center -0.174 -0.001 -0.047 ntor 10 172.5434 -159.8617 -124.2023 -134.8537 129.3383 -110.6811 91.9926 113.2462 160.7506 1.7327
State:	 -0.557  -1.768  -7.963  -0.983  0.176  0.049 -76.576    172.54 -159.86 -124.20 -134.85  129.34 -110.68   91.99  113.25  160.75    1.73

DOCKED: MODEL       63
DOCKED: USER    Run = 63
DOCKED: USER    DPF = D:/Protein_go_brrr/autodock/final/AncB/heme_Fe/dock.dpf
DOCKED: USER  
DOCKED: USER    Estimated Free Energy of Binding    =  -12.74 kcal/mol  [=(1)+(2)+(3)-(4)]
DOCKED: USER    Estimated Inhibition Constant, Ki   =  462.46 pM (picomolar)  [Temperature = 298.15 K]
DOCKED: USER    
DOCKED: USER    (1) Final Intermolecular Energy     =  -15.72 kcal/mol
DOCKED: USER        vdW + Hbond + desolv Energy     =  -14.01 kcal/mol
DOCKED: USER        Electrostatic Energy            =   -1.71 kcal/mol
DOCKED: USER    (2) Final Total Internal Energy     =   -0.47 kcal/mol
DOCKED: USER    (3) Torsional Free Energy           =   +2.98 kcal/mol
DOCKED: USER    (4) Unbound System's Energy  [=(2)] =   -0.47 kcal/mol
DOCKED: USER    
DOCKED: USER    
DOCKED: USER    NEWDPF move heme_Fe_opt.pdbqt
DOCKED: USER    NEWDPF about -0.174000 -0.001000 -0.047000
DOCKED: USER    NEWDPF tran0 -0.556504 -1.768181 -7.963320
DOCKED: USER    NEWDPF quaternion0 -0.609225 0.108838 0.030317 -0.784908
DOCKED: USER    NEWDPF axisangle0 -0.983235 0.175655 0.048930 -76.575714
DOCKED: USER    NEWDPF quat0 -0.983235 0.175655 0.048930 -76.575714
DOCKED: USER    NEWDPF dihe0 172.54 -159.86 -124.20 -134.85 129.34 -110.68 91.99 113.25 160.75 1.73 
DOCKED: USER  keepresnum = 1 
DOCKED: USER  
DOCKED: REMARK  10 active torsions:
DOCKED: REMARK  status: ('A' for Active; 'I' for Inactive)
DOCKED: REMARK    1  A    between atoms: C_6  and  C_10 
DOCKED: REMARK    2  A    between atoms: C_10  and  C_11 
DOCKED: REMARK    3  A    between atoms: C_11  and  C_12 
DOCKED: REMARK    4  A    between atoms: C_12  and  O_14 
DOCKED: REMARK    5  A    between atoms: C_17  and  C_20 
DOCKED: REMARK    6  A    between atoms: C_24  and  C_27 
DOCKED: REMARK    7  A    between atoms: C_31  and  C_34 
DOCKED: REMARK    8  A    between atoms: C_34  and  C_35 
DOCKED: REMARK    9  A    between atoms: C_35  and  C_36 
DOCKED: REMARK   10  A    between atoms: C_36  and  O_38 
DOCKED: USER                              x       y       z     vdW  Elec       q    Type
DOCKED: USER                           _______ _______ _______ _____ _____    ______ ____
DOCKED: ROOT
DOCKED: ATOM      1  C   UNL d   1      -2.405  -1.103  -7.371 -0.44 +0.02    +0.064 C 
DOCKED: ATOM      2  C   UNL d   1       1.727  -2.451  -5.017 -0.38 +0.01    +0.064 A 
DOCKED: ATOM      3  C   UNL d   1       4.114  -2.139  -9.174 -0.51 +0.02    +0.064 C 
DOCKED: ATOM      4  C   UNL d   1       0.105  -0.936 -11.491 -0.00 +0.04    +0.064 C 
DOCKED: ATOM      5  C   UNL d   1      -1.481  -1.592  -6.339 -0.36 +0.02    +0.066 A 
DOCKED: ATOM      6  C   UNL d   1      -1.842  -1.907  -5.040 -0.47 -0.00    -0.021 A 
DOCKED: ATOM      7  C   UNL d   1      -0.693  -2.278  -4.385 -0.45 -0.00    -0.025 A 
DOCKED: ATOM      8  C   UNL d   1       0.326  -2.175  -5.312 -0.39 +0.01    +0.066 A 
DOCKED: ATOM      9  C   UNL d   1      -0.594  -2.723  -2.958 -0.37 +0.01    +0.051 C 
DOCKED: ATOM     10  C   UNL d   1       2.721  -2.414  -5.907 -0.40 +0.01    +0.066 A 
DOCKED: ATOM     11  C   UNL d   1       4.067  -2.571  -5.571 -0.49 -0.00    -0.021 A 
DOCKED: ATOM     12  C   UNL d   1       4.778  -2.468  -6.750 -0.52 +0.00    +0.000 A 
DOCKED: ATOM     13  C   UNL d   1       3.819  -2.244  -7.753 -0.44 +0.02    +0.070 A 
DOCKED: ATOM     14  C   UNL d   1       4.655  -2.741  -4.185 -0.63 +0.01    +0.052 C 
DOCKED: ATOM     15  C   UNL d   1       3.201  -1.872 -10.137 -0.47 +0.02    +0.066 A 
DOCKED: ATOM     16  C   UNL d   1       3.504  -1.878 -11.493 -0.48 -0.01    -0.021 A 
DOCKED: ATOM     17  C   UNL d   1       2.351  -1.528 -12.163 -0.26 +0.00    +0.000 A 
DOCKED: ATOM     18  C   UNL d   1       1.369  -1.311 -11.198 -0.21 +0.03    +0.070 A 
DOCKED: ATOM     19  C   UNL d   1       4.833  -2.177 -12.135 -0.40 +0.01    +0.052 C 
DOCKED: ATOM     20  C   UNL d   1      -0.970  -0.758 -10.507 -0.14 +0.05    +0.066 A 
DOCKED: ATOM     21  C   UNL d   1      -2.220  -0.180 -10.769 -0.29 -0.02    -0.025 A 
DOCKED: ATOM     22  C   UNL d   1      -2.924  -0.250  -9.585 -0.33 -0.01    -0.021 A 
DOCKED: ATOM     23  C   UNL d   1      -2.078  -0.858  -8.650 -0.35 +0.03    +0.066 A 
DOCKED: ATOM     24  C   UNL d   1      -2.733   0.413 -12.061 -0.26 +0.07    +0.051 C 
DOCKED: ATOM     25  N   UNL d   1      -0.158  -1.766  -6.502 -0.11 -0.09    -0.248 N 
DOCKED: ATOM     26  N   UNL d   1       2.566  -2.202  -7.239 -0.24 -0.08    -0.248 N 
DOCKED: ATOM     27  N   UNL d   1       1.879  -1.565  -9.955 -0.29 -0.11    -0.248 N 
DOCKED: ATOM     28  N   UNL d   1      -0.871  -1.125  -9.207 -0.22 -0.13    -0.248 N 
DOCKED: ATOM     29 FE   UNL d   1       0.847  -1.663  -8.224 -0.09 +0.00    +0.000 Fe
DOCKED: ENDROOT
DOCKED: BRANCH   6  30
DOCKED: ATOM     30  C   UNL d   1      -3.211  -1.879  -4.452 -0.56 +0.01    +0.052 C 
DOCKED: BRANCH  30  31
DOCKED: ATOM     31  C   UNL d   1      -3.346  -0.739  -3.449 -0.53 +0.01    +0.115 C 
DOCKED: BRANCH  31  32
DOCKED: ATOM     32  C   UNL d   1      -2.919  -1.189  -2.080 -0.43 +0.02    +0.139 C 
DOCKED: ATOM     33  O   UNL d   1      -2.112  -0.537  -1.433 +0.04 -0.08    -0.650 OA
DOCKED: BRANCH  32  34
DOCKED: ATOM     34  O   UNL d   1      -3.425  -2.317  -1.553 +0.15 -0.12    -0.776 OA
DOCKED: ATOM     35  H   UNL d   1      -4.142  -2.772  -2.016 +0.12 +0.03    +0.167 HD
DOCKED: ENDBRANCH  32  34
DOCKED: ENDBRANCH  31  32
DOCKED: ENDBRANCH  30  31
DOCKED: ENDBRANCH   6  30
DOCKED: BRANCH  22  36
DOCKED: ATOM     36  C   UNL d   1      -4.313   0.284  -9.354 -0.34 +0.03    +0.052 C 
DOCKED: BRANCH  36  37
DOCKED: ATOM     37  C   UNL d   1      -5.323  -0.849  -9.461 -0.21 +0.07    +0.115 C 
DOCKED: BRANCH  37  38
DOCKED: ATOM     38  C   UNL d   1      -5.406  -1.365 -10.870 -0.17 +0.13    +0.139 C 
DOCKED: ATOM     39  O   UNL d   1      -6.406  -1.177 -11.547 +0.02 -0.57    -0.650 OA
DOCKED: BRANCH  38  40
DOCKED: ATOM     40  O   UNL d   1      -4.373  -2.045 -11.398 -0.41 -1.39    -0.776 OA
DOCKED: ATOM     41  H   UNL d   1      -3.722  -2.446 -10.805 +0.06 +0.23    +0.167 HD
DOCKED: ENDBRANCH  38  40
DOCKED: ENDBRANCH  37  38
DOCKED: ENDBRANCH  36  37
DOCKED: ENDBRANCH  22  36
DOCKED: BRANCH  12  42
DOCKED: ATOM     42  C   UNL d   1       6.267  -2.565  -6.863 -0.58 +0.00    +0.004 C 
DOCKED: ATOM     43  C   UNL d   1       7.053  -1.543  -6.502 -0.64 +0.00    +0.012 C 
DOCKED: ENDBRANCH  12  42
DOCKED: BRANCH  17  44
DOCKED: ATOM     44  C   UNL d   1       2.192  -1.427 -13.631 -0.22 +0.00    +0.004 C 
DOCKED: ATOM     45  C   UNL d   1       2.596  -0.337 -14.290 -0.27 +0.00    +0.012 C 
DOCKED: ENDBRANCH  17  44
DOCKED: TORSDOF 10
DOCKED: TER
DOCKED: ENDMDL
________________________________________________________________________________


	BEGINNING GENETIC ALGORITHM DOCKING 64 of 100
Run: 64 Seed: 1734185335 1246879194 [ Run 64 of 100 GA/GALS ]
Beginning LAMARCKIAN GENETIC ALGORITHM (LGA), with a maximum of 25000000 energy evaluations.

Final-Value: -13.951


	FINAL GENETIC ALGORITHM DOCKED STATE
	_______________________________________________


Detailed state:  trans -4.369 -11.813 11.604 quatxyzw -0.583620 -0.603408 0.044446 -0.541582 center -0.174 -0.001 -0.047 ntor 10 170.5532 -82.2889 -177.4798 -94.0191 -85.5696 179.2201 20.4870 28.7915 -46.5006 138.4988
State:	 -4.369 -11.813  11.604  -0.694 -0.718  0.053 -114.417    170.55  -82.29 -177.48  -94.02  -85.57  179.22   20.49   28.79  -46.50  138.50

DOCKED: MODEL       64
DOCKED: USER    Run = 64
DOCKED: USER    DPF = D:/Protein_go_brrr/autodock/final/AncB/heme_Fe/dock.dpf
DOCKED: USER  
DOCKED: USER    Estimated Free Energy of Binding    =   -9.60 kcal/mol  [=(1)+(2)+(3)-(4)]
DOCKED: USER    Estimated Inhibition Constant, Ki   =   91.32 nM (nanomolar)  [Temperature = 298.15 K]
DOCKED: USER    
DOCKED: USER    (1) Final Intermolecular Energy     =  -12.59 kcal/mol
DOCKED: USER        vdW + Hbond + desolv Energy     =   -8.37 kcal/mol
DOCKED: USER        Electrostatic Energy            =   -4.21 kcal/mol
DOCKED: USER    (2) Final Total Internal Energy     =   -1.36 kcal/mol
DOCKED: USER    (3) Torsional Free Energy           =   +2.98 kcal/mol
DOCKED: USER    (4) Unbound System's Energy  [=(2)] =   -1.36 kcal/mol
DOCKED: USER    
DOCKED: USER    
DOCKED: USER    NEWDPF move heme_Fe_opt.pdbqt
DOCKED: USER    NEWDPF about -0.174000 -0.001000 -0.047000
DOCKED: USER    NEWDPF tran0 -4.368748 -11.812572 11.603554
DOCKED: USER    NEWDPF quaternion0 -0.583620 -0.603408 0.044446 -0.541582
DOCKED: USER    NEWDPF axisangle0 -0.694250 -0.717789 0.052871 -114.417155
DOCKED: USER    NEWDPF quat0 -0.694250 -0.717789 0.052871 -114.417155
DOCKED: USER    NEWDPF dihe0 170.55 -82.29 -177.48 -94.02 -85.57 179.22 20.49 28.79 -46.50 138.50 
DOCKED: USER  keepresnum = 1 
DOCKED: USER  
DOCKED: REMARK  10 active torsions:
DOCKED: REMARK  status: ('A' for Active; 'I' for Inactive)
DOCKED: REMARK    1  A    between atoms: C_6  and  C_10 
DOCKED: REMARK    2  A    between atoms: C_10  and  C_11 
DOCKED: REMARK    3  A    between atoms: C_11  and  C_12 
DOCKED: REMARK    4  A    between atoms: C_12  and  O_14 
DOCKED: REMARK    5  A    between atoms: C_17  and  C_20 
DOCKED: REMARK    6  A    between atoms: C_24  and  C_27 
DOCKED: REMARK    7  A    between atoms: C_31  and  C_34 
DOCKED: REMARK    8  A    between atoms: C_34  and  C_35 
DOCKED: REMARK    9  A    between atoms: C_35  and  C_36 
DOCKED: REMARK   10  A    between atoms: C_36  and  O_38 
DOCKED: USER                              x       y       z     vdW  Elec       q    Type
DOCKED: USER                           _______ _______ _______ _____ _____    ______ ____
DOCKED: ROOT
DOCKED: ATOM      1  C   UNL d   1      -5.313 -13.014  10.234 -0.21 +0.03    +0.064 C 
DOCKED: ATOM      2  C   UNL d   1      -6.380 -11.425  14.791 -0.16 +0.03    +0.064 A 
DOCKED: ATOM      3  C   UNL d   1      -2.924  -8.117  14.372 -0.18 +0.01    +0.064 C 
DOCKED: ATOM      4  C   UNL d   1      -1.805  -9.707  10.001 -0.29 +0.01    +0.064 C 
DOCKED: ATOM      5  C   UNL d   1      -5.878 -12.928  11.588 -0.19 +0.03    +0.066 A 
DOCKED: ATOM      6  C   UNL d   1      -6.824 -13.797  12.107 -0.24 -0.01    -0.021 A 
DOCKED: ATOM      7  C   UNL d   1      -7.123 -13.353  13.371 -0.22 -0.01    -0.025 A 
DOCKED: ATOM      8  C   UNL d   1      -6.346 -12.229  13.576 -0.18 +0.03    +0.066 A 
DOCKED: ATOM      9  C   UNL d   1      -8.084 -13.990  14.327 -0.20 +0.02    +0.051 C 
DOCKED: ATOM     10  C   UNL d   1      -5.601 -10.370  15.037 -0.12 +0.04    +0.066 A 
DOCKED: ATOM     11  C   UNL d   1      -5.736  -9.552  16.161 -0.13 -0.01    -0.021 A 
DOCKED: ATOM     12  C   UNL d   1      -4.761  -8.580  16.056 -0.17 +0.00    +0.000 A 
DOCKED: ATOM     13  C   UNL d   1      -4.081  -8.853  14.856 -0.09 +0.03    +0.070 A 
DOCKED: ATOM     14  C   UNL d   1      -6.786  -9.651  17.249 -0.14 +0.02    +0.052 C 
DOCKED: ATOM     15  C   UNL d   1      -2.298  -8.343  13.193 -0.12 +0.01    +0.066 A 
DOCKED: ATOM     16  C   UNL d   1      -1.135  -7.684  12.813 -0.24 -0.00    -0.021 A 
DOCKED: ATOM     17  C   UNL d   1      -0.813  -8.139  11.551 -0.29 +0.00    +0.000 A 
DOCKED: ATOM     18  C   UNL d   1      -1.790  -9.063  11.189 -0.25 +0.01    +0.070 A 
DOCKED: ATOM     19  C   UNL d   1      -0.370  -6.649  13.592 -0.28 +0.00    +0.052 C 
DOCKED: ATOM     20  C   UNL d   1      -2.781 -10.731   9.611 -0.23 +0.02    +0.066 A 
DOCKED: ATOM     21  C   UNL d   1      -2.930 -11.258   8.320 -0.28 -0.01    -0.025 A 
DOCKED: ATOM     22  C   UNL d   1      -3.926 -12.207   8.412 -0.20 -0.01    -0.021 A 
DOCKED: ATOM     23  C   UNL d   1      -4.349 -12.218   9.746 -0.16 +0.03    +0.066 A 
DOCKED: ATOM     24  C   UNL d   1      -2.181 -10.891   7.059 -0.33 +0.01    +0.051 C 
DOCKED: ATOM     25  N   UNL d   1      -5.583 -11.978  12.493 -0.12 -0.12    -0.248 N 
DOCKED: ATOM     26  N   UNL d   1      -4.598  -9.939  14.230 -0.10 -0.14    -0.248 N 
DOCKED: ATOM     27  N   UNL d   1      -2.679  -9.222  12.215 -0.13 -0.07    -0.248 N 
DOCKED: ATOM     28  N   UNL d   1      -3.678 -11.283  10.463 -0.10 -0.08    -0.248 N 
DOCKED: ATOM     29 FE   UNL d   1      -4.137 -10.611  12.345 -0.05 +0.00    +0.000 Fe
DOCKED: ENDROOT
DOCKED: BRANCH   6  30
DOCKED: ATOM     30  C   UNL d   1      -7.401 -15.002  11.445 -0.05 +0.03    +0.052 C 
DOCKED: BRANCH  30  31
DOCKED: ATOM     31  C   UNL d   1      -6.314 -15.800  10.734 -0.13 +0.08    +0.115 C 
DOCKED: BRANCH  31  32
DOCKED: ATOM     32  C   UNL d   1      -6.917 -16.692   9.685 -0.10 +0.19    +0.139 C 
DOCKED: ATOM     33  O   UNL d   1      -7.340 -17.801   9.977 -0.05 -0.83    -0.650 OA
DOCKED: BRANCH  32  34
DOCKED: ATOM     34  O   UNL d   1      -6.997 -16.274   8.410 -0.56 -1.60    -0.776 OA
DOCKED: ATOM     35  H   UNL d   1      -6.792 -15.351   8.204 +0.03 +0.27    +0.167 HD
DOCKED: ENDBRANCH  32  34
DOCKED: ENDBRANCH  31  32
DOCKED: ENDBRANCH  30  31
DOCKED: ENDBRANCH   6  30
DOCKED: BRANCH  22  36
DOCKED: ATOM     36  C   UNL d   1      -4.473 -13.022   7.270 -0.23 +0.03    +0.052 C 
DOCKED: BRANCH  36  37
DOCKED: ATOM     37  C   UNL d   1      -5.981 -12.837   7.182 -0.34 +0.10    +0.115 C 
DOCKED: BRANCH  37  38
DOCKED: ATOM     38  C   UNL d   1      -6.639 -14.048   6.584 -0.26 +0.22    +0.139 C 
DOCKED: ATOM     39  O   UNL d   1      -7.852 -14.095   6.445 -0.05 -1.30    -0.650 OA
DOCKED: BRANCH  38  40
DOCKED: ATOM     40  O   UNL d   1      -5.890 -15.096   6.198 -0.39 -1.55    -0.776 OA
DOCKED: ATOM     41  H   UNL d   1      -5.796 -15.852   6.795 +0.04 +0.28    +0.167 HD
DOCKED: ENDBRANCH  38  40
DOCKED: ENDBRANCH  37  38
DOCKED: ENDBRANCH  36  37
DOCKED: ENDBRANCH  22  36
DOCKED: BRANCH  12  42
DOCKED: ATOM     42  C   UNL d   1      -4.542  -7.477  17.041 -0.18 -0.00    +0.004 C 
DOCKED: ATOM     43  C   UNL d   1      -4.447  -6.203  16.640 -0.25 -0.00    +0.012 C 
DOCKED: ENDBRANCH  12  42
DOCKED: BRANCH  17  44
DOCKED: ATOM     44  C   UNL d   1       0.365  -7.731  10.752 -0.18 +0.00    +0.004 C 
DOCKED: ATOM     45  C   UNL d   1       0.770  -6.457  10.731 -0.31 +0.00    +0.012 C 
DOCKED: ENDBRANCH  17  44
DOCKED: TORSDOF 10
DOCKED: TER
DOCKED: ENDMDL
________________________________________________________________________________


	BEGINNING GENETIC ALGORITHM DOCKING 65 of 100
Run: 65 Seed: 1924631419 1719972808 [ Run 65 of 100 GA/GALS ]
Beginning LAMARCKIAN GENETIC ALGORITHM (LGA), with a maximum of 25000000 energy evaluations.

Final-Value: -17.945


	FINAL GENETIC ALGORITHM DOCKED STATE
	_______________________________________________


Detailed state:  trans -0.513 -0.904 -9.327 quatxyzw 0.627515 -0.444021 0.276809 -0.576582 center -0.174 -0.001 -0.047 ntor 10 79.8607 -41.5768 87.4333 -127.8281 163.0221 -78.8081 63.8996 2.5568 -23.3632 -156.1143
State:	 -0.513  -0.904  -9.327   0.768 -0.543  0.339 -109.579     79.86  -41.58   87.43 -127.83  163.02  -78.81   63.90    2.56  -23.36 -156.11

DOCKED: MODEL       65
DOCKED: USER    Run = 65
DOCKED: USER    DPF = D:/Protein_go_brrr/autodock/final/AncB/heme_Fe/dock.dpf
DOCKED: USER  
DOCKED: USER    Estimated Free Energy of Binding    =  -14.53 kcal/mol  [=(1)+(2)+(3)-(4)]
DOCKED: USER    Estimated Inhibition Constant, Ki   =   22.43 pM (picomolar)  [Temperature = 298.15 K]
DOCKED: USER    
DOCKED: USER    (1) Final Intermolecular Energy     =  -17.51 kcal/mol
DOCKED: USER        vdW + Hbond + desolv Energy     =  -13.72 kcal/mol
DOCKED: USER        Electrostatic Energy            =   -3.79 kcal/mol
DOCKED: USER    (2) Final Total Internal Energy     =   -0.43 kcal/mol
DOCKED: USER    (3) Torsional Free Energy           =   +2.98 kcal/mol
DOCKED: USER    (4) Unbound System's Energy  [=(2)] =   -0.43 kcal/mol
DOCKED: USER    
DOCKED: USER    
DOCKED: USER    NEWDPF move heme_Fe_opt.pdbqt
DOCKED: USER    NEWDPF about -0.174000 -0.001000 -0.047000
DOCKED: USER    NEWDPF tran0 -0.513106 -0.903946 -9.326783
DOCKED: USER    NEWDPF quaternion0 0.627515 -0.444021 0.276809 -0.576582
DOCKED: USER    NEWDPF axisangle0 0.768035 -0.543451 0.338796 -109.579033
DOCKED: USER    NEWDPF quat0 0.768035 -0.543451 0.338796 -109.579033
DOCKED: USER    NEWDPF dihe0 79.86 -41.58 87.43 -127.83 163.02 -78.81 63.90 2.56 -23.36 -156.11 
DOCKED: USER  keepresnum = 1 
DOCKED: USER  
DOCKED: REMARK  10 active torsions:
DOCKED: REMARK  status: ('A' for Active; 'I' for Inactive)
DOCKED: REMARK    1  A    between atoms: C_6  and  C_10 
DOCKED: REMARK    2  A    between atoms: C_10  and  C_11 
DOCKED: REMARK    3  A    between atoms: C_11  and  C_12 
DOCKED: REMARK    4  A    between atoms: C_12  and  O_14 
DOCKED: REMARK    5  A    between atoms: C_17  and  C_20 
DOCKED: REMARK    6  A    between atoms: C_24  and  C_27 
DOCKED: REMARK    7  A    between atoms: C_31  and  C_34 
DOCKED: REMARK    8  A    between atoms: C_34  and  C_35 
DOCKED: REMARK    9  A    between atoms: C_35  and  C_36 
DOCKED: REMARK   10  A    between atoms: C_36  and  O_38 
DOCKED: USER                              x       y       z     vdW  Elec       q    Type
DOCKED: USER                           _______ _______ _______ _____ _____    ______ ____
DOCKED: ROOT
DOCKED: ATOM      1  C   UNL d   1      -1.445  -0.952 -11.154 -0.33 +0.06    +0.064 C 
DOCKED: ATOM      2  C   UNL d   1       3.153  -1.830  -9.569 -0.45 +0.02    +0.064 A 
DOCKED: ATOM      3  C   UNL d   1       1.490  -2.028  -5.068 -0.43 +0.01    +0.064 C 
DOCKED: ATOM      4  C   UNL d   1      -2.951  -1.074  -6.570 -0.46 +0.02    +0.064 C 
DOCKED: ATOM      5  C   UNL d   1       0.016  -1.097 -11.117 -0.17 +0.04    +0.066 A 
DOCKED: ATOM      6  C   UNL d   1       0.851  -0.983 -12.217 -0.23 -0.01    -0.021 A 
DOCKED: ATOM      7  C   UNL d   1       2.127  -1.231 -11.777 -0.33 -0.01    -0.025 A 
DOCKED: ATOM      8  C   UNL d   1       2.023  -1.487 -10.423 -0.39 +0.03    +0.066 A 
DOCKED: ATOM      9  C   UNL d   1       3.370  -1.202 -12.612 -0.45 +0.01    +0.051 C 
DOCKED: ATOM     10  C   UNL d   1       3.089  -2.025  -8.251 -0.42 +0.02    +0.066 A 
DOCKED: ATOM     11  C   UNL d   1       4.167  -2.464  -7.479 -0.49 -0.01    -0.021 A 
DOCKED: ATOM     12  C   UNL d   1       3.708  -2.545  -6.179 -0.49 +0.00    +0.000 A 
DOCKED: ATOM     13  C   UNL d   1       2.358  -2.156  -6.227 -0.38 +0.02    +0.070 A 
DOCKED: ATOM     14  C   UNL d   1       5.547  -2.854  -7.966 -0.39 +0.01    +0.052 C 
DOCKED: ATOM     15  C   UNL d   1       0.176  -1.703  -5.115 -0.39 +0.02    +0.066 A 
DOCKED: ATOM     16  C   UNL d   1      -0.595  -1.493  -3.978 -0.39 -0.00    -0.021 A 
DOCKED: ATOM     17  C   UNL d   1      -1.877  -1.221  -4.409 -0.43 +0.00    +0.000 A 
DOCKED: ATOM     18  C   UNL d   1      -1.859  -1.276  -5.801 -0.40 +0.02    +0.070 A 
DOCKED: ATOM     19  C   UNL d   1      -0.152  -1.570  -2.542 -0.42 +0.01    +0.052 C 
DOCKED: ATOM     20  C   UNL d   1      -2.957  -1.063  -8.037 -0.34 +0.03    +0.066 A 
DOCKED: ATOM     21  C   UNL d   1      -4.105  -1.055  -8.842 -0.23 -0.01    -0.025 A 
DOCKED: ATOM     22  C   UNL d   1      -3.653  -1.007 -10.145 -0.27 -0.02    -0.021 A 
DOCKED: ATOM     23  C   UNL d   1      -2.254  -0.994 -10.084 -0.31 +0.05    +0.066 A 
DOCKED: ATOM     24  C   UNL d   1      -5.555  -1.095  -8.418 -0.25 +0.02    +0.051 C 
DOCKED: ATOM     25  N   UNL d   1       0.739  -1.395 -10.023 -0.21 -0.13    -0.248 N 
DOCKED: ATOM     26  N   UNL d   1       1.978  -1.847  -7.491 -0.10 -0.12    -0.248 N 
DOCKED: ATOM     27  N   UNL d   1      -0.588  -1.529  -6.237 -0.24 -0.08    -0.248 N 
DOCKED: ATOM     28  N   UNL d   1      -1.836  -1.074  -8.797 -0.24 -0.12    -0.248 N 
DOCKED: ATOM     29 FE   UNL d   1       0.069  -1.460  -8.143 -0.09 +0.00    +0.000 Fe
DOCKED: ENDROOT
DOCKED: BRANCH   6  30
DOCKED: ATOM     30  C   UNL d   1       0.460  -0.636 -13.613 -0.25 +0.04    +0.052 C 
DOCKED: BRANCH  30  31
DOCKED: ATOM     31  C   UNL d   1      -0.062   0.795 -13.687 -0.15 +0.10    +0.115 C 
DOCKED: BRANCH  31  32
DOCKED: ATOM     32  C   UNL d   1      -1.509   0.806 -14.096 -0.16 +0.18    +0.139 C 
DOCKED: ATOM     33  O   UNL d   1      -2.199   1.800 -13.919 -0.13 -1.03    -0.650 OA
DOCKED: BRANCH  32  34
DOCKED: ATOM     34  O   UNL d   1      -2.058  -0.282 -14.663 -0.39 -1.54    -0.776 OA
DOCKED: ATOM     35  H   UNL d   1      -2.166  -0.307 -15.624 +0.02 +0.28    +0.167 HD
DOCKED: ENDBRANCH  32  34
DOCKED: ENDBRANCH  31  32
DOCKED: ENDBRANCH  30  31
DOCKED: ENDBRANCH   6  30
DOCKED: BRANCH  22  36
DOCKED: ATOM     36  C   UNL d   1      -4.518  -1.023 -11.378 -0.19 +0.07    +0.052 C 
DOCKED: BRANCH  36  37
DOCKED: ATOM     37  C   UNL d   1      -5.359  -2.291 -11.398 -0.12 +0.15    +0.115 C 
DOCKED: BRANCH  37  38
DOCKED: ATOM     38  C   UNL d   1      -6.203  -2.357 -12.639 -0.12 +0.20    +0.139 C 
DOCKED: ATOM     39  O   UNL d   1      -7.238  -1.712 -12.727 +0.01 -0.57    -0.650 OA
DOCKED: BRANCH  38  40
DOCKED: ATOM     40  O   UNL d   1      -5.825  -3.136 -13.668 +0.02 -1.77    -0.776 OA
DOCKED: ATOM     41  H   UNL d   1      -6.493  -3.662 -14.131 +0.03 +0.23    +0.167 HD
DOCKED: ENDBRANCH  38  40
DOCKED: ENDBRANCH  37  38
DOCKED: ENDBRANCH  36  37
DOCKED: ENDBRANCH  22  36
DOCKED: BRANCH  12  42
DOCKED: ATOM     42  C   UNL d   1       4.528  -2.987  -5.008 -0.65 +0.00    +0.004 C 
DOCKED: ATOM     43  C   UNL d   1       4.491  -2.317  -3.849 -0.65 +0.00    +0.012 C 
DOCKED: ENDBRANCH  12  42
DOCKED: BRANCH  17  44
DOCKED: ATOM     44  C   UNL d   1      -3.038  -0.910  -3.546 -0.61 +0.00    +0.004 C 
DOCKED: ATOM     45  C   UNL d   1      -3.640  -1.869  -2.835 -0.67 +0.00    +0.012 C 
DOCKED: ENDBRANCH  17  44
DOCKED: TORSDOF 10
DOCKED: TER
DOCKED: ENDMDL
________________________________________________________________________________


	BEGINNING GENETIC ALGORITHM DOCKING 66 of 100
Run: 66 Seed: 206537318 1594404176 [ Run 66 of 100 GA/GALS ]
Beginning LAMARCKIAN GENETIC ALGORITHM (LGA), with a maximum of 25000000 energy evaluations.

Final-Value: -13.640


	FINAL GENETIC ALGORITHM DOCKED STATE
	_______________________________________________


Detailed state:  trans -5.514 -10.932 11.934 quatxyzw 0.604228 -0.000028 0.455393 -0.653855 center -0.174 -0.001 -0.047 ntor 10 -147.7140 123.9083 48.1048 52.9328 -145.3367 -127.6786 6.5523 -17.0093 -131.7437 -180.0000
State:	 -5.514 -10.932  11.934   0.799 -0.000  0.602 -98.334   -147.71  123.91   48.10   52.93 -145.34 -127.68    6.55  -17.01 -131.74 -180.00

DOCKED: MODEL       66
DOCKED: USER    Run = 66
DOCKED: USER    DPF = D:/Protein_go_brrr/autodock/final/AncB/heme_Fe/dock.dpf
DOCKED: USER  
DOCKED: USER    Estimated Free Energy of Binding    =  -10.37 kcal/mol  [=(1)+(2)+(3)-(4)]
DOCKED: USER    Estimated Inhibition Constant, Ki   =   25.25 nM (nanomolar)  [Temperature = 298.15 K]
DOCKED: USER    
DOCKED: USER    (1) Final Intermolecular Energy     =  -13.35 kcal/mol
DOCKED: USER        vdW + Hbond + desolv Energy     =   -9.65 kcal/mol
DOCKED: USER        Electrostatic Energy            =   -3.69 kcal/mol
DOCKED: USER    (2) Final Total Internal Energy     =   -0.29 kcal/mol
DOCKED: USER    (3) Torsional Free Energy           =   +2.98 kcal/mol
DOCKED: USER    (4) Unbound System's Energy  [=(2)] =   -0.29 kcal/mol
DOCKED: USER    
DOCKED: USER    
DOCKED: USER    NEWDPF move heme_Fe_opt.pdbqt
DOCKED: USER    NEWDPF about -0.174000 -0.001000 -0.047000
DOCKED: USER    NEWDPF tran0 -5.514470 -10.932077 11.934375
DOCKED: USER    NEWDPF quaternion0 0.604228 -0.000028 0.455393 -0.653855
DOCKED: USER    NEWDPF axisangle0 0.798588 -0.000037 0.601878 -98.334203
DOCKED: USER    NEWDPF quat0 0.798588 -0.000037 0.601878 -98.334203
DOCKED: USER    NEWDPF dihe0 -147.71 123.91 48.10 52.93 -145.34 -127.68 6.55 -17.01 -131.74 -180.00 
DOCKED: USER  keepresnum = 1 
DOCKED: USER  
DOCKED: REMARK  10 active torsions:
DOCKED: REMARK  status: ('A' for Active; 'I' for Inactive)
DOCKED: REMARK    1  A    between atoms: C_6  and  C_10 
DOCKED: REMARK    2  A    between atoms: C_10  and  C_11 
DOCKED: REMARK    3  A    between atoms: C_11  and  C_12 
DOCKED: REMARK    4  A    between atoms: C_12  and  O_14 
DOCKED: REMARK    5  A    between atoms: C_17  and  C_20 
DOCKED: REMARK    6  A    between atoms: C_24  and  C_27 
DOCKED: REMARK    7  A    between atoms: C_31  and  C_34 
DOCKED: REMARK    8  A    between atoms: C_34  and  C_35 
DOCKED: REMARK    9  A    between atoms: C_35  and  C_36 
DOCKED: REMARK   10  A    between atoms: C_36  and  O_38 
DOCKED: USER                              x       y       z     vdW  Elec       q    Type
DOCKED: USER                           _______ _______ _______ _____ _____    ______ ____
DOCKED: ROOT
DOCKED: ATOM      1  C   UNL d   1      -6.346 -12.524  10.941 -0.27 +0.04    +0.064 C 
DOCKED: ATOM      2  C   UNL d   1      -2.335  -9.714  10.271 -0.29 +0.01    +0.064 A 
DOCKED: ATOM      3  C   UNL d   1      -2.821  -8.073  14.759 -0.19 +0.01    +0.064 C 
DOCKED: ATOM      4  C   UNL d   1      -6.765 -10.704  15.392 -0.18 +0.04    +0.064 C 
DOCKED: ATOM      5  C   UNL d   1      -5.221 -11.822  10.308 -0.23 +0.03    +0.066 A 
DOCKED: ATOM      6  C   UNL d   1      -4.851 -11.957   8.980 -0.25 -0.01    -0.021 A 
DOCKED: ATOM      7  C   UNL d   1      -3.735 -11.179   8.796 -0.23 -0.01    -0.025 A 
DOCKED: ATOM      8  C   UNL d   1      -3.466 -10.598  10.020 -0.25 +0.02    +0.066 A 
DOCKED: ATOM      9  C   UNL d   1      -2.988 -10.996   7.510 -0.35 +0.01    +0.051 C 
DOCKED: ATOM     10  C   UNL d   1      -2.086  -9.095  11.427 -0.24 +0.01    +0.066 A 
DOCKED: ATOM     11  C   UNL d   1      -0.933  -8.345  11.672 -0.26 -0.00    -0.021 A 
DOCKED: ATOM     12  C   UNL d   1      -1.041  -7.875  12.965 -0.23 +0.00    +0.000 A 
DOCKED: ATOM     13  C   UNL d   1      -2.262  -8.374  13.450 -0.16 +0.01    +0.070 A 
DOCKED: ATOM     14  C   UNL d   1       0.246  -8.143  10.742 -0.14 +0.01    +0.052 C 
DOCKED: ATOM     15  C   UNL d   1      -3.970  -8.592  15.250 -0.13 +0.02    +0.066 A 
DOCKED: ATOM     16  C   UNL d   1      -4.521  -8.202  16.464 -0.16 -0.00    -0.021 A 
DOCKED: ATOM     17  C   UNL d   1      -5.657  -8.963  16.651 -0.15 +0.00    +0.000 A 
DOCKED: ATOM     18  C   UNL d   1      -5.771  -9.803  15.545 -0.06 +0.05    +0.070 A 
DOCKED: ATOM     19  C   UNL d   1      -3.989  -7.174  17.426 -0.11 -0.00    +0.052 C 
DOCKED: ATOM     20  C   UNL d   1      -6.951 -11.561  14.215 -0.24 +0.04    +0.066 A 
DOCKED: ATOM     21  C   UNL d   1      -7.851 -12.633  14.128 -0.28 -0.01    -0.025 A 
DOCKED: ATOM     22  C   UNL d   1      -7.724 -13.129  12.847 -0.34 -0.01    -0.021 A 
DOCKED: ATOM     23  C   UNL d   1      -6.752 -12.348  12.208 -0.30 +0.04    +0.066 A 
DOCKED: ATOM     24  C   UNL d   1      -8.782 -13.172  15.189 -0.21 +0.02    +0.051 C 
DOCKED: ATOM     25  N   UNL d   1      -4.377 -10.984  10.935 -0.15 -0.10    -0.248 N 
DOCKED: ATOM     26  N   UNL d   1      -2.896  -9.125  12.516 -0.10 -0.08    -0.248 N 
DOCKED: ATOM     27  N   UNL d   1      -4.759  -9.545  14.663 -0.08 -0.15    -0.248 N 
DOCKED: ATOM     28  N   UNL d   1      -6.252 -11.423  13.063 -0.18 -0.16    -0.248 N 
DOCKED: ATOM     29 FE   UNL d   1      -4.575 -10.274  12.791 -0.06 +0.00    +0.000 Fe
DOCKED: ENDROOT
DOCKED: BRANCH   6  30
DOCKED: ATOM     30  C   UNL d   1      -5.534 -12.767   7.932 -0.31 +0.04    +0.052 C 
DOCKED: BRANCH  30  31
DOCKED: ATOM     31  C   UNL d   1      -5.953 -14.125   8.485 -0.23 +0.10    +0.115 C 
DOCKED: BRANCH  31  32
DOCKED: ATOM     32  C   UNL d   1      -6.495 -14.996   7.386 -0.24 +0.22    +0.139 C 
DOCKED: ATOM     33  O   UNL d   1      -7.406 -15.782   7.606 -0.47 -1.73    -0.650 OA
DOCKED: BRANCH  32  34
DOCKED: ATOM     34  O   UNL d   1      -5.981 -14.918   6.147 -0.34 -1.57    -0.776 OA
DOCKED: ATOM     35  H   UNL d   1      -5.042 -14.707   6.041 +0.05 +0.22    +0.167 HD
DOCKED: ENDBRANCH  32  34
DOCKED: ENDBRANCH  31  32
DOCKED: ENDBRANCH  30  31
DOCKED: ENDBRANCH   6  30
DOCKED: BRANCH  22  36
DOCKED: ATOM     36  C   UNL d   1      -8.461 -14.317  12.286 +0.01 +0.02    +0.052 C 
DOCKED: BRANCH  36  37
DOCKED: ATOM     37  C   UNL d   1      -7.747 -15.599  12.687 -0.18 +0.05    +0.115 C 
DOCKED: BRANCH  37  38
DOCKED: ATOM     38  C   UNL d   1      -8.650 -16.789  12.532 -0.17 +0.08    +0.139 C 
DOCKED: ATOM     39  O   UNL d   1      -8.818 -17.572  13.456 +0.01 -0.26    -0.650 OA
DOCKED: BRANCH  38  40
DOCKED: ATOM     40  O   UNL d   1      -9.283 -17.005  11.364 -0.41 -0.92    -0.776 OA
DOCKED: ATOM     41  H   UNL d   1      -9.850 -16.310  11.002 -0.58 +0.22    +0.167 HD
DOCKED: ENDBRANCH  38  40
DOCKED: ENDBRANCH  37  38
DOCKED: ENDBRANCH  36  37
DOCKED: ENDBRANCH  22  36
DOCKED: BRANCH  12  42
DOCKED: ATOM     42  C   UNL d   1      -0.019  -7.029  13.656 -0.22 +0.00    +0.004 C 
DOCKED: ATOM     43  C   UNL d   1      -0.136  -5.695  13.687 -0.39 -0.00    +0.012 C 
DOCKED: ENDBRANCH  12  42
DOCKED: BRANCH  17  44
DOCKED: ATOM     44  C   UNL d   1      -6.584  -8.876  17.802 -0.15 +0.00    +0.004 C 
DOCKED: ATOM     45  C   UNL d   1      -7.793  -8.320  17.667 -0.24 -0.00    +0.012 C 
DOCKED: ENDBRANCH  17  44
DOCKED: TORSDOF 10
DOCKED: TER
DOCKED: ENDMDL
________________________________________________________________________________


	BEGINNING GENETIC ALGORITHM DOCKING 67 of 100
Run: 67 Seed: 2074058052 817966819 [ Run 67 of 100 GA/GALS ]
Beginning LAMARCKIAN GENETIC ALGORITHM (LGA), with a maximum of 25000000 energy evaluations.

Final-Value: -18.294


	FINAL GENETIC ALGORITHM DOCKED STATE
	_______________________________________________


Detailed state:  trans -1.134 -0.660 -9.579 quatxyzw 0.653934 -0.401794 0.255424 -0.587954 center -0.174 -0.001 -0.047 ntor 10 -18.0386 -147.9474 -175.6136 -127.4208 177.5290 -164.1659 59.9713 26.1492 -25.4165 180.0000
State:	 -1.134  -0.660  -9.579   0.808 -0.497  0.316 -107.976    -18.04 -147.95 -175.61 -127.42  177.53 -164.17   59.97   26.15  -25.42  180.00

DOCKED: MODEL       67
DOCKED: USER    Run = 67
DOCKED: USER    DPF = D:/Protein_go_brrr/autodock/final/AncB/heme_Fe/dock.dpf
DOCKED: USER  
DOCKED: USER    Estimated Free Energy of Binding    =  -13.68 kcal/mol  [=(1)+(2)+(3)-(4)]
DOCKED: USER    Estimated Inhibition Constant, Ki   =   93.80 pM (picomolar)  [Temperature = 298.15 K]
DOCKED: USER    
DOCKED: USER    (1) Final Intermolecular Energy     =  -16.66 kcal/mol
DOCKED: USER        vdW + Hbond + desolv Energy     =  -12.61 kcal/mol
DOCKED: USER        Electrostatic Energy            =   -4.05 kcal/mol
DOCKED: USER    (2) Final Total Internal Energy     =   -1.63 kcal/mol
DOCKED: USER    (3) Torsional Free Energy           =   +2.98 kcal/mol
DOCKED: USER    (4) Unbound System's Energy  [=(2)] =   -1.63 kcal/mol
DOCKED: USER    
DOCKED: USER    
DOCKED: USER    NEWDPF move heme_Fe_opt.pdbqt
DOCKED: USER    NEWDPF about -0.174000 -0.001000 -0.047000
DOCKED: USER    NEWDPF tran0 -1.133594 -0.660360 -9.578760
DOCKED: USER    NEWDPF quaternion0 0.653934 -0.401794 0.255424 -0.587954
DOCKED: USER    NEWDPF axisangle0 0.808430 -0.496720 0.315769 -107.976046
DOCKED: USER    NEWDPF quat0 0.808430 -0.496720 0.315769 -107.976046
DOCKED: USER    NEWDPF dihe0 -18.04 -147.95 -175.61 -127.42 177.53 -164.17 59.97 26.15 -25.42 180.00 
DOCKED: USER  keepresnum = 1 
DOCKED: USER  
DOCKED: REMARK  10 active torsions:
DOCKED: REMARK  status: ('A' for Active; 'I' for Inactive)
DOCKED: REMARK    1  A    between atoms: C_6  and  C_10 
DOCKED: REMARK    2  A    between atoms: C_10  and  C_11 
DOCKED: REMARK    3  A    between atoms: C_11  and  C_12 
DOCKED: REMARK    4  A    between atoms: C_12  and  O_14 
DOCKED: REMARK    5  A    between atoms: C_17  and  C_20 
DOCKED: REMARK    6  A    between atoms: C_24  and  C_27 
DOCKED: REMARK    7  A    between atoms: C_31  and  C_34 
DOCKED: REMARK    8  A    between atoms: C_34  and  C_35 
DOCKED: REMARK    9  A    between atoms: C_35  and  C_36 
DOCKED: REMARK   10  A    between atoms: C_36  and  O_38 
DOCKED: USER                              x       y       z     vdW  Elec       q    Type
DOCKED: USER                           _______ _______ _______ _____ _____    ______ ____
DOCKED: ROOT
DOCKED: ATOM      1  C   UNL d   1      -2.241  -0.733 -11.305 -0.30 +0.08    +0.064 C 
DOCKED: ATOM      2  C   UNL d   1       2.528  -1.414 -10.199 -0.42 +0.02    +0.064 A 
DOCKED: ATOM      3  C   UNL d   1       1.335  -1.731  -5.557 -0.43 +0.02    +0.064 C 
DOCKED: ATOM      4  C   UNL d   1      -3.272  -0.969  -6.595 -0.43 +0.02    +0.064 C 
DOCKED: ATOM      5  C   UNL d   1      -0.778  -0.812 -11.416 -0.17 +0.06    +0.066 A 
DOCKED: ATOM      6  C   UNL d   1      -0.065  -0.649 -12.592 -0.23 -0.02    -0.021 A 
DOCKED: ATOM      7  C   UNL d   1       1.259  -0.842 -12.284 -0.22 -0.01    -0.025 A 
DOCKED: ATOM      8  C   UNL d   1       1.303  -1.116 -10.931 -0.15 +0.03    +0.066 A 
DOCKED: ATOM      9  C   UNL d   1       2.410  -0.748 -13.239 -0.33 +0.02    +0.051 C 
DOCKED: ATOM     10  C   UNL d   1       2.604  -1.624  -8.884 -0.41 +0.03    +0.066 A 
DOCKED: ATOM     11  C   UNL d   1       3.773  -2.021  -8.229 -0.47 -0.01    -0.021 A 
DOCKED: ATOM     12  C   UNL d   1       3.452  -2.136  -6.892 -0.47 +0.00    +0.000 A 
DOCKED: ATOM     13  C   UNL d   1       2.088  -1.808  -6.799 -0.32 +0.02    +0.070 A 
DOCKED: ATOM     14  C   UNL d   1       5.114  -2.342  -8.857 -0.50 +0.01    +0.052 C 
DOCKED: ATOM     15  C   UNL d   1       0.010  -1.467  -5.468 -0.37 +0.02    +0.066 A 
DOCKED: ATOM     16  C   UNL d   1      -0.651  -1.304  -4.258 -0.34 -0.00    -0.021 A 
DOCKED: ATOM     17  C   UNL d   1      -1.981  -1.087  -4.555 -0.43 +0.00    +0.000 A 
DOCKED: ATOM     18  C   UNL d   1      -2.100  -1.127  -5.942 -0.41 +0.02    +0.070 A 
DOCKED: ATOM     19  C   UNL d   1      -0.064  -1.373  -2.874 -0.33 +0.01    +0.052 C 
DOCKED: ATOM     20  C   UNL d   1      -3.427  -0.944  -8.054 -0.32 +0.03    +0.066 A 
DOCKED: ATOM     21  C   UNL d   1      -4.649  -0.981  -8.740 -0.23 -0.01    -0.025 A 
DOCKED: ATOM     22  C   UNL d   1      -4.332  -0.900 -10.081 -0.23 -0.02    -0.021 A 
DOCKED: ATOM     23  C   UNL d   1      -2.936  -0.824 -10.159 -0.28 +0.05    +0.066 A 
DOCKED: ATOM     24  C   UNL d   1      -6.045  -1.092  -8.174 -0.26 +0.02    +0.051 C 
DOCKED: ATOM     25  N   UNL d   1       0.063  -1.087 -10.403 -0.15 -0.15    -0.248 N 
DOCKED: ATOM     26  N   UNL d   1       1.569  -1.505  -8.014 +0.03 -0.15    -0.248 N 
DOCKED: ATOM     27  N   UNL d   1      -0.870  -1.317  -6.506 -0.25 -0.08    -0.248 N 
DOCKED: ATOM     28  N   UNL d   1      -2.387  -0.896  -8.922 -0.22 -0.13    -0.248 N 
DOCKED: ATOM     29 FE   UNL d   1      -0.411  -1.200  -8.467 -0.09 +0.00    +0.000 Fe
DOCKED: ENDROOT
DOCKED: BRANCH   6  30
DOCKED: ATOM     30  C   UNL d   1      -0.608  -0.307 -13.936 -0.20 +0.06    +0.052 C 
DOCKED: BRANCH  30  31
DOCKED: ATOM     31  C   UNL d   1      -1.245   1.079 -13.925 -0.19 +0.14    +0.115 C 
DOCKED: BRANCH  31  32
DOCKED: ATOM     32  C   UNL d   1      -2.699   0.993 -14.294 -0.15 +0.22    +0.139 C 
DOCKED: ATOM     33  O   UNL d   1      -3.402   1.994 -14.297 -0.49 -1.40    -0.650 OA
DOCKED: BRANCH  32  34
DOCKED: ATOM     34  O   UNL d   1      -3.243  -0.190 -14.626 -0.02 -1.84    -0.776 OA
DOCKED: ATOM     35  H   UNL d   1      -4.205  -0.288 -14.604 +0.01 +0.36    +0.167 HD
DOCKED: ENDBRANCH  32  34
DOCKED: ENDBRANCH  31  32
DOCKED: ENDBRANCH  30  31
DOCKED: ENDBRANCH   6  30
DOCKED: BRANCH  22  36
DOCKED: ATOM     36  C   UNL d   1      -5.314  -0.944 -11.221 -0.19 +0.06    +0.052 C 
DOCKED: BRANCH  36  37
DOCKED: ATOM     37  C   UNL d   1      -5.657  -2.390 -11.548 -0.14 +0.14    +0.115 C 
DOCKED: BRANCH  37  38
DOCKED: ATOM     38  C   UNL d   1      -6.100  -2.529 -12.977 +0.11 +0.23    +0.139 C 
DOCKED: ATOM     39  O   UNL d   1      -6.683  -3.534 -13.356 -0.11 -0.78    -0.650 OA
DOCKED: BRANCH  38  40
DOCKED: ATOM     40  O   UNL d   1      -5.851  -1.541 -13.856 -0.07 -1.51    -0.776 OA
DOCKED: ATOM     41  H   UNL d   1      -5.054  -1.005 -13.747 +0.02 +0.40    +0.167 HD
DOCKED: ENDBRANCH  38  40
DOCKED: ENDBRANCH  37  38
DOCKED: ENDBRANCH  36  37
DOCKED: ENDBRANCH  22  36
DOCKED: BRANCH  12  42
DOCKED: ATOM     42  C   UNL d   1       4.404  -2.550  -5.815 -0.59 +0.00    +0.004 C 
DOCKED: ATOM     43  C   UNL d   1       4.099  -3.545  -4.971 -0.62 +0.00    +0.012 C 
DOCKED: ENDBRANCH  12  42
DOCKED: BRANCH  17  44
DOCKED: ATOM     44  C   UNL d   1      -3.063  -0.837  -3.575 -0.59 +0.00    +0.004 C 
DOCKED: ATOM     45  C   UNL d   1      -3.541  -1.828  -2.815 -0.68 +0.00    +0.012 C 
DOCKED: ENDBRANCH  17  44
DOCKED: TORSDOF 10
DOCKED: TER
DOCKED: ENDMDL
________________________________________________________________________________


	BEGINNING GENETIC ALGORITHM DOCKING 68 of 100
Run: 68 Seed: 1102713574 1003791287 [ Run 68 of 100 GA/GALS ]
Beginning LAMARCKIAN GENETIC ALGORITHM (LGA), with a maximum of 25000000 energy evaluations.

Final-Value: -19.467


	FINAL GENETIC ALGORITHM DOCKED STATE
	_______________________________________________


Detailed state:  trans -0.367 -0.931 -9.123 quatxyzw 0.609592 -0.467216 0.282034 -0.574946 center -0.174 -0.001 -0.047 ntor 10 -97.3130 29.6065 57.9437 -122.4295 74.2401 176.4450 -4.8008 -67.7110 -158.3372 -7.3228
State:	 -0.367  -0.931  -9.123   0.745 -0.571  0.345 -109.808    -97.31   29.61   57.94 -122.43   74.24  176.45   -4.80  -67.71 -158.34   -7.32

DOCKED: MODEL       68
DOCKED: USER    Run = 68
DOCKED: USER    DPF = D:/Protein_go_brrr/autodock/final/AncB/heme_Fe/dock.dpf
DOCKED: USER  
DOCKED: USER    Estimated Free Energy of Binding    =  -15.01 kcal/mol  [=(1)+(2)+(3)-(4)]
DOCKED: USER    Estimated Inhibition Constant, Ki   =    9.96 pM (picomolar)  [Temperature = 298.15 K]
DOCKED: USER    
DOCKED: USER    (1) Final Intermolecular Energy     =  -17.99 kcal/mol
DOCKED: USER        vdW + Hbond + desolv Energy     =  -14.38 kcal/mol
DOCKED: USER        Electrostatic Energy            =   -3.62 kcal/mol
DOCKED: USER    (2) Final Total Internal Energy     =   -1.47 kcal/mol
DOCKED: USER    (3) Torsional Free Energy           =   +2.98 kcal/mol
DOCKED: USER    (4) Unbound System's Energy  [=(2)] =   -1.47 kcal/mol
DOCKED: USER    
DOCKED: USER    
DOCKED: USER    NEWDPF move heme_Fe_opt.pdbqt
DOCKED: USER    NEWDPF about -0.174000 -0.001000 -0.047000
DOCKED: USER    NEWDPF tran0 -0.366591 -0.931208 -9.123329
DOCKED: USER    NEWDPF quaternion0 0.609592 -0.467216 0.282034 -0.574946
DOCKED: USER    NEWDPF axisangle0 0.745049 -0.571035 0.344704 -109.808283
DOCKED: USER    NEWDPF quat0 0.745049 -0.571035 0.344704 -109.808283
DOCKED: USER    NEWDPF dihe0 -97.31 29.61 57.94 -122.43 74.24 176.45 -4.80 -67.71 -158.34 -7.32 
DOCKED: USER  keepresnum = 1 
DOCKED: USER  
DOCKED: REMARK  10 active torsions:
DOCKED: REMARK  status: ('A' for Active; 'I' for Inactive)
DOCKED: REMARK    1  A    between atoms: C_6  and  C_10 
DOCKED: REMARK    2  A    between atoms: C_10  and  C_11 
DOCKED: REMARK    3  A    between atoms: C_11  and  C_12 
DOCKED: REMARK    4  A    between atoms: C_12  and  O_14 
DOCKED: REMARK    5  A    between atoms: C_17  and  C_20 
DOCKED: REMARK    6  A    between atoms: C_24  and  C_27 
DOCKED: REMARK    7  A    between atoms: C_31  and  C_34 
DOCKED: REMARK    8  A    between atoms: C_34  and  C_35 
DOCKED: REMARK    9  A    between atoms: C_35  and  C_36 
DOCKED: REMARK   10  A    between atoms: C_36  and  O_38 
DOCKED: USER                              x       y       z     vdW  Elec       q    Type
DOCKED: USER                           _______ _______ _______ _____ _____    ______ ____
DOCKED: ROOT
DOCKED: ATOM      1  C   UNL d   1      -1.218  -0.964 -10.990 -0.33 +0.06    +0.064 C 
DOCKED: ATOM      2  C   UNL d   1       3.269  -1.998  -9.192 -0.45 +0.02    +0.064 A 
DOCKED: ATOM      3  C   UNL d   1       1.400  -2.082  -4.768 -0.43 +0.01    +0.064 C 
DOCKED: ATOM      4  C   UNL d   1      -2.929  -0.978  -6.477 -0.48 +0.02    +0.064 C 
DOCKED: ATOM      5  C   UNL d   1       0.234  -1.165 -10.886 -0.13 +0.04    +0.066 A 
DOCKED: ATOM      6  C   UNL d   1       1.120  -1.095 -11.949 -0.25 -0.01    -0.021 A 
DOCKED: ATOM      7  C   UNL d   1       2.366  -1.386 -11.449 -0.37 -0.01    -0.025 A 
DOCKED: ATOM      8  C   UNL d   1       2.191  -1.622 -10.099 -0.41 +0.03    +0.066 A 
DOCKED: ATOM      9  C   UNL d   1       3.645  -1.413 -12.228 -0.51 +0.01    +0.051 C 
DOCKED: ATOM     10  C   UNL d   1       3.138  -2.175  -7.876 -0.41 +0.02    +0.066 A 
DOCKED: ATOM     11  C   UNL d   1       4.163  -2.646  -7.052 -0.48 -0.01    -0.021 A 
DOCKED: ATOM     12  C   UNL d   1       3.645  -2.696  -5.774 -0.49 +0.00    +0.000 A 
DOCKED: ATOM     13  C   UNL d   1       2.314  -2.256  -5.886 -0.38 +0.02    +0.070 A 
DOCKED: ATOM     14  C   UNL d   1       5.548  -3.094  -7.473 -0.37 +0.01    +0.052 C 
DOCKED: ATOM     15  C   UNL d   1       0.104  -1.708  -4.877 -0.39 +0.01    +0.066 A 
DOCKED: ATOM     16  C   UNL d   1      -0.708  -1.457  -3.779 -0.37 -0.00    -0.021 A 
DOCKED: ATOM     17  C   UNL d   1      -1.959  -1.142  -4.269 -0.42 +0.00    +0.000 A 
DOCKED: ATOM     18  C   UNL d   1      -1.881  -1.212  -5.658 -0.40 +0.02    +0.070 A 
DOCKED: ATOM     19  C   UNL d   1      -0.333  -1.534  -2.323 -0.44 +0.01    +0.052 C 
DOCKED: ATOM     20  C   UNL d   1      -2.870  -0.983  -7.943 -0.36 +0.03    +0.066 A 
DOCKED: ATOM     21  C   UNL d   1      -3.980  -0.941  -8.799 -0.27 -0.01    -0.025 A 
DOCKED: ATOM     22  C   UNL d   1      -3.469  -0.925 -10.080 -0.28 -0.02    -0.021 A 
DOCKED: ATOM     23  C   UNL d   1      -2.075  -0.964  -9.957 -0.32 +0.05    +0.066 A 
DOCKED: ATOM     24  C   UNL d   1      -5.448  -0.921  -8.440 -0.28 +0.02    +0.051 C 
DOCKED: ATOM     25  N   UNL d   1       0.895  -1.478  -9.758 -0.23 -0.13    -0.248 N 
DOCKED: ATOM     26  N   UNL d   1       2.002  -1.947  -7.169 -0.14 -0.10    -0.248 N 
DOCKED: ATOM     27  N   UNL d   1      -0.603  -1.518  -6.034 -0.25 -0.07    -0.248 N 
DOCKED: ATOM     28  N   UNL d   1      -1.717  -1.045  -8.652 -0.24 -0.12    -0.248 N 
DOCKED: ATOM     29 FE   UNL d   1       0.141  -1.496  -7.910 -0.09 +0.00    +0.000 Fe
DOCKED: ENDROOT
DOCKED: BRANCH   6  30
DOCKED: ATOM     30  C   UNL d   1       0.806  -0.748 -13.364 -0.26 +0.04    +0.052 C 
DOCKED: BRANCH  30  31
DOCKED: ATOM     31  C   UNL d   1      -0.016  -1.852 -14.021 -0.16 +0.12    +0.115 C 
DOCKED: BRANCH  31  32
DOCKED: ATOM     32  C   UNL d   1      -0.428  -1.446 -15.408 -0.14 +0.16    +0.139 C 
DOCKED: ATOM     33  O   UNL d   1       0.385  -1.437 -16.322 +0.00 -0.46    -0.650 OA
DOCKED: BRANCH  32  34
DOCKED: ATOM     34  O   UNL d   1      -1.699  -1.089 -15.657 -0.50 -1.43    -0.776 OA
DOCKED: ATOM     35  H   UNL d   1      -1.978  -0.183 -15.464 +0.02 +0.27    +0.167 HD
DOCKED: ENDBRANCH  32  34
DOCKED: ENDBRANCH  31  32
DOCKED: ENDBRANCH  30  31
DOCKED: ENDBRANCH   6  30
DOCKED: BRANCH  22  36
DOCKED: ATOM     36  C   UNL d   1      -4.278  -0.922 -11.350 -0.18 +0.07    +0.052 C 
DOCKED: BRANCH  36  37
DOCKED: ATOM     37  C   UNL d   1      -4.571   0.511 -11.769 -0.19 +0.13    +0.115 C 
DOCKED: BRANCH  37  38
DOCKED: ATOM     38  C   UNL d   1      -3.831   0.866 -13.028 -0.18 +0.21    +0.139 C 
DOCKED: ATOM     39  O   UNL d   1      -3.989   1.955 -13.560 -0.37 -1.26    -0.650 OA
DOCKED: BRANCH  38  40
DOCKED: ATOM     40  O   UNL d   1      -2.986  -0.021 -13.583 +0.08 -1.62    -0.776 OA
DOCKED: ATOM     41  H   UNL d   1      -2.228   0.304 -14.088 +0.03 +0.28    +0.167 HD
DOCKED: ENDBRANCH  38  40
DOCKED: ENDBRANCH  37  38
DOCKED: ENDBRANCH  36  37
DOCKED: ENDBRANCH  22  36
DOCKED: BRANCH  12  42
DOCKED: ATOM     42  C   UNL d   1       4.394  -3.155  -4.563 -0.68 +0.00    +0.004 C 
DOCKED: ATOM     43  C   UNL d   1       4.830  -2.278  -3.649 -0.59 +0.00    +0.012 C 
DOCKED: ENDBRANCH  12  42
DOCKED: BRANCH  17  44
DOCKED: ATOM     44  C   UNL d   1      -3.145  -0.776  -3.462 -0.60 +0.00    +0.004 C 
DOCKED: ATOM     45  C   UNL d   1      -3.749  -1.681  -2.685 -0.68 +0.00    +0.012 C 
DOCKED: ENDBRANCH  17  44
DOCKED: TORSDOF 10
DOCKED: TER
DOCKED: ENDMDL
________________________________________________________________________________


	BEGINNING GENETIC ALGORITHM DOCKING 69 of 100
Run: 69 Seed: 1578713647 1755763158 [ Run 69 of 100 GA/GALS ]
Beginning LAMARCKIAN GENETIC ALGORITHM (LGA), with a maximum of 25000000 energy evaluations.

Final-Value: -19.362


	FINAL GENETIC ALGORITHM DOCKED STATE
	_______________________________________________


Detailed state:  trans -0.352 -1.622 -9.083 quatxyzw -0.585750 -0.359731 -0.455048 -0.566058 center -0.174 -0.001 -0.047 ntor 10 -65.3769 -88.3685 72.7915 -103.5094 100.1615 147.6758 -77.4346 -57.4464 -180.0000 -1.0344
State:	 -0.352  -1.622  -9.083  -0.711 -0.436 -0.552 -111.048    -65.38  -88.37   72.79 -103.51  100.16  147.68  -77.43  -57.45 -180.00   -1.03

DOCKED: MODEL       69
DOCKED: USER    Run = 69
DOCKED: USER    DPF = D:/Protein_go_brrr/autodock/final/AncB/heme_Fe/dock.dpf
DOCKED: USER  
DOCKED: USER    Estimated Free Energy of Binding    =  -14.46 kcal/mol  [=(1)+(2)+(3)-(4)]
DOCKED: USER    Estimated Inhibition Constant, Ki   =   25.03 pM (picomolar)  [Temperature = 298.15 K]
DOCKED: USER    
DOCKED: USER    (1) Final Intermolecular Energy     =  -17.45 kcal/mol
DOCKED: USER        vdW + Hbond + desolv Energy     =  -13.97 kcal/mol
DOCKED: USER        Electrostatic Energy            =   -3.48 kcal/mol
DOCKED: USER    (2) Final Total Internal Energy     =   -1.92 kcal/mol
DOCKED: USER    (3) Torsional Free Energy           =   +2.98 kcal/mol
DOCKED: USER    (4) Unbound System's Energy  [=(2)] =   -1.92 kcal/mol
DOCKED: USER    
DOCKED: USER    
DOCKED: USER    NEWDPF move heme_Fe_opt.pdbqt
DOCKED: USER    NEWDPF about -0.174000 -0.001000 -0.047000
DOCKED: USER    NEWDPF tran0 -0.351861 -1.622205 -9.082732
DOCKED: USER    NEWDPF quaternion0 -0.585750 -0.359731 -0.455048 -0.566058
DOCKED: USER    NEWDPF axisangle0 -0.710547 -0.436373 -0.551998 -111.048449
DOCKED: USER    NEWDPF quat0 -0.710547 -0.436373 -0.551998 -111.048449
DOCKED: USER    NEWDPF dihe0 -65.38 -88.37 72.79 -103.51 100.16 147.68 -77.43 -57.45 -180.00 -1.03 
DOCKED: USER  keepresnum = 1 
DOCKED: USER  
DOCKED: REMARK  10 active torsions:
DOCKED: REMARK  status: ('A' for Active; 'I' for Inactive)
DOCKED: REMARK    1  A    between atoms: C_6  and  C_10 
DOCKED: REMARK    2  A    between atoms: C_10  and  C_11 
DOCKED: REMARK    3  A    between atoms: C_11  and  C_12 
DOCKED: REMARK    4  A    between atoms: C_12  and  O_14 
DOCKED: REMARK    5  A    between atoms: C_17  and  C_20 
DOCKED: REMARK    6  A    between atoms: C_24  and  C_27 
DOCKED: REMARK    7  A    between atoms: C_31  and  C_34 
DOCKED: REMARK    8  A    between atoms: C_34  and  C_35 
DOCKED: REMARK    9  A    between atoms: C_35  and  C_36 
DOCKED: REMARK   10  A    between atoms: C_36  and  O_38 
DOCKED: USER                              x       y       z     vdW  Elec       q    Type
DOCKED: USER                           _______ _______ _______ _____ _____    ______ ____
DOCKED: ROOT
DOCKED: ATOM      1  C   UNL d   1      -0.988  -0.904 -10.896 -0.27 +0.05    +0.064 C 
DOCKED: ATOM      2  C   UNL d   1      -2.932  -1.104  -6.357 -0.41 +0.02    +0.064 A 
DOCKED: ATOM      3  C   UNL d   1       1.427  -2.112  -4.609 -0.42 +0.01    +0.064 C 
DOCKED: ATOM      4  C   UNL d   1       3.309  -2.026  -9.006 -0.51 +0.02    +0.064 C 
DOCKED: ATOM      5  C   UNL d   1      -1.955  -0.949  -9.791 -0.32 +0.04    +0.066 A 
DOCKED: ATOM      6  C   UNL d   1      -3.326  -0.816  -9.933 -0.29 -0.02    -0.021 A 
DOCKED: ATOM      7  C   UNL d   1      -3.865  -0.868  -8.672 -0.30 -0.01    -0.025 A 
DOCKED: ATOM      8  C   UNL d   1      -2.800  -1.032  -7.806 -0.36 +0.03    +0.066 A 
DOCKED: ATOM      9  C   UNL d   1      -5.321  -0.783  -8.329 -0.31 +0.02    +0.051 C 
DOCKED: ATOM     10  C   UNL d   1      -1.929  -1.320  -5.504 -0.41 +0.02    +0.066 A 
DOCKED: ATOM     11  C   UNL d   1      -2.068  -1.270  -4.115 -0.44 -0.00    -0.021 A 
DOCKED: ATOM     12  C   UNL d   1      -0.821  -1.540  -3.588 -0.41 +0.00    +0.000 A 
DOCKED: ATOM     13  C   UNL d   1       0.024  -1.735  -4.694 -0.38 +0.01    +0.070 A 
DOCKED: ATOM     14  C   UNL d   1      -3.314  -0.914  -3.328 -0.63 +0.01    +0.052 C 
DOCKED: ATOM     15  C   UNL d   1       2.258  -2.249  -5.669 -0.39 +0.01    +0.066 A 
DOCKED: ATOM     16  C   UNL d   1       3.564  -2.707  -5.555 -0.48 -0.00    -0.021 A 
DOCKED: ATOM     17  C   UNL d   1       4.110  -2.680  -6.821 -0.50 +0.00    +0.000 A 
DOCKED: ATOM     18  C   UNL d   1       3.123  -2.201  -7.680 -0.41 +0.02    +0.070 A 
DOCKED: ATOM     19  C   UNL d   1       4.282  -3.130  -4.301 -0.63 +0.01    +0.052 C 
DOCKED: ATOM     20  C   UNL d   1       2.276  -1.583  -9.950 -0.41 +0.03    +0.066 A 
DOCKED: ATOM     21  C   UNL d   1       2.504  -1.207 -11.282 -0.41 -0.01    -0.025 A 
DOCKED: ATOM     22  C   UNL d   1       1.264  -0.903 -11.805 -0.12 -0.01    -0.021 A 
DOCKED: ATOM     23  C   UNL d   1       0.335  -1.099 -10.776 -0.06 +0.04    +0.066 A 
DOCKED: ATOM     24  C   UNL d   1       3.814  -1.130 -12.030 -0.52 +0.01    +0.051 C 
DOCKED: ATOM     25  N   UNL d   1      -1.641  -1.091  -8.491 -0.24 -0.12    -0.248 N 
DOCKED: ATOM     26  N   UNL d   1      -0.648  -1.592  -5.862 -0.25 -0.07    -0.248 N 
DOCKED: ATOM     27  N   UNL d   1       1.971  -1.977  -6.980 -0.17 -0.10    -0.248 N 
DOCKED: ATOM     28  N   UNL d   1       0.964  -1.470  -9.635 -0.20 -0.14    -0.248 N 
DOCKED: ATOM     29 FE   UNL d   1       0.160  -1.531  -7.749 -0.09 +0.00    +0.000 Fe
DOCKED: ENDROOT
DOCKED: BRANCH   6  30
DOCKED: ATOM     30  C   UNL d   1      -4.090  -0.667 -11.204 -0.23 +0.07    +0.052 C 
DOCKED: BRANCH  30  31
DOCKED: ATOM     31  C   UNL d   1      -4.255   0.805 -11.567 -0.21 +0.12    +0.115 C 
DOCKED: BRANCH  31  32
DOCKED: ATOM     32  C   UNL d   1      -3.293   1.189 -12.656 -0.18 +0.20    +0.139 C 
DOCKED: ATOM     33  O   UNL d   1      -3.666   1.266 -13.818 -0.21 -1.08    -0.650 OA
DOCKED: BRANCH  32  34
DOCKED: ATOM     34  O   UNL d   1      -2.009   1.453 -12.360 +0.03 -0.90    -0.776 OA
DOCKED: ATOM     35  H   UNL d   1      -1.319   0.868 -12.703 +0.06 +0.18    +0.167 HD
DOCKED: ENDBRANCH  32  34
DOCKED: ENDBRANCH  31  32
DOCKED: ENDBRANCH  30  31
DOCKED: ENDBRANCH   6  30
DOCKED: BRANCH  22  36
DOCKED: ATOM     36  C   UNL d   1       0.996  -0.406 -13.201 -0.26 +0.03    +0.052 C 
DOCKED: BRANCH  36  37
DOCKED: ATOM     37  C   UNL d   1       0.616  -1.575 -14.098 -0.15 +0.09    +0.115 C 
DOCKED: BRANCH  37  38
DOCKED: ATOM     38  C   UNL d   1      -0.741  -1.366 -14.709 -0.02 +0.21    +0.139 C 
DOCKED: ATOM     39  O   UNL d   1      -0.998  -1.797 -15.823 -0.22 -0.91    -0.650 OA
DOCKED: BRANCH  38  40
DOCKED: ATOM     40  O   UNL d   1      -1.688  -0.696 -14.028 -0.10 -1.62    -0.776 OA
DOCKED: ATOM     41  H   UNL d   1      -1.765   0.260 -14.149 +0.04 +0.25    +0.167 HD
DOCKED: ENDBRANCH  38  40
DOCKED: ENDBRANCH  37  38
DOCKED: ENDBRANCH  36  37
DOCKED: ENDBRANCH  22  36
DOCKED: BRANCH  12  42
DOCKED: ATOM     42  C   UNL d   1      -0.500  -1.582  -2.128 -0.51 +0.00    +0.004 C 
DOCKED: ATOM     43  C   UNL d   1      -0.012  -2.693  -1.560 -0.59 +0.00    +0.012 C 
DOCKED: ENDBRANCH  12  42
DOCKED: BRANCH  17  44
DOCKED: ATOM     44  C   UNL d   1       5.480  -3.104  -7.189 -0.45 +0.00    +0.004 C 
DOCKED: ATOM     45  C   UNL d   1       6.541  -2.659  -6.508 -0.64 +0.00    +0.012 C 
DOCKED: ENDBRANCH  17  44
DOCKED: TORSDOF 10
DOCKED: TER
DOCKED: ENDMDL
________________________________________________________________________________


	BEGINNING GENETIC ALGORITHM DOCKING 70 of 100
Run: 70 Seed: 870229306 1565102141 [ Run 70 of 100 GA/GALS ]
Beginning LAMARCKIAN GENETIC ALGORITHM (LGA), with a maximum of 25000000 energy evaluations.

Final-Value: -12.858


	FINAL GENETIC ALGORITHM DOCKED STATE
	_______________________________________________


Detailed state:  trans -7.122 -15.466 10.396 quatxyzw -0.523715 0.117665 -0.836938 0.106832 center -0.174 -0.001 -0.047 ntor 10 31.0073 175.7064 43.0561 51.1940 -59.4183 -95.6218 105.6011 -179.0272 -2.5877 -7.4421
State:	 -7.122 -15.466  10.396  -0.527  0.118 -0.842 167.735     31.01  175.71   43.06   51.19  -59.42  -95.62  105.60 -179.03   -2.59   -7.44

DOCKED: MODEL       70
DOCKED: USER    Run = 70
DOCKED: USER    DPF = D:/Protein_go_brrr/autodock/final/AncB/heme_Fe/dock.dpf
DOCKED: USER  
DOCKED: USER    Estimated Free Energy of Binding    =   -7.75 kcal/mol  [=(1)+(2)+(3)-(4)]
DOCKED: USER    Estimated Inhibition Constant, Ki   =    2.08 uM (micromolar)  [Temperature = 298.15 K]
DOCKED: USER    
DOCKED: USER    (1) Final Intermolecular Energy     =  -10.73 kcal/mol
DOCKED: USER        vdW + Hbond + desolv Energy     =   -5.80 kcal/mol
DOCKED: USER        Electrostatic Energy            =   -4.94 kcal/mol
DOCKED: USER    (2) Final Total Internal Energy     =   -2.12 kcal/mol
DOCKED: USER    (3) Torsional Free Energy           =   +2.98 kcal/mol
DOCKED: USER    (4) Unbound System's Energy  [=(2)] =   -2.12 kcal/mol
DOCKED: USER    
DOCKED: USER    
DOCKED: USER    NEWDPF move heme_Fe_opt.pdbqt
DOCKED: USER    NEWDPF about -0.174000 -0.001000 -0.047000
DOCKED: USER    NEWDPF tran0 -7.122437 -15.466145 10.395887
DOCKED: USER    NEWDPF quaternion0 -0.523715 0.117665 -0.836938 0.106832
DOCKED: USER    NEWDPF axisangle0 -0.526729 0.118342 -0.841755 167.734544
DOCKED: USER    NEWDPF quat0 -0.526729 0.118342 -0.841755 167.734544
DOCKED: USER    NEWDPF dihe0 31.01 175.71 43.06 51.19 -59.42 -95.62 105.60 -179.03 -2.59 -7.44 
DOCKED: USER  keepresnum = 1 
DOCKED: USER  
DOCKED: REMARK  10 active torsions:
DOCKED: REMARK  status: ('A' for Active; 'I' for Inactive)
DOCKED: REMARK    1  A    between atoms: C_6  and  C_10 
DOCKED: REMARK    2  A    between atoms: C_10  and  C_11 
DOCKED: REMARK    3  A    between atoms: C_11  and  C_12 
DOCKED: REMARK    4  A    between atoms: C_12  and  O_14 
DOCKED: REMARK    5  A    between atoms: C_17  and  C_20 
DOCKED: REMARK    6  A    between atoms: C_24  and  C_27 
DOCKED: REMARK    7  A    between atoms: C_31  and  C_34 
DOCKED: REMARK    8  A    between atoms: C_34  and  C_35 
DOCKED: REMARK    9  A    between atoms: C_35  and  C_36 
DOCKED: REMARK   10  A    between atoms: C_36  and  O_38 
DOCKED: USER                              x       y       z     vdW  Elec       q    Type
DOCKED: USER                           _______ _______ _______ _____ _____    ______ ____
DOCKED: ROOT
DOCKED: ATOM      1  C   UNL d   1      -5.803 -15.685   8.840 -0.15 +0.06    +0.064 C 
DOCKED: ATOM      2  C   UNL d   1      -6.529 -12.265  12.334 -0.28 +0.04    +0.064 A 
DOCKED: ATOM      3  C   UNL d   1      -9.271 -15.395  14.731 +0.05 +0.02    +0.064 C 
DOCKED: ATOM      4  C   UNL d   1      -8.668 -18.684  11.309 -0.10 +0.05    +0.064 C 
DOCKED: ATOM      5  C   UNL d   1      -5.821 -14.404   9.560 -0.18 +0.05    +0.066 A 
DOCKED: ATOM      6  C   UNL d   1      -5.229 -13.235   9.109 -0.20 -0.01    -0.021 A 
DOCKED: ATOM      7  C   UNL d   1      -5.428 -12.287  10.082 -0.24 -0.01    -0.025 A 
DOCKED: ATOM      8  C   UNL d   1      -6.134 -12.914  11.090 -0.24 +0.03    +0.066 A 
DOCKED: ATOM      9  C   UNL d   1      -4.978 -10.859  10.028 -0.31 +0.02    +0.051 C 
DOCKED: ATOM     10  C   UNL d   1      -7.260 -12.829  13.296 -0.27 +0.03    +0.066 A 
DOCKED: ATOM     11  C   UNL d   1      -7.524 -12.221  14.526 -0.25 -0.01    -0.021 A 
DOCKED: ATOM     12  C   UNL d   1      -8.300 -13.111  15.243 -0.18 +0.00    +0.000 A 
DOCKED: ATOM     13  C   UNL d   1      -8.463 -14.230  14.408 -0.15 +0.02    +0.070 A 
DOCKED: ATOM     14  C   UNL d   1      -7.006 -10.886  15.022 -0.23 +0.04    +0.052 C 
DOCKED: ATOM     15  C   UNL d   1      -9.390 -16.497  13.953 -0.03 +0.02    +0.066 A 
DOCKED: ATOM     16  C   UNL d   1     -10.250 -17.546  14.249 -0.10 -0.01    -0.021 A 
DOCKED: ATOM     17  C   UNL d   1     -10.075 -18.497  13.266 -0.10 +0.00    +0.000 A 
DOCKED: ATOM     18  C   UNL d   1      -9.107 -18.007  12.393 -0.12 +0.04    +0.070 A 
DOCKED: ATOM     19  C   UNL d   1     -11.183 -17.664  15.424 -0.09 +0.01    +0.052 C 
DOCKED: ATOM     20  C   UNL d   1      -7.696 -18.174  10.335 -0.09 +0.08    +0.066 A 
DOCKED: ATOM     21  C   UNL d   1      -7.084 -18.933   9.327 -0.05 -0.03    -0.025 A 
DOCKED: ATOM     22  C   UNL d   1      -6.282 -18.055   8.627 -0.06 -0.02    -0.021 A 
DOCKED: ATOM     23  C   UNL d   1      -6.429 -16.803   9.236 -0.11 +0.08    +0.066 A 
DOCKED: ATOM     24  C   UNL d   1      -7.238 -20.407   9.032 -0.01 +0.03    +0.051 C 
DOCKED: ATOM     25  N   UNL d   1      -6.380 -14.199  10.765 -0.15 -0.14    -0.248 N 
DOCKED: ATOM     26  N   UNL d   1      -7.822 -14.063  13.225 -0.18 -0.11    -0.248 N 
DOCKED: ATOM     27  N   UNL d   1      -8.717 -16.758  12.790 -0.12 -0.13    -0.248 N 
DOCKED: ATOM     28  N   UNL d   1      -7.258 -16.891  10.305 -0.11 -0.29    -0.248 N 
DOCKED: ATOM     29 FE   UNL d   1      -7.541 -15.479  11.765 -0.04 +0.00    +0.000 Fe
DOCKED: ENDROOT
DOCKED: BRANCH   6  30
DOCKED: ATOM     30  C   UNL d   1      -4.528 -13.022   7.811 -0.21 +0.03    +0.052 C 
DOCKED: BRANCH  30  31
DOCKED: ATOM     31  C   UNL d   1      -5.519 -12.633   6.720 -0.34 +0.09    +0.115 C 
DOCKED: BRANCH  31  32
DOCKED: ATOM     32  C   UNL d   1      -6.319 -13.829   6.284 -0.19 +0.21    +0.139 C 
DOCKED: ATOM     33  O   UNL d   1      -5.763 -14.816   5.823 -0.31 -1.32    -0.650 OA
DOCKED: BRANCH  32  34
DOCKED: ATOM     34  O   UNL d   1      -7.657 -13.824   6.400 +0.02 -1.39    -0.776 OA
DOCKED: ATOM     35  H   UNL d   1      -8.118 -14.659   6.562 +0.03 +0.41    +0.167 HD
DOCKED: ENDBRANCH  32  34
DOCKED: ENDBRANCH  31  32
DOCKED: ENDBRANCH  30  31
DOCKED: ENDBRANCH   6  30
DOCKED: BRANCH  22  36
DOCKED: ATOM     36  C   UNL d   1      -5.387 -18.413   7.470 -0.02 +0.05    +0.052 C 
DOCKED: BRANCH  36  37
DOCKED: ATOM     37  C   UNL d   1      -6.159 -18.284   6.165 -0.06 +0.16    +0.115 C 
DOCKED: BRANCH  37  38
DOCKED: ATOM     38  C   UNL d   1      -7.572 -17.838   6.417 -0.07 +0.32    +0.139 C 
DOCKED: ATOM     39  O   UNL d   1      -8.479 -18.652   6.499 -0.07 -1.31    -0.650 OA
DOCKED: BRANCH  38  40
DOCKED: ATOM     40  O   UNL d   1      -7.848 -16.529   6.551 -0.09 -2.54    -0.776 OA
DOCKED: ATOM     41  H   UNL d   1      -7.120 -15.892   6.550 +0.03 +0.47    +0.167 HD
DOCKED: ENDBRANCH  38  40
DOCKED: ENDBRANCH  37  38
DOCKED: ENDBRANCH  36  37
DOCKED: ENDBRANCH  22  36
DOCKED: BRANCH  12  42
DOCKED: ATOM     42  C   UNL d   1      -8.811 -12.878  16.629 -0.13 +0.00    +0.004 C 
DOCKED: ATOM     43  C   UNL d   1     -10.004 -12.306  16.836 -0.17 +0.00    +0.012 C 
DOCKED: ENDBRANCH  12  42
DOCKED: BRANCH  17  44
DOCKED: ATOM     44  C   UNL d   1     -10.802 -19.783  13.157 -0.04 +0.00    +0.004 C 
DOCKED: ATOM     45  C   UNL d   1     -11.765 -19.949  12.245 -0.06 +0.00    +0.012 C 
DOCKED: ENDBRANCH  17  44
DOCKED: TORSDOF 10
DOCKED: TER
DOCKED: ENDMDL
________________________________________________________________________________


	BEGINNING GENETIC ALGORITHM DOCKING 71 of 100
Run: 71 Seed: 1514875869 804179851 [ Run 71 of 100 GA/GALS ]
Beginning LAMARCKIAN GENETIC ALGORITHM (LGA), with a maximum of 25000000 energy evaluations.

Final-Value: -12.696


	FINAL GENETIC ALGORITHM DOCKED STATE
	_______________________________________________


Detailed state:  trans -2.044 -14.964 4.234 quatxyzw 0.513462 0.206331 0.200509 -0.808443 center -0.174 -0.001 -0.047 ntor 10 -89.9466 117.1844 79.2297 -157.3132 38.6785 -88.3073 -61.3917 -98.4504 -122.0117 -40.6718
State:	 -2.044 -14.964   4.234   0.872  0.351  0.341 -72.112    -89.95  117.18   79.23 -157.31   38.68  -88.31  -61.39  -98.45 -122.01  -40.67

DOCKED: MODEL       71
DOCKED: USER    Run = 71
DOCKED: USER    DPF = D:/Protein_go_brrr/autodock/final/AncB/heme_Fe/dock.dpf
DOCKED: USER  
DOCKED: USER    Estimated Free Energy of Binding    =   -8.38 kcal/mol  [=(1)+(2)+(3)-(4)]
DOCKED: USER    Estimated Inhibition Constant, Ki   =  716.90 nM (nanomolar)  [Temperature = 298.15 K]
DOCKED: USER    
DOCKED: USER    (1) Final Intermolecular Energy     =  -11.37 kcal/mol
DOCKED: USER        vdW + Hbond + desolv Energy     =   -6.18 kcal/mol
DOCKED: USER        Electrostatic Energy            =   -5.18 kcal/mol
DOCKED: USER    (2) Final Total Internal Energy     =   -1.33 kcal/mol
DOCKED: USER    (3) Torsional Free Energy           =   +2.98 kcal/mol
DOCKED: USER    (4) Unbound System's Energy  [=(2)] =   -1.33 kcal/mol
DOCKED: USER    
DOCKED: USER    
DOCKED: USER    NEWDPF move heme_Fe_opt.pdbqt
DOCKED: USER    NEWDPF about -0.174000 -0.001000 -0.047000
DOCKED: USER    NEWDPF tran0 -2.043609 -14.963898 4.233503
DOCKED: USER    NEWDPF quaternion0 0.513462 0.206331 0.200509 -0.808443
DOCKED: USER    NEWDPF axisangle0 0.872383 0.350561 0.340669 -72.111732
DOCKED: USER    NEWDPF quat0 0.872383 0.350561 0.340669 -72.111732
DOCKED: USER    NEWDPF dihe0 -89.95 117.18 79.23 -157.31 38.68 -88.31 -61.39 -98.45 -122.01 -40.67 
DOCKED: USER  keepresnum = 1 
DOCKED: USER  
DOCKED: REMARK  10 active torsions:
DOCKED: REMARK  status: ('A' for Active; 'I' for Inactive)
DOCKED: REMARK    1  A    between atoms: C_6  and  C_10 
DOCKED: REMARK    2  A    between atoms: C_10  and  C_11 
DOCKED: REMARK    3  A    between atoms: C_11  and  C_12 
DOCKED: REMARK    4  A    between atoms: C_12  and  O_14 
DOCKED: REMARK    5  A    between atoms: C_17  and  C_20 
DOCKED: REMARK    6  A    between atoms: C_24  and  C_27 
DOCKED: REMARK    7  A    between atoms: C_31  and  C_34 
DOCKED: REMARK    8  A    between atoms: C_34  and  C_35 
DOCKED: REMARK    9  A    between atoms: C_35  and  C_36 
DOCKED: REMARK   10  A    between atoms: C_36  and  O_38 
DOCKED: USER                              x       y       z     vdW  Elec       q    Type
DOCKED: USER                           _______ _______ _______ _____ _____    ______ ____
DOCKED: ROOT
DOCKED: ATOM      1  C   UNL d   1      -3.403 -16.447   4.639 -0.11 +0.05    +0.064 C 
DOCKED: ATOM      2  C   UNL d   1      -0.087 -15.648   1.062 -0.24 +0.02    +0.064 A 
DOCKED: ATOM      3  C   UNL d   1       1.958 -12.278   3.805 -0.21 +0.01    +0.064 C 
DOCKED: ATOM      4  C   UNL d   1      -1.305 -12.961   7.236 -0.14 +0.02    +0.064 C 
DOCKED: ATOM      5  C   UNL d   1      -2.710 -16.476   3.343 -0.12 +0.05    +0.066 A 
DOCKED: ATOM      6  C   UNL d   1      -3.092 -17.250   2.260 -0.17 -0.02    -0.021 A 
DOCKED: ATOM      7  C   UNL d   1      -2.168 -17.030   1.268 -0.19 -0.02    -0.025 A 
DOCKED: ATOM      8  C   UNL d   1      -1.257 -16.130   1.785 -0.19 +0.03    +0.066 A 
DOCKED: ATOM      9  C   UNL d   1      -2.180 -17.640  -0.100 -0.23 +0.03    +0.051 C 
DOCKED: ATOM     10  C   UNL d   1       0.775 -14.737   1.516 -0.23 +0.02    +0.066 A 
DOCKED: ATOM     11  C   UNL d   1       1.949 -14.381   0.847 -0.14 -0.00    -0.021 A 
DOCKED: ATOM     12  C   UNL d   1       2.566 -13.422   1.626 -0.20 +0.00    +0.000 A 
DOCKED: ATOM     13  C   UNL d   1       1.732 -13.247   2.745 -0.20 +0.02    +0.070 A 
DOCKED: ATOM     14  C   UNL d   1       2.492 -14.974  -0.437 -0.14 +0.01    +0.052 C 
DOCKED: ATOM     15  C   UNL d   1       1.186 -12.142   4.909 -0.18 +0.01    +0.066 A 
DOCKED: ATOM     16  C   UNL d   1       1.378 -11.137   5.849 -0.22 -0.00    -0.021 A 
DOCKED: ATOM     17  C   UNL d   1       0.440 -11.335   6.842 -0.21 +0.00    +0.000 A 
DOCKED: ATOM     18  C   UNL d   1      -0.300 -12.459   6.485 -0.16 +0.02    +0.070 A 
DOCKED: ATOM     19  C   UNL d   1       2.417 -10.049   5.831 -0.25 +0.01    +0.052 C 
DOCKED: ATOM     20  C   UNL d   1      -2.145 -14.105   6.863 -0.08 +0.02    +0.066 A 
DOCKED: ATOM     21  C   UNL d   1      -3.050 -14.756   7.713 -0.04 -0.01    -0.025 A 
DOCKED: ATOM     22  C   UNL d   1      -3.646 -15.738   6.948 -0.05 -0.01    -0.021 A 
DOCKED: ATOM     23  C   UNL d   1      -3.080 -15.652   5.671 -0.08 +0.04    +0.066 A 
DOCKED: ATOM     24  C   UNL d   1      -3.343 -14.480   9.169 -0.04 +0.02    +0.051 C 
DOCKED: ATOM     25  N   UNL d   1      -1.595 -15.787   3.045 -0.06 -0.14    -0.248 N 
DOCKED: ATOM     26  N   UNL d   1       0.645 -14.055   2.682 -0.14 -0.10    -0.248 N 
DOCKED: ATOM     27  N   UNL d   1       0.129 -12.930   5.275 -0.09 -0.07    -0.248 N 
DOCKED: ATOM     28  N   UNL d   1      -2.133 -14.683   5.637 -0.02 -0.10    -0.248 N 
DOCKED: ATOM     29 FE   UNL d   1      -0.744 -14.368   4.162 -0.05 +0.00    +0.000 Fe
DOCKED: ENDROOT
DOCKED: BRANCH   6  30
DOCKED: ATOM     30  C   UNL d   1      -4.285 -18.137   2.161 -0.17 +0.07    +0.052 C 
DOCKED: BRANCH  30  31
DOCKED: ATOM     31  C   UNL d   1      -4.616 -18.750   3.517 -0.09 +0.13    +0.115 C 
DOCKED: BRANCH  31  32
DOCKED: ATOM     32  C   UNL d   1      -5.988 -18.328   3.965 -0.01 +0.26    +0.139 C 
DOCKED: ATOM     33  O   UNL d   1      -6.906 -18.237   3.161 -0.25 -1.68    -0.650 OA
DOCKED: BRANCH  32  34
DOCKED: ATOM     34  O   UNL d   1      -6.219 -18.046   5.258 +0.00 -1.47    -0.776 OA
DOCKED: ATOM     35  H   UNL d   1      -6.097 -17.138   5.570 +0.03 +0.42    +0.167 HD
DOCKED: ENDBRANCH  32  34
DOCKED: ENDBRANCH  31  32
DOCKED: ENDBRANCH  30  31
DOCKED: ENDBRANCH   6  30
DOCKED: BRANCH  22  36
DOCKED: ATOM     36  C   UNL d   1      -4.667 -16.733   7.435 -0.04 +0.05    +0.052 C 
DOCKED: BRANCH  36  37
DOCKED: ATOM     37  C   UNL d   1      -5.856 -15.998   8.034 -0.14 +0.14    +0.115 C 
DOCKED: BRANCH  37  38
DOCKED: ATOM     38  C   UNL d   1      -6.790 -15.518   6.960 -0.16 +0.30    +0.139 C 
DOCKED: ATOM     39  O   UNL d   1      -6.631 -14.426   6.434 -0.21 -1.23    -0.650 OA
DOCKED: BRANCH  38  40
DOCKED: ATOM     40  O   UNL d   1      -7.818 -16.293   6.569 -0.12 -2.55    -0.776 OA
DOCKED: ATOM     41  H   UNL d   1      -7.632 -17.150   6.160 +0.02 +0.49    +0.167 HD
DOCKED: ENDBRANCH  38  40
DOCKED: ENDBRANCH  37  38
DOCKED: ENDBRANCH  36  37
DOCKED: ENDBRANCH  22  36
DOCKED: BRANCH  12  42
DOCKED: ATOM     42  C   UNL d   1       3.867 -12.760   1.299 -0.26 +0.00    +0.004 C 
DOCKED: ATOM     43  C   UNL d   1       3.974 -11.425   1.277 -0.39 -0.00    +0.012 C 
DOCKED: ENDBRANCH  12  42
DOCKED: BRANCH  17  44
DOCKED: ATOM     44  C   UNL d   1       0.251 -10.490   8.043 -0.09 +0.00    +0.004 C 
DOCKED: ATOM     45  C   UNL d   1       0.690 -10.893   9.239 -0.11 +0.00    +0.012 C 
DOCKED: ENDBRANCH  17  44
DOCKED: TORSDOF 10
DOCKED: TER
DOCKED: ENDMDL
________________________________________________________________________________


	BEGINNING GENETIC ALGORITHM DOCKING 72 of 100
Run: 72 Seed: 344301245 993857920 [ Run 72 of 100 GA/GALS ]
Beginning LAMARCKIAN GENETIC ALGORITHM (LGA), with a maximum of 25000000 energy evaluations.

Final-Value: -19.142


	FINAL GENETIC ALGORITHM DOCKED STATE
	_______________________________________________


Detailed state:  trans -0.263 -0.896 -9.089 quatxyzw -0.615096 0.468923 -0.277458 0.569899 center -0.174 -0.001 -0.047 ntor 10 38.3174 -105.0692 58.1944 -131.0140 143.5231 1.4969 -46.5493 2.3572 -132.2810 36.5389
State:	 -0.263  -0.896  -9.089  -0.749  0.571 -0.338 110.514     38.32 -105.07   58.19 -131.01  143.52    1.50  -46.55    2.36 -132.28   36.54

DOCKED: MODEL       72
DOCKED: USER    Run = 72
DOCKED: USER    DPF = D:/Protein_go_brrr/autodock/final/AncB/heme_Fe/dock.dpf
DOCKED: USER  
DOCKED: USER    Estimated Free Energy of Binding    =  -14.36 kcal/mol  [=(1)+(2)+(3)-(4)]
DOCKED: USER    Estimated Inhibition Constant, Ki   =   30.00 pM (picomolar)  [Temperature = 298.15 K]
DOCKED: USER    
DOCKED: USER    (1) Final Intermolecular Energy     =  -17.34 kcal/mol
DOCKED: USER        vdW + Hbond + desolv Energy     =  -14.10 kcal/mol
DOCKED: USER        Electrostatic Energy            =   -3.24 kcal/mol
DOCKED: USER    (2) Final Total Internal Energy     =   -1.80 kcal/mol
DOCKED: USER    (3) Torsional Free Energy           =   +2.98 kcal/mol
DOCKED: USER    (4) Unbound System's Energy  [=(2)] =   -1.80 kcal/mol
DOCKED: USER    
DOCKED: USER    
DOCKED: USER    NEWDPF move heme_Fe_opt.pdbqt
DOCKED: USER    NEWDPF about -0.174000 -0.001000 -0.047000
DOCKED: USER    NEWDPF tran0 -0.263121 -0.896389 -9.088552
DOCKED: USER    NEWDPF quaternion0 -0.615096 0.468923 -0.277458 0.569899
DOCKED: USER    NEWDPF axisangle0 -0.748552 0.570664 -0.337658 110.513571
DOCKED: USER    NEWDPF quat0 -0.748552 0.570664 -0.337658 110.513571
DOCKED: USER    NEWDPF dihe0 38.32 -105.07 58.19 -131.01 143.52 1.50 -46.55 2.36 -132.28 36.54 
DOCKED: USER  keepresnum = 1 
DOCKED: USER  
DOCKED: REMARK  10 active torsions:
DOCKED: REMARK  status: ('A' for Active; 'I' for Inactive)
DOCKED: REMARK    1  A    between atoms: C_6  and  C_10 
DOCKED: REMARK    2  A    between atoms: C_10  and  C_11 
DOCKED: REMARK    3  A    between atoms: C_11  and  C_12 
DOCKED: REMARK    4  A    between atoms: C_12  and  O_14 
DOCKED: REMARK    5  A    between atoms: C_17  and  C_20 
DOCKED: REMARK    6  A    between atoms: C_24  and  C_27 
DOCKED: REMARK    7  A    between atoms: C_31  and  C_34 
DOCKED: REMARK    8  A    between atoms: C_34  and  C_35 
DOCKED: REMARK    9  A    between atoms: C_35  and  C_36 
DOCKED: REMARK   10  A    between atoms: C_36  and  O_38 
DOCKED: USER                              x       y       z     vdW  Elec       q    Type
DOCKED: USER                           _______ _______ _______ _____ _____    ______ ____
DOCKED: ROOT
DOCKED: ATOM      1  C   UNL d   1      -1.118  -0.897 -10.954 -0.29 +0.05    +0.064 C 
DOCKED: ATOM      2  C   UNL d   1       3.373  -1.959  -9.183 -0.45 +0.02    +0.064 A 
DOCKED: ATOM      3  C   UNL d   1       1.513  -2.123  -4.758 -0.43 +0.01    +0.064 C 
DOCKED: ATOM      4  C   UNL d   1      -2.821  -0.992  -6.438 -0.48 +0.02    +0.064 C 
DOCKED: ATOM      5  C   UNL d   1       0.334  -1.098 -10.856 -0.07 +0.04    +0.066 A 
DOCKED: ATOM      6  C   UNL d   1       1.218  -1.009 -11.919 -0.21 -0.01    -0.021 A 
DOCKED: ATOM      7  C   UNL d   1       2.465  -1.308 -11.427 -0.39 -0.01    -0.025 A 
DOCKED: ATOM      8  C   UNL d   1       2.293  -1.568 -10.082 -0.42 +0.03    +0.066 A 
DOCKED: ATOM      9  C   UNL d   1       3.742  -1.320 -12.209 -0.51 +0.01    +0.051 C 
DOCKED: ATOM     10  C   UNL d   1       3.245  -2.160  -7.871 -0.42 +0.02    +0.066 A 
DOCKED: ATOM     11  C   UNL d   1       4.272  -2.645  -7.057 -0.49 -0.01    -0.021 A 
DOCKED: ATOM     12  C   UNL d   1       3.756  -2.717  -5.779 -0.50 +0.00    +0.000 A 
DOCKED: ATOM     13  C   UNL d   1       2.425  -2.276  -5.881 -0.39 +0.02    +0.070 A 
DOCKED: ATOM     14  C   UNL d   1       5.656  -3.084  -7.489 -0.37 +0.01    +0.052 C 
DOCKED: ATOM     15  C   UNL d   1       0.216  -1.748  -4.858 -0.39 +0.01    +0.066 A 
DOCKED: ATOM     16  C   UNL d   1      -0.594  -1.517  -3.753 -0.39 -0.00    -0.021 A 
DOCKED: ATOM     17  C   UNL d   1      -1.845  -1.194  -4.236 -0.41 +0.00    +0.000 A 
DOCKED: ATOM     18  C   UNL d   1      -1.770  -1.240  -5.626 -0.39 +0.02    +0.070 A 
DOCKED: ATOM     19  C   UNL d   1      -0.216  -1.619  -2.300 -0.44 +0.01    +0.052 C 
DOCKED: ATOM     20  C   UNL d   1      -2.764  -0.971  -7.905 -0.36 +0.03    +0.066 A 
DOCKED: ATOM     21  C   UNL d   1      -3.876  -0.914  -8.757 -0.29 -0.01    -0.025 A 
DOCKED: ATOM     22  C   UNL d   1      -3.367  -0.875 -10.039 -0.29 -0.02    -0.021 A 
DOCKED: ATOM     23  C   UNL d   1      -1.973  -0.916  -9.919 -0.32 +0.05    +0.066 A 
DOCKED: ATOM     24  C   UNL d   1      -5.343  -0.902  -8.395 -0.28 +0.02    +0.051 C 
DOCKED: ATOM     25  N   UNL d   1       0.998  -1.431  -9.735 -0.22 -0.13    -0.248 N 
DOCKED: ATOM     26  N   UNL d   1       2.110  -1.945  -7.157 -0.18 -0.10    -0.248 N 
DOCKED: ATOM     27  N   UNL d   1      -0.493  -1.538  -6.010 -0.25 -0.07    -0.248 N 
DOCKED: ATOM     28  N   UNL d   1      -1.612  -1.019  -8.617 -0.24 -0.12    -0.248 N 
DOCKED: ATOM     29 FE   UNL d   1       0.247  -1.482  -7.886 -0.09 +0.00    +0.000 Fe
DOCKED: ENDROOT
DOCKED: BRANCH   6  30
DOCKED: ATOM     30  C   UNL d   1       0.901  -0.637 -13.327 -0.26 +0.03    +0.052 C 
DOCKED: BRANCH  30  31
DOCKED: ATOM     31  C   UNL d   1      -0.377  -1.327 -13.793 -0.20 +0.14    +0.115 C 
DOCKED: BRANCH  31  32
DOCKED: ATOM     32  C   UNL d   1      -1.281  -0.347 -14.487 -0.08 +0.21    +0.139 C 
DOCKED: ATOM     33  O   UNL d   1      -1.949  -0.691 -15.453 -0.57 -1.25    -0.650 OA
DOCKED: BRANCH  32  34
DOCKED: ATOM     34  O   UNL d   1      -1.363   0.921 -14.051 +0.04 -0.95    -0.776 OA
DOCKED: ATOM     35  H   UNL d   1      -2.222   1.366 -14.058 +0.04 +0.25    +0.167 HD
DOCKED: ENDBRANCH  32  34
DOCKED: ENDBRANCH  31  32
DOCKED: ENDBRANCH  30  31
DOCKED: ENDBRANCH   6  30
DOCKED: BRANCH  22  36
DOCKED: ATOM     36  C   UNL d   1      -4.179  -0.850 -11.307 -0.19 +0.07    +0.052 C 
DOCKED: BRANCH  36  37
DOCKED: ATOM     37  C   UNL d   1      -3.632   0.216 -12.246 -0.19 +0.17    +0.115 C 
DOCKED: BRANCH  37  38
DOCKED: ATOM     38  C   UNL d   1      -4.445   0.291 -13.507 -0.10 +0.23    +0.139 C 
DOCKED: ATOM     39  O   UNL d   1      -5.421  -0.428 -13.666 +0.01 -1.05    -0.650 OA
DOCKED: BRANCH  38  40
DOCKED: ATOM     40  O   UNL d   1      -4.099   1.154 -14.478 -0.17 -1.25    -0.776 OA
DOCKED: ATOM     41  H   UNL d   1      -3.332   0.954 -15.033 +0.02 +0.26    +0.167 HD
DOCKED: ENDBRANCH  38  40
DOCKED: ENDBRANCH  37  38
DOCKED: ENDBRANCH  36  37
DOCKED: ENDBRANCH  22  36
DOCKED: BRANCH  12  42
DOCKED: ATOM     42  C   UNL d   1       4.508  -3.197  -4.578 -0.68 +0.00    +0.004 C 
DOCKED: ATOM     43  C   UNL d   1       4.941  -2.337  -3.647 -0.55 +0.00    +0.012 C 
DOCKED: ENDBRANCH  12  42
DOCKED: BRANCH  17  44
DOCKED: ATOM     44  C   UNL d   1      -3.030  -0.844  -3.420 -0.59 +0.00    +0.004 C 
DOCKED: ATOM     45  C   UNL d   1      -3.734  -1.792  -2.793 -0.68 +0.00    +0.012 C 
DOCKED: ENDBRANCH  17  44
DOCKED: TORSDOF 10
DOCKED: TER
DOCKED: ENDMDL
________________________________________________________________________________


	BEGINNING GENETIC ALGORITHM DOCKING 73 of 100
Run: 73 Seed: 1135250313 2113248076 [ Run 73 of 100 GA/GALS ]
Beginning LAMARCKIAN GENETIC ALGORITHM (LGA), with a maximum of 25000000 energy evaluations.

Final-Value: -18.100


	FINAL GENETIC ALGORITHM DOCKED STATE
	_______________________________________________


Detailed state:  trans 0.319 -1.657 -9.035 quatxyzw -0.563629 -0.394781 -0.492655 -0.532692 center -0.174 -0.001 -0.047 ntor 10 42.3079 180.0000 80.6964 -134.7703 -48.2944 122.2222 -12.7026 -41.7161 -158.7001 180.0000
State:	  0.319  -1.657  -9.035  -0.666 -0.466 -0.582 -115.625     42.31  180.00   80.70 -134.77  -48.29  122.22  -12.70  -41.72 -158.70  180.00

DOCKED: MODEL       73
DOCKED: USER    Run = 73
DOCKED: USER    DPF = D:/Protein_go_brrr/autodock/final/AncB/heme_Fe/dock.dpf
DOCKED: USER  
DOCKED: USER    Estimated Free Energy of Binding    =  -14.54 kcal/mol  [=(1)+(2)+(3)-(4)]
DOCKED: USER    Estimated Inhibition Constant, Ki   =   21.80 pM (picomolar)  [Temperature = 298.15 K]
DOCKED: USER    
DOCKED: USER    (1) Final Intermolecular Energy     =  -17.53 kcal/mol
DOCKED: USER        vdW + Hbond + desolv Energy     =  -14.83 kcal/mol
DOCKED: USER        Electrostatic Energy            =   -2.70 kcal/mol
DOCKED: USER    (2) Final Total Internal Energy     =   -0.57 kcal/mol
DOCKED: USER    (3) Torsional Free Energy           =   +2.98 kcal/mol
DOCKED: USER    (4) Unbound System's Energy  [=(2)] =   -0.57 kcal/mol
DOCKED: USER    
DOCKED: USER    
DOCKED: USER    NEWDPF move heme_Fe_opt.pdbqt
DOCKED: USER    NEWDPF about -0.174000 -0.001000 -0.047000
DOCKED: USER    NEWDPF tran0 0.318525 -1.656963 -9.035004
DOCKED: USER    NEWDPF quaternion0 -0.563629 -0.394781 -0.492655 -0.532692
DOCKED: USER    NEWDPF axisangle0 -0.665985 -0.466474 -0.582122 -115.624957
DOCKED: USER    NEWDPF quat0 -0.665985 -0.466474 -0.582122 -115.624957
DOCKED: USER    NEWDPF dihe0 42.31 180.00 80.70 -134.77 -48.29 122.22 -12.70 -41.72 -158.70 180.00 
DOCKED: USER  keepresnum = 1 
DOCKED: USER  
DOCKED: REMARK  10 active torsions:
DOCKED: REMARK  status: ('A' for Active; 'I' for Inactive)
DOCKED: REMARK    1  A    between atoms: C_6  and  C_10 
DOCKED: REMARK    2  A    between atoms: C_10  and  C_11 
DOCKED: REMARK    3  A    between atoms: C_11  and  C_12 
DOCKED: REMARK    4  A    between atoms: C_12  and  O_14 
DOCKED: REMARK    5  A    between atoms: C_17  and  C_20 
DOCKED: REMARK    6  A    between atoms: C_24  and  C_27 
DOCKED: REMARK    7  A    between atoms: C_31  and  C_34 
DOCKED: REMARK    8  A    between atoms: C_34  and  C_35 
DOCKED: REMARK    9  A    between atoms: C_35  and  C_36 
DOCKED: REMARK   10  A    between atoms: C_36  and  O_38 
DOCKED: USER                              x       y       z     vdW  Elec       q    Type
DOCKED: USER                           _______ _______ _______ _____ _____    ______ ____
DOCKED: ROOT
DOCKED: ATOM      1  C   UNL d   1      -0.069  -0.965 -10.928 +0.11 +0.04    +0.064 C 
DOCKED: ATOM      2  C   UNL d   1      -2.579  -1.047  -6.671 -0.41 +0.02    +0.064 A 
DOCKED: ATOM      3  C   UNL d   1       1.504  -2.084  -4.363 -0.38 +0.01    +0.064 C 
DOCKED: ATOM      4  C   UNL d   1       3.933  -2.113  -8.484 -0.51 +0.02    +0.064 C 
DOCKED: ATOM      5  C   UNL d   1      -1.169  -0.975  -9.954 -0.29 +0.04    +0.066 A 
DOCKED: ATOM      6  C   UNL d   1      -2.509  -0.824 -10.273 -0.32 -0.02    -0.021 A 
DOCKED: ATOM      7  C   UNL d   1      -3.205  -0.843  -9.090 -0.32 -0.01    -0.025 A 
DOCKED: ATOM      8  C   UNL d   1      -2.262  -1.005  -8.093 -0.36 +0.03    +0.066 A 
DOCKED: ATOM      9  C   UNL d   1      -4.691  -0.730  -8.937 -0.31 +0.03    +0.051 C 
DOCKED: ATOM     10  C   UNL d   1      -1.696  -1.260  -5.693 -0.39 +0.02    +0.066 A 
DOCKED: ATOM     11  C   UNL d   1      -2.011  -1.181  -4.334 -0.42 -0.00    -0.021 A 
DOCKED: ATOM     12  C   UNL d   1      -0.846  -1.459  -3.647 -0.38 +0.00    +0.000 A 
DOCKED: ATOM     13  C   UNL d   1       0.130  -1.688  -4.632 -0.38 +0.01    +0.070 A 
DOCKED: ATOM     14  C   UNL d   1      -3.340  -0.791  -3.720 -0.58 +0.01    +0.052 C 
DOCKED: ATOM     15  C   UNL d   1       2.461  -2.254  -5.306 -0.39 +0.01    +0.066 A 
DOCKED: ATOM     16  C   UNL d   1       3.734  -2.729  -5.017 -0.51 -0.00    -0.021 A 
DOCKED: ATOM     17  C   UNL d   1       4.437  -2.735  -6.204 -0.51 +0.00    +0.000 A 
DOCKED: ATOM     18  C   UNL d   1       3.576  -2.259  -7.190 -0.42 +0.02    +0.070 A 
DOCKED: ATOM     19  C   UNL d   1       4.279  -3.138  -3.675 -0.49 +0.00    +0.052 C 
DOCKED: ATOM     20  C   UNL d   1       3.036  -1.674  -9.560 -0.44 +0.02    +0.066 A 
DOCKED: ATOM     21  C   UNL d   1       3.438  -1.327 -10.858 -0.46 -0.01    -0.025 A 
DOCKED: ATOM     22  C   UNL d   1       2.280  -1.016 -11.541 -0.36 -0.01    -0.021 A 
DOCKED: ATOM     23  C   UNL d   1       1.224  -1.177 -10.636 -0.13 +0.03    +0.066 A 
DOCKED: ATOM     24  C   UNL d   1       4.834  -1.285 -11.434 -0.35 +0.01    +0.051 C 
DOCKED: ATOM     25  N   UNL d   1      -1.026  -1.095  -8.622 -0.23 -0.12    -0.248 N 
DOCKED: ATOM     26  N   UNL d   1      -0.385  -1.558  -5.879 -0.25 -0.07    -0.248 N 
DOCKED: ATOM     27  N   UNL d   1       2.348  -2.004  -6.647 -0.24 -0.08    -0.248 N 
DOCKED: ATOM     28  N   UNL d   1       1.696  -1.535  -9.417 -0.26 -0.12    -0.248 N 
DOCKED: ATOM     29 FE   UNL d   1       0.657  -1.547  -7.649 -0.09 +0.00    +0.000 Fe
DOCKED: ENDROOT
DOCKED: BRANCH   6  30
DOCKED: ATOM     30  C   UNL d   1      -3.102  -0.689 -11.633 -0.12 +0.08    +0.052 C 
DOCKED: BRANCH  30  31
DOCKED: ATOM     31  C   UNL d   1      -2.730   0.652 -12.255 -0.24 +0.15    +0.115 C 
DOCKED: BRANCH  31  32
DOCKED: ATOM     32  C   UNL d   1      -3.060   0.662 -13.722 -0.15 +0.23    +0.139 C 
DOCKED: ATOM     33  O   UNL d   1      -2.719  -0.264 -14.444 -0.13 -1.55    -0.650 OA
DOCKED: BRANCH  32  34
DOCKED: ATOM     34  O   UNL d   1      -3.737   1.694 -14.254 -0.51 -1.46    -0.776 OA
DOCKED: ATOM     35  H   UNL d   1      -4.441   1.514 -14.893 +0.01 +0.26    +0.167 HD
DOCKED: ENDBRANCH  32  34
DOCKED: ENDBRANCH  31  32
DOCKED: ENDBRANCH  30  31
DOCKED: ENDBRANCH   6  30
DOCKED: BRANCH  22  36
DOCKED: ATOM     36  C   UNL d   1       2.201  -0.543 -12.969 -0.34 +0.02    +0.052 C 
DOCKED: BRANCH  36  37
DOCKED: ATOM     37  C   UNL d   1       2.455   0.956 -13.027 -0.30 +0.04    +0.115 C 
DOCKED: BRANCH  37  38
DOCKED: ATOM     38  C   UNL d   1       3.354   1.306 -14.179 -0.34 +0.05    +0.139 C 
DOCKED: ATOM     39  O   UNL d   1       2.988   2.091 -15.042 +0.03 -0.28    -0.650 OA
DOCKED: BRANCH  38  40
DOCKED: ATOM     40  O   UNL d   1       4.575   0.749 -14.271 +0.03 -0.12    -0.776 OA
DOCKED: ATOM     41  H   UNL d   1       4.861   0.129 -13.586 -0.40 -0.01    +0.167 HD
DOCKED: ENDBRANCH  38  40
DOCKED: ENDBRANCH  37  38
DOCKED: ENDBRANCH  36  37
DOCKED: ENDBRANCH  22  36
DOCKED: BRANCH  12  42
DOCKED: ATOM     42  C   UNL d   1      -0.714  -1.476  -2.158 -0.50 +0.00    +0.004 C 
DOCKED: ATOM     43  C   UNL d   1      -0.174  -2.526  -1.525 -0.58 +0.00    +0.012 C 
DOCKED: ENDBRANCH  12  42
DOCKED: BRANCH  17  44
DOCKED: ATOM     44  C   UNL d   1       5.835  -3.187  -6.386 -0.50 +0.00    +0.004 C 
DOCKED: ATOM     45  C   UNL d   1       6.859  -2.383  -6.082 -0.72 +0.00    +0.012 C 
DOCKED: ENDBRANCH  17  44
DOCKED: TORSDOF 10
DOCKED: TER
DOCKED: ENDMDL
________________________________________________________________________________


	BEGINNING GENETIC ALGORITHM DOCKING 74 of 100
Run: 74 Seed: 1622922273 1888630845 [ Run 74 of 100 GA/GALS ]
Beginning LAMARCKIAN GENETIC ALGORITHM (LGA), with a maximum of 25000000 energy evaluations.

Final-Value: -19.922


	FINAL GENETIC ALGORITHM DOCKED STATE
	_______________________________________________


Detailed state:  trans -0.322 -1.646 -9.087 quatxyzw 0.587955 0.363066 0.456174 0.560711 center -0.174 -0.001 -0.047 ntor 10 24.9528 -103.6426 71.5069 -106.9090 -156.0909 80.4166 -42.0783 -22.4295 -172.6756 16.8975
State:	 -0.322  -1.646  -9.087   0.710  0.438  0.551 111.790     24.95 -103.64   71.51 -106.91 -156.09   80.42  -42.08  -22.43 -172.68   16.90

DOCKED: MODEL       74
DOCKED: USER    Run = 74
DOCKED: USER    DPF = D:/Protein_go_brrr/autodock/final/AncB/heme_Fe/dock.dpf
DOCKED: USER  
DOCKED: USER    Estimated Free Energy of Binding    =  -15.12 kcal/mol  [=(1)+(2)+(3)-(4)]
DOCKED: USER    Estimated Inhibition Constant, Ki   =    8.26 pM (picomolar)  [Temperature = 298.15 K]
DOCKED: USER    
DOCKED: USER    (1) Final Intermolecular Energy     =  -18.10 kcal/mol
DOCKED: USER        vdW + Hbond + desolv Energy     =  -14.36 kcal/mol
DOCKED: USER        Electrostatic Energy            =   -3.74 kcal/mol
DOCKED: USER    (2) Final Total Internal Energy     =   -1.82 kcal/mol
DOCKED: USER    (3) Torsional Free Energy           =   +2.98 kcal/mol
DOCKED: USER    (4) Unbound System's Energy  [=(2)] =   -1.82 kcal/mol
DOCKED: USER    
DOCKED: USER    
DOCKED: USER    NEWDPF move heme_Fe_opt.pdbqt
DOCKED: USER    NEWDPF about -0.174000 -0.001000 -0.047000
DOCKED: USER    NEWDPF tran0 -0.321577 -1.645816 -9.087159
DOCKED: USER    NEWDPF quaternion0 0.587955 0.363066 0.456174 0.560711
DOCKED: USER    NEWDPF axisangle0 0.710081 0.438480 0.550927 111.789977
DOCKED: USER    NEWDPF quat0 0.710081 0.438480 0.550927 111.789977
DOCKED: USER    NEWDPF dihe0 24.95 -103.64 71.51 -106.91 -156.09 80.42 -42.08 -22.43 -172.68 16.90 
DOCKED: USER  keepresnum = 1 
DOCKED: USER  
DOCKED: REMARK  10 active torsions:
DOCKED: REMARK  status: ('A' for Active; 'I' for Inactive)
DOCKED: REMARK    1  A    between atoms: C_6  and  C_10 
DOCKED: REMARK    2  A    between atoms: C_10  and  C_11 
DOCKED: REMARK    3  A    between atoms: C_11  and  C_12 
DOCKED: REMARK    4  A    between atoms: C_12  and  O_14 
DOCKED: REMARK    5  A    between atoms: C_17  and  C_20 
DOCKED: REMARK    6  A    between atoms: C_24  and  C_27 
DOCKED: REMARK    7  A    between atoms: C_31  and  C_34 
DOCKED: REMARK    8  A    between atoms: C_34  and  C_35 
DOCKED: REMARK    9  A    between atoms: C_35  and  C_36 
DOCKED: REMARK   10  A    between atoms: C_36  and  O_38 
DOCKED: USER                              x       y       z     vdW  Elec       q    Type
DOCKED: USER                           _______ _______ _______ _____ _____    ______ ____
DOCKED: ROOT
DOCKED: ATOM      1  C   UNL d   1      -0.942  -0.945 -10.913 -0.28 +0.05    +0.064 C 
DOCKED: ATOM      2  C   UNL d   1      -2.919  -1.088  -6.385 -0.41 +0.02    +0.064 A 
DOCKED: ATOM      3  C   UNL d   1       1.424  -2.093  -4.597 -0.42 +0.01    +0.064 C 
DOCKED: ATOM      4  C   UNL d   1       3.337  -2.063  -8.981 -0.51 +0.02    +0.064 C 
DOCKED: ATOM      5  C   UNL d   1      -1.917  -0.975  -9.814 -0.32 +0.04    +0.066 A 
DOCKED: ATOM      6  C   UNL d   1      -3.287  -0.837  -9.967 -0.29 -0.02    -0.021 A 
DOCKED: ATOM      7  C   UNL d   1      -3.834  -0.873  -8.709 -0.30 -0.01    -0.025 A 
DOCKED: ATOM      8  C   UNL d   1      -2.777  -1.032  -7.835 -0.36 +0.03    +0.066 A 
DOCKED: ATOM      9  C   UNL d   1      -5.292  -0.780  -8.377 -0.31 +0.02    +0.051 C 
DOCKED: ATOM     10  C   UNL d   1      -1.922  -1.298  -5.523 -0.41 +0.02    +0.066 A 
DOCKED: ATOM     11  C   UNL d   1      -2.071  -1.233  -4.136 -0.43 -0.00    -0.021 A 
DOCKED: ATOM     12  C   UNL d   1      -0.829  -1.502  -3.597 -0.41 +0.00    +0.000 A 
DOCKED: ATOM     13  C   UNL d   1       0.024  -1.712  -4.694 -0.38 +0.01    +0.070 A 
DOCKED: ATOM     14  C   UNL d   1      -3.320  -0.863  -3.362 -0.62 +0.01    +0.052 C 
DOCKED: ATOM     15  C   UNL d   1       2.262  -2.245  -5.649 -0.39 +0.01    +0.066 A 
DOCKED: ATOM     16  C   UNL d   1       3.566  -2.707  -5.520 -0.48 -0.00    -0.021 A 
DOCKED: ATOM     17  C   UNL d   1       4.121  -2.696  -6.783 -0.50 +0.00    +0.000 A 
DOCKED: ATOM     18  C   UNL d   1       3.142  -2.222  -7.654 -0.41 +0.02    +0.070 A 
DOCKED: ATOM     19  C   UNL d   1       4.273  -3.119  -4.257 -0.63 +0.01    +0.052 C 
DOCKED: ATOM     20  C   UNL d   1       2.313  -1.626  -9.937 -0.42 +0.03    +0.066 A 
DOCKED: ATOM     21  C   UNL d   1       2.551  -1.265 -11.271 -0.41 -0.01    -0.025 A 
DOCKED: ATOM     22  C   UNL d   1       1.316  -0.963 -11.806 -0.17 -0.01    -0.021 A 
DOCKED: ATOM     23  C   UNL d   1       0.379  -1.143 -10.781 -0.08 +0.04    +0.066 A 
DOCKED: ATOM     24  C   UNL d   1       3.867  -1.202 -12.010 -0.53 +0.01    +0.051 C 
DOCKED: ATOM     25  N   UNL d   1      -1.612  -1.103  -8.510 -0.24 -0.12    -0.248 N 
DOCKED: ATOM     26  N   UNL d   1      -0.640  -1.579  -5.869 -0.25 -0.07    -0.248 N 
DOCKED: ATOM     27  N   UNL d   1       1.985  -1.987  -6.965 -0.18 -0.10    -0.248 N 
DOCKED: ATOM     28  N   UNL d   1       0.998  -1.505  -9.631 -0.21 -0.13    -0.248 N 
DOCKED: ATOM     29 FE   UNL d   1       0.181  -1.542  -7.751 -0.09 +0.00    +0.000 Fe
DOCKED: ENDROOT
DOCKED: BRANCH   6  30
DOCKED: ATOM     30  C   UNL d   1      -4.042  -0.700 -11.245 -0.22 +0.07    +0.052 C 
DOCKED: BRANCH  30  31
DOCKED: ATOM     31  C   UNL d   1      -4.043   0.749 -11.718 -0.21 +0.13    +0.115 C 
DOCKED: BRANCH  31  32
DOCKED: ATOM     32  C   UNL d   1      -3.817   0.818 -13.203 -0.17 +0.22    +0.139 C 
DOCKED: ATOM     33  O   UNL d   1      -3.359   1.829 -13.718 -0.41 -1.24    -0.650 OA
DOCKED: BRANCH  32  34
DOCKED: ATOM     34  O   UNL d   1      -4.118  -0.235 -13.981 +0.22 -1.73    -0.776 OA
DOCKED: ATOM     35  H   UNL d   1      -3.659  -0.341 -14.826 +0.02 +0.40    +0.167 HD
DOCKED: ENDBRANCH  32  34
DOCKED: ENDBRANCH  31  32
DOCKED: ENDBRANCH  30  31
DOCKED: ENDBRANCH   6  30
DOCKED: BRANCH  22  36
DOCKED: ATOM     36  C   UNL d   1       1.059  -0.480 -13.209 -0.26 +0.03    +0.052 C 
DOCKED: BRANCH  36  37
DOCKED: ATOM     37  C   UNL d   1       0.270  -1.530 -13.977 -0.20 +0.11    +0.115 C 
DOCKED: BRANCH  37  38
DOCKED: ATOM     38  C   UNL d   1      -0.476  -0.910 -15.125 -0.14 +0.16    +0.139 C 
DOCKED: ATOM     39  O   UNL d   1       0.093  -0.656 -16.176 +0.02 -0.50    -0.650 OA
DOCKED: BRANCH  38  40
DOCKED: ATOM     40  O   UNL d   1      -1.785  -0.627 -14.999 -0.43 -1.55    -0.776 OA
DOCKED: ATOM     41  H   UNL d   1      -2.051   0.148 -14.485 +0.03 +0.28    +0.167 HD
DOCKED: ENDBRANCH  38  40
DOCKED: ENDBRANCH  37  38
DOCKED: ENDBRANCH  36  37
DOCKED: ENDBRANCH  22  36
DOCKED: BRANCH  12  42
DOCKED: ATOM     42  C   UNL d   1      -0.518  -1.528  -2.134 -0.51 +0.00    +0.004 C 
DOCKED: ATOM     43  C   UNL d   1      -0.062  -2.642  -1.546 -0.59 +0.00    +0.012 C 
DOCKED: ENDBRANCH  12  42
DOCKED: BRANCH  17  44
DOCKED: ATOM     44  C   UNL d   1       5.491  -3.129  -7.137 -0.44 +0.00    +0.004 C 
DOCKED: ATOM     45  C   UNL d   1       6.554  -2.629  -6.497 -0.64 +0.00    +0.012 C 
DOCKED: ENDBRANCH  17  44
DOCKED: TORSDOF 10
DOCKED: TER
DOCKED: ENDMDL
________________________________________________________________________________


	BEGINNING GENETIC ALGORITHM DOCKING 75 of 100
Run: 75 Seed: 1510772410 1204280449 [ Run 75 of 100 GA/GALS ]
Beginning LAMARCKIAN GENETIC ALGORITHM (LGA), with a maximum of 25000000 energy evaluations.

Final-Value: -14.044


	FINAL GENETIC ALGORITHM DOCKED STATE
	_______________________________________________


Detailed state:  trans -5.787 -11.281 11.924 quatxyzw 0.606827 0.014281 0.459670 -0.648275 center -0.174 -0.001 -0.047 ntor 10 -122.2452 166.3755 42.7419 50.5697 -77.0823 -167.5033 -21.4483 3.1938 -171.0904 160.1498
State:	 -5.787 -11.281  11.924   0.797  0.019  0.604 -99.177   -122.25  166.38   42.74   50.57  -77.08 -167.50  -21.45    3.19 -171.09  160.15

DOCKED: MODEL       75
DOCKED: USER    Run = 75
DOCKED: USER    DPF = D:/Protein_go_brrr/autodock/final/AncB/heme_Fe/dock.dpf
DOCKED: USER  
DOCKED: USER    Estimated Free Energy of Binding    =  -10.74 kcal/mol  [=(1)+(2)+(3)-(4)]
DOCKED: USER    Estimated Inhibition Constant, Ki   =   13.36 nM (nanomolar)  [Temperature = 298.15 K]
DOCKED: USER    
DOCKED: USER    (1) Final Intermolecular Energy     =  -13.73 kcal/mol
DOCKED: USER        vdW + Hbond + desolv Energy     =   -9.28 kcal/mol
DOCKED: USER        Electrostatic Energy            =   -4.44 kcal/mol
DOCKED: USER    (2) Final Total Internal Energy     =   -0.32 kcal/mol
DOCKED: USER    (3) Torsional Free Energy           =   +2.98 kcal/mol
DOCKED: USER    (4) Unbound System's Energy  [=(2)] =   -0.32 kcal/mol
DOCKED: USER    
DOCKED: USER    
DOCKED: USER    NEWDPF move heme_Fe_opt.pdbqt
DOCKED: USER    NEWDPF about -0.174000 -0.001000 -0.047000
DOCKED: USER    NEWDPF tran0 -5.787236 -11.280958 11.923887
DOCKED: USER    NEWDPF quaternion0 0.606827 0.014281 0.459670 -0.648275
DOCKED: USER    NEWDPF axisangle0 0.796982 0.018756 0.603712 -99.176670
DOCKED: USER    NEWDPF quat0 0.796982 0.018756 0.603712 -99.176670
DOCKED: USER    NEWDPF dihe0 -122.25 166.38 42.74 50.57 -77.08 -167.50 -21.45 3.19 -171.09 160.15 
DOCKED: USER  keepresnum = 1 
DOCKED: USER  
DOCKED: REMARK  10 active torsions:
DOCKED: REMARK  status: ('A' for Active; 'I' for Inactive)
DOCKED: REMARK    1  A    between atoms: C_6  and  C_10 
DOCKED: REMARK    2  A    between atoms: C_10  and  C_11 
DOCKED: REMARK    3  A    between atoms: C_11  and  C_12 
DOCKED: REMARK    4  A    between atoms: C_12  and  O_14 
DOCKED: REMARK    5  A    between atoms: C_17  and  C_20 
DOCKED: REMARK    6  A    between atoms: C_24  and  C_27 
DOCKED: REMARK    7  A    between atoms: C_31  and  C_34 
DOCKED: REMARK    8  A    between atoms: C_34  and  C_35 
DOCKED: REMARK    9  A    between atoms: C_35  and  C_36 
DOCKED: REMARK   10  A    between atoms: C_36  and  O_38 
DOCKED: USER                              x       y       z     vdW  Elec       q    Type
DOCKED: USER                           _______ _______ _______ _____ _____    ______ ____
DOCKED: ROOT
DOCKED: ATOM      1  C   UNL d   1      -6.589 -12.898  10.948 -0.28 +0.04    +0.064 C 
DOCKED: ATOM      2  C   UNL d   1      -2.670  -9.979  10.207 -0.28 +0.02    +0.064 A 
DOCKED: ATOM      3  C   UNL d   1      -3.130  -8.338  14.698 -0.18 +0.01    +0.064 C 
DOCKED: ATOM      4  C   UNL d   1      -6.989 -11.077  15.401 -0.20 +0.04    +0.064 C 
DOCKED: ATOM      5  C   UNL d   1      -5.494 -12.167  10.295 -0.23 +0.03    +0.066 A 
DOCKED: ATOM      6  C   UNL d   1      -5.142 -12.296   8.962 -0.25 -0.01    -0.021 A 
DOCKED: ATOM      7  C   UNL d   1      -4.051 -11.488   8.758 -0.23 -0.01    -0.025 A 
DOCKED: ATOM      8  C   UNL d   1      -3.780 -10.896   9.976 -0.23 +0.02    +0.066 A 
DOCKED: ATOM      9  C   UNL d   1      -3.331 -11.288   7.460 -0.35 +0.02    +0.051 C 
DOCKED: ATOM     10  C   UNL d   1      -2.420  -9.350  11.357 -0.24 +0.02    +0.066 A 
DOCKED: ATOM     11  C   UNL d   1      -1.285  -8.568  11.581 -0.26 -0.00    -0.021 A 
DOCKED: ATOM     12  C   UNL d   1      -1.385  -8.097  12.875 -0.23 +0.00    +0.000 A 
DOCKED: ATOM     13  C   UNL d   1      -2.584  -8.628  13.381 -0.12 +0.02    +0.070 A 
DOCKED: ATOM     14  C   UNL d   1      -0.126  -8.336  10.633 -0.10 +0.01    +0.052 C 
DOCKED: ATOM     15  C   UNL d   1      -4.257  -8.888  15.208 -0.13 +0.03    +0.066 A 
DOCKED: ATOM     16  C   UNL d   1      -4.799  -8.511  16.430 -0.16 -0.00    -0.021 A 
DOCKED: ATOM     17  C   UNL d   1      -5.910  -9.302  16.637 -0.14 +0.00    +0.000 A 
DOCKED: ATOM     18  C   UNL d   1      -6.018 -10.148  15.536 -0.11 +0.05    +0.070 A 
DOCKED: ATOM     19  C   UNL d   1      -4.280  -7.465  17.381 -0.12 -0.00    +0.052 C 
DOCKED: ATOM     20  C   UNL d   1      -7.169 -11.943  14.229 -0.24 +0.04    +0.066 A 
DOCKED: ATOM     21  C   UNL d   1      -8.040 -13.039  14.159 -0.26 -0.01    -0.025 A 
DOCKED: ATOM     22  C   UNL d   1      -7.920 -13.536  12.877 -0.32 -0.01    -0.021 A 
DOCKED: ATOM     23  C   UNL d   1      -6.980 -12.731  12.221 -0.31 +0.04    +0.066 A 
DOCKED: ATOM     24  C   UNL d   1      -8.939 -13.601  15.236 -0.18 +0.02    +0.051 C 
DOCKED: ATOM     25  N   UNL d   1      -4.665 -11.304  10.907 -0.14 -0.11    -0.248 N 
DOCKED: ATOM     26  N   UNL d   1      -3.211  -9.399  12.459 -0.10 -0.09    -0.248 N 
DOCKED: ATOM     27  N   UNL d   1      -5.028  -9.865  14.637 -0.08 -0.16    -0.248 N 
DOCKED: ATOM     28  N   UNL d   1      -6.493 -11.788  13.065 -0.18 -0.15    -0.248 N 
DOCKED: ATOM     29 FE   UNL d   1      -4.853 -10.594  12.764 -0.05 +0.00    +0.000 Fe
DOCKED: ENDROOT
DOCKED: BRANCH   6  30
DOCKED: ATOM     30  C   UNL d   1      -5.819 -13.128   7.927 -0.31 +0.04    +0.052 C 
DOCKED: BRANCH  30  31
DOCKED: ATOM     31  C   UNL d   1      -5.360 -14.580   8.015 -0.16 +0.10    +0.115 C 
DOCKED: BRANCH  31  32
DOCKED: ATOM     32  C   UNL d   1      -6.370 -15.490   7.373 -0.21 +0.23    +0.139 C 
DOCKED: ATOM     33  O   UNL d   1      -7.406 -15.781   7.955 -0.40 -1.70    -0.650 OA
DOCKED: BRANCH  32  34
DOCKED: ATOM     34  O   UNL d   1      -6.141 -15.995   6.149 -0.39 -1.99    -0.776 OA
DOCKED: ATOM     35  H   UNL d   1      -5.342 -16.519   5.999 +0.03 +0.29    +0.167 HD
DOCKED: ENDBRANCH  32  34
DOCKED: ENDBRANCH  31  32
DOCKED: ENDBRANCH  30  31
DOCKED: ENDBRANCH   6  30
DOCKED: BRANCH  22  36
DOCKED: ATOM     36  C   UNL d   1      -8.632 -14.745  12.332 +0.21 +0.02    +0.052 C 
DOCKED: BRANCH  36  37
DOCKED: ATOM     37  C   UNL d   1      -7.673 -15.926  12.281 -0.17 +0.06    +0.115 C 
DOCKED: BRANCH  37  38
DOCKED: ATOM     38  C   UNL d   1      -8.338 -17.135  11.687 -0.16 +0.11    +0.139 C 
DOCKED: ATOM     39  O   UNL d   1      -7.816 -18.237  11.765 +0.02 -0.43    -0.650 OA
DOCKED: BRANCH  38  40
DOCKED: ATOM     40  O   UNL d   1      -9.520 -17.009  11.057 -0.47 -1.20    -0.776 OA
DOCKED: ATOM     41  H   UNL d   1     -10.026 -16.192  11.166 -0.56 +0.19    +0.167 HD
DOCKED: ENDBRANCH  38  40
DOCKED: ENDBRANCH  37  38
DOCKED: ENDBRANCH  36  37
DOCKED: ENDBRANCH  22  36
DOCKED: BRANCH  12  42
DOCKED: ATOM     42  C   UNL d   1      -0.377  -7.220  13.547 -0.23 +0.00    +0.004 C 
DOCKED: ATOM     43  C   UNL d   1      -0.473  -5.886  13.486 -0.40 +0.00    +0.012 C 
DOCKED: ENDBRANCH  12  42
DOCKED: BRANCH  17  44
DOCKED: ATOM     44  C   UNL d   1      -6.821  -9.238  17.802 -0.14 +0.00    +0.004 C 
DOCKED: ATOM     45  C   UNL d   1      -8.029  -8.673  17.697 -0.23 +0.00    +0.012 C 
DOCKED: ENDBRANCH  17  44
DOCKED: TORSDOF 10
DOCKED: TER
DOCKED: ENDMDL
________________________________________________________________________________


	BEGINNING GENETIC ALGORITHM DOCKING 76 of 100
Run: 76 Seed: 700731461 137174124 [ Run 76 of 100 GA/GALS ]
Beginning LAMARCKIAN GENETIC ALGORITHM (LGA), with a maximum of 25000000 energy evaluations.

Final-Value: -19.325


	FINAL GENETIC ALGORITHM DOCKED STATE
	_______________________________________________


Detailed state:  trans -0.409 -0.946 -9.010 quatxyzw 0.622287 -0.453174 0.273687 -0.576617 center -0.174 -0.001 -0.047 ntor 10 -148.7910 -11.3911 67.7363 -135.1385 107.7643 -110.9201 -10.3916 -71.8943 -172.5165 9.3948
State:	 -0.409  -0.946  -9.010   0.762 -0.555  0.335 -109.574   -148.79  -11.39   67.74 -135.14  107.76 -110.92  -10.39  -71.89 -172.52    9.39

DOCKED: MODEL       76
DOCKED: USER    Run = 76
DOCKED: USER    DPF = D:/Protein_go_brrr/autodock/final/AncB/heme_Fe/dock.dpf
DOCKED: USER  
DOCKED: USER    Estimated Free Energy of Binding    =  -14.16 kcal/mol  [=(1)+(2)+(3)-(4)]
DOCKED: USER    Estimated Inhibition Constant, Ki   =   41.44 pM (picomolar)  [Temperature = 298.15 K]
DOCKED: USER    
DOCKED: USER    (1) Final Intermolecular Energy     =  -17.15 kcal/mol
DOCKED: USER        vdW + Hbond + desolv Energy     =  -13.80 kcal/mol
DOCKED: USER        Electrostatic Energy            =   -3.35 kcal/mol
DOCKED: USER    (2) Final Total Internal Energy     =   -2.18 kcal/mol
DOCKED: USER    (3) Torsional Free Energy           =   +2.98 kcal/mol
DOCKED: USER    (4) Unbound System's Energy  [=(2)] =   -2.18 kcal/mol
DOCKED: USER    
DOCKED: USER    
DOCKED: USER    NEWDPF move heme_Fe_opt.pdbqt
DOCKED: USER    NEWDPF about -0.174000 -0.001000 -0.047000
DOCKED: USER    NEWDPF tran0 -0.408875 -0.945846 -9.009647
DOCKED: USER    NEWDPF quaternion0 0.622287 -0.453174 0.273687 -0.576617
DOCKED: USER    NEWDPF axisangle0 0.761660 -0.554671 0.334984 -109.574078
DOCKED: USER    NEWDPF quat0 0.761660 -0.554671 0.334984 -109.574078
DOCKED: USER    NEWDPF dihe0 -148.79 -11.39 67.74 -135.14 107.76 -110.92 -10.39 -71.89 -172.52 9.39 
DOCKED: USER  keepresnum = 1 
DOCKED: USER  
DOCKED: REMARK  10 active torsions:
DOCKED: REMARK  status: ('A' for Active; 'I' for Inactive)
DOCKED: REMARK    1  A    between atoms: C_6  and  C_10 
DOCKED: REMARK    2  A    between atoms: C_10  and  C_11 
DOCKED: REMARK    3  A    between atoms: C_11  and  C_12 
DOCKED: REMARK    4  A    between atoms: C_12  and  O_14 
DOCKED: REMARK    5  A    between atoms: C_17  and  C_20 
DOCKED: REMARK    6  A    between atoms: C_24  and  C_27 
DOCKED: REMARK    7  A    between atoms: C_31  and  C_34 
DOCKED: REMARK    8  A    between atoms: C_34  and  C_35 
DOCKED: REMARK    9  A    between atoms: C_35  and  C_36 
DOCKED: REMARK   10  A    between atoms: C_36  and  O_38 
DOCKED: USER                              x       y       z     vdW  Elec       q    Type
DOCKED: USER                           _______ _______ _______ _____ _____    ______ ____
DOCKED: ROOT
DOCKED: ATOM      1  C   UNL d   1      -1.324  -0.972 -10.846 -0.34 +0.05    +0.064 C 
DOCKED: ATOM      2  C   UNL d   1       3.241  -1.943  -9.219 -0.45 +0.02    +0.064 A 
DOCKED: ATOM      3  C   UNL d   1       1.531  -2.116  -4.734 -0.43 +0.01    +0.064 C 
DOCKED: ATOM      4  C   UNL d   1      -2.876  -1.073  -6.276 -0.48 +0.02    +0.064 C 
DOCKED: ATOM      5  C   UNL d   1       0.134  -1.147 -10.795 -0.13 +0.04    +0.066 A 
DOCKED: ATOM      6  C   UNL d   1       0.981  -1.047 -11.887 -0.21 -0.01    -0.021 A 
DOCKED: ATOM      7  C   UNL d   1       2.248  -1.321 -11.435 -0.36 -0.01    -0.025 A 
DOCKED: ATOM      8  C   UNL d   1       2.125  -1.577 -10.083 -0.40 +0.03    +0.066 A 
DOCKED: ATOM      9  C   UNL d   1       3.499  -1.315 -12.258 -0.49 +0.01    +0.051 C 
DOCKED: ATOM     10  C   UNL d   1       3.160  -2.139  -7.902 -0.42 +0.02    +0.066 A 
DOCKED: ATOM     11  C   UNL d   1       4.221  -2.601  -7.120 -0.49 -0.01    -0.021 A 
DOCKED: ATOM     12  C   UNL d   1       3.749  -2.676  -5.825 -0.49 +0.00    +0.000 A 
DOCKED: ATOM     13  C   UNL d   1       2.408  -2.259  -5.885 -0.39 +0.02    +0.070 A 
DOCKED: ATOM     14  C   UNL d   1       5.599  -3.017  -7.595 -0.39 +0.01    +0.052 C 
DOCKED: ATOM     15  C   UNL d   1       0.224  -1.765  -4.793 -0.39 +0.01    +0.066 A 
DOCKED: ATOM     16  C   UNL d   1      -0.553  -1.542  -3.663 -0.39 -0.00    -0.021 A 
DOCKED: ATOM     17  C   UNL d   1      -1.825  -1.245  -4.106 -0.41 +0.00    +0.000 A 
DOCKED: ATOM     18  C   UNL d   1      -1.795  -1.297  -5.497 -0.40 +0.02    +0.070 A 
DOCKED: ATOM     19  C   UNL d   1      -0.126  -1.630  -2.223 -0.44 +0.01    +0.052 C 
DOCKED: ATOM     20  C   UNL d   1      -2.868  -1.059  -7.744 -0.36 +0.03    +0.066 A 
DOCKED: ATOM     21  C   UNL d   1      -4.008  -1.027  -8.560 -0.26 -0.01    -0.025 A 
DOCKED: ATOM     22  C   UNL d   1      -3.542  -0.986  -9.858 -0.28 -0.02    -0.021 A 
DOCKED: ATOM     23  C   UNL d   1      -2.144  -1.001  -9.783 -0.32 +0.04    +0.066 A 
DOCKED: ATOM     24  C   UNL d   1      -5.462  -1.039  -8.149 -0.24 +0.02    +0.051 C 
DOCKED: ATOM     25  N   UNL d   1       0.840  -1.461  -9.695 -0.20 -0.14    -0.248 N 
DOCKED: ATOM     26  N   UNL d   1       2.045  -1.941  -7.152 -0.16 -0.10    -0.248 N 
DOCKED: ATOM     27  N   UNL d   1      -0.526  -1.574  -5.922 -0.25 -0.07    -0.248 N 
DOCKED: ATOM     28  N   UNL d   1      -1.739  -1.090  -8.493 -0.24 -0.12    -0.248 N 
DOCKED: ATOM     29 FE   UNL d   1       0.151  -1.515  -7.822 -0.09 +0.00    +0.000 Fe
DOCKED: ENDROOT
DOCKED: BRANCH   6  30
DOCKED: ATOM     30  C   UNL d   1       0.610  -0.690 -13.286 -0.26 +0.04    +0.052 C 
DOCKED: BRANCH  30  31
DOCKED: ATOM     31  C   UNL d   1       0.101  -1.913 -14.039 -0.13 +0.12    +0.115 C 
DOCKED: BRANCH  31  32
DOCKED: ATOM     32  C   UNL d   1      -0.504  -1.507 -15.355 -0.14 +0.17    +0.139 C 
DOCKED: ATOM     33  O   UNL d   1       0.074  -1.744 -16.406 -0.01 -0.51    -0.650 OA
DOCKED: BRANCH  32  34
DOCKED: ATOM     34  O   UNL d   1      -1.690  -0.875 -15.386 -0.49 -1.47    -0.776 OA
DOCKED: ATOM     35  H   UNL d   1      -1.933  -0.297 -14.650 +0.03 +0.32    +0.167 HD
DOCKED: ENDBRANCH  32  34
DOCKED: ENDBRANCH  31  32
DOCKED: ENDBRANCH  30  31
DOCKED: ENDBRANCH   6  30
DOCKED: BRANCH  22  36
DOCKED: ATOM     36  C   UNL d   1      -4.395  -0.983 -11.099 -0.22 +0.06    +0.052 C 
DOCKED: BRANCH  36  37
DOCKED: ATOM     37  C   UNL d   1      -4.388   0.405 -11.723 -0.19 +0.13    +0.115 C 
DOCKED: BRANCH  37  38
DOCKED: ATOM     38  C   UNL d   1      -3.569   0.424 -12.983 -0.15 +0.23    +0.139 C 
DOCKED: ATOM     39  O   UNL d   1      -2.507   1.028 -13.029 -0.03 -0.92    -0.650 OA
DOCKED: BRANCH  38  40
DOCKED: ATOM     40  O   UNL d   1      -4.004  -0.226 -14.077 +0.24 -1.76    -0.776 OA
DOCKED: ATOM     41  H   UNL d   1      -3.563  -0.070 -14.923 +0.02 +0.35    +0.167 HD
DOCKED: ENDBRANCH  38  40
DOCKED: ENDBRANCH  37  38
DOCKED: ENDBRANCH  36  37
DOCKED: ENDBRANCH  22  36
DOCKED: BRANCH  12  42
DOCKED: ATOM     42  C   UNL d   1       4.549  -3.135  -4.647 -0.68 +0.00    +0.004 C 
DOCKED: ATOM     43  C   UNL d   1       4.835  -2.300  -3.640 -0.58 +0.00    +0.012 C 
DOCKED: ENDBRANCH  12  42
DOCKED: BRANCH  17  44
DOCKED: ATOM     44  C   UNL d   1      -2.989  -0.911  -3.253 -0.61 +0.00    +0.004 C 
DOCKED: ATOM     45  C   UNL d   1      -3.705  -1.875  -2.665 -0.66 +0.00    +0.012 C 
DOCKED: ENDBRANCH  17  44
DOCKED: TORSDOF 10
DOCKED: TER
DOCKED: ENDMDL
________________________________________________________________________________


	BEGINNING GENETIC ALGORITHM DOCKING 77 of 100
Run: 77 Seed: 1201025663 641981737 [ Run 77 of 100 GA/GALS ]
Beginning LAMARCKIAN GENETIC ALGORITHM (LGA), with a maximum of 25000000 energy evaluations.

Final-Value: -14.302


	FINAL GENETIC ALGORITHM DOCKED STATE
	_______________________________________________


Detailed state:  trans -5.733 -11.128 12.029 quatxyzw -0.607438 -0.015520 -0.449949 0.654464 center -0.174 -0.001 -0.047 ntor 10 125.2764 179.9322 44.4223 49.2414 104.0870 -133.5199 -23.1483 24.4119 -178.6738 179.8627
State:	 -5.733 -11.128  12.029  -0.803 -0.021 -0.595 98.242    125.28  179.93   44.42   49.24  104.09 -133.52  -23.15   24.41 -178.67  179.86

DOCKED: MODEL       77
DOCKED: USER    Run = 77
DOCKED: USER    DPF = D:/Protein_go_brrr/autodock/final/AncB/heme_Fe/dock.dpf
DOCKED: USER  
DOCKED: USER    Estimated Free Energy of Binding    =   -9.84 kcal/mol  [=(1)+(2)+(3)-(4)]
DOCKED: USER    Estimated Inhibition Constant, Ki   =   60.94 nM (nanomolar)  [Temperature = 298.15 K]
DOCKED: USER    
DOCKED: USER    (1) Final Intermolecular Energy     =  -12.83 kcal/mol
DOCKED: USER        vdW + Hbond + desolv Energy     =   -8.74 kcal/mol
DOCKED: USER        Electrostatic Energy            =   -4.09 kcal/mol
DOCKED: USER    (2) Final Total Internal Energy     =   -1.48 kcal/mol
DOCKED: USER    (3) Torsional Free Energy           =   +2.98 kcal/mol
DOCKED: USER    (4) Unbound System's Energy  [=(2)] =   -1.48 kcal/mol
DOCKED: USER    
DOCKED: USER    
DOCKED: USER    NEWDPF move heme_Fe_opt.pdbqt
DOCKED: USER    NEWDPF about -0.174000 -0.001000 -0.047000
DOCKED: USER    NEWDPF tran0 -5.733033 -11.127786 12.028808
DOCKED: USER    NEWDPF quaternion0 -0.607438 -0.015520 -0.449949 0.654464
DOCKED: USER    NEWDPF axisangle0 -0.803391 -0.020527 -0.595098 98.241956
DOCKED: USER    NEWDPF quat0 -0.803391 -0.020527 -0.595098 98.241956
DOCKED: USER    NEWDPF dihe0 125.28 179.93 44.42 49.24 104.09 -133.52 -23.15 24.41 -178.67 179.86 
DOCKED: USER  keepresnum = 1 
DOCKED: USER  
DOCKED: REMARK  10 active torsions:
DOCKED: REMARK  status: ('A' for Active; 'I' for Inactive)
DOCKED: REMARK    1  A    between atoms: C_6  and  C_10 
DOCKED: REMARK    2  A    between atoms: C_10  and  C_11 
DOCKED: REMARK    3  A    between atoms: C_11  and  C_12 
DOCKED: REMARK    4  A    between atoms: C_12  and  O_14 
DOCKED: REMARK    5  A    between atoms: C_17  and  C_20 
DOCKED: REMARK    6  A    between atoms: C_24  and  C_27 
DOCKED: REMARK    7  A    between atoms: C_31  and  C_34 
DOCKED: REMARK    8  A    between atoms: C_34  and  C_35 
DOCKED: REMARK    9  A    between atoms: C_35  and  C_36 
DOCKED: REMARK   10  A    between atoms: C_36  and  O_38 
DOCKED: USER                              x       y       z     vdW  Elec       q    Type
DOCKED: USER                           _______ _______ _______ _____ _____    ______ ____
DOCKED: ROOT
DOCKED: ATOM      1  C   UNL d   1      -6.576 -12.739  11.078 -0.29 +0.04    +0.064 C 
DOCKED: ATOM      2  C   UNL d   1      -2.619  -9.893  10.259 -0.28 +0.02    +0.064 A 
DOCKED: ATOM      3  C   UNL d   1      -2.989  -8.208  14.741 -0.18 +0.01    +0.064 C 
DOCKED: ATOM      4  C   UNL d   1      -6.882 -10.876  15.520 -0.19 +0.04    +0.064 C 
DOCKED: ATOM      5  C   UNL d   1      -5.478 -12.032  10.404 -0.23 +0.03    +0.066 A 
DOCKED: ATOM      6  C   UNL d   1      -5.146 -12.178   9.067 -0.25 -0.01    -0.021 A 
DOCKED: ATOM      7  C   UNL d   1      -4.045 -11.390   8.841 -0.23 -0.01    -0.025 A 
DOCKED: ATOM      8  C   UNL d   1      -3.746 -10.792  10.051 -0.24 +0.02    +0.066 A 
DOCKED: ATOM      9  C   UNL d   1      -3.339 -11.212   7.532 -0.32 +0.02    +0.051 C 
DOCKED: ATOM     10  C   UNL d   1      -2.342  -9.259  11.400 -0.24 +0.02    +0.066 A 
DOCKED: ATOM     11  C   UNL d   1      -1.191  -8.494  11.602 -0.26 -0.00    -0.021 A 
DOCKED: ATOM     12  C   UNL d   1      -1.265  -8.011  12.893 -0.23 +0.00    +0.000 A 
DOCKED: ATOM     13  C   UNL d   1      -2.466  -8.518  13.420 -0.15 +0.02    +0.070 A 
DOCKED: ATOM     14  C   UNL d   1      -0.042  -8.289  10.636 -0.10 +0.01    +0.052 C 
DOCKED: ATOM     15  C   UNL d   1      -4.117  -8.735  15.272 -0.14 +0.02    +0.066 A 
DOCKED: ATOM     16  C   UNL d   1      -4.636  -8.338  16.498 -0.16 -0.00    -0.021 A 
DOCKED: ATOM     17  C   UNL d   1      -5.757  -9.109  16.726 -0.15 +0.00    +0.000 A 
DOCKED: ATOM     18  C   UNL d   1      -5.894  -9.962  15.634 -0.08 +0.05    +0.070 A 
DOCKED: ATOM     19  C   UNL d   1      -4.087  -7.294  17.433 -0.11 -0.00    +0.052 C 
DOCKED: ATOM     20  C   UNL d   1      -7.094 -11.748  14.358 -0.24 +0.04    +0.066 A 
DOCKED: ATOM     21  C   UNL d   1      -7.984 -12.830  14.309 -0.26 -0.01    -0.025 A 
DOCKED: ATOM     22  C   UNL d   1      -7.889 -13.338  13.030 -0.33 -0.01    -0.021 A 
DOCKED: ATOM     23  C   UNL d   1      -6.946 -12.555  12.355 -0.31 +0.04    +0.066 A 
DOCKED: ATOM     24  C   UNL d   1      -8.877 -13.368  15.403 -0.19 +0.02    +0.051 C 
DOCKED: ATOM     25  N   UNL d   1      -4.626 -11.178  10.997 -0.15 -0.11    -0.248 N 
DOCKED: ATOM     26  N   UNL d   1      -3.119  -9.286  12.513 -0.10 -0.08    -0.248 N 
DOCKED: ATOM     27  N   UNL d   1      -4.912  -9.703  14.719 -0.10 -0.16    -0.248 N 
DOCKED: ATOM     28  N   UNL d   1      -6.431 -11.614  13.184 -0.18 -0.15    -0.248 N 
DOCKED: ATOM     29 FE   UNL d   1      -4.776 -10.450  12.850 -0.05 +0.00    +0.000 Fe
DOCKED: ENDROOT
DOCKED: BRANCH   6  30
DOCKED: ATOM     30  C   UNL d   1      -5.851 -13.006   8.048 -0.32 +0.04    +0.052 C 
DOCKED: BRANCH  30  31
DOCKED: ATOM     31  C   UNL d   1      -5.283 -14.421   8.015 -0.15 +0.10    +0.115 C 
DOCKED: BRANCH  31  32
DOCKED: ATOM     32  C   UNL d   1      -6.293 -15.380   7.449 -0.21 +0.22    +0.139 C 
DOCKED: ATOM     33  O   UNL d   1      -6.181 -15.801   6.306 -0.45 -1.58    -0.650 OA
DOCKED: BRANCH  32  34
DOCKED: ATOM     34  O   UNL d   1      -7.333 -15.785   8.198 -0.33 -1.92    -0.776 OA
DOCKED: ATOM     35  H   UNL d   1      -7.161 -16.183   9.063 +0.01 +0.32    +0.167 HD
DOCKED: ENDBRANCH  32  34
DOCKED: ENDBRANCH  31  32
DOCKED: ENDBRANCH  30  31
DOCKED: ENDBRANCH   6  30
DOCKED: BRANCH  22  36
DOCKED: ATOM     36  C   UNL d   1      -8.629 -14.540  12.504 +0.06 +0.02    +0.052 C 
DOCKED: BRANCH  36  37
DOCKED: ATOM     37  C   UNL d   1      -7.887 -15.810  12.894 -0.16 +0.05    +0.115 C 
DOCKED: BRANCH  37  38
DOCKED: ATOM     38  C   UNL d   1      -8.224 -16.939  11.961 -0.16 +0.10    +0.139 C 
DOCKED: ATOM     39  O   UNL d   1      -8.503 -18.047  12.395 +0.01 -0.38    -0.650 OA
DOCKED: BRANCH  38  40
DOCKED: ATOM     40  O   UNL d   1      -8.217 -16.735  10.631 -0.00 -1.09    -0.776 OA
DOCKED: ATOM     41  H   UNL d   1      -7.998 -15.857  10.292 -0.31 +0.20    +0.167 HD
DOCKED: ENDBRANCH  38  40
DOCKED: ENDBRANCH  37  38
DOCKED: ENDBRANCH  36  37
DOCKED: ENDBRANCH  22  36
DOCKED: BRANCH  12  42
DOCKED: ATOM     42  C   UNL d   1      -0.233  -7.146  13.544 -0.23 +0.00    +0.004 C 
DOCKED: ATOM     43  C   UNL d   1      -0.326  -5.810  13.501 -0.40 -0.00    +0.012 C 
DOCKED: ENDBRANCH  12  42
DOCKED: BRANCH  17  44
DOCKED: ATOM     44  C   UNL d   1      -6.651  -9.020  17.903 -0.13 +0.00    +0.004 C 
DOCKED: ATOM     45  C   UNL d   1      -7.839  -8.413  17.817 -0.22 -0.00    +0.012 C 
DOCKED: ENDBRANCH  17  44
DOCKED: TORSDOF 10
DOCKED: TER
DOCKED: ENDMDL
________________________________________________________________________________


	BEGINNING GENETIC ALGORITHM DOCKING 78 of 100
Run: 78 Seed: 1068099345 903395307 [ Run 78 of 100 GA/GALS ]
Beginning LAMARCKIAN GENETIC ALGORITHM (LGA), with a maximum of 25000000 energy evaluations.

Final-Value: -14.631


	FINAL GENETIC ALGORITHM DOCKED STATE
	_______________________________________________


Detailed state:  trans -5.757 -11.366 12.124 quatxyzw -0.588492 -0.024375 -0.495824 0.638155 center -0.174 -0.001 -0.047 ntor 10 -180.0000 -91.0106 40.5014 53.7744 20.5326 160.5169 -14.3585 40.9122 -140.9051 165.3887
State:	 -5.757 -11.366  12.124  -0.764 -0.032 -0.644 100.691   -180.00  -91.01   40.50   53.77   20.53  160.52  -14.36   40.91 -140.91  165.39

DOCKED: MODEL       78
DOCKED: USER    Run = 78
DOCKED: USER    DPF = D:/Protein_go_brrr/autodock/final/AncB/heme_Fe/dock.dpf
DOCKED: USER  
DOCKED: USER    Estimated Free Energy of Binding    =   -9.63 kcal/mol  [=(1)+(2)+(3)-(4)]
DOCKED: USER    Estimated Inhibition Constant, Ki   =   88.01 nM (nanomolar)  [Temperature = 298.15 K]
DOCKED: USER    
DOCKED: USER    (1) Final Intermolecular Energy     =  -12.61 kcal/mol
DOCKED: USER        vdW + Hbond + desolv Energy     =   -8.83 kcal/mol
DOCKED: USER        Electrostatic Energy            =   -3.78 kcal/mol
DOCKED: USER    (2) Final Total Internal Energy     =   -2.02 kcal/mol
DOCKED: USER    (3) Torsional Free Energy           =   +2.98 kcal/mol
DOCKED: USER    (4) Unbound System's Energy  [=(2)] =   -2.02 kcal/mol
DOCKED: USER    
DOCKED: USER    
DOCKED: USER    NEWDPF move heme_Fe_opt.pdbqt
DOCKED: USER    NEWDPF about -0.174000 -0.001000 -0.047000
DOCKED: USER    NEWDPF tran0 -5.757120 -11.366152 12.123549
DOCKED: USER    NEWDPF quaternion0 -0.588492 -0.024375 -0.495824 0.638155
DOCKED: USER    NEWDPF axisangle0 -0.764367 -0.031659 -0.644004 100.691177
DOCKED: USER    NEWDPF quat0 -0.764367 -0.031659 -0.644004 100.691177
DOCKED: USER    NEWDPF dihe0 -180.00 -91.01 40.50 53.77 20.53 160.52 -14.36 40.91 -140.91 165.39 
DOCKED: USER  keepresnum = 1 
DOCKED: USER  
DOCKED: REMARK  10 active torsions:
DOCKED: REMARK  status: ('A' for Active; 'I' for Inactive)
DOCKED: REMARK    1  A    between atoms: C_6  and  C_10 
DOCKED: REMARK    2  A    between atoms: C_10  and  C_11 
DOCKED: REMARK    3  A    between atoms: C_11  and  C_12 
DOCKED: REMARK    4  A    between atoms: C_12  and  O_14 
DOCKED: REMARK    5  A    between atoms: C_17  and  C_20 
DOCKED: REMARK    6  A    between atoms: C_24  and  C_27 
DOCKED: REMARK    7  A    between atoms: C_31  and  C_34 
DOCKED: REMARK    8  A    between atoms: C_34  and  C_35 
DOCKED: REMARK    9  A    between atoms: C_35  and  C_36 
DOCKED: REMARK   10  A    between atoms: C_36  and  O_38 
DOCKED: USER                              x       y       z     vdW  Elec       q    Type
DOCKED: USER                           _______ _______ _______ _____ _____    ______ ____
DOCKED: ROOT
DOCKED: ATOM      1  C   UNL d   1      -6.399 -13.052  11.146 -0.29 +0.03    +0.064 C 
DOCKED: ATOM      2  C   UNL d   1      -2.658  -9.883  10.527 -0.27 +0.02    +0.064 A 
DOCKED: ATOM      3  C   UNL d   1      -3.444  -8.197  14.955 -0.16 +0.01    +0.064 C 
DOCKED: ATOM      4  C   UNL d   1      -7.135 -11.184  15.536 -0.20 +0.03    +0.064 C 
DOCKED: ATOM      5  C   UNL d   1      -5.327 -12.259  10.530 -0.21 +0.03    +0.066 A 
DOCKED: ATOM      6  C   UNL d   1      -4.903 -12.388   9.217 -0.22 -0.01    -0.021 A 
DOCKED: ATOM      7  C   UNL d   1      -3.861 -11.510   9.047 -0.23 -0.01    -0.025 A 
DOCKED: ATOM      8  C   UNL d   1      -3.689 -10.878  10.264 -0.22 +0.02    +0.066 A 
DOCKED: ATOM      9  C   UNL d   1      -3.095 -11.284   7.780 -0.34 +0.02    +0.051 C 
DOCKED: ATOM     10  C   UNL d   1      -2.507  -9.217  11.673 -0.21 +0.02    +0.066 A 
DOCKED: ATOM     11  C   UNL d   1      -1.440  -8.354  11.933 -0.25 -0.00    -0.021 A 
DOCKED: ATOM     12  C   UNL d   1      -1.634  -7.867  13.211 -0.22 +0.00    +0.000 A 
DOCKED: ATOM     13  C   UNL d   1      -2.817  -8.472  13.671 -0.09 +0.02    +0.070 A 
DOCKED: ATOM     14  C   UNL d   1      -0.255  -8.060  11.035 -0.28 +0.01    +0.052 C 
DOCKED: ATOM     15  C   UNL d   1      -4.554  -8.814  15.424 -0.13 +0.03    +0.066 A 
DOCKED: ATOM     16  C   UNL d   1      -5.178  -8.453  16.611 -0.16 -0.00    -0.021 A 
DOCKED: ATOM     17  C   UNL d   1      -6.241  -9.315  16.782 -0.15 +0.00    +0.000 A 
DOCKED: ATOM     18  C   UNL d   1      -6.237 -10.187  15.695 -0.10 +0.05    +0.070 A 
DOCKED: ATOM     19  C   UNL d   1      -4.779  -7.357  17.562 -0.13 -0.01    +0.052 C 
DOCKED: ATOM     20  C   UNL d   1      -7.200 -12.080  14.375 -0.22 +0.03    +0.066 A 
DOCKED: ATOM     21  C   UNL d   1      -7.989 -13.236  14.288 -0.23 -0.01    -0.025 A 
DOCKED: ATOM     22  C   UNL d   1      -7.773 -13.746  13.024 -0.30 -0.01    -0.021 A 
DOCKED: ATOM     23  C   UNL d   1      -6.861 -12.889  12.396 -0.27 +0.03    +0.066 A 
DOCKED: ATOM     24  C   UNL d   1      -8.898 -13.839  15.334 -0.17 +0.02    +0.051 C 
DOCKED: ATOM     25  N   UNL d   1      -4.589 -11.330  11.161 -0.13 -0.10    -0.248 N 
DOCKED: ATOM     26  N   UNL d   1      -3.344  -9.301  12.738 -0.09 -0.09    -0.248 N 
DOCKED: ATOM     27  N   UNL d   1      -5.227  -9.852  14.838 -0.08 -0.17    -0.248 N 
DOCKED: ATOM     28  N   UNL d   1      -6.481 -11.901  13.241 -0.17 -0.14    -0.248 N 
DOCKED: ATOM     29 FE   UNL d   1      -4.914 -10.601  12.991 -0.05 +0.00    +0.000 Fe
DOCKED: ENDROOT
DOCKED: BRANCH   6  30
DOCKED: ATOM     30  C   UNL d   1      -5.471 -13.283   8.170 -0.27 +0.04    +0.052 C 
DOCKED: BRANCH  30  31
DOCKED: ATOM     31  C   UNL d   1      -5.564 -14.718   8.678 -0.16 +0.10    +0.115 C 
DOCKED: BRANCH  31  32
DOCKED: ATOM     32  C   UNL d   1      -6.441 -15.540   7.775 -0.20 +0.22    +0.139 C 
DOCKED: ATOM     33  O   UNL d   1      -6.663 -15.182   6.626 -0.38 -1.43    -0.650 OA
DOCKED: BRANCH  32  34
DOCKED: ATOM     34  O   UNL d   1      -6.992 -16.679   8.225 -0.56 -1.67    -0.776 OA
DOCKED: ATOM     35  H   UNL d   1      -6.815 -16.960   9.134 +0.02 +0.26    +0.167 HD
DOCKED: ENDBRANCH  32  34
DOCKED: ENDBRANCH  31  32
DOCKED: ENDBRANCH  30  31
DOCKED: ENDBRANCH   6  30
DOCKED: BRANCH  22  36
DOCKED: ATOM     36  C   UNL d   1      -8.374 -15.011  12.472 -0.11 +0.02    +0.052 C 
DOCKED: BRANCH  36  37
DOCKED: ATOM     37  C   UNL d   1      -7.380 -16.155  12.611 -0.12 +0.05    +0.115 C 
DOCKED: BRANCH  37  38
DOCKED: ATOM     38  C   UNL d   1      -7.395 -17.034  11.393 -0.12 +0.11    +0.139 C 
DOCKED: ATOM     39  O   UNL d   1      -6.455 -17.774  11.144 +0.03 -0.41    -0.650 OA
DOCKED: BRANCH  38  40
DOCKED: ATOM     40  O   UNL d   1      -8.451 -17.008  10.560 -0.02 -1.30    -0.776 OA
DOCKED: ATOM     41  H   UNL d   1      -8.459 -16.371   9.832 -0.30 +0.43    +0.167 HD
DOCKED: ENDBRANCH  38  40
DOCKED: ENDBRANCH  37  38
DOCKED: ENDBRANCH  36  37
DOCKED: ENDBRANCH  22  36
DOCKED: BRANCH  12  42
DOCKED: ATOM     42  C   UNL d   1      -0.721  -6.911  13.911 -0.26 +0.00    +0.004 C 
DOCKED: ATOM     43  C   UNL d   1      -0.879  -5.587  13.780 -0.43 -0.00    +0.012 C 
DOCKED: ENDBRANCH  12  42
DOCKED: BRANCH  17  44
DOCKED: ATOM     44  C   UNL d   1      -7.209  -9.294  17.902 -0.14 +0.00    +0.004 C 
DOCKED: ATOM     45  C   UNL d   1      -8.465  -8.876  17.713 -0.23 +0.00    +0.012 C 
DOCKED: ENDBRANCH  17  44
DOCKED: TORSDOF 10
DOCKED: TER
DOCKED: ENDMDL
________________________________________________________________________________


	BEGINNING GENETIC ALGORITHM DOCKING 79 of 100
Run: 79 Seed: 751398758 901304592 [ Run 79 of 100 GA/GALS ]
Beginning LAMARCKIAN GENETIC ALGORITHM (LGA), with a maximum of 25000000 energy evaluations.

Final-Value: -19.920


	FINAL GENETIC ALGORITHM DOCKED STATE
	_______________________________________________


Detailed state:  trans -0.053 -1.625 -9.324 quatxyzw -0.576382 -0.376629 -0.469505 -0.552721 center -0.174 -0.001 -0.047 ntor 10 54.9295 -32.9543 72.3978 -107.8913 175.2473 157.5752 -45.9866 60.4072 -175.2680 178.8751
State:	 -0.053  -1.625  -9.324  -0.692 -0.452 -0.563 -112.892     54.93  -32.95   72.40 -107.89  175.25  157.58  -45.99   60.41 -175.27  178.88

DOCKED: MODEL       79
DOCKED: USER    Run = 79
DOCKED: USER    DPF = D:/Protein_go_brrr/autodock/final/AncB/heme_Fe/dock.dpf
DOCKED: USER  
DOCKED: USER    Estimated Free Energy of Binding    =  -14.96 kcal/mol  [=(1)+(2)+(3)-(4)]
DOCKED: USER    Estimated Inhibition Constant, Ki   =   10.79 pM (picomolar)  [Temperature = 298.15 K]
DOCKED: USER    
DOCKED: USER    (1) Final Intermolecular Energy     =  -17.94 kcal/mol
DOCKED: USER        vdW + Hbond + desolv Energy     =  -14.36 kcal/mol
DOCKED: USER        Electrostatic Energy            =   -3.59 kcal/mol
DOCKED: USER    (2) Final Total Internal Energy     =   -1.98 kcal/mol
DOCKED: USER    (3) Torsional Free Energy           =   +2.98 kcal/mol
DOCKED: USER    (4) Unbound System's Energy  [=(2)] =   -1.98 kcal/mol
DOCKED: USER    
DOCKED: USER    
DOCKED: USER    NEWDPF move heme_Fe_opt.pdbqt
DOCKED: USER    NEWDPF about -0.174000 -0.001000 -0.047000
DOCKED: USER    NEWDPF tran0 -0.052760 -1.624573 -9.323957
DOCKED: USER    NEWDPF quaternion0 -0.576382 -0.376629 -0.469505 -0.552721
DOCKED: USER    NEWDPF axisangle0 -0.691630 -0.451937 -0.563383 -112.892287
DOCKED: USER    NEWDPF quat0 -0.691630 -0.451937 -0.563383 -112.892287
DOCKED: USER    NEWDPF dihe0 54.93 -32.95 72.40 -107.89 175.25 157.58 -45.99 60.41 -175.27 178.88 
DOCKED: USER  keepresnum = 1 
DOCKED: USER  
DOCKED: REMARK  10 active torsions:
DOCKED: REMARK  status: ('A' for Active; 'I' for Inactive)
DOCKED: REMARK    1  A    between atoms: C_6  and  C_10 
DOCKED: REMARK    2  A    between atoms: C_10  and  C_11 
DOCKED: REMARK    3  A    between atoms: C_11  and  C_12 
DOCKED: REMARK    4  A    between atoms: C_12  and  O_14 
DOCKED: REMARK    5  A    between atoms: C_17  and  C_20 
DOCKED: REMARK    6  A    between atoms: C_24  and  C_27 
DOCKED: REMARK    7  A    between atoms: C_31  and  C_34 
DOCKED: REMARK    8  A    between atoms: C_34  and  C_35 
DOCKED: REMARK    9  A    between atoms: C_35  and  C_36 
DOCKED: REMARK   10  A    between atoms: C_36  and  O_38 
DOCKED: USER                              x       y       z     vdW  Elec       q    Type
DOCKED: USER                           _______ _______ _______ _____ _____    ______ ____
DOCKED: ROOT
DOCKED: ATOM      1  C   UNL d   1      -0.588  -0.923 -11.177 -0.17 +0.05    +0.064 C 
DOCKED: ATOM      2  C   UNL d   1      -2.776  -1.075  -6.747 -0.40 +0.02    +0.064 A 
DOCKED: ATOM      3  C   UNL d   1       1.480  -2.072  -4.756 -0.43 +0.01    +0.064 C 
DOCKED: ATOM      4  C   UNL d   1       3.598  -2.034  -9.045 -0.52 +0.02    +0.064 C 
DOCKED: ATOM      5  C   UNL d   1      -1.613  -0.956 -10.124 -0.31 +0.05    +0.066 A 
DOCKED: ATOM      6  C   UNL d   1      -2.975  -0.821 -10.342 -0.29 -0.02    -0.021 A 
DOCKED: ATOM      7  C   UNL d   1      -3.581  -0.860  -9.111 -0.29 -0.01    -0.025 A 
DOCKED: ATOM      8  C   UNL d   1      -2.565  -1.017  -8.188 -0.35 +0.03    +0.066 A 
DOCKED: ATOM      9  C   UNL d   1      -5.053  -0.770  -8.849 -0.30 +0.02    +0.051 C 
DOCKED: ATOM     10  C   UNL d   1      -1.821  -1.283  -5.839 -0.40 +0.02    +0.066 A 
DOCKED: ATOM     11  C   UNL d   1      -2.035  -1.220  -4.460 -0.44 -0.00    -0.021 A 
DOCKED: ATOM     12  C   UNL d   1      -0.819  -1.487  -3.864 -0.40 +0.00    +0.000 A 
DOCKED: ATOM     13  C   UNL d   1       0.085  -1.694  -4.920 -0.38 +0.02    +0.070 A 
DOCKED: ATOM     14  C   UNL d   1      -3.320  -0.854  -3.746 -0.59 +0.01    +0.052 C 
DOCKED: ATOM     15  C   UNL d   1       2.367  -2.222  -5.768 -0.39 +0.02    +0.066 A 
DOCKED: ATOM     16  C   UNL d   1       3.664  -2.681  -5.578 -0.48 -0.00    -0.021 A 
DOCKED: ATOM     17  C   UNL d   1       4.278  -2.667  -6.814 -0.51 +0.00    +0.000 A 
DOCKED: ATOM     18  C   UNL d   1       3.340  -2.195  -7.729 -0.42 +0.02    +0.070 A 
DOCKED: ATOM     19  C   UNL d   1       4.312  -3.093  -4.284 -0.63 +0.01    +0.052 C 
DOCKED: ATOM     20  C   UNL d   1       2.619  -1.598 -10.048 -0.44 +0.02    +0.066 A 
DOCKED: ATOM     21  C   UNL d   1       2.918  -1.236 -11.369 -0.45 -0.01    -0.025 A 
DOCKED: ATOM     22  C   UNL d   1       1.709  -0.936 -11.962 -0.26 -0.01    -0.021 A 
DOCKED: ATOM     23  C   UNL d   1       0.726  -1.119 -10.983 -0.07 +0.04    +0.066 A 
DOCKED: ATOM     24  C   UNL d   1       4.268  -1.169 -12.046 -0.51 +0.01    +0.051 C 
DOCKED: ATOM     25  N   UNL d   1      -1.370  -1.085  -8.808 -0.24 -0.12    -0.248 N 
DOCKED: ATOM     26  N   UNL d   1      -0.523  -1.561  -6.124 -0.25 -0.07    -0.248 N 
DOCKED: ATOM     27  N   UNL d   1       2.152  -1.963  -7.095 -0.19 -0.10    -0.248 N 
DOCKED: ATOM     28  N   UNL d   1       1.291  -1.480  -9.805 -0.26 -0.12    -0.248 N 
DOCKED: ATOM     29 FE   UNL d   1       0.386  -1.521  -7.965 -0.09 +0.00    +0.000 Fe
DOCKED: ENDROOT
DOCKED: BRANCH   6  30
DOCKED: ATOM     30  C   UNL d   1      -3.669  -0.684 -11.654 -0.07 +0.08    +0.052 C 
DOCKED: BRANCH  30  31
DOCKED: ATOM     31  C   UNL d   1      -3.707   0.775 -12.095 -0.22 +0.15    +0.115 C 
DOCKED: BRANCH  31  32
DOCKED: ATOM     32  C   UNL d   1      -3.316   0.897 -13.542 -0.17 +0.22    +0.139 C 
DOCKED: ATOM     33  O   UNL d   1      -3.369   1.978 -14.112 -0.46 -1.38    -0.650 OA
DOCKED: BRANCH  32  34
DOCKED: ATOM     34  O   UNL d   1      -2.903  -0.185 -14.223 +0.05 -1.86    -0.776 OA
DOCKED: ATOM     35  H   UNL d   1      -2.046  -0.159 -14.671 +0.03 +0.31    +0.167 HD
DOCKED: ENDBRANCH  32  34
DOCKED: ENDBRANCH  31  32
DOCKED: ENDBRANCH  30  31
DOCKED: ENDBRANCH   6  30
DOCKED: BRANCH  22  36
DOCKED: ATOM     36  C   UNL d   1       1.519  -0.452 -13.375 -0.27 +0.03    +0.052 C 
DOCKED: BRANCH  36  37
DOCKED: ATOM     37  C   UNL d   1       1.720   1.055 -13.434 -0.22 +0.06    +0.115 C 
DOCKED: BRANCH  37  38
DOCKED: ATOM     38  C   UNL d   1       0.483   1.745 -13.937 -0.18 +0.11    +0.139 C 
DOCKED: ATOM     39  O   UNL d   1       0.278   2.923 -13.685 -0.38 -0.67    -0.650 OA
DOCKED: BRANCH  38  40
DOCKED: ATOM     40  O   UNL d   1      -0.414   1.062 -14.671 +0.07 -0.73    -0.776 OA
DOCKED: ATOM     41  H   UNL d   1      -1.352   1.284 -14.592 +0.04 +0.20    +0.167 HD
DOCKED: ENDBRANCH  38  40
DOCKED: ENDBRANCH  37  38
DOCKED: ENDBRANCH  36  37
DOCKED: ENDBRANCH  22  36
DOCKED: BRANCH  12  42
DOCKED: ATOM     42  C   UNL d   1      -0.577  -1.514  -2.388 -0.49 +0.00    +0.004 C 
DOCKED: ATOM     43  C   UNL d   1      -0.131  -2.622  -1.783 -0.56 +0.00    +0.012 C 
DOCKED: ENDBRANCH  12  42
DOCKED: BRANCH  17  44
DOCKED: ATOM     44  C   UNL d   1       5.665  -3.097  -7.102 -0.47 +0.00    +0.004 C 
DOCKED: ATOM     45  C   UNL d   1       6.696  -2.581  -6.426 -0.62 +0.00    +0.012 C 
DOCKED: ENDBRANCH  17  44
DOCKED: TORSDOF 10
DOCKED: TER
DOCKED: ENDMDL
________________________________________________________________________________


	BEGINNING GENETIC ALGORITHM DOCKING 80 of 100
Run: 80 Seed: 205371514 1708875662 [ Run 80 of 100 GA/GALS ]
Beginning LAMARCKIAN GENETIC ALGORITHM (LGA), with a maximum of 25000000 energy evaluations.

Final-Value: -19.601


	FINAL GENETIC ALGORITHM DOCKED STATE
	_______________________________________________


Detailed state:  trans -0.167 -1.701 -9.002 quatxyzw 0.583633 0.378051 0.456869 0.554725 center -0.174 -0.001 -0.047 ntor 10 55.1255 -105.2819 71.0309 -120.2474 -82.8792 78.2589 -69.9440 -29.6018 172.2216 21.7694
State:	 -0.167  -1.701  -9.002   0.701  0.454  0.549 112.616     55.13 -105.28   71.03 -120.25  -82.88   78.26  -69.94  -29.60  172.22   21.77

DOCKED: MODEL       80
DOCKED: USER    Run = 80
DOCKED: USER    DPF = D:/Protein_go_brrr/autodock/final/AncB/heme_Fe/dock.dpf
DOCKED: USER  
DOCKED: USER    Estimated Free Energy of Binding    =  -14.50 kcal/mol  [=(1)+(2)+(3)-(4)]
DOCKED: USER    Estimated Inhibition Constant, Ki   =   23.65 pM (picomolar)  [Temperature = 298.15 K]
DOCKED: USER    
DOCKED: USER    (1) Final Intermolecular Energy     =  -17.48 kcal/mol
DOCKED: USER        vdW + Hbond + desolv Energy     =  -14.39 kcal/mol
DOCKED: USER        Electrostatic Energy            =   -3.09 kcal/mol
DOCKED: USER    (2) Final Total Internal Energy     =   -2.12 kcal/mol
DOCKED: USER    (3) Torsional Free Energy           =   +2.98 kcal/mol
DOCKED: USER    (4) Unbound System's Energy  [=(2)] =   -2.12 kcal/mol
DOCKED: USER    
DOCKED: USER    
DOCKED: USER    NEWDPF move heme_Fe_opt.pdbqt
DOCKED: USER    NEWDPF about -0.174000 -0.001000 -0.047000
DOCKED: USER    NEWDPF tran0 -0.167469 -1.700745 -9.002201
DOCKED: USER    NEWDPF quaternion0 0.583633 0.378051 0.456869 0.554725
DOCKED: USER    NEWDPF axisangle0 0.701454 0.454370 0.549100 112.616392
DOCKED: USER    NEWDPF quat0 0.701454 0.454370 0.549100 112.616392
DOCKED: USER    NEWDPF dihe0 55.13 -105.28 71.03 -120.25 -82.88 78.26 -69.94 -29.60 172.22 21.77 
DOCKED: USER  keepresnum = 1 
DOCKED: USER  
DOCKED: REMARK  10 active torsions:
DOCKED: REMARK  status: ('A' for Active; 'I' for Inactive)
DOCKED: REMARK    1  A    between atoms: C_6  and  C_10 
DOCKED: REMARK    2  A    between atoms: C_10  and  C_11 
DOCKED: REMARK    3  A    between atoms: C_11  and  C_12 
DOCKED: REMARK    4  A    between atoms: C_12  and  O_14 
DOCKED: REMARK    5  A    between atoms: C_17  and  C_20 
DOCKED: REMARK    6  A    between atoms: C_24  and  C_27 
DOCKED: REMARK    7  A    between atoms: C_31  and  C_34 
DOCKED: REMARK    8  A    between atoms: C_34  and  C_35 
DOCKED: REMARK    9  A    between atoms: C_35  and  C_36 
DOCKED: REMARK   10  A    between atoms: C_36  and  O_38 
DOCKED: USER                              x       y       z     vdW  Elec       q    Type
DOCKED: USER                           _______ _______ _______ _____ _____    ______ ____
DOCKED: ROOT
DOCKED: ATOM      1  C   UNL d   1      -0.751  -1.037 -10.854 -0.28 +0.05    +0.064 C 
DOCKED: ATOM      2  C   UNL d   1      -2.842  -1.141  -6.377 -0.40 +0.02    +0.064 A 
DOCKED: ATOM      3  C   UNL d   1       1.467  -2.054  -4.462 -0.40 +0.01    +0.064 C 
DOCKED: ATOM      4  C   UNL d   1       3.493  -2.062  -8.795 -0.51 +0.02    +0.064 C 
DOCKED: ATOM      5  C   UNL d   1      -1.753  -1.064  -9.780 -0.32 +0.04    +0.066 A 
DOCKED: ATOM      6  C   UNL d   1      -3.120  -0.949  -9.971 -0.30 -0.02    -0.021 A 
DOCKED: ATOM      7  C   UNL d   1      -3.700  -0.975  -8.727 -0.29 -0.01    -0.025 A 
DOCKED: ATOM      8  C   UNL d   1      -2.663  -1.104  -7.823 -0.36 +0.03    +0.066 A 
DOCKED: ATOM      9  C   UNL d   1      -5.167  -0.898  -8.434 -0.28 +0.02    +0.051 C 
DOCKED: ATOM     10  C   UNL d   1      -1.865  -1.322  -5.486 -0.41 +0.02    +0.066 A 
DOCKED: ATOM     11  C   UNL d   1      -2.051  -1.238  -4.104 -0.43 -0.00    -0.021 A 
DOCKED: ATOM     12  C   UNL d   1      -0.819  -1.481  -3.530 -0.40 +0.00    +0.000 A 
DOCKED: ATOM     13  C   UNL d   1       0.064  -1.695  -4.602 -0.38 +0.01    +0.070 A 
DOCKED: ATOM     14  C   UNL d   1      -3.325  -0.876  -3.369 -0.62 +0.01    +0.052 C 
DOCKED: ATOM     15  C   UNL d   1       2.334  -2.210  -5.490 -0.39 +0.01    +0.066 A 
DOCKED: ATOM     16  C   UNL d   1       3.640  -2.650  -5.320 -0.49 -0.00    -0.021 A 
DOCKED: ATOM     17  C   UNL d   1       4.228  -2.650  -6.568 -0.50 +0.00    +0.000 A 
DOCKED: ATOM     18  C   UNL d   1       3.265  -2.205  -7.471 -0.42 +0.02    +0.070 A 
DOCKED: ATOM     19  C   UNL d   1       4.321  -3.033  -4.033 -0.62 +0.01    +0.052 C 
DOCKED: ATOM     20  C   UNL d   1       2.488  -1.655  -9.784 -0.43 +0.03    +0.066 A 
DOCKED: ATOM     21  C   UNL d   1       2.755  -1.311 -11.117 -0.44 -0.01    -0.025 A 
DOCKED: ATOM     22  C   UNL d   1       1.530  -1.035 -11.688 -0.24 -0.01    -0.021 A 
DOCKED: ATOM     23  C   UNL d   1       0.569  -1.214 -10.685 -0.10 +0.04    +0.066 A 
DOCKED: ATOM     24  C   UNL d   1       4.089  -1.239 -11.823 -0.54 +0.01    +0.051 C 
DOCKED: ATOM     25  N   UNL d   1      -1.480  -1.168  -8.467 -0.22 -0.12    -0.248 N 
DOCKED: ATOM     26  N   UNL d   1      -0.570  -1.590  -5.795 -0.25 -0.07    -0.248 N 
DOCKED: ATOM     27  N   UNL d   1       2.088  -1.975  -6.816 -0.22 -0.09    -0.248 N 
DOCKED: ATOM     28  N   UNL d   1       1.164  -1.548  -9.514 -0.17 -0.14    -0.248 N 
DOCKED: ATOM     29 FE   UNL d   1       0.299  -1.569  -7.655 -0.09 +0.00    +0.000 Fe
DOCKED: ENDROOT
DOCKED: BRANCH   6  30
DOCKED: ATOM     30  C   UNL d   1      -3.843  -0.843 -11.270 -0.18 +0.07    +0.052 C 
DOCKED: BRANCH  30  31
DOCKED: ATOM     31  C   UNL d   1      -4.180   0.611 -11.582 -0.21 +0.13    +0.115 C 
DOCKED: BRANCH  31  32
DOCKED: ATOM     32  C   UNL d   1      -3.353   1.107 -12.736 -0.19 +0.20    +0.139 C 
DOCKED: ATOM     33  O   UNL d   1      -2.213   1.512 -12.556 -0.04 -0.82    -0.650 OA
DOCKED: BRANCH  32  34
DOCKED: ATOM     34  O   UNL d   1      -3.861   1.109 -13.979 -0.14 -1.27    -0.776 OA
DOCKED: ATOM     35  H   UNL d   1      -3.381   0.651 -14.684 +0.02 +0.28    +0.167 HD
DOCKED: ENDBRANCH  32  34
DOCKED: ENDBRANCH  31  32
DOCKED: ENDBRANCH  30  31
DOCKED: ENDBRANCH   6  30
DOCKED: BRANCH  22  36
DOCKED: ATOM     36  C   UNL d   1       1.303  -0.577 -13.105 -0.28 +0.03    +0.052 C 
DOCKED: BRANCH  36  37
DOCKED: ATOM     37  C   UNL d   1       0.446  -1.595 -13.842 -0.17 +0.10    +0.115 C 
DOCKED: BRANCH  37  38
DOCKED: ATOM     38  C   UNL d   1      -0.392  -0.931 -14.897 -0.15 +0.16    +0.139 C 
DOCKED: ATOM     39  O   UNL d   1       0.095  -0.601 -15.968 +0.02 -0.51    -0.650 OA
DOCKED: BRANCH  38  40
DOCKED: ATOM     40  O   UNL d   1      -1.695  -0.689 -14.665 -0.35 -1.61    -0.776 OA
DOCKED: ATOM     41  H   UNL d   1      -1.941   0.032 -14.069 +0.03 +0.28    +0.167 HD
DOCKED: ENDBRANCH  38  40
DOCKED: ENDBRANCH  37  38
DOCKED: ENDBRANCH  36  37
DOCKED: ENDBRANCH  22  36
DOCKED: BRANCH  12  42
DOCKED: ATOM     42  C   UNL d   1      -0.546  -1.481  -2.059 -0.51 +0.00    +0.004 C 
DOCKED: ATOM     43  C   UNL d   1      -0.099  -2.581  -1.441 -0.59 +0.00    +0.012 C 
DOCKED: ENDBRANCH  12  42
DOCKED: BRANCH  17  44
DOCKED: ATOM     44  C   UNL d   1       5.613  -3.068  -6.880 -0.50 +0.00    +0.004 C 
DOCKED: ATOM     45  C   UNL d   1       6.658  -2.370  -6.424 -0.66 +0.00    +0.012 C 
DOCKED: ENDBRANCH  17  44
DOCKED: TORSDOF 10
DOCKED: TER
DOCKED: ENDMDL
________________________________________________________________________________


	BEGINNING GENETIC ALGORITHM DOCKING 81 of 100
Run: 81 Seed: 1842653288 1985750767 [ Run 81 of 100 GA/GALS ]
Beginning LAMARCKIAN GENETIC ALGORITHM (LGA), with a maximum of 25000000 energy evaluations.

Final-Value: -20.197


	FINAL GENETIC ALGORITHM DOCKED STATE
	_______________________________________________


Detailed state:  trans -0.364 -0.900 -9.145 quatxyzw -0.607057 0.472860 -0.280320 0.573852 center -0.174 -0.001 -0.047 ntor 10 2.5481 70.1223 54.2387 -118.3820 -5.7121 -170.9348 66.1064 -41.5908 -31.3437 -19.6399
State:	 -0.364  -0.900  -9.145  -0.741  0.577 -0.342 109.961      2.55   70.12   54.24 -118.38   -5.71 -170.93   66.11  -41.59  -31.34  -19.64

DOCKED: MODEL       81
DOCKED: USER    Run = 81
DOCKED: USER    DPF = D:/Protein_go_brrr/autodock/final/AncB/heme_Fe/dock.dpf
DOCKED: USER  
DOCKED: USER    Estimated Free Energy of Binding    =  -14.85 kcal/mol  [=(1)+(2)+(3)-(4)]
DOCKED: USER    Estimated Inhibition Constant, Ki   =   12.97 pM (picomolar)  [Temperature = 298.15 K]
DOCKED: USER    
DOCKED: USER    (1) Final Intermolecular Energy     =  -17.84 kcal/mol
DOCKED: USER        vdW + Hbond + desolv Energy     =  -14.04 kcal/mol
DOCKED: USER        Electrostatic Energy            =   -3.79 kcal/mol
DOCKED: USER    (2) Final Total Internal Energy     =   -2.36 kcal/mol
DOCKED: USER    (3) Torsional Free Energy           =   +2.98 kcal/mol
DOCKED: USER    (4) Unbound System's Energy  [=(2)] =   -2.36 kcal/mol
DOCKED: USER    
DOCKED: USER    
DOCKED: USER    NEWDPF move heme_Fe_opt.pdbqt
DOCKED: USER    NEWDPF about -0.174000 -0.001000 -0.047000
DOCKED: USER    NEWDPF tran0 -0.364378 -0.899586 -9.144741
DOCKED: USER    NEWDPF quaternion0 -0.607057 0.472860 -0.280320 0.573852
DOCKED: USER    NEWDPF axisangle0 -0.741254 0.577391 -0.342288 109.961391
DOCKED: USER    NEWDPF quat0 -0.741254 0.577391 -0.342288 109.961391
DOCKED: USER    NEWDPF dihe0 2.55 70.12 54.24 -118.38 -5.71 -170.93 66.11 -41.59 -31.34 -19.64 
DOCKED: USER  keepresnum = 1 
DOCKED: USER  
DOCKED: REMARK  10 active torsions:
DOCKED: REMARK  status: ('A' for Active; 'I' for Inactive)
DOCKED: REMARK    1  A    between atoms: C_6  and  C_10 
DOCKED: REMARK    2  A    between atoms: C_10  and  C_11 
DOCKED: REMARK    3  A    between atoms: C_11  and  C_12 
DOCKED: REMARK    4  A    between atoms: C_12  and  O_14 
DOCKED: REMARK    5  A    between atoms: C_17  and  C_20 
DOCKED: REMARK    6  A    between atoms: C_24  and  C_27 
DOCKED: REMARK    7  A    between atoms: C_31  and  C_34 
DOCKED: REMARK    8  A    between atoms: C_34  and  C_35 
DOCKED: REMARK    9  A    between atoms: C_35  and  C_36 
DOCKED: REMARK   10  A    between atoms: C_36  and  O_38 
DOCKED: USER                              x       y       z     vdW  Elec       q    Type
DOCKED: USER                           _______ _______ _______ _____ _____    ______ ____
DOCKED: ROOT
DOCKED: ATOM      1  C   UNL d   1      -1.203  -0.918 -11.018 -0.31 +0.06    +0.064 C 
DOCKED: ATOM      2  C   UNL d   1       3.260  -2.004  -9.192 -0.45 +0.02    +0.064 A 
DOCKED: ATOM      3  C   UNL d   1       1.360  -2.083  -4.781 -0.44 +0.01    +0.064 C 
DOCKED: ATOM      4  C   UNL d   1      -2.946  -0.928  -6.516 -0.48 +0.02    +0.064 C 
DOCKED: ATOM      5  C   UNL d   1       0.246  -1.134 -10.904 -0.11 +0.04    +0.066 A 
DOCKED: ATOM      6  C   UNL d   1       1.140  -1.070 -11.960 -0.24 -0.01    -0.021 A 
DOCKED: ATOM      7  C   UNL d   1       2.379  -1.376 -11.453 -0.37 -0.01    -0.025 A 
DOCKED: ATOM      8  C   UNL d   1       2.193  -1.614 -10.105 -0.41 +0.03    +0.066 A 
DOCKED: ATOM      9  C   UNL d   1       3.663  -1.414 -12.223 -0.51 +0.01    +0.051 C 
DOCKED: ATOM     10  C   UNL d   1       3.118  -2.185  -7.878 -0.41 +0.02    +0.066 A 
DOCKED: ATOM     11  C   UNL d   1       4.133  -2.669  -7.048 -0.48 -0.01    -0.021 A 
DOCKED: ATOM     12  C   UNL d   1       3.605  -2.717  -5.774 -0.49 +0.00    +0.000 A 
DOCKED: ATOM     13  C   UNL d   1       2.280  -2.263  -5.894 -0.38 +0.02    +0.070 A 
DOCKED: ATOM     14  C   UNL d   1       5.516  -3.130  -7.461 -0.36 +0.01    +0.052 C 
DOCKED: ATOM     15  C   UNL d   1       0.069  -1.695  -4.898 -0.38 +0.01    +0.066 A 
DOCKED: ATOM     16  C   UNL d   1      -0.748  -1.438  -3.804 -0.36 -0.00    -0.021 A 
DOCKED: ATOM     17  C   UNL d   1      -1.992  -1.108  -4.302 -0.42 +0.00    +0.000 A 
DOCKED: ATOM     18  C   UNL d   1      -1.905  -1.176  -5.691 -0.40 +0.02    +0.070 A 
DOCKED: ATOM     19  C   UNL d   1      -0.384  -1.524  -2.346 -0.45 +0.01    +0.052 C 
DOCKED: ATOM     20  C   UNL d   1      -2.876  -0.929  -7.982 -0.36 +0.03    +0.066 A 
DOCKED: ATOM     21  C   UNL d   1      -3.980  -0.872  -8.845 -0.28 -0.01    -0.025 A 
DOCKED: ATOM     22  C   UNL d   1      -3.460  -0.857 -10.123 -0.28 -0.02    -0.021 A 
DOCKED: ATOM     23  C   UNL d   1      -2.067  -0.912  -9.990 -0.31 +0.05    +0.066 A 
DOCKED: ATOM     24  C   UNL d   1      -5.450  -0.838  -8.496 -0.29 +0.02    +0.051 C 
DOCKED: ATOM     25  N   UNL d   1       0.896  -1.457  -9.773 -0.22 -0.13    -0.248 N 
DOCKED: ATOM     26  N   UNL d   1       1.980  -1.946  -7.177 -0.14 -0.11    -0.248 N 
DOCKED: ATOM     27  N   UNL d   1      -0.628  -1.493  -6.059 -0.25 -0.07    -0.248 N 
DOCKED: ATOM     28  N   UNL d   1      -1.719  -1.000  -8.683 -0.24 -0.12    -0.248 N 
DOCKED: ATOM     29 FE   UNL d   1       0.129  -1.473  -7.930 -0.09 +0.00    +0.000 Fe
DOCKED: ENDROOT
DOCKED: BRANCH   6  30
DOCKED: ATOM     30  C   UNL d   1       0.839  -0.716 -13.376 -0.26 +0.04    +0.052 C 
DOCKED: BRANCH  30  31
DOCKED: ATOM     31  C   UNL d   1       0.207   0.669 -13.464 -0.13 +0.09    +0.115 C 
DOCKED: BRANCH  31  32
DOCKED: ATOM     32  C   UNL d   1      -1.215   0.569 -13.944 -0.16 +0.17    +0.139 C 
DOCKED: ATOM     33  O   UNL d   1      -1.677  -0.504 -14.304 -0.28 -1.26    -0.650 OA
DOCKED: BRANCH  32  34
DOCKED: ATOM     34  O   UNL d   1      -1.993   1.664 -13.981 -0.03 -1.14    -0.776 OA
DOCKED: ATOM     35  H   UNL d   1      -2.916   1.575 -14.257 +0.03 +0.29    +0.167 HD
DOCKED: ENDBRANCH  32  34
DOCKED: ENDBRANCH  31  32
DOCKED: ENDBRANCH  30  31
DOCKED: ENDBRANCH   6  30
DOCKED: BRANCH  22  36
DOCKED: ATOM     36  C   UNL d   1      -4.260  -0.842 -11.399 -0.18 +0.07    +0.052 C 
DOCKED: BRANCH  36  37
DOCKED: ATOM     37  C   UNL d   1      -4.793   0.560 -11.653 -0.18 +0.12    +0.115 C 
DOCKED: BRANCH  37  38
DOCKED: ATOM     38  C   UNL d   1      -4.654   0.935 -13.101 -0.16 +0.19    +0.139 C 
DOCKED: ATOM     39  O   UNL d   1      -4.874   2.078 -13.475 -0.27 -1.09    -0.650 OA
DOCKED: BRANCH  38  40
DOCKED: ATOM     40  O   UNL d   1      -4.287   0.007 -14.002 +0.07 -1.50    -0.776 OA
DOCKED: ATOM     41  H   UNL d   1      -3.411   0.066 -14.408 +0.02 +0.35    +0.167 HD
DOCKED: ENDBRANCH  38  40
DOCKED: ENDBRANCH  37  38
DOCKED: ENDBRANCH  36  37
DOCKED: ENDBRANCH  22  36
DOCKED: BRANCH  12  42
DOCKED: ATOM     42  C   UNL d   1       4.341  -3.188  -4.560 -0.68 +0.00    +0.004 C 
DOCKED: ATOM     43  C   UNL d   1       4.844  -2.315  -3.677 -0.60 +0.00    +0.012 C 
DOCKED: ENDBRANCH  12  42
DOCKED: BRANCH  17  44
DOCKED: ATOM     44  C   UNL d   1      -3.179  -0.733  -3.502 -0.60 +0.00    +0.004 C 
DOCKED: ATOM     45  C   UNL d   1      -3.751  -1.611  -2.671 -0.69 +0.00    +0.012 C 
DOCKED: ENDBRANCH  17  44
DOCKED: TORSDOF 10
DOCKED: TER
DOCKED: ENDMDL
________________________________________________________________________________


	BEGINNING GENETIC ALGORITHM DOCKING 82 of 100
Run: 82 Seed: 1601232268 1220993131 [ Run 82 of 100 GA/GALS ]
Beginning LAMARCKIAN GENETIC ALGORITHM (LGA), with a maximum of 25000000 energy evaluations.

Final-Value: -20.313


	FINAL GENETIC ALGORITHM DOCKED STATE
	_______________________________________________


Detailed state:  trans -0.148 -1.628 -9.309 quatxyzw -0.585801 -0.373446 -0.465873 -0.548030 center -0.174 -0.001 -0.047 ntor 10 69.8006 57.3789 76.3353 -109.2397 -167.9221 38.3400 -32.2911 63.0643 171.8457 124.0224
State:	 -0.148  -1.628  -9.309  -0.700 -0.446 -0.557 -113.536     69.80   57.38   76.34 -109.24 -167.92   38.34  -32.29   63.06  171.85  124.02

DOCKED: MODEL       82
DOCKED: USER    Run = 82
DOCKED: USER    DPF = D:/Protein_go_brrr/autodock/final/AncB/heme_Fe/dock.dpf
DOCKED: USER  
DOCKED: USER    Estimated Free Energy of Binding    =  -14.98 kcal/mol  [=(1)+(2)+(3)-(4)]
DOCKED: USER    Estimated Inhibition Constant, Ki   =   10.41 pM (picomolar)  [Temperature = 298.15 K]
DOCKED: USER    
DOCKED: USER    (1) Final Intermolecular Energy     =  -17.97 kcal/mol
DOCKED: USER        vdW + Hbond + desolv Energy     =  -14.00 kcal/mol
DOCKED: USER        Electrostatic Energy            =   -3.96 kcal/mol
DOCKED: USER    (2) Final Total Internal Energy     =   -2.35 kcal/mol
DOCKED: USER    (3) Torsional Free Energy           =   +2.98 kcal/mol
DOCKED: USER    (4) Unbound System's Energy  [=(2)] =   -2.35 kcal/mol
DOCKED: USER    
DOCKED: USER    
DOCKED: USER    NEWDPF move heme_Fe_opt.pdbqt
DOCKED: USER    NEWDPF about -0.174000 -0.001000 -0.047000
DOCKED: USER    NEWDPF tran0 -0.148238 -1.628224 -9.308532
DOCKED: USER    NEWDPF quaternion0 -0.585801 -0.373446 -0.465873 -0.548030
DOCKED: USER    NEWDPF axisangle0 -0.700335 -0.446461 -0.556959 -113.536030
DOCKED: USER    NEWDPF quat0 -0.700335 -0.446461 -0.556959 -113.536030
DOCKED: USER    NEWDPF dihe0 69.80 57.38 76.34 -109.24 -167.92 38.34 -32.29 63.06 171.85 124.02 
DOCKED: USER  keepresnum = 1 
DOCKED: USER  
DOCKED: REMARK  10 active torsions:
DOCKED: REMARK  status: ('A' for Active; 'I' for Inactive)
DOCKED: REMARK    1  A    between atoms: C_6  and  C_10 
DOCKED: REMARK    2  A    between atoms: C_10  and  C_11 
DOCKED: REMARK    3  A    between atoms: C_11  and  C_12 
DOCKED: REMARK    4  A    between atoms: C_12  and  O_14 
DOCKED: REMARK    5  A    between atoms: C_17  and  C_20 
DOCKED: REMARK    6  A    between atoms: C_24  and  C_27 
DOCKED: REMARK    7  A    between atoms: C_31  and  C_34 
DOCKED: REMARK    8  A    between atoms: C_34  and  C_35 
DOCKED: REMARK    9  A    between atoms: C_35  and  C_36 
DOCKED: REMARK   10  A    between atoms: C_36  and  O_38 
DOCKED: USER                              x       y       z     vdW  Elec       q    Type
DOCKED: USER                           _______ _______ _______ _____ _____    ______ ____
DOCKED: ROOT
DOCKED: ATOM      1  C   UNL d   1      -0.700  -0.950 -11.165 -0.22 +0.05    +0.064 C 
DOCKED: ATOM      2  C   UNL d   1      -2.831  -1.008  -6.705 -0.41 +0.02    +0.064 A 
DOCKED: ATOM      3  C   UNL d   1       1.439  -2.022  -4.755 -0.43 +0.01    +0.064 C 
DOCKED: ATOM      4  C   UNL d   1       3.501  -2.074  -9.071 -0.52 +0.02    +0.064 C 
DOCKED: ATOM      5  C   UNL d   1      -1.712  -0.955 -10.099 -0.32 +0.05    +0.066 A 
DOCKED: ATOM      6  C   UNL d   1      -3.074  -0.808 -10.301 -0.29 -0.02    -0.021 A 
DOCKED: ATOM      7  C   UNL d   1      -3.665  -0.821  -9.062 -0.30 -0.01    -0.025 A 
DOCKED: ATOM      8  C   UNL d   1      -2.639  -0.975  -8.150 -0.36 +0.03    +0.066 A 
DOCKED: ATOM      9  C   UNL d   1      -5.132  -0.710  -8.782 -0.31 +0.02    +0.051 C 
DOCKED: ATOM     10  C   UNL d   1      -1.866  -1.213  -5.807 -0.40 +0.02    +0.066 A 
DOCKED: ATOM     11  C   UNL d   1      -2.062  -1.126  -4.427 -0.43 -0.00    -0.021 A 
DOCKED: ATOM     12  C   UNL d   1      -0.841  -1.397  -3.841 -0.36 +0.00    +0.000 A 
DOCKED: ATOM     13  C   UNL d   1       0.046  -1.631  -4.906 -0.38 +0.02    +0.070 A 
DOCKED: ATOM     14  C   UNL d   1      -3.334  -0.734  -3.701 -0.57 +0.01    +0.052 C 
DOCKED: ATOM     15  C   UNL d   1       2.311  -2.197  -5.775 -0.39 +0.02    +0.066 A 
DOCKED: ATOM     16  C   UNL d   1       3.605  -2.668  -5.595 -0.48 -0.00    -0.021 A 
DOCKED: ATOM     17  C   UNL d   1       4.203  -2.681  -6.838 -0.50 +0.00    +0.000 A 
DOCKED: ATOM     18  C   UNL d   1       3.259  -2.212  -7.749 -0.42 +0.02    +0.070 A 
DOCKED: ATOM     19  C   UNL d   1       4.266  -3.067  -4.303 -0.63 +0.01    +0.052 C 
DOCKED: ATOM     20  C   UNL d   1       2.514  -1.643 -10.068 -0.43 +0.02    +0.066 A 
DOCKED: ATOM     21  C   UNL d   1       2.800  -1.305 -11.398 -0.43 -0.01    -0.025 A 
DOCKED: ATOM     22  C   UNL d   1       1.587  -1.000 -11.979 -0.26 -0.01    -0.021 A 
DOCKED: ATOM     23  C   UNL d   1       0.614  -1.157 -10.985 -0.10 +0.04    +0.066 A 
DOCKED: ATOM     24  C   UNL d   1       4.141  -1.263 -12.093 -0.52 +0.01    +0.051 C 
DOCKED: ATOM     25  N   UNL d   1      -1.453  -1.066  -8.784 -0.24 -0.12    -0.248 N 
DOCKED: ATOM     26  N   UNL d   1      -0.576  -1.510  -6.104 -0.25 -0.07    -0.248 N 
DOCKED: ATOM     27  N   UNL d   1       2.081  -1.956  -7.103 -0.17 -0.10    -0.248 N 
DOCKED: ATOM     28  N   UNL d   1       1.191  -1.506  -9.809 -0.26 -0.13    -0.248 N 
DOCKED: ATOM     29 FE   UNL d   1       0.309  -1.508  -7.957 -0.09 +0.00    +0.000 Fe
DOCKED: ENDROOT
DOCKED: BRANCH   6  30
DOCKED: ATOM     30  C   UNL d   1      -3.784  -0.684 -11.606 -0.10 +0.08    +0.052 C 
DOCKED: BRANCH  30  31
DOCKED: ATOM     31  C   UNL d   1      -4.093   0.777 -11.916 -0.21 +0.14    +0.115 C 
DOCKED: BRANCH  31  32
DOCKED: ATOM     32  C   UNL d   1      -4.054   1.020 -13.399 -0.16 +0.22    +0.139 C 
DOCKED: ATOM     33  O   UNL d   1      -4.057   2.159 -13.845 -0.43 -1.44    -0.650 OA
DOCKED: BRANCH  32  34
DOCKED: ATOM     34  O   UNL d   1      -4.015  -0.018 -14.252 +0.08 -1.60    -0.776 OA
DOCKED: ATOM     35  H   UNL d   1      -3.204  -0.184 -14.753 +0.02 +0.39    +0.167 HD
DOCKED: ENDBRANCH  32  34
DOCKED: ENDBRANCH  31  32
DOCKED: ENDBRANCH  30  31
DOCKED: ENDBRANCH   6  30
DOCKED: BRANCH  22  36
DOCKED: ATOM     36  C   UNL d   1       1.383  -0.536 -13.398 -0.27 +0.03    +0.052 C 
DOCKED: BRANCH  36  37
DOCKED: ATOM     37  C   UNL d   1       0.342   0.573 -13.430 -0.13 +0.09    +0.115 C 
DOCKED: BRANCH  37  38
DOCKED: ATOM     38  C   UNL d   1      -0.857   0.163 -14.238 -0.15 +0.16    +0.139 C 
DOCKED: ATOM     39  O   UNL d   1      -1.281  -0.982 -14.190 -0.19 -1.22    -0.650 OA
DOCKED: BRANCH  38  40
DOCKED: ATOM     40  O   UNL d   1      -1.473   1.060 -15.028 +0.04 -0.93    -0.776 OA
DOCKED: ATOM     41  H   UNL d   1      -2.415   1.235 -14.895 +0.03 +0.24    +0.167 HD
DOCKED: ENDBRANCH  38  40
DOCKED: ENDBRANCH  37  38
DOCKED: ENDBRANCH  36  37
DOCKED: ENDBRANCH  22  36
DOCKED: BRANCH  12  42
DOCKED: ATOM     42  C   UNL d   1      -0.581  -1.404  -2.369 -0.47 +0.00    +0.004 C 
DOCKED: ATOM     43  C   UNL d   1      -0.065  -2.483  -1.765 -0.57 +0.00    +0.012 C 
DOCKED: ENDBRANCH  12  42
DOCKED: BRANCH  17  44
DOCKED: ATOM     44  C   UNL d   1       5.581  -3.131  -7.138 -0.45 +0.00    +0.004 C 
DOCKED: ATOM     45  C   UNL d   1       6.629  -2.597  -6.503 -0.62 +0.00    +0.012 C 
DOCKED: ENDBRANCH  17  44
DOCKED: TORSDOF 10
DOCKED: TER
DOCKED: ENDMDL
________________________________________________________________________________


	BEGINNING GENETIC ALGORITHM DOCKING 83 of 100
Run: 83 Seed: 1880648483 2077116363 [ Run 83 of 100 GA/GALS ]
Beginning LAMARCKIAN GENETIC ALGORITHM (LGA), with a maximum of 25000000 energy evaluations.

Final-Value: -14.025


	FINAL GENETIC ALGORITHM DOCKED STATE
	_______________________________________________


Detailed state:  trans -5.701 -11.080 12.036 quatxyzw 0.609789 0.013100 0.446183 -0.654910 center -0.174 -0.001 -0.047 ntor 10 -143.3591 -138.3131 46.6462 50.3574 -102.1033 126.1600 2.6613 40.3805 -159.1217 169.1645
State:	 -5.701 -11.080  12.036   0.807  0.017  0.590 -98.174   -143.36 -138.31   46.65   50.36 -102.10  126.16    2.66   40.38 -159.12  169.16

DOCKED: MODEL       83
DOCKED: USER    Run = 83
DOCKED: USER    DPF = D:/Protein_go_brrr/autodock/final/AncB/heme_Fe/dock.dpf
DOCKED: USER  
DOCKED: USER    Estimated Free Energy of Binding    =  -10.74 kcal/mol  [=(1)+(2)+(3)-(4)]
DOCKED: USER    Estimated Inhibition Constant, Ki   =   13.44 nM (nanomolar)  [Temperature = 298.15 K]
DOCKED: USER    
DOCKED: USER    (1) Final Intermolecular Energy     =  -13.72 kcal/mol
DOCKED: USER        vdW + Hbond + desolv Energy     =   -9.49 kcal/mol
DOCKED: USER        Electrostatic Energy            =   -4.23 kcal/mol
DOCKED: USER    (2) Final Total Internal Energy     =   -0.30 kcal/mol
DOCKED: USER    (3) Torsional Free Energy           =   +2.98 kcal/mol
DOCKED: USER    (4) Unbound System's Energy  [=(2)] =   -0.30 kcal/mol
DOCKED: USER    
DOCKED: USER    
DOCKED: USER    NEWDPF move heme_Fe_opt.pdbqt
DOCKED: USER    NEWDPF about -0.174000 -0.001000 -0.047000
DOCKED: USER    NEWDPF tran0 -5.701235 -11.079938 12.035568
DOCKED: USER    NEWDPF quaternion0 0.609789 0.013100 0.446183 -0.654910
DOCKED: USER    NEWDPF axisangle0 0.806911 0.017334 0.590418 -98.174361
DOCKED: USER    NEWDPF quat0 0.806911 0.017334 0.590418 -98.174361
DOCKED: USER    NEWDPF dihe0 -143.36 -138.31 46.65 50.36 -102.10 126.16 2.66 40.38 -159.12 169.16 
DOCKED: USER  keepresnum = 1 
DOCKED: USER  
DOCKED: REMARK  10 active torsions:
DOCKED: REMARK  status: ('A' for Active; 'I' for Inactive)
DOCKED: REMARK    1  A    between atoms: C_6  and  C_10 
DOCKED: REMARK    2  A    between atoms: C_10  and  C_11 
DOCKED: REMARK    3  A    between atoms: C_11  and  C_12 
DOCKED: REMARK    4  A    between atoms: C_12  and  O_14 
DOCKED: REMARK    5  A    between atoms: C_17  and  C_20 
DOCKED: REMARK    6  A    between atoms: C_24  and  C_27 
DOCKED: REMARK    7  A    between atoms: C_31  and  C_34 
DOCKED: REMARK    8  A    between atoms: C_34  and  C_35 
DOCKED: REMARK    9  A    between atoms: C_35  and  C_36 
DOCKED: REMARK   10  A    between atoms: C_36  and  O_38 
DOCKED: USER                              x       y       z     vdW  Elec       q    Type
DOCKED: USER                           _______ _______ _______ _____ _____    ______ ____
DOCKED: ROOT
DOCKED: ATOM      1  C   UNL d   1      -6.561 -12.680  11.080 -0.29 +0.04    +0.064 C 
DOCKED: ATOM      2  C   UNL d   1      -2.583  -9.863  10.260 -0.28 +0.02    +0.064 A 
DOCKED: ATOM      3  C   UNL d   1      -2.923  -8.196  14.752 -0.19 +0.01    +0.064 C 
DOCKED: ATOM      4  C   UNL d   1      -6.836 -10.835  15.532 -0.19 +0.04    +0.064 C 
DOCKED: ATOM      5  C   UNL d   1      -5.459 -11.979  10.406 -0.22 +0.03    +0.066 A 
DOCKED: ATOM      6  C   UNL d   1      -5.133 -12.121   9.067 -0.26 -0.01    -0.021 A 
DOCKED: ATOM      7  C   UNL d   1      -4.026 -11.341   8.841 -0.23 -0.01    -0.025 A 
DOCKED: ATOM      8  C   UNL d   1      -3.719 -10.752  10.052 -0.24 +0.02    +0.066 A 
DOCKED: ATOM      9  C   UNL d   1      -3.324 -11.164   7.530 -0.32 +0.02    +0.051 C 
DOCKED: ATOM     10  C   UNL d   1      -2.297  -9.237  11.403 -0.24 +0.02    +0.066 A 
DOCKED: ATOM     11  C   UNL d   1      -1.139  -8.482  11.605 -0.26 -0.00    -0.021 A 
DOCKED: ATOM     12  C   UNL d   1      -1.205  -8.004  12.898 -0.23 +0.00    +0.000 A 
DOCKED: ATOM     13  C   UNL d   1      -2.408  -8.504  13.427 -0.15 +0.02    +0.070 A 
DOCKED: ATOM     14  C   UNL d   1       0.008  -8.283  10.636 -0.10 +0.01    +0.052 C 
DOCKED: ATOM     15  C   UNL d   1      -4.054  -8.716  15.284 -0.14 +0.02    +0.066 A 
DOCKED: ATOM     16  C   UNL d   1      -4.565  -8.320  16.514 -0.15 -0.00    -0.021 A 
DOCKED: ATOM     17  C   UNL d   1      -5.692  -9.083  16.742 -0.15 +0.00    +0.000 A 
DOCKED: ATOM     18  C   UNL d   1      -5.840  -9.930  15.646 -0.08 +0.05    +0.070 A 
DOCKED: ATOM     19  C   UNL d   1      -4.004  -7.285  17.451 -0.11 -0.00    +0.052 C 
DOCKED: ATOM     20  C   UNL d   1      -7.059 -11.699  14.367 -0.23 +0.04    +0.066 A 
DOCKED: ATOM     21  C   UNL d   1      -7.958 -12.774  14.316 -0.26 -0.01    -0.025 A 
DOCKED: ATOM     22  C   UNL d   1      -7.872 -13.277  13.034 -0.33 -0.01    -0.021 A 
DOCKED: ATOM     23  C   UNL d   1      -6.925 -12.498  12.359 -0.31 +0.04    +0.066 A 
DOCKED: ATOM     24  C   UNL d   1      -8.852 -13.309  15.410 -0.19 +0.02    +0.051 C 
DOCKED: ATOM     25  N   UNL d   1      -4.598 -11.134  11.000 -0.15 -0.10    -0.248 N 
DOCKED: ATOM     26  N   UNL d   1      -3.070  -9.262  12.519 -0.11 -0.08    -0.248 N 
DOCKED: ATOM     27  N   UNL d   1      -4.859  -9.674  14.729 -0.10 -0.15    -0.248 N 
DOCKED: ATOM     28  N   UNL d   1      -6.400 -11.566  13.191 -0.18 -0.15    -0.248 N 
DOCKED: ATOM     29 FE   UNL d   1      -4.736 -10.414  12.856 -0.05 +0.00    +0.000 Fe
DOCKED: ENDROOT
DOCKED: BRANCH   6  30
DOCKED: ATOM     30  C   UNL d   1      -5.849 -12.939   8.047 -0.32 +0.04    +0.052 C 
DOCKED: BRANCH  30  31
DOCKED: ATOM     31  C   UNL d   1      -5.658 -14.427   8.316 -0.19 +0.10    +0.115 C 
DOCKED: BRANCH  31  32
DOCKED: ATOM     32  C   UNL d   1      -6.326 -15.246   7.247 -0.21 +0.23    +0.139 C 
DOCKED: ATOM     33  O   UNL d   1      -7.405 -15.783   7.457 -0.47 -1.73    -0.650 OA
DOCKED: BRANCH  32  34
DOCKED: ATOM     34  O   UNL d   1      -5.741 -15.395   6.047 -0.41 -1.66    -0.776 OA
DOCKED: ATOM     35  H   UNL d   1      -4.778 -15.476   6.001 +0.04 +0.22    +0.167 HD
DOCKED: ENDBRANCH  32  34
DOCKED: ENDBRANCH  31  32
DOCKED: ENDBRANCH  30  31
DOCKED: ENDBRANCH   6  30
DOCKED: BRANCH  22  36
DOCKED: ATOM     36  C   UNL d   1      -8.624 -14.470  12.505 +0.04 +0.02    +0.052 C 
DOCKED: BRANCH  36  37
DOCKED: ATOM     37  C   UNL d   1      -7.769 -15.721  12.651 -0.17 +0.05    +0.115 C 
DOCKED: BRANCH  37  38
DOCKED: ATOM     38  C   UNL d   1      -7.912 -16.614  11.451 -0.13 +0.11    +0.139 C 
DOCKED: ATOM     39  O   UNL d   1      -6.928 -16.989  10.830 -0.01 -0.55    -0.650 OA
DOCKED: BRANCH  38  40
DOCKED: ATOM     40  O   UNL d   1      -9.134 -17.005  11.047 -0.37 -1.12    -0.776 OA
DOCKED: ATOM     41  H   UNL d   1      -9.858 -16.363  11.050 -0.57 +0.22    +0.167 HD
DOCKED: ENDBRANCH  38  40
DOCKED: ENDBRANCH  37  38
DOCKED: ENDBRANCH  36  37
DOCKED: ENDBRANCH  22  36
DOCKED: BRANCH  12  42
DOCKED: ATOM     42  C   UNL d   1      -0.163  -7.151  13.550 -0.23 +0.00    +0.004 C 
DOCKED: ATOM     43  C   UNL d   1      -0.268  -5.816  13.552 -0.39 -0.00    +0.012 C 
DOCKED: ENDBRANCH  12  42
DOCKED: BRANCH  17  44
DOCKED: ATOM     44  C   UNL d   1      -6.581  -8.992  17.923 -0.13 +0.00    +0.004 C 
DOCKED: ATOM     45  C   UNL d   1      -7.774  -8.394  17.838 -0.22 -0.00    +0.012 C 
DOCKED: ENDBRANCH  17  44
DOCKED: TORSDOF 10
DOCKED: TER
DOCKED: ENDMDL
________________________________________________________________________________


	BEGINNING GENETIC ALGORITHM DOCKING 84 of 100
Run: 84 Seed: 1978101941 770678715 [ Run 84 of 100 GA/GALS ]
Beginning LAMARCKIAN GENETIC ALGORITHM (LGA), with a maximum of 25000000 energy evaluations.

Final-Value: -14.402


	FINAL GENETIC ALGORITHM DOCKED STATE
	_______________________________________________


Detailed state:  trans -5.743 -11.126 12.076 quatxyzw -0.610296 -0.018797 -0.447796 0.653195 center -0.174 -0.001 -0.047 ntor 10 120.5884 145.4470 47.1901 47.5418 105.4141 -100.5380 -18.2582 16.6282 180.0000 169.4070
State:	 -5.743 -11.126  12.076  -0.806 -0.025 -0.591 98.434    120.59  145.45   47.19   47.54  105.41 -100.54  -18.26   16.63  180.00  169.41

DOCKED: MODEL       84
DOCKED: USER    Run = 84
DOCKED: USER    DPF = D:/Protein_go_brrr/autodock/final/AncB/heme_Fe/dock.dpf
DOCKED: USER  
DOCKED: USER    Estimated Free Energy of Binding    =   -9.87 kcal/mol  [=(1)+(2)+(3)-(4)]
DOCKED: USER    Estimated Inhibition Constant, Ki   =   58.45 nM (nanomolar)  [Temperature = 298.15 K]
DOCKED: USER    
DOCKED: USER    (1) Final Intermolecular Energy     =  -12.85 kcal/mol
DOCKED: USER        vdW + Hbond + desolv Energy     =   -8.82 kcal/mol
DOCKED: USER        Electrostatic Energy            =   -4.03 kcal/mol
DOCKED: USER    (2) Final Total Internal Energy     =   -1.55 kcal/mol
DOCKED: USER    (3) Torsional Free Energy           =   +2.98 kcal/mol
DOCKED: USER    (4) Unbound System's Energy  [=(2)] =   -1.55 kcal/mol
DOCKED: USER    
DOCKED: USER    
DOCKED: USER    NEWDPF move heme_Fe_opt.pdbqt
DOCKED: USER    NEWDPF about -0.174000 -0.001000 -0.047000
DOCKED: USER    NEWDPF tran0 -5.743175 -11.126422 12.076284
DOCKED: USER    NEWDPF quaternion0 -0.610296 -0.018797 -0.447796 0.653195
DOCKED: USER    NEWDPF axisangle0 -0.806002 -0.024825 -0.591392 98.434154
DOCKED: USER    NEWDPF quat0 -0.806002 -0.024825 -0.591392 98.434154
DOCKED: USER    NEWDPF dihe0 120.59 145.45 47.19 47.54 105.41 -100.54 -18.26 16.63 180.00 169.41 
DOCKED: USER  keepresnum = 1 
DOCKED: USER  
DOCKED: REMARK  10 active torsions:
DOCKED: REMARK  status: ('A' for Active; 'I' for Inactive)
DOCKED: REMARK    1  A    between atoms: C_6  and  C_10 
DOCKED: REMARK    2  A    between atoms: C_10  and  C_11 
DOCKED: REMARK    3  A    between atoms: C_11  and  C_12 
DOCKED: REMARK    4  A    between atoms: C_12  and  O_14 
DOCKED: REMARK    5  A    between atoms: C_17  and  C_20 
DOCKED: REMARK    6  A    between atoms: C_24  and  C_27 
DOCKED: REMARK    7  A    between atoms: C_31  and  C_34 
DOCKED: REMARK    8  A    between atoms: C_34  and  C_35 
DOCKED: REMARK    9  A    between atoms: C_35  and  C_36 
DOCKED: REMARK   10  A    between atoms: C_36  and  O_38 
DOCKED: USER                              x       y       z     vdW  Elec       q    Type
DOCKED: USER                           _______ _______ _______ _____ _____    ______ ____
DOCKED: ROOT
DOCKED: ATOM      1  C   UNL d   1      -6.591 -12.737  11.129 -0.29 +0.04    +0.064 C 
DOCKED: ATOM      2  C   UNL d   1      -2.648  -9.880  10.280 -0.29 +0.02    +0.064 A 
DOCKED: ATOM      3  C   UNL d   1      -2.980  -8.207  14.769 -0.18 +0.01    +0.064 C 
DOCKED: ATOM      4  C   UNL d   1      -6.860 -10.885  15.579 -0.19 +0.04    +0.064 C 
DOCKED: ATOM      5  C   UNL d   1      -5.501 -12.026  10.447 -0.22 +0.03    +0.066 A 
DOCKED: ATOM      6  C   UNL d   1      -5.182 -12.168   9.106 -0.26 -0.01    -0.021 A 
DOCKED: ATOM      7  C   UNL d   1      -4.085 -11.377   8.872 -0.23 -0.01    -0.025 A 
DOCKED: ATOM      8  C   UNL d   1      -3.776 -10.782  10.080 -0.24 +0.02    +0.066 A 
DOCKED: ATOM      9  C   UNL d   1      -3.392 -11.196   7.556 -0.30 +0.02    +0.051 C 
DOCKED: ATOM     10  C   UNL d   1      -2.363  -9.249  11.419 -0.23 +0.02    +0.066 A 
DOCKED: ATOM     11  C   UNL d   1      -1.211  -8.481  11.612 -0.26 -0.00    -0.021 A 
DOCKED: ATOM     12  C   UNL d   1      -1.274  -8.001  12.905 -0.23 +0.00    +0.000 A 
DOCKED: ATOM     13  C   UNL d   1      -2.469  -8.512  13.442 -0.15 +0.02    +0.070 A 
DOCKED: ATOM     14  C   UNL d   1      -0.072  -8.272  10.636 -0.10 +0.01    +0.052 C 
DOCKED: ATOM     15  C   UNL d   1      -4.102  -8.737  15.309 -0.14 +0.02    +0.066 A 
DOCKED: ATOM     16  C   UNL d   1      -4.610  -8.345  16.541 -0.15 -0.00    -0.021 A 
DOCKED: ATOM     17  C   UNL d   1      -5.727  -9.118  16.778 -0.15 +0.00    +0.000 A 
DOCKED: ATOM     18  C   UNL d   1      -5.873  -9.969  15.685 -0.09 +0.05    +0.070 A 
DOCKED: ATOM     19  C   UNL d   1      -4.054  -7.301  17.473 -0.11 -0.00    +0.052 C 
DOCKED: ATOM     20  C   UNL d   1      -7.080 -11.755  14.417 -0.23 +0.04    +0.066 A 
DOCKED: ATOM     21  C   UNL d   1      -7.968 -12.839  14.374 -0.25 -0.01    -0.025 A 
DOCKED: ATOM     22  C   UNL d   1      -7.885 -13.344  13.093 -0.32 -0.01    -0.021 A 
DOCKED: ATOM     23  C   UNL d   1      -6.950 -12.557  12.410 -0.31 +0.04    +0.066 A 
DOCKED: ATOM     24  C   UNL d   1      -8.850 -13.381  15.475 -0.18 +0.02    +0.051 C 
DOCKED: ATOM     25  N   UNL d   1      -4.646 -11.172  11.034 -0.15 -0.11    -0.248 N 
DOCKED: ATOM     26  N   UNL d   1      -3.128  -9.280  12.540 -0.10 -0.08    -0.248 N 
DOCKED: ATOM     27  N   UNL d   1      -4.900  -9.706  14.762 -0.10 -0.15    -0.248 N 
DOCKED: ATOM     28  N   UNL d   1      -6.429 -11.617  13.237 -0.18 -0.15    -0.248 N 
DOCKED: ATOM     29 FE   UNL d   1      -4.780 -10.449  12.890 -0.05 +0.00    +0.000 Fe
DOCKED: ENDROOT
DOCKED: BRANCH   6  30
DOCKED: ATOM     30  C   UNL d   1      -5.895 -12.996   8.093 -0.32 +0.04    +0.052 C 
DOCKED: BRANCH  30  31
DOCKED: ATOM     31  C   UNL d   1      -5.303 -14.400   8.028 -0.16 +0.10    +0.115 C 
DOCKED: BRANCH  31  32
DOCKED: ATOM     32  C   UNL d   1      -6.264 -15.346   7.363 -0.21 +0.22    +0.139 C 
DOCKED: ATOM     33  O   UNL d   1      -6.068 -15.730   6.218 -0.46 -1.56    -0.650 OA
DOCKED: BRANCH  32  34
DOCKED: ATOM     34  O   UNL d   1      -7.351 -15.778   8.023 -0.36 -1.96    -0.776 OA
DOCKED: ATOM     35  H   UNL d   1      -7.235 -16.263   8.853 +0.01 +0.37    +0.167 HD
DOCKED: ENDBRANCH  32  34
DOCKED: ENDBRANCH  31  32
DOCKED: ENDBRANCH  30  31
DOCKED: ENDBRANCH   6  30
DOCKED: BRANCH  22  36
DOCKED: ATOM     36  C   UNL d   1      -8.627 -14.546  12.571 +0.00 +0.02    +0.052 C 
DOCKED: BRANCH  36  37
DOCKED: ATOM     37  C   UNL d   1      -7.761 -15.788  12.720 -0.16 +0.05    +0.115 C 
DOCKED: BRANCH  37  38
DOCKED: ATOM     38  C   UNL d   1      -8.289 -16.918  11.881 -0.16 +0.10    +0.139 C 
DOCKED: ATOM     39  O   UNL d   1      -8.950 -17.814  12.385 -0.02 -0.41    -0.650 OA
DOCKED: BRANCH  38  40
DOCKED: ATOM     40  O   UNL d   1      -8.033 -16.950  10.562 -0.04 -1.09    -0.776 OA
DOCKED: ATOM     41  H   UNL d   1      -7.988 -16.118  10.070 -0.28 +0.27    +0.167 HD
DOCKED: ENDBRANCH  38  40
DOCKED: ENDBRANCH  37  38
DOCKED: ENDBRANCH  36  37
DOCKED: ENDBRANCH  22  36
DOCKED: BRANCH  12  42
DOCKED: ATOM     42  C   UNL d   1      -0.238  -7.136  13.549 -0.23 +0.00    +0.004 C 
DOCKED: ATOM     43  C   UNL d   1      -0.363  -5.802  13.557 -0.40 -0.00    +0.012 C 
DOCKED: ENDBRANCH  12  42
DOCKED: BRANCH  17  44
DOCKED: ATOM     44  C   UNL d   1      -6.610  -9.034  17.964 -0.13 +0.00    +0.004 C 
DOCKED: ATOM     45  C   UNL d   1      -7.785  -8.400  17.899 -0.22 -0.00    +0.012 C 
DOCKED: ENDBRANCH  17  44
DOCKED: TORSDOF 10
DOCKED: TER
DOCKED: ENDMDL
________________________________________________________________________________


	BEGINNING GENETIC ALGORITHM DOCKING 85 of 100
Run: 85 Seed: 1827493305 1568503492 [ Run 85 of 100 GA/GALS ]
Beginning LAMARCKIAN GENETIC ALGORITHM (LGA), with a maximum of 25000000 energy evaluations.

Final-Value: -13.621


	FINAL GENETIC ALGORITHM DOCKED STATE
	_______________________________________________


Detailed state:  trans -5.741 -11.087 12.055 quatxyzw -0.608560 0.005442 -0.467433 0.641196 center -0.174 -0.001 -0.047 ntor 10 101.4640 138.4998 41.3212 52.9513 50.4643 -147.2843 0.4595 -10.1934 -145.7214 -180.0000
State:	 -5.741 -11.087  12.055  -0.793  0.007 -0.609 100.238    101.46  138.50   41.32   52.95   50.46 -147.28    0.46  -10.19 -145.72 -180.00

DOCKED: MODEL       85
DOCKED: USER    Run = 85
DOCKED: USER    DPF = D:/Protein_go_brrr/autodock/final/AncB/heme_Fe/dock.dpf
DOCKED: USER  
DOCKED: USER    Estimated Free Energy of Binding    =  -10.25 kcal/mol  [=(1)+(2)+(3)-(4)]
DOCKED: USER    Estimated Inhibition Constant, Ki   =   30.41 nM (nanomolar)  [Temperature = 298.15 K]
DOCKED: USER    
DOCKED: USER    (1) Final Intermolecular Energy     =  -13.24 kcal/mol
DOCKED: USER        vdW + Hbond + desolv Energy     =   -9.37 kcal/mol
DOCKED: USER        Electrostatic Energy            =   -3.87 kcal/mol
DOCKED: USER    (2) Final Total Internal Energy     =   -0.38 kcal/mol
DOCKED: USER    (3) Torsional Free Energy           =   +2.98 kcal/mol
DOCKED: USER    (4) Unbound System's Energy  [=(2)] =   -0.38 kcal/mol
DOCKED: USER    
DOCKED: USER    
DOCKED: USER    NEWDPF move heme_Fe_opt.pdbqt
DOCKED: USER    NEWDPF about -0.174000 -0.001000 -0.047000
DOCKED: USER    NEWDPF tran0 -5.741184 -11.087103 12.054666
DOCKED: USER    NEWDPF quaternion0 -0.608560 0.005442 -0.467433 0.641196
DOCKED: USER    NEWDPF axisangle0 -0.793039 0.007092 -0.609130 100.237886
DOCKED: USER    NEWDPF quat0 -0.793039 0.007092 -0.609130 100.237886
DOCKED: USER    NEWDPF dihe0 101.46 138.50 41.32 52.95 50.46 -147.28 0.46 -10.19 -145.72 -180.00 
DOCKED: USER  keepresnum = 1 
DOCKED: USER  
DOCKED: REMARK  10 active torsions:
DOCKED: REMARK  status: ('A' for Active; 'I' for Inactive)
DOCKED: REMARK    1  A    between atoms: C_6  and  C_10 
DOCKED: REMARK    2  A    between atoms: C_10  and  C_11 
DOCKED: REMARK    3  A    between atoms: C_11  and  C_12 
DOCKED: REMARK    4  A    between atoms: C_12  and  O_14 
DOCKED: REMARK    5  A    between atoms: C_17  and  C_20 
DOCKED: REMARK    6  A    between atoms: C_24  and  C_27 
DOCKED: REMARK    7  A    between atoms: C_31  and  C_34 
DOCKED: REMARK    8  A    between atoms: C_34  and  C_35 
DOCKED: REMARK    9  A    between atoms: C_35  and  C_36 
DOCKED: REMARK   10  A    between atoms: C_36  and  O_38 
DOCKED: USER                              x       y       z     vdW  Elec       q    Type
DOCKED: USER                           _______ _______ _______ _____ _____    ______ ____
DOCKED: ROOT
DOCKED: ATOM      1  C   UNL d   1      -6.522 -12.669  11.006 -0.27 +0.04    +0.064 C 
DOCKED: ATOM      2  C   UNL d   1      -2.560  -9.761  10.481 -0.28 +0.02    +0.064 A 
DOCKED: ATOM      3  C   UNL d   1      -3.157  -8.248  15.000 -0.18 +0.01    +0.064 C 
DOCKED: ATOM      4  C   UNL d   1      -7.056 -10.975  15.494 -0.20 +0.04    +0.064 C 
DOCKED: ATOM      5  C   UNL d   1      -5.401 -11.928  10.412 -0.23 +0.03    +0.066 A 
DOCKED: ATOM      6  C   UNL d   1      -5.005 -12.021   9.087 -0.25 -0.01    -0.021 A 
DOCKED: ATOM      7  C   UNL d   1      -3.902 -11.216   8.943 -0.23 -0.01    -0.025 A 
DOCKED: ATOM      8  C   UNL d   1      -3.667 -10.662  10.187 -0.25 +0.02    +0.066 A 
DOCKED: ATOM      9  C   UNL d   1      -3.138 -10.984   7.676 -0.32 +0.02    +0.051 C 
DOCKED: ATOM     10  C   UNL d   1      -2.344  -9.168  11.656 -0.21 +0.02    +0.066 A 
DOCKED: ATOM     11  C   UNL d   1      -1.211  -8.401  11.941 -0.25 -0.00    -0.021 A 
DOCKED: ATOM     12  C   UNL d   1      -1.351  -7.967  13.244 -0.21 +0.00    +0.000 A 
DOCKED: ATOM     13  C   UNL d   1      -2.570  -8.503  13.694 -0.15 +0.02    +0.070 A 
DOCKED: ATOM     14  C   UNL d   1      -0.020  -8.151  11.038 -0.25 +0.01    +0.052 C 
DOCKED: ATOM     15  C   UNL d   1      -4.305  -8.803  15.457 -0.14 +0.02    +0.066 A 
DOCKED: ATOM     16  C   UNL d   1      -4.884  -8.457  16.670 -0.15 -0.00    -0.021 A 
DOCKED: ATOM     17  C   UNL d   1      -6.007  -9.245  16.817 -0.15 +0.00    +0.000 A 
DOCKED: ATOM     18  C   UNL d   1      -6.084 -10.058  15.688 -0.10 +0.05    +0.070 A 
DOCKED: ATOM     19  C   UNL d   1      -4.391  -7.443  17.668 -0.10 -0.00    +0.052 C 
DOCKED: ATOM     20  C   UNL d   1      -7.204 -11.805  14.293 -0.25 +0.04    +0.066 A 
DOCKED: ATOM     21  C   UNL d   1      -8.079 -12.892  14.161 -0.27 -0.01    -0.025 A 
DOCKED: ATOM     22  C   UNL d   1      -7.920 -13.352  12.870 -0.33 -0.01    -0.021 A 
DOCKED: ATOM     23  C   UNL d   1      -6.954 -12.535  12.270 -0.32 +0.04    +0.066 A 
DOCKED: ATOM     24  C   UNL d   1      -9.017 -13.478  15.191 -0.19 +0.02    +0.051 C 
DOCKED: ATOM     25  N   UNL d   1      -4.586 -11.089  11.075 -0.15 -0.11    -0.248 N 
DOCKED: ATOM     26  N   UNL d   1      -3.171  -9.242  12.730 -0.10 -0.09    -0.248 N 
DOCKED: ATOM     27  N   UNL d   1      -5.062  -9.756  14.831 -0.09 -0.16    -0.248 N 
DOCKED: ATOM     28  N   UNL d   1      -6.488 -11.622  13.156 -0.19 -0.15    -0.248 N 
DOCKED: ATOM     29 FE   UNL d   1      -4.831 -10.432  12.945 -0.05 +0.00    +0.000 Fe
DOCKED: ENDROOT
DOCKED: BRANCH   6  30
DOCKED: ATOM     30  C   UNL d   1      -5.653 -12.817   8.006 -0.32 +0.04    +0.052 C 
DOCKED: BRANCH  30  31
DOCKED: ATOM     31  C   UNL d   1      -5.740 -14.288   8.397 -0.21 +0.10    +0.115 C 
DOCKED: BRANCH  31  32
DOCKED: ATOM     32  C   UNL d   1      -6.383 -15.087   7.298 -0.23 +0.22    +0.139 C 
DOCKED: ATOM     33  O   UNL d   1      -5.988 -14.991   6.144 -0.40 -1.35    -0.650 OA
DOCKED: BRANCH  32  34
DOCKED: ATOM     34  O   UNL d   1      -7.402 -15.917   7.575 -0.32 -2.12    -0.776 OA
DOCKED: ATOM     35  H   UNL d   1      -7.211 -16.781   7.967 +0.03 +0.43    +0.167 HD
DOCKED: ENDBRANCH  32  34
DOCKED: ENDBRANCH  31  32
DOCKED: ENDBRANCH  30  31
DOCKED: ENDBRANCH   6  30
DOCKED: BRANCH  22  36
DOCKED: ATOM     36  C   UNL d   1      -8.621 -14.539  12.266 +0.26 +0.02    +0.052 C 
DOCKED: BRANCH  36  37
DOCKED: ATOM     37  C   UNL d   1      -7.888 -15.817  12.647 -0.17 +0.05    +0.115 C 
DOCKED: BRANCH  37  38
DOCKED: ATOM     38  C   UNL d   1      -8.700 -17.030  12.291 -0.18 +0.09    +0.139 C 
DOCKED: ATOM     39  O   UNL d   1      -8.641 -18.044  12.972 +0.02 -0.30    -0.650 OA
DOCKED: BRANCH  38  40
DOCKED: ATOM     40  O   UNL d   1      -9.500 -17.009  11.210 -0.48 -1.08    -0.776 OA
DOCKED: ATOM     41  H   UNL d   1     -10.027 -16.218  11.031 -0.57 +0.21    +0.167 HD
DOCKED: ENDBRANCH  38  40
DOCKED: ENDBRANCH  37  38
DOCKED: ENDBRANCH  36  37
DOCKED: ENDBRANCH  22  36
DOCKED: BRANCH  12  42
DOCKED: ATOM     42  C   UNL d   1      -0.360  -7.118  13.975 -0.21 +0.00    +0.004 C 
DOCKED: ATOM     43  C   UNL d   1      -0.428  -5.781  13.926 -0.38 -0.00    +0.012 C 
DOCKED: ENDBRANCH  12  42
DOCKED: BRANCH  17  44
DOCKED: ATOM     44  C   UNL d   1      -6.956  -9.208  17.953 -0.13 +0.00    +0.004 C 
DOCKED: ATOM     45  C   UNL d   1      -8.173  -8.673  17.811 -0.22 +0.00    +0.012 C 
DOCKED: ENDBRANCH  17  44
DOCKED: TORSDOF 10
DOCKED: TER
DOCKED: ENDMDL
________________________________________________________________________________


	BEGINNING GENETIC ALGORITHM DOCKING 86 of 100
Run: 86 Seed: 1376951249 1950084536 [ Run 86 of 100 GA/GALS ]
Beginning LAMARCKIAN GENETIC ALGORITHM (LGA), with a maximum of 25000000 energy evaluations.

Final-Value: -13.163


	FINAL GENETIC ALGORITHM DOCKED STATE
	_______________________________________________


Detailed state:  trans -5.053 -12.583 12.710 quatxyzw -0.544121 -0.651691 0.086278 -0.521332 center -0.174 -0.001 -0.047 ntor 10 150.8383 -116.2930 -125.3384 59.2333 -176.1893 -105.2332 -32.6069 34.0691 139.2599 143.3594
State:	 -5.053 -12.583  12.710  -0.638 -0.764  0.101 -117.157    150.84 -116.29 -125.34   59.23 -176.19 -105.23  -32.61   34.07  139.26  143.36

DOCKED: MODEL       86
DOCKED: USER    Run = 86
DOCKED: USER    DPF = D:/Protein_go_brrr/autodock/final/AncB/heme_Fe/dock.dpf
DOCKED: USER  
DOCKED: USER    Estimated Free Energy of Binding    =   -8.83 kcal/mol  [=(1)+(2)+(3)-(4)]
DOCKED: USER    Estimated Inhibition Constant, Ki   =  336.58 nM (nanomolar)  [Temperature = 298.15 K]
DOCKED: USER    
DOCKED: USER    (1) Final Intermolecular Energy     =  -11.81 kcal/mol
DOCKED: USER        vdW + Hbond + desolv Energy     =   -7.47 kcal/mol
DOCKED: USER        Electrostatic Energy            =   -4.34 kcal/mol
DOCKED: USER    (2) Final Total Internal Energy     =   -1.35 kcal/mol
DOCKED: USER    (3) Torsional Free Energy           =   +2.98 kcal/mol
DOCKED: USER    (4) Unbound System's Energy  [=(2)] =   -1.35 kcal/mol
DOCKED: USER    
DOCKED: USER    
DOCKED: USER    NEWDPF move heme_Fe_opt.pdbqt
DOCKED: USER    NEWDPF about -0.174000 -0.001000 -0.047000
DOCKED: USER    NEWDPF tran0 -5.052951 -12.582551 12.710329
DOCKED: USER    NEWDPF quaternion0 -0.544121 -0.651691 0.086278 -0.521332
DOCKED: USER    NEWDPF axisangle0 -0.637626 -0.763682 0.101105 -117.156740
DOCKED: USER    NEWDPF quat0 -0.637626 -0.763682 0.101105 -117.156740
DOCKED: USER    NEWDPF dihe0 150.84 -116.29 -125.34 59.23 -176.19 -105.23 -32.61 34.07 139.26 143.36 
DOCKED: USER  keepresnum = 1 
DOCKED: USER  
DOCKED: REMARK  10 active torsions:
DOCKED: REMARK  status: ('A' for Active; 'I' for Inactive)
DOCKED: REMARK    1  A    between atoms: C_6  and  C_10 
DOCKED: REMARK    2  A    between atoms: C_10  and  C_11 
DOCKED: REMARK    3  A    between atoms: C_11  and  C_12 
DOCKED: REMARK    4  A    between atoms: C_12  and  O_14 
DOCKED: REMARK    5  A    between atoms: C_17  and  C_20 
DOCKED: REMARK    6  A    between atoms: C_24  and  C_27 
DOCKED: REMARK    7  A    between atoms: C_31  and  C_34 
DOCKED: REMARK    8  A    between atoms: C_34  and  C_35 
DOCKED: REMARK    9  A    between atoms: C_35  and  C_36 
DOCKED: REMARK   10  A    between atoms: C_36  and  O_38 
DOCKED: USER                              x       y       z     vdW  Elec       q    Type
DOCKED: USER                           _______ _______ _______ _____ _____    ______ ____
DOCKED: ROOT
DOCKED: ATOM      1  C   UNL d   1      -5.770 -13.947  11.355 -0.16 +0.03    +0.064 C 
DOCKED: ATOM      2  C   UNL d   1      -7.183 -12.423  15.840 -0.08 +0.02    +0.064 A 
DOCKED: ATOM      3  C   UNL d   1      -4.253  -8.643  15.403 -0.16 +0.02    +0.064 C 
DOCKED: ATOM      4  C   UNL d   1      -2.793 -10.155  11.106 -0.24 +0.02    +0.064 C 
DOCKED: ATOM      5  C   UNL d   1      -6.377 -13.913  12.693 -0.13 +0.03    +0.066 A 
DOCKED: ATOM      6  C   UNL d   1      -7.194 -14.902  13.216 -0.14 -0.01    -0.021 A 
DOCKED: ATOM      7  C   UNL d   1      -7.589 -14.476  14.460 -0.11 -0.01    -0.025 A 
DOCKED: ATOM      8  C   UNL d   1      -6.997 -13.243  14.649 -0.10 +0.02    +0.066 A 
DOCKED: ATOM      9  C   UNL d   1      -8.470 -15.227  15.411 -0.10 +0.01    +0.051 C 
DOCKED: ATOM     10  C   UNL d   1      -6.578 -11.257  16.072 -0.10 +0.03    +0.066 A 
DOCKED: ATOM     11  C   UNL d   1      -6.864 -10.441  17.169 -0.09 -0.01    -0.021 A 
DOCKED: ATOM     12  C   UNL d   1      -6.044  -9.336  17.058 -0.14 +0.00    +0.000 A 
DOCKED: ATOM     13  C   UNL d   1      -5.299  -9.533  15.882 -0.13 +0.04    +0.070 A 
DOCKED: ATOM     14  C   UNL d   1      -7.916 -10.669  18.235 -0.06 +0.01    +0.052 C 
DOCKED: ATOM     15  C   UNL d   1      -3.570  -8.801  14.245 -0.05 +0.02    +0.066 A 
DOCKED: ATOM     16  C   UNL d   1      -2.510  -7.984  13.872 -0.17 -0.00    -0.021 A 
DOCKED: ATOM     17  C   UNL d   1      -2.089  -8.417  12.631 -0.20 +0.00    +0.000 A 
DOCKED: ATOM     18  C   UNL d   1      -2.907  -9.487  12.274 -0.15 +0.02    +0.070 A 
DOCKED: ATOM     19  C   UNL d   1      -1.930  -6.826  14.638 -0.26 +0.00    +0.052 C 
DOCKED: ATOM     20  C   UNL d   1      -3.594 -11.324  10.723 -0.16 +0.02    +0.066 A 
DOCKED: ATOM     21  C   UNL d   1      -3.627 -11.900   9.445 -0.17 -0.01    -0.025 A 
DOCKED: ATOM     22  C   UNL d   1      -4.472 -12.986   9.542 -0.14 -0.01    -0.021 A 
DOCKED: ATOM     23  C   UNL d   1      -4.924 -13.027  10.867 -0.13 +0.03    +0.066 A 
DOCKED: ATOM     24  C   UNL d   1      -2.909 -11.456   8.191 -0.29 +0.02    +0.051 C 
DOCKED: ATOM     25  N   UNL d   1      -6.252 -12.907  13.577 -0.06 -0.10    -0.248 N 
DOCKED: ATOM     26  N   UNL d   1      -5.630 -10.700  15.276 -0.09 -0.13    -0.248 N 
DOCKED: ATOM     27  N   UNL d   1      -3.788  -9.752  13.285 -0.12 -0.10    -0.248 N 
DOCKED: ATOM     28  N   UNL d   1      -4.420 -11.984  11.571 -0.07 -0.09    -0.248 N 
DOCKED: ATOM     29 FE   UNL d   1      -5.024 -11.341  13.422 -0.04 +0.00    +0.000 Fe
DOCKED: ENDROOT
DOCKED: BRANCH   6  30
DOCKED: ATOM     30  C   UNL d   1      -7.566 -16.196  12.576 -0.15 +0.02    +0.052 C 
DOCKED: BRANCH  30  31
DOCKED: ATOM     31  C   UNL d   1      -9.072 -16.423  12.652 -0.14 +0.06    +0.115 C 
DOCKED: BRANCH  31  32
DOCKED: ATOM     32  C   UNL d   1      -9.550 -17.183  11.446 -0.10 +0.16    +0.139 C 
DOCKED: ATOM     33  O   UNL d   1     -10.741 -17.408  11.284 -0.81 -0.86    -0.650 OA
DOCKED: BRANCH  32  34
DOCKED: ATOM     34  O   UNL d   1      -8.669 -17.624  10.533 -0.10 -1.33    -0.776 OA
DOCKED: ATOM     35  H   UNL d   1      -7.846 -17.133  10.399 -0.02 +0.24    +0.167 HD
DOCKED: ENDBRANCH  32  34
DOCKED: ENDBRANCH  31  32
DOCKED: ENDBRANCH  30  31
DOCKED: ENDBRANCH   6  30
DOCKED: BRANCH  22  36
DOCKED: ATOM     36  C   UNL d   1      -4.860 -13.903   8.412 -0.15 +0.03    +0.052 C 
DOCKED: BRANCH  36  37
DOCKED: ATOM     37  C   UNL d   1      -6.367 -13.856   8.207 -0.28 +0.11    +0.115 C 
DOCKED: BRANCH  37  38
DOCKED: ATOM     38  C   UNL d   1      -6.890 -15.190   7.755 -0.18 +0.25    +0.139 C 
DOCKED: ATOM     39  O   UNL d   1      -7.226 -15.369   6.593 -0.28 -1.73    -0.650 OA
DOCKED: BRANCH  38  40
DOCKED: ATOM     40  O   UNL d   1      -6.997 -16.202   8.634 -0.52 -1.51    -0.776 OA
DOCKED: ATOM     41  H   UNL d   1      -7.604 -16.113   9.382 -0.07 +0.35    +0.167 HD
DOCKED: ENDBRANCH  38  40
DOCKED: ENDBRANCH  37  38
DOCKED: ENDBRANCH  36  37
DOCKED: ENDBRANCH  22  36
DOCKED: BRANCH  12  42
DOCKED: ATOM     42  C   UNL d   1      -6.019  -8.188  18.016 -0.13 -0.00    +0.004 C 
DOCKED: ATOM     43  C   UNL d   1      -6.972  -7.246  17.988 -0.18 -0.00    +0.012 C 
DOCKED: ENDBRANCH  12  42
DOCKED: BRANCH  17  44
DOCKED: ATOM     44  C   UNL d   1      -0.966  -7.856  11.848 -0.32 +0.00    +0.004 C 
DOCKED: ATOM     45  C   UNL d   1       0.138  -8.576  11.621 -0.19 +0.00    +0.012 C 
DOCKED: ENDBRANCH  17  44
DOCKED: TORSDOF 10
DOCKED: TER
DOCKED: ENDMDL
________________________________________________________________________________


	BEGINNING GENETIC ALGORITHM DOCKING 87 of 100
Run: 87 Seed: 1755308619 340998505 [ Run 87 of 100 GA/GALS ]
Beginning LAMARCKIAN GENETIC ALGORITHM (LGA), with a maximum of 25000000 energy evaluations.

Final-Value: -20.105


	FINAL GENETIC ALGORITHM DOCKED STATE
	_______________________________________________


Detailed state:  trans -0.151 -1.637 -9.345 quatxyzw -0.582247 -0.371657 -0.465366 -0.553438 center -0.174 -0.001 -0.047 ntor 10 -76.2500 -13.3006 75.9160 -104.0149 19.1116 154.1694 -37.5904 68.6696 -176.9372 164.7362
State:	 -0.151  -1.637  -9.345  -0.699 -0.446 -0.559 -112.794    -76.25  -13.30   75.92 -104.01   19.11  154.17  -37.59   68.67 -176.94  164.74

DOCKED: MODEL       87
DOCKED: USER    Run = 87
DOCKED: USER    DPF = D:/Protein_go_brrr/autodock/final/AncB/heme_Fe/dock.dpf
DOCKED: USER  
DOCKED: USER    Estimated Free Energy of Binding    =  -14.71 kcal/mol  [=(1)+(2)+(3)-(4)]
DOCKED: USER    Estimated Inhibition Constant, Ki   =   16.46 pM (picomolar)  [Temperature = 298.15 K]
DOCKED: USER    
DOCKED: USER    (1) Final Intermolecular Energy     =  -17.69 kcal/mol
DOCKED: USER        vdW + Hbond + desolv Energy     =  -14.04 kcal/mol
DOCKED: USER        Electrostatic Energy            =   -3.66 kcal/mol
DOCKED: USER    (2) Final Total Internal Energy     =   -2.41 kcal/mol
DOCKED: USER    (3) Torsional Free Energy           =   +2.98 kcal/mol
DOCKED: USER    (4) Unbound System's Energy  [=(2)] =   -2.41 kcal/mol
DOCKED: USER    
DOCKED: USER    
DOCKED: USER    NEWDPF move heme_Fe_opt.pdbqt
DOCKED: USER    NEWDPF about -0.174000 -0.001000 -0.047000
DOCKED: USER    NEWDPF tran0 -0.151093 -1.636834 -9.345485
DOCKED: USER    NEWDPF quaternion0 -0.582247 -0.371657 -0.465366 -0.553438
DOCKED: USER    NEWDPF axisangle0 -0.699068 -0.446226 -0.558737 -112.793612
DOCKED: USER    NEWDPF quat0 -0.699068 -0.446226 -0.558737 -112.793612
DOCKED: USER    NEWDPF dihe0 -76.25 -13.30 75.92 -104.01 19.11 154.17 -37.59 68.67 -176.94 164.74 
DOCKED: USER  keepresnum = 1 
DOCKED: USER  
DOCKED: REMARK  10 active torsions:
DOCKED: REMARK  status: ('A' for Active; 'I' for Inactive)
DOCKED: REMARK    1  A    between atoms: C_6  and  C_10 
DOCKED: REMARK    2  A    between atoms: C_10  and  C_11 
DOCKED: REMARK    3  A    between atoms: C_11  and  C_12 
DOCKED: REMARK    4  A    between atoms: C_12  and  O_14 
DOCKED: REMARK    5  A    between atoms: C_17  and  C_20 
DOCKED: REMARK    6  A    between atoms: C_24  and  C_27 
DOCKED: REMARK    7  A    between atoms: C_31  and  C_34 
DOCKED: REMARK    8  A    between atoms: C_34  and  C_35 
DOCKED: REMARK    9  A    between atoms: C_35  and  C_36 
DOCKED: REMARK   10  A    between atoms: C_36  and  O_38 
DOCKED: USER                              x       y       z     vdW  Elec       q    Type
DOCKED: USER                           _______ _______ _______ _____ _____    ______ ____
DOCKED: ROOT
DOCKED: ATOM      1  C   UNL d   1      -0.713  -0.940 -11.192 -0.23 +0.05    +0.064 C 
DOCKED: ATOM      2  C   UNL d   1      -2.829  -1.063  -6.727 -0.40 +0.02    +0.064 A 
DOCKED: ATOM      3  C   UNL d   1       1.454  -2.073  -4.802 -0.43 +0.01    +0.064 C 
DOCKED: ATOM      4  C   UNL d   1       3.502  -2.063  -9.125 -0.52 +0.02    +0.064 C 
DOCKED: ATOM      5  C   UNL d   1      -1.721  -0.964 -10.123 -0.32 +0.05    +0.066 A 
DOCKED: ATOM      6  C   UNL d   1      -3.085  -0.823 -10.319 -0.29 -0.02    -0.021 A 
DOCKED: ATOM      7  C   UNL d   1      -3.672  -0.854  -9.078 -0.29 -0.01    -0.025 A 
DOCKED: ATOM      8  C   UNL d   1      -2.642  -1.012  -8.171 -0.35 +0.03    +0.066 A 
DOCKED: ATOM      9  C   UNL d   1      -5.139  -0.756  -8.793 -0.30 +0.02    +0.051 C 
DOCKED: ATOM     10  C   UNL d   1      -1.860  -1.273  -5.834 -0.40 +0.02    +0.066 A 
DOCKED: ATOM     11  C   UNL d   1      -2.052  -1.202  -4.452 -0.44 -0.00    -0.021 A 
DOCKED: ATOM     12  C   UNL d   1      -0.828  -1.473  -3.874 -0.40 +0.00    +0.000 A 
DOCKED: ATOM     13  C   UNL d   1       0.058  -1.689  -4.944 -0.38 +0.02    +0.070 A 
DOCKED: ATOM     14  C   UNL d   1      -3.323  -0.827  -3.718 -0.59 +0.01    +0.052 C 
DOCKED: ATOM     15  C   UNL d   1       2.323  -2.231  -5.827 -0.39 +0.02    +0.066 A 
DOCKED: ATOM     16  C   UNL d   1       3.621  -2.696  -5.657 -0.48 -0.00    -0.021 A 
DOCKED: ATOM     17  C   UNL d   1       4.215  -2.691  -6.902 -0.50 +0.00    +0.000 A 
DOCKED: ATOM     18  C   UNL d   1       3.265  -2.218  -7.804 -0.42 +0.02    +0.070 A 
DOCKED: ATOM     19  C   UNL d   1       4.288  -3.106  -4.371 -0.63 +0.01    +0.052 C 
DOCKED: ATOM     20  C   UNL d   1       2.508  -1.627 -10.113 -0.43 +0.02    +0.066 A 
DOCKED: ATOM     21  C   UNL d   1       2.788  -1.271 -11.440 -0.43 -0.01    -0.025 A 
DOCKED: ATOM     22  C   UNL d   1       1.571  -0.967 -12.015 -0.25 -0.01    -0.021 A 
DOCKED: ATOM     23  C   UNL d   1       0.603  -1.142 -11.019 -0.09 +0.04    +0.066 A 
DOCKED: ATOM     24  C   UNL d   1       4.127  -1.213 -12.139 -0.52 +0.01    +0.051 C 
DOCKED: ATOM     25  N   UNL d   1      -1.458  -1.088  -8.811 -0.24 -0.12    -0.248 N 
DOCKED: ATOM     26  N   UNL d   1      -0.569  -1.558  -6.139 -0.25 -0.07    -0.248 N 
DOCKED: ATOM     27  N   UNL d   1       2.088  -1.977  -7.152 -0.15 -0.10    -0.248 N 
DOCKED: ATOM     28  N   UNL d   1       1.185  -1.501  -9.849 -0.26 -0.13    -0.248 N 
DOCKED: ATOM     29 FE   UNL d   1       0.310  -1.530  -7.995 -0.09 +0.00    +0.000 Fe
DOCKED: ENDROOT
DOCKED: BRANCH   6  30
DOCKED: ATOM     30  C   UNL d   1      -3.800  -0.688 -11.620 -0.09 +0.08    +0.052 C 
DOCKED: BRANCH  30  31
DOCKED: ATOM     31  C   UNL d   1      -3.874   0.774 -12.047 -0.21 +0.14    +0.115 C 
DOCKED: BRANCH  31  32
DOCKED: ATOM     32  C   UNL d   1      -3.707   0.897 -13.536 -0.16 +0.22    +0.139 C 
DOCKED: ATOM     33  O   UNL d   1      -3.884  -0.069 -14.265 +0.10 -1.40    -0.650 OA
DOCKED: BRANCH  32  34
DOCKED: ATOM     34  O   UNL d   1      -3.360   2.075 -14.081 -0.40 -1.72    -0.776 OA
DOCKED: ATOM     35  H   UNL d   1      -2.449   2.203 -14.381 +0.02 +0.33    +0.167 HD
DOCKED: ENDBRANCH  32  34
DOCKED: ENDBRANCH  31  32
DOCKED: ENDBRANCH  30  31
DOCKED: ENDBRANCH   6  30
DOCKED: BRANCH  22  36
DOCKED: ATOM     36  C   UNL d   1       1.360  -0.488 -13.427 -0.27 +0.03    +0.052 C 
DOCKED: BRANCH  36  37
DOCKED: ATOM     37  C   UNL d   1       1.219   1.027 -13.439 -0.13 +0.07    +0.115 C 
DOCKED: BRANCH  37  38
DOCKED: ATOM     38  C   UNL d   1      -0.177   1.435 -13.817 -0.16 +0.13    +0.139 C 
DOCKED: ATOM     39  O   UNL d   1      -0.636   2.506 -13.449 -0.27 -0.78    -0.650 OA
DOCKED: BRANCH  38  40
DOCKED: ATOM     40  O   UNL d   1      -0.937   0.615 -14.565 +0.04 -0.86    -0.776 OA
DOCKED: ATOM     41  H   UNL d   1      -1.885   0.789 -14.637 +0.04 +0.23    +0.167 HD
DOCKED: ENDBRANCH  38  40
DOCKED: ENDBRANCH  37  38
DOCKED: ENDBRANCH  36  37
DOCKED: ENDBRANCH  22  36
DOCKED: BRANCH  12  42
DOCKED: ATOM     42  C   UNL d   1      -0.562  -1.495  -2.402 -0.49 +0.00    +0.004 C 
DOCKED: ATOM     43  C   UNL d   1      -0.045  -2.581  -1.811 -0.57 +0.00    +0.012 C 
DOCKED: ENDBRANCH  12  42
DOCKED: BRANCH  17  44
DOCKED: ATOM     44  C   UNL d   1       5.595  -3.129  -7.211 -0.44 +0.00    +0.004 C 
DOCKED: ATOM     45  C   UNL d   1       6.633  -2.673  -6.503 -0.60 +0.00    +0.012 C 
DOCKED: ENDBRANCH  17  44
DOCKED: TORSDOF 10
DOCKED: TER
DOCKED: ENDMDL
________________________________________________________________________________


	BEGINNING GENETIC ALGORITHM DOCKING 88 of 100
Run: 88 Seed: 1736914039 76053256 [ Run 88 of 100 GA/GALS ]
Beginning LAMARCKIAN GENETIC ALGORITHM (LGA), with a maximum of 25000000 energy evaluations.

Final-Value: -18.497


	FINAL GENETIC ALGORITHM DOCKED STATE
	_______________________________________________


Detailed state:  trans -0.399 -0.903 -9.225 quatxyzw 0.622420 -0.455052 0.281436 -0.571240 center -0.174 -0.001 -0.047 ntor 10 107.2558 129.0425 81.7221 -128.7437 163.0346 101.4458 77.7855 -42.3491 27.4803 17.5440
State:	 -0.399  -0.903  -9.225   0.758 -0.554  0.343 -110.326    107.26  129.04   81.72 -128.74  163.03  101.45   77.79  -42.35   27.48   17.54

DOCKED: MODEL       88
DOCKED: USER    Run = 88
DOCKED: USER    DPF = D:/Protein_go_brrr/autodock/final/AncB/heme_Fe/dock.dpf
DOCKED: USER  
DOCKED: USER    Estimated Free Energy of Binding    =  -13.90 kcal/mol  [=(1)+(2)+(3)-(4)]
DOCKED: USER    Estimated Inhibition Constant, Ki   =   64.98 pM (picomolar)  [Temperature = 298.15 K]
DOCKED: USER    
DOCKED: USER    (1) Final Intermolecular Energy     =  -16.88 kcal/mol
DOCKED: USER        vdW + Hbond + desolv Energy     =  -13.64 kcal/mol
DOCKED: USER        Electrostatic Energy            =   -3.24 kcal/mol
DOCKED: USER    (2) Final Total Internal Energy     =   -1.62 kcal/mol
DOCKED: USER    (3) Torsional Free Energy           =   +2.98 kcal/mol
DOCKED: USER    (4) Unbound System's Energy  [=(2)] =   -1.62 kcal/mol
DOCKED: USER    
DOCKED: USER    
DOCKED: USER    NEWDPF move heme_Fe_opt.pdbqt
DOCKED: USER    NEWDPF about -0.174000 -0.001000 -0.047000
DOCKED: USER    NEWDPF tran0 -0.398987 -0.902921 -9.225429
DOCKED: USER    NEWDPF quaternion0 0.622420 -0.455052 0.281436 -0.571240
DOCKED: USER    NEWDPF axisangle0 0.758324 -0.554412 0.342887 -110.326463
DOCKED: USER    NEWDPF quat0 0.758324 -0.554412 0.342887 -110.326463
DOCKED: USER    NEWDPF dihe0 107.26 129.04 81.72 -128.74 163.03 101.45 77.79 -42.35 27.48 17.54 
DOCKED: USER  keepresnum = 1 
DOCKED: USER  
DOCKED: REMARK  10 active torsions:
DOCKED: REMARK  status: ('A' for Active; 'I' for Inactive)
DOCKED: REMARK    1  A    between atoms: C_6  and  C_10 
DOCKED: REMARK    2  A    between atoms: C_10  and  C_11 
DOCKED: REMARK    3  A    between atoms: C_11  and  C_12 
DOCKED: REMARK    4  A    between atoms: C_12  and  O_14 
DOCKED: REMARK    5  A    between atoms: C_17  and  C_20 
DOCKED: REMARK    6  A    between atoms: C_24  and  C_27 
DOCKED: REMARK    7  A    between atoms: C_31  and  C_34 
DOCKED: REMARK    8  A    between atoms: C_34  and  C_35 
DOCKED: REMARK    9  A    between atoms: C_35  and  C_36 
DOCKED: REMARK   10  A    between atoms: C_36  and  O_38 
DOCKED: USER                              x       y       z     vdW  Elec       q    Type
DOCKED: USER                           _______ _______ _______ _____ _____    ______ ____
DOCKED: ROOT
DOCKED: ATOM      1  C   UNL d   1      -1.284  -0.936 -11.077 -0.33 +0.06    +0.064 C 
DOCKED: ATOM      2  C   UNL d   1       3.263  -1.865  -9.375 -0.45 +0.02    +0.064 A 
DOCKED: ATOM      3  C   UNL d   1       1.481  -2.058  -4.919 -0.44 +0.01    +0.064 C 
DOCKED: ATOM      4  C   UNL d   1      -2.910  -1.056  -6.533 -0.47 +0.02    +0.064 C 
DOCKED: ATOM      5  C   UNL d   1       0.175  -1.097 -11.002 -0.12 +0.04    +0.066 A 
DOCKED: ATOM      6  C   UNL d   1       1.039  -0.988 -12.079 -0.21 -0.01    -0.021 A 
DOCKED: ATOM      7  C   UNL d   1       2.301  -1.250 -11.607 -0.36 -0.01    -0.025 A 
DOCKED: ATOM      8  C   UNL d   1       2.159  -1.509 -10.257 -0.41 +0.03    +0.066 A 
DOCKED: ATOM      9  C   UNL d   1       3.566  -1.231 -12.409 -0.48 +0.01    +0.051 C 
DOCKED: ATOM     10  C   UNL d   1       3.162  -2.063  -8.059 -0.42 +0.02    +0.066 A 
DOCKED: ATOM     11  C   UNL d   1       4.215  -2.515  -7.261 -0.49 -0.01    -0.021 A 
DOCKED: ATOM     12  C   UNL d   1       3.722  -2.596  -5.974 -0.49 +0.00    +0.000 A 
DOCKED: ATOM     13  C   UNL d   1       2.378  -2.192  -6.056 -0.39 +0.02    +0.070 A 
DOCKED: ATOM     14  C   UNL d   1       5.604  -2.918  -7.713 -0.43 +0.01    +0.052 C 
DOCKED: ATOM     15  C   UNL d   1       0.172  -1.720  -4.999 -0.39 +0.01    +0.066 A 
DOCKED: ATOM     16  C   UNL d   1      -0.626  -1.506  -3.883 -0.39 -0.00    -0.021 A 
DOCKED: ATOM     17  C   UNL d   1      -1.894  -1.220  -4.346 -0.43 +0.00    +0.000 A 
DOCKED: ATOM     18  C   UNL d   1      -1.840  -1.271  -5.737 -0.40 +0.02    +0.070 A 
DOCKED: ATOM     19  C   UNL d   1      -0.222  -1.591  -2.435 -0.43 +0.01    +0.052 C 
DOCKED: ATOM     20  C   UNL d   1      -2.878  -1.041  -8.001 -0.35 +0.03    +0.066 A 
DOCKED: ATOM     21  C   UNL d   1      -4.004  -1.019  -8.835 -0.25 -0.01    -0.025 A 
DOCKED: ATOM     22  C   UNL d   1      -3.517  -0.972 -10.125 -0.28 -0.02    -0.021 A 
DOCKED: ATOM     23  C   UNL d   1      -2.121  -0.974 -10.028 -0.31 +0.05    +0.066 A 
DOCKED: ATOM     24  C   UNL d   1      -5.465  -1.045  -8.449 -0.25 +0.02    +0.051 C 
DOCKED: ATOM     25  N   UNL d   1       0.866  -1.405  -9.890 -0.22 -0.13    -0.248 N 
DOCKED: ATOM     26  N   UNL d   1       2.034  -1.876  -7.328 -0.16 -0.11    -0.248 N 
DOCKED: ATOM     27  N   UNL d   1      -0.561  -1.535  -6.141 -0.25 -0.07    -0.248 N 
DOCKED: ATOM     28  N   UNL d   1      -1.736  -1.061  -8.731 -0.24 -0.12    -0.248 N 
DOCKED: ATOM     29 FE   UNL d   1       0.147  -1.468  -8.029 -0.09 +0.00    +0.000 Fe
DOCKED: ENDROOT
DOCKED: BRANCH   6  30
DOCKED: ATOM     30  C   UNL d   1       0.688  -0.633 -13.484 -0.25 +0.04    +0.052 C 
DOCKED: BRANCH  30  31
DOCKED: ATOM     31  C   UNL d   1       1.356   0.676 -13.892 -0.21 +0.07    +0.115 C 
DOCKED: BRANCH  31  32
DOCKED: ATOM     32  C   UNL d   1       0.366   1.806 -13.852 -0.17 +0.11    +0.139 C 
DOCKED: ATOM     33  O   UNL d   1       0.747   2.969 -13.838 -0.37 -0.56    -0.650 OA
DOCKED: BRANCH  32  34
DOCKED: ATOM     34  O   UNL d   1      -0.953   1.548 -13.829 +0.03 -0.87    -0.776 OA
DOCKED: ATOM     35  H   UNL d   1      -1.382   1.227 -14.635 +0.04 +0.20    +0.167 HD
DOCKED: ENDBRANCH  32  34
DOCKED: ENDBRANCH  31  32
DOCKED: ENDBRANCH  30  31
DOCKED: ENDBRANCH   6  30
DOCKED: BRANCH  22  36
DOCKED: ATOM     36  C   UNL d   1      -4.350  -0.976 -11.380 -0.17 +0.07    +0.052 C 
DOCKED: BRANCH  36  37
DOCKED: ATOM     37  C   UNL d   1      -4.184   0.348 -12.110 -0.19 +0.15    +0.115 C 
DOCKED: BRANCH  37  38
DOCKED: ATOM     38  C   UNL d   1      -4.025   0.132 -13.589 -0.00 +0.26    +0.139 C 
DOCKED: ATOM     39  O   UNL d   1      -4.964   0.309 -14.351 -0.00 -0.98    -0.650 OA
DOCKED: BRANCH  38  40
DOCKED: ATOM     40  O   UNL d   1      -2.839  -0.264 -14.086 +0.11 -1.90    -0.776 OA
DOCKED: ATOM     41  H   UNL d   1      -2.041   0.225 -13.843 +0.04 +0.27    +0.167 HD
DOCKED: ENDBRANCH  38  40
DOCKED: ENDBRANCH  37  38
DOCKED: ENDBRANCH  36  37
DOCKED: ENDBRANCH  22  36
DOCKED: BRANCH  12  42
DOCKED: ATOM     42  C   UNL d   1       4.506  -3.048  -4.783 -0.67 +0.00    +0.004 C 
DOCKED: ATOM     43  C   UNL d   1       4.536  -2.320  -3.659 -0.63 +0.00    +0.012 C 
DOCKED: ENDBRANCH  12  42
DOCKED: BRANCH  17  44
DOCKED: ATOM     44  C   UNL d   1      -3.074  -0.899  -3.513 -0.61 +0.00    +0.004 C 
DOCKED: ATOM     45  C   UNL d   1      -3.715  -1.857  -2.834 -0.67 +0.00    +0.012 C 
DOCKED: ENDBRANCH  17  44
DOCKED: TORSDOF 10
DOCKED: TER
DOCKED: ENDMDL
________________________________________________________________________________


	BEGINNING GENETIC ALGORITHM DOCKING 89 of 100
Run: 89 Seed: 1117452038 1355688089 [ Run 89 of 100 GA/GALS ]
Beginning LAMARCKIAN GENETIC ALGORITHM (LGA), with a maximum of 25000000 energy evaluations.

Final-Value: -14.188


	FINAL GENETIC ALGORITHM DOCKED STATE
	_______________________________________________


Detailed state:  trans -5.759 -11.159 12.069 quatxyzw 0.605614 0.020443 0.451288 -0.655098 center -0.174 -0.001 -0.047 ntor 10 -139.7007 84.9495 46.4636 48.1982 -81.1338 -46.2706 -9.6654 32.2356 -170.6567 156.1534
State:	 -5.759 -11.159  12.069   0.802  0.027  0.597 -98.146   -139.70   84.95   46.46   48.20  -81.13  -46.27   -9.67   32.24 -170.66  156.15

DOCKED: MODEL       89
DOCKED: USER    Run = 89
DOCKED: USER    DPF = D:/Protein_go_brrr/autodock/final/AncB/heme_Fe/dock.dpf
DOCKED: USER  
DOCKED: USER    Estimated Free Energy of Binding    =  -10.28 kcal/mol  [=(1)+(2)+(3)-(4)]
DOCKED: USER    Estimated Inhibition Constant, Ki   =   29.10 nM (nanomolar)  [Temperature = 298.15 K]
DOCKED: USER    
DOCKED: USER    (1) Final Intermolecular Energy     =  -13.26 kcal/mol
DOCKED: USER        vdW + Hbond + desolv Energy     =   -8.94 kcal/mol
DOCKED: USER        Electrostatic Energy            =   -4.33 kcal/mol
DOCKED: USER    (2) Final Total Internal Energy     =   -0.92 kcal/mol
DOCKED: USER    (3) Torsional Free Energy           =   +2.98 kcal/mol
DOCKED: USER    (4) Unbound System's Energy  [=(2)] =   -0.92 kcal/mol
DOCKED: USER    
DOCKED: USER    
DOCKED: USER    NEWDPF move heme_Fe_opt.pdbqt
DOCKED: USER    NEWDPF about -0.174000 -0.001000 -0.047000
DOCKED: USER    NEWDPF tran0 -5.759141 -11.158940 12.069422
DOCKED: USER    NEWDPF quaternion0 0.605614 0.020443 0.451288 -0.655098
DOCKED: USER    NEWDPF axisangle0 0.801560 0.027058 0.597302 -98.145877
DOCKED: USER    NEWDPF quat0 0.801560 0.027058 0.597302 -98.145877
DOCKED: USER    NEWDPF dihe0 -139.70 84.95 46.46 48.20 -81.13 -46.27 -9.67 32.24 -170.66 156.15 
DOCKED: USER  keepresnum = 1 
DOCKED: USER  
DOCKED: REMARK  10 active torsions:
DOCKED: REMARK  status: ('A' for Active; 'I' for Inactive)
DOCKED: REMARK    1  A    between atoms: C_6  and  C_10 
DOCKED: REMARK    2  A    between atoms: C_10  and  C_11 
DOCKED: REMARK    3  A    between atoms: C_11  and  C_12 
DOCKED: REMARK    4  A    between atoms: C_12  and  O_14 
DOCKED: REMARK    5  A    between atoms: C_17  and  C_20 
DOCKED: REMARK    6  A    between atoms: C_24  and  C_27 
DOCKED: REMARK    7  A    between atoms: C_31  and  C_34 
DOCKED: REMARK    8  A    between atoms: C_34  and  C_35 
DOCKED: REMARK    9  A    between atoms: C_35  and  C_36 
DOCKED: REMARK   10  A    between atoms: C_36  and  O_38 
DOCKED: USER                              x       y       z     vdW  Elec       q    Type
DOCKED: USER                           _______ _______ _______ _____ _____    ______ ____
DOCKED: ROOT
DOCKED: ATOM      1  C   UNL d   1      -6.593 -12.783  11.133 -0.29 +0.04    +0.064 C 
DOCKED: ATOM      2  C   UNL d   1      -2.659  -9.915  10.280 -0.28 +0.02    +0.064 A 
DOCKED: ATOM      3  C   UNL d   1      -3.027  -8.199  14.751 -0.18 +0.01    +0.064 C 
DOCKED: ATOM      4  C   UNL d   1      -6.899 -10.889  15.562 -0.19 +0.04    +0.064 C 
DOCKED: ATOM      5  C   UNL d   1      -5.502 -12.074  10.451 -0.23 +0.03    +0.066 A 
DOCKED: ATOM      6  C   UNL d   1      -5.174 -12.227   9.114 -0.25 -0.01    -0.021 A 
DOCKED: ATOM      7  C   UNL d   1      -4.079 -11.433   8.879 -0.23 -0.01    -0.025 A 
DOCKED: ATOM      8  C   UNL d   1      -3.781 -10.824  10.082 -0.24 +0.02    +0.066 A 
DOCKED: ATOM      9  C   UNL d   1      -3.379 -11.260   7.565 -0.32 +0.02    +0.051 C 
DOCKED: ATOM     10  C   UNL d   1      -2.384  -9.270  11.416 -0.24 +0.02    +0.066 A 
DOCKED: ATOM     11  C   UNL d   1      -1.238  -8.496  11.608 -0.26 -0.00    -0.021 A 
DOCKED: ATOM     12  C   UNL d   1      -1.312  -8.003  12.896 -0.23 +0.00    +0.000 A 
DOCKED: ATOM     13  C   UNL d   1      -2.507  -8.515  13.430 -0.14 +0.02    +0.070 A 
DOCKED: ATOM     14  C   UNL d   1      -0.093  -8.290  10.637 -0.10 +0.01    +0.052 C 
DOCKED: ATOM     15  C   UNL d   1      -4.151  -8.730  15.289 -0.13 +0.02    +0.066 A 
DOCKED: ATOM     16  C   UNL d   1      -4.668  -8.328  16.514 -0.16 -0.00    -0.021 A 
DOCKED: ATOM     17  C   UNL d   1      -5.783  -9.105  16.752 -0.16 +0.00    +0.000 A 
DOCKED: ATOM     18  C   UNL d   1      -5.917  -9.967  15.666 -0.08 +0.05    +0.070 A 
DOCKED: ATOM     19  C   UNL d   1      -4.124  -7.273  17.439 -0.12 -0.00    +0.052 C 
DOCKED: ATOM     20  C   UNL d   1      -7.108 -11.771  14.408 -0.23 +0.04    +0.066 A 
DOCKED: ATOM     21  C   UNL d   1      -7.990 -12.860  14.369 -0.25 -0.01    -0.025 A 
DOCKED: ATOM     22  C   UNL d   1      -7.896 -13.377  13.094 -0.32 -0.01    -0.021 A 
DOCKED: ATOM     23  C   UNL d   1      -6.961 -12.592  12.410 -0.31 +0.04    +0.066 A 
DOCKED: ATOM     24  C   UNL d   1      -8.876 -13.396  15.470 -0.18 +0.02    +0.051 C 
DOCKED: ATOM     25  N   UNL d   1      -4.655 -11.209  11.034 -0.15 -0.11    -0.248 N 
DOCKED: ATOM     26  N   UNL d   1      -3.157  -9.294  12.531 -0.10 -0.08    -0.248 N 
DOCKED: ATOM     27  N   UNL d   1      -4.940  -9.708  14.746 -0.10 -0.16    -0.248 N 
DOCKED: ATOM     28  N   UNL d   1      -6.450 -11.642  13.230 -0.18 -0.15    -0.248 N 
DOCKED: ATOM     29 FE   UNL d   1      -4.805 -10.468  12.882 -0.05 +0.00    +0.000 Fe
DOCKED: ENDROOT
DOCKED: BRANCH   6  30
DOCKED: ATOM     30  C   UNL d   1      -5.876 -13.068   8.103 -0.31 +0.04    +0.052 C 
DOCKED: BRANCH  30  31
DOCKED: ATOM     31  C   UNL d   1      -5.438 -14.524   8.214 -0.16 +0.10    +0.115 C 
DOCKED: BRANCH  31  32
DOCKED: ATOM     32  C   UNL d   1      -6.311 -15.403   7.362 -0.21 +0.23    +0.139 C 
DOCKED: ATOM     33  O   UNL d   1      -7.405 -15.772   7.764 -0.46 -1.72    -0.650 OA
DOCKED: BRANCH  32  34
DOCKED: ATOM     34  O   UNL d   1      -5.894 -15.791   6.145 -0.47 -1.78    -0.776 OA
DOCKED: ATOM     35  H   UNL d   1      -4.967 -16.043   6.024 +0.04 +0.25    +0.167 HD
DOCKED: ENDBRANCH  32  34
DOCKED: ENDBRANCH  31  32
DOCKED: ENDBRANCH  30  31
DOCKED: ENDBRANCH   6  30
DOCKED: BRANCH  22  36
DOCKED: ATOM     36  C   UNL d   1      -8.629 -14.589  12.580 -0.00 +0.02    +0.052 C 
DOCKED: BRANCH  36  37
DOCKED: ATOM     37  C   UNL d   1      -7.660 -15.753  12.438 -0.17 +0.05    +0.115 C 
DOCKED: BRANCH  37  38
DOCKED: ATOM     38  C   UNL d   1      -8.063 -16.656  11.307 -0.05 +0.13    +0.139 C 
DOCKED: ATOM     39  O   UNL d   1      -9.224 -17.015  11.177 -0.44 -0.88    -0.650 OA
DOCKED: BRANCH  38  40
DOCKED: ATOM     40  O   UNL d   1      -7.141 -17.080  10.425 -0.01 -0.83    -0.776 OA
DOCKED: ATOM     41  H   UNL d   1      -7.025 -16.596   9.596 +0.01 +0.24    +0.167 HD
DOCKED: ENDBRANCH  38  40
DOCKED: ENDBRANCH  37  38
DOCKED: ENDBRANCH  36  37
DOCKED: ENDBRANCH  22  36
DOCKED: BRANCH  12  42
DOCKED: ATOM     42  C   UNL d   1      -0.284  -7.126  13.537 -0.24 +0.00    +0.004 C 
DOCKED: ATOM     43  C   UNL d   1      -0.408  -5.793  13.520 -0.40 -0.00    +0.012 C 
DOCKED: ENDBRANCH  12  42
DOCKED: BRANCH  17  44
DOCKED: ATOM     44  C   UNL d   1      -6.674  -9.014  17.931 -0.13 +0.00    +0.004 C 
DOCKED: ATOM     45  C   UNL d   1      -7.858  -8.398  17.849 -0.22 -0.00    +0.012 C 
DOCKED: ENDBRANCH  17  44
DOCKED: TORSDOF 10
DOCKED: TER
DOCKED: ENDMDL
________________________________________________________________________________


	BEGINNING GENETIC ALGORITHM DOCKING 90 of 100
Run: 90 Seed: 1748170810 1702148506 [ Run 90 of 100 GA/GALS ]
Beginning LAMARCKIAN GENETIC ALGORITHM (LGA), with a maximum of 25000000 energy evaluations.

Final-Value: -14.180


	FINAL GENETIC ALGORITHM DOCKED STATE
	_______________________________________________


Detailed state:  trans -5.123 -11.635 11.269 quatxyzw -0.594439 -0.009148 -0.546241 0.590068 center -0.174 -0.001 -0.047 ntor 10 78.7080 -67.9577 34.8213 46.5673 -23.2159 -145.4266 35.7042 35.7574 -37.3802 146.4327
State:	 -5.123 -11.635  11.269  -0.736 -0.011 -0.677 107.676     78.71  -67.96   34.82   46.57  -23.22 -145.43   35.70   35.76  -37.38  146.43

DOCKED: MODEL       90
DOCKED: USER    Run = 90
DOCKED: USER    DPF = D:/Protein_go_brrr/autodock/final/AncB/heme_Fe/dock.dpf
DOCKED: USER  
DOCKED: USER    Estimated Free Energy of Binding    =   -9.26 kcal/mol  [=(1)+(2)+(3)-(4)]
DOCKED: USER    Estimated Inhibition Constant, Ki   =  162.38 nM (nanomolar)  [Temperature = 298.15 K]
DOCKED: USER    
DOCKED: USER    (1) Final Intermolecular Energy     =  -12.25 kcal/mol
DOCKED: USER        vdW + Hbond + desolv Energy     =   -8.27 kcal/mol
DOCKED: USER        Electrostatic Energy            =   -3.97 kcal/mol
DOCKED: USER    (2) Final Total Internal Energy     =   -1.93 kcal/mol
DOCKED: USER    (3) Torsional Free Energy           =   +2.98 kcal/mol
DOCKED: USER    (4) Unbound System's Energy  [=(2)] =   -1.93 kcal/mol
DOCKED: USER    
DOCKED: USER    
DOCKED: USER    NEWDPF move heme_Fe_opt.pdbqt
DOCKED: USER    NEWDPF about -0.174000 -0.001000 -0.047000
DOCKED: USER    NEWDPF tran0 -5.122786 -11.634558 11.269352
DOCKED: USER    NEWDPF quaternion0 -0.594439 -0.009148 -0.546241 0.590068
DOCKED: USER    NEWDPF axisangle0 -0.736280 -0.011330 -0.676582 107.676391
DOCKED: USER    NEWDPF quat0 -0.736280 -0.011330 -0.676582 107.676391
DOCKED: USER    NEWDPF dihe0 78.71 -67.96 34.82 46.57 -23.22 -145.43 35.70 35.76 -37.38 146.43 
DOCKED: USER  keepresnum = 1 
DOCKED: USER  
DOCKED: REMARK  10 active torsions:
DOCKED: REMARK  status: ('A' for Active; 'I' for Inactive)
DOCKED: REMARK    1  A    between atoms: C_6  and  C_10 
DOCKED: REMARK    2  A    between atoms: C_10  and  C_11 
DOCKED: REMARK    3  A    between atoms: C_11  and  C_12 
DOCKED: REMARK    4  A    between atoms: C_12  and  O_14 
DOCKED: REMARK    5  A    between atoms: C_17  and  C_20 
DOCKED: REMARK    6  A    between atoms: C_24  and  C_27 
DOCKED: REMARK    7  A    between atoms: C_31  and  C_34 
DOCKED: REMARK    8  A    between atoms: C_34  and  C_35 
DOCKED: REMARK    9  A    between atoms: C_35  and  C_36 
DOCKED: REMARK   10  A    between atoms: C_36  and  O_38 
DOCKED: USER                              x       y       z     vdW  Elec       q    Type
DOCKED: USER                           _______ _______ _______ _____ _____    ______ ____
DOCKED: ROOT
DOCKED: ATOM      1  C   UNL d   1      -5.533 -13.283  10.118 -0.22 +0.03    +0.064 C 
DOCKED: ATOM      2  C   UNL d   1      -2.081  -9.746  10.028 -0.28 +0.01    +0.064 A 
DOCKED: ATOM      3  C   UNL d   1      -3.319  -8.520  14.504 -0.16 +0.02    +0.064 C 
DOCKED: ATOM      4  C   UNL d   1      -6.736 -11.868  14.574 -0.20 +0.03    +0.064 C 
DOCKED: ATOM      5  C   UNL d   1      -4.503 -12.347   9.647 -0.17 +0.03    +0.066 A 
DOCKED: ATOM      6  C   UNL d   1      -3.982 -12.324   8.364 -0.20 -0.01    -0.021 A 
DOCKED: ATOM      7  C   UNL d   1      -3.021 -11.344   8.340 -0.27 -0.01    -0.025 A 
DOCKED: ATOM      8  C   UNL d   1      -2.993 -10.805   9.612 -0.23 +0.02    +0.066 A 
DOCKED: ATOM      9  C   UNL d   1      -2.198 -10.943   7.155 -0.34 +0.01    +0.051 C 
DOCKED: ATOM     10  C   UNL d   1      -2.072  -9.169  11.231 -0.25 +0.01    +0.066 A 
DOCKED: ATOM     11  C   UNL d   1      -1.113  -8.238  11.636 -0.27 -0.00    -0.021 A 
DOCKED: ATOM     12  C   UNL d   1      -1.438  -7.881  12.930 -0.23 +0.00    +0.000 A 
DOCKED: ATOM     13  C   UNL d   1      -2.585  -8.627  13.253 -0.10 +0.02    +0.070 A 
DOCKED: ATOM     14  C   UNL d   1       0.094  -7.762  10.854 -0.19 +0.00    +0.052 C 
DOCKED: ATOM     15  C   UNL d   1      -4.393  -9.273  14.839 -0.10 +0.03    +0.066 A 
DOCKED: ATOM     16  C   UNL d   1      -5.127  -9.072  16.001 -0.15 -0.01    -0.021 A 
DOCKED: ATOM     17  C   UNL d   1      -6.111 -10.039  16.025 -0.14 +0.00    +0.000 A 
DOCKED: ATOM     18  C   UNL d   1      -5.951 -10.811  14.877 -0.14 +0.04    +0.070 A 
DOCKED: ATOM     19  C   UNL d   1      -4.900  -8.029  17.062 -0.16 +0.00    +0.052 C 
DOCKED: ATOM     20  C   UNL d   1      -6.636 -12.665  13.345 -0.20 +0.03    +0.066 A 
DOCKED: ATOM     21  C   UNL d   1      -7.303 -13.876  13.109 -0.23 -0.01    -0.025 A 
DOCKED: ATOM     22  C   UNL d   1      -6.956 -14.255  11.829 -0.23 -0.01    -0.021 A 
DOCKED: ATOM     23  C   UNL d   1      -6.090 -13.269  11.339 -0.21 +0.03    +0.066 A 
DOCKED: ATOM     24  C   UNL d   1      -8.217 -14.646  14.034 -0.20 +0.02    +0.051 C 
DOCKED: ATOM     25  N   UNL d   1      -3.902 -11.411  10.402 -0.10 -0.09    -0.248 N 
DOCKED: ATOM     26  N   UNL d   1      -2.967  -9.419  12.221 -0.13 -0.08    -0.248 N 
DOCKED: ATOM     27  N   UNL d   1      -4.923 -10.314  14.126 -0.10 -0.14    -0.248 N 
DOCKED: ATOM     28  N   UNL d   1      -5.864 -12.325  12.285 -0.13 -0.12    -0.248 N 
DOCKED: ATOM     29 FE   UNL d   1      -4.417 -10.873  12.254 -0.05 +0.00    +0.000 Fe
DOCKED: ENDROOT
DOCKED: BRANCH   6  30
DOCKED: ATOM     30  C   UNL d   1      -4.390 -13.175   7.210 -0.22 +0.03    +0.052 C 
DOCKED: BRANCH  30  31
DOCKED: ATOM     31  C   UNL d   1      -5.900 -13.117   7.003 -0.32 +0.11    +0.115 C 
DOCKED: BRANCH  31  32
DOCKED: ATOM     32  C   UNL d   1      -6.421 -14.453   6.551 -0.19 +0.24    +0.139 C 
DOCKED: ATOM     33  O   UNL d   1      -5.681 -15.256   5.998 -0.43 -1.34    -0.650 OA
DOCKED: BRANCH  32  34
DOCKED: ATOM     34  O   UNL d   1      -7.709 -14.778   6.751 -0.08 -1.84    -0.776 OA
DOCKED: ATOM     35  H   UNL d   1      -7.936 -15.365   7.486 +0.05 +0.50    +0.167 HD
DOCKED: ENDBRANCH  32  34
DOCKED: ENDBRANCH  31  32
DOCKED: ENDBRANCH  30  31
DOCKED: ENDBRANCH   6  30
DOCKED: BRANCH  22  36
DOCKED: ATOM     36  C   UNL d   1      -7.393 -15.519  11.136 +0.07 +0.03    +0.052 C 
DOCKED: BRANCH  36  37
DOCKED: ATOM     37  C   UNL d   1      -6.180 -16.390  10.843 -0.09 +0.08    +0.115 C 
DOCKED: BRANCH  37  38
DOCKED: ATOM     38  C   UNL d   1      -6.348 -17.127   9.545 -0.10 +0.15    +0.139 C 
DOCKED: ATOM     39  O   UNL d   1      -5.897 -18.253   9.403 +0.02 -0.52    -0.650 OA
DOCKED: BRANCH  38  40
DOCKED: ATOM     40  O   UNL d   1      -6.997 -16.544   8.521 -0.53 -1.59    -0.776 OA
DOCKED: ATOM     41  H   UNL d   1      -6.500 -16.295   7.730 +0.03 +0.29    +0.167 HD
DOCKED: ENDBRANCH  38  40
DOCKED: ENDBRANCH  37  38
DOCKED: ENDBRANCH  36  37
DOCKED: ENDBRANCH  22  36
DOCKED: BRANCH  12  42
DOCKED: ATOM     42  C   UNL d   1      -0.670  -6.909  13.768 -0.27 +0.00    +0.004 C 
DOCKED: ATOM     43  C   UNL d   1      -0.868  -5.590  13.648 -0.43 -0.00    +0.012 C 
DOCKED: ENDBRANCH  12  42
DOCKED: BRANCH  17  44
DOCKED: ATOM     44  C   UNL d   1      -7.149 -10.200  17.068 -0.15 +0.00    +0.004 C 
DOCKED: ATOM     45  C   UNL d   1      -8.393  -9.752  16.871 -0.27 +0.00    +0.012 C 
DOCKED: ENDBRANCH  17  44
DOCKED: TORSDOF 10
DOCKED: TER
DOCKED: ENDMDL
________________________________________________________________________________


	BEGINNING GENETIC ALGORITHM DOCKING 91 of 100
Run: 91 Seed: 1224900559 1459964270 [ Run 91 of 100 GA/GALS ]
Beginning LAMARCKIAN GENETIC ALGORITHM (LGA), with a maximum of 25000000 energy evaluations.

Final-Value: -20.174


	FINAL GENETIC ALGORITHM DOCKED STATE
	_______________________________________________


Detailed state:  trans -0.259 -1.626 -9.251 quatxyzw 0.584358 0.372143 0.452733 0.561308 center -0.174 -0.001 -0.047 ntor 10 -61.2522 -55.5198 75.4589 -100.0349 27.5223 155.4889 -54.5544 56.8777 179.8721 179.0145
State:	 -0.259  -1.626  -9.251   0.706  0.450  0.547 111.707    -61.25  -55.52   75.46 -100.03   27.52  155.49  -54.55   56.88  179.87  179.01

DOCKED: MODEL       91
DOCKED: USER    Run = 91
DOCKED: USER    DPF = D:/Protein_go_brrr/autodock/final/AncB/heme_Fe/dock.dpf
DOCKED: USER  
DOCKED: USER    Estimated Free Energy of Binding    =  -14.67 kcal/mol  [=(1)+(2)+(3)-(4)]
DOCKED: USER    Estimated Inhibition Constant, Ki   =   17.55 pM (picomolar)  [Temperature = 298.15 K]
DOCKED: USER    
DOCKED: USER    (1) Final Intermolecular Energy     =  -17.66 kcal/mol
DOCKED: USER        vdW + Hbond + desolv Energy     =  -14.18 kcal/mol
DOCKED: USER        Electrostatic Energy            =   -3.48 kcal/mol
DOCKED: USER    (2) Final Total Internal Energy     =   -2.52 kcal/mol
DOCKED: USER    (3) Torsional Free Energy           =   +2.98 kcal/mol
DOCKED: USER    (4) Unbound System's Energy  [=(2)] =   -2.52 kcal/mol
DOCKED: USER    
DOCKED: USER    
DOCKED: USER    NEWDPF move heme_Fe_opt.pdbqt
DOCKED: USER    NEWDPF about -0.174000 -0.001000 -0.047000
DOCKED: USER    NEWDPF tran0 -0.259197 -1.625905 -9.250750
DOCKED: USER    NEWDPF quaternion0 0.584358 0.372143 0.452733 0.561308
DOCKED: USER    NEWDPF axisangle0 0.706082 0.449662 0.547039 111.707333
DOCKED: USER    NEWDPF quat0 0.706082 0.449662 0.547039 111.707333
DOCKED: USER    NEWDPF dihe0 -61.25 -55.52 75.46 -100.03 27.52 155.49 -54.55 56.88 179.87 179.01 
DOCKED: USER  keepresnum = 1 
DOCKED: USER  
DOCKED: REMARK  10 active torsions:
DOCKED: REMARK  status: ('A' for Active; 'I' for Inactive)
DOCKED: REMARK    1  A    between atoms: C_6  and  C_10 
DOCKED: REMARK    2  A    between atoms: C_10  and  C_11 
DOCKED: REMARK    3  A    between atoms: C_11  and  C_12 
DOCKED: REMARK    4  A    between atoms: C_12  and  O_14 
DOCKED: REMARK    5  A    between atoms: C_17  and  C_20 
DOCKED: REMARK    6  A    between atoms: C_24  and  C_27 
DOCKED: REMARK    7  A    between atoms: C_31  and  C_34 
DOCKED: REMARK    8  A    between atoms: C_34  and  C_35 
DOCKED: REMARK    9  A    between atoms: C_35  and  C_36 
DOCKED: REMARK   10  A    between atoms: C_36  and  O_38 
DOCKED: USER                              x       y       z     vdW  Elec       q    Type
DOCKED: USER                           _______ _______ _______ _____ _____    ______ ____
DOCKED: ROOT
DOCKED: ATOM      1  C   UNL d   1      -0.876  -0.947 -11.086 -0.27 +0.05    +0.064 C 
DOCKED: ATOM      2  C   UNL d   1      -2.890  -1.098  -6.575 -0.40 +0.02    +0.064 A 
DOCKED: ATOM      3  C   UNL d   1       1.453  -2.015  -4.742 -0.42 +0.01    +0.064 C 
DOCKED: ATOM      4  C   UNL d   1       3.406  -1.977  -9.109 -0.51 +0.02    +0.064 C 
DOCKED: ATOM      5  C   UNL d   1      -1.859  -0.987  -9.995 -0.32 +0.05    +0.066 A 
DOCKED: ATOM      6  C   UNL d   1      -3.230  -0.875 -10.162 -0.29 -0.02    -0.021 A 
DOCKED: ATOM      7  C   UNL d   1      -3.788  -0.914  -8.908 -0.28 -0.01    -0.025 A 
DOCKED: ATOM      8  C   UNL d   1      -2.736  -1.048  -8.024 -0.35 +0.03    +0.066 A 
DOCKED: ATOM      9  C   UNL d   1      -5.251  -0.844  -8.591 -0.29 +0.02    +0.051 C 
DOCKED: ATOM     10  C   UNL d   1      -1.898  -1.285  -5.703 -0.41 +0.02    +0.066 A 
DOCKED: ATOM     11  C   UNL d   1      -2.060  -1.214  -4.318 -0.44 -0.00    -0.021 A 
DOCKED: ATOM     12  C   UNL d   1      -0.819  -1.458  -3.766 -0.39 +0.00    +0.000 A 
DOCKED: ATOM     13  C   UNL d   1       0.048  -1.659  -4.855 -0.38 +0.02    +0.070 A 
DOCKED: ATOM     14  C   UNL d   1      -3.323  -0.863  -3.557 -0.61 +0.01    +0.052 C 
DOCKED: ATOM     15  C   UNL d   1       2.303  -2.159  -5.786 -0.39 +0.02    +0.066 A 
DOCKED: ATOM     16  C   UNL d   1       3.614  -2.597  -5.643 -0.47 -0.00    -0.021 A 
DOCKED: ATOM     17  C   UNL d   1       4.180  -2.583  -6.901 -0.50 +0.00    +0.000 A 
DOCKED: ATOM     18  C   UNL d   1       3.201  -2.132  -7.783 -0.42 +0.02    +0.070 A 
DOCKED: ATOM     19  C   UNL d   1       4.317  -2.989  -4.371 -0.63 +0.01    +0.052 C 
DOCKED: ATOM     20  C   UNL d   1       2.382  -1.564 -10.077 -0.42 +0.03    +0.066 A 
DOCKED: ATOM     21  C   UNL d   1       2.625  -1.208 -11.411 -0.41 -0.01    -0.025 A 
DOCKED: ATOM     22  C   UNL d   1       1.390  -0.930 -11.959 -0.20 -0.01    -0.021 A 
DOCKED: ATOM     23  C   UNL d   1       0.447  -1.121 -10.942 -0.08 +0.04    +0.066 A 
DOCKED: ATOM     24  C   UNL d   1       3.947  -1.125 -12.139 -0.52 +0.01    +0.051 C 
DOCKED: ATOM     25  N   UNL d   1      -1.564  -1.102  -8.689 -0.24 -0.12    -0.248 N 
DOCKED: ATOM     26  N   UNL d   1      -0.608  -1.545  -6.036 -0.25 -0.07    -0.248 N 
DOCKED: ATOM     27  N   UNL d   1       2.034  -1.913  -7.106 -0.19 -0.10    -0.248 N 
DOCKED: ATOM     28  N   UNL d   1       1.063  -1.465  -9.784 -0.24 -0.13    -0.248 N 
DOCKED: ATOM     29 FE   UNL d   1       0.229  -1.505  -7.911 -0.09 +0.00    +0.000 Fe
DOCKED: ENDROOT
DOCKED: BRANCH   6  30
DOCKED: ATOM     30  C   UNL d   1      -3.976  -0.759 -11.447 -0.15 +0.08    +0.052 C 
DOCKED: BRANCH  30  31
DOCKED: ATOM     31  C   UNL d   1      -4.158   0.704 -11.836 -0.20 +0.13    +0.115 C 
DOCKED: BRANCH  31  32
DOCKED: ATOM     32  C   UNL d   1      -3.630   0.950 -13.222 -0.17 +0.21    +0.139 C 
DOCKED: ATOM     33  O   UNL d   1      -3.607   0.049 -14.049 +0.02 -1.36    -0.650 OA
DOCKED: BRANCH  32  34
DOCKED: ATOM     34  O   UNL d   1      -3.178   2.167 -13.566 -0.22 -1.64    -0.776 OA
DOCKED: ATOM     35  H   UNL d   1      -2.254   2.266 -13.834 +0.03 +0.31    +0.167 HD
DOCKED: ENDBRANCH  32  34
DOCKED: ENDBRANCH  31  32
DOCKED: ENDBRANCH  30  31
DOCKED: ENDBRANCH   6  30
DOCKED: BRANCH  22  36
DOCKED: ATOM     36  C   UNL d   1       1.138  -0.460 -13.367 -0.26 +0.03    +0.052 C 
DOCKED: BRANCH  36  37
DOCKED: ATOM     37  C   UNL d   1       1.317   1.049 -13.445 -0.14 +0.07    +0.115 C 
DOCKED: BRANCH  37  38
DOCKED: ATOM     38  C   UNL d   1       0.081   1.710 -13.986 -0.17 +0.12    +0.139 C 
DOCKED: ATOM     39  O   UNL d   1      -0.168   2.878 -13.725 -0.40 -0.74    -0.650 OA
DOCKED: BRANCH  38  40
DOCKED: ATOM     40  O   UNL d   1      -0.767   1.014 -14.764 +0.06 -0.80    -0.776 OA
DOCKED: ATOM     41  H   UNL d   1      -1.698   0.954 -14.507 +0.04 +0.22    +0.167 HD
DOCKED: ENDBRANCH  38  40
DOCKED: ENDBRANCH  37  38
DOCKED: ENDBRANCH  36  37
DOCKED: ENDBRANCH  22  36
DOCKED: BRANCH  12  42
DOCKED: ATOM     42  C   UNL d   1      -0.520  -1.470  -2.301 -0.49 +0.00    +0.004 C 
DOCKED: ATOM     43  C   UNL d   1       0.023  -2.546  -1.716 -0.58 +0.00    +0.012 C 
DOCKED: ENDBRANCH  12  42
DOCKED: BRANCH  17  44
DOCKED: ATOM     44  C   UNL d   1       5.561  -2.994  -7.239 -0.50 +0.00    +0.004 C 
DOCKED: ATOM     45  C   UNL d   1       6.599  -2.578  -6.506 -0.63 +0.00    +0.012 C 
DOCKED: ENDBRANCH  17  44
DOCKED: TORSDOF 10
DOCKED: TER
DOCKED: ENDMDL
________________________________________________________________________________


	BEGINNING GENETIC ALGORITHM DOCKING 92 of 100
Run: 92 Seed: 1546437651 1378159456 [ Run 92 of 100 GA/GALS ]
Beginning LAMARCKIAN GENETIC ALGORITHM (LGA), with a maximum of 25000000 energy evaluations.

Final-Value: -13.734


	FINAL GENETIC ALGORITHM DOCKED STATE
	_______________________________________________


Detailed state:  trans -5.625 -11.006 11.985 quatxyzw 0.611712 0.002676 0.439740 -0.657594 center -0.174 -0.001 -0.047 ntor 10 -150.4773 -141.1621 46.1675 53.6944 -85.8171 119.5633 -4.8296 42.7671 -171.0747 -180.0000
State:	 -5.625 -11.006  11.985   0.812  0.004  0.584 -97.767   -150.48 -141.16   46.17   53.69  -85.82  119.56   -4.83   42.77 -171.07 -180.00

DOCKED: MODEL       92
DOCKED: USER    Run = 92
DOCKED: USER    DPF = D:/Protein_go_brrr/autodock/final/AncB/heme_Fe/dock.dpf
DOCKED: USER  
DOCKED: USER    Estimated Free Energy of Binding    =  -10.43 kcal/mol  [=(1)+(2)+(3)-(4)]
DOCKED: USER    Estimated Inhibition Constant, Ki   =   22.59 nM (nanomolar)  [Temperature = 298.15 K]
DOCKED: USER    
DOCKED: USER    (1) Final Intermolecular Energy     =  -13.41 kcal/mol
DOCKED: USER        vdW + Hbond + desolv Energy     =   -9.31 kcal/mol
DOCKED: USER        Electrostatic Energy            =   -4.10 kcal/mol
DOCKED: USER    (2) Final Total Internal Energy     =   -0.32 kcal/mol
DOCKED: USER    (3) Torsional Free Energy           =   +2.98 kcal/mol
DOCKED: USER    (4) Unbound System's Energy  [=(2)] =   -0.32 kcal/mol
DOCKED: USER    
DOCKED: USER    
DOCKED: USER    NEWDPF move heme_Fe_opt.pdbqt
DOCKED: USER    NEWDPF about -0.174000 -0.001000 -0.047000
DOCKED: USER    NEWDPF tran0 -5.625397 -11.005969 11.985465
DOCKED: USER    NEWDPF quaternion0 0.611712 0.002676 0.439740 -0.657594
DOCKED: USER    NEWDPF axisangle0 0.811965 0.003551 0.583695 -97.766735
DOCKED: USER    NEWDPF quat0 0.811965 0.003551 0.583695 -97.766735
DOCKED: USER    NEWDPF dihe0 -150.48 -141.16 46.17 53.69 -85.82 119.56 -4.83 42.77 -171.07 -180.00 
DOCKED: USER  keepresnum = 1 
DOCKED: USER  
DOCKED: REMARK  10 active torsions:
DOCKED: REMARK  status: ('A' for Active; 'I' for Inactive)
DOCKED: REMARK    1  A    between atoms: C_6  and  C_10 
DOCKED: REMARK    2  A    between atoms: C_10  and  C_11 
DOCKED: REMARK    3  A    between atoms: C_11  and  C_12 
DOCKED: REMARK    4  A    between atoms: C_12  and  O_14 
DOCKED: REMARK    5  A    between atoms: C_17  and  C_20 
DOCKED: REMARK    6  A    between atoms: C_24  and  C_27 
DOCKED: REMARK    7  A    between atoms: C_31  and  C_34 
DOCKED: REMARK    8  A    between atoms: C_34  and  C_35 
DOCKED: REMARK    9  A    between atoms: C_35  and  C_36 
DOCKED: REMARK   10  A    between atoms: C_36  and  O_38 
DOCKED: USER                              x       y       z     vdW  Elec       q    Type
DOCKED: USER                           _______ _______ _______ _____ _____    ______ ____
DOCKED: ROOT
DOCKED: ATOM      1  C   UNL d   1      -6.518 -12.577  11.013 -0.27 +0.04    +0.064 C 
DOCKED: ATOM      2  C   UNL d   1      -2.472  -9.848  10.233 -0.28 +0.01    +0.064 A 
DOCKED: ATOM      3  C   UNL d   1      -2.792  -8.211  14.737 -0.18 +0.01    +0.064 C 
DOCKED: ATOM      4  C   UNL d   1      -6.769 -10.763  15.479 -0.18 +0.04    +0.064 C 
DOCKED: ATOM      5  C   UNL d   1      -5.398 -11.897  10.349 -0.23 +0.03    +0.066 A 
DOCKED: ATOM      6  C   UNL d   1      -5.070 -12.035   9.010 -0.25 -0.01    -0.021 A 
DOCKED: ATOM      7  C   UNL d   1      -3.944 -11.280   8.796 -0.22 -0.01    -0.025 A 
DOCKED: ATOM      8  C   UNL d   1      -3.627 -10.708  10.013 -0.25 +0.02    +0.066 A 
DOCKED: ATOM      9  C   UNL d   1      -3.232 -11.108   7.489 -0.32 +0.02    +0.051 C 
DOCKED: ATOM     10  C   UNL d   1      -2.176  -9.238  11.382 -0.24 +0.02    +0.066 A 
DOCKED: ATOM     11  C   UNL d   1      -1.001  -8.513  11.595 -0.25 -0.00    -0.021 A 
DOCKED: ATOM     12  C   UNL d   1      -1.061  -8.044  12.892 -0.22 +0.00    +0.000 A 
DOCKED: ATOM     13  C   UNL d   1      -2.278  -8.520  13.412 -0.16 +0.01    +0.070 A 
DOCKED: ATOM     14  C   UNL d   1       0.155  -8.333  10.632 -0.11 +0.01    +0.052 C 
DOCKED: ATOM     15  C   UNL d   1      -3.937  -8.708  15.260 -0.14 +0.02    +0.066 A 
DOCKED: ATOM     16  C   UNL d   1      -4.444  -8.311  16.491 -0.15 -0.00    -0.021 A 
DOCKED: ATOM     17  C   UNL d   1      -5.589  -9.049  16.709 -0.15 +0.00    +0.000 A 
DOCKED: ATOM     18  C   UNL d   1      -5.752  -9.883  15.605 -0.09 +0.05    +0.070 A 
DOCKED: ATOM     19  C   UNL d   1      -3.863  -7.297  17.440 -0.10 -0.00    +0.052 C 
DOCKED: ATOM     20  C   UNL d   1      -7.007 -11.612  14.306 -0.24 +0.04    +0.066 A 
DOCKED: ATOM     21  C   UNL d   1      -7.931 -12.665  14.242 -0.27 -0.01    -0.025 A 
DOCKED: ATOM     22  C   UNL d   1      -7.852 -13.159  12.957 -0.33 -0.01    -0.021 A 
DOCKED: ATOM     23  C   UNL d   1      -6.884 -12.397  12.292 -0.31 +0.04    +0.066 A 
DOCKED: ATOM     24  C   UNL d   1      -8.842 -13.188  15.329 -0.20 +0.02    +0.051 C 
DOCKED: ATOM     25  N   UNL d   1      -4.519 -11.078  10.954 -0.15 -0.10    -0.248 N 
DOCKED: ATOM     26  N   UNL d   1      -2.954  -9.255  12.495 -0.12 -0.08    -0.248 N 
DOCKED: ATOM     27  N   UNL d   1      -4.762  -9.643  14.694 -0.10 -0.15    -0.248 N 
DOCKED: ATOM     28  N   UNL d   1      -6.340 -11.485  13.134 -0.18 -0.16    -0.248 N 
DOCKED: ATOM     29 FE   UNL d   1      -4.648 -10.370  12.816 -0.05 +0.00    +0.000 Fe
DOCKED: ENDROOT
DOCKED: BRANCH   6  30
DOCKED: ATOM     30  C   UNL d   1      -5.800 -12.828   7.980 -0.33 +0.04    +0.052 C 
DOCKED: BRANCH  30  31
DOCKED: ATOM     31  C   UNL d   1      -5.412 -14.300   8.056 -0.17 +0.10    +0.115 C 
DOCKED: BRANCH  31  32
DOCKED: ATOM     32  C   UNL d   1      -6.236 -15.111   7.095 -0.21 +0.23    +0.139 C 
DOCKED: ATOM     33  O   UNL d   1      -7.335 -15.537   7.422 -0.46 -1.58    -0.650 OA
DOCKED: BRANCH  32  34
DOCKED: ATOM     34  O   UNL d   1      -5.769 -15.377   5.863 -0.31 -1.83    -0.776 OA
DOCKED: ATOM     35  H   UNL d   1      -4.813 -15.444   5.728 +0.04 +0.24    +0.167 HD
DOCKED: ENDBRANCH  32  34
DOCKED: ENDBRANCH  31  32
DOCKED: ENDBRANCH  30  31
DOCKED: ENDBRANCH   6  30
DOCKED: BRANCH  22  36
DOCKED: ATOM     36  C   UNL d   1      -8.629 -14.330  12.415 +0.07 +0.02    +0.052 C 
DOCKED: BRANCH  36  37
DOCKED: ATOM     37  C   UNL d   1      -7.931 -15.628  12.791 -0.18 +0.05    +0.115 C 
DOCKED: BRANCH  37  38
DOCKED: ATOM     38  C   UNL d   1      -7.930 -16.593  11.640 -0.14 +0.10    +0.139 C 
DOCKED: ATOM     39  O   UNL d   1      -6.879 -16.995  11.161 +0.00 -0.47    -0.650 OA
DOCKED: BRANCH  38  40
DOCKED: ATOM     40  O   UNL d   1      -9.095 -17.021  11.122 -0.36 -1.06    -0.776 OA
DOCKED: ATOM     41  H   UNL d   1      -9.830 -16.398  11.040 -0.58 +0.23    +0.167 HD
DOCKED: ENDBRANCH  38  40
DOCKED: ENDBRANCH  37  38
DOCKED: ENDBRANCH  36  37
DOCKED: ENDBRANCH  22  36
DOCKED: BRANCH  12  42
DOCKED: ATOM     42  C   UNL d   1      -0.003  -7.222  13.555 -0.21 +0.00    +0.004 C 
DOCKED: ATOM     43  C   UNL d   1      -0.071  -5.884  13.560 -0.37 +0.00    +0.012 C 
DOCKED: ENDBRANCH  12  42
DOCKED: BRANCH  17  44
DOCKED: ATOM     44  C   UNL d   1      -6.481  -8.947  17.887 -0.13 +0.00    +0.004 C 
DOCKED: ATOM     45  C   UNL d   1      -7.687  -8.379  17.785 -0.22 -0.00    +0.012 C 
DOCKED: ENDBRANCH  17  44
DOCKED: TORSDOF 10
DOCKED: TER
DOCKED: ENDMDL
________________________________________________________________________________


	BEGINNING GENETIC ALGORITHM DOCKING 93 of 100
Run: 93 Seed: 1815404135 1443777381 [ Run 93 of 100 GA/GALS ]
Beginning LAMARCKIAN GENETIC ALGORITHM (LGA), with a maximum of 25000000 energy evaluations.

Final-Value: -16.722


	FINAL GENETIC ALGORITHM DOCKED STATE
	_______________________________________________


Detailed state:  trans -0.501 -0.585 -8.419 quatxyzw -0.741549 0.004769 0.218242 0.634392 center -0.174 -0.001 -0.047 ntor 10 152.2340 127.0651 -167.8071 -164.9479 86.6148 -144.0789 136.5132 -64.8005 178.0956 -134.1694
State:	 -0.501  -0.585  -8.419  -0.959  0.006  0.282 101.250    152.23  127.07 -167.81 -164.95   86.61 -144.08  136.51  -64.80  178.10 -134.17

DOCKED: MODEL       93
DOCKED: USER    Run = 93
DOCKED: USER    DPF = D:/Protein_go_brrr/autodock/final/AncB/heme_Fe/dock.dpf
DOCKED: USER  
DOCKED: USER    Estimated Free Energy of Binding    =  -13.53 kcal/mol  [=(1)+(2)+(3)-(4)]
DOCKED: USER    Estimated Inhibition Constant, Ki   =  120.77 pM (picomolar)  [Temperature = 298.15 K]
DOCKED: USER    
DOCKED: USER    (1) Final Intermolecular Energy     =  -16.51 kcal/mol
DOCKED: USER        vdW + Hbond + desolv Energy     =  -14.31 kcal/mol
DOCKED: USER        Electrostatic Energy            =   -2.20 kcal/mol
DOCKED: USER    (2) Final Total Internal Energy     =   -0.21 kcal/mol
DOCKED: USER    (3) Torsional Free Energy           =   +2.98 kcal/mol
DOCKED: USER    (4) Unbound System's Energy  [=(2)] =   -0.21 kcal/mol
DOCKED: USER    
DOCKED: USER    
DOCKED: USER    NEWDPF move heme_Fe_opt.pdbqt
DOCKED: USER    NEWDPF about -0.174000 -0.001000 -0.047000
DOCKED: USER    NEWDPF tran0 -0.500766 -0.584630 -8.419446
DOCKED: USER    NEWDPF quaternion0 -0.741549 0.004769 0.218242 0.634392
DOCKED: USER    NEWDPF axisangle0 -0.959298 0.006169 0.282327 101.250161
DOCKED: USER    NEWDPF quat0 -0.959298 0.006169 0.282327 101.250161
DOCKED: USER    NEWDPF dihe0 152.23 127.07 -167.81 -164.95 86.61 -144.08 136.51 -64.80 178.10 -134.17 
DOCKED: USER  keepresnum = 1 
DOCKED: USER  
DOCKED: REMARK  10 active torsions:
DOCKED: REMARK  status: ('A' for Active; 'I' for Inactive)
DOCKED: REMARK    1  A    between atoms: C_6  and  C_10 
DOCKED: REMARK    2  A    between atoms: C_10  and  C_11 
DOCKED: REMARK    3  A    between atoms: C_11  and  C_12 
DOCKED: REMARK    4  A    between atoms: C_12  and  O_14 
DOCKED: REMARK    5  A    between atoms: C_17  and  C_20 
DOCKED: REMARK    6  A    between atoms: C_24  and  C_27 
DOCKED: REMARK    7  A    between atoms: C_31  and  C_34 
DOCKED: REMARK    8  A    between atoms: C_34  and  C_35 
DOCKED: REMARK    9  A    between atoms: C_35  and  C_36 
DOCKED: REMARK   10  A    between atoms: C_36  and  O_38 
DOCKED: USER                              x       y       z     vdW  Elec       q    Type
DOCKED: USER                           _______ _______ _______ _____ _____    ______ ____
DOCKED: ROOT
DOCKED: ATOM      1  C   UNL d   1      -2.484  -0.510  -7.899 -0.46 +0.02    +0.064 C 
DOCKED: ATOM      2  C   UNL d   1      -0.014  -0.716 -12.175 -0.14 +0.05    +0.064 A 
DOCKED: ATOM      3  C   UNL d   1       3.935  -1.985  -9.752 -0.53 +0.02    +0.064 C 
DOCKED: ATOM      4  C   UNL d   1       1.590  -1.689  -5.594 -0.43 +0.02    +0.064 C 
DOCKED: ATOM      5  C   UNL d   1      -2.134  -0.369  -9.319 -0.33 +0.04    +0.066 A 
DOCKED: ATOM      6  C   UNL d   1      -2.994   0.089 -10.304 -0.30 -0.02    -0.021 A 
DOCKED: ATOM      7  C   UNL d   1      -2.308   0.027 -11.492 -0.26 -0.03    -0.025 A 
DOCKED: ATOM      8  C   UNL d   1      -1.054  -0.466 -11.186 +0.09 +0.06    +0.066 A 
DOCKED: ATOM      9  C   UNL d   1      -2.829   0.440 -12.834 -0.22 +0.08    +0.051 C 
DOCKED: ATOM     10  C   UNL d   1       1.222  -1.137 -11.900 -0.22 +0.04    +0.066 A 
DOCKED: ATOM     11  C   UNL d   1       2.160  -1.478 -12.877 -0.22 -0.01    -0.021 A 
DOCKED: ATOM     12  C   UNL d   1       3.303  -1.863 -12.204 -0.41 +0.00    +0.000 A 
DOCKED: ATOM     13  C   UNL d   1       2.996  -1.744 -10.837 -0.44 +0.02    +0.070 A 
DOCKED: ATOM     14  C   UNL d   1       1.957  -1.501 -14.378 -0.06 +0.03    +0.052 C 
DOCKED: ATOM     15  C   UNL d   1       3.630  -1.922  -8.435 -0.43 +0.02    +0.066 A 
DOCKED: ATOM     16  C   UNL d   1       4.579  -2.061  -7.429 -0.49 -0.01    -0.021 A 
DOCKED: ATOM     17  C   UNL d   1       3.904  -1.979  -6.229 -0.48 +0.00    +0.000 A 
DOCKED: ATOM     18  C   UNL d   1       2.556  -1.796  -6.531 -0.39 +0.02    +0.070 A 
DOCKED: ATOM     19  C   UNL d   1       6.058  -2.287  -7.588 -0.39 +0.01    +0.052 C 
DOCKED: ATOM     20  C   UNL d   1       0.171  -1.434  -5.872 -0.36 +0.02    +0.066 A 
DOCKED: ATOM     21  C   UNL d   1      -0.867  -1.519  -4.933 -0.42 -0.01    -0.025 A 
DOCKED: ATOM     22  C   UNL d   1      -2.017  -1.167  -5.609 -0.44 -0.01    -0.021 A 
DOCKED: ATOM     23  C   UNL d   1      -1.639  -0.889  -6.928 -0.37 +0.02    +0.066 A 
DOCKED: ATOM     24  C   UNL d   1      -0.791  -1.914  -3.476 -0.46 +0.01    +0.051 C 
DOCKED: ATOM     25  N   UNL d   1      -0.948  -0.697  -9.862 -0.18 -0.15    -0.248 N 
DOCKED: ATOM     26  N   UNL d   1       1.726  -1.310 -10.651 -0.25 -0.11    -0.248 N 
DOCKED: ATOM     27  N   UNL d   1       2.393  -1.717  -7.886 -0.26 -0.10    -0.248 N 
DOCKED: ATOM     28  N   UNL d   1      -0.310  -1.097  -7.093 -0.24 -0.11    -0.248 N 
DOCKED: ATOM     29 FE   UNL d   1       0.708  -1.204  -8.870 -0.09 +0.00    +0.000 Fe
DOCKED: ENDROOT
DOCKED: BRANCH   6  30
DOCKED: ATOM     30  C   UNL d   1      -4.389   0.580 -10.125 -0.29 +0.04    +0.052 C 
DOCKED: BRANCH  30  31
DOCKED: ATOM     31  C   UNL d   1      -5.390  -0.555 -10.314 -0.19 +0.08    +0.115 C 
DOCKED: BRANCH  31  32
DOCKED: ATOM     32  C   UNL d   1      -5.016  -1.394 -11.504 -0.12 +0.20    +0.139 C 
DOCKED: ATOM     33  O   UNL d   1      -4.227  -2.321 -11.390 -0.42 -1.24    -0.650 OA
DOCKED: BRANCH  32  34
DOCKED: ATOM     34  O   UNL d   1      -5.548  -1.130 -12.710 +0.00 -1.28    -0.776 OA
DOCKED: ATOM     35  H   UNL d   1      -6.420  -0.714 -12.757 +0.03 +0.18    +0.167 HD
DOCKED: ENDBRANCH  32  34
DOCKED: ENDBRANCH  31  32
DOCKED: ENDBRANCH  30  31
DOCKED: ENDBRANCH   6  30
DOCKED: BRANCH  22  36
DOCKED: ATOM     36  C   UNL d   1      -3.407  -1.147  -5.029 -0.44 +0.01    +0.052 C 
DOCKED: BRANCH  36  37
DOCKED: ATOM     37  C   UNL d   1      -3.576  -2.311  -4.062 -0.43 +0.02    +0.115 C 
DOCKED: BRANCH  37  38
DOCKED: ATOM     38  C   UNL d   1      -3.770  -1.819  -2.656 -0.54 +0.02    +0.139 C 
DOCKED: ATOM     39  O   UNL d   1      -3.301  -2.433  -1.709 -0.02 -0.10    -0.650 OA
DOCKED: BRANCH  38  40
DOCKED: ATOM     40  O   UNL d   1      -4.469  -0.692  -2.429 +0.01 -0.04    -0.776 OA
DOCKED: ATOM     41  H   UNL d   1      -4.220   0.117  -2.897 -0.45 -0.03    +0.167 HD
DOCKED: ENDBRANCH  38  40
DOCKED: ENDBRANCH  37  38
DOCKED: ENDBRANCH  36  37
DOCKED: ENDBRANCH  22  36
DOCKED: BRANCH  12  42
DOCKED: ATOM     42  C   UNL d   1       4.567  -2.323 -12.857 -0.49 +0.00    +0.004 C 
DOCKED: ATOM     43  C   UNL d   1       5.060  -3.546 -12.620 -0.52 +0.00    +0.012 C 
DOCKED: ENDBRANCH  12  42
DOCKED: BRANCH  17  44
DOCKED: ATOM     44  C   UNL d   1       4.512  -2.050  -4.881 -0.61 +0.00    +0.004 C 
DOCKED: ATOM     45  C   UNL d   1       4.291  -3.102  -4.085 -0.67 +0.00    +0.012 C 
DOCKED: ENDBRANCH  17  44
DOCKED: TORSDOF 10
DOCKED: TER
DOCKED: ENDMDL
________________________________________________________________________________


	BEGINNING GENETIC ALGORITHM DOCKING 94 of 100
Run: 94 Seed: 1674184070 1058789560 [ Run 94 of 100 GA/GALS ]
Beginning LAMARCKIAN GENETIC ALGORITHM (LGA), with a maximum of 25000000 energy evaluations.

Final-Value: -20.021


	FINAL GENETIC ALGORITHM DOCKED STATE
	_______________________________________________


Detailed state:  trans -0.355 -1.677 -9.239 quatxyzw 0.594316 0.377809 0.438474 0.558382 center -0.174 -0.001 -0.047 ntor 10 -77.9783 -23.1358 70.1912 -94.8389 32.7141 -162.6899 -34.7424 55.9239 -179.4891 154.3014
State:	 -0.355  -1.677  -9.239   0.716  0.455  0.529 112.112    -77.98  -23.14   70.19  -94.84   32.71 -162.69  -34.74   55.92 -179.49  154.30

DOCKED: MODEL       94
DOCKED: USER    Run = 94
DOCKED: USER    DPF = D:/Protein_go_brrr/autodock/final/AncB/heme_Fe/dock.dpf
DOCKED: USER  
DOCKED: USER    Estimated Free Energy of Binding    =  -14.75 kcal/mol  [=(1)+(2)+(3)-(4)]
DOCKED: USER    Estimated Inhibition Constant, Ki   =   15.44 pM (picomolar)  [Temperature = 298.15 K]
DOCKED: USER    
DOCKED: USER    (1) Final Intermolecular Energy     =  -17.73 kcal/mol
DOCKED: USER        vdW + Hbond + desolv Energy     =  -14.15 kcal/mol
DOCKED: USER        Electrostatic Energy            =   -3.58 kcal/mol
DOCKED: USER    (2) Final Total Internal Energy     =   -2.29 kcal/mol
DOCKED: USER    (3) Torsional Free Energy           =   +2.98 kcal/mol
DOCKED: USER    (4) Unbound System's Energy  [=(2)] =   -2.29 kcal/mol
DOCKED: USER    
DOCKED: USER    
DOCKED: USER    NEWDPF move heme_Fe_opt.pdbqt
DOCKED: USER    NEWDPF about -0.174000 -0.001000 -0.047000
DOCKED: USER    NEWDPF tran0 -0.354802 -1.677402 -9.238765
DOCKED: USER    NEWDPF quaternion0 0.594316 0.377809 0.438474 0.558382
DOCKED: USER    NEWDPF axisangle0 0.716402 0.455419 0.528546 112.112049
DOCKED: USER    NEWDPF quat0 0.716402 0.455419 0.528546 112.112049
DOCKED: USER    NEWDPF dihe0 -77.98 -23.14 70.19 -94.84 32.71 -162.69 -34.74 55.92 -179.49 154.30 
DOCKED: USER  keepresnum = 1 
DOCKED: USER  
DOCKED: REMARK  10 active torsions:
DOCKED: REMARK  status: ('A' for Active; 'I' for Inactive)
DOCKED: REMARK    1  A    between atoms: C_6  and  C_10 
DOCKED: REMARK    2  A    between atoms: C_10  and  C_11 
DOCKED: REMARK    3  A    between atoms: C_11  and  C_12 
DOCKED: REMARK    4  A    between atoms: C_12  and  O_14 
DOCKED: REMARK    5  A    between atoms: C_17  and  C_20 
DOCKED: REMARK    6  A    between atoms: C_24  and  C_27 
DOCKED: REMARK    7  A    between atoms: C_31  and  C_34 
DOCKED: REMARK    8  A    between atoms: C_34  and  C_35 
DOCKED: REMARK    9  A    between atoms: C_35  and  C_36 
DOCKED: REMARK   10  A    between atoms: C_36  and  O_38 
DOCKED: USER                              x       y       z     vdW  Elec       q    Type
DOCKED: USER                           _______ _______ _______ _____ _____    ______ ____
DOCKED: ROOT
DOCKED: ATOM      1  C   UNL d   1      -1.011  -1.062 -11.083 -0.33 +0.05    +0.064 C 
DOCKED: ATOM      2  C   UNL d   1      -2.947  -1.101  -6.535 -0.40 +0.02    +0.064 A 
DOCKED: ATOM      3  C   UNL d   1       1.439  -1.908  -4.751 -0.42 +0.01    +0.064 C 
DOCKED: ATOM      4  C   UNL d   1       3.316  -1.979  -9.150 -0.52 +0.02    +0.064 C 
DOCKED: ATOM      5  C   UNL d   1      -1.975  -1.082  -9.975 -0.32 +0.05    +0.066 A 
DOCKED: ATOM      6  C   UNL d   1      -3.350  -0.992 -10.121 -0.29 -0.02    -0.021 A 
DOCKED: ATOM      7  C   UNL d   1      -3.887  -0.999  -8.857 -0.26 -0.01    -0.025 A 
DOCKED: ATOM      8  C   UNL d   1      -2.817  -1.093  -7.987 -0.35 +0.03    +0.066 A 
DOCKED: ATOM      9  C   UNL d   1      -5.344  -0.937  -8.516 -0.27 +0.02    +0.051 C 
DOCKED: ATOM     10  C   UNL d   1      -1.937  -1.249  -5.675 -0.41 +0.02    +0.066 A 
DOCKED: ATOM     11  C   UNL d   1      -2.077  -1.138  -4.290 -0.43 -0.00    -0.021 A 
DOCKED: ATOM     12  C   UNL d   1      -0.823  -1.350  -3.753 -0.34 +0.00    +0.000 A 
DOCKED: ATOM     13  C   UNL d   1       0.027  -1.573  -4.850 -0.37 +0.02    +0.070 A 
DOCKED: ATOM     14  C   UNL d   1      -3.331  -0.779  -3.519 -0.59 +0.01    +0.052 C 
DOCKED: ATOM     15  C   UNL d   1       2.273  -2.073  -5.805 -0.39 +0.02    +0.066 A 
DOCKED: ATOM     16  C   UNL d   1       3.591  -2.490  -5.671 -0.47 -0.00    -0.021 A 
DOCKED: ATOM     17  C   UNL d   1       4.135  -2.508  -6.938 -0.50 +0.00    +0.000 A 
DOCKED: ATOM     18  C   UNL d   1       3.136  -2.096  -7.817 -0.41 +0.02    +0.070 A 
DOCKED: ATOM     19  C   UNL d   1       4.321  -2.834  -4.400 -0.63 +0.01    +0.052 C 
DOCKED: ATOM     20  C   UNL d   1       2.271  -1.609 -10.112 -0.41 +0.03    +0.066 A 
DOCKED: ATOM     21  C   UNL d   1       2.487  -1.290 -11.460 -0.39 -0.01    -0.025 A 
DOCKED: ATOM     22  C   UNL d   1       1.239  -1.044 -11.995 -0.24 -0.01    -0.021 A 
DOCKED: ATOM     23  C   UNL d   1       0.316  -1.216 -10.956 -0.14 +0.04    +0.066 A 
DOCKED: ATOM     24  C   UNL d   1       3.795  -1.213 -12.214 -0.51 +0.01    +0.051 C 
DOCKED: ATOM     25  N   UNL d   1      -1.657  -1.153  -8.670 -0.23 -0.12    -0.248 N 
DOCKED: ATOM     26  N   UNL d   1      -0.650  -1.503  -6.022 -0.25 -0.07    -0.248 N 
DOCKED: ATOM     27  N   UNL d   1       1.978  -1.871  -7.126 -0.18 -0.10    -0.248 N 
DOCKED: ATOM     28  N   UNL d   1       0.956  -1.516  -9.800 -0.24 -0.13    -0.248 N 
DOCKED: ATOM     29 FE   UNL d   1       0.155  -1.510  -7.912 -0.09 +0.00    +0.000 Fe
DOCKED: ENDROOT
DOCKED: BRANCH   6  30
DOCKED: ATOM     30  C   UNL d   1      -4.119  -0.924 -11.396 -0.15 +0.08    +0.052 C 
DOCKED: BRANCH  30  31
DOCKED: ATOM     31  C   UNL d   1      -4.312   0.524 -11.833 -0.20 +0.13    +0.115 C 
DOCKED: BRANCH  31  32
DOCKED: ATOM     32  C   UNL d   1      -4.277   0.630 -13.333 -0.15 +0.22    +0.139 C 
DOCKED: ATOM     33  O   UNL d   1      -4.695  -0.282 -14.032 +0.07 -1.27    -0.650 OA
DOCKED: BRANCH  32  34
DOCKED: ATOM     34  O   UNL d   1      -3.782   1.733 -13.920 -0.47 -1.45    -0.776 OA
DOCKED: ATOM     35  H   UNL d   1      -2.889   1.707 -14.290 +0.03 +0.30    +0.167 HD
DOCKED: ENDBRANCH  32  34
DOCKED: ENDBRANCH  31  32
DOCKED: ENDBRANCH  30  31
DOCKED: ENDBRANCH   6  30
DOCKED: BRANCH  22  36
DOCKED: ATOM     36  C   UNL d   1       0.957  -0.621 -13.412 -0.26 +0.03    +0.052 C 
DOCKED: BRANCH  36  37
DOCKED: ATOM     37  C   UNL d   1       0.513   0.835 -13.435 -0.09 +0.08    +0.115 C 
DOCKED: BRANCH  37  38
DOCKED: ATOM     38  C   UNL d   1      -0.814   0.982 -14.122 -0.16 +0.15    +0.139 C 
DOCKED: ATOM     39  O   UNL d   1      -1.194   2.074 -14.520 -0.01 -0.83    -0.650 OA
DOCKED: BRANCH  38  40
DOCKED: ATOM     40  O   UNL d   1      -1.600  -0.094 -14.302 -0.21 -1.24    -0.776 OA
DOCKED: ATOM     41  H   UNL d   1      -2.552   0.033 -14.419 +0.02 +0.33    +0.167 HD
DOCKED: ENDBRANCH  38  40
DOCKED: ENDBRANCH  37  38
DOCKED: ENDBRANCH  36  37
DOCKED: ENDBRANCH  22  36
DOCKED: BRANCH  12  42
DOCKED: ATOM     42  C   UNL d   1      -0.500  -1.313  -2.293 -0.45 +0.00    +0.004 C 
DOCKED: ATOM     43  C   UNL d   1      -0.031  -2.399  -1.664 -0.57 +0.00    +0.012 C 
DOCKED: ENDBRANCH  12  42
DOCKED: BRANCH  17  44
DOCKED: ATOM     44  C   UNL d   1       5.516  -2.912  -7.288 -0.53 +0.00    +0.004 C 
DOCKED: ATOM     45  C   UNL d   1       6.551  -2.545  -6.526 -0.63 +0.00    +0.012 C 
DOCKED: ENDBRANCH  17  44
DOCKED: TORSDOF 10
DOCKED: TER
DOCKED: ENDMDL
________________________________________________________________________________


	BEGINNING GENETIC ALGORITHM DOCKING 95 of 100
Run: 95 Seed: 1921166593 441319542 [ Run 95 of 100 GA/GALS ]
Beginning LAMARCKIAN GENETIC ALGORITHM (LGA), with a maximum of 25000000 energy evaluations.

Final-Value: -13.549


	FINAL GENETIC ALGORITHM DOCKED STATE
	_______________________________________________


Detailed state:  trans -0.401 -15.627 3.774 quatxyzw 0.819472 0.249286 -0.328259 0.398207 center -0.174 -0.001 -0.047 ntor 10 98.3817 -78.4097 168.0068 -150.9158 158.9040 92.5608 -58.0763 85.3156 154.7529 180.0000
State:	 -0.401 -15.627   3.774   0.893  0.272 -0.358 133.068     98.38  -78.41  168.01 -150.92  158.90   92.56  -58.08   85.32  154.75  180.00

DOCKED: MODEL       95
DOCKED: USER    Run = 95
DOCKED: USER    DPF = D:/Protein_go_brrr/autodock/final/AncB/heme_Fe/dock.dpf
DOCKED: USER  
DOCKED: USER    Estimated Free Energy of Binding    =   -8.52 kcal/mol  [=(1)+(2)+(3)-(4)]
DOCKED: USER    Estimated Inhibition Constant, Ki   =  570.35 nM (nanomolar)  [Temperature = 298.15 K]
DOCKED: USER    
DOCKED: USER    (1) Final Intermolecular Energy     =  -11.50 kcal/mol
DOCKED: USER        vdW + Hbond + desolv Energy     =   -6.71 kcal/mol
DOCKED: USER        Electrostatic Energy            =   -4.79 kcal/mol
DOCKED: USER    (2) Final Total Internal Energy     =   -2.05 kcal/mol
DOCKED: USER    (3) Torsional Free Energy           =   +2.98 kcal/mol
DOCKED: USER    (4) Unbound System's Energy  [=(2)] =   -2.05 kcal/mol
DOCKED: USER    
DOCKED: USER    
DOCKED: USER    NEWDPF move heme_Fe_opt.pdbqt
DOCKED: USER    NEWDPF about -0.174000 -0.001000 -0.047000
DOCKED: USER    NEWDPF tran0 -0.401239 -15.627082 3.773732
DOCKED: USER    NEWDPF quaternion0 0.819472 0.249286 -0.328259 0.398207
DOCKED: USER    NEWDPF axisangle0 0.893356 0.271761 -0.357855 133.067737
DOCKED: USER    NEWDPF quat0 0.893356 0.271761 -0.357855 133.067737
DOCKED: USER    NEWDPF dihe0 98.38 -78.41 168.01 -150.92 158.90 92.56 -58.08 85.32 154.75 180.00 
DOCKED: USER  keepresnum = 1 
DOCKED: USER  
DOCKED: REMARK  10 active torsions:
DOCKED: REMARK  status: ('A' for Active; 'I' for Inactive)
DOCKED: REMARK    1  A    between atoms: C_6  and  C_10 
DOCKED: REMARK    2  A    between atoms: C_10  and  C_11 
DOCKED: REMARK    3  A    between atoms: C_11  and  C_12 
DOCKED: REMARK    4  A    between atoms: C_12  and  O_14 
DOCKED: REMARK    5  A    between atoms: C_17  and  C_20 
DOCKED: REMARK    6  A    between atoms: C_24  and  C_27 
DOCKED: REMARK    7  A    between atoms: C_31  and  C_34 
DOCKED: REMARK    8  A    between atoms: C_34  and  C_35 
DOCKED: REMARK    9  A    between atoms: C_35  and  C_36 
DOCKED: REMARK   10  A    between atoms: C_36  and  O_38 
DOCKED: USER                              x       y       z     vdW  Elec       q    Type
DOCKED: USER                           _______ _______ _______ _____ _____    ______ ____
DOCKED: ROOT
DOCKED: ATOM      1  C   UNL d   1      -2.110 -16.661   4.246 -0.08 +0.03    +0.064 C 
DOCKED: ATOM      2  C   UNL d   1      -0.045 -12.452   5.811 -0.14 +0.02    +0.064 A 
DOCKED: ATOM      3  C   UNL d   1       2.833 -12.515   1.966 -0.25 +0.01    +0.064 C 
DOCKED: ATOM      4  C   UNL d   1       0.921 -16.643   0.488 -0.15 +0.01    +0.064 C 
DOCKED: ATOM      5  C   UNL d   1      -1.738 -15.515   5.086 -0.04 +0.03    +0.066 A 
DOCKED: ATOM      6  C   UNL d   1      -2.279 -15.239   6.331 -0.07 -0.01    -0.021 A 
DOCKED: ATOM      7  C   UNL d   1      -1.708 -14.068   6.764 -0.09 -0.01    -0.025 A 
DOCKED: ATOM      8  C   UNL d   1      -0.839 -13.674   5.765 -0.05 +0.02    +0.066 A 
DOCKED: ATOM      9  C   UNL d   1      -1.974 -13.385   8.070 -0.08 +0.02    +0.051 C 
DOCKED: ATOM     10  C   UNL d   1       0.843 -12.078   4.888 -0.19 +0.01    +0.066 A 
DOCKED: ATOM     11  C   UNL d   1       1.504 -10.848   4.903 -0.29 -0.00    -0.021 A 
DOCKED: ATOM     12  C   UNL d   1       2.328 -10.834   3.795 -0.29 +0.00    +0.000 A 
DOCKED: ATOM     13  C   UNL d   1       2.118 -12.066   3.151 -0.22 +0.01    +0.070 A 
DOCKED: ATOM     14  C   UNL d   1       1.310  -9.711   5.886 -0.25 +0.01    +0.052 C 
DOCKED: ATOM     15  C   UNL d   1       2.598 -13.677   1.313 -0.16 +0.01    +0.066 A 
DOCKED: ATOM     16  C   UNL d   1       3.369 -14.116   0.244 -0.16 -0.00    -0.021 A 
DOCKED: ATOM     17  C   UNL d   1       2.817 -15.305  -0.186 -0.19 +0.00    +0.000 A 
DOCKED: ATOM     18  C   UNL d   1       1.717 -15.562   0.629 -0.14 +0.01    +0.070 A 
DOCKED: ATOM     19  C   UNL d   1       4.563 -13.434  -0.368 -0.28 +0.00    +0.052 C 
DOCKED: ATOM     20  C   UNL d   1      -0.208 -16.978   1.366 -0.08 +0.02    +0.066 A 
DOCKED: ATOM     21  C   UNL d   1      -1.158 -17.978   1.116 -0.08 -0.01    -0.025 A 
DOCKED: ATOM     22  C   UNL d   1      -2.005 -17.974   2.206 -0.07 -0.01    -0.021 A 
DOCKED: ATOM     23  C   UNL d   1      -1.543 -16.973   3.069 -0.07 +0.03    +0.066 A 
DOCKED: ATOM     24  C   UNL d   1      -1.275 -18.891  -0.082 -0.10 +0.02    +0.051 C 
DOCKED: ATOM     25  N   UNL d   1      -0.852 -14.561   4.750 +0.14 -0.12    -0.248 N 
DOCKED: ATOM     26  N   UNL d   1       1.207 -12.821   3.812 -0.13 -0.07    -0.248 N 
DOCKED: ATOM     27  N   UNL d   1       1.608 -14.584   1.579 -0.11 -0.05    -0.248 N 
DOCKED: ATOM     28  N   UNL d   1      -0.474 -16.339   2.531 -0.06 -0.09    -0.248 N 
DOCKED: ATOM     29 FE   UNL d   1       0.367 -14.581   3.170 -0.04 +0.00    +0.000 Fe
DOCKED: ENDROOT
DOCKED: BRANCH   6  30
DOCKED: ATOM     30  C   UNL d   1      -3.273 -16.056   7.084 -0.03 +0.03    +0.052 C 
DOCKED: BRANCH  30  31
DOCKED: ATOM     31  C   UNL d   1      -4.578 -15.288   7.264 -0.08 +0.10    +0.115 C 
DOCKED: BRANCH  31  32
DOCKED: ATOM     32  C   UNL d   1      -5.726 -16.053   6.667 -0.07 +0.24    +0.139 C 
DOCKED: ATOM     33  O   UNL d   1      -6.875 -15.831   7.022 -0.48 -1.48    -0.650 OA
DOCKED: BRANCH  32  34
DOCKED: ATOM     34  O   UNL d   1      -5.498 -16.993   5.734 -0.34 -1.45    -0.776 OA
DOCKED: ATOM     35  H   UNL d   1      -5.371 -16.720   4.814 +0.03 +0.40    +0.167 HD
DOCKED: ENDBRANCH  32  34
DOCKED: ENDBRANCH  31  32
DOCKED: ENDBRANCH  30  31
DOCKED: ENDBRANCH   6  30
DOCKED: BRANCH  22  36
DOCKED: ATOM     36  C   UNL d   1      -3.217 -18.851   2.381 -0.08 +0.04    +0.052 C 
DOCKED: BRANCH  36  37
DOCKED: ATOM     37  C   UNL d   1      -4.403 -18.238   1.653 -0.02 +0.18    +0.115 C 
DOCKED: BRANCH  37  38
DOCKED: ATOM     38  C   UNL d   1      -5.245 -17.417   2.589 -0.05 +0.30    +0.139 C 
DOCKED: ATOM     39  O   UNL d   1      -5.047 -16.218   2.719 -0.13 -1.37    -0.650 OA
DOCKED: BRANCH  38  40
DOCKED: ATOM     40  O   UNL d   1      -6.226 -18.003   3.298 -0.19 -1.96    -0.776 OA
DOCKED: ATOM     41  H   UNL d   1      -6.072 -18.214   4.229 +0.02 +0.33    +0.167 HD
DOCKED: ENDBRANCH  38  40
DOCKED: ENDBRANCH  37  38
DOCKED: ENDBRANCH  36  37
DOCKED: ENDBRANCH  22  36
DOCKED: BRANCH  12  42
DOCKED: ATOM     42  C   UNL d   1       3.220  -9.698   3.405 -0.40 +0.00    +0.004 C 
DOCKED: ATOM     43  C   UNL d   1       3.423  -9.391   2.117 -0.55 -0.00    +0.012 C 
DOCKED: ENDBRANCH  12  42
DOCKED: BRANCH  17  44
DOCKED: ATOM     44  C   UNL d   1       3.321 -16.150  -1.292 -0.23 -0.00    +0.004 C 
DOCKED: ATOM     45  C   UNL d   1       2.792 -16.063  -2.517 -0.38 -0.00    +0.012 C 
DOCKED: ENDBRANCH  17  44
DOCKED: TORSDOF 10
DOCKED: TER
DOCKED: ENDMDL
________________________________________________________________________________


	BEGINNING GENETIC ALGORITHM DOCKING 96 of 100
Run: 96 Seed: 1982824169 1309633392 [ Run 96 of 100 GA/GALS ]
Beginning LAMARCKIAN GENETIC ALGORITHM (LGA), with a maximum of 25000000 energy evaluations.

Final-Value: -14.971


	FINAL GENETIC ALGORITHM DOCKED STATE
	_______________________________________________


Detailed state:  trans -5.611 -10.894 12.117 quatxyzw 0.599396 0.009383 0.438682 -0.669473 center -0.174 -0.001 -0.047 ntor 10 161.7461 -66.8670 49.5543 46.4092 80.1097 104.4404 -23.0601 64.1163 -170.1835 175.5768
State:	 -5.611 -10.894  12.117   0.807  0.013  0.591 -95.947    161.75  -66.87   49.55   46.41   80.11  104.44  -23.06   64.12 -170.18  175.58

DOCKED: MODEL       96
DOCKED: USER    Run = 96
DOCKED: USER    DPF = D:/Protein_go_brrr/autodock/final/AncB/heme_Fe/dock.dpf
DOCKED: USER  
DOCKED: USER    Estimated Free Energy of Binding    =   -9.83 kcal/mol  [=(1)+(2)+(3)-(4)]
DOCKED: USER    Estimated Inhibition Constant, Ki   =   61.84 nM (nanomolar)  [Temperature = 298.15 K]
DOCKED: USER    
DOCKED: USER    (1) Final Intermolecular Energy     =  -12.82 kcal/mol
DOCKED: USER        vdW + Hbond + desolv Energy     =   -9.16 kcal/mol
DOCKED: USER        Electrostatic Energy            =   -3.66 kcal/mol
DOCKED: USER    (2) Final Total Internal Energy     =   -2.15 kcal/mol
DOCKED: USER    (3) Torsional Free Energy           =   +2.98 kcal/mol
DOCKED: USER    (4) Unbound System's Energy  [=(2)] =   -2.15 kcal/mol
DOCKED: USER    
DOCKED: USER    
DOCKED: USER    NEWDPF move heme_Fe_opt.pdbqt
DOCKED: USER    NEWDPF about -0.174000 -0.001000 -0.047000
DOCKED: USER    NEWDPF tran0 -5.610869 -10.893962 12.116944
DOCKED: USER    NEWDPF quaternion0 0.599396 0.009383 0.438682 -0.669473
DOCKED: USER    NEWDPF axisangle0 0.806902 0.012632 0.590550 -95.947247
DOCKED: USER    NEWDPF quat0 0.806902 0.012632 0.590550 -95.947247
DOCKED: USER    NEWDPF dihe0 161.75 -66.87 49.55 46.41 80.11 104.44 -23.06 64.12 -170.18 175.58 
DOCKED: USER  keepresnum = 1 
DOCKED: USER  
DOCKED: REMARK  10 active torsions:
DOCKED: REMARK  status: ('A' for Active; 'I' for Inactive)
DOCKED: REMARK    1  A    between atoms: C_6  and  C_10 
DOCKED: REMARK    2  A    between atoms: C_10  and  C_11 
DOCKED: REMARK    3  A    between atoms: C_11  and  C_12 
DOCKED: REMARK    4  A    between atoms: C_12  and  O_14 
DOCKED: REMARK    5  A    between atoms: C_17  and  C_20 
DOCKED: REMARK    6  A    between atoms: C_24  and  C_27 
DOCKED: REMARK    7  A    between atoms: C_31  and  C_34 
DOCKED: REMARK    8  A    between atoms: C_34  and  C_35 
DOCKED: REMARK    9  A    between atoms: C_35  and  C_36 
DOCKED: REMARK   10  A    between atoms: C_36  and  O_38 
DOCKED: USER                              x       y       z     vdW  Elec       q    Type
DOCKED: USER                           _______ _______ _______ _____ _____    ______ ____
DOCKED: ROOT
DOCKED: ATOM      1  C   UNL d   1      -6.509 -12.496  11.202 -0.28 +0.04    +0.064 C 
DOCKED: ATOM      2  C   UNL d   1      -2.452  -9.812  10.326 -0.28 +0.01    +0.064 A 
DOCKED: ATOM      3  C   UNL d   1      -2.769  -8.010  14.767 -0.19 +0.01    +0.064 C 
DOCKED: ATOM      4  C   UNL d   1      -6.756 -10.519  15.599 -0.18 +0.04    +0.064 C 
DOCKED: ATOM      5  C   UNL d   1      -5.385 -11.845  10.514 -0.23 +0.03    +0.066 A 
DOCKED: ATOM      6  C   UNL d   1      -5.057 -12.033   9.182 -0.25 -0.01    -0.021 A 
DOCKED: ATOM      7  C   UNL d   1      -3.928 -11.291   8.941 -0.24 -0.01    -0.025 A 
DOCKED: ATOM      8  C   UNL d   1      -3.610 -10.676  10.136 -0.24 +0.02    +0.066 A 
DOCKED: ATOM      9  C   UNL d   1      -3.214 -11.170   7.629 -0.32 +0.02    +0.051 C 
DOCKED: ATOM     10  C   UNL d   1      -2.155  -9.162  11.452 -0.23 +0.02    +0.066 A 
DOCKED: ATOM     11  C   UNL d   1      -0.978  -8.433  11.639 -0.25 -0.00    -0.021 A 
DOCKED: ATOM     12  C   UNL d   1      -1.037  -7.917  12.919 -0.22 +0.00    +0.000 A 
DOCKED: ATOM     13  C   UNL d   1      -2.256  -8.369  13.454 -0.16 +0.01    +0.070 A 
DOCKED: ATOM     14  C   UNL d   1       0.180  -8.293  10.672 -0.12 +0.01    +0.052 C 
DOCKED: ATOM     15  C   UNL d   1      -3.917  -8.484  15.307 -0.14 +0.02    +0.066 A 
DOCKED: ATOM     16  C   UNL d   1      -4.423  -8.040  16.522 -0.16 -0.00    -0.021 A 
DOCKED: ATOM     17  C   UNL d   1      -5.571  -8.765  16.766 -0.16 +0.00    +0.000 A 
DOCKED: ATOM     18  C   UNL d   1      -5.736  -9.639  15.693 -0.05 +0.05    +0.070 A 
DOCKED: ATOM     19  C   UNL d   1      -3.839  -6.994  17.433 -0.11 -0.00    +0.052 C 
DOCKED: ATOM     20  C   UNL d   1      -6.997 -11.410  14.457 -0.23 +0.04    +0.066 A 
DOCKED: ATOM     21  C   UNL d   1      -7.924 -12.461  14.431 -0.27 -0.01    -0.025 A 
DOCKED: ATOM     22  C   UNL d   1      -7.846 -13.003  13.164 -0.33 -0.01    -0.021 A 
DOCKED: ATOM     23  C   UNL d   1      -6.874 -12.269  12.473 -0.31 +0.04    +0.066 A 
DOCKED: ATOM     24  C   UNL d   1      -8.838 -12.941  15.535 -0.20 +0.02    +0.051 C 
DOCKED: ATOM     25  N   UNL d   1      -4.504 -11.008  11.089 -0.15 -0.10    -0.248 N 
DOCKED: ATOM     26  N   UNL d   1      -2.933  -9.135  12.564 -0.10 -0.08    -0.248 N 
DOCKED: ATOM     27  N   UNL d   1      -4.744  -9.436  14.775 -0.08 -0.15    -0.248 N 
DOCKED: ATOM     28  N   UNL d   1      -6.328 -11.328  13.281 -0.18 -0.16    -0.248 N 
DOCKED: ATOM     29 FE   UNL d   1      -4.632 -10.231  12.924 -0.06 +0.00    +0.000 Fe
DOCKED: ENDROOT
DOCKED: BRANCH   6  30
DOCKED: ATOM     30  C   UNL d   1      -5.789 -12.860   8.181 -0.32 +0.04    +0.052 C 
DOCKED: BRANCH  30  31
DOCKED: ATOM     31  C   UNL d   1      -5.423 -14.333   8.326 -0.17 +0.09    +0.115 C 
DOCKED: BRANCH  31  32
DOCKED: ATOM     32  C   UNL d   1      -6.508 -15.204   7.756 -0.23 +0.21    +0.139 C 
DOCKED: ATOM     33  O   UNL d   1      -6.589 -15.391   6.550 -0.43 -1.51    -0.650 OA
DOCKED: BRANCH  32  34
DOCKED: ATOM     34  O   UNL d   1      -7.404 -15.786   8.571 -0.29 -1.84    -0.776 OA
DOCKED: ATOM     35  H   UNL d   1      -7.199 -15.866   9.514 -0.02 +0.25    +0.167 HD
DOCKED: ENDBRANCH  32  34
DOCKED: ENDBRANCH  31  32
DOCKED: ENDBRANCH  30  31
DOCKED: ENDBRANCH   6  30
DOCKED: BRANCH  22  36
DOCKED: ATOM     36  C   UNL d   1      -8.627 -14.190  12.665 -0.13 +0.02    +0.052 C 
DOCKED: BRANCH  36  37
DOCKED: ATOM     37  C   UNL d   1      -7.877 -15.472  12.994 -0.17 +0.05    +0.115 C 
DOCKED: BRANCH  37  38
DOCKED: ATOM     38  C   UNL d   1      -7.472 -16.196  11.741 -0.14 +0.09    +0.139 C 
DOCKED: ATOM     39  O   UNL d   1      -6.313 -16.173  11.353 +0.02 -0.37    -0.650 OA
DOCKED: BRANCH  38  40
DOCKED: ATOM     40  O   UNL d   1      -8.390 -16.875  11.032 -0.12 -0.91    -0.776 OA
DOCKED: ATOM     41  H   UNL d   1      -8.630 -16.560  10.149 -0.42 +0.39    +0.167 HD
DOCKED: ENDBRANCH  38  40
DOCKED: ENDBRANCH  37  38
DOCKED: ENDBRANCH  36  37
DOCKED: ENDBRANCH  22  36
DOCKED: BRANCH  12  42
DOCKED: ATOM     42  C   UNL d   1       0.024  -7.075  13.552 -0.22 +0.00    +0.004 C 
DOCKED: ATOM     43  C   UNL d   1      -0.074  -5.739  13.566 -0.39 -0.00    +0.012 C 
DOCKED: ENDBRANCH  12  42
DOCKED: BRANCH  17  44
DOCKED: ATOM     44  C   UNL d   1      -6.463  -8.617  17.938 -0.14 +0.00    +0.004 C 
DOCKED: ATOM     45  C   UNL d   1      -7.602  -7.923  17.848 -0.22 -0.00    +0.012 C 
DOCKED: ENDBRANCH  17  44
DOCKED: TORSDOF 10
DOCKED: TER
DOCKED: ENDMDL
________________________________________________________________________________


	BEGINNING GENETIC ALGORITHM DOCKING 97 of 100
Run: 97 Seed: 747261585 388259233 [ Run 97 of 100 GA/GALS ]
Beginning LAMARCKIAN GENETIC ALGORITHM (LGA), with a maximum of 25000000 energy evaluations.

Final-Value: -20.679


	FINAL GENETIC ALGORITHM DOCKED STATE
	_______________________________________________


Detailed state:  trans -0.291 -1.641 -9.061 quatxyzw -0.584470 -0.366086 -0.461200 -0.558275 center -0.174 -0.001 -0.047 ntor 10 29.8467 53.7044 76.3708 -116.2694 -177.5855 175.4198 -43.4272 -42.7230 -172.9494 18.8932
State:	 -0.291  -1.641  -9.061  -0.704 -0.441 -0.556 -112.127     29.85   53.70   76.37 -116.27 -177.59  175.42  -43.43  -42.72 -172.95   18.89

DOCKED: MODEL       97
DOCKED: USER    Run = 97
DOCKED: USER    DPF = D:/Protein_go_brrr/autodock/final/AncB/heme_Fe/dock.dpf
DOCKED: USER  
DOCKED: USER    Estimated Free Energy of Binding    =  -15.27 kcal/mol  [=(1)+(2)+(3)-(4)]
DOCKED: USER    Estimated Inhibition Constant, Ki   =    6.37 pM (picomolar)  [Temperature = 298.15 K]
DOCKED: USER    
DOCKED: USER    (1) Final Intermolecular Energy     =  -18.26 kcal/mol
DOCKED: USER        vdW + Hbond + desolv Energy     =  -14.14 kcal/mol
DOCKED: USER        Electrostatic Energy            =   -4.12 kcal/mol
DOCKED: USER    (2) Final Total Internal Energy     =   -2.42 kcal/mol
DOCKED: USER    (3) Torsional Free Energy           =   +2.98 kcal/mol
DOCKED: USER    (4) Unbound System's Energy  [=(2)] =   -2.42 kcal/mol
DOCKED: USER    
DOCKED: USER    
DOCKED: USER    NEWDPF move heme_Fe_opt.pdbqt
DOCKED: USER    NEWDPF about -0.174000 -0.001000 -0.047000
DOCKED: USER    NEWDPF tran0 -0.291056 -1.641061 -9.060536
DOCKED: USER    NEWDPF quaternion0 -0.584470 -0.366086 -0.461200 -0.558275
DOCKED: USER    NEWDPF axisangle0 -0.704472 -0.441251 -0.555893 -112.126882
DOCKED: USER    NEWDPF quat0 -0.704472 -0.441251 -0.555893 -112.126882
DOCKED: USER    NEWDPF dihe0 29.85 53.70 76.37 -116.27 -177.59 175.42 -43.43 -42.72 -172.95 18.89 
DOCKED: USER  keepresnum = 1 
DOCKED: USER  
DOCKED: REMARK  10 active torsions:
DOCKED: REMARK  status: ('A' for Active; 'I' for Inactive)
DOCKED: REMARK    1  A    between atoms: C_6  and  C_10 
DOCKED: REMARK    2  A    between atoms: C_10  and  C_11 
DOCKED: REMARK    3  A    between atoms: C_11  and  C_12 
DOCKED: REMARK    4  A    between atoms: C_12  and  O_14 
DOCKED: REMARK    5  A    between atoms: C_17  and  C_20 
DOCKED: REMARK    6  A    between atoms: C_24  and  C_27 
DOCKED: REMARK    7  A    between atoms: C_31  and  C_34 
DOCKED: REMARK    8  A    between atoms: C_34  and  C_35 
DOCKED: REMARK    9  A    between atoms: C_35  and  C_36 
DOCKED: REMARK   10  A    between atoms: C_36  and  O_38 
DOCKED: USER                              x       y       z     vdW  Elec       q    Type
DOCKED: USER                           _______ _______ _______ _____ _____    ______ ____
DOCKED: ROOT
DOCKED: ATOM      1  C   UNL d   1      -0.885  -0.935 -10.894 -0.26 +0.05    +0.064 C 
DOCKED: ATOM      2  C   UNL d   1      -2.925  -1.084  -6.395 -0.41 +0.02    +0.064 A 
DOCKED: ATOM      3  C   UNL d   1       1.390  -2.100  -4.546 -0.42 +0.01    +0.064 C 
DOCKED: ATOM      4  C   UNL d   1       3.365  -2.065  -8.903 -0.51 +0.02    +0.064 C 
DOCKED: ATOM      5  C   UNL d   1      -1.875  -0.966  -9.808 -0.32 +0.04    +0.066 A 
DOCKED: ATOM      6  C   UNL d   1      -3.242  -0.826  -9.981 -0.29 -0.02    -0.021 A 
DOCKED: ATOM      7  C   UNL d   1      -3.808  -0.863  -8.731 -0.30 -0.01    -0.025 A 
DOCKED: ATOM      8  C   UNL d   1      -2.763  -1.025  -7.842 -0.36 +0.03    +0.066 A 
DOCKED: ATOM      9  C   UNL d   1      -5.270  -0.768  -8.420 -0.31 +0.02    +0.051 C 
DOCKED: ATOM     10  C   UNL d   1      -1.942  -1.297  -5.519 -0.41 +0.02    +0.066 A 
DOCKED: ATOM     11  C   UNL d   1      -2.110  -1.234  -4.134 -0.44 -0.00    -0.021 A 
DOCKED: ATOM     12  C   UNL d   1      -0.876  -1.507  -3.578 -0.41 +0.00    +0.000 A 
DOCKED: ATOM     13  C   UNL d   1      -0.008  -1.716  -4.663 -0.38 +0.01    +0.070 A 
DOCKED: ATOM     14  C   UNL d   1      -3.370  -0.864  -3.377 -0.61 +0.01    +0.052 C 
DOCKED: ATOM     15  C   UNL d   1       2.242  -2.252  -5.587 -0.39 +0.01    +0.066 A 
DOCKED: ATOM     16  C   UNL d   1       3.543  -2.716  -5.441 -0.48 -0.00    -0.021 A 
DOCKED: ATOM     17  C   UNL d   1       4.116  -2.703  -6.696 -0.50 +0.00    +0.000 A 
DOCKED: ATOM     18  C   UNL d   1       3.150  -2.227  -7.579 -0.41 +0.02    +0.070 A 
DOCKED: ATOM     19  C   UNL d   1       4.232  -3.132  -4.169 -0.63 +0.01    +0.052 C 
DOCKED: ATOM     20  C   UNL d   1       2.355  -1.624  -9.873 -0.42 +0.03    +0.066 A 
DOCKED: ATOM     21  C   UNL d   1       2.613  -1.261 -11.202 -0.42 -0.01    -0.025 A 
DOCKED: ATOM     22  C   UNL d   1       1.386  -0.956 -11.754 -0.17 -0.01    -0.021 A 
DOCKED: ATOM     23  C   UNL d   1       0.434  -1.137 -10.744 -0.07 +0.04    +0.066 A 
DOCKED: ATOM     24  C   UNL d   1       3.939  -1.199 -11.923 -0.54 +0.01    +0.051 C 
DOCKED: ATOM     25  N   UNL d   1      -1.589  -1.097  -8.501 -0.24 -0.12    -0.248 N 
DOCKED: ATOM     26  N   UNL d   1      -0.655  -1.580  -5.847 -0.25 -0.07    -0.248 N 
DOCKED: ATOM     27  N   UNL d   1       1.984  -1.990  -6.906 -0.19 -0.09    -0.248 N 
DOCKED: ATOM     28  N   UNL d   1       1.037  -1.501  -9.586 -0.20 -0.14    -0.248 N 
DOCKED: ATOM     29 FE   UNL d   1       0.193  -1.541  -7.717 -0.09 +0.00    +0.000 Fe
DOCKED: ENDROOT
DOCKED: BRANCH   6  30
DOCKED: ATOM     30  C   UNL d   1      -3.978  -0.684 -11.269 -0.22 +0.07    +0.052 C 
DOCKED: BRANCH  30  31
DOCKED: ATOM     31  C   UNL d   1      -3.976   0.767 -11.736 -0.21 +0.13    +0.115 C 
DOCKED: BRANCH  31  32
DOCKED: ATOM     32  C   UNL d   1      -3.696   0.845 -13.211 -0.17 +0.22    +0.139 C 
DOCKED: ATOM     33  O   UNL d   1      -3.610   1.927 -13.773 -0.43 -1.32    -0.650 OA
DOCKED: BRANCH  32  34
DOCKED: ATOM     34  O   UNL d   1      -3.537  -0.281 -13.928 +0.39 -1.92    -0.776 OA
DOCKED: ATOM     35  H   UNL d   1      -2.960  -0.266 -14.705 +0.02 +0.40    +0.167 HD
DOCKED: ENDBRANCH  32  34
DOCKED: ENDBRANCH  31  32
DOCKED: ENDBRANCH  30  31
DOCKED: ENDBRANCH   6  30
DOCKED: BRANCH  22  36
DOCKED: ATOM     36  C   UNL d   1       1.150  -0.470 -13.160 -0.27 +0.03    +0.052 C 
DOCKED: BRANCH  36  37
DOCKED: ATOM     37  C   UNL d   1       0.328  -1.495 -13.927 -0.21 +0.10    +0.115 C 
DOCKED: BRANCH  37  38
DOCKED: ATOM     38  C   UNL d   1      -0.748  -0.827 -14.736 -0.12 +0.18    +0.139 C 
DOCKED: ATOM     39  O   UNL d   1      -1.460  -1.477 -15.487 -0.36 -1.26    -0.650 OA
DOCKED: BRANCH  38  40
DOCKED: ATOM     40  O   UNL d   1      -0.932   0.502 -14.640 +0.04 -0.87    -0.776 OA
DOCKED: ATOM     41  H   UNL d   1      -1.814   0.841 -14.433 +0.04 +0.23    +0.167 HD
DOCKED: ENDBRANCH  38  40
DOCKED: ENDBRANCH  37  38
DOCKED: ENDBRANCH  36  37
DOCKED: ENDBRANCH  22  36
DOCKED: BRANCH  12  42
DOCKED: ATOM     42  C   UNL d   1      -0.586  -1.536  -2.111 -0.51 +0.00    +0.004 C 
DOCKED: ATOM     43  C   UNL d   1      -0.050  -2.621  -1.536 -0.59 +0.00    +0.012 C 
DOCKED: ENDBRANCH  12  42
DOCKED: BRANCH  17  44
DOCKED: ATOM     44  C   UNL d   1       5.491  -3.138  -7.030 -0.44 +0.00    +0.004 C 
DOCKED: ATOM     45  C   UNL d   1       6.552  -2.513  -6.511 -0.65 +0.00    +0.012 C 
DOCKED: ENDBRANCH  17  44
DOCKED: TORSDOF 10
DOCKED: TER
DOCKED: ENDMDL
________________________________________________________________________________


	BEGINNING GENETIC ALGORITHM DOCKING 98 of 100
Run: 98 Seed: 1519948444 166021995 [ Run 98 of 100 GA/GALS ]
Beginning LAMARCKIAN GENETIC ALGORITHM (LGA), with a maximum of 25000000 energy evaluations.

Final-Value: -19.870


	FINAL GENETIC ALGORITHM DOCKED STATE
	_______________________________________________


Detailed state:  trans -0.169 -1.658 -9.135 quatxyzw -0.583811 -0.377723 -0.457264 -0.554436 center -0.174 -0.001 -0.047 ntor 10 50.9527 -55.7591 73.0960 -117.2390 179.4061 167.0362 -55.2105 58.3012 -179.1629 -170.5966
State:	 -0.169  -1.658  -9.135  -0.702 -0.454 -0.549 -112.656     50.95  -55.76   73.10 -117.24  179.41  167.04  -55.21   58.30 -179.16 -170.60

DOCKED: MODEL       98
DOCKED: USER    Run = 98
DOCKED: USER    DPF = D:/Protein_go_brrr/autodock/final/AncB/heme_Fe/dock.dpf
DOCKED: USER  
DOCKED: USER    Estimated Free Energy of Binding    =  -14.88 kcal/mol  [=(1)+(2)+(3)-(4)]
DOCKED: USER    Estimated Inhibition Constant, Ki   =   12.32 pM (picomolar)  [Temperature = 298.15 K]
DOCKED: USER    
DOCKED: USER    (1) Final Intermolecular Energy     =  -17.87 kcal/mol
DOCKED: USER        vdW + Hbond + desolv Energy     =  -14.43 kcal/mol
DOCKED: USER        Electrostatic Energy            =   -3.44 kcal/mol
DOCKED: USER    (2) Final Total Internal Energy     =   -2.00 kcal/mol
DOCKED: USER    (3) Torsional Free Energy           =   +2.98 kcal/mol
DOCKED: USER    (4) Unbound System's Energy  [=(2)] =   -2.00 kcal/mol
DOCKED: USER    
DOCKED: USER    
DOCKED: USER    NEWDPF move heme_Fe_opt.pdbqt
DOCKED: USER    NEWDPF about -0.174000 -0.001000 -0.047000
DOCKED: USER    NEWDPF tran0 -0.169372 -1.657531 -9.134986
DOCKED: USER    NEWDPF quaternion0 -0.583811 -0.377723 -0.457264 -0.554436
DOCKED: USER    NEWDPF axisangle0 -0.701506 -0.453871 -0.549446 -112.656259
DOCKED: USER    NEWDPF quat0 -0.701506 -0.453871 -0.549446 -112.656259
DOCKED: USER    NEWDPF dihe0 50.95 -55.76 73.10 -117.24 179.41 167.04 -55.21 58.30 -179.16 -170.60 
DOCKED: USER  keepresnum = 1 
DOCKED: USER  
DOCKED: REMARK  10 active torsions:
DOCKED: REMARK  status: ('A' for Active; 'I' for Inactive)
DOCKED: REMARK    1  A    between atoms: C_6  and  C_10 
DOCKED: REMARK    2  A    between atoms: C_10  and  C_11 
DOCKED: REMARK    3  A    between atoms: C_11  and  C_12 
DOCKED: REMARK    4  A    between atoms: C_12  and  O_14 
DOCKED: REMARK    5  A    between atoms: C_17  and  C_20 
DOCKED: REMARK    6  A    between atoms: C_24  and  C_27 
DOCKED: REMARK    7  A    between atoms: C_31  and  C_34 
DOCKED: REMARK    8  A    between atoms: C_34  and  C_35 
DOCKED: REMARK    9  A    between atoms: C_35  and  C_36 
DOCKED: REMARK   10  A    between atoms: C_36  and  O_38 
DOCKED: USER                              x       y       z     vdW  Elec       q    Type
DOCKED: USER                           _______ _______ _______ _____ _____    ______ ____
DOCKED: ROOT
DOCKED: ATOM      1  C   UNL d   1      -0.751  -0.993 -10.987 -0.25 +0.05    +0.064 C 
DOCKED: ATOM      2  C   UNL d   1      -2.843  -1.094  -6.510 -0.41 +0.02    +0.064 A 
DOCKED: ATOM      3  C   UNL d   1       1.464  -2.013  -4.594 -0.41 +0.01    +0.064 C 
DOCKED: ATOM      4  C   UNL d   1       3.491  -2.023  -8.927 -0.51 +0.02    +0.064 C 
DOCKED: ATOM      5  C   UNL d   1      -1.754  -1.019  -9.913 -0.32 +0.04    +0.066 A 
DOCKED: ATOM      6  C   UNL d   1      -3.121  -0.903 -10.104 -0.30 -0.02    -0.021 A 
DOCKED: ATOM      7  C   UNL d   1      -3.701  -0.927  -8.860 -0.29 -0.01    -0.025 A 
DOCKED: ATOM      8  C   UNL d   1      -2.664  -1.058  -7.956 -0.36 +0.03    +0.066 A 
DOCKED: ATOM      9  C   UNL d   1      -5.168  -0.848  -8.568 -0.29 +0.02    +0.051 C 
DOCKED: ATOM     10  C   UNL d   1      -1.867  -1.277  -5.619 -0.40 +0.02    +0.066 A 
DOCKED: ATOM     11  C   UNL d   1      -2.053  -1.193  -4.237 -0.43 -0.00    -0.021 A 
DOCKED: ATOM     12  C   UNL d   1      -0.822  -1.437  -3.662 -0.37 +0.00    +0.000 A 
DOCKED: ATOM     13  C   UNL d   1       0.062  -1.652  -4.734 -0.38 +0.01    +0.070 A 
DOCKED: ATOM     14  C   UNL d   1      -3.327  -0.829  -3.502 -0.60 +0.01    +0.052 C 
DOCKED: ATOM     15  C   UNL d   1       2.331  -2.170  -5.622 -0.39 +0.01    +0.066 A 
DOCKED: ATOM     16  C   UNL d   1       3.637  -2.612  -5.452 -0.48 -0.00    -0.021 A 
DOCKED: ATOM     17  C   UNL d   1       4.224  -2.612  -6.701 -0.50 +0.00    +0.000 A 
DOCKED: ATOM     18  C   UNL d   1       3.262  -2.166  -7.604 -0.42 +0.02    +0.070 A 
DOCKED: ATOM     19  C   UNL d   1       4.316  -2.995  -4.165 -0.63 +0.01    +0.052 C 
DOCKED: ATOM     20  C   UNL d   1       2.486  -1.615  -9.916 -0.43 +0.02    +0.066 A 
DOCKED: ATOM     21  C   UNL d   1       2.754  -1.271 -11.249 -0.43 -0.01    -0.025 A 
DOCKED: ATOM     22  C   UNL d   1       1.529  -0.994 -11.821 -0.24 -0.01    -0.021 A 
DOCKED: ATOM     23  C   UNL d   1       0.568  -1.171 -10.818 -0.09 +0.04    +0.066 A 
DOCKED: ATOM     24  C   UNL d   1       4.088  -1.201 -11.955 -0.53 +0.01    +0.051 C 
DOCKED: ATOM     25  N   UNL d   1      -1.482  -1.123  -8.600 -0.23 -0.12    -0.248 N 
DOCKED: ATOM     26  N   UNL d   1      -0.573  -1.546  -5.928 -0.25 -0.07    -0.248 N 
DOCKED: ATOM     27  N   UNL d   1       2.085  -1.935  -6.948 -0.21 -0.09    -0.248 N 
DOCKED: ATOM     28  N   UNL d   1       1.162  -1.507  -9.647 -0.23 -0.13    -0.248 N 
DOCKED: ATOM     29 FE   UNL d   1       0.297  -1.527  -7.788 -0.09 +0.00    +0.000 Fe
DOCKED: ENDROOT
DOCKED: BRANCH   6  30
DOCKED: ATOM     30  C   UNL d   1      -3.844  -0.795 -11.403 -0.17 +0.08    +0.052 C 
DOCKED: BRANCH  30  31
DOCKED: ATOM     31  C   UNL d   1      -3.992   0.665 -11.819 -0.21 +0.14    +0.115 C 
DOCKED: BRANCH  31  32
DOCKED: ATOM     32  C   UNL d   1      -3.423   0.879 -13.195 -0.18 +0.22    +0.139 C 
DOCKED: ATOM     33  O   UNL d   1      -3.457   1.984 -13.718 -0.38 -1.34    -0.650 OA
DOCKED: BRANCH  32  34
DOCKED: ATOM     34  O   UNL d   1      -2.872  -0.147 -13.865 +0.11 -1.77    -0.776 OA
DOCKED: ATOM     35  H   UNL d   1      -1.989  -0.039 -14.245 +0.03 +0.30    +0.167 HD
DOCKED: ENDBRANCH  32  34
DOCKED: ENDBRANCH  31  32
DOCKED: ENDBRANCH  30  31
DOCKED: ENDBRANCH   6  30
DOCKED: BRANCH  22  36
DOCKED: ATOM     36  C   UNL d   1       1.303  -0.536 -13.237 -0.27 +0.03    +0.052 C 
DOCKED: BRANCH  36  37
DOCKED: ATOM     37  C   UNL d   1       1.737   0.916 -13.383 -0.19 +0.06    +0.115 C 
DOCKED: BRANCH  37  38
DOCKED: ATOM     38  C   UNL d   1       0.602   1.770 -13.874 -0.18 +0.10    +0.139 C 
DOCKED: ATOM     39  O   UNL d   1       0.674   2.989 -13.831 -0.39 -0.58    -0.650 OA
DOCKED: BRANCH  38  40
DOCKED: ATOM     40  O   UNL d   1      -0.509   1.193 -14.364 +0.06 -0.76    -0.776 OA
DOCKED: ATOM     41  H   UNL d   1      -1.366   1.413 -13.972 +0.05 +0.21    +0.167 HD
DOCKED: ENDBRANCH  38  40
DOCKED: ENDBRANCH  37  38
DOCKED: ENDBRANCH  36  37
DOCKED: ENDBRANCH  22  36
DOCKED: BRANCH  12  42
DOCKED: ATOM     42  C   UNL d   1      -0.549  -1.437  -2.192 -0.49 +0.00    +0.004 C 
DOCKED: ATOM     43  C   UNL d   1      -0.065  -2.526  -1.581 -0.58 +0.00    +0.012 C 
DOCKED: ENDBRANCH  12  42
DOCKED: BRANCH  17  44
DOCKED: ATOM     44  C   UNL d   1       5.609  -3.032  -7.012 -0.50 +0.00    +0.004 C 
DOCKED: ATOM     45  C   UNL d   1       6.656  -2.371  -6.506 -0.65 +0.00    +0.012 C 
DOCKED: ENDBRANCH  17  44
DOCKED: TORSDOF 10
DOCKED: TER
DOCKED: ENDMDL
________________________________________________________________________________


	BEGINNING GENETIC ALGORITHM DOCKING 99 of 100
Run: 99 Seed: 1963779067 323763567 [ Run 99 of 100 GA/GALS ]
Beginning LAMARCKIAN GENETIC ALGORITHM (LGA), with a maximum of 25000000 energy evaluations.

Final-Value: -14.599


	FINAL GENETIC ALGORITHM DOCKED STATE
	_______________________________________________


Detailed state:  trans -5.651 -11.107 12.055 quatxyzw 0.603768 0.020936 0.457326 -0.652594 center -0.174 -0.001 -0.047 ntor 10 136.7479 176.4310 42.5612 49.9550 93.8641 -110.6645 -18.4347 1.9310 -168.1241 158.5746
State:	 -5.651 -11.107  12.055   0.797  0.028  0.604 -98.525    136.75  176.43   42.56   49.95   93.86 -110.66  -18.43    1.93 -168.12  158.57

DOCKED: MODEL       99
DOCKED: USER    Run = 99
DOCKED: USER    DPF = D:/Protein_go_brrr/autodock/final/AncB/heme_Fe/dock.dpf
DOCKED: USER  
DOCKED: USER    Estimated Free Energy of Binding    =  -10.04 kcal/mol  [=(1)+(2)+(3)-(4)]
DOCKED: USER    Estimated Inhibition Constant, Ki   =   43.77 nM (nanomolar)  [Temperature = 298.15 K]
DOCKED: USER    
DOCKED: USER    (1) Final Intermolecular Energy     =  -13.02 kcal/mol
DOCKED: USER        vdW + Hbond + desolv Energy     =   -8.97 kcal/mol
DOCKED: USER        Electrostatic Energy            =   -4.06 kcal/mol
DOCKED: USER    (2) Final Total Internal Energy     =   -1.58 kcal/mol
DOCKED: USER    (3) Torsional Free Energy           =   +2.98 kcal/mol
DOCKED: USER    (4) Unbound System's Energy  [=(2)] =   -1.58 kcal/mol
DOCKED: USER    
DOCKED: USER    
DOCKED: USER    NEWDPF move heme_Fe_opt.pdbqt
DOCKED: USER    NEWDPF about -0.174000 -0.001000 -0.047000
DOCKED: USER    NEWDPF tran0 -5.650540 -11.106855 12.054552
DOCKED: USER    NEWDPF quaternion0 0.603768 0.020936 0.457326 -0.652594
DOCKED: USER    NEWDPF axisangle0 0.796835 0.027631 0.603565 -98.525124
DOCKED: USER    NEWDPF quat0 0.796835 0.027631 0.603565 -98.525124
DOCKED: USER    NEWDPF dihe0 136.75 176.43 42.56 49.95 93.86 -110.66 -18.43 1.93 -168.12 158.57 
DOCKED: USER  keepresnum = 1 
DOCKED: USER  
DOCKED: REMARK  10 active torsions:
DOCKED: REMARK  status: ('A' for Active; 'I' for Inactive)
DOCKED: REMARK    1  A    between atoms: C_6  and  C_10 
DOCKED: REMARK    2  A    between atoms: C_10  and  C_11 
DOCKED: REMARK    3  A    between atoms: C_11  and  C_12 
DOCKED: REMARK    4  A    between atoms: C_12  and  O_14 
DOCKED: REMARK    5  A    between atoms: C_17  and  C_20 
DOCKED: REMARK    6  A    between atoms: C_24  and  C_27 
DOCKED: REMARK    7  A    between atoms: C_31  and  C_34 
DOCKED: REMARK    8  A    between atoms: C_34  and  C_35 
DOCKED: REMARK    9  A    between atoms: C_35  and  C_36 
DOCKED: REMARK   10  A    between atoms: C_36  and  O_38 
DOCKED: USER                              x       y       z     vdW  Elec       q    Type
DOCKED: USER                           _______ _______ _______ _____ _____    ______ ____
DOCKED: ROOT
DOCKED: ATOM      1  C   UNL d   1      -6.459 -12.740  11.111 -0.29 +0.04    +0.064 C 
DOCKED: ATOM      2  C   UNL d   1      -2.550  -9.828  10.291 -0.29 +0.02    +0.064 A 
DOCKED: ATOM      3  C   UNL d   1      -2.973  -8.119  14.760 -0.19 +0.01    +0.064 C 
DOCKED: ATOM      4  C   UNL d   1      -6.822 -10.851  15.538 -0.19 +0.04    +0.064 C 
DOCKED: ATOM      5  C   UNL d   1      -5.371 -12.018  10.438 -0.23 +0.03    +0.066 A 
DOCKED: ATOM      6  C   UNL d   1      -5.029 -12.167   9.103 -0.25 -0.01    -0.021 A 
DOCKED: ATOM      7  C   UNL d   1      -3.941 -11.361   8.878 -0.23 -0.01    -0.025 A 
DOCKED: ATOM      8  C   UNL d   1      -3.660 -10.750  10.084 -0.24 +0.02    +0.066 A 
DOCKED: ATOM      9  C   UNL d   1      -3.232 -11.180   7.570 -0.33 +0.02    +0.051 C 
DOCKED: ATOM     10  C   UNL d   1      -2.291  -9.182  11.429 -0.23 +0.02    +0.066 A 
DOCKED: ATOM     11  C   UNL d   1      -1.155  -8.394  11.632 -0.27 -0.00    -0.021 A 
DOCKED: ATOM     12  C   UNL d   1      -1.244  -7.903  12.919 -0.24 +0.00    +0.000 A 
DOCKED: ATOM     13  C   UNL d   1      -2.439  -8.428  13.443 -0.15 +0.02    +0.070 A 
DOCKED: ATOM     14  C   UNL d   1      -0.004  -8.176  10.670 -0.10 +0.01    +0.052 C 
DOCKED: ATOM     15  C   UNL d   1      -4.095  -8.662  15.288 -0.13 +0.02    +0.066 A 
DOCKED: ATOM     16  C   UNL d   1      -4.627  -8.266  16.509 -0.16 -0.00    -0.021 A 
DOCKED: ATOM     17  C   UNL d   1      -5.735  -9.055  16.737 -0.16 +0.00    +0.000 A 
DOCKED: ATOM     18  C   UNL d   1      -5.851  -9.919  15.650 -0.08 +0.05    +0.070 A 
DOCKED: ATOM     19  C   UNL d   1      -4.102  -7.206  17.439 -0.12 -0.00    +0.052 C 
DOCKED: ATOM     20  C   UNL d   1      -7.012 -11.735  14.381 -0.23 +0.04    +0.066 A 
DOCKED: ATOM     21  C   UNL d   1      -7.882 -12.833  14.335 -0.25 -0.01    -0.025 A 
DOCKED: ATOM     22  C   UNL d   1      -7.772 -13.349  13.061 -0.32 -0.01    -0.021 A 
DOCKED: ATOM     23  C   UNL d   1      -6.839 -12.553  12.385 -0.30 +0.04    +0.066 A 
DOCKED: ATOM     24  C   UNL d   1      -8.771 -13.379  15.429 -0.18 +0.02    +0.051 C 
DOCKED: ATOM     25  N   UNL d   1      -4.537 -11.144  11.029 -0.15 -0.10    -0.248 N 
DOCKED: ATOM     26  N   UNL d   1      -3.072  -9.214  12.539 -0.09 -0.08    -0.248 N 
DOCKED: ATOM     27  N   UNL d   1      -4.869  -9.648  14.738 -0.10 -0.15    -0.248 N 
DOCKED: ATOM     28  N   UNL d   1      -6.346 -11.597  13.209 -0.17 -0.15    -0.248 N 
DOCKED: ATOM     29 FE   UNL d   1      -4.710 -10.406  12.876 -0.05 +0.00    +0.000 Fe
DOCKED: ENDROOT
DOCKED: BRANCH   6  30
DOCKED: ATOM     30  C   UNL d   1      -5.714 -13.015   8.087 -0.31 +0.04    +0.052 C 
DOCKED: BRANCH  30  31
DOCKED: ATOM     31  C   UNL d   1      -5.308 -14.477   8.241 -0.15 +0.09    +0.115 C 
DOCKED: BRANCH  31  32
DOCKED: ATOM     32  C   UNL d   1      -6.298 -15.373   7.550 -0.21 +0.21    +0.139 C 
DOCKED: ATOM     33  O   UNL d   1      -6.109 -15.738   6.398 -0.50 -1.45    -0.650 OA
DOCKED: BRANCH  32  34
DOCKED: ATOM     34  O   UNL d   1      -7.403 -15.783   8.195 -0.29 -2.00    -0.776 OA
DOCKED: ATOM     35  H   UNL d   1      -7.328 -16.076   9.114 -0.00 +0.34    +0.167 HD
DOCKED: ENDBRANCH  32  34
DOCKED: ENDBRANCH  31  32
DOCKED: ENDBRANCH  30  31
DOCKED: ENDBRANCH   6  30
DOCKED: BRANCH  22  36
DOCKED: ATOM     36  C   UNL d   1      -8.487 -14.568  12.540 -0.06 +0.02    +0.052 C 
DOCKED: BRANCH  36  37
DOCKED: ATOM     37  C   UNL d   1      -7.518 -15.738  12.463 -0.16 +0.05    +0.115 C 
DOCKED: BRANCH  37  38
DOCKED: ATOM     38  C   UNL d   1      -8.195 -16.964  11.921 -0.16 +0.10    +0.139 C 
DOCKED: ATOM     39  O   UNL d   1      -8.408 -17.930  12.638 +0.02 -0.34    -0.650 OA
DOCKED: BRANCH  38  40
DOCKED: ATOM     40  O   UNL d   1      -8.572 -17.008  10.630 -0.09 -1.29    -0.776 OA
DOCKED: ATOM     41  H   UNL d   1      -8.451 -16.222  10.078 -0.37 +0.34    +0.167 HD
DOCKED: ENDBRANCH  38  40
DOCKED: ENDBRANCH  37  38
DOCKED: ENDBRANCH  36  37
DOCKED: ENDBRANCH  22  36
DOCKED: BRANCH  12  42
DOCKED: ATOM     42  C   UNL d   1      -0.232  -7.016  13.569 -0.25 +0.00    +0.004 C 
DOCKED: ATOM     43  C   UNL d   1      -0.328  -5.682  13.485 -0.42 -0.00    +0.012 C 
DOCKED: ENDBRANCH  12  42
DOCKED: BRANCH  17  44
DOCKED: ATOM     44  C   UNL d   1      -6.637  -8.975  17.909 -0.13 +0.00    +0.004 C 
DOCKED: ATOM     45  C   UNL d   1      -7.841  -8.402  17.809 -0.23 -0.00    +0.012 C 
DOCKED: ENDBRANCH  17  44
DOCKED: TORSDOF 10
DOCKED: TER
DOCKED: ENDMDL
________________________________________________________________________________


	BEGINNING GENETIC ALGORITHM DOCKING 100 of 100
Run: 100 Seed: 105910502 1102023708 [ Run 100 of 100 GA/GALS ]
Beginning LAMARCKIAN GENETIC ALGORITHM (LGA), with a maximum of 25000000 energy evaluations.

Final-Value: -14.410


	FINAL GENETIC ALGORITHM DOCKED STATE
	_______________________________________________


Detailed state:  trans -4.996 -11.440 12.170 quatxyzw -0.633364 -0.540865 0.035350 -0.552328 center -0.174 -0.001 -0.047 ntor 10 131.7085 153.8554 -166.6003 -101.5463 -108.2487 60.2240 12.5163 -14.9885 5.5400 18.9767
State:	 -4.996 -11.440  12.170  -0.760 -0.649  0.042 -112.946    131.71  153.86 -166.60 -101.55 -108.25   60.22   12.52  -14.99    5.54   18.98

DOCKED: MODEL      100
DOCKED: USER    Run = 100
DOCKED: USER    DPF = D:/Protein_go_brrr/autodock/final/AncB/heme_Fe/dock.dpf
DOCKED: USER  
DOCKED: USER    Estimated Free Energy of Binding    =   -9.96 kcal/mol  [=(1)+(2)+(3)-(4)]
DOCKED: USER    Estimated Inhibition Constant, Ki   =   50.20 nM (nanomolar)  [Temperature = 298.15 K]
DOCKED: USER    
DOCKED: USER    (1) Final Intermolecular Energy     =  -12.94 kcal/mol
DOCKED: USER        vdW + Hbond + desolv Energy     =   -8.82 kcal/mol
DOCKED: USER        Electrostatic Energy            =   -4.12 kcal/mol
DOCKED: USER    (2) Final Total Internal Energy     =   -1.47 kcal/mol
DOCKED: USER    (3) Torsional Free Energy           =   +2.98 kcal/mol
DOCKED: USER    (4) Unbound System's Energy  [=(2)] =   -1.47 kcal/mol
DOCKED: USER    
DOCKED: USER    
DOCKED: USER    NEWDPF move heme_Fe_opt.pdbqt
DOCKED: USER    NEWDPF about -0.174000 -0.001000 -0.047000
DOCKED: USER    NEWDPF tran0 -4.995905 -11.440007 12.170158
DOCKED: USER    NEWDPF quaternion0 -0.633364 -0.540865 0.035350 -0.552328
DOCKED: USER    NEWDPF axisangle0 -0.759769 -0.648809 0.042405 -112.946315
DOCKED: USER    NEWDPF quat0 -0.759769 -0.648809 0.042405 -112.946315
DOCKED: USER    NEWDPF dihe0 131.71 153.86 -166.60 -101.55 -108.25 60.22 12.52 -14.99 5.54 18.98 
DOCKED: USER  keepresnum = 1 
DOCKED: USER  
DOCKED: REMARK  10 active torsions:
DOCKED: REMARK  status: ('A' for Active; 'I' for Inactive)
DOCKED: REMARK    1  A    between atoms: C_6  and  C_10 
DOCKED: REMARK    2  A    between atoms: C_10  and  C_11 
DOCKED: REMARK    3  A    between atoms: C_11  and  C_12 
DOCKED: REMARK    4  A    between atoms: C_12  and  O_14 
DOCKED: REMARK    5  A    between atoms: C_17  and  C_20 
DOCKED: REMARK    6  A    between atoms: C_24  and  C_27 
DOCKED: REMARK    7  A    between atoms: C_31  and  C_34 
DOCKED: REMARK    8  A    between atoms: C_34  and  C_35 
DOCKED: REMARK    9  A    between atoms: C_35  and  C_36 
DOCKED: REMARK   10  A    between atoms: C_36  and  O_38 
DOCKED: USER                              x       y       z     vdW  Elec       q    Type
DOCKED: USER                           _______ _______ _______ _____ _____    ______ ____
DOCKED: ROOT
DOCKED: ATOM      1  C   UNL d   1      -6.193 -12.534  10.913 -0.29 +0.04    +0.064 C 
DOCKED: ATOM      2  C   UNL d   1      -6.710 -10.667  15.460 -0.15 +0.04    +0.064 A 
DOCKED: ATOM      3  C   UNL d   1      -2.855  -7.908  14.691 -0.20 +0.01    +0.064 C 
DOCKED: ATOM      4  C   UNL d   1      -2.274  -9.778  10.326 -0.31 +0.01    +0.064 C 
DOCKED: ATOM      5  C   UNL d   1      -6.646 -12.325  12.295 -0.29 +0.04    +0.066 A 
DOCKED: ATOM      6  C   UNL d   1      -7.668 -13.032  12.907 -0.34 -0.01    -0.021 A 
DOCKED: ATOM      7  C   UNL d   1      -7.814 -12.510  14.168 -0.29 -0.01    -0.025 A 
DOCKED: ATOM      8  C   UNL d   1      -6.874 -11.504  14.278 -0.23 +0.04    +0.066 A 
DOCKED: ATOM      9  C   UNL d   1      -8.789 -12.971  15.207 -0.22 +0.02    +0.051 C 
DOCKED: ATOM     10  C   UNL d   1      -5.774  -9.729  15.613 -0.06 +0.05    +0.066 A 
DOCKED: ATOM     11  C   UNL d   1      -5.714  -8.865  16.709 -0.15 -0.01    -0.021 A 
DOCKED: ATOM     12  C   UNL d   1      -4.621  -8.048  16.503 -0.17 +0.00    +0.000 A 
DOCKED: ATOM     13  C   UNL d   1      -4.069  -8.454  15.276 -0.12 +0.02    +0.070 A 
DOCKED: ATOM     14  C   UNL d   1      -6.692  -8.777  17.864 -0.14 +0.00    +0.052 C 
DOCKED: ATOM     15  C   UNL d   1      -2.349  -8.259  13.485 -0.14 +0.01    +0.066 A 
DOCKED: ATOM     16  C   UNL d   1      -1.134  -7.787  13.005 -0.23 -0.00    -0.021 A 
DOCKED: ATOM     17  C   UNL d   1      -0.966  -8.323  11.745 -0.27 +0.00    +0.000 A 
DOCKED: ATOM     18  C   UNL d   1      -2.087  -9.107  11.483 -0.23 +0.02    +0.070 A 
DOCKED: ATOM     19  C   UNL d   1      -0.177  -6.849  13.692 -0.23 +0.00    +0.052 C 
DOCKED: ATOM     20  C   UNL d   1      -3.410 -10.661  10.039 -0.24 +0.02    +0.066 A 
DOCKED: ATOM     21  C   UNL d   1      -3.719 -11.202   8.783 -0.23 -0.01    -0.025 A 
DOCKED: ATOM     22  C   UNL d   1      -4.832 -11.994   8.976 -0.24 -0.01    -0.021 A 
DOCKED: ATOM     23  C   UNL d   1      -5.160 -11.901  10.333 -0.22 +0.03    +0.066 A 
DOCKED: ATOM     24  C   UNL d   1      -3.014 -10.986   7.464 -0.34 +0.01    +0.051 C 
DOCKED: ATOM     25  N   UNL d   1      -6.158 -11.401  13.140 -0.17 -0.16    -0.248 N 
DOCKED: ATOM     26  N   UNL d   1      -4.777  -9.472  14.728 -0.08 -0.15    -0.248 N 
DOCKED: ATOM     27  N   UNL d   1      -2.917  -9.103  12.569 -0.10 -0.08    -0.248 N 
DOCKED: ATOM     28  N   UNL d   1      -4.316 -11.052  10.968 -0.14 -0.10    -0.248 N 
DOCKED: ATOM     29 FE   UNL d   1      -4.545 -10.262  12.847 -0.05 +0.00    +0.000 Fe
DOCKED: ENDROOT
DOCKED: BRANCH   6  30
DOCKED: ATOM     30  C   UNL d   1      -8.454 -14.161  12.332 -0.06 +0.02    +0.052 C 
DOCKED: BRANCH  30  31
DOCKED: ATOM     31  C   UNL d   1      -7.853 -15.501  12.741 -0.19 +0.05    +0.115 C 
DOCKED: BRANCH  31  32
DOCKED: ATOM     32  C   UNL d   1      -8.449 -16.615  11.926 -0.16 +0.10    +0.139 C 
DOCKED: ATOM     33  O   UNL d   1      -9.228 -17.411  12.433 -0.06 -0.42    -0.650 OA
DOCKED: BRANCH  32  34
DOCKED: ATOM     34  O   UNL d   1      -8.129 -16.747  10.627 -0.01 -1.06    -0.776 OA
DOCKED: ATOM     35  H   UNL d   1      -8.166 -15.969  10.054 -0.30 +0.27    +0.167 HD
DOCKED: ENDBRANCH  32  34
DOCKED: ENDBRANCH  31  32
DOCKED: ENDBRANCH  30  31
DOCKED: ENDBRANCH   6  30
DOCKED: BRANCH  22  36
DOCKED: ATOM     36  C   UNL d   1      -5.566 -12.756   7.904 -0.32 +0.04    +0.052 C 
DOCKED: BRANCH  36  37
DOCKED: ATOM     37  C   UNL d   1      -5.462 -14.250   8.175 -0.18 +0.10    +0.115 C 
DOCKED: BRANCH  37  38
DOCKED: ATOM     38  C   UNL d   1      -6.477 -15.014   7.372 -0.24 +0.22    +0.139 C 
DOCKED: ATOM     39  O   UNL d   1      -6.473 -14.967   6.151 -0.23 -1.60    -0.650 OA
DOCKED: BRANCH  38  40
DOCKED: ATOM     40  O   UNL d   1      -7.406 -15.758   7.999 -0.34 -2.01    -0.776 OA
DOCKED: ATOM     41  H   UNL d   1      -7.210 -16.112   8.878 +0.01 +0.35    +0.167 HD
DOCKED: ENDBRANCH  38  40
DOCKED: ENDBRANCH  37  38
DOCKED: ENDBRANCH  36  37
DOCKED: ENDBRANCH  22  36
DOCKED: BRANCH  12  42
DOCKED: ATOM     42  C   UNL d   1      -4.181  -6.958  17.428 -0.14 -0.00    +0.004 C 
DOCKED: ATOM     43  C   UNL d   1      -4.141  -5.683  17.021 -0.25 -0.00    +0.012 C 
DOCKED: ENDBRANCH  12  42
DOCKED: BRANCH  17  44
DOCKED: ATOM     44  C   UNL d   1       0.201  -8.114  10.858 -0.19 +0.00    +0.004 C 
DOCKED: ATOM     45  C   UNL d   1       0.688  -6.887  10.644 -0.28 +0.00    +0.012 C 
DOCKED: ENDBRANCH  17  44
DOCKED: TORSDOF 10
DOCKED: TER
DOCKED: ENDMDL
________________________________________________________________________________

DPF> analysis                             # perform a ranked cluster analysis


		CLUSTER ANALYSIS OF CONFORMATIONS
		_________________________________

Number of conformations = 100

RMSD cluster analysis will be performed using the ligand atoms only (45 / 45 total atoms).

Outputting structurally similar clusters, ranked in order of increasing energy.


________________________________________________________________________________

Number of distinct conformational clusters found = 7,  out of 100 runs,
Using an rmsd-tolerance of 2.0 A


	CLUSTERING HISTOGRAM
	____________________

________________________________________________________________________________
     |           |     |           |     |                                    
Clus | Lowest    | Run | Mean      | Num | Histogram                          
-ter | Binding   |     | Binding   | in  |                                    
Rank | Energy    |     | Energy    | Clus|    5    10   15   20   25   30   35
_____|___________|_____|___________|_____|____:____|____:____|____:____|____:___
   1 |    -15.35 |  29 |    -14.60 |  47 |###############################################
   2 |    -13.53 |  93 |    -12.31 |   3 |###
   3 |    -10.94 |  59 |     -9.96 |  43 |###########################################
   4 |     -8.52 |  95 |     -8.23 |   4 |####
   5 |     -8.37 |  48 |     -8.37 |   1 |#
   6 |     -7.75 |  70 |     -7.75 |   1 |#
   7 |     -7.36 |  15 |     -7.36 |   1 |#
_____|___________|_____|___________|_____|______________________________________


Number of multi-member conformational clusters found = 4, out of 100 runs.

	RMSD TABLE
	__________

_____________________________________________________________________
     |      |      |           |         |                 |
Rank | Sub- | Run  | Binding   | Cluster | Reference       | Grep
     | Rank |      | Energy    | RMSD    | RMSD            | Pattern
_____|______|______|___________|_________|_________________|___________
   1      1     29      -15.35      0.00      9.53           RANKING
   1      2     97      -15.27      0.29      9.60           RANKING
   1      3      9      -15.13      0.40      9.56           RANKING
   1      4     74      -15.12      0.48      9.66           RANKING
   1      5     13      -15.07      0.38      9.54           RANKING
   1      6     23      -15.04      0.78      9.72           RANKING
   1      7     68      -15.01      0.80      9.74           RANKING
   1      8     82      -14.98      0.56      9.72           RANKING
   1      9     43      -14.98      0.77      9.62           RANKING
   1     10     79      -14.96      0.78      9.76           RANKING
   1     11     33      -14.95      1.77      9.79           RANKING
   1     12     21      -14.91      0.80      9.74           RANKING
   1     13     98      -14.88      0.74      9.60           RANKING
   1     14     14      -14.87      0.75      9.62           RANKING
   1     15     81      -14.85      0.85      9.56           RANKING
   1     16      8      -14.85      0.50      9.62           RANKING
   1     17     52      -14.83      0.39      9.63           RANKING
   1     18     34      -14.82      0.85      9.66           RANKING
   1     19     40      -14.79      0.89      9.64           RANKING
   1     20     94      -14.75      0.59      9.67           RANKING
   1     21     41      -14.74      0.92      9.69           RANKING
   1     22     11      -14.74      0.75      9.76           RANKING
   1     23     60      -14.72      0.78      9.93           RANKING
   1     24     87      -14.71      0.65      9.76           RANKING
   1     25     91      -14.67      0.71      9.70           RANKING
   1     26     42      -14.59      0.84      9.69           RANKING
   1     27     19      -14.57      0.67      9.78           RANKING
   1     28     73      -14.54      1.71      9.80           RANKING
   1     29     65      -14.53      1.61      9.58           RANKING
   1     30     25      -14.51      0.75      9.55           RANKING
   1     31     54      -14.51      0.80      9.58           RANKING
   1     32     80      -14.50      0.53      9.54           RANKING
   1     33     69      -14.46      0.53      9.53           RANKING
   1     34     20      -14.44      0.96      9.71           RANKING
   1     35     22      -14.39      1.56      9.41           RANKING
   1     36     72      -14.36      0.78      9.62           RANKING
   1     37     18      -14.21      0.79      9.58           RANKING
   1     38     17      -14.17      0.82      9.86           RANKING
   1     39     76      -14.16      0.84      9.64           RANKING
   1     40     49      -14.16      0.82      9.57           RANKING
   1     41     38      -14.14      0.91      9.75           RANKING
   1     42     12      -14.10      0.97      9.63           RANKING
   1     43     39      -13.95      0.65      9.52           RANKING
   1     44      5      -13.90      0.89      9.94           RANKING
   1     45     88      -13.90      1.02      9.72           RANKING
   1     46     67      -13.68      1.59      9.80           RANKING
   1     47     28      -13.61      1.59      9.79           RANKING
   2      1     93      -13.53      0.00      9.12           RANKING
   2      2     63      -12.74      1.30      8.56           RANKING
   2      3     26      -10.68      1.67     10.68           RANKING
   3      1     59      -10.94      0.00     15.74           RANKING
   3      2     31      -10.92      0.55     15.79           RANKING
   3      3     36      -10.77      0.62     15.97           RANKING
   3      4     75      -10.74      0.27     15.71           RANKING
   3      5     83      -10.74      0.38     15.59           RANKING
   3      6     37      -10.69      0.63     15.80           RANKING
   3      7     45      -10.59      0.85     15.78           RANKING
   3      8      3      -10.53      0.79     15.76           RANKING
   3      9     92      -10.43      0.48     15.53           RANKING
   3     10     30      -10.40      0.75     15.51           RANKING
   3     11     66      -10.37      0.67     15.55           RANKING
   3     12     89      -10.28      0.58     15.62           RANKING
   3     13     85      -10.25      0.64     15.81           RANKING
   3     14     27      -10.21      0.77     15.72           RANKING
   3     15     35      -10.08      0.72     15.79           RANKING
   3     16     99      -10.04      0.74     15.69           RANKING
   3     17    100       -9.96      1.01     15.44           RANKING
   3     18     10       -9.95      0.82     15.59           RANKING
   3     19     57       -9.90      0.85     15.66           RANKING
   3     20      6       -9.89      1.03     15.38           RANKING
   3     21     84       -9.87      0.76     15.71           RANKING
   3     22     44       -9.86      0.65     16.00           RANKING
   3     23     62       -9.86      0.76     15.65           RANKING
   3     24     77       -9.84      0.78     15.70           RANKING
   3     25     96       -9.83      0.86     15.59           RANKING
   3     26     53       -9.82      0.98     15.54           RANKING
   3     27      4       -9.79      0.78     15.60           RANKING
   3     28     32       -9.76      1.03     15.55           RANKING
   3     29     47       -9.72      1.05     15.44           RANKING
   3     30     16       -9.72      1.07     15.48           RANKING
   3     31     24       -9.68      0.92     15.61           RANKING
   3     32     58       -9.67      1.03     15.72           RANKING
   3     33     78       -9.63      0.77     15.87           RANKING
   3     34      7       -9.61      0.89     15.60           RANKING
   3     35      1       -9.61      1.00     15.55           RANKING
   3     36     64       -9.60      1.26     14.85           RANKING
   3     37     50       -9.54      0.95     15.46           RANKING
   3     38      2       -9.45      0.87     15.91           RANKING
   3     39     46       -9.30      0.91     15.55           RANKING
   3     40     61       -9.27      1.22     14.93           RANKING
   3     41     90       -9.26      1.29     15.09           RANKING
   3     42     56       -9.18      1.20     15.02           RANKING
   3     43     86       -8.83      1.40     16.40           RANKING
   4      1     95       -8.52      0.00     12.38           RANKING
   4      2     55       -8.41      0.74     12.33           RANKING
   4      3     71       -8.38      1.54     12.63           RANKING
   4      4     51       -7.61      1.13     12.03           RANKING
   5      1     48       -8.37      0.00     14.16           RANKING
   6      1     70       -7.75      0.00     17.60           RANKING
   7      1     15       -7.36      0.00     16.58           RANKING
_______________________________________________________________________



	INFORMATION ENTROPY ANALYSIS FOR THIS CLUSTERING
	________________________________________________


Information entropy for this clustering = 0.24  (rmstol = 2.00 Angstrom)

_______________________________________________________________________


	STATISTICAL MECHANICAL ANALYSIS
	_______________________________


Partition function, Q =   102.06            at Temperature, T = 298.15 K
Free energy,        A ~ -2740.56 kcal/mol   at Temperature, T = 298.15 K
Internal energy,    U =   -12.09 kcal/mol   at Temperature, T = 298.15 K
Entropy,            S =     9.15 kcal/mol/K at Temperature, T = 298.15 K

_______________________________________________________________________


	LOWEST ENERGY DOCKED CONFORMATION from EACH CLUSTER
	___________________________________________________



Keeping original residue number (specified in the input PDBQ file) for outputting.

MODEL       29
USER    Run = 29
USER    Cluster Rank = 1
USER    Number of conformations in this cluster = 47
USER  
USER    RMSD from reference structure       = 9.535 A
USER  
USER    Estimated Free Energy of Binding    =  -15.35 kcal/mol  [=(1)+(2)+(3)-(4)]
USER    Estimated Inhibition Constant, Ki   =    5.64 pM (picomolar)  [Temperature = 298.15 K]
USER    
USER    (1) Final Intermolecular Energy     =  -18.33 kcal/mol
USER        vdW + Hbond + desolv Energy     =  -14.43 kcal/mol
USER        Electrostatic Energy            =   -3.89 kcal/mol
USER    (2) Final Total Internal Energy     =   -1.71 kcal/mol
USER    (3) Torsional Free Energy           =   +2.98 kcal/mol
USER    (4) Unbound System's Energy  [=(2)] =   -1.71 kcal/mol
USER    
USER    
USER  
USER    DPF = D:/Protein_go_brrr/autodock/final/AncB/heme_Fe/dock.dpf
USER    NEWDPF move	heme_Fe_opt.pdbqt
USER    NEWDPF about	-0.174000 -0.001000 -0.047000
USER    NEWDPF tran0	-0.175452 -1.641668 -9.016376
USER    NEWDPF axisangle0	0.696300 0.447154 0.561445 112.316199
USER    NEWDPF quaternion0	0.578331 0.371396 0.466323 0.556903
USER    NEWDPF dihe0	-85.63 31.07 75.56 -126.04 20.46 168.17 -28.71 -54.10 -171.95 16.81 
USER  
USER                              x       y       z    vdW   Elec        q     RMS 
ATOM      1  C   UNL d   1      -0.737  -0.931 -10.857 -0.20 +0.05    +0.064     9.535
ATOM      2  C   UNL d   1      -2.861  -1.106  -6.398 -0.41 +0.02    +0.064     9.535
ATOM      3  C   UNL d   1       1.423  -2.113  -4.474 -0.42 +0.01    +0.064     9.535
ATOM      4  C   UNL d   1       3.479  -2.052  -8.793 -0.51 +0.02    +0.064     9.535
ATOM      5  C   UNL d   1      -1.747  -0.969  -9.791 -0.32 +0.04    +0.066     9.535
ATOM      6  C   UNL d   1      -3.112  -0.833  -9.988 -0.30 -0.02    -0.021     9.535
ATOM      7  C   UNL d   1      -3.700  -0.878  -8.749 -0.30 -0.01    -0.025     9.535
ATOM      8  C   UNL d   1      -2.671  -1.040  -7.841 -0.36 +0.03    +0.066     9.535
ATOM      9  C   UNL d   1      -5.168  -0.789  -8.465 -0.31 +0.02    +0.051     9.535
ATOM     10  C   UNL d   1      -1.893  -1.319  -5.505 -0.41 +0.02    +0.066     9.535
ATOM     11  C   UNL d   1      -2.087  -1.262  -4.123 -0.44 -0.00    -0.021     9.535
ATOM     12  C   UNL d   1      -0.863  -1.532  -3.545 -0.41 +0.00    +0.000     9.535
ATOM     13  C   UNL d   1       0.026  -1.734  -4.615 -0.38 +0.01    +0.070     9.535
ATOM     14  C   UNL d   1      -3.362  -0.900  -3.388 -0.62 +0.01    +0.052     9.535
ATOM     15  C   UNL d   1       2.295  -2.257  -5.499 -0.39 +0.01    +0.066     9.535
ATOM     16  C   UNL d   1       3.595  -2.717  -5.330 -0.49 -0.00    -0.021     9.535
ATOM     17  C   UNL d   1       4.191  -2.697  -6.574 -0.50 +0.00    +0.000     9.535
ATOM     18  C   UNL d   1       3.240  -2.221  -7.474 -0.41 +0.02    +0.070     9.535
ATOM     19  C   UNL d   1       4.261  -3.136  -4.047 -0.62 +0.01    +0.052     9.535
ATOM     20  C   UNL d   1       2.485  -1.612  -9.779 -0.43 +0.03    +0.066     9.535
ATOM     21  C   UNL d   1       2.766  -1.243 -11.102 -0.44 -0.01    -0.025     9.535
ATOM     22  C   UNL d   1       1.549  -0.939 -11.676 -0.17 -0.01    -0.021     9.535
ATOM     23  C   UNL d   1       0.579  -1.128 -10.684 -0.05 +0.04    +0.066     9.535
ATOM     24  C   UNL d   1       4.106  -1.172 -11.798 -0.54 +0.01    +0.051     9.535
ATOM     25  N   UNL d   1      -1.486  -1.105  -8.479 -0.24 -0.12    -0.248     9.535
ATOM     26  N   UNL d   1      -0.599  -1.595  -5.810 -0.25 -0.07    -0.248     9.535
ATOM     27  N   UNL d   1       2.061  -1.991  -6.821 -0.21 -0.09    -0.248     9.535
ATOM     28  N   UNL d   1       1.161  -1.495  -9.516 -0.21 -0.14    -0.248     9.535
ATOM     29 FE   UNL d   1       0.283  -1.545  -7.664 -0.09 +0.00    +0.000     9.535
ATOM     30  C   UNL d   1      -3.825  -0.689 -11.289 -0.22 +0.07    +0.052     9.535
ATOM     31  C   UNL d   1      -3.798   0.760 -11.763 -0.22 +0.13    +0.115     9.535
ATOM     32  C   UNL d   1      -3.851   0.824 -13.264 -0.16 +0.22    +0.139     9.535
ATOM     33  O   UNL d   1      -4.270  -0.123 -13.914 +0.11 -1.33    -0.650     9.535
ATOM     34  O   UNL d   1      -3.436   1.928 -13.907 -0.41 -1.59    -0.776     9.535
ATOM     35  H   UNL d   1      -2.525   1.970 -14.229 +0.03 +0.31    +0.167     9.535
ATOM     36  C   UNL d   1       1.338  -0.448 -13.084 -0.28 +0.03    +0.052     9.535
ATOM     37  C   UNL d   1       0.578  -1.496 -13.884 -0.20 +0.09    +0.115     9.535
ATOM     38  C   UNL d   1      -0.661  -0.909 -14.500 -0.13 +0.18    +0.139     9.535
ATOM     39  O   UNL d   1      -1.287  -1.524 -15.350 -0.33 -1.19    -0.650     9.535
ATOM     40  O   UNL d   1      -1.089   0.307 -14.118 +0.01 -0.95    -0.776     9.535
ATOM     41  H   UNL d   1      -2.037   0.499 -14.136 +0.04 +0.25    +0.167     9.535
ATOM     42  C   UNL d   1      -0.600  -1.567  -2.073 -0.51 +0.00    +0.004     9.535
ATOM     43  C   UNL d   1      -0.086  -2.658  -1.490 -0.59 +0.00    +0.012     9.535
ATOM     44  C   UNL d   1       5.573  -3.126  -6.885 -0.47 +0.00    +0.004     9.535
ATOM     45  C   UNL d   1       6.621  -2.388  -6.505 -0.65 +0.00    +0.012     9.535
TER
ENDMDL
MODEL       93
USER    Run = 93
USER    Cluster Rank = 2
USER    Number of conformations in this cluster = 3
USER  
USER    RMSD from reference structure       = 9.115 A
USER  
USER    Estimated Free Energy of Binding    =  -13.53 kcal/mol  [=(1)+(2)+(3)-(4)]
USER    Estimated Inhibition Constant, Ki   =  120.77 pM (picomolar)  [Temperature = 298.15 K]
USER    
USER    (1) Final Intermolecular Energy     =  -16.51 kcal/mol
USER        vdW + Hbond + desolv Energy     =  -14.31 kcal/mol
USER        Electrostatic Energy            =   -2.20 kcal/mol
USER    (2) Final Total Internal Energy     =   -0.21 kcal/mol
USER    (3) Torsional Free Energy           =   +2.98 kcal/mol
USER    (4) Unbound System's Energy  [=(2)] =   -0.21 kcal/mol
USER    
USER    
USER  
USER    DPF = D:/Protein_go_brrr/autodock/final/AncB/heme_Fe/dock.dpf
USER    NEWDPF move	heme_Fe_opt.pdbqt
USER    NEWDPF about	-0.174000 -0.001000 -0.047000
USER    NEWDPF tran0	-0.500766 -0.584630 -8.419446
USER    NEWDPF axisangle0	-0.959298 0.006169 0.282327 101.250161
USER    NEWDPF quaternion0	-0.741549 0.004769 0.218242 0.634392
USER    NEWDPF dihe0	152.23 127.07 -167.81 -164.95 86.61 -144.08 136.51 -64.80 178.10 -134.17 
USER  
USER                              x       y       z    vdW   Elec        q     RMS 
ATOM      1  C   UNL d   1      -2.484  -0.510  -7.899 -0.46 +0.02    +0.064     9.115
ATOM      2  C   UNL d   1      -0.014  -0.716 -12.175 -0.14 +0.05    +0.064     9.115
ATOM      3  C   UNL d   1       3.935  -1.985  -9.752 -0.53 +0.02    +0.064     9.115
ATOM      4  C   UNL d   1       1.590  -1.689  -5.594 -0.43 +0.02    +0.064     9.115
ATOM      5  C   UNL d   1      -2.134  -0.369  -9.319 -0.33 +0.04    +0.066     9.115
ATOM      6  C   UNL d   1      -2.994   0.089 -10.304 -0.30 -0.02    -0.021     9.115
ATOM      7  C   UNL d   1      -2.308   0.027 -11.492 -0.26 -0.03    -0.025     9.115
ATOM      8  C   UNL d   1      -1.054  -0.466 -11.186 +0.09 +0.06    +0.066     9.115
ATOM      9  C   UNL d   1      -2.829   0.440 -12.834 -0.22 +0.08    +0.051     9.115
ATOM     10  C   UNL d   1       1.222  -1.137 -11.900 -0.22 +0.04    +0.066     9.115
ATOM     11  C   UNL d   1       2.160  -1.478 -12.877 -0.22 -0.01    -0.021     9.115
ATOM     12  C   UNL d   1       3.303  -1.863 -12.204 -0.41 +0.00    +0.000     9.115
ATOM     13  C   UNL d   1       2.996  -1.744 -10.837 -0.44 +0.02    +0.070     9.115
ATOM     14  C   UNL d   1       1.957  -1.501 -14.378 -0.06 +0.03    +0.052     9.115
ATOM     15  C   UNL d   1       3.630  -1.922  -8.435 -0.43 +0.02    +0.066     9.115
ATOM     16  C   UNL d   1       4.579  -2.061  -7.429 -0.49 -0.01    -0.021     9.115
ATOM     17  C   UNL d   1       3.904  -1.979  -6.229 -0.48 +0.00    +0.000     9.115
ATOM     18  C   UNL d   1       2.556  -1.796  -6.531 -0.39 +0.02    +0.070     9.115
ATOM     19  C   UNL d   1       6.058  -2.287  -7.588 -0.39 +0.01    +0.052     9.115
ATOM     20  C   UNL d   1       0.171  -1.434  -5.872 -0.36 +0.02    +0.066     9.115
ATOM     21  C   UNL d   1      -0.867  -1.519  -4.933 -0.42 -0.01    -0.025     9.115
ATOM     22  C   UNL d   1      -2.017  -1.167  -5.609 -0.44 -0.01    -0.021     9.115
ATOM     23  C   UNL d   1      -1.639  -0.889  -6.928 -0.37 +0.02    +0.066     9.115
ATOM     24  C   UNL d   1      -0.791  -1.914  -3.476 -0.46 +0.01    +0.051     9.115
ATOM     25  N   UNL d   1      -0.948  -0.697  -9.862 -0.18 -0.15    -0.248     9.115
ATOM     26  N   UNL d   1       1.726  -1.310 -10.651 -0.25 -0.11    -0.248     9.115
ATOM     27  N   UNL d   1       2.393  -1.717  -7.886 -0.26 -0.10    -0.248     9.115
ATOM     28  N   UNL d   1      -0.310  -1.097  -7.093 -0.24 -0.11    -0.248     9.115
ATOM     29 FE   UNL d   1       0.708  -1.204  -8.870 -0.09 +0.00    +0.000     9.115
ATOM     30  C   UNL d   1      -4.389   0.580 -10.125 -0.29 +0.04    +0.052     9.115
ATOM     31  C   UNL d   1      -5.390  -0.555 -10.314 -0.19 +0.08    +0.115     9.115
ATOM     32  C   UNL d   1      -5.016  -1.394 -11.504 -0.12 +0.20    +0.139     9.115
ATOM     33  O   UNL d   1      -4.227  -2.321 -11.390 -0.42 -1.24    -0.650     9.115
ATOM     34  O   UNL d   1      -5.548  -1.130 -12.710 +0.00 -1.28    -0.776     9.115
ATOM     35  H   UNL d   1      -6.420  -0.714 -12.757 +0.03 +0.18    +0.167     9.115
ATOM     36  C   UNL d   1      -3.407  -1.147  -5.029 -0.44 +0.01    +0.052     9.115
ATOM     37  C   UNL d   1      -3.576  -2.311  -4.062 -0.43 +0.02    +0.115     9.115
ATOM     38  C   UNL d   1      -3.770  -1.819  -2.656 -0.54 +0.02    +0.139     9.115
ATOM     39  O   UNL d   1      -3.301  -2.433  -1.709 -0.02 -0.10    -0.650     9.115
ATOM     40  O   UNL d   1      -4.469  -0.692  -2.429 +0.01 -0.04    -0.776     9.115
ATOM     41  H   UNL d   1      -4.220   0.117  -2.897 -0.45 -0.03    +0.167     9.115
ATOM     42  C   UNL d   1       4.567  -2.323 -12.857 -0.49 +0.00    +0.004     9.115
ATOM     43  C   UNL d   1       5.060  -3.546 -12.620 -0.52 +0.00    +0.012     9.115
ATOM     44  C   UNL d   1       4.512  -2.050  -4.881 -0.61 +0.00    +0.004     9.115
ATOM     45  C   UNL d   1       4.291  -3.102  -4.085 -0.67 +0.00    +0.012     9.115
TER
ENDMDL
MODEL       59
USER    Run = 59
USER    Cluster Rank = 3
USER    Number of conformations in this cluster = 43
USER  
USER    RMSD from reference structure       = 15.741 A
USER  
USER    Estimated Free Energy of Binding    =  -10.94 kcal/mol  [=(1)+(2)+(3)-(4)]
USER    Estimated Inhibition Constant, Ki   =    9.55 nM (nanomolar)  [Temperature = 298.15 K]
USER    
USER    (1) Final Intermolecular Energy     =  -13.92 kcal/mol
USER        vdW + Hbond + desolv Energy     =   -9.55 kcal/mol
USER        Electrostatic Energy            =   -4.37 kcal/mol
USER    (2) Final Total Internal Energy     =   -0.29 kcal/mol
USER    (3) Torsional Free Energy           =   +2.98 kcal/mol
USER    (4) Unbound System's Energy  [=(2)] =   -0.29 kcal/mol
USER    
USER    
USER  
USER    DPF = D:/Protein_go_brrr/autodock/final/AncB/heme_Fe/dock.dpf
USER    NEWDPF move	heme_Fe_opt.pdbqt
USER    NEWDPF about	-0.174000 -0.001000 -0.047000
USER    NEWDPF tran0	-5.843682 -11.237143 12.039447
USER    NEWDPF axisangle0	-0.788164 -0.019142 -0.615167 100.041697
USER    NEWDPF quaternion0	-0.603953 -0.014668 -0.471389 0.642509
USER    NEWDPF dihe0	-134.36 -160.58 47.94 47.87 -88.21 172.95 -9.67 10.48 -162.07 149.79 
USER  
USER                              x       y       z    vdW   Elec        q     RMS 
ATOM      1  C   UNL d   1      -6.596 -12.867  11.046 -0.29 +0.04    +0.064    15.741
ATOM      2  C   UNL d   1      -2.727  -9.864  10.378 -0.29 +0.02    +0.064    15.741
ATOM      3  C   UNL d   1      -3.294  -8.249  14.865 -0.17 +0.01    +0.064    15.741
ATOM      4  C   UNL d   1      -7.105 -11.071  15.497 -0.20 +0.04    +0.064    15.741
ATOM      5  C   UNL d   1      -5.506 -12.112  10.413 -0.23 +0.03    +0.066    15.741
ATOM      6  C   UNL d   1      -5.130 -12.229   9.085 -0.25 -0.01    -0.021    15.741
ATOM      7  C   UNL d   1      -4.053 -11.397   8.902 -0.23 -0.01    -0.025    15.741
ATOM      8  C   UNL d   1      -3.813 -10.803  10.126 -0.24 +0.02    +0.066    15.741
ATOM      9  C   UNL d   1      -3.316 -11.178   7.616 -0.32 +0.02    +0.051    15.741
ATOM     10  C   UNL d   1      -2.509  -9.234  11.533 -0.22 +0.02    +0.066    15.741
ATOM     11  C   UNL d   1      -1.395  -8.429  11.778 -0.26 -0.00    -0.021    15.741
ATOM     12  C   UNL d   1      -1.526  -7.964  13.072 -0.22 +0.00    +0.000    15.741
ATOM     13  C   UNL d   1      -2.721  -8.522  13.556 -0.10 +0.02    +0.070    15.741
ATOM     14  C   UNL d   1      -0.226  -8.170  10.849 -0.18 +0.01    +0.052    15.741
ATOM     15  C   UNL d   1      -4.417  -8.824  15.356 -0.13 +0.03    +0.066    15.741
ATOM     16  C   UNL d   1      -4.987  -8.462  16.570 -0.16 -0.00    -0.021    15.741
ATOM     17  C   UNL d   1      -6.084  -9.277  16.756 -0.16 +0.00    +0.000    15.741
ATOM     18  C   UNL d   1      -6.156 -10.122  15.650 -0.10 +0.05    +0.070    15.741
ATOM     19  C   UNL d   1      -4.506  -7.409  17.532 -0.12 -0.00    +0.052    15.741
ATOM     20  C   UNL d   1      -7.249 -11.936  14.320 -0.24 +0.04    +0.066    15.741
ATOM     21  C   UNL d   1      -8.095 -13.050  14.232 -0.25 -0.01    -0.025    15.741
ATOM     22  C   UNL d   1      -7.943 -13.539  12.951 -0.32 -0.01    -0.021    15.741
ATOM     23  C   UNL d   1      -7.011 -12.712  12.313 -0.31 +0.04    +0.066    15.741
ATOM     24  C   UNL d   1      -8.999 -13.634  15.293 -0.18 +0.02    +0.051    15.741
ATOM     25  N   UNL d   1      -4.705 -11.233  11.041 -0.15 -0.11    -0.248    15.741
ATOM     26  N   UNL d   1      -3.317  -9.304  12.622 -0.09 -0.09    -0.248    15.741
ATOM     27  N   UNL d   1      -5.158  -9.815  14.768 -0.08 -0.17    -0.248    15.741
ATOM     28  N   UNL d   1      -6.557 -11.763  13.167 -0.19 -0.15    -0.248    15.741
ATOM     29 FE   UNL d   1      -4.938 -10.534  12.896 -0.05 +0.00    +0.000    15.741
ATOM     30  C   UNL d   1      -5.772 -13.071   8.037 -0.31 +0.04    +0.052    15.741
ATOM     31  C   UNL d   1      -5.460 -14.546   8.263 -0.16 +0.10    +0.115    15.741
ATOM     32  C   UNL d   1      -6.293 -15.405   7.352 -0.21 +0.22    +0.139    15.741
ATOM     33  O   UNL d   1      -7.405 -15.783   7.696 -0.46 -1.73    -0.650    15.741
ATOM     34  O   UNL d   1      -5.820 -15.768   6.148 -0.50 -1.71    -0.776    15.741
ATOM     35  H   UNL d   1      -4.911 -16.092   6.079 +0.04 +0.24    +0.167    15.741
ATOM     36  C   UNL d   1      -8.621 -14.762  12.390 +0.15 +0.02    +0.052    15.741
ATOM     37  C   UNL d   1      -7.584 -15.841  12.112 -0.16 +0.06    +0.115    15.741
ATOM     38  C   UNL d   1      -8.187 -16.980  11.339 -0.14 +0.13    +0.139    15.741
ATOM     39  O   UNL d   1      -7.485 -17.883  10.908 -0.01 -0.59    -0.650    15.741
ATOM     40  O   UNL d   1      -9.512 -17.011  11.113 -0.47 -1.16    -0.776    15.741
ATOM     41  H   UNL d   1     -10.022 -16.193  11.194 -0.56 +0.18    +0.167    15.741
ATOM     42  C   UNL d   1      -0.547  -7.069  13.763 -0.25 +0.00    +0.004    15.741
ATOM     43  C   UNL d   1      -0.727  -5.742  13.791 -0.41 -0.00    +0.012    15.741
ATOM     44  C   UNL d   1      -7.015  -9.236  17.906 -0.14 +0.00    +0.004    15.741
ATOM     45  C   UNL d   1      -8.212  -8.649  17.798 -0.23 +0.00    +0.012    15.741
TER
ENDMDL
MODEL       95
USER    Run = 95
USER    Cluster Rank = 4
USER    Number of conformations in this cluster = 4
USER  
USER    RMSD from reference structure       = 12.379 A
USER  
USER    Estimated Free Energy of Binding    =   -8.52 kcal/mol  [=(1)+(2)+(3)-(4)]
USER    Estimated Inhibition Constant, Ki   =  570.35 nM (nanomolar)  [Temperature = 298.15 K]
USER    
USER    (1) Final Intermolecular Energy     =  -11.50 kcal/mol
USER        vdW + Hbond + desolv Energy     =   -6.71 kcal/mol
USER        Electrostatic Energy            =   -4.79 kcal/mol
USER    (2) Final Total Internal Energy     =   -2.05 kcal/mol
USER    (3) Torsional Free Energy           =   +2.98 kcal/mol
USER    (4) Unbound System's Energy  [=(2)] =   -2.05 kcal/mol
USER    
USER    
USER  
USER    DPF = D:/Protein_go_brrr/autodock/final/AncB/heme_Fe/dock.dpf
USER    NEWDPF move	heme_Fe_opt.pdbqt
USER    NEWDPF about	-0.174000 -0.001000 -0.047000
USER    NEWDPF tran0	-0.401239 -15.627082 3.773732
USER    NEWDPF axisangle0	0.893356 0.271761 -0.357855 133.067737
USER    NEWDPF quaternion0	0.819472 0.249286 -0.328259 0.398207
USER    NEWDPF dihe0	98.38 -78.41 168.01 -150.92 158.90 92.56 -58.08 85.32 154.75 180.00 
USER  
USER                              x       y       z    vdW   Elec        q     RMS 
ATOM      1  C   UNL d   1      -2.110 -16.661   4.246 -0.08 +0.03    +0.064    12.379
ATOM      2  C   UNL d   1      -0.045 -12.452   5.811 -0.14 +0.02    +0.064    12.379
ATOM      3  C   UNL d   1       2.833 -12.515   1.966 -0.25 +0.01    +0.064    12.379
ATOM      4  C   UNL d   1       0.921 -16.643   0.488 -0.15 +0.01    +0.064    12.379
ATOM      5  C   UNL d   1      -1.738 -15.515   5.086 -0.04 +0.03    +0.066    12.379
ATOM      6  C   UNL d   1      -2.279 -15.239   6.331 -0.07 -0.01    -0.021    12.379
ATOM      7  C   UNL d   1      -1.708 -14.068   6.764 -0.09 -0.01    -0.025    12.379
ATOM      8  C   UNL d   1      -0.839 -13.674   5.765 -0.05 +0.02    +0.066    12.379
ATOM      9  C   UNL d   1      -1.974 -13.385   8.070 -0.08 +0.02    +0.051    12.379
ATOM     10  C   UNL d   1       0.843 -12.078   4.888 -0.19 +0.01    +0.066    12.379
ATOM     11  C   UNL d   1       1.504 -10.848   4.903 -0.29 -0.00    -0.021    12.379
ATOM     12  C   UNL d   1       2.328 -10.834   3.795 -0.29 +0.00    +0.000    12.379
ATOM     13  C   UNL d   1       2.118 -12.066   3.151 -0.22 +0.01    +0.070    12.379
ATOM     14  C   UNL d   1       1.310  -9.711   5.886 -0.25 +0.01    +0.052    12.379
ATOM     15  C   UNL d   1       2.598 -13.677   1.313 -0.16 +0.01    +0.066    12.379
ATOM     16  C   UNL d   1       3.369 -14.116   0.244 -0.16 -0.00    -0.021    12.379
ATOM     17  C   UNL d   1       2.817 -15.305  -0.186 -0.19 +0.00    +0.000    12.379
ATOM     18  C   UNL d   1       1.717 -15.562   0.629 -0.14 +0.01    +0.070    12.379
ATOM     19  C   UNL d   1       4.563 -13.434  -0.368 -0.28 +0.00    +0.052    12.379
ATOM     20  C   UNL d   1      -0.208 -16.978   1.366 -0.08 +0.02    +0.066    12.379
ATOM     21  C   UNL d   1      -1.158 -17.978   1.116 -0.08 -0.01    -0.025    12.379
ATOM     22  C   UNL d   1      -2.005 -17.974   2.206 -0.07 -0.01    -0.021    12.379
ATOM     23  C   UNL d   1      -1.543 -16.973   3.069 -0.07 +0.03    +0.066    12.379
ATOM     24  C   UNL d   1      -1.275 -18.891  -0.082 -0.10 +0.02    +0.051    12.379
ATOM     25  N   UNL d   1      -0.852 -14.561   4.750 +0.14 -0.12    -0.248    12.379
ATOM     26  N   UNL d   1       1.207 -12.821   3.812 -0.13 -0.07    -0.248    12.379
ATOM     27  N   UNL d   1       1.608 -14.584   1.579 -0.11 -0.05    -0.248    12.379
ATOM     28  N   UNL d   1      -0.474 -16.339   2.531 -0.06 -0.09    -0.248    12.379
ATOM     29 FE   UNL d   1       0.367 -14.581   3.170 -0.04 +0.00    +0.000    12.379
ATOM     30  C   UNL d   1      -3.273 -16.056   7.084 -0.03 +0.03    +0.052    12.379
ATOM     31  C   UNL d   1      -4.578 -15.288   7.264 -0.08 +0.10    +0.115    12.379
ATOM     32  C   UNL d   1      -5.726 -16.053   6.667 -0.07 +0.24    +0.139    12.379
ATOM     33  O   UNL d   1      -6.875 -15.831   7.022 -0.48 -1.48    -0.650    12.379
ATOM     34  O   UNL d   1      -5.498 -16.993   5.734 -0.34 -1.45    -0.776    12.379
ATOM     35  H   UNL d   1      -5.371 -16.720   4.814 +0.03 +0.40    +0.167    12.379
ATOM     36  C   UNL d   1      -3.217 -18.851   2.381 -0.08 +0.04    +0.052    12.379
ATOM     37  C   UNL d   1      -4.403 -18.238   1.653 -0.02 +0.18    +0.115    12.379
ATOM     38  C   UNL d   1      -5.245 -17.417   2.589 -0.05 +0.30    +0.139    12.379
ATOM     39  O   UNL d   1      -5.047 -16.218   2.719 -0.13 -1.37    -0.650    12.379
ATOM     40  O   UNL d   1      -6.226 -18.003   3.298 -0.19 -1.96    -0.776    12.379
ATOM     41  H   UNL d   1      -6.072 -18.214   4.229 +0.02 +0.33    +0.167    12.379
ATOM     42  C   UNL d   1       3.220  -9.698   3.405 -0.40 +0.00    +0.004    12.379
ATOM     43  C   UNL d   1       3.423  -9.391   2.117 -0.55 -0.00    +0.012    12.379
ATOM     44  C   UNL d   1       3.321 -16.150  -1.292 -0.23 -0.00    +0.004    12.379
ATOM     45  C   UNL d   1       2.792 -16.063  -2.517 -0.38 -0.00    +0.012    12.379
TER
ENDMDL
MODEL       48
USER    Run = 48
USER    Cluster Rank = 5
USER    Number of conformations in this cluster = 1
USER  
USER    RMSD from reference structure       = 14.162 A
USER  
USER    Estimated Free Energy of Binding    =   -8.37 kcal/mol  [=(1)+(2)+(3)-(4)]
USER    Estimated Inhibition Constant, Ki   =  730.96 nM (nanomolar)  [Temperature = 298.15 K]
USER    
USER    (1) Final Intermolecular Energy     =  -11.35 kcal/mol
USER        vdW + Hbond + desolv Energy     =   -7.91 kcal/mol
USER        Electrostatic Energy            =   -3.45 kcal/mol
USER    (2) Final Total Internal Energy     =   -0.68 kcal/mol
USER    (3) Torsional Free Energy           =   +2.98 kcal/mol
USER    (4) Unbound System's Energy  [=(2)] =   -0.68 kcal/mol
USER    
USER    
USER  
USER    DPF = D:/Protein_go_brrr/autodock/final/AncB/heme_Fe/dock.dpf
USER    NEWDPF move	heme_Fe_opt.pdbqt
USER    NEWDPF about	-0.174000 -0.001000 -0.047000
USER    NEWDPF tran0	-3.810447 -11.418221 11.415811
USER    NEWDPF axisangle0	0.927253 0.330353 -0.176266 118.391307
USER    NEWDPF quaternion0	0.796437 0.283747 -0.151399 0.512108
USER    NEWDPF dihe0	101.20 -154.25 -109.60 -157.45 150.82 -83.35 86.69 58.87 -8.51 -22.51 
USER  
USER                              x       y       z    vdW   Elec        q     RMS 
ATOM      1  C   UNL d   1      -5.682 -12.214  11.142 -0.26 +0.03    +0.064    14.162
ATOM      2  C   UNL d   1      -3.670  -9.093  14.404 -0.12 +0.02    +0.064    14.162
ATOM      3  C   UNL d   1       0.095  -8.562  11.469 -0.19 +0.01    +0.064    14.162
ATOM      4  C   UNL d   1      -1.786 -11.660   8.347 -0.20 +0.02    +0.064    14.162
ATOM      5  C   UNL d   1      -5.426 -11.449  12.371 -0.21 +0.03    +0.066    14.162
ATOM      6  C   UNL d   1      -6.243 -11.453  13.489 -0.24 -0.01    -0.021    14.162
ATOM      7  C   UNL d   1      -5.686 -10.583  14.393 -0.11 -0.02    -0.025    14.162
ATOM      8  C   UNL d   1      -4.548 -10.082  13.791 -0.09 +0.04    +0.066    14.162
ATOM      9  C   UNL d   1      -6.213 -10.272  15.761 -0.15 +0.03    +0.051    14.162
ATOM     10  C   UNL d   1      -2.536  -8.636  13.870 -0.16 +0.01    +0.066    14.162
ATOM     11  C   UNL d   1      -1.776  -7.606  14.428 -0.18 -0.00    -0.021    14.162
ATOM     12  C   UNL d   1      -0.693  -7.422  13.592 -0.21 +0.00    +0.000    14.162
ATOM     13  C   UNL d   1      -0.855  -8.353  12.551 -0.18 +0.01    +0.070    14.162
ATOM     14  C   UNL d   1      -2.101  -6.789  15.662 -0.20 +0.00    +0.052    14.162
ATOM     15  C   UNL d   1      -0.081  -9.421  10.438 -0.08 +0.01    +0.066    14.162
ATOM     16  C   UNL d   1       0.893  -9.663   9.478 +0.05 -0.00    -0.021    14.162
ATOM     17  C   UNL d   1       0.352 -10.554   8.574 -0.09 +0.00    +0.000    14.162
ATOM     18  C   UNL d   1      -0.944 -10.831   9.003 -0.15 +0.01    +0.070    14.162
ATOM     19  C   UNL d   1       2.271  -9.064   9.396 -0.10 +0.01    +0.052    14.162
ATOM     20  C   UNL d   1      -3.134 -12.023   8.801 -0.15 +0.02    +0.066    14.162
ATOM     21  C   UNL d   1      -4.086 -12.716   8.039 -0.18 -0.01    -0.025    14.162
ATOM     22  C   UNL d   1      -5.183 -12.874   8.860 -0.23 -0.01    -0.021    14.162
ATOM     23  C   UNL d   1      -4.862 -12.269  10.081 -0.19 +0.03    +0.066    14.162
ATOM     24  C   UNL d   1      -3.979 -13.204   6.613 -0.23 +0.03    +0.051    14.162
ATOM     25  N   UNL d   1      -4.387 -10.618  12.565 -0.12 -0.11    -0.248    14.162
ATOM     26  N   UNL d   1      -1.982  -9.088  12.716 -0.12 -0.05    -0.248    14.162
ATOM     27  N   UNL d   1      -1.196 -10.169  10.172 -0.10 -0.05    -0.248    14.162
ATOM     28  N   UNL d   1      -3.628 -11.713  10.024 -0.08 -0.08    -0.248    14.162
ATOM     29 FE   UNL d   1      -2.804 -10.401  11.368 -0.04 +0.00    +0.000    14.162
ATOM     30  C   UNL d   1      -7.481 -12.256  13.699 -0.35 +0.03    +0.052    14.162
ATOM     31  C   UNL d   1      -7.135 -13.679  14.126 -0.14 +0.04    +0.115    14.162
ATOM     32  C   UNL d   1      -7.065 -14.585  12.928 -0.15 +0.06    +0.139    14.162
ATOM     33  O   UNL d   1      -6.329 -15.562  12.928 +0.04 -0.24    -0.650    14.162
ATOM     34  O   UNL d   1      -7.814 -14.328  11.842 -0.02 -0.37    -0.776    14.162
ATOM     35  H   UNL d   1      -8.751 -14.567  11.851 -0.55 +0.06    +0.167    14.162
ATOM     36  C   UNL d   1      -6.484 -13.526   8.472 -0.28 +0.05    +0.052    14.162
ATOM     37  C   UNL d   1      -6.303 -15.036   8.411 -0.22 +0.14    +0.115    14.162
ATOM     38  C   UNL d   1      -6.652 -15.566   7.049 -0.17 +0.28    +0.139    14.162
ATOM     39  O   UNL d   1      -7.812 -15.805   6.749 -0.14 -2.05    -0.650    14.162
ATOM     40  O   UNL d   1      -5.680 -15.784   6.146 -0.52 -1.59    -0.776    14.162
ATOM     41  H   UNL d   1      -4.781 -15.962   6.456 +0.04 +0.20    +0.167    14.162
ATOM     42  C   UNL d   1       0.385  -6.406  13.797 -0.25 +0.00    +0.004    14.162
ATOM     43  C   UNL d   1       0.105  -5.096  13.808 -0.42 -0.00    +0.012    14.162
ATOM     44  C   UNL d   1       1.037 -11.119   7.390 -0.18 +0.00    +0.004    14.162
ATOM     45  C   UNL d   1       0.763 -10.670   6.161 -0.29 +0.00    +0.012    14.162
TER
ENDMDL
MODEL       70
USER    Run = 70
USER    Cluster Rank = 6
USER    Number of conformations in this cluster = 1
USER  
USER    RMSD from reference structure       = 17.603 A
USER  
USER    Estimated Free Energy of Binding    =   -7.75 kcal/mol  [=(1)+(2)+(3)-(4)]
USER    Estimated Inhibition Constant, Ki   =    2.08 uM (micromolar)  [Temperature = 298.15 K]
USER    
USER    (1) Final Intermolecular Energy     =  -10.73 kcal/mol
USER        vdW + Hbond + desolv Energy     =   -5.80 kcal/mol
USER        Electrostatic Energy            =   -4.94 kcal/mol
USER    (2) Final Total Internal Energy     =   -2.12 kcal/mol
USER    (3) Torsional Free Energy           =   +2.98 kcal/mol
USER    (4) Unbound System's Energy  [=(2)] =   -2.12 kcal/mol
USER    
USER    
USER  
USER    DPF = D:/Protein_go_brrr/autodock/final/AncB/heme_Fe/dock.dpf
USER    NEWDPF move	heme_Fe_opt.pdbqt
USER    NEWDPF about	-0.174000 -0.001000 -0.047000
USER    NEWDPF tran0	-7.122437 -15.466145 10.395887
USER    NEWDPF axisangle0	-0.526729 0.118342 -0.841755 167.734544
USER    NEWDPF quaternion0	-0.523715 0.117665 -0.836938 0.106832
USER    NEWDPF dihe0	31.01 175.71 43.06 51.19 -59.42 -95.62 105.60 -179.03 -2.59 -7.44 
USER  
USER                              x       y       z    vdW   Elec        q     RMS 
ATOM      1  C   UNL d   1      -5.803 -15.685   8.840 -0.15 +0.06    +0.064    17.603
ATOM      2  C   UNL d   1      -6.529 -12.265  12.334 -0.28 +0.04    +0.064    17.603
ATOM      3  C   UNL d   1      -9.271 -15.395  14.731 +0.05 +0.02    +0.064    17.603
ATOM      4  C   UNL d   1      -8.668 -18.684  11.309 -0.10 +0.05    +0.064    17.603
ATOM      5  C   UNL d   1      -5.821 -14.404   9.560 -0.18 +0.05    +0.066    17.603
ATOM      6  C   UNL d   1      -5.229 -13.235   9.109 -0.20 -0.01    -0.021    17.603
ATOM      7  C   UNL d   1      -5.428 -12.287  10.082 -0.24 -0.01    -0.025    17.603
ATOM      8  C   UNL d   1      -6.134 -12.914  11.090 -0.24 +0.03    +0.066    17.603
ATOM      9  C   UNL d   1      -4.978 -10.859  10.028 -0.31 +0.02    +0.051    17.603
ATOM     10  C   UNL d   1      -7.260 -12.829  13.296 -0.27 +0.03    +0.066    17.603
ATOM     11  C   UNL d   1      -7.524 -12.221  14.526 -0.25 -0.01    -0.021    17.603
ATOM     12  C   UNL d   1      -8.300 -13.111  15.243 -0.18 +0.00    +0.000    17.603
ATOM     13  C   UNL d   1      -8.463 -14.230  14.408 -0.15 +0.02    +0.070    17.603
ATOM     14  C   UNL d   1      -7.006 -10.886  15.022 -0.23 +0.04    +0.052    17.603
ATOM     15  C   UNL d   1      -9.390 -16.497  13.953 -0.03 +0.02    +0.066    17.603
ATOM     16  C   UNL d   1     -10.250 -17.546  14.249 -0.10 -0.01    -0.021    17.603
ATOM     17  C   UNL d   1     -10.075 -18.497  13.266 -0.10 +0.00    +0.000    17.603
ATOM     18  C   UNL d   1      -9.107 -18.007  12.393 -0.12 +0.04    +0.070    17.603
ATOM     19  C   UNL d   1     -11.183 -17.664  15.424 -0.09 +0.01    +0.052    17.603
ATOM     20  C   UNL d   1      -7.696 -18.174  10.335 -0.09 +0.08    +0.066    17.603
ATOM     21  C   UNL d   1      -7.084 -18.933   9.327 -0.05 -0.03    -0.025    17.603
ATOM     22  C   UNL d   1      -6.282 -18.055   8.627 -0.06 -0.02    -0.021    17.603
ATOM     23  C   UNL d   1      -6.429 -16.803   9.236 -0.11 +0.08    +0.066    17.603
ATOM     24  C   UNL d   1      -7.238 -20.407   9.032 -0.01 +0.03    +0.051    17.603
ATOM     25  N   UNL d   1      -6.380 -14.199  10.765 -0.15 -0.14    -0.248    17.603
ATOM     26  N   UNL d   1      -7.822 -14.063  13.225 -0.18 -0.11    -0.248    17.603
ATOM     27  N   UNL d   1      -8.717 -16.758  12.790 -0.12 -0.13    -0.248    17.603
ATOM     28  N   UNL d   1      -7.258 -16.891  10.305 -0.11 -0.29    -0.248    17.603
ATOM     29 FE   UNL d   1      -7.541 -15.479  11.765 -0.04 +0.00    +0.000    17.603
ATOM     30  C   UNL d   1      -4.528 -13.022   7.811 -0.21 +0.03    +0.052    17.603
ATOM     31  C   UNL d   1      -5.519 -12.633   6.720 -0.34 +0.09    +0.115    17.603
ATOM     32  C   UNL d   1      -6.319 -13.829   6.284 -0.19 +0.21    +0.139    17.603
ATOM     33  O   UNL d   1      -5.763 -14.816   5.823 -0.31 -1.32    -0.650    17.603
ATOM     34  O   UNL d   1      -7.657 -13.824   6.400 +0.02 -1.39    -0.776    17.603
ATOM     35  H   UNL d   1      -8.118 -14.659   6.562 +0.03 +0.41    +0.167    17.603
ATOM     36  C   UNL d   1      -5.387 -18.413   7.470 -0.02 +0.05    +0.052    17.603
ATOM     37  C   UNL d   1      -6.159 -18.284   6.165 -0.06 +0.16    +0.115    17.603
ATOM     38  C   UNL d   1      -7.572 -17.838   6.417 -0.07 +0.32    +0.139    17.603
ATOM     39  O   UNL d   1      -8.479 -18.652   6.499 -0.07 -1.31    -0.650    17.603
ATOM     40  O   UNL d   1      -7.848 -16.529   6.551 -0.09 -2.54    -0.776    17.603
ATOM     41  H   UNL d   1      -7.120 -15.892   6.550 +0.03 +0.47    +0.167    17.603
ATOM     42  C   UNL d   1      -8.811 -12.878  16.629 -0.13 +0.00    +0.004    17.603
ATOM     43  C   UNL d   1     -10.004 -12.306  16.836 -0.17 +0.00    +0.012    17.603
ATOM     44  C   UNL d   1     -10.802 -19.783  13.157 -0.04 +0.00    +0.004    17.603
ATOM     45  C   UNL d   1     -11.765 -19.949  12.245 -0.06 +0.00    +0.012    17.603
TER
ENDMDL
MODEL       15
USER    Run = 15
USER    Cluster Rank = 7
USER    Number of conformations in this cluster = 1
USER  
USER    RMSD from reference structure       = 16.576 A
USER  
USER    Estimated Free Energy of Binding    =   -7.36 kcal/mol  [=(1)+(2)+(3)-(4)]
USER    Estimated Inhibition Constant, Ki   =    4.04 uM (micromolar)  [Temperature = 298.15 K]
USER    
USER    (1) Final Intermolecular Energy     =  -10.34 kcal/mol
USER        vdW + Hbond + desolv Energy     =   -7.60 kcal/mol
USER        Electrostatic Energy            =   -2.74 kcal/mol
USER    (2) Final Total Internal Energy     =   -2.05 kcal/mol
USER    (3) Torsional Free Energy           =   +2.98 kcal/mol
USER    (4) Unbound System's Energy  [=(2)] =   -2.05 kcal/mol
USER    
USER    
USER  
USER    DPF = D:/Protein_go_brrr/autodock/final/AncB/heme_Fe/dock.dpf
USER    NEWDPF move	heme_Fe_opt.pdbqt
USER    NEWDPF about	-0.174000 -0.001000 -0.047000
USER    NEWDPF tran0	19.630419 4.423495 -1.995106
USER    NEWDPF axisangle0	0.316726 -0.947261 -0.048803 -119.195728
USER    NEWDPF quaternion0	0.273175 -0.817007 -0.042092 -0.506066
USER    NEWDPF dihe0	50.89 104.48 -163.97 -156.75 -125.68 173.34 -107.37 118.94 176.36 -157.61 
USER  
USER                              x       y       z    vdW   Elec        q     RMS 
ATOM      1  C   UNL d   1      19.873   5.232  -3.866 -0.13 +0.02    +0.064    16.576
ATOM      2  C   UNL d   1      20.144   0.669  -1.984 -0.09 +0.01    +0.064    16.576
ATOM      3  C   UNL d   1      17.921   2.243   1.972 -0.21 -0.00    +0.064    16.576
ATOM      4  C   UNL d   1      17.742   6.689   0.213 -0.17 +0.00    +0.064    16.576
ATOM      5  C   UNL d   1      20.230   3.820  -3.668 -0.10 +0.02    +0.066    16.576
ATOM      6  C   UNL d   1      20.977   3.062  -4.555 -0.08 -0.01    -0.021    16.576
ATOM      7  C   UNL d   1      21.048   1.794  -4.033 -0.09 -0.01    -0.025    16.576
ATOM      8  C   UNL d   1      20.342   1.827  -2.847 +0.04 +0.02    +0.066    16.576
ATOM      9  C   UNL d   1      21.773   0.630  -4.638 -0.07 +0.01    +0.051    16.576
ATOM     10  C   UNL d   1      19.516   0.687  -0.807 -0.19 +0.01    +0.066    16.576
ATOM     11  C   UNL d   1      19.242  -0.459  -0.057 -0.22 -0.00    -0.021    16.576
ATOM     12  C   UNL d   1      18.586  -0.034   1.081 -0.25 +0.00    +0.000    16.576
ATOM     13  C   UNL d   1      18.486   1.363   0.961 -0.21 -0.00    +0.070    16.576
ATOM     14  C   UNL d   1      19.530  -1.897  -0.439 -0.18 +0.01    +0.052    16.576
ATOM     15  C   UNL d   1      17.775   3.583   1.839 -0.25 -0.00    +0.066    16.576
ATOM     16  C   UNL d   1      17.322   4.402   2.866 -0.24 -0.00    -0.021    16.576
ATOM     17  C   UNL d   1      17.267   5.684   2.360 -0.24 +0.00    +0.000    16.576
ATOM     18  C   UNL d   1      17.683   5.616   1.033 -0.22 +0.00    +0.070    16.576
ATOM     19  C   UNL d   1      16.933   3.994   4.262 -0.17 +0.01    +0.052    16.576
ATOM     20  C   UNL d   1      18.233   6.666  -1.170 -0.17 +0.01    +0.066    16.576
ATOM     21  C   UNL d   1      18.114   7.718  -2.089 -0.21 -0.01    -0.025    16.576
ATOM     22  C   UNL d   1      18.739   7.286  -3.240 -0.16 -0.01    -0.021    16.576
ATOM     23  C   UNL d   1      19.207   5.992  -2.982 -0.14 +0.02    +0.066    16.576
ATOM     24  C   UNL d   1      17.446   9.061  -1.905 -0.20 +0.01    +0.051    16.576
ATOM     25  N   UNL d   1      19.853   3.063  -2.623 -0.03 -0.06    -0.248    16.576
ATOM     26  N   UNL d   1      19.044   1.802  -0.193 -0.15 -0.02    -0.248    16.576
ATOM     27  N   UNL d   1      18.037   4.332   0.724 -0.20 +0.01    -0.248    16.576
ATOM     28  N   UNL d   1      18.856   5.602  -1.732 -0.12 -0.02    -0.248    16.576
ATOM     29 FE   UNL d   1      18.949   3.704  -0.962 -0.05 +0.00    +0.000    16.576
ATOM     30  C   UNL d   1      21.610   3.522  -5.824 -0.04 +0.02    +0.052    16.576
ATOM     31  C   UNL d   1      20.694   3.253  -7.013 -0.07 +0.05    +0.115    16.576
ATOM     32  C   UNL d   1      19.530   4.204  -7.007 -0.15 +0.13    +0.139    16.576
ATOM     33  O   UNL d   1      18.382   3.785  -7.046 -0.27 -1.11    -0.650    16.576
ATOM     34  O   UNL d   1      19.743   5.530  -6.958 -0.05 -0.64    -0.776    16.576
ATOM     35  H   UNL d   1      19.276   6.057  -6.294 +0.05 +0.14    +0.167    16.576
ATOM     36  C   UNL d   1      18.836   8.056  -4.531 -0.22 +0.02    +0.052    16.576
ATOM     37  C   UNL d   1      17.441   8.339  -5.066 -0.38 +0.06    +0.115    16.576
ATOM     38  C   UNL d   1      16.711   7.061  -5.370 -0.38 +0.15    +0.139    16.576
ATOM     39  O   UNL d   1      15.533   7.075  -5.695 -0.47 -0.82    -0.650    16.576
ATOM     40  O   UNL d   1      17.356   5.884  -5.283 -0.17 -1.04    -0.776    16.576
ATOM     41  H   UNL d   1      17.974   5.633  -5.984 +0.07 +0.28    +0.167    16.576
ATOM     42  C   UNL d   1      18.091  -0.932   2.170 -0.25 +0.00    +0.004    16.576
ATOM     43  C   UNL d   1      16.782  -1.036   2.436 -0.37 +0.00    +0.012    16.576
ATOM     44  C   UNL d   1      16.862   6.898   3.104 -0.17 +0.00    +0.004    16.576
ATOM     45  C   UNL d   1      15.649   7.435   2.931 -0.23 +0.00    +0.012    16.576
TER
ENDMDL


AVSFLD: # AVS field file
AVSFLD: #
AVSFLD: # Created by AutoDock
AVSFLD: #
AVSFLD: ndim=2           # number of dimensions in the field
AVSFLD: nspace=1         # number of physical coordinates
AVSFLD: veclen=7         # vector size
AVSFLD: dim1=45          # atoms
AVSFLD: dim2=7           # conformations
AVSFLD: data=Real       # data type (byte,integer,Real,double)
AVSFLD: field=uniform    # field coordinate layout
AVSFLD: label= x y z vdW Elec q RMS
AVSFLD: variable 1 file = D:/Protein_go_brrr/autodock/final/AncB/heme_Fe/dock.dlg.pdb filetype = ascii offset = 5 stride = 12
AVSFLD: variable 2 file = D:/Protein_go_brrr/autodock/final/AncB/heme_Fe/dock.dlg.pdb filetype = ascii offset = 6 stride = 12
AVSFLD: variable 3 file = D:/Protein_go_brrr/autodock/final/AncB/heme_Fe/dock.dlg.pdb filetype = ascii offset = 7 stride = 12
AVSFLD: variable 4 file = D:/Protein_go_brrr/autodock/final/AncB/heme_Fe/dock.dlg.pdb filetype = ascii offset = 8 stride = 12
AVSFLD: variable 5 file = D:/Protein_go_brrr/autodock/final/AncB/heme_Fe/dock.dlg.pdb filetype = ascii offset = 9 stride = 12
AVSFLD: variable 6 file = D:/Protein_go_brrr/autodock/final/AncB/heme_Fe/dock.dlg.pdb filetype = ascii offset = 10 stride = 12
AVSFLD: variable 7 file = D:/Protein_go_brrr/autodock/final/AncB/heme_Fe/dock.dlg.pdb filetype = ascii offset = 11 stride = 12
AVSFLD: # end of file

>>> Closing the docking parameter file (DPF)...
This docking finished at:			0:41 07" a.m., 10/02/2025


________________________________________________________________________________

D:/autodockScripts/autodock4.exe: Successful Completion on "ACER"

Real= 36h 07m 54.90s,  CPU= 4m 33.03s,  System= 59.00s
________________________________________________________________________________

