          AutoDock 4.2 Release 4.2.6   
         (C) 1989-2012 The Scripps Research Institute
        AutoDock comes with ABSOLUTELY NO WARRANTY.
        AutoDock is free software, and you are welcome
        to redistribute it under certain conditions;
        for details type 'autodock4 -C'

                     main.cc  $Revision: 1.213 $

                   Compiled on Jul 18 2014 at 15:34:58


This file was created at:			7:52 42" p.m., 09/27/2025
                   on host:		"ACER"
Current Working Directory = "D:\Protein_go_brrr\autodock\final\2DN3\IHP"

      ________________________________________________________________

                   SETTING UP DEFAULT PARAMETER LIBRARY
      ________________________________________________________________


Random number generator was seeded with values 74344, 1758995562.
Docking parameter file (DPF) used for this docking:		D:/Protein_go_brrr/autodock/final/2DN3/IHP/dock.dpf
DPF> autodock_parameter_version 4.2       # used by autodock to validate parameter set

	Autodock parameter version 4.2.
DPF> outlev 1                             # diagnostic output level

Output Level = 1  ADT-COMPATIBLE OUTPUT DURING DOCKING.
DPF> intelec                              # calculate internal electrostatics

Electrostatic energies will be calculated for all non-bonds between moving atoms.
DPF> seed pid time                        # seeds for random generator

Random number generator was seeded with values 74344, 1758995562.
DPF> ligand_types P C HD OA               # atoms types in ligand

DPF> fld opt_2DN3.maps.fld                # grid_data_file

Opening Grid Map Dimensions file:		opt_2DN3.maps.fld
Grid Point Spacing =				0.708 Angstroms

Even Number of User-specified Grid Points =	126 x-points
						126 y-points
						126 z-points

Coordinates of Central Grid Point of Maps =	(23.741, 34.005, 11.372)
Macromolecule file used to create Grid Maps =	opt_2DN3.pdbqt
Grid Parameter file used to create Grid Maps =	D:/Protein_go_brrr/autodock/final/2DN3/IHP/grid.gpf
Minimum coordinates in grid = (-20.863, -10.599, -33.232)
Maximum coordinates in grid = (68.345, 78.609, 55.976)

DPF> map opt_2DN3.P.map                   # atom-specific affinity map

DPF> map opt_2DN3.C.map                   # atom-specific affinity map

DPF> map opt_2DN3.HD.map                  # atom-specific affinity map

DPF> map opt_2DN3.OA.map                  # atom-specific affinity map

DPF> elecmap opt_2DN3.e.map               # electrostatics map

DPF> desolvmap opt_2DN3.d.map             # desolvation map

DPF> move IHP_ideal_opt.pdbqt             # small molecule

1,4-interactions will be _ignored_ in the non-bonded internal energy calculation.

Ligand PDBQT file = "IHP_ideal_opt.pdbqt"

INPUT LIGAND PDBQT FILE:
________________________

INPUT-LIGAND-PDBQT: REMARK  24 active torsions:
INPUT-LIGAND-PDBQT: REMARK  status: ('A' for Active; 'I' for Inactive)
INPUT-LIGAND-PDBQT: REMARK    1  A    between atoms: C_1  and  O_7 
INPUT-LIGAND-PDBQT: REMARK    2  A    between atoms: C_2  and  O_12 
INPUT-LIGAND-PDBQT: REMARK    3  A    between atoms: C_3  and  O_17 
INPUT-LIGAND-PDBQT: REMARK    4  A    between atoms: C_4  and  O_22 
INPUT-LIGAND-PDBQT: REMARK    5  A    between atoms: C_5  and  O_27 
INPUT-LIGAND-PDBQT: REMARK    6  A    between atoms: C_6  and  O_32 
INPUT-LIGAND-PDBQT: REMARK    7  A    between atoms: O_7  and  P_8 
INPUT-LIGAND-PDBQT: REMARK    8  A    between atoms: P_8  and  O_10 
INPUT-LIGAND-PDBQT: REMARK    9  A    between atoms: P_8  and  O_11 
INPUT-LIGAND-PDBQT: REMARK   10  A    between atoms: O_12  and  P_13 
INPUT-LIGAND-PDBQT: REMARK   11  A    between atoms: P_13  and  O_15 
INPUT-LIGAND-PDBQT: REMARK   12  A    between atoms: P_13  and  O_16 
INPUT-LIGAND-PDBQT: REMARK   13  A    between atoms: O_17  and  P_18 
INPUT-LIGAND-PDBQT: REMARK   14  A    between atoms: P_18  and  O_20 
INPUT-LIGAND-PDBQT: REMARK   15  A    between atoms: P_18  and  O_21 
INPUT-LIGAND-PDBQT: REMARK   16  A    between atoms: O_22  and  P_23 
INPUT-LIGAND-PDBQT: REMARK   17  A    between atoms: P_23  and  O_25 
INPUT-LIGAND-PDBQT: REMARK   18  A    between atoms: P_23  and  O_26 
INPUT-LIGAND-PDBQT: REMARK   19  A    between atoms: O_27  and  P_28 
INPUT-LIGAND-PDBQT: REMARK   20  A    between atoms: P_28  and  O_30 
INPUT-LIGAND-PDBQT: REMARK   21  A    between atoms: P_28  and  O_31 
INPUT-LIGAND-PDBQT: REMARK   22  A    between atoms: O_32  and  P_33 
INPUT-LIGAND-PDBQT: REMARK   23  A    between atoms: P_33  and  O_35 
INPUT-LIGAND-PDBQT: REMARK   24  A    between atoms: P_33  and  O_36 
INPUT-LIGAND-PDBQT: ROOT
INPUT-LIGAND-PDBQT: ATOM      1  C   UNL d   1       1.288  -0.806   0.726  0.00  0.00     0.194 C 
INPUT-LIGAND-PDBQT: ATOM      2  C   UNL d   1       0.040  -1.610   0.357  0.00  0.00     0.194 C 
INPUT-LIGAND-PDBQT: ATOM      3  C   UNL d   1      -1.244  -0.840   0.673  0.00  0.00     0.194 C 
INPUT-LIGAND-PDBQT: ATOM      4  C   UNL d   1      -1.265   0.565   0.076  0.00  0.00     0.194 C 
INPUT-LIGAND-PDBQT: ATOM      5  C   UNL d   1       0.009   1.363   0.322  0.00  0.00     0.194 C 
INPUT-LIGAND-PDBQT: ATOM      6  C   UNL d   1       1.294   0.573   0.065  0.00  0.00     0.194 C 
INPUT-LIGAND-PDBQT: ENDROOT
INPUT-LIGAND-PDBQT: BRANCH   1   7
INPUT-LIGAND-PDBQT: ATOM      7  O   UNL d   1       2.433  -1.514   0.245  0.00  0.00    -0.278 OA
INPUT-LIGAND-PDBQT: BRANCH   7   8
INPUT-LIGAND-PDBQT: ATOM      8  P   UNL d   1       3.563  -1.932   1.294  0.00  0.00     0.473 P 
INPUT-LIGAND-PDBQT: ATOM      9  O   UNL d   1       3.071  -2.662   2.494  0.00  0.00    -0.228 OA
INPUT-LIGAND-PDBQT: BRANCH   8  10
INPUT-LIGAND-PDBQT: ATOM     10  O   UNL d   1       4.602  -2.777   0.427  0.00  0.00    -0.303 OA
INPUT-LIGAND-PDBQT: ATOM     11  H   UNL d   1       5.122  -3.357   1.014  0.00  0.00     0.222 HD
INPUT-LIGAND-PDBQT: ENDBRANCH   8  10
INPUT-LIGAND-PDBQT: BRANCH   8  12
INPUT-LIGAND-PDBQT: ATOM     12  O   UNL d   1       4.376  -0.597   1.579  0.00  0.00    -0.303 OA
INPUT-LIGAND-PDBQT: ATOM     13  H   UNL d   1       4.592  -0.095   0.761  0.00  0.00     0.222 HD
INPUT-LIGAND-PDBQT: ENDBRANCH   8  12
INPUT-LIGAND-PDBQT: ENDBRANCH   7   8
INPUT-LIGAND-PDBQT: ENDBRANCH   1   7
INPUT-LIGAND-PDBQT: BRANCH   2  14
INPUT-LIGAND-PDBQT: ATOM     14  O   UNL d   1       0.067  -1.896  -1.047  0.00  0.00    -0.278 OA
INPUT-LIGAND-PDBQT: BRANCH  14  15
INPUT-LIGAND-PDBQT: ATOM     15  P   UNL d   1      -0.217  -3.413  -1.474  0.00  0.00     0.473 P 
INPUT-LIGAND-PDBQT: ATOM     16  O   UNL d   1      -1.497  -4.019  -0.990  0.00  0.00    -0.228 OA
INPUT-LIGAND-PDBQT: BRANCH  15  17
INPUT-LIGAND-PDBQT: ATOM     17  O   UNL d   1      -0.104  -3.396  -3.063  0.00  0.00    -0.303 OA
INPUT-LIGAND-PDBQT: ATOM     18  H   UNL d   1      -0.983  -3.299  -3.477  0.00  0.00     0.222 HD
INPUT-LIGAND-PDBQT: ENDBRANCH  15  17
INPUT-LIGAND-PDBQT: BRANCH  15  19
INPUT-LIGAND-PDBQT: ATOM     19  O   UNL d   1       1.108  -4.194  -1.068  0.00  0.00    -0.303 OA
INPUT-LIGAND-PDBQT: ATOM     20  H   UNL d   1       1.891  -3.839  -1.528  0.00  0.00     0.222 HD
INPUT-LIGAND-PDBQT: ENDBRANCH  15  19
INPUT-LIGAND-PDBQT: ENDBRANCH  14  15
INPUT-LIGAND-PDBQT: ENDBRANCH   2  14
INPUT-LIGAND-PDBQT: BRANCH   6  21
INPUT-LIGAND-PDBQT: ATOM     21  O   UNL d   1       2.359   1.315   0.655  0.00  0.00    -0.278 OA
INPUT-LIGAND-PDBQT: BRANCH  21  22
INPUT-LIGAND-PDBQT: ATOM     22  P   UNL d   1       3.322   2.189  -0.269  0.00  0.00     0.473 P 
INPUT-LIGAND-PDBQT: ATOM     23  O   UNL d   1       2.760   2.769  -1.523  0.00  0.00    -0.228 OA
INPUT-LIGAND-PDBQT: BRANCH  22  24
INPUT-LIGAND-PDBQT: ATOM     24  O   UNL d   1       3.885   3.258   0.767  0.00  0.00    -0.303 OA
INPUT-LIGAND-PDBQT: ATOM     25  H   UNL d   1       3.131   3.831   1.059  0.00  0.00     0.222 HD
INPUT-LIGAND-PDBQT: ENDBRANCH  22  24
INPUT-LIGAND-PDBQT: BRANCH  22  26
INPUT-LIGAND-PDBQT: ATOM     26  O   UNL d   1       4.578   1.209  -0.449  0.00  0.00    -0.303 OA
INPUT-LIGAND-PDBQT: ATOM     27  H   UNL d   1       5.288   1.681  -0.930  0.00  0.00     0.222 HD
INPUT-LIGAND-PDBQT: ENDBRANCH  22  26
INPUT-LIGAND-PDBQT: ENDBRANCH  21  22
INPUT-LIGAND-PDBQT: ENDBRANCH   6  21
INPUT-LIGAND-PDBQT: BRANCH   3  28
INPUT-LIGAND-PDBQT: ATOM     28  O   UNL d   1      -2.321  -1.530   0.052  0.00  0.00    -0.278 OA
INPUT-LIGAND-PDBQT: BRANCH  28  29
INPUT-LIGAND-PDBQT: ATOM     29  P   UNL d   1      -3.402  -2.296   0.936  0.00  0.00     0.473 P 
INPUT-LIGAND-PDBQT: ATOM     30  O   UNL d   1      -2.932  -2.753   2.269  0.00  0.00    -0.228 OA
INPUT-LIGAND-PDBQT: BRANCH  29  31
INPUT-LIGAND-PDBQT: ATOM     31  O   UNL d   1      -4.591  -1.225   0.913  0.00  0.00    -0.303 OA
INPUT-LIGAND-PDBQT: ATOM     32  H   UNL d   1      -4.772  -0.977  -0.023  0.00  0.00     0.222 HD
INPUT-LIGAND-PDBQT: ENDBRANCH  29  31
INPUT-LIGAND-PDBQT: BRANCH  29  33
INPUT-LIGAND-PDBQT: ATOM     33  O   UNL d   1      -3.920  -3.418  -0.068  0.00  0.00    -0.303 OA
INPUT-LIGAND-PDBQT: ATOM     34  H   UNL d   1      -3.155  -3.980  -0.344  0.00  0.00     0.222 HD
INPUT-LIGAND-PDBQT: ENDBRANCH  29  33
INPUT-LIGAND-PDBQT: ENDBRANCH  28  29
INPUT-LIGAND-PDBQT: ENDBRANCH   3  28
INPUT-LIGAND-PDBQT: BRANCH   5  35
INPUT-LIGAND-PDBQT: ATOM     35  O   UNL d   1      -0.019   2.436  -0.617  0.00  0.00    -0.278 OA
INPUT-LIGAND-PDBQT: BRANCH  35  36
INPUT-LIGAND-PDBQT: ATOM     36  P   UNL d   1       0.242   3.934  -0.135  0.00  0.00     0.473 P 
INPUT-LIGAND-PDBQT: ATOM     37  O   UNL d   1       1.386   4.117   0.811  0.00  0.00    -0.228 OA
INPUT-LIGAND-PDBQT: BRANCH  36  38
INPUT-LIGAND-PDBQT: ATOM     38  O   UNL d   1       0.411   4.698  -1.522  0.00  0.00    -0.303 OA
INPUT-LIGAND-PDBQT: ATOM     39  H   UNL d   1       1.257   4.425  -1.938  0.00  0.00     0.222 HD
INPUT-LIGAND-PDBQT: ENDBRANCH  36  38
INPUT-LIGAND-PDBQT: BRANCH  36  40
INPUT-LIGAND-PDBQT: ATOM     40  O   UNL d   1      -1.196   4.382   0.376  0.00  0.00    -0.303 OA
INPUT-LIGAND-PDBQT: ATOM     41  H   UNL d   1      -1.909   4.073  -0.226  0.00  0.00     0.222 HD
INPUT-LIGAND-PDBQT: ENDBRANCH  36  40
INPUT-LIGAND-PDBQT: ENDBRANCH  35  36
INPUT-LIGAND-PDBQT: ENDBRANCH   5  35
INPUT-LIGAND-PDBQT: BRANCH   4  42
INPUT-LIGAND-PDBQT: ATOM     42  O   UNL d   1      -2.334   1.271   0.715  0.00  0.00    -0.278 OA
INPUT-LIGAND-PDBQT: BRANCH  42  43
INPUT-LIGAND-PDBQT: ATOM     43  P   UNL d   1      -3.625   1.654  -0.140  0.00  0.00     0.473 P 
INPUT-LIGAND-PDBQT: ATOM     44  O   UNL d   1      -4.208   0.598  -1.014  0.00  0.00    -0.228 OA
INPUT-LIGAND-PDBQT: BRANCH  43  45
INPUT-LIGAND-PDBQT: ATOM     45  O   UNL d   1      -4.625   2.208   0.967  0.00  0.00    -0.303 OA
INPUT-LIGAND-PDBQT: ATOM     46  H   UNL d   1      -4.983   1.485   1.520  0.00  0.00     0.222 HD
INPUT-LIGAND-PDBQT: ENDBRANCH  43  45
INPUT-LIGAND-PDBQT: BRANCH  43  47
INPUT-LIGAND-PDBQT: ATOM     47  O   UNL d   1      -3.184   3.003  -0.885  0.00  0.00    -0.303 OA
INPUT-LIGAND-PDBQT: ATOM     48  H   UNL d   1      -3.918   3.311  -1.456  0.00  0.00     0.222 HD
INPUT-LIGAND-PDBQT: ENDBRANCH  43  47
INPUT-LIGAND-PDBQT: ENDBRANCH  42  43
INPUT-LIGAND-PDBQT: ENDBRANCH   4  42
INPUT-LIGAND-PDBQT: TORSDOF 24
________________________________________________________________________________

Total charge on ligand                               =	-0.006 e
REMARK  24 active torsions:
REMARK  status: ('A' for Active; 'I' for Inactive)
REMARK    1  A    between atoms: C_1  and  O_7 
REMARK    2  A    between atoms: C_2  and  O_12 
REMARK    3  A    between atoms: C_3  and  O_17 
REMARK    4  A    between atoms: C_4  and  O_22 
REMARK    5  A    between atoms: C_5  and  O_27 
REMARK    6  A    between atoms: C_6  and  O_32 
REMARK    7  A    between atoms: O_7  and  P_8 
REMARK    8  A    between atoms: P_8  and  O_10 
REMARK    9  A    between atoms: P_8  and  O_11 
REMARK   10  A    between atoms: O_12  and  P_13 
REMARK   11  A    between atoms: P_13  and  O_15 
REMARK   12  A    between atoms: P_13  and  O_16 
REMARK   13  A    between atoms: O_17  and  P_18 
REMARK   14  A    between atoms: P_18  and  O_20 
REMARK   15  A    between atoms: P_18  and  O_21 
REMARK   16  A    between atoms: O_22  and  P_23 
REMARK   17  A    between atoms: P_23  and  O_25 
REMARK   18  A    between atoms: P_23  and  O_26 
REMARK   19  A    between atoms: O_27  and  P_28 
REMARK   20  A    between atoms: P_28  and  O_30 
REMARK   21  A    between atoms: P_28  and  O_31 
REMARK   22  A    between atoms: O_32  and  P_33 
REMARK   23  A    between atoms: P_33  and  O_35 
REMARK   24  A    between atoms: P_33  and  O_36 


Number of Rotatable Bonds in Small Molecule =	24 torsions
Number of atoms in ligand:  48

Number of non-hydrogen atoms in ligand:  36

Number of vibrational degrees of freedom of ligand:  138


Number of torsional degrees of freedom = 24
Estimated loss of torsional free energy upon binding = +7.1592 kcal/mol


DPF> about 0.035 0.082 -0.065            # small molecule center

Small molecule center of rotation =	(+0.035, +0.082, -0.065)

DPF> tran0 random                         # initial coordinates/A or random

Initial translation =			(43.487, 64.888, 4.943) Angstroms
DPF> quaternion0 random                   # initial orientation

Each run will begin with a new, random initial orientation.
Initial quaternion,  (x,y,z,w) =	( -0.432, -0.408, 0.200, 0.779 ),
DPF> dihe0 random                         # initial dihedrals (relative) or random

DPF> torsdof 24                            # torsional degrees of freedom

Number of torsional degrees of freedom = 24
Free energy coefficient for torsional degrees of freedom = 0.2983, the factory default value.

Estimated loss of torsional free energy upon binding = +7.1592 kcal/mol

DPF> rmstol 2.0                           # cluster_tolerance/A

Maximum RMS tolerance for conformational cluster analysis = 2.00 Angstroms
DPF> extnrg 1000.0                        # external grid energy

External grid energy (beyond grid map walls) = 1000.00

DPF> e0max 0.0 10000                      # max initial energy; max number of retries

Using user-specified maximum number of retries for simanneal initialization, 10000 retries.
If the simanneal initial energy is greater than e0max, 0.000,
then a new, random initial state will be created.

DPF> ga_pop_size 150                      # number of individuals in population

A population of 150 individuals will be used
DPF> ga_num_evals 25000000                # maximum number of energy evaluations

There will be at most 25000000 function evaluations used.
DPF> ga_num_generations 27000             # maximum number of generations

The GA will run for at most 27000 generations.
DPF> ga_elitism 1                         # number of top individuals to survive to next generation

The 1 best will be preserved each GA generation.
DPF> ga_mutation_rate 0.02                # rate of gene mutation

The mutation rate is 0.020000.
DPF> ga_crossover_rate 0.8                # rate of crossover

The crossover rate is 0.800000.
DPF> ga_window_size 10                    # 

The GA's selection window is 10 generations.
DPF> ga_cauchy_alpha 0.0                  # Alpha parameter of Cauchy distribution

The alpha parameter (for the Cauchy distribution) is being set to 0.000000.
DPF> ga_cauchy_beta 1.0                   # Beta parameter Cauchy distribution

The beta parameter (for the Cauchy distribution) is being set to 1.000000.
DPF> set_ga                               # set the above parameters for GA or LGA

DPF> sw_max_its 300                       # iterations of Solis & Wets local search

Solis & Wets algorithms will perform at most 300 iterations.
DPF> sw_max_succ 4                        # consecutive successes before changing rho

Solis & Wets algorithms expand rho every 4 in a row successes.
DPF> sw_max_fail 4                        # consecutive failures before changing rho

Solis & Wets algorithms contract rho every 4 in a row failures.
DPF> sw_rho 1.0                           # size of local search space to sample

rho is set to 1.000000.
DPF> sw_lb_rho 0.01                       # lower bound on rho

rho will never get smaller than 0.010000.
DPF> ls_search_freq 0.06                  # probability of performing local search on individual

Local search will be performed with frequency 0.060000.
DPF> set_psw1                             # set the above pseudo-Solis & Wets parameters

Creating a new Local Search object using the pseudo-Solis-Wets algorithm (pSW1) with the current settings.

DPF> unbound_model bound                  # state of unbound ligand

DPF> ga_run 100                           # do this many hybrid GA-LS runs

centering ligand on specified point: 0.035 0.082 -0.065
Furthest true ligand atom from "about" center is 6.234 Angstroms (maxrad).
Number of requested GA dockings = 100 runs
Unbound model to be used is 'same as bound' [AutoDock 4.2 default].

	BEGINNING GENETIC ALGORITHM DOCKING 1 of 100
Run: 1 Seed: 1539386910 778718571 [ Run 1 of 100 GA/GALS ]
Beginning LAMARCKIAN GENETIC ALGORITHM (LGA), with a maximum of 25000000 energy evaluations.

Final-Value: -15.691


	FINAL GENETIC ALGORITHM DOCKED STATE
	_______________________________________________


Detailed state:  trans -6.755 40.324 11.382 quatxyzw 0.853570 -0.322367 -0.043580 0.406939 center 0.035 0.082 -0.065 ntor 24 100.6230 123.1880 -173.6414 0.0320 -9.8547 -108.5985 -47.0273 -135.4944 7.2476 53.6574 83.5087 135.0188 -33.9752 176.2134 5.5206 114.1120 147.7053 34.7815 -157.1588 17.0440 4.1809 -0.4672 -18.3803 -9.8116
State:	 -6.755  40.324  11.382   0.934 -0.353 -0.048 131.975    100.62  123.19 -173.64    0.03   -9.85 -108.60  -47.03 -135.49    7.25   53.66   83.51  135.02  -33.98  176.21    5.52  114.11  147.71   34.78 -157.16   17.04    4.18   -0.47  -18.38   -9.81

DOCKED: MODEL        1
DOCKED: USER    Run = 1
DOCKED: USER    DPF = D:/Protein_go_brrr/autodock/final/2DN3/IHP/dock.dpf
DOCKED: USER  
DOCKED: USER    Estimated Free Energy of Binding    =   +6.38 kcal/mol  [=(1)+(2)+(3)-(4)]
DOCKED: USER    
DOCKED: USER    (1) Final Intermolecular Energy     =   -0.78 kcal/mol
DOCKED: USER        vdW + Hbond + desolv Energy     =   -0.77 kcal/mol
DOCKED: USER        Electrostatic Energy            =   -0.01 kcal/mol
DOCKED: USER    (2) Final Total Internal Energy     =  -14.91 kcal/mol
DOCKED: USER    (3) Torsional Free Energy           =   +7.16 kcal/mol
DOCKED: USER    (4) Unbound System's Energy  [=(2)] =  -14.91 kcal/mol
DOCKED: USER    
DOCKED: USER    
DOCKED: USER    NEWDPF move IHP_ideal_opt.pdbqt
DOCKED: USER    NEWDPF about 0.035000 0.082000 -0.065000
DOCKED: USER    NEWDPF tran0 -6.754727 40.324274 11.382335
DOCKED: USER    NEWDPF quaternion0 0.853570 -0.322367 -0.043580 0.406939
DOCKED: USER    NEWDPF axisangle0 0.934440 -0.352909 -0.047709 131.974608
DOCKED: USER    NEWDPF quat0 0.934440 -0.352909 -0.047709 131.974608
DOCKED: USER    NEWDPF dihe0 100.62 123.19 -173.64 0.03 -9.85 -108.60 -47.03 -135.49 7.25 53.66 83.51 135.02 -33.98 176.21 5.52 114.11 147.71 34.78 -157.16 17.04 4.18 -0.47 -18.38 -9.81 
DOCKED: USER  keepresnum = 1 
DOCKED: USER  
DOCKED: REMARK  24 active torsions:
DOCKED: REMARK  status: ('A' for Active; 'I' for Inactive)
DOCKED: REMARK    1  A    between atoms: C_1  and  O_7 
DOCKED: REMARK    2  A    between atoms: C_2  and  O_12 
DOCKED: REMARK    3  A    between atoms: C_3  and  O_17 
DOCKED: REMARK    4  A    between atoms: C_4  and  O_22 
DOCKED: REMARK    5  A    between atoms: C_5  and  O_27 
DOCKED: REMARK    6  A    between atoms: C_6  and  O_32 
DOCKED: REMARK    7  A    between atoms: O_7  and  P_8 
DOCKED: REMARK    8  A    between atoms: P_8  and  O_10 
DOCKED: REMARK    9  A    between atoms: P_8  and  O_11 
DOCKED: REMARK   10  A    between atoms: O_12  and  P_13 
DOCKED: REMARK   11  A    between atoms: P_13  and  O_15 
DOCKED: REMARK   12  A    between atoms: P_13  and  O_16 
DOCKED: REMARK   13  A    between atoms: O_17  and  P_18 
DOCKED: REMARK   14  A    between atoms: P_18  and  O_20 
DOCKED: REMARK   15  A    between atoms: P_18  and  O_21 
DOCKED: REMARK   16  A    between atoms: O_22  and  P_23 
DOCKED: REMARK   17  A    between atoms: P_23  and  O_25 
DOCKED: REMARK   18  A    between atoms: P_23  and  O_26 
DOCKED: REMARK   19  A    between atoms: O_27  and  P_28 
DOCKED: REMARK   20  A    between atoms: P_28  and  O_30 
DOCKED: REMARK   21  A    between atoms: P_28  and  O_31 
DOCKED: REMARK   22  A    between atoms: O_32  and  P_33 
DOCKED: REMARK   23  A    between atoms: P_33  and  O_35 
DOCKED: REMARK   24  A    between atoms: P_33  and  O_36 
DOCKED: USER                              x       y       z     vdW  Elec       q    Type
DOCKED: USER                           _______ _______ _______ _____ _____    ______ ____
DOCKED: ROOT
DOCKED: ATOM      1  C   UNL d   1      -5.098  40.660  11.026 -0.03 +0.10    +0.194 C 
DOCKED: ATOM      2  C   UNL d   1      -5.680  41.407  12.228 -0.01 +0.04    +0.194 C 
DOCKED: ATOM      3  C   UNL d   1      -7.084  41.941  11.937 +0.01 +0.02    +0.194 C 
DOCKED: ATOM      4  C   UNL d   1      -8.036  40.873  11.404 +0.01 +0.02    +0.194 C 
DOCKED: ATOM      5  C   UNL d   1      -7.453  40.027  10.280 +0.01 +0.03    +0.194 C 
DOCKED: ATOM      6  C   UNL d   1      -6.025  39.544  10.545 -0.01 +0.06    +0.194 C 
DOCKED: ENDROOT
DOCKED: BRANCH   1   7
DOCKED: ATOM      7  O   UNL d   1      -3.871  40.049  11.433 -0.48 -0.34    -0.278 OA
DOCKED: BRANCH   7   8
DOCKED: ATOM      8  P   UNL d   1      -3.939  38.673  12.240 -0.03 +0.22    +0.473 P 
DOCKED: ATOM      9  O   UNL d   1      -5.235  37.947  12.142 -0.01 -0.05    -0.228 OA
DOCKED: BRANCH   8  10
DOCKED: ATOM     10  O   UNL d   1      -2.705  37.832  11.677 -0.22 -0.20    -0.303 OA
DOCKED: ATOM     11  H   UNL d   1      -2.789  37.738  10.709 +0.03 +0.19    +0.222 HD
DOCKED: ENDBRANCH   8  10
DOCKED: BRANCH   8  12
DOCKED: ATOM     12  O   UNL d   1      -3.454  39.031  13.710 -0.08 +0.01    -0.303 OA
DOCKED: ATOM     13  H   UNL d   1      -4.148  39.475  14.247 +0.03 -0.01    +0.222 HD
DOCKED: ENDBRANCH   8  12
DOCKED: ENDBRANCH   7   8
DOCKED: ENDBRANCH   1   7
DOCKED: BRANCH   2  14
DOCKED: ATOM     14  O   UNL d   1      -5.755  40.510  13.343 -0.00 -0.03    -0.278 OA
DOCKED: BRANCH  14  15
DOCKED: ATOM     15  P   UNL d   1      -5.576  41.158  14.796 +0.01 -0.01    +0.473 P 
DOCKED: ATOM     16  O   UNL d   1      -4.559  40.525  15.694 -0.01 +0.04    -0.228 OA
DOCKED: BRANCH  15  17
DOCKED: ATOM     17  O   UNL d   1      -5.267  42.693  14.501 +0.00 +0.00    -0.303 OA
DOCKED: ATOM     18  H   UNL d   1      -6.090  43.218  14.472 +0.01 +0.00    +0.222 HD
DOCKED: ENDBRANCH  15  17
DOCKED: BRANCH  15  19
DOCKED: ATOM     19  O   UNL d   1      -7.053  41.236  15.381 +0.00 +0.00    -0.303 OA
DOCKED: ATOM     20  H   UNL d   1      -7.634  41.783  14.820 +0.00 +0.00    +0.222 HD
DOCKED: ENDBRANCH  15  19
DOCKED: ENDBRANCH  14  15
DOCKED: ENDBRANCH   2  14
DOCKED: BRANCH   6  21
DOCKED: ATOM     21  O   UNL d   1      -5.510  39.080   9.299 -0.02 -0.11    -0.278 OA
DOCKED: BRANCH  21  22
DOCKED: ATOM     22  P   UNL d   1      -5.528  37.520   8.966 +0.00 +0.12    +0.473 P 
DOCKED: ATOM     23  O   UNL d   1      -6.683  36.710   9.450 +0.00 -0.03    -0.228 OA
DOCKED: BRANCH  22  24
DOCKED: ATOM     24  O   UNL d   1      -5.329  37.522   7.387 -0.00 -0.07    -0.303 OA
DOCKED: ATOM     25  H   UNL d   1      -6.188  37.786   6.968 +0.00 +0.04    +0.222 HD
DOCKED: ENDBRANCH  22  24
DOCKED: BRANCH  22  26
DOCKED: ATOM     26  O   UNL d   1      -4.082  37.059   9.481 -0.03 -0.11    -0.303 OA
DOCKED: ATOM     27  H   UNL d   1      -4.096  36.988  10.457 +0.02 +0.08    +0.222 HD
DOCKED: ENDBRANCH  22  26
DOCKED: ENDBRANCH  21  22
DOCKED: ENDBRANCH   6  21
DOCKED: BRANCH   3  28
DOCKED: ATOM     28  O   UNL d   1      -7.646  42.365  13.173 +0.00 -0.02    -0.278 OA
DOCKED: BRANCH  28  29
DOCKED: ATOM     29  P   UNL d   1      -7.873  43.914  13.464 +0.00 +0.02    +0.473 P 
DOCKED: ATOM     30  O   UNL d   1      -9.175  44.467  13.012 +0.00 -0.01    -0.228 OA
DOCKED: BRANCH  29  31
DOCKED: ATOM     31  O   UNL d   1      -7.575  43.949  15.036 +0.00 -0.01    -0.303 OA
DOCKED: ATOM     32  H   UNL d   1      -7.279  43.054  15.319 +0.00 +0.00    +0.222 HD
DOCKED: ENDBRANCH  29  31
DOCKED: BRANCH  29  33
DOCKED: ATOM     33  O   UNL d   1      -6.560  44.567  12.843 +0.00 -0.02    -0.303 OA
DOCKED: ATOM     34  H   UNL d   1      -5.802  44.410  13.458 +0.01 +0.01    +0.222 HD
DOCKED: ENDBRANCH  29  33
DOCKED: ENDBRANCH  28  29
DOCKED: ENDBRANCH   3  28
DOCKED: BRANCH   5  35
DOCKED: ATOM     35  O   UNL d   1      -8.280  38.868  10.198 +0.00 -0.03    -0.278 OA
DOCKED: BRANCH  35  36
DOCKED: ATOM     36  P   UNL d   1      -9.207  38.629   8.923 +0.00 +0.04    +0.473 P 
DOCKED: ATOM     37  O   UNL d   1     -10.230  37.547   9.062 +0.00 -0.01    -0.228 OA
DOCKED: BRANCH  36  38
DOCKED: ATOM     38  O   UNL d   1      -9.818  40.081   8.687 +0.00 -0.02    -0.303 OA
DOCKED: ATOM     39  H   UNL d   1     -10.357  40.333   9.468 +0.00 +0.01    +0.222 HD
DOCKED: ENDBRANCH  36  38
DOCKED: BRANCH  36  40
DOCKED: ATOM     40  O   UNL d   1      -8.141  38.469   7.753 +0.00 -0.04    -0.303 OA
DOCKED: ATOM     41  H   UNL d   1      -7.229  38.361   8.104 +0.00 +0.03    +0.222 HD
DOCKED: ENDBRANCH  36  40
DOCKED: ENDBRANCH  35  36
DOCKED: ENDBRANCH   5  35
DOCKED: BRANCH   4  42
DOCKED: ATOM     42  O   UNL d   1      -9.172  41.560  10.869 +0.00 -0.02    -0.278 OA
DOCKED: BRANCH  42  43
DOCKED: ATOM     43  P   UNL d   1     -10.616  41.247  11.469 +0.00 +0.02    +0.473 P 
DOCKED: ATOM     44  O   UNL d   1     -10.990  41.918  12.745 +0.00 -0.01    -0.228 OA
DOCKED: BRANCH  43  45
DOCKED: ATOM     45  O   UNL d   1     -11.582  41.583  10.250 +0.00 -0.01    -0.303 OA
DOCKED: ATOM     46  H   UNL d   1     -11.079  41.725   9.423 +0.00 +0.01    +0.222 HD
DOCKED: ENDBRANCH  43  45
DOCKED: BRANCH  43  47
DOCKED: ATOM     47  O   UNL d   1     -10.665  39.644  11.491 +0.00 -0.01    -0.303 OA
DOCKED: ATOM     48  H   UNL d   1     -10.337  39.300  10.635 +0.00 +0.01    +0.222 HD
DOCKED: ENDBRANCH  43  47
DOCKED: ENDBRANCH  42  43
DOCKED: ENDBRANCH   4  42
DOCKED: TORSDOF 24
DOCKED: TER
DOCKED: ENDMDL
________________________________________________________________________________


	BEGINNING GENETIC ALGORITHM DOCKING 2 of 100
Run: 2 Seed: 1549080581 1817183516 [ Run 2 of 100 GA/GALS ]
Beginning LAMARCKIAN GENETIC ALGORITHM (LGA), with a maximum of 25000000 energy evaluations.

Final-Value: -15.420


	FINAL GENETIC ALGORITHM DOCKED STATE
	_______________________________________________


Detailed state:  trans 56.341 41.521 6.773 quatxyzw 0.459156 -0.188621 0.508621 -0.703493 center 0.035 0.082 -0.065 ntor 24 -147.1704 -46.8681 44.4530 46.6773 141.8735 73.5486 -122.3725 -143.8387 50.6395 76.5939 17.9910 -107.9781 86.0071 166.4020 180.0000 -34.8410 -78.8740 -91.1611 -39.4920 -8.3375 17.6006 143.3580 179.7974 -125.1102
State:	 56.341  41.521   6.773   0.646 -0.265  0.716 -90.584   -147.17  -46.87   44.45   46.68  141.87   73.55 -122.37 -143.84   50.64   76.59   17.99 -107.98   86.01  166.40  180.00  -34.84  -78.87  -91.16  -39.49   -8.34   17.60  143.36  179.80 -125.11

DOCKED: MODEL        2
DOCKED: USER    Run = 2
DOCKED: USER    DPF = D:/Protein_go_brrr/autodock/final/2DN3/IHP/dock.dpf
DOCKED: USER  
DOCKED: USER    Estimated Free Energy of Binding    =   +5.03 kcal/mol  [=(1)+(2)+(3)-(4)]
DOCKED: USER    
DOCKED: USER    (1) Final Intermolecular Energy     =   -2.13 kcal/mol
DOCKED: USER        vdW + Hbond + desolv Energy     =   -1.95 kcal/mol
DOCKED: USER        Electrostatic Energy            =   -0.18 kcal/mol
DOCKED: USER    (2) Final Total Internal Energy     =  -13.29 kcal/mol
DOCKED: USER    (3) Torsional Free Energy           =   +7.16 kcal/mol
DOCKED: USER    (4) Unbound System's Energy  [=(2)] =  -13.29 kcal/mol
DOCKED: USER    
DOCKED: USER    
DOCKED: USER    NEWDPF move IHP_ideal_opt.pdbqt
DOCKED: USER    NEWDPF about 0.035000 0.082000 -0.065000
DOCKED: USER    NEWDPF tran0 56.340982 41.521293 6.772870
DOCKED: USER    NEWDPF quaternion0 0.459156 -0.188621 0.508621 -0.703493
DOCKED: USER    NEWDPF axisangle0 0.646059 -0.265401 0.715660 -90.584162
DOCKED: USER    NEWDPF quat0 0.646059 -0.265401 0.715660 -90.584162
DOCKED: USER    NEWDPF dihe0 -147.17 -46.87 44.45 46.68 141.87 73.55 -122.37 -143.84 50.64 76.59 17.99 -107.98 86.01 166.40 180.00 -34.84 -78.87 -91.16 -39.49 -8.34 17.60 143.36 179.80 -125.11 
DOCKED: USER  keepresnum = 1 
DOCKED: USER  
DOCKED: REMARK  24 active torsions:
DOCKED: REMARK  status: ('A' for Active; 'I' for Inactive)
DOCKED: REMARK    1  A    between atoms: C_1  and  O_7 
DOCKED: REMARK    2  A    between atoms: C_2  and  O_12 
DOCKED: REMARK    3  A    between atoms: C_3  and  O_17 
DOCKED: REMARK    4  A    between atoms: C_4  and  O_22 
DOCKED: REMARK    5  A    between atoms: C_5  and  O_27 
DOCKED: REMARK    6  A    between atoms: C_6  and  O_32 
DOCKED: REMARK    7  A    between atoms: O_7  and  P_8 
DOCKED: REMARK    8  A    between atoms: P_8  and  O_10 
DOCKED: REMARK    9  A    between atoms: P_8  and  O_11 
DOCKED: REMARK   10  A    between atoms: O_12  and  P_13 
DOCKED: REMARK   11  A    between atoms: P_13  and  O_15 
DOCKED: REMARK   12  A    between atoms: P_13  and  O_16 
DOCKED: REMARK   13  A    between atoms: O_17  and  P_18 
DOCKED: REMARK   14  A    between atoms: P_18  and  O_20 
DOCKED: REMARK   15  A    between atoms: P_18  and  O_21 
DOCKED: REMARK   16  A    between atoms: O_22  and  P_23 
DOCKED: REMARK   17  A    between atoms: P_23  and  O_25 
DOCKED: REMARK   18  A    between atoms: P_23  and  O_26 
DOCKED: REMARK   19  A    between atoms: O_27  and  P_28 
DOCKED: REMARK   20  A    between atoms: P_28  and  O_30 
DOCKED: REMARK   21  A    between atoms: P_28  and  O_31 
DOCKED: REMARK   22  A    between atoms: O_32  and  P_33 
DOCKED: REMARK   23  A    between atoms: P_33  and  O_35 
DOCKED: REMARK   24  A    between atoms: P_33  and  O_36 
DOCKED: USER                              x       y       z     vdW  Elec       q    Type
DOCKED: USER                           _______ _______ _______ _____ _____    ______ ____
DOCKED: ROOT
DOCKED: ATOM      1  C   UNL d   1      57.805  41.484   7.689 +0.00 +0.00    +0.194 C 
DOCKED: ATOM      2  C   UNL d   1      57.932  41.067   6.222 +0.00 +0.00    +0.194 C 
DOCKED: ATOM      3  C   UNL d   1      56.783  40.153   5.792 +0.00 +0.01    +0.194 C 
DOCKED: ATOM      4  C   UNL d   1      55.405  40.727   6.112 -0.01 +0.00    +0.194 C 
DOCKED: ATOM      5  C   UNL d   1      55.270  41.261   7.532 -0.03 -0.01    +0.194 C 
DOCKED: ATOM      6  C   UNL d   1      56.449  42.125   7.984 -0.01 -0.01    +0.194 C 
DOCKED: ENDROOT
DOCKED: BRANCH   1   7
DOCKED: ATOM      7  O   UNL d   1      58.809  42.465   7.962 +0.00 -0.00    -0.278 OA
DOCKED: BRANCH   7   8
DOCKED: ATOM      8  P   UNL d   1      59.193  42.754   9.485 +0.00 +0.01    +0.473 P 
DOCKED: ATOM      9  O   UNL d   1      60.650  42.904   9.751 +0.00 -0.01    -0.228 OA
DOCKED: BRANCH   8  10
DOCKED: ATOM     10  O   UNL d   1      58.350  44.056   9.857 +0.00 -0.00    -0.303 OA
DOCKED: ATOM     11  H   UNL d   1      57.405  43.897   9.672 +0.01 -0.00    +0.222 HD
DOCKED: ENDBRANCH   8  10
DOCKED: BRANCH   8  12
DOCKED: ATOM     12  O   UNL d   1      58.448  41.626  10.320 +0.00 -0.01    -0.303 OA
DOCKED: ATOM     13  H   UNL d   1      57.557  41.901  10.631 +0.00 +0.00    +0.222 HD
DOCKED: ENDBRANCH   8  12
DOCKED: ENDBRANCH   7   8
DOCKED: ENDBRANCH   1   7
DOCKED: BRANCH   2  14
DOCKED: ATOM     14  O   UNL d   1      57.914  42.241   5.400 -0.00 -0.01    -0.278 OA
DOCKED: BRANCH  14  15
DOCKED: ATOM     15  P   UNL d   1      59.170  42.454   4.430 +0.00 +0.02    +0.473 P 
DOCKED: ATOM     16  O   UNL d   1      59.712  43.846   4.329 +0.00 -0.01    -0.228 OA
DOCKED: BRANCH  15  17
DOCKED: ATOM     17  O   UNL d   1      60.250  41.408   4.958 +0.00 -0.01    -0.303 OA
DOCKED: ATOM     18  H   UNL d   1      60.384  41.497   5.921 +0.00 +0.01    +0.222 HD
DOCKED: ENDBRANCH  15  17
DOCKED: BRANCH  15  19
DOCKED: ATOM     19  O   UNL d   1      58.727  41.789   3.055 +0.00 -0.01    -0.303 OA
DOCKED: ATOM     20  H   UNL d   1      57.926  41.243   3.160 +0.00 +0.01    +0.222 HD
DOCKED: ENDBRANCH  15  19
DOCKED: ENDBRANCH  14  15
DOCKED: ENDBRANCH   2  14
DOCKED: BRANCH   6  21
DOCKED: ATOM     21  O   UNL d   1      56.346  42.254   9.400 -0.01 +0.01    -0.278 OA
DOCKED: BRANCH  21  22
DOCKED: ATOM     22  P   UNL d   1      55.415  43.387  10.027 -0.03 -0.04    +0.473 P 
DOCKED: ATOM     23  O   UNL d   1      55.799  43.964  11.348 -0.01 +0.01    -0.228 OA
DOCKED: BRANCH  22  24
DOCKED: ATOM     24  O   UNL d   1      55.337  44.440   8.836 -0.03 +0.03    -0.303 OA
DOCKED: ATOM     25  H   UNL d   1      54.720  44.083   8.149 +0.01 -0.04    +0.222 HD
DOCKED: ENDBRANCH  22  24
DOCKED: BRANCH  22  26
DOCKED: ATOM     26  O   UNL d   1      53.970  42.698   9.955 -0.10 +0.07    -0.303 OA
DOCKED: ATOM     27  H   UNL d   1      53.483  43.051   9.182 -0.51 -0.11    +0.222 HD
DOCKED: ENDBRANCH  22  26
DOCKED: ENDBRANCH  21  22
DOCKED: ENDBRANCH   6  21
DOCKED: BRANCH   3  28
DOCKED: ATOM     28  O   UNL d   1      56.828  40.047   4.374 +0.00 -0.01    -0.278 OA
DOCKED: BRANCH  28  29
DOCKED: ATOM     29  P   UNL d   1      55.755  40.808   3.476 +0.00 +0.02    +0.473 P 
DOCKED: ATOM     30  O   UNL d   1      54.339  40.419   3.702 -0.00 -0.01    -0.228 OA
DOCKED: BRANCH  29  31
DOCKED: ATOM     31  O   UNL d   1      56.150  42.326   3.795 -0.00 -0.00    -0.303 OA
DOCKED: ATOM     32  H   UNL d   1      55.889  42.530   4.722 +0.01 -0.00    +0.222 HD
DOCKED: ENDBRANCH  29  31
DOCKED: BRANCH  29  33
DOCKED: ATOM     33  O   UNL d   1      56.335  40.594   2.009 +0.00 -0.02    -0.303 OA
DOCKED: ATOM     34  H   UNL d   1      57.009  41.293   1.825 +0.00 +0.01    +0.222 HD
DOCKED: ENDBRANCH  29  33
DOCKED: ENDBRANCH  28  29
DOCKED: ENDBRANCH   3  28
DOCKED: BRANCH   5  35
DOCKED: ATOM     35  O   UNL d   1      54.115  42.098   7.522 -0.02 +0.07    -0.278 OA
DOCKED: BRANCH  35  36
DOCKED: ATOM     36  P   UNL d   1      53.941  43.217   6.399 -0.03 -0.09    +0.473 P 
DOCKED: ATOM     37  O   UNL d   1      55.205  43.873   5.941 -0.02 +0.02    -0.228 OA
DOCKED: BRANCH  36  38
DOCKED: ATOM     38  O   UNL d   1      53.170  42.416   5.258 -0.06 +0.03    -0.303 OA
DOCKED: ATOM     39  H   UNL d   1      53.293  41.453   5.403 +0.03 -0.01    +0.222 HD
DOCKED: ENDBRANCH  36  38
DOCKED: BRANCH  36  40
DOCKED: ATOM     40  O   UNL d   1      52.825  44.159   7.027 +0.08 +0.12    -0.303 OA
DOCKED: ATOM     41  H   UNL d   1      52.910  44.223   8.004 -0.10 -0.12    +0.222 HD
DOCKED: ENDBRANCH  36  40
DOCKED: ENDBRANCH  35  36
DOCKED: ENDBRANCH   5  35
DOCKED: BRANCH   4  42
DOCKED: ATOM     42  O   UNL d   1      54.467  39.655   5.973 -0.01 -0.01    -0.278 OA
DOCKED: BRANCH  42  43
DOCKED: ATOM     43  P   UNL d   1      53.529  39.287   7.210 -0.06 +0.03    +0.473 P 
DOCKED: ATOM     44  O   UNL d   1      54.168  39.195   8.553 -0.05 +0.00    -0.228 OA
DOCKED: BRANCH  43  45
DOCKED: ATOM     45  O   UNL d   1      52.375  40.378   7.111 -0.16 +0.03    -0.303 OA
DOCKED: ATOM     46  H   UNL d   1      52.741  41.285   7.104 -0.37 -0.08    +0.222 HD
DOCKED: ENDBRANCH  43  45
DOCKED: BRANCH  43  47
DOCKED: ATOM     47  O   UNL d   1      52.771  37.965   6.713 -0.53 -0.13    -0.303 OA
DOCKED: ATOM     48  H   UNL d   1      53.405  37.219   6.689 +0.05 +0.05    +0.222 HD
DOCKED: ENDBRANCH  43  47
DOCKED: ENDBRANCH  42  43
DOCKED: ENDBRANCH   4  42
DOCKED: TORSDOF 24
DOCKED: TER
DOCKED: ENDMDL
________________________________________________________________________________


	BEGINNING GENETIC ALGORITHM DOCKING 3 of 100
Run: 3 Seed: 918976302 1352160477 [ Run 3 of 100 GA/GALS ]
Beginning LAMARCKIAN GENETIC ALGORITHM (LGA), with a maximum of 25000000 energy evaluations.

Final-Value: -20.453


	FINAL GENETIC ALGORITHM DOCKED STATE
	_______________________________________________


Detailed state:  trans 2.370 20.397 17.168 quatxyzw -0.380637 0.367656 -0.198871 0.824860 center 0.035 0.082 -0.065 ntor 24 -164.1761 -33.3692 74.8138 90.7172 114.2957 79.7983 -25.8854 -90.6314 0.6196 68.7926 125.9139 124.8082 51.4881 -84.7237 175.5020 -65.8556 -61.2390 -155.6707 -146.0291 -16.6586 16.6280 1.8895 -180.0000 9.4851
State:	  2.370  20.397  17.168  -0.673  0.650 -0.352 68.851   -164.18  -33.37   74.81   90.72  114.30   79.80  -25.89  -90.63    0.62   68.79  125.91  124.81   51.49  -84.72  175.50  -65.86  -61.24 -155.67 -146.03  -16.66   16.63    1.89 -180.00    9.49

DOCKED: MODEL        3
DOCKED: USER    Run = 3
DOCKED: USER    DPF = D:/Protein_go_brrr/autodock/final/2DN3/IHP/dock.dpf
DOCKED: USER  
DOCKED: USER    Estimated Free Energy of Binding    =   +2.74 kcal/mol  [=(1)+(2)+(3)-(4)]
DOCKED: USER    
DOCKED: USER    (1) Final Intermolecular Energy     =   -4.42 kcal/mol
DOCKED: USER        vdW + Hbond + desolv Energy     =   -4.26 kcal/mol
DOCKED: USER        Electrostatic Energy            =   -0.16 kcal/mol
DOCKED: USER    (2) Final Total Internal Energy     =  -16.03 kcal/mol
DOCKED: USER    (3) Torsional Free Energy           =   +7.16 kcal/mol
DOCKED: USER    (4) Unbound System's Energy  [=(2)] =  -16.03 kcal/mol
DOCKED: USER    
DOCKED: USER    
DOCKED: USER    NEWDPF move IHP_ideal_opt.pdbqt
DOCKED: USER    NEWDPF about 0.035000 0.082000 -0.065000
DOCKED: USER    NEWDPF tran0 2.369656 20.396795 17.167862
DOCKED: USER    NEWDPF quaternion0 -0.380637 0.367656 -0.198871 0.824860
DOCKED: USER    NEWDPF axisangle0 -0.673293 0.650331 -0.351775 68.851330
DOCKED: USER    NEWDPF quat0 -0.673293 0.650331 -0.351775 68.851330
DOCKED: USER    NEWDPF dihe0 -164.18 -33.37 74.81 90.72 114.30 79.80 -25.89 -90.63 0.62 68.79 125.91 124.81 51.49 -84.72 175.50 -65.86 -61.24 -155.67 -146.03 -16.66 16.63 1.89 -180.00 9.49 
DOCKED: USER  keepresnum = 1 
DOCKED: USER  
DOCKED: REMARK  24 active torsions:
DOCKED: REMARK  status: ('A' for Active; 'I' for Inactive)
DOCKED: REMARK    1  A    between atoms: C_1  and  O_7 
DOCKED: REMARK    2  A    between atoms: C_2  and  O_12 
DOCKED: REMARK    3  A    between atoms: C_3  and  O_17 
DOCKED: REMARK    4  A    between atoms: C_4  and  O_22 
DOCKED: REMARK    5  A    between atoms: C_5  and  O_27 
DOCKED: REMARK    6  A    between atoms: C_6  and  O_32 
DOCKED: REMARK    7  A    between atoms: O_7  and  P_8 
DOCKED: REMARK    8  A    between atoms: P_8  and  O_10 
DOCKED: REMARK    9  A    between atoms: P_8  and  O_11 
DOCKED: REMARK   10  A    between atoms: O_12  and  P_13 
DOCKED: REMARK   11  A    between atoms: P_13  and  O_15 
DOCKED: REMARK   12  A    between atoms: P_13  and  O_16 
DOCKED: REMARK   13  A    between atoms: O_17  and  P_18 
DOCKED: REMARK   14  A    between atoms: P_18  and  O_20 
DOCKED: REMARK   15  A    between atoms: P_18  and  O_21 
DOCKED: REMARK   16  A    between atoms: O_22  and  P_23 
DOCKED: REMARK   17  A    between atoms: P_23  and  O_25 
DOCKED: REMARK   18  A    between atoms: P_23  and  O_26 
DOCKED: REMARK   19  A    between atoms: O_27  and  P_28 
DOCKED: REMARK   20  A    between atoms: P_28  and  O_30 
DOCKED: REMARK   21  A    between atoms: P_28  and  O_31 
DOCKED: REMARK   22  A    between atoms: O_32  and  P_33 
DOCKED: REMARK   23  A    between atoms: P_33  and  O_35 
DOCKED: REMARK   24  A    between atoms: P_33  and  O_36 
DOCKED: USER                              x       y       z     vdW  Elec       q    Type
DOCKED: USER                           _______ _______ _______ _____ _____    ______ ____
DOCKED: ROOT
DOCKED: ATOM      1  C   UNL d   1       3.365  19.284  18.038 -0.04 +0.01    +0.194 C 
DOCKED: ATOM      2  C   UNL d   1       3.210  19.002  16.542 -0.08 -0.01    +0.194 C 
DOCKED: ATOM      3  C   UNL d   1       1.762  19.182  16.079 -0.07 -0.02    +0.194 C 
DOCKED: ATOM      4  C   UNL d   1       1.166  20.530  16.477 -0.08 -0.02    +0.194 C 
DOCKED: ATOM      5  C   UNL d   1       1.398  20.904  17.935 -0.03 -0.01    +0.194 C 
DOCKED: ATOM      6  C   UNL d   1       2.831  20.667  18.416 -0.04 -0.00    +0.194 C 
DOCKED: ENDROOT
DOCKED: BRANCH   1   7
DOCKED: ATOM      7  O   UNL d   1       4.759  19.265  18.353 -0.06 -0.03    -0.278 OA
DOCKED: BRANCH   7   8
DOCKED: ATOM      8  P   UNL d   1       5.571  20.639  18.286 -0.11 +0.03    +0.473 P 
DOCKED: ATOM      9  O   UNL d   1       5.865  21.263  19.605 -0.16 -0.00    -0.228 OA
DOCKED: BRANCH   8  10
DOCKED: ATOM     10  O   UNL d   1       6.885  20.271  17.458 -0.24 -0.06    -0.303 OA
DOCKED: ATOM     11  H   UNL d   1       6.657  19.646  16.745 +0.11 +0.05    +0.222 HD
DOCKED: ENDBRANCH   8  10
DOCKED: BRANCH   8  12
DOCKED: ATOM     12  O   UNL d   1       4.770  21.543  17.254 -0.16 +0.02    -0.303 OA
DOCKED: ATOM     13  H   UNL d   1       4.948  21.307  16.316 -0.02 -0.04    +0.222 HD
DOCKED: ENDBRANCH   8  12
DOCKED: ENDBRANCH   7   8
DOCKED: ENDBRANCH   1   7
DOCKED: BRANCH   2  14
DOCKED: ATOM     14  O   UNL d   1       4.040  19.910  15.807 -0.18 +0.03    -0.278 OA
DOCKED: BRANCH  14  15
DOCKED: ATOM     15  P   UNL d   1       5.250  19.264  14.981 -0.28 -0.03    +0.473 P 
DOCKED: ATOM     16  O   UNL d   1       5.832  17.996  15.523 -0.25 -0.02    -0.228 OA
DOCKED: BRANCH  15  17
DOCKED: ATOM     17  O   UNL d   1       4.668  19.096  13.508 -0.57 +0.04    -0.303 OA
DOCKED: ATOM     18  H   UNL d   1       3.691  19.092  13.514 -0.25 -0.10    +0.222 HD
DOCKED: ENDBRANCH  15  17
DOCKED: BRANCH  15  19
DOCKED: ATOM     19  O   UNL d   1       6.279  20.461  14.783 -0.13 +0.04    -0.303 OA
DOCKED: ATOM     20  H   UNL d   1       6.246  21.091  15.527 -0.32 -0.07    +0.222 HD
DOCKED: ENDBRANCH  15  19
DOCKED: ENDBRANCH  14  15
DOCKED: ENDBRANCH   2  14
DOCKED: BRANCH   6  21
DOCKED: ATOM     21  O   UNL d   1       2.804  20.730  19.840 -0.02 -0.00    -0.278 OA
DOCKED: BRANCH  21  22
DOCKED: ATOM     22  P   UNL d   1       2.932  22.141  20.573 -0.04 -0.01    +0.473 P 
DOCKED: ATOM     23  O   UNL d   1       3.474  22.167  21.962 -0.08 +0.01    -0.228 OA
DOCKED: BRANCH  22  24
DOCKED: ATOM     24  O   UNL d   1       3.769  22.983  19.513 -0.10 +0.01    -0.303 OA
DOCKED: ATOM     25  H   UNL d   1       3.351  22.860  18.623 +0.06 -0.00    +0.222 HD
DOCKED: ENDBRANCH  22  24
DOCKED: BRANCH  22  26
DOCKED: ATOM     26  O   UNL d   1       1.457  22.741  20.383 -0.01 +0.00    -0.303 OA
DOCKED: ATOM     27  H   UNL d   1       1.441  23.307  19.584 +0.02 -0.00    +0.222 HD
DOCKED: ENDBRANCH  22  26
DOCKED: ENDBRANCH  21  22
DOCKED: ENDBRANCH   6  21
DOCKED: BRANCH   3  28
DOCKED: ATOM     28  O   UNL d   1       1.764  19.175  14.657 -0.04 +0.08    -0.278 OA
DOCKED: BRANCH  28  29
DOCKED: ATOM     29  P   UNL d   1       1.084  17.977  13.858 -0.04 -0.08    +0.473 P 
DOCKED: ATOM     30  O   UNL d   1       1.985  16.851  13.503 -0.06 +0.03    -0.228 OA
DOCKED: BRANCH  29  31
DOCKED: ATOM     31  O   UNL d   1      -0.140  17.649  14.835 -0.01 +0.02    -0.303 OA
DOCKED: ATOM     32  H   UNL d   1      -0.361  18.461  15.345 +0.02 -0.02    +0.222 HD
DOCKED: ENDBRANCH  29  31
DOCKED: BRANCH  29  33
DOCKED: ATOM     33  O   UNL d   1       0.377  18.739  12.652 -0.14 +0.07    -0.303 OA
DOCKED: ATOM     34  H   UNL d   1       0.101  19.638  12.957 -0.03 -0.07    +0.222 HD
DOCKED: ENDBRANCH  29  33
DOCKED: ENDBRANCH  28  29
DOCKED: ENDBRANCH   3  28
DOCKED: BRANCH   5  35
DOCKED: ATOM     35  O   UNL d   1       1.155  22.307  18.018 -0.02 +0.01    -0.278 OA
DOCKED: BRANCH  35  36
DOCKED: ATOM     36  P   UNL d   1       1.841  23.305  16.980 -0.07 -0.03    +0.473 P 
DOCKED: ATOM     37  O   UNL d   1       3.004  22.749  16.223 -0.18 +0.02    -0.228 OA
DOCKED: BRANCH  36  38
DOCKED: ATOM     38  O   UNL d   1       0.605  23.725  16.066 -0.07 +0.02    -0.303 OA
DOCKED: ATOM     39  H   UNL d   1       0.327  22.953  15.528 +0.04 -0.02    +0.222 HD
DOCKED: ENDBRANCH  36  38
DOCKED: BRANCH  36  40
DOCKED: ATOM     40  O   UNL d   1       2.110  24.593  17.874 -0.04 +0.01    -0.303 OA
DOCKED: ATOM     41  H   UNL d   1       2.219  24.361  18.823 +0.05 -0.00    +0.222 HD
DOCKED: ENDBRANCH  36  40
DOCKED: ENDBRANCH  35  36
DOCKED: ENDBRANCH   5  35
DOCKED: BRANCH   4  42
DOCKED: ATOM     42  O   UNL d   1      -0.249  20.429  16.288 -0.02 +0.02    -0.278 OA
DOCKED: BRANCH  42  43
DOCKED: ATOM     43  P   UNL d   1      -0.902  21.083  14.988 -0.04 -0.05    +0.473 P 
DOCKED: ATOM     44  O   UNL d   1      -1.749  22.293  15.179 -0.03 +0.02    -0.228 OA
DOCKED: BRANCH  43  45
DOCKED: ATOM     45  O   UNL d   1       0.357  21.311  14.042 -0.14 +0.08    -0.303 OA
DOCKED: ATOM     46  H   UNL d   1       0.875  20.489  13.931 -0.35 -0.10    +0.222 HD
DOCKED: ENDBRANCH  43  45
DOCKED: BRANCH  43  47
DOCKED: ATOM     47  O   UNL d   1      -1.623  19.840  14.276 -0.02 +0.03    -0.303 OA
DOCKED: ATOM     48  H   UNL d   1      -0.963  19.134  14.114 +0.03 -0.03    +0.222 HD
DOCKED: ENDBRANCH  43  47
DOCKED: ENDBRANCH  42  43
DOCKED: ENDBRANCH   4  42
DOCKED: TORSDOF 24
DOCKED: TER
DOCKED: ENDMDL
________________________________________________________________________________


	BEGINNING GENETIC ALGORITHM DOCKING 4 of 100
Run: 4 Seed: 1389936225 86010352 [ Run 4 of 100 GA/GALS ]
Beginning LAMARCKIAN GENETIC ALGORITHM (LGA), with a maximum of 25000000 energy evaluations.

Final-Value: -16.989


	FINAL GENETIC ALGORITHM DOCKED STATE
	_______________________________________________


Detailed state:  trans 55.771 23.555 10.376 quatxyzw -0.810497 0.495866 -0.102879 0.294325 center 0.035 0.082 -0.065 ntor 24 -180.0000 -38.0536 107.3603 111.4467 26.6600 -129.1698 -143.7273 -44.9260 -179.1919 -27.4123 137.7151 102.6290 -121.8513 97.6266 -8.3686 -164.3989 -177.9034 -177.6220 40.7357 -6.3232 -46.6186 -0.8159 32.8440 11.1398
State:	 55.771  23.555  10.376  -0.848  0.519 -0.108 145.766   -180.00  -38.05  107.36  111.45   26.66 -129.17 -143.73  -44.93 -179.19  -27.41  137.72  102.63 -121.85   97.63   -8.37 -164.40 -177.90 -177.62   40.74   -6.32  -46.62   -0.82   32.84   11.14

DOCKED: MODEL        4
DOCKED: USER    Run = 4
DOCKED: USER    DPF = D:/Protein_go_brrr/autodock/final/2DN3/IHP/dock.dpf
DOCKED: USER  
DOCKED: USER    Estimated Free Energy of Binding    =   +5.43 kcal/mol  [=(1)+(2)+(3)-(4)]
DOCKED: USER    
DOCKED: USER    (1) Final Intermolecular Energy     =   -1.73 kcal/mol
DOCKED: USER        vdW + Hbond + desolv Energy     =   -1.56 kcal/mol
DOCKED: USER        Electrostatic Energy            =   -0.17 kcal/mol
DOCKED: USER    (2) Final Total Internal Energy     =  -15.25 kcal/mol
DOCKED: USER    (3) Torsional Free Energy           =   +7.16 kcal/mol
DOCKED: USER    (4) Unbound System's Energy  [=(2)] =  -15.25 kcal/mol
DOCKED: USER    
DOCKED: USER    
DOCKED: USER    NEWDPF move IHP_ideal_opt.pdbqt
DOCKED: USER    NEWDPF about 0.035000 0.082000 -0.065000
DOCKED: USER    NEWDPF tran0 55.771202 23.555219 10.376136
DOCKED: USER    NEWDPF quaternion0 -0.810497 0.495866 -0.102879 0.294325
DOCKED: USER    NEWDPF axisangle0 -0.848062 0.518848 -0.107648 145.765887
DOCKED: USER    NEWDPF quat0 -0.848062 0.518848 -0.107648 145.765887
DOCKED: USER    NEWDPF dihe0 -180.00 -38.05 107.36 111.45 26.66 -129.17 -143.73 -44.93 -179.19 -27.41 137.72 102.63 -121.85 97.63 -8.37 -164.40 -177.90 -177.62 40.74 -6.32 -46.62 -0.82 32.84 11.14 
DOCKED: USER  keepresnum = 1 
DOCKED: USER  
DOCKED: REMARK  24 active torsions:
DOCKED: REMARK  status: ('A' for Active; 'I' for Inactive)
DOCKED: REMARK    1  A    between atoms: C_1  and  O_7 
DOCKED: REMARK    2  A    between atoms: C_2  and  O_12 
DOCKED: REMARK    3  A    between atoms: C_3  and  O_17 
DOCKED: REMARK    4  A    between atoms: C_4  and  O_22 
DOCKED: REMARK    5  A    between atoms: C_5  and  O_27 
DOCKED: REMARK    6  A    between atoms: C_6  and  O_32 
DOCKED: REMARK    7  A    between atoms: O_7  and  P_8 
DOCKED: REMARK    8  A    between atoms: P_8  and  O_10 
DOCKED: REMARK    9  A    between atoms: P_8  and  O_11 
DOCKED: REMARK   10  A    between atoms: O_12  and  P_13 
DOCKED: REMARK   11  A    between atoms: P_13  and  O_15 
DOCKED: REMARK   12  A    between atoms: P_13  and  O_16 
DOCKED: REMARK   13  A    between atoms: O_17  and  P_18 
DOCKED: REMARK   14  A    between atoms: P_18  and  O_20 
DOCKED: REMARK   15  A    between atoms: P_18  and  O_21 
DOCKED: REMARK   16  A    between atoms: O_22  and  P_23 
DOCKED: REMARK   17  A    between atoms: P_23  and  O_25 
DOCKED: REMARK   18  A    between atoms: P_23  and  O_26 
DOCKED: REMARK   19  A    between atoms: O_27  and  P_28 
DOCKED: REMARK   20  A    between atoms: P_28  and  O_30 
DOCKED: REMARK   21  A    between atoms: P_28  and  O_31 
DOCKED: REMARK   22  A    between atoms: O_32  and  P_33 
DOCKED: REMARK   23  A    between atoms: P_33  and  O_35 
DOCKED: REMARK   24  A    between atoms: P_33  and  O_36 
DOCKED: USER                              x       y       z     vdW  Elec       q    Type
DOCKED: USER                           _______ _______ _______ _____ _____    ______ ____
DOCKED: ROOT
DOCKED: ATOM      1  C   UNL d   1      57.050  22.463   9.981 +0.00 +0.04    +0.194 C 
DOCKED: ATOM      2  C   UNL d   1      57.183  23.874   9.404 +0.01 +0.04    +0.194 C 
DOCKED: ATOM      3  C   UNL d   1      55.853  24.387   8.849 -0.00 +0.06    +0.194 C 
DOCKED: ATOM      4  C   UNL d   1      54.703  24.278   9.847 -0.02 +0.07    +0.194 C 
DOCKED: ATOM      5  C   UNL d   1      54.603  22.921  10.533 -0.02 +0.06    +0.194 C 
DOCKED: ATOM      6  C   UNL d   1      55.944  22.380  11.033 -0.00 +0.05    +0.194 C 
DOCKED: ENDROOT
DOCKED: BRANCH   1   7
DOCKED: ATOM      7  O   UNL d   1      58.280  22.128  10.628 +0.00 -0.05    -0.278 OA
DOCKED: BRANCH   7   8
DOCKED: ATOM      8  P   UNL d   1      59.490  21.596   9.730 +0.00 +0.07    +0.473 P 
DOCKED: ATOM      9  O   UNL d   1      59.301  20.235   9.159 +0.00 -0.03    -0.228 OA
DOCKED: BRANCH   8  10
DOCKED: ATOM     10  O   UNL d   1      59.670  22.725   8.617 +0.00 -0.05    -0.303 OA
DOCKED: ATOM     11  H   UNL d   1      59.292  23.564   8.938 +0.00 +0.04    +0.222 HD
DOCKED: ENDBRANCH   8  10
DOCKED: BRANCH   8  12
DOCKED: ATOM     12  O   UNL d   1      60.788  21.800  10.624 +0.00 -0.04    -0.303 OA
DOCKED: ATOM     13  H   UNL d   1      61.150  22.713  10.575 +0.00 +0.03    +0.222 HD
DOCKED: ENDBRANCH   8  12
DOCKED: ENDBRANCH   7   8
DOCKED: ENDBRANCH   1   7
DOCKED: BRANCH   2  14
DOCKED: ATOM     14  O   UNL d   1      57.619  24.763  10.440 +0.00 -0.05    -0.278 OA
DOCKED: BRANCH  14  15
DOCKED: ATOM     15  P   UNL d   1      58.941  25.617  10.141 +0.00 +0.08    +0.473 P 
DOCKED: ATOM     16  O   UNL d   1      59.071  26.926  10.855 +0.00 -0.03    -0.228 OA
DOCKED: BRANCH  15  17
DOCKED: ATOM     17  O   UNL d   1      60.133  24.613  10.471 +0.00 -0.04    -0.303 OA
DOCKED: ATOM     18  H   UNL d   1      59.804  23.701  10.588 +0.00 +0.03    +0.222 HD
DOCKED: ENDBRANCH  15  17
DOCKED: BRANCH  15  19
DOCKED: ATOM     19  O   UNL d   1      59.015  25.690   8.554 +0.00 -0.05    -0.303 OA
DOCKED: ATOM     20  H   UNL d   1      58.176  26.003   8.168 +0.00 +0.05    +0.222 HD
DOCKED: ENDBRANCH  15  19
DOCKED: ENDBRANCH  14  15
DOCKED: ENDBRANCH   2  14
DOCKED: BRANCH   6  21
DOCKED: ATOM     21  O   UNL d   1      55.747  20.998  11.325 -0.00 -0.06    -0.278 OA
DOCKED: BRANCH  21  22
DOCKED: ATOM     22  P   UNL d   1      56.592  20.306  12.488 +0.00 +0.09    +0.473 P 
DOCKED: ATOM     23  O   UNL d   1      57.181  21.178  13.545 +0.00 -0.04    -0.228 OA
DOCKED: BRANCH  22  24
DOCKED: ATOM     24  O   UNL d   1      55.572  19.207  13.021 -0.00 -0.06    -0.303 OA
DOCKED: ATOM     25  H   UNL d   1      54.665  19.605  13.026 +0.01 +0.06    +0.222 HD
DOCKED: ENDBRANCH  22  24
DOCKED: BRANCH  22  26
DOCKED: ATOM     26  O   UNL d   1      57.631  19.417  11.651 +0.00 -0.05    -0.303 OA
DOCKED: ATOM     27  H   UNL d   1      58.131  19.995  11.041 +0.00 +0.04    +0.222 HD
DOCKED: ENDBRANCH  22  26
DOCKED: ENDBRANCH  21  22
DOCKED: ENDBRANCH   6  21
DOCKED: BRANCH   3  28
DOCKED: ATOM     28  O   UNL d   1      56.002  25.779   8.597 -0.00 -0.09    -0.278 OA
DOCKED: BRANCH  28  29
DOCKED: ATOM     29  P   UNL d   1      56.047  26.324   7.101 -0.02 +0.23    +0.473 P 
DOCKED: ATOM     30  O   UNL d   1      55.964  27.800   6.955 -0.05 -0.10    -0.228 OA
DOCKED: BRANCH  29  31
DOCKED: ATOM     31  O   UNL d   1      57.387  25.617   6.586 -0.00 -0.11    -0.303 OA
DOCKED: ATOM     32  H   UNL d   1      58.143  26.230   6.737 +0.01 +0.06    +0.222 HD
DOCKED: ENDBRANCH  29  31
DOCKED: BRANCH  29  33
DOCKED: ATOM     33  O   UNL d   1      54.904  25.467   6.398 -0.63 -0.32    -0.303 OA
DOCKED: ATOM     34  H   UNL d   1      54.354  25.032   7.096 +0.04 +0.20    +0.222 HD
DOCKED: ENDBRANCH  29  33
DOCKED: ENDBRANCH  28  29
DOCKED: ENDBRANCH   3  28
DOCKED: BRANCH   5  35
DOCKED: ATOM     35  O   UNL d   1      53.779  23.126  11.679 -0.04 -0.10    -0.278 OA
DOCKED: BRANCH  35  36
DOCKED: ATOM     36  P   UNL d   1      53.121  21.883  12.430 -0.06 +0.20    +0.473 P 
DOCKED: ATOM     37  O   UNL d   1      51.671  22.026  12.765 -0.09 -0.16    -0.228 OA
DOCKED: BRANCH  36  38
DOCKED: ATOM     38  O   UNL d   1      53.447  20.688  11.429 -0.01 -0.10    -0.303 OA
DOCKED: ATOM     39  H   UNL d   1      54.107  20.092  11.843 +0.01 +0.06    +0.222 HD
DOCKED: ENDBRANCH  36  38
DOCKED: BRANCH  36  40
DOCKED: ATOM     40  O   UNL d   1      54.123  21.649  13.643 -0.02 -0.10    -0.303 OA
DOCKED: ATOM     41  H   UNL d   1      54.994  21.312  13.336 +0.01 +0.06    +0.222 HD
DOCKED: ENDBRANCH  36  40
DOCKED: ENDBRANCH  35  36
DOCKED: ENDBRANCH   5  35
DOCKED: BRANCH   4  42
DOCKED: ATOM     42  O   UNL d   1      53.492  24.466   9.107 -0.06 -0.13    -0.278 OA
DOCKED: BRANCH  42  43
DOCKED: ATOM     43  P   UNL d   1      52.782  25.894   9.140 -0.13 +0.24    +0.473 P 
DOCKED: ATOM     44  O   UNL d   1      51.317  25.926   9.408 -0.31 -0.12    -0.228 OA
DOCKED: BRANCH  43  45
DOCKED: ATOM     45  O   UNL d   1      53.655  26.694  10.203 -0.03 -0.10    -0.303 OA
DOCKED: ATOM     46  H   UNL d   1      54.573  26.821   9.889 +0.05 +0.06    +0.222 HD
DOCKED: ENDBRANCH  43  45
DOCKED: BRANCH  43  47
DOCKED: ATOM     47  O   UNL d   1      53.247  26.567   7.762 -0.28 -0.24    -0.303 OA
DOCKED: ATOM     48  H   UNL d   1      54.163  26.900   7.860 +0.06 +0.13    +0.222 HD
DOCKED: ENDBRANCH  43  47
DOCKED: ENDBRANCH  42  43
DOCKED: ENDBRANCH   4  42
DOCKED: TORSDOF 24
DOCKED: TER
DOCKED: ENDMDL
________________________________________________________________________________


	BEGINNING GENETIC ALGORITHM DOCKING 5 of 100
Run: 5 Seed: 319929439 858246003 [ Run 5 of 100 GA/GALS ]
Beginning LAMARCKIAN GENETIC ALGORITHM (LGA), with a maximum of 25000000 energy evaluations.

Final-Value: -17.850


	FINAL GENETIC ALGORITHM DOCKED STATE
	_______________________________________________


Detailed state:  trans 50.044 29.354 17.739 quatxyzw -0.461539 -0.244784 -0.616594 0.588961 center 0.035 0.082 -0.065 ntor 24 118.5287 83.8936 163.1783 12.7680 14.8855 -140.7667 -24.7768 100.0270 92.9252 115.0492 127.0069 100.8764 -31.3649 74.1421 -42.9691 164.5354 48.0209 87.1338 26.6234 -34.3042 159.2879 -33.9925 17.5404 -44.6354
State:	 50.044  29.354  17.739  -0.571 -0.303 -0.763 107.833    118.53   83.89  163.18   12.77   14.89 -140.77  -24.78  100.03   92.93  115.05  127.01  100.88  -31.36   74.14  -42.97  164.54   48.02   87.13   26.62  -34.30  159.29  -33.99   17.54  -44.64

DOCKED: MODEL        5
DOCKED: USER    Run = 5
DOCKED: USER    DPF = D:/Protein_go_brrr/autodock/final/2DN3/IHP/dock.dpf
DOCKED: USER  
DOCKED: USER    Estimated Free Energy of Binding    =   +4.68 kcal/mol  [=(1)+(2)+(3)-(4)]
DOCKED: USER    
DOCKED: USER    (1) Final Intermolecular Energy     =   -2.48 kcal/mol
DOCKED: USER        vdW + Hbond + desolv Energy     =   -2.27 kcal/mol
DOCKED: USER        Electrostatic Energy            =   -0.21 kcal/mol
DOCKED: USER    (2) Final Total Internal Energy     =  -15.37 kcal/mol
DOCKED: USER    (3) Torsional Free Energy           =   +7.16 kcal/mol
DOCKED: USER    (4) Unbound System's Energy  [=(2)] =  -15.37 kcal/mol
DOCKED: USER    
DOCKED: USER    
DOCKED: USER    NEWDPF move IHP_ideal_opt.pdbqt
DOCKED: USER    NEWDPF about 0.035000 0.082000 -0.065000
DOCKED: USER    NEWDPF tran0 50.043826 29.354090 17.739266
DOCKED: USER    NEWDPF quaternion0 -0.461539 -0.244784 -0.616594 0.588961
DOCKED: USER    NEWDPF axisangle0 -0.571097 -0.302890 -0.762958 107.833387
DOCKED: USER    NEWDPF quat0 -0.571097 -0.302890 -0.762958 107.833387
DOCKED: USER    NEWDPF dihe0 118.53 83.89 163.18 12.77 14.89 -140.77 -24.78 100.03 92.93 115.05 127.01 100.88 -31.36 74.14 -42.97 164.54 48.02 87.13 26.62 -34.30 159.29 -33.99 17.54 -44.64 
DOCKED: USER  keepresnum = 1 
DOCKED: USER  
DOCKED: REMARK  24 active torsions:
DOCKED: REMARK  status: ('A' for Active; 'I' for Inactive)
DOCKED: REMARK    1  A    between atoms: C_1  and  O_7 
DOCKED: REMARK    2  A    between atoms: C_2  and  O_12 
DOCKED: REMARK    3  A    between atoms: C_3  and  O_17 
DOCKED: REMARK    4  A    between atoms: C_4  and  O_22 
DOCKED: REMARK    5  A    between atoms: C_5  and  O_27 
DOCKED: REMARK    6  A    between atoms: C_6  and  O_32 
DOCKED: REMARK    7  A    between atoms: O_7  and  P_8 
DOCKED: REMARK    8  A    between atoms: P_8  and  O_10 
DOCKED: REMARK    9  A    between atoms: P_8  and  O_11 
DOCKED: REMARK   10  A    between atoms: O_12  and  P_13 
DOCKED: REMARK   11  A    between atoms: P_13  and  O_15 
DOCKED: REMARK   12  A    between atoms: P_13  and  O_16 
DOCKED: REMARK   13  A    between atoms: O_17  and  P_18 
DOCKED: REMARK   14  A    between atoms: P_18  and  O_20 
DOCKED: REMARK   15  A    between atoms: P_18  and  O_21 
DOCKED: REMARK   16  A    between atoms: O_22  and  P_23 
DOCKED: REMARK   17  A    between atoms: P_23  and  O_25 
DOCKED: REMARK   18  A    between atoms: P_23  and  O_26 
DOCKED: REMARK   19  A    between atoms: O_27  and  P_28 
DOCKED: REMARK   20  A    between atoms: P_28  and  O_30 
DOCKED: REMARK   21  A    between atoms: P_28  and  O_31 
DOCKED: REMARK   22  A    between atoms: O_32  and  P_33 
DOCKED: REMARK   23  A    between atoms: P_33  and  O_35 
DOCKED: REMARK   24  A    between atoms: P_33  and  O_36 
DOCKED: USER                              x       y       z     vdW  Elec       q    Type
DOCKED: USER                           _______ _______ _______ _____ _____    ______ ____
DOCKED: ROOT
DOCKED: ATOM      1  C   UNL d   1      51.317  30.522  17.700 -0.04 +0.04    +0.194 C 
DOCKED: ATOM      2  C   UNL d   1      51.253  29.572  16.502 -0.09 +0.05    +0.194 C 
DOCKED: ATOM      3  C   UNL d   1      50.985  28.130  16.936 -0.09 +0.06    +0.194 C 
DOCKED: ATOM      4  C   UNL d   1      49.767  27.992  17.847 -0.09 +0.07    +0.194 C 
DOCKED: ATOM      5  C   UNL d   1      49.732  28.997  18.991 -0.04 +0.07    +0.194 C 
DOCKED: ATOM      6  C   UNL d   1      50.060  30.430  18.567 -0.04 +0.05    +0.194 C 
DOCKED: ENDROOT
DOCKED: BRANCH   1   7
DOCKED: ATOM      7  O   UNL d   1      51.395  31.860  17.204 -0.02 -0.05    -0.278 OA
DOCKED: BRANCH   7   8
DOCKED: ATOM      8  P   UNL d   1      52.837  32.536  17.070 -0.01 +0.07    +0.473 P 
DOCKED: ATOM      9  O   UNL d   1      53.979  31.583  17.022 -0.01 -0.03    -0.228 OA
DOCKED: BRANCH   8  10
DOCKED: ATOM     10  O   UNL d   1      52.719  33.442  15.762 -0.04 -0.04    -0.303 OA
DOCKED: ATOM     11  H   UNL d   1      52.200  32.970  15.083 +0.04 +0.03    +0.222 HD
DOCKED: ENDBRANCH   8  10
DOCKED: BRANCH   8  12
DOCKED: ATOM     12  O   UNL d   1      52.890  33.626  18.225 -0.00 -0.04    -0.303 OA
DOCKED: ATOM     13  H   UNL d   1      52.464  33.325  19.059 +0.00 +0.03    +0.222 HD
DOCKED: ENDBRANCH   8  12
DOCKED: ENDBRANCH   7   8
DOCKED: ENDBRANCH   1   7
DOCKED: BRANCH   2  14
DOCKED: ATOM     14  O   UNL d   1      50.195  29.991  15.630 -0.15 -0.07    -0.278 OA
DOCKED: BRANCH  14  15
DOCKED: ATOM     15  P   UNL d   1      50.616  30.893  14.376 -0.19 +0.07    +0.473 P 
DOCKED: ATOM     16  O   UNL d   1      50.109  30.460  13.036 -0.31 -0.01    -0.228 OA
DOCKED: BRANCH  15  17
DOCKED: ATOM     17  O   UNL d   1      50.136  32.359  14.774 -0.15 -0.05    -0.303 OA
DOCKED: ATOM     18  H   UNL d   1      50.656  32.707  15.524 +0.06 +0.04    +0.222 HD
DOCKED: ENDBRANCH  15  17
DOCKED: BRANCH  15  19
DOCKED: ATOM     19  O   UNL d   1      52.196  31.030  14.498 -0.07 -0.04    -0.303 OA
DOCKED: ATOM     20  H   UNL d   1      52.469  31.261  15.406 +0.04 +0.03    +0.222 HD
DOCKED: ENDBRANCH  15  19
DOCKED: ENDBRANCH  14  15
DOCKED: ENDBRANCH   2  14
DOCKED: BRANCH   6  21
DOCKED: ATOM     21  O   UNL d   1      50.323  31.163  19.761 -0.01 -0.08    -0.278 OA
DOCKED: BRANCH  21  22
DOCKED: ATOM     22  P   UNL d   1      51.464  30.668  20.760 +0.01 +0.12    +0.473 P 
DOCKED: ATOM     23  O   UNL d   1      52.027  29.301  20.565 +0.00 -0.06    -0.228 OA
DOCKED: BRANCH  22  24
DOCKED: ATOM     24  O   UNL d   1      52.527  31.848  20.650 +0.00 -0.05    -0.303 OA
DOCKED: ATOM     25  H   UNL d   1      52.715  32.005  19.689 +0.00 +0.04    +0.222 HD
DOCKED: ENDBRANCH  22  24
DOCKED: BRANCH  22  26
DOCKED: ATOM     26  O   UNL d   1      50.796  30.957  22.188 -0.00 -0.10    -0.303 OA
DOCKED: ATOM     27  H   UNL d   1      49.868  30.644  22.178 +0.01 +0.10    +0.222 HD
DOCKED: ENDBRANCH  22  26
DOCKED: ENDBRANCH  21  22
DOCKED: ENDBRANCH   6  21
DOCKED: BRANCH   3  28
DOCKED: ATOM     28  O   UNL d   1      50.668  27.383  15.768 +0.02 -0.11    -0.278 OA
DOCKED: BRANCH  28  29
DOCKED: ATOM     29  P   UNL d   1      51.821  26.931  14.765 -0.03 +0.17    +0.473 P 
DOCKED: ATOM     30  O   UNL d   1      51.700  25.550  14.231 -0.16 -0.12    -0.228 OA
DOCKED: BRANCH  29  31
DOCKED: ATOM     31  O   UNL d   1      51.753  28.129  13.705 -0.11 -0.08    -0.303 OA
DOCKED: ATOM     32  H   UNL d   1      51.404  28.930  14.159 +0.07 +0.05    +0.222 HD
DOCKED: ENDBRANCH  29  31
DOCKED: BRANCH  29  33
DOCKED: ATOM     33  O   UNL d   1      53.137  27.270  15.595 -0.03 -0.08    -0.303 OA
DOCKED: ATOM     34  H   UNL d   1      53.889  26.739  15.234 +0.02 +0.06    +0.222 HD
DOCKED: ENDBRANCH  29  33
DOCKED: ENDBRANCH  28  29
DOCKED: ENDBRANCH   3  28
DOCKED: BRANCH   5  35
DOCKED: ATOM     35  O   UNL d   1      48.386  28.997  19.464 -0.04 -0.14    -0.278 OA
DOCKED: BRANCH  35  36
DOCKED: ATOM     36  P   UNL d   1      48.075  29.270  21.004 -0.04 +0.41    +0.473 P 
DOCKED: ATOM     37  O   UNL d   1      47.806  30.696  21.366 -0.17 -0.19    -0.228 OA
DOCKED: BRANCH  36  38
DOCKED: ATOM     38  O   UNL d   1      46.851  28.285  21.269 -0.49 -0.46    -0.303 OA
DOCKED: ATOM     39  H   UNL d   1      46.868  27.566  20.601 +0.05 +0.21    +0.222 HD
DOCKED: ENDBRANCH  36  38
DOCKED: BRANCH  36  40
DOCKED: ATOM     40  O   UNL d   1      49.300  28.560  21.729 -0.03 -0.19    -0.303 OA
DOCKED: ATOM     41  H   UNL d   1      50.132  29.073  21.623 +0.01 +0.10    +0.222 HD
DOCKED: ENDBRANCH  36  40
DOCKED: ENDBRANCH  35  36
DOCKED: ENDBRANCH   5  35
DOCKED: BRANCH   4  42
DOCKED: ATOM     42  O   UNL d   1      49.834  26.688  18.434 -0.05 -0.12    -0.278 OA
DOCKED: BRANCH  42  43
DOCKED: ATOM     43  P   UNL d   1      48.488  26.004  18.948 -0.04 +0.26    +0.473 P 
DOCKED: ATOM     44  O   UNL d   1      48.245  24.587  18.557 -0.08 -0.16    -0.228 OA
DOCKED: BRANCH  43  45
DOCKED: ATOM     45  O   UNL d   1      48.552  26.244  20.519 -0.00 -0.17    -0.303 OA
DOCKED: ATOM     46  H   UNL d   1      48.679  27.190  20.732 +0.02 +0.13    +0.222 HD
DOCKED: ENDBRANCH  43  45
DOCKED: BRANCH  43  47
DOCKED: ATOM     47  O   UNL d   1      47.354  27.047  18.505 -0.07 -0.16    -0.303 OA
DOCKED: ATOM     48  H   UNL d   1      47.323  27.783  19.151 +0.05 +0.12    +0.222 HD
DOCKED: ENDBRANCH  43  47
DOCKED: ENDBRANCH  42  43
DOCKED: ENDBRANCH   4  42
DOCKED: TORSDOF 24
DOCKED: TER
DOCKED: ENDMDL
________________________________________________________________________________


	BEGINNING GENETIC ALGORITHM DOCKING 6 of 100
Run: 6 Seed: 827562497 1943255493 [ Run 6 of 100 GA/GALS ]
Beginning LAMARCKIAN GENETIC ALGORITHM (LGA), with a maximum of 25000000 energy evaluations.

Final-Value: -17.864


	FINAL GENETIC ALGORITHM DOCKED STATE
	_______________________________________________


Detailed state:  trans 49.398 40.154 16.694 quatxyzw -0.731781 -0.396065 0.248064 -0.496078 center 0.035 0.082 -0.065 ntor 24 -25.4521 112.1617 -31.2925 135.1407 40.2863 179.3281 -84.6285 -22.0567 99.2870 -47.1211 37.2374 176.9692 -30.3490 54.1777 163.9404 -0.2199 -120.7916 140.4293 -15.0681 25.4087 -11.3839 -5.5048 -16.2368 -4.9780
State:	 49.398  40.154  16.694  -0.843 -0.456  0.286 -120.518    -25.45  112.16  -31.29  135.14   40.29  179.33  -84.63  -22.06   99.29  -47.12   37.24  176.97  -30.35   54.18  163.94   -0.22 -120.79  140.43  -15.07   25.41  -11.38   -5.50  -16.24   -4.98

DOCKED: MODEL        6
DOCKED: USER    Run = 6
DOCKED: USER    DPF = D:/Protein_go_brrr/autodock/final/2DN3/IHP/dock.dpf
DOCKED: USER  
DOCKED: USER    Estimated Free Energy of Binding    =   +3.53 kcal/mol  [=(1)+(2)+(3)-(4)]
DOCKED: USER    
DOCKED: USER    (1) Final Intermolecular Energy     =   -3.63 kcal/mol
DOCKED: USER        vdW + Hbond + desolv Energy     =   -3.56 kcal/mol
DOCKED: USER        Electrostatic Energy            =   -0.06 kcal/mol
DOCKED: USER    (2) Final Total Internal Energy     =  -14.24 kcal/mol
DOCKED: USER    (3) Torsional Free Energy           =   +7.16 kcal/mol
DOCKED: USER    (4) Unbound System's Energy  [=(2)] =  -14.24 kcal/mol
DOCKED: USER    
DOCKED: USER    
DOCKED: USER    NEWDPF move IHP_ideal_opt.pdbqt
DOCKED: USER    NEWDPF about 0.035000 0.082000 -0.065000
DOCKED: USER    NEWDPF tran0 49.397773 40.154150 16.694361
DOCKED: USER    NEWDPF quaternion0 -0.731781 -0.396065 0.248064 -0.496078
DOCKED: USER    NEWDPF axisangle0 -0.842796 -0.456149 0.285697 -120.518328
DOCKED: USER    NEWDPF quat0 -0.842796 -0.456149 0.285697 -120.518328
DOCKED: USER    NEWDPF dihe0 -25.45 112.16 -31.29 135.14 40.29 179.33 -84.63 -22.06 99.29 -47.12 37.24 176.97 -30.35 54.18 163.94 -0.22 -120.79 140.43 -15.07 25.41 -11.38 -5.50 -16.24 -4.98 
DOCKED: USER  keepresnum = 1 
DOCKED: USER  
DOCKED: REMARK  24 active torsions:
DOCKED: REMARK  status: ('A' for Active; 'I' for Inactive)
DOCKED: REMARK    1  A    between atoms: C_1  and  O_7 
DOCKED: REMARK    2  A    between atoms: C_2  and  O_12 
DOCKED: REMARK    3  A    between atoms: C_3  and  O_17 
DOCKED: REMARK    4  A    between atoms: C_4  and  O_22 
DOCKED: REMARK    5  A    between atoms: C_5  and  O_27 
DOCKED: REMARK    6  A    between atoms: C_6  and  O_32 
DOCKED: REMARK    7  A    between atoms: O_7  and  P_8 
DOCKED: REMARK    8  A    between atoms: P_8  and  O_10 
DOCKED: REMARK    9  A    between atoms: P_8  and  O_11 
DOCKED: REMARK   10  A    between atoms: O_12  and  P_13 
DOCKED: REMARK   11  A    between atoms: P_13  and  O_15 
DOCKED: REMARK   12  A    between atoms: P_13  and  O_16 
DOCKED: REMARK   13  A    between atoms: O_17  and  P_18 
DOCKED: REMARK   14  A    between atoms: P_18  and  O_20 
DOCKED: REMARK   15  A    between atoms: P_18  and  O_21 
DOCKED: REMARK   16  A    between atoms: O_22  and  P_23 
DOCKED: REMARK   17  A    between atoms: P_23  and  O_25 
DOCKED: REMARK   18  A    between atoms: P_23  and  O_26 
DOCKED: REMARK   19  A    between atoms: O_27  and  P_28 
DOCKED: REMARK   20  A    between atoms: P_28  and  O_30 
DOCKED: REMARK   21  A    between atoms: P_28  and  O_31 
DOCKED: REMARK   22  A    between atoms: O_32  and  P_33 
DOCKED: REMARK   23  A    between atoms: P_33  and  O_35 
DOCKED: REMARK   24  A    between atoms: P_33  and  O_36 
DOCKED: USER                              x       y       z     vdW  Elec       q    Type
DOCKED: USER                           _______ _______ _______ _____ _____    ______ ____
DOCKED: ROOT
DOCKED: ATOM      1  C   UNL d   1      49.209  41.780  17.247 -0.10 -0.01    +0.194 C 
DOCKED: ATOM      2  C   UNL d   1      48.517  40.710  18.093 -0.10 -0.00    +0.194 C 
DOCKED: ATOM      3  C   UNL d   1      47.812  39.668  17.223 -0.02 +0.00    +0.194 C 
DOCKED: ATOM      4  C   UNL d   1      48.720  39.062  16.156 -0.14 +0.00    +0.194 C 
DOCKED: ATOM      5  C   UNL d   1      49.518  40.089  15.363 -0.14 -0.01    +0.194 C 
DOCKED: ATOM      6  C   UNL d   1      50.172  41.167  16.229 -0.07 -0.00    +0.194 C 
DOCKED: ENDROOT
DOCKED: BRANCH   1   7
DOCKED: ATOM      7  O   UNL d   1      49.982  42.608  18.119 -0.02 +0.01    -0.278 OA
DOCKED: BRANCH   7   8
DOCKED: ATOM      8  P   UNL d   1      49.956  44.188  17.885 -0.03 -0.02    +0.473 P 
DOCKED: ATOM      9  O   UNL d   1      48.782  44.695  17.125 -0.13 +0.03    -0.228 OA
DOCKED: BRANCH   8  10
DOCKED: ATOM     10  O   UNL d   1      50.064  44.799  19.355 -0.01 +0.00    -0.303 OA
DOCKED: ATOM     11  H   UNL d   1      50.108  45.772  19.303 +0.02 +0.00    +0.222 HD
DOCKED: ENDBRANCH   8  10
DOCKED: BRANCH   8  12
DOCKED: ATOM     12  O   UNL d   1      51.381  44.538  17.275 -0.01 +0.01    -0.303 OA
DOCKED: ATOM     13  H   UNL d   1      51.519  44.163  16.376 +0.03 -0.01    +0.222 HD
DOCKED: ENDBRANCH   8  12
DOCKED: ENDBRANCH   7   8
DOCKED: ENDBRANCH   1   7
DOCKED: BRANCH   2  14
DOCKED: ATOM     14  O   UNL d   1      49.498  40.044  18.898 -0.01 -0.01    -0.278 OA
DOCKED: BRANCH  14  15
DOCKED: ATOM     15  P   UNL d   1      48.966  39.323  20.224 +0.01 +0.01    +0.473 P 
DOCKED: ATOM     16  O   UNL d   1      48.977  37.826  20.225 -0.01 -0.01    -0.228 OA
DOCKED: BRANCH  15  17
DOCKED: ATOM     17  O   UNL d   1      49.856  39.947  21.389 +0.00 -0.01    -0.303 OA
DOCKED: ATOM     18  H   UNL d   1      50.277  39.247  21.924 +0.00 +0.01    +0.222 HD
DOCKED: ENDBRANCH  15  17
DOCKED: BRANCH  15  19
DOCKED: ATOM     19  O   UNL d   1      47.553  39.998  20.504 -0.03 +0.01    -0.303 OA
DOCKED: ATOM     20  H   UNL d   1      46.869  39.670  19.892 +0.07 -0.00    +0.222 HD
DOCKED: ENDBRANCH  15  19
DOCKED: ENDBRANCH  14  15
DOCKED: ENDBRANCH   2  14
DOCKED: BRANCH   6  21
DOCKED: ATOM     21  O   UNL d   1      50.574  42.215  15.349 -0.05 +0.02    -0.278 OA
DOCKED: BRANCH  21  22
DOCKED: ATOM     22  P   UNL d   1      52.125  42.523  15.141 +0.02 -0.01    +0.473 P 
DOCKED: ATOM     23  O   UNL d   1      52.506  43.806  14.481 -0.02 +0.01    -0.228 OA
DOCKED: BRANCH  22  24
DOCKED: ATOM     24  O   UNL d   1      52.695  42.335  16.615 +0.00 -0.00    -0.303 OA
DOCKED: ATOM     25  H   UNL d   1      51.958  42.508  17.255 +0.02 +0.00    +0.222 HD
DOCKED: ENDBRANCH  22  24
DOCKED: BRANCH  22  26
DOCKED: ATOM     26  O   UNL d   1      52.628  41.184  14.417 -0.01 +0.01    -0.303 OA
DOCKED: ATOM     27  H   UNL d   1      51.858  40.609  14.234 +0.05 -0.01    +0.222 HD
DOCKED: ENDBRANCH  22  26
DOCKED: ENDBRANCH  21  22
DOCKED: ENDBRANCH   6  21
DOCKED: BRANCH   3  28
DOCKED: ATOM     28  O   UNL d   1      47.445  38.583  18.066 -0.08 -0.01    -0.278 OA
DOCKED: BRANCH  28  29
DOCKED: ATOM     29  P   UNL d   1      45.927  38.385  18.506 -0.17 +0.03    +0.473 P 
DOCKED: ATOM     30  O   UNL d   1      45.099  39.618  18.527 -0.29 -0.01    -0.228 OA
DOCKED: BRANCH  29  31
DOCKED: ATOM     31  O   UNL d   1      45.489  37.233  17.485 -0.21 -0.04    -0.303 OA
DOCKED: ATOM     32  H   UNL d   1      45.979  37.360  16.640 +0.12 +0.04    +0.222 HD
DOCKED: ENDBRANCH  29  31
DOCKED: BRANCH  29  33
DOCKED: ATOM     33  O   UNL d   1      46.078  37.596  19.881 -0.12 +0.00    -0.303 OA
DOCKED: ATOM     34  H   UNL d   1      46.868  37.942  20.365 +0.06 -0.00    +0.222 HD
DOCKED: ENDBRANCH  29  33
DOCKED: ENDBRANCH  28  29
DOCKED: ENDBRANCH   3  28
DOCKED: BRANCH   5  35
DOCKED: ATOM     35  O   UNL d   1      50.570  39.360  14.733 -0.08 +0.00    -0.278 OA
DOCKED: BRANCH  35  36
DOCKED: ATOM     36  P   UNL d   1      50.620  39.230  13.144 -0.18 -0.02    +0.473 P 
DOCKED: ATOM     37  O   UNL d   1      49.656  38.254  12.547 -0.93 -0.02    -0.228 OA
DOCKED: BRANCH  36  38
DOCKED: ATOM     38  O   UNL d   1      50.392  40.738  12.686 -0.19 +0.07    -0.303 OA
DOCKED: ATOM     39  H   UNL d   1      50.743  41.340  13.377 +0.08 -0.03    +0.222 HD
DOCKED: ENDBRANCH  36  38
DOCKED: BRANCH  36  40
DOCKED: ATOM     40  O   UNL d   1      52.166  38.976  12.872 -0.07 -0.00    -0.303 OA
DOCKED: ATOM     41  H   UNL d   1      52.659  39.819  12.760 +0.06 -0.01    +0.222 HD
DOCKED: ENDBRANCH  36  40
DOCKED: ENDBRANCH  35  36
DOCKED: ENDBRANCH   5  35
DOCKED: BRANCH   4  42
DOCKED: ATOM     42  O   UNL d   1      47.870  38.380  15.227 -0.18 +0.00    -0.278 OA
DOCKED: BRANCH  42  43
DOCKED: ATOM     43  P   UNL d   1      48.003  36.797  15.078 -0.25 +0.07    +0.473 P 
DOCKED: ATOM     44  O   UNL d   1      47.206  36.139  14.005 -0.51 -0.08    -0.228 OA
DOCKED: BRANCH  43  45
DOCKED: ATOM     45  O   UNL d   1      49.575  36.590  14.941 -0.03 -0.05    -0.303 OA
DOCKED: ATOM     46  H   UNL d   1      49.989  37.319  14.437 +0.08 +0.03    +0.222 HD
DOCKED: ENDBRANCH  43  45
DOCKED: BRANCH  43  47
DOCKED: ATOM     47  O   UNL d   1      47.732  36.266  16.566 -0.10 -0.04    -0.303 OA
DOCKED: ATOM     48  H   UNL d   1      47.627  37.032  17.168 +0.08 +0.02    +0.222 HD
DOCKED: ENDBRANCH  43  47
DOCKED: ENDBRANCH  42  43
DOCKED: ENDBRANCH   4  42
DOCKED: TORSDOF 24
DOCKED: TER
DOCKED: ENDMDL
________________________________________________________________________________


	BEGINNING GENETIC ALGORITHM DOCKING 7 of 100
Run: 7 Seed: 1590294877 1565226251 [ Run 7 of 100 GA/GALS ]
Beginning LAMARCKIAN GENETIC ALGORITHM (LGA), with a maximum of 25000000 energy evaluations.

Final-Value: -15.619


	FINAL GENETIC ALGORITHM DOCKED STATE
	_______________________________________________


Detailed state:  trans 54.232 21.020 2.833 quatxyzw -0.030947 0.920451 -0.307670 0.239062 center 0.035 0.082 -0.065 ntor 24 56.4273 93.5259 80.2449 76.4467 148.9346 115.3563 -84.8120 15.2468 76.9826 64.8248 108.7934 -100.7437 -30.6040 140.4852 104.4386 -8.5946 150.7049 100.2144 38.3395 -7.0340 -38.0677 4.4156 -7.9845 172.0206
State:	 54.232  21.020   2.833  -0.032  0.948 -0.317 152.338     56.43   93.53   80.24   76.45  148.93  115.36  -84.81   15.25   76.98   64.82  108.79 -100.74  -30.60  140.49  104.44   -8.59  150.70  100.21   38.34   -7.03  -38.07    4.42   -7.98  172.02

DOCKED: MODEL        7
DOCKED: USER    Run = 7
DOCKED: USER    DPF = D:/Protein_go_brrr/autodock/final/2DN3/IHP/dock.dpf
DOCKED: USER  
DOCKED: USER    Estimated Free Energy of Binding    =   +5.06 kcal/mol  [=(1)+(2)+(3)-(4)]
DOCKED: USER    
DOCKED: USER    (1) Final Intermolecular Energy     =   -2.10 kcal/mol
DOCKED: USER        vdW + Hbond + desolv Energy     =   -1.93 kcal/mol
DOCKED: USER        Electrostatic Energy            =   -0.17 kcal/mol
DOCKED: USER    (2) Final Total Internal Energy     =  -13.52 kcal/mol
DOCKED: USER    (3) Torsional Free Energy           =   +7.16 kcal/mol
DOCKED: USER    (4) Unbound System's Energy  [=(2)] =  -13.52 kcal/mol
DOCKED: USER    
DOCKED: USER    
DOCKED: USER    NEWDPF move IHP_ideal_opt.pdbqt
DOCKED: USER    NEWDPF about 0.035000 0.082000 -0.065000
DOCKED: USER    NEWDPF tran0 54.232455 21.019654 2.832540
DOCKED: USER    NEWDPF quaternion0 -0.030947 0.920451 -0.307670 0.239062
DOCKED: USER    NEWDPF axisangle0 -0.031871 0.947937 -0.316858 152.337588
DOCKED: USER    NEWDPF quat0 -0.031871 0.947937 -0.316858 152.337588
DOCKED: USER    NEWDPF dihe0 56.43 93.53 80.24 76.45 148.93 115.36 -84.81 15.25 76.98 64.82 108.79 -100.74 -30.60 140.49 104.44 -8.59 150.70 100.21 38.34 -7.03 -38.07 4.42 -7.98 172.02 
DOCKED: USER  keepresnum = 1 
DOCKED: USER  
DOCKED: REMARK  24 active torsions:
DOCKED: REMARK  status: ('A' for Active; 'I' for Inactive)
DOCKED: REMARK    1  A    between atoms: C_1  and  O_7 
DOCKED: REMARK    2  A    between atoms: C_2  and  O_12 
DOCKED: REMARK    3  A    between atoms: C_3  and  O_17 
DOCKED: REMARK    4  A    between atoms: C_4  and  O_22 
DOCKED: REMARK    5  A    between atoms: C_5  and  O_27 
DOCKED: REMARK    6  A    between atoms: C_6  and  O_32 
DOCKED: REMARK    7  A    between atoms: O_7  and  P_8 
DOCKED: REMARK    8  A    between atoms: P_8  and  O_10 
DOCKED: REMARK    9  A    between atoms: P_8  and  O_11 
DOCKED: REMARK   10  A    between atoms: O_12  and  P_13 
DOCKED: REMARK   11  A    between atoms: P_13  and  O_15 
DOCKED: REMARK   12  A    between atoms: P_13  and  O_16 
DOCKED: REMARK   13  A    between atoms: O_17  and  P_18 
DOCKED: REMARK   14  A    between atoms: P_18  and  O_20 
DOCKED: REMARK   15  A    between atoms: P_18  and  O_21 
DOCKED: REMARK   16  A    between atoms: O_22  and  P_23 
DOCKED: REMARK   17  A    between atoms: P_23  and  O_25 
DOCKED: REMARK   18  A    between atoms: P_23  and  O_26 
DOCKED: REMARK   19  A    between atoms: O_27  and  P_28 
DOCKED: REMARK   20  A    between atoms: P_28  and  O_30 
DOCKED: REMARK   21  A    between atoms: P_28  and  O_31 
DOCKED: REMARK   22  A    between atoms: O_32  and  P_33 
DOCKED: REMARK   23  A    between atoms: P_33  and  O_35 
DOCKED: REMARK   24  A    between atoms: P_33  and  O_36 
DOCKED: USER                              x       y       z     vdW  Elec       q    Type
DOCKED: USER                           _______ _______ _______ _____ _____    ______ ____
DOCKED: ROOT
DOCKED: ATOM      1  C   UNL d   1      52.973  19.955   3.347 +0.01 +0.08    +0.194 C 
DOCKED: ATOM      2  C   UNL d   1      54.396  19.406   3.474 +0.01 +0.06    +0.194 C 
DOCKED: ATOM      3  C   UNL d   1      55.240  19.730   2.240 +0.01 +0.05    +0.194 C 
DOCKED: ATOM      4  C   UNL d   1      55.223  21.211   1.871 +0.01 +0.06    +0.194 C 
DOCKED: ATOM      5  C   UNL d   1      53.831  21.828   1.845 -0.02 +0.09    +0.194 C 
DOCKED: ATOM      6  C   UNL d   1      52.965  21.455   3.049 -0.03 +0.11    +0.194 C 
DOCKED: ENDROOT
DOCKED: BRANCH   1   7
DOCKED: ATOM      7  O   UNL d   1      52.308  19.765   4.598 -0.00 -0.13    -0.278 OA
DOCKED: BRANCH   7   8
DOCKED: ATOM      8  P   UNL d   1      51.627  18.349   4.889 +0.01 +0.20    +0.473 P 
DOCKED: ATOM      9  O   UNL d   1      52.146  17.220   4.071 +0.00 -0.07    -0.228 OA
DOCKED: BRANCH   8  10
DOCKED: ATOM     10  O   UNL d   1      51.832  18.136   6.456 +0.00 -0.11    -0.303 OA
DOCKED: ATOM     11  H   UNL d   1      52.574  17.522   6.608 +0.01 +0.06    +0.222 HD
DOCKED: ENDBRANCH   8  10
DOCKED: BRANCH   8  12
DOCKED: ATOM     12  O   UNL d   1      50.064  18.616   4.791 -0.23 -0.24    -0.303 OA
DOCKED: ATOM     13  H   UNL d   1      49.808  19.116   3.983 +0.02 +0.22    +0.222 HD
DOCKED: ENDBRANCH   8  12
DOCKED: ENDBRANCH   7   8
DOCKED: ENDBRANCH   1   7
DOCKED: BRANCH   2  14
DOCKED: ATOM     14  O   UNL d   1      55.021  19.994   4.622 +0.00 -0.08    -0.278 OA
DOCKED: BRANCH  14  15
DOCKED: ATOM     15  P   UNL d   1      55.610  18.980   5.713 +0.00 +0.11    +0.473 P 
DOCKED: ATOM     16  O   UNL d   1      55.924  19.551   7.060 +0.00 -0.05    -0.228 OA
DOCKED: BRANCH  15  17
DOCKED: ATOM     17  O   UNL d   1      54.531  17.809   5.776 +0.00 -0.07    -0.303 OA
DOCKED: ATOM     18  H   UNL d   1      53.692  18.081   5.358 +0.00 +0.06    +0.222 HD
DOCKED: ENDBRANCH  15  17
DOCKED: BRANCH  15  19
DOCKED: ATOM     19  O   UNL d   1      56.820  18.260   4.974 +0.00 -0.05    -0.303 OA
DOCKED: ATOM     20  H   UNL d   1      57.097  18.748   4.177 +0.00 +0.04    +0.222 HD
DOCKED: ENDBRANCH  15  19
DOCKED: ENDBRANCH  14  15
DOCKED: ENDBRANCH   2  14
DOCKED: BRANCH   6  21
DOCKED: ATOM     21  O   UNL d   1      51.624  21.808   2.718 -0.06 -0.20    -0.278 OA
DOCKED: BRANCH  21  22
DOCKED: ATOM     22  P   UNL d   1      50.678  22.456   3.828 -0.16 +0.50    +0.473 P 
DOCKED: ATOM     23  O   UNL d   1      49.861  23.645   3.451 -0.76 -0.33    -0.228 OA
DOCKED: BRANCH  22  24
DOCKED: ATOM     24  O   UNL d   1      49.838  21.195   4.315 -0.06 -0.34    -0.303 OA
DOCKED: ATOM     25  H   UNL d   1      50.378  20.705   4.986 +0.06 +0.19    +0.222 HD
DOCKED: ENDBRANCH  22  24
DOCKED: BRANCH  22  26
DOCKED: ATOM     26  O   UNL d   1      51.701  22.663   5.046 -0.43 -0.33    -0.303 OA
DOCKED: ATOM     27  H   UNL d   1      52.083  21.797   5.295 +0.06 +0.16    +0.222 HD
DOCKED: ENDBRANCH  22  26
DOCKED: ENDBRANCH  21  22
DOCKED: ENDBRANCH   6  21
DOCKED: BRANCH   3  28
DOCKED: ATOM     28  O   UNL d   1      56.594  19.436   2.559 +0.00 -0.06    -0.278 OA
DOCKED: BRANCH  28  29
DOCKED: ATOM     29  P   UNL d   1      57.366  18.271   1.793 +0.00 +0.07    +0.473 P 
DOCKED: ATOM     30  O   UNL d   1      56.540  17.097   1.413 +0.00 -0.03    -0.228 OA
DOCKED: BRANCH  29  31
DOCKED: ATOM     31  O   UNL d   1      58.027  19.111   0.601 +0.00 -0.04    -0.303 OA
DOCKED: ATOM     32  H   UNL d   1      57.415  19.844   0.357 +0.00 +0.04    +0.222 HD
DOCKED: ENDBRANCH  29  31
DOCKED: BRANCH  29  33
DOCKED: ATOM     33  O   UNL d   1      58.603  17.999   2.759 +0.00 -0.04    -0.303 OA
DOCKED: ATOM     34  H   UNL d   1      58.285  17.510   3.557 +0.00 +0.03    +0.222 HD
DOCKED: ENDBRANCH  29  33
DOCKED: ENDBRANCH  28  29
DOCKED: ENDBRANCH   3  28
DOCKED: BRANCH   5  35
DOCKED: ATOM     35  O   UNL d   1      54.032  23.239   1.894 -0.07 -0.18    -0.278 OA
DOCKED: BRANCH  35  36
DOCKED: ATOM     36  P   UNL d   1      53.449  24.176   0.742 -0.09 +0.31    +0.473 P 
DOCKED: ATOM     37  O   UNL d   1      54.003  25.564   0.697 -0.14 -0.17    -0.228 OA
DOCKED: BRANCH  36  38
DOCKED: ATOM     38  O   UNL d   1      53.744  23.311  -0.562 -0.02 -0.11    -0.303 OA
DOCKED: ATOM     39  H   UNL d   1      54.084  22.430  -0.294 +0.02 +0.07    +0.222 HD
DOCKED: ENDBRANCH  36  38
DOCKED: BRANCH  36  40
DOCKED: ATOM     40  O   UNL d   1      51.879  24.032   0.949 -0.17 -0.26    -0.303 OA
DOCKED: ATOM     41  H   UNL d   1      51.656  23.758   1.866 +0.06 +0.24    +0.222 HD
DOCKED: ENDBRANCH  36  40
DOCKED: ENDBRANCH  35  36
DOCKED: ENDBRANCH   5  35
DOCKED: BRANCH   4  42
DOCKED: ATOM     42  O   UNL d   1      55.755  21.314   0.546 +0.00 -0.07    -0.278 OA
DOCKED: BRANCH  42  43
DOCKED: ATOM     43  P   UNL d   1      55.003  20.569  -0.647 +0.01 +0.10    +0.473 P 
DOCKED: ATOM     44  O   UNL d   1      55.018  21.225  -1.984 -0.00 -0.04    -0.228 OA
DOCKED: BRANCH  43  45
DOCKED: ATOM     45  O   UNL d   1      55.662  19.121  -0.625 +0.00 -0.05    -0.303 OA
DOCKED: ATOM     46  H   UNL d   1      55.862  18.833   0.288 +0.00 +0.04    +0.222 HD
DOCKED: ENDBRANCH  43  45
DOCKED: BRANCH  43  47
DOCKED: ATOM     47  O   UNL d   1      53.550  20.275  -0.037 +0.00 -0.08    -0.303 OA
DOCKED: ATOM     48  H   UNL d   1      53.016  21.096  -0.066 +0.02 +0.07    +0.222 HD
DOCKED: ENDBRANCH  43  47
DOCKED: ENDBRANCH  42  43
DOCKED: ENDBRANCH   4  42
DOCKED: TORSDOF 24
DOCKED: TER
DOCKED: ENDMDL
________________________________________________________________________________


	BEGINNING GENETIC ALGORITHM DOCKING 8 of 100
Run: 8 Seed: 106925891 2104661851 [ Run 8 of 100 GA/GALS ]
Beginning LAMARCKIAN GENETIC ALGORITHM (LGA), with a maximum of 25000000 energy evaluations.

Final-Value: -15.588


	FINAL GENETIC ALGORITHM DOCKED STATE
	_______________________________________________


Detailed state:  trans -0.608 46.659 11.020 quatxyzw -0.535513 -0.491084 -0.670944 0.147973 center 0.035 0.082 -0.065 ntor 24 -112.8786 -7.1885 -71.1687 124.4539 -96.6494 -180.0000 -8.5246 -65.3046 -7.7183 94.5656 75.7856 -115.3217 -142.6272 -34.9210 4.9981 -47.5321 -25.9444 124.3581 37.4095 -34.5491 -39.0282 7.5715 157.7549 1.3673
State:	 -0.608  46.659  11.020  -0.541 -0.497 -0.678 162.981   -112.88   -7.19  -71.17  124.45  -96.65 -180.00   -8.52  -65.30   -7.72   94.57   75.79 -115.32 -142.63  -34.92    5.00  -47.53  -25.94  124.36   37.41  -34.55  -39.03    7.57  157.75    1.37

DOCKED: MODEL        8
DOCKED: USER    Run = 8
DOCKED: USER    DPF = D:/Protein_go_brrr/autodock/final/2DN3/IHP/dock.dpf
DOCKED: USER  
DOCKED: USER    Estimated Free Energy of Binding    =   +4.76 kcal/mol  [=(1)+(2)+(3)-(4)]
DOCKED: USER    
DOCKED: USER    (1) Final Intermolecular Energy     =   -2.40 kcal/mol
DOCKED: USER        vdW + Hbond + desolv Energy     =   -2.53 kcal/mol
DOCKED: USER        Electrostatic Energy            =   +0.13 kcal/mol
DOCKED: USER    (2) Final Total Internal Energy     =  -13.19 kcal/mol
DOCKED: USER    (3) Torsional Free Energy           =   +7.16 kcal/mol
DOCKED: USER    (4) Unbound System's Energy  [=(2)] =  -13.19 kcal/mol
DOCKED: USER    
DOCKED: USER    
DOCKED: USER    NEWDPF move IHP_ideal_opt.pdbqt
DOCKED: USER    NEWDPF about 0.035000 0.082000 -0.065000
DOCKED: USER    NEWDPF tran0 -0.607775 46.658832 11.020211
DOCKED: USER    NEWDPF quaternion0 -0.535513 -0.491084 -0.670944 0.147973
DOCKED: USER    NEWDPF axisangle0 -0.541474 -0.496550 -0.678412 162.981083
DOCKED: USER    NEWDPF quat0 -0.541474 -0.496550 -0.678412 162.981083
DOCKED: USER    NEWDPF dihe0 -112.88 -7.19 -71.17 124.45 -96.65 -180.00 -8.52 -65.30 -7.72 94.57 75.79 -115.32 -142.63 -34.92 5.00 -47.53 -25.94 124.36 37.41 -34.55 -39.03 7.57 157.75 1.37 
DOCKED: USER  keepresnum = 1 
DOCKED: USER  
DOCKED: REMARK  24 active torsions:
DOCKED: REMARK  status: ('A' for Active; 'I' for Inactive)
DOCKED: REMARK    1  A    between atoms: C_1  and  O_7 
DOCKED: REMARK    2  A    between atoms: C_2  and  O_12 
DOCKED: REMARK    3  A    between atoms: C_3  and  O_17 
DOCKED: REMARK    4  A    between atoms: C_4  and  O_22 
DOCKED: REMARK    5  A    between atoms: C_5  and  O_27 
DOCKED: REMARK    6  A    between atoms: C_6  and  O_32 
DOCKED: REMARK    7  A    between atoms: O_7  and  P_8 
DOCKED: REMARK    8  A    between atoms: P_8  and  O_10 
DOCKED: REMARK    9  A    between atoms: P_8  and  O_11 
DOCKED: REMARK   10  A    between atoms: O_12  and  P_13 
DOCKED: REMARK   11  A    between atoms: P_13  and  O_15 
DOCKED: REMARK   12  A    between atoms: P_13  and  O_16 
DOCKED: REMARK   13  A    between atoms: O_17  and  P_18 
DOCKED: REMARK   14  A    between atoms: P_18  and  O_20 
DOCKED: REMARK   15  A    between atoms: P_18  and  O_21 
DOCKED: REMARK   16  A    between atoms: O_22  and  P_23 
DOCKED: REMARK   17  A    between atoms: P_23  and  O_25 
DOCKED: REMARK   18  A    between atoms: P_23  and  O_26 
DOCKED: REMARK   19  A    between atoms: O_27  and  P_28 
DOCKED: REMARK   20  A    between atoms: P_28  and  O_30 
DOCKED: REMARK   21  A    between atoms: P_28  and  O_31 
DOCKED: REMARK   22  A    between atoms: O_32  and  P_33 
DOCKED: REMARK   23  A    between atoms: P_33  and  O_35 
DOCKED: REMARK   24  A    between atoms: P_33  and  O_36 
DOCKED: USER                              x       y       z     vdW  Elec       q    Type
DOCKED: USER                           _______ _______ _______ _____ _____    ______ ____
DOCKED: ROOT
DOCKED: ATOM      1  C   UNL d   1      -0.695  48.383  10.968 -0.02 +0.07    +0.194 C 
DOCKED: ATOM      2  C   UNL d   1      -0.799  47.675   9.616 -0.02 +0.06    +0.194 C 
DOCKED: ATOM      3  C   UNL d   1       0.217  46.538   9.492 -0.09 +0.09    +0.194 C 
DOCKED: ATOM      4  C   UNL d   1       0.170  45.559  10.662 -0.11 +0.10    +0.194 C 
DOCKED: ATOM      5  C   UNL d   1       0.156  46.227  12.031 -0.09 +0.11    +0.194 C 
DOCKED: ATOM      6  C   UNL d   1      -0.816  47.403  12.136 -0.02 +0.07    +0.194 C 
DOCKED: ENDROOT
DOCKED: BRANCH   1   7
DOCKED: ATOM      7  O   UNL d   1      -1.780  49.308  11.073 +0.00 -0.05    -0.278 OA
DOCKED: BRANCH   7   8
DOCKED: ATOM      8  P   UNL d   1      -1.602  50.762  10.437 +0.01 +0.07    +0.473 P 
DOCKED: ATOM      9  O   UNL d   1      -1.058  51.793  11.363 +0.00 -0.03    -0.228 OA
DOCKED: BRANCH   8  10
DOCKED: ATOM     10  O   UNL d   1      -0.680  50.516   9.159 -0.00 -0.05    -0.303 OA
DOCKED: ATOM     11  H   UNL d   1      -1.240  50.321   8.385 +0.01 +0.03    +0.222 HD
DOCKED: ENDBRANCH   8  10
DOCKED: BRANCH   8  12
DOCKED: ATOM     12  O   UNL d   1      -3.007  51.098   9.774 +0.00 -0.03    -0.303 OA
DOCKED: ATOM     13  H   UNL d   1      -3.323  50.394   9.164 +0.00 +0.02    +0.222 HD
DOCKED: ENDBRANCH   8  12
DOCKED: ENDBRANCH   7   8
DOCKED: ENDBRANCH   1   7
DOCKED: BRANCH   2  14
DOCKED: ATOM     14  O   UNL d   1      -2.116  47.128   9.476 +0.00 -0.07    -0.278 OA
DOCKED: BRANCH  14  15
DOCKED: ATOM     15  P   UNL d   1      -3.171  48.003   8.648 +0.01 +0.08    +0.473 P 
DOCKED: ATOM     16  O   UNL d   1      -2.608  49.031   7.718 -0.00 -0.03    -0.228 OA
DOCKED: BRANCH  15  17
DOCKED: ATOM     17  O   UNL d   1      -4.070  46.921   7.901 +0.00 -0.05    -0.303 OA
DOCKED: ATOM     18  H   UNL d   1      -4.617  47.337   7.207 +0.00 +0.03    +0.222 HD
DOCKED: ENDBRANCH  15  17
DOCKED: BRANCH  15  19
DOCKED: ATOM     19  O   UNL d   1      -4.180  48.553   9.748 +0.00 -0.04    -0.303 OA
DOCKED: ATOM     20  H   UNL d   1      -3.738  49.157  10.373 +0.00 +0.03    +0.222 HD
DOCKED: ENDBRANCH  15  19
DOCKED: ENDBRANCH  14  15
DOCKED: ENDBRANCH   2  14
DOCKED: BRANCH   6  21
DOCKED: ATOM     21  O   UNL d   1      -0.471  48.119  13.320 -0.01 -0.10    -0.278 OA
DOCKED: BRANCH  21  22
DOCKED: ATOM     22  P   UNL d   1      -1.623  48.730  14.240 +0.01 +0.06    +0.473 P 
DOCKED: ATOM     23  O   UNL d   1      -2.900  47.970  14.369 +0.00 -0.02    -0.228 OA
DOCKED: BRANCH  22  24
DOCKED: ATOM     24  O   UNL d   1      -0.850  48.974  15.610 +0.01 -0.03    -0.303 OA
DOCKED: ATOM     25  H   UNL d   1      -1.523  49.087  16.328 +0.00 +0.01    +0.222 HD
DOCKED: ENDBRANCH  22  24
DOCKED: BRANCH  22  26
DOCKED: ATOM     26  O   UNL d   1      -1.747  50.219  13.660 +0.00 -0.04    -0.303 OA
DOCKED: ATOM     27  H   UNL d   1      -1.174  50.306  12.871 +0.00 +0.04    +0.222 HD
DOCKED: ENDBRANCH  22  26
DOCKED: ENDBRANCH  21  22
DOCKED: ENDBRANCH   6  21
DOCKED: BRANCH   3  28
DOCKED: ATOM     28  O   UNL d   1      -0.133  45.774   8.345 -0.05 -0.11    -0.278 OA
DOCKED: BRANCH  28  29
DOCKED: ATOM     29  P   UNL d   1       0.878  45.652   7.121 -0.13 +0.16    +0.473 P 
DOCKED: ATOM     30  O   UNL d   1       1.012  46.867   6.276 -0.19 -0.06    -0.228 OA
DOCKED: BRANCH  29  31
DOCKED: ATOM     31  O   UNL d   1       2.190  45.154   7.890 -0.29 -0.13    -0.303 OA
DOCKED: ATOM     32  H   UNL d   1       1.928  44.466   8.544 +0.11 +0.10    +0.222 HD
DOCKED: ENDBRANCH  29  31
DOCKED: BRANCH  29  33
DOCKED: ATOM     33  O   UNL d   1       0.370  44.327   6.399 -0.11 -0.13    -0.303 OA
DOCKED: ATOM     34  H   UNL d   1      -0.337  43.911   6.951 +0.07 +0.10    +0.222 HD
DOCKED: ENDBRANCH  29  33
DOCKED: ENDBRANCH  28  29
DOCKED: ENDBRANCH   3  28
DOCKED: BRANCH   5  35
DOCKED: ATOM     35  O   UNL d   1      -0.293  45.228  12.944 -0.09 -0.07    -0.278 OA
DOCKED: BRANCH  35  36
DOCKED: ATOM     36  P   UNL d   1      -1.818  44.758  12.937 -0.03 +0.04    +0.473 P 
DOCKED: ATOM     37  O   UNL d   1      -2.587  45.083  11.696 -0.01 -0.06    -0.228 OA
DOCKED: BRANCH  36  38
DOCKED: ATOM     38  O   UNL d   1      -1.680  43.199  13.232 -0.15 +0.07    -0.303 OA
DOCKED: ATOM     39  H   UNL d   1      -1.402  42.740  12.411 +0.04 +0.06    +0.222 HD
DOCKED: ENDBRANCH  36  38
DOCKED: BRANCH  36  40
DOCKED: ATOM     40  O   UNL d   1      -2.365  45.359  14.304 -0.01 +0.01    -0.303 OA
DOCKED: ATOM     41  H   UNL d   1      -2.181  46.322  14.378 +0.02 +0.01    +0.222 HD
DOCKED: ENDBRANCH  36  40
DOCKED: ENDBRANCH  35  36
DOCKED: ENDBRANCH   5  35
DOCKED: BRANCH   4  42
DOCKED: ATOM     42  O   UNL d   1       1.362  44.769  10.591 -0.11 -0.19    -0.278 OA
DOCKED: BRANCH  42  43
DOCKED: ATOM     43  P   UNL d   1       1.246  43.233  10.179 -0.21 +0.27    +0.473 P 
DOCKED: ATOM     44  O   UNL d   1       2.512  42.501   9.894 -0.46 -0.07    -0.228 OA
DOCKED: BRANCH  43  45
DOCKED: ATOM     45  O   UNL d   1       0.391  42.616  11.371 -0.63 -0.20    -0.303 OA
DOCKED: ATOM     46  H   UNL d   1       0.120  43.304  12.011 +0.08 +0.06    +0.222 HD
DOCKED: ENDBRANCH  43  45
DOCKED: BRANCH  43  47
DOCKED: ATOM     47  O   UNL d   1       0.175  43.252   8.987 -0.19 -0.24    -0.303 OA
DOCKED: ATOM     48  H   UNL d   1       0.539  43.764   8.235 +0.10 +0.12    +0.222 HD
DOCKED: ENDBRANCH  43  47
DOCKED: ENDBRANCH  42  43
DOCKED: ENDBRANCH   4  42
DOCKED: TORSDOF 24
DOCKED: TER
DOCKED: ENDMDL
________________________________________________________________________________


	BEGINNING GENETIC ALGORITHM DOCKING 9 of 100
Run: 9 Seed: 1073135777 2095591607 [ Run 9 of 100 GA/GALS ]
Beginning LAMARCKIAN GENETIC ALGORITHM (LGA), with a maximum of 25000000 energy evaluations.

Final-Value: -16.933


	FINAL GENETIC ALGORITHM DOCKED STATE
	_______________________________________________


Detailed state:  trans 23.135 49.473 1.015 quatxyzw -0.463456 -0.403791 0.207312 0.761041 center 0.035 0.082 -0.065 ntor 24 180.0000 1.0908 6.1166 43.8933 64.2050 -172.3738 -137.6982 39.7603 -7.8759 111.7421 -0.4034 180.0000 28.0997 -153.4719 125.9419 69.6188 -82.6098 160.8425 0.5371 -59.0788 -15.7375 153.5413 -179.9093 -173.8823
State:	 23.135  49.473   1.015  -0.714 -0.622  0.320 80.888    180.00    1.09    6.12   43.89   64.20 -172.37 -137.70   39.76   -7.88  111.74   -0.40  180.00   28.10 -153.47  125.94   69.62  -82.61  160.84    0.54  -59.08  -15.74  153.54 -179.91 -173.88

DOCKED: MODEL        9
DOCKED: USER    Run = 9
DOCKED: USER    DPF = D:/Protein_go_brrr/autodock/final/2DN3/IHP/dock.dpf
DOCKED: USER  
DOCKED: USER    Estimated Free Energy of Binding    =   +1.74 kcal/mol  [=(1)+(2)+(3)-(4)]
DOCKED: USER    
DOCKED: USER    (1) Final Intermolecular Energy     =   -5.42 kcal/mol
DOCKED: USER        vdW + Hbond + desolv Energy     =   -5.28 kcal/mol
DOCKED: USER        Electrostatic Energy            =   -0.15 kcal/mol
DOCKED: USER    (2) Final Total Internal Energy     =  -11.51 kcal/mol
DOCKED: USER    (3) Torsional Free Energy           =   +7.16 kcal/mol
DOCKED: USER    (4) Unbound System's Energy  [=(2)] =  -11.51 kcal/mol
DOCKED: USER    
DOCKED: USER    
DOCKED: USER    NEWDPF move IHP_ideal_opt.pdbqt
DOCKED: USER    NEWDPF about 0.035000 0.082000 -0.065000
DOCKED: USER    NEWDPF tran0 23.134977 49.472750 1.015389
DOCKED: USER    NEWDPF quaternion0 -0.463456 -0.403791 0.207312 0.761041
DOCKED: USER    NEWDPF axisangle0 -0.714433 -0.622458 0.319579 80.887902
DOCKED: USER    NEWDPF quat0 -0.714433 -0.622458 0.319579 80.887902
DOCKED: USER    NEWDPF dihe0 180.00 1.09 6.12 43.89 64.20 -172.37 -137.70 39.76 -7.88 111.74 -0.40 180.00 28.10 -153.47 125.94 69.62 -82.61 160.84 0.54 -59.08 -15.74 153.54 -179.91 -173.88 
DOCKED: USER  keepresnum = 1 
DOCKED: USER  
DOCKED: REMARK  24 active torsions:
DOCKED: REMARK  status: ('A' for Active; 'I' for Inactive)
DOCKED: REMARK    1  A    between atoms: C_1  and  O_7 
DOCKED: REMARK    2  A    between atoms: C_2  and  O_12 
DOCKED: REMARK    3  A    between atoms: C_3  and  O_17 
DOCKED: REMARK    4  A    between atoms: C_4  and  O_22 
DOCKED: REMARK    5  A    between atoms: C_5  and  O_27 
DOCKED: REMARK    6  A    between atoms: C_6  and  O_32 
DOCKED: REMARK    7  A    between atoms: O_7  and  P_8 
DOCKED: REMARK    8  A    between atoms: P_8  and  O_10 
DOCKED: REMARK    9  A    between atoms: P_8  and  O_11 
DOCKED: REMARK   10  A    between atoms: O_12  and  P_13 
DOCKED: REMARK   11  A    between atoms: P_13  and  O_15 
DOCKED: REMARK   12  A    between atoms: P_13  and  O_16 
DOCKED: REMARK   13  A    between atoms: O_17  and  P_18 
DOCKED: REMARK   14  A    between atoms: P_18  and  O_20 
DOCKED: REMARK   15  A    between atoms: P_18  and  O_21 
DOCKED: REMARK   16  A    between atoms: O_22  and  P_23 
DOCKED: REMARK   17  A    between atoms: P_23  and  O_25 
DOCKED: REMARK   18  A    between atoms: P_23  and  O_26 
DOCKED: REMARK   19  A    between atoms: O_27  and  P_28 
DOCKED: REMARK   20  A    between atoms: P_28  and  O_30 
DOCKED: REMARK   21  A    between atoms: P_28  and  O_31 
DOCKED: REMARK   22  A    between atoms: O_32  and  P_33 
DOCKED: REMARK   23  A    between atoms: P_33  and  O_35 
DOCKED: REMARK   24  A    between atoms: P_33  and  O_36 
DOCKED: USER                              x       y       z     vdW  Elec       q    Type
DOCKED: USER                           _______ _______ _______ _____ _____    ______ ____
DOCKED: ROOT
DOCKED: ATOM      1  C   UNL d   1      23.593  48.426  -0.280 -0.07 +0.03    +0.194 C 
DOCKED: ATOM      2  C   UNL d   1      22.149  48.285   0.204 -0.08 +0.02    +0.194 C 
DOCKED: ATOM      3  C   UNL d   1      22.059  48.307   1.732 -0.28 +0.01    +0.194 C 
DOCKED: ATOM      4  C   UNL d   1      22.763  49.507   2.358 -0.15 +0.01    +0.194 C 
DOCKED: ATOM      5  C   UNL d   1      24.167  49.754   1.820 -0.06 +0.02    +0.194 C 
DOCKED: ATOM      6  C   UNL d   1      24.269  49.671   0.296 -0.05 +0.02    +0.194 C 
DOCKED: ENDROOT
DOCKED: BRANCH   1   7
DOCKED: ATOM      7  O   UNL d   1      23.575  48.570  -1.702 -0.08 -0.02    -0.278 OA
DOCKED: BRANCH   7   8
DOCKED: ATOM      8  P   UNL d   1      24.383  47.510  -2.583 -0.05 +0.06    +0.473 P 
DOCKED: ATOM      9  O   UNL d   1      23.694  46.209  -2.795 -0.18 -0.03    -0.228 OA
DOCKED: BRANCH   8  10
DOCKED: ATOM     10  O   UNL d   1      24.687  48.289  -3.942 -0.02 -0.02    -0.303 OA
DOCKED: ATOM     11  H   UNL d   1      24.643  49.250  -3.785 +0.02 +0.01    +0.222 HD
DOCKED: ENDBRANCH   8  10
DOCKED: BRANCH   8  12
DOCKED: ATOM     12  O   UNL d   1      25.823  47.432  -1.916 -0.06 -0.05    -0.303 OA
DOCKED: ATOM     13  H   UNL d   1      26.190  48.315  -1.685 +0.03 +0.04    +0.222 HD
DOCKED: ENDBRANCH   8  12
DOCKED: ENDBRANCH   7   8
DOCKED: ENDBRANCH   1   7
DOCKED: BRANCH   2  14
DOCKED: ATOM     14  O   UNL d   1      21.374  49.373  -0.315 -0.34 +0.00    -0.278 OA
DOCKED: BRANCH  14  15
DOCKED: ATOM     15  P   UNL d   1      21.038  49.331  -1.880 -0.10 -0.05    +0.473 P 
DOCKED: ATOM     16  O   UNL d   1      21.918  50.143  -2.778 -0.05 +0.01    -0.228 OA
DOCKED: BRANCH  15  17
DOCKED: ATOM     17  O   UNL d   1      21.055  47.779  -2.237 -0.22 +0.04    -0.303 OA
DOCKED: ATOM     18  H   UNL d   1      21.948  47.489  -2.503 +0.07 -0.00    +0.222 HD
DOCKED: ENDBRANCH  15  17
DOCKED: BRANCH  15  19
DOCKED: ATOM     19  O   UNL d   1      19.484  49.661  -1.961 -0.03 +0.12    -0.303 OA
DOCKED: ATOM     20  H   UNL d   1      19.050  49.565  -1.093 -0.31 -0.12    +0.222 HD
DOCKED: ENDBRANCH  15  19
DOCKED: ENDBRANCH  14  15
DOCKED: ENDBRANCH   2  14
DOCKED: BRANCH   6  21
DOCKED: ATOM     21  O   UNL d   1      25.656  49.578  -0.020 -0.02 -0.04    -0.278 OA
DOCKED: BRANCH  21  22
DOCKED: ATOM     22  P   UNL d   1      26.348  50.721  -0.893 +0.00 +0.04    +0.473 P 
DOCKED: ATOM     23  O   UNL d   1      27.822  50.911  -0.764 -0.00 -0.03    -0.228 OA
DOCKED: BRANCH  22  24
DOCKED: ATOM     24  O   UNL d   1      25.847  50.359  -2.359 -0.00 -0.02    -0.303 OA
DOCKED: ATOM     25  H   UNL d   1      25.296  49.537  -2.303 +0.02 +0.02    +0.222 HD
DOCKED: ENDBRANCH  22  24
DOCKED: BRANCH  22  26
DOCKED: ATOM     26  O   UNL d   1      25.441  51.995  -0.538 -0.00 -0.01    -0.303 OA
DOCKED: ATOM     27  H   UNL d   1      24.887  51.788   0.242 +0.02 +0.01    +0.222 HD
DOCKED: ENDBRANCH  22  26
DOCKED: ENDBRANCH  21  22
DOCKED: ENDBRANCH   6  21
DOCKED: BRANCH   3  28
DOCKED: ATOM     28  O   UNL d   1      20.687  48.451   2.077 -0.41 -0.01    -0.278 OA
DOCKED: BRANCH  28  29
DOCKED: ATOM     29  P   UNL d   1      20.086  49.891   2.397 -0.35 -0.05    +0.473 P 
DOCKED: ATOM     30  O   UNL d   1      20.499  50.978   1.473 -0.31 +0.05    -0.228 OA
DOCKED: BRANCH  29  31
DOCKED: ATOM     31  O   UNL d   1      18.526  49.536   2.450 -0.32 +0.09    -0.303 OA
DOCKED: ATOM     32  H   UNL d   1      18.163  49.579   1.535 -0.31 -0.15    +0.222 HD
DOCKED: ENDBRANCH  29  31
DOCKED: BRANCH  29  33
DOCKED: ATOM     33  O   UNL d   1      20.457  50.074   3.935 -0.28 -0.00    -0.303 OA
DOCKED: ATOM     34  H   UNL d   1      21.271  50.629   4.005 +0.11 +0.01    +0.222 HD
DOCKED: ENDBRANCH  29  33
DOCKED: ENDBRANCH  28  29
DOCKED: ENDBRANCH   3  28
DOCKED: BRANCH   5  35
DOCKED: ATOM     35  O   UNL d   1      24.494  51.092   2.191 -0.02 -0.02    -0.278 OA
DOCKED: BRANCH  35  36
DOCKED: ATOM     36  P   UNL d   1      23.472  52.281   1.897 -0.03 -0.01    +0.473 P 
DOCKED: ATOM     37  O   UNL d   1      22.734  52.191   0.599 -0.07 +0.02    -0.228 OA
DOCKED: BRANCH  36  38
DOCKED: ATOM     38  O   UNL d   1      22.537  52.232   3.186 -0.14 +0.00    -0.303 OA
DOCKED: ATOM     39  H   UNL d   1      21.898  51.493   3.092 +0.09 -0.00    +0.222 HD
DOCKED: ENDBRANCH  36  38
DOCKED: BRANCH  36  40
DOCKED: ATOM     40  O   UNL d   1      24.374  53.570   2.128 -0.01 -0.00    -0.303 OA
DOCKED: ATOM     41  H   UNL d   1      25.049  53.673   1.420 +0.02 +0.00    +0.222 HD
DOCKED: ENDBRANCH  36  40
DOCKED: ENDBRANCH  35  36
DOCKED: ENDBRANCH   5  35
DOCKED: BRANCH   4  42
DOCKED: ATOM     42  O   UNL d   1      22.892  49.229   3.757 -0.16 -0.03    -0.278 OA
DOCKED: BRANCH  42  43
DOCKED: ATOM     43  P   UNL d   1      23.992  48.178   4.236 -0.16 +0.17    +0.473 P 
DOCKED: ATOM     44  O   UNL d   1      23.741  47.456   5.515 -0.27 -0.09    -0.228 OA
DOCKED: BRANCH  43  45
DOCKED: ATOM     45  O   UNL d   1      24.140  47.226   2.969 -0.28 -0.15    -0.303 OA
DOCKED: ATOM     46  H   UNL d   1      23.365  46.636   2.872 -0.35 +0.02    +0.222 HD
DOCKED: ENDBRANCH  43  45
DOCKED: BRANCH  43  47
DOCKED: ATOM     47  O   UNL d   1      25.355  49.019   4.172 -0.10 -0.11    -0.303 OA
DOCKED: ATOM     48  H   UNL d   1      25.161  49.923   3.850 +0.08 +0.04    +0.222 HD
DOCKED: ENDBRANCH  43  47
DOCKED: ENDBRANCH  42  43
DOCKED: ENDBRANCH   4  42
DOCKED: TORSDOF 24
DOCKED: TER
DOCKED: ENDMDL
________________________________________________________________________________


	BEGINNING GENETIC ALGORITHM DOCKING 10 of 100
Run: 10 Seed: 804952613 652784454 [ Run 10 of 100 GA/GALS ]
Beginning LAMARCKIAN GENETIC ALGORITHM (LGA), with a maximum of 25000000 energy evaluations.

Final-Value: -15.785


	FINAL GENETIC ALGORITHM DOCKED STATE
	_______________________________________________


Detailed state:  trans 3.898 18.732 -13.421 quatxyzw -0.801227 -0.106425 -0.551229 0.207017 center 0.035 0.082 -0.065 ntor 24 164.2757 75.8294 104.3618 -180.0000 -50.1705 77.9196 -92.0030 12.2261 20.2177 85.9839 127.9867 -178.3154 -66.7748 -133.6233 -155.3757 153.9641 -3.3615 137.2751 14.1038 -4.7881 -52.8151 26.9219 157.1515 -16.0451
State:	  3.898  18.732 -13.421  -0.819 -0.109 -0.563 156.105    164.28   75.83  104.36 -180.00  -50.17   77.92  -92.00   12.23   20.22   85.98  127.99 -178.32  -66.77 -133.62 -155.38  153.96   -3.36  137.28   14.10   -4.79  -52.82   26.92  157.15  -16.05

DOCKED: MODEL       10
DOCKED: USER    Run = 10
DOCKED: USER    DPF = D:/Protein_go_brrr/autodock/final/2DN3/IHP/dock.dpf
DOCKED: USER  
DOCKED: USER    Estimated Free Energy of Binding    =   +4.70 kcal/mol  [=(1)+(2)+(3)-(4)]
DOCKED: USER    
DOCKED: USER    (1) Final Intermolecular Energy     =   -2.46 kcal/mol
DOCKED: USER        vdW + Hbond + desolv Energy     =   -1.82 kcal/mol
DOCKED: USER        Electrostatic Energy            =   -0.64 kcal/mol
DOCKED: USER    (2) Final Total Internal Energy     =  -13.32 kcal/mol
DOCKED: USER    (3) Torsional Free Energy           =   +7.16 kcal/mol
DOCKED: USER    (4) Unbound System's Energy  [=(2)] =  -13.32 kcal/mol
DOCKED: USER    
DOCKED: USER    
DOCKED: USER    NEWDPF move IHP_ideal_opt.pdbqt
DOCKED: USER    NEWDPF about 0.035000 0.082000 -0.065000
DOCKED: USER    NEWDPF tran0 3.898232 18.732314 -13.420912
DOCKED: USER    NEWDPF quaternion0 -0.801227 -0.106425 -0.551229 0.207017
DOCKED: USER    NEWDPF axisangle0 -0.818968 -0.108781 -0.563434 156.104835
DOCKED: USER    NEWDPF quat0 -0.818968 -0.108781 -0.563434 156.104835
DOCKED: USER    NEWDPF dihe0 164.28 75.83 104.36 -180.00 -50.17 77.92 -92.00 12.23 20.22 85.98 127.99 -178.32 -66.77 -133.62 -155.38 153.96 -3.36 137.28 14.10 -4.79 -52.82 26.92 157.15 -16.05 
DOCKED: USER  keepresnum = 1 
DOCKED: USER  
DOCKED: REMARK  24 active torsions:
DOCKED: REMARK  status: ('A' for Active; 'I' for Inactive)
DOCKED: REMARK    1  A    between atoms: C_1  and  O_7 
DOCKED: REMARK    2  A    between atoms: C_2  and  O_12 
DOCKED: REMARK    3  A    between atoms: C_3  and  O_17 
DOCKED: REMARK    4  A    between atoms: C_4  and  O_22 
DOCKED: REMARK    5  A    between atoms: C_5  and  O_27 
DOCKED: REMARK    6  A    between atoms: C_6  and  O_32 
DOCKED: REMARK    7  A    between atoms: O_7  and  P_8 
DOCKED: REMARK    8  A    between atoms: P_8  and  O_10 
DOCKED: REMARK    9  A    between atoms: P_8  and  O_11 
DOCKED: REMARK   10  A    between atoms: O_12  and  P_13 
DOCKED: REMARK   11  A    between atoms: P_13  and  O_15 
DOCKED: REMARK   12  A    between atoms: P_13  and  O_16 
DOCKED: REMARK   13  A    between atoms: O_17  and  P_18 
DOCKED: REMARK   14  A    between atoms: P_18  and  O_20 
DOCKED: REMARK   15  A    between atoms: P_18  and  O_21 
DOCKED: REMARK   16  A    between atoms: O_22  and  P_23 
DOCKED: REMARK   17  A    between atoms: P_23  and  O_25 
DOCKED: REMARK   18  A    between atoms: P_23  and  O_26 
DOCKED: REMARK   19  A    between atoms: O_27  and  P_28 
DOCKED: REMARK   20  A    between atoms: P_28  and  O_30 
DOCKED: REMARK   21  A    between atoms: P_28  and  O_31 
DOCKED: REMARK   22  A    between atoms: O_32  and  P_33 
DOCKED: REMARK   23  A    between atoms: P_33  and  O_35 
DOCKED: REMARK   24  A    between atoms: P_33  and  O_36 
DOCKED: USER                              x       y       z     vdW  Elec       q    Type
DOCKED: USER                           _______ _______ _______ _____ _____    ______ ____
DOCKED: ROOT
DOCKED: ATOM      1  C   UNL d   1       5.146  19.854 -13.011 -0.00 +0.00    +0.194 C 
DOCKED: ATOM      2  C   UNL d   1       4.389  20.152 -14.306 +0.01 -0.00    +0.194 C 
DOCKED: ATOM      3  C   UNL d   1       4.163  18.886 -15.135 +0.01 +0.00    +0.194 C 
DOCKED: ATOM      4  C   UNL d   1       3.521  17.753 -14.338 +0.01 +0.00    +0.194 C 
DOCKED: ATOM      5  C   UNL d   1       4.174  17.497 -12.986 +0.01 +0.00    +0.194 C 
DOCKED: ATOM      6  C   UNL d   1       4.456  18.769 -12.184 +0.00 -0.00    +0.194 C 
DOCKED: ENDROOT
DOCKED: BRANCH   1   7
DOCKED: ATOM      7  O   UNL d   1       5.164  21.045 -12.220 -0.04 +0.03    -0.278 OA
DOCKED: BRANCH   7   8
DOCKED: ATOM      8  P   UNL d   1       6.545  21.834 -12.067 -0.07 +0.07    +0.473 P 
DOCKED: ATOM      9  O   UNL d   1       7.756  21.070 -12.471 -0.19 -0.15    -0.228 OA
DOCKED: BRANCH   8  10
DOCKED: ATOM     10  O   UNL d   1       6.327  23.164 -12.921 -0.05 +0.05    -0.303 OA
DOCKED: ATOM     11  H   UNL d   1       5.402  23.209 -13.225 +0.04 -0.03    +0.222 HD
DOCKED: ENDBRANCH   8  10
DOCKED: BRANCH   8  12
DOCKED: ATOM     12  O   UNL d   1       6.540  22.390 -10.579 -0.33 +0.01    -0.303 OA
DOCKED: ATOM     13  H   UNL d   1       6.046  21.813  -9.953 -0.49 -0.20    +0.222 HD
DOCKED: ENDBRANCH   8  12
DOCKED: ENDBRANCH   7   8
DOCKED: ENDBRANCH   1   7
DOCKED: BRANCH   2  14
DOCKED: ATOM     14  O   UNL d   1       3.113  20.719 -13.981 +0.00 +0.01    -0.278 OA
DOCKED: BRANCH  14  15
DOCKED: ATOM     15  P   UNL d   1       2.750  22.113 -14.681 +0.01 -0.01    +0.473 P 
DOCKED: ATOM     16  O   UNL d   1       3.382  23.340 -14.103 +0.00 +0.01    -0.228 OA
DOCKED: BRANCH  15  17
DOCKED: ATOM     17  O   UNL d   1       3.128  21.887 -16.213 +0.00 -0.00    -0.303 OA
DOCKED: ATOM     18  H   UNL d   1       3.350  20.952 -16.386 +0.00 +0.00    +0.222 HD
DOCKED: ENDBRANCH  15  17
DOCKED: BRANCH  15  19
DOCKED: ATOM     19  O   UNL d   1       1.161  22.124 -14.743 +0.00 +0.00    -0.303 OA
DOCKED: ATOM     20  H   UNL d   1       0.786  22.882 -14.257 +0.00 -0.00    +0.222 HD
DOCKED: ENDBRANCH  15  19
DOCKED: ENDBRANCH  14  15
DOCKED: ENDBRANCH   2  14
DOCKED: BRANCH   6  21
DOCKED: ATOM     21  O   UNL d   1       5.354  18.405 -11.138 -0.01 -0.03    -0.278 OA
DOCKED: BRANCH  21  22
DOCKED: ATOM     22  P   UNL d   1       5.404  19.273  -9.800 -0.05 -0.01    +0.473 P 
DOCKED: ATOM     23  O   UNL d   1       6.721  19.823  -9.365 -0.29 -0.24    -0.228 OA
DOCKED: BRANCH  22  24
DOCKED: ATOM     24  O   UNL d   1       4.283  20.368 -10.080 -0.00 +0.22    -0.303 OA
DOCKED: ATOM     25  H   UNL d   1       4.721  21.256 -10.111 -0.43 -0.33    +0.222 HD
DOCKED: ENDBRANCH  22  24
DOCKED: BRANCH  22  26
DOCKED: ATOM     26  O   UNL d   1       4.668  18.305  -8.756 -0.02 +0.02    -0.303 OA
DOCKED: ATOM     27  H   UNL d   1       3.724  18.559  -8.691 +0.02 -0.04    +0.222 HD
DOCKED: ENDBRANCH  22  26
DOCKED: ENDBRANCH  21  22
DOCKED: ENDBRANCH   6  21
DOCKED: BRANCH   3  28
DOCKED: ATOM     28  O   UNL d   1       3.229  19.205 -16.158 +0.00 -0.00    -0.278 OA
DOCKED: BRANCH  28  29
DOCKED: ATOM     29  P   UNL d   1       3.451  18.676 -17.644 +0.00 +0.01    +0.473 P 
DOCKED: ATOM     30  O   UNL d   1       2.297  17.965 -18.250 +0.00 -0.00    -0.228 OA
DOCKED: BRANCH  29  31
DOCKED: ATOM     31  O   UNL d   1       3.925  20.030 -18.354 +0.00 -0.01    -0.303 OA
DOCKED: ATOM     32  H   UNL d   1       3.380  20.773 -18.008 +0.00 +0.00    +0.222 HD
DOCKED: ENDBRANCH  29  31
DOCKED: BRANCH  29  33
DOCKED: ATOM     33  O   UNL d   1       4.810  17.857 -17.506 +0.00 -0.00    -0.303 OA
DOCKED: ATOM     34  H   UNL d   1       4.635  17.028 -16.996 +0.00 +0.00    +0.222 HD
DOCKED: ENDBRANCH  29  33
DOCKED: ENDBRANCH  28  29
DOCKED: ENDBRANCH   3  28
DOCKED: BRANCH   5  35
DOCKED: ATOM     35  O   UNL d   1       3.231  16.730 -12.240 +0.00 -0.00    -0.278 OA
DOCKED: BRANCH  35  36
DOCKED: ATOM     36  P   UNL d   1       1.903  17.413 -11.678 +0.01 -0.01    +0.473 P 
DOCKED: ATOM     37  O   UNL d   1       1.227  18.370 -12.608 +0.00 +0.01    -0.228 OA
DOCKED: BRANCH  36  38
DOCKED: ATOM     38  O   UNL d   1       1.022  16.144 -11.291 +0.00 +0.00    -0.303 OA
DOCKED: ATOM     39  H   UNL d   1       1.005  15.522 -12.050 +0.00 +0.00    +0.222 HD
DOCKED: ENDBRANCH  36  38
DOCKED: BRANCH  36  40
DOCKED: ATOM     40  O   UNL d   1       2.384  17.988 -10.275 +0.00 +0.03    -0.303 OA
DOCKED: ATOM     41  H   UNL d   1       3.257  18.434 -10.344 +0.01 -0.03    +0.222 HD
DOCKED: ENDBRANCH  36  40
DOCKED: ENDBRANCH  35  36
DOCKED: ENDBRANCH   5  35
DOCKED: BRANCH   4  42
DOCKED: ATOM     42  O   UNL d   1       3.677  16.560 -15.114 +0.00 -0.00    -0.278 OA
DOCKED: BRANCH  42  43
DOCKED: ATOM     43  P   UNL d   1       2.390  15.675 -15.437 +0.00 +0.01    +0.473 P 
DOCKED: ATOM     44  O   UNL d   1       2.600  14.406 -16.187 +0.00 -0.00    -0.228 OA
DOCKED: BRANCH  43  45
DOCKED: ATOM     45  O   UNL d   1       1.731  15.481 -14.001 +0.00 -0.00    -0.303 OA
DOCKED: ATOM     46  H   UNL d   1       1.566  16.340 -13.564 +0.00 +0.00    +0.222 HD
DOCKED: ENDBRANCH  43  45
DOCKED: BRANCH  43  47
DOCKED: ATOM     47  O   UNL d   1       1.386  16.723 -16.117 +0.00 -0.00    -0.303 OA
DOCKED: ATOM     48  H   UNL d   1       1.818  17.601 -16.163 +0.00 +0.00    +0.222 HD
DOCKED: ENDBRANCH  43  47
DOCKED: ENDBRANCH  42  43
DOCKED: ENDBRANCH   4  42
DOCKED: TORSDOF 24
DOCKED: TER
DOCKED: ENDMDL
________________________________________________________________________________


	BEGINNING GENETIC ALGORITHM DOCKING 11 of 100
Run: 11 Seed: 305567965 651980657 [ Run 11 of 100 GA/GALS ]
Beginning LAMARCKIAN GENETIC ALGORITHM (LGA), with a maximum of 25000000 energy evaluations.

Final-Value: -18.497


	FINAL GENETIC ALGORITHM DOCKED STATE
	_______________________________________________


Detailed state:  trans 40.672 53.283 15.170 quatxyzw 0.387404 0.503676 0.659740 -0.401213 center 0.035 0.082 -0.065 ntor 24 180.0000 0.0443 154.7454 3.6063 113.7200 135.9571 -123.6234 -14.1115 105.7051 -28.6188 -8.5097 -165.7373 -141.9929 72.1915 -136.3559 -160.8477 -145.7649 -51.8127 29.4712 -27.3144 -2.1625 -31.0776 -10.1118 -174.8786
State:	 40.672  53.283  15.170   0.423  0.550  0.720 -132.692    180.00    0.04  154.75    3.61  113.72  135.96 -123.62  -14.11  105.71  -28.62   -8.51 -165.74 -141.99   72.19 -136.36 -160.85 -145.76  -51.81   29.47  -27.31   -2.16  -31.08  -10.11 -174.88

DOCKED: MODEL       11
DOCKED: USER    Run = 11
DOCKED: USER    DPF = D:/Protein_go_brrr/autodock/final/2DN3/IHP/dock.dpf
DOCKED: USER  
DOCKED: USER    Estimated Free Energy of Binding    =   +2.52 kcal/mol  [=(1)+(2)+(3)-(4)]
DOCKED: USER    
DOCKED: USER    (1) Final Intermolecular Energy     =   -4.64 kcal/mol
DOCKED: USER        vdW + Hbond + desolv Energy     =   -4.40 kcal/mol
DOCKED: USER        Electrostatic Energy            =   -0.23 kcal/mol
DOCKED: USER    (2) Final Total Internal Energy     =  -13.86 kcal/mol
DOCKED: USER    (3) Torsional Free Energy           =   +7.16 kcal/mol
DOCKED: USER    (4) Unbound System's Energy  [=(2)] =  -13.86 kcal/mol
DOCKED: USER    
DOCKED: USER    
DOCKED: USER    NEWDPF move IHP_ideal_opt.pdbqt
DOCKED: USER    NEWDPF about 0.035000 0.082000 -0.065000
DOCKED: USER    NEWDPF tran0 40.671908 53.282986 15.169535
DOCKED: USER    NEWDPF quaternion0 0.387404 0.503676 0.659740 -0.401213
DOCKED: USER    NEWDPF axisangle0 0.422937 0.549873 0.720252 -132.691979
DOCKED: USER    NEWDPF quat0 0.422937 0.549873 0.720252 -132.691979
DOCKED: USER    NEWDPF dihe0 180.00 0.04 154.75 3.61 113.72 135.96 -123.62 -14.11 105.71 -28.62 -8.51 -165.74 -141.99 72.19 -136.36 -160.85 -145.76 -51.81 29.47 -27.31 -2.16 -31.08 -10.11 -174.88 
DOCKED: USER  keepresnum = 1 
DOCKED: USER  
DOCKED: REMARK  24 active torsions:
DOCKED: REMARK  status: ('A' for Active; 'I' for Inactive)
DOCKED: REMARK    1  A    between atoms: C_1  and  O_7 
DOCKED: REMARK    2  A    between atoms: C_2  and  O_12 
DOCKED: REMARK    3  A    between atoms: C_3  and  O_17 
DOCKED: REMARK    4  A    between atoms: C_4  and  O_22 
DOCKED: REMARK    5  A    between atoms: C_5  and  O_27 
DOCKED: REMARK    6  A    between atoms: C_6  and  O_32 
DOCKED: REMARK    7  A    between atoms: O_7  and  P_8 
DOCKED: REMARK    8  A    between atoms: P_8  and  O_10 
DOCKED: REMARK    9  A    between atoms: P_8  and  O_11 
DOCKED: REMARK   10  A    between atoms: O_12  and  P_13 
DOCKED: REMARK   11  A    between atoms: P_13  and  O_15 
DOCKED: REMARK   12  A    between atoms: P_13  and  O_16 
DOCKED: REMARK   13  A    between atoms: O_17  and  P_18 
DOCKED: REMARK   14  A    between atoms: P_18  and  O_20 
DOCKED: REMARK   15  A    between atoms: P_18  and  O_21 
DOCKED: REMARK   16  A    between atoms: O_22  and  P_23 
DOCKED: REMARK   17  A    between atoms: P_23  and  O_25 
DOCKED: REMARK   18  A    between atoms: P_23  and  O_26 
DOCKED: REMARK   19  A    between atoms: O_27  and  P_28 
DOCKED: REMARK   20  A    between atoms: P_28  and  O_30 
DOCKED: REMARK   21  A    between atoms: P_28  and  O_31 
DOCKED: REMARK   22  A    between atoms: O_32  and  P_33 
DOCKED: REMARK   23  A    between atoms: P_33  and  O_35 
DOCKED: REMARK   24  A    between atoms: P_33  and  O_36 
DOCKED: USER                              x       y       z     vdW  Elec       q    Type
DOCKED: USER                           _______ _______ _______ _____ _____    ______ ____
DOCKED: ROOT
DOCKED: ATOM      1  C   UNL d   1      41.046  54.867  14.590 -0.04 +0.04    +0.194 C 
DOCKED: ATOM      2  C   UNL d   1      41.292  53.726  13.601 -0.08 +0.05    +0.194 C 
DOCKED: ATOM      3  C   UNL d   1      41.959  52.525  14.275 -0.16 +0.05    +0.194 C 
DOCKED: ATOM      4  C   UNL d   1      41.225  52.055  15.529 -0.21 +0.11    +0.194 C 
DOCKED: ATOM      5  C   UNL d   1      40.858  53.177  16.491 -0.11 +0.08    +0.194 C 
DOCKED: ATOM      6  C   UNL d   1      40.247  54.403  15.808 -0.07 +0.07    +0.194 C 
DOCKED: ENDROOT
DOCKED: BRANCH   1   7
DOCKED: ATOM      7  O   UNL d   1      40.272  55.870  13.929 -0.01 -0.05    -0.278 OA
DOCKED: BRANCH   7   8
DOCKED: ATOM      8  P   UNL d   1      41.041  57.072  13.210 +0.01 +0.04    +0.473 P 
DOCKED: ATOM      9  O   UNL d   1      41.288  58.264  14.066 -0.00 -0.02    -0.228 OA
DOCKED: BRANCH   8  10
DOCKED: ATOM     10  O   UNL d   1      42.381  56.402  12.664 +0.00 -0.01    -0.303 OA
DOCKED: ATOM     11  H   UNL d   1      42.253  55.439  12.576 +0.02 +0.00    +0.222 HD
DOCKED: ENDBRANCH   8  10
DOCKED: BRANCH   8  12
DOCKED: ATOM     12  O   UNL d   1      40.231  57.337  11.869 +0.00 -0.02    -0.303 OA
DOCKED: ATOM     13  H   UNL d   1      40.001  56.511  11.388 +0.03 +0.01    +0.222 HD
DOCKED: ENDBRANCH   8  12
DOCKED: ENDBRANCH   7   8
DOCKED: ENDBRANCH   1   7
DOCKED: BRANCH   2  14
DOCKED: ATOM     14  O   UNL d   1      40.036  53.303  13.055 -0.12 -0.14    -0.278 OA
DOCKED: BRANCH  14  15
DOCKED: ATOM     15  P   UNL d   1      39.713  53.770  11.557 -0.11 +0.06    +0.473 P 
DOCKED: ATOM     16  O   UNL d   1      39.317  52.700  10.590 -0.27 -0.01    -0.228 OA
DOCKED: BRANCH  15  17
DOCKED: ATOM     17  O   UNL d   1      38.592  54.888  11.734 -0.08 -0.08    -0.303 OA
DOCKED: ATOM     18  H   UNL d   1      38.913  55.624  12.290 +0.05 +0.04    +0.222 HD
DOCKED: ENDBRANCH  15  17
DOCKED: BRANCH  15  19
DOCKED: ATOM     19  O   UNL d   1      40.972  54.646  11.135 -0.06 +0.06    -0.303 OA
DOCKED: ATOM     20  H   UNL d   1      41.127  55.380  11.758 +0.03 -0.00    +0.222 HD
DOCKED: ENDBRANCH  15  19
DOCKED: ENDBRANCH  14  15
DOCKED: ENDBRANCH   2  14
DOCKED: BRANCH   6  21
DOCKED: ATOM     21  O   UNL d   1      40.281  55.464  16.760 -0.02 -0.06    -0.278 OA
DOCKED: BRANCH  21  22
DOCKED: ATOM     22  P   UNL d   1      38.939  55.908  17.499 -0.02 +0.09    +0.473 P 
DOCKED: ATOM     23  O   UNL d   1      38.301  57.193  17.090 -0.01 -0.03    -0.228 OA
DOCKED: BRANCH  22  24
DOCKED: ATOM     24  O   UNL d   1      38.024  54.620  17.314 -0.07 -0.10    -0.303 OA
DOCKED: ATOM     25  H   UNL d   1      38.560  53.823  17.560 +0.04 +0.09    +0.222 HD
DOCKED: ENDBRANCH  22  24
DOCKED: BRANCH  22  26
DOCKED: ATOM     26  O   UNL d   1      39.364  55.794  19.041 -0.01 -0.04    -0.303 OA
DOCKED: ATOM     27  H   UNL d   1      39.939  55.011  19.159 +0.01 +0.04    +0.222 HD
DOCKED: ENDBRANCH  22  26
DOCKED: ENDBRANCH  21  22
DOCKED: ENDBRANCH   6  21
DOCKED: BRANCH   3  28
DOCKED: ATOM     28  O   UNL d   1      41.894  51.433  13.368 -0.25 -0.08    -0.278 OA
DOCKED: BRANCH  28  29
DOCKED: ATOM     29  P   UNL d   1      42.929  51.325  12.162 -0.24 -0.03    +0.473 P 
DOCKED: ATOM     30  O   UNL d   1      42.868  50.067  11.375 -0.92 -0.04    -0.228 OA
DOCKED: BRANCH  29  31
DOCKED: ATOM     31  O   UNL d   1      42.597  52.685  11.386 -0.13 +0.13    -0.303 OA
DOCKED: ATOM     32  H   UNL d   1      41.721  52.589  10.946 -0.25 -0.21    +0.222 HD
DOCKED: ENDBRANCH  29  31
DOCKED: BRANCH  29  33
DOCKED: ATOM     33  O   UNL d   1      44.311  51.659  12.879 -0.13 +0.03    -0.303 OA
DOCKED: ATOM     34  H   UNL d   1      44.360  51.160  13.731 -0.22 -0.05    +0.222 HD
DOCKED: ENDBRANCH  29  33
DOCKED: ENDBRANCH  28  29
DOCKED: ENDBRANCH   3  28
DOCKED: BRANCH   5  35
DOCKED: ATOM     35  O   UNL d   1      39.860  52.636  17.354 -0.08 -0.15    -0.278 OA
DOCKED: BRANCH  35  36
DOCKED: ATOM     36  P   UNL d   1      40.105  52.575  18.929 -0.05 +0.13    +0.473 P 
DOCKED: ATOM     37  O   UNL d   1      40.502  51.238  19.468 -0.07 -0.06    -0.228 OA
DOCKED: BRANCH  36  38
DOCKED: ATOM     38  O   UNL d   1      41.198  53.715  19.133 -0.01 -0.05    -0.303 OA
DOCKED: ATOM     39  H   UNL d   1      41.016  54.450  18.509 +0.02 +0.04    +0.222 HD
DOCKED: ENDBRANCH  36  38
DOCKED: BRANCH  36  40
DOCKED: ATOM     40  O   UNL d   1      38.769  53.218  19.506 -0.05 -0.07    -0.303 OA
DOCKED: ATOM     41  H   UNL d   1      38.722  54.183  19.324 +0.03 +0.05    +0.222 HD
DOCKED: ENDBRANCH  36  40
DOCKED: ENDBRANCH  35  36
DOCKED: ENDBRANCH   5  35
DOCKED: BRANCH   4  42
DOCKED: ATOM     42  O   UNL d   1      42.116  51.177  16.226 -0.16 -0.07    -0.278 OA
DOCKED: BRANCH  42  43
DOCKED: ATOM     43  P   UNL d   1      43.356  51.802  17.011 -0.07 +0.04    +0.473 P 
DOCKED: ATOM     44  O   UNL d   1      43.600  53.263  16.859 -0.03 -0.02    -0.228 OA
DOCKED: BRANCH  43  45
DOCKED: ATOM     45  O   UNL d   1      43.090  51.338  18.509 -0.07 -0.04    -0.303 OA
DOCKED: ATOM     46  H   UNL d   1      42.447  51.923  18.956 +0.04 +0.03    +0.222 HD
DOCKED: ENDBRANCH  43  45
DOCKED: BRANCH  43  47
DOCKED: ATOM     47  O   UNL d   1      44.574  50.850  16.586 -0.06 +0.03    -0.303 OA
DOCKED: ATOM     48  H   UNL d   1      44.302  50.297  15.825 -0.44 -0.12    +0.222 HD
DOCKED: ENDBRANCH  43  47
DOCKED: ENDBRANCH  42  43
DOCKED: ENDBRANCH   4  42
DOCKED: TORSDOF 24
DOCKED: TER
DOCKED: ENDMDL
________________________________________________________________________________


	BEGINNING GENETIC ALGORITHM DOCKING 12 of 100
Run: 12 Seed: 1451729694 923907108 [ Run 12 of 100 GA/GALS ]
Beginning LAMARCKIAN GENETIC ALGORITHM (LGA), with a maximum of 25000000 energy evaluations.

Final-Value: -16.700


	FINAL GENETIC ALGORITHM DOCKED STATE
	_______________________________________________


Detailed state:  trans 28.161 58.325 2.996 quatxyzw -0.343967 0.552986 0.285516 -0.703117 center 0.035 0.082 -0.065 ntor 24 115.1362 77.8403 27.8869 146.6101 10.7420 -99.8338 -19.2846 -151.1980 108.2436 38.8306 112.4128 115.5922 174.3946 -24.2596 -48.8747 150.1243 114.6691 -120.2869 25.7879 -33.8372 179.9711 -49.6397 -9.8869 176.2575
State:	 28.161  58.325   2.996  -0.484  0.778  0.402 -90.645    115.14   77.84   27.89  146.61   10.74  -99.83  -19.28 -151.20  108.24   38.83  112.41  115.59  174.39  -24.26  -48.87  150.12  114.67 -120.29   25.79  -33.84  179.97  -49.64   -9.89  176.26

DOCKED: MODEL       12
DOCKED: USER    Run = 12
DOCKED: USER    DPF = D:/Protein_go_brrr/autodock/final/2DN3/IHP/dock.dpf
DOCKED: USER  
DOCKED: USER    Estimated Free Energy of Binding    =   +5.66 kcal/mol  [=(1)+(2)+(3)-(4)]
DOCKED: USER    
DOCKED: USER    (1) Final Intermolecular Energy     =   -1.50 kcal/mol
DOCKED: USER        vdW + Hbond + desolv Energy     =   -1.47 kcal/mol
DOCKED: USER        Electrostatic Energy            =   -0.03 kcal/mol
DOCKED: USER    (2) Final Total Internal Energy     =  -15.20 kcal/mol
DOCKED: USER    (3) Torsional Free Energy           =   +7.16 kcal/mol
DOCKED: USER    (4) Unbound System's Energy  [=(2)] =  -15.20 kcal/mol
DOCKED: USER    
DOCKED: USER    
DOCKED: USER    NEWDPF move IHP_ideal_opt.pdbqt
DOCKED: USER    NEWDPF about 0.035000 0.082000 -0.065000
DOCKED: USER    NEWDPF tran0 28.161368 58.325391 2.996226
DOCKED: USER    NEWDPF quaternion0 -0.343967 0.552986 0.285516 -0.703117
DOCKED: USER    NEWDPF axisangle0 -0.483729 0.777677 0.401528 -90.644760
DOCKED: USER    NEWDPF quat0 -0.483729 0.777677 0.401528 -90.644760
DOCKED: USER    NEWDPF dihe0 115.14 77.84 27.89 146.61 10.74 -99.83 -19.28 -151.20 108.24 38.83 112.41 115.59 174.39 -24.26 -48.87 150.12 114.67 -120.29 25.79 -33.84 179.97 -49.64 -9.89 176.26 
DOCKED: USER  keepresnum = 1 
DOCKED: USER  
DOCKED: REMARK  24 active torsions:
DOCKED: REMARK  status: ('A' for Active; 'I' for Inactive)
DOCKED: REMARK    1  A    between atoms: C_1  and  O_7 
DOCKED: REMARK    2  A    between atoms: C_2  and  O_12 
DOCKED: REMARK    3  A    between atoms: C_3  and  O_17 
DOCKED: REMARK    4  A    between atoms: C_4  and  O_22 
DOCKED: REMARK    5  A    between atoms: C_5  and  O_27 
DOCKED: REMARK    6  A    between atoms: C_6  and  O_32 
DOCKED: REMARK    7  A    between atoms: O_7  and  P_8 
DOCKED: REMARK    8  A    between atoms: P_8  and  O_10 
DOCKED: REMARK    9  A    between atoms: P_8  and  O_11 
DOCKED: REMARK   10  A    between atoms: O_12  and  P_13 
DOCKED: REMARK   11  A    between atoms: P_13  and  O_15 
DOCKED: REMARK   12  A    between atoms: P_13  and  O_16 
DOCKED: REMARK   13  A    between atoms: O_17  and  P_18 
DOCKED: REMARK   14  A    between atoms: P_18  and  O_20 
DOCKED: REMARK   15  A    between atoms: P_18  and  O_21 
DOCKED: REMARK   16  A    between atoms: O_22  and  P_23 
DOCKED: REMARK   17  A    between atoms: P_23  and  O_25 
DOCKED: REMARK   18  A    between atoms: P_23  and  O_26 
DOCKED: REMARK   19  A    between atoms: O_27  and  P_28 
DOCKED: REMARK   20  A    between atoms: P_28  and  O_30 
DOCKED: REMARK   21  A    between atoms: P_28  and  O_31 
DOCKED: REMARK   22  A    between atoms: O_32  and  P_33 
DOCKED: REMARK   23  A    between atoms: P_33  and  O_35 
DOCKED: REMARK   24  A    between atoms: P_33  and  O_36 
DOCKED: USER                              x       y       z     vdW  Elec       q    Type
DOCKED: USER                           _______ _______ _______ _____ _____    ______ ____
DOCKED: ROOT
DOCKED: ATOM      1  C   UNL d   1      29.598  58.451   2.045 -0.01 +0.01    +0.194 C 
DOCKED: ATOM      2  C   UNL d   1      29.731  57.647   3.340 -0.04 +0.02    +0.194 C 
DOCKED: ATOM      3  C   UNL d   1      29.023  58.335   4.509 -0.03 +0.02    +0.194 C 
DOCKED: ATOM      4  C   UNL d   1      27.573  58.701   4.203 -0.01 +0.01    +0.194 C 
DOCKED: ATOM      5  C   UNL d   1      27.379  59.403   2.865 -0.00 +0.01    +0.194 C 
DOCKED: ATOM      6  C   UNL d   1      28.137  58.751   1.707 -0.00 +0.01    +0.194 C 
DOCKED: ENDROOT
DOCKED: BRANCH   1   7
DOCKED: ATOM      7  O   UNL d   1      30.130  57.666   0.976 -0.01 -0.02    -0.278 OA
DOCKED: BRANCH   7   8
DOCKED: ATOM      8  P   UNL d   1      31.638  57.928   0.518 -0.00 +0.04    +0.473 P 
DOCKED: ATOM      9  O   UNL d   1      31.843  58.025  -0.953 -0.00 -0.02    -0.228 OA
DOCKED: BRANCH   8  10
DOCKED: ATOM     10  O   UNL d   1      32.053  59.256   1.300 -0.01 -0.03    -0.303 OA
DOCKED: ATOM     11  H   UNL d   1      31.321  59.899   1.264 +0.01 +0.02    +0.222 HD
DOCKED: ENDBRANCH   8  10
DOCKED: BRANCH   8  12
DOCKED: ATOM     12  O   UNL d   1      32.495  56.820   1.267 -0.04 -0.04    -0.303 OA
DOCKED: ATOM     13  H   UNL d   1      32.007  55.975   1.393 +0.04 +0.04    +0.222 HD
DOCKED: ENDBRANCH   8  12
DOCKED: ENDBRANCH   7   8
DOCKED: ENDBRANCH   1   7
DOCKED: BRANCH   2  14
DOCKED: ATOM     14  O   UNL d   1      29.144  56.354   3.148 -0.03 -0.03    -0.278 OA
DOCKED: BRANCH  14  15
DOCKED: ATOM     15  P   UNL d   1      30.149  55.158   2.794 -0.07 +0.09    +0.473 P 
DOCKED: ATOM     16  O   UNL d   1      31.529  55.248   3.365 -0.08 -0.08    -0.228 OA
DOCKED: BRANCH  15  17
DOCKED: ATOM     17  O   UNL d   1      29.372  53.848   3.261 -0.09 -0.07    -0.303 OA
DOCKED: ATOM     18  H   UNL d   1      29.286  53.818   4.233 +0.07 +0.07    +0.222 HD
DOCKED: ENDBRANCH  15  17
DOCKED: BRANCH  15  19
DOCKED: ATOM     19  O   UNL d   1      30.069  55.029   1.210 -0.03 -0.04    -0.303 OA
DOCKED: ATOM     20  H   UNL d   1      30.696  55.630   0.767 +0.03 +0.03    +0.222 HD
DOCKED: ENDBRANCH  15  19
DOCKED: ENDBRANCH  14  15
DOCKED: ENDBRANCH   2  14
DOCKED: BRANCH   6  21
DOCKED: ATOM     21  O   UNL d   1      28.140  59.690   0.635 +0.00 -0.01    -0.278 OA
DOCKED: BRANCH  21  22
DOCKED: ATOM     22  P   UNL d   1      29.145  60.928   0.669 +0.00 +0.02    +0.473 P 
DOCKED: ATOM     23  O   UNL d   1      29.746  61.312   1.979 -0.00 -0.01    -0.228 OA
DOCKED: BRANCH  22  24
DOCKED: ATOM     24  O   UNL d   1      30.198  60.523  -0.454 -0.00 -0.01    -0.303 OA
DOCKED: ATOM     25  H   UNL d   1      30.560  59.628  -0.229 +0.00 +0.01    +0.222 HD
DOCKED: ENDBRANCH  22  24
DOCKED: BRANCH  22  26
DOCKED: ATOM     26  O   UNL d   1      28.290  62.063  -0.072 +0.00 -0.01    -0.303 OA
DOCKED: ATOM     27  H   UNL d   1      27.719  62.514   0.582 +0.00 +0.01    +0.222 HD
DOCKED: ENDBRANCH  22  26
DOCKED: ENDBRANCH  21  22
DOCKED: ENDBRANCH   6  21
DOCKED: BRANCH   3  28
DOCKED: ATOM     28  O   UNL d   1      28.959  57.402   5.580 -0.06 -0.03    -0.278 OA
DOCKED: BRANCH  28  29
DOCKED: ATOM     29  P   UNL d   1      30.296  56.817   6.218 -0.12 +0.12    +0.473 P 
DOCKED: ATOM     30  O   UNL d   1      30.441  57.006   7.684 -0.17 -0.05    -0.228 OA
DOCKED: BRANCH  29  31
DOCKED: ATOM     31  O   UNL d   1      30.224  55.310   5.684 -0.76 -0.13    -0.303 OA
DOCKED: ATOM     32  H   UNL d   1      29.785  55.310   4.802 +0.06 +0.06    +0.222 HD
DOCKED: ENDBRANCH  29  31
DOCKED: BRANCH  29  33
DOCKED: ATOM     33  O   UNL d   1      31.419  57.464   5.294 -0.16 -0.07    -0.303 OA
DOCKED: ATOM     34  H   UNL d   1      31.621  56.843   4.552 +0.05 +0.06    +0.222 HD
DOCKED: ENDBRANCH  29  33
DOCKED: ENDBRANCH  28  29
DOCKED: ENDBRANCH   3  28
DOCKED: BRANCH   5  35
DOCKED: ATOM     35  O   UNL d   1      25.988  59.296   2.570 -0.00 -0.01    -0.278 OA
DOCKED: BRANCH  35  36
DOCKED: ATOM     36  P   UNL d   1      25.105  60.609   2.368 -0.00 +0.00    +0.473 P 
DOCKED: ATOM     37  O   UNL d   1      23.832  60.419   1.605 -0.00 +0.00    -0.228 OA
DOCKED: BRANCH  36  38
DOCKED: ATOM     38  O   UNL d   1      24.901  61.099   3.869 -0.00 -0.00    -0.303 OA
DOCKED: ATOM     39  H   UNL d   1      25.730  60.947   4.372 +0.00 +0.00    +0.222 HD
DOCKED: ENDBRANCH  36  38
DOCKED: BRANCH  36  40
DOCKED: ATOM     40  O   UNL d   1      26.159  61.639   1.769 +0.00 -0.00    -0.303 OA
DOCKED: ATOM     41  H   UNL d   1      27.059  61.249   1.716 +0.00 +0.01    +0.222 HD
DOCKED: ENDBRANCH  36  40
DOCKED: ENDBRANCH  35  36
DOCKED: ENDBRANCH   5  35
DOCKED: BRANCH   4  42
DOCKED: ATOM     42  O   UNL d   1      27.151  59.613   5.222 -0.00 -0.01    -0.278 OA
DOCKED: BRANCH  42  43
DOCKED: ATOM     43  P   UNL d   1      27.849  61.044   5.313 +0.00 +0.02    +0.473 P 
DOCKED: ATOM     44  O   UNL d   1      29.231  61.101   5.867 -0.00 -0.01    -0.228 OA
DOCKED: BRANCH  43  45
DOCKED: ATOM     45  O   UNL d   1      27.722  61.589   3.824 +0.00 -0.01    -0.303 OA
DOCKED: ATOM     46  H   UNL d   1      26.857  61.359   3.430 +0.00 +0.01    +0.222 HD
DOCKED: ENDBRANCH  43  45
DOCKED: BRANCH  43  47
DOCKED: ATOM     47  O   UNL d   1      26.759  61.935   6.080 -0.00 -0.01    -0.303 OA
DOCKED: ATOM     48  H   UNL d   1      25.962  62.025   5.518 +0.00 +0.00    +0.222 HD
DOCKED: ENDBRANCH  43  47
DOCKED: ENDBRANCH  42  43
DOCKED: ENDBRANCH   4  42
DOCKED: TORSDOF 24
DOCKED: TER
DOCKED: ENDMDL
________________________________________________________________________________


	BEGINNING GENETIC ALGORITHM DOCKING 13 of 100
Run: 13 Seed: 398295060 765758410 [ Run 13 of 100 GA/GALS ]
Beginning LAMARCKIAN GENETIC ALGORITHM (LGA), with a maximum of 25000000 energy evaluations.

Final-Value: -17.804


	FINAL GENETIC ALGORITHM DOCKED STATE
	_______________________________________________


Detailed state:  trans 16.622 44.817 25.937 quatxyzw 0.497542 -0.230048 -0.685079 -0.479789 center 0.035 0.082 -0.065 ntor 24 -159.9146 97.3006 169.5164 -25.5074 142.4152 154.4447 -121.8127 -55.6753 39.7251 79.6023 157.1668 169.8828 -113.7997 -179.9333 -114.2086 -125.6205 127.4082 -138.9538 54.4029 11.0111 -1.8161 -6.5807 -13.5321 8.5036
State:	 16.622  44.817  25.937   0.567 -0.262 -0.781 -122.657   -159.91   97.30  169.52  -25.51  142.42  154.44 -121.81  -55.68   39.73   79.60  157.17  169.88 -113.80 -179.93 -114.21 -125.62  127.41 -138.95   54.40   11.01   -1.82   -6.58  -13.53    8.50

DOCKED: MODEL       13
DOCKED: USER    Run = 13
DOCKED: USER    DPF = D:/Protein_go_brrr/autodock/final/2DN3/IHP/dock.dpf
DOCKED: USER  
DOCKED: USER    Estimated Free Energy of Binding    =   +4.02 kcal/mol  [=(1)+(2)+(3)-(4)]
DOCKED: USER    
DOCKED: USER    (1) Final Intermolecular Energy     =   -3.14 kcal/mol
DOCKED: USER        vdW + Hbond + desolv Energy     =   -3.16 kcal/mol
DOCKED: USER        Electrostatic Energy            =   +0.02 kcal/mol
DOCKED: USER    (2) Final Total Internal Energy     =  -14.67 kcal/mol
DOCKED: USER    (3) Torsional Free Energy           =   +7.16 kcal/mol
DOCKED: USER    (4) Unbound System's Energy  [=(2)] =  -14.67 kcal/mol
DOCKED: USER    
DOCKED: USER    
DOCKED: USER    NEWDPF move IHP_ideal_opt.pdbqt
DOCKED: USER    NEWDPF about 0.035000 0.082000 -0.065000
DOCKED: USER    NEWDPF tran0 16.622245 44.816847 25.936770
DOCKED: USER    NEWDPF quaternion0 0.497542 -0.230048 -0.685079 -0.479789
DOCKED: USER    NEWDPF axisangle0 0.567074 -0.262197 -0.780820 -122.656808
DOCKED: USER    NEWDPF quat0 0.567074 -0.262197 -0.780820 -122.656808
DOCKED: USER    NEWDPF dihe0 -159.91 97.30 169.52 -25.51 142.42 154.44 -121.81 -55.68 39.73 79.60 157.17 169.88 -113.80 -179.93 -114.21 -125.62 127.41 -138.95 54.40 11.01 -1.82 -6.58 -13.53 8.50 
DOCKED: USER  keepresnum = 1 
DOCKED: USER  
DOCKED: REMARK  24 active torsions:
DOCKED: REMARK  status: ('A' for Active; 'I' for Inactive)
DOCKED: REMARK    1  A    between atoms: C_1  and  O_7 
DOCKED: REMARK    2  A    between atoms: C_2  and  O_12 
DOCKED: REMARK    3  A    between atoms: C_3  and  O_17 
DOCKED: REMARK    4  A    between atoms: C_4  and  O_22 
DOCKED: REMARK    5  A    between atoms: C_5  and  O_27 
DOCKED: REMARK    6  A    between atoms: C_6  and  O_32 
DOCKED: REMARK    7  A    between atoms: O_7  and  P_8 
DOCKED: REMARK    8  A    between atoms: P_8  and  O_10 
DOCKED: REMARK    9  A    between atoms: P_8  and  O_11 
DOCKED: REMARK   10  A    between atoms: O_12  and  P_13 
DOCKED: REMARK   11  A    between atoms: P_13  and  O_15 
DOCKED: REMARK   12  A    between atoms: P_13  and  O_16 
DOCKED: REMARK   13  A    between atoms: O_17  and  P_18 
DOCKED: REMARK   14  A    between atoms: P_18  and  O_20 
DOCKED: REMARK   15  A    between atoms: P_18  and  O_21 
DOCKED: REMARK   16  A    between atoms: O_22  and  P_23 
DOCKED: REMARK   17  A    between atoms: P_23  and  O_25 
DOCKED: REMARK   18  A    between atoms: P_23  and  O_26 
DOCKED: REMARK   19  A    between atoms: O_27  and  P_28 
DOCKED: REMARK   20  A    between atoms: P_28  and  O_30 
DOCKED: REMARK   21  A    between atoms: P_28  and  O_31 
DOCKED: REMARK   22  A    between atoms: O_32  and  P_33 
DOCKED: REMARK   23  A    between atoms: P_33  and  O_35 
DOCKED: REMARK   24  A    between atoms: P_33  and  O_36 
DOCKED: USER                              x       y       z     vdW  Elec       q    Type
DOCKED: USER                           _______ _______ _______ _____ _____    ______ ____
DOCKED: ROOT
DOCKED: ATOM      1  C   UNL d   1      15.472  43.963  24.971 -0.12 -0.03    +0.194 C 
DOCKED: ATOM      2  C   UNL d   1      15.516  45.478  24.762 -0.09 -0.02    +0.194 C 
DOCKED: ATOM      3  C   UNL d   1      15.618  46.231  26.090 -0.05 -0.01    +0.194 C 
DOCKED: ATOM      4  C   UNL d   1      16.760  45.737  26.975 -0.06 -0.01    +0.194 C 
DOCKED: ATOM      5  C   UNL d   1      16.823  44.221  27.119 -0.07 -0.01    +0.194 C 
DOCKED: ATOM      6  C   UNL d   1      16.659  43.467  25.797 -0.08 -0.02    +0.194 C 
DOCKED: ENDROOT
DOCKED: BRANCH   1   7
DOCKED: ATOM      7  O   UNL d   1      15.552  43.333  23.690 -0.21 +0.07    -0.278 OA
DOCKED: BRANCH   7   8
DOCKED: ATOM      8  P   UNL d   1      14.319  43.494  22.687 -0.21 -0.11    +0.473 P 
DOCKED: ATOM      9  O   UNL d   1      13.033  42.922  23.172 -0.17 +0.06    -0.228 OA
DOCKED: BRANCH   8  10
DOCKED: ATOM     10  O   UNL d   1      14.244  45.064  22.414 -0.08 +0.05    -0.303 OA
DOCKED: ATOM     11  H   UNL d   1      15.145  45.417  22.288 +0.08 -0.04    +0.222 HD
DOCKED: ENDBRANCH   8  10
DOCKED: BRANCH   8  12
DOCKED: ATOM     12  O   UNL d   1      14.844  42.938  21.295 -0.30 +0.09    -0.303 OA
DOCKED: ATOM     13  H   UNL d   1      15.238  42.039  21.362 -0.15 -0.11    +0.222 HD
DOCKED: ENDBRANCH   8  12
DOCKED: ENDBRANCH   7   8
DOCKED: ENDBRANCH   1   7
DOCKED: BRANCH   2  14
DOCKED: ATOM     14  O   UNL d   1      16.660  45.806  23.962 -0.14 +0.02    -0.278 OA
DOCKED: BRANCH  14  15
DOCKED: ATOM     15  P   UNL d   1      16.473  46.986  22.896 -0.15 -0.05    +0.473 P 
DOCKED: ATOM     16  O   UNL d   1      16.794  46.661  21.471 -0.30 +0.03    -0.228 OA
DOCKED: BRANCH  15  17
DOCKED: ATOM     17  O   UNL d   1      14.964  47.455  23.097 -0.03 +0.03    -0.303 OA
DOCKED: ATOM     18  H   UNL d   1      14.861  47.965  23.923 +0.03 -0.02    +0.222 HD
DOCKED: ENDBRANCH  15  17
DOCKED: BRANCH  15  19
DOCKED: ATOM     19  O   UNL d   1      17.274  48.212  23.517 -0.15 +0.02    -0.303 OA
DOCKED: ATOM     20  H   UNL d   1      16.727  48.717  24.147 +0.04 -0.01    +0.222 HD
DOCKED: ENDBRANCH  15  19
DOCKED: ENDBRANCH  14  15
DOCKED: ENDBRANCH   2  14
DOCKED: BRANCH   6  21
DOCKED: ATOM     21  O   UNL d   1      16.397  42.105  26.130 -0.11 +0.05    -0.278 OA
DOCKED: BRANCH  21  22
DOCKED: ATOM     22  P   UNL d   1      17.551  41.015  25.969 -0.16 -0.08    +0.473 P 
DOCKED: ATOM     23  O   UNL d   1      17.760  40.404  24.624 -0.38 +0.07    -0.228 OA
DOCKED: BRANCH  22  24
DOCKED: ATOM     24  O   UNL d   1      18.813  41.787  26.555 -0.16 +0.04    -0.303 OA
DOCKED: ATOM     25  H   UNL d   1      18.740  41.791  27.543 +0.08 -0.02    +0.222 HD
DOCKED: ENDBRANCH  22  24
DOCKED: BRANCH  22  26
DOCKED: ATOM     26  O   UNL d   1      17.204  39.997  27.158 -0.19 +0.02    -0.303 OA
DOCKED: ATOM     27  H   UNL d   1      16.634  40.449  27.813 +0.08 -0.02    +0.222 HD
DOCKED: ENDBRANCH  22  26
DOCKED: ENDBRANCH  21  22
DOCKED: ENDBRANCH   6  21
DOCKED: BRANCH   3  28
DOCKED: ATOM     28  O   UNL d   1      15.931  47.585  25.792 -0.03 +0.02    -0.278 OA
DOCKED: BRANCH  28  29
DOCKED: ATOM     29  P   UNL d   1      14.807  48.710  25.886 +0.00 -0.03    +0.473 P 
DOCKED: ATOM     30  O   UNL d   1      14.991  49.877  24.985 -0.01 +0.01    -0.228 OA
DOCKED: BRANCH  29  31
DOCKED: ATOM     31  O   UNL d   1      13.498  47.817  25.660 -0.00 +0.02    -0.303 OA
DOCKED: ATOM     32  H   UNL d   1      13.482  47.515  24.723 +0.01 -0.02    +0.222 HD
DOCKED: ENDBRANCH  29  31
DOCKED: BRANCH  29  33
DOCKED: ATOM     33  O   UNL d   1      14.764  49.008  27.450 -0.00 +0.01    -0.303 OA
DOCKED: ATOM     34  H   UNL d   1      15.462  48.471  27.899 +0.01 -0.01    +0.222 HD
DOCKED: ENDBRANCH  29  33
DOCKED: ENDBRANCH  28  29
DOCKED: ENDBRANCH   3  28
DOCKED: BRANCH   5  35
DOCKED: ATOM     35  O   UNL d   1      18.131  43.933  27.607 -0.07 +0.02    -0.278 OA
DOCKED: BRANCH  35  36
DOCKED: ATOM     36  P   UNL d   1      18.324  43.251  29.036 -0.01 -0.03    +0.473 P 
DOCKED: ATOM     37  O   UNL d   1      19.720  42.822  29.363 -0.04 +0.02    -0.228 OA
DOCKED: BRANCH  36  38
DOCKED: ATOM     38  O   UNL d   1      17.737  44.364  30.011 -0.01 +0.01    -0.303 OA
DOCKED: ATOM     39  H   UNL d   1      17.883  45.249  29.613 +0.01 -0.01    +0.222 HD
DOCKED: ENDBRANCH  36  38
DOCKED: BRANCH  36  40
DOCKED: ATOM     40  O   UNL d   1      17.205  42.121  29.027 -0.01 +0.02    -0.303 OA
DOCKED: ATOM     41  H   UNL d   1      17.116  41.703  28.141 +0.06 -0.02    +0.222 HD
DOCKED: ENDBRANCH  36  40
DOCKED: ENDBRANCH  35  36
DOCKED: ENDBRANCH   5  35
DOCKED: BRANCH   4  42
DOCKED: ATOM     42  O   UNL d   1      16.533  46.274  28.282 -0.01 +0.01    -0.278 OA
DOCKED: BRANCH  42  43
DOCKED: ATOM     43  P   UNL d   1      17.394  47.529  28.760 -0.00 -0.02    +0.473 P 
DOCKED: ATOM     44  O   UNL d   1      18.643  47.254  29.525 -0.01 +0.01    -0.228 OA
DOCKED: BRANCH  43  45
DOCKED: ATOM     45  O   UNL d   1      17.624  48.331  27.405 -0.02 +0.02    -0.303 OA
DOCKED: ATOM     46  H   UNL d   1      16.865  48.914  27.201 +0.02 -0.01    +0.222 HD
DOCKED: ENDBRANCH  43  45
DOCKED: BRANCH  43  47
DOCKED: ATOM     47  O   UNL d   1      16.316  48.451  29.506 -0.00 +0.01    -0.303 OA
DOCKED: ATOM     48  H   UNL d   1      15.416  48.109  29.322 +0.00 -0.01    +0.222 HD
DOCKED: ENDBRANCH  43  47
DOCKED: ENDBRANCH  42  43
DOCKED: ENDBRANCH   4  42
DOCKED: TORSDOF 24
DOCKED: TER
DOCKED: ENDMDL
________________________________________________________________________________


	BEGINNING GENETIC ALGORITHM DOCKING 14 of 100
Run: 14 Seed: 2061594176 913060572 [ Run 14 of 100 GA/GALS ]
Beginning LAMARCKIAN GENETIC ALGORITHM (LGA), with a maximum of 25000000 energy evaluations.

Final-Value: -16.797


	FINAL GENETIC ALGORITHM DOCKED STATE
	_______________________________________________


Detailed state:  trans 47.156 36.950 20.268 quatxyzw -0.214554 -0.633349 -0.036138 -0.742651 center 0.035 0.082 -0.065 ntor 24 130.4519 158.4971 57.9422 10.0509 171.9754 51.7186 -115.5785 12.8481 89.2537 22.8346 25.7664 -109.1474 -39.4575 -180.0000 178.3117 -136.3126 -132.2560 -72.2231 38.9623 -28.0441 41.1836 -41.6113 -55.4783 32.6847
State:	 47.156  36.950  20.268  -0.320 -0.946 -0.054 -84.085    130.45  158.50   57.94   10.05  171.98   51.72 -115.58   12.85   89.25   22.83   25.77 -109.15  -39.46 -180.00  178.31 -136.31 -132.26  -72.22   38.96  -28.04   41.18  -41.61  -55.48   32.68

DOCKED: MODEL       14
DOCKED: USER    Run = 14
DOCKED: USER    DPF = D:/Protein_go_brrr/autodock/final/2DN3/IHP/dock.dpf
DOCKED: USER  
DOCKED: USER    Estimated Free Energy of Binding    =   +3.39 kcal/mol  [=(1)+(2)+(3)-(4)]
DOCKED: USER    
DOCKED: USER    (1) Final Intermolecular Energy     =   -3.77 kcal/mol
DOCKED: USER        vdW + Hbond + desolv Energy     =   -3.51 kcal/mol
DOCKED: USER        Electrostatic Energy            =   -0.25 kcal/mol
DOCKED: USER    (2) Final Total Internal Energy     =  -13.03 kcal/mol
DOCKED: USER    (3) Torsional Free Energy           =   +7.16 kcal/mol
DOCKED: USER    (4) Unbound System's Energy  [=(2)] =  -13.03 kcal/mol
DOCKED: USER    
DOCKED: USER    
DOCKED: USER    NEWDPF move IHP_ideal_opt.pdbqt
DOCKED: USER    NEWDPF about 0.035000 0.082000 -0.065000
DOCKED: USER    NEWDPF tran0 47.155502 36.949936 20.267519
DOCKED: USER    NEWDPF quaternion0 -0.214554 -0.633349 -0.036138 -0.742651
DOCKED: USER    NEWDPF axisangle0 -0.320384 -0.945750 -0.053963 -84.084567
DOCKED: USER    NEWDPF quat0 -0.320384 -0.945750 -0.053963 -84.084567
DOCKED: USER    NEWDPF dihe0 130.45 158.50 57.94 10.05 171.98 51.72 -115.58 12.85 89.25 22.83 25.77 -109.15 -39.46 -180.00 178.31 -136.31 -132.26 -72.22 38.96 -28.04 41.18 -41.61 -55.48 32.68 
DOCKED: USER  keepresnum = 1 
DOCKED: USER  
DOCKED: REMARK  24 active torsions:
DOCKED: REMARK  status: ('A' for Active; 'I' for Inactive)
DOCKED: REMARK    1  A    between atoms: C_1  and  O_7 
DOCKED: REMARK    2  A    between atoms: C_2  and  O_12 
DOCKED: REMARK    3  A    between atoms: C_3  and  O_17 
DOCKED: REMARK    4  A    between atoms: C_4  and  O_22 
DOCKED: REMARK    5  A    between atoms: C_5  and  O_27 
DOCKED: REMARK    6  A    between atoms: C_6  and  O_32 
DOCKED: REMARK    7  A    between atoms: O_7  and  P_8 
DOCKED: REMARK    8  A    between atoms: P_8  and  O_10 
DOCKED: REMARK    9  A    between atoms: P_8  and  O_11 
DOCKED: REMARK   10  A    between atoms: O_12  and  P_13 
DOCKED: REMARK   11  A    between atoms: P_13  and  O_15 
DOCKED: REMARK   12  A    between atoms: P_13  and  O_16 
DOCKED: REMARK   13  A    between atoms: O_17  and  P_18 
DOCKED: REMARK   14  A    between atoms: P_18  and  O_20 
DOCKED: REMARK   15  A    between atoms: P_18  and  O_21 
DOCKED: REMARK   16  A    between atoms: O_22  and  P_23 
DOCKED: REMARK   17  A    between atoms: P_23  and  O_25 
DOCKED: REMARK   18  A    between atoms: P_23  and  O_26 
DOCKED: REMARK   19  A    between atoms: O_27  and  P_28 
DOCKED: REMARK   20  A    between atoms: P_28  and  O_30 
DOCKED: REMARK   21  A    between atoms: P_28  and  O_31 
DOCKED: REMARK   22  A    between atoms: O_32  and  P_33 
DOCKED: REMARK   23  A    between atoms: P_33  and  O_35 
DOCKED: REMARK   24  A    between atoms: P_33  and  O_36 
DOCKED: USER                              x       y       z     vdW  Elec       q    Type
DOCKED: USER                           _______ _______ _______ _____ _____    ______ ____
DOCKED: ROOT
DOCKED: ATOM      1  C   UNL d   1      46.379  36.708  21.792 -0.13 -0.03    +0.194 C 
DOCKED: ATOM      2  C   UNL d   1      46.215  35.573  20.779 -0.14 +0.01    +0.194 C 
DOCKED: ATOM      3  C   UNL d   1      45.923  36.105  19.374 -0.17 +0.01    +0.194 C 
DOCKED: ATOM      4  C   UNL d   1      46.929  37.155  18.908 -0.09 +0.01    +0.194 C 
DOCKED: ATOM      5  C   UNL d   1      47.209  38.245  19.934 -0.07 +0.00    +0.194 C 
DOCKED: ATOM      6  C   UNL d   1      47.441  37.716  21.351 -0.05 -0.01    +0.194 C 
DOCKED: ENDROOT
DOCKED: BRANCH   1   7
DOCKED: ATOM      7  O   UNL d   1      46.817  36.141  23.029 -0.08 +0.04    -0.278 OA
DOCKED: BRANCH   7   8
DOCKED: ATOM      8  P   UNL d   1      45.718  35.535  24.017 -0.06 -0.14    +0.473 P 
DOCKED: ATOM      9  O   UNL d   1      44.363  35.366  23.427 -0.29 +0.12    -0.228 OA
DOCKED: BRANCH   8  10
DOCKED: ATOM     10  O   UNL d   1      46.362  34.163  24.517 -0.11 -0.06    -0.303 OA
DOCKED: ATOM     11  H   UNL d   1      46.974  33.823  23.838 +0.05 +0.07    +0.222 HD
DOCKED: ENDBRANCH   8  10
DOCKED: BRANCH   8  12
DOCKED: ATOM     12  O   UNL d   1      45.798  36.435  25.325 -0.07 +0.15    -0.303 OA
DOCKED: ATOM     13  H   UNL d   1      44.987  36.972  25.473 -0.46 -0.28    +0.222 HD
DOCKED: ENDBRANCH   8  12
DOCKED: ENDBRANCH   7   8
DOCKED: ENDBRANCH   1   7
DOCKED: BRANCH   2  14
DOCKED: ATOM     14  O   UNL d   1      47.427  34.808  20.734 -0.03 -0.04    -0.278 OA
DOCKED: BRANCH  14  15
DOCKED: ATOM     15  P   UNL d   1      47.409  33.396  21.488 -0.06 +0.15    +0.473 P 
DOCKED: ATOM     16  O   UNL d   1      48.465  33.175  22.526 -0.04 -0.08    -0.228 OA
DOCKED: BRANCH  15  17
DOCKED: ATOM     17  O   UNL d   1      45.933  33.289  22.077 -0.05 -0.13    -0.303 OA
DOCKED: ATOM     18  H   UNL d   1      45.618  34.157  22.395 +0.08 +0.05    +0.222 HD
DOCKED: ENDBRANCH  15  17
DOCKED: BRANCH  15  19
DOCKED: ATOM     19  O   UNL d   1      47.364  32.321  20.316 -0.06 -0.12    -0.303 OA
DOCKED: ATOM     20  H   UNL d   1      46.665  32.525  19.667 +0.07 +0.08    +0.222 HD
DOCKED: ENDBRANCH  15  19
DOCKED: ENDBRANCH  14  15
DOCKED: ENDBRANCH   2  14
DOCKED: BRANCH   6  21
DOCKED: ATOM     21  O   UNL d   1      47.344  38.835  22.229 -0.04 +0.03    -0.278 OA
DOCKED: BRANCH  21  22
DOCKED: ATOM     22  P   UNL d   1      48.362  40.054  22.074 +0.01 -0.01    +0.473 P 
DOCKED: ATOM     23  O   UNL d   1      48.695  40.853  23.289 -0.00 +0.00    -0.228 OA
DOCKED: BRANCH  22  24
DOCKED: ATOM     24  O   UNL d   1      49.608  39.350  21.377 +0.00 -0.01    -0.303 OA
DOCKED: ATOM     25  H   UNL d   1      49.625  39.627  20.425 +0.01 +0.01    +0.222 HD
DOCKED: ENDBRANCH  22  24
DOCKED: BRANCH  22  26
DOCKED: ATOM     26  O   UNL d   1      47.714  40.866  20.854 -0.02 +0.01    -0.303 OA
DOCKED: ATOM     27  H   UNL d   1      48.373  40.945  20.134 +0.04 -0.00    +0.222 HD
DOCKED: ENDBRANCH  22  26
DOCKED: ENDBRANCH  21  22
DOCKED: ENDBRANCH   6  21
DOCKED: BRANCH   3  28
DOCKED: ATOM     28  O   UNL d   1      46.063  35.019  18.467 -0.11 -0.04    -0.278 OA
DOCKED: BRANCH  28  29
DOCKED: ATOM     29  P   UNL d   1      45.014  33.821  18.479 -0.14 +0.09    +0.473 P 
DOCKED: ATOM     30  O   UNL d   1      45.459  32.573  17.807 -0.05 -0.06    -0.228 OA
DOCKED: BRANCH  29  31
DOCKED: ATOM     31  O   UNL d   1      44.708  33.733  20.047 -0.18 -0.07    -0.303 OA
DOCKED: ATOM     32  H   UNL d   1      45.537  33.476  20.514 +0.08 +0.07    +0.222 HD
DOCKED: ENDBRANCH  29  31
DOCKED: BRANCH  29  33
DOCKED: ATOM     33  O   UNL d   1      43.703  34.519  17.904 -0.22 -0.04    -0.303 OA
DOCKED: ATOM     34  H   UNL d   1      43.827  34.689  16.938 +0.17 +0.04    +0.222 HD
DOCKED: ENDBRANCH  29  33
DOCKED: ENDBRANCH  28  29
DOCKED: ENDBRANCH   3  28
DOCKED: BRANCH   5  35
DOCKED: ATOM     35  O   UNL d   1      48.422  38.868  19.515 -0.02 -0.01    -0.278 OA
DOCKED: BRANCH  35  36
DOCKED: ATOM     36  P   UNL d   1      48.425  39.867  18.272 -0.04 +0.01    +0.473 P 
DOCKED: ATOM     37  O   UNL d   1      48.622  39.230  16.933 -0.10 -0.01    -0.228 OA
DOCKED: BRANCH  36  38
DOCKED: ATOM     38  O   UNL d   1      47.026  40.608  18.445 -0.12 +0.00    -0.303 OA
DOCKED: ATOM     39  H   UNL d   1      46.715  40.495  19.369 +0.07 -0.00    +0.222 HD
DOCKED: ENDBRANCH  36  38
DOCKED: BRANCH  36  40
DOCKED: ATOM     40  O   UNL d   1      49.493  40.959  18.716 -0.02 -0.00    -0.303 OA
DOCKED: ATOM     41  H   UNL d   1      49.649  40.942  19.686 +0.02 +0.00    +0.222 HD
DOCKED: ENDBRANCH  36  40
DOCKED: ENDBRANCH  35  36
DOCKED: ENDBRANCH   5  35
DOCKED: BRANCH   4  42
DOCKED: ATOM     42  O   UNL d   1      46.359  37.794  17.760 -0.14 -0.03    -0.278 OA
DOCKED: BRANCH  42  43
DOCKED: ATOM     43  P   UNL d   1      46.417  37.046  16.352 -0.20 +0.07    +0.473 P 
DOCKED: ATOM     44  O   UNL d   1      47.523  36.072  16.138 -0.18 -0.04    -0.228 OA
DOCKED: BRANCH  43  45
DOCKED: ATOM     45  O   UNL d   1      44.961  36.416  16.231 -0.18 -0.06    -0.303 OA
DOCKED: ATOM     46  H   UNL d   1      44.699  35.960  17.055 +0.12 +0.04    +0.222 HD
DOCKED: ENDBRANCH  43  45
DOCKED: BRANCH  43  47
DOCKED: ATOM     47  O   UNL d   1      46.341  38.249  15.295 -0.49 -0.05    -0.303 OA
DOCKED: ATOM     48  H   UNL d   1      47.176  38.760  15.327 -0.05 +0.00    +0.222 HD
DOCKED: ENDBRANCH  43  47
DOCKED: ENDBRANCH  42  43
DOCKED: ENDBRANCH   4  42
DOCKED: TORSDOF 24
DOCKED: TER
DOCKED: ENDMDL
________________________________________________________________________________


	BEGINNING GENETIC ALGORITHM DOCKING 15 of 100
Run: 15 Seed: 1727822030 2694249 [ Run 15 of 100 GA/GALS ]
Beginning LAMARCKIAN GENETIC ALGORITHM (LGA), with a maximum of 25000000 energy evaluations.

Final-Value: -16.911


	FINAL GENETIC ALGORITHM DOCKED STATE
	_______________________________________________


Detailed state:  trans 48.939 35.023 18.584 quatxyzw -0.712590 -0.626456 0.104559 0.298053 center 0.035 0.082 -0.065 ntor 24 -179.0348 -47.8368 96.4318 115.8672 116.4332 95.9183 47.8178 -85.3123 31.9300 74.5771 -53.2292 172.0696 -123.0654 98.9412 178.3469 -127.0568 -61.0834 10.5616 45.4203 -4.4354 13.1861 1.3764 173.1770 -179.9894
State:	 48.939  35.023  18.584  -0.747 -0.656  0.110 145.319   -179.03  -47.84   96.43  115.87  116.43   95.92   47.82  -85.31   31.93   74.58  -53.23  172.07 -123.07   98.94  178.35 -127.06  -61.08   10.56   45.42   -4.44   13.19    1.38  173.18 -179.99

DOCKED: MODEL       15
DOCKED: USER    Run = 15
DOCKED: USER    DPF = D:/Protein_go_brrr/autodock/final/2DN3/IHP/dock.dpf
DOCKED: USER  
DOCKED: USER    Estimated Free Energy of Binding    =   +4.25 kcal/mol  [=(1)+(2)+(3)-(4)]
DOCKED: USER    
DOCKED: USER    (1) Final Intermolecular Energy     =   -2.91 kcal/mol
DOCKED: USER        vdW + Hbond + desolv Energy     =   -2.91 kcal/mol
DOCKED: USER        Electrostatic Energy            =   -0.00 kcal/mol
DOCKED: USER    (2) Final Total Internal Energy     =  -14.00 kcal/mol
DOCKED: USER    (3) Torsional Free Energy           =   +7.16 kcal/mol
DOCKED: USER    (4) Unbound System's Energy  [=(2)] =  -14.00 kcal/mol
DOCKED: USER    
DOCKED: USER    
DOCKED: USER    NEWDPF move IHP_ideal_opt.pdbqt
DOCKED: USER    NEWDPF about 0.035000 0.082000 -0.065000
DOCKED: USER    NEWDPF tran0 48.938910 35.022683 18.583784
DOCKED: USER    NEWDPF quaternion0 -0.712590 -0.626456 0.104559 0.298053
DOCKED: USER    NEWDPF axisangle0 -0.746520 -0.656284 0.109538 145.318564
DOCKED: USER    NEWDPF quat0 -0.746520 -0.656284 0.109538 145.318564
DOCKED: USER    NEWDPF dihe0 -179.03 -47.84 96.43 115.87 116.43 95.92 47.82 -85.31 31.93 74.58 -53.23 172.07 -123.07 98.94 178.35 -127.06 -61.08 10.56 45.42 -4.44 13.19 1.38 173.18 -179.99 
DOCKED: USER  keepresnum = 1 
DOCKED: USER  
DOCKED: REMARK  24 active torsions:
DOCKED: REMARK  status: ('A' for Active; 'I' for Inactive)
DOCKED: REMARK    1  A    between atoms: C_1  and  O_7 
DOCKED: REMARK    2  A    between atoms: C_2  and  O_12 
DOCKED: REMARK    3  A    between atoms: C_3  and  O_17 
DOCKED: REMARK    4  A    between atoms: C_4  and  O_22 
DOCKED: REMARK    5  A    between atoms: C_5  and  O_27 
DOCKED: REMARK    6  A    between atoms: C_6  and  O_32 
DOCKED: REMARK    7  A    between atoms: O_7  and  P_8 
DOCKED: REMARK    8  A    between atoms: P_8  and  O_10 
DOCKED: REMARK    9  A    between atoms: P_8  and  O_11 
DOCKED: REMARK   10  A    between atoms: O_12  and  P_13 
DOCKED: REMARK   11  A    between atoms: P_13  and  O_15 
DOCKED: REMARK   12  A    between atoms: P_13  and  O_16 
DOCKED: REMARK   13  A    between atoms: O_17  and  P_18 
DOCKED: REMARK   14  A    between atoms: P_18  and  O_20 
DOCKED: REMARK   15  A    between atoms: P_18  and  O_21 
DOCKED: REMARK   16  A    between atoms: O_22  and  P_23 
DOCKED: REMARK   17  A    between atoms: P_23  and  O_25 
DOCKED: REMARK   18  A    between atoms: P_23  and  O_26 
DOCKED: REMARK   19  A    between atoms: O_27  and  P_28 
DOCKED: REMARK   20  A    between atoms: P_28  and  O_30 
DOCKED: REMARK   21  A    between atoms: P_28  and  O_31 
DOCKED: REMARK   22  A    between atoms: O_32  and  P_33 
DOCKED: REMARK   23  A    between atoms: P_33  and  O_35 
DOCKED: REMARK   24  A    between atoms: P_33  and  O_36 
DOCKED: USER                              x       y       z     vdW  Elec       q    Type
DOCKED: USER                           _______ _______ _______ _____ _____    ______ ____
DOCKED: ROOT
DOCKED: ATOM      1  C   UNL d   1      48.510  35.657  17.035 -0.09 +0.03    +0.194 C 
DOCKED: ATOM      2  C   UNL d   1      47.418  34.856  17.746 -0.11 +0.03    +0.194 C 
DOCKED: ATOM      3  C   UNL d   1      47.977  33.585  18.390 -0.08 +0.04    +0.194 C 
DOCKED: ATOM      4  C   UNL d   1      49.181  33.847  19.292 -0.02 +0.04    +0.194 C 
DOCKED: ATOM      5  C   UNL d   1      50.244  34.738  18.664 -0.02 +0.03    +0.194 C 
DOCKED: ATOM      6  C   UNL d   1      49.680  35.978  17.966 -0.03 +0.02    +0.194 C 
DOCKED: ENDROOT
DOCKED: BRANCH   1   7
DOCKED: ATOM      7  O   UNL d   1      47.947  36.902  16.614 -0.08 -0.03    -0.278 OA
DOCKED: BRANCH   7   8
DOCKED: ATOM      8  P   UNL d   1      47.011  36.912  15.319 -0.28 +0.07    +0.473 P 
DOCKED: ATOM      9  O   UNL d   1      47.720  36.706  14.027 -0.65 -0.06    -0.228 OA
DOCKED: BRANCH   8  10
DOCKED: ATOM     10  O   UNL d   1      45.919  35.790  15.623 -0.12 -0.06    -0.303 OA
DOCKED: ATOM     11  H   UNL d   1      45.849  35.654  16.586 +0.11 +0.04    +0.222 HD
DOCKED: ENDBRANCH   8  10
DOCKED: BRANCH   8  12
DOCKED: ATOM     12  O   UNL d   1      46.158  38.247  15.438 -0.53 -0.07    -0.303 OA
DOCKED: ATOM     13  H   UNL d   1      45.291  38.113  15.883 +0.13 +0.07    +0.222 HD
DOCKED: ENDBRANCH   8  12
DOCKED: ENDBRANCH   7   8
DOCKED: ENDBRANCH   1   7
DOCKED: BRANCH   2  14
DOCKED: ATOM     14  O   UNL d   1      46.835  35.669  18.772 -0.06 -0.03    -0.278 OA
DOCKED: BRANCH  14  15
DOCKED: ATOM     15  P   UNL d   1      45.241  35.816  18.750 -0.17 +0.04    +0.473 P 
DOCKED: ATOM     16  O   UNL d   1      44.576  36.124  20.054 -0.34 +0.01    -0.228 OA
DOCKED: BRANCH  15  17
DOCKED: ATOM     17  O   UNL d   1      44.969  36.926  17.641 -0.22 -0.04    -0.303 OA
DOCKED: ATOM     18  H   UNL d   1      45.805  37.238  17.243 +0.12 +0.03    +0.222 HD
DOCKED: ENDBRANCH  15  17
DOCKED: BRANCH  15  19
DOCKED: ATOM     19  O   UNL d   1      44.732  34.500  18.015 -0.19 -0.05    -0.303 OA
DOCKED: ATOM     20  H   UNL d   1      45.052  33.692  18.458 +0.11 +0.04    +0.222 HD
DOCKED: ENDBRANCH  15  19
DOCKED: ENDBRANCH  14  15
DOCKED: ENDBRANCH   2  14
DOCKED: BRANCH   6  21
DOCKED: ATOM     21  O   UNL d   1      50.727  36.506  17.156 -0.02 -0.03    -0.278 OA
DOCKED: BRANCH  21  22
DOCKED: ATOM     22  P   UNL d   1      51.743  37.573  17.770 +0.01 +0.04    +0.473 P 
DOCKED: ATOM     23  O   UNL d   1      52.370  38.562  16.846 -0.01 -0.01    -0.228 OA
DOCKED: BRANCH  22  24
DOCKED: ATOM     24  O   UNL d   1      50.875  38.211  18.941 +0.00 -0.02    -0.303 OA
DOCKED: ATOM     25  H   UNL d   1      50.498  37.472  19.483 +0.01 +0.02    +0.222 HD
DOCKED: ENDBRANCH  22  24
DOCKED: BRANCH  22  26
DOCKED: ATOM     26  O   UNL d   1      52.753  36.630  18.582 -0.00 -0.03    -0.303 OA
DOCKED: ATOM     27  H   UNL d   1      52.335  36.362  19.425 +0.00 +0.02    +0.222 HD
DOCKED: ENDBRANCH  22  26
DOCKED: ENDBRANCH  21  22
DOCKED: ENDBRANCH   6  21
DOCKED: BRANCH   3  28
DOCKED: ATOM     28  O   UNL d   1      46.970  33.061  19.247 -0.06 -0.07    -0.278 OA
DOCKED: BRANCH  28  29
DOCKED: ATOM     29  P   UNL d   1      46.251  31.684  18.896 -0.08 +0.17    +0.473 P 
DOCKED: ATOM     30  O   UNL d   1      44.873  31.527  19.429 -0.20 -0.10    -0.228 OA
DOCKED: BRANCH  29  31
DOCKED: ATOM     31  O   UNL d   1      46.419  31.679  17.305 -0.04 -0.08    -0.303 OA
DOCKED: ATOM     32  H   UNL d   1      47.183  31.102  17.072 +0.08 +0.06    +0.222 HD
DOCKED: ENDBRANCH  29  31
DOCKED: BRANCH  29  33
DOCKED: ATOM     33  O   UNL d   1      47.332  30.614  19.367 -0.06 -0.14    -0.303 OA
DOCKED: ATOM     34  H   UNL d   1      48.229  31.025  19.329 +0.04 +0.08    +0.222 HD
DOCKED: ENDBRANCH  29  33
DOCKED: ENDBRANCH  28  29
DOCKED: ENDBRANCH   3  28
DOCKED: BRANCH   5  35
DOCKED: ATOM     35  O   UNL d   1      51.053  35.197  19.745 -0.00 -0.03    -0.278 OA
DOCKED: BRANCH  35  36
DOCKED: ATOM     36  P   UNL d   1      50.391  35.967  20.975 +0.00 +0.05    +0.473 P 
DOCKED: ATOM     37  O   UNL d   1      49.014  36.500  20.736 -0.01 -0.02    -0.228 OA
DOCKED: BRANCH  36  38
DOCKED: ATOM     38  O   UNL d   1      50.478  34.874  22.130 -0.00 -0.04    -0.303 OA
DOCKED: ATOM     39  H   UNL d   1      50.299  33.988  21.748 +0.01 +0.04    +0.222 HD
DOCKED: ENDBRANCH  36  38
DOCKED: BRANCH  36  40
DOCKED: ATOM     40  O   UNL d   1      51.516  37.022  21.361 +0.00 -0.02    -0.303 OA
DOCKED: ATOM     41  H   UNL d   1      52.018  37.325  20.571 +0.00 +0.02    +0.222 HD
DOCKED: ENDBRANCH  36  40
DOCKED: ENDBRANCH  35  36
DOCKED: ENDBRANCH   5  35
DOCKED: BRANCH   4  42
DOCKED: ATOM     42  O   UNL d   1      49.792  32.577  19.546 -0.01 -0.06    -0.278 OA
DOCKED: BRANCH  42  43
DOCKED: ATOM     43  P   UNL d   1      50.526  31.821  18.349 -0.01 +0.10    +0.473 P 
DOCKED: ATOM     44  O   UNL d   1      51.613  32.552  17.639 -0.02 -0.04    -0.228 OA
DOCKED: BRANCH  43  45
DOCKED: ATOM     45  O   UNL d   1      50.993  30.461  19.030 -0.01 -0.08    -0.303 OA
DOCKED: ATOM     46  H   UNL d   1      51.952  30.310  18.908 +0.01 +0.05    +0.222 HD
DOCKED: ENDBRANCH  43  45
DOCKED: BRANCH  43  47
DOCKED: ATOM     47  O   UNL d   1      49.311  31.324  17.429 -0.06 -0.07    -0.303 OA
DOCKED: ATOM     48  H   UNL d   1      48.466  31.480  17.900 +0.05 +0.06    +0.222 HD
DOCKED: ENDBRANCH  43  47
DOCKED: ENDBRANCH  42  43
DOCKED: ENDBRANCH   4  42
DOCKED: TORSDOF 24
DOCKED: TER
DOCKED: ENDMDL
________________________________________________________________________________


	BEGINNING GENETIC ALGORITHM DOCKING 16 of 100
Run: 16 Seed: 1173478325 760668339 [ Run 16 of 100 GA/GALS ]
Beginning LAMARCKIAN GENETIC ALGORITHM (LGA), with a maximum of 25000000 energy evaluations.

Final-Value: -18.331


	FINAL GENETIC ALGORITHM DOCKED STATE
	_______________________________________________


Detailed state:  trans 41.504 24.512 0.100 quatxyzw 0.785709 0.394287 -0.254748 -0.402868 center 0.035 0.082 -0.065 ntor 24 112.1612 100.5184 45.2767 -54.2332 -0.7381 -127.0578 -49.0692 75.9969 -16.4974 80.7900 25.3224 -164.0544 175.4711 -180.0000 -24.7823 180.0000 -89.4889 129.7629 12.3347 -31.9272 166.8794 -28.2273 7.3322 -22.7428
State:	 41.504  24.512   0.100   0.858  0.431 -0.278 -132.485    112.16  100.52   45.28  -54.23   -0.74 -127.06  -49.07   76.00  -16.50   80.79   25.32 -164.05  175.47 -180.00  -24.78  180.00  -89.49  129.76   12.33  -31.93  166.88  -28.23    7.33  -22.74

DOCKED: MODEL       16
DOCKED: USER    Run = 16
DOCKED: USER    DPF = D:/Protein_go_brrr/autodock/final/2DN3/IHP/dock.dpf
DOCKED: USER  
DOCKED: USER    Estimated Free Energy of Binding    =   +1.90 kcal/mol  [=(1)+(2)+(3)-(4)]
DOCKED: USER    
DOCKED: USER    (1) Final Intermolecular Energy     =   -5.26 kcal/mol
DOCKED: USER        vdW + Hbond + desolv Energy     =   -5.33 kcal/mol
DOCKED: USER        Electrostatic Energy            =   +0.07 kcal/mol
DOCKED: USER    (2) Final Total Internal Energy     =  -13.07 kcal/mol
DOCKED: USER    (3) Torsional Free Energy           =   +7.16 kcal/mol
DOCKED: USER    (4) Unbound System's Energy  [=(2)] =  -13.07 kcal/mol
DOCKED: USER    
DOCKED: USER    
DOCKED: USER    NEWDPF move IHP_ideal_opt.pdbqt
DOCKED: USER    NEWDPF about 0.035000 0.082000 -0.065000
DOCKED: USER    NEWDPF tran0 41.503652 24.512337 0.099686
DOCKED: USER    NEWDPF quaternion0 0.785709 0.394287 -0.254748 -0.402868
DOCKED: USER    NEWDPF axisangle0 0.858456 0.430793 -0.278335 -132.484819
DOCKED: USER    NEWDPF quat0 0.858456 0.430793 -0.278335 -132.484819
DOCKED: USER    NEWDPF dihe0 112.16 100.52 45.28 -54.23 -0.74 -127.06 -49.07 76.00 -16.50 80.79 25.32 -164.05 175.47 -180.00 -24.78 180.00 -89.49 129.76 12.33 -31.93 166.88 -28.23 7.33 -22.74 
DOCKED: USER  keepresnum = 1 
DOCKED: USER  
DOCKED: REMARK  24 active torsions:
DOCKED: REMARK  status: ('A' for Active; 'I' for Inactive)
DOCKED: REMARK    1  A    between atoms: C_1  and  O_7 
DOCKED: REMARK    2  A    between atoms: C_2  and  O_12 
DOCKED: REMARK    3  A    between atoms: C_3  and  O_17 
DOCKED: REMARK    4  A    between atoms: C_4  and  O_22 
DOCKED: REMARK    5  A    between atoms: C_5  and  O_27 
DOCKED: REMARK    6  A    between atoms: C_6  and  O_32 
DOCKED: REMARK    7  A    between atoms: O_7  and  P_8 
DOCKED: REMARK    8  A    between atoms: P_8  and  O_10 
DOCKED: REMARK    9  A    between atoms: P_8  and  O_11 
DOCKED: REMARK   10  A    between atoms: O_12  and  P_13 
DOCKED: REMARK   11  A    between atoms: P_13  and  O_15 
DOCKED: REMARK   12  A    between atoms: P_13  and  O_16 
DOCKED: REMARK   13  A    between atoms: O_17  and  P_18 
DOCKED: REMARK   14  A    between atoms: P_18  and  O_20 
DOCKED: REMARK   15  A    between atoms: P_18  and  O_21 
DOCKED: REMARK   16  A    between atoms: O_22  and  P_23 
DOCKED: REMARK   17  A    between atoms: P_23  and  O_25 
DOCKED: REMARK   18  A    between atoms: P_23  and  O_26 
DOCKED: REMARK   19  A    between atoms: O_27  and  P_28 
DOCKED: REMARK   20  A    between atoms: P_28  and  O_30 
DOCKED: REMARK   21  A    between atoms: P_28  and  O_31 
DOCKED: REMARK   22  A    between atoms: O_32  and  P_33 
DOCKED: REMARK   23  A    between atoms: P_33  and  O_35 
DOCKED: REMARK   24  A    between atoms: P_33  and  O_36 
DOCKED: USER                              x       y       z     vdW  Elec       q    Type
DOCKED: USER                           _______ _______ _______ _____ _____    ______ ____
DOCKED: ROOT
DOCKED: ATOM      1  C   UNL d   1      41.407  24.695  -1.615 -0.10 +0.03    +0.194 C 
DOCKED: ATOM      2  C   UNL d   1      40.076  24.779  -0.865 -0.12 +0.02    +0.194 C 
DOCKED: ATOM      3  C   UNL d   1      39.967  23.703   0.217 -0.13 +0.01    +0.194 C 
DOCKED: ATOM      4  C   UNL d   1      41.163  23.680   1.165 -0.20 +0.03    +0.194 C 
DOCKED: ATOM      5  C   UNL d   1      42.514  23.712   0.461 -0.17 +0.05    +0.194 C 
DOCKED: ATOM      6  C   UNL d   1      42.602  24.747  -0.663 -0.16 +0.04    +0.194 C 
DOCKED: ENDROOT
DOCKED: BRANCH   1   7
DOCKED: ATOM      7  O   UNL d   1      41.503  25.829  -2.481 -0.06 -0.03    -0.278 OA
DOCKED: BRANCH   7   8
DOCKED: ATOM      8  P   UNL d   1      41.402  25.591  -4.057 -0.01 +0.04    +0.473 P 
DOCKED: ATOM      9  O   UNL d   1      42.443  26.280  -4.867 -0.02 -0.02    -0.228 OA
DOCKED: BRANCH   8  10
DOCKED: ATOM     10  O   UNL d   1      41.435  24.004  -4.212 -0.01 -0.03    -0.303 OA
DOCKED: ATOM     11  H   UNL d   1      42.143  23.635  -3.651 +0.02 +0.02    +0.222 HD
DOCKED: ENDBRANCH   8  10
DOCKED: BRANCH   8  12
DOCKED: ATOM     12  O   UNL d   1      39.895  25.930  -4.431 -0.00 -0.02    -0.303 OA
DOCKED: ATOM     13  H   UNL d   1      39.621  26.831  -4.147 +0.01 +0.02    +0.222 HD
DOCKED: ENDBRANCH   8  12
DOCKED: ENDBRANCH   7   8
DOCKED: ENDBRANCH   1   7
DOCKED: BRANCH   2  14
DOCKED: ATOM     14  O   UNL d   1      39.971  26.065  -0.242 -0.19 -0.03    -0.278 OA
DOCKED: BRANCH  14  15
DOCKED: ATOM     15  P   UNL d   1      39.082  27.159  -1.003 -0.10 +0.04    +0.473 P 
DOCKED: ATOM     16  O   UNL d   1      39.748  28.460  -1.326 -0.12 -0.02    -0.228 OA
DOCKED: BRANCH  15  17
DOCKED: ATOM     17  O   UNL d   1      38.555  26.396  -2.298 -0.02 -0.02    -0.303 OA
DOCKED: ATOM     18  H   UNL d   1      39.289  25.964  -2.775 +0.03 +0.02    +0.222 HD
DOCKED: ENDBRANCH  15  17
DOCKED: BRANCH  15  19
DOCKED: ATOM     19  O   UNL d   1      37.755  27.266  -0.133 -0.03 -0.03    -0.303 OA
DOCKED: ATOM     20  H   UNL d   1      36.976  26.945  -0.623 +0.06 +0.01    +0.222 HD
DOCKED: ENDBRANCH  15  19
DOCKED: ENDBRANCH  14  15
DOCKED: ENDBRANCH   2  14
DOCKED: BRANCH   6  21
DOCKED: ATOM     21  O   UNL d   1      43.761  24.425  -1.429 -0.18 -0.06    -0.278 OA
DOCKED: BRANCH  21  22
DOCKED: ATOM     22  P   UNL d   1      43.824  23.046  -2.229 -0.07 +0.08    +0.473 P 
DOCKED: ATOM     23  O   UNL d   1      42.607  22.185  -2.246 -0.02 -0.03    -0.228 OA
DOCKED: BRANCH  22  24
DOCKED: ATOM     24  O   UNL d   1      44.324  23.524  -3.662 -0.06 -0.04    -0.303 OA
DOCKED: ATOM     25  H   UNL d   1      43.608  24.075  -4.070 +0.02 +0.03    +0.222 HD
DOCKED: ENDBRANCH  22  24
DOCKED: BRANCH  22  26
DOCKED: ATOM     26  O   UNL d   1      45.150  22.379  -1.622 -0.10 -0.05    -0.303 OA
DOCKED: ATOM     27  H   UNL d   1      45.045  22.279  -0.654 +0.03 +0.06    +0.222 HD
DOCKED: ENDBRANCH  22  26
DOCKED: ENDBRANCH  21  22
DOCKED: ENDBRANCH   6  21
DOCKED: BRANCH   3  28
DOCKED: ATOM     28  O   UNL d   1      38.847  24.026   1.031 -0.15 +0.01    -0.278 OA
DOCKED: BRANCH  28  29
DOCKED: ATOM     29  P   UNL d   1      37.376  23.618   0.574 -0.08 -0.10    +0.473 P 
DOCKED: ATOM     30  O   UNL d   1      36.391  23.439   1.672 -0.18 +0.19    -0.228 OA
DOCKED: BRANCH  29  31
DOCKED: ATOM     31  O   UNL d   1      37.080  24.780  -0.485 -0.08 +0.02    -0.303 OA
DOCKED: ATOM     32  H   UNL d   1      37.882  25.347  -0.561 +0.06 +0.00    +0.222 HD
DOCKED: ENDBRANCH  29  31
DOCKED: BRANCH  29  33
DOCKED: ATOM     33  O   UNL d   1      37.654  22.356  -0.356 -0.02 +0.03    -0.303 OA
DOCKED: ATOM     34  H   UNL d   1      37.007  21.643  -0.131 +0.03 -0.04    +0.222 HD
DOCKED: ENDBRANCH  29  33
DOCKED: ENDBRANCH  28  29
DOCKED: ENDBRANCH   3  28
DOCKED: BRANCH   5  35
DOCKED: ATOM     35  O   UNL d   1      43.461  24.092   1.457 -0.20 -0.13    -0.278 OA
DOCKED: BRANCH  35  36
DOCKED: ATOM     36  P   UNL d   1      44.877  23.364   1.540 -0.25 +0.37    +0.473 P 
DOCKED: ATOM     37  O   UNL d   1      44.843  21.873   1.430 -0.33 -0.20    -0.228 OA
DOCKED: BRANCH  36  38
DOCKED: ATOM     38  O   UNL d   1      45.685  24.088   0.374 -0.31 -0.13    -0.303 OA
DOCKED: ATOM     39  H   UNL d   1      45.510  23.625  -0.473 -0.24 +0.04    +0.222 HD
DOCKED: ENDBRANCH  36  38
DOCKED: BRANCH  36  40
DOCKED: ATOM     40  O   UNL d   1      45.497  23.976   2.871 -0.99 -0.37    -0.303 OA
DOCKED: ATOM     41  H   UNL d   1      44.818  24.080   3.574 +0.10 +0.24    +0.222 HD
DOCKED: ENDBRANCH  36  40
DOCKED: ENDBRANCH  35  36
DOCKED: ENDBRANCH   5  35
DOCKED: BRANCH   4  42
DOCKED: ATOM     42  O   UNL d   1      41.095  22.447   1.889 -0.09 -0.04    -0.278 OA
DOCKED: BRANCH  42  43
DOCKED: ATOM     43  P   UNL d   1      41.309  22.468   3.469 -0.22 +0.07    +0.473 P 
DOCKED: ATOM     44  O   UNL d   1      41.130  21.184   4.204 -0.22 -0.03    -0.228 OA
DOCKED: BRANCH  43  45
DOCKED: ATOM     45  O   UNL d   1      42.760  23.104   3.616 -0.32 -0.14    -0.303 OA
DOCKED: ATOM     46  H   UNL d   1      43.401  22.679   3.012 +0.11 +0.15    +0.222 HD
DOCKED: ENDBRANCH  43  45
DOCKED: BRANCH  43  47
DOCKED: ATOM     47  O   UNL d   1      40.373  23.676   3.950 -0.37 +0.02    -0.303 OA
DOCKED: ATOM     48  H   UNL d   1      39.757  23.915   3.227 +0.12 -0.02    +0.222 HD
DOCKED: ENDBRANCH  43  47
DOCKED: ENDBRANCH  42  43
DOCKED: ENDBRANCH   4  42
DOCKED: TORSDOF 24
DOCKED: TER
DOCKED: ENDMDL
________________________________________________________________________________


	BEGINNING GENETIC ALGORITHM DOCKING 17 of 100
Run: 17 Seed: 1405723886 1491835454 [ Run 17 of 100 GA/GALS ]
Beginning LAMARCKIAN GENETIC ALGORITHM (LGA), with a maximum of 25000000 energy evaluations.

Final-Value: -15.267


	FINAL GENETIC ALGORITHM DOCKED STATE
	_______________________________________________


Detailed state:  trans 14.432 44.669 26.701 quatxyzw 0.439579 -0.745034 0.260646 0.428671 center 0.035 0.082 -0.065 ntor 24 104.1350 173.6071 156.0221 13.8781 -52.2917 99.9711 -26.5423 -101.9575 9.3403 -180.0000 102.7942 176.2398 171.4850 -142.3741 -108.3995 -48.0242 -82.8632 -2.3240 -7.9844 5.6366 137.8825 139.8447 179.9905 142.5460
State:	 14.432  44.669  26.701   0.487 -0.825  0.288 129.234    104.14  173.61  156.02   13.88  -52.29   99.97  -26.54 -101.96    9.34 -180.00  102.79  176.24  171.48 -142.37 -108.40  -48.02  -82.86   -2.32   -7.98    5.64  137.88  139.84  179.99  142.55

DOCKED: MODEL       17
DOCKED: USER    Run = 17
DOCKED: USER    DPF = D:/Protein_go_brrr/autodock/final/2DN3/IHP/dock.dpf
DOCKED: USER  
DOCKED: USER    Estimated Free Energy of Binding    =   +5.09 kcal/mol  [=(1)+(2)+(3)-(4)]
DOCKED: USER    
DOCKED: USER    (1) Final Intermolecular Energy     =   -2.07 kcal/mol
DOCKED: USER        vdW + Hbond + desolv Energy     =   -2.05 kcal/mol
DOCKED: USER        Electrostatic Energy            =   -0.02 kcal/mol
DOCKED: USER    (2) Final Total Internal Energy     =  -13.20 kcal/mol
DOCKED: USER    (3) Torsional Free Energy           =   +7.16 kcal/mol
DOCKED: USER    (4) Unbound System's Energy  [=(2)] =  -13.20 kcal/mol
DOCKED: USER    
DOCKED: USER    
DOCKED: USER    NEWDPF move IHP_ideal_opt.pdbqt
DOCKED: USER    NEWDPF about 0.035000 0.082000 -0.065000
DOCKED: USER    NEWDPF tran0 14.431604 44.669365 26.701399
DOCKED: USER    NEWDPF quaternion0 0.439579 -0.745034 0.260646 0.428671
DOCKED: USER    NEWDPF axisangle0 0.486550 -0.824645 0.288497 129.233535
DOCKED: USER    NEWDPF quat0 0.486550 -0.824645 0.288497 129.233535
DOCKED: USER    NEWDPF dihe0 104.14 173.61 156.02 13.88 -52.29 99.97 -26.54 -101.96 9.34 -180.00 102.79 176.24 171.48 -142.37 -108.40 -48.02 -82.86 -2.32 -7.98 5.64 137.88 139.84 179.99 142.55 
DOCKED: USER  keepresnum = 1 
DOCKED: USER  
DOCKED: REMARK  24 active torsions:
DOCKED: REMARK  status: ('A' for Active; 'I' for Inactive)
DOCKED: REMARK    1  A    between atoms: C_1  and  O_7 
DOCKED: REMARK    2  A    between atoms: C_2  and  O_12 
DOCKED: REMARK    3  A    between atoms: C_3  and  O_17 
DOCKED: REMARK    4  A    between atoms: C_4  and  O_22 
DOCKED: REMARK    5  A    between atoms: C_5  and  O_27 
DOCKED: REMARK    6  A    between atoms: C_6  and  O_32 
DOCKED: REMARK    7  A    between atoms: O_7  and  P_8 
DOCKED: REMARK    8  A    between atoms: P_8  and  O_10 
DOCKED: REMARK    9  A    between atoms: P_8  and  O_11 
DOCKED: REMARK   10  A    between atoms: O_12  and  P_13 
DOCKED: REMARK   11  A    between atoms: P_13  and  O_15 
DOCKED: REMARK   12  A    between atoms: P_13  and  O_16 
DOCKED: REMARK   13  A    between atoms: O_17  and  P_18 
DOCKED: REMARK   14  A    between atoms: P_18  and  O_20 
DOCKED: REMARK   15  A    between atoms: P_18  and  O_21 
DOCKED: REMARK   16  A    between atoms: O_22  and  P_23 
DOCKED: REMARK   17  A    between atoms: P_23  and  O_25 
DOCKED: REMARK   18  A    between atoms: P_23  and  O_26 
DOCKED: REMARK   19  A    between atoms: O_27  and  P_28 
DOCKED: REMARK   20  A    between atoms: P_28  and  O_30 
DOCKED: REMARK   21  A    between atoms: P_28  and  O_31 
DOCKED: REMARK   22  A    between atoms: O_32  and  P_33 
DOCKED: REMARK   23  A    between atoms: P_33  and  O_35 
DOCKED: REMARK   24  A    between atoms: P_33  and  O_36 
DOCKED: USER                              x       y       z     vdW  Elec       q    Type
DOCKED: USER                           _______ _______ _______ _____ _____    ______ ____
DOCKED: ROOT
DOCKED: ATOM      1  C   UNL d   1      15.193  43.135  26.475 -0.06 -0.03    +0.194 C 
DOCKED: ATOM      2  C   UNL d   1      15.527  43.852  27.785 -0.02 -0.02    +0.194 C 
DOCKED: ATOM      3  C   UNL d   1      15.785  45.344  27.564 -0.03 -0.01    +0.194 C 
DOCKED: ATOM      4  C   UNL d   1      14.665  46.040  26.794 -0.02 -0.01    +0.194 C 
DOCKED: ATOM      5  C   UNL d   1      14.221  45.300  25.540 -0.03 -0.02    +0.194 C 
DOCKED: ATOM      6  C   UNL d   1      14.023  43.796  25.745 -0.04 -0.03    +0.194 C 
DOCKED: ENDROOT
DOCKED: BRANCH   1   7
DOCKED: ATOM      7  O   UNL d   1      14.799  41.797  26.787 -0.05 +0.05    -0.278 OA
DOCKED: BRANCH   7   8
DOCKED: ATOM      8  P   UNL d   1      15.479  40.598  25.979 -0.17 -0.13    +0.473 P 
DOCKED: ATOM      9  O   UNL d   1      14.547  39.525  25.539 -0.16 +0.11    -0.228 OA
DOCKED: BRANCH   8  10
DOCKED: ATOM     10  O   UNL d   1      16.222  41.321  24.766 -0.28 +0.11    -0.303 OA
DOCKED: ATOM     11  H   UNL d   1      15.589  41.884  24.284 +0.04 -0.08    +0.222 HD
DOCKED: ENDBRANCH   8  10
DOCKED: BRANCH   8  12
DOCKED: ATOM     12  O   UNL d   1      16.699  40.130  26.884 -0.18 +0.04    -0.303 OA
DOCKED: ATOM     13  H   UNL d   1      16.703  39.161  27.054 +0.06 -0.03    +0.222 HD
DOCKED: ENDBRANCH   8  12
DOCKED: ENDBRANCH   7   8
DOCKED: ENDBRANCH   1   7
DOCKED: BRANCH   2  14
DOCKED: ATOM     14  O   UNL d   1      14.425  43.708  28.690 -0.00 +0.02    -0.278 OA
DOCKED: BRANCH  14  15
DOCKED: ATOM     15  P   UNL d   1      14.789  43.374  30.213 +0.00 -0.02    +0.473 P 
DOCKED: ATOM     16  O   UNL d   1      14.959  41.928  30.562 -0.00 +0.01    -0.228 OA
DOCKED: BRANCH  15  17
DOCKED: ATOM     17  O   UNL d   1      16.099  44.235  30.496 -0.00 +0.01    -0.303 OA
DOCKED: ATOM     18  H   UNL d   1      15.925  45.189  30.376 +0.00 -0.01    +0.222 HD
DOCKED: ENDBRANCH  15  17
DOCKED: BRANCH  15  19
DOCKED: ATOM     19  O   UNL d   1      13.699  44.161  31.063 +0.00 +0.01    -0.303 OA
DOCKED: ATOM     20  H   UNL d   1      13.583  45.075  30.743 +0.00 -0.01    +0.222 HD
DOCKED: ENDBRANCH  15  19
DOCKED: ENDBRANCH  14  15
DOCKED: ENDBRANCH   2  14
DOCKED: BRANCH   6  21
DOCKED: ATOM     21  O   UNL d   1      13.953  43.208  24.448 -0.08 +0.06    -0.278 OA
DOCKED: BRANCH  21  22
DOCKED: ATOM     22  P   UNL d   1      14.847  43.794  23.264 -0.16 -0.10    +0.473 P 
DOCKED: ATOM     23  O   UNL d   1      14.395  45.046  22.592 -0.11 +0.04    -0.228 OA
DOCKED: BRANCH  22  24
DOCKED: ATOM     24  O   UNL d   1      16.279  43.885  23.953 -0.01 +0.05    -0.303 OA
DOCKED: ATOM     25  H   UNL d   1      16.559  44.836  23.958 +0.09 -0.02    +0.222 HD
DOCKED: ENDBRANCH  22  24
DOCKED: BRANCH  22  26
DOCKED: ATOM     26  O   UNL d   1      15.016  42.510  22.319 -0.25 +0.12    -0.303 OA
DOCKED: ATOM     27  H   UNL d   1      15.647  41.886  22.733 -0.37 -0.17    +0.222 HD
DOCKED: ENDBRANCH  22  26
DOCKED: ENDBRANCH  21  22
DOCKED: ENDBRANCH   6  21
DOCKED: BRANCH   3  28
DOCKED: ATOM     28  O   UNL d   1      15.808  45.968  28.842 -0.01 +0.01    -0.278 OA
DOCKED: BRANCH  28  29
DOCKED: ATOM     29  P   UNL d   1      14.624  46.936  29.287 -0.00 -0.02    +0.473 P 
DOCKED: ATOM     30  O   UNL d   1      14.612  48.273  28.639 -0.00 +0.01    -0.228 OA
DOCKED: BRANCH  29  31
DOCKED: ATOM     31  O   UNL d   1      13.367  45.984  29.011 -0.00 +0.02    -0.303 OA
DOCKED: ATOM     32  H   UNL d   1      13.666  45.047  29.062 +0.00 -0.01    +0.222 HD
DOCKED: ENDBRANCH  29  31
DOCKED: BRANCH  29  33
DOCKED: ATOM     33  O   UNL d   1      14.747  46.906  30.874 -0.00 +0.01    -0.303 OA
DOCKED: ATOM     34  H   UNL d   1      14.907  45.975  31.166 +0.00 -0.01    +0.222 HD
DOCKED: ENDBRANCH  29  33
DOCKED: ENDBRANCH  28  29
DOCKED: ENDBRANCH   3  28
DOCKED: BRANCH   5  35
DOCKED: ATOM     35  O   UNL d   1      12.950  45.848  25.196 -0.01 +0.03    -0.278 OA
DOCKED: BRANCH  35  36
DOCKED: ATOM     36  P   UNL d   1      11.808  45.985  26.301 +0.00 -0.04    +0.473 P 
DOCKED: ATOM     37  O   UNL d   1      11.716  44.855  27.277 -0.00 +0.02    -0.228 OA
DOCKED: BRANCH  36  38
DOCKED: ATOM     38  O   UNL d   1      12.159  47.392  26.960 -0.00 +0.02    -0.303 OA
DOCKED: ATOM     39  H   UNL d   1      13.059  47.348  27.349 +0.00 -0.01    +0.222 HD
DOCKED: ENDBRANCH  36  38
DOCKED: BRANCH  36  40
DOCKED: ATOM     40  O   UNL d   1      10.518  46.286  25.421 -0.00 +0.03    -0.303 OA
DOCKED: ATOM     41  H   UNL d   1       9.732  45.791  25.746 +0.00 -0.02    +0.222 HD
DOCKED: ENDBRANCH  36  40
DOCKED: ENDBRANCH  35  36
DOCKED: ENDBRANCH   5  35
DOCKED: BRANCH   4  42
DOCKED: ATOM     42  O   UNL d   1      15.178  47.309  26.375 -0.01 +0.02    -0.278 OA
DOCKED: BRANCH  42  43
DOCKED: ATOM     43  P   UNL d   1      16.735  47.444  26.052 -0.05 -0.03    +0.473 P 
DOCKED: ATOM     44  O   UNL d   1      17.369  46.352  25.261 -0.14 +0.01    -0.228 OA
DOCKED: BRANCH  43  45
DOCKED: ATOM     45  O   UNL d   1      16.827  48.879  25.371 -0.04 +0.02    -0.303 OA
DOCKED: ATOM     46  H   UNL d   1      16.136  49.482  25.711 +0.02 -0.01    +0.222 HD
DOCKED: ENDBRANCH  43  45
DOCKED: BRANCH  43  47
DOCKED: ATOM     47  O   UNL d   1      17.384  47.723  27.490 -0.02 +0.02    -0.303 OA
DOCKED: ATOM     48  H   UNL d   1      16.670  47.813  28.155 +0.01 -0.01    +0.222 HD
DOCKED: ENDBRANCH  43  47
DOCKED: ENDBRANCH  42  43
DOCKED: ENDBRANCH   4  42
DOCKED: TORSDOF 24
DOCKED: TER
DOCKED: ENDMDL
________________________________________________________________________________


	BEGINNING GENETIC ALGORITHM DOCKING 18 of 100
Run: 18 Seed: 1081457958 148584838 [ Run 18 of 100 GA/GALS ]
Beginning LAMARCKIAN GENETIC ALGORITHM (LGA), with a maximum of 25000000 energy evaluations.

Final-Value: -17.710


	FINAL GENETIC ALGORITHM DOCKED STATE
	_______________________________________________


Detailed state:  trans 14.937 49.598 -9.656 quatxyzw 0.602896 0.282299 -0.746181 0.006118 center 0.035 0.082 -0.065 ntor 24 78.7745 72.6688 153.4605 -12.8253 -22.7598 167.1017 -101.1133 -96.1071 88.7029 78.0913 119.9385 127.9331 148.2634 172.6850 -179.9523 42.7111 102.2421 -155.2737 51.7401 12.5543 170.2416 4.7233 -10.3628 9.7391
State:	 14.937  49.598  -9.656   0.603  0.282 -0.746 179.299     78.77   72.67  153.46  -12.83  -22.76  167.10 -101.11  -96.11   88.70   78.09  119.94  127.93  148.26  172.68 -179.95   42.71  102.24 -155.27   51.74   12.55  170.24    4.72  -10.36    9.74

DOCKED: MODEL       18
DOCKED: USER    Run = 18
DOCKED: USER    DPF = D:/Protein_go_brrr/autodock/final/2DN3/IHP/dock.dpf
DOCKED: USER  
DOCKED: USER    Estimated Free Energy of Binding    =   +4.88 kcal/mol  [=(1)+(2)+(3)-(4)]
DOCKED: USER    
DOCKED: USER    (1) Final Intermolecular Energy     =   -2.28 kcal/mol
DOCKED: USER        vdW + Hbond + desolv Energy     =   -2.27 kcal/mol
DOCKED: USER        Electrostatic Energy            =   -0.01 kcal/mol
DOCKED: USER    (2) Final Total Internal Energy     =  -15.43 kcal/mol
DOCKED: USER    (3) Torsional Free Energy           =   +7.16 kcal/mol
DOCKED: USER    (4) Unbound System's Energy  [=(2)] =  -15.43 kcal/mol
DOCKED: USER    
DOCKED: USER    
DOCKED: USER    NEWDPF move IHP_ideal_opt.pdbqt
DOCKED: USER    NEWDPF about 0.035000 0.082000 -0.065000
DOCKED: USER    NEWDPF tran0 14.937291 49.597775 -9.655803
DOCKED: USER    NEWDPF quaternion0 0.602896 0.282299 -0.746181 0.006118
DOCKED: USER    NEWDPF axisangle0 0.602908 0.282305 -0.746195 179.298980
DOCKED: USER    NEWDPF quat0 0.602908 0.282305 -0.746195 179.298980
DOCKED: USER    NEWDPF dihe0 78.77 72.67 153.46 -12.83 -22.76 167.10 -101.11 -96.11 88.70 78.09 119.94 127.93 148.26 172.68 -179.95 42.71 102.24 -155.27 51.74 12.55 170.24 4.72 -10.36 9.74 
DOCKED: USER  keepresnum = 1 
DOCKED: USER  
DOCKED: REMARK  24 active torsions:
DOCKED: REMARK  status: ('A' for Active; 'I' for Inactive)
DOCKED: REMARK    1  A    between atoms: C_1  and  O_7 
DOCKED: REMARK    2  A    between atoms: C_2  and  O_12 
DOCKED: REMARK    3  A    between atoms: C_3  and  O_17 
DOCKED: REMARK    4  A    between atoms: C_4  and  O_22 
DOCKED: REMARK    5  A    between atoms: C_5  and  O_27 
DOCKED: REMARK    6  A    between atoms: C_6  and  O_32 
DOCKED: REMARK    7  A    between atoms: O_7  and  P_8 
DOCKED: REMARK    8  A    between atoms: P_8  and  O_10 
DOCKED: REMARK    9  A    between atoms: P_8  and  O_11 
DOCKED: REMARK   10  A    between atoms: O_12  and  P_13 
DOCKED: REMARK   11  A    between atoms: P_13  and  O_15 
DOCKED: REMARK   12  A    between atoms: P_13  and  O_16 
DOCKED: REMARK   13  A    between atoms: O_17  and  P_18 
DOCKED: REMARK   14  A    between atoms: P_18  and  O_20 
DOCKED: REMARK   15  A    between atoms: P_18  and  O_21 
DOCKED: REMARK   16  A    between atoms: O_22  and  P_23 
DOCKED: REMARK   17  A    between atoms: P_23  and  O_25 
DOCKED: REMARK   18  A    between atoms: P_23  and  O_26 
DOCKED: REMARK   19  A    between atoms: O_27  and  P_28 
DOCKED: REMARK   20  A    between atoms: P_28  and  O_30 
DOCKED: REMARK   21  A    between atoms: P_28  and  O_31 
DOCKED: REMARK   22  A    between atoms: O_32  and  P_33 
DOCKED: REMARK   23  A    between atoms: P_33  and  O_35 
DOCKED: REMARK   24  A    between atoms: P_33  and  O_36 
DOCKED: USER                              x       y       z     vdW  Elec       q    Type
DOCKED: USER                           _______ _______ _______ _____ _____    ______ ____
DOCKED: ROOT
DOCKED: ATOM      1  C   UNL d   1      13.587  50.455 -10.308 -0.04 -0.02    +0.194 C 
DOCKED: ATOM      2  C   UNL d   1      13.994  50.847  -8.887 -0.05 -0.02    +0.194 C 
DOCKED: ATOM      3  C   UNL d   1      14.314  49.620  -8.030 -0.12 -0.02    +0.194 C 
DOCKED: ATOM      4  C   UNL d   1      15.325  48.679  -8.682 -0.10 -0.02    +0.194 C 
DOCKED: ATOM      5  C   UNL d   1      15.019  48.352 -10.138 -0.08 -0.03    +0.194 C 
DOCKED: ATOM      6  C   UNL d   1      14.639  49.571 -10.980 -0.04 -0.02    +0.194 C 
DOCKED: ENDROOT
DOCKED: BRANCH   1   7
DOCKED: ATOM      7  O   UNL d   1      13.474  51.649 -11.086 -0.01 +0.01    -0.278 OA
DOCKED: BRANCH   7   8
DOCKED: ATOM      8  P   UNL d   1      12.252  52.635 -10.790 +0.00 -0.01    +0.473 P 
DOCKED: ATOM      9  O   UNL d   1      11.924  53.581 -11.891 -0.00 +0.00    -0.228 OA
DOCKED: BRANCH   8  10
DOCKED: ATOM     10  O   UNL d   1      11.047  51.657 -10.422 -0.01 +0.01    -0.303 OA
DOCKED: ATOM     11  H   UNL d   1      10.666  51.286 -11.239 +0.02 -0.01    +0.222 HD
DOCKED: ENDBRANCH   8  10
DOCKED: BRANCH   8  12
DOCKED: ATOM     12  O   UNL d   1      12.586  53.296  -9.384 -0.00 +0.01    -0.303 OA
DOCKED: ATOM     13  H   UNL d   1      13.551  53.342  -9.199 +0.01 -0.01    +0.222 HD
DOCKED: ENDBRANCH   8  12
DOCKED: ENDBRANCH   7   8
DOCKED: ENDBRANCH   1   7
DOCKED: BRANCH   2  14
DOCKED: ATOM     14  O   UNL d   1      15.160  51.678  -8.948 -0.01 +0.02    -0.278 OA
DOCKED: BRANCH  14  15
DOCKED: ATOM     15  P   UNL d   1      15.256  52.857  -7.869 +0.01 -0.03    +0.473 P 
DOCKED: ATOM     16  O   UNL d   1      15.611  54.216  -8.387 -0.00 +0.01    -0.228 OA
DOCKED: BRANCH  15  17
DOCKED: ATOM     17  O   UNL d   1      13.843  52.826  -7.134 -0.01 +0.03    -0.303 OA
DOCKED: ATOM     18  H   UNL d   1      13.673  51.951  -6.736 +0.06 -0.03    +0.222 HD
DOCKED: ENDBRANCH  15  17
DOCKED: BRANCH  15  19
DOCKED: ATOM     19  O   UNL d   1      16.217  52.283  -6.738 -0.01 +0.03    -0.303 OA
DOCKED: ATOM     20  H   UNL d   1      15.776  51.596  -6.206 +0.05 -0.02    +0.222 HD
DOCKED: ENDBRANCH  15  19
DOCKED: ENDBRANCH  14  15
DOCKED: ENDBRANCH   2  14
DOCKED: BRANCH   6  21
DOCKED: ATOM     21  O   UNL d   1      14.061  49.076 -12.185 -0.02 +0.03    -0.278 OA
DOCKED: BRANCH  21  22
DOCKED: ATOM     22  P   UNL d   1      12.652  48.329 -12.140 -0.05 -0.11    +0.473 P 
DOCKED: ATOM     23  O   UNL d   1      12.382  47.270 -13.155 -0.05 +0.07    -0.228 OA
DOCKED: BRANCH  22  24
DOCKED: ATOM     24  O   UNL d   1      12.595  47.834 -10.628 +0.03 +0.10    -0.303 OA
DOCKED: ATOM     25  H   UNL d   1      13.020  46.940 -10.580 -0.05 -0.15    +0.222 HD
DOCKED: ENDBRANCH  22  24
DOCKED: BRANCH  22  26
DOCKED: ATOM     26  O   UNL d   1      11.630  49.564 -12.122 -0.02 +0.03    -0.303 OA
DOCKED: ATOM     27  H   UNL d   1      12.134  50.398 -12.032 +0.02 -0.02    +0.222 HD
DOCKED: ENDBRANCH  22  26
DOCKED: ENDBRANCH  21  22
DOCKED: ENDBRANCH   6  21
DOCKED: BRANCH   3  28
DOCKED: ATOM     28  O   UNL d   1      14.941  50.081  -6.840 -0.07 +0.03    -0.278 OA
DOCKED: BRANCH  28  29
DOCKED: ATOM     29  P   UNL d   1      14.232  49.879  -5.428 -0.17 -0.10    +0.473 P 
DOCKED: ATOM     30  O   UNL d   1      13.133  48.880  -5.400 -0.37 +0.06    -0.228 OA
DOCKED: BRANCH  29  31
DOCKED: ATOM     31  O   UNL d   1      15.510  49.579  -4.514 -0.17 +0.06    -0.303 OA
DOCKED: ATOM     32  H   UNL d   1      16.053  48.884  -4.952 +0.11 -0.04    +0.222 HD
DOCKED: ENDBRANCH  29  31
DOCKED: BRANCH  29  33
DOCKED: ATOM     33  O   UNL d   1      13.856  51.374  -5.027 -0.16 +0.08    -0.303 OA
DOCKED: ATOM     34  H   UNL d   1      14.579  51.978  -5.325 +0.08 -0.04    +0.222 HD
DOCKED: ENDBRANCH  29  33
DOCKED: ENDBRANCH  28  29
DOCKED: ENDBRANCH   3  28
DOCKED: BRANCH   5  35
DOCKED: ATOM     35  O   UNL d   1      16.230  47.829 -10.679 -0.04 +0.04    -0.278 OA
DOCKED: BRANCH  35  36
DOCKED: ATOM     36  P   UNL d   1      16.271  46.353 -11.283 -0.05 -0.10    +0.473 P 
DOCKED: ATOM     37  O   UNL d   1      17.196  46.154 -12.441 -0.02 +0.02    -0.228 OA
DOCKED: BRANCH  36  38
DOCKED: ATOM     38  O   UNL d   1      16.635  45.485  -9.998 -0.16 +0.06    -0.303 OA
DOCKED: ATOM     39  H   UNL d   1      16.440  46.009  -9.191 +0.07 -0.04    +0.222 HD
DOCKED: ENDBRANCH  36  38
DOCKED: BRANCH  36  40
DOCKED: ATOM     40  O   UNL d   1      14.730  46.044 -11.528 -0.11 +0.19    -0.303 OA
DOCKED: ATOM     41  H   UNL d   1      14.241  46.843 -11.825 +0.02 -0.10    +0.222 HD
DOCKED: ENDBRANCH  36  40
DOCKED: ENDBRANCH  35  36
DOCKED: ENDBRANCH   5  35
DOCKED: BRANCH   4  42
DOCKED: ATOM     42  O   UNL d   1      15.273  47.447  -7.954 -0.15 +0.04    -0.278 OA
DOCKED: BRANCH  42  43
DOCKED: ATOM     43  P   UNL d   1      16.412  47.138  -6.880 -0.18 -0.07    +0.473 P 
DOCKED: ATOM     44  O   UNL d   1      17.393  46.066  -7.210 -0.27 +0.02    -0.228 OA
DOCKED: BRANCH  43  45
DOCKED: ATOM     45  O   UNL d   1      17.067  48.569  -6.643 -0.05 +0.03    -0.303 OA
DOCKED: ATOM     46  H   UNL d   1      16.384  49.256  -6.506 +0.08 -0.03    +0.222 HD
DOCKED: ENDBRANCH  43  45
DOCKED: BRANCH  43  47
DOCKED: ATOM     47  O   UNL d   1      15.588  46.927  -5.522 -0.32 +0.08    -0.303 OA
DOCKED: ATOM     48  H   UNL d   1      15.005  47.701  -5.375 +0.13 -0.05    +0.222 HD
DOCKED: ENDBRANCH  43  47
DOCKED: ENDBRANCH  42  43
DOCKED: ENDBRANCH   4  42
DOCKED: TORSDOF 24
DOCKED: TER
DOCKED: ENDMDL
________________________________________________________________________________


	BEGINNING GENETIC ALGORITHM DOCKING 19 of 100
Run: 19 Seed: 2049549465 1055386405 [ Run 19 of 100 GA/GALS ]
Beginning LAMARCKIAN GENETIC ALGORITHM (LGA), with a maximum of 25000000 energy evaluations.

Final-Value: -15.955


	FINAL GENETIC ALGORITHM DOCKED STATE
	_______________________________________________


Detailed state:  trans 52.749 31.363 15.248 quatxyzw 0.176404 -0.126628 0.632976 -0.743094 center 0.035 0.082 -0.065 ntor 24 137.1237 65.0203 -179.7759 -5.3040 0.5595 -178.6020 -17.5342 -69.5105 21.4496 22.7573 -5.3221 -97.3525 145.7931 -179.8299 21.3547 104.0931 160.2990 -75.8566 54.4890 13.7797 166.9188 6.6114 -10.6693 154.7798
State:	 52.749  31.363  15.248   0.264 -0.189  0.946 -84.009    137.12   65.02 -179.78   -5.30    0.56 -178.60  -17.53  -69.51   21.45   22.76   -5.32  -97.35  145.79 -179.83   21.35  104.09  160.30  -75.86   54.49   13.78  166.92    6.61  -10.67  154.78

DOCKED: MODEL       19
DOCKED: USER    Run = 19
DOCKED: USER    DPF = D:/Protein_go_brrr/autodock/final/2DN3/IHP/dock.dpf
DOCKED: USER  
DOCKED: USER    Estimated Free Energy of Binding    =   +5.61 kcal/mol  [=(1)+(2)+(3)-(4)]
DOCKED: USER    
DOCKED: USER    (1) Final Intermolecular Energy     =   -1.54 kcal/mol
DOCKED: USER        vdW + Hbond + desolv Energy     =   -1.52 kcal/mol
DOCKED: USER        Electrostatic Energy            =   -0.02 kcal/mol
DOCKED: USER    (2) Final Total Internal Energy     =  -14.41 kcal/mol
DOCKED: USER    (3) Torsional Free Energy           =   +7.16 kcal/mol
DOCKED: USER    (4) Unbound System's Energy  [=(2)] =  -14.41 kcal/mol
DOCKED: USER    
DOCKED: USER    
DOCKED: USER    NEWDPF move IHP_ideal_opt.pdbqt
DOCKED: USER    NEWDPF about 0.035000 0.082000 -0.065000
DOCKED: USER    NEWDPF tran0 52.748841 31.362567 15.247546
DOCKED: USER    NEWDPF quaternion0 0.176404 -0.126628 0.632976 -0.743094
DOCKED: USER    NEWDPF axisangle0 0.263609 -0.189226 0.945888 -84.008781
DOCKED: USER    NEWDPF quat0 0.263609 -0.189226 0.945888 -84.008781
DOCKED: USER    NEWDPF dihe0 137.12 65.02 -179.78 -5.30 0.56 -178.60 -17.53 -69.51 21.45 22.76 -5.32 -97.35 145.79 -179.83 21.35 104.09 160.30 -75.86 54.49 13.78 166.92 6.61 -10.67 154.78 
DOCKED: USER  keepresnum = 1 
DOCKED: USER  
DOCKED: REMARK  24 active torsions:
DOCKED: REMARK  status: ('A' for Active; 'I' for Inactive)
DOCKED: REMARK    1  A    between atoms: C_1  and  O_7 
DOCKED: REMARK    2  A    between atoms: C_2  and  O_12 
DOCKED: REMARK    3  A    between atoms: C_3  and  O_17 
DOCKED: REMARK    4  A    between atoms: C_4  and  O_22 
DOCKED: REMARK    5  A    between atoms: C_5  and  O_27 
DOCKED: REMARK    6  A    between atoms: C_6  and  O_32 
DOCKED: REMARK    7  A    between atoms: O_7  and  P_8 
DOCKED: REMARK    8  A    between atoms: P_8  and  O_10 
DOCKED: REMARK    9  A    between atoms: P_8  and  O_11 
DOCKED: REMARK   10  A    between atoms: O_12  and  P_13 
DOCKED: REMARK   11  A    between atoms: P_13  and  O_15 
DOCKED: REMARK   12  A    between atoms: P_13  and  O_16 
DOCKED: REMARK   13  A    between atoms: O_17  and  P_18 
DOCKED: REMARK   14  A    between atoms: P_18  and  O_20 
DOCKED: REMARK   15  A    between atoms: P_18  and  O_21 
DOCKED: REMARK   16  A    between atoms: O_22  and  P_23 
DOCKED: REMARK   17  A    between atoms: P_23  and  O_25 
DOCKED: REMARK   18  A    between atoms: P_23  and  O_26 
DOCKED: REMARK   19  A    between atoms: O_27  and  P_28 
DOCKED: REMARK   20  A    between atoms: P_28  and  O_30 
DOCKED: REMARK   21  A    between atoms: P_28  and  O_31 
DOCKED: REMARK   22  A    between atoms: O_32  and  P_33 
DOCKED: REMARK   23  A    between atoms: P_33  and  O_35 
DOCKED: REMARK   24  A    between atoms: P_33  and  O_36 
DOCKED: USER                              x       y       z     vdW  Elec       q    Type
DOCKED: USER                           _______ _______ _______ _____ _____    ______ ____
DOCKED: ROOT
DOCKED: ATOM      1  C   UNL d   1      53.860  32.030  16.389 -0.01 +0.02    +0.194 C 
DOCKED: ATOM      2  C   UNL d   1      54.432  30.958  15.459 -0.01 +0.02    +0.194 C 
DOCKED: ATOM      3  C   UNL d   1      53.470  29.779  15.296 -0.03 +0.03    +0.194 C 
DOCKED: ATOM      4  C   UNL d   1      52.061  30.204  14.889 -0.10 +0.03    +0.194 C 
DOCKED: ATOM      5  C   UNL d   1      51.496  31.351  15.718 -0.10 +0.03    +0.194 C 
DOCKED: ATOM      6  C   UNL d   1      52.479  32.503  15.933 -0.05 +0.03    +0.194 C 
DOCKED: ENDROOT
DOCKED: BRANCH   1   7
DOCKED: ATOM      7  O   UNL d   1      54.732  33.163  16.353 -0.01 -0.03    -0.278 OA
DOCKED: BRANCH   7   8
DOCKED: ATOM      8  P   UNL d   1      56.192  33.018  16.985 -0.00 +0.05    +0.473 P 
DOCKED: ATOM      9  O   UNL d   1      56.882  34.303  17.280 -0.00 -0.02    -0.228 OA
DOCKED: BRANCH   8  10
DOCKED: ATOM     10  O   UNL d   1      55.964  32.115  18.281 -0.00 -0.03    -0.303 OA
DOCKED: ATOM     11  H   UNL d   1      55.027  32.157  18.548 +0.00 +0.03    +0.222 HD
DOCKED: ENDBRANCH   8  10
DOCKED: BRANCH   8  12
DOCKED: ATOM     12  O   UNL d   1      56.964  32.022  16.018 -0.00 -0.03    -0.303 OA
DOCKED: ATOM     13  H   UNL d   1      56.554  31.954  15.126 +0.00 +0.02    +0.222 HD
DOCKED: ENDBRANCH   8  12
DOCKED: ENDBRANCH   7   8
DOCKED: ENDBRANCH   1   7
DOCKED: BRANCH   2  14
DOCKED: ATOM     14  O   UNL d   1      54.669  31.536  14.170 -0.01 -0.03    -0.278 OA
DOCKED: BRANCH  14  15
DOCKED: ATOM     15  P   UNL d   1      55.940  30.990  13.363 +0.00 +0.04    +0.473 P 
DOCKED: ATOM     16  O   UNL d   1      56.943  32.009  12.921 -0.00 -0.02    -0.228 OA
DOCKED: BRANCH  15  17
DOCKED: ATOM     17  O   UNL d   1      56.565  29.886  14.326 -0.00 -0.03    -0.303 OA
DOCKED: ATOM     18  H   UNL d   1      56.121  29.025  14.209 +0.00 +0.03    +0.222 HD
DOCKED: ENDBRANCH  15  17
DOCKED: BRANCH  15  19
DOCKED: ATOM     19  O   UNL d   1      55.320  30.091  12.207 -0.00 -0.02    -0.303 OA
DOCKED: ATOM     20  H   UNL d   1      54.859  29.311  12.565 +0.02 +0.03    +0.222 HD
DOCKED: ENDBRANCH  15  19
DOCKED: ENDBRANCH  14  15
DOCKED: ENDBRANCH   2  14
DOCKED: BRANCH   6  21
DOCKED: ATOM     21  O   UNL d   1      51.946  33.309  16.982 -0.03 -0.04    -0.278 OA
DOCKED: BRANCH  21  22
DOCKED: ATOM     22  P   UNL d   1      51.803  32.704  18.451 -0.00 +0.08    +0.473 P 
DOCKED: ATOM     23  O   UNL d   1      52.997  32.057  19.066 -0.00 -0.04    -0.228 OA
DOCKED: BRANCH  22  24
DOCKED: ATOM     24  O   UNL d   1      51.227  33.948  19.260 -0.00 -0.05    -0.303 OA
DOCKED: ATOM     25  H   UNL d   1      51.921  34.655  19.273 +0.00 +0.03    +0.222 HD
DOCKED: ENDBRANCH  22  24
DOCKED: BRANCH  22  26
DOCKED: ATOM     26  O   UNL d   1      50.503  31.779  18.296 -0.02 -0.06    -0.303 OA
DOCKED: ATOM     27  H   UNL d   1      50.240  31.748  17.354 +0.04 +0.05    +0.222 HD
DOCKED: ENDBRANCH  22  26
DOCKED: ENDBRANCH  21  22
DOCKED: ENDBRANCH   6  21
DOCKED: BRANCH   3  28
DOCKED: ATOM     28  O   UNL d   1      53.949  28.982  14.220 -0.02 -0.05    -0.278 OA
DOCKED: BRANCH  28  29
DOCKED: ATOM     29  P   UNL d   1      54.408  27.479  14.475 -0.01 +0.10    +0.473 P 
DOCKED: ATOM     30  O   UNL d   1      53.311  26.487  14.607 -0.04 -0.07    -0.228 OA
DOCKED: BRANCH  29  31
DOCKED: ATOM     31  O   UNL d   1      55.419  27.284  13.249 -0.00 -0.06    -0.303 OA
DOCKED: ATOM     32  H   UNL d   1      55.872  28.141  13.076 +0.00 +0.03    +0.222 HD
DOCKED: ENDBRANCH  29  31
DOCKED: BRANCH  29  33
DOCKED: ATOM     33  O   UNL d   1      55.390  27.636  15.718 -0.00 -0.05    -0.303 OA
DOCKED: ATOM     34  H   UNL d   1      55.569  28.597  15.867 +0.00 +0.03    +0.222 HD
DOCKED: ENDBRANCH  29  33
DOCKED: ENDBRANCH  28  29
DOCKED: ENDBRANCH   3  28
DOCKED: BRANCH   5  35
DOCKED: ATOM     35  O   UNL d   1      50.401  31.869  14.965 -0.19 -0.04    -0.278 OA
DOCKED: BRANCH  35  36
DOCKED: ATOM     36  P   UNL d   1      48.929  31.867  15.580 -0.23 +0.09    +0.473 P 
DOCKED: ATOM     37  O   UNL d   1      47.814  31.872  14.584 -0.37 -0.04    -0.228 OA
DOCKED: BRANCH  36  38
DOCKED: ATOM     38  O   UNL d   1      48.967  30.577  16.514 -0.12 -0.08    -0.303 OA
DOCKED: ATOM     39  H   UNL d   1      49.334  29.823  16.004 +0.06 +0.06    +0.222 HD
DOCKED: ENDBRANCH  36  38
DOCKED: BRANCH  36  40
DOCKED: ATOM     40  O   UNL d   1      48.988  33.082  16.605 -0.11 -0.06    -0.303 OA
DOCKED: ATOM     41  H   UNL d   1      49.913  33.322  16.833 +0.05 +0.04    +0.222 HD
DOCKED: ENDBRANCH  36  40
DOCKED: ENDBRANCH  35  36
DOCKED: ENDBRANCH   5  35
DOCKED: BRANCH   4  42
DOCKED: ATOM     42  O   UNL d   1      51.210  29.073  15.100 -0.10 -0.07    -0.278 OA
DOCKED: BRANCH  42  43
DOCKED: ATOM     43  P   UNL d   1      51.373  28.224  16.441 -0.06 +0.14    +0.473 P 
DOCKED: ATOM     44  O   UNL d   1      52.728  28.165  17.056 -0.02 -0.05    -0.228 OA
DOCKED: BRANCH  43  45
DOCKED: ATOM     45  O   UNL d   1      50.255  28.848  17.387 -0.07 -0.09    -0.303 OA
DOCKED: ATOM     46  H   UNL d   1      50.546  29.699  17.771 +0.03 +0.06    +0.222 HD
DOCKED: ENDBRANCH  43  45
DOCKED: BRANCH  43  47
DOCKED: ATOM     47  O   UNL d   1      50.724  26.809  16.060 -0.07 -0.13    -0.303 OA
DOCKED: ATOM     48  H   UNL d   1      51.382  26.272  15.572 +0.05 +0.10    +0.222 HD
DOCKED: ENDBRANCH  43  47
DOCKED: ENDBRANCH  42  43
DOCKED: ENDBRANCH   4  42
DOCKED: TORSDOF 24
DOCKED: TER
DOCKED: ENDMDL
________________________________________________________________________________


	BEGINNING GENETIC ALGORITHM DOCKING 20 of 100
Run: 20 Seed: 1569663091 1952604872 [ Run 20 of 100 GA/GALS ]
Beginning LAMARCKIAN GENETIC ALGORITHM (LGA), with a maximum of 25000000 energy evaluations.

Final-Value: -18.141


	FINAL GENETIC ALGORITHM DOCKED STATE
	_______________________________________________


Detailed state:  trans 16.598 51.777 -6.405 quatxyzw -0.396873 -0.623296 0.440743 -0.509646 center 0.035 0.082 -0.065 ntor 24 -79.2744 93.6238 -177.5923 -36.1365 -11.7865 59.6159 -26.1154 -169.8982 78.7633 129.1078 34.6433 155.0352 -61.3248 179.1970 -166.7237 -54.6397 112.1040 166.8181 0.0840 14.0432 -39.7091 11.7011 162.3585 -10.1170
State:	 16.598  51.777  -6.405  -0.461 -0.724  0.512 -118.720    -79.27   93.62 -177.59  -36.14  -11.79   59.62  -26.12 -169.90   78.76  129.11   34.64  155.04  -61.32  179.20 -166.72  -54.64  112.10  166.82    0.08   14.04  -39.71   11.70  162.36  -10.12

DOCKED: MODEL       20
DOCKED: USER    Run = 20
DOCKED: USER    DPF = D:/Protein_go_brrr/autodock/final/2DN3/IHP/dock.dpf
DOCKED: USER  
DOCKED: USER    Estimated Free Energy of Binding    =   +3.30 kcal/mol  [=(1)+(2)+(3)-(4)]
DOCKED: USER    
DOCKED: USER    (1) Final Intermolecular Energy     =   -3.86 kcal/mol
DOCKED: USER        vdW + Hbond + desolv Energy     =   -3.57 kcal/mol
DOCKED: USER        Electrostatic Energy            =   -0.30 kcal/mol
DOCKED: USER    (2) Final Total Internal Energy     =  -14.28 kcal/mol
DOCKED: USER    (3) Torsional Free Energy           =   +7.16 kcal/mol
DOCKED: USER    (4) Unbound System's Energy  [=(2)] =  -14.28 kcal/mol
DOCKED: USER    
DOCKED: USER    
DOCKED: USER    NEWDPF move IHP_ideal_opt.pdbqt
DOCKED: USER    NEWDPF about 0.035000 0.082000 -0.065000
DOCKED: USER    NEWDPF tran0 16.597583 51.776875 -6.404722
DOCKED: USER    NEWDPF quaternion0 -0.396873 -0.623296 0.440743 -0.509646
DOCKED: USER    NEWDPF axisangle0 -0.461274 -0.724439 0.512263 -118.719532
DOCKED: USER    NEWDPF quat0 -0.461274 -0.724439 0.512263 -118.719532
DOCKED: USER    NEWDPF dihe0 -79.27 93.62 -177.59 -36.14 -11.79 59.62 -26.12 -169.90 78.76 129.11 34.64 155.04 -61.32 179.20 -166.72 -54.64 112.10 166.82 0.08 14.04 -39.71 11.70 162.36 -10.12 
DOCKED: USER  keepresnum = 1 
DOCKED: USER  
DOCKED: REMARK  24 active torsions:
DOCKED: REMARK  status: ('A' for Active; 'I' for Inactive)
DOCKED: REMARK    1  A    between atoms: C_1  and  O_7 
DOCKED: REMARK    2  A    between atoms: C_2  and  O_12 
DOCKED: REMARK    3  A    between atoms: C_3  and  O_17 
DOCKED: REMARK    4  A    between atoms: C_4  and  O_22 
DOCKED: REMARK    5  A    between atoms: C_5  and  O_27 
DOCKED: REMARK    6  A    between atoms: C_6  and  O_32 
DOCKED: REMARK    7  A    between atoms: O_7  and  P_8 
DOCKED: REMARK    8  A    between atoms: P_8  and  O_10 
DOCKED: REMARK    9  A    between atoms: P_8  and  O_11 
DOCKED: REMARK   10  A    between atoms: O_12  and  P_13 
DOCKED: REMARK   11  A    between atoms: P_13  and  O_15 
DOCKED: REMARK   12  A    between atoms: P_13  and  O_16 
DOCKED: REMARK   13  A    between atoms: O_17  and  P_18 
DOCKED: REMARK   14  A    between atoms: P_18  and  O_20 
DOCKED: REMARK   15  A    between atoms: P_18  and  O_21 
DOCKED: REMARK   16  A    between atoms: O_22  and  P_23 
DOCKED: REMARK   17  A    between atoms: P_23  and  O_25 
DOCKED: REMARK   18  A    between atoms: P_23  and  O_26 
DOCKED: REMARK   19  A    between atoms: O_27  and  P_28 
DOCKED: REMARK   20  A    between atoms: P_28  and  O_30 
DOCKED: REMARK   21  A    between atoms: P_28  and  O_31 
DOCKED: REMARK   22  A    between atoms: O_32  and  P_33 
DOCKED: REMARK   23  A    between atoms: P_33  and  O_35 
DOCKED: REMARK   24  A    between atoms: P_33  and  O_36 
DOCKED: USER                              x       y       z     vdW  Elec       q    Type
DOCKED: USER                           _______ _______ _______ _____ _____    ______ ____
DOCKED: ROOT
DOCKED: ATOM      1  C   UNL d   1      15.571  52.582  -5.273 -0.07 -0.03    +0.194 C 
DOCKED: ATOM      2  C   UNL d   1      16.104  51.219  -4.828 -0.12 -0.03    +0.194 C 
DOCKED: ATOM      3  C   UNL d   1      16.040  50.189  -5.958 -0.08 -0.03    +0.194 C 
DOCKED: ATOM      4  C   UNL d   1      16.696  50.672  -7.250 -0.02 -0.02    +0.194 C 
DOCKED: ATOM      5  C   UNL d   1      16.279  52.076  -7.670 -0.01 -0.01    +0.194 C 
DOCKED: ATOM      6  C   UNL d   1      16.283  53.092  -6.526 -0.01 -0.02    +0.194 C 
DOCKED: ENDROOT
DOCKED: BRANCH   1   7
DOCKED: ATOM      7  O   UNL d   1      15.823  53.522  -4.226 -0.10 +0.05    -0.278 OA
DOCKED: BRANCH   7   8
DOCKED: ATOM      8  P   UNL d   1      14.583  54.312  -3.600 -0.20 -0.18    +0.473 P 
DOCKED: ATOM      9  O   UNL d   1      13.297  54.149  -4.331 -0.18 +0.06    -0.228 OA
DOCKED: BRANCH   8  10
DOCKED: ATOM     10  O   UNL d   1      14.518  53.796  -2.092 -0.39 +0.28    -0.303 OA
DOCKED: ATOM     11  H   UNL d   1      14.583  54.555  -1.483 -0.35 -0.52    +0.222 HD
DOCKED: ENDBRANCH   8  10
DOCKED: BRANCH   8  12
DOCKED: ATOM     12  O   UNL d   1      15.093  55.805  -3.419 -0.10 +0.11    -0.303 OA
DOCKED: ATOM     13  H   UNL d   1      15.533  56.163  -4.223 +0.04 -0.05    +0.222 HD
DOCKED: ENDBRANCH   8  12
DOCKED: ENDBRANCH   7   8
DOCKED: ENDBRANCH   1   7
DOCKED: BRANCH   2  14
DOCKED: ATOM     14  O   UNL d   1      17.470  51.363  -4.418 -0.07 +0.04    -0.278 OA
DOCKED: BRANCH  14  15
DOCKED: ATOM     15  P   UNL d   1      17.957  50.431  -3.210 -0.07 -0.15    +0.473 P 
DOCKED: ATOM     16  O   UNL d   1      18.572  51.123  -2.034 -0.27 +0.07    -0.228 OA
DOCKED: BRANCH  15  17
DOCKED: ATOM     17  O   UNL d   1      16.661  49.590  -2.823 -0.22 +0.13    -0.303 OA
DOCKED: ATOM     18  H   UNL d   1      16.588  48.784  -3.371 -0.25 -0.10    +0.222 HD
DOCKED: ENDBRANCH  15  17
DOCKED: BRANCH  15  19
DOCKED: ATOM     19  O   UNL d   1      18.862  49.323  -3.904 +0.01 +0.10    -0.303 OA
DOCKED: ATOM     20  H   UNL d   1      18.357  48.510  -4.090 -0.17 -0.09    +0.222 HD
DOCKED: ENDBRANCH  15  19
DOCKED: ENDBRANCH  14  15
DOCKED: ENDBRANCH   2  14
DOCKED: BRANCH   6  21
DOCKED: ATOM     21  O   UNL d   1      15.560  54.232  -6.984 -0.00 +0.02    -0.278 OA
DOCKED: BRANCH  21  22
DOCKED: ATOM     22  P   UNL d   1      16.050  55.696  -6.581 +0.01 -0.03    +0.473 P 
DOCKED: ATOM     23  O   UNL d   1      15.024  56.690  -6.153 -0.00 +0.02    -0.228 OA
DOCKED: BRANCH  22  24
DOCKED: ATOM     24  O   UNL d   1      17.165  55.377  -5.491 -0.01 +0.03    -0.303 OA
DOCKED: ATOM     25  H   UNL d   1      16.709  55.153  -4.640 +0.04 -0.03    +0.222 HD
DOCKED: ENDBRANCH  22  24
DOCKED: BRANCH  22  26
DOCKED: ATOM     26  O   UNL d   1      16.937  56.103  -7.853 -0.00 +0.01    -0.303 OA
DOCKED: ATOM     27  H   UNL d   1      17.872  56.194  -7.577 +0.00 -0.01    +0.222 HD
DOCKED: ENDBRANCH  22  26
DOCKED: ENDBRANCH  21  22
DOCKED: ENDBRANCH   6  21
DOCKED: BRANCH   3  28
DOCKED: ATOM     28  O   UNL d   1      16.799  49.058  -5.550 -0.09 +0.04    -0.278 OA
DOCKED: BRANCH  28  29
DOCKED: ATOM     29  P   UNL d   1      16.121  47.618  -5.478 -0.22 -0.09    +0.473 P 
DOCKED: ATOM     30  O   UNL d   1      15.317  47.350  -4.258 -0.42 +0.06    -0.228 OA
DOCKED: BRANCH  29  31
DOCKED: ATOM     31  O   UNL d   1      15.345  47.605  -6.877 -0.20 +0.05    -0.303 OA
DOCKED: ATOM     32  H   UNL d   1      15.808  48.213  -7.499 +0.08 -0.03    +0.222 HD
DOCKED: ENDBRANCH  29  31
DOCKED: BRANCH  29  33
DOCKED: ATOM     33  O   UNL d   1      17.357  46.653  -5.752 -0.25 +0.04    -0.303 OA
DOCKED: ATOM     34  H   UNL d   1      17.243  46.229  -6.637 +0.10 -0.03    +0.222 HD
DOCKED: ENDBRANCH  29  33
DOCKED: ENDBRANCH  28  29
DOCKED: ENDBRANCH   3  28
DOCKED: BRANCH   5  35
DOCKED: ATOM     35  O   UNL d   1      17.257  52.504  -8.615 +0.00 +0.01    -0.278 OA
DOCKED: BRANCH  35  36
DOCKED: ATOM     36  P   UNL d   1      18.762  52.765  -8.153 +0.00 -0.01    +0.473 P 
DOCKED: ATOM     37  O   UNL d   1      19.793  52.668  -9.232 +0.00 +0.00    -0.228 OA
DOCKED: BRANCH  36  38
DOCKED: ATOM     38  O   UNL d   1      18.651  54.204  -7.481 -0.00 +0.01    -0.303 OA
DOCKED: ATOM     39  H   UNL d   1      17.705  54.454  -7.411 +0.00 -0.01    +0.222 HD
DOCKED: ENDBRANCH  36  38
DOCKED: BRANCH  36  40
DOCKED: ATOM     40  O   UNL d   1      18.915  51.775  -6.918 -0.00 +0.01    -0.303 OA
DOCKED: ATOM     41  H   UNL d   1      19.198  50.878  -7.202 +0.01 -0.01    +0.222 HD
DOCKED: ENDBRANCH  36  40
DOCKED: ENDBRANCH  35  36
DOCKED: ENDBRANCH   5  35
DOCKED: BRANCH   4  42
DOCKED: ATOM     42  O   UNL d   1      16.275  49.780  -8.287 -0.02 +0.02    -0.278 OA
DOCKED: BRANCH  42  43
DOCKED: ATOM     43  P   UNL d   1      17.382  48.977  -9.109 +0.00 -0.03    +0.473 P 
DOCKED: ATOM     44  O   UNL d   1      17.093  48.679 -10.540 -0.02 +0.01    -0.228 OA
DOCKED: BRANCH  43  45
DOCKED: ATOM     45  O   UNL d   1      18.691  49.851  -8.878 -0.00 +0.01    -0.303 OA
DOCKED: ATOM     46  H   UNL d   1      18.489  50.808  -8.887 +0.00 -0.01    +0.222 HD
DOCKED: ENDBRANCH  43  45
DOCKED: BRANCH  43  47
DOCKED: ATOM     47  O   UNL d   1      17.673  47.702  -8.182 -0.04 +0.02    -0.303 OA
DOCKED: ATOM     48  H   UNL d   1      17.467  47.926  -7.251 +0.07 -0.02    +0.222 HD
DOCKED: ENDBRANCH  43  47
DOCKED: ENDBRANCH  42  43
DOCKED: ENDBRANCH   4  42
DOCKED: TORSDOF 24
DOCKED: TER
DOCKED: ENDMDL
________________________________________________________________________________


	BEGINNING GENETIC ALGORITHM DOCKING 21 of 100
Run: 21 Seed: 2133889112 1801824371 [ Run 21 of 100 GA/GALS ]
Beginning LAMARCKIAN GENETIC ALGORITHM (LGA), with a maximum of 25000000 energy evaluations.

Final-Value: -18.087


	FINAL GENETIC ALGORITHM DOCKED STATE
	_______________________________________________


Detailed state:  trans 26.339 36.909 -3.464 quatxyzw -0.914143 0.359957 -0.172533 0.070755 center 0.035 0.082 -0.065 ntor 24 76.8875 126.3623 69.8227 103.2261 -12.8856 -141.8654 -122.7962 17.3862 118.0053 -25.2974 1.5189 -168.2158 -73.8313 -76.7553 -42.1932 -8.3752 104.6683 -33.6187 -151.0482 -15.1156 14.3545 -21.7365 -25.1547 176.9408
State:	 26.339  36.909  -3.464  -0.916  0.361 -0.173 171.885     76.89  126.36   69.82  103.23  -12.89 -141.87 -122.80   17.39  118.01  -25.30    1.52 -168.22  -73.83  -76.76  -42.19   -8.38  104.67  -33.62 -151.05  -15.12   14.35  -21.74  -25.15  176.94

DOCKED: MODEL       21
DOCKED: USER    Run = 21
DOCKED: USER    DPF = D:/Protein_go_brrr/autodock/final/2DN3/IHP/dock.dpf
DOCKED: USER  
DOCKED: USER    Estimated Free Energy of Binding    =   +3.37 kcal/mol  [=(1)+(2)+(3)-(4)]
DOCKED: USER    
DOCKED: USER    (1) Final Intermolecular Energy     =   -3.79 kcal/mol
DOCKED: USER        vdW + Hbond + desolv Energy     =   -3.79 kcal/mol
DOCKED: USER        Electrostatic Energy            =   -0.00 kcal/mol
DOCKED: USER    (2) Final Total Internal Energy     =  -14.30 kcal/mol
DOCKED: USER    (3) Torsional Free Energy           =   +7.16 kcal/mol
DOCKED: USER    (4) Unbound System's Energy  [=(2)] =  -14.30 kcal/mol
DOCKED: USER    
DOCKED: USER    
DOCKED: USER    NEWDPF move IHP_ideal_opt.pdbqt
DOCKED: USER    NEWDPF about 0.035000 0.082000 -0.065000
DOCKED: USER    NEWDPF tran0 26.338987 36.909372 -3.463618
DOCKED: USER    NEWDPF quaternion0 -0.914143 0.359957 -0.172533 0.070755
DOCKED: USER    NEWDPF axisangle0 -0.916440 0.360861 -0.172966 171.885238
DOCKED: USER    NEWDPF quat0 -0.916440 0.360861 -0.172966 171.885238
DOCKED: USER    NEWDPF dihe0 76.89 126.36 69.82 103.23 -12.89 -141.87 -122.80 17.39 118.01 -25.30 1.52 -168.22 -73.83 -76.76 -42.19 -8.38 104.67 -33.62 -151.05 -15.12 14.35 -21.74 -25.15 176.94 
DOCKED: USER  keepresnum = 1 
DOCKED: USER  
DOCKED: REMARK  24 active torsions:
DOCKED: REMARK  status: ('A' for Active; 'I' for Inactive)
DOCKED: REMARK    1  A    between atoms: C_1  and  O_7 
DOCKED: REMARK    2  A    between atoms: C_2  and  O_12 
DOCKED: REMARK    3  A    between atoms: C_3  and  O_17 
DOCKED: REMARK    4  A    between atoms: C_4  and  O_22 
DOCKED: REMARK    5  A    between atoms: C_5  and  O_27 
DOCKED: REMARK    6  A    between atoms: C_6  and  O_32 
DOCKED: REMARK    7  A    between atoms: O_7  and  P_8 
DOCKED: REMARK    8  A    between atoms: P_8  and  O_10 
DOCKED: REMARK    9  A    between atoms: P_8  and  O_11 
DOCKED: REMARK   10  A    between atoms: O_12  and  P_13 
DOCKED: REMARK   11  A    between atoms: P_13  and  O_15 
DOCKED: REMARK   12  A    between atoms: P_13  and  O_16 
DOCKED: REMARK   13  A    between atoms: O_17  and  P_18 
DOCKED: REMARK   14  A    between atoms: P_18  and  O_20 
DOCKED: REMARK   15  A    between atoms: P_18  and  O_21 
DOCKED: REMARK   16  A    between atoms: O_22  and  P_23 
DOCKED: REMARK   17  A    between atoms: P_23  and  O_25 
DOCKED: REMARK   18  A    between atoms: P_23  and  O_26 
DOCKED: REMARK   19  A    between atoms: O_27  and  P_28 
DOCKED: REMARK   20  A    between atoms: P_28  and  O_30 
DOCKED: REMARK   21  A    between atoms: P_28  and  O_31 
DOCKED: REMARK   22  A    between atoms: O_32  and  P_33 
DOCKED: REMARK   23  A    between atoms: P_33  and  O_35 
DOCKED: REMARK   24  A    between atoms: P_33  and  O_36 
DOCKED: USER                              x       y       z     vdW  Elec       q    Type
DOCKED: USER                           _______ _______ _______ _____ _____    ______ ____
DOCKED: ROOT
DOCKED: ATOM      1  C   UNL d   1      28.008  36.564  -3.745 -0.06 +0.02    +0.194 C 
DOCKED: ATOM      2  C   UNL d   1      27.609  38.036  -3.863 -0.13 +0.02    +0.194 C 
DOCKED: ATOM      3  C   UNL d   1      26.292  38.207  -4.624 -0.18 +0.02    +0.194 C 
DOCKED: ATOM      4  C   UNL d   1      25.161  37.344  -4.069 -0.14 +0.01    +0.194 C 
DOCKED: ATOM      5  C   UNL d   1      25.549  35.891  -3.827 -0.18 -0.00    +0.194 C 
DOCKED: ATOM      6  C   UNL d   1      26.896  35.720  -3.121 -0.11 +0.01    +0.194 C 
DOCKED: ENDROOT
DOCKED: BRANCH   1   7
DOCKED: ATOM      7  O   UNL d   1      29.144  36.478  -2.882 -0.02 -0.04    -0.278 OA
DOCKED: BRANCH   7   8
DOCKED: ATOM      8  P   UNL d   1      28.895  36.377  -1.307 -0.04 +0.09    +0.473 P 
DOCKED: ATOM      9  O   UNL d   1      27.577  36.889  -0.843 -0.14 -0.03    -0.228 OA
DOCKED: BRANCH   8  10
DOCKED: ATOM     10  O   UNL d   1      29.121  34.833  -0.977 -0.03 -0.11    -0.303 OA
DOCKED: ATOM     11  H   UNL d   1      28.315  34.330  -1.199 +0.05 +0.07    +0.222 HD
DOCKED: ENDBRANCH   8  10
DOCKED: BRANCH   8  12
DOCKED: ATOM     12  O   UNL d   1      30.172  37.049  -0.643 -0.01 -0.06    -0.303 OA
DOCKED: ATOM     13  H   UNL d   1      30.125  38.032  -0.622 +0.03 +0.04    +0.222 HD
DOCKED: ENDBRANCH   8  12
DOCKED: ENDBRANCH   7   8
DOCKED: ENDBRANCH   1   7
DOCKED: BRANCH   2  14
DOCKED: ATOM     14  O   UNL d   1      27.451  38.584  -2.548 -0.15 -0.03    -0.278 OA
DOCKED: BRANCH  14  15
DOCKED: ATOM     15  P   UNL d   1      28.458  39.759  -2.137 -0.05 +0.07    +0.473 P 
DOCKED: ATOM     16  O   UNL d   1      29.737  39.849  -2.909 -0.03 -0.04    -0.228 OA
DOCKED: BRANCH  15  17
DOCKED: ATOM     17  O   UNL d   1      27.576  41.081  -2.248 -0.10 -0.06    -0.303 OA
DOCKED: ATOM     18  H   UNL d   1      26.845  40.964  -2.885 +0.07 +0.04    +0.222 HD
DOCKED: ENDBRANCH  15  17
DOCKED: BRANCH  15  19
DOCKED: ATOM     19  O   UNL d   1      28.617  39.612  -0.561 -0.09 -0.05    -0.303 OA
DOCKED: ATOM     20  H   UNL d   1      28.726  38.681  -0.295 +0.05 +0.03    +0.222 HD
DOCKED: ENDBRANCH  15  19
DOCKED: ENDBRANCH  14  15
DOCKED: ENDBRANCH   2  14
DOCKED: BRANCH   6  21
DOCKED: ATOM     21  O   UNL d   1      27.271  34.353  -3.276 -0.02 -0.01    -0.278 OA
DOCKED: BRANCH  21  22
DOCKED: ATOM     22  P   UNL d   1      26.782  33.272  -2.209 -0.03 +0.03    +0.473 P 
DOCKED: ATOM     23  O   UNL d   1      26.176  33.761  -0.937 -0.16 -0.02    -0.228 OA
DOCKED: BRANCH  22  24
DOCKED: ATOM     24  O   UNL d   1      25.829  32.352  -3.092 -0.08 +0.07    -0.303 OA
DOCKED: ATOM     25  H   UNL d   1      24.959  32.815  -3.191 +0.09 -0.07    +0.222 HD
DOCKED: ENDBRANCH  22  24
DOCKED: BRANCH  22  26
DOCKED: ATOM     26  O   UNL d   1      28.085  32.350  -2.059 -0.03 -0.08    -0.303 OA
DOCKED: ATOM     27  H   UNL d   1      28.877  32.922  -1.992 +0.03 +0.09    +0.222 HD
DOCKED: ENDBRANCH  22  26
DOCKED: ENDBRANCH  21  22
DOCKED: ENDBRANCH   6  21
DOCKED: BRANCH   3  28
DOCKED: ATOM     28  O   UNL d   1      25.865  39.551  -4.444 -0.21 -0.04    -0.278 OA
DOCKED: BRANCH  28  29
DOCKED: ATOM     29  P   UNL d   1      26.342  40.688  -5.452 -0.10 +0.07    +0.473 P 
DOCKED: ATOM     30  O   UNL d   1      27.716  40.529  -5.993 -0.03 -0.03    -0.228 OA
DOCKED: BRANCH  29  31
DOCKED: ATOM     31  O   UNL d   1      25.138  40.651  -6.505 -0.09 -0.05    -0.303 OA
DOCKED: ATOM     32  H   UNL d   1      25.205  39.819  -7.029 +0.05 +0.03    +0.222 HD
DOCKED: ENDBRANCH  29  31
DOCKED: BRANCH  29  33
DOCKED: ATOM     33  O   UNL d   1      26.044  42.015  -4.624 -0.14 -0.05    -0.303 OA
DOCKED: ATOM     34  H   UNL d   1      26.744  42.127  -3.934 +0.06 +0.04    +0.222 HD
DOCKED: ENDBRANCH  29  33
DOCKED: ENDBRANCH  28  29
DOCKED: ENDBRANCH   3  28
DOCKED: BRANCH   5  35
DOCKED: ATOM     35  O   UNL d   1      24.550  35.363  -2.958 -0.23 +0.03    -0.278 OA
DOCKED: BRANCH  35  36
DOCKED: ATOM     36  P   UNL d   1      23.435  34.372  -3.523 -0.23 -0.08    +0.473 P 
DOCKED: ATOM     37  O   UNL d   1      22.927  33.353  -2.553 -0.44 +0.07    -0.228 OA
DOCKED: BRANCH  36  38
DOCKED: ATOM     38  O   UNL d   1      22.326  35.391  -4.042 -0.81 -0.01    -0.303 OA
DOCKED: ATOM     39  H   UNL d   1      22.758  36.087  -4.583 +0.10 -0.00    +0.222 HD
DOCKED: ENDBRANCH  36  38
DOCKED: BRANCH  36  40
DOCKED: ATOM     40  O   UNL d   1      24.109  33.827  -4.856 -0.11 +0.08    -0.303 OA
DOCKED: ATOM     41  H   UNL d   1      24.208  34.536  -5.530 +0.07 -0.03    +0.222 HD
DOCKED: ENDBRANCH  36  40
DOCKED: ENDBRANCH  35  36
DOCKED: ENDBRANCH   5  35
DOCKED: BRANCH   4  42
DOCKED: ATOM     42  O   UNL d   1      24.120  37.344  -5.051 -0.18 -0.01    -0.278 OA
DOCKED: BRANCH  42  43
DOCKED: ATOM     43  P   UNL d   1      24.392  36.652  -6.463 -0.04 +0.02    +0.473 P 
DOCKED: ATOM     44  O   UNL d   1      25.610  35.804  -6.588 -0.02 +0.00    -0.228 OA
DOCKED: BRANCH  43  45
DOCKED: ATOM     45  O   UNL d   1      23.029  35.879  -6.740 -0.05 -0.01    -0.303 OA
DOCKED: ATOM     46  H   UNL d   1      22.930  35.105  -6.151 +0.09 -0.01    +0.222 HD
DOCKED: ENDBRANCH  43  45
DOCKED: BRANCH  43  47
DOCKED: ATOM     47  O   UNL d   1      24.289  37.874  -7.495 -0.04 -0.04    -0.303 OA
DOCKED: ATOM     48  H   UNL d   1      24.265  38.716  -6.996 +0.06 +0.03    +0.222 HD
DOCKED: ENDBRANCH  43  47
DOCKED: ENDBRANCH  42  43
DOCKED: ENDBRANCH   4  42
DOCKED: TORSDOF 24
DOCKED: TER
DOCKED: ENDMDL
________________________________________________________________________________


	BEGINNING GENETIC ALGORITHM DOCKING 22 of 100
Run: 22 Seed: 97338756 186744068 [ Run 22 of 100 GA/GALS ]
Beginning LAMARCKIAN GENETIC ALGORITHM (LGA), with a maximum of 25000000 energy evaluations.

Final-Value: -17.418


	FINAL GENETIC ALGORITHM DOCKED STATE
	_______________________________________________


Detailed state:  trans 35.679 19.671 32.973 quatxyzw -0.280461 0.204191 -0.695488 -0.629241 center 0.035 0.082 -0.065 ntor 24 -153.4921 -14.4771 -180.0000 -35.6016 104.8853 137.5446 52.6499 -84.6166 109.7868 100.5994 2.3356 -150.7618 28.8890 172.6507 -100.9465 -121.2513 121.0853 -15.5499 -8.2811 17.5875 -16.7525 3.2297 -1.8534 -179.4102
State:	 35.679  19.671  32.973  -0.361  0.263 -0.895 -102.012   -153.49  -14.48 -180.00  -35.60  104.89  137.54   52.65  -84.62  109.79  100.60    2.34 -150.76   28.89  172.65 -100.95 -121.25  121.09  -15.55   -8.28   17.59  -16.75    3.23   -1.85 -179.41

DOCKED: MODEL       22
DOCKED: USER    Run = 22
DOCKED: USER    DPF = D:/Protein_go_brrr/autodock/final/2DN3/IHP/dock.dpf
DOCKED: USER  
DOCKED: USER    Estimated Free Energy of Binding    =   +4.78 kcal/mol  [=(1)+(2)+(3)-(4)]
DOCKED: USER    
DOCKED: USER    (1) Final Intermolecular Energy     =   -2.38 kcal/mol
DOCKED: USER        vdW + Hbond + desolv Energy     =   -2.45 kcal/mol
DOCKED: USER        Electrostatic Energy            =   +0.08 kcal/mol
DOCKED: USER    (2) Final Total Internal Energy     =  -15.04 kcal/mol
DOCKED: USER    (3) Torsional Free Energy           =   +7.16 kcal/mol
DOCKED: USER    (4) Unbound System's Energy  [=(2)] =  -15.04 kcal/mol
DOCKED: USER    
DOCKED: USER    
DOCKED: USER    NEWDPF move IHP_ideal_opt.pdbqt
DOCKED: USER    NEWDPF about 0.035000 0.082000 -0.065000
DOCKED: USER    NEWDPF tran0 35.678787 19.671051 32.973203
DOCKED: USER    NEWDPF quaternion0 -0.280461 0.204191 -0.695488 -0.629241
DOCKED: USER    NEWDPF axisangle0 -0.360856 0.262723 -0.894852 -102.011676
DOCKED: USER    NEWDPF quat0 -0.360856 0.262723 -0.894852 -102.011676
DOCKED: USER    NEWDPF dihe0 -153.49 -14.48 -180.00 -35.60 104.89 137.54 52.65 -84.62 109.79 100.60 2.34 -150.76 28.89 172.65 -100.95 -121.25 121.09 -15.55 -8.28 17.59 -16.75 3.23 -1.85 -179.41 
DOCKED: USER  keepresnum = 1 
DOCKED: USER  
DOCKED: REMARK  24 active torsions:
DOCKED: REMARK  status: ('A' for Active; 'I' for Inactive)
DOCKED: REMARK    1  A    between atoms: C_1  and  O_7 
DOCKED: REMARK    2  A    between atoms: C_2  and  O_12 
DOCKED: REMARK    3  A    between atoms: C_3  and  O_17 
DOCKED: REMARK    4  A    between atoms: C_4  and  O_22 
DOCKED: REMARK    5  A    between atoms: C_5  and  O_27 
DOCKED: REMARK    6  A    between atoms: C_6  and  O_32 
DOCKED: REMARK    7  A    between atoms: O_7  and  P_8 
DOCKED: REMARK    8  A    between atoms: P_8  and  O_10 
DOCKED: REMARK    9  A    between atoms: P_8  and  O_11 
DOCKED: REMARK   10  A    between atoms: O_12  and  P_13 
DOCKED: REMARK   11  A    between atoms: P_13  and  O_15 
DOCKED: REMARK   12  A    between atoms: P_13  and  O_16 
DOCKED: REMARK   13  A    between atoms: O_17  and  P_18 
DOCKED: REMARK   14  A    between atoms: P_18  and  O_20 
DOCKED: REMARK   15  A    between atoms: P_18  and  O_21 
DOCKED: REMARK   16  A    between atoms: O_22  and  P_23 
DOCKED: REMARK   17  A    between atoms: P_23  and  O_25 
DOCKED: REMARK   18  A    between atoms: P_23  and  O_26 
DOCKED: REMARK   19  A    between atoms: O_27  and  P_28 
DOCKED: REMARK   20  A    between atoms: P_28  and  O_30 
DOCKED: REMARK   21  A    between atoms: P_28  and  O_31 
DOCKED: REMARK   22  A    between atoms: O_32  and  P_33 
DOCKED: REMARK   23  A    between atoms: P_33  and  O_35 
DOCKED: REMARK   24  A    between atoms: P_33  and  O_36 
DOCKED: USER                              x       y       z     vdW  Elec       q    Type
DOCKED: USER                           _______ _______ _______ _____ _____    ______ ____
DOCKED: ROOT
DOCKED: ATOM      1  C   UNL d   1      35.451  18.596  34.306 -0.00 -0.02    +0.194 C 
DOCKED: ATOM      2  C   UNL d   1      34.664  19.906  34.372 -0.02 -0.02    +0.194 C 
DOCKED: ATOM      3  C   UNL d   1      35.520  21.103  33.951 -0.08 -0.00    +0.194 C 
DOCKED: ATOM      4  C   UNL d   1      36.203  20.907  32.600 -0.15 -0.01    +0.194 C 
DOCKED: ATOM      5  C   UNL d   1      36.905  19.564  32.448 -0.07 -0.03    +0.194 C 
DOCKED: ATOM      6  C   UNL d   1      36.072  18.373  32.927 -0.03 -0.04    +0.194 C 
DOCKED: ENDROOT
DOCKED: BRANCH   1   7
DOCKED: ATOM      7  O   UNL d   1      34.543  17.518  34.544 +0.00 +0.03    -0.278 OA
DOCKED: BRANCH   7   8
DOCKED: ATOM      8  P   UNL d   1      34.947  16.410  35.622 +0.01 -0.02    +0.473 P 
DOCKED: ATOM      9  O   UNL d   1      34.702  16.791  37.040 +0.00 +0.00    -0.228 OA
DOCKED: BRANCH   8  10
DOCKED: ATOM     10  O   UNL d   1      34.131  15.116  35.170 +0.00 +0.02    -0.303 OA
DOCKED: ATOM     11  H   UNL d   1      34.258  14.967  34.214 +0.01 -0.02    +0.222 HD
DOCKED: ENDBRANCH   8  10
DOCKED: BRANCH   8  12
DOCKED: ATOM     12  O   UNL d   1      36.440  16.006  35.260 +0.00 +0.01    -0.303 OA
DOCKED: ATOM     13  H   UNL d   1      36.532  15.645  34.350 +0.01 -0.02    +0.222 HD
DOCKED: ENDBRANCH   8  12
DOCKED: ENDBRANCH   7   8
DOCKED: ENDBRANCH   1   7
DOCKED: BRANCH   2  14
DOCKED: ATOM     14  O   UNL d   1      33.537  19.818  33.492 -0.04 +0.06    -0.278 OA
DOCKED: BRANCH  14  15
DOCKED: ATOM     15  P   UNL d   1      32.232  20.643  33.916 -0.06 -0.07    +0.473 P 
DOCKED: ATOM     16  O   UNL d   1      30.928  19.909  33.870 -0.06 +0.03    -0.228 OA
DOCKED: BRANCH  15  17
DOCKED: ATOM     17  O   UNL d   1      32.578  21.196  35.370 -0.02 +0.01    -0.303 OA
DOCKED: ATOM     18  H   UNL d   1      33.089  22.026  35.318 +0.04 +0.00    +0.222 HD
DOCKED: ENDBRANCH  15  17
DOCKED: BRANCH  15  19
DOCKED: ATOM     19  O   UNL d   1      32.301  21.972  33.045 -0.22 +0.08    -0.303 OA
DOCKED: ATOM     20  H   UNL d   1      32.714  22.705  33.537 +0.05 -0.03    +0.222 HD
DOCKED: ENDBRANCH  15  19
DOCKED: ENDBRANCH  14  15
DOCKED: ENDBRANCH   2  14
DOCKED: BRANCH   6  21
DOCKED: ATOM     21  O   UNL d   1      36.965  17.267  33.044 -0.01 +0.04    -0.278 OA
DOCKED: BRANCH  21  22
DOCKED: ATOM     22  P   UNL d   1      36.724  15.958  32.164 -0.01 -0.11    +0.473 P 
DOCKED: ATOM     23  O   UNL d   1      35.559  15.088  32.499 -0.01 +0.05    -0.228 OA
DOCKED: BRANCH  22  24
DOCKED: ATOM     24  O   UNL d   1      36.707  16.557  30.689 -0.09 +0.16    -0.303 OA
DOCKED: ATOM     25  H   UNL d   1      37.399  17.265  30.636 +0.05 -0.08    +0.222 HD
DOCKED: ENDBRANCH  22  24
DOCKED: BRANCH  22  26
DOCKED: ATOM     26  O   UNL d   1      38.164  15.258  32.220 -0.00 +0.03    -0.303 OA
DOCKED: ATOM     27  H   UNL d   1      38.859  15.948  32.204 +0.02 -0.02    +0.222 HD
DOCKED: ENDBRANCH  22  26
DOCKED: ENDBRANCH  21  22
DOCKED: ENDBRANCH   6  21
DOCKED: BRANCH   3  28
DOCKED: ATOM     28  O   UNL d   1      34.648  22.212  33.775 -0.16 +0.01    -0.278 OA
DOCKED: BRANCH  28  29
DOCKED: ATOM     29  P   UNL d   1      34.744  23.472  34.744 -0.03 +0.05    +0.473 P 
DOCKED: ATOM     30  O   UNL d   1      33.461  24.168  35.020 -0.10 -0.04    -0.228 OA
DOCKED: BRANCH  29  31
DOCKED: ATOM     31  O   UNL d   1      35.493  22.808  35.993 -0.02 -0.04    -0.303 OA
DOCKED: ATOM     32  H   UNL d   1      36.434  23.097  35.985 +0.03 +0.03    +0.222 HD
DOCKED: ENDBRANCH  29  31
DOCKED: BRANCH  29  33
DOCKED: ATOM     33  O   UNL d   1      35.897  24.332  34.061 -0.22 -0.08    -0.303 OA
DOCKED: ATOM     34  H   UNL d   1      36.484  23.728  33.542 +0.04 +0.08    +0.222 HD
DOCKED: ENDBRANCH  29  33
DOCKED: ENDBRANCH  28  29
DOCKED: ENDBRANCH   3  28
DOCKED: BRANCH   5  35
DOCKED: ATOM     35  O   UNL d   1      37.115  19.393  31.047 -0.14 +0.08    -0.278 OA
DOCKED: BRANCH  35  36
DOCKED: ATOM     36  P   UNL d   1      38.564  19.024  30.490 -0.11 -0.09    +0.473 P 
DOCKED: ATOM     37  O   UNL d   1      38.606  18.541  29.075 -0.20 +0.06    -0.228 OA
DOCKED: BRANCH  36  38
DOCKED: ATOM     38  O   UNL d   1      39.365  20.377  30.744 -0.16 +0.01    -0.303 OA
DOCKED: ATOM     39  H   UNL d   1      39.097  20.751  31.611 +0.08 +0.01    +0.222 HD
DOCKED: ENDBRANCH  36  38
DOCKED: BRANCH  36  40
DOCKED: ATOM     40  O   UNL d   1      39.116  18.036  31.608 -0.03 +0.03    -0.303 OA
DOCKED: ATOM     41  H   UNL d   1      38.537  17.250  31.717 +0.04 -0.03    +0.222 HD
DOCKED: ENDBRANCH  36  40
DOCKED: ENDBRANCH  35  36
DOCKED: ENDBRANCH   5  35
DOCKED: BRANCH   4  42
DOCKED: ATOM     42  O   UNL d   1      37.208  21.921  32.493 -0.67 -0.06    -0.278 OA
DOCKED: BRANCH  42  43
DOCKED: ATOM     43  P   UNL d   1      38.494  21.835  33.433 -0.06 +0.07    +0.473 P 
DOCKED: ATOM     44  O   UNL d   1      38.954  20.479  33.844 -0.03 -0.01    -0.228 OA
DOCKED: BRANCH  43  45
DOCKED: ATOM     45  O   UNL d   1      39.577  22.671  32.620 -0.08 -0.07    -0.303 OA
DOCKED: ATOM     46  H   UNL d   1      39.867  22.195  31.816 +0.07 +0.04    +0.222 HD
DOCKED: ENDBRANCH  43  45
DOCKED: BRANCH  43  47
DOCKED: ATOM     47  O   UNL d   1      38.140  22.839  34.631 -0.06 -0.05    -0.303 OA
DOCKED: ATOM     48  H   UNL d   1      37.168  22.877  34.743 +0.05 +0.04    +0.222 HD
DOCKED: ENDBRANCH  43  47
DOCKED: ENDBRANCH  42  43
DOCKED: ENDBRANCH   4  42
DOCKED: TORSDOF 24
DOCKED: TER
DOCKED: ENDMDL
________________________________________________________________________________


	BEGINNING GENETIC ALGORITHM DOCKING 23 of 100
Run: 23 Seed: 1235956404 706210220 [ Run 23 of 100 GA/GALS ]
Beginning LAMARCKIAN GENETIC ALGORITHM (LGA), with a maximum of 25000000 energy evaluations.

Final-Value: -16.359


	FINAL GENETIC ALGORITHM DOCKED STATE
	_______________________________________________


Detailed state:  trans 53.503 43.656 6.120 quatxyzw 0.890954 0.322826 0.268658 -0.172647 center 0.035 0.082 -0.065 ntor 24 114.3062 34.8243 21.5076 143.9372 -1.1254 -124.3648 -4.0324 -92.2370 -7.0389 79.7424 119.6281 146.9988 157.1450 168.0122 -1.5793 -78.2668 -38.7069 -153.6310 0.8936 -29.6443 141.5849 9.7204 -40.0229 4.3283
State:	 53.503  43.656   6.120   0.905  0.328  0.273 -160.117    114.31   34.82   21.51  143.94   -1.13 -124.36   -4.03  -92.24   -7.04   79.74  119.63  147.00  157.15  168.01   -1.58  -78.27  -38.71 -153.63    0.89  -29.64  141.58    9.72  -40.02    4.33

DOCKED: MODEL       23
DOCKED: USER    Run = 23
DOCKED: USER    DPF = D:/Protein_go_brrr/autodock/final/2DN3/IHP/dock.dpf
DOCKED: USER  
DOCKED: USER    Estimated Free Energy of Binding    =   +4.40 kcal/mol  [=(1)+(2)+(3)-(4)]
DOCKED: USER    
DOCKED: USER    (1) Final Intermolecular Energy     =   -2.76 kcal/mol
DOCKED: USER        vdW + Hbond + desolv Energy     =   -2.39 kcal/mol
DOCKED: USER        Electrostatic Energy            =   -0.37 kcal/mol
DOCKED: USER    (2) Final Total Internal Energy     =  -13.60 kcal/mol
DOCKED: USER    (3) Torsional Free Energy           =   +7.16 kcal/mol
DOCKED: USER    (4) Unbound System's Energy  [=(2)] =  -13.60 kcal/mol
DOCKED: USER    
DOCKED: USER    
DOCKED: USER    NEWDPF move IHP_ideal_opt.pdbqt
DOCKED: USER    NEWDPF about 0.035000 0.082000 -0.065000
DOCKED: USER    NEWDPF tran0 53.503043 43.656200 6.120244
DOCKED: USER    NEWDPF quaternion0 0.890954 0.322826 0.268658 -0.172647
DOCKED: USER    NEWDPF axisangle0 0.904537 0.327748 0.272754 -160.116495
DOCKED: USER    NEWDPF quat0 0.904537 0.327748 0.272754 -160.116495
DOCKED: USER    NEWDPF dihe0 114.31 34.82 21.51 143.94 -1.13 -124.36 -4.03 -92.24 -7.04 79.74 119.63 147.00 157.15 168.01 -1.58 -78.27 -38.71 -153.63 0.89 -29.64 141.58 9.72 -40.02 4.33 
DOCKED: USER  keepresnum = 1 
DOCKED: USER  
DOCKED: REMARK  24 active torsions:
DOCKED: REMARK  status: ('A' for Active; 'I' for Inactive)
DOCKED: REMARK    1  A    between atoms: C_1  and  O_7 
DOCKED: REMARK    2  A    between atoms: C_2  and  O_12 
DOCKED: REMARK    3  A    between atoms: C_3  and  O_17 
DOCKED: REMARK    4  A    between atoms: C_4  and  O_22 
DOCKED: REMARK    5  A    between atoms: C_5  and  O_27 
DOCKED: REMARK    6  A    between atoms: C_6  and  O_32 
DOCKED: REMARK    7  A    between atoms: O_7  and  P_8 
DOCKED: REMARK    8  A    between atoms: P_8  and  O_10 
DOCKED: REMARK    9  A    between atoms: P_8  and  O_11 
DOCKED: REMARK   10  A    between atoms: O_12  and  P_13 
DOCKED: REMARK   11  A    between atoms: P_13  and  O_15 
DOCKED: REMARK   12  A    between atoms: P_13  and  O_16 
DOCKED: REMARK   13  A    between atoms: O_17  and  P_18 
DOCKED: REMARK   14  A    between atoms: P_18  and  O_20 
DOCKED: REMARK   15  A    between atoms: P_18  and  O_21 
DOCKED: REMARK   16  A    between atoms: O_22  and  P_23 
DOCKED: REMARK   17  A    between atoms: P_23  and  O_25 
DOCKED: REMARK   18  A    between atoms: P_23  and  O_26 
DOCKED: REMARK   19  A    between atoms: O_27  and  P_28 
DOCKED: REMARK   20  A    between atoms: P_28  and  O_30 
DOCKED: REMARK   21  A    between atoms: P_28  and  O_31 
DOCKED: REMARK   22  A    between atoms: O_32  and  P_33 
DOCKED: REMARK   23  A    between atoms: P_33  and  O_35 
DOCKED: REMARK   24  A    between atoms: P_33  and  O_36 
DOCKED: USER                              x       y       z     vdW  Elec       q    Type
DOCKED: USER                           _______ _______ _______ _____ _____    ______ ____
DOCKED: ROOT
DOCKED: ATOM      1  C   UNL d   1      54.352  45.037   5.524 -0.02 -0.02    +0.194 C 
DOCKED: ATOM      2  C   UNL d   1      52.939  44.841   4.972 -0.05 -0.04    +0.194 C 
DOCKED: ATOM      3  C   UNL d   1      52.666  43.378   4.619 -0.06 -0.02    +0.194 C 
DOCKED: ATOM      4  C   UNL d   1      52.978  42.415   5.763 -0.05 -0.03    +0.194 C 
DOCKED: ATOM      5  C   UNL d   1      54.333  42.649   6.419 -0.06 -0.03    +0.194 C 
DOCKED: ATOM      6  C   UNL d   1      54.632  44.120   6.715 -0.05 -0.03    +0.194 C 
DOCKED: ENDROOT
DOCKED: BRANCH   1   7
DOCKED: ATOM      7  O   UNL d   1      54.468  46.385   5.986 -0.01 +0.04    -0.278 OA
DOCKED: BRANCH   7   8
DOCKED: ATOM      8  P   UNL d   1      55.603  47.311   5.350 +0.01 -0.03    +0.473 P 
DOCKED: ATOM      9  O   UNL d   1      56.122  48.380   6.246 +0.00 +0.01    -0.228 OA
DOCKED: BRANCH   8  10
DOCKED: ATOM     10  O   UNL d   1      56.728  46.280   4.884 +0.00 +0.01    -0.303 OA
DOCKED: ATOM     11  H   UNL d   1      56.867  45.612   5.580 +0.00 -0.00    +0.222 HD
DOCKED: ENDBRANCH   8  10
DOCKED: BRANCH   8  12
DOCKED: ATOM     12  O   UNL d   1      55.005  47.801   3.961 +0.00 +0.01    -0.303 OA
DOCKED: ATOM     13  H   UNL d   1      54.180  47.329   3.708 +0.01 -0.02    +0.222 HD
DOCKED: ENDBRANCH   8  12
DOCKED: ENDBRANCH   7   8
DOCKED: ENDBRANCH   1   7
DOCKED: BRANCH   2  14
DOCKED: ATOM     14  O   UNL d   1      51.990  45.257   5.962 -0.13 +0.12    -0.278 OA
DOCKED: BRANCH  14  15
DOCKED: ATOM     15  P   UNL d   1      51.318  46.695   5.750 -0.08 -0.32    +0.473 P 
DOCKED: ATOM     16  O   UNL d   1      51.199  47.567   6.961 -0.14 +0.21    -0.228 OA
DOCKED: BRANCH  15  17
DOCKED: ATOM     17  O   UNL d   1      52.186  47.362   4.593 -0.01 +0.08    -0.303 OA
DOCKED: ATOM     18  H   UNL d   1      53.058  47.647   4.927 +0.02 -0.04    +0.222 HD
DOCKED: ENDBRANCH  15  17
DOCKED: BRANCH  15  19
DOCKED: ATOM     19  O   UNL d   1      49.955  46.388   4.990 -0.09 +0.30    -0.303 OA
DOCKED: ATOM     20  H   UNL d   1      49.242  46.148   5.611 -0.46 -0.57    +0.222 HD
DOCKED: ENDBRANCH  15  19
DOCKED: ENDBRANCH  14  15
DOCKED: ENDBRANCH   2  14
DOCKED: BRANCH   6  21
DOCKED: ATOM     21  O   UNL d   1      56.027  44.210   6.994 -0.01 +0.02    -0.278 OA
DOCKED: BRANCH  21  22
DOCKED: ATOM     22  P   UNL d   1      57.061  43.340   6.145 +0.00 -0.00    +0.473 P 
DOCKED: ATOM     23  O   UNL d   1      56.697  42.983   4.743 -0.00 -0.00    -0.228 OA
DOCKED: BRANCH  22  24
DOCKED: ATOM     24  O   UNL d   1      58.398  44.191   6.291 -0.00 -0.00    -0.303 OA
DOCKED: ATOM     25  H   UNL d   1      58.272  45.049   5.811 +0.00 +0.00    +0.222 HD
DOCKED: ENDBRANCH  22  24
DOCKED: BRANCH  22  26
DOCKED: ATOM     26  O   UNL d   1      57.341  42.110   7.134 -0.00 -0.00    -0.303 OA
DOCKED: ATOM     27  H   UNL d   1      56.504  41.629   7.295 +0.01 -0.00    +0.222 HD
DOCKED: ENDBRANCH  22  26
DOCKED: ENDBRANCH  21  22
DOCKED: ENDBRANCH   6  21
DOCKED: BRANCH   3  28
DOCKED: ATOM     28  O   UNL d   1      51.270  43.247   4.386 -0.09 +0.04    -0.278 OA
DOCKED: BRANCH  28  29
DOCKED: ATOM     29  P   UNL d   1      50.734  42.741   2.974 -0.01 -0.01    +0.473 P 
DOCKED: ATOM     30  O   UNL d   1      50.163  43.791   2.092 -0.02 +0.01    -0.228 OA
DOCKED: BRANCH  29  31
DOCKED: ATOM     31  O   UNL d   1      52.032  41.972   2.442 -0.00 -0.01    -0.303 OA
DOCKED: ATOM     32  H   UNL d   1      52.368  41.388   3.161 +0.03 +0.01    +0.222 HD
DOCKED: ENDBRANCH  29  31
DOCKED: BRANCH  29  33
DOCKED: ATOM     33  O   UNL d   1      49.765  41.548   3.392 -0.08 -0.02    -0.303 OA
DOCKED: ATOM     34  H   UNL d   1      50.128  41.108   4.200 +0.07 +0.02    +0.222 HD
DOCKED: ENDBRANCH  29  33
DOCKED: ENDBRANCH  28  29
DOCKED: ENDBRANCH   3  28
DOCKED: BRANCH   5  35
DOCKED: ATOM     35  O   UNL d   1      54.278  41.971   7.672 -0.07 +0.06    -0.278 OA
DOCKED: BRANCH  35  36
DOCKED: ATOM     36  P   UNL d   1      54.746  40.450   7.785 -0.02 -0.03    +0.473 P 
DOCKED: ATOM     37  O   UNL d   1      55.349  39.868   6.547 -0.01 -0.00    -0.228 OA
DOCKED: BRANCH  36  38
DOCKED: ATOM     38  O   UNL d   1      55.736  40.506   9.032 -0.01 +0.01    -0.303 OA
DOCKED: ATOM     39  H   UNL d   1      56.592  40.891   8.745 +0.01 -0.00    +0.222 HD
DOCKED: ENDBRANCH  36  38
DOCKED: BRANCH  36  40
DOCKED: ATOM     40  O   UNL d   1      53.446  39.737   8.360 -0.09 +0.02    -0.303 OA
DOCKED: ATOM     41  H   UNL d   1      52.624  40.109   7.971 -0.11 -0.03    +0.222 HD
DOCKED: ENDBRANCH  36  40
DOCKED: ENDBRANCH  35  36
DOCKED: ENDBRANCH   5  35
DOCKED: BRANCH   4  42
DOCKED: ATOM     42  O   UNL d   1      53.004  41.099   5.201 -0.05 +0.00    -0.278 OA
DOCKED: BRANCH  42  43
DOCKED: ATOM     43  P   UNL d   1      51.794  40.105   5.509 -0.11 +0.05    +0.473 P 
DOCKED: ATOM     44  O   UNL d   1      52.058  38.968   6.434 -0.53 -0.09    -0.228 OA
DOCKED: BRANCH  43  45
DOCKED: ATOM     45  O   UNL d   1      50.648  41.093   6.001 -0.17 -0.01    -0.303 OA
DOCKED: ATOM     46  H   UNL d   1      50.563  41.867   5.409 +0.05 -0.00    +0.222 HD
DOCKED: ENDBRANCH  43  45
DOCKED: BRANCH  43  47
DOCKED: ATOM     47  O   UNL d   1      51.272  39.702   4.048 -0.04 -0.05    -0.303 OA
DOCKED: ATOM     48  H   UNL d   1      51.377  40.467   3.445 +0.05 +0.02    +0.222 HD
DOCKED: ENDBRANCH  43  47
DOCKED: ENDBRANCH  42  43
DOCKED: ENDBRANCH   4  42
DOCKED: TORSDOF 24
DOCKED: TER
DOCKED: ENDMDL
________________________________________________________________________________


	BEGINNING GENETIC ALGORITHM DOCKING 24 of 100
Run: 24 Seed: 1644600244 1422879136 [ Run 24 of 100 GA/GALS ]
Beginning LAMARCKIAN GENETIC ALGORITHM (LGA), with a maximum of 25000000 energy evaluations.

Final-Value: -16.813


	FINAL GENETIC ALGORITHM DOCKED STATE
	_______________________________________________


Detailed state:  trans 42.358 52.289 17.312 quatxyzw 0.544795 -0.426450 0.556215 -0.460396 center 0.035 0.082 -0.065 ntor 24 -149.3845 -52.6944 150.9025 109.8873 121.1665 93.9762 -36.4098 -0.8871 80.9168 119.9402 178.4907 130.9585 81.2408 81.3631 179.8280 159.6793 56.5044 -179.4462 -34.1009 -29.3405 10.4067 -32.1567 179.9016 24.9661
State:	 42.358  52.289  17.312   0.614 -0.480  0.627 -125.175   -149.38  -52.69  150.90  109.89  121.17   93.98  -36.41   -0.89   80.92  119.94  178.49  130.96   81.24   81.36  179.83  159.68   56.50 -179.45  -34.10  -29.34   10.41  -32.16  179.90   24.97

DOCKED: MODEL       24
DOCKED: USER    Run = 24
DOCKED: USER    DPF = D:/Protein_go_brrr/autodock/final/2DN3/IHP/dock.dpf
DOCKED: USER  
DOCKED: USER    Estimated Free Energy of Binding    =   +3.82 kcal/mol  [=(1)+(2)+(3)-(4)]
DOCKED: USER    
DOCKED: USER    (1) Final Intermolecular Energy     =   -3.34 kcal/mol
DOCKED: USER        vdW + Hbond + desolv Energy     =   -3.02 kcal/mol
DOCKED: USER        Electrostatic Energy            =   -0.32 kcal/mol
DOCKED: USER    (2) Final Total Internal Energy     =  -13.47 kcal/mol
DOCKED: USER    (3) Torsional Free Energy           =   +7.16 kcal/mol
DOCKED: USER    (4) Unbound System's Energy  [=(2)] =  -13.47 kcal/mol
DOCKED: USER    
DOCKED: USER    
DOCKED: USER    NEWDPF move IHP_ideal_opt.pdbqt
DOCKED: USER    NEWDPF about 0.035000 0.082000 -0.065000
DOCKED: USER    NEWDPF tran0 42.358304 52.288815 17.312104
DOCKED: USER    NEWDPF quaternion0 0.544795 -0.426450 0.556215 -0.460396
DOCKED: USER    NEWDPF axisangle0 0.613705 -0.480391 0.626570 -125.174649
DOCKED: USER    NEWDPF quat0 0.613705 -0.480391 0.626570 -125.174649
DOCKED: USER    NEWDPF dihe0 -149.38 -52.69 150.90 109.89 121.17 93.98 -36.41 -0.89 80.92 119.94 178.49 130.96 81.24 81.36 179.83 159.68 56.50 -179.45 -34.10 -29.34 10.41 -32.16 179.90 24.97 
DOCKED: USER  keepresnum = 1 
DOCKED: USER  
DOCKED: REMARK  24 active torsions:
DOCKED: REMARK  status: ('A' for Active; 'I' for Inactive)
DOCKED: REMARK    1  A    between atoms: C_1  and  O_7 
DOCKED: REMARK    2  A    between atoms: C_2  and  O_12 
DOCKED: REMARK    3  A    between atoms: C_3  and  O_17 
DOCKED: REMARK    4  A    between atoms: C_4  and  O_22 
DOCKED: REMARK    5  A    between atoms: C_5  and  O_27 
DOCKED: REMARK    6  A    between atoms: C_6  and  O_32 
DOCKED: REMARK    7  A    between atoms: O_7  and  P_8 
DOCKED: REMARK    8  A    between atoms: P_8  and  O_10 
DOCKED: REMARK    9  A    between atoms: P_8  and  O_11 
DOCKED: REMARK   10  A    between atoms: O_12  and  P_13 
DOCKED: REMARK   11  A    between atoms: P_13  and  O_15 
DOCKED: REMARK   12  A    between atoms: P_13  and  O_16 
DOCKED: REMARK   13  A    between atoms: O_17  and  P_18 
DOCKED: REMARK   14  A    between atoms: P_18  and  O_20 
DOCKED: REMARK   15  A    between atoms: P_18  and  O_21 
DOCKED: REMARK   16  A    between atoms: O_22  and  P_23 
DOCKED: REMARK   17  A    between atoms: P_23  and  O_25 
DOCKED: REMARK   18  A    between atoms: P_23  and  O_26 
DOCKED: REMARK   19  A    between atoms: O_27  and  P_28 
DOCKED: REMARK   20  A    between atoms: P_28  and  O_30 
DOCKED: REMARK   21  A    between atoms: P_28  and  O_31 
DOCKED: REMARK   22  A    between atoms: O_32  and  P_33 
DOCKED: REMARK   23  A    between atoms: P_33  and  O_35 
DOCKED: REMARK   24  A    between atoms: P_33  and  O_36 
DOCKED: USER                              x       y       z     vdW  Elec       q    Type
DOCKED: USER                           _______ _______ _______ _____ _____    ______ ____
DOCKED: ROOT
DOCKED: ATOM      1  C   UNL d   1      43.416  51.765  18.573 -0.06 +0.02    +0.194 C 
DOCKED: ATOM      2  C   UNL d   1      44.101  52.236  17.289 -0.07 +0.01    +0.194 C 
DOCKED: ATOM      3  C   UNL d   1      43.394  51.704  16.041 -0.03 +0.00    +0.194 C 
DOCKED: ATOM      4  C   UNL d   1      41.894  51.987  16.033 -0.17 +0.06    +0.194 C 
DOCKED: ATOM      5  C   UNL d   1      41.189  51.638  17.338 -0.19 +0.08    +0.194 C 
DOCKED: ATOM      6  C   UNL d   1      41.928  52.117  18.588 -0.07 +0.04    +0.194 C 
DOCKED: ENDROOT
DOCKED: BRANCH   1   7
DOCKED: ATOM      7  O   UNL d   1      44.025  52.439  19.677 -0.01 -0.02    -0.278 OA
DOCKED: BRANCH   7   8
DOCKED: ATOM      8  P   UNL d   1      43.932  51.766  21.123 -0.00 +0.04    +0.473 P 
DOCKED: ATOM      9  O   UNL d   1      45.213  51.717  21.880 -0.00 -0.01    -0.228 OA
DOCKED: BRANCH   8  10
DOCKED: ATOM     10  O   UNL d   1      42.795  52.602  21.866 -0.00 -0.03    -0.303 OA
DOCKED: ATOM     11  H   UNL d   1      41.991  52.622  21.314 +0.01 +0.02    +0.222 HD
DOCKED: ENDBRANCH   8  10
DOCKED: BRANCH   8  12
DOCKED: ATOM     12  O   UNL d   1      43.214  50.369  20.882 -0.02 -0.03    -0.303 OA
DOCKED: ATOM     13  H   UNL d   1      42.250  50.393  21.074 +0.03 +0.03    +0.222 HD
DOCKED: ENDBRANCH   8  12
DOCKED: ENDBRANCH   7   8
DOCKED: ENDBRANCH   1   7
DOCKED: BRANCH   2  14
DOCKED: ATOM     14  O   UNL d   1      44.081  53.669  17.248 -0.01 -0.02    -0.278 OA
DOCKED: BRANCH  14  15
DOCKED: ATOM     15  P   UNL d   1      45.446  54.415  17.630 +0.00 +0.02    +0.473 P 
DOCKED: ATOM     16  O   UNL d   1      45.846  55.569  16.766 -0.00 -0.01    -0.228 OA
DOCKED: BRANCH  15  17
DOCKED: ATOM     17  O   UNL d   1      45.249  54.825  19.157 -0.00 -0.02    -0.303 OA
DOCKED: ATOM     18  H   UNL d   1      45.029  54.047  19.704 +0.00 +0.01    +0.222 HD
DOCKED: ENDBRANCH  15  17
DOCKED: BRANCH  15  19
DOCKED: ATOM     19  O   UNL d   1      46.517  53.245  17.750 -0.00 -0.01    -0.303 OA
DOCKED: ATOM     20  H   UNL d   1      46.501  52.660  16.969 +0.03 +0.00    +0.222 HD
DOCKED: ENDBRANCH  15  19
DOCKED: ENDBRANCH  14  15
DOCKED: ENDBRANCH   2  14
DOCKED: BRANCH   6  21
DOCKED: ATOM     21  O   UNL d   1      41.348  51.435  19.697 -0.04 -0.05    -0.278 OA
DOCKED: BRANCH  21  22
DOCKED: ATOM     22  P   UNL d   1      40.137  52.102  20.493 -0.01 +0.08    +0.473 P 
DOCKED: ATOM     23  O   UNL d   1      39.989  51.790  21.944 -0.01 -0.03    -0.228 OA
DOCKED: BRANCH  22  24
DOCKED: ATOM     24  O   UNL d   1      40.340  53.645  20.159 -0.01 -0.05    -0.303 OA
DOCKED: ATOM     25  H   UNL d   1      40.361  53.747  19.174 +0.03 +0.04    +0.222 HD
DOCKED: ENDBRANCH  22  24
DOCKED: BRANCH  22  26
DOCKED: ATOM     26  O   UNL d   1      38.888  51.723  19.562 -0.08 -0.09    -0.303 OA
DOCKED: ATOM     27  H   UNL d   1      38.851  52.343  18.805 +0.05 +0.08    +0.222 HD
DOCKED: ENDBRANCH  22  26
DOCKED: ENDBRANCH  21  22
DOCKED: ENDBRANCH   6  21
DOCKED: BRANCH   3  28
DOCKED: ATOM     28  O   UNL d   1      43.917  52.405  14.920 -0.08 +0.00    -0.278 OA
DOCKED: BRANCH  28  29
DOCKED: ATOM     29  P   UNL d   1      45.333  52.007  14.311 -0.06 -0.04    +0.473 P 
DOCKED: ATOM     30  O   UNL d   1      45.383  51.882  12.832 -0.11 +0.02    -0.228 OA
DOCKED: BRANCH  29  31
DOCKED: ATOM     31  O   UNL d   1      46.251  53.138  14.976 -0.01 +0.00    -0.303 OA
DOCKED: ATOM     32  H   UNL d   1      45.749  53.554  15.715 +0.02 +0.00    +0.222 HD
DOCKED: ENDBRANCH  29  31
DOCKED: BRANCH  29  33
DOCKED: ATOM     33  O   UNL d   1      45.707  50.710  15.155 -0.18 +0.06    -0.303 OA
DOCKED: ATOM     34  H   UNL d   1      44.998  50.032  15.033 -0.36 -0.12    +0.222 HD
DOCKED: ENDBRANCH  29  33
DOCKED: ENDBRANCH  28  29
DOCKED: ENDBRANCH   3  28
DOCKED: BRANCH   5  35
DOCKED: ATOM     35  O   UNL d   1      39.940  52.325  17.299 -0.11 -0.16    -0.278 OA
DOCKED: BRANCH  35  36
DOCKED: ATOM     36  P   UNL d   1      39.887  53.877  16.935 -0.03 +0.18    +0.473 P 
DOCKED: ATOM     37  O   UNL d   1      39.484  54.197  15.531 -0.09 -0.11    -0.228 OA
DOCKED: BRANCH  36  38
DOCKED: ATOM     38  O   UNL d   1      38.892  54.438  18.045 -0.06 -0.08    -0.303 OA
DOCKED: ATOM     39  H   UNL d   1      38.739  53.742  18.720 +0.03 +0.06    +0.222 HD
DOCKED: ENDBRANCH  36  38
DOCKED: BRANCH  36  40
DOCKED: ATOM     40  O   UNL d   1      41.317  54.387  17.410 -0.02 -0.06    -0.303 OA
DOCKED: ATOM     41  H   UNL d   1      42.020  54.154  16.763 +0.03 +0.04    +0.222 HD
DOCKED: ENDBRANCH  36  40
DOCKED: ENDBRANCH  35  36
DOCKED: ENDBRANCH   5  35
DOCKED: BRANCH   4  42
DOCKED: ATOM     42  O   UNL d   1      41.322  51.162  15.012 -0.42 -0.19    -0.278 OA
DOCKED: BRANCH  42  43
DOCKED: ATOM     43  P   UNL d   1      41.296  51.701  13.510 -0.20 +0.25    +0.473 P 
DOCKED: ATOM     44  O   UNL d   1      40.022  51.559  12.752 -0.24 -0.26    -0.228 OA
DOCKED: BRANCH  43  45
DOCKED: ATOM     45  O   UNL d   1      41.795  53.203  13.670 -0.06 -0.06    -0.303 OA
DOCKED: ATOM     46  H   UNL d   1      42.716  53.310  13.358 +0.06 +0.01    +0.222 HD
DOCKED: ENDBRANCH  43  45
DOCKED: BRANCH  43  47
DOCKED: ATOM     47  O   UNL d   1      42.577  51.000  12.848 -0.28 -0.01    -0.303 OA
DOCKED: ATOM     48  H   UNL d   1      43.357  51.146  13.423 -0.23 -0.04    +0.222 HD
DOCKED: ENDBRANCH  43  47
DOCKED: ENDBRANCH  42  43
DOCKED: ENDBRANCH   4  42
DOCKED: TORSDOF 24
DOCKED: TER
DOCKED: ENDMDL
________________________________________________________________________________


	BEGINNING GENETIC ALGORITHM DOCKING 25 of 100
Run: 25 Seed: 708146975 1643860555 [ Run 25 of 100 GA/GALS ]
Beginning LAMARCKIAN GENETIC ALGORITHM (LGA), with a maximum of 25000000 energy evaluations.

Final-Value: -19.000


	FINAL GENETIC ALGORITHM DOCKED STATE
	_______________________________________________


Detailed state:  trans 3.673 53.456 8.069 quatxyzw 0.598725 0.733223 -0.321132 0.028050 center 0.035 0.082 -0.065 ntor 24 119.4936 133.0961 47.4941 92.3202 170.5912 176.3080 -75.8938 -24.6670 -4.8892 60.0890 62.6627 139.8800 -76.7127 -69.2703 71.2267 44.7997 157.8871 -175.8518 -152.6580 -7.9599 15.0074 -15.0649 -175.3953 26.8807
State:	  3.673  53.456   8.069   0.599  0.734 -0.321 176.785    119.49  133.10   47.49   92.32  170.59  176.31  -75.89  -24.67   -4.89   60.09   62.66  139.88  -76.71  -69.27   71.23   44.80  157.89 -175.85 -152.66   -7.96   15.01  -15.06 -175.40   26.88

DOCKED: MODEL       25
DOCKED: USER    Run = 25
DOCKED: USER    DPF = D:/Protein_go_brrr/autodock/final/2DN3/IHP/dock.dpf
DOCKED: USER  
DOCKED: USER    Estimated Free Energy of Binding    =   +4.09 kcal/mol  [=(1)+(2)+(3)-(4)]
DOCKED: USER    
DOCKED: USER    (1) Final Intermolecular Energy     =   -3.07 kcal/mol
DOCKED: USER        vdW + Hbond + desolv Energy     =   -2.98 kcal/mol
DOCKED: USER        Electrostatic Energy            =   -0.09 kcal/mol
DOCKED: USER    (2) Final Total Internal Energy     =  -15.93 kcal/mol
DOCKED: USER    (3) Torsional Free Energy           =   +7.16 kcal/mol
DOCKED: USER    (4) Unbound System's Energy  [=(2)] =  -15.93 kcal/mol
DOCKED: USER    
DOCKED: USER    
DOCKED: USER    NEWDPF move IHP_ideal_opt.pdbqt
DOCKED: USER    NEWDPF about 0.035000 0.082000 -0.065000
DOCKED: USER    NEWDPF tran0 3.672970 53.456188 8.069175
DOCKED: USER    NEWDPF quaternion0 0.598725 0.733223 -0.321132 0.028050
DOCKED: USER    NEWDPF axisangle0 0.598961 0.733511 -0.321258 176.785238
DOCKED: USER    NEWDPF quat0 0.598961 0.733511 -0.321258 176.785238
DOCKED: USER    NEWDPF dihe0 119.49 133.10 47.49 92.32 170.59 176.31 -75.89 -24.67 -4.89 60.09 62.66 139.88 -76.71 -69.27 71.23 44.80 157.89 -175.85 -152.66 -7.96 15.01 -15.06 -175.40 26.88 
DOCKED: USER  keepresnum = 1 
DOCKED: USER  
DOCKED: REMARK  24 active torsions:
DOCKED: REMARK  status: ('A' for Active; 'I' for Inactive)
DOCKED: REMARK    1  A    between atoms: C_1  and  O_7 
DOCKED: REMARK    2  A    between atoms: C_2  and  O_12 
DOCKED: REMARK    3  A    between atoms: C_3  and  O_17 
DOCKED: REMARK    4  A    between atoms: C_4  and  O_22 
DOCKED: REMARK    5  A    between atoms: C_5  and  O_27 
DOCKED: REMARK    6  A    between atoms: C_6  and  O_32 
DOCKED: REMARK    7  A    between atoms: O_7  and  P_8 
DOCKED: REMARK    8  A    between atoms: P_8  and  O_10 
DOCKED: REMARK    9  A    between atoms: P_8  and  O_11 
DOCKED: REMARK   10  A    between atoms: O_12  and  P_13 
DOCKED: REMARK   11  A    between atoms: P_13  and  O_15 
DOCKED: REMARK   12  A    between atoms: P_13  and  O_16 
DOCKED: REMARK   13  A    between atoms: O_17  and  P_18 
DOCKED: REMARK   14  A    between atoms: P_18  and  O_20 
DOCKED: REMARK   15  A    between atoms: P_18  and  O_21 
DOCKED: REMARK   16  A    between atoms: O_22  and  P_23 
DOCKED: REMARK   17  A    between atoms: P_23  and  O_25 
DOCKED: REMARK   18  A    between atoms: P_23  and  O_26 
DOCKED: REMARK   19  A    between atoms: O_27  and  P_28 
DOCKED: REMARK   20  A    between atoms: P_28  and  O_30 
DOCKED: REMARK   21  A    between atoms: P_28  and  O_31 
DOCKED: REMARK   22  A    between atoms: O_32  and  P_33 
DOCKED: REMARK   23  A    between atoms: P_33  and  O_35 
DOCKED: REMARK   24  A    between atoms: P_33  and  O_36 
DOCKED: USER                              x       y       z     vdW  Elec       q    Type
DOCKED: USER                           _______ _______ _______ _____ _____    ______ ____
DOCKED: ROOT
DOCKED: ATOM      1  C   UNL d   1       2.220  54.165   7.460 -0.04 +0.01    +0.194 C 
DOCKED: ATOM      2  C   UNL d   1       2.037  53.146   8.587 -0.03 +0.02    +0.194 C 
DOCKED: ATOM      3  C   UNL d   1       2.926  51.917   8.389 -0.10 +0.03    +0.194 C 
DOCKED: ATOM      4  C   UNL d   1       4.394  52.267   8.160 -0.17 +0.01    +0.194 C 
DOCKED: ATOM      5  C   UNL d   1       4.617  53.362   7.125 -0.14 +0.00    +0.194 C 
DOCKED: ATOM      6  C   UNL d   1       3.685  54.565   7.286 -0.07 +0.01    +0.194 C 
DOCKED: ENDROOT
DOCKED: BRANCH   1   7
DOCKED: ATOM      7  O   UNL d   1       1.493  55.347   7.805 -0.01 -0.01    -0.278 OA
DOCKED: BRANCH   7   8
DOCKED: ATOM      8  P   UNL d   1       2.204  56.428   8.742 +0.00 +0.01    +0.473 P 
DOCKED: ATOM      9  O   UNL d   1       3.275  55.892   9.625 -0.00 -0.00    -0.228 OA
DOCKED: BRANCH   8  10
DOCKED: ATOM     10  O   UNL d   1       2.729  57.538   7.722 -0.00 -0.00    -0.303 OA
DOCKED: ATOM     11  H   UNL d   1       3.059  57.107   6.912 +0.01 +0.00    +0.222 HD
DOCKED: ENDBRANCH   8  10
DOCKED: BRANCH   8  12
DOCKED: ATOM     12  O   UNL d   1       1.015  57.186   9.474 -0.00 -0.01    -0.303 OA
DOCKED: ATOM     13  H   UNL d   1       0.735  56.748  10.309 +0.00 +0.01    +0.222 HD
DOCKED: ENDBRANCH   8  12
DOCKED: ENDBRANCH   7   8
DOCKED: ENDBRANCH   1   7
DOCKED: BRANCH   2  14
DOCKED: ATOM     14  O   UNL d   1       2.381  53.762   9.834 -0.01 -0.02    -0.278 OA
DOCKED: BRANCH  14  15
DOCKED: ATOM     15  P   UNL d   1       1.256  53.749  10.974 +0.01 +0.04    +0.473 P 
DOCKED: ATOM     16  O   UNL d   1      -0.132  53.391  10.543 -0.00 -0.02    -0.228 OA
DOCKED: BRANCH  15  17
DOCKED: ATOM     17  O   UNL d   1       1.835  52.756  12.077 +0.00 -0.04    -0.303 OA
DOCKED: ATOM     18  H   UNL d   1       2.150  51.926  11.673 +0.02 +0.05    +0.222 HD
DOCKED: ENDBRANCH  15  17
DOCKED: BRANCH  15  19
DOCKED: ATOM     19  O   UNL d   1       1.408  55.156  11.698 +0.00 -0.01    -0.303 OA
DOCKED: ATOM     20  H   UNL d   1       1.696  55.852  11.078 +0.00 +0.01    +0.222 HD
DOCKED: ENDBRANCH  15  19
DOCKED: ENDBRANCH  14  15
DOCKED: ENDBRANCH   2  14
DOCKED: BRANCH   6  21
DOCKED: ATOM     21  O   UNL d   1       3.773  55.318   6.079 -0.04 -0.01    -0.278 OA
DOCKED: BRANCH  21  22
DOCKED: ATOM     22  P   UNL d   1       4.906  56.430   5.919 -0.01 -0.01    +0.473 P 
DOCKED: ATOM     23  O   UNL d   1       6.117  56.092   5.117 -0.04 +0.01    -0.228 OA
DOCKED: BRANCH  22  24
DOCKED: ATOM     24  O   UNL d   1       4.070  57.671   5.376 -0.00 +0.00    -0.303 OA
DOCKED: ATOM     25  H   UNL d   1       3.956  58.315   6.120 +0.00 -0.00    +0.222 HD
DOCKED: ENDBRANCH  22  24
DOCKED: BRANCH  22  26
DOCKED: ATOM     26  O   UNL d   1       5.167  56.850   7.444 -0.01 +0.01    -0.303 OA
DOCKED: ATOM     27  H   UNL d   1       4.606  56.301   8.029 +0.02 -0.00    +0.222 HD
DOCKED: ENDBRANCH  22  26
DOCKED: ENDBRANCH  21  22
DOCKED: ENDBRANCH   6  21
DOCKED: BRANCH   3  28
DOCKED: ATOM     28  O   UNL d   1       2.900  51.170   9.599 -0.05 -0.08    -0.278 OA
DOCKED: BRANCH  28  29
DOCKED: ATOM     29  P   UNL d   1       1.889  49.952   9.771 -0.05 +0.21    +0.473 P 
DOCKED: ATOM     30  O   UNL d   1       1.336  49.395   8.509 -0.08 -0.07    -0.228 OA
DOCKED: BRANCH  29  31
DOCKED: ATOM     31  O   UNL d   1       2.783  48.972  10.667 -0.47 -0.37    -0.303 OA
DOCKED: ATOM     32  H   UNL d   1       3.732  49.187  10.515 +0.05 +0.24    +0.222 HD
DOCKED: ENDBRANCH  29  31
DOCKED: BRANCH  29  33
DOCKED: ATOM     33  O   UNL d   1       0.842  50.532  10.821 -0.01 -0.10    -0.303 OA
DOCKED: ATOM     34  H   UNL d   1       0.729  51.500  10.660 +0.01 +0.05    +0.222 HD
DOCKED: ENDBRANCH  29  33
DOCKED: ENDBRANCH  28  29
DOCKED: ENDBRANCH   3  28
DOCKED: BRANCH   5  35
DOCKED: ATOM     35  O   UNL d   1       5.948  53.830   7.337 -0.15 +0.04    -0.278 OA
DOCKED: BRANCH  35  36
DOCKED: ATOM     36  P   UNL d   1       6.474  54.116   8.816 -0.03 -0.05    +0.473 P 
DOCKED: ATOM     37  O   UNL d   1       7.631  55.058   8.918 -0.08 +0.03    -0.228 OA
DOCKED: BRANCH  36  38
DOCKED: ATOM     38  O   UNL d   1       5.150  54.624   9.541 -0.02 +0.00    -0.303 OA
DOCKED: ATOM     39  H   UNL d   1       4.956  55.541   9.249 +0.02 -0.00    +0.222 HD
DOCKED: ENDBRANCH  36  38
DOCKED: BRANCH  36  40
DOCKED: ATOM     40  O   UNL d   1       6.686  52.648   9.391 -0.11 +0.03    -0.303 OA
DOCKED: ATOM     41  H   UNL d   1       6.739  51.979   8.672 -0.38 -0.08    +0.222 HD
DOCKED: ENDBRANCH  36  40
DOCKED: ENDBRANCH  35  36
DOCKED: ENDBRANCH   5  35
DOCKED: BRANCH   4  42
DOCKED: ATOM     42  O   UNL d   1       5.030  51.084   7.665 -0.18 -0.01    -0.278 OA
DOCKED: BRANCH  42  43
DOCKED: ATOM     43  P   UNL d   1       5.545  49.991   8.707 -0.24 +0.07    +0.473 P 
DOCKED: ATOM     44  O   UNL d   1       6.945  49.503   8.555 -0.40 +0.01    -0.228 OA
DOCKED: BRANCH  43  45
DOCKED: ATOM     45  O   UNL d   1       5.245  50.678  10.110 -0.10 -0.08    -0.303 OA
DOCKED: ATOM     46  H   UNL d   1       4.992  51.617  10.002 +0.06 +0.03    +0.222 HD
DOCKED: ENDBRANCH  43  45
DOCKED: BRANCH  43  47
DOCKED: ATOM     47  O   UNL d   1       4.409  48.863   8.647 -0.24 -0.14    -0.303 OA
DOCKED: ATOM     48  H   UNL d   1       3.529  49.293   8.607 +0.08 +0.09    +0.222 HD
DOCKED: ENDBRANCH  43  47
DOCKED: ENDBRANCH  42  43
DOCKED: ENDBRANCH   4  42
DOCKED: TORSDOF 24
DOCKED: TER
DOCKED: ENDMDL
________________________________________________________________________________


	BEGINNING GENETIC ALGORITHM DOCKING 26 of 100
Run: 26 Seed: 1921664227 1416441481 [ Run 26 of 100 GA/GALS ]
Beginning LAMARCKIAN GENETIC ALGORITHM (LGA), with a maximum of 25000000 energy evaluations.

Final-Value: -17.056


	FINAL GENETIC ALGORITHM DOCKED STATE
	_______________________________________________


Detailed state:  trans 20.149 19.803 4.562 quatxyzw 0.478617 -0.723519 -0.282629 -0.409349 center 0.035 0.082 -0.065 ntor 24 -106.9825 30.4766 39.0992 -154.5839 28.8108 147.2437 -22.1703 -118.0892 84.6555 128.3579 133.5449 -111.4301 -142.2359 -162.0908 147.5139 -64.8842 48.2377 85.9132 25.1549 -46.6984 -20.3218 4.3190 -179.0819 18.6458
State:	 20.149  19.803   4.562   0.525 -0.793 -0.310 -131.672   -106.98   30.48   39.10 -154.58   28.81  147.24  -22.17 -118.09   84.66  128.36  133.54 -111.43 -142.24 -162.09  147.51  -64.88   48.24   85.91   25.15  -46.70  -20.32    4.32 -179.08   18.65

DOCKED: MODEL       26
DOCKED: USER    Run = 26
DOCKED: USER    DPF = D:/Protein_go_brrr/autodock/final/2DN3/IHP/dock.dpf
DOCKED: USER  
DOCKED: USER    Estimated Free Energy of Binding    =   +3.87 kcal/mol  [=(1)+(2)+(3)-(4)]
DOCKED: USER    
DOCKED: USER    (1) Final Intermolecular Energy     =   -3.29 kcal/mol
DOCKED: USER        vdW + Hbond + desolv Energy     =   -3.10 kcal/mol
DOCKED: USER        Electrostatic Energy            =   -0.19 kcal/mol
DOCKED: USER    (2) Final Total Internal Energy     =  -13.77 kcal/mol
DOCKED: USER    (3) Torsional Free Energy           =   +7.16 kcal/mol
DOCKED: USER    (4) Unbound System's Energy  [=(2)] =  -13.77 kcal/mol
DOCKED: USER    
DOCKED: USER    
DOCKED: USER    NEWDPF move IHP_ideal_opt.pdbqt
DOCKED: USER    NEWDPF about 0.035000 0.082000 -0.065000
DOCKED: USER    NEWDPF tran0 20.148554 19.802971 4.562178
DOCKED: USER    NEWDPF quaternion0 0.478617 -0.723519 -0.282629 -0.409349
DOCKED: USER    NEWDPF axisangle0 0.524582 -0.793004 -0.309772 -131.672169
DOCKED: USER    NEWDPF quat0 0.524582 -0.793004 -0.309772 -131.672169
DOCKED: USER    NEWDPF dihe0 -106.98 30.48 39.10 -154.58 28.81 147.24 -22.17 -118.09 84.66 128.36 133.54 -111.43 -142.24 -162.09 147.51 -64.88 48.24 85.91 25.15 -46.70 -20.32 4.32 -179.08 18.65 
DOCKED: USER  keepresnum = 1 
DOCKED: USER  
DOCKED: REMARK  24 active torsions:
DOCKED: REMARK  status: ('A' for Active; 'I' for Inactive)
DOCKED: REMARK    1  A    between atoms: C_1  and  O_7 
DOCKED: REMARK    2  A    between atoms: C_2  and  O_12 
DOCKED: REMARK    3  A    between atoms: C_3  and  O_17 
DOCKED: REMARK    4  A    between atoms: C_4  and  O_22 
DOCKED: REMARK    5  A    between atoms: C_5  and  O_27 
DOCKED: REMARK    6  A    between atoms: C_6  and  O_32 
DOCKED: REMARK    7  A    between atoms: O_7  and  P_8 
DOCKED: REMARK    8  A    between atoms: P_8  and  O_10 
DOCKED: REMARK    9  A    between atoms: P_8  and  O_11 
DOCKED: REMARK   10  A    between atoms: O_12  and  P_13 
DOCKED: REMARK   11  A    between atoms: P_13  and  O_15 
DOCKED: REMARK   12  A    between atoms: P_13  and  O_16 
DOCKED: REMARK   13  A    between atoms: O_17  and  P_18 
DOCKED: REMARK   14  A    between atoms: P_18  and  O_20 
DOCKED: REMARK   15  A    between atoms: P_18  and  O_21 
DOCKED: REMARK   16  A    between atoms: O_22  and  P_23 
DOCKED: REMARK   17  A    between atoms: P_23  and  O_25 
DOCKED: REMARK   18  A    between atoms: P_23  and  O_26 
DOCKED: REMARK   19  A    between atoms: O_27  and  P_28 
DOCKED: REMARK   20  A    between atoms: P_28  and  O_30 
DOCKED: REMARK   21  A    between atoms: P_28  and  O_31 
DOCKED: REMARK   22  A    between atoms: O_32  and  P_33 
DOCKED: REMARK   23  A    between atoms: P_33  and  O_35 
DOCKED: REMARK   24  A    between atoms: P_33  and  O_36 
DOCKED: USER                              x       y       z     vdW  Elec       q    Type
DOCKED: USER                           _______ _______ _______ _____ _____    ______ ____
DOCKED: ROOT
DOCKED: ATOM      1  C   UNL d   1      19.617  18.319   3.855 -0.09 +0.03    +0.194 C 
DOCKED: ATOM      2  C   UNL d   1      20.564  19.159   2.996 -0.07 +0.02    +0.194 C 
DOCKED: ATOM      3  C   UNL d   1      20.201  20.645   3.039 -0.07 +0.04    +0.194 C 
DOCKED: ATOM      4  C   UNL d   1      20.073  21.191   4.459 -0.16 +0.04    +0.194 C 
DOCKED: ATOM      5  C   UNL d   1      19.229  20.323   5.384 -0.16 +0.05    +0.194 C 
DOCKED: ATOM      6  C   UNL d   1      19.550  18.830   5.295 -0.10 +0.05    +0.194 C 
DOCKED: ENDROOT
DOCKED: BRANCH   1   7
DOCKED: ATOM      7  O   UNL d   1      20.121  16.983   3.899 -0.02 -0.04    -0.278 OA
DOCKED: BRANCH   7   8
DOCKED: ATOM      8  P   UNL d   1      19.505  15.905   2.894 -0.01 +0.06    +0.473 P 
DOCKED: ATOM      9  O   UNL d   1      18.337  15.147   3.420 -0.02 -0.04    -0.228 OA
DOCKED: BRANCH   8  10
DOCKED: ATOM     10  O   UNL d   1      19.168  16.748   1.582 -0.11 -0.03    -0.303 OA
DOCKED: ATOM     11  H   UNL d   1      19.908  16.678   0.950 +0.03 +0.01    +0.222 HD
DOCKED: ENDBRANCH   8  10
DOCKED: BRANCH   8  12
DOCKED: ATOM     12  O   UNL d   1      20.743  15.029   2.418 +0.00 -0.02    -0.303 OA
DOCKED: ATOM     13  H   UNL d   1      21.611  15.443   2.627 +0.01 +0.02    +0.222 HD
DOCKED: ENDBRANCH   8  12
DOCKED: ENDBRANCH   7   8
DOCKED: ENDBRANCH   1   7
DOCKED: BRANCH   2  14
DOCKED: ATOM     14  O   UNL d   1      21.902  19.001   3.484 -0.01 -0.03    -0.278 OA
DOCKED: BRANCH  14  15
DOCKED: ATOM     15  P   UNL d   1      22.716  17.733   2.943 +0.01 +0.03    +0.473 P 
DOCKED: ATOM     16  O   UNL d   1      22.919  16.604   3.905 +0.00 -0.02    -0.228 OA
DOCKED: BRANCH  15  17
DOCKED: ATOM     17  O   UNL d   1      21.923  17.293   1.633 -0.00 -0.01    -0.303 OA
DOCKED: ATOM     18  H   UNL d   1      20.985  17.110   1.835 +0.02 +0.01    +0.222 HD
DOCKED: ENDBRANCH  15  17
DOCKED: BRANCH  15  19
DOCKED: ATOM     19  O   UNL d   1      24.043  18.350   2.321 +0.00 -0.01    -0.303 OA
DOCKED: ATOM     20  H   UNL d   1      24.809  17.760   2.446 +0.00 +0.01    +0.222 HD
DOCKED: ENDBRANCH  15  19
DOCKED: ENDBRANCH  14  15
DOCKED: ENDBRANCH   2  14
DOCKED: BRANCH   6  21
DOCKED: ATOM     21  O   UNL d   1      18.478  18.139   5.934 -0.11 -0.12    -0.278 OA
DOCKED: BRANCH  21  22
DOCKED: ATOM     22  P   UNL d   1      18.784  17.163   7.158 -0.12 +0.29    +0.473 P 
DOCKED: ATOM     23  O   UNL d   1      17.632  16.500   7.835 -0.23 -0.32    -0.228 OA
DOCKED: BRANCH  22  24
DOCKED: ATOM     24  O   UNL d   1      19.849  16.167   6.523 -0.04 -0.11    -0.303 OA
DOCKED: ATOM     25  H   UNL d   1      19.591  15.999   5.581 +0.04 +0.06    +0.222 HD
DOCKED: ENDBRANCH  22  24
DOCKED: BRANCH  22  26
DOCKED: ATOM     26  O   UNL d   1      19.708  18.087   8.088 -0.26 -0.15    -0.303 OA
DOCKED: ATOM     27  H   UNL d   1      20.170  18.745   7.529 +0.07 +0.08    +0.222 HD
DOCKED: ENDBRANCH  22  26
DOCKED: ENDBRANCH  21  22
DOCKED: ENDBRANCH   6  21
DOCKED: BRANCH   3  28
DOCKED: ATOM     28  O   UNL d   1      21.278  21.366   2.454 -0.08 -0.03    -0.278 OA
DOCKED: BRANCH  28  29
DOCKED: ATOM     29  P   UNL d   1      21.063  22.172   1.097 -0.06 +0.03    +0.473 P 
DOCKED: ATOM     30  O   UNL d   1      21.342  21.415  -0.149 -0.11 -0.00    -0.228 OA
DOCKED: BRANCH  29  31
DOCKED: ATOM     31  O   UNL d   1      19.563  22.688   1.314 -0.68 -0.06    -0.303 OA
DOCKED: ATOM     32  H   UNL d   1      19.406  22.798   2.280 +0.10 +0.05    +0.222 HD
DOCKED: ENDBRANCH  29  31
DOCKED: BRANCH  29  33
DOCKED: ATOM     33  O   UNL d   1      21.926  23.486   1.350 -0.03 +0.01    -0.303 OA
DOCKED: ATOM     34  H   UNL d   1      21.581  23.948   2.153 +0.09 +0.00    +0.222 HD
DOCKED: ENDBRANCH  29  33
DOCKED: ENDBRANCH  28  29
DOCKED: ENDBRANCH   3  28
DOCKED: BRANCH   5  35
DOCKED: ATOM     35  O   UNL d   1      19.550  20.743   6.709 -0.15 -0.07    -0.278 OA
DOCKED: BRANCH  35  36
DOCKED: ATOM     36  P   UNL d   1      21.073  20.898   7.157 -0.01 +0.10    +0.473 P 
DOCKED: ATOM     37  O   UNL d   1      21.659  22.264   6.989 -0.09 -0.04    -0.228 OA
DOCKED: BRANCH  36  38
DOCKED: ATOM     38  O   UNL d   1      21.024  20.388   8.664 -0.08 -0.08    -0.303 OA
DOCKED: ATOM     39  H   UNL d   1      20.176  19.918   8.816 +0.09 +0.08    +0.222 HD
DOCKED: ENDBRANCH  36  38
DOCKED: BRANCH  36  40
DOCKED: ATOM     40  O   UNL d   1      21.781  19.709   6.373 -0.01 -0.05    -0.303 OA
DOCKED: ATOM     41  H   UNL d   1      22.048  19.978   5.466 +0.03 +0.03    +0.222 HD
DOCKED: ENDBRANCH  36  40
DOCKED: ENDBRANCH  35  36
DOCKED: ENDBRANCH   5  35
DOCKED: BRANCH   4  42
DOCKED: ATOM     42  O   UNL d   1      19.417  22.460   4.358 -0.24 -0.05    -0.278 OA
DOCKED: BRANCH  42  43
DOCKED: ATOM     43  P   UNL d   1      20.304  23.779   4.233 -0.16 +0.06    +0.473 P 
DOCKED: ATOM     44  O   UNL d   1      19.944  24.750   3.162 -0.25 -0.02    -0.228 OA
DOCKED: BRANCH  43  45
DOCKED: ATOM     45  O   UNL d   1      20.244  24.381   5.704 -0.21 -0.06    -0.303 OA
DOCKED: ATOM     46  H   UNL d   1      20.616  23.759   6.361 +0.10 +0.05    +0.222 HD
DOCKED: ENDBRANCH  43  45
DOCKED: BRANCH  43  47
DOCKED: ATOM     47  O   UNL d   1      21.802  23.209   4.175 -0.04 -0.03    -0.303 OA
DOCKED: ATOM     48  H   UNL d   1      21.928  22.718   3.337 +0.05 +0.02    +0.222 HD
DOCKED: ENDBRANCH  43  47
DOCKED: ENDBRANCH  42  43
DOCKED: ENDBRANCH   4  42
DOCKED: TORSDOF 24
DOCKED: TER
DOCKED: ENDMDL
________________________________________________________________________________


	BEGINNING GENETIC ALGORITHM DOCKING 27 of 100
Run: 27 Seed: 1964484112 1513515762 [ Run 27 of 100 GA/GALS ]
Beginning LAMARCKIAN GENETIC ALGORITHM (LGA), with a maximum of 25000000 energy evaluations.

Final-Value: -16.199


	FINAL GENETIC ALGORITHM DOCKED STATE
	_______________________________________________


Detailed state:  trans 18.481 12.777 32.310 quatxyzw 0.430295 -0.386921 -0.690292 0.434322 center 0.035 0.082 -0.065 ntor 24 -107.8655 -42.8443 46.2134 52.2122 -174.5011 132.1077 62.4388 -80.4630 -55.5275 32.7708 79.3121 103.2784 63.0601 159.1373 55.7060 102.4242 9.5977 -177.4189 -16.6395 -19.6821 -14.6191 -27.8464 171.4622 20.0951
State:	 18.481  12.777  32.310   0.478 -0.430 -0.766 128.516   -107.87  -42.84   46.21   52.21 -174.50  132.11   62.44  -80.46  -55.53   32.77   79.31  103.28   63.06  159.14   55.71  102.42    9.60 -177.42  -16.64  -19.68  -14.62  -27.85  171.46   20.10

DOCKED: MODEL       27
DOCKED: USER    Run = 27
DOCKED: USER    DPF = D:/Protein_go_brrr/autodock/final/2DN3/IHP/dock.dpf
DOCKED: USER  
DOCKED: USER    Estimated Free Energy of Binding    =   +5.38 kcal/mol  [=(1)+(2)+(3)-(4)]
DOCKED: USER    
DOCKED: USER    (1) Final Intermolecular Energy     =   -1.78 kcal/mol
DOCKED: USER        vdW + Hbond + desolv Energy     =   -1.29 kcal/mol
DOCKED: USER        Electrostatic Energy            =   -0.49 kcal/mol
DOCKED: USER    (2) Final Total Internal Energy     =  -14.42 kcal/mol
DOCKED: USER    (3) Torsional Free Energy           =   +7.16 kcal/mol
DOCKED: USER    (4) Unbound System's Energy  [=(2)] =  -14.42 kcal/mol
DOCKED: USER    
DOCKED: USER    
DOCKED: USER    NEWDPF move IHP_ideal_opt.pdbqt
DOCKED: USER    NEWDPF about 0.035000 0.082000 -0.065000
DOCKED: USER    NEWDPF tran0 18.481481 12.777123 32.310321
DOCKED: USER    NEWDPF quaternion0 0.430295 -0.386921 -0.690292 0.434322
DOCKED: USER    NEWDPF axisangle0 0.477703 -0.429551 -0.766346 128.515722
DOCKED: USER    NEWDPF quat0 0.477703 -0.429551 -0.766346 128.515722
DOCKED: USER    NEWDPF dihe0 -107.87 -42.84 46.21 52.21 -174.50 132.11 62.44 -80.46 -55.53 32.77 79.31 103.28 63.06 159.14 55.71 102.42 9.60 -177.42 -16.64 -19.68 -14.62 -27.85 171.46 20.10 
DOCKED: USER  keepresnum = 1 
DOCKED: USER  
DOCKED: REMARK  24 active torsions:
DOCKED: REMARK  status: ('A' for Active; 'I' for Inactive)
DOCKED: REMARK    1  A    between atoms: C_1  and  O_7 
DOCKED: REMARK    2  A    between atoms: C_2  and  O_12 
DOCKED: REMARK    3  A    between atoms: C_3  and  O_17 
DOCKED: REMARK    4  A    between atoms: C_4  and  O_22 
DOCKED: REMARK    5  A    between atoms: C_5  and  O_27 
DOCKED: REMARK    6  A    between atoms: C_6  and  O_32 
DOCKED: REMARK    7  A    between atoms: O_7  and  P_8 
DOCKED: REMARK    8  A    between atoms: P_8  and  O_10 
DOCKED: REMARK    9  A    between atoms: P_8  and  O_11 
DOCKED: REMARK   10  A    between atoms: O_12  and  P_13 
DOCKED: REMARK   11  A    between atoms: P_13  and  O_15 
DOCKED: REMARK   12  A    between atoms: P_13  and  O_16 
DOCKED: REMARK   13  A    between atoms: O_17  and  P_18 
DOCKED: REMARK   14  A    between atoms: P_18  and  O_20 
DOCKED: REMARK   15  A    between atoms: P_18  and  O_21 
DOCKED: REMARK   16  A    between atoms: O_22  and  P_23 
DOCKED: REMARK   17  A    between atoms: P_23  and  O_25 
DOCKED: REMARK   18  A    between atoms: P_23  and  O_26 
DOCKED: REMARK   19  A    between atoms: O_27  and  P_28 
DOCKED: REMARK   20  A    between atoms: P_28  and  O_30 
DOCKED: REMARK   21  A    between atoms: P_28  and  O_31 
DOCKED: REMARK   22  A    between atoms: O_32  and  P_33 
DOCKED: REMARK   23  A    between atoms: P_33  and  O_35 
DOCKED: REMARK   24  A    between atoms: P_33  and  O_36 
DOCKED: USER                              x       y       z     vdW  Elec       q    Type
DOCKED: USER                           _______ _______ _______ _____ _____    ______ ____
DOCKED: ROOT
DOCKED: ATOM      1  C   UNL d   1      18.789  14.117  31.264 -0.00 -0.05    +0.194 C 
DOCKED: ATOM      2  C   UNL d   1      19.949  13.709  32.174 +0.00 -0.02    +0.194 C 
DOCKED: ATOM      3  C   UNL d   1      19.474  13.404  33.596 +0.00 -0.01    +0.194 C 
DOCKED: ATOM      4  C   UNL d   1      18.323  12.402  33.644 +0.00 -0.01    +0.194 C 
DOCKED: ATOM      5  C   UNL d   1      17.194  12.707  32.668 +0.00 -0.02    +0.194 C 
DOCKED: ATOM      6  C   UNL d   1      17.672  13.072  31.261 -0.00 -0.05    +0.194 C 
DOCKED: ENDROOT
DOCKED: BRANCH   1   7
DOCKED: ATOM      7  O   UNL d   1      19.285  14.214  29.926 -0.01 +0.10    -0.278 OA
DOCKED: BRANCH   7   8
DOCKED: ATOM      8  P   UNL d   1      18.780  15.426  29.016 -0.05 -0.37    +0.473 P 
DOCKED: ATOM      9  O   UNL d   1      19.832  16.404  28.627 -0.04 +0.12    -0.228 OA
DOCKED: BRANCH   8  10
DOCKED: ATOM     10  O   UNL d   1      18.093  14.711  27.766 -0.07 +0.40    -0.303 OA
DOCKED: ATOM     11  H   UNL d   1      17.135  14.623  27.925 -0.32 -0.44    +0.222 HD
DOCKED: ENDBRANCH   8  10
DOCKED: BRANCH   8  12
DOCKED: ATOM     12  O   UNL d   1      17.525  16.025  29.786 +0.01 +0.36    -0.303 OA
DOCKED: ATOM     13  H   UNL d   1      16.679  15.585  29.546 -0.42 -0.40    +0.222 HD
DOCKED: ENDBRANCH   8  12
DOCKED: ENDBRANCH   7   8
DOCKED: ENDBRANCH   1   7
DOCKED: BRANCH   2  14
DOCKED: ATOM     14  O   UNL d   1      20.571  12.534  31.639 +0.00 +0.02    -0.278 OA
DOCKED: BRANCH  14  15
DOCKED: ATOM     15  P   UNL d   1      22.056  12.708  31.065 +0.00 -0.03    +0.473 P 
DOCKED: ATOM     16  O   UNL d   1      22.420  11.874  29.877 +0.00 +0.01    -0.228 OA
DOCKED: BRANCH  15  17
DOCKED: ATOM     17  O   UNL d   1      22.183  14.271  30.785 +0.00 +0.03    -0.303 OA
DOCKED: ATOM     18  H   UNL d   1      21.420  14.599  30.271 +0.00 -0.03    +0.222 HD
DOCKED: ENDBRANCH  15  17
DOCKED: BRANCH  15  19
DOCKED: ATOM     19  O   UNL d   1      22.996  12.534  32.337 +0.00 +0.01    -0.303 OA
DOCKED: ATOM     20  H   UNL d   1      22.479  12.486  33.163 +0.00 -0.01    +0.222 HD
DOCKED: ENDBRANCH  15  19
DOCKED: ENDBRANCH  14  15
DOCKED: ENDBRANCH   2  14
DOCKED: BRANCH   6  21
DOCKED: ATOM     21  O   UNL d   1      16.559  13.652  30.584 -0.03 +0.12    -0.278 OA
DOCKED: BRANCH  21  22
DOCKED: ATOM     22  P   UNL d   1      15.958  12.936  29.291 -0.05 -0.25    +0.473 P 
DOCKED: ATOM     23  O   UNL d   1      14.938  11.866  29.488 -0.01 +0.06    -0.228 OA
DOCKED: BRANCH  22  24
DOCKED: ATOM     24  O   UNL d   1      15.463  14.181  28.431 -0.03 +0.41    -0.303 OA
DOCKED: ATOM     25  H   UNL d   1      15.953  14.175  27.570 -0.28 -0.46    +0.222 HD
DOCKED: ENDBRANCH  22  24
DOCKED: BRANCH  22  26
DOCKED: ATOM     26  O   UNL d   1      17.290  12.504  28.510 -0.03 +0.14    -0.303 OA
DOCKED: ATOM     27  H   UNL d   1      17.940  13.234  28.554 +0.01 -0.13    +0.222 HD
DOCKED: ENDBRANCH  22  26
DOCKED: ENDBRANCH  21  22
DOCKED: ENDBRANCH   6  21
DOCKED: BRANCH   3  28
DOCKED: ATOM     28  O   UNL d   1      20.549  12.776  34.282 +0.00 +0.01    -0.278 OA
DOCKED: BRANCH  28  29
DOCKED: ATOM     29  P   UNL d   1      21.705  13.653  34.939 +0.00 -0.01    +0.473 P 
DOCKED: ATOM     30  O   UNL d   1      21.352  14.324  36.217 +0.00 +0.00    -0.228 OA
DOCKED: BRANCH  29  31
DOCKED: ATOM     31  O   UNL d   1      22.883  12.570  34.989 +0.00 +0.00    -0.303 OA
DOCKED: ATOM     32  H   UNL d   1      23.601  12.860  34.381 +0.00 -0.00    +0.222 HD
DOCKED: ENDBRANCH  29  31
DOCKED: BRANCH  29  33
DOCKED: ATOM     33  O   UNL d   1      22.142  14.592  33.730 +0.00 +0.01    -0.303 OA
DOCKED: ATOM     34  H   UNL d   1      21.865  14.170  32.880 +0.00 -0.01    +0.222 HD
DOCKED: ENDBRANCH  29  33
DOCKED: ENDBRANCH  28  29
DOCKED: ENDBRANCH   3  28
DOCKED: BRANCH   5  35
DOCKED: ATOM     35  O   UNL d   1      16.442  11.500  32.556 +0.00 +0.03    -0.278 OA
DOCKED: BRANCH  35  36
DOCKED: ATOM     36  P   UNL d   1      17.149  10.154  32.074 +0.00 -0.03    +0.473 P 
DOCKED: ATOM     37  O   UNL d   1      18.364   9.752  32.848 +0.00 +0.01    -0.228 OA
DOCKED: BRANCH  36  38
DOCKED: ATOM     38  O   UNL d   1      15.949   9.110  32.150 +0.00 +0.01    -0.303 OA
DOCKED: ATOM     39  H   UNL d   1      16.220   8.349  32.707 +0.00 -0.01    +0.222 HD
DOCKED: ENDBRANCH  36  38
DOCKED: BRANCH  36  40
DOCKED: ATOM     40  O   UNL d   1      17.337  10.408  30.515 +0.00 +0.03    -0.303 OA
DOCKED: ATOM     41  H   UNL d   1      16.868  11.220  30.219 +0.01 -0.04    +0.222 HD
DOCKED: ENDBRANCH  36  40
DOCKED: ENDBRANCH  35  36
DOCKED: ENDBRANCH   5  35
DOCKED: BRANCH   4  42
DOCKED: ATOM     42  O   UNL d   1      17.769  12.469  34.962 +0.00 +0.01    -0.278 OA
DOCKED: BRANCH  42  43
DOCKED: ATOM     43  P   UNL d   1      18.339  11.493  36.088 +0.00 -0.01    +0.473 P 
DOCKED: ATOM     44  O   UNL d   1      17.349  10.738  36.907 +0.00 +0.00    -0.228 OA
DOCKED: BRANCH  43  45
DOCKED: ATOM     45  O   UNL d   1      19.347  10.571  35.273 +0.00 +0.01    -0.303 OA
DOCKED: ATOM     46  H   UNL d   1      19.445  10.877  34.349 +0.00 -0.01    +0.222 HD
DOCKED: ENDBRANCH  43  45
DOCKED: BRANCH  43  47
DOCKED: ATOM     47  O   UNL d   1      19.346  12.430  36.910 +0.00 +0.00    -0.303 OA
DOCKED: ATOM     48  H   UNL d   1      20.181  12.527  36.406 +0.00 -0.00    +0.222 HD
DOCKED: ENDBRANCH  43  47
DOCKED: ENDBRANCH  42  43
DOCKED: ENDBRANCH   4  42
DOCKED: TORSDOF 24
DOCKED: TER
DOCKED: ENDMDL
________________________________________________________________________________


	BEGINNING GENETIC ALGORITHM DOCKING 28 of 100
Run: 28 Seed: 1090539477 1410561761 [ Run 28 of 100 GA/GALS ]
Beginning LAMARCKIAN GENETIC ALGORITHM (LGA), with a maximum of 25000000 energy evaluations.

Final-Value: -18.485


	FINAL GENETIC ALGORITHM DOCKED STATE
	_______________________________________________


Detailed state:  trans 5.074 14.353 0.874 quatxyzw -0.700877 -0.250454 0.446569 0.496609 center 0.035 0.082 -0.065 ntor 24 -127.8601 -14.4391 169.2965 -38.0453 -64.1691 131.1059 44.0874 -82.9086 152.7284 8.8710 -180.0000 159.1606 95.6376 174.3671 -114.4337 -121.0075 112.5429 -144.0265 -21.4736 15.1593 147.8633 1.4473 -42.7780 168.9474
State:	  5.074  14.353   0.874  -0.807 -0.289  0.514 120.448   -127.86  -14.44  169.30  -38.05  -64.17  131.11   44.09  -82.91  152.73    8.87 -180.00  159.16   95.64  174.37 -114.43 -121.01  112.54 -144.03  -21.47   15.16  147.86    1.45  -42.78  168.95

DOCKED: MODEL       28
DOCKED: USER    Run = 28
DOCKED: USER    DPF = D:/Protein_go_brrr/autodock/final/2DN3/IHP/dock.dpf
DOCKED: USER  
DOCKED: USER    Estimated Free Energy of Binding    =   +4.36 kcal/mol  [=(1)+(2)+(3)-(4)]
DOCKED: USER    
DOCKED: USER    (1) Final Intermolecular Energy     =   -2.80 kcal/mol
DOCKED: USER        vdW + Hbond + desolv Energy     =   -2.68 kcal/mol
DOCKED: USER        Electrostatic Energy            =   -0.12 kcal/mol
DOCKED: USER    (2) Final Total Internal Energy     =  -15.69 kcal/mol
DOCKED: USER    (3) Torsional Free Energy           =   +7.16 kcal/mol
DOCKED: USER    (4) Unbound System's Energy  [=(2)] =  -15.69 kcal/mol
DOCKED: USER    
DOCKED: USER    
DOCKED: USER    NEWDPF move IHP_ideal_opt.pdbqt
DOCKED: USER    NEWDPF about 0.035000 0.082000 -0.065000
DOCKED: USER    NEWDPF tran0 5.074031 14.352897 0.874125
DOCKED: USER    NEWDPF quaternion0 -0.700877 -0.250454 0.446569 0.496609
DOCKED: USER    NEWDPF axisangle0 -0.807486 -0.288550 0.514495 120.448185
DOCKED: USER    NEWDPF quat0 -0.807486 -0.288550 0.514495 120.448185
DOCKED: USER    NEWDPF dihe0 -127.86 -14.44 169.30 -38.05 -64.17 131.11 44.09 -82.91 152.73 8.87 -180.00 159.16 95.64 174.37 -114.43 -121.01 112.54 -144.03 -21.47 15.16 147.86 1.45 -42.78 168.95 
DOCKED: USER  keepresnum = 1 
DOCKED: USER  
DOCKED: REMARK  24 active torsions:
DOCKED: REMARK  status: ('A' for Active; 'I' for Inactive)
DOCKED: REMARK    1  A    between atoms: C_1  and  O_7 
DOCKED: REMARK    2  A    between atoms: C_2  and  O_12 
DOCKED: REMARK    3  A    between atoms: C_3  and  O_17 
DOCKED: REMARK    4  A    between atoms: C_4  and  O_22 
DOCKED: REMARK    5  A    between atoms: C_5  and  O_27 
DOCKED: REMARK    6  A    between atoms: C_6  and  O_32 
DOCKED: REMARK    7  A    between atoms: O_7  and  P_8 
DOCKED: REMARK    8  A    between atoms: P_8  and  O_10 
DOCKED: REMARK    9  A    between atoms: P_8  and  O_11 
DOCKED: REMARK   10  A    between atoms: O_12  and  P_13 
DOCKED: REMARK   11  A    between atoms: P_13  and  O_15 
DOCKED: REMARK   12  A    between atoms: P_13  and  O_16 
DOCKED: REMARK   13  A    between atoms: O_17  and  P_18 
DOCKED: REMARK   14  A    between atoms: P_18  and  O_20 
DOCKED: REMARK   15  A    between atoms: P_18  and  O_21 
DOCKED: REMARK   16  A    between atoms: O_22  and  P_23 
DOCKED: REMARK   17  A    between atoms: P_23  and  O_25 
DOCKED: REMARK   18  A    between atoms: P_23  and  O_26 
DOCKED: REMARK   19  A    between atoms: O_27  and  P_28 
DOCKED: REMARK   20  A    between atoms: P_28  and  O_30 
DOCKED: REMARK   21  A    between atoms: P_28  and  O_31 
DOCKED: REMARK   22  A    between atoms: O_32  and  P_33 
DOCKED: REMARK   23  A    between atoms: P_33  and  O_35 
DOCKED: REMARK   24  A    between atoms: P_33  and  O_36 
DOCKED: USER                              x       y       z     vdW  Elec       q    Type
DOCKED: USER                           _______ _______ _______ _____ _____    ______ ____
DOCKED: ROOT
DOCKED: ATOM      1  C   UNL d   1       4.666  13.848  -0.727 -0.06 +0.09    +0.194 C 
DOCKED: ATOM      2  C   UNL d   1       3.573  14.609   0.025 -0.07 +0.05    +0.194 C 
DOCKED: ATOM      3  C   UNL d   1       3.455  14.144   1.478 -0.09 +0.04    +0.194 C 
DOCKED: ATOM      4  C   UNL d   1       4.786  14.159   2.224 -0.12 +0.04    +0.194 C 
DOCKED: ATOM      5  C   UNL d   1       5.934  13.511   1.460 -0.12 +0.07    +0.194 C 
DOCKED: ATOM      6  C   UNL d   1       6.014  13.930  -0.009 -0.12 +0.15    +0.194 C 
DOCKED: ENDROOT
DOCKED: BRANCH   1   7
DOCKED: ATOM      7  O   UNL d   1       4.830  14.455  -2.011 -0.08 -0.19    -0.278 OA
DOCKED: BRANCH   7   8
DOCKED: ATOM      8  P   UNL d   1       5.160  13.513  -3.259 -0.03 +0.31    +0.473 P 
DOCKED: ATOM      9  O   UNL d   1       4.598  13.969  -4.559 -0.01 -0.09    -0.228 OA
DOCKED: BRANCH   8  10
DOCKED: ATOM     10  O   UNL d   1       6.752  13.418  -3.261 -0.06 -0.48    -0.303 OA
DOCKED: ATOM     11  H   UNL d   1       7.046  12.836  -2.536 +0.02 +0.35    +0.222 HD
DOCKED: ENDBRANCH   8  10
DOCKED: BRANCH   8  12
DOCKED: ATOM     12  O   UNL d   1       4.740  12.052  -2.796 -0.00 -0.11    -0.303 OA
DOCKED: ATOM     13  H   UNL d   1       5.227  11.746  -1.998 +0.01 +0.09    +0.222 HD
DOCKED: ENDBRANCH   8  12
DOCKED: ENDBRANCH   7   8
DOCKED: ENDBRANCH   1   7
DOCKED: BRANCH   2  14
DOCKED: ATOM     14  O   UNL d   1       3.888  16.007   0.018 -0.14 -0.09    -0.278 OA
DOCKED: BRANCH  14  15
DOCKED: ATOM     15  P   UNL d   1       2.649  17.020  -0.032 -0.03 +0.09    +0.473 P 
DOCKED: ATOM     16  O   UNL d   1       2.705  18.101  -1.066 -0.14 -0.03    -0.228 OA
DOCKED: BRANCH  15  17
DOCKED: ATOM     17  O   UNL d   1       1.379  16.072  -0.198 -0.02 -0.03    -0.303 OA
DOCKED: ATOM     18  H   UNL d   1       1.178  15.605   0.636 +0.03 +0.03    +0.222 HD
DOCKED: ENDBRANCH  15  17
DOCKED: BRANCH  15  19
DOCKED: ATOM     19  O   UNL d   1       2.482  17.517   1.470 -0.33 -0.08    -0.303 OA
DOCKED: ATOM     20  H   UNL d   1       1.787  17.019   1.940 +0.05 +0.05    +0.222 HD
DOCKED: ENDBRANCH  15  19
DOCKED: ENDBRANCH  14  15
DOCKED: ENDBRANCH   2  14
DOCKED: BRANCH   6  21
DOCKED: ATOM     21  O   UNL d   1       6.888  13.006  -0.654 -0.51 -0.33    -0.278 OA
DOCKED: BRANCH  21  22
DOCKED: ATOM     22  P   UNL d   1       6.729  11.442  -0.379 -0.02 +0.22    +0.473 P 
DOCKED: ATOM     23  O   UNL d   1       7.395  10.867   0.826 -0.01 -0.07    -0.228 OA
DOCKED: BRANCH  22  24
DOCKED: ATOM     24  O   UNL d   1       5.148  11.264  -0.417 -0.00 -0.09    -0.303 OA
DOCKED: ATOM     25  H   UNL d   1       4.875  10.761   0.393 +0.01 +0.04    +0.222 HD
DOCKED: ENDBRANCH  22  24
DOCKED: BRANCH  22  26
DOCKED: ATOM     26  O   UNL d   1       7.166  10.818  -1.789 -0.01 -0.14    -0.303 OA
DOCKED: ATOM     27  H   UNL d   1       6.763  11.341  -2.512 +0.01 +0.13    +0.222 HD
DOCKED: ENDBRANCH  22  26
DOCKED: ENDBRANCH  21  22
DOCKED: ENDBRANCH   6  21
DOCKED: BRANCH   3  28
DOCKED: ATOM     28  O   UNL d   1       2.628  15.078   2.161 -0.29 -0.07    -0.278 OA
DOCKED: BRANCH  28  29
DOCKED: ATOM     29  P   UNL d   1       1.185  14.647   2.679 -0.02 +0.05    +0.473 P 
DOCKED: ATOM     30  O   UNL d   1       0.153  15.714   2.663 -0.03 -0.02    -0.228 OA
DOCKED: BRANCH  29  31
DOCKED: ATOM     31  O   UNL d   1       0.925  13.370   1.750 -0.00 -0.03    -0.303 OA
DOCKED: ATOM     32  H   UNL d   1       1.184  12.561   2.249 +0.01 +0.02    +0.222 HD
DOCKED: ENDBRANCH  29  31
DOCKED: BRANCH  29  33
DOCKED: ATOM     33  O   UNL d   1       1.520  13.991   4.092 -0.05 -0.03    -0.303 OA
DOCKED: ATOM     34  H   UNL d   1       2.460  13.684   4.088 +0.03 +0.02    +0.222 HD
DOCKED: ENDBRANCH  29  33
DOCKED: ENDBRANCH  28  29
DOCKED: ENDBRANCH   3  28
DOCKED: BRANCH   5  35
DOCKED: ATOM     35  O   UNL d   1       7.127  13.968   2.093 -0.16 -0.10    -0.278 OA
DOCKED: BRANCH  35  36
DOCKED: ATOM     36  P   UNL d   1       7.732  13.176   3.339 -0.07 +0.10    +0.473 P 
DOCKED: ATOM     37  O   UNL d   1       9.193  13.379   3.585 -0.07 -0.05    -0.228 OA
DOCKED: BRANCH  36  38
DOCKED: ATOM     38  O   UNL d   1       6.793  13.670   4.526 -0.17 -0.03    -0.303 OA
DOCKED: ATOM     39  H   UNL d   1       5.967  13.140   4.525 +0.05 +0.02    +0.222 HD
DOCKED: ENDBRANCH  36  38
DOCKED: BRANCH  36  40
DOCKED: ATOM     40  O   UNL d   1       7.246  11.687   3.062 -0.01 -0.05    -0.303 OA
DOCKED: ATOM     41  H   UNL d   1       6.373  11.666   2.612 +0.03 +0.04    +0.222 HD
DOCKED: ENDBRANCH  36  40
DOCKED: ENDBRANCH  35  36
DOCKED: ENDBRANCH   5  35
DOCKED: BRANCH   4  42
DOCKED: ATOM     42  O   UNL d   1       4.598  13.401   3.424 -0.11 -0.03    -0.278 OA
DOCKED: BRANCH  42  43
DOCKED: ATOM     43  P   UNL d   1       4.119  11.884   3.310 -0.02 +0.05    +0.473 P 
DOCKED: ATOM     44  O   UNL d   1       2.669  11.605   3.501 -0.01 -0.02    -0.228 OA
DOCKED: BRANCH  43  45
DOCKED: ATOM     45  O   UNL d   1       4.685  11.445   1.889 -0.00 -0.05    -0.303 OA
DOCKED: ATOM     46  H   UNL d   1       5.450  10.843   1.978 +0.02 +0.04    +0.222 HD
DOCKED: ENDBRANCH  43  45
DOCKED: BRANCH  43  47
DOCKED: ATOM     47  O   UNL d   1       5.109  11.112   4.307 -0.01 -0.02    -0.303 OA
DOCKED: ATOM     48  H   UNL d   1       5.919  11.648   4.437 +0.03 +0.02    +0.222 HD
DOCKED: ENDBRANCH  43  47
DOCKED: ENDBRANCH  42  43
DOCKED: ENDBRANCH   4  42
DOCKED: TORSDOF 24
DOCKED: TER
DOCKED: ENDMDL
________________________________________________________________________________


	BEGINNING GENETIC ALGORITHM DOCKING 29 of 100
Run: 29 Seed: 1662011923 1354808921 [ Run 29 of 100 GA/GALS ]
Beginning LAMARCKIAN GENETIC ALGORITHM (LGA), with a maximum of 25000000 energy evaluations.

Final-Value: -18.879


	FINAL GENETIC ALGORITHM DOCKED STATE
	_______________________________________________


Detailed state:  trans 18.058 48.944 -5.862 quatxyzw -0.388382 0.258886 0.009915 0.884329 center 0.035 0.082 -0.065 ntor 24 147.8055 7.0472 33.6118 32.9050 9.7101 -157.0564 139.0095 17.7244 100.8386 129.4426 1.3805 98.9746 -33.1682 -154.1949 -13.0646 52.6732 67.3255 -83.1813 28.0596 -51.7810 -32.7179 -53.3983 32.4870 -159.9344
State:	 18.058  48.944  -5.862  -0.832  0.555  0.021 55.662    147.81    7.05   33.61   32.91    9.71 -157.06  139.01   17.72  100.84  129.44    1.38   98.97  -33.17 -154.19  -13.06   52.67   67.33  -83.18   28.06  -51.78  -32.72  -53.40   32.49 -159.93

DOCKED: MODEL       29
DOCKED: USER    Run = 29
DOCKED: USER    DPF = D:/Protein_go_brrr/autodock/final/2DN3/IHP/dock.dpf
DOCKED: USER  
DOCKED: USER    Estimated Free Energy of Binding    =   +1.89 kcal/mol  [=(1)+(2)+(3)-(4)]
DOCKED: USER    
DOCKED: USER    (1) Final Intermolecular Energy     =   -5.27 kcal/mol
DOCKED: USER        vdW + Hbond + desolv Energy     =   -5.15 kcal/mol
DOCKED: USER        Electrostatic Energy            =   -0.12 kcal/mol
DOCKED: USER    (2) Final Total Internal Energy     =  -13.61 kcal/mol
DOCKED: USER    (3) Torsional Free Energy           =   +7.16 kcal/mol
DOCKED: USER    (4) Unbound System's Energy  [=(2)] =  -13.61 kcal/mol
DOCKED: USER    
DOCKED: USER    
DOCKED: USER    NEWDPF move IHP_ideal_opt.pdbqt
DOCKED: USER    NEWDPF about 0.035000 0.082000 -0.065000
DOCKED: USER    NEWDPF tran0 18.058491 48.944254 -5.861677
DOCKED: USER    NEWDPF quaternion0 -0.388382 0.258886 0.009915 0.884329
DOCKED: USER    NEWDPF axisangle0 -0.831898 0.554523 0.021237 55.661765
DOCKED: USER    NEWDPF quat0 -0.831898 0.554523 0.021237 55.661765
DOCKED: USER    NEWDPF dihe0 147.81 7.05 33.61 32.91 9.71 -157.06 139.01 17.72 100.84 129.44 1.38 98.97 -33.17 -154.19 -13.06 52.67 67.33 -83.18 28.06 -51.78 -32.72 -53.40 32.49 -159.93 
DOCKED: USER  keepresnum = 1 
DOCKED: USER  
DOCKED: REMARK  24 active torsions:
DOCKED: REMARK  status: ('A' for Active; 'I' for Inactive)
DOCKED: REMARK    1  A    between atoms: C_1  and  O_7 
DOCKED: REMARK    2  A    between atoms: C_2  and  O_12 
DOCKED: REMARK    3  A    between atoms: C_3  and  O_17 
DOCKED: REMARK    4  A    between atoms: C_4  and  O_22 
DOCKED: REMARK    5  A    between atoms: C_5  and  O_27 
DOCKED: REMARK    6  A    between atoms: C_6  and  O_32 
DOCKED: REMARK    7  A    between atoms: O_7  and  P_8 
DOCKED: REMARK    8  A    between atoms: P_8  and  O_10 
DOCKED: REMARK    9  A    between atoms: P_8  and  O_11 
DOCKED: REMARK   10  A    between atoms: O_12  and  P_13 
DOCKED: REMARK   11  A    between atoms: P_13  and  O_15 
DOCKED: REMARK   12  A    between atoms: P_13  and  O_16 
DOCKED: REMARK   13  A    between atoms: O_17  and  P_18 
DOCKED: REMARK   14  A    between atoms: P_18  and  O_20 
DOCKED: REMARK   15  A    between atoms: P_18  and  O_21 
DOCKED: REMARK   16  A    between atoms: O_22  and  P_23 
DOCKED: REMARK   17  A    between atoms: P_23  and  O_25 
DOCKED: REMARK   18  A    between atoms: P_23  and  O_26 
DOCKED: REMARK   19  A    between atoms: O_27  and  P_28 
DOCKED: REMARK   20  A    between atoms: P_28  and  O_30 
DOCKED: REMARK   21  A    between atoms: P_28  and  O_31 
DOCKED: REMARK   22  A    between atoms: O_32  and  P_33 
DOCKED: REMARK   23  A    between atoms: P_33  and  O_35 
DOCKED: REMARK   24  A    between atoms: P_33  and  O_36 
DOCKED: USER                              x       y       z     vdW  Elec       q    Type
DOCKED: USER                           _______ _______ _______ _____ _____    ______ ____
DOCKED: ROOT
DOCKED: ATOM      1  C   UNL d   1      18.938  47.511  -5.466 -0.18 -0.02    +0.194 C 
DOCKED: ATOM      2  C   UNL d   1      18.177  47.474  -6.792 -0.13 -0.02    +0.194 C 
DOCKED: ATOM      3  C   UNL d   1      16.777  48.077  -6.659 -0.15 -0.02    +0.194 C 
DOCKED: ATOM      4  C   UNL d   1      16.779  49.470  -6.033 -0.08 -0.03    +0.194 C 
DOCKED: ATOM      5  C   UNL d   1      17.621  49.580  -4.768 -0.13 -0.04    +0.194 C 
DOCKED: ATOM      6  C   UNL d   1      18.998  48.923  -4.882 -0.11 -0.03    +0.194 C 
DOCKED: ENDROOT
DOCKED: BRANCH   1   7
DOCKED: ATOM      7  O   UNL d   1      20.283  47.094  -5.712 -0.09 +0.01    -0.278 OA
DOCKED: BRANCH   7   8
DOCKED: ATOM      8  P   UNL d   1      20.654  45.557  -5.488 -0.22 -0.01    +0.473 P 
DOCKED: ATOM      9  O   UNL d   1      19.494  44.625  -5.460 -0.46 +0.00    -0.228 OA
DOCKED: BRANCH   8  10
DOCKED: ATOM     10  O   UNL d   1      21.690  45.235  -6.659 -0.08 -0.02    -0.303 OA
DOCKED: ATOM     11  H   UNL d   1      21.711  45.978  -7.290 +0.05 +0.01    +0.222 HD
DOCKED: ENDBRANCH   8  10
DOCKED: BRANCH   8  12
DOCKED: ATOM     12  O   UNL d   1      21.589  45.540  -4.204 -0.23 +0.02    -0.303 OA
DOCKED: ATOM     13  H   UNL d   1      22.207  46.305  -4.166 +0.08 +0.00    +0.222 HD
DOCKED: ENDBRANCH   8  12
DOCKED: ENDBRANCH   7   8
DOCKED: ENDBRANCH   1   7
DOCKED: BRANCH   2  14
DOCKED: ATOM     14  O   UNL d   1      18.906  48.226  -7.770 -0.02 +0.01    -0.278 OA
DOCKED: BRANCH  14  15
DOCKED: ATOM     15  P   UNL d   1      20.152  47.489  -8.457 +0.00 +0.00    +0.473 P 
DOCKED: ATOM     16  O   UNL d   1      21.507  47.807  -7.907 -0.01 -0.01    -0.228 OA
DOCKED: BRANCH  15  17
DOCKED: ATOM     17  O   UNL d   1      19.791  45.941  -8.353 -0.06 -0.01    -0.303 OA
DOCKED: ATOM     18  H   UNL d   1      19.717  45.658  -7.421 +0.08 +0.01    +0.222 HD
DOCKED: ENDBRANCH  15  17
DOCKED: BRANCH  15  19
DOCKED: ATOM     19  O   UNL d   1      19.963  47.758 -10.013 -0.00 -0.00    -0.303 OA
DOCKED: ATOM     20  H   UNL d   1      19.026  47.895 -10.244 +0.02 -0.00    +0.222 HD
DOCKED: ENDBRANCH  15  19
DOCKED: ENDBRANCH  14  15
DOCKED: ENDBRANCH   2  14
DOCKED: BRANCH   6  21
DOCKED: ATOM     21  O   UNL d   1      19.509  48.806  -3.556 -0.03 +0.10    -0.278 OA
DOCKED: BRANCH  21  22
DOCKED: ATOM     22  P   UNL d   1      21.023  49.208  -3.253 -0.08 -0.05    +0.473 P 
DOCKED: ATOM     23  O   UNL d   1      21.743  50.047  -4.253 -0.02 +0.01    -0.228 OA
DOCKED: BRANCH  22  24
DOCKED: ATOM     24  O   UNL d   1      20.904  49.852  -1.802 -0.14 +0.04    -0.303 OA
DOCKED: ATOM     25  H   UNL d   1      20.246  50.591  -1.846 +0.07 -0.04    +0.222 HD
DOCKED: ENDBRANCH  22  24
DOCKED: BRANCH  22  26
DOCKED: ATOM     26  O   UNL d   1      21.679  47.781  -2.929 -0.17 +0.01    -0.303 OA
DOCKED: ATOM     27  H   UNL d   1      21.195  47.086  -3.419 +0.07 -0.02    +0.222 HD
DOCKED: ENDBRANCH  22  26
DOCKED: ENDBRANCH  21  22
DOCKED: ENDBRANCH   6  21
DOCKED: BRANCH   3  28
DOCKED: ATOM     28  O   UNL d   1      16.260  48.254  -7.972 -0.08 +0.03    -0.278 OA
DOCKED: BRANCH  28  29
DOCKED: ATOM     29  P   UNL d   1      16.142  47.014  -8.964 -0.04 -0.08    +0.473 P 
DOCKED: ATOM     30  O   UNL d   1      15.991  45.686  -8.315 -0.28 +0.06    -0.228 OA
DOCKED: BRANCH  29  31
DOCKED: ATOM     31  O   UNL d   1      14.936  47.511  -9.890 -0.06 +0.07    -0.303 OA
DOCKED: ATOM     32  H   UNL d   1      14.640  46.758 -10.452 +0.04 -0.09    +0.222 HD
DOCKED: ENDBRANCH  29  31
DOCKED: BRANCH  29  33
DOCKED: ATOM     33  O   UNL d   1      17.412  47.215  -9.903 -0.03 +0.02    -0.303 OA
DOCKED: ATOM     34  H   UNL d   1      18.222  46.928  -9.414 +0.05 -0.01    +0.222 HD
DOCKED: ENDBRANCH  29  33
DOCKED: ENDBRANCH  28  29
DOCKED: ENDBRANCH   3  28
DOCKED: BRANCH   5  35
DOCKED: ATOM     35  O   UNL d   1      17.837  50.976  -4.568 -0.06 +0.04    -0.278 OA
DOCKED: BRANCH  35  36
DOCKED: ATOM     36  P   UNL d   1      18.325  51.519  -3.150 -0.15 -0.09    +0.473 P 
DOCKED: ATOM     37  O   UNL d   1      19.714  52.072  -3.115 -0.09 +0.03    -0.228 OA
DOCKED: BRANCH  36  38
DOCKED: ATOM     38  O   UNL d   1      17.190  52.579  -2.799 -0.22 +0.05    -0.303 OA
DOCKED: ATOM     39  H   UNL d   1      16.342  52.287  -3.199 +0.08 -0.04    +0.222 HD
DOCKED: ENDBRANCH  36  38
DOCKED: BRANCH  36  40
DOCKED: ATOM     40  O   UNL d   1      18.012  50.291  -2.190 -0.23 +0.14    -0.303 OA
DOCKED: ATOM     41  H   UNL d   1      18.761  49.655  -2.155 -0.46 -0.14    +0.222 HD
DOCKED: ENDBRANCH  36  40
DOCKED: ENDBRANCH  35  36
DOCKED: ENDBRANCH   5  35
DOCKED: BRANCH   4  42
DOCKED: ATOM     42  O   UNL d   1      15.426  49.760  -5.665 -0.09 +0.04    -0.278 OA
DOCKED: BRANCH  42  43
DOCKED: ATOM     43  P   UNL d   1      14.910  49.329  -4.219 -0.22 -0.11    +0.473 P 
DOCKED: ATOM     44  O   UNL d   1      15.401  48.033  -3.673 -0.22 +0.06    -0.228 OA
DOCKED: BRANCH  43  45
DOCKED: ATOM     45  O   UNL d   1      15.281  50.593  -3.325 -0.37 +0.06    -0.303 OA
DOCKED: ATOM     46  H   UNL d   1      16.246  50.660  -3.182 +0.09 -0.05    +0.222 HD
DOCKED: ENDBRANCH  43  45
DOCKED: BRANCH  43  47
DOCKED: ATOM     47  O   UNL d   1      13.318  49.471  -4.340 -0.33 +0.11    -0.303 OA
DOCKED: ATOM     48  H   UNL d   1      13.067  50.408  -4.206 -0.44 -0.12    +0.222 HD
DOCKED: ENDBRANCH  43  47
DOCKED: ENDBRANCH  42  43
DOCKED: ENDBRANCH   4  42
DOCKED: TORSDOF 24
DOCKED: TER
DOCKED: ENDMDL
________________________________________________________________________________


	BEGINNING GENETIC ALGORITHM DOCKING 30 of 100
Run: 30 Seed: 1789572197 291667434 [ Run 30 of 100 GA/GALS ]
Beginning LAMARCKIAN GENETIC ALGORITHM (LGA), with a maximum of 25000000 energy evaluations.

Final-Value: -17.046


	FINAL GENETIC ALGORITHM DOCKED STATE
	_______________________________________________


Detailed state:  trans 33.700 52.277 -1.185 quatxyzw -0.424335 0.776092 0.379520 0.271266 center 0.035 0.082 -0.065 ntor 24 -150.4856 7.4119 141.9703 3.8521 -7.9930 66.8151 -1.5785 -153.0796 -6.3754 -161.4229 45.5753 164.9220 44.2135 -177.7789 -159.7706 117.5166 -132.2830 168.6831 2.1312 7.7488 -46.4892 -6.4429 152.4331 -8.7016
State:	 33.700  52.277  -1.185  -0.441  0.806  0.394 148.521   -150.49    7.41  141.97    3.85   -7.99   66.82   -1.58 -153.08   -6.38 -161.42   45.58  164.92   44.21 -177.78 -159.77  117.52 -132.28  168.68    2.13    7.75  -46.49   -6.44  152.43   -8.70

DOCKED: MODEL       30
DOCKED: USER    Run = 30
DOCKED: USER    DPF = D:/Protein_go_brrr/autodock/final/2DN3/IHP/dock.dpf
DOCKED: USER  
DOCKED: USER    Estimated Free Energy of Binding    =   +4.95 kcal/mol  [=(1)+(2)+(3)-(4)]
DOCKED: USER    
DOCKED: USER    (1) Final Intermolecular Energy     =   -2.21 kcal/mol
DOCKED: USER        vdW + Hbond + desolv Energy     =   -2.15 kcal/mol
DOCKED: USER        Electrostatic Energy            =   -0.06 kcal/mol
DOCKED: USER    (2) Final Total Internal Energy     =  -14.83 kcal/mol
DOCKED: USER    (3) Torsional Free Energy           =   +7.16 kcal/mol
DOCKED: USER    (4) Unbound System's Energy  [=(2)] =  -14.83 kcal/mol
DOCKED: USER    
DOCKED: USER    
DOCKED: USER    NEWDPF move IHP_ideal_opt.pdbqt
DOCKED: USER    NEWDPF about 0.035000 0.082000 -0.065000
DOCKED: USER    NEWDPF tran0 33.700470 52.276945 -1.184507
DOCKED: USER    NEWDPF quaternion0 -0.424335 0.776092 0.379520 0.271266
DOCKED: USER    NEWDPF axisangle0 -0.440865 0.806326 0.394305 148.520770
DOCKED: USER    NEWDPF quat0 -0.440865 0.806326 0.394305 148.520770
DOCKED: USER    NEWDPF dihe0 -150.49 7.41 141.97 3.85 -7.99 66.82 -1.58 -153.08 -6.38 -161.42 45.58 164.92 44.21 -177.78 -159.77 117.52 -132.28 168.68 2.13 7.75 -46.49 -6.44 152.43 -8.70 
DOCKED: USER  keepresnum = 1 
DOCKED: USER  
DOCKED: REMARK  24 active torsions:
DOCKED: REMARK  status: ('A' for Active; 'I' for Inactive)
DOCKED: REMARK    1  A    between atoms: C_1  and  O_7 
DOCKED: REMARK    2  A    between atoms: C_2  and  O_12 
DOCKED: REMARK    3  A    between atoms: C_3  and  O_17 
DOCKED: REMARK    4  A    between atoms: C_4  and  O_22 
DOCKED: REMARK    5  A    between atoms: C_5  and  O_27 
DOCKED: REMARK    6  A    between atoms: C_6  and  O_32 
DOCKED: REMARK    7  A    between atoms: O_7  and  P_8 
DOCKED: REMARK    8  A    between atoms: P_8  and  O_10 
DOCKED: REMARK    9  A    between atoms: P_8  and  O_11 
DOCKED: REMARK   10  A    between atoms: O_12  and  P_13 
DOCKED: REMARK   11  A    between atoms: P_13  and  O_15 
DOCKED: REMARK   12  A    between atoms: P_13  and  O_16 
DOCKED: REMARK   13  A    between atoms: O_17  and  P_18 
DOCKED: REMARK   14  A    between atoms: P_18  and  O_20 
DOCKED: REMARK   15  A    between atoms: P_18  and  O_21 
DOCKED: REMARK   16  A    between atoms: O_22  and  P_23 
DOCKED: REMARK   17  A    between atoms: P_23  and  O_25 
DOCKED: REMARK   18  A    between atoms: P_23  and  O_26 
DOCKED: REMARK   19  A    between atoms: O_27  and  P_28 
DOCKED: REMARK   20  A    between atoms: P_28  and  O_30 
DOCKED: REMARK   21  A    between atoms: P_28  and  O_31 
DOCKED: REMARK   22  A    between atoms: O_32  and  P_33 
DOCKED: REMARK   23  A    between atoms: P_33  and  O_35 
DOCKED: REMARK   24  A    between atoms: P_33  and  O_36 
DOCKED: USER                              x       y       z     vdW  Elec       q    Type
DOCKED: USER                           _______ _______ _______ _____ _____    ______ ____
DOCKED: ROOT
DOCKED: ATOM      1  C   UNL d   1      32.897  51.165  -2.235 -0.04 +0.04    +0.194 C 
DOCKED: ATOM      2  C   UNL d   1      34.150  51.829  -2.809 -0.03 +0.03    +0.194 C 
DOCKED: ATOM      3  C   UNL d   1      34.200  53.323  -2.483 -0.02 +0.03    +0.194 C 
DOCKED: ATOM      4  C   UNL d   1      34.018  53.621  -0.997 -0.03 +0.03    +0.194 C 
DOCKED: ATOM      5  C   UNL d   1      32.846  52.889  -0.356 -0.06 +0.03    +0.194 C 
DOCKED: ATOM      6  C   UNL d   1      32.761  51.408  -0.731 -0.08 +0.04    +0.194 C 
DOCKED: ENDROOT
DOCKED: BRANCH   1   7
DOCKED: ATOM      7  O   UNL d   1      33.011  49.754  -2.430 -0.06 -0.08    -0.278 OA
DOCKED: BRANCH   7   8
DOCKED: ATOM      8  P   UNL d   1      31.891  49.014  -3.297 -0.01 +0.11    +0.473 P 
DOCKED: ATOM      9  O   UNL d   1      32.234  48.814  -4.731 -0.01 -0.04    -0.228 OA
DOCKED: BRANCH   8  10
DOCKED: ATOM     10  O   UNL d   1      31.637  47.647  -2.515 -0.03 -0.11    -0.303 OA
DOCKED: ATOM     11  H   UNL d   1      31.460  47.836  -1.575 +0.04 +0.10    +0.222 HD
DOCKED: ENDBRANCH   8  10
DOCKED: BRANCH   8  12
DOCKED: ATOM     12  O   UNL d   1      30.550  49.816  -3.009 -0.00 -0.05    -0.303 OA
DOCKED: ATOM     13  H   UNL d   1      30.472  50.115  -2.075 +0.02 +0.04    +0.222 HD
DOCKED: ENDBRANCH   8  12
DOCKED: ENDBRANCH   7   8
DOCKED: ENDBRANCH   1   7
DOCKED: BRANCH   2  14
DOCKED: ATOM     14  O   UNL d   1      35.310  51.201  -2.247 -0.05 -0.06    -0.278 OA
DOCKED: BRANCH  14  15
DOCKED: ATOM     15  P   UNL d   1      36.533  50.934  -3.246 -0.04 +0.08    +0.473 P 
DOCKED: ATOM     16  O   UNL d   1      36.992  49.515  -3.382 -0.06 -0.05    -0.228 OA
DOCKED: BRANCH  15  17
DOCKED: ATOM     17  O   UNL d   1      36.049  51.561  -4.628 -0.01 -0.04    -0.303 OA
DOCKED: ATOM     18  H   UNL d   1      35.663  52.448  -4.495 +0.01 +0.03    +0.222 HD
DOCKED: ENDBRANCH  15  17
DOCKED: BRANCH  15  19
DOCKED: ATOM     19  O   UNL d   1      37.648  51.975  -2.795 -0.01 -0.04    -0.303 OA
DOCKED: ATOM     20  H   UNL d   1      37.312  52.890  -2.807 +0.01 +0.03    +0.222 HD
DOCKED: ENDBRANCH  15  19
DOCKED: ENDBRANCH  14  15
DOCKED: ENDBRANCH   2  14
DOCKED: BRANCH   6  21
DOCKED: ATOM     21  O   UNL d   1      31.462  50.960  -0.351 -0.05 -0.05    -0.278 OA
DOCKED: BRANCH  21  22
DOCKED: ATOM     22  P   UNL d   1      31.249  49.447   0.108 -0.10 +0.12    +0.473 P 
DOCKED: ATOM     23  O   UNL d   1      30.150  48.665  -0.528 -0.05 -0.06    -0.228 OA
DOCKED: BRANCH  22  24
DOCKED: ATOM     24  O   UNL d   1      32.705  48.838  -0.093 -0.10 -0.16    -0.303 OA
DOCKED: ATOM     25  H   UNL d   1      32.859  48.721  -1.066 +0.03 +0.11    +0.222 HD
DOCKED: ENDBRANCH  22  24
DOCKED: BRANCH  22  26
DOCKED: ATOM     26  O   UNL d   1      31.172  49.599   1.703 -0.22 -0.02    -0.303 OA
DOCKED: ATOM     27  H   UNL d   1      31.996  49.251   2.099 -0.22 -0.03    +0.222 HD
DOCKED: ENDBRANCH  22  26
DOCKED: ENDBRANCH  21  22
DOCKED: ENDBRANCH   6  21
DOCKED: BRANCH   3  28
DOCKED: ATOM     28  O   UNL d   1      35.504  53.789  -2.804 -0.01 -0.03    -0.278 OA
DOCKED: BRANCH  28  29
DOCKED: ATOM     29  P   UNL d   1      35.750  54.645  -4.125 -0.00 +0.04    +0.473 P 
DOCKED: ATOM     30  O   UNL d   1      35.652  56.118  -3.960 +0.00 -0.02    -0.228 OA
DOCKED: BRANCH  29  31
DOCKED: ATOM     31  O   UNL d   1      37.168  54.058  -4.578 -0.00 -0.03    -0.303 OA
DOCKED: ATOM     32  H   UNL d   1      37.115  53.074  -4.580 +0.00 +0.02    +0.222 HD
DOCKED: ENDBRANCH  29  31
DOCKED: BRANCH  29  33
DOCKED: ATOM     33  O   UNL d   1      34.743  53.967  -5.155 -0.00 -0.03    -0.303 OA
DOCKED: ATOM     34  H   UNL d   1      35.228  53.277  -5.670 +0.00 +0.02    +0.222 HD
DOCKED: ENDBRANCH  29  33
DOCKED: ENDBRANCH  28  29
DOCKED: ENDBRANCH   3  28
DOCKED: BRANCH   5  35
DOCKED: ATOM     35  O   UNL d   1      33.072  52.954   1.051 -0.13 -0.07    -0.278 OA
DOCKED: BRANCH  35  36
DOCKED: ATOM     36  P   UNL d   1      34.149  51.998   1.737 +0.02 +0.12    +0.473 P 
DOCKED: ATOM     37  O   UNL d   1      33.641  50.659   2.167 -0.22 -0.05    -0.228 OA
DOCKED: BRANCH  36  38
DOCKED: ATOM     38  O   UNL d   1      35.289  51.941   0.627 -0.08 -0.08    -0.303 OA
DOCKED: ATOM     39  H   UNL d   1      35.002  51.343  -0.097 +0.06 +0.06    +0.222 HD
DOCKED: ENDBRANCH  36  38
DOCKED: BRANCH  36  40
DOCKED: ATOM     40  O   UNL d   1      34.762  52.935   2.867 -0.15 -0.11    -0.303 OA
DOCKED: ATOM     41  H   UNL d   1      35.163  52.411   3.596 -0.45 +0.06    +0.222 HD
DOCKED: ENDBRANCH  36  40
DOCKED: ENDBRANCH  35  36
DOCKED: ENDBRANCH   5  35
DOCKED: BRANCH   4  42
DOCKED: ATOM     42  O   UNL d   1      33.750  55.023  -0.885 -0.01 -0.04    -0.278 OA
DOCKED: BRANCH  42  43
DOCKED: ATOM     43  P   UNL d   1      34.746  55.933  -0.034 -0.01 +0.06    +0.473 P 
DOCKED: ATOM     44  O   UNL d   1      34.157  57.074   0.721 -0.03 -0.03    -0.228 OA
DOCKED: BRANCH  43  45
DOCKED: ATOM     45  O   UNL d   1      35.498  54.868   0.878 -0.04 -0.06    -0.303 OA
DOCKED: ATOM     46  H   UNL d   1      34.942  54.080   1.041 +0.05 +0.05    +0.222 HD
DOCKED: ENDBRANCH  43  45
DOCKED: BRANCH  43  47
DOCKED: ATOM     47  O   UNL d   1      35.885  56.319  -1.093 -0.00 -0.03    -0.303 OA
DOCKED: ATOM     48  H   UNL d   1      35.827  55.717  -1.864 +0.00 +0.02    +0.222 HD
DOCKED: ENDBRANCH  43  47
DOCKED: ENDBRANCH  42  43
DOCKED: ENDBRANCH   4  42
DOCKED: TORSDOF 24
DOCKED: TER
DOCKED: ENDMDL
________________________________________________________________________________


	BEGINNING GENETIC ALGORITHM DOCKING 31 of 100
Run: 31 Seed: 257690719 1832315956 [ Run 31 of 100 GA/GALS ]
Beginning LAMARCKIAN GENETIC ALGORITHM (LGA), with a maximum of 25000000 energy evaluations.

Final-Value: -18.307


	FINAL GENETIC ALGORITHM DOCKED STATE
	_______________________________________________


Detailed state:  trans -1.139 23.431 5.131 quatxyzw -0.445239 -0.509772 -0.718224 0.161396 center 0.035 0.082 -0.065 ntor 24 -113.4600 10.1070 140.5089 136.4763 63.9570 -133.0312 -88.4680 13.6941 30.3090 112.6267 71.1932 100.8494 30.4502 94.0844 124.2112 30.3278 -65.0965 166.8289 -5.1070 -28.9303 -10.9353 -49.6713 -168.6111 19.3524
State:	 -1.139  23.431   5.131  -0.451 -0.517 -0.728 161.424   -113.46   10.11  140.51  136.48   63.96 -133.03  -88.47   13.69   30.31  112.63   71.19  100.85   30.45   94.08  124.21   30.33  -65.10  166.83   -5.11  -28.93  -10.94  -49.67 -168.61   19.35

DOCKED: MODEL       31
DOCKED: USER    Run = 31
DOCKED: USER    DPF = D:/Protein_go_brrr/autodock/final/2DN3/IHP/dock.dpf
DOCKED: USER  
DOCKED: USER    Estimated Free Energy of Binding    =   +4.11 kcal/mol  [=(1)+(2)+(3)-(4)]
DOCKED: USER    
DOCKED: USER    (1) Final Intermolecular Energy     =   -3.05 kcal/mol
DOCKED: USER        vdW + Hbond + desolv Energy     =   -2.72 kcal/mol
DOCKED: USER        Electrostatic Energy            =   -0.33 kcal/mol
DOCKED: USER    (2) Final Total Internal Energy     =  -15.26 kcal/mol
DOCKED: USER    (3) Torsional Free Energy           =   +7.16 kcal/mol
DOCKED: USER    (4) Unbound System's Energy  [=(2)] =  -15.26 kcal/mol
DOCKED: USER    
DOCKED: USER    
DOCKED: USER    NEWDPF move IHP_ideal_opt.pdbqt
DOCKED: USER    NEWDPF about 0.035000 0.082000 -0.065000
DOCKED: USER    NEWDPF tran0 -1.139475 23.430770 5.130740
DOCKED: USER    NEWDPF quaternion0 -0.445239 -0.509772 -0.718224 0.161396
DOCKED: USER    NEWDPF axisangle0 -0.451154 -0.516544 -0.727765 161.424175
DOCKED: USER    NEWDPF quat0 -0.451154 -0.516544 -0.727765 161.424175
DOCKED: USER    NEWDPF dihe0 -113.46 10.11 140.51 136.48 63.96 -133.03 -88.47 13.69 30.31 112.63 71.19 100.85 30.45 94.08 124.21 30.33 -65.10 166.83 -5.11 -28.93 -10.94 -49.67 -168.61 19.35 
DOCKED: USER  keepresnum = 1 
DOCKED: USER  
DOCKED: REMARK  24 active torsions:
DOCKED: REMARK  status: ('A' for Active; 'I' for Inactive)
DOCKED: REMARK    1  A    between atoms: C_1  and  O_7 
DOCKED: REMARK    2  A    between atoms: C_2  and  O_12 
DOCKED: REMARK    3  A    between atoms: C_3  and  O_17 
DOCKED: REMARK    4  A    between atoms: C_4  and  O_22 
DOCKED: REMARK    5  A    between atoms: C_5  and  O_27 
DOCKED: REMARK    6  A    between atoms: C_6  and  O_32 
DOCKED: REMARK    7  A    between atoms: O_7  and  P_8 
DOCKED: REMARK    8  A    between atoms: P_8  and  O_10 
DOCKED: REMARK    9  A    between atoms: P_8  and  O_11 
DOCKED: REMARK   10  A    between atoms: O_12  and  P_13 
DOCKED: REMARK   11  A    between atoms: P_13  and  O_15 
DOCKED: REMARK   12  A    between atoms: P_13  and  O_16 
DOCKED: REMARK   13  A    between atoms: O_17  and  P_18 
DOCKED: REMARK   14  A    between atoms: P_18  and  O_20 
DOCKED: REMARK   15  A    between atoms: P_18  and  O_21 
DOCKED: REMARK   16  A    between atoms: O_22  and  P_23 
DOCKED: REMARK   17  A    between atoms: P_23  and  O_25 
DOCKED: REMARK   18  A    between atoms: P_23  and  O_26 
DOCKED: REMARK   19  A    between atoms: O_27  and  P_28 
DOCKED: REMARK   20  A    between atoms: P_28  and  O_30 
DOCKED: REMARK   21  A    between atoms: P_28  and  O_31 
DOCKED: REMARK   22  A    between atoms: O_32  and  P_33 
DOCKED: REMARK   23  A    between atoms: P_33  and  O_35 
DOCKED: REMARK   24  A    between atoms: P_33  and  O_36 
DOCKED: USER                              x       y       z     vdW  Elec       q    Type
DOCKED: USER                           _______ _______ _______ _____ _____    ______ ____
DOCKED: ROOT
DOCKED: ATOM      1  C   UNL d   1      -1.392  25.136   5.014 -0.07 -0.14    +0.194 C 
DOCKED: ATOM      2  C   UNL d   1      -1.179  24.407   3.686 -0.05 -0.09    +0.194 C 
DOCKED: ATOM      3  C   UNL d   1      -0.046  23.383   3.777 -0.13 -0.11    +0.194 C 
DOCKED: ATOM      4  C   UNL d   1      -0.202  22.415   4.948 -0.17 -0.11    +0.194 C 
DOCKED: ATOM      5  C   UNL d   1      -0.529  23.092   6.273 -0.13 -0.19    +0.194 C 
DOCKED: ATOM      6  C   UNL d   1      -1.620  24.160   6.170 -0.10 -0.15    +0.194 C 
DOCKED: ENDROOT
DOCKED: BRANCH   1   7
DOCKED: ATOM      7  O   UNL d   1      -2.567  25.941   4.898 -0.02 +0.11    -0.278 OA
DOCKED: BRANCH   7   8
DOCKED: ATOM      8  P   UNL d   1      -2.467  27.490   5.276 -0.01 -0.16    +0.473 P 
DOCKED: ATOM      9  O   UNL d   1      -1.925  28.368   4.204 -0.01 +0.06    -0.228 OA
DOCKED: BRANCH   8  10
DOCKED: ATOM     10  O   UNL d   1      -3.951  27.877   5.715 +0.00 +0.05    -0.303 OA
DOCKED: ATOM     11  H   UNL d   1      -4.063  27.712   6.670 +0.01 -0.04    +0.222 HD
DOCKED: ENDBRANCH   8  10
DOCKED: BRANCH   8  12
DOCKED: ATOM     12  O   UNL d   1      -1.690  27.527   6.662 -0.06 +0.17    -0.303 OA
DOCKED: ATOM     13  H   UNL d   1      -1.904  26.764   7.245 +0.04 -0.14    +0.222 HD
DOCKED: ENDBRANCH   8  12
DOCKED: ENDBRANCH   7   8
DOCKED: ENDBRANCH   1   7
DOCKED: BRANCH   2  14
DOCKED: ATOM     14  O   UNL d   1      -2.386  23.722   3.331 -0.00 +0.07    -0.278 OA
DOCKED: BRANCH  14  15
DOCKED: ATOM     15  P   UNL d   1      -3.291  24.405   2.200 +0.01 -0.06    +0.473 P 
DOCKED: ATOM     16  O   UNL d   1      -4.095  23.486   1.336 +0.00 +0.02    -0.228 OA
DOCKED: BRANCH  15  17
DOCKED: ATOM     17  O   UNL d   1      -4.193  25.445   3.002 +0.00 +0.04    -0.303 OA
DOCKED: ATOM     18  H   UNL d   1      -3.660  25.948   3.648 +0.01 -0.04    +0.222 HD
DOCKED: ENDBRANCH  15  17
DOCKED: BRANCH  15  19
DOCKED: ATOM     19  O   UNL d   1      -2.295  25.376   1.428 +0.00 +0.04    -0.303 OA
DOCKED: ATOM     20  H   UNL d   1      -1.711  24.884   0.821 +0.02 -0.03    +0.222 HD
DOCKED: ENDBRANCH  15  19
DOCKED: ENDBRANCH  14  15
DOCKED: ENDBRANCH   2  14
DOCKED: BRANCH   6  21
DOCKED: ATOM     21  O   UNL d   1      -1.568  24.920   7.375 -0.11 +0.27    -0.278 OA
DOCKED: BRANCH  21  22
DOCKED: ATOM     22  P   UNL d   1      -2.785  24.856   8.405 -0.04 -0.20    +0.473 P 
DOCKED: ATOM     23  O   UNL d   1      -2.509  25.145   9.842 -0.05 +0.08    -0.228 OA
DOCKED: BRANCH  22  24
DOCKED: ATOM     24  O   UNL d   1      -3.842  25.829   7.720 -0.00 +0.07    -0.303 OA
DOCKED: ATOM     25  H   UNL d   1      -3.431  26.203   6.900 +0.02 -0.07    +0.222 HD
DOCKED: ENDBRANCH  22  24
DOCKED: BRANCH  22  26
DOCKED: ATOM     26  O   UNL d   1      -3.407  23.413   8.085 -0.03 +0.08    -0.303 OA
DOCKED: ATOM     27  H   UNL d   1      -2.698  22.740   8.135 +0.03 -0.07    +0.222 HD
DOCKED: ENDBRANCH  22  26
DOCKED: ENDBRANCH  21  22
DOCKED: ENDBRANCH   6  21
DOCKED: BRANCH   3  28
DOCKED: ATOM     28  O   UNL d   1      -0.104  22.574   2.609 -0.07 +0.09    -0.278 OA
DOCKED: BRANCH  28  29
DOCKED: ATOM     29  P   UNL d   1       0.071  23.229   1.168 -0.06 -0.12    +0.473 P 
DOCKED: ATOM     30  O   UNL d   1       0.393  24.679   1.158 -0.10 +0.07    -0.228 OA
DOCKED: BRANCH  29  31
DOCKED: ATOM     31  O   UNL d   1       1.162  22.239   0.543 -0.13 +0.09    -0.303 OA
DOCKED: ATOM     32  H   UNL d   1       1.792  21.977   1.253 -0.34 -0.11    +0.222 HD
DOCKED: ENDBRANCH  29  31
DOCKED: BRANCH  29  33
DOCKED: ATOM     33  O   UNL d   1      -1.270  22.784   0.434 -0.01 +0.04    -0.303 OA
DOCKED: ATOM     34  H   UNL d   1      -2.025  23.304   0.802 +0.02 -0.03    +0.222 HD
DOCKED: ENDBRANCH  29  33
DOCKED: ENDBRANCH  28  29
DOCKED: ENDBRANCH   3  28
DOCKED: BRANCH   5  35
DOCKED: ATOM     35  O   UNL d   1      -1.031  22.061   7.121 -0.06 +0.16    -0.278 OA
DOCKED: BRANCH  35  36
DOCKED: ATOM     36  P   UNL d   1      -1.966  20.914   6.526 -0.03 -0.10    +0.473 P 
DOCKED: ATOM     37  O   UNL d   1      -2.648  21.242   5.236 -0.02 +0.04    -0.228 OA
DOCKED: BRANCH  36  38
DOCKED: ATOM     38  O   UNL d   1      -0.958  19.684   6.439 -0.10 +0.05    -0.303 OA
DOCKED: ATOM     39  H   UNL d   1      -0.083  20.007   6.135 +0.07 -0.06    +0.222 HD
DOCKED: ENDBRANCH  36  38
DOCKED: BRANCH  36  40
DOCKED: ATOM     40  O   UNL d   1      -2.898  20.558   7.765 -0.22 +0.03    -0.303 OA
DOCKED: ATOM     41  H   UNL d   1      -3.539  21.278   7.957 +0.02 -0.03    +0.222 HD
DOCKED: ENDBRANCH  36  40
DOCKED: ENDBRANCH  35  36
DOCKED: ENDBRANCH   5  35
DOCKED: BRANCH   4  42
DOCKED: ATOM     42  O   UNL d   1       1.058  21.756   5.112 -0.28 +0.17    -0.278 OA
DOCKED: BRANCH  42  43
DOCKED: ATOM     43  P   UNL d   1       1.312  20.377   4.352 -0.15 -0.11    +0.473 P 
DOCKED: ATOM     44  O   UNL d   1       2.185  19.373   5.022 -0.37 +0.03    -0.228 OA
DOCKED: BRANCH  43  45
DOCKED: ATOM     45  O   UNL d   1      -0.165  19.863   4.058 -0.05 +0.04    -0.303 OA
DOCKED: ATOM     46  H   UNL d   1      -0.836  20.473   4.425 +0.05 -0.04    +0.222 HD
DOCKED: ENDBRANCH  43  45
DOCKED: BRANCH  43  47
DOCKED: ATOM     47  O   UNL d   1       1.789  20.845   2.895 -0.11 +0.08    -0.303 OA
DOCKED: ATOM     48  H   UNL d   1       1.005  21.088   2.361 +0.06 -0.06    +0.222 HD
DOCKED: ENDBRANCH  43  47
DOCKED: ENDBRANCH  42  43
DOCKED: ENDBRANCH   4  42
DOCKED: TORSDOF 24
DOCKED: TER
DOCKED: ENDMDL
________________________________________________________________________________


	BEGINNING GENETIC ALGORITHM DOCKING 32 of 100
Run: 32 Seed: 872419401 2053458094 [ Run 32 of 100 GA/GALS ]
Beginning LAMARCKIAN GENETIC ALGORITHM (LGA), with a maximum of 25000000 energy evaluations.

Final-Value: -17.378


	FINAL GENETIC ALGORITHM DOCKED STATE
	_______________________________________________


Detailed state:  trans 23.470 25.928 -7.134 quatxyzw -0.621412 -0.220653 -0.176547 0.730746 center 0.035 0.082 -0.065 ntor 24 -174.6283 5.6942 37.9509 39.1316 7.2747 173.9012 -129.1922 -28.1188 37.1966 111.2556 164.7817 128.7193 55.1107 171.1126 -47.3440 51.9678 -118.6959 -170.5572 31.1160 -11.7009 -176.7534 -10.0614 -9.5087 21.5033
State:	 23.470  25.928  -7.134  -0.910 -0.323 -0.259 86.102   -174.63    5.69   37.95   39.13    7.27  173.90 -129.19  -28.12   37.20  111.26  164.78  128.72   55.11  171.11  -47.34   51.97 -118.70 -170.56   31.12  -11.70 -176.75  -10.06   -9.51   21.50

DOCKED: MODEL       32
DOCKED: USER    Run = 32
DOCKED: USER    DPF = D:/Protein_go_brrr/autodock/final/2DN3/IHP/dock.dpf
DOCKED: USER  
DOCKED: USER    Estimated Free Energy of Binding    =   +3.97 kcal/mol  [=(1)+(2)+(3)-(4)]
DOCKED: USER    
DOCKED: USER    (1) Final Intermolecular Energy     =   -3.19 kcal/mol
DOCKED: USER        vdW + Hbond + desolv Energy     =   -3.11 kcal/mol
DOCKED: USER        Electrostatic Energy            =   -0.09 kcal/mol
DOCKED: USER    (2) Final Total Internal Energy     =  -14.19 kcal/mol
DOCKED: USER    (3) Torsional Free Energy           =   +7.16 kcal/mol
DOCKED: USER    (4) Unbound System's Energy  [=(2)] =  -14.19 kcal/mol
DOCKED: USER    
DOCKED: USER    
DOCKED: USER    NEWDPF move IHP_ideal_opt.pdbqt
DOCKED: USER    NEWDPF about 0.035000 0.082000 -0.065000
DOCKED: USER    NEWDPF tran0 23.470479 25.927699 -7.133976
DOCKED: USER    NEWDPF quaternion0 -0.621412 -0.220653 -0.176547 0.730746
DOCKED: USER    NEWDPF axisangle0 -0.910295 -0.323230 -0.258620 86.101983
DOCKED: USER    NEWDPF quat0 -0.910295 -0.323230 -0.258620 86.101983
DOCKED: USER    NEWDPF dihe0 -174.63 5.69 37.95 39.13 7.27 173.90 -129.19 -28.12 37.20 111.26 164.78 128.72 55.11 171.11 -47.34 51.97 -118.70 -170.56 31.12 -11.70 -176.75 -10.06 -9.51 21.50 
DOCKED: USER  keepresnum = 1 
DOCKED: USER  
DOCKED: REMARK  24 active torsions:
DOCKED: REMARK  status: ('A' for Active; 'I' for Inactive)
DOCKED: REMARK    1  A    between atoms: C_1  and  O_7 
DOCKED: REMARK    2  A    between atoms: C_2  and  O_12 
DOCKED: REMARK    3  A    between atoms: C_3  and  O_17 
DOCKED: REMARK    4  A    between atoms: C_4  and  O_22 
DOCKED: REMARK    5  A    between atoms: C_5  and  O_27 
DOCKED: REMARK    6  A    between atoms: C_6  and  O_32 
DOCKED: REMARK    7  A    between atoms: O_7  and  P_8 
DOCKED: REMARK    8  A    between atoms: P_8  and  O_10 
DOCKED: REMARK    9  A    between atoms: P_8  and  O_11 
DOCKED: REMARK   10  A    between atoms: O_12  and  P_13 
DOCKED: REMARK   11  A    between atoms: P_13  and  O_15 
DOCKED: REMARK   12  A    between atoms: P_13  and  O_16 
DOCKED: REMARK   13  A    between atoms: O_17  and  P_18 
DOCKED: REMARK   14  A    between atoms: P_18  and  O_20 
DOCKED: REMARK   15  A    between atoms: P_18  and  O_21 
DOCKED: REMARK   16  A    between atoms: O_22  and  P_23 
DOCKED: REMARK   17  A    between atoms: P_23  and  O_25 
DOCKED: REMARK   18  A    between atoms: P_23  and  O_26 
DOCKED: REMARK   19  A    between atoms: O_27  and  P_28 
DOCKED: REMARK   20  A    between atoms: P_28  and  O_30 
DOCKED: REMARK   21  A    between atoms: P_28  and  O_31 
DOCKED: REMARK   22  A    between atoms: O_32  and  P_33 
DOCKED: REMARK   23  A    between atoms: P_33  and  O_35 
DOCKED: REMARK   24  A    between atoms: P_33  and  O_36 
DOCKED: USER                              x       y       z     vdW  Elec       q    Type
DOCKED: USER                           _______ _______ _______ _____ _____    ______ ____
DOCKED: ROOT
DOCKED: ATOM      1  C   UNL d   1      24.938  25.791  -8.036 -0.01 -0.05    +0.194 C 
DOCKED: ATOM      2  C   UNL d   1      23.676  25.300  -8.748 -0.02 -0.05    +0.194 C 
DOCKED: ATOM      3  C   UNL d   1      22.781  24.482  -7.815 -0.04 -0.05    +0.194 C 
DOCKED: ATOM      4  C   UNL d   1      22.462  25.199  -6.505 -0.11 -0.07    +0.194 C 
DOCKED: ATOM      5  C   UNL d   1      23.679  25.804  -5.818 -0.09 -0.08    +0.194 C 
DOCKED: ATOM      6  C   UNL d   1      24.607  26.571  -6.763 -0.05 -0.09    +0.194 C 
DOCKED: ENDROOT
DOCKED: BRANCH   1   7
DOCKED: ATOM      7  O   UNL d   1      25.628  26.683  -8.915 -0.00 +0.06    -0.278 OA
DOCKED: BRANCH   7   8
DOCKED: ATOM      8  P   UNL d   1      26.740  26.079  -9.889 +0.00 -0.05    +0.473 P 
DOCKED: ATOM      9  O   UNL d   1      26.347  25.998 -11.322 +0.00 +0.02    -0.228 OA
DOCKED: BRANCH   8  10
DOCKED: ATOM     10  O   UNL d   1      28.017  27.002  -9.638 +0.00 +0.02    -0.303 OA
DOCKED: ATOM     11  H   UNL d   1      27.984  27.366  -8.734 +0.00 -0.02    +0.222 HD
DOCKED: ENDBRANCH   8  10
DOCKED: BRANCH   8  12
DOCKED: ATOM     12  O   UNL d   1      27.182  24.710  -9.213 +0.00 +0.02    -0.303 OA
DOCKED: ATOM     13  H   UNL d   1      27.247  24.768  -8.233 +0.00 -0.02    +0.222 HD
DOCKED: ENDBRANCH   8  12
DOCKED: ENDBRANCH   7   8
DOCKED: ENDBRANCH   1   7
DOCKED: BRANCH   2  14
DOCKED: ATOM     14  O   UNL d   1      22.933  26.433  -9.216 -0.03 +0.09    -0.278 OA
DOCKED: BRANCH  14  15
DOCKED: ATOM     15  P   UNL d   1      22.688  26.526 -10.796 +0.00 -0.09    +0.473 P 
DOCKED: ATOM     16  O   UNL d   1      22.950  27.851 -11.440 -0.01 +0.04    -0.228 OA
DOCKED: BRANCH  15  17
DOCKED: ATOM     17  O   UNL d   1      23.590  25.358 -11.397 -0.00 +0.04    -0.303 OA
DOCKED: ATOM     18  H   UNL d   1      24.527  25.472 -11.145 +0.00 -0.03    +0.222 HD
DOCKED: ENDBRANCH  15  17
DOCKED: BRANCH  15  19
DOCKED: ATOM     19  O   UNL d   1      21.225  25.938 -11.005 -0.02 +0.06    -0.303 OA
DOCKED: ATOM     20  H   UNL d   1      20.949  25.382 -10.253 +0.04 -0.05    +0.222 HD
DOCKED: ENDBRANCH  15  19
DOCKED: ENDBRANCH  14  15
DOCKED: ENDBRANCH   2  14
DOCKED: BRANCH   6  21
DOCKED: ATOM     21  O   UNL d   1      25.833  26.771  -6.064 -0.01 +0.09    -0.278 OA
DOCKED: BRANCH  21  22
DOCKED: ATOM     22  P   UNL d   1      26.907  25.593  -5.996 +0.01 -0.07    +0.473 P 
DOCKED: ATOM     23  O   UNL d   1      26.456  24.208  -6.319 +0.00 +0.03    -0.228 OA
DOCKED: BRANCH  22  24
DOCKED: ATOM     24  O   UNL d   1      28.064  26.153  -6.934 +0.00 +0.03    -0.303 OA
DOCKED: ATOM     25  H   UNL d   1      27.681  26.313  -7.834 +0.00 -0.02    +0.222 HD
DOCKED: ENDBRANCH  22  24
DOCKED: BRANCH  22  26
DOCKED: ATOM     26  O   UNL d   1      27.533  25.806  -4.536 +0.00 +0.04    -0.303 OA
DOCKED: ATOM     27  H   UNL d   1      27.100  26.573  -4.109 +0.02 -0.04    +0.222 HD
DOCKED: ENDBRANCH  22  26
DOCKED: ENDBRANCH  21  22
DOCKED: ENDBRANCH   6  21
DOCKED: BRANCH   3  28
DOCKED: ATOM     28  O   UNL d   1      21.528  24.310  -8.466 -0.07 +0.07    -0.278 OA
DOCKED: BRANCH  28  29
DOCKED: ATOM     29  P   UNL d   1      21.186  22.941  -9.203 -0.06 -0.13    +0.473 P 
DOCKED: ATOM     30  O   UNL d   1      21.897  21.741  -8.690 -0.05 +0.06    -0.228 OA
DOCKED: BRANCH  29  31
DOCKED: ATOM     31  O   UNL d   1      19.590  22.948  -9.079 -0.13 +0.13    -0.303 OA
DOCKED: ATOM     32  H   UNL d   1      19.346  22.682  -8.163 -0.41 -0.13    +0.222 HD
DOCKED: ENDBRANCH  29  31
DOCKED: BRANCH  29  33
DOCKED: ATOM     33  O   UNL d   1      21.421  23.318 -10.732 -0.02 +0.06    -0.303 OA
DOCKED: ATOM     34  H   UNL d   1      22.130  24.004 -10.789 +0.02 -0.04    +0.222 HD
DOCKED: ENDBRANCH  29  33
DOCKED: ENDBRANCH  28  29
DOCKED: ENDBRANCH   3  28
DOCKED: BRANCH   5  35
DOCKED: ATOM     35  O   UNL d   1      23.164  26.747  -4.879 -0.18 +0.22    -0.278 OA
DOCKED: BRANCH  35  36
DOCKED: ATOM     36  P   UNL d   1      23.491  26.595  -3.325 -0.15 -0.29    +0.473 P 
DOCKED: ATOM     37  O   UNL d   1      22.758  25.502  -2.615 -0.14 +0.08    -0.228 OA
DOCKED: BRANCH  36  38
DOCKED: ATOM     38  O   UNL d   1      25.074  26.418  -3.341 -0.04 +0.12    -0.303 OA
DOCKED: ATOM     39  H   UNL d   1      25.335  25.941  -4.158 +0.04 -0.07    +0.222 HD
DOCKED: ENDBRANCH  36  38
DOCKED: BRANCH  36  40
DOCKED: ATOM     40  O   UNL d   1      23.277  28.077  -2.787 -0.24 +0.36    -0.303 OA
DOCKED: ATOM     41  H   UNL d   1      22.329  28.336  -2.801 -0.44 -0.32    +0.222 HD
DOCKED: ENDBRANCH  36  40
DOCKED: ENDBRANCH  35  36
DOCKED: ENDBRANCH   5  35
DOCKED: BRANCH   4  42
DOCKED: ATOM     42  O   UNL d   1      21.922  24.216  -5.616 -0.10 +0.07    -0.278 OA
DOCKED: BRANCH  42  43
DOCKED: ATOM     43  P   UNL d   1      20.347  23.963  -5.611 -0.17 -0.10    +0.473 P 
DOCKED: ATOM     44  O   UNL d   1      19.635  24.088  -4.308 -0.39 +0.02    -0.228 OA
DOCKED: BRANCH  43  45
DOCKED: ATOM     45  O   UNL d   1      19.829  24.965  -6.733 -0.14 +0.07    -0.303 OA
DOCKED: ATOM     46  H   UNL d   1      19.789  24.532  -7.609 +0.09 -0.05    +0.222 HD
DOCKED: ENDBRANCH  43  45
DOCKED: BRANCH  43  47
DOCKED: ATOM     47  O   UNL d   1      20.201  22.546  -6.346 -0.25 +0.10    -0.303 OA
DOCKED: ATOM     48  H   UNL d   1      20.676  22.577  -7.202 +0.04 -0.08    +0.222 HD
DOCKED: ENDBRANCH  43  47
DOCKED: ENDBRANCH  42  43
DOCKED: ENDBRANCH   4  42
DOCKED: TORSDOF 24
DOCKED: TER
DOCKED: ENDMDL
________________________________________________________________________________


	BEGINNING GENETIC ALGORITHM DOCKING 33 of 100
Run: 33 Seed: 1986184753 443829694 [ Run 33 of 100 GA/GALS ]
Beginning LAMARCKIAN GENETIC ALGORITHM (LGA), with a maximum of 25000000 energy evaluations.

Final-Value: -15.987


	FINAL GENETIC ALGORITHM DOCKED STATE
	_______________________________________________


Detailed state:  trans 1.435 28.886 -10.062 quatxyzw -0.187560 0.776531 0.291829 -0.525981 center 0.035 0.082 -0.065 ntor 24 -180.0000 144.7395 77.5779 131.9210 24.1628 -150.8869 -103.8887 -15.2707 54.2582 59.7950 27.3892 -174.5000 99.1274 127.0462 -50.0246 72.0633 133.9009 -13.2733 46.5017 1.6833 -169.7914 128.2748 -10.7200 167.8429
State:	  1.435  28.886 -10.062  -0.221  0.913  0.343 -116.531   -180.00  144.74   77.58  131.92   24.16 -150.89 -103.89  -15.27   54.26   59.79   27.39 -174.50   99.13  127.05  -50.02   72.06  133.90  -13.27   46.50    1.68 -169.79  128.27  -10.72  167.84

DOCKED: MODEL       33
DOCKED: USER    Run = 33
DOCKED: USER    DPF = D:/Protein_go_brrr/autodock/final/2DN3/IHP/dock.dpf
DOCKED: USER  
DOCKED: USER    Estimated Free Energy of Binding    =   +3.88 kcal/mol  [=(1)+(2)+(3)-(4)]
DOCKED: USER    
DOCKED: USER    (1) Final Intermolecular Energy     =   -3.28 kcal/mol
DOCKED: USER        vdW + Hbond + desolv Energy     =   -2.83 kcal/mol
DOCKED: USER        Electrostatic Energy            =   -0.45 kcal/mol
DOCKED: USER    (2) Final Total Internal Energy     =  -12.71 kcal/mol
DOCKED: USER    (3) Torsional Free Energy           =   +7.16 kcal/mol
DOCKED: USER    (4) Unbound System's Energy  [=(2)] =  -12.71 kcal/mol
DOCKED: USER    
DOCKED: USER    
DOCKED: USER    NEWDPF move IHP_ideal_opt.pdbqt
DOCKED: USER    NEWDPF about 0.035000 0.082000 -0.065000
DOCKED: USER    NEWDPF tran0 1.434965 28.886242 -10.062025
DOCKED: USER    NEWDPF quaternion0 -0.187560 0.776531 0.291829 -0.525981
DOCKED: USER    NEWDPF axisangle0 -0.220530 0.913033 0.343128 -116.531320
DOCKED: USER    NEWDPF quat0 -0.220530 0.913033 0.343128 -116.531320
DOCKED: USER    NEWDPF dihe0 -180.00 144.74 77.58 131.92 24.16 -150.89 -103.89 -15.27 54.26 59.79 27.39 -174.50 99.13 127.05 -50.02 72.06 133.90 -13.27 46.50 1.68 -169.79 128.27 -10.72 167.84 
DOCKED: USER  keepresnum = 1 
DOCKED: USER  
DOCKED: REMARK  24 active torsions:
DOCKED: REMARK  status: ('A' for Active; 'I' for Inactive)
DOCKED: REMARK    1  A    between atoms: C_1  and  O_7 
DOCKED: REMARK    2  A    between atoms: C_2  and  O_12 
DOCKED: REMARK    3  A    between atoms: C_3  and  O_17 
DOCKED: REMARK    4  A    between atoms: C_4  and  O_22 
DOCKED: REMARK    5  A    between atoms: C_5  and  O_27 
DOCKED: REMARK    6  A    between atoms: C_6  and  O_32 
DOCKED: REMARK    7  A    between atoms: O_7  and  P_8 
DOCKED: REMARK    8  A    between atoms: P_8  and  O_10 
DOCKED: REMARK    9  A    between atoms: P_8  and  O_11 
DOCKED: REMARK   10  A    between atoms: O_12  and  P_13 
DOCKED: REMARK   11  A    between atoms: P_13  and  O_15 
DOCKED: REMARK   12  A    between atoms: P_13  and  O_16 
DOCKED: REMARK   13  A    between atoms: O_17  and  P_18 
DOCKED: REMARK   14  A    between atoms: P_18  and  O_20 
DOCKED: REMARK   15  A    between atoms: P_18  and  O_21 
DOCKED: REMARK   16  A    between atoms: O_22  and  P_23 
DOCKED: REMARK   17  A    between atoms: P_23  and  O_25 
DOCKED: REMARK   18  A    between atoms: P_23  and  O_26 
DOCKED: REMARK   19  A    between atoms: O_27  and  P_28 
DOCKED: REMARK   20  A    between atoms: P_28  and  O_30 
DOCKED: REMARK   21  A    between atoms: P_28  and  O_31 
DOCKED: REMARK   22  A    between atoms: O_32  and  P_33 
DOCKED: REMARK   23  A    between atoms: P_33  and  O_35 
DOCKED: REMARK   24  A    between atoms: P_33  and  O_36 
DOCKED: USER                              x       y       z     vdW  Elec       q    Type
DOCKED: USER                           _______ _______ _______ _____ _____    ______ ____
DOCKED: ROOT
DOCKED: ATOM      1  C   UNL d   1       2.054  28.746 -11.669 -0.04 +0.09    +0.194 C 
DOCKED: ATOM      2  C   UNL d   1       2.744  27.876 -10.616 -0.06 +0.04    +0.194 C 
DOCKED: ATOM      3  C   UNL d   1       2.990  28.646  -9.317 -0.11 +0.02    +0.194 C 
DOCKED: ATOM      4  C   UNL d   1       1.735  29.324  -8.773 -0.04 +0.02    +0.194 C 
DOCKED: ATOM      5  C   UNL d   1       0.952  30.110  -9.817 -0.01 +0.03    +0.194 C 
DOCKED: ATOM      6  C   UNL d   1       0.759  29.363 -11.139 -0.01 +0.05    +0.194 C 
DOCKED: ENDROOT
DOCKED: BRANCH   1   7
DOCKED: ATOM      7  O   UNL d   1       1.707  27.914 -12.778 -0.01 -0.10    -0.278 OA
DOCKED: BRANCH   7   8
DOCKED: ATOM      8  P   UNL d   1       2.865  27.466 -13.783 -0.02 +0.27    +0.473 P 
DOCKED: ATOM      9  O   UNL d   1       2.648  26.153 -14.450 -0.00 -0.05    -0.228 OA
DOCKED: BRANCH   8  10
DOCKED: ATOM     10  O   UNL d   1       2.977  28.682 -14.810 -0.06 -0.29    -0.303 OA
DOCKED: ATOM     11  H   UNL d   1       2.615  29.489 -14.401 +0.01 +0.24    +0.222 HD
DOCKED: ENDBRANCH   8  10
DOCKED: BRANCH   8  12
DOCKED: ATOM     12  O   UNL d   1       4.211  27.607 -12.951 -0.28 -0.30    -0.303 OA
DOCKED: ATOM     13  H   UNL d   1       4.532  26.751 -12.589 +0.05 +0.10    +0.222 HD
DOCKED: ENDBRANCH   8  12
DOCKED: ENDBRANCH   7   8
DOCKED: ENDBRANCH   1   7
DOCKED: BRANCH   2  14
DOCKED: ATOM     14  O   UNL d   1       1.912  26.746 -10.326 -0.02 +0.03    -0.278 OA
DOCKED: BRANCH  14  15
DOCKED: ATOM     15  P   UNL d   1       2.632  25.316 -10.293 -0.04 -0.22    +0.473 P 
DOCKED: ATOM     16  O   UNL d   1       1.756  24.128 -10.048 -0.08 +0.14    -0.228 OA
DOCKED: BRANCH  15  17
DOCKED: ATOM     17  O   UNL d   1       3.405  25.239 -11.684 -0.03 +0.06    -0.303 OA
DOCKED: ATOM     18  H   UNL d   1       3.050  25.889 -12.320 +0.03 +0.01    +0.222 HD
DOCKED: ENDBRANCH  15  17
DOCKED: BRANCH  15  19
DOCKED: ATOM     19  O   UNL d   1       3.836  25.503  -9.269 -0.04 +0.30    -0.303 OA
DOCKED: ATOM     20  H   UNL d   1       3.520  25.565  -8.349 -0.05 -0.34    +0.222 HD
DOCKED: ENDBRANCH  15  19
DOCKED: ENDBRANCH  14  15
DOCKED: ENDBRANCH   2  14
DOCKED: BRANCH   6  21
DOCKED: ATOM     21  O   UNL d   1       0.332  30.327 -12.098 -0.00 -0.08    -0.278 OA
DOCKED: BRANCH  21  22
DOCKED: ATOM     22  P   UNL d   1       1.416  31.151 -12.930 -0.03 +0.27    +0.473 P 
DOCKED: ATOM     23  O   UNL d   1       2.804  31.233 -12.391 -0.44 -0.31    -0.228 OA
DOCKED: BRANCH  22  24
DOCKED: ATOM     24  O   UNL d   1       1.297  30.485 -14.370 -0.02 -0.16    -0.303 OA
DOCKED: ATOM     25  H   UNL d   1       1.218  29.504 -14.250 +0.01 +0.10    +0.222 HD
DOCKED: ENDBRANCH  22  24
DOCKED: BRANCH  22  26
DOCKED: ATOM     26  O   UNL d   1       0.663  32.550 -13.149 -0.00 -0.09    -0.303 OA
DOCKED: ATOM     27  H   UNL d   1       0.121  32.751 -12.359 +0.01 +0.05    +0.222 HD
DOCKED: ENDBRANCH  22  26
DOCKED: ENDBRANCH  21  22
DOCKED: ENDBRANCH   6  21
DOCKED: BRANCH   3  28
DOCKED: ATOM     28  O   UNL d   1       3.369  27.701  -8.324 -0.17 +0.06    -0.278 OA
DOCKED: BRANCH  28  29
DOCKED: ATOM     29  P   UNL d   1       2.513  27.550  -6.990 -0.18 -0.13    +0.473 P 
DOCKED: ATOM     30  O   UNL d   1       1.041  27.483  -7.177 -0.09 +0.03    -0.228 OA
DOCKED: BRANCH  29  31
DOCKED: ATOM     31  O   UNL d   1       3.222  26.267  -6.347 -0.23 +0.25    -0.303 OA
DOCKED: ATOM     32  H   UNL d   1       3.243  25.549  -7.022 -0.38 -0.47    +0.222 HD
DOCKED: ENDBRANCH  29  31
DOCKED: BRANCH  29  33
DOCKED: ATOM     33  O   UNL d   1       3.071  28.744  -6.097 -0.24 +0.04    -0.303 OA
DOCKED: ATOM     34  H   UNL d   1       3.154  29.554  -6.659 +0.10 -0.00    +0.222 HD
DOCKED: ENDBRANCH  29  33
DOCKED: ENDBRANCH  28  29
DOCKED: ENDBRANCH   3  28
DOCKED: BRANCH   5  35
DOCKED: ATOM     35  O   UNL d   1      -0.344  30.314  -9.257 +0.00 -0.03    -0.278 OA
DOCKED: BRANCH  35  36
DOCKED: ATOM     36  P   UNL d   1      -0.892  31.792  -9.015 +0.00 +0.05    +0.473 P 
DOCKED: ATOM     37  O   UNL d   1      -2.279  31.882  -8.460 +0.00 -0.02    -0.228 OA
DOCKED: BRANCH  36  38
DOCKED: ATOM     38  O   UNL d   1       0.232  32.406  -8.069 -0.01 -0.04    -0.303 OA
DOCKED: ATOM     39  H   UNL d   1       0.777  31.677  -7.703 +0.03 +0.02    +0.222 HD
DOCKED: ENDBRANCH  36  38
DOCKED: BRANCH  36  40
DOCKED: ATOM     40  O   UNL d   1      -0.631  32.486 -10.421 +0.00 -0.04    -0.303 OA
DOCKED: ATOM     41  H   UNL d   1      -0.492  31.824 -11.134 +0.01 +0.04    +0.222 HD
DOCKED: ENDBRANCH  36  40
DOCKED: ENDBRANCH  35  36
DOCKED: ENDBRANCH   5  35
DOCKED: BRANCH   4  42
DOCKED: ATOM     42  O   UNL d   1       2.167  30.259  -7.779 -0.06 -0.03    -0.278 OA
DOCKED: BRANCH  42  43
DOCKED: ATOM     43  P   UNL d   1       3.220  31.386  -8.186 -0.11 +0.09    +0.473 P 
DOCKED: ATOM     44  O   UNL d   1       3.162  31.909  -9.579 -0.12 -0.09    -0.228 OA
DOCKED: BRANCH  43  45
DOCKED: ATOM     45  O   UNL d   1       2.995  32.494  -7.065 -0.11 -0.04    -0.303 OA
DOCKED: ATOM     46  H   UNL d   1       2.044  32.668  -6.920 +0.04 +0.03    +0.222 HD
DOCKED: ENDBRANCH  43  45
DOCKED: BRANCH  43  47
DOCKED: ATOM     47  O   UNL d   1       4.624  30.754  -7.741 -0.13 -0.06    -0.303 OA
DOCKED: ATOM     48  H   UNL d   1       4.478  29.842  -7.415 +0.12 +0.02    +0.222 HD
DOCKED: ENDBRANCH  43  47
DOCKED: ENDBRANCH  42  43
DOCKED: ENDBRANCH   4  42
DOCKED: TORSDOF 24
DOCKED: TER
DOCKED: ENDMDL
________________________________________________________________________________


	BEGINNING GENETIC ALGORITHM DOCKING 34 of 100
Run: 34 Seed: 1073339732 260663557 [ Run 34 of 100 GA/GALS ]
Beginning LAMARCKIAN GENETIC ALGORITHM (LGA), with a maximum of 25000000 energy evaluations.

Final-Value: -18.433


	FINAL GENETIC ALGORITHM DOCKED STATE
	_______________________________________________


Detailed state:  trans 20.885 51.838 -5.081 quatxyzw 0.307222 -0.499485 -0.348556 -0.731190 center 0.035 0.082 -0.065 ntor 24 -136.1716 -58.1950 152.0879 -15.0815 129.5387 98.7981 -75.6809 -106.9838 -26.5425 -64.0315 34.1420 -166.1402 111.4362 165.0013 -100.2513 59.0492 -179.8209 159.5200 -4.9439 13.4738 149.3516 1.2273 -36.5976 -6.2023
State:	 20.885  51.838  -5.081   0.450 -0.732 -0.511 -86.028   -136.17  -58.19  152.09  -15.08  129.54   98.80  -75.68 -106.98  -26.54  -64.03   34.14 -166.14  111.44  165.00 -100.25   59.05 -179.82  159.52   -4.94   13.47  149.35    1.23  -36.60   -6.20

DOCKED: MODEL       34
DOCKED: USER    Run = 34
DOCKED: USER    DPF = D:/Protein_go_brrr/autodock/final/2DN3/IHP/dock.dpf
DOCKED: USER  
DOCKED: USER    Estimated Free Energy of Binding    =   +3.32 kcal/mol  [=(1)+(2)+(3)-(4)]
DOCKED: USER    
DOCKED: USER    (1) Final Intermolecular Energy     =   -3.83 kcal/mol
DOCKED: USER        vdW + Hbond + desolv Energy     =   -3.56 kcal/mol
DOCKED: USER        Electrostatic Energy            =   -0.28 kcal/mol
DOCKED: USER    (2) Final Total Internal Energy     =  -14.60 kcal/mol
DOCKED: USER    (3) Torsional Free Energy           =   +7.16 kcal/mol
DOCKED: USER    (4) Unbound System's Energy  [=(2)] =  -14.60 kcal/mol
DOCKED: USER    
DOCKED: USER    
DOCKED: USER    NEWDPF move IHP_ideal_opt.pdbqt
DOCKED: USER    NEWDPF about 0.035000 0.082000 -0.065000
DOCKED: USER    NEWDPF tran0 20.885471 51.837916 -5.080771
DOCKED: USER    NEWDPF quaternion0 0.307222 -0.499485 -0.348556 -0.731190
DOCKED: USER    NEWDPF axisangle0 0.450357 -0.732195 -0.510949 -86.027541
DOCKED: USER    NEWDPF quat0 0.450357 -0.732195 -0.510949 -86.027541
DOCKED: USER    NEWDPF dihe0 -136.17 -58.19 152.09 -15.08 129.54 98.80 -75.68 -106.98 -26.54 -64.03 34.14 -166.14 111.44 165.00 -100.25 59.05 -179.82 159.52 -4.94 13.47 149.35 1.23 -36.60 -6.20 
DOCKED: USER  keepresnum = 1 
DOCKED: USER  
DOCKED: REMARK  24 active torsions:
DOCKED: REMARK  status: ('A' for Active; 'I' for Inactive)
DOCKED: REMARK    1  A    between atoms: C_1  and  O_7 
DOCKED: REMARK    2  A    between atoms: C_2  and  O_12 
DOCKED: REMARK    3  A    between atoms: C_3  and  O_17 
DOCKED: REMARK    4  A    between atoms: C_4  and  O_22 
DOCKED: REMARK    5  A    between atoms: C_5  and  O_27 
DOCKED: REMARK    6  A    between atoms: C_6  and  O_32 
DOCKED: REMARK    7  A    between atoms: O_7  and  P_8 
DOCKED: REMARK    8  A    between atoms: P_8  and  O_10 
DOCKED: REMARK    9  A    between atoms: P_8  and  O_11 
DOCKED: REMARK   10  A    between atoms: O_12  and  P_13 
DOCKED: REMARK   11  A    between atoms: P_13  and  O_15 
DOCKED: REMARK   12  A    between atoms: P_13  and  O_16 
DOCKED: REMARK   13  A    between atoms: O_17  and  P_18 
DOCKED: REMARK   14  A    between atoms: P_18  and  O_20 
DOCKED: REMARK   15  A    between atoms: P_18  and  O_21 
DOCKED: REMARK   16  A    between atoms: O_22  and  P_23 
DOCKED: REMARK   17  A    between atoms: P_23  and  O_25 
DOCKED: REMARK   18  A    between atoms: P_23  and  O_26 
DOCKED: REMARK   19  A    between atoms: O_27  and  P_28 
DOCKED: REMARK   20  A    between atoms: P_28  and  O_30 
DOCKED: REMARK   21  A    between atoms: P_28  and  O_31 
DOCKED: REMARK   22  A    between atoms: O_32  and  P_33 
DOCKED: REMARK   23  A    between atoms: P_33  and  O_35 
DOCKED: REMARK   24  A    between atoms: P_33  and  O_36 
DOCKED: USER                              x       y       z     vdW  Elec       q    Type
DOCKED: USER                           _______ _______ _______ _____ _____    ______ ____
DOCKED: ROOT
DOCKED: ATOM      1  C   UNL d   1      20.282  50.230  -4.895 -0.04 -0.02    +0.194 C 
DOCKED: ATOM      2  C   UNL d   1      20.145  50.830  -6.296 -0.01 -0.01    +0.194 C 
DOCKED: ATOM      3  C   UNL d   1      19.671  52.284  -6.246 -0.00 -0.01    +0.194 C 
DOCKED: ATOM      4  C   UNL d   1      20.515  53.160  -5.323 -0.01 -0.01    +0.194 C 
DOCKED: ATOM      5  C   UNL d   1      20.773  52.548  -3.952 -0.02 -0.01    +0.194 C 
DOCKED: ATOM      6  C   UNL d   1      21.187  51.076  -3.999 -0.03 -0.01    +0.194 C 
DOCKED: ENDROOT
DOCKED: BRANCH   1   7
DOCKED: ATOM      7  O   UNL d   1      20.888  48.941  -5.019 -0.03 +0.02    -0.278 OA
DOCKED: BRANCH   7   8
DOCKED: ATOM      8  P   UNL d   1      20.162  47.692  -4.336 -0.12 -0.07    +0.473 P 
DOCKED: ATOM      9  O   UNL d   1      20.611  46.359  -4.822 -0.23 +0.02    -0.228 OA
DOCKED: BRANCH   8  10
DOCKED: ATOM     10  O   UNL d   1      20.408  47.908  -2.775 -0.05 +0.08    -0.303 OA
DOCKED: ATOM     11  H   UNL d   1      19.936  48.708  -2.477 -0.20 -0.09    +0.222 HD
DOCKED: ENDBRANCH   8  10
DOCKED: BRANCH   8  12
DOCKED: ATOM     12  O   UNL d   1      18.608  47.993  -4.473 -0.10 +0.08    -0.303 OA
DOCKED: ATOM     13  H   UNL d   1      18.200  48.302  -3.633 -0.36 -0.15    +0.222 HD
DOCKED: ENDBRANCH   8  12
DOCKED: ENDBRANCH   7   8
DOCKED: ENDBRANCH   1   7
DOCKED: BRANCH   2  14
DOCKED: ATOM     14  O   UNL d   1      21.420  50.787  -6.948 -0.00 +0.00    -0.278 OA
DOCKED: BRANCH  14  15
DOCKED: ATOM     15  P   UNL d   1      21.408  50.522  -8.528 +0.00 +0.00    +0.473 P 
DOCKED: ATOM     16  O   UNL d   1      22.462  49.606  -9.064 +0.00 -0.01    -0.228 OA
DOCKED: BRANCH  15  17
DOCKED: ATOM     17  O   UNL d   1      19.931  50.002  -8.821 -0.00 +0.00    -0.303 OA
DOCKED: ATOM     18  H   UNL d   1      19.264  50.646  -8.514 +0.00 -0.01    +0.222 HD
DOCKED: ENDBRANCH  15  17
DOCKED: BRANCH  15  19
DOCKED: ATOM     19  O   UNL d   1      21.369  51.975  -9.173 +0.00 -0.00    -0.303 OA
DOCKED: ATOM     20  H   UNL d   1      20.487  52.382  -9.092 +0.00 -0.00    +0.222 HD
DOCKED: ENDBRANCH  15  19
DOCKED: ENDBRANCH  14  15
DOCKED: ENDBRANCH   2  14
DOCKED: BRANCH   6  21
DOCKED: ATOM     21  O   UNL d   1      21.055  50.568  -2.673 -0.06 +0.03    -0.278 OA
DOCKED: BRANCH  21  22
DOCKED: ATOM     22  P   UNL d   1      19.730  50.871  -1.837 -0.17 -0.11    +0.473 P 
DOCKED: ATOM     23  O   UNL d   1      19.497  52.267  -1.368 -0.21 +0.05    -0.228 OA
DOCKED: BRANCH  22  24
DOCKED: ATOM     24  O   UNL d   1      18.601  50.292  -2.797 -0.18 +0.11    -0.303 OA
DOCKED: ATOM     25  H   UNL d   1      18.742  49.315  -2.886 -0.42 -0.14    +0.222 HD
DOCKED: ENDBRANCH  22  24
DOCKED: BRANCH  22  26
DOCKED: ATOM     26  O   UNL d   1      19.802  49.748  -0.695 -0.50 +0.07    -0.303 OA
DOCKED: ATOM     27  H   UNL d   1      19.559  48.881  -1.081 -0.29 -0.07    +0.222 HD
DOCKED: ENDBRANCH  22  26
DOCKED: ENDBRANCH  21  22
DOCKED: ENDBRANCH   6  21
DOCKED: BRANCH   3  28
DOCKED: ATOM     28  O   UNL d   1      19.840  52.834  -7.546 -0.00 +0.01    -0.278 OA
DOCKED: BRANCH  28  29
DOCKED: ATOM     29  P   UNL d   1      18.571  53.219  -8.428 +0.00 -0.01    +0.473 P 
DOCKED: ATOM     30  O   UNL d   1      17.388  53.703  -7.670 -0.00 +0.01    -0.228 OA
DOCKED: BRANCH  29  31
DOCKED: ATOM     31  O   UNL d   1      19.245  54.245  -9.455 +0.00 +0.00    -0.303 OA
DOCKED: ATOM     32  H   UNL d   1      20.054  54.621  -9.037 +0.00 -0.00    +0.222 HD
DOCKED: ENDBRANCH  29  31
DOCKED: BRANCH  29  33
DOCKED: ATOM     33  O   UNL d   1      18.371  51.913  -9.315 -0.00 +0.01    -0.303 OA
DOCKED: ATOM     34  H   UNL d   1      19.243  51.650  -9.700 +0.00 -0.00    +0.222 HD
DOCKED: ENDBRANCH  29  33
DOCKED: ENDBRANCH  28  29
DOCKED: ENDBRANCH   3  28
DOCKED: BRANCH   5  35
DOCKED: ATOM     35  O   UNL d   1      21.870  53.275  -3.404 -0.01 +0.01    -0.278 OA
DOCKED: BRANCH  35  36
DOCKED: ATOM     36  P   UNL d   1      21.610  54.528  -2.451 -0.03 -0.03    +0.473 P 
DOCKED: ATOM     37  O   UNL d   1      22.450  55.734  -2.727 -0.01 +0.01    -0.228 OA
DOCKED: BRANCH  36  38
DOCKED: ATOM     38  O   UNL d   1      20.046  54.762  -2.640 -0.08 +0.02    -0.303 OA
DOCKED: ATOM     39  H   UNL d   1      19.905  55.462  -3.313 +0.03 -0.01    +0.222 HD
DOCKED: ENDBRANCH  36  38
DOCKED: BRANCH  36  40
DOCKED: ATOM     40  O   UNL d   1      21.728  53.882  -1.002 -0.08 +0.05    -0.303 OA
DOCKED: ATOM     41  H   UNL d   1      20.848  53.781  -0.576 -0.33 -0.08    +0.222 HD
DOCKED: ENDBRANCH  36  40
DOCKED: ENDBRANCH  35  36
DOCKED: ENDBRANCH   5  35
DOCKED: BRANCH   4  42
DOCKED: ATOM     42  O   UNL d   1      19.779  54.369  -5.112 -0.01 +0.01    -0.278 OA
DOCKED: BRANCH  42  43
DOCKED: ATOM     43  P   UNL d   1      20.404  55.750  -5.610 +0.00 -0.01    +0.473 P 
DOCKED: ATOM     44  O   UNL d   1      19.964  56.993  -4.917 -0.00 +0.01    -0.228 OA
DOCKED: BRANCH  43  45
DOCKED: ATOM     45  O   UNL d   1      21.969  55.475  -5.523 -0.00 +0.00    -0.303 OA
DOCKED: ATOM     46  H   UNL d   1      22.197  54.950  -4.729 +0.01 -0.00    +0.222 HD
DOCKED: ENDBRANCH  43  45
DOCKED: BRANCH  43  47
DOCKED: ATOM     47  O   UNL d   1      20.155  55.715  -7.193 -0.00 +0.01    -0.303 OA
DOCKED: ATOM     48  H   UNL d   1      19.527  54.994  -7.405 +0.00 -0.00    +0.222 HD
DOCKED: ENDBRANCH  43  47
DOCKED: ENDBRANCH  42  43
DOCKED: ENDBRANCH   4  42
DOCKED: TORSDOF 24
DOCKED: TER
DOCKED: ENDMDL
________________________________________________________________________________


	BEGINNING GENETIC ALGORITHM DOCKING 35 of 100
Run: 35 Seed: 138177923 263136880 [ Run 35 of 100 GA/GALS ]
Beginning LAMARCKIAN GENETIC ALGORITHM (LGA), with a maximum of 25000000 energy evaluations.

Final-Value: -18.330


	FINAL GENETIC ALGORITHM DOCKED STATE
	_______________________________________________


Detailed state:  trans -2.648 42.559 6.651 quatxyzw 0.351032 -0.130962 -0.046627 -0.925987 center 0.035 0.082 -0.065 ntor 24 99.4464 19.5188 111.0492 138.7839 129.1564 110.8466 22.2861 -126.6180 1.3207 112.9410 97.9924 -118.2009 -85.5551 64.8075 179.7596 -73.6528 -59.5005 99.6086 59.3190 20.5270 3.7472 17.7330 168.0216 0.2936
State:	 -2.648  42.559   6.651   0.930 -0.347 -0.123 -44.365     99.45   19.52  111.05  138.78  129.16  110.85   22.29 -126.62    1.32  112.94   97.99 -118.20  -85.56   64.81  179.76  -73.65  -59.50   99.61   59.32   20.53    3.75   17.73  168.02    0.29

DOCKED: MODEL       35
DOCKED: USER    Run = 35
DOCKED: USER    DPF = D:/Protein_go_brrr/autodock/final/2DN3/IHP/dock.dpf
DOCKED: USER  
DOCKED: USER    Estimated Free Energy of Binding    =   +4.33 kcal/mol  [=(1)+(2)+(3)-(4)]
DOCKED: USER    
DOCKED: USER    (1) Final Intermolecular Energy     =   -2.83 kcal/mol
DOCKED: USER        vdW + Hbond + desolv Energy     =   -2.76 kcal/mol
DOCKED: USER        Electrostatic Energy            =   -0.07 kcal/mol
DOCKED: USER    (2) Final Total Internal Energy     =  -15.50 kcal/mol
DOCKED: USER    (3) Torsional Free Energy           =   +7.16 kcal/mol
DOCKED: USER    (4) Unbound System's Energy  [=(2)] =  -15.50 kcal/mol
DOCKED: USER    
DOCKED: USER    
DOCKED: USER    NEWDPF move IHP_ideal_opt.pdbqt
DOCKED: USER    NEWDPF about 0.035000 0.082000 -0.065000
DOCKED: USER    NEWDPF tran0 -2.647770 42.558729 6.651086
DOCKED: USER    NEWDPF quaternion0 0.351032 -0.130962 -0.046627 -0.925987
DOCKED: USER    NEWDPF axisangle0 0.929748 -0.346867 -0.123497 -44.364703
DOCKED: USER    NEWDPF quat0 0.929748 -0.346867 -0.123497 -44.364703
DOCKED: USER    NEWDPF dihe0 99.45 19.52 111.05 138.78 129.16 110.85 22.29 -126.62 1.32 112.94 97.99 -118.20 -85.56 64.81 179.76 -73.65 -59.50 99.61 59.32 20.53 3.75 17.73 168.02 0.29 
DOCKED: USER  keepresnum = 1 
DOCKED: USER  
DOCKED: REMARK  24 active torsions:
DOCKED: REMARK  status: ('A' for Active; 'I' for Inactive)
DOCKED: REMARK    1  A    between atoms: C_1  and  O_7 
DOCKED: REMARK    2  A    between atoms: C_2  and  O_12 
DOCKED: REMARK    3  A    between atoms: C_3  and  O_17 
DOCKED: REMARK    4  A    between atoms: C_4  and  O_22 
DOCKED: REMARK    5  A    between atoms: C_5  and  O_27 
DOCKED: REMARK    6  A    between atoms: C_6  and  O_32 
DOCKED: REMARK    7  A    between atoms: O_7  and  P_8 
DOCKED: REMARK    8  A    between atoms: P_8  and  O_10 
DOCKED: REMARK    9  A    between atoms: P_8  and  O_11 
DOCKED: REMARK   10  A    between atoms: O_12  and  P_13 
DOCKED: REMARK   11  A    between atoms: P_13  and  O_15 
DOCKED: REMARK   12  A    between atoms: P_13  and  O_16 
DOCKED: REMARK   13  A    between atoms: O_17  and  P_18 
DOCKED: REMARK   14  A    between atoms: P_18  and  O_20 
DOCKED: REMARK   15  A    between atoms: P_18  and  O_21 
DOCKED: REMARK   16  A    between atoms: O_22  and  P_23 
DOCKED: REMARK   17  A    between atoms: P_23  and  O_25 
DOCKED: REMARK   18  A    between atoms: P_23  and  O_26 
DOCKED: REMARK   19  A    between atoms: O_27  and  P_28 
DOCKED: REMARK   20  A    between atoms: P_28  and  O_30 
DOCKED: REMARK   21  A    between atoms: P_28  and  O_31 
DOCKED: REMARK   22  A    between atoms: O_32  and  P_33 
DOCKED: REMARK   23  A    between atoms: P_33  and  O_35 
DOCKED: REMARK   24  A    between atoms: P_33  and  O_36 
DOCKED: USER                              x       y       z     vdW  Elec       q    Type
DOCKED: USER                           _______ _______ _______ _____ _____    ______ ____
DOCKED: ROOT
DOCKED: ATOM      1  C   UNL d   1      -1.656  41.165   6.895 -0.12 +0.17    +0.194 C 
DOCKED: ATOM      2  C   UNL d   1      -2.750  41.021   5.835 -0.05 +0.10    +0.194 C 
DOCKED: ATOM      3  C   UNL d   1      -4.075  41.625   6.303 -0.02 +0.08    +0.194 C 
DOCKED: ATOM      4  C   UNL d   1      -3.939  43.062   6.800 -0.01 +0.07    +0.194 C 
DOCKED: ATOM      5  C   UNL d   1      -2.786  43.276   7.772 -0.05 +0.12    +0.194 C 
DOCKED: ATOM      6  C   UNL d   1      -1.476  42.619   7.334 -0.11 +0.15    +0.194 C 
DOCKED: ENDROOT
DOCKED: BRANCH   1   7
DOCKED: ATOM      7  O   UNL d   1      -0.419  40.738   6.320 -0.21 -0.18    -0.278 OA
DOCKED: BRANCH   7   8
DOCKED: ATOM      8  P   UNL d   1      -0.282  39.214   5.860 -0.20 +0.27    +0.473 P 
DOCKED: ATOM      9  O   UNL d   1      -1.022  38.233   6.699 -0.18 -0.13    -0.228 OA
DOCKED: BRANCH   8  10
DOCKED: ATOM     10  O   UNL d   1      -0.760  39.225   4.338 -0.12 -0.21    -0.303 OA
DOCKED: ATOM     11  H   UNL d   1      -1.672  39.566   4.284 +0.06 +0.13    +0.222 HD
DOCKED: ENDBRANCH   8  10
DOCKED: BRANCH   8  12
DOCKED: ATOM     12  O   UNL d   1       1.280  38.965   5.717 -0.30 -0.13    -0.303 OA
DOCKED: ATOM     13  H   UNL d   1       1.787  39.787   5.530 -0.45 +0.05    +0.222 HD
DOCKED: ENDBRANCH   8  12
DOCKED: ENDBRANCH   7   8
DOCKED: ENDBRANCH   1   7
DOCKED: BRANCH   2  14
DOCKED: ATOM     14  O   UNL d   1      -2.336  41.698   4.641 -0.03 -0.12    -0.278 OA
DOCKED: BRANCH  14  15
DOCKED: ATOM     15  P   UNL d   1      -2.925  41.139   3.261 -0.01 +0.22    +0.473 P 
DOCKED: ATOM     16  O   UNL d   1      -3.730  42.095   2.438 -0.01 -0.08    -0.228 OA
DOCKED: BRANCH  15  17
DOCKED: ATOM     17  O   UNL d   1      -1.646  40.586   2.489 -0.07 -0.28    -0.303 OA
DOCKED: ATOM     18  H   UNL d   1      -0.885  40.488   3.094 +0.06 +0.22    +0.222 HD
DOCKED: ENDBRANCH  15  17
DOCKED: BRANCH  15  19
DOCKED: ATOM     19  O   UNL d   1      -3.664  39.789   3.663 -0.01 -0.12    -0.303 OA
DOCKED: ATOM     20  H   UNL d   1      -4.539  39.960   4.056 +0.01 +0.07    +0.222 HD
DOCKED: ENDBRANCH  15  19
DOCKED: ENDBRANCH  14  15
DOCKED: ENDBRANCH   2  14
DOCKED: BRANCH   6  21
DOCKED: ATOM     21  O   UNL d   1      -0.619  42.609   8.473 -0.38 -0.33    -0.278 OA
DOCKED: BRANCH  21  22
DOCKED: ATOM     22  P   UNL d   1       0.499  43.736   8.633 -0.15 +0.28    +0.473 P 
DOCKED: ATOM     23  O   UNL d   1       1.752  43.387   9.363 -0.37 -0.12    -0.228 OA
DOCKED: BRANCH  22  24
DOCKED: ATOM     24  O   UNL d   1       0.711  44.200   7.126 -0.16 -0.13    -0.303 OA
DOCKED: ATOM     25  H   UNL d   1      -0.140  44.589   6.800 +0.07 +0.09    +0.222 HD
DOCKED: ENDBRANCH  22  24
DOCKED: BRANCH  22  26
DOCKED: ATOM     26  O   UNL d   1      -0.351  44.953   9.238 -0.05 -0.15    -0.303 OA
DOCKED: ATOM     27  H   UNL d   1      -1.025  45.231   8.586 +0.05 +0.09    +0.222 HD
DOCKED: ENDBRANCH  22  26
DOCKED: ENDBRANCH  21  22
DOCKED: ENDBRANCH   6  21
DOCKED: BRANCH   3  28
DOCKED: ATOM     28  O   UNL d   1      -4.936  41.696   5.173 +0.00 -0.07    -0.278 OA
DOCKED: BRANCH  28  29
DOCKED: ATOM     29  P   UNL d   1      -6.407  41.089   5.243 +0.01 +0.09    +0.473 P 
DOCKED: ATOM     30  O   UNL d   1      -6.574  39.744   4.635 +0.00 -0.04    -0.228 OA
DOCKED: BRANCH  29  31
DOCKED: ATOM     31  O   UNL d   1      -6.687  41.217   6.813 +0.00 -0.06    -0.303 OA
DOCKED: ATOM     32  H   UNL d   1      -6.852  42.164   7.027 +0.00 +0.04    +0.222 HD
DOCKED: ENDBRANCH  29  31
DOCKED: BRANCH  29  33
DOCKED: ATOM     33  O   UNL d   1      -7.284  42.269   4.632 +0.00 -0.04    -0.303 OA
DOCKED: ATOM     34  H   UNL d   1      -7.266  43.038   5.254 +0.00 +0.03    +0.222 HD
DOCKED: ENDBRANCH  29  33
DOCKED: ENDBRANCH  28  29
DOCKED: ENDBRANCH   3  28
DOCKED: BRANCH   5  35
DOCKED: ATOM     35  O   UNL d   1      -2.561  44.684   7.802 -0.01 -0.10    -0.278 OA
DOCKED: BRANCH  35  36
DOCKED: ATOM     36  P   UNL d   1      -2.134  45.459   6.474 +0.00 +0.13    +0.473 P 
DOCKED: ATOM     37  O   UNL d   1      -1.658  44.596   5.349 -0.04 -0.07    -0.228 OA
DOCKED: BRANCH  36  38
DOCKED: ATOM     38  O   UNL d   1      -3.450  46.293   6.147 +0.00 -0.06    -0.303 OA
DOCKED: ATOM     39  H   UNL d   1      -4.163  45.676   5.874 +0.00 +0.04    +0.222 HD
DOCKED: ENDBRANCH  36  38
DOCKED: BRANCH  36  40
DOCKED: ATOM     40  O   UNL d   1      -1.118  46.549   7.028 -0.02 -0.08    -0.303 OA
DOCKED: ATOM     41  H   UNL d   1      -0.269  46.143   7.314 +0.06 +0.07    +0.222 HD
DOCKED: ENDBRANCH  36  40
DOCKED: ENDBRANCH  35  36
DOCKED: ENDBRANCH   5  35
DOCKED: BRANCH   4  42
DOCKED: ATOM     42  O   UNL d   1      -5.147  43.374   7.503 +0.00 -0.08    -0.278 OA
DOCKED: BRANCH  42  43
DOCKED: ATOM     43  P   UNL d   1      -6.158  44.432   6.867 +0.01 +0.08    +0.473 P 
DOCKED: ATOM     44  O   UNL d   1      -7.614  44.203   7.081 +0.00 -0.03    -0.228 OA
DOCKED: BRANCH  43  45
DOCKED: ATOM     45  O   UNL d   1      -5.624  45.815   7.444 +0.00 -0.05    -0.303 OA
DOCKED: ATOM     46  H   UNL d   1      -4.675  45.765   7.674 +0.00 +0.04    +0.222 HD
DOCKED: ENDBRANCH  43  45
DOCKED: BRANCH  43  47
DOCKED: ATOM     47  O   UNL d   1      -5.688  44.514   5.337 +0.00 -0.05    -0.303 OA
DOCKED: ATOM     48  H   UNL d   1      -5.776  43.629   4.924 +0.00 +0.04    +0.222 HD
DOCKED: ENDBRANCH  43  47
DOCKED: ENDBRANCH  42  43
DOCKED: ENDBRANCH   4  42
DOCKED: TORSDOF 24
DOCKED: TER
DOCKED: ENDMDL
________________________________________________________________________________


	BEGINNING GENETIC ALGORITHM DOCKING 36 of 100
Run: 36 Seed: 274388089 843836351 [ Run 36 of 100 GA/GALS ]
Beginning LAMARCKIAN GENETIC ALGORITHM (LGA), with a maximum of 25000000 energy evaluations.

Final-Value: -15.196


	FINAL GENETIC ALGORITHM DOCKED STATE
	_______________________________________________


Detailed state:  trans 57.267 27.716 -1.859 quatxyzw 0.161233 -0.915471 -0.010253 -0.368526 center 0.035 0.082 -0.065 ntor 24 -172.2211 20.1486 122.2437 -1.2654 41.4210 92.2323 -32.7044 150.9541 128.8603 58.3090 -95.4710 -151.0373 31.6496 43.5554 -179.8051 -179.4901 149.7341 -1.7462 -131.9465 -31.4534 22.9452 159.4923 -175.9299 129.8713
State:	 57.267  27.716  -1.859   0.173 -0.985 -0.011 -136.751   -172.22   20.15  122.24   -1.27   41.42   92.23  -32.70  150.95  128.86   58.31  -95.47 -151.04   31.65   43.56 -179.81 -179.49  149.73   -1.75 -131.95  -31.45   22.95  159.49 -175.93  129.87

DOCKED: MODEL       36
DOCKED: USER    Run = 36
DOCKED: USER    DPF = D:/Protein_go_brrr/autodock/final/2DN3/IHP/dock.dpf
DOCKED: USER  
DOCKED: USER    Estimated Free Energy of Binding    =   +6.13 kcal/mol  [=(1)+(2)+(3)-(4)]
DOCKED: USER    
DOCKED: USER    (1) Final Intermolecular Energy     =   -1.03 kcal/mol
DOCKED: USER        vdW + Hbond + desolv Energy     =   -0.83 kcal/mol
DOCKED: USER        Electrostatic Energy            =   -0.20 kcal/mol
DOCKED: USER    (2) Final Total Internal Energy     =  -14.17 kcal/mol
DOCKED: USER    (3) Torsional Free Energy           =   +7.16 kcal/mol
DOCKED: USER    (4) Unbound System's Energy  [=(2)] =  -14.17 kcal/mol
DOCKED: USER    
DOCKED: USER    
DOCKED: USER    NEWDPF move IHP_ideal_opt.pdbqt
DOCKED: USER    NEWDPF about 0.035000 0.082000 -0.065000
DOCKED: USER    NEWDPF tran0 57.267359 27.716351 -1.859251
DOCKED: USER    NEWDPF quaternion0 0.161233 -0.915471 -0.010253 -0.368526
DOCKED: USER    NEWDPF axisangle0 0.173440 -0.984783 -0.011030 -136.750501
DOCKED: USER    NEWDPF quat0 0.173440 -0.984783 -0.011030 -136.750501
DOCKED: USER    NEWDPF dihe0 -172.22 20.15 122.24 -1.27 41.42 92.23 -32.70 150.95 128.86 58.31 -95.47 -151.04 31.65 43.56 -179.81 -179.49 149.73 -1.75 -131.95 -31.45 22.95 159.49 -175.93 129.87 
DOCKED: USER  keepresnum = 1 
DOCKED: USER  
DOCKED: REMARK  24 active torsions:
DOCKED: REMARK  status: ('A' for Active; 'I' for Inactive)
DOCKED: REMARK    1  A    between atoms: C_1  and  O_7 
DOCKED: REMARK    2  A    between atoms: C_2  and  O_12 
DOCKED: REMARK    3  A    between atoms: C_3  and  O_17 
DOCKED: REMARK    4  A    between atoms: C_4  and  O_22 
DOCKED: REMARK    5  A    between atoms: C_5  and  O_27 
DOCKED: REMARK    6  A    between atoms: C_6  and  O_32 
DOCKED: REMARK    7  A    between atoms: O_7  and  P_8 
DOCKED: REMARK    8  A    between atoms: P_8  and  O_10 
DOCKED: REMARK    9  A    between atoms: P_8  and  O_11 
DOCKED: REMARK   10  A    between atoms: O_12  and  P_13 
DOCKED: REMARK   11  A    between atoms: P_13  and  O_15 
DOCKED: REMARK   12  A    between atoms: P_13  and  O_16 
DOCKED: REMARK   13  A    between atoms: O_17  and  P_18 
DOCKED: REMARK   14  A    between atoms: P_18  and  O_20 
DOCKED: REMARK   15  A    between atoms: P_18  and  O_21 
DOCKED: REMARK   16  A    between atoms: O_22  and  P_23 
DOCKED: REMARK   17  A    between atoms: P_23  and  O_25 
DOCKED: REMARK   18  A    between atoms: P_23  and  O_26 
DOCKED: REMARK   19  A    between atoms: O_27  and  P_28 
DOCKED: REMARK   20  A    between atoms: P_28  and  O_30 
DOCKED: REMARK   21  A    between atoms: P_28  and  O_31 
DOCKED: REMARK   22  A    between atoms: O_32  and  P_33 
DOCKED: REMARK   23  A    between atoms: P_33  and  O_35 
DOCKED: REMARK   24  A    between atoms: P_33  and  O_36 
DOCKED: USER                              x       y       z     vdW  Elec       q    Type
DOCKED: USER                           _______ _______ _______ _____ _____    ______ ____
DOCKED: ROOT
DOCKED: ATOM      1  C   UNL d   1      56.139  26.416  -1.716 -0.00 +0.05    +0.194 C 
DOCKED: ATOM      2  C   UNL d   1      57.465  26.069  -2.396 +0.00 +0.03    +0.194 C 
DOCKED: ATOM      3  C   UNL d   1      57.897  27.156  -3.382 +0.00 +0.03    +0.194 C 
DOCKED: ATOM      4  C   UNL d   1      57.912  28.554  -2.768 +0.00 +0.03    +0.194 C 
DOCKED: ATOM      5  C   UNL d   1      56.654  28.900  -1.982 +0.00 +0.04    +0.194 C 
DOCKED: ATOM      6  C   UNL d   1      56.186  27.788  -1.041 -0.01 +0.05    +0.194 C 
DOCKED: ENDROOT
DOCKED: BRANCH   1   7
DOCKED: ATOM      7  O   UNL d   1      55.894  25.447  -0.694 -0.01 -0.09    -0.278 OA
DOCKED: BRANCH   7   8
DOCKED: ATOM      8  P   UNL d   1      56.104  25.880   0.829 -0.03 +0.21    +0.473 P 
DOCKED: ATOM      9  O   UNL d   1      54.949  26.586   1.448 -0.09 -0.19    -0.228 OA
DOCKED: BRANCH   8  10
DOCKED: ATOM     10  O   UNL d   1      56.478  24.517   1.570 -0.01 -0.12    -0.303 OA
DOCKED: ATOM     11  H   UNL d   1      56.938  23.923   0.949 +0.01 +0.07    +0.222 HD
DOCKED: ENDBRANCH   8  10
DOCKED: BRANCH   8  12
DOCKED: ATOM     12  O   UNL d   1      57.487  26.660   0.850 -0.00 -0.09    -0.303 OA
DOCKED: ATOM     13  H   UNL d   1      58.088  26.399   0.116 +0.01 +0.05    +0.222 HD
DOCKED: ENDBRANCH   8  12
DOCKED: ENDBRANCH   7   8
DOCKED: ENDBRANCH   1   7
DOCKED: BRANCH   2  14
DOCKED: ATOM     14  O   UNL d   1      58.481  25.930  -1.395 +0.00 -0.05    -0.278 OA
DOCKED: BRANCH  14  15
DOCKED: ATOM     15  P   UNL d   1      58.857  24.436  -0.959 +0.00 +0.08    +0.473 P 
DOCKED: ATOM     16  O   UNL d   1      60.080  23.841  -1.584 +0.00 -0.03    -0.228 OA
DOCKED: BRANCH  15  17
DOCKED: ATOM     17  O   UNL d   1      58.947  24.507   0.630 +0.00 -0.06    -0.303 OA
DOCKED: ATOM     18  H   UNL d   1      58.386  25.224   0.982 +0.01 +0.05    +0.222 HD
DOCKED: ENDBRANCH  15  17
DOCKED: BRANCH  15  19
DOCKED: ATOM     19  O   UNL d   1      57.512  23.612  -1.166 +0.00 -0.06    -0.303 OA
DOCKED: ATOM     20  H   UNL d   1      56.790  23.954  -0.606 +0.01 +0.05    +0.222 HD
DOCKED: ENDBRANCH  15  19
DOCKED: ENDBRANCH  14  15
DOCKED: ENDBRANCH   2  14
DOCKED: BRANCH   6  21
DOCKED: ATOM     21  O   UNL d   1      54.853  28.109  -0.653 -0.03 -0.11    -0.278 OA
DOCKED: BRANCH  21  22
DOCKED: ATOM     22  P   UNL d   1      54.600  29.199   0.484 -0.04 +0.23    +0.473 P 
DOCKED: ATOM     23  O   UNL d   1      53.387  29.055   1.341 -0.66 -0.22    -0.228 OA
DOCKED: BRANCH  22  24
DOCKED: ATOM     24  O   UNL d   1      55.981  29.172   1.273 -0.03 -0.12    -0.303 OA
DOCKED: ATOM     25  H   UNL d   1      56.402  28.287   1.129 +0.02 +0.09    +0.222 HD
DOCKED: ENDBRANCH  22  24
DOCKED: BRANCH  22  26
DOCKED: ATOM     26  O   UNL d   1      54.717  30.567  -0.343 -0.01 -0.08    -0.303 OA
DOCKED: ATOM     27  H   UNL d   1      55.662  30.801  -0.446 +0.01 +0.05    +0.222 HD
DOCKED: ENDBRANCH  22  26
DOCKED: ENDBRANCH  21  22
DOCKED: ENDBRANCH   6  21
DOCKED: BRANCH   3  28
DOCKED: ATOM     28  O   UNL d   1      59.245  26.890  -3.748 +0.00 -0.03    -0.278 OA
DOCKED: BRANCH  28  29
DOCKED: ATOM     29  P   UNL d   1      60.445  27.513  -2.906 +0.00 +0.05    +0.473 P 
DOCKED: ATOM     30  O   UNL d   1      61.725  26.761  -2.961 +0.00 -0.02    -0.228 OA
DOCKED: BRANCH  29  31
DOCKED: ATOM     31  O   UNL d   1      60.453  29.003  -3.492 +0.00 -0.03    -0.303 OA
DOCKED: ATOM     32  H   UNL d   1      59.584  29.175  -3.923 +0.00 +0.02    +0.222 HD
DOCKED: ENDBRANCH  29  31
DOCKED: BRANCH  29  33
DOCKED: ATOM     33  O   UNL d   1      59.783  27.703  -1.471 +0.00 -0.04    -0.303 OA
DOCKED: ATOM     34  H   UNL d   1      60.206  28.475  -1.021 +0.00 +0.03    +0.222 HD
DOCKED: ENDBRANCH  29  33
DOCKED: ENDBRANCH  28  29
DOCKED: ENDBRANCH   3  28
DOCKED: BRANCH   5  35
DOCKED: ATOM     35  O   UNL d   1      57.001  30.019  -1.170 +0.00 -0.05    -0.278 OA
DOCKED: BRANCH  35  36
DOCKED: ATOM     36  P   UNL d   1      58.375  30.030  -0.359 +0.01 +0.07    +0.473 P 
DOCKED: ATOM     37  O   UNL d   1      58.490  31.079   0.701 +0.00 -0.03    -0.228 OA
DOCKED: BRANCH  36  38
DOCKED: ATOM     38  O   UNL d   1      58.441  28.536   0.189 +0.00 -0.06    -0.303 OA
DOCKED: ATOM     39  H   UNL d   1      58.424  27.914  -0.570 +0.00 +0.04    +0.222 HD
DOCKED: ENDBRANCH  36  38
DOCKED: BRANCH  36  40
DOCKED: ATOM     40  O   UNL d   1      59.457  30.058  -1.524 +0.00 -0.04    -0.303 OA
DOCKED: ATOM     41  H   UNL d   1      59.060  30.324  -2.383 +0.00 +0.03    +0.222 HD
DOCKED: ENDBRANCH  36  40
DOCKED: ENDBRANCH  35  36
DOCKED: ENDBRANCH   5  35
DOCKED: BRANCH   4  42
DOCKED: ATOM     42  O   UNL d   1      57.999  29.482  -3.854 +0.00 -0.03    -0.278 OA
DOCKED: BRANCH  42  43
DOCKED: ATOM     43  P   UNL d   1      57.608  28.993  -5.321 +0.00 +0.05    +0.473 P 
DOCKED: ATOM     44  O   UNL d   1      56.375  28.169  -5.464 +0.00 -0.03    -0.228 OA
DOCKED: BRANCH  43  45
DOCKED: ATOM     45  O   UNL d   1      57.582  30.352  -6.148 +0.00 -0.03    -0.303 OA
DOCKED: ATOM     46  H   UNL d   1      57.180  30.227  -7.031 +0.00 +0.02    +0.222 HD
DOCKED: ENDBRANCH  43  45
DOCKED: BRANCH  43  47
DOCKED: ATOM     47  O   UNL d   1      58.959  28.314  -5.853 +0.00 -0.03    -0.303 OA
DOCKED: ATOM     48  H   UNL d   1      59.471  27.973  -5.090 +0.00 +0.02    +0.222 HD
DOCKED: ENDBRANCH  43  47
DOCKED: ENDBRANCH  42  43
DOCKED: ENDBRANCH   4  42
DOCKED: TORSDOF 24
DOCKED: TER
DOCKED: ENDMDL
________________________________________________________________________________


	BEGINNING GENETIC ALGORITHM DOCKING 37 of 100
Run: 37 Seed: 1661206046 1718663706 [ Run 37 of 100 GA/GALS ]
Beginning LAMARCKIAN GENETIC ALGORITHM (LGA), with a maximum of 25000000 energy evaluations.

Final-Value: -17.386


	FINAL GENETIC ALGORITHM DOCKED STATE
	_______________________________________________


Detailed state:  trans 38.653 36.770 -2.451 quatxyzw 0.092810 -0.400416 -0.766683 0.493205 center 0.035 0.082 -0.065 ntor 24 103.8479 71.1558 57.4279 65.5935 16.5505 170.1875 2.5864 -107.0234 97.6221 -58.5349 23.3490 -137.2969 -26.3844 133.6276 170.3774 -81.5546 -128.0489 -30.5741 3.3628 -19.1814 -24.6201 24.0168 -0.2964 -8.3852
State:	 38.653  36.770  -2.451   0.107 -0.460 -0.881 120.897    103.85   71.16   57.43   65.59   16.55  170.19    2.59 -107.02   97.62  -58.53   23.35 -137.30  -26.38  133.63  170.38  -81.55 -128.05  -30.57    3.36  -19.18  -24.62   24.02   -0.30   -8.39

DOCKED: MODEL       37
DOCKED: USER    Run = 37
DOCKED: USER    DPF = D:/Protein_go_brrr/autodock/final/2DN3/IHP/dock.dpf
DOCKED: USER  
DOCKED: USER    Estimated Free Energy of Binding    =   +4.96 kcal/mol  [=(1)+(2)+(3)-(4)]
DOCKED: USER    
DOCKED: USER    (1) Final Intermolecular Energy     =   -2.20 kcal/mol
DOCKED: USER        vdW + Hbond + desolv Energy     =   -2.18 kcal/mol
DOCKED: USER        Electrostatic Energy            =   -0.02 kcal/mol
DOCKED: USER    (2) Final Total Internal Energy     =  -15.19 kcal/mol
DOCKED: USER    (3) Torsional Free Energy           =   +7.16 kcal/mol
DOCKED: USER    (4) Unbound System's Energy  [=(2)] =  -15.19 kcal/mol
DOCKED: USER    
DOCKED: USER    
DOCKED: USER    NEWDPF move IHP_ideal_opt.pdbqt
DOCKED: USER    NEWDPF about 0.035000 0.082000 -0.065000
DOCKED: USER    NEWDPF tran0 38.652603 36.770170 -2.451220
DOCKED: USER    NEWDPF quaternion0 0.092810 -0.400416 -0.766683 0.493205
DOCKED: USER    NEWDPF axisangle0 0.106689 -0.460294 -0.881332 120.897143
DOCKED: USER    NEWDPF quat0 0.106689 -0.460294 -0.881332 120.897143
DOCKED: USER    NEWDPF dihe0 103.85 71.16 57.43 65.59 16.55 170.19 2.59 -107.02 97.62 -58.53 23.35 -137.30 -26.38 133.63 170.38 -81.55 -128.05 -30.57 3.36 -19.18 -24.62 24.02 -0.30 -8.39 
DOCKED: USER  keepresnum = 1 
DOCKED: USER  
DOCKED: REMARK  24 active torsions:
DOCKED: REMARK  status: ('A' for Active; 'I' for Inactive)
DOCKED: REMARK    1  A    between atoms: C_1  and  O_7 
DOCKED: REMARK    2  A    between atoms: C_2  and  O_12 
DOCKED: REMARK    3  A    between atoms: C_3  and  O_17 
DOCKED: REMARK    4  A    between atoms: C_4  and  O_22 
DOCKED: REMARK    5  A    between atoms: C_5  and  O_27 
DOCKED: REMARK    6  A    between atoms: C_6  and  O_32 
DOCKED: REMARK    7  A    between atoms: O_7  and  P_8 
DOCKED: REMARK    8  A    between atoms: P_8  and  O_10 
DOCKED: REMARK    9  A    between atoms: P_8  and  O_11 
DOCKED: REMARK   10  A    between atoms: O_12  and  P_13 
DOCKED: REMARK   11  A    between atoms: P_13  and  O_15 
DOCKED: REMARK   12  A    between atoms: P_13  and  O_16 
DOCKED: REMARK   13  A    between atoms: O_17  and  P_18 
DOCKED: REMARK   14  A    between atoms: P_18  and  O_20 
DOCKED: REMARK   15  A    between atoms: P_18  and  O_21 
DOCKED: REMARK   16  A    between atoms: O_22  and  P_23 
DOCKED: REMARK   17  A    between atoms: P_23  and  O_25 
DOCKED: REMARK   18  A    between atoms: P_23  and  O_26 
DOCKED: REMARK   19  A    between atoms: O_27  and  P_28 
DOCKED: REMARK   20  A    between atoms: P_28  and  O_30 
DOCKED: REMARK   21  A    between atoms: P_28  and  O_31 
DOCKED: REMARK   22  A    between atoms: O_32  and  P_33 
DOCKED: REMARK   23  A    between atoms: P_33  and  O_35 
DOCKED: REMARK   24  A    between atoms: P_33  and  O_36 
DOCKED: USER                              x       y       z     vdW  Elec       q    Type
DOCKED: USER                           _______ _______ _______ _____ _____    ______ ____
DOCKED: ROOT
DOCKED: ATOM      1  C   UNL d   1      38.968  38.354  -3.065 -0.02 +0.03    +0.194 C 
DOCKED: ATOM      2  C   UNL d   1      40.162  37.398  -3.058 -0.02 +0.02    +0.194 C 
DOCKED: ATOM      3  C   UNL d   1      40.240  36.596  -1.757 -0.05 +0.03    +0.194 C 
DOCKED: ATOM      4  C   UNL d   1      38.932  35.890  -1.407 -0.06 +0.03    +0.194 C 
DOCKED: ATOM      5  C   UNL d   1      37.699  36.778  -1.512 -0.06 +0.03    +0.194 C 
DOCKED: ATOM      6  C   UNL d   1      37.653  37.626  -2.785 -0.02 +0.03    +0.194 C 
DOCKED: ENDROOT
DOCKED: BRANCH   1   7
DOCKED: ATOM      7  O   UNL d   1      38.866  38.932  -4.368 -0.00 -0.04    -0.278 OA
DOCKED: BRANCH   7   8
DOCKED: ATOM      8  P   UNL d   1      39.000  40.518  -4.508 +0.00 +0.07    +0.473 P 
DOCKED: ATOM      9  O   UNL d   1      39.774  41.184  -3.426 -0.00 -0.04    -0.228 OA
DOCKED: BRANCH   8  10
DOCKED: ATOM     10  O   UNL d   1      39.637  40.726  -5.956 +0.00 -0.03    -0.303 OA
DOCKED: ATOM     11  H   UNL d   1      40.456  40.203  -6.031 +0.00 +0.02    +0.222 HD
DOCKED: ENDBRANCH   8  10
DOCKED: BRANCH   8  12
DOCKED: ATOM     12  O   UNL d   1      37.514  41.040  -4.720 +0.00 -0.05    -0.303 OA
DOCKED: ATOM     13  H   UNL d   1      36.836  40.440  -4.335 +0.00 +0.04    +0.222 HD
DOCKED: ENDBRANCH   8  12
DOCKED: ENDBRANCH   7   8
DOCKED: ENDBRANCH   1   7
DOCKED: BRANCH   2  14
DOCKED: ATOM     14  O   UNL d   1      40.032  36.481  -4.152 -0.00 -0.03    -0.278 OA
DOCKED: BRANCH  14  15
DOCKED: ATOM     15  P   UNL d   1      41.106  36.616  -5.332 -0.00 +0.04    +0.473 P 
DOCKED: ATOM     16  O   UNL d   1      40.853  35.810  -6.567 +0.00 -0.02    -0.228 OA
DOCKED: BRANCH  15  17
DOCKED: ATOM     17  O   UNL d   1      41.171  38.181  -5.619 -0.00 -0.03    -0.303 OA
DOCKED: ATOM     18  H   UNL d   1      40.286  38.588  -5.554 +0.00 +0.02    +0.222 HD
DOCKED: ENDBRANCH  15  17
DOCKED: BRANCH  15  19
DOCKED: ATOM     19  O   UNL d   1      42.507  36.363  -4.623 -0.00 -0.03    -0.303 OA
DOCKED: ATOM     20  H   UNL d   1      42.397  36.099  -3.691 +0.01 +0.02    +0.222 HD
DOCKED: ENDBRANCH  15  19
DOCKED: ENDBRANCH  14  15
DOCKED: ENDBRANCH   2  14
DOCKED: BRANCH   6  21
DOCKED: ATOM     21  O   UNL d   1      36.657  38.625  -2.579 -0.01 -0.05    -0.278 OA
DOCKED: BRANCH  21  22
DOCKED: ATOM     22  P   UNL d   1      35.487  38.809  -3.647 +0.00 +0.08    +0.473 P 
DOCKED: ATOM     23  O   UNL d   1      34.754  40.108  -3.674 +0.00 -0.05    -0.228 OA
DOCKED: BRANCH  22  24
DOCKED: ATOM     24  O   UNL d   1      36.224  38.431  -5.006 +0.00 -0.04    -0.303 OA
DOCKED: ATOM     25  H   UNL d   1      37.073  38.942  -5.049 +0.00 +0.03    +0.222 HD
DOCKED: ENDBRANCH  22  24
DOCKED: BRANCH  22  26
DOCKED: ATOM     26  O   UNL d   1      34.595  37.504  -3.381 -0.00 -0.04    -0.303 OA
DOCKED: ATOM     27  H   UNL d   1      35.034  36.946  -2.707 +0.01 +0.03    +0.222 HD
DOCKED: ENDBRANCH  22  26
DOCKED: ENDBRANCH  21  22
DOCKED: ENDBRANCH   6  21
DOCKED: BRANCH   3  28
DOCKED: ATOM     28  O   UNL d   1      41.190  35.557  -1.950 -0.03 -0.03    -0.278 OA
DOCKED: BRANCH  28  29
DOCKED: ATOM     29  P   UNL d   1      42.286  35.252  -0.835 -0.08 +0.07    +0.473 P 
DOCKED: ATOM     30  O   UNL d   1      43.673  35.664  -1.171 -0.12 -0.03    -0.228 OA
DOCKED: BRANCH  29  31
DOCKED: ATOM     31  O   UNL d   1      41.603  35.959   0.428 -0.15 -0.06    -0.303 OA
DOCKED: ATOM     32  H   UNL d   1      40.693  35.599   0.535 +0.06 +0.03    +0.222 HD
DOCKED: ENDBRANCH  29  31
DOCKED: BRANCH  29  33
DOCKED: ATOM     33  O   UNL d   1      42.045  33.705  -0.545 -0.16 -0.04    -0.303 OA
DOCKED: ATOM     34  H   UNL d   1      41.078  33.549  -0.415 +0.08 +0.02    +0.222 HD
DOCKED: ENDBRANCH  29  33
DOCKED: ENDBRANCH  28  29
DOCKED: ENDBRANCH   3  28
DOCKED: BRANCH   5  35
DOCKED: ATOM     35  O   UNL d   1      36.585  35.890  -1.558 -0.03 -0.04    -0.278 OA
DOCKED: BRANCH  35  36
DOCKED: ATOM     36  P   UNL d   1      35.336  36.115  -0.591 -0.05 +0.07    +0.473 P 
DOCKED: ATOM     37  O   UNL d   1      35.477  35.551   0.787 -0.11 -0.01    -0.228 OA
DOCKED: BRANCH  36  38
DOCKED: ATOM     38  O   UNL d   1      35.170  37.698  -0.636 -0.05 -0.06    -0.303 OA
DOCKED: ATOM     39  H   UNL d   1      35.511  38.033  -1.494 +0.02 +0.04    +0.222 HD
DOCKED: ENDBRANCH  36  38
DOCKED: BRANCH  36  40
DOCKED: ATOM     40  O   UNL d   1      34.124  35.578  -1.471 -0.00 -0.05    -0.303 OA
DOCKED: ATOM     41  H   UNL d   1      33.628  36.313  -1.895 +0.01 +0.04    +0.222 HD
DOCKED: ENDBRANCH  36  40
DOCKED: ENDBRANCH  35  36
DOCKED: ENDBRANCH   5  35
DOCKED: BRANCH   4  42
DOCKED: ATOM     42  O   UNL d   1      39.038  35.476  -0.041 -0.11 -0.04    -0.278 OA
DOCKED: BRANCH  42  43
DOCKED: ATOM     43  P   UNL d   1      38.941  33.921   0.303 -0.18 +0.06    +0.473 P 
DOCKED: ATOM     44  O   UNL d   1      39.091  32.958  -0.823 -0.09 -0.02    -0.228 OA
DOCKED: BRANCH  43  45
DOCKED: ATOM     45  O   UNL d   1      40.025  33.751   1.456 -0.85 -0.08    -0.303 OA
DOCKED: ATOM     46  H   UNL d   1      40.882  34.150   1.203 -0.01 +0.03    +0.222 HD
DOCKED: ENDBRANCH  43  45
DOCKED: BRANCH  43  47
DOCKED: ATOM     47  O   UNL d   1      37.570  33.813   1.128 -0.20 -0.02    -0.303 OA
DOCKED: ATOM     48  H   UNL d   1      36.892  34.375   0.700 +0.07 +0.02    +0.222 HD
DOCKED: ENDBRANCH  43  47
DOCKED: ENDBRANCH  42  43
DOCKED: ENDBRANCH   4  42
DOCKED: TORSDOF 24
DOCKED: TER
DOCKED: ENDMDL
________________________________________________________________________________


	BEGINNING GENETIC ALGORITHM DOCKING 38 of 100
Run: 38 Seed: 2077690170 878176794 [ Run 38 of 100 GA/GALS ]
Beginning LAMARCKIAN GENETIC ALGORITHM (LGA), with a maximum of 25000000 energy evaluations.

Final-Value: -15.332


	FINAL GENETIC ALGORITHM DOCKED STATE
	_______________________________________________


Detailed state:  trans -1.955 17.742 15.388 quatxyzw -0.357897 0.576415 0.727098 0.104805 center 0.035 0.082 -0.065 ntor 24 129.7007 138.5766 171.4149 -43.1132 0.5751 -160.2782 -120.5690 -6.8730 89.0503 -7.8768 -26.4343 180.0000 -92.6728 174.6535 172.5756 166.8507 -180.0000 160.2475 -129.7848 17.2300 180.0000 15.1283 18.3422 -179.7529
State:	 -1.955  17.742  15.388  -0.360  0.580  0.731 167.968    129.70  138.58  171.41  -43.11    0.58 -160.28 -120.57   -6.87   89.05   -7.88  -26.43  180.00  -92.67  174.65  172.58  166.85 -180.00  160.25 -129.78   17.23  180.00   15.13   18.34 -179.75

DOCKED: MODEL       38
DOCKED: USER    Run = 38
DOCKED: USER    DPF = D:/Protein_go_brrr/autodock/final/2DN3/IHP/dock.dpf
DOCKED: USER  
DOCKED: USER    Estimated Free Energy of Binding    =   +5.24 kcal/mol  [=(1)+(2)+(3)-(4)]
DOCKED: USER    
DOCKED: USER    (1) Final Intermolecular Energy     =   -1.92 kcal/mol
DOCKED: USER        vdW + Hbond + desolv Energy     =   -1.75 kcal/mol
DOCKED: USER        Electrostatic Energy            =   -0.17 kcal/mol
DOCKED: USER    (2) Final Total Internal Energy     =  -13.41 kcal/mol
DOCKED: USER    (3) Torsional Free Energy           =   +7.16 kcal/mol
DOCKED: USER    (4) Unbound System's Energy  [=(2)] =  -13.41 kcal/mol
DOCKED: USER    
DOCKED: USER    
DOCKED: USER    NEWDPF move IHP_ideal_opt.pdbqt
DOCKED: USER    NEWDPF about 0.035000 0.082000 -0.065000
DOCKED: USER    NEWDPF tran0 -1.954995 17.741770 15.388457
DOCKED: USER    NEWDPF quaternion0 -0.357897 0.576415 0.727098 0.104805
DOCKED: USER    NEWDPF axisangle0 -0.359879 0.579607 0.731125 167.968132
DOCKED: USER    NEWDPF quat0 -0.359879 0.579607 0.731125 167.968132
DOCKED: USER    NEWDPF dihe0 129.70 138.58 171.41 -43.11 0.58 -160.28 -120.57 -6.87 89.05 -7.88 -26.43 180.00 -92.67 174.65 172.58 166.85 -180.00 160.25 -129.78 17.23 180.00 15.13 18.34 -179.75 
DOCKED: USER  keepresnum = 1 
DOCKED: USER  
DOCKED: REMARK  24 active torsions:
DOCKED: REMARK  status: ('A' for Active; 'I' for Inactive)
DOCKED: REMARK    1  A    between atoms: C_1  and  O_7 
DOCKED: REMARK    2  A    between atoms: C_2  and  O_12 
DOCKED: REMARK    3  A    between atoms: C_3  and  O_17 
DOCKED: REMARK    4  A    between atoms: C_4  and  O_22 
DOCKED: REMARK    5  A    between atoms: C_5  and  O_27 
DOCKED: REMARK    6  A    between atoms: C_6  and  O_32 
DOCKED: REMARK    7  A    between atoms: O_7  and  P_8 
DOCKED: REMARK    8  A    between atoms: P_8  and  O_10 
DOCKED: REMARK    9  A    between atoms: P_8  and  O_11 
DOCKED: REMARK   10  A    between atoms: O_12  and  P_13 
DOCKED: REMARK   11  A    between atoms: P_13  and  O_15 
DOCKED: REMARK   12  A    between atoms: P_13  and  O_16 
DOCKED: REMARK   13  A    between atoms: O_17  and  P_18 
DOCKED: REMARK   14  A    between atoms: P_18  and  O_20 
DOCKED: REMARK   15  A    between atoms: P_18  and  O_21 
DOCKED: REMARK   16  A    between atoms: O_22  and  P_23 
DOCKED: REMARK   17  A    between atoms: P_23  and  O_25 
DOCKED: REMARK   18  A    between atoms: P_23  and  O_26 
DOCKED: REMARK   19  A    between atoms: O_27  and  P_28 
DOCKED: REMARK   20  A    between atoms: P_28  and  O_30 
DOCKED: REMARK   21  A    between atoms: P_28  and  O_31 
DOCKED: REMARK   22  A    between atoms: O_32  and  P_33 
DOCKED: REMARK   23  A    between atoms: P_33  and  O_35 
DOCKED: REMARK   24  A    between atoms: P_33  and  O_36 
DOCKED: USER                              x       y       z     vdW  Elec       q    Type
DOCKED: USER                           _______ _______ _______ _____ _____    ______ ____
DOCKED: ROOT
DOCKED: ATOM      1  C   UNL d   1      -3.136  17.916  14.140 -0.00 -0.01    +0.194 C 
DOCKED: ATOM      2  C   UNL d   1      -1.789  18.591  13.875 -0.02 -0.01    +0.194 C 
DOCKED: ATOM      3  C   UNL d   1      -1.265  19.317  15.116 -0.02 -0.01    +0.194 C 
DOCKED: ATOM      4  C   UNL d   1      -1.233  18.432  16.360 -0.01 -0.01    +0.194 C 
DOCKED: ATOM      5  C   UNL d   1      -2.518  17.650  16.599 -0.00 -0.00    +0.194 C 
DOCKED: ATOM      6  C   UNL d   1      -3.075  16.976  15.344 +0.00 -0.00    +0.194 C 
DOCKED: ENDROOT
DOCKED: BRANCH   1   7
DOCKED: ATOM      7  O   UNL d   1      -3.470  17.124  12.997 -0.00 +0.01    -0.278 OA
DOCKED: BRANCH   7   8
DOCKED: ATOM      8  P   UNL d   1      -3.377  15.534  13.122 +0.00 -0.01    +0.473 P 
DOCKED: ATOM      9  O   UNL d   1      -2.195  15.028  13.872 -0.00 +0.00    -0.228 OA
DOCKED: BRANCH   8  10
DOCKED: ATOM     10  O   UNL d   1      -4.767  15.117  13.785 +0.00 +0.00    -0.303 OA
DOCKED: ATOM     11  H   UNL d   1      -5.101  15.851  14.334 +0.00 -0.00    +0.222 HD
DOCKED: ENDBRANCH   8  10
DOCKED: BRANCH   8  12
DOCKED: ATOM     12  O   UNL d   1      -3.540  14.993  11.638 +0.00 +0.00    -0.303 OA
DOCKED: ATOM     13  H   UNL d   1      -2.680  14.854  11.181 +0.00 -0.00    +0.222 HD
DOCKED: ENDBRANCH   8  12
DOCKED: ENDBRANCH   7   8
DOCKED: ENDBRANCH   1   7
DOCKED: BRANCH   2  14
DOCKED: ATOM     14  O   UNL d   1      -0.834  17.594  13.491 -0.02 +0.02    -0.278 OA
DOCKED: BRANCH  14  15
DOCKED: ATOM     15  P   UNL d   1       0.316  18.057  12.477 -0.09 -0.08    +0.473 P 
DOCKED: ATOM     16  O   UNL d   1       0.535  17.196  11.272 -0.10 +0.02    -0.228 OA
DOCKED: BRANCH  15  17
DOCKED: ATOM     17  O   UNL d   1      -0.077  19.555  12.103 -0.19 +0.09    -0.303 OA
DOCKED: ATOM     18  H   UNL d   1       0.135  20.167  12.833 -0.08 -0.08    +0.222 HD
DOCKED: ENDBRANCH  15  17
DOCKED: BRANCH  15  19
DOCKED: ATOM     19  O   UNL d   1       1.592  18.283  13.400 -0.11 +0.08    -0.303 OA
DOCKED: ATOM     20  H   UNL d   1       1.754  19.230  13.565 -0.43 -0.13    +0.222 HD
DOCKED: ENDBRANCH  15  19
DOCKED: ENDBRANCH  14  15
DOCKED: ENDBRANCH   2  14
DOCKED: BRANCH   6  21
DOCKED: ATOM     21  O   UNL d   1      -4.415  16.592  15.643 +0.00 +0.00    -0.278 OA
DOCKED: BRANCH  21  22
DOCKED: ATOM     22  P   UNL d   1      -5.574  17.688  15.635 +0.00 -0.00    +0.473 P 
DOCKED: ATOM     23  O   UNL d   1      -6.811  17.412  16.420 +0.00 +0.00    -0.228 OA
DOCKED: BRANCH  22  24
DOCKED: ATOM     24  O   UNL d   1      -4.784  18.999  16.072 +0.00 +0.01    -0.303 OA
DOCKED: ATOM     25  H   UNL d   1      -4.471  18.873  17.004 +0.00 -0.00    +0.222 HD
DOCKED: ENDBRANCH  22  24
DOCKED: BRANCH  22  26
DOCKED: ATOM     26  O   UNL d   1      -5.778  17.934  14.064 +0.00 +0.00    -0.303 OA
DOCKED: ATOM     27  H   UNL d   1      -5.498  17.134  13.574 +0.00 -0.00    +0.222 HD
DOCKED: ENDBRANCH  22  26
DOCKED: ENDBRANCH  21  22
DOCKED: ENDBRANCH   6  21
DOCKED: BRANCH   3  28
DOCKED: ATOM     28  O   UNL d   1       0.090  19.668  14.867 -0.06 +0.04    -0.278 OA
DOCKED: BRANCH  28  29
DOCKED: ATOM     29  P   UNL d   1       0.572  21.177  15.025 -0.03 -0.08    +0.473 P 
DOCKED: ATOM     30  O   UNL d   1       1.917  21.361  15.629 -0.17 +0.04    -0.228 OA
DOCKED: BRANCH  29  31
DOCKED: ATOM     31  O   UNL d   1       0.375  21.692  13.522 -0.05 +0.09    -0.303 OA
DOCKED: ATOM     32  H   UNL d   1       1.041  21.248  12.948 -0.36 -0.15    +0.222 HD
DOCKED: ENDBRANCH  29  31
DOCKED: BRANCH  29  33
DOCKED: ATOM     33  O   UNL d   1      -0.657  21.842  15.788 -0.04 +0.02    -0.303 OA
DOCKED: ATOM     34  H   UNL d   1      -0.864  21.305  16.592 +0.02 -0.01    +0.222 HD
DOCKED: ENDBRANCH  29  33
DOCKED: ENDBRANCH  28  29
DOCKED: ENDBRANCH   3  28
DOCKED: BRANCH   5  35
DOCKED: ATOM     35  O   UNL d   1      -2.175  16.613  17.516 -0.00 +0.00    -0.278 OA
DOCKED: BRANCH  35  36
DOCKED: ATOM     36  P   UNL d   1      -3.254  16.069  18.556 +0.00 +0.00    +0.473 P 
DOCKED: ATOM     37  O   UNL d   1      -2.762  15.875  19.955 +0.00 -0.00    -0.228 OA
DOCKED: BRANCH  36  38
DOCKED: ATOM     38  O   UNL d   1      -4.417  17.148  18.414 +0.00 +0.00    -0.303 OA
DOCKED: ATOM     39  H   UNL d   1      -4.305  17.631  17.567 +0.00 -0.00    +0.222 HD
DOCKED: ENDBRANCH  36  38
DOCKED: BRANCH  36  40
DOCKED: ATOM     40  O   UNL d   1      -3.829  14.787  17.810 +0.00 -0.00    -0.303 OA
DOCKED: ATOM     41  H   UNL d   1      -4.084  14.990  16.882 +0.00 +0.00    +0.222 HD
DOCKED: ENDBRANCH  36  40
DOCKED: ENDBRANCH  35  36
DOCKED: ENDBRANCH   5  35
DOCKED: BRANCH   4  42
DOCKED: ATOM     42  O   UNL d   1      -1.054  19.303  17.483 -0.00 +0.01    -0.278 OA
DOCKED: BRANCH  42  43
DOCKED: ATOM     43  P   UNL d   1      -2.245  20.279  17.898 +0.00 -0.01    +0.473 P 
DOCKED: ATOM     44  O   UNL d   1      -1.886  21.532  18.620 -0.00 +0.00    -0.228 OA
DOCKED: BRANCH  43  45
DOCKED: ATOM     45  O   UNL d   1      -2.999  20.517  16.517 -0.00 +0.01    -0.303 OA
DOCKED: ATOM     46  H   UNL d   1      -2.743  21.370  16.112 +0.01 -0.01    +0.222 HD
DOCKED: ENDBRANCH  43  45
DOCKED: BRANCH  43  47
DOCKED: ATOM     47  O   UNL d   1      -3.266  19.308  18.663 +0.00 +0.00    -0.303 OA
DOCKED: ATOM     48  H   UNL d   1      -2.908  18.397  18.659 +0.00 -0.00    +0.222 HD
DOCKED: ENDBRANCH  43  47
DOCKED: ENDBRANCH  42  43
DOCKED: ENDBRANCH   4  42
DOCKED: TORSDOF 24
DOCKED: TER
DOCKED: ENDMDL
________________________________________________________________________________


	BEGINNING GENETIC ALGORITHM DOCKING 39 of 100
Run: 39 Seed: 1543204967 756622132 [ Run 39 of 100 GA/GALS ]
Beginning LAMARCKIAN GENETIC ALGORITHM (LGA), with a maximum of 25000000 energy evaluations.

Final-Value: -14.994


	FINAL GENETIC ALGORITHM DOCKED STATE
	_______________________________________________


Detailed state:  trans 16.948 51.900 22.586 quatxyzw 0.289175 -0.289195 0.870707 -0.273156 center 0.035 0.082 -0.065 ntor 24 -149.3020 111.8938 145.6922 33.0119 -87.3149 -170.6189 14.2766 -98.3296 -5.6616 -4.5573 84.1956 162.9046 31.8396 -137.0903 179.9009 -61.5415 -103.9099 -151.5818 -139.2281 -6.4185 180.0000 151.5143 139.0867 -46.3787
State:	 16.948  51.900  22.586   0.301 -0.301  0.905 -148.296   -149.30  111.89  145.69   33.01  -87.31 -170.62   14.28  -98.33   -5.66   -4.56   84.20  162.90   31.84 -137.09  179.90  -61.54 -103.91 -151.58 -139.23   -6.42  180.00  151.51  139.09  -46.38

DOCKED: MODEL       39
DOCKED: USER    Run = 39
DOCKED: USER    DPF = D:/Protein_go_brrr/autodock/final/2DN3/IHP/dock.dpf
DOCKED: USER  
DOCKED: USER    Estimated Free Energy of Binding    =   +5.53 kcal/mol  [=(1)+(2)+(3)-(4)]
DOCKED: USER    
DOCKED: USER    (1) Final Intermolecular Energy     =   -1.63 kcal/mol
DOCKED: USER        vdW + Hbond + desolv Energy     =   -1.60 kcal/mol
DOCKED: USER        Electrostatic Energy            =   -0.03 kcal/mol
DOCKED: USER    (2) Final Total Internal Energy     =  -13.36 kcal/mol
DOCKED: USER    (3) Torsional Free Energy           =   +7.16 kcal/mol
DOCKED: USER    (4) Unbound System's Energy  [=(2)] =  -13.36 kcal/mol
DOCKED: USER    
DOCKED: USER    
DOCKED: USER    NEWDPF move IHP_ideal_opt.pdbqt
DOCKED: USER    NEWDPF about 0.035000 0.082000 -0.065000
DOCKED: USER    NEWDPF tran0 16.947949 51.899965 22.586462
DOCKED: USER    NEWDPF quaternion0 0.289175 -0.289195 0.870707 -0.273156
DOCKED: USER    NEWDPF axisangle0 0.300607 -0.300628 0.905129 -148.295700
DOCKED: USER    NEWDPF quat0 0.300607 -0.300628 0.905129 -148.295700
DOCKED: USER    NEWDPF dihe0 -149.30 111.89 145.69 33.01 -87.31 -170.62 14.28 -98.33 -5.66 -4.56 84.20 162.90 31.84 -137.09 179.90 -61.54 -103.91 -151.58 -139.23 -6.42 180.00 151.51 139.09 -46.38 
DOCKED: USER  keepresnum = 1 
DOCKED: USER  
DOCKED: REMARK  24 active torsions:
DOCKED: REMARK  status: ('A' for Active; 'I' for Inactive)
DOCKED: REMARK    1  A    between atoms: C_1  and  O_7 
DOCKED: REMARK    2  A    between atoms: C_2  and  O_12 
DOCKED: REMARK    3  A    between atoms: C_3  and  O_17 
DOCKED: REMARK    4  A    between atoms: C_4  and  O_22 
DOCKED: REMARK    5  A    between atoms: C_5  and  O_27 
DOCKED: REMARK    6  A    between atoms: C_6  and  O_32 
DOCKED: REMARK    7  A    between atoms: O_7  and  P_8 
DOCKED: REMARK    8  A    between atoms: P_8  and  O_10 
DOCKED: REMARK    9  A    between atoms: P_8  and  O_11 
DOCKED: REMARK   10  A    between atoms: O_12  and  P_13 
DOCKED: REMARK   11  A    between atoms: P_13  and  O_15 
DOCKED: REMARK   12  A    between atoms: P_13  and  O_16 
DOCKED: REMARK   13  A    between atoms: O_17  and  P_18 
DOCKED: REMARK   14  A    between atoms: P_18  and  O_20 
DOCKED: REMARK   15  A    between atoms: P_18  and  O_21 
DOCKED: REMARK   16  A    between atoms: O_22  and  P_23 
DOCKED: REMARK   17  A    between atoms: P_23  and  O_25 
DOCKED: REMARK   18  A    between atoms: P_23  and  O_26 
DOCKED: REMARK   19  A    between atoms: O_27  and  P_28 
DOCKED: REMARK   20  A    between atoms: P_28  and  O_30 
DOCKED: REMARK   21  A    between atoms: P_28  and  O_31 
DOCKED: REMARK   22  A    between atoms: O_32  and  P_33 
DOCKED: REMARK   23  A    between atoms: P_33  and  O_35 
DOCKED: REMARK   24  A    between atoms: P_33  and  O_36 
DOCKED: USER                              x       y       z     vdW  Elec       q    Type
DOCKED: USER                           _______ _______ _______ _____ _____    ______ ____
DOCKED: ROOT
DOCKED: ATOM      1  C   UNL d   1      16.936  52.370  24.249 -0.02 -0.01    +0.194 C 
DOCKED: ATOM      2  C   UNL d   1      18.178  52.779  23.455 -0.03 -0.01    +0.194 C 
DOCKED: ATOM      3  C   UNL d   1      18.670  51.647  22.550 -0.04 -0.01    +0.194 C 
DOCKED: ATOM      4  C   UNL d   1      17.575  51.076  21.653 -0.09 -0.02    +0.194 C 
DOCKED: ATOM      5  C   UNL d   1      16.276  50.760  22.384 -0.04 -0.01    +0.194 C 
DOCKED: ATOM      6  C   UNL d   1      15.817  51.867  23.336 -0.01 -0.01    +0.194 C 
DOCKED: ENDROOT
DOCKED: BRANCH   1   7
DOCKED: ATOM      7  O   UNL d   1      16.442  53.525  24.931 -0.00 +0.01    -0.278 OA
DOCKED: BRANCH   7   8
DOCKED: ATOM      8  P   UNL d   1      15.230  54.334  24.275 +0.00 -0.02    +0.473 P 
DOCKED: ATOM      9  O   UNL d   1      13.877  53.788  24.566 -0.00 +0.01    -0.228 OA
DOCKED: BRANCH   8  10
DOCKED: ATOM     10  O   UNL d   1      15.432  55.827  24.801 -0.00 +0.01    -0.303 OA
DOCKED: ATOM     11  H   UNL d   1      16.341  56.122  24.606 +0.00 -0.00    +0.222 HD
DOCKED: ENDBRANCH   8  10
DOCKED: BRANCH   8  12
DOCKED: ATOM     12  O   UNL d   1      15.608  54.470  22.738 -0.00 +0.01    -0.303 OA
DOCKED: ATOM     13  H   UNL d   1      15.613  53.607  22.264 +0.01 -0.01    +0.222 HD
DOCKED: ENDBRANCH   8  12
DOCKED: ENDBRANCH   7   8
DOCKED: ENDBRANCH   1   7
DOCKED: BRANCH   2  14
DOCKED: ATOM     14  O   UNL d   1      17.858  53.911  22.638 -0.01 +0.01    -0.278 OA
DOCKED: BRANCH  14  15
DOCKED: ATOM     15  P   UNL d   1      18.790  55.203  22.808 -0.00 -0.01    +0.473 P 
DOCKED: ATOM     16  O   UNL d   1      18.481  56.107  23.961 -0.00 +0.00    -0.228 OA
DOCKED: BRANCH  15  17
DOCKED: ATOM     17  O   UNL d   1      20.267  54.610  22.867 -0.00 +0.00    -0.303 OA
DOCKED: ATOM     18  H   UNL d   1      20.428  53.993  22.128 +0.03 -0.01    +0.222 HD
DOCKED: ENDBRANCH  15  17
DOCKED: BRANCH  15  19
DOCKED: ATOM     19  O   UNL d   1      18.779  55.892  21.374 -0.00 +0.01    -0.303 OA
DOCKED: ATOM     20  H   UNL d   1      18.614  55.244  20.664 +0.01 -0.01    +0.222 HD
DOCKED: ENDBRANCH  15  19
DOCKED: ENDBRANCH  14  15
DOCKED: ENDBRANCH   2  14
DOCKED: BRANCH   6  21
DOCKED: ATOM     21  O   UNL d   1      14.816  51.298  24.177 -0.00 +0.02    -0.278 OA
DOCKED: BRANCH  21  22
DOCKED: ATOM     22  P   UNL d   1      15.243  50.355  25.391 -0.00 -0.02    +0.473 P 
DOCKED: ATOM     23  O   UNL d   1      14.303  49.274  25.809 -0.00 +0.01    -0.228 OA
DOCKED: BRANCH  22  24
DOCKED: ATOM     24  O   UNL d   1      16.676  49.847  24.919 -0.03 +0.02    -0.303 OA
DOCKED: ATOM     25  H   UNL d   1      16.846  48.967  25.343 +0.03 -0.01    +0.222 HD
DOCKED: ENDBRANCH  22  24
DOCKED: BRANCH  22  26
DOCKED: ATOM     26  O   UNL d   1      15.626  51.428  26.518 -0.00 +0.01    -0.303 OA
DOCKED: ATOM     27  H   UNL d   1      15.273  52.304  26.261 +0.00 -0.01    +0.222 HD
DOCKED: ENDBRANCH  22  26
DOCKED: ENDBRANCH  21  22
DOCKED: ENDBRANCH   6  21
DOCKED: BRANCH   3  28
DOCKED: ATOM     28  O   UNL d   1      19.635  52.198  21.663 -0.10 +0.03    -0.278 OA
DOCKED: BRANCH  28  29
DOCKED: ATOM     29  P   UNL d   1      19.218  52.628  20.187 -0.06 -0.06    +0.473 P 
DOCKED: ATOM     30  O   UNL d   1      19.291  51.554  19.163 -0.15 +0.04    -0.228 OA
DOCKED: BRANCH  29  31
DOCKED: ATOM     31  O   UNL d   1      17.777  53.259  20.477 -0.01 +0.02    -0.303 OA
DOCKED: ATOM     32  H   UNL d   1      17.893  54.068  21.026 +0.01 -0.01    +0.222 HD
DOCKED: ENDBRANCH  29  31
DOCKED: BRANCH  29  33
DOCKED: ATOM     33  O   UNL d   1      20.124  53.915  19.946 -0.02 +0.02    -0.303 OA
DOCKED: ATOM     34  H   UNL d   1      20.160  54.443  20.781 +0.02 -0.01    +0.222 HD
DOCKED: ENDBRANCH  29  33
DOCKED: ENDBRANCH  28  29
DOCKED: ENDBRANCH   3  28
DOCKED: BRANCH   5  35
DOCKED: ATOM     35  O   UNL d   1      15.281  50.640  21.370 -0.01 +0.02    -0.278 OA
DOCKED: BRANCH  35  36
DOCKED: ATOM     36  P   UNL d   1      14.445  51.917  20.906 +0.00 -0.04    +0.473 P 
DOCKED: ATOM     37  O   UNL d   1      13.650  52.592  21.979 -0.00 +0.02    -0.228 OA
DOCKED: BRANCH  36  38
DOCKED: ATOM     38  O   UNL d   1      15.578  52.830  20.258 -0.00 +0.03    -0.303 OA
DOCKED: ATOM     39  H   UNL d   1      16.108  53.240  20.975 +0.01 -0.02    +0.222 HD
DOCKED: ENDBRANCH  36  38
DOCKED: BRANCH  36  40
DOCKED: ATOM     40  O   UNL d   1      13.639  51.359  19.653 -0.00 +0.03    -0.303 OA
DOCKED: ATOM     41  H   UNL d   1      14.218  50.844  19.048 +0.01 -0.03    +0.222 HD
DOCKED: ENDBRANCH  36  40
DOCKED: ENDBRANCH  35  36
DOCKED: ENDBRANCH   5  35
DOCKED: BRANCH   4  42
DOCKED: ATOM     42  O   UNL d   1      18.072  49.841  21.127 -0.16 +0.03    -0.278 OA
DOCKED: BRANCH  42  43
DOCKED: ATOM     43  P   UNL d   1      17.444  49.268  19.777 -0.14 -0.07    +0.473 P 
DOCKED: ATOM     44  O   UNL d   1      16.526  48.100  19.888 -0.16 +0.03    -0.228 OA
DOCKED: BRANCH  43  45
DOCKED: ATOM     45  O   UNL d   1      16.779  50.560  19.127 -0.04 +0.03    -0.303 OA
DOCKED: ATOM     46  H   UNL d   1      17.056  51.376  19.589 +0.04 -0.02    +0.222 HD
DOCKED: ENDBRANCH  43  45
DOCKED: BRANCH  43  47
DOCKED: ATOM     47  O   UNL d   1      18.726  49.055  18.839 -0.26 +0.06    -0.303 OA
DOCKED: ATOM     48  H   UNL d   1      19.476  49.576  19.193 -0.36 -0.09    +0.222 HD
DOCKED: ENDBRANCH  43  47
DOCKED: ENDBRANCH  42  43
DOCKED: ENDBRANCH   4  42
DOCKED: TORSDOF 24
DOCKED: TER
DOCKED: ENDMDL
________________________________________________________________________________


	BEGINNING GENETIC ALGORITHM DOCKING 40 of 100
Run: 40 Seed: 1259369921 321417331 [ Run 40 of 100 GA/GALS ]
Beginning LAMARCKIAN GENETIC ALGORITHM (LGA), with a maximum of 25000000 energy evaluations.

Final-Value: -17.135


	FINAL GENETIC ALGORITHM DOCKED STATE
	_______________________________________________


Detailed state:  trans 45.183 16.750 15.642 quatxyzw -0.166174 0.313569 0.070809 0.932227 center 0.035 0.082 -0.065 ntor 24 62.6818 43.7645 109.9879 137.3246 -21.5007 -179.9756 -128.4743 -48.3475 133.2654 -42.9957 144.9031 164.1662 144.4077 80.3507 177.8151 -135.2208 175.4925 -131.8576 47.4030 10.1945 172.7773 -0.9998 15.7983 3.4120
State:	 45.183  16.750  15.642  -0.459  0.867  0.196 42.431     62.68   43.76  109.99  137.32  -21.50 -179.98 -128.47  -48.35  133.27  -43.00  144.90  164.17  144.41   80.35  177.82 -135.22  175.49 -131.86   47.40   10.19  172.78   -1.00   15.80    3.41

DOCKED: MODEL       40
DOCKED: USER    Run = 40
DOCKED: USER    DPF = D:/Protein_go_brrr/autodock/final/2DN3/IHP/dock.dpf
DOCKED: USER  
DOCKED: USER    Estimated Free Energy of Binding    =   +4.22 kcal/mol  [=(1)+(2)+(3)-(4)]
DOCKED: USER    
DOCKED: USER    (1) Final Intermolecular Energy     =   -2.94 kcal/mol
DOCKED: USER        vdW + Hbond + desolv Energy     =   -2.68 kcal/mol
DOCKED: USER        Electrostatic Energy            =   -0.25 kcal/mol
DOCKED: USER    (2) Final Total Internal Energy     =  -14.20 kcal/mol
DOCKED: USER    (3) Torsional Free Energy           =   +7.16 kcal/mol
DOCKED: USER    (4) Unbound System's Energy  [=(2)] =  -14.20 kcal/mol
DOCKED: USER    
DOCKED: USER    
DOCKED: USER    NEWDPF move IHP_ideal_opt.pdbqt
DOCKED: USER    NEWDPF about 0.035000 0.082000 -0.065000
DOCKED: USER    NEWDPF tran0 45.182792 16.750416 15.641700
DOCKED: USER    NEWDPF quaternion0 -0.166174 0.313569 0.070809 0.932227
DOCKED: USER    NEWDPF axisangle0 -0.459204 0.866512 0.195672 42.430743
DOCKED: USER    NEWDPF quat0 -0.459204 0.866512 0.195672 42.430743
DOCKED: USER    NEWDPF dihe0 62.68 43.76 109.99 137.32 -21.50 -179.98 -128.47 -48.35 133.27 -43.00 144.90 164.17 144.41 80.35 177.82 -135.22 175.49 -131.86 47.40 10.19 172.78 -1.00 15.80 3.41 
DOCKED: USER  keepresnum = 1 
DOCKED: USER  
DOCKED: REMARK  24 active torsions:
DOCKED: REMARK  status: ('A' for Active; 'I' for Inactive)
DOCKED: REMARK    1  A    between atoms: C_1  and  O_7 
DOCKED: REMARK    2  A    between atoms: C_2  and  O_12 
DOCKED: REMARK    3  A    between atoms: C_3  and  O_17 
DOCKED: REMARK    4  A    between atoms: C_4  and  O_22 
DOCKED: REMARK    5  A    between atoms: C_5  and  O_27 
DOCKED: REMARK    6  A    between atoms: C_6  and  O_32 
DOCKED: REMARK    7  A    between atoms: O_7  and  P_8 
DOCKED: REMARK    8  A    between atoms: P_8  and  O_10 
DOCKED: REMARK    9  A    between atoms: P_8  and  O_11 
DOCKED: REMARK   10  A    between atoms: O_12  and  P_13 
DOCKED: REMARK   11  A    between atoms: P_13  and  O_15 
DOCKED: REMARK   12  A    between atoms: P_13  and  O_16 
DOCKED: REMARK   13  A    between atoms: O_17  and  P_18 
DOCKED: REMARK   14  A    between atoms: P_18  and  O_20 
DOCKED: REMARK   15  A    between atoms: P_18  and  O_21 
DOCKED: REMARK   16  A    between atoms: O_22  and  P_23 
DOCKED: REMARK   17  A    between atoms: P_23  and  O_25 
DOCKED: REMARK   18  A    between atoms: P_23  and  O_26 
DOCKED: REMARK   19  A    between atoms: O_27  and  P_28 
DOCKED: REMARK   20  A    between atoms: P_28  and  O_30 
DOCKED: REMARK   21  A    between atoms: P_28  and  O_31 
DOCKED: REMARK   22  A    between atoms: O_32  and  P_33 
DOCKED: REMARK   23  A    between atoms: P_33  and  O_35 
DOCKED: REMARK   24  A    between atoms: P_33  and  O_36 
DOCKED: USER                              x       y       z     vdW  Elec       q    Type
DOCKED: USER                           _______ _______ _______ _____ _____    ______ ____
DOCKED: ROOT
DOCKED: ATOM      1  C   UNL d   1      45.671  15.414  16.622 -0.03 +0.05    +0.194 C 
DOCKED: ATOM      2  C   UNL d   1      44.883  15.056  15.361 -0.02 +0.04    +0.194 C 
DOCKED: ATOM      3  C   UNL d   1      43.694  15.995  15.150 -0.07 +0.04    +0.194 C 
DOCKED: ATOM      4  C   UNL d   1      44.079  17.472  15.189 -0.09 +0.06    +0.194 C 
DOCKED: ATOM      5  C   UNL d   1      44.962  17.851  16.370 -0.09 +0.08    +0.194 C 
DOCKED: ATOM      6  C   UNL d   1      46.116  16.877  16.619 -0.03 +0.07    +0.194 C 
DOCKED: ENDROOT
DOCKED: BRANCH   1   7
DOCKED: ATOM      7  O   UNL d   1      46.852  14.610  16.654 -0.00 -0.06    -0.278 OA
DOCKED: BRANCH   7   8
DOCKED: ATOM      8  P   UNL d   1      46.711  13.069  17.052 -0.00 +0.07    +0.473 P 
DOCKED: ATOM      9  O   UNL d   1      47.984  12.395  17.426 -0.00 -0.03    -0.228 OA
DOCKED: BRANCH   8  10
DOCKED: ATOM     10  O   UNL d   1      45.632  13.071  18.228 -0.01 -0.05    -0.303 OA
DOCKED: ATOM     11  H   UNL d   1      46.088  13.087  19.090 +0.02 +0.03    +0.222 HD
DOCKED: ENDBRANCH   8  10
DOCKED: BRANCH   8  12
DOCKED: ATOM     12  O   UNL d   1      45.900  12.407  15.858 -0.00 -0.04    -0.303 OA
DOCKED: ATOM     13  H   UNL d   1      45.642  13.052  15.162 +0.01 +0.03    +0.222 HD
DOCKED: ENDBRANCH   8  12
DOCKED: ENDBRANCH   7   8
DOCKED: ENDBRANCH   1   7
DOCKED: BRANCH   2  14
DOCKED: ATOM     14  O   UNL d   1      45.750  15.155  14.224 -0.00 -0.06    -0.278 OA
DOCKED: BRANCH  14  15
DOCKED: ATOM     15  P   UNL d   1      45.563  14.047  13.083 +0.00 +0.08    +0.473 P 
DOCKED: ATOM     16  O   UNL d   1      45.568  14.534  11.667 +0.00 -0.04    -0.228 OA
DOCKED: BRANCH  15  17
DOCKED: ATOM     17  O   UNL d   1      46.719  12.990  13.376 -0.00 -0.05    -0.303 OA
DOCKED: ATOM     18  H   UNL d   1      47.102  13.125  14.263 +0.00 +0.04    +0.222 HD
DOCKED: ENDBRANCH  15  17
DOCKED: BRANCH  15  19
DOCKED: ATOM     19  O   UNL d   1      44.268  13.236  13.525 -0.00 -0.04    -0.303 OA
DOCKED: ATOM     20  H   UNL d   1      43.450  13.726  13.323 +0.01 +0.03    +0.222 HD
DOCKED: ENDBRANCH  15  19
DOCKED: ENDBRANCH  14  15
DOCKED: ENDBRANCH   2  14
DOCKED: BRANCH   6  21
DOCKED: ATOM     21  O   UNL d   1      46.623  17.163  17.921 -0.02 -0.10    -0.278 OA
DOCKED: BRANCH  21  22
DOCKED: ATOM     22  P   UNL d   1      45.752  16.798  19.207 -0.09 +0.13    +0.473 P 
DOCKED: ATOM     23  O   UNL d   1      45.942  17.614  20.441 -0.16 -0.06    -0.228 OA
DOCKED: BRANCH  22  24
DOCKED: ATOM     24  O   UNL d   1      44.275  16.817  18.616 -0.19 -0.09    -0.303 OA
DOCKED: ATOM     25  H   UNL d   1      43.930  17.744  18.676 +0.07 +0.07    +0.222 HD
DOCKED: ENDBRANCH  22  24
DOCKED: BRANCH  22  26
DOCKED: ATOM     26  O   UNL d   1      46.030  15.226  19.354 -0.03 -0.06    -0.303 OA
DOCKED: ATOM     27  H   UNL d   1      46.707  14.957  18.700 +0.03 +0.04    +0.222 HD
DOCKED: ENDBRANCH  22  26
DOCKED: ENDBRANCH  21  22
DOCKED: ENDBRANCH   6  21
DOCKED: BRANCH   3  28
DOCKED: ATOM     28  O   UNL d   1      43.198  15.769  13.836 -0.03 -0.05    -0.278 OA
DOCKED: BRANCH  28  29
DOCKED: ATOM     29  P   UNL d   1      41.792  15.052  13.619 -0.04 +0.06    +0.473 P 
DOCKED: ATOM     30  O   UNL d   1      41.567  14.480  12.267 -0.02 -0.03    -0.228 OA
DOCKED: BRANCH  29  31
DOCKED: ATOM     31  O   UNL d   1      41.809  14.027  14.848 -0.05 -0.04    -0.303 OA
DOCKED: ATOM     32  H   UNL d   1      42.403  13.275  14.621 +0.02 +0.03    +0.222 HD
DOCKED: ENDBRANCH  29  31
DOCKED: BRANCH  29  33
DOCKED: ATOM     33  O   UNL d   1      40.768  16.170  14.108 -0.16 -0.01    -0.303 OA
DOCKED: ATOM     34  H   UNL d   1      41.257  17.020  14.233 +0.03 +0.01    +0.222 HD
DOCKED: ENDBRANCH  29  33
DOCKED: ENDBRANCH  28  29
DOCKED: ENDBRANCH   3  28
DOCKED: BRANCH   5  35
DOCKED: ATOM     35  O   UNL d   1      45.541  19.110  16.032 -0.07 -0.21    -0.278 OA
DOCKED: BRANCH  35  36
DOCKED: ATOM     36  P   UNL d   1      45.838  20.190  17.168 -0.06 +0.47    +0.473 P 
DOCKED: ATOM     37  O   UNL d   1      45.542  21.610  16.801 -0.24 -0.32    -0.228 OA
DOCKED: BRANCH  36  38
DOCKED: ATOM     38  O   UNL d   1      44.971  19.633  18.382 -0.17 -0.12    -0.303 OA
DOCKED: ATOM     39  H   UNL d   1      45.317  18.753  18.646 +0.07 +0.08    +0.222 HD
DOCKED: ENDBRANCH  36  38
DOCKED: BRANCH  36  40
DOCKED: ATOM     40  O   UNL d   1      47.336  19.848  17.579 -0.35 -0.36    -0.303 OA
DOCKED: ATOM     41  H   UNL d   1      47.376  19.127  18.246 +0.04 +0.15    +0.222 HD
DOCKED: ENDBRANCH  36  40
DOCKED: ENDBRANCH  35  36
DOCKED: ENDBRANCH   5  35
DOCKED: BRANCH   4  42
DOCKED: ATOM     42  O   UNL d   1      42.862  18.214  15.317 -0.17 -0.06    -0.278 OA
DOCKED: BRANCH  42  43
DOCKED: ATOM     43  P   UNL d   1      42.326  19.039  14.061 -0.18 +0.09    +0.473 P 
DOCKED: ATOM     44  O   UNL d   1      42.850  20.420  13.872 -0.30 -0.06    -0.228 OA
DOCKED: BRANCH  43  45
DOCKED: ATOM     45  O   UNL d   1      42.624  18.056  12.846 -0.08 -0.05    -0.303 OA
DOCKED: ATOM     46  H   UNL d   1      42.020  17.287  12.850 +0.08 +0.03    +0.222 HD
DOCKED: ENDBRANCH  43  45
DOCKED: BRANCH  43  47
DOCKED: ATOM     47  O   UNL d   1      40.733  18.916  14.196 -0.09 -0.04    -0.303 OA
DOCKED: ATOM     48  H   UNL d   1      40.517  18.182  14.807 -0.22 -0.01    +0.222 HD
DOCKED: ENDBRANCH  43  47
DOCKED: ENDBRANCH  42  43
DOCKED: ENDBRANCH   4  42
DOCKED: TORSDOF 24
DOCKED: TER
DOCKED: ENDMDL
________________________________________________________________________________


	BEGINNING GENETIC ALGORITHM DOCKING 41 of 100
Run: 41 Seed: 1876169025 858515281 [ Run 41 of 100 GA/GALS ]
Beginning LAMARCKIAN GENETIC ALGORITHM (LGA), with a maximum of 25000000 energy evaluations.

Final-Value: -17.348


	FINAL GENETIC ALGORITHM DOCKED STATE
	_______________________________________________


Detailed state:  trans 21.844 13.315 16.615 quatxyzw 0.857413 -0.265901 -0.376544 0.228810 center 0.035 0.082 -0.065 ntor 24 75.8641 84.1670 156.7963 21.8329 33.2295 -135.0227 -10.6934 -165.1575 102.5415 36.5804 -172.9643 165.4268 147.8366 179.9139 -63.3417 114.5100 88.3037 162.8892 47.7403 4.9255 177.3631 -10.9199 11.0341 179.9895
State:	 21.844  13.315  16.615   0.881 -0.273 -0.387 153.546     75.86   84.17  156.80   21.83   33.23 -135.02  -10.69 -165.16  102.54   36.58 -172.96  165.43  147.84  179.91  -63.34  114.51   88.30  162.89   47.74    4.93  177.36  -10.92   11.03  179.99

DOCKED: MODEL       41
DOCKED: USER    Run = 41
DOCKED: USER    DPF = D:/Protein_go_brrr/autodock/final/2DN3/IHP/dock.dpf
DOCKED: USER  
DOCKED: USER    Estimated Free Energy of Binding    =   +4.77 kcal/mol  [=(1)+(2)+(3)-(4)]
DOCKED: USER    
DOCKED: USER    (1) Final Intermolecular Energy     =   -2.38 kcal/mol
DOCKED: USER        vdW + Hbond + desolv Energy     =   -2.24 kcal/mol
DOCKED: USER        Electrostatic Energy            =   -0.14 kcal/mol
DOCKED: USER    (2) Final Total Internal Energy     =  -14.96 kcal/mol
DOCKED: USER    (3) Torsional Free Energy           =   +7.16 kcal/mol
DOCKED: USER    (4) Unbound System's Energy  [=(2)] =  -14.96 kcal/mol
DOCKED: USER    
DOCKED: USER    
DOCKED: USER    NEWDPF move IHP_ideal_opt.pdbqt
DOCKED: USER    NEWDPF about 0.035000 0.082000 -0.065000
DOCKED: USER    NEWDPF tran0 21.844404 13.314822 16.614670
DOCKED: USER    NEWDPF quaternion0 0.857413 -0.265901 -0.376544 0.228810
DOCKED: USER    NEWDPF axisangle0 0.880779 -0.273147 -0.386806 153.545933
DOCKED: USER    NEWDPF quat0 0.880779 -0.273147 -0.386806 153.545933
DOCKED: USER    NEWDPF dihe0 75.86 84.17 156.80 21.83 33.23 -135.02 -10.69 -165.16 102.54 36.58 -172.96 165.43 147.84 179.91 -63.34 114.51 88.30 162.89 47.74 4.93 177.36 -10.92 11.03 179.99 
DOCKED: USER  keepresnum = 1 
DOCKED: USER  
DOCKED: REMARK  24 active torsions:
DOCKED: REMARK  status: ('A' for Active; 'I' for Inactive)
DOCKED: REMARK    1  A    between atoms: C_1  and  O_7 
DOCKED: REMARK    2  A    between atoms: C_2  and  O_12 
DOCKED: REMARK    3  A    between atoms: C_3  and  O_17 
DOCKED: REMARK    4  A    between atoms: C_4  and  O_22 
DOCKED: REMARK    5  A    between atoms: C_5  and  O_27 
DOCKED: REMARK    6  A    between atoms: C_6  and  O_32 
DOCKED: REMARK    7  A    between atoms: O_7  and  P_8 
DOCKED: REMARK    8  A    between atoms: P_8  and  O_10 
DOCKED: REMARK    9  A    between atoms: P_8  and  O_11 
DOCKED: REMARK   10  A    between atoms: O_12  and  P_13 
DOCKED: REMARK   11  A    between atoms: P_13  and  O_15 
DOCKED: REMARK   12  A    between atoms: P_13  and  O_16 
DOCKED: REMARK   13  A    between atoms: O_17  and  P_18 
DOCKED: REMARK   14  A    between atoms: P_18  and  O_20 
DOCKED: REMARK   15  A    between atoms: P_18  and  O_21 
DOCKED: REMARK   16  A    between atoms: O_22  and  P_23 
DOCKED: REMARK   17  A    between atoms: P_23  and  O_25 
DOCKED: REMARK   18  A    between atoms: P_23  and  O_26 
DOCKED: REMARK   19  A    between atoms: O_27  and  P_28 
DOCKED: REMARK   20  A    between atoms: P_28  and  O_30 
DOCKED: REMARK   21  A    between atoms: P_28  and  O_31 
DOCKED: REMARK   22  A    between atoms: O_32  and  P_33 
DOCKED: REMARK   23  A    between atoms: P_33  and  O_35 
DOCKED: REMARK   24  A    between atoms: P_33  and  O_36 
DOCKED: USER                              x       y       z     vdW  Elec       q    Type
DOCKED: USER                           _______ _______ _______ _____ _____    ______ ____
DOCKED: ROOT
DOCKED: ATOM      1  C   UNL d   1      22.708  14.098  15.340 -0.03 +0.06    +0.194 C 
DOCKED: ATOM      2  C   UNL d   1      22.689  14.839  16.678 -0.03 +0.07    +0.194 C 
DOCKED: ATOM      3  C   UNL d   1      21.301  14.810  17.322 -0.06 +0.10    +0.194 C 
DOCKED: ATOM      4  C   UNL d   1      20.720  13.403  17.433 -0.03 +0.06    +0.194 C 
DOCKED: ATOM      5  C   UNL d   1      20.822  12.586  16.152 -0.02 +0.05    +0.194 C 
DOCKED: ATOM      6  C   UNL d   1      22.192  12.665  15.475 -0.01 +0.05    +0.194 C 
DOCKED: ENDROOT
DOCKED: BRANCH   1   7
DOCKED: ATOM      7  O   UNL d   1      24.064  14.022  14.891 -0.01 -0.07    -0.278 OA
DOCKED: BRANCH   7   8
DOCKED: ATOM      8  P   UNL d   1      24.743  15.341  14.299 -0.02 +0.15    +0.473 P 
DOCKED: ATOM      9  O   UNL d   1      25.946  15.107  13.456 -0.08 -0.06    -0.228 OA
DOCKED: BRANCH   8  10
DOCKED: ATOM     10  O   UNL d   1      23.558  16.067  13.516 -0.07 -0.09    -0.303 OA
DOCKED: ATOM     11  H   UNL d   1      23.457  15.668  12.632 +0.05 +0.06    +0.222 HD
DOCKED: ENDBRANCH   8  10
DOCKED: BRANCH   8  12
DOCKED: ATOM     12  O   UNL d   1      24.948  16.297  15.552 +0.04 -0.13    -0.303 OA
DOCKED: ATOM     13  H   UNL d   1      25.229  15.815  16.363 +0.05 +0.11    +0.222 HD
DOCKED: ENDBRANCH   8  12
DOCKED: ENDBRANCH   7   8
DOCKED: ENDBRANCH   1   7
DOCKED: BRANCH   2  14
DOCKED: ATOM     14  O   UNL d   1      23.620  14.215  17.571 -0.00 -0.09    -0.278 OA
DOCKED: BRANCH  14  15
DOCKED: ATOM     15  P   UNL d   1      24.551  15.193  18.432 -0.01 +0.21    +0.473 P 
DOCKED: ATOM     16  O   UNL d   1      26.029  14.986  18.319 -0.17 -0.18    -0.228 OA
DOCKED: BRANCH  15  17
DOCKED: ATOM     17  O   UNL d   1      24.096  16.653  17.987 -0.06 -0.13    -0.303 OA
DOCKED: ATOM     18  H   UNL d   1      23.154  16.806  18.194 +0.06 +0.08    +0.222 HD
DOCKED: ENDBRANCH  15  17
DOCKED: BRANCH  15  19
DOCKED: ATOM     19  O   UNL d   1      23.958  15.109  19.906 +0.00 -0.10    -0.303 OA
DOCKED: ATOM     20  H   UNL d   1      22.984  15.054  19.900 +0.02 +0.05    +0.222 HD
DOCKED: ENDBRANCH  15  19
DOCKED: ENDBRANCH  14  15
DOCKED: ENDBRANCH   2  14
DOCKED: BRANCH   6  21
DOCKED: ATOM     21  O   UNL d   1      22.029  12.153  14.154 -0.02 -0.06    -0.278 OA
DOCKED: BRANCH  21  22
DOCKED: ATOM     22  P   UNL d   1      21.302  13.040  13.045 -0.07 +0.10    +0.473 P 
DOCKED: ATOM     23  O   UNL d   1      20.206  13.953  13.480 -0.14 -0.07    -0.228 OA
DOCKED: BRANCH  22  24
DOCKED: ATOM     24  O   UNL d   1      22.536  13.764  12.347 -0.06 -0.06    -0.303 OA
DOCKED: ATOM     25  H   UNL d   1      23.233  13.915  13.035 +0.03 +0.05    +0.222 HD
DOCKED: ENDBRANCH  22  24
DOCKED: BRANCH  22  26
DOCKED: ATOM     26  O   UNL d   1      20.905  11.935  11.953 -0.07 -0.06    -0.303 OA
DOCKED: ATOM     27  H   UNL d   1      20.439  11.198  12.396 +0.02 +0.04    +0.222 HD
DOCKED: ENDBRANCH  22  26
DOCKED: ENDBRANCH  21  22
DOCKED: ENDBRANCH   6  21
DOCKED: BRANCH   3  28
DOCKED: ATOM     28  O   UNL d   1      21.441  15.268  18.661 -0.08 -0.11    -0.278 OA
DOCKED: BRANCH  28  29
DOCKED: ATOM     29  P   UNL d   1      21.075  16.771  19.040 -0.01 +0.22    +0.473 P 
DOCKED: ATOM     30  O   UNL d   1      19.658  17.009  19.418 -0.35 -0.08    -0.228 OA
DOCKED: BRANCH  29  31
DOCKED: ATOM     31  O   UNL d   1      22.183  17.055  20.158 -0.03 -0.04    -0.303 OA
DOCKED: ATOM     32  H   UNL d   1      23.036  16.659  19.863 +0.05 +0.05    +0.222 HD
DOCKED: ENDBRANCH  29  31
DOCKED: BRANCH  29  33
DOCKED: ATOM     33  O   UNL d   1      21.628  17.576  17.783 -0.39 -0.21    -0.303 OA
DOCKED: ATOM     34  H   UNL d   1      22.455  18.051  18.045 +0.09 +0.07    +0.222 HD
DOCKED: ENDBRANCH  29  33
DOCKED: ENDBRANCH  28  29
DOCKED: ENDBRANCH   3  28
DOCKED: BRANCH   5  35
DOCKED: ATOM     35  O   UNL d   1      20.624  11.228  16.542 -0.00 -0.05    -0.278 OA
DOCKED: BRANCH  35  36
DOCKED: ATOM     36  P   UNL d   1      19.788  10.238  15.611 +0.01 +0.07    +0.473 P 
DOCKED: ATOM     37  O   UNL d   1      20.415   8.903  15.363 -0.00 -0.03    -0.228 OA
DOCKED: BRANCH  36  38
DOCKED: ATOM     38  O   UNL d   1      18.392  10.173  16.376 -0.00 -0.04    -0.303 OA
DOCKED: ATOM     39  H   UNL d   1      18.223  11.037  16.809 +0.03 +0.04    +0.222 HD
DOCKED: ENDBRANCH  36  38
DOCKED: BRANCH  36  40
DOCKED: ATOM     40  O   UNL d   1      19.485  11.142  14.338 -0.03 -0.06    -0.303 OA
DOCKED: ATOM     41  H   UNL d   1      19.797  12.065  14.465 +0.04 +0.06    +0.222 HD
DOCKED: ENDBRANCH  36  40
DOCKED: ENDBRANCH  35  36
DOCKED: ENDBRANCH   5  35
DOCKED: BRANCH   4  42
DOCKED: ATOM     42  O   UNL d   1      19.326  13.553  17.727 -0.07 -0.11    -0.278 OA
DOCKED: BRANCH  42  43
DOCKED: ATOM     43  P   UNL d   1      18.360  14.143  16.604 -0.14 +0.29    +0.473 P 
DOCKED: ATOM     44  O   UNL d   1      17.151  14.885  17.058 -0.44 -0.15    -0.228 OA
DOCKED: BRANCH  43  45
DOCKED: ATOM     45  O   UNL d   1      19.353  15.005  15.707 -0.22 -0.30    -0.303 OA
DOCKED: ATOM     46  H   UNL d   1      19.443  14.629  14.809 +0.06 +0.15    +0.222 HD
DOCKED: ENDBRANCH  43  45
DOCKED: BRANCH  43  47
DOCKED: ATOM     47  O   UNL d   1      18.082  12.879  15.658 -0.11 -0.11    -0.303 OA
DOCKED: ATOM     48  H   UNL d   1      18.742  12.181  15.850 +0.05 +0.06    +0.222 HD
DOCKED: ENDBRANCH  43  47
DOCKED: ENDBRANCH  42  43
DOCKED: ENDBRANCH   4  42
DOCKED: TORSDOF 24
DOCKED: TER
DOCKED: ENDMDL
________________________________________________________________________________


	BEGINNING GENETIC ALGORITHM DOCKING 42 of 100
Run: 42 Seed: 1360027313 782749952 [ Run 42 of 100 GA/GALS ]
Beginning LAMARCKIAN GENETIC ALGORITHM (LGA), with a maximum of 25000000 energy evaluations.

Final-Value: -18.549


	FINAL GENETIC ALGORITHM DOCKED STATE
	_______________________________________________


Detailed state:  trans 40.008 34.402 -0.183 quatxyzw -0.736191 0.595334 -0.020664 0.321207 center 0.035 0.082 -0.065 ntor 24 101.2934 49.3591 167.6312 153.6738 15.6933 -116.8530 -17.2139 -72.8154 85.9840 28.9730 -139.8462 160.1068 152.2369 60.9717 -60.9024 106.5571 108.8220 159.4005 50.5883 19.9661 174.2865 -2.4696 -4.6303 176.7968
State:	 40.008  34.402  -0.183  -0.777  0.629 -0.022 142.528    101.29   49.36  167.63  153.67   15.69 -116.85  -17.21  -72.82   85.98   28.97 -139.85  160.11  152.24   60.97  -60.90  106.56  108.82  159.40   50.59   19.97  174.29   -2.47   -4.63  176.80

DOCKED: MODEL       42
DOCKED: USER    Run = 42
DOCKED: USER    DPF = D:/Protein_go_brrr/autodock/final/2DN3/IHP/dock.dpf
DOCKED: USER  
DOCKED: USER    Estimated Free Energy of Binding    =   +3.29 kcal/mol  [=(1)+(2)+(3)-(4)]
DOCKED: USER    
DOCKED: USER    (1) Final Intermolecular Energy     =   -3.87 kcal/mol
DOCKED: USER        vdW + Hbond + desolv Energy     =   -3.85 kcal/mol
DOCKED: USER        Electrostatic Energy            =   -0.02 kcal/mol
DOCKED: USER    (2) Final Total Internal Energy     =  -14.68 kcal/mol
DOCKED: USER    (3) Torsional Free Energy           =   +7.16 kcal/mol
DOCKED: USER    (4) Unbound System's Energy  [=(2)] =  -14.68 kcal/mol
DOCKED: USER    
DOCKED: USER    
DOCKED: USER    NEWDPF move IHP_ideal_opt.pdbqt
DOCKED: USER    NEWDPF about 0.035000 0.082000 -0.065000
DOCKED: USER    NEWDPF tran0 40.008484 34.402342 -0.182919
DOCKED: USER    NEWDPF quaternion0 -0.736191 0.595334 -0.020664 0.321207
DOCKED: USER    NEWDPF axisangle0 -0.777385 0.628646 -0.021820 142.528160
DOCKED: USER    NEWDPF quat0 -0.777385 0.628646 -0.021820 142.528160
DOCKED: USER    NEWDPF dihe0 101.29 49.36 167.63 153.67 15.69 -116.85 -17.21 -72.82 85.98 28.97 -139.85 160.11 152.24 60.97 -60.90 106.56 108.82 159.40 50.59 19.97 174.29 -2.47 -4.63 176.80 
DOCKED: USER  keepresnum = 1 
DOCKED: USER  
DOCKED: REMARK  24 active torsions:
DOCKED: REMARK  status: ('A' for Active; 'I' for Inactive)
DOCKED: REMARK    1  A    between atoms: C_1  and  O_7 
DOCKED: REMARK    2  A    between atoms: C_2  and  O_12 
DOCKED: REMARK    3  A    between atoms: C_3  and  O_17 
DOCKED: REMARK    4  A    between atoms: C_4  and  O_22 
DOCKED: REMARK    5  A    between atoms: C_5  and  O_27 
DOCKED: REMARK    6  A    between atoms: C_6  and  O_32 
DOCKED: REMARK    7  A    between atoms: O_7  and  P_8 
DOCKED: REMARK    8  A    between atoms: P_8  and  O_10 
DOCKED: REMARK    9  A    between atoms: P_8  and  O_11 
DOCKED: REMARK   10  A    between atoms: O_12  and  P_13 
DOCKED: REMARK   11  A    between atoms: P_13  and  O_15 
DOCKED: REMARK   12  A    between atoms: P_13  and  O_16 
DOCKED: REMARK   13  A    between atoms: O_17  and  P_18 
DOCKED: REMARK   14  A    between atoms: P_18  and  O_20 
DOCKED: REMARK   15  A    between atoms: P_18  and  O_21 
DOCKED: REMARK   16  A    between atoms: O_22  and  P_23 
DOCKED: REMARK   17  A    between atoms: P_23  and  O_25 
DOCKED: REMARK   18  A    between atoms: P_23  and  O_26 
DOCKED: REMARK   19  A    between atoms: O_27  and  P_28 
DOCKED: REMARK   20  A    between atoms: P_28  and  O_30 
DOCKED: REMARK   21  A    between atoms: P_28  and  O_31 
DOCKED: REMARK   22  A    between atoms: O_32  and  P_33 
DOCKED: REMARK   23  A    between atoms: P_33  and  O_35 
DOCKED: REMARK   24  A    between atoms: P_33  and  O_36 
DOCKED: USER                              x       y       z     vdW  Elec       q    Type
DOCKED: USER                           _______ _______ _______ _____ _____    ______ ____
DOCKED: ROOT
DOCKED: ATOM      1  C   UNL d   1      40.884  33.002  -0.691 -0.19 +0.01    +0.194 C 
DOCKED: ATOM      2  C   UNL d   1      41.367  34.332  -1.274 -0.12 +0.02    +0.194 C 
DOCKED: ATOM      3  C   UNL d   1      40.198  35.217  -1.709 -0.06 +0.02    +0.194 C 
DOCKED: ATOM      4  C   UNL d   1      39.152  35.413  -0.615 -0.11 +0.03    +0.194 C 
DOCKED: ATOM      5  C   UNL d   1      38.725  34.124   0.074 -0.21 +0.02    +0.194 C 
DOCKED: ATOM      6  C   UNL d   1      39.891  33.209   0.454 -0.22 +0.02    +0.194 C 
DOCKED: ENDROOT
DOCKED: BRANCH   1   7
DOCKED: ATOM      7  O   UNL d   1      42.016  32.313  -0.154 -0.15 +0.00    -0.278 OA
DOCKED: BRANCH   7   8
DOCKED: ATOM      8  P   UNL d   1      43.075  31.685  -1.172 -0.13 +0.00    +0.473 P 
DOCKED: ATOM      9  O   UNL d   1      43.879  30.557  -0.629 -0.45 +0.00    -0.228 OA
DOCKED: BRANCH   8  10
DOCKED: ATOM     10  O   UNL d   1      42.198  31.278  -2.441 -0.05 -0.02    -0.303 OA
DOCKED: ATOM     11  H   UNL d   1      41.484  30.674  -2.164 +0.06 +0.01    +0.222 HD
DOCKED: ENDBRANCH   8  10
DOCKED: BRANCH   8  12
DOCKED: ATOM     12  O   UNL d   1      43.902  32.925  -1.723 -0.11 +0.01    -0.303 OA
DOCKED: ATOM     13  H   UNL d   1      43.653  33.775  -1.297 -0.02 +0.00    +0.222 HD
DOCKED: ENDBRANCH   8  12
DOCKED: ENDBRANCH   7   8
DOCKED: ENDBRANCH   1   7
DOCKED: BRANCH   2  14
DOCKED: ATOM     14  O   UNL d   1      42.124  35.031  -0.278 -0.15 -0.05    -0.278 OA
DOCKED: BRANCH  14  15
DOCKED: ATOM     15  P   UNL d   1      43.263  36.022  -0.810 -0.05 +0.08    +0.473 P 
DOCKED: ATOM     16  O   UNL d   1      43.089  37.476  -0.499 -0.08 -0.04    -0.228 OA
DOCKED: BRANCH  15  17
DOCKED: ATOM     17  O   UNL d   1      44.611  35.420  -0.211 -0.02 -0.04    -0.303 OA
DOCKED: ATOM     18  H   UNL d   1      44.856  34.590  -0.662 -0.33 -0.02    +0.222 HD
DOCKED: ENDBRANCH  15  17
DOCKED: BRANCH  15  19
DOCKED: ATOM     19  O   UNL d   1      43.412  35.664  -2.353 -0.03 -0.03    -0.303 OA
DOCKED: ATOM     20  H   UNL d   1      42.860  36.242  -2.912 +0.02 +0.02    +0.222 HD
DOCKED: ENDBRANCH  15  19
DOCKED: ENDBRANCH  14  15
DOCKED: ENDBRANCH   2  14
DOCKED: BRANCH   6  21
DOCKED: ATOM     21  O   UNL d   1      39.333  31.933   0.759 -0.27 -0.02    -0.278 OA
DOCKED: BRANCH  21  22
DOCKED: ATOM     22  P   UNL d   1      38.759  31.019  -0.416 -0.11 +0.04    +0.473 P 
DOCKED: ATOM     23  O   UNL d   1      38.179  31.692  -1.614 -0.03 -0.02    -0.228 OA
DOCKED: BRANCH  22  24
DOCKED: ATOM     24  O   UNL d   1      39.997  30.066  -0.720 -0.14 -0.02    -0.303 OA
DOCKED: ATOM     25  H   UNL d   1      40.801  30.633  -0.842 +0.07 +0.01    +0.222 HD
DOCKED: ENDBRANCH  22  24
DOCKED: BRANCH  22  26
DOCKED: ATOM     26  O   UNL d   1      37.776  30.039   0.384 -0.16 -0.04    -0.303 OA
DOCKED: ATOM     27  H   UNL d   1      37.008  30.550   0.711 +0.09 +0.03    +0.222 HD
DOCKED: ENDBRANCH  22  26
DOCKED: ENDBRANCH  21  22
DOCKED: ENDBRANCH   6  21
DOCKED: BRANCH   3  28
DOCKED: ATOM     28  O   UNL d   1      40.718  36.515  -1.971 -0.03 -0.04    -0.278 OA
DOCKED: BRANCH  28  29
DOCKED: ATOM     29  P   UNL d   1      40.829  37.050  -3.467 +0.00 +0.05    +0.473 P 
DOCKED: ATOM     30  O   UNL d   1      39.572  37.584  -4.051 -0.00 -0.03    -0.228 OA
DOCKED: BRANCH  29  31
DOCKED: ATOM     31  O   UNL d   1      42.047  38.075  -3.307 -0.00 -0.03    -0.303 OA
DOCKED: ATOM     32  H   UNL d   1      42.676  37.713  -2.641 +0.02 +0.03    +0.222 HD
DOCKED: ENDBRANCH  29  31
DOCKED: BRANCH  29  33
DOCKED: ATOM     33  O   UNL d   1      41.503  35.816  -4.214 -0.00 -0.03    -0.303 OA
DOCKED: ATOM     34  H   UNL d   1      41.857  35.187  -3.539 +0.02 +0.02    +0.222 HD
DOCKED: ENDBRANCH  29  33
DOCKED: ENDBRANCH  28  29
DOCKED: ENDBRANCH   3  28
DOCKED: BRANCH   5  35
DOCKED: ATOM     35  O   UNL d   1      38.092  34.524   1.288 -0.27 -0.03    -0.278 OA
DOCKED: BRANCH  35  36
DOCKED: ATOM     36  P   UNL d   1      36.619  34.018   1.632 -0.14 +0.00    +0.473 P 
DOCKED: ATOM     37  O   UNL d   1      36.288  33.942   3.089 -0.36 +0.03    -0.228 OA
DOCKED: BRANCH  36  38
DOCKED: ATOM     38  O   UNL d   1      35.722  35.045   0.810 -0.11 -0.02    -0.303 OA
DOCKED: ATOM     39  H   UNL d   1      36.283  35.505   0.150 +0.03 +0.02    +0.222 HD
DOCKED: ENDBRANCH  36  38
DOCKED: BRANCH  36  40
DOCKED: ATOM     40  O   UNL d   1      36.520  32.668   0.798 -0.09 -0.03    -0.303 OA
DOCKED: ATOM     41  H   UNL d   1      37.255  32.585   0.151 +0.07 +0.02    +0.222 HD
DOCKED: ENDBRANCH  36  40
DOCKED: ENDBRANCH  35  36
DOCKED: ENDBRANCH   5  35
DOCKED: BRANCH   4  42
DOCKED: ATOM     42  O   UNL d   1      37.988  35.959  -1.246 -0.06 -0.04    -0.278 OA
DOCKED: BRANCH  42  43
DOCKED: ATOM     43  P   UNL d   1      37.193  35.065  -2.302 -0.00 +0.06    +0.473 P 
DOCKED: ATOM     44  O   UNL d   1      36.390  35.775  -3.336 -0.00 -0.03    -0.228 OA
DOCKED: BRANCH  43  45
DOCKED: ATOM     45  O   UNL d   1      38.334  34.128  -2.895 -0.00 -0.03    -0.303 OA
DOCKED: ATOM     46  H   UNL d   1      37.986  33.245  -3.130 +0.01 +0.02    +0.222 HD
DOCKED: ENDBRANCH  43  45
DOCKED: BRANCH  43  47
DOCKED: ATOM     47  O   UNL d   1      36.379  34.041  -1.375 -0.01 -0.04    -0.303 OA
DOCKED: ATOM     48  H   UNL d   1      36.808  33.991  -0.496 +0.05 +0.03    +0.222 HD
DOCKED: ENDBRANCH  43  47
DOCKED: ENDBRANCH  42  43
DOCKED: ENDBRANCH   4  42
DOCKED: TORSDOF 24
DOCKED: TER
DOCKED: ENDMDL
________________________________________________________________________________


	BEGINNING GENETIC ALGORITHM DOCKING 43 of 100
Run: 43 Seed: 1853525577 984532789 [ Run 43 of 100 GA/GALS ]
Beginning LAMARCKIAN GENETIC ALGORITHM (LGA), with a maximum of 25000000 energy evaluations.

Final-Value: -17.379


	FINAL GENETIC ALGORITHM DOCKED STATE
	_______________________________________________


Detailed state:  trans 20.035 17.314 4.295 quatxyzw 0.213735 0.430419 -0.871103 0.101177 center 0.035 0.082 -0.065 ntor 24 119.6295 83.7483 137.6160 30.7637 -7.8837 -178.3567 -61.7605 12.2788 142.7449 57.3730 -126.5861 -170.6474 176.1696 -147.0238 180.0000 29.9430 79.8798 155.4981 31.1679 -37.3885 177.8740 -49.2235 14.1280 -177.1808
State:	 20.035  17.314   4.295   0.215  0.433 -0.876 168.386    119.63   83.75  137.62   30.76   -7.88 -178.36  -61.76   12.28  142.74   57.37 -126.59 -170.65  176.17 -147.02  180.00   29.94   79.88  155.50   31.17  -37.39  177.87  -49.22   14.13 -177.18

DOCKED: MODEL       43
DOCKED: USER    Run = 43
DOCKED: USER    DPF = D:/Protein_go_brrr/autodock/final/2DN3/IHP/dock.dpf
DOCKED: USER  
DOCKED: USER    Estimated Free Energy of Binding    =   +3.82 kcal/mol  [=(1)+(2)+(3)-(4)]
DOCKED: USER    
DOCKED: USER    (1) Final Intermolecular Energy     =   -3.34 kcal/mol
DOCKED: USER        vdW + Hbond + desolv Energy     =   -3.11 kcal/mol
DOCKED: USER        Electrostatic Energy            =   -0.22 kcal/mol
DOCKED: USER    (2) Final Total Internal Energy     =  -14.04 kcal/mol
DOCKED: USER    (3) Torsional Free Energy           =   +7.16 kcal/mol
DOCKED: USER    (4) Unbound System's Energy  [=(2)] =  -14.04 kcal/mol
DOCKED: USER    
DOCKED: USER    
DOCKED: USER    NEWDPF move IHP_ideal_opt.pdbqt
DOCKED: USER    NEWDPF about 0.035000 0.082000 -0.065000
DOCKED: USER    NEWDPF tran0 20.034692 17.314279 4.295060
DOCKED: USER    NEWDPF quaternion0 0.213735 0.430419 -0.871103 0.101177
DOCKED: USER    NEWDPF axisangle0 0.214837 0.432639 -0.875596 168.386111
DOCKED: USER    NEWDPF quat0 0.214837 0.432639 -0.875596 168.386111
DOCKED: USER    NEWDPF dihe0 119.63 83.75 137.62 30.76 -7.88 -178.36 -61.76 12.28 142.74 57.37 -126.59 -170.65 176.17 -147.02 180.00 29.94 79.88 155.50 31.17 -37.39 177.87 -49.22 14.13 -177.18 
DOCKED: USER  keepresnum = 1 
DOCKED: USER  
DOCKED: REMARK  24 active torsions:
DOCKED: REMARK  status: ('A' for Active; 'I' for Inactive)
DOCKED: REMARK    1  A    between atoms: C_1  and  O_7 
DOCKED: REMARK    2  A    between atoms: C_2  and  O_12 
DOCKED: REMARK    3  A    between atoms: C_3  and  O_17 
DOCKED: REMARK    4  A    between atoms: C_4  and  O_22 
DOCKED: REMARK    5  A    between atoms: C_5  and  O_27 
DOCKED: REMARK    6  A    between atoms: C_6  and  O_32 
DOCKED: REMARK    7  A    between atoms: O_7  and  P_8 
DOCKED: REMARK    8  A    between atoms: P_8  and  O_10 
DOCKED: REMARK    9  A    between atoms: P_8  and  O_11 
DOCKED: REMARK   10  A    between atoms: O_12  and  P_13 
DOCKED: REMARK   11  A    between atoms: P_13  and  O_15 
DOCKED: REMARK   12  A    between atoms: P_13  and  O_16 
DOCKED: REMARK   13  A    between atoms: O_17  and  P_18 
DOCKED: REMARK   14  A    between atoms: P_18  and  O_20 
DOCKED: REMARK   15  A    between atoms: P_18  and  O_21 
DOCKED: REMARK   16  A    between atoms: O_22  and  P_23 
DOCKED: REMARK   17  A    between atoms: P_23  and  O_25 
DOCKED: REMARK   18  A    between atoms: P_23  and  O_26 
DOCKED: REMARK   19  A    between atoms: O_27  and  P_28 
DOCKED: REMARK   20  A    between atoms: P_28  and  O_30 
DOCKED: REMARK   21  A    between atoms: P_28  and  O_31 
DOCKED: REMARK   22  A    between atoms: O_32  and  P_33 
DOCKED: REMARK   23  A    between atoms: P_33  and  O_35 
DOCKED: REMARK   24  A    between atoms: P_33  and  O_36 
DOCKED: USER                              x       y       z     vdW  Elec       q    Type
DOCKED: USER                           _______ _______ _______ _____ _____    ______ ____
DOCKED: ROOT
DOCKED: ATOM      1  C   UNL d   1      18.552  17.748   5.068 -0.11 +0.06    +0.194 C 
DOCKED: ATOM      2  C   UNL d   1      19.823  18.048   5.863 -0.06 +0.06    +0.194 C 
DOCKED: ATOM      3  C   UNL d   1      20.824  16.894   5.788 -0.02 +0.04    +0.194 C 
DOCKED: ATOM      4  C   UNL d   1      21.128  16.452   4.359 -0.00 +0.03    +0.194 C 
DOCKED: ATOM      5  C   UNL d   1      19.890  16.251   3.495 -0.02 +0.03    +0.194 C 
DOCKED: ATOM      6  C   UNL d   1      18.861  17.377   3.616 -0.08 +0.03    +0.194 C 
DOCKED: ENDROOT
DOCKED: BRANCH   1   7
DOCKED: ATOM      7  O   UNL d   1      17.750  18.931   5.044 -0.12 -0.09    -0.278 OA
DOCKED: BRANCH   7   8
DOCKED: ATOM      8  P   UNL d   1      16.660  19.133   6.194 -0.20 +0.32    +0.473 P 
DOCKED: ATOM      9  O   UNL d   1      15.307  19.532   5.718 -0.38 -0.12    -0.228 OA
DOCKED: BRANCH   8  10
DOCKED: ATOM     10  O   UNL d   1      16.665  17.745   6.980 -0.63 -0.52    -0.303 OA
DOCKED: ATOM     11  H   UNL d   1      16.771  17.011   6.346 +0.07 +0.29    +0.222 HD
DOCKED: ENDBRANCH   8  10
DOCKED: BRANCH   8  12
DOCKED: ATOM     12  O   UNL d   1      17.343  20.112   7.243 -0.28 -0.16    -0.303 OA
DOCKED: ATOM     13  H   UNL d   1      17.880  20.818   6.818 +0.10 +0.07    +0.222 HD
DOCKED: ENDBRANCH   8  12
DOCKED: ENDBRANCH   7   8
DOCKED: ENDBRANCH   1   7
DOCKED: BRANCH   2  14
DOCKED: ATOM     14  O   UNL d   1      20.442  19.224   5.326 -0.04 -0.06    -0.278 OA
DOCKED: BRANCH  14  15
DOCKED: ATOM     15  P   UNL d   1      20.072  20.613   6.032 -0.09 +0.11    +0.473 P 
DOCKED: ATOM     16  O   UNL d   1      18.912  21.369   5.462 -0.25 -0.05    -0.228 OA
DOCKED: BRANCH  15  17
DOCKED: ATOM     17  O   UNL d   1      19.864  20.227   7.564 -0.11 -0.09    -0.303 OA
DOCKED: ATOM     18  H   UNL d   1      20.547  19.596   7.863 +0.07 +0.07    +0.222 HD
DOCKED: ENDBRANCH  15  17
DOCKED: BRANCH  15  19
DOCKED: ATOM     19  O   UNL d   1      21.448  21.409   6.088 -0.05 -0.05    -0.303 OA
DOCKED: ATOM     20  H   UNL d   1      22.212  20.805   6.139 +0.03 +0.03    +0.222 HD
DOCKED: ENDBRANCH  15  19
DOCKED: ENDBRANCH  14  15
DOCKED: ENDBRANCH   2  14
DOCKED: BRANCH   6  21
DOCKED: ATOM     21  O   UNL d   1      17.649  16.892   3.042 -0.09 -0.02    -0.278 OA
DOCKED: BRANCH  21  22
DOCKED: ATOM     22  P   UNL d   1      16.754  15.846   3.847 -0.02 +0.12    +0.473 P 
DOCKED: ATOM     23  O   UNL d   1      15.942  14.866   3.069 -0.02 -0.05    -0.228 OA
DOCKED: BRANCH  22  24
DOCKED: ATOM     24  O   UNL d   1      17.820  15.196   4.833 -0.01 -0.11    -0.303 OA
DOCKED: ATOM     25  H   UNL d   1      18.397  14.587   4.306 +0.02 +0.05    +0.222 HD
DOCKED: ENDBRANCH  22  24
DOCKED: BRANCH  22  26
DOCKED: ATOM     26  O   UNL d   1      15.936  16.810   4.833 -0.12 -0.16    -0.303 OA
DOCKED: ATOM     27  H   UNL d   1      16.112  17.742   4.592 -0.13 +0.05    +0.222 HD
DOCKED: ENDBRANCH  22  26
DOCKED: ENDBRANCH  21  22
DOCKED: ENDBRANCH   6  21
DOCKED: BRANCH   3  28
DOCKED: ATOM     28  O   UNL d   1      22.061  17.365   6.309 -0.01 -0.05    -0.278 OA
DOCKED: BRANCH  28  29
DOCKED: ATOM     29  P   UNL d   1      22.161  17.864   7.818 -0.02 +0.11    +0.473 P 
DOCKED: ATOM     30  O   UNL d   1      20.924  17.711   8.626 -0.58 -0.10    -0.228 OA
DOCKED: BRANCH  29  31
DOCKED: ATOM     31  O   UNL d   1      23.449  17.045   8.298 -0.01 -0.05    -0.303 OA
DOCKED: ATOM     32  H   UNL d   1      23.678  16.384   7.604 +0.01 +0.03    +0.222 HD
DOCKED: ENDBRANCH  29  31
DOCKED: BRANCH  29  33
DOCKED: ATOM     33  O   UNL d   1      22.728  19.341   7.644 -0.01 -0.05    -0.303 OA
DOCKED: ATOM     34  H   UNL d   1      22.019  19.915   7.264 +0.04 +0.04    +0.222 HD
DOCKED: ENDBRANCH  29  33
DOCKED: ENDBRANCH  28  29
DOCKED: ENDBRANCH   3  28
DOCKED: BRANCH   5  35
DOCKED: ATOM     35  O   UNL d   1      20.354  16.251   2.146 -0.01 -0.02    -0.278 OA
DOCKED: BRANCH  35  36
DOCKED: ATOM     36  P   UNL d   1      19.667  15.309   1.058 +0.00 +0.02    +0.473 P 
DOCKED: ATOM     37  O   UNL d   1      19.145  16.004  -0.159 -0.05 -0.00    -0.228 OA
DOCKED: BRANCH  36  38
DOCKED: ATOM     38  O   UNL d   1      20.822  14.253   0.765 +0.00 -0.01    -0.303 OA
DOCKED: ATOM     39  H   UNL d   1      20.907  13.649   1.534 +0.00 +0.01    +0.222 HD
DOCKED: ENDBRANCH  36  38
DOCKED: BRANCH  36  40
DOCKED: ATOM     40  O   UNL d   1      18.615  14.494   1.930 -0.00 -0.03    -0.303 OA
DOCKED: ATOM     41  H   UNL d   1      18.465  14.915   2.806 +0.02 +0.03    +0.222 HD
DOCKED: ENDBRANCH  36  40
DOCKED: ENDBRANCH  35  36
DOCKED: ENDBRANCH   5  35
DOCKED: BRANCH   4  42
DOCKED: ATOM     42  O   UNL d   1      21.790  15.186   4.448 +0.00 -0.03    -0.278 OA
DOCKED: BRANCH  42  43
DOCKED: ATOM     43  P   UNL d   1      20.944  13.902   4.873 +0.01 +0.07    +0.473 P 
DOCKED: ATOM     44  O   UNL d   1      21.692  12.737   5.422 -0.00 -0.03    -0.228 OA
DOCKED: BRANCH  43  45
DOCKED: ATOM     45  O   UNL d   1      19.864  14.511   5.872 -0.01 -0.08    -0.303 OA
DOCKED: ATOM     46  H   UNL d   1      19.096  13.915   5.975 +0.03 +0.07    +0.222 HD
DOCKED: ENDBRANCH  43  45
DOCKED: BRANCH  43  47
DOCKED: ATOM     47  O   UNL d   1      20.054  13.602   3.574 +0.00 -0.04    -0.303 OA
DOCKED: ATOM     48  H   UNL d   1      20.350  14.179   2.840 +0.01 +0.02    +0.222 HD
DOCKED: ENDBRANCH  43  47
DOCKED: ENDBRANCH  42  43
DOCKED: ENDBRANCH   4  42
DOCKED: TORSDOF 24
DOCKED: TER
DOCKED: ENDMDL
________________________________________________________________________________


	BEGINNING GENETIC ALGORITHM DOCKING 44 of 100
Run: 44 Seed: 1030068776 730287320 [ Run 44 of 100 GA/GALS ]
Beginning LAMARCKIAN GENETIC ALGORITHM (LGA), with a maximum of 25000000 energy evaluations.

Final-Value: -18.311


	FINAL GENETIC ALGORITHM DOCKED STATE
	_______________________________________________


Detailed state:  trans 52.500 20.374 3.068 quatxyzw 0.818607 -0.278171 0.357292 0.353335 center 0.035 0.082 -0.065 ntor 24 163.5398 -19.3530 46.1132 77.9572 6.9957 169.1465 -120.8424 -15.6242 15.1429 119.6360 -47.0436 -91.5105 29.4294 -19.6271 154.7079 42.5846 -74.8688 11.5025 -7.7567 -10.4813 -23.3301 166.9737 164.4893 -37.0347
State:	 52.500  20.374   3.068   0.875 -0.297  0.382 138.617    163.54  -19.35   46.11   77.96    7.00  169.15 -120.84  -15.62   15.14  119.64  -47.04  -91.51   29.43  -19.63  154.71   42.58  -74.87   11.50   -7.76  -10.48  -23.33  166.97  164.49  -37.03

DOCKED: MODEL       44
DOCKED: USER    Run = 44
DOCKED: USER    DPF = D:/Protein_go_brrr/autodock/final/2DN3/IHP/dock.dpf
DOCKED: USER  
DOCKED: USER    Estimated Free Energy of Binding    =   +3.33 kcal/mol  [=(1)+(2)+(3)-(4)]
DOCKED: USER    
DOCKED: USER    (1) Final Intermolecular Energy     =   -3.83 kcal/mol
DOCKED: USER        vdW + Hbond + desolv Energy     =   -3.54 kcal/mol
DOCKED: USER        Electrostatic Energy            =   -0.29 kcal/mol
DOCKED: USER    (2) Final Total Internal Energy     =  -14.48 kcal/mol
DOCKED: USER    (3) Torsional Free Energy           =   +7.16 kcal/mol
DOCKED: USER    (4) Unbound System's Energy  [=(2)] =  -14.48 kcal/mol
DOCKED: USER    
DOCKED: USER    
DOCKED: USER    NEWDPF move IHP_ideal_opt.pdbqt
DOCKED: USER    NEWDPF about 0.035000 0.082000 -0.065000
DOCKED: USER    NEWDPF tran0 52.499942 20.373965 3.068173
DOCKED: USER    NEWDPF quaternion0 0.818607 -0.278171 0.357292 0.353335
DOCKED: USER    NEWDPF axisangle0 0.875051 -0.297351 0.381927 138.617188
DOCKED: USER    NEWDPF quat0 0.875051 -0.297351 0.381927 138.617188
DOCKED: USER    NEWDPF dihe0 163.54 -19.35 46.11 77.96 7.00 169.15 -120.84 -15.62 15.14 119.64 -47.04 -91.51 29.43 -19.63 154.71 42.58 -74.87 11.50 -7.76 -10.48 -23.33 166.97 164.49 -37.03 
DOCKED: USER  keepresnum = 1 
DOCKED: USER  
DOCKED: REMARK  24 active torsions:
DOCKED: REMARK  status: ('A' for Active; 'I' for Inactive)
DOCKED: REMARK    1  A    between atoms: C_1  and  O_7 
DOCKED: REMARK    2  A    between atoms: C_2  and  O_12 
DOCKED: REMARK    3  A    between atoms: C_3  and  O_17 
DOCKED: REMARK    4  A    between atoms: C_4  and  O_22 
DOCKED: REMARK    5  A    between atoms: C_5  and  O_27 
DOCKED: REMARK    6  A    between atoms: C_6  and  O_32 
DOCKED: REMARK    7  A    between atoms: O_7  and  P_8 
DOCKED: REMARK    8  A    between atoms: P_8  and  O_10 
DOCKED: REMARK    9  A    between atoms: P_8  and  O_11 
DOCKED: REMARK   10  A    between atoms: O_12  and  P_13 
DOCKED: REMARK   11  A    between atoms: P_13  and  O_15 
DOCKED: REMARK   12  A    between atoms: P_13  and  O_16 
DOCKED: REMARK   13  A    between atoms: O_17  and  P_18 
DOCKED: REMARK   14  A    between atoms: P_18  and  O_20 
DOCKED: REMARK   15  A    between atoms: P_18  and  O_21 
DOCKED: REMARK   16  A    between atoms: O_22  and  P_23 
DOCKED: REMARK   17  A    between atoms: P_23  and  O_25 
DOCKED: REMARK   18  A    between atoms: P_23  and  O_26 
DOCKED: REMARK   19  A    between atoms: O_27  and  P_28 
DOCKED: REMARK   20  A    between atoms: P_28  and  O_30 
DOCKED: REMARK   21  A    between atoms: P_28  and  O_31 
DOCKED: REMARK   22  A    between atoms: O_32  and  P_33 
DOCKED: REMARK   23  A    between atoms: P_33  and  O_35 
DOCKED: REMARK   24  A    between atoms: P_33  and  O_36 
DOCKED: USER                              x       y       z     vdW  Elec       q    Type
DOCKED: USER                           _______ _______ _______ _____ _____    ______ ____
DOCKED: ROOT
DOCKED: ATOM      1  C   UNL d   1      54.038  20.316   3.853 +0.01 +0.07    +0.194 C 
DOCKED: ATOM      2  C   UNL d   1      53.176  21.538   4.176 -0.04 +0.11    +0.194 C 
DOCKED: ATOM      3  C   UNL d   1      52.509  22.109   2.923 -0.08 +0.14    +0.194 C 
DOCKED: ATOM      4  C   UNL d   1      51.745  21.060   2.118 -0.03 +0.11    +0.194 C 
DOCKED: ATOM      5  C   UNL d   1      52.527  19.776   1.871 +0.01 +0.07    +0.194 C 
DOCKED: ATOM      6  C   UNL d   1      53.245  19.240   3.111 +0.01 +0.07    +0.194 C 
DOCKED: ENDROOT
DOCKED: BRANCH   1   7
DOCKED: ATOM      7  O   UNL d   1      54.481  19.745   5.087 +0.01 -0.09    -0.278 OA
DOCKED: BRANCH   7   8
DOCKED: ATOM      8  P   UNL d   1      56.035  19.418   5.256 +0.01 +0.11    +0.473 P 
DOCKED: ATOM      9  O   UNL d   1      56.888  20.581   5.623 +0.00 -0.05    -0.228 OA
DOCKED: BRANCH   8  10
DOCKED: ATOM     10  O   UNL d   1      56.068  18.248   6.341 +0.00 -0.06    -0.303 OA
DOCKED: ATOM     11  H   UNL d   1      55.157  17.972   6.552 +0.00 +0.05    +0.222 HD
DOCKED: ENDBRANCH   8  10
DOCKED: BRANCH   8  12
DOCKED: ATOM     12  O   UNL d   1      56.443  18.650   3.927 +0.00 -0.06    -0.303 OA
DOCKED: ATOM     13  H   UNL d   1      55.989  17.783   3.827 +0.00 +0.04    +0.222 HD
DOCKED: ENDBRANCH   8  12
DOCKED: ENDBRANCH   7   8
DOCKED: ENDBRANCH   1   7
DOCKED: BRANCH   2  14
DOCKED: ATOM     14  O   UNL d   1      52.153  21.156   5.104 -0.04 -0.17    -0.278 OA
DOCKED: BRANCH  14  15
DOCKED: ATOM     15  P   UNL d   1      52.127  21.936   6.502 -0.06 +0.30    +0.473 P 
DOCKED: ATOM     16  O   UNL d   1      52.493  23.387   6.469 -0.19 -0.24    -0.228 OA
DOCKED: BRANCH  15  17
DOCKED: ATOM     17  O   UNL d   1      50.657  21.683   7.061 -0.15 -0.16    -0.303 OA
DOCKED: ATOM     18  H   UNL d   1      49.984  21.880   6.381 -0.28 +0.13    +0.222 HD
DOCKED: ENDBRANCH  15  17
DOCKED: BRANCH  15  19
DOCKED: ATOM     19  O   UNL d   1      52.999  21.031   7.477 -0.01 -0.13    -0.303 OA
DOCKED: ATOM     20  H   UNL d   1      53.566  20.411   6.983 +0.02 +0.08    +0.222 HD
DOCKED: ENDBRANCH  15  19
DOCKED: ENDBRANCH  14  15
DOCKED: ENDBRANCH   2  14
DOCKED: BRANCH   6  21
DOCKED: ATOM     21  O   UNL d   1      54.183  18.268   2.656 +0.00 -0.07    -0.278 OA
DOCKED: BRANCH  21  22
DOCKED: ATOM     22  P   UNL d   1      54.159  16.795   3.269 +0.00 +0.10    +0.473 P 
DOCKED: ATOM     23  O   UNL d   1      55.225  15.840   2.850 +0.00 -0.04    -0.228 OA
DOCKED: BRANCH  22  24
DOCKED: ATOM     24  O   UNL d   1      54.108  17.094   4.832 +0.00 -0.07    -0.303 OA
DOCKED: ATOM     25  H   UNL d   1      54.910  17.625   5.071 +0.00 +0.05    +0.222 HD
DOCKED: ENDBRANCH  22  24
DOCKED: BRANCH  22  26
DOCKED: ATOM     26  O   UNL d   1      52.651  16.342   2.969 +0.00 -0.07    -0.303 OA
DOCKED: ATOM     27  H   UNL d   1      52.160  17.096   2.582 +0.00 +0.06    +0.222 HD
DOCKED: ENDBRANCH  22  26
DOCKED: ENDBRANCH  21  22
DOCKED: ENDBRANCH   6  21
DOCKED: BRANCH   3  28
DOCKED: ATOM     28  O   UNL d   1      51.529  23.046   3.348 -0.18 -0.34    -0.278 OA
DOCKED: BRANCH  28  29
DOCKED: ATOM     29  P   UNL d   1      50.086  22.550   3.806 -0.20 +0.53    +0.473 P 
DOCKED: ATOM     30  O   UNL d   1      49.977  21.102   4.121 -0.15 -0.24    -0.228 OA
DOCKED: BRANCH  29  31
DOCKED: ATOM     31  O   UNL d   1      49.803  23.577   5.000 -0.69 -0.39    -0.303 OA
DOCKED: ATOM     32  H   UNL d   1      50.412  23.367   5.745 -0.04 +0.26    +0.222 HD
DOCKED: ENDBRANCH  29  31
DOCKED: BRANCH  29  33
DOCKED: ATOM     33  O   UNL d   1      49.156  23.104   2.638 -0.35 -0.35    -0.303 OA
DOCKED: ATOM     34  H   UNL d   1      49.597  22.935   1.769 +0.07 +0.19    +0.222 HD
DOCKED: ENDBRANCH  29  33
DOCKED: ENDBRANCH  28  29
DOCKED: ENDBRANCH   3  28
DOCKED: BRANCH   5  35
DOCKED: ATOM     35  O   UNL d   1      51.559  18.801   1.491 +0.00 -0.10    -0.278 OA
DOCKED: BRANCH  35  36
DOCKED: ATOM     36  P   UNL d   1      50.442  18.329   2.528 -0.02 +0.25    +0.473 P 
DOCKED: ATOM     37  O   UNL d   1      50.845  18.360   3.968 -0.04 -0.12    -0.228 OA
DOCKED: BRANCH  36  38
DOCKED: ATOM     38  O   UNL d   1      49.231  19.297   2.165 -0.58 -0.29    -0.303 OA
DOCKED: ATOM     39  H   UNL d   1      49.537  20.228   2.218 +0.03 +0.23    +0.222 HD
DOCKED: ENDBRANCH  36  38
DOCKED: BRANCH  36  40
DOCKED: ATOM     40  O   UNL d   1      49.999  16.922   1.933 +0.00 -0.11    -0.303 OA
DOCKED: ATOM     41  H   UNL d   1      50.649  16.215   2.145 +0.01 +0.06    +0.222 HD
DOCKED: ENDBRANCH  36  40
DOCKED: ENDBRANCH  35  36
DOCKED: ENDBRANCH   5  35
DOCKED: BRANCH   4  42
DOCKED: ATOM     42  O   UNL d   1      51.471  21.639   0.838 -0.04 -0.14    -0.278 OA
DOCKED: BRANCH  42  43
DOCKED: ATOM     43  P   UNL d   1      50.134  21.222   0.073 -0.05 +0.20    +0.473 P 
DOCKED: ATOM     44  O   UNL d   1      48.842  21.443   0.779 -0.14 -0.15    -0.228 OA
DOCKED: BRANCH  43  45
DOCKED: ATOM     45  O   UNL d   1      50.264  22.003  -1.307 -0.08 -0.08    -0.303 OA
DOCKED: ATOM     46  H   UNL d   1      49.520  22.624  -1.439 -0.33 +0.02    +0.222 HD
DOCKED: ENDBRANCH  43  45
DOCKED: BRANCH  43  47
DOCKED: ATOM     47  O   UNL d   1      50.427  19.712  -0.378 -0.01 -0.10    -0.303 OA
DOCKED: ATOM     48  H   UNL d   1      50.164  19.103   0.343 +0.02 +0.09    +0.222 HD
DOCKED: ENDBRANCH  43  47
DOCKED: ENDBRANCH  42  43
DOCKED: ENDBRANCH   4  42
DOCKED: TORSDOF 24
DOCKED: TER
DOCKED: ENDMDL
________________________________________________________________________________


	BEGINNING GENETIC ALGORITHM DOCKING 45 of 100
Run: 45 Seed: 728619515 195832970 [ Run 45 of 100 GA/GALS ]
Beginning LAMARCKIAN GENETIC ALGORITHM (LGA), with a maximum of 25000000 energy evaluations.

Final-Value: -16.355


	FINAL GENETIC ALGORITHM DOCKED STATE
	_______________________________________________


Detailed state:  trans 36.583 56.267 13.121 quatxyzw -0.225633 -0.513443 -0.671072 0.484900 center 0.035 0.082 -0.065 ntor 24 142.5823 106.0251 36.1907 64.5780 156.2265 124.6101 142.4886 7.2339 146.6958 -33.1184 5.1407 -3.2277 -30.9534 -159.6346 51.8877 53.3422 180.0000 -86.3842 26.7101 -49.3818 -180.0000 -48.5315 16.0613 178.3977
State:	 36.583  56.267  13.121  -0.258 -0.587 -0.767 121.988    142.58  106.03   36.19   64.58  156.23  124.61  142.49    7.23  146.70  -33.12    5.14   -3.23  -30.95 -159.63   51.89   53.34  180.00  -86.38   26.71  -49.38 -180.00  -48.53   16.06  178.40

DOCKED: MODEL       45
DOCKED: USER    Run = 45
DOCKED: USER    DPF = D:/Protein_go_brrr/autodock/final/2DN3/IHP/dock.dpf
DOCKED: USER  
DOCKED: USER    Estimated Free Energy of Binding    =   +4.46 kcal/mol  [=(1)+(2)+(3)-(4)]
DOCKED: USER    
DOCKED: USER    (1) Final Intermolecular Energy     =   -2.70 kcal/mol
DOCKED: USER        vdW + Hbond + desolv Energy     =   -2.38 kcal/mol
DOCKED: USER        Electrostatic Energy            =   -0.32 kcal/mol
DOCKED: USER    (2) Final Total Internal Energy     =  -13.65 kcal/mol
DOCKED: USER    (3) Torsional Free Energy           =   +7.16 kcal/mol
DOCKED: USER    (4) Unbound System's Energy  [=(2)] =  -13.65 kcal/mol
DOCKED: USER    
DOCKED: USER    
DOCKED: USER    NEWDPF move IHP_ideal_opt.pdbqt
DOCKED: USER    NEWDPF about 0.035000 0.082000 -0.065000
DOCKED: USER    NEWDPF tran0 36.582650 56.266862 13.120666
DOCKED: USER    NEWDPF quaternion0 -0.225633 -0.513443 -0.671072 0.484900
DOCKED: USER    NEWDPF axisangle0 -0.257994 -0.587080 -0.767317 121.988162
DOCKED: USER    NEWDPF quat0 -0.257994 -0.587080 -0.767317 121.988162
DOCKED: USER    NEWDPF dihe0 142.58 106.03 36.19 64.58 156.23 124.61 142.49 7.23 146.70 -33.12 5.14 -3.23 -30.95 -159.63 51.89 53.34 180.00 -86.38 26.71 -49.38 -180.00 -48.53 16.06 178.40 
DOCKED: USER  keepresnum = 1 
DOCKED: USER  
DOCKED: REMARK  24 active torsions:
DOCKED: REMARK  status: ('A' for Active; 'I' for Inactive)
DOCKED: REMARK    1  A    between atoms: C_1  and  O_7 
DOCKED: REMARK    2  A    between atoms: C_2  and  O_12 
DOCKED: REMARK    3  A    between atoms: C_3  and  O_17 
DOCKED: REMARK    4  A    between atoms: C_4  and  O_22 
DOCKED: REMARK    5  A    between atoms: C_5  and  O_27 
DOCKED: REMARK    6  A    between atoms: C_6  and  O_32 
DOCKED: REMARK    7  A    between atoms: O_7  and  P_8 
DOCKED: REMARK    8  A    between atoms: P_8  and  O_10 
DOCKED: REMARK    9  A    between atoms: P_8  and  O_11 
DOCKED: REMARK   10  A    between atoms: O_12  and  P_13 
DOCKED: REMARK   11  A    between atoms: P_13  and  O_15 
DOCKED: REMARK   12  A    between atoms: P_13  and  O_16 
DOCKED: REMARK   13  A    between atoms: O_17  and  P_18 
DOCKED: REMARK   14  A    between atoms: P_18  and  O_20 
DOCKED: REMARK   15  A    between atoms: P_18  and  O_21 
DOCKED: REMARK   16  A    between atoms: O_22  and  P_23 
DOCKED: REMARK   17  A    between atoms: P_23  and  O_25 
DOCKED: REMARK   18  A    between atoms: P_23  and  O_26 
DOCKED: REMARK   19  A    between atoms: O_27  and  P_28 
DOCKED: REMARK   20  A    between atoms: P_28  and  O_30 
DOCKED: REMARK   21  A    between atoms: P_28  and  O_31 
DOCKED: REMARK   22  A    between atoms: O_32  and  P_33 
DOCKED: REMARK   23  A    between atoms: P_33  and  O_35 
DOCKED: REMARK   24  A    between atoms: P_33  and  O_36 
DOCKED: USER                              x       y       z     vdW  Elec       q    Type
DOCKED: USER                           _______ _______ _______ _____ _____    ______ ____
DOCKED: ROOT
DOCKED: ATOM      1  C   UNL d   1      37.052  57.747  12.363 -0.04 +0.02    +0.194 C 
DOCKED: ATOM      2  C   UNL d   1      37.628  56.474  11.740 -0.06 +0.03    +0.194 C 
DOCKED: ATOM      3  C   UNL d   1      38.107  55.488  12.807 -0.09 +0.05    +0.194 C 
DOCKED: ATOM      4  C   UNL d   1      37.049  55.185  13.865 -0.15 +0.06    +0.194 C 
DOCKED: ATOM      5  C   UNL d   1      36.367  56.423  14.432 -0.11 +0.03    +0.194 C 
DOCKED: ATOM      6  C   UNL d   1      35.942  57.438  13.369 -0.08 +0.02    +0.194 C 
DOCKED: ENDROOT
DOCKED: BRANCH   1   7
DOCKED: ATOM      7  O   UNL d   1      36.474  58.533  11.319 -0.02 -0.03    -0.278 OA
DOCKED: BRANCH   7   8
DOCKED: ATOM      8  P   UNL d   1      37.354  59.697  10.669 +0.00 +0.04    +0.473 P 
DOCKED: ATOM      9  O   UNL d   1      38.823  59.558  10.858 -0.00 -0.02    -0.228 OA
DOCKED: BRANCH   8  10
DOCKED: ATOM     10  O   UNL d   1      36.916  59.701   9.134 -0.01 -0.03    -0.303 OA
DOCKED: ATOM     11  H   UNL d   1      36.437  58.877   8.929 +0.03 +0.03    +0.222 HD
DOCKED: ENDBRANCH   8  10
DOCKED: BRANCH   8  12
DOCKED: ATOM     12  O   UNL d   1      36.710  61.048  11.202 -0.00 -0.02    -0.303 OA
DOCKED: ATOM     13  H   UNL d   1      36.737  61.128  12.182 +0.00 +0.01    +0.222 HD
DOCKED: ENDBRANCH   8  12
DOCKED: ENDBRANCH   7   8
DOCKED: ENDBRANCH   1   7
DOCKED: BRANCH   2  14
DOCKED: ATOM     14  O   UNL d   1      36.612  55.838  10.954 -0.14 -0.05    -0.278 OA
DOCKED: BRANCH  14  15
DOCKED: ATOM     15  P   UNL d   1      36.393  56.405   9.473 -0.06 +0.12    +0.473 P 
DOCKED: ATOM     16  O   UNL d   1      35.188  57.266   9.254 -0.10 -0.05    -0.228 OA
DOCKED: BRANCH  15  17
DOCKED: ATOM     17  O   UNL d   1      37.757  57.158   9.140 -0.05 -0.06    -0.303 OA
DOCKED: ATOM     18  H   UNL d   1      37.928  57.875   9.781 +0.04 +0.03    +0.222 HD
DOCKED: ENDBRANCH  15  17
DOCKED: BRANCH  15  19
DOCKED: ATOM     19  O   UNL d   1      36.499  55.123   8.537 -0.24 -0.17    -0.303 OA
DOCKED: ATOM     20  H   UNL d   1      36.590  54.304   9.058 +0.10 +0.13    +0.222 HD
DOCKED: ENDBRANCH  15  19
DOCKED: ENDBRANCH  14  15
DOCKED: ENDBRANCH   2  14
DOCKED: BRANCH   6  21
DOCKED: ATOM     21  O   UNL d   1      35.648  58.653  14.054 -0.02 -0.02    -0.278 OA
DOCKED: BRANCH  21  22
DOCKED: ATOM     22  P   UNL d   1      36.839  59.590  14.551 +0.00 +0.04    +0.473 P 
DOCKED: ATOM     23  O   UNL d   1      37.463  60.521  13.567 +0.00 -0.02    -0.228 OA
DOCKED: BRANCH  22  24
DOCKED: ATOM     24  O   UNL d   1      36.189  60.298  15.820 +0.00 -0.02    -0.303 OA
DOCKED: ATOM     25  H   UNL d   1      36.381  59.741  16.616 +0.01 +0.02    +0.222 HD
DOCKED: ENDBRANCH  22  24
DOCKED: BRANCH  22  26
DOCKED: ATOM     26  O   UNL d   1      37.826  58.527  15.235 -0.00 -0.03    -0.303 OA
DOCKED: ATOM     27  H   UNL d   1      37.314  57.962  15.849 +0.02 +0.03    +0.222 HD
DOCKED: ENDBRANCH  22  26
DOCKED: ENDBRANCH  21  22
DOCKED: ENDBRANCH   6  21
DOCKED: BRANCH   3  28
DOCKED: ATOM     28  O   UNL d   1      38.360  54.247  12.160 -0.14 -0.11    -0.278 OA
DOCKED: BRANCH  28  29
DOCKED: ATOM     29  P   UNL d   1      39.476  54.142  11.029 -0.10 +0.03    +0.473 P 
DOCKED: ATOM     30  O   UNL d   1      40.590  55.120  11.135 -0.06 +0.02    -0.228 OA
DOCKED: BRANCH  29  31
DOCKED: ATOM     31  O   UNL d   1      39.856  52.592  11.154 -0.22 -0.00    -0.303 OA
DOCKED: ATOM     32  H   UNL d   1      40.698  52.435  10.667 -0.26 -0.21    +0.222 HD
DOCKED: ENDBRANCH  29  31
DOCKED: BRANCH  29  33
DOCKED: ATOM     33  O   UNL d   1      38.606  54.184   9.696 -0.16 -0.09    -0.303 OA
DOCKED: ATOM     34  H   UNL d   1      38.182  55.073   9.617 +0.08 +0.07    +0.222 HD
DOCKED: ENDBRANCH  29  33
DOCKED: ENDBRANCH  28  29
DOCKED: ENDBRANCH   3  28
DOCKED: BRANCH   5  35
DOCKED: ATOM     35  O   UNL d   1      35.177  55.954  15.064 -0.16 -0.04    -0.278 OA
DOCKED: BRANCH  35  36
DOCKED: ATOM     36  P   UNL d   1      34.620  56.679  16.371 -0.08 +0.06    +0.473 P 
DOCKED: ATOM     37  O   UNL d   1      34.175  55.771  17.472 -0.11 -0.04    -0.228 OA
DOCKED: BRANCH  36  38
DOCKED: ATOM     38  O   UNL d   1      35.837  57.630  16.759 -0.01 -0.04    -0.303 OA
DOCKED: ATOM     39  H   UNL d   1      35.844  58.405  16.156 +0.02 +0.02    +0.222 HD
DOCKED: ENDBRANCH  36  38
DOCKED: BRANCH  36  40
DOCKED: ATOM     40  O   UNL d   1      33.534  57.673  15.771 -0.07 -0.03    -0.303 OA
DOCKED: ATOM     41  H   UNL d   1      33.951  58.446  15.329 +0.02 +0.02    +0.222 HD
DOCKED: ENDBRANCH  36  40
DOCKED: ENDBRANCH  35  36
DOCKED: ENDBRANCH   5  35
DOCKED: BRANCH   4  42
DOCKED: ATOM     42  O   UNL d   1      37.723  54.540  14.952 -0.05 -0.15    -0.278 OA
DOCKED: BRANCH  42  43
DOCKED: ATOM     43  P   UNL d   1      38.770  55.377  15.816 -0.04 +0.14    +0.473 P 
DOCKED: ATOM     44  O   UNL d   1      39.677  56.305  15.085 -0.02 -0.04    -0.228 OA
DOCKED: BRANCH  43  45
DOCKED: ATOM     45  O   UNL d   1      37.841  56.090  16.894 -0.03 -0.06    -0.303 OA
DOCKED: ATOM     46  H   UNL d   1      37.260  56.759  16.480 +0.03 +0.04    +0.222 HD
DOCKED: ENDBRANCH  43  45
DOCKED: BRANCH  43  47
DOCKED: ATOM     47  O   UNL d   1      39.495  54.255  16.701 -0.07 -0.12    -0.303 OA
DOCKED: ATOM     48  H   UNL d   1      40.212  54.670  17.224 +0.03 +0.06    +0.222 HD
DOCKED: ENDBRANCH  43  47
DOCKED: ENDBRANCH  42  43
DOCKED: ENDBRANCH   4  42
DOCKED: TORSDOF 24
DOCKED: TER
DOCKED: ENDMDL
________________________________________________________________________________


	BEGINNING GENETIC ALGORITHM DOCKING 46 of 100
Run: 46 Seed: 2009723052 1497004058 [ Run 46 of 100 GA/GALS ]
Beginning LAMARCKIAN GENETIC ALGORITHM (LGA), with a maximum of 25000000 energy evaluations.

Final-Value: -17.457


	FINAL GENETIC ALGORITHM DOCKED STATE
	_______________________________________________


Detailed state:  trans 38.995 32.474 32.273 quatxyzw 0.219857 -0.060644 -0.156369 0.961007 center 0.035 0.082 -0.065 ntor 24 91.3102 48.9055 152.2734 -6.8811 91.8672 92.4182 -25.6997 20.2683 122.8667 -27.4857 24.1551 -97.9822 153.6180 -177.6448 57.5726 112.3289 -180.0000 -86.3839 51.0259 10.7588 -179.7966 5.4128 11.2622 160.0636
State:	 38.995  32.474  32.273   0.795 -0.219 -0.565 32.106     91.31   48.91  152.27   -6.88   91.87   92.42  -25.70   20.27  122.87  -27.49   24.16  -97.98  153.62 -177.64   57.57  112.33 -180.00  -86.38   51.03   10.76 -179.80    5.41   11.26  160.06

DOCKED: MODEL       46
DOCKED: USER    Run = 46
DOCKED: USER    DPF = D:/Protein_go_brrr/autodock/final/2DN3/IHP/dock.dpf
DOCKED: USER  
DOCKED: USER    Estimated Free Energy of Binding    =   +4.57 kcal/mol  [=(1)+(2)+(3)-(4)]
DOCKED: USER    
DOCKED: USER    (1) Final Intermolecular Energy     =   -2.59 kcal/mol
DOCKED: USER        vdW + Hbond + desolv Energy     =   -2.44 kcal/mol
DOCKED: USER        Electrostatic Energy            =   -0.15 kcal/mol
DOCKED: USER    (2) Final Total Internal Energy     =  -14.86 kcal/mol
DOCKED: USER    (3) Torsional Free Energy           =   +7.16 kcal/mol
DOCKED: USER    (4) Unbound System's Energy  [=(2)] =  -14.86 kcal/mol
DOCKED: USER    
DOCKED: USER    
DOCKED: USER    NEWDPF move IHP_ideal_opt.pdbqt
DOCKED: USER    NEWDPF about 0.035000 0.082000 -0.065000
DOCKED: USER    NEWDPF tran0 38.994760 32.474004 32.272530
DOCKED: USER    NEWDPF quaternion0 0.219857 -0.060644 -0.156369 0.961007
DOCKED: USER    NEWDPF axisangle0 0.795071 -0.219307 -0.565478 32.105775
DOCKED: USER    NEWDPF quat0 0.795071 -0.219307 -0.565478 32.105775
DOCKED: USER    NEWDPF dihe0 91.31 48.91 152.27 -6.88 91.87 92.42 -25.70 20.27 122.87 -27.49 24.16 -97.98 153.62 -177.64 57.57 112.33 -180.00 -86.38 51.03 10.76 -179.80 5.41 11.26 160.06 
DOCKED: USER  keepresnum = 1 
DOCKED: USER  
DOCKED: REMARK  24 active torsions:
DOCKED: REMARK  status: ('A' for Active; 'I' for Inactive)
DOCKED: REMARK    1  A    between atoms: C_1  and  O_7 
DOCKED: REMARK    2  A    between atoms: C_2  and  O_12 
DOCKED: REMARK    3  A    between atoms: C_3  and  O_17 
DOCKED: REMARK    4  A    between atoms: C_4  and  O_22 
DOCKED: REMARK    5  A    between atoms: C_5  and  O_27 
DOCKED: REMARK    6  A    between atoms: C_6  and  O_32 
DOCKED: REMARK    7  A    between atoms: O_7  and  P_8 
DOCKED: REMARK    8  A    between atoms: P_8  and  O_10 
DOCKED: REMARK    9  A    between atoms: P_8  and  O_11 
DOCKED: REMARK   10  A    between atoms: O_12  and  P_13 
DOCKED: REMARK   11  A    between atoms: P_13  and  O_15 
DOCKED: REMARK   12  A    between atoms: P_13  and  O_16 
DOCKED: REMARK   13  A    between atoms: O_17  and  P_18 
DOCKED: REMARK   14  A    between atoms: P_18  and  O_20 
DOCKED: REMARK   15  A    between atoms: P_18  and  O_21 
DOCKED: REMARK   16  A    between atoms: O_22  and  P_23 
DOCKED: REMARK   17  A    between atoms: P_23  and  O_25 
DOCKED: REMARK   18  A    between atoms: P_23  and  O_26 
DOCKED: REMARK   19  A    between atoms: O_27  and  P_28 
DOCKED: REMARK   20  A    between atoms: P_28  and  O_30 
DOCKED: REMARK   21  A    between atoms: P_28  and  O_31 
DOCKED: REMARK   22  A    between atoms: O_32  and  P_33 
DOCKED: REMARK   23  A    between atoms: P_33  and  O_35 
DOCKED: REMARK   24  A    between atoms: P_33  and  O_36 
DOCKED: USER                              x       y       z     vdW  Elec       q    Type
DOCKED: USER                           _______ _______ _______ _____ _____    ______ ____
DOCKED: ROOT
DOCKED: ATOM      1  C   UNL d   1      40.506  32.408  33.107 -0.03 +0.04    +0.194 C 
DOCKED: ATOM      2  C   UNL d   1      39.573  31.216  33.333 -0.06 +0.05    +0.194 C 
DOCKED: ATOM      3  C   UNL d   1      38.125  31.662  33.543 -0.08 +0.06    +0.194 C 
DOCKED: ATOM      4  C   UNL d   1      37.617  32.593  32.445 -0.11 +0.06    +0.194 C 
DOCKED: ATOM      5  C   UNL d   1      38.570  33.732  32.107 -0.07 +0.04    +0.194 C 
DOCKED: ATOM      6  C   UNL d   1      40.028  33.296  31.958 -0.06 +0.04    +0.194 C 
DOCKED: ENDROOT
DOCKED: BRANCH   1   7
DOCKED: ATOM      7  O   UNL d   1      41.795  31.904  32.750 -0.02 -0.05    -0.278 OA
DOCKED: BRANCH   7   8
DOCKED: ATOM      8  P   UNL d   1      42.672  31.192  33.880 +0.00 +0.07    +0.473 P 
DOCKED: ATOM      9  O   UNL d   1      44.142  31.223  33.650 -0.00 -0.03    -0.228 OA
DOCKED: BRANCH   8  10
DOCKED: ATOM     10  O   UNL d   1      42.231  31.922  35.228 -0.00 -0.04    -0.303 OA
DOCKED: ATOM     11  H   UNL d   1      42.517  32.854  35.204 +0.00 +0.03    +0.222 HD
DOCKED: ENDBRANCH   8  10
DOCKED: BRANCH   8  12
DOCKED: ATOM     12  O   UNL d   1      42.027  29.751  34.056 -0.01 -0.05    -0.303 OA
DOCKED: ATOM     13  H   UNL d   1      41.294  29.576  33.423 +0.04 +0.04    +0.222 HD
DOCKED: ENDBRANCH   8  12
DOCKED: ENDBRANCH   7   8
DOCKED: ENDBRANCH   1   7
DOCKED: BRANCH   2  14
DOCKED: ATOM     14  O   UNL d   1      39.625  30.359  32.185 -0.13 -0.07    -0.278 OA
DOCKED: BRANCH  14  15
DOCKED: ATOM     15  P   UNL d   1      39.565  28.784  32.465 -0.08 +0.13    +0.473 P 
DOCKED: ATOM     16  O   UNL d   1      40.711  27.966  31.957 -0.18 -0.04    -0.228 OA
DOCKED: BRANCH  15  17
DOCKED: ATOM     17  O   UNL d   1      39.383  28.677  34.044 -0.07 -0.09    -0.303 OA
DOCKED: ATOM     18  H   UNL d   1      38.593  29.169  34.341 +0.05 +0.09    +0.222 HD
DOCKED: ENDBRANCH  15  17
DOCKED: BRANCH  15  19
DOCKED: ATOM     19  O   UNL d   1      38.127  28.344  31.947 -0.20 -0.14    -0.303 OA
DOCKED: ATOM     20  H   UNL d   1      37.414  28.730  32.490 +0.07 +0.15    +0.222 HD
DOCKED: ENDBRANCH  15  19
DOCKED: ENDBRANCH  14  15
DOCKED: ENDBRANCH   2  14
DOCKED: BRANCH   6  21
DOCKED: ATOM     21  O   UNL d   1      40.819  34.482  31.989 -0.03 -0.06    -0.278 OA
DOCKED: BRANCH  21  22
DOCKED: ATOM     22  P   UNL d   1      41.122  35.194  33.384 -0.00 +0.08    +0.473 P 
DOCKED: ATOM     23  O   UNL d   1      42.314  34.745  34.160 -0.00 -0.03    -0.228 OA
DOCKED: BRANCH  22  24
DOCKED: ATOM     24  O   UNL d   1      41.136  36.730  32.969 -0.01 -0.06    -0.303 OA
DOCKED: ATOM     25  H   UNL d   1      40.574  36.836  32.160 +0.03 +0.05    +0.222 HD
DOCKED: ENDBRANCH  22  24
DOCKED: BRANCH  22  26
DOCKED: ATOM     26  O   UNL d   1      39.709  35.065  34.130 -0.00 -0.04    -0.303 OA
DOCKED: ATOM     27  H   UNL d   1      39.115  35.779  33.819 +0.01 +0.03    +0.222 HD
DOCKED: ENDBRANCH  22  26
DOCKED: ENDBRANCH  21  22
DOCKED: ENDBRANCH   6  21
DOCKED: BRANCH   3  28
DOCKED: ATOM     28  O   UNL d   1      37.304  30.503  33.465 -0.12 -0.16    -0.278 OA
DOCKED: BRANCH  28  29
DOCKED: ATOM     29  P   UNL d   1      36.475  30.017  34.735 -0.05 +0.43    +0.473 P 
DOCKED: ATOM     30  O   UNL d   1      35.140  30.644  34.906 -0.48 -0.34    -0.228 OA
DOCKED: BRANCH  29  31
DOCKED: ATOM     31  O   UNL d   1      36.510  28.434  34.502 -0.31 -0.34    -0.303 OA
DOCKED: ATOM     32  H   UNL d   1      37.310  28.212  33.971 +0.06 +0.17    +0.222 HD
DOCKED: ENDBRANCH  29  31
DOCKED: BRANCH  29  33
DOCKED: ATOM     33  O   UNL d   1      37.523  30.222  35.916 -0.02 -0.13    -0.303 OA
DOCKED: ATOM     34  H   UNL d   1      37.542  31.178  36.167 +0.02 +0.07    +0.222 HD
DOCKED: ENDBRANCH  29  33
DOCKED: ENDBRANCH  28  29
DOCKED: ENDBRANCH   3  28
DOCKED: BRANCH   5  35
DOCKED: ATOM     35  O   UNL d   1      38.147  34.227  30.838 -0.11 -0.06    -0.278 OA
DOCKED: BRANCH  35  36
DOCKED: ATOM     36  P   UNL d   1      38.183  35.792  30.532 -0.11 +0.13    +0.473 P 
DOCKED: ATOM     37  O   UNL d   1      36.972  36.343  29.848 -0.28 -0.06    -0.228 OA
DOCKED: BRANCH  36  38
DOCKED: ATOM     38  O   UNL d   1      38.452  36.401  31.978 -0.03 -0.06    -0.303 OA
DOCKED: ATOM     39  H   UNL d   1      39.241  35.967  32.368 +0.04 +0.04    +0.222 HD
DOCKED: ENDBRANCH  36  38
DOCKED: BRANCH  36  40
DOCKED: ATOM     40  O   UNL d   1      39.575  35.960  29.781 -0.14 -0.14    -0.303 OA
DOCKED: ATOM     41  H   UNL d   1      40.335  35.816  30.387 +0.05 +0.09    +0.222 HD
DOCKED: ENDBRANCH  36  40
DOCKED: ENDBRANCH  35  36
DOCKED: ENDBRANCH   5  35
DOCKED: BRANCH   4  42
DOCKED: ATOM     42  O   UNL d   1      36.407  33.185  32.931 -0.06 -0.08    -0.278 OA
DOCKED: BRANCH  42  43
DOCKED: ATOM     43  P   UNL d   1      36.395  33.828  34.390 +0.00 +0.10    +0.473 P 
DOCKED: ATOM     44  O   UNL d   1      37.116  33.096  35.469 -0.01 -0.05    -0.228 OA
DOCKED: BRANCH  43  45
DOCKED: ATOM     45  O   UNL d   1      36.939  35.300  34.128 -0.00 -0.04    -0.303 OA
DOCKED: ATOM     46  H   UNL d   1      37.754  35.290  33.587 +0.03 +0.03    +0.222 HD
DOCKED: ENDBRANCH  43  45
DOCKED: BRANCH  43  47
DOCKED: ATOM     47  O   UNL d   1      34.839  34.099  34.659 -0.01 -0.06    -0.303 OA
DOCKED: ATOM     48  H   UNL d   1      34.411  33.266  34.948 +0.02 +0.07    +0.222 HD
DOCKED: ENDBRANCH  43  47
DOCKED: ENDBRANCH  42  43
DOCKED: ENDBRANCH   4  42
DOCKED: TORSDOF 24
DOCKED: TER
DOCKED: ENDMDL
________________________________________________________________________________


	BEGINNING GENETIC ALGORITHM DOCKING 47 of 100
Run: 47 Seed: 493657517 165788562 [ Run 47 of 100 GA/GALS ]
Beginning LAMARCKIAN GENETIC ALGORITHM (LGA), with a maximum of 25000000 energy evaluations.

Final-Value: -19.122


	FINAL GENETIC ALGORITHM DOCKED STATE
	_______________________________________________


Detailed state:  trans 46.421 40.339 22.578 quatxyzw 0.190552 0.657138 -0.282272 0.672444 center 0.035 0.082 -0.065 ntor 24 -180.0000 -51.3696 110.6835 100.6070 37.3452 -147.2165 3.3429 -119.3229 44.5220 5.1495 63.0546 -134.0579 -127.1758 95.0592 -59.8894 -46.2330 137.8817 121.1269 44.4666 -2.7539 167.7896 11.6069 -10.7075 -2.0972
State:	 46.421  40.339  22.578   0.257  0.888 -0.381 95.488   -180.00  -51.37  110.68  100.61   37.35 -147.22    3.34 -119.32   44.52    5.15   63.05 -134.06 -127.18   95.06  -59.89  -46.23  137.88  121.13   44.47   -2.75  167.79   11.61  -10.71   -2.10

DOCKED: MODEL       47
DOCKED: USER    Run = 47
DOCKED: USER    DPF = D:/Protein_go_brrr/autodock/final/2DN3/IHP/dock.dpf
DOCKED: USER  
DOCKED: USER    Estimated Free Energy of Binding    =   +4.08 kcal/mol  [=(1)+(2)+(3)-(4)]
DOCKED: USER    
DOCKED: USER    (1) Final Intermolecular Energy     =   -3.07 kcal/mol
DOCKED: USER        vdW + Hbond + desolv Energy     =   -2.76 kcal/mol
DOCKED: USER        Electrostatic Energy            =   -0.31 kcal/mol
DOCKED: USER    (2) Final Total Internal Energy     =  -16.05 kcal/mol
DOCKED: USER    (3) Torsional Free Energy           =   +7.16 kcal/mol
DOCKED: USER    (4) Unbound System's Energy  [=(2)] =  -16.05 kcal/mol
DOCKED: USER    
DOCKED: USER    
DOCKED: USER    NEWDPF move IHP_ideal_opt.pdbqt
DOCKED: USER    NEWDPF about 0.035000 0.082000 -0.065000
DOCKED: USER    NEWDPF tran0 46.420521 40.338927 22.578027
DOCKED: USER    NEWDPF quaternion0 0.190552 0.657138 -0.282272 0.672444
DOCKED: USER    NEWDPF axisangle0 0.257452 0.887848 -0.381373 95.487980
DOCKED: USER    NEWDPF quat0 0.257452 0.887848 -0.381373 95.487980
DOCKED: USER    NEWDPF dihe0 -180.00 -51.37 110.68 100.61 37.35 -147.22 3.34 -119.32 44.52 5.15 63.05 -134.06 -127.18 95.06 -59.89 -46.23 137.88 121.13 44.47 -2.75 167.79 11.61 -10.71 -2.10 
DOCKED: USER  keepresnum = 1 
DOCKED: USER  
DOCKED: REMARK  24 active torsions:
DOCKED: REMARK  status: ('A' for Active; 'I' for Inactive)
DOCKED: REMARK    1  A    between atoms: C_1  and  O_7 
DOCKED: REMARK    2  A    between atoms: C_2  and  O_12 
DOCKED: REMARK    3  A    between atoms: C_3  and  O_17 
DOCKED: REMARK    4  A    between atoms: C_4  and  O_22 
DOCKED: REMARK    5  A    between atoms: C_5  and  O_27 
DOCKED: REMARK    6  A    between atoms: C_6  and  O_32 
DOCKED: REMARK    7  A    between atoms: O_7  and  P_8 
DOCKED: REMARK    8  A    between atoms: P_8  and  O_10 
DOCKED: REMARK    9  A    between atoms: P_8  and  O_11 
DOCKED: REMARK   10  A    between atoms: O_12  and  P_13 
DOCKED: REMARK   11  A    between atoms: P_13  and  O_15 
DOCKED: REMARK   12  A    between atoms: P_13  and  O_16 
DOCKED: REMARK   13  A    between atoms: O_17  and  P_18 
DOCKED: REMARK   14  A    between atoms: P_18  and  O_20 
DOCKED: REMARK   15  A    between atoms: P_18  and  O_21 
DOCKED: REMARK   16  A    between atoms: O_22  and  P_23 
DOCKED: REMARK   17  A    between atoms: P_23  and  O_25 
DOCKED: REMARK   18  A    between atoms: P_23  and  O_26 
DOCKED: REMARK   19  A    between atoms: O_27  and  P_28 
DOCKED: REMARK   20  A    between atoms: P_28  and  O_30 
DOCKED: REMARK   21  A    between atoms: P_28  and  O_31 
DOCKED: REMARK   22  A    between atoms: O_32  and  P_33 
DOCKED: REMARK   23  A    between atoms: P_33  and  O_35 
DOCKED: REMARK   24  A    between atoms: P_33  and  O_36 
DOCKED: USER                              x       y       z     vdW  Elec       q    Type
DOCKED: USER                           _______ _______ _______ _____ _____    ______ ____
DOCKED: ROOT
DOCKED: ATOM      1  C   UNL d   1      45.722  40.356  24.158 -0.09 -0.07    +0.194 C 
DOCKED: ATOM      2  C   UNL d   1      46.221  38.994  23.670 +0.06 -0.10    +0.194 C 
DOCKED: ATOM      3  C   UNL d   1      45.837  38.740  22.211 +0.06 -0.07    +0.194 C 
DOCKED: ATOM      4  C   UNL d   1      46.248  39.875  21.275 -0.12 -0.02    +0.194 C 
DOCKED: ATOM      5  C   UNL d   1      45.872  41.262  21.779 -0.12 -0.03    +0.194 C 
DOCKED: ATOM      6  C   UNL d   1      46.199  41.494  23.256 -0.05 -0.03    +0.194 C 
DOCKED: ENDROOT
DOCKED: BRANCH   1   7
DOCKED: ATOM      7  O   UNL d   1      46.264  40.588  25.460 -0.04 +0.03    -0.278 OA
DOCKED: BRANCH   7   8
DOCKED: ATOM      8  P   UNL d   1      45.589  39.851  26.706 -0.07 +0.02    +0.473 P 
DOCKED: ATOM      9  O   UNL d   1      44.289  40.423  27.149 -0.22 -0.13    -0.228 OA
DOCKED: BRANCH   8  10
DOCKED: ATOM     10  O   UNL d   1      45.480  38.329  26.242 -0.11 +0.11    -0.303 OA
DOCKED: ATOM     11  H   UNL d   1      46.128  38.156  25.533 -0.03 -0.11    +0.222 HD
DOCKED: ENDBRANCH   8  10
DOCKED: BRANCH   8  12
DOCKED: ATOM     12  O   UNL d   1      46.729  39.781  27.811 -0.00 -0.03    -0.303 OA
DOCKED: ATOM     13  H   UNL d   1      47.207  38.921  27.818 +0.02 +0.02    +0.222 HD
DOCKED: ENDBRANCH   8  12
DOCKED: ENDBRANCH   7   8
DOCKED: ENDBRANCH   1   7
DOCKED: BRANCH   2  14
DOCKED: ATOM     14  O   UNL d   1      47.649  38.953  23.781 -0.03 +0.04    -0.278 OA
DOCKED: BRANCH  14  15
DOCKED: ATOM     15  P   UNL d   1      48.271  37.690  24.545 -0.00 -0.02    +0.473 P 
DOCKED: ATOM     16  O   UNL d   1      49.638  37.254  24.120 -0.00 -0.01    -0.228 OA
DOCKED: BRANCH  15  17
DOCKED: ATOM     17  O   UNL d   1      48.204  38.097  26.084 -0.00 +0.00    -0.303 OA
DOCKED: ATOM     18  H   UNL d   1      47.613  38.863  26.220 +0.02 -0.01    +0.222 HD
DOCKED: ENDBRANCH  15  17
DOCKED: BRANCH  15  19
DOCKED: ATOM     19  O   UNL d   1      47.138  36.577  24.460 -0.05 +0.04    -0.303 OA
DOCKED: ATOM     20  H   UNL d   1      46.712  36.563  23.583 +0.04 -0.06    +0.222 HD
DOCKED: ENDBRANCH  15  19
DOCKED: ENDBRANCH  14  15
DOCKED: ENDBRANCH   2  14
DOCKED: BRANCH   6  21
DOCKED: ATOM     21  O   UNL d   1      45.494  42.668  23.654 -0.03 +0.02    -0.278 OA
DOCKED: BRANCH  21  22
DOCKED: ATOM     22  P   UNL d   1      43.899  42.664  23.674 -0.09 -0.09    +0.473 P 
DOCKED: ATOM     23  O   UNL d   1      43.184  41.785  22.705 -0.26 +0.13    -0.228 OA
DOCKED: BRANCH  22  24
DOCKED: ATOM     24  O   UNL d   1      43.593  42.357  25.206 -0.08 +0.00    -0.303 OA
DOCKED: ATOM     25  H   UNL d   1      44.344  41.821  25.569 +0.04 +0.00    +0.222 HD
DOCKED: ENDBRANCH  22  24
DOCKED: BRANCH  22  26
DOCKED: ATOM     26  O   UNL d   1      43.569  44.230  23.579 -0.04 +0.01    -0.303 OA
DOCKED: ATOM     27  H   UNL d   1      44.201  44.655  22.965 +0.05 -0.00    +0.222 HD
DOCKED: ENDBRANCH  22  26
DOCKED: ENDBRANCH  21  22
DOCKED: ENDBRANCH   6  21
DOCKED: BRANCH   3  28
DOCKED: ATOM     28  O   UNL d   1      46.567  37.603  21.768 -0.09 +0.04    -0.278 OA
DOCKED: BRANCH  28  29
DOCKED: ATOM     29  P   UNL d   1      45.801  36.325  21.204 -0.13 -0.04    +0.473 P 
DOCKED: ATOM     30  O   UNL d   1      45.085  35.509  22.217 -0.29 +0.04    -0.228 OA
DOCKED: BRANCH  29  31
DOCKED: ATOM     31  O   UNL d   1      44.912  37.013  20.065 -0.23 +0.01    -0.303 OA
DOCKED: ATOM     32  H   UNL d   1      45.508  37.512  19.460 +0.10 +0.00    +0.222 HD
DOCKED: ENDBRANCH  29  31
DOCKED: BRANCH  29  33
DOCKED: ATOM     33  O   UNL d   1      46.942  35.595  20.367 -0.04 -0.03    -0.303 OA
DOCKED: ATOM     34  H   UNL d   1      47.256  36.203  19.654 +0.06 +0.02    +0.222 HD
DOCKED: ENDBRANCH  29  33
DOCKED: ENDBRANCH  28  29
DOCKED: ENDBRANCH   3  28
DOCKED: BRANCH   5  35
DOCKED: ATOM     35  O   UNL d   1      46.665  42.176  21.024 -0.05 +0.01    -0.278 OA
DOCKED: BRANCH  35  36
DOCKED: ATOM     36  P   UNL d   1      45.967  43.283  20.112 -0.11 -0.01    +0.473 P 
DOCKED: ATOM     37  O   UNL d   1      46.898  44.151  19.326 -0.14 +0.01    -0.228 OA
DOCKED: BRANCH  36  38
DOCKED: ATOM     38  O   UNL d   1      44.986  42.401  19.221 -0.08 -0.02    -0.303 OA
DOCKED: ATOM     39  H   UNL d   1      45.343  41.488  19.158 +0.09 +0.01    +0.222 HD
DOCKED: ENDBRANCH  36  38
DOCKED: BRANCH  36  40
DOCKED: ATOM     40  O   UNL d   1      44.998  44.011  21.142 -0.09 -0.00    -0.303 OA
DOCKED: ATOM     41  H   UNL d   1      44.612  43.378  21.788 +0.07 -0.01    +0.222 HD
DOCKED: ENDBRANCH  36  40
DOCKED: ENDBRANCH  35  36
DOCKED: ENDBRANCH   5  35
DOCKED: BRANCH   4  42
DOCKED: ATOM     42  O   UNL d   1      45.548  39.670  20.043 -0.22 +0.02    -0.278 OA
DOCKED: BRANCH  42  43
DOCKED: ATOM     43  P   UNL d   1      46.382  39.298  18.735 -0.12 +0.01    +0.473 P 
DOCKED: ATOM     44  O   UNL d   1      45.621  38.802  17.554 -0.29 -0.03    -0.228 OA
DOCKED: BRANCH  43  45
DOCKED: ATOM     45  O   UNL d   1      47.213  40.627  18.462 -0.12 +0.00    -0.303 OA
DOCKED: ATOM     46  H   UNL d   1      46.908  41.363  19.029 +0.07 -0.01    +0.222 HD
DOCKED: ENDBRANCH  43  45
DOCKED: BRANCH  43  47
DOCKED: ATOM     47  O   UNL d   1      47.517  38.313  19.291 -0.03 -0.01    -0.303 OA
DOCKED: ATOM     48  H   UNL d   1      47.110  37.665  19.904 +0.06 +0.00    +0.222 HD
DOCKED: ENDBRANCH  43  47
DOCKED: ENDBRANCH  42  43
DOCKED: ENDBRANCH   4  42
DOCKED: TORSDOF 24
DOCKED: TER
DOCKED: ENDMDL
________________________________________________________________________________


	BEGINNING GENETIC ALGORITHM DOCKING 48 of 100
Run: 48 Seed: 108124508 388977715 [ Run 48 of 100 GA/GALS ]
Beginning LAMARCKIAN GENETIC ALGORITHM (LGA), with a maximum of 25000000 energy evaluations.

Final-Value: -16.915


	FINAL GENETIC ALGORITHM DOCKED STATE
	_______________________________________________


Detailed state:  trans 0.979 51.925 7.454 quatxyzw -0.075822 -0.086139 0.901275 -0.417774 center 0.035 0.082 -0.065 ntor 24 -92.8531 13.8418 158.3622 180.0000 -11.0730 -150.0125 -89.7754 -7.6198 19.8877 87.4054 134.2743 113.6207 32.9189 -127.9397 -0.2788 -1.5003 -62.4185 75.6234 4.9897 -1.1745 -21.8656 17.9920 1.2700 -34.2519
State:	  0.979  51.925   7.454  -0.083 -0.095  0.992 -130.612    -92.85   13.84  158.36  180.00  -11.07 -150.01  -89.78   -7.62   19.89   87.41  134.27  113.62   32.92 -127.94   -0.28   -1.50  -62.42   75.62    4.99   -1.17  -21.87   17.99    1.27  -34.25

DOCKED: MODEL       48
DOCKED: USER    Run = 48
DOCKED: USER    DPF = D:/Protein_go_brrr/autodock/final/2DN3/IHP/dock.dpf
DOCKED: USER  
DOCKED: USER    Estimated Free Energy of Binding    =   +4.67 kcal/mol  [=(1)+(2)+(3)-(4)]
DOCKED: USER    
DOCKED: USER    (1) Final Intermolecular Energy     =   -2.49 kcal/mol
DOCKED: USER        vdW + Hbond + desolv Energy     =   -2.41 kcal/mol
DOCKED: USER        Electrostatic Energy            =   -0.08 kcal/mol
DOCKED: USER    (2) Final Total Internal Energy     =  -14.43 kcal/mol
DOCKED: USER    (3) Torsional Free Energy           =   +7.16 kcal/mol
DOCKED: USER    (4) Unbound System's Energy  [=(2)] =  -14.43 kcal/mol
DOCKED: USER    
DOCKED: USER    
DOCKED: USER    NEWDPF move IHP_ideal_opt.pdbqt
DOCKED: USER    NEWDPF about 0.035000 0.082000 -0.065000
DOCKED: USER    NEWDPF tran0 0.979328 51.924833 7.454061
DOCKED: USER    NEWDPF quaternion0 -0.075822 -0.086139 0.901275 -0.417774
DOCKED: USER    NEWDPF axisangle0 -0.083453 -0.094809 0.991991 -130.611743
DOCKED: USER    NEWDPF quat0 -0.083453 -0.094809 0.991991 -130.611743
DOCKED: USER    NEWDPF dihe0 -92.85 13.84 158.36 180.00 -11.07 -150.01 -89.78 -7.62 19.89 87.41 134.27 113.62 32.92 -127.94 -0.28 -1.50 -62.42 75.62 4.99 -1.17 -21.87 17.99 1.27 -34.25 
DOCKED: USER  keepresnum = 1 
DOCKED: USER  
DOCKED: REMARK  24 active torsions:
DOCKED: REMARK  status: ('A' for Active; 'I' for Inactive)
DOCKED: REMARK    1  A    between atoms: C_1  and  O_7 
DOCKED: REMARK    2  A    between atoms: C_2  and  O_12 
DOCKED: REMARK    3  A    between atoms: C_3  and  O_17 
DOCKED: REMARK    4  A    between atoms: C_4  and  O_22 
DOCKED: REMARK    5  A    between atoms: C_5  and  O_27 
DOCKED: REMARK    6  A    between atoms: C_6  and  O_32 
DOCKED: REMARK    7  A    between atoms: O_7  and  P_8 
DOCKED: REMARK    8  A    between atoms: P_8  and  O_10 
DOCKED: REMARK    9  A    between atoms: P_8  and  O_11 
DOCKED: REMARK   10  A    between atoms: O_12  and  P_13 
DOCKED: REMARK   11  A    between atoms: P_13  and  O_15 
DOCKED: REMARK   12  A    between atoms: P_13  and  O_16 
DOCKED: REMARK   13  A    between atoms: O_17  and  P_18 
DOCKED: REMARK   14  A    between atoms: P_18  and  O_20 
DOCKED: REMARK   15  A    between atoms: P_18  and  O_21 
DOCKED: REMARK   16  A    between atoms: O_22  and  P_23 
DOCKED: REMARK   17  A    between atoms: P_23  and  O_25 
DOCKED: REMARK   18  A    between atoms: P_23  and  O_26 
DOCKED: REMARK   19  A    between atoms: O_27  and  P_28 
DOCKED: REMARK   20  A    between atoms: P_28  and  O_30 
DOCKED: REMARK   21  A    between atoms: P_28  and  O_31 
DOCKED: REMARK   22  A    between atoms: O_32  and  P_33 
DOCKED: REMARK   23  A    between atoms: P_33  and  O_35 
DOCKED: REMARK   24  A    between atoms: P_33  and  O_36 
DOCKED: USER                              x       y       z     vdW  Elec       q    Type
DOCKED: USER                           _______ _______ _______ _____ _____    ______ ____
DOCKED: ROOT
DOCKED: ATOM      1  C   UNL d   1       0.670  53.377   8.337 -0.01 +0.02    +0.194 C 
DOCKED: ATOM      2  C   UNL d   1       2.140  52.966   8.235 -0.05 +0.02    +0.194 C 
DOCKED: ATOM      3  C   UNL d   1       2.325  51.464   8.457 -0.09 +0.04    +0.194 C 
DOCKED: ATOM      4  C   UNL d   1       1.424  50.609   7.570 -0.08 +0.04    +0.194 C 
DOCKED: ATOM      5  C   UNL d   1      -0.033  51.055   7.552 -0.04 +0.03    +0.194 C 
DOCKED: ATOM      6  C   UNL d   1      -0.216  52.565   7.392 -0.02 +0.02    +0.194 C 
DOCKED: ENDROOT
DOCKED: BRANCH   1   7
DOCKED: ATOM      7  O   UNL d   1       0.562  54.749   7.950 -0.00 -0.02    -0.278 OA
DOCKED: BRANCH   7   8
DOCKED: ATOM      8  P   UNL d   1       0.044  55.804   9.031 +0.00 +0.02    +0.473 P 
DOCKED: ATOM      9  O   UNL d   1       1.091  56.340   9.943 -0.00 -0.01    -0.228 OA
DOCKED: BRANCH   8  10
DOCKED: ATOM     10  O   UNL d   1      -0.666  56.935   8.157 -0.00 -0.01    -0.303 OA
DOCKED: ATOM     11  H   UNL d   1      -1.632  56.892   8.289 +0.00 +0.01    +0.222 HD
DOCKED: ENDBRANCH   8  10
DOCKED: BRANCH   8  12
DOCKED: ATOM     12  O   UNL d   1      -1.195  55.101   9.734 -0.00 -0.01    -0.303 OA
DOCKED: ATOM     13  H   UNL d   1      -1.687  54.496   9.133 +0.00 +0.01    +0.222 HD
DOCKED: ENDBRANCH   8  12
DOCKED: ENDBRANCH   7   8
DOCKED: ENDBRANCH   1   7
DOCKED: BRANCH   2  14
DOCKED: ATOM     14  O   UNL d   1       2.627  53.298   6.928 -0.08 -0.03    -0.278 OA
DOCKED: BRANCH  14  15
DOCKED: ATOM     15  P   UNL d   1       4.006  54.110   6.864 -0.06 +0.02    +0.473 P 
DOCKED: ATOM     16  O   UNL d   1       3.959  55.547   7.277 -0.03 -0.00    -0.228 OA
DOCKED: BRANCH  15  17
DOCKED: ATOM     17  O   UNL d   1       5.008  53.244   7.750 -0.14 +0.02    -0.303 OA
DOCKED: ATOM     18  H   UNL d   1       5.140  52.356   7.366 -0.05 -0.02    +0.222 HD
DOCKED: ENDBRANCH  15  17
DOCKED: BRANCH  15  19
DOCKED: ATOM     19  O   UNL d   1       4.559  53.836   5.397 -0.03 -0.02    -0.303 OA
DOCKED: ATOM     20  H   UNL d   1       4.667  54.663   4.892 +0.04 +0.01    +0.222 HD
DOCKED: ENDBRANCH  15  19
DOCKED: ENDBRANCH  14  15
DOCKED: ENDBRANCH   2  14
DOCKED: BRANCH   6  21
DOCKED: ATOM     21  O   UNL d   1      -1.569  52.855   7.735 -0.00 -0.02    -0.278 OA
DOCKED: BRANCH  21  22
DOCKED: ATOM     22  P   UNL d   1      -2.505  53.617   6.692 +0.00 +0.03    +0.473 P 
DOCKED: ATOM     23  O   UNL d   1      -2.242  53.424   5.237 -0.00 -0.02    -0.228 OA
DOCKED: BRANCH  22  24
DOCKED: ATOM     24  O   UNL d   1      -3.956  53.174   7.172 +0.00 -0.02    -0.303 OA
DOCKED: ATOM     25  H   UNL d   1      -4.117  52.249   6.856 +0.00 +0.02    +0.222 HD
DOCKED: ENDBRANCH  22  24
DOCKED: BRANCH  22  26
DOCKED: ATOM     26  O   UNL d   1      -2.426  55.127   7.227 -0.00 -0.02    -0.303 OA
DOCKED: ATOM     27  H   UNL d   1      -1.525  55.301   7.567 +0.00 +0.01    +0.222 HD
DOCKED: ENDBRANCH  22  26
DOCKED: ENDBRANCH  21  22
DOCKED: ENDBRANCH   6  21
DOCKED: BRANCH   3  28
DOCKED: ATOM     28  O   UNL d   1       3.654  51.134   8.073 -0.16 -0.05    -0.278 OA
DOCKED: BRANCH  28  29
DOCKED: ATOM     29  P   UNL d   1       4.598  50.317   9.062 -0.19 +0.13    +0.473 P 
DOCKED: ATOM     30  O   UNL d   1       4.305  50.480  10.509 -0.10 -0.11    -0.228 OA
DOCKED: BRANCH  29  31
DOCKED: ATOM     31  O   UNL d   1       4.438  48.847   8.449 -0.25 -0.13    -0.303 OA
DOCKED: ATOM     32  H   UNL d   1       3.503  48.726   8.165 +0.08 +0.10    +0.222 HD
DOCKED: ENDBRANCH  29  31
DOCKED: BRANCH  29  33
DOCKED: ATOM     33  O   UNL d   1       6.050  50.747   8.568 -0.24 +0.02    -0.303 OA
DOCKED: ATOM     34  H   UNL d   1       6.097  51.734   8.530 -0.23 -0.05    +0.222 HD
DOCKED: ENDBRANCH  29  33
DOCKED: ENDBRANCH  28  29
DOCKED: ENDBRANCH   3  28
DOCKED: BRANCH   5  35
DOCKED: ATOM     35  O   UNL d   1      -0.613  50.437   6.405 -0.03 -0.04    -0.278 OA
DOCKED: BRANCH  35  36
DOCKED: ATOM     36  P   UNL d   1      -2.004  49.665   6.524 -0.00 +0.07    +0.473 P 
DOCKED: ATOM     37  O   UNL d   1      -2.412  49.280   7.911 -0.00 -0.03    -0.228 OA
DOCKED: BRANCH  36  38
DOCKED: ATOM     38  O   UNL d   1      -3.001  50.679   5.806 -0.00 -0.03    -0.303 OA
DOCKED: ATOM     39  H   UNL d   1      -2.875  51.576   6.185 +0.00 +0.02    +0.222 HD
DOCKED: ENDBRANCH  36  38
DOCKED: BRANCH  36  40
DOCKED: ATOM     40  O   UNL d   1      -1.831  48.488   5.469 -0.01 -0.05    -0.303 OA
DOCKED: ATOM     41  H   UNL d   1      -0.955  48.048   5.555 +0.03 +0.04    +0.222 HD
DOCKED: ENDBRANCH  36  40
DOCKED: ENDBRANCH  35  36
DOCKED: ENDBRANCH   5  35
DOCKED: BRANCH   4  42
DOCKED: ATOM     42  O   UNL d   1       1.452  49.282   8.107 -0.09 -0.09    -0.278 OA
DOCKED: BRANCH  42  43
DOCKED: ATOM     43  P   UNL d   1       1.372  48.043   7.106 -0.12 +0.14    +0.473 P 
DOCKED: ATOM     44  O   UNL d   1       2.498  47.068   7.128 -0.36 -0.07    -0.228 OA
DOCKED: BRANCH  43  45
DOCKED: ATOM     45  O   UNL d   1      -0.047  47.408   7.449 -0.04 -0.08    -0.303 OA
DOCKED: ATOM     46  H   UNL d   1      -0.773  48.041   7.279 +0.03 +0.05    +0.222 HD
DOCKED: ENDBRANCH  43  45
DOCKED: BRANCH  43  47
DOCKED: ATOM     47  O   UNL d   1       1.085  48.735   5.689 -0.13 -0.07    -0.303 OA
DOCKED: ATOM     48  H   UNL d   1       0.190  49.134   5.700 +0.05 +0.05    +0.222 HD
DOCKED: ENDBRANCH  43  47
DOCKED: ENDBRANCH  42  43
DOCKED: ENDBRANCH   4  42
DOCKED: TORSDOF 24
DOCKED: TER
DOCKED: ENDMDL
________________________________________________________________________________


	BEGINNING GENETIC ALGORITHM DOCKING 49 of 100
Run: 49 Seed: 1352267438 256607498 [ Run 49 of 100 GA/GALS ]
Beginning LAMARCKIAN GENETIC ALGORITHM (LGA), with a maximum of 25000000 energy evaluations.

Final-Value: -17.084


	FINAL GENETIC ALGORITHM DOCKED STATE
	_______________________________________________


Detailed state:  trans 56.086 25.951 8.957 quatxyzw 0.508166 0.651604 0.523675 0.207229 center 0.035 0.082 -0.065 ntor 24 89.4404 38.7842 -180.0000 15.0658 -4.2395 -138.8210 -4.5917 -90.4264 31.3789 12.9638 99.3244 -81.8712 -154.5047 79.5326 -15.6528 -119.9459 161.3840 78.7173 20.9196 -39.0196 174.9499 13.2433 -5.2458 173.6472
State:	 56.086  25.951   8.957   0.519  0.666  0.535 156.080     89.44   38.78 -180.00   15.07   -4.24 -138.82   -4.59  -90.43   31.38   12.96   99.32  -81.87 -154.50   79.53  -15.65 -119.95  161.38   78.72   20.92  -39.02  174.95   13.24   -5.25  173.65

DOCKED: MODEL       49
DOCKED: USER    Run = 49
DOCKED: USER    DPF = D:/Protein_go_brrr/autodock/final/2DN3/IHP/dock.dpf
DOCKED: USER  
DOCKED: USER    Estimated Free Energy of Binding    =   +4.94 kcal/mol  [=(1)+(2)+(3)-(4)]
DOCKED: USER    
DOCKED: USER    (1) Final Intermolecular Energy     =   -2.22 kcal/mol
DOCKED: USER        vdW + Hbond + desolv Energy     =   -2.08 kcal/mol
DOCKED: USER        Electrostatic Energy            =   -0.14 kcal/mol
DOCKED: USER    (2) Final Total Internal Energy     =  -14.87 kcal/mol
DOCKED: USER    (3) Torsional Free Energy           =   +7.16 kcal/mol
DOCKED: USER    (4) Unbound System's Energy  [=(2)] =  -14.87 kcal/mol
DOCKED: USER    
DOCKED: USER    
DOCKED: USER    NEWDPF move IHP_ideal_opt.pdbqt
DOCKED: USER    NEWDPF about 0.035000 0.082000 -0.065000
DOCKED: USER    NEWDPF tran0 56.085547 25.950998 8.957327
DOCKED: USER    NEWDPF quaternion0 0.508166 0.651604 0.523675 0.207229
DOCKED: USER    NEWDPF axisangle0 0.519442 0.666063 0.535295 156.079937
DOCKED: USER    NEWDPF quat0 0.519442 0.666063 0.535295 156.079937
DOCKED: USER    NEWDPF dihe0 89.44 38.78 -180.00 15.07 -4.24 -138.82 -4.59 -90.43 31.38 12.96 99.32 -81.87 -154.50 79.53 -15.65 -119.95 161.38 78.72 20.92 -39.02 174.95 13.24 -5.25 173.65 
DOCKED: USER  keepresnum = 1 
DOCKED: USER  
DOCKED: REMARK  24 active torsions:
DOCKED: REMARK  status: ('A' for Active; 'I' for Inactive)
DOCKED: REMARK    1  A    between atoms: C_1  and  O_7 
DOCKED: REMARK    2  A    between atoms: C_2  and  O_12 
DOCKED: REMARK    3  A    between atoms: C_3  and  O_17 
DOCKED: REMARK    4  A    between atoms: C_4  and  O_22 
DOCKED: REMARK    5  A    between atoms: C_5  and  O_27 
DOCKED: REMARK    6  A    between atoms: C_6  and  O_32 
DOCKED: REMARK    7  A    between atoms: O_7  and  P_8 
DOCKED: REMARK    8  A    between atoms: P_8  and  O_10 
DOCKED: REMARK    9  A    between atoms: P_8  and  O_11 
DOCKED: REMARK   10  A    between atoms: O_12  and  P_13 
DOCKED: REMARK   11  A    between atoms: P_13  and  O_15 
DOCKED: REMARK   12  A    between atoms: P_13  and  O_16 
DOCKED: REMARK   13  A    between atoms: O_17  and  P_18 
DOCKED: REMARK   14  A    between atoms: P_18  and  O_20 
DOCKED: REMARK   15  A    between atoms: P_18  and  O_21 
DOCKED: REMARK   16  A    between atoms: O_22  and  P_23 
DOCKED: REMARK   17  A    between atoms: P_23  and  O_25 
DOCKED: REMARK   18  A    between atoms: P_23  and  O_26 
DOCKED: REMARK   19  A    between atoms: O_27  and  P_28 
DOCKED: REMARK   20  A    between atoms: P_28  and  O_30 
DOCKED: REMARK   21  A    between atoms: P_28  and  O_31 
DOCKED: REMARK   22  A    between atoms: O_32  and  P_33 
DOCKED: REMARK   23  A    between atoms: P_33  and  O_35 
DOCKED: REMARK   24  A    between atoms: P_33  and  O_36 
DOCKED: USER                              x       y       z     vdW  Elec       q    Type
DOCKED: USER                           _______ _______ _______ _____ _____    ______ ____
DOCKED: ROOT
DOCKED: ATOM      1  C   UNL d   1      55.014  27.273   9.254 -0.01 +0.05    +0.194 C 
DOCKED: ATOM      2  C   UNL d   1      54.706  26.440   8.009 -0.07 +0.10    +0.194 C 
DOCKED: ATOM      3  C   UNL d   1      55.977  26.101   7.226 -0.04 +0.10    +0.194 C 
DOCKED: ATOM      4  C   UNL d   1      57.064  25.467   8.091 +0.01 +0.06    +0.194 C 
DOCKED: ATOM      5  C   UNL d   1      57.324  26.202   9.399 +0.01 +0.04    +0.194 C 
DOCKED: ATOM      6  C   UNL d   1      56.051  26.596  10.152 +0.01 +0.04    +0.194 C 
DOCKED: ENDROOT
DOCKED: BRANCH   1   7
DOCKED: ATOM      7  O   UNL d   1      53.810  27.399  10.015 -0.04 -0.07    -0.278 OA
DOCKED: BRANCH   7   8
DOCKED: ATOM      8  P   UNL d   1      52.993  28.769   9.922 -0.09 +0.06    +0.473 P 
DOCKED: ATOM      9  O   UNL d   1      53.155  29.680  11.087 -0.11 -0.01    -0.228 OA
DOCKED: BRANCH   8  10
DOCKED: ATOM     10  O   UNL d   1      53.478  29.416   8.546 -0.20 +0.01    -0.303 OA
DOCKED: ATOM     11  H   UNL d   1      54.412  29.687   8.624 +0.05 -0.00    +0.222 HD
DOCKED: ENDBRANCH   8  10
DOCKED: BRANCH   8  12
DOCKED: ATOM     12  O   UNL d   1      51.503  28.338   9.579 -0.55 -0.09    -0.303 OA
DOCKED: ATOM     13  H   UNL d   1      51.411  27.376   9.400 +0.12 +0.09    +0.222 HD
DOCKED: ENDBRANCH   8  12
DOCKED: ENDBRANCH   7   8
DOCKED: ENDBRANCH   1   7
DOCKED: BRANCH   2  14
DOCKED: ATOM     14  O   UNL d   1      54.076  25.217   8.409 -0.10 -0.15    -0.278 OA
DOCKED: BRANCH  14  15
DOCKED: ATOM     15  P   UNL d   1      52.475  25.215   8.444 -0.07 +0.32    +0.473 P 
DOCKED: ATOM     16  O   UNL d   1      51.791  24.027   7.843 -0.26 -0.17    -0.228 OA
DOCKED: BRANCH  15  17
DOCKED: ATOM     17  O   UNL d   1      52.122  25.416   9.985 -0.17 -0.14    -0.303 OA
DOCKED: ATOM     18  H   UNL d   1      52.129  26.363  10.226 +0.10 +0.09    +0.222 HD
DOCKED: ENDBRANCH  15  17
DOCKED: BRANCH  15  19
DOCKED: ATOM     19  O   UNL d   1      52.063  26.625   7.835 -0.21 -0.25    -0.303 OA
DOCKED: ATOM     20  H   UNL d   1      52.605  27.348   8.201 +0.09 +0.14    +0.222 HD
DOCKED: ENDBRANCH  15  19
DOCKED: ENDBRANCH  14  15
DOCKED: ENDBRANCH   2  14
DOCKED: BRANCH   6  21
DOCKED: ATOM     21  O   UNL d   1      56.434  27.549  11.140 +0.00 -0.05    -0.278 OA
DOCKED: BRANCH  21  22
DOCKED: ATOM     22  P   UNL d   1      56.834  29.029  10.700 +0.01 +0.06    +0.473 P 
DOCKED: ATOM     23  O   UNL d   1      56.485  29.473   9.320 -0.00 -0.02    -0.228 OA
DOCKED: BRANCH  22  24
DOCKED: ATOM     24  O   UNL d   1      56.188  29.900  11.865 +0.00 -0.03    -0.303 OA
DOCKED: ATOM     25  H   UNL d   1      55.203  29.870  11.763 +0.02 +0.02    +0.222 HD
DOCKED: ENDBRANCH  22  24
DOCKED: BRANCH  22  26
DOCKED: ATOM     26  O   UNL d   1      58.391  29.072  11.079 +0.00 -0.03    -0.303 OA
DOCKED: ATOM     27  H   UNL d   1      58.826  28.261  10.745 +0.00 +0.03    +0.222 HD
DOCKED: ENDBRANCH  22  26
DOCKED: ENDBRANCH  21  22
DOCKED: ENDBRANCH   6  21
DOCKED: BRANCH   3  28
DOCKED: ATOM     28  O   UNL d   1      55.636  25.111   6.264 -0.22 -0.20    -0.278 OA
DOCKED: BRANCH  28  29
DOCKED: ATOM     29  P   UNL d   1      55.922  25.361   4.717 +0.01 +0.39    +0.473 P 
DOCKED: ATOM     30  O   UNL d   1      54.931  24.774   3.779 -0.06 -0.25    -0.228 OA
DOCKED: BRANCH  29  31
DOCKED: ATOM     31  O   UNL d   1      56.068  26.955   4.714 -0.38 -0.27    -0.303 OA
DOCKED: ATOM     32  H   UNL d   1      56.662  27.217   5.455 +0.02 +0.12    +0.222 HD
DOCKED: ENDBRANCH  29  31
DOCKED: BRANCH  29  33
DOCKED: ATOM     33  O   UNL d   1      57.429  24.869   4.572 -0.01 -0.12    -0.303 OA
DOCKED: ATOM     34  H   UNL d   1      57.905  25.038   5.422 +0.01 +0.07    +0.222 HD
DOCKED: ENDBRANCH  29  33
DOCKED: ENDBRANCH  28  29
DOCKED: ENDBRANCH   3  28
DOCKED: BRANCH   5  35
DOCKED: ATOM     35  O   UNL d   1      58.032  25.281  10.227 +0.00 -0.05    -0.278 OA
DOCKED: BRANCH  35  36
DOCKED: ATOM     36  P   UNL d   1      59.435  25.689  10.866 +0.00 +0.07    +0.473 P 
DOCKED: ATOM     37  O   UNL d   1      60.354  24.552  11.184 +0.00 -0.03    -0.228 OA
DOCKED: BRANCH  36  38
DOCKED: ATOM     38  O   UNL d   1      60.005  26.706   9.781 +0.00 -0.04    -0.303 OA
DOCKED: ATOM     39  H   UNL d   1      59.778  26.379   8.884 +0.00 +0.03    +0.222 HD
DOCKED: ENDBRANCH  36  38
DOCKED: BRANCH  36  40
DOCKED: ATOM     40  O   UNL d   1      58.999  26.625  12.076 +0.00 -0.04    -0.303 OA
DOCKED: ATOM     41  H   UNL d   1      58.148  27.082  11.894 +0.00 +0.03    +0.222 HD
DOCKED: ENDBRANCH  36  40
DOCKED: ENDBRANCH  35  36
DOCKED: ENDBRANCH   5  35
DOCKED: BRANCH   4  42
DOCKED: ATOM     42  O   UNL d   1      58.278  25.516   7.333 +0.00 -0.07    -0.278 OA
DOCKED: BRANCH  42  43
DOCKED: ATOM     43  P   UNL d   1      58.877  26.937   6.927 +0.01 +0.10    +0.473 P 
DOCKED: ATOM     44  O   UNL d   1      60.281  27.231   7.330 +0.00 -0.03    -0.228 OA
DOCKED: BRANCH  43  45
DOCKED: ATOM     45  O   UNL d   1      58.626  26.986   5.356 +0.00 -0.08    -0.303 OA
DOCKED: ATOM     46  H   UNL d   1      57.867  26.427   5.097 +0.01 +0.08    +0.222 HD
DOCKED: ENDBRANCH  43  45
DOCKED: BRANCH  43  47
DOCKED: ATOM     47  O   UNL d   1      57.773  27.967   7.465 +0.01 -0.07    -0.303 OA
DOCKED: ATOM     48  H   UNL d   1      58.049  28.308   8.341 +0.01 +0.04    +0.222 HD
DOCKED: ENDBRANCH  43  47
DOCKED: ENDBRANCH  42  43
DOCKED: ENDBRANCH   4  42
DOCKED: TORSDOF 24
DOCKED: TER
DOCKED: ENDMDL
________________________________________________________________________________


	BEGINNING GENETIC ALGORITHM DOCKING 50 of 100
Run: 50 Seed: 1488495697 9944240 [ Run 50 of 100 GA/GALS ]
Beginning LAMARCKIAN GENETIC ALGORITHM (LGA), with a maximum of 25000000 energy evaluations.

Final-Value: -14.686


	FINAL GENETIC ALGORITHM DOCKED STATE
	_______________________________________________


Detailed state:  trans -6.177 26.207 -3.150 quatxyzw 0.657323 0.747097 -0.097802 -0.014390 center 0.035 0.082 -0.065 ntor 24 156.3325 70.8161 44.6823 117.9443 32.9097 -104.1853 -120.8620 38.8753 -12.8358 64.7640 25.7343 -91.4075 -17.7197 -9.7700 -59.4283 20.5652 -10.7825 -74.1347 -4.0222 -32.0395 -4.8625 174.3088 -21.1894 1.6506
State:	 -6.177  26.207  -3.150   0.657  0.747 -0.098 -178.351    156.33   70.82   44.68  117.94   32.91 -104.19 -120.86   38.88  -12.84   64.76   25.73  -91.41  -17.72   -9.77  -59.43   20.57  -10.78  -74.13   -4.02  -32.04   -4.86  174.31  -21.19    1.65

DOCKED: MODEL       50
DOCKED: USER    Run = 50
DOCKED: USER    DPF = D:/Protein_go_brrr/autodock/final/2DN3/IHP/dock.dpf
DOCKED: USER  
DOCKED: USER    Estimated Free Energy of Binding    =   +6.98 kcal/mol  [=(1)+(2)+(3)-(4)]
DOCKED: USER    
DOCKED: USER    (1) Final Intermolecular Energy     =   -0.18 kcal/mol
DOCKED: USER        vdW + Hbond + desolv Energy     =   -0.17 kcal/mol
DOCKED: USER        Electrostatic Energy            =   -0.01 kcal/mol
DOCKED: USER    (2) Final Total Internal Energy     =  -14.51 kcal/mol
DOCKED: USER    (3) Torsional Free Energy           =   +7.16 kcal/mol
DOCKED: USER    (4) Unbound System's Energy  [=(2)] =  -14.51 kcal/mol
DOCKED: USER    
DOCKED: USER    
DOCKED: USER    NEWDPF move IHP_ideal_opt.pdbqt
DOCKED: USER    NEWDPF about 0.035000 0.082000 -0.065000
DOCKED: USER    NEWDPF tran0 -6.176716 26.206706 -3.149581
DOCKED: USER    NEWDPF quaternion0 0.657323 0.747097 -0.097802 -0.014390
DOCKED: USER    NEWDPF axisangle0 0.657391 0.747174 -0.097812 -178.350991
DOCKED: USER    NEWDPF quat0 0.657391 0.747174 -0.097812 -178.350991
DOCKED: USER    NEWDPF dihe0 156.33 70.82 44.68 117.94 32.91 -104.19 -120.86 38.88 -12.84 64.76 25.73 -91.41 -17.72 -9.77 -59.43 20.57 -10.78 -74.13 -4.02 -32.04 -4.86 174.31 -21.19 1.65 
DOCKED: USER  keepresnum = 1 
DOCKED: USER  
DOCKED: REMARK  24 active torsions:
DOCKED: REMARK  status: ('A' for Active; 'I' for Inactive)
DOCKED: REMARK    1  A    between atoms: C_1  and  O_7 
DOCKED: REMARK    2  A    between atoms: C_2  and  O_12 
DOCKED: REMARK    3  A    between atoms: C_3  and  O_17 
DOCKED: REMARK    4  A    between atoms: C_4  and  O_22 
DOCKED: REMARK    5  A    between atoms: C_5  and  O_27 
DOCKED: REMARK    6  A    between atoms: C_6  and  O_32 
DOCKED: REMARK    7  A    between atoms: O_7  and  P_8 
DOCKED: REMARK    8  A    between atoms: P_8  and  O_10 
DOCKED: REMARK    9  A    between atoms: P_8  and  O_11 
DOCKED: REMARK   10  A    between atoms: O_12  and  P_13 
DOCKED: REMARK   11  A    between atoms: P_13  and  O_15 
DOCKED: REMARK   12  A    between atoms: P_13  and  O_16 
DOCKED: REMARK   13  A    between atoms: O_17  and  P_18 
DOCKED: REMARK   14  A    between atoms: P_18  and  O_20 
DOCKED: REMARK   15  A    between atoms: P_18  and  O_21 
DOCKED: REMARK   16  A    between atoms: O_22  and  P_23 
DOCKED: REMARK   17  A    between atoms: P_23  and  O_25 
DOCKED: REMARK   18  A    between atoms: P_23  and  O_26 
DOCKED: REMARK   19  A    between atoms: O_27  and  P_28 
DOCKED: REMARK   20  A    between atoms: P_28  and  O_30 
DOCKED: REMARK   21  A    between atoms: P_28  and  O_31 
DOCKED: REMARK   22  A    between atoms: O_32  and  P_33 
DOCKED: REMARK   23  A    between atoms: P_33  and  O_35 
DOCKED: REMARK   24  A    between atoms: P_33  and  O_36 
DOCKED: USER                              x       y       z     vdW  Elec       q    Type
DOCKED: USER                           _______ _______ _______ _____ _____    ______ ____
DOCKED: ROOT
DOCKED: ATOM      1  C   UNL d   1      -7.306  27.200  -4.000 +0.00 +0.00    +0.194 C 
DOCKED: ATOM      2  C   UNL d   1      -7.889  25.944  -3.349 +0.00 +0.00    +0.194 C 
DOCKED: ATOM      3  C   UNL d   1      -6.991  24.725  -3.564 +0.00 +0.00    +0.194 C 
DOCKED: ATOM      4  C   UNL d   1      -5.540  24.967  -3.154 -0.00 -0.00    +0.194 C 
DOCKED: ATOM      5  C   UNL d   1      -4.953  26.267  -3.688 -0.00 +0.00    +0.194 C 
DOCKED: ATOM      6  C   UNL d   1      -5.878  27.476  -3.528 +0.00 +0.00    +0.194 C 
DOCKED: ENDROOT
DOCKED: BRANCH   1   7
DOCKED: ATOM      7  O   UNL d   1      -8.107  28.318  -3.610 +0.00 -0.01    -0.278 OA
DOCKED: BRANCH   7   8
DOCKED: ATOM      8  P   UNL d   1      -8.703  29.260  -4.754 +0.00 +0.01    +0.473 P 
DOCKED: ATOM      9  O   UNL d   1      -9.069  28.564  -6.018 +0.00 -0.01    -0.228 OA
DOCKED: BRANCH   8  10
DOCKED: ATOM     10  O   UNL d   1      -9.942  29.981  -4.054 +0.00 -0.01    -0.303 OA
DOCKED: ATOM     11  H   UNL d   1     -10.035  29.656  -3.139 +0.00 +0.01    +0.222 HD
DOCKED: ENDBRANCH   8  10
DOCKED: BRANCH   8  12
DOCKED: ATOM     12  O   UNL d   1      -7.661  30.450  -4.894 +0.00 -0.01    -0.303 OA
DOCKED: ATOM     13  H   UNL d   1      -6.752  30.202  -4.613 +0.00 +0.01    +0.222 HD
DOCKED: ENDBRANCH   8  12
DOCKED: ENDBRANCH   7   8
DOCKED: ENDBRANCH   1   7
DOCKED: BRANCH   2  14
DOCKED: ATOM     14  O   UNL d   1      -8.024  26.169  -1.940 +0.00 -0.00    -0.278 OA
DOCKED: BRANCH  14  15
DOCKED: ATOM     15  P   UNL d   1      -9.485  26.563  -1.415 +0.00 +0.01    +0.473 P 
DOCKED: ATOM     16  O   UNL d   1     -10.629  25.752  -1.939 +0.00 -0.00    -0.228 OA
DOCKED: BRANCH  15  17
DOCKED: ATOM     17  O   UNL d   1      -9.357  26.496   0.172 +0.00 -0.00    -0.303 OA
DOCKED: ATOM     18  H   UNL d   1      -8.968  25.648   0.458 +0.00 +0.00    +0.222 HD
DOCKED: ENDBRANCH  15  17
DOCKED: BRANCH  15  19
DOCKED: ATOM     19  O   UNL d   1      -9.586  28.131  -1.662 +0.00 -0.01    -0.303 OA
DOCKED: ATOM     20  H   UNL d   1      -9.455  28.357  -2.601 +0.00 +0.00    +0.222 HD
DOCKED: ENDBRANCH  15  19
DOCKED: ENDBRANCH  14  15
DOCKED: ENDBRANCH   2  14
DOCKED: BRANCH   6  21
DOCKED: ATOM     21  O   UNL d   1      -5.354  28.508  -4.361 +0.00 -0.01    -0.278 OA
DOCKED: BRANCH  21  22
DOCKED: ATOM     22  P   UNL d   1      -4.626  29.764  -3.701 +0.00 +0.02    +0.473 P 
DOCKED: ATOM     23  O   UNL d   1      -5.052  30.190  -2.337 +0.00 -0.01    -0.228 OA
DOCKED: BRANCH  22  24
DOCKED: ATOM     24  O   UNL d   1      -3.093  29.354  -3.824 -0.00 -0.01    -0.303 OA
DOCKED: ATOM     25  H   UNL d   1      -3.029  28.369  -3.732 +0.01 +0.01    +0.222 HD
DOCKED: ENDBRANCH  22  24
DOCKED: BRANCH  22  26
DOCKED: ATOM     26  O   UNL d   1      -4.767  30.867  -4.857 +0.00 -0.01    -0.303 OA
DOCKED: ATOM     27  H   UNL d   1      -5.656  31.273  -4.807 +0.00 +0.01    +0.222 HD
DOCKED: ENDBRANCH  22  26
DOCKED: ENDBRANCH  21  22
DOCKED: ENDBRANCH   6  21
DOCKED: BRANCH   3  28
DOCKED: ATOM     28  O   UNL d   1      -7.458  23.692  -2.706 +0.00 -0.00    -0.278 OA
DOCKED: BRANCH  28  29
DOCKED: ATOM     29  P   UNL d   1      -7.165  23.752  -1.141 +0.00 -0.00    +0.473 P 
DOCKED: ATOM     30  O   UNL d   1      -6.288  24.865  -0.696 +0.00 +0.00    -0.228 OA
DOCKED: BRANCH  29  31
DOCKED: ATOM     31  O   UNL d   1      -8.662  23.736  -0.576 +0.00 -0.00    -0.303 OA
DOCKED: ATOM     32  H   UNL d   1      -9.093  24.592  -0.804 +0.00 +0.00    +0.222 HD
DOCKED: ENDBRANCH  29  31
DOCKED: BRANCH  29  33
DOCKED: ATOM     33  O   UNL d   1      -6.660  22.272  -0.839 +0.00 +0.00    -0.303 OA
DOCKED: ATOM     34  H   UNL d   1      -5.671  22.267  -0.826 +0.00 -0.00    +0.222 HD
DOCKED: ENDBRANCH  29  33
DOCKED: ENDBRANCH  28  29
DOCKED: ENDBRANCH   3  28
DOCKED: BRANCH   5  35
DOCKED: ATOM     35  O   UNL d   1      -3.792  26.520  -2.900 -0.00 +0.00    -0.278 OA
DOCKED: BRANCH  35  36
DOCKED: ATOM     36  P   UNL d   1      -2.338  26.372  -3.539 -0.03 +0.00    +0.473 P 
DOCKED: ATOM     37  O   UNL d   1      -2.228  26.739  -4.985 -0.03 +0.00    -0.228 OA
DOCKED: BRANCH  36  38
DOCKED: ATOM     38  O   UNL d   1      -1.461  27.278  -2.566 -0.12 -0.02    -0.303 OA
DOCKED: ATOM     39  H   UNL d   1      -1.538  28.216  -2.843 +0.02 +0.01    +0.222 HD
DOCKED: ENDBRANCH  36  38
DOCKED: BRANCH  36  40
DOCKED: ATOM     40  O   UNL d   1      -1.940  24.885  -3.139 -0.04 +0.01    -0.303 OA
DOCKED: ATOM     41  H   UNL d   1      -2.732  24.331  -2.962 +0.01 -0.01    +0.222 HD
DOCKED: ENDBRANCH  36  40
DOCKED: ENDBRANCH  35  36
DOCKED: ENDBRANCH   5  35
DOCKED: BRANCH   4  42
DOCKED: ATOM     42  O   UNL d   1      -4.768  23.897  -3.710 -0.00 +0.00    -0.278 OA
DOCKED: BRANCH  42  43
DOCKED: ATOM     43  P   UNL d   1      -4.158  22.796  -2.730 +0.00 -0.01    +0.473 P 
DOCKED: ATOM     44  O   UNL d   1      -3.843  23.216  -1.336 -0.00 +0.01    -0.228 OA
DOCKED: BRANCH  43  45
DOCKED: ATOM     45  O   UNL d   1      -5.218  21.613  -2.830 -0.00 +0.00    -0.303 OA
DOCKED: ATOM     46  H   UNL d   1      -6.134  21.945  -2.739 +0.00 -0.00    +0.222 HD
DOCKED: ENDBRANCH  43  45
DOCKED: BRANCH  43  47
DOCKED: ATOM     47  O   UNL d   1      -2.927  22.202  -3.568 -0.01 +0.01    -0.303 OA
DOCKED: ATOM     48  H   UNL d   1      -2.129  22.744  -3.398 +0.02 -0.01    +0.222 HD
DOCKED: ENDBRANCH  43  47
DOCKED: ENDBRANCH  42  43
DOCKED: ENDBRANCH   4  42
DOCKED: TORSDOF 24
DOCKED: TER
DOCKED: ENDMDL
________________________________________________________________________________


	BEGINNING GENETIC ALGORITHM DOCKING 51 of 100
Run: 51 Seed: 820074517 1529974952 [ Run 51 of 100 GA/GALS ]
Beginning LAMARCKIAN GENETIC ALGORITHM (LGA), with a maximum of 25000000 energy evaluations.

Final-Value: -16.451


	FINAL GENETIC ALGORITHM DOCKED STATE
	_______________________________________________


Detailed state:  trans 52.228 28.537 16.240 quatxyzw -0.773038 -0.389884 0.391684 0.311424 center 0.035 0.082 -0.065 ntor 24 -162.2527 -8.9946 78.0489 124.5371 127.2800 104.3578 -99.1493 21.3463 93.0089 10.4595 150.5200 156.0270 78.3027 -21.2052 -144.4108 20.3672 -138.4106 176.5786 -16.0948 -29.1095 3.8062 177.5531 -15.4974 -7.4973
State:	 52.228  28.537  16.240  -0.813 -0.410  0.412 143.710   -162.25   -8.99   78.05  124.54  127.28  104.36  -99.15   21.35   93.01   10.46  150.52  156.03   78.30  -21.21 -144.41   20.37 -138.41  176.58  -16.09  -29.11    3.81  177.55  -15.50   -7.50

DOCKED: MODEL       51
DOCKED: USER    Run = 51
DOCKED: USER    DPF = D:/Protein_go_brrr/autodock/final/2DN3/IHP/dock.dpf
DOCKED: USER  
DOCKED: USER    Estimated Free Energy of Binding    =   +5.46 kcal/mol  [=(1)+(2)+(3)-(4)]
DOCKED: USER    
DOCKED: USER    (1) Final Intermolecular Energy     =   -1.70 kcal/mol
DOCKED: USER        vdW + Hbond + desolv Energy     =   -1.76 kcal/mol
DOCKED: USER        Electrostatic Energy            =   +0.06 kcal/mol
DOCKED: USER    (2) Final Total Internal Energy     =  -14.75 kcal/mol
DOCKED: USER    (3) Torsional Free Energy           =   +7.16 kcal/mol
DOCKED: USER    (4) Unbound System's Energy  [=(2)] =  -14.75 kcal/mol
DOCKED: USER    
DOCKED: USER    
DOCKED: USER    NEWDPF move IHP_ideal_opt.pdbqt
DOCKED: USER    NEWDPF about 0.035000 0.082000 -0.065000
DOCKED: USER    NEWDPF tran0 52.228268 28.536989 16.240401
DOCKED: USER    NEWDPF quaternion0 -0.773038 -0.389884 0.391684 0.311424
DOCKED: USER    NEWDPF axisangle0 -0.813493 -0.410288 0.412181 143.709804
DOCKED: USER    NEWDPF quat0 -0.813493 -0.410288 0.412181 143.709804
DOCKED: USER    NEWDPF dihe0 -162.25 -8.99 78.05 124.54 127.28 104.36 -99.15 21.35 93.01 10.46 150.52 156.03 78.30 -21.21 -144.41 20.37 -138.41 176.58 -16.09 -29.11 3.81 177.55 -15.50 -7.50 
DOCKED: USER  keepresnum = 1 
DOCKED: USER  
DOCKED: REMARK  24 active torsions:
DOCKED: REMARK  status: ('A' for Active; 'I' for Inactive)
DOCKED: REMARK    1  A    between atoms: C_1  and  O_7 
DOCKED: REMARK    2  A    between atoms: C_2  and  O_12 
DOCKED: REMARK    3  A    between atoms: C_3  and  O_17 
DOCKED: REMARK    4  A    between atoms: C_4  and  O_22 
DOCKED: REMARK    5  A    between atoms: C_5  and  O_27 
DOCKED: REMARK    6  A    between atoms: C_6  and  O_32 
DOCKED: REMARK    7  A    between atoms: O_7  and  P_8 
DOCKED: REMARK    8  A    between atoms: P_8  and  O_10 
DOCKED: REMARK    9  A    between atoms: P_8  and  O_11 
DOCKED: REMARK   10  A    between atoms: O_12  and  P_13 
DOCKED: REMARK   11  A    between atoms: P_13  and  O_15 
DOCKED: REMARK   12  A    between atoms: P_13  and  O_16 
DOCKED: REMARK   13  A    between atoms: O_17  and  P_18 
DOCKED: REMARK   14  A    between atoms: P_18  and  O_20 
DOCKED: REMARK   15  A    between atoms: P_18  and  O_21 
DOCKED: REMARK   16  A    between atoms: O_22  and  P_23 
DOCKED: REMARK   17  A    between atoms: P_23  and  O_25 
DOCKED: REMARK   18  A    between atoms: P_23  and  O_26 
DOCKED: REMARK   19  A    between atoms: O_27  and  P_28 
DOCKED: REMARK   20  A    between atoms: P_28  and  O_30 
DOCKED: REMARK   21  A    between atoms: P_28  and  O_31 
DOCKED: REMARK   22  A    between atoms: O_32  and  P_33 
DOCKED: REMARK   23  A    between atoms: P_33  and  O_35 
DOCKED: REMARK   24  A    between atoms: P_33  and  O_36 
DOCKED: USER                              x       y       z     vdW  Elec       q    Type
DOCKED: USER                           _______ _______ _______ _____ _____    ______ ____
DOCKED: ROOT
DOCKED: ATOM      1  C   UNL d   1      51.677  28.810  14.626 -0.11 +0.05    +0.194 C 
DOCKED: ATOM      2  C   UNL d   1      50.644  29.056  15.728 -0.07 +0.05    +0.194 C 
DOCKED: ATOM      3  C   UNL d   1      50.682  27.960  16.795 -0.09 +0.07    +0.194 C 
DOCKED: ATOM      4  C   UNL d   1      52.080  27.717  17.358 -0.04 +0.05    +0.194 C 
DOCKED: ATOM      5  C   UNL d   1      53.162  27.580  16.295 -0.04 +0.05    +0.194 C 
DOCKED: ATOM      6  C   UNL d   1      53.087  28.640  15.194 -0.05 +0.04    +0.194 C 
DOCKED: ENDROOT
DOCKED: BRANCH   1   7
DOCKED: ATOM      7  O   UNL d   1      51.698  29.955  13.770 -0.13 -0.04    -0.278 OA
DOCKED: BRANCH   7   8
DOCKED: ATOM      8  P   UNL d   1      51.795  29.722  12.193 -0.17 +0.05    +0.473 P 
DOCKED: ATOM      9  O   UNL d   1      50.788  30.459  11.382 -0.34 +0.01    -0.228 OA
DOCKED: BRANCH   8  10
DOCKED: ATOM     10  O   UNL d   1      53.299  30.116  11.836 -0.06 -0.01    -0.303 OA
DOCKED: ATOM     11  H   UNL d   1      53.897  29.790  12.534 +0.04 +0.02    +0.222 HD
DOCKED: ENDBRANCH   8  10
DOCKED: BRANCH   8  12
DOCKED: ATOM     12  O   UNL d   1      51.813  28.143  12.009 -0.15 -0.07    -0.303 OA
DOCKED: ATOM     13  H   UNL d   1      52.518  27.702  12.534 +0.08 +0.06    +0.222 HD
DOCKED: ENDBRANCH   8  12
DOCKED: ENDBRANCH   7   8
DOCKED: ENDBRANCH   1   7
DOCKED: BRANCH   2  14
DOCKED: ATOM     14  O   UNL d   1      50.922  30.314  16.355 -0.07 -0.06    -0.278 OA
DOCKED: BRANCH  14  15
DOCKED: ATOM     15  P   UNL d   1      49.988  31.545  15.935 -0.14 +0.09    +0.473 P 
DOCKED: ATOM     16  O   UNL d   1      48.558  31.230  15.629 -0.27 -0.05    -0.228 OA
DOCKED: BRANCH  15  17
DOCKED: ATOM     17  O   UNL d   1      50.149  32.581  17.134 -0.04 -0.06    -0.303 OA
DOCKED: ATOM     18  H   UNL d   1      50.514  32.146  17.928 +0.03 +0.04    +0.222 HD
DOCKED: ENDBRANCH  15  17
DOCKED: BRANCH  15  19
DOCKED: ATOM     19  O   UNL d   1      50.793  32.275  14.773 -0.11 -0.05    -0.303 OA
DOCKED: ATOM     20  H   UNL d   1      50.884  31.706  13.986 +0.06 +0.02    +0.222 HD
DOCKED: ENDBRANCH  15  19
DOCKED: ENDBRANCH  14  15
DOCKED: ENDBRANCH   2  14
DOCKED: BRANCH   6  21
DOCKED: ATOM     21  O   UNL d   1      53.916  28.185  14.126 -0.02 -0.05    -0.278 OA
DOCKED: BRANCH  21  22
DOCKED: ATOM     22  P   UNL d   1      55.399  28.753  13.979 +0.00 +0.07    +0.473 P 
DOCKED: ATOM     23  O   UNL d   1      55.720  29.583  12.782 -0.00 -0.03    -0.228 OA
DOCKED: BRANCH  22  24
DOCKED: ATOM     24  O   UNL d   1      55.607  29.488  15.375 -0.00 -0.04    -0.303 OA
DOCKED: ATOM     25  H   UNL d   1      55.527  28.811  16.095 +0.00 +0.03    +0.222 HD
DOCKED: ENDBRANCH  22  24
DOCKED: BRANCH  22  26
DOCKED: ATOM     26  O   UNL d   1      56.276  27.425  14.170 -0.00 -0.05    -0.303 OA
DOCKED: ATOM     27  H   UNL d   1      56.215  27.130  15.101 +0.00 +0.04    +0.222 HD
DOCKED: ENDBRANCH  22  26
DOCKED: ENDBRANCH  21  22
DOCKED: ENDBRANCH   6  21
DOCKED: BRANCH   3  28
DOCKED: ATOM     28  O   UNL d   1      49.904  28.409  17.897 -0.07 -0.10    -0.278 OA
DOCKED: BRANCH  28  29
DOCKED: ATOM     29  P   UNL d   1      50.440  29.576  18.838 -0.02 +0.14    +0.473 P 
DOCKED: ATOM     30  O   UNL d   1      51.822  30.042  18.557 -0.01 -0.05    -0.228 OA
DOCKED: BRANCH  29  31
DOCKED: ATOM     31  O   UNL d   1      49.263  30.645  18.656 -0.03 -0.09    -0.303 OA
DOCKED: ATOM     32  H   UNL d   1      49.068  30.737  17.695 +0.05 +0.06    +0.222 HD
DOCKED: ENDBRANCH  29  31
DOCKED: BRANCH  29  33
DOCKED: ATOM     33  O   UNL d   1      50.161  28.989  20.291 -0.01 -0.12    -0.303 OA
DOCKED: ATOM     34  H   UNL d   1      50.882  28.354  20.525 +0.01 +0.08    +0.222 HD
DOCKED: ENDBRANCH  29  33
DOCKED: ENDBRANCH  28  29
DOCKED: ENDBRANCH   3  28
DOCKED: BRANCH   5  35
DOCKED: ATOM     35  O   UNL d   1      54.401  27.770  16.976 -0.00 -0.05    -0.278 OA
DOCKED: BRANCH  35  36
DOCKED: ATOM     36  P   UNL d   1      55.452  26.576  17.082 -0.00 +0.09    +0.473 P 
DOCKED: ATOM     37  O   UNL d   1      55.365  25.748  18.325 -0.00 -0.04    -0.228 OA
DOCKED: BRANCH  36  38
DOCKED: ATOM     38  O   UNL d   1      55.168  25.770  15.738 -0.00 -0.07    -0.303 OA
DOCKED: ATOM     39  H   UNL d   1      54.749  26.372  15.086 +0.01 +0.05    +0.222 HD
DOCKED: ENDBRANCH  36  38
DOCKED: BRANCH  36  40
DOCKED: ATOM     40  O   UNL d   1      56.834  27.313  16.802 +0.00 -0.04    -0.303 OA
DOCKED: ATOM     41  H   UNL d   1      56.722  28.075  16.192 +0.00 +0.03    +0.222 HD
DOCKED: ENDBRANCH  36  40
DOCKED: ENDBRANCH  35  36
DOCKED: ENDBRANCH   5  35
DOCKED: BRANCH   4  42
DOCKED: ATOM     42  O   UNL d   1      52.030  26.476  18.070 -0.02 -0.09    -0.278 OA
DOCKED: BRANCH  42  43
DOCKED: ATOM     43  P   UNL d   1      52.342  26.472  19.635 +0.00 +0.13    +0.473 P 
DOCKED: ATOM     44  O   UNL d   1      53.194  25.370  20.162 -0.00 -0.06    -0.228 OA
DOCKED: BRANCH  43  45
DOCKED: ATOM     45  O   UNL d   1      52.937  27.928  19.876 -0.00 -0.07    -0.303 OA
DOCKED: ATOM     46  H   UNL d   1      52.230  28.604  19.902 +0.01 +0.06    +0.222 HD
DOCKED: ENDBRANCH  43  45
DOCKED: BRANCH  43  47
DOCKED: ATOM     47  O   UNL d   1      50.888  26.600  20.298 -0.00 -0.11    -0.303 OA
DOCKED: ATOM     48  H   UNL d   1      50.281  27.034  19.663 +0.02 +0.09    +0.222 HD
DOCKED: ENDBRANCH  43  47
DOCKED: ENDBRANCH  42  43
DOCKED: ENDBRANCH   4  42
DOCKED: TORSDOF 24
DOCKED: TER
DOCKED: ENDMDL
________________________________________________________________________________


	BEGINNING GENETIC ALGORITHM DOCKING 52 of 100
Run: 52 Seed: 443484022 1612424106 [ Run 52 of 100 GA/GALS ]
Beginning LAMARCKIAN GENETIC ALGORITHM (LGA), with a maximum of 25000000 energy evaluations.

Final-Value: -18.332


	FINAL GENETIC ALGORITHM DOCKED STATE
	_______________________________________________


Detailed state:  trans 0.879 39.219 19.807 quatxyzw 0.036228 -0.922899 -0.202921 0.325221 center 0.035 0.082 -0.065 ntor 24 -159.4987 -180.0000 127.2284 8.1881 0.5520 162.0457 -71.9138 -107.3112 6.2944 12.9467 130.6499 173.0160 39.7228 31.6515 21.2816 -47.4621 -118.1327 105.1060 -140.5968 -17.8124 115.8439 143.7956 139.9312 -52.4104
State:	  0.879  39.219  19.807   0.038 -0.976 -0.215 142.042   -159.50 -180.00  127.23    8.19    0.55  162.05  -71.91 -107.31    6.29   12.95  130.65  173.02   39.72   31.65   21.28  -47.46 -118.13  105.11 -140.60  -17.81  115.84  143.80  139.93  -52.41

DOCKED: MODEL       52
DOCKED: USER    Run = 52
DOCKED: USER    DPF = D:/Protein_go_brrr/autodock/final/2DN3/IHP/dock.dpf
DOCKED: USER  
DOCKED: USER    Estimated Free Energy of Binding    =   +3.27 kcal/mol  [=(1)+(2)+(3)-(4)]
DOCKED: USER    
DOCKED: USER    (1) Final Intermolecular Energy     =   -3.89 kcal/mol
DOCKED: USER        vdW + Hbond + desolv Energy     =   -3.70 kcal/mol
DOCKED: USER        Electrostatic Energy            =   -0.19 kcal/mol
DOCKED: USER    (2) Final Total Internal Energy     =  -14.45 kcal/mol
DOCKED: USER    (3) Torsional Free Energy           =   +7.16 kcal/mol
DOCKED: USER    (4) Unbound System's Energy  [=(2)] =  -14.45 kcal/mol
DOCKED: USER    
DOCKED: USER    
DOCKED: USER    NEWDPF move IHP_ideal_opt.pdbqt
DOCKED: USER    NEWDPF about 0.035000 0.082000 -0.065000
DOCKED: USER    NEWDPF tran0 0.879479 39.218930 19.807096
DOCKED: USER    NEWDPF quaternion0 0.036228 -0.922899 -0.202921 0.325221
DOCKED: USER    NEWDPF axisangle0 0.038310 -0.975953 -0.214587 142.042037
DOCKED: USER    NEWDPF quat0 0.038310 -0.975953 -0.214587 142.042037
DOCKED: USER    NEWDPF dihe0 -159.50 -180.00 127.23 8.19 0.55 162.05 -71.91 -107.31 6.29 12.95 130.65 173.02 39.72 31.65 21.28 -47.46 -118.13 105.11 -140.60 -17.81 115.84 143.80 139.93 -52.41 
DOCKED: USER  keepresnum = 1 
DOCKED: USER  
DOCKED: REMARK  24 active torsions:
DOCKED: REMARK  status: ('A' for Active; 'I' for Inactive)
DOCKED: REMARK    1  A    between atoms: C_1  and  O_7 
DOCKED: REMARK    2  A    between atoms: C_2  and  O_12 
DOCKED: REMARK    3  A    between atoms: C_3  and  O_17 
DOCKED: REMARK    4  A    between atoms: C_4  and  O_22 
DOCKED: REMARK    5  A    between atoms: C_5  and  O_27 
DOCKED: REMARK    6  A    between atoms: C_6  and  O_32 
DOCKED: REMARK    7  A    between atoms: O_7  and  P_8 
DOCKED: REMARK    8  A    between atoms: P_8  and  O_10 
DOCKED: REMARK    9  A    between atoms: P_8  and  O_11 
DOCKED: REMARK   10  A    between atoms: O_12  and  P_13 
DOCKED: REMARK   11  A    between atoms: P_13  and  O_15 
DOCKED: REMARK   12  A    between atoms: P_13  and  O_16 
DOCKED: REMARK   13  A    between atoms: O_17  and  P_18 
DOCKED: REMARK   14  A    between atoms: P_18  and  O_20 
DOCKED: REMARK   15  A    between atoms: P_18  and  O_21 
DOCKED: REMARK   16  A    between atoms: O_22  and  P_23 
DOCKED: REMARK   17  A    between atoms: P_23  and  O_25 
DOCKED: REMARK   18  A    between atoms: P_23  and  O_26 
DOCKED: REMARK   19  A    between atoms: O_27  and  P_28 
DOCKED: REMARK   20  A    between atoms: P_28  and  O_30 
DOCKED: REMARK   21  A    between atoms: P_28  and  O_31 
DOCKED: REMARK   22  A    between atoms: O_32  and  P_33 
DOCKED: REMARK   23  A    between atoms: P_33  and  O_35 
DOCKED: REMARK   24  A    between atoms: P_33  and  O_36 
DOCKED: USER                              x       y       z     vdW  Elec       q    Type
DOCKED: USER                           _______ _______ _______ _____ _____    ______ ____
DOCKED: ROOT
DOCKED: ATOM      1  C   UNL d   1       0.535  38.803  18.166 -0.25 -0.07    +0.194 C 
DOCKED: ATOM      2  C   UNL d   1       1.459  37.839  18.912 -0.27 -0.04    +0.194 C 
DOCKED: ATOM      3  C   UNL d   1       2.500  38.586  19.749 -0.20 -0.04    +0.194 C 
DOCKED: ATOM      4  C   UNL d   1       1.888  39.632  20.677 -0.15 -0.04    +0.194 C 
DOCKED: ATOM      5  C   UNL d   1       0.872  40.543  19.999 -0.11 -0.05    +0.194 C 
DOCKED: ATOM      6  C   UNL d   1      -0.131  39.802  19.113 -0.10 -0.06    +0.194 C 
DOCKED: ENDROOT
DOCKED: BRANCH   1   7
DOCKED: ATOM      7  O   UNL d   1      -0.506  38.038  17.553 -0.11 +0.10    -0.278 OA
DOCKED: BRANCH   7   8
DOCKED: ATOM      8  P   UNL d   1      -1.905  37.914  18.314 -0.00 -0.10    +0.473 P 
DOCKED: ATOM      9  O   UNL d   1      -2.911  38.952  17.960 -0.02 +0.05    -0.228 OA
DOCKED: BRANCH   8  10
DOCKED: ATOM     10  O   UNL d   1      -2.393  36.430  17.986 -0.01 +0.04    -0.303 OA
DOCKED: ATOM     11  H   UNL d   1      -1.640  35.815  18.060 +0.03 -0.03    +0.222 HD
DOCKED: ENDBRANCH   8  10
DOCKED: BRANCH   8  12
DOCKED: ATOM     12  O   UNL d   1      -1.530  37.808  19.854 -0.00 +0.04    -0.303 OA
DOCKED: ATOM     13  H   UNL d   1      -2.087  38.381  20.427 +0.02 -0.03    +0.222 HD
DOCKED: ENDBRANCH   8  12
DOCKED: ENDBRANCH   7   8
DOCKED: ENDBRANCH   1   7
DOCKED: BRANCH   2  14
DOCKED: ATOM     14  O   UNL d   1       0.673  37.020  19.787 -0.08 +0.05    -0.278 OA
DOCKED: BRANCH  14  15
DOCKED: ATOM     15  P   UNL d   1       0.611  35.458  19.441 -0.08 -0.09    +0.473 P 
DOCKED: ATOM     16  O   UNL d   1       1.698  34.600  20.010 -0.20 +0.07    -0.228 OA
DOCKED: BRANCH  15  17
DOCKED: ATOM     17  O   UNL d   1      -0.841  35.012  19.920 -0.01 +0.03    -0.303 OA
DOCKED: ATOM     18  H   UNL d   1      -1.482  35.742  19.826 +0.02 -0.02    +0.222 HD
DOCKED: ENDBRANCH  15  17
DOCKED: BRANCH  15  19
DOCKED: ATOM     19  O   UNL d   1       0.456  35.407  17.859 -0.12 +0.04    -0.303 OA
DOCKED: ATOM     20  H   UNL d   1      -0.277  35.971  17.550 +0.06 -0.03    +0.222 HD
DOCKED: ENDBRANCH  15  19
DOCKED: ENDBRANCH  14  15
DOCKED: ENDBRANCH   2  14
DOCKED: BRANCH   6  21
DOCKED: ATOM     21  O   UNL d   1      -0.770  40.785  18.302 -0.08 +0.16    -0.278 OA
DOCKED: BRANCH  21  22
DOCKED: ATOM     22  P   UNL d   1      -0.157  42.255  18.209 -0.03 -0.30    +0.473 P 
DOCKED: ATOM     23  O   UNL d   1       1.289  42.396  17.875 -0.26 +0.15    -0.228 OA
DOCKED: BRANCH  22  24
DOCKED: ATOM     24  O   UNL d   1      -1.151  42.958  17.183 -0.04 +0.24    -0.303 OA
DOCKED: ATOM     25  H   UNL d   1      -1.049  42.514  16.303 -0.46 -0.39    +0.222 HD
DOCKED: ENDBRANCH  22  24
DOCKED: BRANCH  22  26
DOCKED: ATOM     26  O   UNL d   1      -0.621  42.890  19.606 -0.01 +0.08    -0.303 OA
DOCKED: ATOM     27  H   UNL d   1      -1.286  42.304  20.022 +0.02 -0.05    +0.222 HD
DOCKED: ENDBRANCH  22  26
DOCKED: ENDBRANCH  21  22
DOCKED: ENDBRANCH   6  21
DOCKED: BRANCH   3  28
DOCKED: ATOM     28  O   UNL d   1       3.120  37.637  20.608 -0.28 +0.09    -0.278 OA
DOCKED: BRANCH  28  29
DOCKED: ATOM     29  P   UNL d   1       2.767  37.606  22.160 -0.16 -0.11    +0.473 P 
DOCKED: ATOM     30  O   UNL d   1       3.333  38.717  22.968 -0.10 +0.04    -0.228 OA
DOCKED: BRANCH  29  31
DOCKED: ATOM     31  O   UNL d   1       1.172  37.505  22.082 -0.03 +0.05    -0.303 OA
DOCKED: ATOM     32  H   UNL d   1       0.881  37.816  21.194 +0.06 -0.04    +0.222 HD
DOCKED: ENDBRANCH  29  31
DOCKED: BRANCH  29  33
DOCKED: ATOM     33  O   UNL d   1       3.194  36.128  22.571 -0.25 +0.10    -0.303 OA
DOCKED: ATOM     34  H   UNL d   1       2.815  35.491  21.916 -0.33 -0.11    +0.222 HD
DOCKED: ENDBRANCH  29  33
DOCKED: ENDBRANCH  28  29
DOCKED: ENDBRANCH   3  28
DOCKED: BRANCH   5  35
DOCKED: ATOM     35  O   UNL d   1       0.131  41.150  21.056 -0.01 +0.05    -0.278 OA
DOCKED: BRANCH  35  36
DOCKED: ATOM     36  P   UNL d   1      -1.185  40.448  21.622 +0.01 -0.06    +0.473 P 
DOCKED: ATOM     37  O   UNL d   1      -2.388  40.522  20.735 +0.00 +0.03    -0.228 OA
DOCKED: BRANCH  36  38
DOCKED: ATOM     38  O   UNL d   1      -0.670  38.967  21.903 +0.00 +0.03    -0.303 OA
DOCKED: ATOM     39  H   UNL d   1      -0.407  38.552  21.053 +0.03 -0.03    +0.222 HD
DOCKED: ENDBRANCH  36  38
DOCKED: BRANCH  36  40
DOCKED: ATOM     40  O   UNL d   1      -1.317  41.089  23.071 +0.00 +0.02    -0.303 OA
DOCKED: ATOM     41  H   UNL d   1      -0.441  41.343  23.438 +0.01 -0.02    +0.222 HD
DOCKED: ENDBRANCH  36  40
DOCKED: ENDBRANCH  35  36
DOCKED: ENDBRANCH   5  35
DOCKED: BRANCH   4  42
DOCKED: ATOM     42  O   UNL d   1       2.961  40.463  21.131 -0.14 +0.04    -0.278 OA
DOCKED: BRANCH  42  43
DOCKED: ATOM     43  P   UNL d   1       2.731  41.393  22.406 -0.03 -0.07    +0.473 P 
DOCKED: ATOM     44  O   UNL d   1       3.918  41.712  23.247 -0.03 +0.03    -0.228 OA
DOCKED: BRANCH  43  45
DOCKED: ATOM     45  O   UNL d   1       2.013  42.669  21.782 -0.03 +0.05    -0.303 OA
DOCKED: ATOM     46  H   UNL d   1       1.190  42.424  21.315 +0.03 -0.04    +0.222 HD
DOCKED: ENDBRANCH  43  45
DOCKED: BRANCH  43  47
DOCKED: ATOM     47  O   UNL d   1       1.516  40.676  23.167 -0.00 +0.03    -0.303 OA
DOCKED: ATOM     48  H   UNL d   1       1.161  39.958  22.604 +0.03 -0.03    +0.222 HD
DOCKED: ENDBRANCH  43  47
DOCKED: ENDBRANCH  42  43
DOCKED: ENDBRANCH   4  42
DOCKED: TORSDOF 24
DOCKED: TER
DOCKED: ENDMDL
________________________________________________________________________________


	BEGINNING GENETIC ALGORITHM DOCKING 53 of 100
Run: 53 Seed: 614953555 1690507008 [ Run 53 of 100 GA/GALS ]
Beginning LAMARCKIAN GENETIC ALGORITHM (LGA), with a maximum of 25000000 energy evaluations.

Final-Value: -20.237


	FINAL GENETIC ALGORITHM DOCKED STATE
	_______________________________________________


Detailed state:  trans 15.002 51.233 -7.091 quatxyzw 0.351705 0.658004 -0.580116 0.326802 center 0.035 0.082 -0.065 ntor 24 102.0123 131.6193 96.6406 94.0866 107.2786 93.5039 -86.3687 -97.0879 11.7444 48.7819 11.6716 161.0317 -71.2543 107.9399 179.8577 35.3334 -47.3448 -157.6046 -148.5698 -4.6106 10.3767 16.2032 -180.0000 -3.8538
State:	 15.002  51.233  -7.091   0.372  0.696 -0.614 141.850    102.01  131.62   96.64   94.09  107.28   93.50  -86.37  -97.09   11.74   48.78   11.67  161.03  -71.25  107.94  179.86   35.33  -47.34 -157.60 -148.57   -4.61   10.38   16.20 -180.00   -3.85

DOCKED: MODEL       53
DOCKED: USER    Run = 53
DOCKED: USER    DPF = D:/Protein_go_brrr/autodock/final/2DN3/IHP/dock.dpf
DOCKED: USER  
DOCKED: USER    Estimated Free Energy of Binding    =   +3.43 kcal/mol  [=(1)+(2)+(3)-(4)]
DOCKED: USER    
DOCKED: USER    (1) Final Intermolecular Energy     =   -3.72 kcal/mol
DOCKED: USER        vdW + Hbond + desolv Energy     =   -3.61 kcal/mol
DOCKED: USER        Electrostatic Energy            =   -0.11 kcal/mol
DOCKED: USER    (2) Final Total Internal Energy     =  -16.51 kcal/mol
DOCKED: USER    (3) Torsional Free Energy           =   +7.16 kcal/mol
DOCKED: USER    (4) Unbound System's Energy  [=(2)] =  -16.51 kcal/mol
DOCKED: USER    
DOCKED: USER    
DOCKED: USER    NEWDPF move IHP_ideal_opt.pdbqt
DOCKED: USER    NEWDPF about 0.035000 0.082000 -0.065000
DOCKED: USER    NEWDPF tran0 15.002281 51.232879 -7.091283
DOCKED: USER    NEWDPF quaternion0 0.351705 0.658004 -0.580116 0.326802
DOCKED: USER    NEWDPF axisangle0 0.372138 0.696232 -0.613819 141.850491
DOCKED: USER    NEWDPF quat0 0.372138 0.696232 -0.613819 141.850491
DOCKED: USER    NEWDPF dihe0 102.01 131.62 96.64 94.09 107.28 93.50 -86.37 -97.09 11.74 48.78 11.67 161.03 -71.25 107.94 179.86 35.33 -47.34 -157.60 -148.57 -4.61 10.38 16.20 -180.00 -3.85 
DOCKED: USER  keepresnum = 1 
DOCKED: USER  
DOCKED: REMARK  24 active torsions:
DOCKED: REMARK  status: ('A' for Active; 'I' for Inactive)
DOCKED: REMARK    1  A    between atoms: C_1  and  O_7 
DOCKED: REMARK    2  A    between atoms: C_2  and  O_12 
DOCKED: REMARK    3  A    between atoms: C_3  and  O_17 
DOCKED: REMARK    4  A    between atoms: C_4  and  O_22 
DOCKED: REMARK    5  A    between atoms: C_5  and  O_27 
DOCKED: REMARK    6  A    between atoms: C_6  and  O_32 
DOCKED: REMARK    7  A    between atoms: O_7  and  P_8 
DOCKED: REMARK    8  A    between atoms: P_8  and  O_10 
DOCKED: REMARK    9  A    between atoms: P_8  and  O_11 
DOCKED: REMARK   10  A    between atoms: O_12  and  P_13 
DOCKED: REMARK   11  A    between atoms: P_13  and  O_15 
DOCKED: REMARK   12  A    between atoms: P_13  and  O_16 
DOCKED: REMARK   13  A    between atoms: O_17  and  P_18 
DOCKED: REMARK   14  A    between atoms: P_18  and  O_20 
DOCKED: REMARK   15  A    between atoms: P_18  and  O_21 
DOCKED: REMARK   16  A    between atoms: O_22  and  P_23 
DOCKED: REMARK   17  A    between atoms: P_23  and  O_25 
DOCKED: REMARK   18  A    between atoms: P_23  and  O_26 
DOCKED: REMARK   19  A    between atoms: O_27  and  P_28 
DOCKED: REMARK   20  A    between atoms: P_28  and  O_30 
DOCKED: REMARK   21  A    between atoms: P_28  and  O_31 
DOCKED: REMARK   22  A    between atoms: O_32  and  P_33 
DOCKED: REMARK   23  A    between atoms: P_33  and  O_35 
DOCKED: REMARK   24  A    between atoms: P_33  and  O_36 
DOCKED: USER                              x       y       z     vdW  Elec       q    Type
DOCKED: USER                           _______ _______ _______ _____ _____    ______ ____
DOCKED: ROOT
DOCKED: ATOM      1  C   UNL d   1      13.590  51.795  -6.271 -0.11 -0.03    +0.194 C 
DOCKED: ATOM      2  C   UNL d   1      14.504  50.877  -5.458 -0.16 -0.04    +0.194 C 
DOCKED: ATOM      3  C   UNL d   1      14.996  49.689  -6.287 -0.14 -0.03    +0.194 C 
DOCKED: ATOM      4  C   UNL d   1      15.625  50.101  -7.616 -0.05 -0.02    +0.194 C 
DOCKED: ATOM      5  C   UNL d   1      14.799  51.106  -8.408 -0.03 -0.01    +0.194 C 
DOCKED: ATOM      6  C   UNL d   1      14.256  52.263  -7.566 -0.02 -0.02    +0.194 C 
DOCKED: ENDROOT
DOCKED: BRANCH   1   7
DOCKED: ATOM      7  O   UNL d   1      13.316  52.960  -5.488 -0.10 +0.05    -0.278 OA
DOCKED: BRANCH   7   8
DOCKED: ATOM      8  P   UNL d   1      14.313  54.203  -5.603 -0.01 -0.07    +0.473 P 
DOCKED: ATOM      9  O   UNL d   1      15.660  53.883  -6.150 -0.01 +0.02    -0.228 OA
DOCKED: BRANCH   8  10
DOCKED: ATOM     10  O   UNL d   1      13.511  55.261  -6.487 -0.00 +0.03    -0.303 OA
DOCKED: ATOM     11  H   UNL d   1      13.251  54.850  -7.333 +0.02 -0.01    +0.222 HD
DOCKED: ENDBRANCH   8  10
DOCKED: BRANCH   8  12
DOCKED: ATOM     12  O   UNL d   1      14.291  54.884  -4.168 -0.09 +0.09    -0.303 OA
DOCKED: ATOM     13  H   UNL d   1      14.935  54.484  -3.541 +0.07 -0.08    +0.222 HD
DOCKED: ENDBRANCH   8  12
DOCKED: ENDBRANCH   7   8
DOCKED: ENDBRANCH   1   7
DOCKED: BRANCH   2  14
DOCKED: ATOM     14  O   UNL d   1      15.643  51.626  -5.015 -0.07 +0.04    -0.278 OA
DOCKED: BRANCH  14  15
DOCKED: ATOM     15  P   UNL d   1      15.959  51.585  -3.445 -0.22 -0.09    +0.473 P 
DOCKED: ATOM     16  O   UNL d   1      17.325  52.028  -3.023 -0.24 +0.04    -0.228 OA
DOCKED: BRANCH  15  17
DOCKED: ATOM     17  O   UNL d   1      14.798  52.460  -2.793 -0.75 +0.04    -0.303 OA
DOCKED: ATOM     18  H   UNL d   1      14.182  52.791  -3.474 -0.00 -0.07    +0.222 HD
DOCKED: ENDBRANCH  15  17
DOCKED: BRANCH  15  19
DOCKED: ATOM     19  O   UNL d   1      15.544  50.117  -2.995 -0.19 +0.07    -0.303 OA
DOCKED: ATOM     20  H   UNL d   1      15.721  49.462  -3.695 +0.10 -0.06    +0.222 HD
DOCKED: ENDBRANCH  15  19
DOCKED: ENDBRANCH  14  15
DOCKED: ENDBRANCH   2  14
DOCKED: BRANCH   6  21
DOCKED: ATOM     21  O   UNL d   1      13.249  52.904  -8.346 -0.01 +0.02    -0.278 OA
DOCKED: BRANCH  21  22
DOCKED: ATOM     22  P   UNL d   1      13.639  54.134  -9.285 +0.00 -0.02    +0.473 P 
DOCKED: ATOM     23  O   UNL d   1      12.607  55.180  -9.539 -0.00 +0.00    -0.228 OA
DOCKED: BRANCH  22  24
DOCKED: ATOM     24  O   UNL d   1      14.970  54.663  -8.592 -0.00 +0.01    -0.303 OA
DOCKED: ATOM     25  H   UNL d   1      15.512  53.877  -8.324 +0.00 -0.01    +0.222 HD
DOCKED: ENDBRANCH  22  24
DOCKED: BRANCH  22  26
DOCKED: ATOM     26  O   UNL d   1      14.215  53.385 -10.580 -0.00 +0.01    -0.303 OA
DOCKED: ATOM     27  H   UNL d   1      15.140  53.114 -10.411 +0.00 -0.01    +0.222 HD
DOCKED: ENDBRANCH  22  26
DOCKED: ENDBRANCH  21  22
DOCKED: ENDBRANCH   6  21
DOCKED: BRANCH   3  28
DOCKED: ATOM     28  O   UNL d   1      16.039  49.058  -5.555 -0.10 +0.05    -0.278 OA
DOCKED: BRANCH  28  29
DOCKED: ATOM     29  P   UNL d   1      15.978  47.496  -5.250 -0.24 -0.10    +0.473 P 
DOCKED: ATOM     30  O   UNL d   1      14.905  46.748  -5.954 -0.40 +0.07    -0.228 OA
DOCKED: BRANCH  29  31
DOCKED: ATOM     31  O   UNL d   1      17.488  47.087  -5.584 -0.22 +0.04    -0.303 OA
DOCKED: ATOM     32  H   UNL d   1      17.806  47.643  -6.333 +0.09 -0.02    +0.222 HD
DOCKED: ENDBRANCH  29  31
DOCKED: BRANCH  29  33
DOCKED: ATOM     33  O   UNL d   1      15.949  47.468  -3.658 -0.24 +0.08    -0.303 OA
DOCKED: ATOM     34  H   UNL d   1      16.545  48.178  -3.314 -0.39 -0.11    +0.222 HD
DOCKED: ENDBRANCH  29  33
DOCKED: ENDBRANCH  28  29
DOCKED: ENDBRANCH   3  28
DOCKED: BRANCH   5  35
DOCKED: ATOM     35  O   UNL d   1      15.691  51.669  -9.368 -0.00 +0.01    -0.278 OA
DOCKED: BRANCH  35  36
DOCKED: ATOM     36  P   UNL d   1      17.117  52.222  -8.915 +0.00 -0.02    +0.473 P 
DOCKED: ATOM     37  O   UNL d   1      17.393  52.166  -7.446 -0.00 +0.01    -0.228 OA
DOCKED: BRANCH  36  38
DOCKED: ATOM     38  O   UNL d   1      18.105  51.342  -9.800 -0.00 +0.01    -0.303 OA
DOCKED: ATOM     39  H   UNL d   1      17.952  50.393  -9.605 +0.01 -0.01    +0.222 HD
DOCKED: ENDBRANCH  36  38
DOCKED: BRANCH  36  40
DOCKED: ATOM     40  O   UNL d   1      17.160  53.656  -9.603 +0.00 +0.01    -0.303 OA
DOCKED: ATOM     41  H   UNL d   1      16.299  53.886 -10.018 +0.00 -0.00    +0.222 HD
DOCKED: ENDBRANCH  36  40
DOCKED: ENDBRANCH  35  36
DOCKED: ENDBRANCH   5  35
DOCKED: BRANCH   4  42
DOCKED: ATOM     42  O   UNL d   1      15.725  48.917  -8.413 -0.06 +0.03    -0.278 OA
DOCKED: BRANCH  42  43
DOCKED: ATOM     43  P   UNL d   1      17.171  48.369  -8.803 -0.01 -0.03    +0.473 P 
DOCKED: ATOM     44  O   UNL d   1      17.571  48.444 -10.236 -0.02 +0.01    -0.228 OA
DOCKED: BRANCH  43  45
DOCKED: ATOM     45  O   UNL d   1      18.127  49.174  -7.817 -0.01 +0.02    -0.303 OA
DOCKED: ATOM     46  H   UNL d   1      18.068  50.138  -7.970 +0.02 -0.01    +0.222 HD
DOCKED: ENDBRANCH  43  45
DOCKED: BRANCH  43  47
DOCKED: ATOM     47  O   UNL d   1      17.195  46.903  -8.154 -0.11 +0.03    -0.303 OA
DOCKED: ATOM     48  H   UNL d   1      16.511  46.848  -7.456 +0.10 -0.03    +0.222 HD
DOCKED: ENDBRANCH  43  47
DOCKED: ENDBRANCH  42  43
DOCKED: ENDBRANCH   4  42
DOCKED: TORSDOF 24
DOCKED: TER
DOCKED: ENDMDL
________________________________________________________________________________


	BEGINNING GENETIC ALGORITHM DOCKING 54 of 100
Run: 54 Seed: 1994424631 1123141086 [ Run 54 of 100 GA/GALS ]
Beginning LAMARCKIAN GENETIC ALGORITHM (LGA), with a maximum of 25000000 energy evaluations.

Final-Value: -18.454


	FINAL GENETIC ALGORITHM DOCKED STATE
	_______________________________________________


Detailed state:  trans 8.320 34.244 -16.744 quatxyzw -0.583011 0.354849 0.459595 0.568289 center 0.035 0.082 -0.065 ntor 24 104.1522 110.2145 124.3960 15.4533 115.1745 76.5987 6.7851 -137.9050 89.1764 76.9881 98.1876 71.8157 -68.9723 32.4921 179.9393 -115.7797 54.0262 52.4437 -149.0803 -18.0180 9.1832 27.2498 -175.1963 179.8245
State:	  8.320  34.244 -16.744  -0.709  0.431  0.559 110.738    104.15  110.21  124.40   15.45  115.17   76.60    6.79 -137.91   89.18   76.99   98.19   71.82  -68.97   32.49  179.94 -115.78   54.03   52.44 -149.08  -18.02    9.18   27.25 -175.20  179.82

DOCKED: MODEL       54
DOCKED: USER    Run = 54
DOCKED: USER    DPF = D:/Protein_go_brrr/autodock/final/2DN3/IHP/dock.dpf
DOCKED: USER  
DOCKED: USER    Estimated Free Energy of Binding    =   +4.68 kcal/mol  [=(1)+(2)+(3)-(4)]
DOCKED: USER    
DOCKED: USER    (1) Final Intermolecular Energy     =   -2.48 kcal/mol
DOCKED: USER        vdW + Hbond + desolv Energy     =   -2.39 kcal/mol
DOCKED: USER        Electrostatic Energy            =   -0.09 kcal/mol
DOCKED: USER    (2) Final Total Internal Energy     =  -15.97 kcal/mol
DOCKED: USER    (3) Torsional Free Energy           =   +7.16 kcal/mol
DOCKED: USER    (4) Unbound System's Energy  [=(2)] =  -15.97 kcal/mol
DOCKED: USER    
DOCKED: USER    
DOCKED: USER    NEWDPF move IHP_ideal_opt.pdbqt
DOCKED: USER    NEWDPF about 0.035000 0.082000 -0.065000
DOCKED: USER    NEWDPF tran0 8.320008 34.243506 -16.744059
DOCKED: USER    NEWDPF quaternion0 -0.583011 0.354849 0.459595 0.568289
DOCKED: USER    NEWDPF axisangle0 -0.708545 0.431255 0.558555 110.738013
DOCKED: USER    NEWDPF quat0 -0.708545 0.431255 0.558555 110.738013
DOCKED: USER    NEWDPF dihe0 104.15 110.21 124.40 15.45 115.17 76.60 6.79 -137.91 89.18 76.99 98.19 71.82 -68.97 32.49 179.94 -115.78 54.03 52.44 -149.08 -18.02 9.18 27.25 -175.20 179.82 
DOCKED: USER  keepresnum = 1 
DOCKED: USER  
DOCKED: REMARK  24 active torsions:
DOCKED: REMARK  status: ('A' for Active; 'I' for Inactive)
DOCKED: REMARK    1  A    between atoms: C_1  and  O_7 
DOCKED: REMARK    2  A    between atoms: C_2  and  O_12 
DOCKED: REMARK    3  A    between atoms: C_3  and  O_17 
DOCKED: REMARK    4  A    between atoms: C_4  and  O_22 
DOCKED: REMARK    5  A    between atoms: C_5  and  O_27 
DOCKED: REMARK    6  A    between atoms: C_6  and  O_32 
DOCKED: REMARK    7  A    between atoms: O_7  and  P_8 
DOCKED: REMARK    8  A    between atoms: P_8  and  O_10 
DOCKED: REMARK    9  A    between atoms: P_8  and  O_11 
DOCKED: REMARK   10  A    between atoms: O_12  and  P_13 
DOCKED: REMARK   11  A    between atoms: P_13  and  O_15 
DOCKED: REMARK   12  A    between atoms: P_13  and  O_16 
DOCKED: REMARK   13  A    between atoms: O_17  and  P_18 
DOCKED: REMARK   14  A    between atoms: P_18  and  O_20 
DOCKED: REMARK   15  A    between atoms: P_18  and  O_21 
DOCKED: REMARK   16  A    between atoms: O_22  and  P_23 
DOCKED: REMARK   17  A    between atoms: P_23  and  O_25 
DOCKED: REMARK   18  A    between atoms: P_23  and  O_26 
DOCKED: REMARK   19  A    between atoms: O_27  and  P_28 
DOCKED: REMARK   20  A    between atoms: P_28  and  O_30 
DOCKED: REMARK   21  A    between atoms: P_28  and  O_31 
DOCKED: REMARK   22  A    between atoms: O_32  and  P_33 
DOCKED: REMARK   23  A    between atoms: P_33  and  O_35 
DOCKED: REMARK   24  A    between atoms: P_33  and  O_36 
DOCKED: USER                              x       y       z     vdW  Elec       q    Type
DOCKED: USER                           _______ _______ _______ _____ _____    ______ ____
DOCKED: ROOT
DOCKED: ATOM      1  C   UNL d   1       7.889  32.895 -17.734 -0.02 +0.04    +0.194 C 
DOCKED: ATOM      2  C   UNL d   1       7.742  34.270 -18.389 -0.00 +0.03    +0.194 C 
DOCKED: ATOM      3  C   UNL d   1       7.110  35.287 -17.436 -0.01 +0.03    +0.194 C 
DOCKED: ATOM      4  C   UNL d   1       7.817  35.364 -16.084 -0.03 +0.03    +0.194 C 
DOCKED: ATOM      5  C   UNL d   1       8.087  34.007 -15.447 -0.10 +0.06    +0.194 C 
DOCKED: ATOM      6  C   UNL d   1       8.661  32.971 -16.417 -0.08 +0.05    +0.194 C 
DOCKED: ENDROOT
DOCKED: BRANCH   1   7
DOCKED: ATOM      7  O   UNL d   1       8.637  32.058 -18.619 -0.00 -0.04    -0.278 OA
DOCKED: BRANCH   7   8
DOCKED: ATOM      8  P   UNL d   1      10.230  32.062 -18.503 +0.01 +0.04    +0.473 P 
DOCKED: ATOM      9  O   UNL d   1      10.806  33.222 -17.769 -0.02 -0.02    -0.228 OA
DOCKED: BRANCH   8  10
DOCKED: ATOM     10  O   UNL d   1      10.572  30.658 -17.827 -0.02 -0.02    -0.303 OA
DOCKED: ATOM     11  H   UNL d   1      10.063  30.560 -17.001 +0.04 +0.03    +0.222 HD
DOCKED: ENDBRANCH   8  10
DOCKED: BRANCH   8  12
DOCKED: ATOM     12  O   UNL d   1      10.753  31.852 -19.989 +0.00 -0.02    -0.303 OA
DOCKED: ATOM     13  H   UNL d   1      10.524  32.599 -20.587 +0.00 +0.01    +0.222 HD
DOCKED: ENDBRANCH   8  12
DOCKED: ENDBRANCH   7   8
DOCKED: ENDBRANCH   1   7
DOCKED: BRANCH   2  14
DOCKED: ATOM     14  O   UNL d   1       9.038  34.746 -18.771 +0.00 -0.02    -0.278 OA
DOCKED: BRANCH  14  15
DOCKED: ATOM     15  P   UNL d   1       9.313  34.889 -20.342 +0.00 +0.03    +0.473 P 
DOCKED: ATOM     16  O   UNL d   1       8.934  36.191 -20.975 +0.00 -0.01    -0.228 OA
DOCKED: BRANCH  15  17
DOCKED: ATOM     17  O   UNL d   1      10.864  34.557 -20.496 +0.00 -0.01    -0.303 OA
DOCKED: ATOM     18  H   UNL d   1      11.163  33.946 -19.796 +0.00 +0.01    +0.222 HD
DOCKED: ENDBRANCH  15  17
DOCKED: BRANCH  15  19
DOCKED: ATOM     19  O   UNL d   1       8.644  33.595 -20.982 +0.00 -0.02    -0.303 OA
DOCKED: ATOM     20  H   UNL d   1       8.852  32.792 -20.470 +0.00 +0.02    +0.222 HD
DOCKED: ENDBRANCH  15  19
DOCKED: ENDBRANCH  14  15
DOCKED: ENDBRANCH   2  14
DOCKED: BRANCH   6  21
DOCKED: ATOM     21  O   UNL d   1       8.535  31.700 -15.784 -0.13 -0.12    -0.278 OA
DOCKED: BRANCH  21  22
DOCKED: ATOM     22  P   UNL d   1       9.746  31.119 -14.923 -0.15 +0.09    +0.473 P 
DOCKED: ATOM     23  O   UNL d   1       9.914  29.639 -14.851 -0.22 +0.00    -0.228 OA
DOCKED: BRANCH  22  24
DOCKED: ATOM     24  O   UNL d   1      10.987  31.902 -15.539 -0.70 -0.08    -0.303 OA
DOCKED: ATOM     25  H   UNL d   1      10.759  32.866 -15.570 +0.05 +0.04    +0.222 HD
DOCKED: ENDBRANCH  22  24
DOCKED: BRANCH  22  26
DOCKED: ATOM     26  O   UNL d   1       9.541  31.873 -13.523 +0.13 -0.04    -0.303 OA
DOCKED: ATOM     27  H   UNL d   1      10.131  32.653 -13.488 -0.46 -0.06    +0.222 HD
DOCKED: ENDBRANCH  22  26
DOCKED: ENDBRANCH  21  22
DOCKED: ENDBRANCH   6  21
DOCKED: BRANCH   3  28
DOCKED: ATOM     28  O   UNL d   1       7.268  36.574 -18.018 -0.00 -0.02    -0.278 OA
DOCKED: BRANCH  28  29
DOCKED: ATOM     29  P   UNL d   1       6.071  37.625 -17.981 +0.00 +0.04    +0.473 P 
DOCKED: ATOM     30  O   UNL d   1       5.908  38.453 -19.204 +0.00 -0.01    -0.228 OA
DOCKED: BRANCH  29  31
DOCKED: ATOM     31  O   UNL d   1       4.859  36.655 -17.594 +0.00 -0.03    -0.303 OA
DOCKED: ATOM     32  H   UNL d   1       5.069  36.218 -16.737 +0.01 +0.03    +0.222 HD
DOCKED: ENDBRANCH  29  31
DOCKED: BRANCH  29  33
DOCKED: ATOM     33  O   UNL d   1       6.350  38.401 -16.619 -0.00 -0.02    -0.303 OA
DOCKED: ATOM     34  H   UNL d   1       6.033  37.848 -15.864 +0.01 +0.02    +0.222 HD
DOCKED: ENDBRANCH  29  33
DOCKED: ENDBRANCH  28  29
DOCKED: ENDBRANCH   3  28
DOCKED: BRANCH   5  35
DOCKED: ATOM     35  O   UNL d   1       9.077  34.239 -14.447 -0.16 -0.04    -0.278 OA
DOCKED: BRANCH  35  36
DOCKED: ATOM     36  P   UNL d   1      10.342  35.157 -14.765 -0.09 +0.01    +0.473 P 
DOCKED: ATOM     37  O   UNL d   1      10.247  36.573 -14.293 -0.05 -0.00    -0.228 OA
DOCKED: BRANCH  36  38
DOCKED: ATOM     38  O   UNL d   1      11.524  34.323 -14.099 -0.13 +0.03    -0.303 OA
DOCKED: ATOM     39  H   UNL d   1      11.231  33.395 -13.971 -0.13 -0.03    +0.222 HD
DOCKED: ENDBRANCH  36  38
DOCKED: BRANCH  36  40
DOCKED: ATOM     40  O   UNL d   1      10.544  34.928 -16.326 -0.03 -0.02    -0.303 OA
DOCKED: ATOM     41  H   UNL d   1       9.686  34.821 -16.792 +0.03 +0.02    +0.222 HD
DOCKED: ENDBRANCH  36  40
DOCKED: ENDBRANCH  35  36
DOCKED: ENDBRANCH   5  35
DOCKED: BRANCH   4  42
DOCKED: ATOM     42  O   UNL d   1       6.945  36.077 -15.201 -0.02 -0.05    -0.278 OA
DOCKED: BRANCH  42  43
DOCKED: ATOM     43  P   UNL d   1       5.580  35.391 -14.744 -0.04 +0.14    +0.473 P 
DOCKED: ATOM     44  O   UNL d   1       5.560  34.718 -13.415 -0.07 -0.11    -0.228 OA
DOCKED: BRANCH  43  45
DOCKED: ATOM     45  O   UNL d   1       4.527  36.576 -14.889 -0.01 -0.05    -0.303 OA
DOCKED: ATOM     46  H   UNL d   1       4.822  37.238 -15.546 +0.01 +0.03    +0.222 HD
DOCKED: ENDBRANCH  43  45
DOCKED: BRANCH  43  47
DOCKED: ATOM     47  O   UNL d   1       5.200  34.463 -15.994 -0.03 -0.11    -0.303 OA
DOCKED: ATOM     48  H   UNL d   1       4.422  34.843 -16.454 +0.01 +0.06    +0.222 HD
DOCKED: ENDBRANCH  43  47
DOCKED: ENDBRANCH  42  43
DOCKED: ENDBRANCH   4  42
DOCKED: TORSDOF 24
DOCKED: TER
DOCKED: ENDMDL
________________________________________________________________________________


	BEGINNING GENETIC ALGORITHM DOCKING 55 of 100
Run: 55 Seed: 17430941 684101592 [ Run 55 of 100 GA/GALS ]
Beginning LAMARCKIAN GENETIC ALGORITHM (LGA), with a maximum of 25000000 energy evaluations.

Final-Value: -18.757


	FINAL GENETIC ALGORITHM DOCKED STATE
	_______________________________________________


Detailed state:  trans 3.310 17.651 16.815 quatxyzw 0.415457 -0.488740 -0.703716 -0.305472 center 0.035 0.082 -0.065 ntor 24 153.8894 83.4638 176.9723 8.7777 -14.3992 -83.1735 -103.3025 2.9358 42.7716 48.1078 179.9918 153.5950 -35.7523 85.1269 -47.5818 14.9450 122.0382 172.9017 14.6486 -46.3098 169.5579 177.8069 -16.1331 2.2573
State:	  3.310  17.651  16.815   0.436 -0.513 -0.739 -144.427    153.89   83.46  176.97    8.78  -14.40  -83.17 -103.30    2.94   42.77   48.11  179.99  153.59  -35.75   85.13  -47.58   14.94  122.04  172.90   14.65  -46.31  169.56  177.81  -16.13    2.26

DOCKED: MODEL       55
DOCKED: USER    Run = 55
DOCKED: USER    DPF = D:/Protein_go_brrr/autodock/final/2DN3/IHP/dock.dpf
DOCKED: USER  
DOCKED: USER    Estimated Free Energy of Binding    =   +3.68 kcal/mol  [=(1)+(2)+(3)-(4)]
DOCKED: USER    
DOCKED: USER    (1) Final Intermolecular Energy     =   -3.48 kcal/mol
DOCKED: USER        vdW + Hbond + desolv Energy     =   -3.41 kcal/mol
DOCKED: USER        Electrostatic Energy            =   -0.06 kcal/mol
DOCKED: USER    (2) Final Total Internal Energy     =  -15.28 kcal/mol
DOCKED: USER    (3) Torsional Free Energy           =   +7.16 kcal/mol
DOCKED: USER    (4) Unbound System's Energy  [=(2)] =  -15.28 kcal/mol
DOCKED: USER    
DOCKED: USER    
DOCKED: USER    NEWDPF move IHP_ideal_opt.pdbqt
DOCKED: USER    NEWDPF about 0.035000 0.082000 -0.065000
DOCKED: USER    NEWDPF tran0 3.309817 17.651322 16.815301
DOCKED: USER    NEWDPF quaternion0 0.415457 -0.488740 -0.703716 -0.305472
DOCKED: USER    NEWDPF axisangle0 0.436312 -0.513274 -0.739041 -144.426899
DOCKED: USER    NEWDPF quat0 0.436312 -0.513274 -0.739041 -144.426899
DOCKED: USER    NEWDPF dihe0 153.89 83.46 176.97 8.78 -14.40 -83.17 -103.30 2.94 42.77 48.11 179.99 153.59 -35.75 85.13 -47.58 14.94 122.04 172.90 14.65 -46.31 169.56 177.81 -16.13 2.26 
DOCKED: USER  keepresnum = 1 
DOCKED: USER  
DOCKED: REMARK  24 active torsions:
DOCKED: REMARK  status: ('A' for Active; 'I' for Inactive)
DOCKED: REMARK    1  A    between atoms: C_1  and  O_7 
DOCKED: REMARK    2  A    between atoms: C_2  and  O_12 
DOCKED: REMARK    3  A    between atoms: C_3  and  O_17 
DOCKED: REMARK    4  A    between atoms: C_4  and  O_22 
DOCKED: REMARK    5  A    between atoms: C_5  and  O_27 
DOCKED: REMARK    6  A    between atoms: C_6  and  O_32 
DOCKED: REMARK    7  A    between atoms: O_7  and  P_8 
DOCKED: REMARK    8  A    between atoms: P_8  and  O_10 
DOCKED: REMARK    9  A    between atoms: P_8  and  O_11 
DOCKED: REMARK   10  A    between atoms: O_12  and  P_13 
DOCKED: REMARK   11  A    between atoms: P_13  and  O_15 
DOCKED: REMARK   12  A    between atoms: P_13  and  O_16 
DOCKED: REMARK   13  A    between atoms: O_17  and  P_18 
DOCKED: REMARK   14  A    between atoms: P_18  and  O_20 
DOCKED: REMARK   15  A    between atoms: P_18  and  O_21 
DOCKED: REMARK   16  A    between atoms: O_22  and  P_23 
DOCKED: REMARK   17  A    between atoms: P_23  and  O_25 
DOCKED: REMARK   18  A    between atoms: P_23  and  O_26 
DOCKED: REMARK   19  A    between atoms: O_27  and  P_28 
DOCKED: REMARK   20  A    between atoms: P_28  and  O_30 
DOCKED: REMARK   21  A    between atoms: P_28  and  O_31 
DOCKED: REMARK   22  A    between atoms: O_32  and  P_33 
DOCKED: REMARK   23  A    between atoms: P_33  and  O_35 
DOCKED: REMARK   24  A    between atoms: P_33  and  O_36 
DOCKED: USER                              x       y       z     vdW  Elec       q    Type
DOCKED: USER                           _______ _______ _______ _____ _____    ______ ____
DOCKED: ROOT
DOCKED: ATOM      1  C   UNL d   1       2.003  17.245  15.761 -0.02 -0.01    +0.194 C 
DOCKED: ATOM      2  C   UNL d   1       2.894  18.398  15.295 -0.10 -0.02    +0.194 C 
DOCKED: ATOM      3  C   UNL d   1       3.235  19.350  16.444 -0.10 -0.01    +0.194 C 
DOCKED: ATOM      4  C   UNL d   1       3.805  18.637  17.667 -0.04 +0.01    +0.194 C 
DOCKED: ATOM      5  C   UNL d   1       3.011  17.411  18.098 -0.01 +0.01    +0.194 C 
DOCKED: ATOM      6  C   UNL d   1       2.617  16.490  16.940 -0.00 +0.01    +0.194 C 
DOCKED: ENDROOT
DOCKED: BRANCH   1   7
DOCKED: ATOM      7  O   UNL d   1       1.875  16.317  14.681 -0.01 +0.02    -0.278 OA
DOCKED: BRANCH   7   8
DOCKED: ATOM      8  P   UNL d   1       0.476  16.231  13.916 +0.01 -0.03    +0.473 P 
DOCKED: ATOM      9  O   UNL d   1      -0.445  17.375  14.154 -0.02 +0.02    -0.228 OA
DOCKED: BRANCH   8  10
DOCKED: ATOM     10  O   UNL d   1       0.883  16.061  12.383 -0.02 +0.02    -0.303 OA
DOCKED: ATOM     11  H   UNL d   1       1.853  16.116  12.294 +0.06 -0.02    +0.222 HD
DOCKED: ENDBRANCH   8  10
DOCKED: BRANCH   8  12
DOCKED: ATOM     12  O   UNL d   1      -0.100  14.792  14.268 +0.00 +0.01    -0.303 OA
DOCKED: ATOM     13  H   UNL d   1       0.077  14.523  15.197 +0.00 -0.00    +0.222 HD
DOCKED: ENDBRANCH   8  12
DOCKED: ENDBRANCH   7   8
DOCKED: ENDBRANCH   1   7
DOCKED: BRANCH   2  14
DOCKED: ATOM     14  O   UNL d   1       4.115  17.862  14.770 -0.13 +0.03    -0.278 OA
DOCKED: BRANCH  14  15
DOCKED: ATOM     15  P   UNL d   1       4.097  17.416  13.232 -0.22 -0.09    +0.473 P 
DOCKED: ATOM     16  O   UNL d   1       5.324  17.721  12.430 -0.80 +0.01    -0.228 OA
DOCKED: BRANCH  15  17
DOCKED: ATOM     17  O   UNL d   1       3.764  15.859  13.283 -0.10 +0.06    -0.303 OA
DOCKED: ATOM     18  H   UNL d   1       2.805  15.708  13.390 +0.06 -0.03    +0.222 HD
DOCKED: ENDBRANCH  15  17
DOCKED: BRANCH  15  19
DOCKED: ATOM     19  O   UNL d   1       2.739  18.015  12.661 -0.14 +0.08    -0.303 OA
DOCKED: ATOM     20  H   UNL d   1       1.977  17.777  13.221 +0.04 -0.05    +0.222 HD
DOCKED: ENDBRANCH  15  19
DOCKED: ENDBRANCH  14  15
DOCKED: ENDBRANCH   2  14
DOCKED: BRANCH   6  21
DOCKED: ATOM     21  O   UNL d   1       1.615  15.607  17.439 +0.00 -0.01    -0.278 OA
DOCKED: BRANCH  21  22
DOCKED: ATOM     22  P   UNL d   1       0.184  16.182  17.845 +0.00 +0.00    +0.473 P 
DOCKED: ATOM     23  O   UNL d   1       0.052  17.651  18.068 -0.00 +0.00    -0.228 OA
DOCKED: BRANCH  22  24
DOCKED: ATOM     24  O   UNL d   1      -0.742  15.597  16.690 -0.00 +0.00    -0.303 OA
DOCKED: ATOM     25  H   UNL d   1      -0.638  16.173  15.890 +0.00 -0.00    +0.222 HD
DOCKED: ENDBRANCH  22  24
DOCKED: BRANCH  22  26
DOCKED: ATOM     26  O   UNL d   1      -0.204  15.244  19.086 +0.00 -0.01    -0.303 OA
DOCKED: ATOM     27  H   UNL d   1      -0.064  15.739  19.919 +0.00 +0.00    +0.222 HD
DOCKED: ENDBRANCH  22  26
DOCKED: ENDBRANCH  21  22
DOCKED: ENDBRANCH   6  21
DOCKED: BRANCH   3  28
DOCKED: ATOM     28  O   UNL d   1       4.271  20.213  15.992 -0.20 +0.03    -0.278 OA
DOCKED: BRANCH  28  29
DOCKED: ATOM     29  P   UNL d   1       5.749  19.656  15.787 -0.24 +0.01    +0.473 P 
DOCKED: ATOM     30  O   UNL d   1       6.003  18.297  16.331 -0.21 -0.07    -0.228 OA
DOCKED: BRANCH  29  31
DOCKED: ATOM     31  O   UNL d   1       5.901  19.844  14.205 -0.96 -0.02    -0.303 OA
DOCKED: ATOM     32  H   UNL d   1       5.126  19.426  13.763 +0.07 -0.00    +0.222 HD
DOCKED: ENDBRANCH  29  31
DOCKED: BRANCH  29  33
DOCKED: ATOM     33  O   UNL d   1       6.637  20.842  16.369 -0.20 +0.01    -0.303 OA
DOCKED: ATOM     34  H   UNL d   1       6.426  20.961  17.327 +0.12 +0.01    +0.222 HD
DOCKED: ENDBRANCH  29  33
DOCKED: ENDBRANCH  28  29
DOCKED: ENDBRANCH   3  28
DOCKED: BRANCH   5  35
DOCKED: ATOM     35  O   UNL d   1       3.879  16.667  18.950 -0.01 -0.04    -0.278 OA
DOCKED: BRANCH  35  36
DOCKED: ATOM     36  P   UNL d   1       3.527  16.484  20.495 +0.00 +0.05    +0.473 P 
DOCKED: ATOM     37  O   UNL d   1       4.318  15.440  21.217 -0.01 -0.03    -0.228 OA
DOCKED: BRANCH  36  38
DOCKED: ATOM     38  O   UNL d   1       3.730  17.962  21.052 -0.01 -0.02    -0.303 OA
DOCKED: ATOM     39  H   UNL d   1       4.387  18.429  20.492 +0.04 +0.02    +0.222 HD
DOCKED: ENDBRANCH  36  38
DOCKED: BRANCH  36  40
DOCKED: ATOM     40  O   UNL d   1       1.948  16.300  20.465 +0.00 -0.02    -0.303 OA
DOCKED: ATOM     41  H   UNL d   1       1.606  16.240  19.545 +0.00 +0.01    +0.222 HD
DOCKED: ENDBRANCH  36  40
DOCKED: ENDBRANCH  35  36
DOCKED: ENDBRANCH   5  35
DOCKED: BRANCH   4  42
DOCKED: ATOM     42  O   UNL d   1       3.758  19.571  18.751 -0.03 -0.01    -0.278 OA
DOCKED: BRANCH  42  43
DOCKED: ATOM     43  P   UNL d   1       5.124  20.193  19.294 -0.08 +0.04    +0.473 P 
DOCKED: ATOM     44  O   UNL d   1       5.253  20.386  20.765 -0.13 -0.00    -0.228 OA
DOCKED: BRANCH  43  45
DOCKED: ATOM     45  O   UNL d   1       6.221  19.226  18.665 -0.15 -0.09    -0.303 OA
DOCKED: ATOM     46  H   UNL d   1       6.706  19.662  17.936 +0.11 +0.07    +0.222 HD
DOCKED: ENDBRANCH  43  45
DOCKED: BRANCH  43  47
DOCKED: ATOM     47  O   UNL d   1       5.304  21.513  18.404 -0.07 -0.00    -0.303 OA
DOCKED: ATOM     48  H   UNL d   1       4.858  21.385  17.541 +0.09 -0.01    +0.222 HD
DOCKED: ENDBRANCH  43  47
DOCKED: ENDBRANCH  42  43
DOCKED: ENDBRANCH   4  42
DOCKED: TORSDOF 24
DOCKED: TER
DOCKED: ENDMDL
________________________________________________________________________________


	BEGINNING GENETIC ALGORITHM DOCKING 56 of 100
Run: 56 Seed: 1499428155 970315062 [ Run 56 of 100 GA/GALS ]
Beginning LAMARCKIAN GENETIC ALGORITHM (LGA), with a maximum of 25000000 energy evaluations.

Final-Value: -18.119


	FINAL GENETIC ALGORITHM DOCKED STATE
	_______________________________________________


Detailed state:  trans 50.079 18.485 11.729 quatxyzw -0.464760 -0.706088 0.467178 0.259196 center 0.035 0.082 -0.065 ntor 24 168.0000 -180.0000 -178.7233 -36.2339 10.4525 174.3904 -129.9145 -57.8298 -43.2462 96.5072 88.4074 -163.5582 91.6351 177.0545 172.8485 -134.5776 -18.6937 133.7007 -4.1829 15.9052 -17.0417 -1.2852 172.1029 0.5556
State:	 50.079  18.485  11.729  -0.481 -0.731  0.484 149.955    168.00 -180.00 -178.72  -36.23   10.45  174.39 -129.91  -57.83  -43.25   96.51   88.41 -163.56   91.64  177.05  172.85 -134.58  -18.69  133.70   -4.18   15.91  -17.04   -1.29  172.10    0.56

DOCKED: MODEL       56
DOCKED: USER    Run = 56
DOCKED: USER    DPF = D:/Protein_go_brrr/autodock/final/2DN3/IHP/dock.dpf
DOCKED: USER  
DOCKED: USER    Estimated Free Energy of Binding    =   +3.98 kcal/mol  [=(1)+(2)+(3)-(4)]
DOCKED: USER    
DOCKED: USER    (1) Final Intermolecular Energy     =   -3.18 kcal/mol
DOCKED: USER        vdW + Hbond + desolv Energy     =   -2.76 kcal/mol
DOCKED: USER        Electrostatic Energy            =   -0.42 kcal/mol
DOCKED: USER    (2) Final Total Internal Energy     =  -14.94 kcal/mol
DOCKED: USER    (3) Torsional Free Energy           =   +7.16 kcal/mol
DOCKED: USER    (4) Unbound System's Energy  [=(2)] =  -14.94 kcal/mol
DOCKED: USER    
DOCKED: USER    
DOCKED: USER    NEWDPF move IHP_ideal_opt.pdbqt
DOCKED: USER    NEWDPF about 0.035000 0.082000 -0.065000
DOCKED: USER    NEWDPF tran0 50.078745 18.484948 11.728958
DOCKED: USER    NEWDPF quaternion0 -0.464760 -0.706088 0.467178 0.259196
DOCKED: USER    NEWDPF axisangle0 -0.481206 -0.731072 0.483709 149.955242
DOCKED: USER    NEWDPF quat0 -0.481206 -0.731072 0.483709 149.955242
DOCKED: USER    NEWDPF dihe0 168.00 -180.00 -178.72 -36.23 10.45 174.39 -129.91 -57.83 -43.25 96.51 88.41 -163.56 91.64 177.05 172.85 -134.58 -18.69 133.70 -4.18 15.91 -17.04 -1.29 172.10 0.56 
DOCKED: USER  keepresnum = 1 
DOCKED: USER  
DOCKED: REMARK  24 active torsions:
DOCKED: REMARK  status: ('A' for Active; 'I' for Inactive)
DOCKED: REMARK    1  A    between atoms: C_1  and  O_7 
DOCKED: REMARK    2  A    between atoms: C_2  and  O_12 
DOCKED: REMARK    3  A    between atoms: C_3  and  O_17 
DOCKED: REMARK    4  A    between atoms: C_4  and  O_22 
DOCKED: REMARK    5  A    between atoms: C_5  and  O_27 
DOCKED: REMARK    6  A    between atoms: C_6  and  O_32 
DOCKED: REMARK    7  A    between atoms: O_7  and  P_8 
DOCKED: REMARK    8  A    between atoms: P_8  and  O_10 
DOCKED: REMARK    9  A    between atoms: P_8  and  O_11 
DOCKED: REMARK   10  A    between atoms: O_12  and  P_13 
DOCKED: REMARK   11  A    between atoms: P_13  and  O_15 
DOCKED: REMARK   12  A    between atoms: P_13  and  O_16 
DOCKED: REMARK   13  A    between atoms: O_17  and  P_18 
DOCKED: REMARK   14  A    between atoms: P_18  and  O_20 
DOCKED: REMARK   15  A    between atoms: P_18  and  O_21 
DOCKED: REMARK   16  A    between atoms: O_22  and  P_23 
DOCKED: REMARK   17  A    between atoms: P_23  and  O_25 
DOCKED: REMARK   18  A    between atoms: P_23  and  O_26 
DOCKED: REMARK   19  A    between atoms: O_27  and  P_28 
DOCKED: REMARK   20  A    between atoms: P_28  and  O_30 
DOCKED: REMARK   21  A    between atoms: P_28  and  O_31 
DOCKED: REMARK   22  A    between atoms: O_32  and  P_33 
DOCKED: REMARK   23  A    between atoms: P_33  and  O_35 
DOCKED: REMARK   24  A    between atoms: P_33  and  O_36 
DOCKED: USER                              x       y       z     vdW  Elec       q    Type
DOCKED: USER                           _______ _______ _______ _____ _____    ______ ____
DOCKED: ROOT
DOCKED: ATOM      1  C   UNL d   1      48.684  18.175  10.759 -0.07 +0.07    +0.194 C 
DOCKED: ATOM      2  C   UNL d   1      48.528  17.884  12.252 -0.05 +0.09    +0.194 C 
DOCKED: ATOM      3  C   UNL d   1      49.755  17.169  12.822 -0.01 +0.07    +0.194 C 
DOCKED: ATOM      4  C   UNL d   1      51.067  17.883  12.507 -0.02 +0.07    +0.194 C 
DOCKED: ATOM      5  C   UNL d   1      51.215  18.294  11.047 -0.02 +0.06    +0.194 C 
DOCKED: ATOM      6  C   UNL d   1      49.965  18.954  10.460 -0.09 +0.08    +0.194 C 
DOCKED: ENDROOT
DOCKED: BRANCH   1   7
DOCKED: ATOM      7  O   UNL d   1      47.584  18.989  10.345 -0.14 -0.09    -0.278 OA
DOCKED: BRANCH   7   8
DOCKED: ATOM      8  P   UNL d   1      46.708  18.506   9.100 -0.12 +0.20    +0.473 P 
DOCKED: ATOM      9  O   UNL d   1      45.250  18.787   9.207 -0.21 -0.08    -0.228 OA
DOCKED: BRANCH   8  10
DOCKED: ATOM     10  O   UNL d   1      47.394  19.216   7.846 -0.55 -0.29    -0.303 OA
DOCKED: ATOM     11  H   UNL d   1      48.240  19.616   8.120 +0.06 +0.15    +0.222 HD
DOCKED: ENDBRANCH   8  10
DOCKED: BRANCH   8  12
DOCKED: ATOM     12  O   UNL d   1      47.107  16.984   8.879 -0.03 -0.11    -0.303 OA
DOCKED: ATOM     13  H   UNL d   1      46.330  16.399   8.734 +0.03 +0.07    +0.222 HD
DOCKED: ENDBRANCH   8  12
DOCKED: ENDBRANCH   7   8
DOCKED: ENDBRANCH   1   7
DOCKED: BRANCH   2  14
DOCKED: ATOM     14  O   UNL d   1      48.355  19.123  12.953 -0.16 -0.23    -0.278 OA
DOCKED: BRANCH  14  15
DOCKED: ATOM     15  P   UNL d   1      47.425  19.084  14.257 -0.01 +0.56    +0.473 P 
DOCKED: ATOM     16  O   UNL d   1      46.313  20.083  14.319 -0.21 -0.39    -0.228 OA
DOCKED: BRANCH  15  17
DOCKED: ATOM     17  O   UNL d   1      46.908  17.578  14.319 -0.02 -0.16    -0.303 OA
DOCKED: ATOM     18  H   UNL d   1      47.550  17.004  14.779 +0.02 +0.10    +0.222 HD
DOCKED: ENDBRANCH  15  17
DOCKED: BRANCH  15  19
DOCKED: ATOM     19  O   UNL d   1      48.449  19.120  15.474 -0.22 -0.42    -0.303 OA
DOCKED: ATOM     20  H   UNL d   1      48.643  18.225  15.808 +0.02 +0.17    +0.222 HD
DOCKED: ENDBRANCH  15  19
DOCKED: ENDBRANCH  14  15
DOCKED: ENDBRANCH   2  14
DOCKED: BRANCH   6  21
DOCKED: ATOM     21  O   UNL d   1      50.130  18.961   9.044 -0.05 -0.11    -0.278 OA
DOCKED: BRANCH  21  22
DOCKED: ATOM     22  P   UNL d   1      50.155  20.348   8.257 -0.12 +0.21    +0.473 P 
DOCKED: ATOM     23  O   UNL d   1      49.806  20.342   6.806 -0.16 -0.16    -0.228 OA
DOCKED: BRANCH  22  24
DOCKED: ATOM     24  O   UNL d   1      49.214  21.255   9.165 -0.12 -0.11    -0.303 OA
DOCKED: ATOM     25  H   UNL d   1      48.340  20.798   9.257 -0.25 +0.06    +0.222 HD
DOCKED: ENDBRANCH  22  24
DOCKED: BRANCH  22  26
DOCKED: ATOM     26  O   UNL d   1      51.611  20.907   8.627 -0.07 -0.12    -0.303 OA
DOCKED: ATOM     27  H   UNL d   1      52.065  20.262   9.208 +0.04 +0.08    +0.222 HD
DOCKED: ENDBRANCH  22  26
DOCKED: ENDBRANCH  21  22
DOCKED: ENDBRANCH   6  21
DOCKED: BRANCH   3  28
DOCKED: ATOM     28  O   UNL d   1      49.644  17.192  14.239 -0.01 -0.12    -0.278 OA
DOCKED: BRANCH  28  29
DOCKED: ATOM     29  P   UNL d   1      49.334  15.852  15.043 +0.01 +0.14    +0.473 P 
DOCKED: ATOM     30  O   UNL d   1      48.801  16.039  16.418 +0.00 -0.07    -0.228 OA
DOCKED: BRANCH  29  31
DOCKED: ATOM     31  O   UNL d   1      48.385  15.109  13.991 +0.00 -0.07    -0.303 OA
DOCKED: ATOM     32  H   UNL d   1      47.485  15.506  14.045 +0.01 +0.06    +0.222 HD
DOCKED: ENDBRANCH  29  31
DOCKED: BRANCH  29  33
DOCKED: ATOM     33  O   UNL d   1      50.705  15.055  14.905 +0.00 -0.07    -0.303 OA
DOCKED: ATOM     34  H   UNL d   1      51.347  15.606  14.394 +0.00 +0.05    +0.222 HD
DOCKED: ENDBRANCH  29  33
DOCKED: ENDBRANCH  28  29
DOCKED: ENDBRANCH   3  28
DOCKED: BRANCH   5  35
DOCKED: ATOM     35  O   UNL d   1      52.255  19.269  11.023 -0.02 -0.09    -0.278 OA
DOCKED: BRANCH  35  36
DOCKED: ATOM     36  P   UNL d   1      52.136  20.594  11.904 -0.06 +0.21    +0.473 P 
DOCKED: ATOM     37  O   UNL d   1      51.273  20.485  13.120 -0.12 -0.15    -0.228 OA
DOCKED: BRANCH  36  38
DOCKED: ATOM     38  O   UNL d   1      53.665  20.918  12.212 -0.02 -0.10    -0.303 OA
DOCKED: ATOM     39  H   UNL d   1      53.829  20.806  13.173 +0.02 +0.07    +0.222 HD
DOCKED: ENDBRANCH  36  38
DOCKED: BRANCH  36  40
DOCKED: ATOM     40  O   UNL d   1      51.725  21.685  10.822 -0.12 -0.14    -0.303 OA
DOCKED: ATOM     41  H   UNL d   1      50.919  21.419  10.325 +0.06 +0.11    +0.222 HD
DOCKED: ENDBRANCH  36  40
DOCKED: ENDBRANCH  35  36
DOCKED: ENDBRANCH   5  35
DOCKED: BRANCH   4  42
DOCKED: ATOM     42  O   UNL d   1      52.121  16.958  12.792 -0.00 -0.07    -0.278 OA
DOCKED: BRANCH  42  43
DOCKED: ATOM     43  P   UNL d   1      53.075  17.236  14.040 +0.00 +0.12    +0.473 P 
DOCKED: ATOM     44  O   UNL d   1      54.153  16.246  14.315 +0.00 -0.04    -0.228 OA
DOCKED: BRANCH  43  45
DOCKED: ATOM     45  O   UNL d   1      53.603  18.710  13.753 -0.00 -0.09    -0.303 OA
DOCKED: ATOM     46  H   UNL d   1      53.062  19.158  13.072 +0.02 +0.07    +0.222 HD
DOCKED: ENDBRANCH  43  45
DOCKED: BRANCH  43  47
DOCKED: ATOM     47  O   UNL d   1      52.044  17.488  15.241 -0.00 -0.10    -0.303 OA
DOCKED: ATOM     48  H   UNL d   1      51.156  17.171  14.975 +0.01 +0.08    +0.222 HD
DOCKED: ENDBRANCH  43  47
DOCKED: ENDBRANCH  42  43
DOCKED: ENDBRANCH   4  42
DOCKED: TORSDOF 24
DOCKED: TER
DOCKED: ENDMDL
________________________________________________________________________________


	BEGINNING GENETIC ALGORITHM DOCKING 57 of 100
Run: 57 Seed: 1433219436 570740773 [ Run 57 of 100 GA/GALS ]
Beginning LAMARCKIAN GENETIC ALGORITHM (LGA), with a maximum of 25000000 energy evaluations.

Final-Value: -17.635


	FINAL GENETIC ALGORITHM DOCKED STATE
	_______________________________________________


Detailed state:  trans 0.287 30.661 2.847 quatxyzw 0.620868 0.727262 0.291792 0.021694 center 0.035 0.082 -0.065 ntor 24 141.4715 57.8195 -2.5945 105.0205 -14.3310 178.7991 4.4959 -128.8530 -4.2999 87.9049 94.3546 -140.9838 -48.2340 -30.9334 -162.5308 -48.0589 -15.9824 120.8923 5.4663 -57.7672 -40.4022 12.3786 156.8443 -1.0859
State:	  0.287  30.661   2.847   0.621  0.727  0.292 177.514    141.47   57.82   -2.59  105.02  -14.33  178.80    4.50 -128.85   -4.30   87.90   94.35 -140.98  -48.23  -30.93 -162.53  -48.06  -15.98  120.89    5.47  -57.77  -40.40   12.38  156.84   -1.09

DOCKED: MODEL       57
DOCKED: USER    Run = 57
DOCKED: USER    DPF = D:/Protein_go_brrr/autodock/final/2DN3/IHP/dock.dpf
DOCKED: USER  
DOCKED: USER    Estimated Free Energy of Binding    =   +3.66 kcal/mol  [=(1)+(2)+(3)-(4)]
DOCKED: USER    
DOCKED: USER    (1) Final Intermolecular Energy     =   -3.50 kcal/mol
DOCKED: USER        vdW + Hbond + desolv Energy     =   -3.30 kcal/mol
DOCKED: USER        Electrostatic Energy            =   -0.20 kcal/mol
DOCKED: USER    (2) Final Total Internal Energy     =  -14.14 kcal/mol
DOCKED: USER    (3) Torsional Free Energy           =   +7.16 kcal/mol
DOCKED: USER    (4) Unbound System's Energy  [=(2)] =  -14.14 kcal/mol
DOCKED: USER    
DOCKED: USER    
DOCKED: USER    NEWDPF move IHP_ideal_opt.pdbqt
DOCKED: USER    NEWDPF about 0.035000 0.082000 -0.065000
DOCKED: USER    NEWDPF tran0 0.287401 30.660775 2.846907
DOCKED: USER    NEWDPF quaternion0 0.620868 0.727262 0.291792 0.021694
DOCKED: USER    NEWDPF axisangle0 0.621014 0.727433 0.291861 177.513865
DOCKED: USER    NEWDPF quat0 0.621014 0.727433 0.291861 177.513865
DOCKED: USER    NEWDPF dihe0 141.47 57.82 -2.59 105.02 -14.33 178.80 4.50 -128.85 -4.30 87.90 94.35 -140.98 -48.23 -30.93 -162.53 -48.06 -15.98 120.89 5.47 -57.77 -40.40 12.38 156.84 -1.09 
DOCKED: USER  keepresnum = 1 
DOCKED: USER  
DOCKED: REMARK  24 active torsions:
DOCKED: REMARK  status: ('A' for Active; 'I' for Inactive)
DOCKED: REMARK    1  A    between atoms: C_1  and  O_7 
DOCKED: REMARK    2  A    between atoms: C_2  and  O_12 
DOCKED: REMARK    3  A    between atoms: C_3  and  O_17 
DOCKED: REMARK    4  A    between atoms: C_4  and  O_22 
DOCKED: REMARK    5  A    between atoms: C_5  and  O_27 
DOCKED: REMARK    6  A    between atoms: C_6  and  O_32 
DOCKED: REMARK    7  A    between atoms: O_7  and  P_8 
DOCKED: REMARK    8  A    between atoms: P_8  and  O_10 
DOCKED: REMARK    9  A    between atoms: P_8  and  O_11 
DOCKED: REMARK   10  A    between atoms: O_12  and  P_13 
DOCKED: REMARK   11  A    between atoms: P_13  and  O_15 
DOCKED: REMARK   12  A    between atoms: P_13  and  O_16 
DOCKED: REMARK   13  A    between atoms: O_17  and  P_18 
DOCKED: REMARK   14  A    between atoms: P_18  and  O_20 
DOCKED: REMARK   15  A    between atoms: P_18  and  O_21 
DOCKED: REMARK   16  A    between atoms: O_22  and  P_23 
DOCKED: REMARK   17  A    between atoms: P_23  and  O_25 
DOCKED: REMARK   18  A    between atoms: P_23  and  O_26 
DOCKED: REMARK   19  A    between atoms: O_27  and  P_28 
DOCKED: REMARK   20  A    between atoms: P_28  and  O_30 
DOCKED: REMARK   21  A    between atoms: P_28  and  O_31 
DOCKED: REMARK   22  A    between atoms: O_32  and  P_33 
DOCKED: REMARK   23  A    between atoms: P_33  and  O_35 
DOCKED: REMARK   24  A    between atoms: P_33  and  O_36 
DOCKED: USER                              x       y       z     vdW  Elec       q    Type
DOCKED: USER                           _______ _______ _______ _____ _____    ______ ____
DOCKED: ROOT
DOCKED: ATOM      1  C   UNL d   1      -0.550  32.081   2.332 -0.03 +0.01    +0.194 C 
DOCKED: ATOM      2  C   UNL d   1      -1.124  30.756   1.827 -0.01 -0.00    +0.194 C 
DOCKED: ATOM      3  C   UNL d   1      -0.021  29.801   1.365 -0.03 -0.01    +0.194 C 
DOCKED: ATOM      4  C   UNL d   1       1.073  29.595   2.410 -0.08 -0.03    +0.194 C 
DOCKED: ATOM      5  C   UNL d   1       1.594  30.888   3.025 -0.12 -0.02    +0.194 C 
DOCKED: ATOM      6  C   UNL d   1       0.493  31.869   3.430 -0.07 -0.00    +0.194 C 
DOCKED: ENDROOT
DOCKED: BRANCH   1   7
DOCKED: ATOM      7  O   UNL d   1      -1.619  32.842   2.900 -0.01 -0.03    -0.278 OA
DOCKED: BRANCH   7   8
DOCKED: ATOM      8  P   UNL d   1      -1.998  34.239   2.225 -0.02 +0.11    +0.473 P 
DOCKED: ATOM      9  O   UNL d   1      -1.230  34.575   0.996 -0.04 -0.08    -0.228 OA
DOCKED: BRANCH   8  10
DOCKED: ATOM     10  O   UNL d   1      -3.570  34.133   1.974 -0.00 -0.05    -0.303 OA
DOCKED: ATOM     11  H   UNL d   1      -3.849  33.200   2.037 +0.01 +0.02    +0.222 HD
DOCKED: ENDBRANCH   8  10
DOCKED: BRANCH   8  12
DOCKED: ATOM     12  O   UNL d   1      -1.921  35.302   3.404 -0.04 -0.09    -0.303 OA
DOCKED: ATOM     13  H   UNL d   1      -1.483  34.951   4.211 +0.04 +0.05    +0.222 HD
DOCKED: ENDBRANCH   8  12
DOCKED: ENDBRANCH   7   8
DOCKED: ENDBRANCH   1   7
DOCKED: BRANCH   2  14
DOCKED: ATOM     14  O   UNL d   1      -1.856  30.130   2.887 -0.00 +0.02    -0.278 OA
DOCKED: BRANCH  14  15
DOCKED: ATOM     15  P   UNL d   1      -3.277  30.772   3.253 +0.00 -0.01    +0.473 P 
DOCKED: ATOM     16  O   UNL d   1      -3.963  31.544   2.170 +0.00 -0.01    -0.228 OA
DOCKED: BRANCH  15  17
DOCKED: ATOM     17  O   UNL d   1      -4.138  29.537   3.772 +0.00 +0.02    -0.303 OA
DOCKED: ATOM     18  H   UNL d   1      -4.718  29.191   3.066 +0.00 -0.01    +0.222 HD
DOCKED: ENDBRANCH  15  17
DOCKED: BRANCH  15  19
DOCKED: ATOM     19  O   UNL d   1      -3.016  31.570   4.604 -0.00 +0.00    -0.303 OA
DOCKED: ATOM     20  H   UNL d   1      -2.195  32.095   4.560 +0.02 +0.00    +0.222 HD
DOCKED: ENDBRANCH  15  19
DOCKED: ENDBRANCH  14  15
DOCKED: ENDBRANCH   2  14
DOCKED: BRANCH   6  21
DOCKED: ATOM     21  O   UNL d   1       1.125  33.128   3.656 -0.13 -0.03    -0.278 OA
DOCKED: BRANCH  21  22
DOCKED: ATOM     22  P   UNL d   1       0.614  34.069   4.838 -0.13 +0.08    +0.473 P 
DOCKED: ATOM     23  O   UNL d   1       0.376  35.511   4.538 -0.13 -0.08    -0.228 OA
DOCKED: BRANCH  22  24
DOCKED: ATOM     24  O   UNL d   1      -0.663  33.275   5.358 -0.04 -0.02    -0.303 OA
DOCKED: ATOM     25  H   UNL d   1      -1.420  33.476   4.750 +0.04 +0.02    +0.222 HD
DOCKED: ENDBRANCH  22  24
DOCKED: BRANCH  22  26
DOCKED: ATOM     26  O   UNL d   1       1.688  33.758   5.988 -0.29 -0.01    -0.303 OA
DOCKED: ATOM     27  H   UNL d   1       2.376  33.160   5.632 -0.33 -0.03    +0.222 HD
DOCKED: ENDBRANCH  22  26
DOCKED: ENDBRANCH  21  22
DOCKED: ENDBRANCH   6  21
DOCKED: BRANCH   3  28
DOCKED: ATOM     28  O   UNL d   1      -0.613  28.521   1.181 -0.02 +0.03    -0.278 OA
DOCKED: BRANCH  28  29
DOCKED: ATOM     29  P   UNL d   1      -0.514  27.784  -0.227 -0.04 -0.01    +0.473 P 
DOCKED: ATOM     30  O   UNL d   1      -1.381  28.333  -1.300 -0.07 -0.01    -0.228 OA
DOCKED: BRANCH  29  31
DOCKED: ATOM     31  O   UNL d   1       1.067  27.850  -0.466 +0.05 -0.00    -0.303 OA
DOCKED: ATOM     32  H   UNL d   1       1.519  27.431   0.302 +0.02 -0.04    +0.222 HD
DOCKED: ENDBRANCH  29  31
DOCKED: BRANCH  29  33
DOCKED: ATOM     33  O   UNL d   1      -0.745  26.261   0.176 -0.05 +0.03    -0.303 OA
DOCKED: ATOM     34  H   UNL d   1       0.042  25.939   0.681 +0.06 -0.04    +0.222 HD
DOCKED: ENDBRANCH  29  33
DOCKED: ENDBRANCH  28  29
DOCKED: ENDBRANCH   3  28
DOCKED: BRANCH   5  35
DOCKED: ATOM     35  O   UNL d   1       2.273  30.502   4.219 -0.18 +0.05    -0.278 OA
DOCKED: BRANCH  35  36
DOCKED: ATOM     36  P   UNL d   1       1.445  30.018   5.494 -0.15 -0.18    +0.473 P 
DOCKED: ATOM     37  O   UNL d   1       0.125  29.379   5.201 -0.09 +0.10    -0.228 OA
DOCKED: BRANCH  36  38
DOCKED: ATOM     38  O   UNL d   1       2.491  29.059   6.216 -0.26 +0.22    -0.303 OA
DOCKED: ATOM     39  H   UNL d   1       2.555  28.218   5.715 -0.27 -0.31    +0.222 HD
DOCKED: ENDBRANCH  36  38
DOCKED: BRANCH  36  40
DOCKED: ATOM     40  O   UNL d   1       1.430  31.322   6.404 -0.13 +0.05    -0.303 OA
DOCKED: ATOM     41  H   UNL d   1       1.200  32.125   5.886 +0.09 -0.01    +0.222 HD
DOCKED: ENDBRANCH  36  40
DOCKED: ENDBRANCH  35  36
DOCKED: ENDBRANCH   5  35
DOCKED: BRANCH   4  42
DOCKED: ATOM     42  O   UNL d   1       2.175  28.973   1.740 -0.13 +0.05    -0.278 OA
DOCKED: BRANCH  42  43
DOCKED: ATOM     43  P   UNL d   1       2.553  27.469   2.111 -0.15 -0.20    +0.473 P 
DOCKED: ATOM     44  O   UNL d   1       3.489  26.752   1.201 -0.38 +0.08    -0.228 OA
DOCKED: BRANCH  43  45
DOCKED: ATOM     45  O   UNL d   1       3.075  27.600   3.609 -0.25 +0.22    -0.303 OA
DOCKED: ATOM     46  H   UNL d   1       2.741  28.415   4.034 +0.08 -0.14    +0.222 HD
DOCKED: ENDBRANCH  43  45
DOCKED: BRANCH  43  47
DOCKED: ATOM     47  O   UNL d   1       1.125  26.773   2.324 -0.09 +0.16    -0.303 OA
DOCKED: ATOM     48  H   UNL d   1       0.493  27.126   1.663 +0.07 -0.07    +0.222 HD
DOCKED: ENDBRANCH  43  47
DOCKED: ENDBRANCH  42  43
DOCKED: ENDBRANCH   4  42
DOCKED: TORSDOF 24
DOCKED: TER
DOCKED: ENDMDL
________________________________________________________________________________


	BEGINNING GENETIC ALGORITHM DOCKING 58 of 100
Run: 58 Seed: 2072316814 1691400218 [ Run 58 of 100 GA/GALS ]
Beginning LAMARCKIAN GENETIC ALGORITHM (LGA), with a maximum of 25000000 energy evaluations.

Final-Value: -16.704


	FINAL GENETIC ALGORITHM DOCKED STATE
	_______________________________________________


Detailed state:  trans 12.094 60.323 2.176 quatxyzw -0.345444 -0.436442 0.020777 0.830515 center 0.035 0.082 -0.065 ntor 24 -134.0352 27.1998 119.2972 86.4487 21.4542 -162.8330 -84.9435 -27.4616 114.9872 -15.7059 149.7665 -179.9406 56.1777 100.5314 -33.8695 -149.7403 -179.9734 -133.2405 20.3972 -7.1707 169.7817 4.6262 0.0787 5.5671
State:	 12.094  60.323   2.176  -0.620 -0.784  0.037 67.697   -134.04   27.20  119.30   86.45   21.45 -162.83  -84.94  -27.46  114.99  -15.71  149.77 -179.94   56.18  100.53  -33.87 -149.74 -179.97 -133.24   20.40   -7.17  169.78    4.63    0.08    5.57

DOCKED: MODEL       58
DOCKED: USER    Run = 58
DOCKED: USER    DPF = D:/Protein_go_brrr/autodock/final/2DN3/IHP/dock.dpf
DOCKED: USER  
DOCKED: USER    Estimated Free Energy of Binding    =   +4.87 kcal/mol  [=(1)+(2)+(3)-(4)]
DOCKED: USER    
DOCKED: USER    (1) Final Intermolecular Energy     =   -2.29 kcal/mol
DOCKED: USER        vdW + Hbond + desolv Energy     =   -1.83 kcal/mol
DOCKED: USER        Electrostatic Energy            =   -0.45 kcal/mol
DOCKED: USER    (2) Final Total Internal Energy     =  -14.42 kcal/mol
DOCKED: USER    (3) Torsional Free Energy           =   +7.16 kcal/mol
DOCKED: USER    (4) Unbound System's Energy  [=(2)] =  -14.42 kcal/mol
DOCKED: USER    
DOCKED: USER    
DOCKED: USER    NEWDPF move IHP_ideal_opt.pdbqt
DOCKED: USER    NEWDPF about 0.035000 0.082000 -0.065000
DOCKED: USER    NEWDPF tran0 12.093694 60.323239 2.175576
DOCKED: USER    NEWDPF quaternion0 -0.345444 -0.436442 0.020777 0.830515
DOCKED: USER    NEWDPF axisangle0 -0.620191 -0.783564 0.037301 67.696624
DOCKED: USER    NEWDPF quat0 -0.620191 -0.783564 0.037301 67.696624
DOCKED: USER    NEWDPF dihe0 -134.04 27.20 119.30 86.45 21.45 -162.83 -84.94 -27.46 114.99 -15.71 149.77 -179.94 56.18 100.53 -33.87 -149.74 -179.97 -133.24 20.40 -7.17 169.78 4.63 0.08 5.57 
DOCKED: USER  keepresnum = 1 
DOCKED: USER  
DOCKED: REMARK  24 active torsions:
DOCKED: REMARK  status: ('A' for Active; 'I' for Inactive)
DOCKED: REMARK    1  A    between atoms: C_1  and  O_7 
DOCKED: REMARK    2  A    between atoms: C_2  and  O_12 
DOCKED: REMARK    3  A    between atoms: C_3  and  O_17 
DOCKED: REMARK    4  A    between atoms: C_4  and  O_22 
DOCKED: REMARK    5  A    between atoms: C_5  and  O_27 
DOCKED: REMARK    6  A    between atoms: C_6  and  O_32 
DOCKED: REMARK    7  A    between atoms: O_7  and  P_8 
DOCKED: REMARK    8  A    between atoms: P_8  and  O_10 
DOCKED: REMARK    9  A    between atoms: P_8  and  O_11 
DOCKED: REMARK   10  A    between atoms: O_12  and  P_13 
DOCKED: REMARK   11  A    between atoms: P_13  and  O_15 
DOCKED: REMARK   12  A    between atoms: P_13  and  O_16 
DOCKED: REMARK   13  A    between atoms: O_17  and  P_18 
DOCKED: REMARK   14  A    between atoms: P_18  and  O_20 
DOCKED: REMARK   15  A    between atoms: P_18  and  O_21 
DOCKED: REMARK   16  A    between atoms: O_22  and  P_23 
DOCKED: REMARK   17  A    between atoms: P_23  and  O_25 
DOCKED: REMARK   18  A    between atoms: P_23  and  O_26 
DOCKED: REMARK   19  A    between atoms: O_27  and  P_28 
DOCKED: REMARK   20  A    between atoms: P_28  and  O_30 
DOCKED: REMARK   21  A    between atoms: P_28  and  O_31 
DOCKED: REMARK   22  A    between atoms: O_32  and  P_33 
DOCKED: REMARK   23  A    between atoms: P_33  and  O_35 
DOCKED: REMARK   24  A    between atoms: P_33  and  O_36 
DOCKED: USER                              x       y       z     vdW  Elec       q    Type
DOCKED: USER                           _______ _______ _______ _____ _____    ______ ____
DOCKED: ROOT
DOCKED: ATOM      1  C   UNL d   1      13.132  59.514   1.057 -0.05 -0.11    +0.194 C 
DOCKED: ATOM      2  C   UNL d   1      11.828  58.788   1.392 -0.01 -0.17    +0.194 C 
DOCKED: ATOM      3  C   UNL d   1      11.518  58.844   2.890 -0.05 -0.11    +0.194 C 
DOCKED: ATOM      4  C   UNL d   1      11.553  60.260   3.459 -0.01 -0.05    +0.194 C 
DOCKED: ATOM      5  C   UNL d   1      12.783  61.061   3.054 -0.00 -0.04    +0.194 C 
DOCKED: ATOM      6  C   UNL d   1      13.129  60.956   1.567 -0.00 -0.05    +0.194 C 
DOCKED: ENDROOT
DOCKED: BRANCH   1   7
DOCKED: ATOM      7  O   UNL d   1      13.260  59.566  -0.366 -0.04 +0.13    -0.278 OA
DOCKED: BRANCH   7   8
DOCKED: ATOM      8  P   UNL d   1      14.257  58.540  -1.077 -0.07 -0.26    +0.473 P 
DOCKED: ATOM      9  O   UNL d   1      13.597  57.447  -1.842 -0.15 +0.18    -0.228 OA
DOCKED: BRANCH   8  10
DOCKED: ATOM     10  O   UNL d   1      15.187  59.467  -1.982 -0.02 +0.07    -0.303 OA
DOCKED: ATOM     11  H   UNL d   1      15.755  60.017  -1.411 +0.02 -0.04    +0.222 HD
DOCKED: ENDBRANCH   8  10
DOCKED: BRANCH   8  12
DOCKED: ATOM     12  O   UNL d   1      15.259  58.079   0.067 -0.67 +0.14    -0.303 OA
DOCKED: ATOM     13  H   UNL d   1      15.263  58.684   0.842 +0.05 -0.10    +0.222 HD
DOCKED: ENDBRANCH   8  12
DOCKED: ENDBRANCH   7   8
DOCKED: ENDBRANCH   1   7
DOCKED: BRANCH   2  14
DOCKED: ATOM     14  O   UNL d   1      10.751  59.409   0.679 -0.04 +0.12    -0.278 OA
DOCKED: BRANCH  14  15
DOCKED: ATOM     15  P   UNL d   1       9.869  58.455  -0.258 -0.03 -0.19    +0.473 P 
DOCKED: ATOM     16  O   UNL d   1       8.475  58.910  -0.557 -0.01 +0.04    -0.228 OA
DOCKED: BRANCH  15  17
DOCKED: ATOM     17  O   UNL d   1      10.755  58.276  -1.570 -0.06 +0.12    -0.303 OA
DOCKED: ATOM     18  H   UNL d   1      11.700  58.433  -1.381 +0.03 -0.12    +0.222 HD
DOCKED: ENDBRANCH  15  17
DOCKED: BRANCH  15  19
DOCKED: ATOM     19  O   UNL d   1       9.994  57.017   0.411 -0.02 +0.23    -0.303 OA
DOCKED: ATOM     20  H   UNL d   1      10.170  57.079   1.368 -0.19 -0.22    +0.222 HD
DOCKED: ENDBRANCH  15  19
DOCKED: ENDBRANCH  14  15
DOCKED: ENDBRANCH   2  14
DOCKED: BRANCH   6  21
DOCKED: ATOM     21  O   UNL d   1      14.456  61.455   1.416 +0.00 +0.05    -0.278 OA
DOCKED: BRANCH  21  22
DOCKED: ATOM     22  P   UNL d   1      15.681  60.651   2.047 +0.01 -0.09    +0.473 P 
DOCKED: ATOM     23  O   UNL d   1      15.384  59.433   2.854 -0.05 +0.07    -0.228 OA
DOCKED: BRANCH  22  24
DOCKED: ATOM     24  O   UNL d   1      16.597  60.399   0.770 -0.01 +0.05    -0.303 OA
DOCKED: ATOM     25  H   UNL d   1      16.013  60.102   0.026 +0.03 -0.04    +0.222 HD
DOCKED: ENDBRANCH  22  24
DOCKED: BRANCH  22  26
DOCKED: ATOM     26  O   UNL d   1      16.481  61.817   2.803 +0.00 +0.03    -0.303 OA
DOCKED: ATOM     27  H   UNL d   1      15.868  62.556   2.994 +0.00 -0.02    +0.222 HD
DOCKED: ENDBRANCH  22  26
DOCKED: ENDBRANCH  21  22
DOCKED: ENDBRANCH   6  21
DOCKED: BRANCH   3  28
DOCKED: ATOM     28  O   UNL d   1      10.179  58.399   3.066 -0.04 +0.12    -0.278 OA
DOCKED: BRANCH  28  29
DOCKED: ATOM     29  P   UNL d   1       9.876  57.059   3.872 -0.03 -0.20    +0.473 P 
DOCKED: ATOM     30  O   UNL d   1       8.451  56.641   3.908 -0.04 +0.05    -0.228 OA
DOCKED: BRANCH  29  31
DOCKED: ATOM     31  O   UNL d   1      10.907  56.065   3.159 +0.05 +0.34    -0.303 OA
DOCKED: ATOM     32  H   UNL d   1      10.990  56.325   2.212 -0.49 -0.44    +0.222 HD
DOCKED: ENDBRANCH  29  31
DOCKED: BRANCH  29  33
DOCKED: ATOM     33  O   UNL d   1      10.577  57.347   5.273 -0.03 +0.10    -0.303 OA
DOCKED: ATOM     34  H   UNL d   1      10.531  58.316   5.462 +0.03 -0.06    +0.222 HD
DOCKED: ENDBRANCH  29  33
DOCKED: ENDBRANCH  28  29
DOCKED: ENDBRANCH   3  28
DOCKED: BRANCH   5  35
DOCKED: ATOM     35  O   UNL d   1      12.459  62.426   3.314 +0.00 +0.03    -0.278 OA
DOCKED: BRANCH  35  36
DOCKED: ATOM     36  P   UNL d   1      13.467  63.350   4.135 +0.00 -0.04    +0.473 P 
DOCKED: ATOM     37  O   UNL d   1      12.842  64.212   5.185 +0.00 +0.01    -0.228 OA
DOCKED: BRANCH  36  38
DOCKED: ATOM     38  O   UNL d   1      14.505  62.281   4.697 +0.00 +0.03    -0.303 OA
DOCKED: ATOM     39  H   UNL d   1      14.748  61.659   3.978 +0.01 -0.03    +0.222 HD
DOCKED: ENDBRANCH  36  38
DOCKED: BRANCH  36  40
DOCKED: ATOM     40  O   UNL d   1      14.269  64.089   2.978 +0.00 +0.02    -0.303 OA
DOCKED: ATOM     41  H   UNL d   1      14.709  63.451   2.373 +0.00 -0.02    +0.222 HD
DOCKED: ENDBRANCH  36  40
DOCKED: ENDBRANCH  35  36
DOCKED: ENDBRANCH   5  35
DOCKED: BRANCH   4  42
DOCKED: ATOM     42  O   UNL d   1      11.583  60.133   4.884 -0.00 +0.06    -0.278 OA
DOCKED: BRANCH  42  43
DOCKED: ATOM     43  P   UNL d   1      10.261  60.458   5.716 +0.00 -0.06    +0.473 P 
DOCKED: ATOM     44  O   UNL d   1      10.040  61.872   6.129 +0.00 +0.02    -0.228 OA
DOCKED: BRANCH  43  45
DOCKED: ATOM     45  O   UNL d   1       9.112  59.863   4.790 -0.00 +0.04    -0.303 OA
DOCKED: ATOM     46  H   UNL d   1       9.066  58.889   4.858 +0.01 -0.04    +0.222 HD
DOCKED: ENDBRANCH  43  45
DOCKED: BRANCH  43  47
DOCKED: ATOM     47  O   UNL d   1      10.306  59.388   6.908 +0.00 +0.05    -0.303 OA
DOCKED: ATOM     48  H   UNL d   1      11.100  58.824   6.806 +0.03 -0.04    +0.222 HD
DOCKED: ENDBRANCH  43  47
DOCKED: ENDBRANCH  42  43
DOCKED: ENDBRANCH   4  42
DOCKED: TORSDOF 24
DOCKED: TER
DOCKED: ENDMDL
________________________________________________________________________________


	BEGINNING GENETIC ALGORITHM DOCKING 59 of 100
Run: 59 Seed: 1351309311 116279180 [ Run 59 of 100 GA/GALS ]
Beginning LAMARCKIAN GENETIC ALGORITHM (LGA), with a maximum of 25000000 energy evaluations.

Final-Value: -19.896


	FINAL GENETIC ALGORITHM DOCKED STATE
	_______________________________________________


Detailed state:  trans 13.330 50.729 -7.234 quatxyzw 0.225737 0.630547 -0.697042 0.256098 center 0.035 0.082 -0.065 ntor 24 40.9273 73.7228 141.6157 -22.3744 62.7376 144.1660 -103.1276 -93.5879 3.8435 94.9506 101.3796 138.4872 -25.6394 168.8251 131.3993 30.0786 -64.6657 -148.5206 -167.1526 22.4271 -8.7349 9.3052 178.0122 6.1457
State:	 13.330  50.729  -7.234   0.234  0.652 -0.721 150.323     40.93   73.72  141.62  -22.37   62.74  144.17 -103.13  -93.59    3.84   94.95  101.38  138.49  -25.64  168.83  131.40   30.08  -64.67 -148.52 -167.15   22.43   -8.73    9.31  178.01    6.15

DOCKED: MODEL       59
DOCKED: USER    Run = 59
DOCKED: USER    DPF = D:/Protein_go_brrr/autodock/final/2DN3/IHP/dock.dpf
DOCKED: USER  
DOCKED: USER    Estimated Free Energy of Binding    =   +2.96 kcal/mol  [=(1)+(2)+(3)-(4)]
DOCKED: USER    
DOCKED: USER    (1) Final Intermolecular Energy     =   -4.20 kcal/mol
DOCKED: USER        vdW + Hbond + desolv Energy     =   -4.13 kcal/mol
DOCKED: USER        Electrostatic Energy            =   -0.07 kcal/mol
DOCKED: USER    (2) Final Total Internal Energy     =  -15.70 kcal/mol
DOCKED: USER    (3) Torsional Free Energy           =   +7.16 kcal/mol
DOCKED: USER    (4) Unbound System's Energy  [=(2)] =  -15.70 kcal/mol
DOCKED: USER    
DOCKED: USER    
DOCKED: USER    NEWDPF move IHP_ideal_opt.pdbqt
DOCKED: USER    NEWDPF about 0.035000 0.082000 -0.065000
DOCKED: USER    NEWDPF tran0 13.330148 50.728540 -7.234391
DOCKED: USER    NEWDPF quaternion0 0.225737 0.630547 -0.697042 0.256098
DOCKED: USER    NEWDPF axisangle0 0.233525 0.652301 -0.721090 150.322658
DOCKED: USER    NEWDPF quat0 0.233525 0.652301 -0.721090 150.322658
DOCKED: USER    NEWDPF dihe0 40.93 73.72 141.62 -22.37 62.74 144.17 -103.13 -93.59 3.84 94.95 101.38 138.49 -25.64 168.83 131.40 30.08 -64.67 -148.52 -167.15 22.43 -8.73 9.31 178.01 6.15 
DOCKED: USER  keepresnum = 1 
DOCKED: USER  
DOCKED: REMARK  24 active torsions:
DOCKED: REMARK  status: ('A' for Active; 'I' for Inactive)
DOCKED: REMARK    1  A    between atoms: C_1  and  O_7 
DOCKED: REMARK    2  A    between atoms: C_2  and  O_12 
DOCKED: REMARK    3  A    between atoms: C_3  and  O_17 
DOCKED: REMARK    4  A    between atoms: C_4  and  O_22 
DOCKED: REMARK    5  A    between atoms: C_5  and  O_27 
DOCKED: REMARK    6  A    between atoms: C_6  and  O_32 
DOCKED: REMARK    7  A    between atoms: O_7  and  P_8 
DOCKED: REMARK    8  A    between atoms: P_8  and  O_10 
DOCKED: REMARK    9  A    between atoms: P_8  and  O_11 
DOCKED: REMARK   10  A    between atoms: O_12  and  P_13 
DOCKED: REMARK   11  A    between atoms: P_13  and  O_15 
DOCKED: REMARK   12  A    between atoms: P_13  and  O_16 
DOCKED: REMARK   13  A    between atoms: O_17  and  P_18 
DOCKED: REMARK   14  A    between atoms: P_18  and  O_20 
DOCKED: REMARK   15  A    between atoms: P_18  and  O_21 
DOCKED: REMARK   16  A    between atoms: O_22  and  P_23 
DOCKED: REMARK   17  A    between atoms: P_23  and  O_25 
DOCKED: REMARK   18  A    between atoms: P_23  and  O_26 
DOCKED: REMARK   19  A    between atoms: O_27  and  P_28 
DOCKED: REMARK   20  A    between atoms: P_28  and  O_30 
DOCKED: REMARK   21  A    between atoms: P_28  and  O_31 
DOCKED: REMARK   22  A    between atoms: O_32  and  P_33 
DOCKED: REMARK   23  A    between atoms: P_33  and  O_35 
DOCKED: REMARK   24  A    between atoms: P_33  and  O_36 
DOCKED: USER                              x       y       z     vdW  Elec       q    Type
DOCKED: USER                           _______ _______ _______ _____ _____    ______ ____
DOCKED: ROOT
DOCKED: ATOM      1  C   UNL d   1      11.929  50.994  -6.259 -0.20 -0.04    +0.194 C 
DOCKED: ATOM      2  C   UNL d   1      13.180  50.534  -5.508 -0.22 -0.05    +0.194 C 
DOCKED: ATOM      3  C   UNL d   1      13.907  49.412  -6.252 -0.22 -0.03    +0.194 C 
DOCKED: ATOM      4  C   UNL d   1      14.202  49.751  -7.711 -0.13 -0.02    +0.194 C 
DOCKED: ATOM      5  C   UNL d   1      13.011  50.322  -8.469 -0.12 -0.02    +0.194 C 
DOCKED: ATOM      6  C   UNL d   1      12.246  51.401  -7.699 -0.11 -0.02    +0.194 C 
DOCKED: ENDROOT
DOCKED: BRANCH   1   7
DOCKED: ATOM      7  O   UNL d   1      11.409  52.148  -5.595 -0.15 +0.03    -0.278 OA
DOCKED: BRANCH   7   8
DOCKED: ATOM      8  P   UNL d   1      12.231  53.515  -5.692 -0.07 -0.06    +0.473 P 
DOCKED: ATOM      9  O   UNL d   1      13.093  53.648  -6.898 -0.03 +0.02    -0.228 OA
DOCKED: BRANCH   8  10
DOCKED: ATOM     10  O   UNL d   1      11.111  54.647  -5.592 -0.06 +0.02    -0.303 OA
DOCKED: ATOM     11  H   UNL d   1      11.094  55.163  -6.420 +0.03 -0.01    +0.222 HD
DOCKED: ENDBRANCH   8  10
DOCKED: BRANCH   8  12
DOCKED: ATOM     12  O   UNL d   1      12.969  53.653  -4.292 -0.18 +0.08    -0.303 OA
DOCKED: ATOM     13  H   UNL d   1      13.164  52.785  -3.872 -0.11 -0.09    +0.222 HD
DOCKED: ENDBRANCH   8  12
DOCKED: ENDBRANCH   7   8
DOCKED: ENDBRANCH   1   7
DOCKED: BRANCH   2  14
DOCKED: ATOM     14  O   UNL d   1      14.075  51.644  -5.368 -0.12 +0.06    -0.278 OA
DOCKED: BRANCH  14  15
DOCKED: ATOM     15  P   UNL d   1      15.086  51.596  -4.127 -0.17 -0.10    +0.473 P 
DOCKED: ATOM     16  O   UNL d   1      15.247  52.860  -3.341 -0.52 +0.06    -0.228 OA
DOCKED: BRANCH  15  17
DOCKED: ATOM     17  O   UNL d   1      14.556  50.383  -3.242 -0.33 +0.07    -0.303 OA
DOCKED: ATOM     18  H   UNL d   1      14.359  49.603  -3.796 +0.09 -0.06    +0.222 HD
DOCKED: ENDBRANCH  15  17
DOCKED: BRANCH  15  19
DOCKED: ATOM     19  O   UNL d   1      16.426  50.989  -4.731 -0.07 +0.05    -0.303 OA
DOCKED: ATOM     20  H   UNL d   1      16.392  50.016  -4.780 +0.09 -0.04    +0.222 HD
DOCKED: ENDBRANCH  15  19
DOCKED: ENDBRANCH  14  15
DOCKED: ENDBRANCH   2  14
DOCKED: BRANCH   6  21
DOCKED: ATOM     21  O   UNL d   1      11.000  51.579  -8.367 -0.07 +0.02    -0.278 OA
DOCKED: BRANCH  21  22
DOCKED: ATOM     22  P   UNL d   1      10.710  52.937  -9.154 +0.00 -0.01    +0.473 P 
DOCKED: ATOM     23  O   UNL d   1       9.617  52.944 -10.169 -0.01 -0.00    -0.228 OA
DOCKED: BRANCH  22  24
DOCKED: ATOM     24  O   UNL d   1      10.518  53.971  -7.959 -0.01 +0.00    -0.303 OA
DOCKED: ATOM     25  H   UNL d   1      10.577  53.470  -7.106 +0.04 -0.00    +0.222 HD
DOCKED: ENDBRANCH  22  24
DOCKED: BRANCH  22  26
DOCKED: ATOM     26  O   UNL d   1      12.171  53.320  -9.692 -0.00 +0.01    -0.303 OA
DOCKED: ATOM     27  H   UNL d   1      12.843  52.980  -9.066 +0.02 -0.01    +0.222 HD
DOCKED: ENDBRANCH  22  26
DOCKED: ENDBRANCH  21  22
DOCKED: ENDBRANCH   6  21
DOCKED: BRANCH   3  28
DOCKED: ATOM     28  O   UNL d   1      15.179  49.246  -5.638 -0.13 +0.05    -0.278 OA
DOCKED: BRANCH  28  29
DOCKED: ATOM     29  P   UNL d   1      15.581  47.850  -4.985 -0.26 -0.10    +0.473 P 
DOCKED: ATOM     30  O   UNL d   1      14.591  46.756  -5.153 -0.47 +0.08    -0.228 OA
DOCKED: BRANCH  29  31
DOCKED: ATOM     31  O   UNL d   1      17.021  47.636  -5.648 -0.18 +0.05    -0.303 OA
DOCKED: ATOM     32  H   UNL d   1      16.937  47.745  -6.624 +0.09 -0.03    +0.222 HD
DOCKED: ENDBRANCH  29  31
DOCKED: BRANCH  29  33
DOCKED: ATOM     33  O   UNL d   1      15.940  48.272  -3.492 -0.28 +0.09    -0.303 OA
DOCKED: ATOM     34  H   UNL d   1      16.355  49.169  -3.503 -0.04 -0.08    +0.222 HD
DOCKED: ENDBRANCH  29  33
DOCKED: ENDBRANCH  28  29
DOCKED: ENDBRANCH   3  28
DOCKED: BRANCH   5  35
DOCKED: ATOM     35  O   UNL d   1      13.553  50.942  -9.633 -0.03 +0.02    -0.278 OA
DOCKED: BRANCH  35  36
DOCKED: ATOM     36  P   UNL d   1      14.750  51.988  -9.504 +0.00 -0.02    +0.473 P 
DOCKED: ATOM     37  O   UNL d   1      14.922  52.608  -8.153 -0.01 +0.01    -0.228 OA
DOCKED: BRANCH  36  38
DOCKED: ATOM     38  O   UNL d   1      15.995  51.121  -9.989 -0.00 +0.01    -0.303 OA
DOCKED: ATOM     39  H   UNL d   1      16.155  50.400  -9.343 +0.02 -0.01    +0.222 HD
DOCKED: ENDBRANCH  36  38
DOCKED: BRANCH  36  40
DOCKED: ATOM     40  O   UNL d   1      14.473  52.974 -10.720 -0.00 +0.01    -0.303 OA
DOCKED: ATOM     41  H   UNL d   1      13.556  53.327 -10.701 +0.00 -0.01    +0.222 HD
DOCKED: ENDBRANCH  36  40
DOCKED: ENDBRANCH  35  36
DOCKED: ENDBRANCH   5  35
DOCKED: BRANCH   4  42
DOCKED: ATOM     42  O   UNL d   1      14.564  48.525  -8.356 -0.12 +0.03    -0.278 OA
DOCKED: BRANCH  42  43
DOCKED: ATOM     43  P   UNL d   1      16.098  48.259  -8.703 -0.05 -0.05    +0.473 P 
DOCKED: ATOM     44  O   UNL d   1      16.524  48.443 -10.118 -0.04 +0.02    -0.228 OA
DOCKED: BRANCH  43  45
DOCKED: ATOM     45  O   UNL d   1      16.857  49.198  -7.666 -0.02 +0.03    -0.303 OA
DOCKED: ATOM     46  H   UNL d   1      16.333  49.330  -6.851 +0.07 -0.02    +0.222 HD
DOCKED: ENDBRANCH  43  45
DOCKED: BRANCH  43  47
DOCKED: ATOM     47  O   UNL d   1      16.366  46.805  -8.082 -0.16 +0.05    -0.303 OA
DOCKED: ATOM     48  H   UNL d   1      15.942  46.747  -7.201 +0.10 -0.04    +0.222 HD
DOCKED: ENDBRANCH  43  47
DOCKED: ENDBRANCH  42  43
DOCKED: ENDBRANCH   4  42
DOCKED: TORSDOF 24
DOCKED: TER
DOCKED: ENDMDL
________________________________________________________________________________


	BEGINNING GENETIC ALGORITHM DOCKING 60 of 100
Run: 60 Seed: 1941723461 666804897 [ Run 60 of 100 GA/GALS ]
Beginning LAMARCKIAN GENETIC ALGORITHM (LGA), with a maximum of 25000000 energy evaluations.

Final-Value: -17.389


	FINAL GENETIC ALGORITHM DOCKED STATE
	_______________________________________________


Detailed state:  trans 54.821 38.916 14.177 quatxyzw 0.054384 -0.603358 -0.769949 -0.200450 center 0.035 0.082 -0.065 ntor 24 121.0730 -154.3400 176.4359 5.1277 17.5751 157.8442 -73.2547 -3.1941 -19.0042 90.9243 102.3922 -155.2441 -84.6807 173.8439 180.0000 -4.8913 -10.2752 125.6475 59.4775 17.0456 -19.1307 -3.7485 171.2669 -1.4961
State:	 54.821  38.916  14.177   0.056 -0.616 -0.786 -156.873    121.07 -154.34  176.44    5.13   17.58  157.84  -73.25   -3.19  -19.00   90.92  102.39 -155.24  -84.68  173.84  180.00   -4.89  -10.28  125.65   59.48   17.05  -19.13   -3.75  171.27   -1.50

DOCKED: MODEL       60
DOCKED: USER    Run = 60
DOCKED: USER    DPF = D:/Protein_go_brrr/autodock/final/2DN3/IHP/dock.dpf
DOCKED: USER  
DOCKED: USER    Estimated Free Energy of Binding    =   +5.15 kcal/mol  [=(1)+(2)+(3)-(4)]
DOCKED: USER    
DOCKED: USER    (1) Final Intermolecular Energy     =   -2.01 kcal/mol
DOCKED: USER        vdW + Hbond + desolv Energy     =   -1.94 kcal/mol
DOCKED: USER        Electrostatic Energy            =   -0.06 kcal/mol
DOCKED: USER    (2) Final Total Internal Energy     =  -15.38 kcal/mol
DOCKED: USER    (3) Torsional Free Energy           =   +7.16 kcal/mol
DOCKED: USER    (4) Unbound System's Energy  [=(2)] =  -15.38 kcal/mol
DOCKED: USER    
DOCKED: USER    
DOCKED: USER    NEWDPF move IHP_ideal_opt.pdbqt
DOCKED: USER    NEWDPF about 0.035000 0.082000 -0.065000
DOCKED: USER    NEWDPF tran0 54.821017 38.916400 14.176527
DOCKED: USER    NEWDPF quaternion0 0.054384 -0.603358 -0.769949 -0.200450
DOCKED: USER    NEWDPF axisangle0 0.055510 -0.615858 -0.785899 -156.873425
DOCKED: USER    NEWDPF quat0 0.055510 -0.615858 -0.785899 -156.873425
DOCKED: USER    NEWDPF dihe0 121.07 -154.34 176.44 5.13 17.58 157.84 -73.25 -3.19 -19.00 90.92 102.39 -155.24 -84.68 173.84 180.00 -4.89 -10.28 125.65 59.48 17.05 -19.13 -3.75 171.27 -1.50 
DOCKED: USER  keepresnum = 1 
DOCKED: USER  
DOCKED: REMARK  24 active torsions:
DOCKED: REMARK  status: ('A' for Active; 'I' for Inactive)
DOCKED: REMARK    1  A    between atoms: C_1  and  O_7 
DOCKED: REMARK    2  A    between atoms: C_2  and  O_12 
DOCKED: REMARK    3  A    between atoms: C_3  and  O_17 
DOCKED: REMARK    4  A    between atoms: C_4  and  O_22 
DOCKED: REMARK    5  A    between atoms: C_5  and  O_27 
DOCKED: REMARK    6  A    between atoms: C_6  and  O_32 
DOCKED: REMARK    7  A    between atoms: O_7  and  P_8 
DOCKED: REMARK    8  A    between atoms: P_8  and  O_10 
DOCKED: REMARK    9  A    between atoms: P_8  and  O_11 
DOCKED: REMARK   10  A    between atoms: O_12  and  P_13 
DOCKED: REMARK   11  A    between atoms: P_13  and  O_15 
DOCKED: REMARK   12  A    between atoms: P_13  and  O_16 
DOCKED: REMARK   13  A    between atoms: O_17  and  P_18 
DOCKED: REMARK   14  A    between atoms: P_18  and  O_20 
DOCKED: REMARK   15  A    between atoms: P_18  and  O_21 
DOCKED: REMARK   16  A    between atoms: O_22  and  P_23 
DOCKED: REMARK   17  A    between atoms: P_23  and  O_25 
DOCKED: REMARK   18  A    between atoms: P_23  and  O_26 
DOCKED: REMARK   19  A    between atoms: O_27  and  P_28 
DOCKED: REMARK   20  A    between atoms: P_28  and  O_30 
DOCKED: REMARK   21  A    between atoms: P_28  and  O_31 
DOCKED: REMARK   22  A    between atoms: O_32  and  P_33 
DOCKED: REMARK   23  A    between atoms: P_33  and  O_35 
DOCKED: REMARK   24  A    between atoms: P_33  and  O_36 
DOCKED: USER                              x       y       z     vdW  Elec       q    Type
DOCKED: USER                           _______ _______ _______ _____ _____    ______ ____
DOCKED: ROOT
DOCKED: ATOM      1  C   UNL d   1      53.203  39.335  13.741 -0.02 +0.00    +0.194 C 
DOCKED: ATOM      2  C   UNL d   1      54.268  39.622  12.681 -0.01 +0.00    +0.194 C 
DOCKED: ATOM      3  C   UNL d   1      55.525  40.241  13.294 -0.00 +0.00    +0.194 C 
DOCKED: ATOM      4  C   UNL d   1      56.080  39.438  14.468 -0.00 +0.01    +0.194 C 
DOCKED: ATOM      5  C   UNL d   1      55.030  39.032  15.493 -0.00 +0.01    +0.194 C 
DOCKED: ATOM      6  C   UNL d   1      53.748  38.469  14.877 -0.01 +0.01    +0.194 C 
DOCKED: ENDROOT
DOCKED: BRANCH   1   7
DOCKED: ATOM      7  O   UNL d   1      52.141  38.606  13.121 -0.08 -0.01    -0.278 OA
DOCKED: BRANCH   7   8
DOCKED: ATOM      8  P   UNL d   1      51.315  39.314  11.951 -0.17 -0.03    +0.473 P 
DOCKED: ATOM      9  O   UNL d   1      51.154  40.787  12.095 -0.23 +0.05    -0.228 OA
DOCKED: BRANCH   8  10
DOCKED: ATOM     10  O   UNL d   1      52.090  38.894  10.621 -0.18 +0.00    -0.303 OA
DOCKED: ATOM     11  H   UNL d   1      53.049  38.869  10.796 +0.07 -0.00    +0.222 HD
DOCKED: ENDBRANCH   8  10
DOCKED: BRANCH   8  12
DOCKED: ATOM     12  O   UNL d   1      49.970  38.478  11.830 -0.81 -0.04    -0.303 OA
DOCKED: ATOM     13  H   UNL d   1      49.250  38.970  11.375 -0.43 -0.03    +0.222 HD
DOCKED: ENDBRANCH   8  12
DOCKED: ENDBRANCH   7   8
DOCKED: ENDBRANCH   1   7
DOCKED: BRANCH   2  14
DOCKED: ATOM     14  O   UNL d   1      54.631  38.392  12.039 -0.01 -0.01    -0.278 OA
DOCKED: BRANCH  14  15
DOCKED: ATOM     15  P   UNL d   1      55.071  38.489  10.503 +0.01 +0.01    +0.473 P 
DOCKED: ATOM     16  O   UNL d   1      54.419  37.532   9.555 -0.04 -0.00    -0.228 OA
DOCKED: BRANCH  15  17
DOCKED: ATOM     17  O   UNL d   1      54.808  40.013  10.120 -0.02 +0.01    -0.303 OA
DOCKED: ATOM     18  H   UNL d   1      55.539  40.584  10.426 +0.02 -0.01    +0.222 HD
DOCKED: ENDBRANCH  15  17
DOCKED: BRANCH  15  19
DOCKED: ATOM     19  O   UNL d   1      56.661  38.440  10.542 +0.00 -0.01    -0.303 OA
DOCKED: ATOM     20  H   UNL d   1      57.028  39.128  11.127 +0.00 +0.01    +0.222 HD
DOCKED: ENDBRANCH  15  19
DOCKED: ENDBRANCH  14  15
DOCKED: ENDBRANCH   2  14
DOCKED: BRANCH   6  21
DOCKED: ATOM     21  O   UNL d   1      52.763  38.464  15.908 -0.01 -0.02    -0.278 OA
DOCKED: BRANCH  21  22
DOCKED: ATOM     22  P   UNL d   1      52.063  37.093  16.328 -0.01 +0.04    +0.473 P 
DOCKED: ATOM     23  O   UNL d   1      50.663  37.143  16.838 -0.03 -0.02    -0.228 OA
DOCKED: BRANCH  22  24
DOCKED: ATOM     24  O   UNL d   1      52.265  36.210  15.018 -0.02 -0.04    -0.303 OA
DOCKED: ATOM     25  H   UNL d   1      51.985  36.751  14.236 +0.05 +0.03    +0.222 HD
DOCKED: ENDBRANCH  22  24
DOCKED: BRANCH  22  26
DOCKED: ATOM     26  O   UNL d   1      53.152  36.463  17.322 -0.01 -0.03    -0.303 OA
DOCKED: ATOM     27  H   UNL d   1      54.006  36.924  17.198 +0.00 +0.02    +0.222 HD
DOCKED: ENDBRANCH  22  26
DOCKED: ENDBRANCH  21  22
DOCKED: ENDBRANCH   6  21
DOCKED: BRANCH   3  28
DOCKED: ATOM     28  O   UNL d   1      56.544  40.213  12.302 +0.00 -0.01    -0.278 OA
DOCKED: BRANCH  28  29
DOCKED: ATOM     29  P   UNL d   1      56.995  41.556  11.574 +0.00 +0.00    +0.473 P 
DOCKED: ATOM     30  O   UNL d   1      55.937  42.587  11.418 -0.01 +0.01    -0.228 OA
DOCKED: BRANCH  29  31
DOCKED: ATOM     31  O   UNL d   1      58.263  41.946  12.470 +0.00 -0.01    -0.303 OA
DOCKED: ATOM     32  H   UNL d   1      58.180  41.499  13.343 +0.00 +0.01    +0.222 HD
DOCKED: ENDBRANCH  29  31
DOCKED: BRANCH  29  33
DOCKED: ATOM     33  O   UNL d   1      57.664  41.003  10.239 +0.00 -0.00    -0.303 OA
DOCKED: ATOM     34  H   UNL d   1      57.009  40.437   9.762 +0.01 +0.00    +0.222 HD
DOCKED: ENDBRANCH  29  33
DOCKED: ENDBRANCH  28  29
DOCKED: ENDBRANCH   3  28
DOCKED: BRANCH   5  35
DOCKED: ATOM     35  O   UNL d   1      55.622  37.985  16.260 -0.00 -0.02    -0.278 OA
DOCKED: BRANCH  35  36
DOCKED: ATOM     36  P   UNL d   1      56.136  36.655  15.543 -0.00 +0.03    +0.473 P 
DOCKED: ATOM     37  O   UNL d   1      56.697  36.838  14.169 -0.00 -0.01    -0.228 OA
DOCKED: BRANCH  36  38
DOCKED: ATOM     38  O   UNL d   1      57.179  36.094  16.607 -0.00 -0.02    -0.303 OA
DOCKED: ATOM     39  H   UNL d   1      58.064  36.475  16.421 +0.00 +0.01    +0.222 HD
DOCKED: ENDBRANCH  36  38
DOCKED: BRANCH  36  40
DOCKED: ATOM     40  O   UNL d   1      54.883  35.686  15.688 -0.01 -0.02    -0.303 OA
DOCKED: ATOM     41  H   UNL d   1      54.050  36.123  15.403 +0.01 +0.02    +0.222 HD
DOCKED: ENDBRANCH  36  40
DOCKED: ENDBRANCH  35  36
DOCKED: ENDBRANCH   5  35
DOCKED: BRANCH   4  42
DOCKED: ATOM     42  O   UNL d   1      57.021  40.283  15.140 +0.00 -0.01    -0.278 OA
DOCKED: BRANCH  42  43
DOCKED: ATOM     43  P   UNL d   1      58.568  39.897  15.103 +0.00 +0.02    +0.473 P 
DOCKED: ATOM     44  O   UNL d   1      59.537  40.893  15.639 +0.00 -0.01    -0.228 OA
DOCKED: BRANCH  43  45
DOCKED: ATOM     45  O   UNL d   1      58.596  38.493  15.852 +0.00 -0.02    -0.303 OA
DOCKED: ATOM     46  H   UNL d   1      57.755  38.008  15.734 +0.00 +0.01    +0.222 HD
DOCKED: ENDBRANCH  43  45
DOCKED: BRANCH  43  47
DOCKED: ATOM     47  O   UNL d   1      58.800  39.458  13.579 +0.00 -0.01    -0.303 OA
DOCKED: ATOM     48  H   UNL d   1      58.117  39.877  13.015 +0.00 +0.01    +0.222 HD
DOCKED: ENDBRANCH  43  47
DOCKED: ENDBRANCH  42  43
DOCKED: ENDBRANCH   4  42
DOCKED: TORSDOF 24
DOCKED: TER
DOCKED: ENDMDL
________________________________________________________________________________


	BEGINNING GENETIC ALGORITHM DOCKING 61 of 100
Run: 61 Seed: 1333776590 1835912790 [ Run 61 of 100 GA/GALS ]
Beginning LAMARCKIAN GENETIC ALGORITHM (LGA), with a maximum of 25000000 energy evaluations.

Final-Value: -18.323


	FINAL GENETIC ALGORITHM DOCKED STATE
	_______________________________________________


Detailed state:  trans 51.327 29.791 -1.648 quatxyzw -0.523424 0.182703 0.201306 0.807541 center 0.035 0.082 -0.065 ntor 24 -153.2237 -30.4723 22.9013 87.2697 21.7187 126.0509 -55.5243 -4.8481 165.6758 -25.0326 163.7641 106.6208 36.7330 151.3669 -169.8779 179.8511 100.2073 -173.5383 -137.7924 -30.5185 17.2544 -16.1085 -41.0484 26.5549
State:	 51.327  29.791  -1.648  -0.887  0.310  0.341 72.287   -153.22  -30.47   22.90   87.27   21.72  126.05  -55.52   -4.85  165.68  -25.03  163.76  106.62   36.73  151.37 -169.88  179.85  100.21 -173.54 -137.79  -30.52   17.25  -16.11  -41.05   26.55

DOCKED: MODEL       61
DOCKED: USER    Run = 61
DOCKED: USER    DPF = D:/Protein_go_brrr/autodock/final/2DN3/IHP/dock.dpf
DOCKED: USER  
DOCKED: USER    Estimated Free Energy of Binding    =   +2.99 kcal/mol  [=(1)+(2)+(3)-(4)]
DOCKED: USER    
DOCKED: USER    (1) Final Intermolecular Energy     =   -4.17 kcal/mol
DOCKED: USER        vdW + Hbond + desolv Energy     =   -4.08 kcal/mol
DOCKED: USER        Electrostatic Energy            =   -0.09 kcal/mol
DOCKED: USER    (2) Final Total Internal Energy     =  -14.15 kcal/mol
DOCKED: USER    (3) Torsional Free Energy           =   +7.16 kcal/mol
DOCKED: USER    (4) Unbound System's Energy  [=(2)] =  -14.15 kcal/mol
DOCKED: USER    
DOCKED: USER    
DOCKED: USER    NEWDPF move IHP_ideal_opt.pdbqt
DOCKED: USER    NEWDPF about 0.035000 0.082000 -0.065000
DOCKED: USER    NEWDPF tran0 51.326726 29.791342 -1.648226
DOCKED: USER    NEWDPF quaternion0 -0.523424 0.182703 0.201306 0.807541
DOCKED: USER    NEWDPF axisangle0 -0.887443 0.309766 0.341306 72.287276
DOCKED: USER    NEWDPF quat0 -0.887443 0.309766 0.341306 72.287276
DOCKED: USER    NEWDPF dihe0 -153.22 -30.47 22.90 87.27 21.72 126.05 -55.52 -4.85 165.68 -25.03 163.76 106.62 36.73 151.37 -169.88 179.85 100.21 -173.54 -137.79 -30.52 17.25 -16.11 -41.05 26.55 
DOCKED: USER  keepresnum = 1 
DOCKED: USER  
DOCKED: REMARK  24 active torsions:
DOCKED: REMARK  status: ('A' for Active; 'I' for Inactive)
DOCKED: REMARK    1  A    between atoms: C_1  and  O_7 
DOCKED: REMARK    2  A    between atoms: C_2  and  O_12 
DOCKED: REMARK    3  A    between atoms: C_3  and  O_17 
DOCKED: REMARK    4  A    between atoms: C_4  and  O_22 
DOCKED: REMARK    5  A    between atoms: C_5  and  O_27 
DOCKED: REMARK    6  A    between atoms: C_6  and  O_32 
DOCKED: REMARK    7  A    between atoms: O_7  and  P_8 
DOCKED: REMARK    8  A    between atoms: P_8  and  O_10 
DOCKED: REMARK    9  A    between atoms: P_8  and  O_11 
DOCKED: REMARK   10  A    between atoms: O_12  and  P_13 
DOCKED: REMARK   11  A    between atoms: P_13  and  O_15 
DOCKED: REMARK   12  A    between atoms: P_13  and  O_16 
DOCKED: REMARK   13  A    between atoms: O_17  and  P_18 
DOCKED: REMARK   14  A    between atoms: P_18  and  O_20 
DOCKED: REMARK   15  A    between atoms: P_18  and  O_21 
DOCKED: REMARK   16  A    between atoms: O_22  and  P_23 
DOCKED: REMARK   17  A    between atoms: P_23  and  O_25 
DOCKED: REMARK   18  A    between atoms: P_23  and  O_26 
DOCKED: REMARK   19  A    between atoms: O_27  and  P_28 
DOCKED: REMARK   20  A    between atoms: P_28  and  O_30 
DOCKED: REMARK   21  A    between atoms: P_28  and  O_31 
DOCKED: REMARK   22  A    between atoms: O_32  and  P_33 
DOCKED: REMARK   23  A    between atoms: P_33  and  O_35 
DOCKED: REMARK   24  A    between atoms: P_33  and  O_36 
DOCKED: USER                              x       y       z     vdW  Elec       q    Type
DOCKED: USER                           _______ _______ _______ _____ _____    ______ ____
DOCKED: ROOT
DOCKED: ATOM      1  C   UNL d   1      51.876  28.204  -2.054 -0.07 +0.07    +0.194 C 
DOCKED: ATOM      2  C   UNL d   1      50.891  28.835  -3.040 -0.10 +0.05    +0.194 C 
DOCKED: ATOM      3  C   UNL d   1      49.740  29.540  -2.319 -0.12 +0.04    +0.194 C 
DOCKED: ATOM      4  C   UNL d   1      50.212  30.533  -1.260 -0.16 +0.04    +0.194 C 
DOCKED: ATOM      5  C   UNL d   1      51.280  29.981  -0.324 -0.14 +0.07    +0.194 C 
DOCKED: ATOM      6  C   UNL d   1      52.400  29.223  -1.041 -0.11 +0.08    +0.194 C 
DOCKED: ENDROOT
DOCKED: BRANCH   1   7
DOCKED: ATOM      7  O   UNL d   1      53.000  27.722  -2.793 -0.04 -0.08    -0.278 OA
DOCKED: BRANCH   7   8
DOCKED: ATOM      8  P   UNL d   1      54.324  28.614  -2.829 +0.00 +0.10    +0.473 P 
DOCKED: ATOM      9  O   UNL d   1      55.285  28.363  -1.720 -0.01 -0.06    -0.228 OA
DOCKED: BRANCH   8  10
DOCKED: ATOM     10  O   UNL d   1      54.943  28.329  -4.272 -0.00 -0.05    -0.303 OA
DOCKED: ATOM     11  H   UNL d   1      54.249  28.425  -4.950 +0.01 +0.03    +0.222 HD
DOCKED: ENDBRANCH   8  10
DOCKED: BRANCH   8  12
DOCKED: ATOM     12  O   UNL d   1      53.810  30.110  -2.977 -0.00 -0.06    -0.303 OA
DOCKED: ATOM     13  H   UNL d   1      53.502  30.324  -3.887 +0.01 +0.03    +0.222 HD
DOCKED: ENDBRANCH   8  12
DOCKED: ENDBRANCH   7   8
DOCKED: ENDBRANCH   1   7
DOCKED: BRANCH   2  14
DOCKED: ATOM     14  O   UNL d   1      51.586  29.799  -3.842 -0.02 -0.05    -0.278 OA
DOCKED: BRANCH  14  15
DOCKED: ATOM     15  P   UNL d   1      52.002  29.336  -5.317 -0.00 +0.07    +0.473 P 
DOCKED: ATOM     16  O   UNL d   1      53.196  30.007  -5.921 -0.00 -0.03    -0.228 OA
DOCKED: BRANCH  15  17
DOCKED: ATOM     17  O   UNL d   1      52.177  27.758  -5.193 -0.01 -0.05    -0.303 OA
DOCKED: ATOM     18  H   UNL d   1      52.991  27.532  -4.704 +0.02 +0.04    +0.222 HD
DOCKED: ENDBRANCH  15  17
DOCKED: BRANCH  15  19
DOCKED: ATOM     19  O   UNL d   1      50.657  29.443  -6.160 -0.01 -0.04    -0.303 OA
DOCKED: ATOM     20  H   UNL d   1      50.054  30.117  -5.794 +0.01 +0.03    +0.222 HD
DOCKED: ENDBRANCH  15  19
DOCKED: ENDBRANCH  14  15
DOCKED: ENDBRANCH   2  14
DOCKED: BRANCH   6  21
DOCKED: ATOM     21  O   UNL d   1      53.108  28.493  -0.042 -0.18 -0.17    -0.278 OA
DOCKED: BRANCH  21  22
DOCKED: ATOM     22  P   UNL d   1      54.275  29.205   0.781 -0.04 +0.28    +0.473 P 
DOCKED: ATOM     23  O   UNL d   1      55.510  28.421   1.074 -0.08 -0.12    -0.228 OA
DOCKED: BRANCH  22  24
DOCKED: ATOM     24  O   UNL d   1      54.512  30.529  -0.069 -0.01 -0.09    -0.303 OA
DOCKED: ATOM     25  H   UNL d   1      54.525  30.281  -1.029 +0.02 +0.06    +0.222 HD
DOCKED: ENDBRANCH  22  24
DOCKED: BRANCH  22  26
DOCKED: ATOM     26  O   UNL d   1      53.480  29.766   2.054 -0.49 -0.24    -0.303 OA
DOCKED: ATOM     27  H   UNL d   1      52.673  30.230   1.751 +0.07 +0.13    +0.222 HD
DOCKED: ENDBRANCH  22  26
DOCKED: ENDBRANCH  21  22
DOCKED: ENDBRANCH   6  21
DOCKED: BRANCH   3  28
DOCKED: ATOM     28  O   UNL d   1      49.044  30.320  -3.283 -0.07 -0.03    -0.278 OA
DOCKED: BRANCH  28  29
DOCKED: ATOM     29  P   UNL d   1      47.761  29.730  -4.020 -0.07 +0.04    +0.473 P 
DOCKED: ATOM     30  O   UNL d   1      46.785  30.736  -4.511 -0.03 -0.01    -0.228 OA
DOCKED: BRANCH  29  31
DOCKED: ATOM     31  O   UNL d   1      48.471  28.809  -5.121 -0.04 -0.04    -0.303 OA
DOCKED: ATOM     32  H   UNL d   1      49.445  28.933  -5.053 +0.03 +0.03    +0.222 HD
DOCKED: ENDBRANCH  29  31
DOCKED: BRANCH  29  33
DOCKED: ATOM     33  O   UNL d   1      47.228  28.666  -2.963 -0.15 -0.00    -0.303 OA
DOCKED: ATOM     34  H   UNL d   1      47.100  29.115  -2.092 -0.50 -0.08    +0.222 HD
DOCKED: ENDBRANCH  29  33
DOCKED: ENDBRANCH  28  29
DOCKED: ENDBRANCH   3  28
DOCKED: BRANCH   5  35
DOCKED: ATOM     35  O   UNL d   1      51.875  31.119   0.298 -0.07 -0.08    -0.278 OA
DOCKED: BRANCH  35  36
DOCKED: ATOM     36  P   UNL d   1      51.277  31.696   1.659 -0.13 +0.14    +0.473 P 
DOCKED: ATOM     37  O   UNL d   1      52.281  32.242   2.624 -0.11 -0.05    -0.228 OA
DOCKED: BRANCH  36  38
DOCKED: ATOM     38  O   UNL d   1      50.230  32.771   1.126 -0.12 -0.08    -0.303 OA
DOCKED: ATOM     39  H   UNL d   1      49.339  32.360   1.089 +0.09 +0.06    +0.222 HD
DOCKED: ENDBRANCH  36  38
DOCKED: BRANCH  36  40
DOCKED: ATOM     40  O   UNL d   1      50.367  30.494   2.167 -0.62 -0.13    -0.303 OA
DOCKED: ATOM     41  H   UNL d   1      49.600  30.342   1.572 -0.02 +0.07    +0.222 HD
DOCKED: ENDBRANCH  36  40
DOCKED: ENDBRANCH  35  36
DOCKED: ENDBRANCH   5  35
DOCKED: BRANCH   4  42
DOCKED: ATOM     42  O   UNL d   1      49.073  30.854  -0.455 -0.25 -0.03    -0.278 OA
DOCKED: BRANCH  42  43
DOCKED: ATOM     43  P   UNL d   1      48.079  32.000  -0.947 -0.17 +0.01    +0.473 P 
DOCKED: ATOM     44  O   UNL d   1      47.757  33.091   0.015 -0.17 -0.00    -0.228 OA
DOCKED: BRANCH  43  45
DOCKED: ATOM     45  O   UNL d   1      48.763  32.501  -2.294 -0.03 -0.03    -0.303 OA
DOCKED: ATOM     46  H   UNL d   1      48.433  32.006  -3.069 +0.04 +0.02    +0.222 HD
DOCKED: ENDBRANCH  43  45
DOCKED: BRANCH  43  47
DOCKED: ATOM     47  O   UNL d   1      46.821  31.179  -1.507 -0.22 +0.04    -0.303 OA
DOCKED: ATOM     48  H   UNL d   1      47.056  30.778  -2.370 +0.01 -0.01    +0.222 HD
DOCKED: ENDBRANCH  43  47
DOCKED: ENDBRANCH  42  43
DOCKED: ENDBRANCH   4  42
DOCKED: TORSDOF 24
DOCKED: TER
DOCKED: ENDMDL
________________________________________________________________________________


	BEGINNING GENETIC ALGORITHM DOCKING 62 of 100
Run: 62 Seed: 505365720 1948158271 [ Run 62 of 100 GA/GALS ]
Beginning LAMARCKIAN GENETIC ALGORITHM (LGA), with a maximum of 25000000 energy evaluations.

Final-Value: -18.757


	FINAL GENETIC ALGORITHM DOCKED STATE
	_______________________________________________


Detailed state:  trans 42.589 29.151 31.218 quatxyzw 0.181364 0.891484 0.225020 0.348896 center 0.035 0.082 -0.065 ntor 24 -131.3888 -46.0757 145.8479 -11.0275 156.0778 122.0333 -106.8051 -33.9222 21.0982 34.3488 42.3833 -137.9027 81.8682 -179.7593 -160.5032 8.4274 -142.9336 -25.2091 -27.0092 14.3386 22.6360 1.8077 -43.8762 168.6222
State:	 42.589  29.151  31.218   0.194  0.951  0.240 139.160   -131.39  -46.08  145.85  -11.03  156.08  122.03 -106.81  -33.92   21.10   34.35   42.38 -137.90   81.87 -179.76 -160.50    8.43 -142.93  -25.21  -27.01   14.34   22.64    1.81  -43.88  168.62

DOCKED: MODEL       62
DOCKED: USER    Run = 62
DOCKED: USER    DPF = D:/Protein_go_brrr/autodock/final/2DN3/IHP/dock.dpf
DOCKED: USER  
DOCKED: USER    Estimated Free Energy of Binding    =   +4.19 kcal/mol  [=(1)+(2)+(3)-(4)]
DOCKED: USER    
DOCKED: USER    (1) Final Intermolecular Energy     =   -2.97 kcal/mol
DOCKED: USER        vdW + Hbond + desolv Energy     =   -2.84 kcal/mol
DOCKED: USER        Electrostatic Energy            =   -0.14 kcal/mol
DOCKED: USER    (2) Final Total Internal Energy     =  -15.78 kcal/mol
DOCKED: USER    (3) Torsional Free Energy           =   +7.16 kcal/mol
DOCKED: USER    (4) Unbound System's Energy  [=(2)] =  -15.78 kcal/mol
DOCKED: USER    
DOCKED: USER    
DOCKED: USER    NEWDPF move IHP_ideal_opt.pdbqt
DOCKED: USER    NEWDPF about 0.035000 0.082000 -0.065000
DOCKED: USER    NEWDPF tran0 42.589211 29.150959 31.217665
DOCKED: USER    NEWDPF quaternion0 0.181364 0.891484 0.225020 0.348896
DOCKED: USER    NEWDPF axisangle0 0.193525 0.951260 0.240109 139.160351
DOCKED: USER    NEWDPF quat0 0.193525 0.951260 0.240109 139.160351
DOCKED: USER    NEWDPF dihe0 -131.39 -46.08 145.85 -11.03 156.08 122.03 -106.81 -33.92 21.10 34.35 42.38 -137.90 81.87 -179.76 -160.50 8.43 -142.93 -25.21 -27.01 14.34 22.64 1.81 -43.88 168.62 
DOCKED: USER  keepresnum = 1 
DOCKED: USER  
DOCKED: REMARK  24 active torsions:
DOCKED: REMARK  status: ('A' for Active; 'I' for Inactive)
DOCKED: REMARK    1  A    between atoms: C_1  and  O_7 
DOCKED: REMARK    2  A    between atoms: C_2  and  O_12 
DOCKED: REMARK    3  A    between atoms: C_3  and  O_17 
DOCKED: REMARK    4  A    between atoms: C_4  and  O_22 
DOCKED: REMARK    5  A    between atoms: C_5  and  O_27 
DOCKED: REMARK    6  A    between atoms: C_6  and  O_32 
DOCKED: REMARK    7  A    between atoms: O_7  and  P_8 
DOCKED: REMARK    8  A    between atoms: P_8  and  O_10 
DOCKED: REMARK    9  A    between atoms: P_8  and  O_11 
DOCKED: REMARK   10  A    between atoms: O_12  and  P_13 
DOCKED: REMARK   11  A    between atoms: P_13  and  O_15 
DOCKED: REMARK   12  A    between atoms: P_13  and  O_16 
DOCKED: REMARK   13  A    between atoms: O_17  and  P_18 
DOCKED: REMARK   14  A    between atoms: P_18  and  O_20 
DOCKED: REMARK   15  A    between atoms: P_18  and  O_21 
DOCKED: REMARK   16  A    between atoms: O_22  and  P_23 
DOCKED: REMARK   17  A    between atoms: P_23  and  O_25 
DOCKED: REMARK   18  A    between atoms: P_23  and  O_26 
DOCKED: REMARK   19  A    between atoms: O_27  and  P_28 
DOCKED: REMARK   20  A    between atoms: P_28  and  O_30 
DOCKED: REMARK   21  A    between atoms: P_28  and  O_31 
DOCKED: REMARK   22  A    between atoms: O_32  and  P_33 
DOCKED: REMARK   23  A    between atoms: P_33  and  O_35 
DOCKED: REMARK   24  A    between atoms: P_33  and  O_36 
DOCKED: USER                              x       y       z     vdW  Elec       q    Type
DOCKED: USER                           _______ _______ _______ _____ _____    ______ ____
DOCKED: ROOT
DOCKED: ATOM      1  C   UNL d   1      40.870  29.037  31.337 -0.21 +0.04    +0.194 C 
DOCKED: ATOM      2  C   UNL d   1      41.545  27.965  30.480 -0.14 +0.03    +0.194 C 
DOCKED: ATOM      3  C   UNL d   1      42.631  28.560  29.581 -0.10 +0.06    +0.194 C 
DOCKED: ATOM      4  C   UNL d   1      43.643  29.411  30.343 -0.05 +0.05    +0.194 C 
DOCKED: ATOM      5  C   UNL d   1      43.013  30.418  31.298 -0.04 +0.04    +0.194 C 
DOCKED: ATOM      6  C   UNL d   1      41.885  29.838  32.153 -0.07 +0.04    +0.194 C 
DOCKED: ENDROOT
DOCKED: BRANCH   1   7
DOCKED: ATOM      7  O   UNL d   1      39.999  28.384  32.264 -0.19 -0.07    -0.278 OA
DOCKED: BRANCH   7   8
DOCKED: ATOM      8  P   UNL d   1      38.683  29.154  32.741 -0.17 +0.18    +0.473 P 
DOCKED: ATOM      9  O   UNL d   1      37.435  28.345  32.719 -0.22 -0.16    -0.228 OA
DOCKED: BRANCH   8  10
DOCKED: ATOM     10  O   UNL d   1      39.057  29.693  34.196 -0.05 -0.10    -0.303 OA
DOCKED: ATOM     11  H   UNL d   1      39.711  30.412  34.120 +0.04 +0.05    +0.222 HD
DOCKED: ENDBRANCH   8  10
DOCKED: BRANCH   8  12
DOCKED: ATOM     12  O   UNL d   1      38.656  30.494  31.888 -0.19 -0.10    -0.303 OA
DOCKED: ATOM     13  H   UNL d   1      39.112  31.244  32.333 +0.07 +0.06    +0.222 HD
DOCKED: ENDBRANCH   8  12
DOCKED: ENDBRANCH   7   8
DOCKED: ENDBRANCH   1   7
DOCKED: BRANCH   2  14
DOCKED: ATOM     14  O   UNL d   1      42.148  26.990  31.340 -0.13 -0.05    -0.278 OA
DOCKED: BRANCH  14  15
DOCKED: ATOM     15  P   UNL d   1      42.150  25.477  30.817 -0.13 +0.10    +0.473 P 
DOCKED: ATOM     16  O   UNL d   1      41.528  24.454  31.715 -0.16 -0.05    -0.228 OA
DOCKED: BRANCH  15  17
DOCKED: ATOM     17  O   UNL d   1      41.442  25.559  29.392 -0.18 -0.08    -0.303 OA
DOCKED: ATOM     18  H   UNL d   1      41.840  26.260  28.841 +0.05 +0.06    +0.222 HD
DOCKED: ENDBRANCH  15  17
DOCKED: BRANCH  15  19
DOCKED: ATOM     19  O   UNL d   1      43.662  25.202  30.406 -0.04 -0.07    -0.303 OA
DOCKED: ATOM     20  H   UNL d   1      43.912  25.692  29.601 +0.06 +0.06    +0.222 HD
DOCKED: ENDBRANCH  15  19
DOCKED: ENDBRANCH  14  15
DOCKED: ENDBRANCH   2  14
DOCKED: BRANCH   6  21
DOCKED: ATOM     21  O   UNL d   1      41.187  30.945  32.720 -0.03 -0.05    -0.278 OA
DOCKED: BRANCH  21  22
DOCKED: ATOM     22  P   UNL d   1      41.785  31.687  33.999 +0.00 +0.08    +0.473 P 
DOCKED: ATOM     23  O   UNL d   1      40.883  31.925  35.162 -0.00 -0.04    -0.228 OA
DOCKED: BRANCH  22  24
DOCKED: ATOM     24  O   UNL d   1      43.068  30.802  34.319 -0.00 -0.04    -0.303 OA
DOCKED: ATOM     25  H   UNL d   1      43.836  31.179  33.818 +0.00 +0.03    +0.222 HD
DOCKED: ENDBRANCH  22  24
DOCKED: BRANCH  22  26
DOCKED: ATOM     26  O   UNL d   1      42.441  32.994  33.339 -0.00 -0.05    -0.303 OA
DOCKED: ATOM     27  H   UNL d   1      43.032  32.723  32.607 +0.02 +0.04    +0.222 HD
DOCKED: ENDBRANCH  22  26
DOCKED: ENDBRANCH  21  22
DOCKED: ENDBRANCH   6  21
DOCKED: BRANCH   3  28
DOCKED: ATOM     28  O   UNL d   1      43.379  27.478  29.040 -0.09 -0.10    -0.278 OA
DOCKED: BRANCH  28  29
DOCKED: ATOM     29  P   UNL d   1      43.313  27.154  27.482 -0.15 +0.25    +0.473 P 
DOCKED: ATOM     30  O   UNL d   1      42.165  27.749  26.752 -0.33 -0.12    -0.228 OA
DOCKED: BRANCH  29  31
DOCKED: ATOM     31  O   UNL d   1      44.778  27.621  27.038 -0.12 -0.27    -0.303 OA
DOCKED: ATOM     32  H   UNL d   1      44.908  28.556  27.318 +0.06 +0.19    +0.222 HD
DOCKED: ENDBRANCH  29  31
DOCKED: BRANCH  29  33
DOCKED: ATOM     33  O   UNL d   1      43.431  25.566  27.467 -0.12 -0.13    -0.303 OA
DOCKED: ATOM     34  H   UNL d   1      43.108  25.211  28.331 +0.09 +0.08    +0.222 HD
DOCKED: ENDBRANCH  29  33
DOCKED: ENDBRANCH  28  29
DOCKED: ENDBRANCH   3  28
DOCKED: BRANCH   5  35
DOCKED: ATOM     35  O   UNL d   1      44.056  30.811  32.188 -0.01 -0.05    -0.278 OA
DOCKED: BRANCH  35  36
DOCKED: ATOM     36  P   UNL d   1      45.036  32.008  31.800 +0.00 +0.08    +0.473 P 
DOCKED: ATOM     37  O   UNL d   1      46.358  31.600  31.231 -0.00 -0.04    -0.228 OA
DOCKED: BRANCH  36  38
DOCKED: ATOM     38  O   UNL d   1      44.131  32.862  30.805 -0.01 -0.06    -0.303 OA
DOCKED: ATOM     39  H   UNL d   1      43.736  32.262  30.136 +0.04 +0.05    +0.222 HD
DOCKED: ENDBRANCH  36  38
DOCKED: BRANCH  36  40
DOCKED: ATOM     40  O   UNL d   1      45.060  32.874  33.134 -0.00 -0.04    -0.303 OA
DOCKED: ATOM     41  H   UNL d   1      44.408  32.546  33.793 +0.00 +0.03    +0.222 HD
DOCKED: ENDBRANCH  36  40
DOCKED: ENDBRANCH  35  36
DOCKED: ENDBRANCH   5  35
DOCKED: BRANCH   4  42
DOCKED: ATOM     42  O   UNL d   1      44.375  30.159  29.366 -0.04 -0.09    -0.278 OA
DOCKED: BRANCH  42  43
DOCKED: ATOM     43  P   UNL d   1      43.577  31.114  28.368 -0.10 +0.18    +0.473 P 
DOCKED: ATOM     44  O   UNL d   1      42.211  31.546  28.777 -0.05 -0.08    -0.228 OA
DOCKED: BRANCH  43  45
DOCKED: ATOM     45  O   UNL d   1      44.599  32.313  28.141 -0.08 -0.10    -0.303 OA
DOCKED: ATOM     46  H   UNL d   1      45.159  32.460  28.929 +0.04 +0.06    +0.222 HD
DOCKED: ENDBRANCH  43  45
DOCKED: BRANCH  43  47
DOCKED: ATOM     47  O   UNL d   1      43.667  30.339  26.968 -0.20 -0.21    -0.303 OA
DOCKED: ATOM     48  H   UNL d   1      43.538  29.380  27.122 +0.09 +0.16    +0.222 HD
DOCKED: ENDBRANCH  43  47
DOCKED: ENDBRANCH  42  43
DOCKED: ENDBRANCH   4  42
DOCKED: TORSDOF 24
DOCKED: TER
DOCKED: ENDMDL
________________________________________________________________________________


	BEGINNING GENETIC ALGORITHM DOCKING 63 of 100
Run: 63 Seed: 773075212 6189568 [ Run 63 of 100 GA/GALS ]
Beginning LAMARCKIAN GENETIC ALGORITHM (LGA), with a maximum of 25000000 energy evaluations.

Final-Value: -16.718


	FINAL GENETIC ALGORITHM DOCKED STATE
	_______________________________________________


Detailed state:  trans 1.464 37.278 -4.471 quatxyzw 0.425883 -0.265484 -0.701735 -0.505677 center 0.035 0.082 -0.065 ntor 24 70.8620 89.0441 5.9062 67.6488 -29.9745 -148.3051 -94.8279 -102.8493 50.3193 -26.3033 42.3143 171.0707 -33.8006 -83.8761 55.6219 64.8129 89.4925 171.8385 -168.1818 11.7720 5.5206 -6.9781 173.5292 3.9808
State:	  1.464  37.278  -4.471   0.494 -0.308 -0.813 -119.247     70.86   89.04    5.91   67.65  -29.97 -148.31  -94.83 -102.85   50.32  -26.30   42.31  171.07  -33.80  -83.88   55.62   64.81   89.49  171.84 -168.18   11.77    5.52   -6.98  173.53    3.98

DOCKED: MODEL       63
DOCKED: USER    Run = 63
DOCKED: USER    DPF = D:/Protein_go_brrr/autodock/final/2DN3/IHP/dock.dpf
DOCKED: USER  
DOCKED: USER    Estimated Free Energy of Binding    =   +4.96 kcal/mol  [=(1)+(2)+(3)-(4)]
DOCKED: USER    
DOCKED: USER    (1) Final Intermolecular Energy     =   -2.20 kcal/mol
DOCKED: USER        vdW + Hbond + desolv Energy     =   -1.99 kcal/mol
DOCKED: USER        Electrostatic Energy            =   -0.21 kcal/mol
DOCKED: USER    (2) Final Total Internal Energy     =  -14.52 kcal/mol
DOCKED: USER    (3) Torsional Free Energy           =   +7.16 kcal/mol
DOCKED: USER    (4) Unbound System's Energy  [=(2)] =  -14.52 kcal/mol
DOCKED: USER    
DOCKED: USER    
DOCKED: USER    NEWDPF move IHP_ideal_opt.pdbqt
DOCKED: USER    NEWDPF about 0.035000 0.082000 -0.065000
DOCKED: USER    NEWDPF tran0 1.463976 37.277966 -4.471334
DOCKED: USER    NEWDPF quaternion0 0.425883 -0.265484 -0.701735 -0.505677
DOCKED: USER    NEWDPF axisangle0 0.493650 -0.307728 -0.813396 -119.247373
DOCKED: USER    NEWDPF quat0 0.493650 -0.307728 -0.813396 -119.247373
DOCKED: USER    NEWDPF dihe0 70.86 89.04 5.91 67.65 -29.97 -148.31 -94.83 -102.85 50.32 -26.30 42.31 171.07 -33.80 -83.88 55.62 64.81 89.49 171.84 -168.18 11.77 5.52 -6.98 173.53 3.98 
DOCKED: USER  keepresnum = 1 
DOCKED: USER  
DOCKED: REMARK  24 active torsions:
DOCKED: REMARK  status: ('A' for Active; 'I' for Inactive)
DOCKED: REMARK    1  A    between atoms: C_1  and  O_7 
DOCKED: REMARK    2  A    between atoms: C_2  and  O_12 
DOCKED: REMARK    3  A    between atoms: C_3  and  O_17 
DOCKED: REMARK    4  A    between atoms: C_4  and  O_22 
DOCKED: REMARK    5  A    between atoms: C_5  and  O_27 
DOCKED: REMARK    6  A    between atoms: C_6  and  O_32 
DOCKED: REMARK    7  A    between atoms: O_7  and  P_8 
DOCKED: REMARK    8  A    between atoms: P_8  and  O_10 
DOCKED: REMARK    9  A    between atoms: P_8  and  O_11 
DOCKED: REMARK   10  A    between atoms: O_12  and  P_13 
DOCKED: REMARK   11  A    between atoms: P_13  and  O_15 
DOCKED: REMARK   12  A    between atoms: P_13  and  O_16 
DOCKED: REMARK   13  A    between atoms: O_17  and  P_18 
DOCKED: REMARK   14  A    between atoms: P_18  and  O_20 
DOCKED: REMARK   15  A    between atoms: P_18  and  O_21 
DOCKED: REMARK   16  A    between atoms: O_22  and  P_23 
DOCKED: REMARK   17  A    between atoms: P_23  and  O_25 
DOCKED: REMARK   18  A    between atoms: P_23  and  O_26 
DOCKED: REMARK   19  A    between atoms: O_27  and  P_28 
DOCKED: REMARK   20  A    between atoms: P_28  and  O_30 
DOCKED: REMARK   21  A    between atoms: P_28  and  O_31 
DOCKED: REMARK   22  A    between atoms: O_32  and  P_33 
DOCKED: REMARK   23  A    between atoms: P_33  and  O_35 
DOCKED: REMARK   24  A    between atoms: P_33  and  O_36 
DOCKED: USER                              x       y       z     vdW  Elec       q    Type
DOCKED: USER                           _______ _______ _______ _____ _____    ______ ____
DOCKED: ROOT
DOCKED: ATOM      1  C   UNL d   1       0.192  36.368  -5.205 -0.00 +0.05    +0.194 C 
DOCKED: ATOM      2  C   UNL d   1       0.280  37.837  -5.623 +0.00 +0.05    +0.194 C 
DOCKED: ATOM      3  C   UNL d   1       0.540  38.753  -4.425 -0.01 +0.09    +0.194 C 
DOCKED: ATOM      4  C   UNL d   1       1.739  38.318  -3.585 -0.05 +0.12    +0.194 C 
DOCKED: ATOM      5  C   UNL d   1       1.751  36.835  -3.242 -0.05 +0.10    +0.194 C 
DOCKED: ATOM      6  C   UNL d   1       1.430  35.922  -4.427 -0.02 +0.05    +0.194 C 
DOCKED: ENDROOT
DOCKED: BRANCH   1   7
DOCKED: ATOM      7  O   UNL d   1       0.122  35.571  -6.389 -0.00 -0.04    -0.278 OA
DOCKED: BRANCH   7   8
DOCKED: ATOM      8  P   UNL d   1       1.419  35.474  -7.317 -0.01 +0.07    +0.473 P 
DOCKED: ATOM      9  O   UNL d   1       2.693  35.879  -6.664 -0.04 -0.04    -0.228 OA
DOCKED: BRANCH   8  10
DOCKED: ATOM     10  O   UNL d   1       1.424  33.960  -7.819 -0.02 -0.04    -0.303 OA
DOCKED: ATOM     11  H   UNL d   1       1.888  33.401  -7.168 +0.03 +0.03    +0.222 HD
DOCKED: ENDBRANCH   8  10
DOCKED: BRANCH   8  12
DOCKED: ATOM     12  O   UNL d   1       1.037  36.263  -8.643 -0.00 -0.04    -0.303 OA
DOCKED: ATOM     13  H   UNL d   1       0.574  37.112  -8.466 +0.00 +0.03    +0.222 HD
DOCKED: ENDBRANCH   8  12
DOCKED: ENDBRANCH   7   8
DOCKED: ENDBRANCH   1   7
DOCKED: BRANCH   2  14
DOCKED: ATOM     14  O   UNL d   1       1.354  37.993  -6.558 +0.00 -0.05    -0.278 OA
DOCKED: BRANCH  14  15
DOCKED: ATOM     15  P   UNL d   1       1.124  39.043  -7.745 +0.00 +0.07    +0.473 P 
DOCKED: ATOM     16  O   UNL d   1      -0.291  39.265  -8.180 +0.00 -0.03    -0.228 OA
DOCKED: BRANCH  15  17
DOCKED: ATOM     17  O   UNL d   1       1.826  40.375  -7.225 +0.00 -0.05    -0.303 OA
DOCKED: ATOM     18  H   UNL d   1       1.198  40.931  -6.723 +0.00 +0.05    +0.222 HD
DOCKED: ENDBRANCH  15  17
DOCKED: BRANCH  15  19
DOCKED: ATOM     19  O   UNL d   1       2.128  38.578  -8.887 -0.00 -0.04    -0.303 OA
DOCKED: ATOM     20  H   UNL d   1       2.546  37.723  -8.673 +0.01 +0.03    +0.222 HD
DOCKED: ENDBRANCH  15  19
DOCKED: ENDBRANCH  14  15
DOCKED: ENDBRANCH   2  14
DOCKED: BRANCH   6  21
DOCKED: ATOM     21  O   UNL d   1       1.144  34.633  -3.889 -0.02 -0.06    -0.278 OA
DOCKED: BRANCH  21  22
DOCKED: ATOM     22  P   UNL d   1       2.288  33.522  -3.842 -0.05 +0.07    +0.473 P 
DOCKED: ATOM     23  O   UNL d   1       3.213  33.511  -2.672 -0.11 -0.04    -0.228 OA
DOCKED: BRANCH  22  24
DOCKED: ATOM     24  O   UNL d   1       1.451  32.184  -4.044 -0.05 -0.03    -0.303 OA
DOCKED: ATOM     25  H   UNL d   1       1.265  31.799  -3.150 +0.04 +0.02    +0.222 HD
DOCKED: ENDBRANCH  22  24
DOCKED: BRANCH  22  26
DOCKED: ATOM     26  O   UNL d   1       2.975  33.702  -5.280 -0.09 -0.04    -0.303 OA
DOCKED: ATOM     27  H   UNL d   1       3.000  34.654  -5.508 +0.03 +0.04    +0.222 HD
DOCKED: ENDBRANCH  22  26
DOCKED: ENDBRANCH  21  22
DOCKED: ENDBRANCH   6  21
DOCKED: BRANCH   3  28
DOCKED: ATOM     28  O   UNL d   1       0.880  40.036  -4.933 +0.00 -0.10    -0.278 OA
DOCKED: BRANCH  28  29
DOCKED: ATOM     29  P   UNL d   1      -0.185  41.221  -4.902 +0.01 +0.16    +0.473 P 
DOCKED: ATOM     30  O   UNL d   1      -1.034  41.288  -3.685 -0.00 -0.10    -0.228 OA
DOCKED: BRANCH  29  31
DOCKED: ATOM     31  O   UNL d   1       0.778  42.468  -5.186 +0.01 -0.09    -0.303 OA
DOCKED: ATOM     32  H   UNL d   1       1.596  42.362  -4.648 +0.02 +0.08    +0.222 HD
DOCKED: ENDBRANCH  29  31
DOCKED: BRANCH  29  33
DOCKED: ATOM     33  O   UNL d   1      -0.935  41.032  -6.294 +0.00 -0.06    -0.303 OA
DOCKED: ATOM     34  H   UNL d   1      -0.264  40.855  -6.999 +0.00 +0.04    +0.222 HD
DOCKED: ENDBRANCH  29  33
DOCKED: ENDBRANCH  28  29
DOCKED: ENDBRANCH   3  28
DOCKED: BRANCH   5  35
DOCKED: ATOM     35  O   UNL d   1       3.087  36.542  -2.836 -0.06 -0.12    -0.278 OA
DOCKED: BRANCH  35  36
DOCKED: ATOM     36  P   UNL d   1       4.311  36.867  -3.806 -0.06 +0.12    +0.473 P 
DOCKED: ATOM     37  O   UNL d   1       5.477  37.553  -3.166 -0.08 -0.05    -0.228 OA
DOCKED: BRANCH  36  38
DOCKED: ATOM     38  O   UNL d   1       4.645  35.429  -4.403 -0.10 -0.05    -0.303 OA
DOCKED: ATOM     39  H   UNL d   1       4.266  34.741  -3.814 +0.06 +0.04    +0.222 HD
DOCKED: ENDBRANCH  36  38
DOCKED: BRANCH  36  40
DOCKED: ATOM     40  O   UNL d   1       3.600  37.625  -5.010 -0.02 -0.07    -0.303 OA
DOCKED: ATOM     41  H   UNL d   1       3.016  37.025  -5.524 +0.02 +0.05    +0.222 HD
DOCKED: ENDBRANCH  36  40
DOCKED: ENDBRANCH  35  36
DOCKED: ENDBRANCH   5  35
DOCKED: BRANCH   4  42
DOCKED: ATOM     42  O   UNL d   1       1.661  39.036  -2.349 -0.10 -0.40    -0.278 OA
DOCKED: BRANCH  42  43
DOCKED: ATOM     43  P   UNL d   1       2.690  40.226  -2.082 -0.05 +0.54    +0.473 P 
DOCKED: ATOM     44  O   UNL d   1       3.211  40.385  -0.695 -1.23 -0.40    -0.228 OA
DOCKED: BRANCH  43  45
DOCKED: ATOM     45  O   UNL d   1       3.818  39.964  -3.174 -0.08 -0.15    -0.303 OA
DOCKED: ATOM     46  H   UNL d   1       3.910  39.010  -3.372 +0.05 +0.10    +0.222 HD
DOCKED: ENDBRANCH  43  45
DOCKED: BRANCH  43  47
DOCKED: ATOM     47  O   UNL d   1       1.938  41.504  -2.690 -0.05 -0.23    -0.303 OA
DOCKED: ATOM     48  H   UNL d   1       1.151  41.207  -3.192 +0.03 +0.15    +0.222 HD
DOCKED: ENDBRANCH  43  47
DOCKED: ENDBRANCH  42  43
DOCKED: ENDBRANCH   4  42
DOCKED: TORSDOF 24
DOCKED: TER
DOCKED: ENDMDL
________________________________________________________________________________


	BEGINNING GENETIC ALGORITHM DOCKING 64 of 100
Run: 64 Seed: 489722850 856181821 [ Run 64 of 100 GA/GALS ]
Beginning LAMARCKIAN GENETIC ALGORITHM (LGA), with a maximum of 25000000 energy evaluations.

Final-Value: -15.837


	FINAL GENETIC ALGORITHM DOCKED STATE
	_______________________________________________


Detailed state:  trans 24.761 54.058 20.174 quatxyzw -0.098543 -0.584799 0.566535 0.572135 center 0.035 0.082 -0.065 ntor 24 180.0000 32.4850 55.6991 84.1252 -93.6922 -168.0183 13.4027 -151.8038 21.7707 116.4939 99.4447 180.0000 27.8106 -56.1537 -180.0000 -52.4924 -10.3330 152.3052 -126.9794 -33.7581 -177.6517 15.6457 157.9178 -14.2078
State:	 24.761  54.058  20.174  -0.120 -0.713  0.691 110.202    180.00   32.49   55.70   84.13  -93.69 -168.02   13.40 -151.80   21.77  116.49   99.44  180.00   27.81  -56.15 -180.00  -52.49  -10.33  152.31 -126.98  -33.76 -177.65   15.65  157.92  -14.21

DOCKED: MODEL       64
DOCKED: USER    Run = 64
DOCKED: USER    DPF = D:/Protein_go_brrr/autodock/final/2DN3/IHP/dock.dpf
DOCKED: USER  
DOCKED: USER    Estimated Free Energy of Binding    =   +4.30 kcal/mol  [=(1)+(2)+(3)-(4)]
DOCKED: USER    
DOCKED: USER    (1) Final Intermolecular Energy     =   -2.85 kcal/mol
DOCKED: USER        vdW + Hbond + desolv Energy     =   -2.72 kcal/mol
DOCKED: USER        Electrostatic Energy            =   -0.13 kcal/mol
DOCKED: USER    (2) Final Total Internal Energy     =  -12.98 kcal/mol
DOCKED: USER    (3) Torsional Free Energy           =   +7.16 kcal/mol
DOCKED: USER    (4) Unbound System's Energy  [=(2)] =  -12.98 kcal/mol
DOCKED: USER    
DOCKED: USER    
DOCKED: USER    NEWDPF move IHP_ideal_opt.pdbqt
DOCKED: USER    NEWDPF about 0.035000 0.082000 -0.065000
DOCKED: USER    NEWDPF tran0 24.760522 54.058500 20.173750
DOCKED: USER    NEWDPF quaternion0 -0.098543 -0.584799 0.566535 0.572135
DOCKED: USER    NEWDPF axisangle0 -0.120150 -0.713030 0.690762 110.201550
DOCKED: USER    NEWDPF quat0 -0.120150 -0.713030 0.690762 110.201550
DOCKED: USER    NEWDPF dihe0 180.00 32.49 55.70 84.13 -93.69 -168.02 13.40 -151.80 21.77 116.49 99.44 180.00 27.81 -56.15 -180.00 -52.49 -10.33 152.31 -126.98 -33.76 -177.65 15.65 157.92 -14.21 
DOCKED: USER  keepresnum = 1 
DOCKED: USER  
DOCKED: REMARK  24 active torsions:
DOCKED: REMARK  status: ('A' for Active; 'I' for Inactive)
DOCKED: REMARK    1  A    between atoms: C_1  and  O_7 
DOCKED: REMARK    2  A    between atoms: C_2  and  O_12 
DOCKED: REMARK    3  A    between atoms: C_3  and  O_17 
DOCKED: REMARK    4  A    between atoms: C_4  and  O_22 
DOCKED: REMARK    5  A    between atoms: C_5  and  O_27 
DOCKED: REMARK    6  A    between atoms: C_6  and  O_32 
DOCKED: REMARK    7  A    between atoms: O_7  and  P_8 
DOCKED: REMARK    8  A    between atoms: P_8  and  O_10 
DOCKED: REMARK    9  A    between atoms: P_8  and  O_11 
DOCKED: REMARK   10  A    between atoms: O_12  and  P_13 
DOCKED: REMARK   11  A    between atoms: P_13  and  O_15 
DOCKED: REMARK   12  A    between atoms: P_13  and  O_16 
DOCKED: REMARK   13  A    between atoms: O_17  and  P_18 
DOCKED: REMARK   14  A    between atoms: P_18  and  O_20 
DOCKED: REMARK   15  A    between atoms: P_18  and  O_21 
DOCKED: REMARK   16  A    between atoms: O_22  and  P_23 
DOCKED: REMARK   17  A    between atoms: P_23  and  O_25 
DOCKED: REMARK   18  A    between atoms: P_23  and  O_26 
DOCKED: REMARK   19  A    between atoms: O_27  and  P_28 
DOCKED: REMARK   20  A    between atoms: P_28  and  O_30 
DOCKED: REMARK   21  A    between atoms: P_28  and  O_31 
DOCKED: REMARK   22  A    between atoms: O_32  and  P_33 
DOCKED: REMARK   23  A    between atoms: P_33  and  O_35 
DOCKED: REMARK   24  A    between atoms: P_33  and  O_36 
DOCKED: USER                              x       y       z     vdW  Elec       q    Type
DOCKED: USER                           _______ _______ _______ _____ _____    ______ ____
DOCKED: ROOT
DOCKED: ATOM      1  C   UNL d   1      24.115  52.477  19.918 -0.16 -0.01    +0.194 C 
DOCKED: ATOM      2  C   UNL d   1      23.702  53.156  21.225 -0.10 +0.01    +0.194 C 
DOCKED: ATOM      3  C   UNL d   1      24.885  53.856  21.898 -0.08 +0.08    +0.194 C 
DOCKED: ATOM      4  C   UNL d   1      25.632  54.806  20.965 -0.03 +0.05    +0.194 C 
DOCKED: ATOM      5  C   UNL d   1      25.963  54.206  19.604 -0.05 +0.03    +0.194 C 
DOCKED: ATOM      6  C   UNL d   1      24.798  53.453  18.959 -0.06 +0.01    +0.194 C 
DOCKED: ENDROOT
DOCKED: BRANCH   1   7
DOCKED: ATOM      7  O   UNL d   1      22.933  51.999  19.271 -0.17 +0.05    -0.278 OA
DOCKED: BRANCH   7   8
DOCKED: ATOM      8  P   UNL d   1      22.462  52.719  17.924 -0.07 -0.04    +0.473 P 
DOCKED: ATOM      9  O   UNL d   1      23.200  52.308  16.699 -0.17 +0.00    -0.228 OA
DOCKED: BRANCH   8  10
DOCKED: ATOM     10  O   UNL d   1      20.898  52.412  17.849 -0.07 +0.03    -0.303 OA
DOCKED: ATOM     11  H   UNL d   1      20.563  52.204  18.741 +0.02 -0.04    +0.222 HD
DOCKED: ENDBRANCH   8  10
DOCKED: BRANCH   8  12
DOCKED: ATOM     12  O   UNL d   1      22.481  54.272  18.258 -0.02 +0.01    -0.303 OA
DOCKED: ATOM     13  H   UNL d   1      22.568  54.459  19.220 +0.03 -0.00    +0.222 HD
DOCKED: ENDBRANCH   8  12
DOCKED: ENDBRANCH   7   8
DOCKED: ENDBRANCH   1   7
DOCKED: BRANCH   2  14
DOCKED: ATOM     14  O   UNL d   1      22.692  54.133  20.945 -0.02 -0.00    -0.278 OA
DOCKED: BRANCH  14  15
DOCKED: ATOM     15  P   UNL d   1      21.175  53.684  21.188 -0.02 -0.03    +0.473 P 
DOCKED: ATOM     16  O   UNL d   1      20.957  52.283  21.668 -0.13 +0.03    -0.228 OA
DOCKED: BRANCH  15  17
DOCKED: ATOM     17  O   UNL d   1      20.603  54.778  22.194 -0.00 +0.00    -0.303 OA
DOCKED: ATOM     18  H   UNL d   1      21.265  55.012  22.873 +0.02 +0.01    +0.222 HD
DOCKED: ENDBRANCH  15  17
DOCKED: BRANCH  15  19
DOCKED: ATOM     19  O   UNL d   1      20.426  54.069  19.838 -0.02 +0.02    -0.303 OA
DOCKED: ATOM     20  H   UNL d   1      21.042  54.109  19.083 +0.03 -0.01    +0.222 HD
DOCKED: ENDBRANCH  15  19
DOCKED: ENDBRANCH  14  15
DOCKED: ENDBRANCH   2  14
DOCKED: BRANCH   6  21
DOCKED: ATOM     21  O   UNL d   1      25.346  52.679  17.895 -0.08 -0.00    -0.278 OA
DOCKED: BRANCH  21  22
DOCKED: ATOM     22  P   UNL d   1      26.068  51.293  18.214 -0.21 +0.00    +0.473 P 
DOCKED: ATOM     23  O   UNL d   1      27.172  50.850  17.315 -0.41 -0.00    -0.228 OA
DOCKED: BRANCH  22  24
DOCKED: ATOM     24  O   UNL d   1      26.484  51.485  19.738 -0.23 -0.03    -0.303 OA
DOCKED: ATOM     25  H   UNL d   1      27.209  50.842  19.943 +0.13 +0.03    +0.222 HD
DOCKED: ENDBRANCH  22  24
DOCKED: BRANCH  22  26
DOCKED: ATOM     26  O   UNL d   1      24.818  50.296  18.336 -0.29 +0.04    -0.303 OA
DOCKED: ATOM     27  H   UNL d   1      24.035  50.708  17.916 +0.05 -0.04    +0.222 HD
DOCKED: ENDBRANCH  22  26
DOCKED: ENDBRANCH  21  22
DOCKED: ENDBRANCH   6  21
DOCKED: BRANCH   3  28
DOCKED: ATOM     28  O   UNL d   1      24.363  54.678  22.934 -0.06 -0.11    -0.278 OA
DOCKED: BRANCH  28  29
DOCKED: ATOM     29  P   UNL d   1      24.913  54.542  24.423 +0.05 +0.38    +0.473 P 
DOCKED: ATOM     30  O   UNL d   1      24.387  53.390  25.198 -0.09 -0.20    -0.228 OA
DOCKED: BRANCH  29  31
DOCKED: ATOM     31  O   UNL d   1      26.488  54.570  24.142 -0.50 -0.45    -0.303 OA
DOCKED: ATOM     32  H   UNL d   1      26.727  55.453  23.777 +0.02 +0.15    +0.222 HD
DOCKED: ENDBRANCH  29  31
DOCKED: BRANCH  29  33
DOCKED: ATOM     33  O   UNL d   1      24.636  55.994  25.015 -0.01 -0.09    -0.303 OA
DOCKED: ATOM     34  H   UNL d   1      25.442  56.553  24.886 +0.01 +0.06    +0.222 HD
DOCKED: ENDBRANCH  29  33
DOCKED: ENDBRANCH  28  29
DOCKED: ENDBRANCH   3  28
DOCKED: BRANCH   5  35
DOCKED: ATOM     35  O   UNL d   1      26.268  55.312  18.758 -0.01 -0.02    -0.278 OA
DOCKED: BRANCH  35  36
DOCKED: ATOM     36  P   UNL d   1      25.110  56.295  18.270 +0.00 +0.02    +0.473 P 
DOCKED: ATOM     37  O   UNL d   1      24.003  56.524  19.249 +0.00 -0.01    -0.228 OA
DOCKED: BRANCH  36  38
DOCKED: ATOM     38  O   UNL d   1      25.932  57.606  17.893 -0.00 -0.01    -0.303 OA
DOCKED: ATOM     39  H   UNL d   1      26.547  57.821  18.627 +0.01 +0.01    +0.222 HD
DOCKED: ENDBRANCH  36  38
DOCKED: BRANCH  36  40
DOCKED: ATOM     40  O   UNL d   1      24.710  55.675  16.860 -0.01 +0.00    -0.303 OA
DOCKED: ATOM     41  H   UNL d   1      24.183  54.852  16.961 +0.03 -0.00    +0.222 HD
DOCKED: ENDBRANCH  36  40
DOCKED: ENDBRANCH  35  36
DOCKED: ENDBRANCH   5  35
DOCKED: BRANCH   4  42
DOCKED: ATOM     42  O   UNL d   1      26.875  55.119  21.601 -0.05 -0.11    -0.278 OA
DOCKED: BRANCH  42  43
DOCKED: ATOM     43  P   UNL d   1      27.257  56.650  21.836 +0.00 +0.10    +0.473 P 
DOCKED: ATOM     44  O   UNL d   1      28.687  56.967  22.107 -0.01 -0.04    -0.228 OA
DOCKED: BRANCH  43  45
DOCKED: ATOM     45  O   UNL d   1      26.668  57.359  20.539 +0.00 -0.03    -0.303 OA
DOCKED: ATOM     46  H   UNL d   1      25.916  56.857  20.167 +0.01 +0.02    +0.222 HD
DOCKED: ENDBRANCH  43  45
DOCKED: BRANCH  43  47
DOCKED: ATOM     47  O   UNL d   1      26.219  57.118  22.963 -0.00 -0.06    -0.303 OA
DOCKED: ATOM     48  H   UNL d   1      25.631  56.368  23.192 +0.01 +0.07    +0.222 HD
DOCKED: ENDBRANCH  43  47
DOCKED: ENDBRANCH  42  43
DOCKED: ENDBRANCH   4  42
DOCKED: TORSDOF 24
DOCKED: TER
DOCKED: ENDMDL
________________________________________________________________________________


	BEGINNING GENETIC ALGORITHM DOCKING 65 of 100
Run: 65 Seed: 1483692552 1950232923 [ Run 65 of 100 GA/GALS ]
Beginning LAMARCKIAN GENETIC ALGORITHM (LGA), with a maximum of 25000000 energy evaluations.

Final-Value: -16.343


	FINAL GENETIC ALGORITHM DOCKED STATE
	_______________________________________________


Detailed state:  trans 55.898 37.462 5.015 quatxyzw -0.756289 -0.083757 0.458033 -0.459584 center 0.035 0.082 -0.065 ntor 24 90.4159 117.9247 142.7556 23.6521 79.3925 146.1170 -86.6765 19.0646 156.8945 -53.8036 17.3971 9.3805 -74.6369 30.0436 70.0131 -152.8047 86.6137 -74.9344 -149.4743 -19.8231 22.3354 -25.0968 -47.4330 15.9760
State:	 55.898  37.462   5.015  -0.852 -0.094  0.516 -125.279     90.42  117.92  142.76   23.65   79.39  146.12  -86.68   19.06  156.89  -53.80   17.40    9.38  -74.64   30.04   70.01 -152.80   86.61  -74.93 -149.47  -19.82   22.34  -25.10  -47.43   15.98

DOCKED: MODEL       65
DOCKED: USER    Run = 65
DOCKED: USER    DPF = D:/Protein_go_brrr/autodock/final/2DN3/IHP/dock.dpf
DOCKED: USER  
DOCKED: USER    Estimated Free Energy of Binding    =   +5.49 kcal/mol  [=(1)+(2)+(3)-(4)]
DOCKED: USER    
DOCKED: USER    (1) Final Intermolecular Energy     =   -1.66 kcal/mol
DOCKED: USER        vdW + Hbond + desolv Energy     =   -1.29 kcal/mol
DOCKED: USER        Electrostatic Energy            =   -0.37 kcal/mol
DOCKED: USER    (2) Final Total Internal Energy     =  -14.68 kcal/mol
DOCKED: USER    (3) Torsional Free Energy           =   +7.16 kcal/mol
DOCKED: USER    (4) Unbound System's Energy  [=(2)] =  -14.68 kcal/mol
DOCKED: USER    
DOCKED: USER    
DOCKED: USER    NEWDPF move IHP_ideal_opt.pdbqt
DOCKED: USER    NEWDPF about 0.035000 0.082000 -0.065000
DOCKED: USER    NEWDPF tran0 55.897568 37.462490 5.015400
DOCKED: USER    NEWDPF quaternion0 -0.756289 -0.083757 0.458033 -0.459584
DOCKED: USER    NEWDPF axisangle0 -0.851548 -0.094307 0.515725 -125.279406
DOCKED: USER    NEWDPF quat0 -0.851548 -0.094307 0.515725 -125.279406
DOCKED: USER    NEWDPF dihe0 90.42 117.92 142.76 23.65 79.39 146.12 -86.68 19.06 156.89 -53.80 17.40 9.38 -74.64 30.04 70.01 -152.80 86.61 -74.93 -149.47 -19.82 22.34 -25.10 -47.43 15.98 
DOCKED: USER  keepresnum = 1 
DOCKED: USER  
DOCKED: REMARK  24 active torsions:
DOCKED: REMARK  status: ('A' for Active; 'I' for Inactive)
DOCKED: REMARK    1  A    between atoms: C_1  and  O_7 
DOCKED: REMARK    2  A    between atoms: C_2  and  O_12 
DOCKED: REMARK    3  A    between atoms: C_3  and  O_17 
DOCKED: REMARK    4  A    between atoms: C_4  and  O_22 
DOCKED: REMARK    5  A    between atoms: C_5  and  O_27 
DOCKED: REMARK    6  A    between atoms: C_6  and  O_32 
DOCKED: REMARK    7  A    between atoms: O_7  and  P_8 
DOCKED: REMARK    8  A    between atoms: P_8  and  O_10 
DOCKED: REMARK    9  A    between atoms: P_8  and  O_11 
DOCKED: REMARK   10  A    between atoms: O_12  and  P_13 
DOCKED: REMARK   11  A    between atoms: P_13  and  O_15 
DOCKED: REMARK   12  A    between atoms: P_13  and  O_16 
DOCKED: REMARK   13  A    between atoms: O_17  and  P_18 
DOCKED: REMARK   14  A    between atoms: P_18  and  O_20 
DOCKED: REMARK   15  A    between atoms: P_18  and  O_21 
DOCKED: REMARK   16  A    between atoms: O_22  and  P_23 
DOCKED: REMARK   17  A    between atoms: P_23  and  O_25 
DOCKED: REMARK   18  A    between atoms: P_23  and  O_26 
DOCKED: REMARK   19  A    between atoms: O_27  and  P_28 
DOCKED: REMARK   20  A    between atoms: P_28  and  O_30 
DOCKED: REMARK   21  A    between atoms: P_28  and  O_31 
DOCKED: REMARK   22  A    between atoms: O_32  and  P_33 
DOCKED: REMARK   23  A    between atoms: P_33  and  O_35 
DOCKED: REMARK   24  A    between atoms: P_33  and  O_36 
DOCKED: USER                              x       y       z     vdW  Elec       q    Type
DOCKED: USER                           _______ _______ _______ _____ _____    ______ ____
DOCKED: ROOT
DOCKED: ATOM      1  C   UNL d   1      56.260  39.138   4.804 +0.00 +0.01    +0.194 C 
DOCKED: ATOM      2  C   UNL d   1      56.074  38.680   6.252 +0.00 +0.01    +0.194 C 
DOCKED: ATOM      3  C   UNL d   1      54.876  37.738   6.398 -0.01 +0.01    +0.194 C 
DOCKED: ATOM      4  C   UNL d   1      54.911  36.565   5.421 -0.00 +0.01    +0.194 C 
DOCKED: ATOM      5  C   UNL d   1      55.208  36.966   3.981 +0.01 +0.02    +0.194 C 
DOCKED: ATOM      6  C   UNL d   1      56.366  37.956   3.841 +0.00 +0.01    +0.194 C 
DOCKED: ENDROOT
DOCKED: BRANCH   1   7
DOCKED: ATOM      7  O   UNL d   1      57.487  39.867   4.722 +0.00 -0.01    -0.278 OA
DOCKED: BRANCH   7   8
DOCKED: ATOM      8  P   UNL d   1      58.834  39.056   4.437 +0.00 +0.02    +0.473 P 
DOCKED: ATOM      9  O   UNL d   1      58.792  37.615   4.805 +0.00 -0.01    -0.228 OA
DOCKED: BRANCH   8  10
DOCKED: ATOM     10  O   UNL d   1      59.112  39.300   2.885 +0.00 -0.02    -0.303 OA
DOCKED: ATOM     11  H   UNL d   1      58.422  38.858   2.356 +0.00 +0.01    +0.222 HD
DOCKED: ENDBRANCH   8  10
DOCKED: BRANCH   8  12
DOCKED: ATOM     12  O   UNL d   1      59.984  39.913   5.120 +0.00 -0.01    -0.303 OA
DOCKED: ATOM     13  H   UNL d   1      59.971  39.862   6.103 +0.00 +0.01    +0.222 HD
DOCKED: ENDBRANCH   8  12
DOCKED: ENDBRANCH   7   8
DOCKED: ENDBRANCH   1   7
DOCKED: BRANCH   2  14
DOCKED: ATOM     14  O   UNL d   1      57.254  37.987   6.678 +0.00 -0.01    -0.278 OA
DOCKED: BRANCH  14  15
DOCKED: ATOM     15  P   UNL d   1      58.142  38.709   7.798 +0.00 +0.02    +0.473 P 
DOCKED: ATOM     16  O   UNL d   1      57.745  38.479   9.222 +0.00 -0.01    -0.228 OA
DOCKED: BRANCH  15  17
DOCKED: ATOM     17  O   UNL d   1      59.628  38.226   7.485 +0.00 -0.01    -0.303 OA
DOCKED: ATOM     18  H   UNL d   1      59.830  38.305   6.533 +0.00 +0.01    +0.222 HD
DOCKED: ENDBRANCH  15  17
DOCKED: BRANCH  15  19
DOCKED: ATOM     19  O   UNL d   1      58.199  40.231   7.339 +0.00 -0.01    -0.303 OA
DOCKED: ATOM     20  H   UNL d   1      58.239  40.314   6.368 +0.00 +0.01    +0.222 HD
DOCKED: ENDBRANCH  15  19
DOCKED: ENDBRANCH  14  15
DOCKED: ENDBRANCH   2  14
DOCKED: BRANCH   6  21
DOCKED: ATOM     21  O   UNL d   1      56.297  38.486   2.519 +0.00 -0.02    -0.278 OA
DOCKED: BRANCH  21  22
DOCKED: ATOM     22  P   UNL d   1      56.871  37.639   1.295 +0.00 +0.04    +0.473 P 
DOCKED: ATOM     23  O   UNL d   1      55.905  36.882   0.447 +0.00 -0.02    -0.228 OA
DOCKED: BRANCH  22  24
DOCKED: ATOM     24  O   UNL d   1      57.728  38.731   0.517 +0.00 -0.02    -0.303 OA
DOCKED: ATOM     25  H   UNL d   1      57.834  39.519   1.109 +0.00 +0.01    +0.222 HD
DOCKED: ENDBRANCH  22  24
DOCKED: BRANCH  22  26
DOCKED: ATOM     26  O   UNL d   1      58.012  36.768   2.009 +0.00 -0.02    -0.303 OA
DOCKED: ATOM     27  H   UNL d   1      58.351  37.257   2.786 +0.00 +0.02    +0.222 HD
DOCKED: ENDBRANCH  22  26
DOCKED: ENDBRANCH  21  22
DOCKED: ENDBRANCH   6  21
DOCKED: BRANCH   3  28
DOCKED: ATOM     28  O   UNL d   1      54.948  37.153   7.692 -0.01 -0.01    -0.278 OA
DOCKED: BRANCH  28  29
DOCKED: ATOM     29  P   UNL d   1      54.329  37.907   8.951 -0.02 +0.01    +0.473 P 
DOCKED: ATOM     30  O   UNL d   1      54.488  37.214  10.255 -0.04 -0.00    -0.228 OA
DOCKED: BRANCH  29  31
DOCKED: ATOM     31  O   UNL d   1      55.036  39.334   8.797 -0.01 +0.00    -0.303 OA
DOCKED: ATOM     32  H   UNL d   1      55.945  39.198   8.442 +0.02 +0.00    +0.222 HD
DOCKED: ENDBRANCH  29  31
DOCKED: BRANCH  29  33
DOCKED: ATOM     33  O   UNL d   1      52.840  38.199   8.467 -0.13 -0.05    -0.303 OA
DOCKED: ATOM     34  H   UNL d   1      52.308  37.370   8.550 +0.10 +0.05    +0.222 HD
DOCKED: ENDBRANCH  29  33
DOCKED: ENDBRANCH  28  29
DOCKED: ENDBRANCH   3  28
DOCKED: BRANCH   5  35
DOCKED: ATOM     35  O   UNL d   1      55.599  35.765   3.319 +0.00 -0.03    -0.278 OA
DOCKED: BRANCH  35  36
DOCKED: ATOM     36  P   UNL d   1      54.495  34.764   2.749 +0.02 +0.06    +0.473 P 
DOCKED: ATOM     37  O   UNL d   1      54.699  34.316   1.336 +0.00 -0.03    -0.228 OA
DOCKED: BRANCH  36  38
DOCKED: ATOM     38  O   UNL d   1      54.537  33.588   3.821 -0.00 -0.02    -0.303 OA
DOCKED: ATOM     39  H   UNL d   1      53.932  33.808   4.563 +0.05 -0.00    +0.222 HD
DOCKED: ENDBRANCH  36  38
DOCKED: BRANCH  36  40
DOCKED: ATOM     40  O   UNL d   1      53.141  35.532   3.074 -0.02 -0.06    -0.303 OA
DOCKED: ATOM     41  H   UNL d   1      52.744  35.228   3.921 +0.05 +0.06    +0.222 HD
DOCKED: ENDBRANCH  36  40
DOCKED: ENDBRANCH  35  36
DOCKED: ENDBRANCH   5  35
DOCKED: BRANCH   4  42
DOCKED: ATOM     42  O   UNL d   1      53.605  35.977   5.433 -0.05 -0.04    -0.278 OA
DOCKED: BRANCH  42  43
DOCKED: ATOM     43  P   UNL d   1      53.331  34.728   6.387 -0.08 -0.13    +0.473 P 
DOCKED: ATOM     44  O   UNL d   1      54.482  33.833   6.693 -0.07 +0.08    -0.228 OA
DOCKED: BRANCH  43  45
DOCKED: ATOM     45  O   UNL d   1      52.674  35.405   7.668 -0.17 +0.09    -0.303 OA
DOCKED: ATOM     46  H   UNL d   1      53.251  36.102   8.040 +0.06 -0.01    +0.222 HD
DOCKED: ENDBRANCH  43  45
DOCKED: BRANCH  43  47
DOCKED: ATOM     47  O   UNL d   1      52.064  34.020   5.707 -0.77 +0.07    -0.303 OA
DOCKED: ATOM     48  H   UNL d   1      51.735  33.311   6.298 -0.23 -0.47    +0.222 HD
DOCKED: ENDBRANCH  43  47
DOCKED: ENDBRANCH  42  43
DOCKED: ENDBRANCH   4  42
DOCKED: TORSDOF 24
DOCKED: TER
DOCKED: ENDMDL
________________________________________________________________________________


	BEGINNING GENETIC ALGORITHM DOCKING 66 of 100
Run: 66 Seed: 1786430408 1352751031 [ Run 66 of 100 GA/GALS ]
Beginning LAMARCKIAN GENETIC ALGORITHM (LGA), with a maximum of 25000000 energy evaluations.

Final-Value: -15.482


	FINAL GENETIC ALGORITHM DOCKED STATE
	_______________________________________________


Detailed state:  trans 48.130 52.360 9.594 quatxyzw 0.518482 0.705061 0.260308 0.407806 center 0.035 0.082 -0.065 ntor 24 89.1125 91.0226 136.1449 8.7894 -68.2434 99.2927 -179.4758 35.9587 100.8726 29.3168 174.4845 118.8921 -38.0428 74.4604 -178.2853 176.1733 28.2504 40.7557 36.6913 -26.9224 179.7763 30.6119 -12.6624 -14.3831
State:	 48.130  52.360   9.594   0.568  0.772  0.285 131.866     89.11   91.02  136.14    8.79  -68.24   99.29 -179.48   35.96  100.87   29.32  174.48  118.89  -38.04   74.46 -178.29  176.17   28.25   40.76   36.69  -26.92  179.78   30.61  -12.66  -14.38

DOCKED: MODEL       66
DOCKED: USER    Run = 66
DOCKED: USER    DPF = D:/Protein_go_brrr/autodock/final/2DN3/IHP/dock.dpf
DOCKED: USER  
DOCKED: USER    Estimated Free Energy of Binding    =   +4.96 kcal/mol  [=(1)+(2)+(3)-(4)]
DOCKED: USER    
DOCKED: USER    (1) Final Intermolecular Energy     =   -2.20 kcal/mol
DOCKED: USER        vdW + Hbond + desolv Energy     =   -2.24 kcal/mol
DOCKED: USER        Electrostatic Energy            =   +0.04 kcal/mol
DOCKED: USER    (2) Final Total Internal Energy     =  -13.28 kcal/mol
DOCKED: USER    (3) Torsional Free Energy           =   +7.16 kcal/mol
DOCKED: USER    (4) Unbound System's Energy  [=(2)] =  -13.28 kcal/mol
DOCKED: USER    
DOCKED: USER    
DOCKED: USER    NEWDPF move IHP_ideal_opt.pdbqt
DOCKED: USER    NEWDPF about 0.035000 0.082000 -0.065000
DOCKED: USER    NEWDPF tran0 48.129925 52.359773 9.593840
DOCKED: USER    NEWDPF quaternion0 0.518482 0.705061 0.260308 0.407806
DOCKED: USER    NEWDPF axisangle0 0.567846 0.772188 0.285091 131.865785
DOCKED: USER    NEWDPF quat0 0.567846 0.772188 0.285091 131.865785
DOCKED: USER    NEWDPF dihe0 89.11 91.02 136.14 8.79 -68.24 99.29 -179.48 35.96 100.87 29.32 174.48 118.89 -38.04 74.46 -178.29 176.17 28.25 40.76 36.69 -26.92 179.78 30.61 -12.66 -14.38 
DOCKED: USER  keepresnum = 1 
DOCKED: USER  
DOCKED: REMARK  24 active torsions:
DOCKED: REMARK  status: ('A' for Active; 'I' for Inactive)
DOCKED: REMARK    1  A    between atoms: C_1  and  O_7 
DOCKED: REMARK    2  A    between atoms: C_2  and  O_12 
DOCKED: REMARK    3  A    between atoms: C_3  and  O_17 
DOCKED: REMARK    4  A    between atoms: C_4  and  O_22 
DOCKED: REMARK    5  A    between atoms: C_5  and  O_27 
DOCKED: REMARK    6  A    between atoms: C_6  and  O_32 
DOCKED: REMARK    7  A    between atoms: O_7  and  P_8 
DOCKED: REMARK    8  A    between atoms: P_8  and  O_10 
DOCKED: REMARK    9  A    between atoms: P_8  and  O_11 
DOCKED: REMARK   10  A    between atoms: O_12  and  P_13 
DOCKED: REMARK   11  A    between atoms: P_13  and  O_15 
DOCKED: REMARK   12  A    between atoms: P_13  and  O_16 
DOCKED: REMARK   13  A    between atoms: O_17  and  P_18 
DOCKED: REMARK   14  A    between atoms: P_18  and  O_20 
DOCKED: REMARK   15  A    between atoms: P_18  and  O_21 
DOCKED: REMARK   16  A    between atoms: O_22  and  P_23 
DOCKED: REMARK   17  A    between atoms: P_23  and  O_25 
DOCKED: REMARK   18  A    between atoms: P_23  and  O_26 
DOCKED: REMARK   19  A    between atoms: O_27  and  P_28 
DOCKED: REMARK   20  A    between atoms: P_28  and  O_30 
DOCKED: REMARK   21  A    between atoms: P_28  and  O_31 
DOCKED: REMARK   22  A    between atoms: O_32  and  P_33 
DOCKED: REMARK   23  A    between atoms: P_33  and  O_35 
DOCKED: REMARK   24  A    between atoms: P_33  and  O_36 
DOCKED: USER                              x       y       z     vdW  Elec       q    Type
DOCKED: USER                           _______ _______ _______ _____ _____    ______ ____
DOCKED: ROOT
DOCKED: ATOM      1  C   UNL d   1      46.888  53.344  10.281 -0.01 -0.02    +0.194 C 
DOCKED: ATOM      2  C   UNL d   1      46.404  52.143   9.468 -0.09 -0.04    +0.194 C 
DOCKED: ATOM      3  C   UNL d   1      47.201  51.978   8.172 -0.07 -0.04    +0.194 C 
DOCKED: ATOM      4  C   UNL d   1      48.711  51.955   8.393 -0.02 -0.04    +0.194 C 
DOCKED: ATOM      5  C   UNL d   1      49.224  53.071   9.295 -0.00 -0.02    +0.194 C 
DOCKED: ATOM      6  C   UNL d   1      48.390  53.276  10.561 -0.00 -0.02    +0.194 C 
DOCKED: ENDROOT
DOCKED: BRANCH   1   7
DOCKED: ATOM      7  O   UNL d   1      46.218  53.327  11.544 -0.01 +0.03    -0.278 OA
DOCKED: BRANCH   7   8
DOCKED: ATOM      8  P   UNL d   1      44.780  54.013  11.650 +0.01 -0.06    +0.473 P 
DOCKED: ATOM      9  O   UNL d   1      44.135  54.331  10.347 -0.06 +0.06    -0.228 OA
DOCKED: BRANCH   8  10
DOCKED: ATOM     10  O   UNL d   1      43.931  52.997  12.539 -0.04 +0.03    -0.303 OA
DOCKED: ATOM     11  H   UNL d   1      43.773  52.176  12.037 +0.09 -0.03    +0.222 HD
DOCKED: ENDBRANCH   8  10
DOCKED: BRANCH   8  12
DOCKED: ATOM     12  O   UNL d   1      44.979  55.238  12.643 +0.00 +0.01    -0.303 OA
DOCKED: ATOM     13  H   UNL d   1      45.782  55.769  12.444 +0.01 -0.00    +0.222 HD
DOCKED: ENDBRANCH   8  12
DOCKED: ENDBRANCH   7   8
DOCKED: ENDBRANCH   1   7
DOCKED: BRANCH   2  14
DOCKED: ATOM     14  O   UNL d   1      46.559  50.954  10.254 -0.12 +0.05    -0.278 OA
DOCKED: BRANCH  14  15
DOCKED: ATOM     15  P   UNL d   1      45.224  50.333  10.883 -0.28 -0.05    +0.473 P 
DOCKED: ATOM     16  O   UNL d   1      44.996  48.870  10.664 -0.52 -0.01    -0.228 OA
DOCKED: BRANCH  15  17
DOCKED: ATOM     17  O   UNL d   1      45.306  50.721  12.426 -0.20 +0.04    -0.303 OA
DOCKED: ATOM     18  H   UNL d   1      45.643  51.630  12.542 +0.08 -0.02    +0.222 HD
DOCKED: ENDBRANCH  15  17
DOCKED: BRANCH  15  19
DOCKED: ATOM     19  O   UNL d   1      44.062  51.292  10.373 -0.09 +0.09    -0.303 OA
DOCKED: ATOM     20  H   UNL d   1      44.265  52.229  10.550 +0.06 -0.08    +0.222 HD
DOCKED: ENDBRANCH  15  19
DOCKED: ENDBRANCH  14  15
DOCKED: ENDBRANCH   2  14
DOCKED: BRANCH   6  21
DOCKED: ATOM     21  O   UNL d   1      48.772  54.537  11.106 +0.00 +0.01    -0.278 OA
DOCKED: BRANCH  21  22
DOCKED: ATOM     22  P   UNL d   1      48.219  55.883  10.451 +0.00 -0.01    +0.473 P 
DOCKED: ATOM     23  O   UNL d   1      49.088  57.094  10.489 +0.00 +0.00    -0.228 OA
DOCKED: BRANCH  22  24
DOCKED: ATOM     24  O   UNL d   1      47.819  55.393   8.990 +0.00 +0.01    -0.303 OA
DOCKED: ATOM     25  H   UNL d   1      48.163  56.056   8.339 +0.00 -0.01    +0.222 HD
DOCKED: ENDBRANCH  22  24
DOCKED: BRANCH  22  26
DOCKED: ATOM     26  O   UNL d   1      46.786  56.023  11.157 +0.00 +0.01    -0.303 OA
DOCKED: ATOM     27  H   UNL d   1      46.169  55.373  10.763 +0.01 -0.01    +0.222 HD
DOCKED: ENDBRANCH  22  26
DOCKED: ENDBRANCH  21  22
DOCKED: ENDBRANCH   6  21
DOCKED: BRANCH   3  28
DOCKED: ATOM     28  O   UNL d   1      46.879  50.703   7.631 -0.17 +0.09    -0.278 OA
DOCKED: BRANCH  28  29
DOCKED: ATOM     29  P   UNL d   1      46.711  50.516   6.058 -0.09 -0.18    +0.473 P 
DOCKED: ATOM     30  O   UNL d   1      47.058  49.171   5.532 -0.20 +0.15    -0.228 OA
DOCKED: BRANCH  29  31
DOCKED: ATOM     31  O   UNL d   1      45.194  50.995   5.881 -0.10 +0.09    -0.303 OA
DOCKED: ATOM     32  H   UNL d   1      44.700  50.299   5.390 -0.36 -0.11    +0.222 HD
DOCKED: ENDBRANCH  29  31
DOCKED: BRANCH  29  33
DOCKED: ATOM     33  O   UNL d   1      47.539  51.749   5.485 -0.02 +0.06    -0.303 OA
DOCKED: ATOM     34  H   UNL d   1      48.456  51.449   5.272 +0.03 -0.04    +0.222 HD
DOCKED: ENDBRANCH  29  33
DOCKED: ENDBRANCH  28  29
DOCKED: ENDBRANCH   3  28
DOCKED: BRANCH   5  35
DOCKED: ATOM     35  O   UNL d   1      50.526  52.665   9.710 +0.00 +0.03    -0.278 OA
DOCKED: BRANCH  35  36
DOCKED: ATOM     36  P   UNL d   1      51.803  53.538   9.321 +0.00 -0.02    +0.473 P 
DOCKED: ATOM     37  O   UNL d   1      51.947  54.833  10.056 +0.00 +0.00    -0.228 OA
DOCKED: BRANCH  36  38
DOCKED: ATOM     38  O   UNL d   1      52.991  52.508   9.572 +0.00 +0.02    -0.303 OA
DOCKED: ATOM     39  H   UNL d   1      52.669  51.597   9.398 +0.01 -0.02    +0.222 HD
DOCKED: ENDBRANCH  36  38
DOCKED: BRANCH  36  40
DOCKED: ATOM     40  O   UNL d   1      51.692  53.615   7.737 +0.00 +0.02    -0.303 OA
DOCKED: ATOM     41  H   UNL d   1      51.028  52.980   7.387 +0.01 -0.02    +0.222 HD
DOCKED: ENDBRANCH  36  40
DOCKED: ENDBRANCH  35  36
DOCKED: ENDBRANCH   5  35
DOCKED: BRANCH   4  42
DOCKED: ATOM     42  O   UNL d   1      49.321  52.135   7.111 -0.01 +0.05    -0.278 OA
DOCKED: BRANCH  42  43
DOCKED: ATOM     43  P   UNL d   1      50.388  51.063   6.606 -0.00 -0.11    +0.473 P 
DOCKED: ATOM     44  O   UNL d   1      49.870  49.859   5.898 -0.06 +0.10    -0.228 OA
DOCKED: BRANCH  43  45
DOCKED: ATOM     45  O   UNL d   1      51.389  51.947   5.740 +0.00 +0.03    -0.303 OA
DOCKED: ATOM     46  H   UNL d   1      52.207  52.150   6.235 +0.00 -0.02    +0.222 HD
DOCKED: ENDBRANCH  43  45
DOCKED: BRANCH  43  47
DOCKED: ATOM     47  O   UNL d   1      51.263  50.772   7.917 -0.01 +0.08    -0.303 OA
DOCKED: ATOM     48  H   UNL d   1      51.708  51.598   8.199 +0.01 -0.03    +0.222 HD
DOCKED: ENDBRANCH  43  47
DOCKED: ENDBRANCH  42  43
DOCKED: ENDBRANCH   4  42
DOCKED: TORSDOF 24
DOCKED: TER
DOCKED: ENDMDL
________________________________________________________________________________


	BEGINNING GENETIC ALGORITHM DOCKING 67 of 100
Run: 67 Seed: 1477619816 1541045781 [ Run 67 of 100 GA/GALS ]
Beginning LAMARCKIAN GENETIC ALGORITHM (LGA), with a maximum of 25000000 energy evaluations.

Final-Value: -15.133


	FINAL GENETIC ALGORITHM DOCKED STATE
	_______________________________________________


Detailed state:  trans 39.944 27.771 36.326 quatxyzw -0.592591 -0.568109 -0.213642 -0.529571 center 0.035 0.082 -0.065 ntor 24 80.6307 131.6111 1.7319 99.7328 27.5706 172.8600 98.4832 -12.7629 91.3766 -5.1765 -35.9986 110.6395 -47.6085 -33.0449 -51.9139 29.6102 133.9136 -24.0287 40.5976 -23.1115 -174.0786 -46.8580 -2.7157 -179.9744
State:	 39.944  27.771  36.326  -0.699 -0.670 -0.252 -116.047     80.63  131.61    1.73   99.73   27.57  172.86   98.48  -12.76   91.38   -5.18  -36.00  110.64  -47.61  -33.04  -51.91   29.61  133.91  -24.03   40.60  -23.11 -174.08  -46.86   -2.72 -179.97

DOCKED: MODEL       67
DOCKED: USER    Run = 67
DOCKED: USER    DPF = D:/Protein_go_brrr/autodock/final/2DN3/IHP/dock.dpf
DOCKED: USER  
DOCKED: USER    Estimated Free Energy of Binding    =   +4.76 kcal/mol  [=(1)+(2)+(3)-(4)]
DOCKED: USER    
DOCKED: USER    (1) Final Intermolecular Energy     =   -2.40 kcal/mol
DOCKED: USER        vdW + Hbond + desolv Energy     =   -2.17 kcal/mol
DOCKED: USER        Electrostatic Energy            =   -0.23 kcal/mol
DOCKED: USER    (2) Final Total Internal Energy     =  -12.74 kcal/mol
DOCKED: USER    (3) Torsional Free Energy           =   +7.16 kcal/mol
DOCKED: USER    (4) Unbound System's Energy  [=(2)] =  -12.74 kcal/mol
DOCKED: USER    
DOCKED: USER    
DOCKED: USER    NEWDPF move IHP_ideal_opt.pdbqt
DOCKED: USER    NEWDPF about 0.035000 0.082000 -0.065000
DOCKED: USER    NEWDPF tran0 39.943939 27.770834 36.325893
DOCKED: USER    NEWDPF quaternion0 -0.592591 -0.568109 -0.213642 -0.529571
DOCKED: USER    NEWDPF axisangle0 -0.698591 -0.669730 -0.251857 -116.047034
DOCKED: USER    NEWDPF quat0 -0.698591 -0.669730 -0.251857 -116.047034
DOCKED: USER    NEWDPF dihe0 80.63 131.61 1.73 99.73 27.57 172.86 98.48 -12.76 91.38 -5.18 -36.00 110.64 -47.61 -33.04 -51.91 29.61 133.91 -24.03 40.60 -23.11 -174.08 -46.86 -2.72 -179.97 
DOCKED: USER  keepresnum = 1 
DOCKED: USER  
DOCKED: REMARK  24 active torsions:
DOCKED: REMARK  status: ('A' for Active; 'I' for Inactive)
DOCKED: REMARK    1  A    between atoms: C_1  and  O_7 
DOCKED: REMARK    2  A    between atoms: C_2  and  O_12 
DOCKED: REMARK    3  A    between atoms: C_3  and  O_17 
DOCKED: REMARK    4  A    between atoms: C_4  and  O_22 
DOCKED: REMARK    5  A    between atoms: C_5  and  O_27 
DOCKED: REMARK    6  A    between atoms: C_6  and  O_32 
DOCKED: REMARK    7  A    between atoms: O_7  and  P_8 
DOCKED: REMARK    8  A    between atoms: P_8  and  O_10 
DOCKED: REMARK    9  A    between atoms: P_8  and  O_11 
DOCKED: REMARK   10  A    between atoms: O_12  and  P_13 
DOCKED: REMARK   11  A    between atoms: P_13  and  O_15 
DOCKED: REMARK   12  A    between atoms: P_13  and  O_16 
DOCKED: REMARK   13  A    between atoms: O_17  and  P_18 
DOCKED: REMARK   14  A    between atoms: P_18  and  O_20 
DOCKED: REMARK   15  A    between atoms: P_18  and  O_21 
DOCKED: REMARK   16  A    between atoms: O_22  and  P_23 
DOCKED: REMARK   17  A    between atoms: P_23  and  O_25 
DOCKED: REMARK   18  A    between atoms: P_23  and  O_26 
DOCKED: REMARK   19  A    between atoms: O_27  and  P_28 
DOCKED: REMARK   20  A    between atoms: P_28  and  O_30 
DOCKED: REMARK   21  A    between atoms: P_28  and  O_31 
DOCKED: REMARK   22  A    between atoms: O_32  and  P_33 
DOCKED: REMARK   23  A    between atoms: P_33  and  O_35 
DOCKED: REMARK   24  A    between atoms: P_33  and  O_36 
DOCKED: USER                              x       y       z     vdW  Elec       q    Type
DOCKED: USER                           _______ _______ _______ _____ _____    ______ ____
DOCKED: ROOT
DOCKED: ATOM      1  C   UNL d   1      39.199  28.836  37.464 -0.00 +0.04    +0.194 C 
DOCKED: ATOM      2  C   UNL d   1      38.276  27.791  36.835 -0.02 +0.06    +0.194 C 
DOCKED: ATOM      3  C   UNL d   1      38.521  27.651  35.331 -0.07 +0.07    +0.194 C 
DOCKED: ATOM      4  C   UNL d   1      39.987  27.412  34.980 -0.05 +0.05    +0.194 C 
DOCKED: ATOM      5  C   UNL d   1      40.955  28.360  35.676 -0.02 +0.03    +0.194 C 
DOCKED: ATOM      6  C   UNL d   1      40.672  28.548  37.168 -0.00 +0.03    +0.194 C 
DOCKED: ENDROOT
DOCKED: BRANCH   1   7
DOCKED: ATOM      7  O   UNL d   1      39.031  28.783  38.882 +0.00 -0.04    -0.278 OA
DOCKED: BRANCH   7   8
DOCKED: ATOM      8  P   UNL d   1      37.794  29.559  39.530 +0.01 +0.07    +0.473 P 
DOCKED: ATOM      9  O   UNL d   1      36.869  30.197  38.554 +0.00 -0.05    -0.228 OA
DOCKED: BRANCH   8  10
DOCKED: ATOM     10  O   UNL d   1      37.084  28.461  40.443 +0.00 -0.04    -0.303 OA
DOCKED: ATOM     11  H   UNL d   1      36.563  27.856  39.882 +0.00 +0.04    +0.222 HD
DOCKED: ENDBRANCH   8  10
DOCKED: BRANCH   8  12
DOCKED: ATOM     12  O   UNL d   1      38.436  30.528  40.614 +0.00 -0.03    -0.303 OA
DOCKED: ATOM     13  H   UNL d   1      38.722  31.391  40.238 +0.00 +0.02    +0.222 HD
DOCKED: ENDBRANCH   8  12
DOCKED: ENDBRANCH   7   8
DOCKED: ENDBRANCH   1   7
DOCKED: BRANCH   2  14
DOCKED: ATOM     14  O   UNL d   1      38.515  26.522  37.456 -0.01 -0.06    -0.278 OA
DOCKED: BRANCH  14  15
DOCKED: ATOM     15  P   UNL d   1      37.370  25.977  38.433 +0.01 +0.09    +0.473 P 
DOCKED: ATOM     16  O   UNL d   1      35.993  26.525  38.227 -0.00 -0.06    -0.228 OA
DOCKED: BRANCH  15  17
DOCKED: ATOM     17  O   UNL d   1      37.436  24.394  38.262 +0.00 -0.04    -0.303 OA
DOCKED: ATOM     18  H   UNL d   1      36.800  24.087  37.587 +0.01 +0.04    +0.222 HD
DOCKED: ENDBRANCH  15  17
DOCKED: BRANCH  15  19
DOCKED: ATOM     19  O   UNL d   1      37.971  26.165  39.894 +0.00 -0.04    -0.303 OA
DOCKED: ATOM     20  H   UNL d   1      38.456  27.007  39.978 +0.00 +0.03    +0.222 HD
DOCKED: ENDBRANCH  15  19
DOCKED: ENDBRANCH  14  15
DOCKED: ENDBRANCH   2  14
DOCKED: BRANCH   6  21
DOCKED: ATOM     21  O   UNL d   1      41.414  29.691  37.588 -0.00 -0.04    -0.278 OA
DOCKED: BRANCH  21  22
DOCKED: ATOM     22  P   UNL d   1      40.809  31.151  37.372 +0.00 +0.06    +0.473 P 
DOCKED: ATOM     23  O   UNL d   1      39.757  31.331  36.330 -0.00 -0.04    -0.228 OA
DOCKED: BRANCH  22  24
DOCKED: ATOM     24  O   UNL d   1      40.359  31.539  38.848 +0.00 -0.03    -0.303 OA
DOCKED: ATOM     25  H   UNL d   1      39.985  30.729  39.279 +0.00 +0.03    +0.222 HD
DOCKED: ENDBRANCH  22  24
DOCKED: BRANCH  22  26
DOCKED: ATOM     26  O   UNL d   1      42.137  32.030  37.189 +0.00 -0.03    -0.303 OA
DOCKED: ATOM     27  H   UNL d   1      42.921  31.451  37.277 +0.00 +0.02    +0.222 HD
DOCKED: ENDBRANCH  22  26
DOCKED: ENDBRANCH  21  22
DOCKED: ENDBRANCH   6  21
DOCKED: BRANCH   3  28
DOCKED: ATOM     28  O   UNL d   1      37.833  26.487  34.891 -0.04 -0.12    -0.278 OA
DOCKED: BRANCH  28  29
DOCKED: ATOM     29  P   UNL d   1      36.245  26.408  34.983 -0.11 +0.35    +0.473 P 
DOCKED: ATOM     30  O   UNL d   1      35.569  27.640  35.466 -0.47 -0.33    -0.228 OA
DOCKED: BRANCH  29  31
DOCKED: ATOM     31  O   UNL d   1      35.903  25.927  33.496 -0.19 -0.19    -0.303 OA
DOCKED: ATOM     32  H   UNL d   1      35.076  25.391  33.521 -0.47 +0.05    +0.222 HD
DOCKED: ENDBRANCH  29  31
DOCKED: BRANCH  29  33
DOCKED: ATOM     33  O   UNL d   1      36.025  25.084  35.840 -0.07 -0.11    -0.303 OA
DOCKED: ATOM     34  H   UNL d   1      36.635  25.100  36.618 +0.03 +0.06    +0.222 HD
DOCKED: ENDBRANCH  29  33
DOCKED: ENDBRANCH  28  29
DOCKED: ENDBRANCH   3  28
DOCKED: BRANCH   5  35
DOCKED: ATOM     35  O   UNL d   1      42.240  27.752  35.566 -0.01 -0.04    -0.278 OA
DOCKED: BRANCH  35  36
DOCKED: ATOM     36  P   UNL d   1      43.474  28.578  34.984 -0.00 +0.06    +0.473 P 
DOCKED: ATOM     37  O   UNL d   1      44.780  27.850  34.952 -0.00 -0.03    -0.228 OA
DOCKED: BRANCH  36  38
DOCKED: ATOM     38  O   UNL d   1      42.930  29.010  33.550 -0.01 -0.05    -0.303 OA
DOCKED: ATOM     39  H   UNL d   1      41.950  28.971  33.554 +0.03 +0.04    +0.222 HD
DOCKED: ENDBRANCH  36  38
DOCKED: BRANCH  36  40
DOCKED: ATOM     40  O   UNL d   1      43.416  29.921  35.835 -0.00 -0.04    -0.303 OA
DOCKED: ATOM     41  H   UNL d   1      42.504  30.285  35.879 +0.00 +0.03    +0.222 HD
DOCKED: ENDBRANCH  36  40
DOCKED: ENDBRANCH  35  36
DOCKED: ENDBRANCH   5  35
DOCKED: BRANCH   4  42
DOCKED: ATOM     42  O   UNL d   1      40.118  27.636  33.572 -0.08 -0.08    -0.278 OA
DOCKED: BRANCH  42  43
DOCKED: ATOM     43  P   UNL d   1      39.957  29.120  33.009 -0.10 +0.12    +0.473 P 
DOCKED: ATOM     44  O   UNL d   1      40.171  30.244  33.963 -0.03 -0.05    -0.228 OA
DOCKED: BRANCH  43  45
DOCKED: ATOM     45  O   UNL d   1      40.945  29.128  31.761 -0.13 -0.06    -0.303 OA
DOCKED: ATOM     46  H   UNL d   1      41.736  29.676  31.934 +0.05 +0.04    +0.222 HD
DOCKED: ENDBRANCH  43  45
DOCKED: BRANCH  43  47
DOCKED: ATOM     47  O   UNL d   1      38.525  29.086  32.290 -0.24 -0.12    -0.303 OA
DOCKED: ATOM     48  H   UNL d   1      38.583  28.539  31.479 -0.21 +0.07    +0.222 HD
DOCKED: ENDBRANCH  43  47
DOCKED: ENDBRANCH  42  43
DOCKED: ENDBRANCH   4  42
DOCKED: TORSDOF 24
DOCKED: TER
DOCKED: ENDMDL
________________________________________________________________________________


	BEGINNING GENETIC ALGORITHM DOCKING 68 of 100
Run: 68 Seed: 52720825 1292861750 [ Run 68 of 100 GA/GALS ]
Beginning LAMARCKIAN GENETIC ALGORITHM (LGA), with a maximum of 25000000 energy evaluations.

Final-Value: -18.768


	FINAL GENETIC ALGORITHM DOCKED STATE
	_______________________________________________


Detailed state:  trans 20.045 25.459 -10.585 quatxyzw -0.445725 -0.274959 0.714861 -0.463357 center 0.035 0.082 -0.065 ntor 24 67.7190 142.2681 179.2825 93.2613 156.2021 77.9682 -80.2438 -24.3496 82.8974 81.5130 172.1961 150.5407 -18.0391 99.2852 -140.3897 8.6872 108.6962 39.4797 44.0825 -9.7530 3.3893 -16.3398 -10.7490 -4.2018
State:	 20.045  25.459 -10.585  -0.503 -0.310  0.807 -124.792     67.72  142.27  179.28   93.26  156.20   77.97  -80.24  -24.35   82.90   81.51  172.20  150.54  -18.04   99.29 -140.39    8.69  108.70   39.48   44.08   -9.75    3.39  -16.34  -10.75   -4.20

DOCKED: MODEL       68
DOCKED: USER    Run = 68
DOCKED: USER    DPF = D:/Protein_go_brrr/autodock/final/2DN3/IHP/dock.dpf
DOCKED: USER  
DOCKED: USER    Estimated Free Energy of Binding    =   +2.37 kcal/mol  [=(1)+(2)+(3)-(4)]
DOCKED: USER    
DOCKED: USER    (1) Final Intermolecular Energy     =   -4.79 kcal/mol
DOCKED: USER        vdW + Hbond + desolv Energy     =   -4.49 kcal/mol
DOCKED: USER        Electrostatic Energy            =   -0.30 kcal/mol
DOCKED: USER    (2) Final Total Internal Energy     =  -13.98 kcal/mol
DOCKED: USER    (3) Torsional Free Energy           =   +7.16 kcal/mol
DOCKED: USER    (4) Unbound System's Energy  [=(2)] =  -13.98 kcal/mol
DOCKED: USER    
DOCKED: USER    
DOCKED: USER    NEWDPF move IHP_ideal_opt.pdbqt
DOCKED: USER    NEWDPF about 0.035000 0.082000 -0.065000
DOCKED: USER    NEWDPF tran0 20.044551 25.458835 -10.585304
DOCKED: USER    NEWDPF quaternion0 -0.445725 -0.274959 0.714861 -0.463357
DOCKED: USER    NEWDPF axisangle0 -0.502978 -0.310278 0.806685 -124.792063
DOCKED: USER    NEWDPF quat0 -0.502978 -0.310278 0.806685 -124.792063
DOCKED: USER    NEWDPF dihe0 67.72 142.27 179.28 93.26 156.20 77.97 -80.24 -24.35 82.90 81.51 172.20 150.54 -18.04 99.29 -140.39 8.69 108.70 39.48 44.08 -9.75 3.39 -16.34 -10.75 -4.20 
DOCKED: USER  keepresnum = 1 
DOCKED: USER  
DOCKED: REMARK  24 active torsions:
DOCKED: REMARK  status: ('A' for Active; 'I' for Inactive)
DOCKED: REMARK    1  A    between atoms: C_1  and  O_7 
DOCKED: REMARK    2  A    between atoms: C_2  and  O_12 
DOCKED: REMARK    3  A    between atoms: C_3  and  O_17 
DOCKED: REMARK    4  A    between atoms: C_4  and  O_22 
DOCKED: REMARK    5  A    between atoms: C_5  and  O_27 
DOCKED: REMARK    6  A    between atoms: C_6  and  O_32 
DOCKED: REMARK    7  A    between atoms: O_7  and  P_8 
DOCKED: REMARK    8  A    between atoms: P_8  and  O_10 
DOCKED: REMARK    9  A    between atoms: P_8  and  O_11 
DOCKED: REMARK   10  A    between atoms: O_12  and  P_13 
DOCKED: REMARK   11  A    between atoms: P_13  and  O_15 
DOCKED: REMARK   12  A    between atoms: P_13  and  O_16 
DOCKED: REMARK   13  A    between atoms: O_17  and  P_18 
DOCKED: REMARK   14  A    between atoms: P_18  and  O_20 
DOCKED: REMARK   15  A    between atoms: P_18  and  O_21 
DOCKED: REMARK   16  A    between atoms: O_22  and  P_23 
DOCKED: REMARK   17  A    between atoms: P_23  and  O_25 
DOCKED: REMARK   18  A    between atoms: P_23  and  O_26 
DOCKED: REMARK   19  A    between atoms: O_27  and  P_28 
DOCKED: REMARK   20  A    between atoms: P_28  and  O_30 
DOCKED: REMARK   21  A    between atoms: P_28  and  O_31 
DOCKED: REMARK   22  A    between atoms: O_32  and  P_33 
DOCKED: REMARK   23  A    between atoms: P_33  and  O_35 
DOCKED: REMARK   24  A    between atoms: P_33  and  O_36 
DOCKED: USER                              x       y       z     vdW  Elec       q    Type
DOCKED: USER                           _______ _______ _______ _____ _____    ______ ____
DOCKED: ROOT
DOCKED: ATOM      1  C   UNL d   1      19.492  26.984  -9.992 -0.15 -0.05    +0.194 C 
DOCKED: ATOM      2  C   UNL d   1      20.373  26.181  -9.033 -0.19 -0.06    +0.194 C 
DOCKED: ATOM      3  C   UNL d   1      19.993  24.699  -9.020 -0.15 -0.05    +0.194 C 
DOCKED: ATOM      4  C   UNL d   1      19.942  24.079 -10.414 -0.13 -0.04    +0.194 C 
DOCKED: ATOM      5  C   UNL d   1      19.169  24.906 -11.433 -0.10 -0.04    +0.194 C 
DOCKED: ATOM      6  C   UNL d   1      19.506  26.398 -11.404 -0.09 -0.04    +0.194 C 
DOCKED: ENDROOT
DOCKED: BRANCH   1   7
DOCKED: ATOM      7  O   UNL d   1      20.019  28.311 -10.076 -0.12 +0.09    -0.278 OA
DOCKED: BRANCH   7   8
DOCKED: ATOM      8  P   UNL d   1      19.704  29.329  -8.886 -0.26 -0.26    +0.473 P 
DOCKED: ATOM      9  O   UNL d   1      19.609  28.711  -7.535 -0.22 +0.16    -0.228 OA
DOCKED: BRANCH   8  10
DOCKED: ATOM     10  O   UNL d   1      20.861  30.422  -8.996 -0.15 +0.22    -0.303 OA
DOCKED: ATOM     11  H   UNL d   1      21.623  30.148  -8.451 -0.49 -0.31    +0.222 HD
DOCKED: ENDBRANCH   8  10
DOCKED: BRANCH   8  12
DOCKED: ATOM     12  O   UNL d   1      18.429  30.145  -9.367 -0.34 +0.13    -0.303 OA
DOCKED: ATOM     13  H   UNL d   1      17.585  29.790  -9.007 -0.35 -0.16    +0.222 HD
DOCKED: ENDBRANCH   8  12
DOCKED: ENDBRANCH   7   8
DOCKED: ENDBRANCH   1   7
DOCKED: BRANCH   2  14
DOCKED: ATOM     14  O   UNL d   1      21.741  26.298  -9.446 -0.05 +0.08    -0.278 OA
DOCKED: BRANCH  14  15
DOCKED: ATOM     15  P   UNL d   1      22.765  26.899  -8.372 -0.05 -0.25    +0.473 P 
DOCKED: ATOM     16  O   UNL d   1      24.202  26.509  -8.522 -0.02 +0.08    -0.228 OA
DOCKED: BRANCH  15  17
DOCKED: ATOM     17  O   UNL d   1      22.540  28.474  -8.461 -0.03 +0.32    -0.303 OA
DOCKED: ATOM     18  H   UNL d   1      21.780  28.752  -7.915 -0.31 -0.40    +0.222 HD
DOCKED: ENDBRANCH  15  17
DOCKED: BRANCH  15  19
DOCKED: ATOM     19  O   UNL d   1      22.106  26.562  -6.964 -0.15 +0.20    -0.303 OA
DOCKED: ATOM     20  H   UNL d   1      21.623  25.715  -6.985 +0.08 -0.09    +0.222 HD
DOCKED: ENDBRANCH  15  19
DOCKED: ENDBRANCH  14  15
DOCKED: ENDBRANCH   2  14
DOCKED: BRANCH   6  21
DOCKED: ATOM     21  O   UNL d   1      18.485  27.065 -12.143 -0.07 +0.05    -0.278 OA
DOCKED: BRANCH  21  22
DOCKED: ATOM     22  P   UNL d   1      18.750  27.482 -13.660 -0.00 -0.05    +0.473 P 
DOCKED: ATOM     23  O   UNL d   1      18.889  28.933 -13.978 -0.03 +0.02    -0.228 OA
DOCKED: BRANCH  22  24
DOCKED: ATOM     24  O   UNL d   1      20.019  26.594 -14.025 -0.00 +0.03    -0.303 OA
DOCKED: ATOM     25  H   UNL d   1      19.697  25.730 -14.386 +0.01 -0.02    +0.222 HD
DOCKED: ENDBRANCH  22  24
DOCKED: BRANCH  22  26
DOCKED: ATOM     26  O   UNL d   1      17.573  26.705 -14.422 -0.01 +0.04    -0.303 OA
DOCKED: ATOM     27  H   UNL d   1      17.917  25.855 -14.765 +0.02 -0.02    +0.222 HD
DOCKED: ENDBRANCH  22  26
DOCKED: ENDBRANCH  21  22
DOCKED: ENDBRANCH   6  21
DOCKED: BRANCH   3  28
DOCKED: ATOM     28  O   UNL d   1      21.021  23.999  -8.332 -0.11 +0.07    -0.278 OA
DOCKED: BRANCH  28  29
DOCKED: ATOM     29  P   UNL d   1      20.885  23.696  -6.774 -0.15 -0.12    +0.473 P 
DOCKED: ATOM     30  O   UNL d   1      19.874  24.508  -6.050 -0.18 +0.05    -0.228 OA
DOCKED: BRANCH  29  31
DOCKED: ATOM     31  O   UNL d   1      20.652  22.113  -6.817 -0.17 +0.11    -0.303 OA
DOCKED: ATOM     32  H   UNL d   1      20.214  21.884  -7.669 -0.23 -0.13    +0.222 HD
DOCKED: ENDBRANCH  29  31
DOCKED: BRANCH  29  33
DOCKED: ATOM     33  O   UNL d   1      22.393  23.815  -6.278 -0.04 +0.07    -0.303 OA
DOCKED: ATOM     34  H   UNL d   1      22.849  24.521  -6.800 +0.05 -0.06    +0.222 HD
DOCKED: ENDBRANCH  29  33
DOCKED: ENDBRANCH  28  29
DOCKED: ENDBRANCH   3  28
DOCKED: BRANCH   5  35
DOCKED: ATOM     35  O   UNL d   1      19.564  24.412 -12.712 -0.02 +0.04    -0.278 OA
DOCKED: BRANCH  35  36
DOCKED: ATOM     36  P   UNL d   1      18.480  23.791 -13.704 +0.00 -0.07    +0.473 P 
DOCKED: ATOM     37  O   UNL d   1      18.811  23.884 -15.160 -0.00 +0.02    -0.228 OA
DOCKED: BRANCH  36  38
DOCKED: ATOM     38  O   UNL d   1      18.350  22.302 -13.156 -0.01 +0.06    -0.303 OA
DOCKED: ATOM     39  H   UNL d   1      18.786  22.244 -12.278 +0.03 -0.05    +0.222 HD
DOCKED: ENDBRANCH  36  38
DOCKED: BRANCH  36  40
DOCKED: ATOM     40  O   UNL d   1      17.137  24.495 -13.223 -0.02 +0.06    -0.303 OA
DOCKED: ATOM     41  H   UNL d   1      17.282  25.440 -12.997 +0.05 -0.04    +0.222 HD
DOCKED: ENDBRANCH  36  40
DOCKED: ENDBRANCH  35  36
DOCKED: ENDBRANCH   5  35
DOCKED: BRANCH   4  42
DOCKED: ATOM     42  O   UNL d   1      19.263  22.826 -10.286 -0.15 +0.10    -0.278 OA
DOCKED: BRANCH  42  43
DOCKED: ATOM     43  P   UNL d   1      20.065  21.480 -10.586 -0.05 -0.17    +0.473 P 
DOCKED: ATOM     44  O   UNL d   1      20.862  20.892  -9.473 -0.08 +0.09    -0.228 OA
DOCKED: BRANCH  43  45
DOCKED: ATOM     45  O   UNL d   1      18.931  20.517 -11.153 -0.07 +0.14    -0.303 OA
DOCKED: ATOM     46  H   UNL d   1      18.946  20.484 -12.130 +0.03 -0.07    +0.222 HD
DOCKED: ENDBRANCH  43  45
DOCKED: BRANCH  43  47
DOCKED: ATOM     47  O   UNL d   1      20.888  21.832 -11.915 -0.01 +0.06    -0.303 OA
DOCKED: ATOM     48  H   UNL d   1      20.380  22.481 -12.446 +0.02 -0.04    +0.222 HD
DOCKED: ENDBRANCH  43  47
DOCKED: ENDBRANCH  42  43
DOCKED: ENDBRANCH   4  42
DOCKED: TORSDOF 24
DOCKED: TER
DOCKED: ENDMDL
________________________________________________________________________________


	BEGINNING GENETIC ALGORITHM DOCKING 69 of 100
Run: 69 Seed: 45486402 1525510896 [ Run 69 of 100 GA/GALS ]
Beginning LAMARCKIAN GENETIC ALGORITHM (LGA), with a maximum of 25000000 energy evaluations.

Final-Value: -15.808


	FINAL GENETIC ALGORITHM DOCKED STATE
	_______________________________________________


Detailed state:  trans 16.528 43.471 28.646 quatxyzw -0.285194 -0.839604 0.319657 -0.333989 center 0.035 0.082 -0.065 ntor 24 144.0271 148.6453 -165.9190 55.0145 31.4444 -102.1314 -61.3210 -35.4987 169.4079 -8.8210 62.9463 -4.2249 125.4233 91.5213 -4.3861 -179.4883 180.0000 -93.0170 29.5174 -34.1835 -44.9177 -27.9557 25.9216 -180.0000
State:	 16.528  43.471  28.646  -0.303 -0.891  0.339 -140.978    144.03  148.65 -165.92   55.01   31.44 -102.13  -61.32  -35.50  169.41   -8.82   62.95   -4.22  125.42   91.52   -4.39 -179.49  180.00  -93.02   29.52  -34.18  -44.92  -27.96   25.92 -180.00

DOCKED: MODEL       69
DOCKED: USER    Run = 69
DOCKED: USER    DPF = D:/Protein_go_brrr/autodock/final/2DN3/IHP/dock.dpf
DOCKED: USER  
DOCKED: USER    Estimated Free Energy of Binding    =   +4.46 kcal/mol  [=(1)+(2)+(3)-(4)]
DOCKED: USER    
DOCKED: USER    (1) Final Intermolecular Energy     =   -2.70 kcal/mol
DOCKED: USER        vdW + Hbond + desolv Energy     =   -2.55 kcal/mol
DOCKED: USER        Electrostatic Energy            =   -0.15 kcal/mol
DOCKED: USER    (2) Final Total Internal Energy     =  -13.11 kcal/mol
DOCKED: USER    (3) Torsional Free Energy           =   +7.16 kcal/mol
DOCKED: USER    (4) Unbound System's Energy  [=(2)] =  -13.11 kcal/mol
DOCKED: USER    
DOCKED: USER    
DOCKED: USER    NEWDPF move IHP_ideal_opt.pdbqt
DOCKED: USER    NEWDPF about 0.035000 0.082000 -0.065000
DOCKED: USER    NEWDPF tran0 16.527574 43.471314 28.645562
DOCKED: USER    NEWDPF quaternion0 -0.285194 -0.839604 0.319657 -0.333989
DOCKED: USER    NEWDPF axisangle0 -0.302569 -0.890754 0.339131 -140.977911
DOCKED: USER    NEWDPF quat0 -0.302569 -0.890754 0.339131 -140.977911
DOCKED: USER    NEWDPF dihe0 144.03 148.65 -165.92 55.01 31.44 -102.13 -61.32 -35.50 169.41 -8.82 62.95 -4.22 125.42 91.52 -4.39 -179.49 180.00 -93.02 29.52 -34.18 -44.92 -27.96 25.92 -180.00 
DOCKED: USER  keepresnum = 1 
DOCKED: USER  
DOCKED: REMARK  24 active torsions:
DOCKED: REMARK  status: ('A' for Active; 'I' for Inactive)
DOCKED: REMARK    1  A    between atoms: C_1  and  O_7 
DOCKED: REMARK    2  A    between atoms: C_2  and  O_12 
DOCKED: REMARK    3  A    between atoms: C_3  and  O_17 
DOCKED: REMARK    4  A    between atoms: C_4  and  O_22 
DOCKED: REMARK    5  A    between atoms: C_5  and  O_27 
DOCKED: REMARK    6  A    between atoms: C_6  and  O_32 
DOCKED: REMARK    7  A    between atoms: O_7  and  P_8 
DOCKED: REMARK    8  A    between atoms: P_8  and  O_10 
DOCKED: REMARK    9  A    between atoms: P_8  and  O_11 
DOCKED: REMARK   10  A    between atoms: O_12  and  P_13 
DOCKED: REMARK   11  A    between atoms: P_13  and  O_15 
DOCKED: REMARK   12  A    between atoms: P_13  and  O_16 
DOCKED: REMARK   13  A    between atoms: O_17  and  P_18 
DOCKED: REMARK   14  A    between atoms: P_18  and  O_20 
DOCKED: REMARK   15  A    between atoms: P_18  and  O_21 
DOCKED: REMARK   16  A    between atoms: O_22  and  P_23 
DOCKED: REMARK   17  A    between atoms: P_23  and  O_25 
DOCKED: REMARK   18  A    between atoms: P_23  and  O_26 
DOCKED: REMARK   19  A    between atoms: O_27  and  P_28 
DOCKED: REMARK   20  A    between atoms: P_28  and  O_30 
DOCKED: REMARK   21  A    between atoms: P_28  and  O_31 
DOCKED: REMARK   22  A    between atoms: O_32  and  P_33 
DOCKED: REMARK   23  A    between atoms: P_33  and  O_35 
DOCKED: REMARK   24  A    between atoms: P_33  and  O_36 
DOCKED: USER                              x       y       z     vdW  Elec       q    Type
DOCKED: USER                           _______ _______ _______ _____ _____    ______ ____
DOCKED: ROOT
DOCKED: ATOM      1  C   UNL d   1      14.934  43.503  29.313 -0.01 -0.01    +0.194 C 
DOCKED: ATOM      2  C   UNL d   1      15.762  42.258  29.636 -0.01 -0.01    +0.194 C 
DOCKED: ATOM      3  C   UNL d   1      16.520  41.747  28.409 -0.04 -0.02    +0.194 C 
DOCKED: ATOM      4  C   UNL d   1      17.349  42.828  27.722 -0.07 -0.02    +0.194 C 
DOCKED: ATOM      5  C   UNL d   1      16.596  44.130  27.483 -0.05 -0.01    +0.194 C 
DOCKED: ATOM      6  C   UNL d   1      15.788  44.609  28.691 -0.01 -0.01    +0.194 C 
DOCKED: ENDROOT
DOCKED: BRANCH   1   7
DOCKED: ATOM      7  O   UNL d   1      14.401  44.014  30.536 -0.00 +0.01    -0.278 OA
DOCKED: BRANCH   7   8
DOCKED: ATOM      8  P   UNL d   1      12.943  43.540  30.986 +0.00 -0.02    +0.473 P 
DOCKED: ATOM      9  O   UNL d   1      12.487  44.062  32.303 +0.00 +0.01    -0.228 OA
DOCKED: BRANCH   8  10
DOCKED: ATOM     10  O   UNL d   1      12.002  43.982  29.775 -0.00 +0.02    -0.303 OA
DOCKED: ATOM     11  H   UNL d   1      12.484  44.601  29.196 +0.00 -0.01    +0.222 HD
DOCKED: ENDBRANCH   8  10
DOCKED: BRANCH   8  12
DOCKED: ATOM     12  O   UNL d   1      12.958  41.958  30.834 +0.00 +0.02    -0.303 OA
DOCKED: ATOM     13  H   UNL d   1      13.044  41.489  31.695 +0.00 -0.01    +0.222 HD
DOCKED: ENDBRANCH   8  12
DOCKED: ENDBRANCH   7   8
DOCKED: ENDBRANCH   1   7
DOCKED: BRANCH   2  14
DOCKED: ATOM     14  O   UNL d   1      16.713  42.581  30.658 -0.00 +0.01    -0.278 OA
DOCKED: BRANCH  14  15
DOCKED: ATOM     15  P   UNL d   1      16.307  42.201  32.160 +0.00 -0.01    +0.473 P 
DOCKED: ATOM     16  O   UNL d   1      17.421  41.805  33.077 -0.00 +0.00    -0.228 OA
DOCKED: BRANCH  15  17
DOCKED: ATOM     17  O   UNL d   1      15.504  43.476  32.679 +0.00 +0.01    -0.303 OA
DOCKED: ATOM     18  H   UNL d   1      14.540  43.336  32.610 +0.00 -0.01    +0.222 HD
DOCKED: ENDBRANCH  15  17
DOCKED: BRANCH  15  19
DOCKED: ATOM     19  O   UNL d   1      15.139  41.133  31.997 +0.00 +0.01    -0.303 OA
DOCKED: ATOM     20  H   UNL d   1      14.890  41.011  31.062 +0.01 -0.01    +0.222 HD
DOCKED: ENDBRANCH  15  19
DOCKED: ENDBRANCH  14  15
DOCKED: ENDBRANCH   2  14
DOCKED: BRANCH   6  21
DOCKED: ATOM     21  O   UNL d   1      14.892  45.612  28.216 -0.01 +0.02    -0.278 OA
DOCKED: BRANCH  21  22
DOCKED: ATOM     22  P   UNL d   1      14.489  46.827  29.168 -0.00 -0.02    +0.473 P 
DOCKED: ATOM     23  O   UNL d   1      15.439  47.223  30.247 -0.00 +0.01    -0.228 OA
DOCKED: BRANCH  22  24
DOCKED: ATOM     24  O   UNL d   1      14.164  47.973  28.112 -0.00 +0.01    -0.303 OA
DOCKED: ATOM     25  H   UNL d   1      14.779  47.867  27.342 +0.01 -0.01    +0.222 HD
DOCKED: ENDBRANCH  22  24
DOCKED: BRANCH  22  26
DOCKED: ATOM     26  O   UNL d   1      13.022  46.392  29.647 +0.00 +0.01    -0.303 OA
DOCKED: ATOM     27  H   UNL d   1      13.100  45.781  30.407 +0.00 -0.01    +0.222 HD
DOCKED: ENDBRANCH  22  26
DOCKED: ENDBRANCH  21  22
DOCKED: ENDBRANCH   6  21
DOCKED: BRANCH   3  28
DOCKED: ATOM     28  O   UNL d   1      17.460  40.779  28.859 -0.05 +0.01    -0.278 OA
DOCKED: BRANCH  28  29
DOCKED: ATOM     29  P   UNL d   1      17.006  39.274  29.112 -0.11 -0.00    +0.473 P 
DOCKED: ATOM     30  O   UNL d   1      18.080  38.253  28.999 -0.73 -0.06    -0.228 OA
DOCKED: BRANCH  29  31
DOCKED: ATOM     31  O   UNL d   1      16.302  39.431  30.540 -0.02 +0.01    -0.303 OA
DOCKED: ATOM     32  H   UNL d   1      16.495  40.332  30.889 +0.02 -0.01    +0.222 HD
DOCKED: ENDBRANCH  29  31
DOCKED: BRANCH  29  33
DOCKED: ATOM     33  O   UNL d   1      15.767  39.128  28.123 -0.14 +0.05    -0.303 OA
DOCKED: ATOM     34  H   UNL d   1      15.854  39.794  27.399 +0.09 -0.04    +0.222 HD
DOCKED: ENDBRANCH  29  33
DOCKED: ENDBRANCH  28  29
DOCKED: ENDBRANCH   3  28
DOCKED: BRANCH   5  35
DOCKED: ATOM     35  O   UNL d   1      17.596  45.115  27.229 -0.07 +0.02    -0.278 OA
DOCKED: BRANCH  35  36
DOCKED: ATOM     36  P   UNL d   1      17.236  46.434  26.407 -0.06 -0.03    +0.473 P 
DOCKED: ATOM     37  O   UNL d   1      18.229  46.834  25.363 -0.20 +0.01    -0.228 OA
DOCKED: BRANCH  36  38
DOCKED: ATOM     38  O   UNL d   1      15.793  46.078  25.835 -0.04 +0.02    -0.303 OA
DOCKED: ATOM     39  H   UNL d   1      15.110  46.501  26.399 +0.02 -0.02    +0.222 HD
DOCKED: ENDBRANCH  36  38
DOCKED: BRANCH  36  40
DOCKED: ATOM     40  O   UNL d   1      16.941  47.485  27.563 -0.02 +0.02    -0.303 OA
DOCKED: ATOM     41  H   UNL d   1      16.305  47.131  28.224 +0.01 -0.01    +0.222 HD
DOCKED: ENDBRANCH  36  40
DOCKED: ENDBRANCH  35  36
DOCKED: ENDBRANCH   5  35
DOCKED: BRANCH   4  42
DOCKED: ATOM     42  O   UNL d   1      17.719  42.313  26.438 -0.11 +0.03    -0.278 OA
DOCKED: BRANCH  42  43
DOCKED: ATOM     43  P   UNL d   1      16.586  42.114  25.332 -0.14 -0.10    +0.473 P 
DOCKED: ATOM     44  O   UNL d   1      15.331  41.431  25.750 -0.18 +0.06    -0.228 OA
DOCKED: BRANCH  43  45
DOCKED: ATOM     45  O   UNL d   1      16.371  43.593  24.783 -0.10 +0.04    -0.303 OA
DOCKED: ATOM     46  H   UNL d   1      16.834  44.251  25.338 +0.08 -0.02    +0.222 HD
DOCKED: ENDBRANCH  43  45
DOCKED: BRANCH  43  47
DOCKED: ATOM     47  O   UNL d   1      17.376  41.428  24.118 -0.26 +0.13    -0.303 OA
DOCKED: ATOM     48  H   UNL d   1      16.740  41.188  23.413 -0.38 -0.21    +0.222 HD
DOCKED: ENDBRANCH  43  47
DOCKED: ENDBRANCH  42  43
DOCKED: ENDBRANCH   4  42
DOCKED: TORSDOF 24
DOCKED: TER
DOCKED: ENDMDL
________________________________________________________________________________


	BEGINNING GENETIC ALGORITHM DOCKING 70 of 100
Run: 70 Seed: 2026859497 1147143095 [ Run 70 of 100 GA/GALS ]
Beginning LAMARCKIAN GENETIC ALGORITHM (LGA), with a maximum of 25000000 energy evaluations.

Final-Value: -13.745


	FINAL GENETIC ALGORITHM DOCKED STATE
	_______________________________________________


Detailed state:  trans 36.037 47.930 -7.265 quatxyzw 0.214323 -0.654830 0.724639 0.012706 center 0.035 0.082 -0.065 ntor 24 -84.2106 22.7300 -153.3134 9.8174 39.4606 120.3658 11.8523 -138.0540 42.5046 79.9586 96.0319 101.9360 -179.2611 47.1448 153.5053 -125.0465 -80.1289 50.6545 63.5004 11.8692 -9.9099 34.6888 175.6823 -174.0168
State:	 36.037  47.930  -7.265   0.214 -0.655  0.725 178.544    -84.21   22.73 -153.31    9.82   39.46  120.37   11.85 -138.05   42.50   79.96   96.03  101.94 -179.26   47.14  153.51 -125.05  -80.13   50.65   63.50   11.87   -9.91   34.69  175.68 -174.02

DOCKED: MODEL       70
DOCKED: USER    Run = 70
DOCKED: USER    DPF = D:/Protein_go_brrr/autodock/final/2DN3/IHP/dock.dpf
DOCKED: USER  
DOCKED: USER    Estimated Free Energy of Binding    =   +6.75 kcal/mol  [=(1)+(2)+(3)-(4)]
DOCKED: USER    
DOCKED: USER    (1) Final Intermolecular Energy     =   -0.40 kcal/mol
DOCKED: USER        vdW + Hbond + desolv Energy     =   -0.40 kcal/mol
DOCKED: USER        Electrostatic Energy            =   -0.01 kcal/mol
DOCKED: USER    (2) Final Total Internal Energy     =  -13.34 kcal/mol
DOCKED: USER    (3) Torsional Free Energy           =   +7.16 kcal/mol
DOCKED: USER    (4) Unbound System's Energy  [=(2)] =  -13.34 kcal/mol
DOCKED: USER    
DOCKED: USER    
DOCKED: USER    NEWDPF move IHP_ideal_opt.pdbqt
DOCKED: USER    NEWDPF about 0.035000 0.082000 -0.065000
DOCKED: USER    NEWDPF tran0 36.036752 47.929665 -7.264896
DOCKED: USER    NEWDPF quaternion0 0.214323 -0.654830 0.724639 0.012706
DOCKED: USER    NEWDPF axisangle0 0.214341 -0.654883 0.724697 178.543934
DOCKED: USER    NEWDPF quat0 0.214341 -0.654883 0.724697 178.543934
DOCKED: USER    NEWDPF dihe0 -84.21 22.73 -153.31 9.82 39.46 120.37 11.85 -138.05 42.50 79.96 96.03 101.94 -179.26 47.14 153.51 -125.05 -80.13 50.65 63.50 11.87 -9.91 34.69 175.68 -174.02 
DOCKED: USER  keepresnum = 1 
DOCKED: USER  
DOCKED: REMARK  24 active torsions:
DOCKED: REMARK  status: ('A' for Active; 'I' for Inactive)
DOCKED: REMARK    1  A    between atoms: C_1  and  O_7 
DOCKED: REMARK    2  A    between atoms: C_2  and  O_12 
DOCKED: REMARK    3  A    between atoms: C_3  and  O_17 
DOCKED: REMARK    4  A    between atoms: C_4  and  O_22 
DOCKED: REMARK    5  A    between atoms: C_5  and  O_27 
DOCKED: REMARK    6  A    between atoms: C_6  and  O_32 
DOCKED: REMARK    7  A    between atoms: O_7  and  P_8 
DOCKED: REMARK    8  A    between atoms: P_8  and  O_10 
DOCKED: REMARK    9  A    between atoms: P_8  and  O_11 
DOCKED: REMARK   10  A    between atoms: O_12  and  P_13 
DOCKED: REMARK   11  A    between atoms: P_13  and  O_15 
DOCKED: REMARK   12  A    between atoms: P_13  and  O_16 
DOCKED: REMARK   13  A    between atoms: O_17  and  P_18 
DOCKED: REMARK   14  A    between atoms: P_18  and  O_20 
DOCKED: REMARK   15  A    between atoms: P_18  and  O_21 
DOCKED: REMARK   16  A    between atoms: O_22  and  P_23 
DOCKED: REMARK   17  A    between atoms: P_23  and  O_25 
DOCKED: REMARK   18  A    between atoms: P_23  and  O_26 
DOCKED: REMARK   19  A    between atoms: O_27  and  P_28 
DOCKED: REMARK   20  A    between atoms: P_28  and  O_30 
DOCKED: REMARK   21  A    between atoms: P_28  and  O_31 
DOCKED: REMARK   22  A    between atoms: O_32  and  P_33 
DOCKED: REMARK   23  A    between atoms: P_33  and  O_35 
DOCKED: REMARK   24  A    between atoms: P_33  and  O_36 
DOCKED: USER                              x       y       z     vdW  Elec       q    Type
DOCKED: USER                           _______ _______ _______ _____ _____    ______ ____
DOCKED: ROOT
DOCKED: ATOM      1  C   UNL d   1      35.391  46.935  -6.009 -0.01 +0.03    +0.194 C 
DOCKED: ATOM      2  C   UNL d   1      36.614  47.770  -5.627 -0.01 +0.03    +0.194 C 
DOCKED: ATOM      3  C   UNL d   1      37.681  47.747  -6.724 -0.01 +0.02    +0.194 C 
DOCKED: ATOM      4  C   UNL d   1      37.136  48.117  -8.101 -0.00 +0.02    +0.194 C 
DOCKED: ATOM      5  C   UNL d   1      35.851  47.390  -8.476 +0.00 +0.02    +0.194 C 
DOCKED: ATOM      6  C   UNL d   1      34.808  47.361  -7.357 -0.00 +0.02    +0.194 C 
DOCKED: ENDROOT
DOCKED: BRANCH   1   7
DOCKED: ATOM      7  O   UNL d   1      34.380  47.147  -5.021 -0.01 -0.06    -0.278 OA
DOCKED: BRANCH   7   8
DOCKED: ATOM      8  P   UNL d   1      34.716  46.785  -3.502 -0.06 +0.19    +0.473 P 
DOCKED: ATOM      9  O   UNL d   1      33.732  45.889  -2.834 -0.09 -0.14    -0.228 OA
DOCKED: BRANCH   8  10
DOCKED: ATOM     10  O   UNL d   1      36.185  46.167  -3.567 -0.06 -0.12    -0.303 OA
DOCKED: ATOM     11  H   UNL d   1      36.796  46.722  -3.047 +0.02 +0.09    +0.222 HD
DOCKED: ENDBRANCH   8  10
DOCKED: BRANCH   8  12
DOCKED: ATOM     12  O   UNL d   1      34.974  48.183  -2.792 -0.09 -0.13    -0.303 OA
DOCKED: ATOM     13  H   UNL d   1      35.227  48.894  -3.422 +0.02 +0.06    +0.222 HD
DOCKED: ENDBRANCH   8  12
DOCKED: ENDBRANCH   7   8
DOCKED: ENDBRANCH   1   7
DOCKED: BRANCH   2  14
DOCKED: ATOM     14  O   UNL d   1      36.205  49.128  -5.417 -0.01 -0.04    -0.278 OA
DOCKED: BRANCH  14  15
DOCKED: ATOM     15  P   UNL d   1      36.946  49.925  -4.243 -0.02 +0.08    +0.473 P 
DOCKED: ATOM     16  O   UNL d   1      38.003  50.901  -4.655 -0.01 -0.03    -0.228 OA
DOCKED: BRANCH  15  17
DOCKED: ATOM     17  O   UNL d   1      35.759  50.608  -3.429 -0.03 -0.06    -0.303 OA
DOCKED: ATOM     18  H   UNL d   1      35.660  50.204  -2.546 +0.02 +0.06    +0.222 HD
DOCKED: ENDBRANCH  15  17
DOCKED: BRANCH  15  19
DOCKED: ATOM     19  O   UNL d   1      37.417  48.792  -3.230 -0.06 -0.07    -0.303 OA
DOCKED: ATOM     20  H   UNL d   1      36.688  48.184  -3.005 +0.02 +0.07    +0.222 HD
DOCKED: ENDBRANCH  15  19
DOCKED: ENDBRANCH  14  15
DOCKED: ENDBRANCH   2  14
DOCKED: BRANCH   6  21
DOCKED: ATOM     21  O   UNL d   1      33.839  46.380  -7.722 -0.00 -0.03    -0.278 OA
DOCKED: BRANCH  21  22
DOCKED: ATOM     22  P   UNL d   1      32.355  46.833  -8.094 +0.00 +0.05    +0.473 P 
DOCKED: ATOM     23  O   UNL d   1      31.349  45.773  -8.390 +0.00 -0.02    -0.228 OA
DOCKED: BRANCH  22  24
DOCKED: ATOM     24  O   UNL d   1      31.987  47.779  -6.869 -0.00 -0.04    -0.303 OA
DOCKED: ATOM     25  H   UNL d   1      32.521  47.491  -6.085 +0.01 +0.03    +0.222 HD
DOCKED: ENDBRANCH  22  24
DOCKED: BRANCH  22  26
DOCKED: ATOM     26  O   UNL d   1      32.623  47.895  -9.265 +0.00 -0.02    -0.303 OA
DOCKED: ATOM     27  H   UNL d   1      33.255  48.571  -8.947 +0.00 +0.02    +0.222 HD
DOCKED: ENDBRANCH  22  26
DOCKED: ENDBRANCH  21  22
DOCKED: ENDBRANCH   6  21
DOCKED: BRANCH   3  28
DOCKED: ATOM     28  O   UNL d   1      38.637  48.753  -6.413 -0.00 -0.03    -0.278 OA
DOCKED: BRANCH  28  29
DOCKED: ATOM     29  P   UNL d   1      40.177  48.531  -6.751 -0.00 +0.04    +0.473 P 
DOCKED: ATOM     30  O   UNL d   1      41.136  49.232  -5.860 -0.00 -0.02    -0.228 OA
DOCKED: BRANCH  29  31
DOCKED: ATOM     31  O   UNL d   1      40.233  46.932  -6.764 -0.00 -0.03    -0.303 OA
DOCKED: ATOM     32  H   UNL d   1      39.658  46.604  -7.493 +0.00 +0.02    +0.222 HD
DOCKED: ENDBRANCH  29  31
DOCKED: BRANCH  29  33
DOCKED: ATOM     33  O   UNL d   1      40.235  48.898  -8.300 +0.00 -0.02    -0.303 OA
DOCKED: ATOM     34  H   UNL d   1      39.898  48.130  -8.824 +0.00 +0.02    +0.222 HD
DOCKED: ENDBRANCH  29  33
DOCKED: ENDBRANCH  28  29
DOCKED: ENDBRANCH   3  28
DOCKED: BRANCH   5  35
DOCKED: ATOM     35  O   UNL d   1      35.288  48.132  -9.556 +0.00 -0.02    -0.278 OA
DOCKED: BRANCH  35  36
DOCKED: ATOM     36  P   UNL d   1      35.029  49.699  -9.407 +0.00 +0.04    +0.473 P 
DOCKED: ATOM     37  O   UNL d   1      34.598  50.156  -8.049 +0.00 -0.02    -0.228 OA
DOCKED: BRANCH  36  38
DOCKED: ATOM     38  O   UNL d   1      36.420  50.306  -9.891 +0.00 -0.02    -0.303 OA
DOCKED: ATOM     39  H   UNL d   1      37.133  49.655  -9.716 +0.00 +0.02    +0.222 HD
DOCKED: ENDBRANCH  36  38
DOCKED: BRANCH  36  40
DOCKED: ATOM     40  O   UNL d   1      34.040  49.997 -10.616 +0.00 -0.02    -0.303 OA
DOCKED: ATOM     41  H   UNL d   1      33.392  49.269 -10.744 +0.00 +0.01    +0.222 HD
DOCKED: ENDBRANCH  36  40
DOCKED: ENDBRANCH  35  36
DOCKED: ENDBRANCH   5  35
DOCKED: BRANCH   4  42
DOCKED: ATOM     42  O   UNL d   1      38.131  47.733  -9.057 +0.00 -0.02    -0.278 OA
DOCKED: BRANCH  42  43
DOCKED: ATOM     43  P   UNL d   1      38.311  46.187  -9.404 +0.00 +0.04    +0.473 P 
DOCKED: ATOM     44  O   UNL d   1      37.612  45.669 -10.614 +0.00 -0.02    -0.228 OA
DOCKED: BRANCH  43  45
DOCKED: ATOM     45  O   UNL d   1      39.893  46.020  -9.445 +0.00 -0.02    -0.303 OA
DOCKED: ATOM     46  H   UNL d   1      40.340  46.718  -8.926 +0.00 +0.02    +0.222 HD
DOCKED: ENDBRANCH  43  45
DOCKED: BRANCH  43  47
DOCKED: ATOM     47  O   UNL d   1      37.942  45.456  -8.026 -0.00 -0.03    -0.303 OA
DOCKED: ATOM     48  H   UNL d   1      38.708  45.508  -7.418 +0.00 +0.02    +0.222 HD
DOCKED: ENDBRANCH  43  47
DOCKED: ENDBRANCH  42  43
DOCKED: ENDBRANCH   4  42
DOCKED: TORSDOF 24
DOCKED: TER
DOCKED: ENDMDL
________________________________________________________________________________


	BEGINNING GENETIC ALGORITHM DOCKING 71 of 100
Run: 71 Seed: 220747697 237798067 [ Run 71 of 100 GA/GALS ]
Beginning LAMARCKIAN GENETIC ALGORITHM (LGA), with a maximum of 25000000 energy evaluations.

Final-Value: -17.628


	FINAL GENETIC ALGORITHM DOCKED STATE
	_______________________________________________


Detailed state:  trans 25.157 32.233 34.972 quatxyzw 0.252927 0.547084 0.588073 -0.539349 center 0.035 0.082 -0.065 ntor 24 84.1028 -178.9465 178.6488 -22.2414 160.9406 101.2180 1.0760 -60.8901 170.8036 -27.5476 64.6771 -109.7424 -75.1801 166.1903 115.9771 -48.3999 44.6393 120.8770 69.8788 22.5916 -59.7247 10.2004 -22.6397 2.0023
State:	 25.157  32.233  34.972   0.300  0.650  0.698 -114.721     84.10 -178.95  178.65  -22.24  160.94  101.22    1.08  -60.89  170.80  -27.55   64.68 -109.74  -75.18  166.19  115.98  -48.40   44.64  120.88   69.88   22.59  -59.72   10.20  -22.64    2.00

DOCKED: MODEL       71
DOCKED: USER    Run = 71
DOCKED: USER    DPF = D:/Protein_go_brrr/autodock/final/2DN3/IHP/dock.dpf
DOCKED: USER  
DOCKED: USER    Estimated Free Energy of Binding    =   +4.32 kcal/mol  [=(1)+(2)+(3)-(4)]
DOCKED: USER    
DOCKED: USER    (1) Final Intermolecular Energy     =   -2.84 kcal/mol
DOCKED: USER        vdW + Hbond + desolv Energy     =   -2.58 kcal/mol
DOCKED: USER        Electrostatic Energy            =   -0.26 kcal/mol
DOCKED: USER    (2) Final Total Internal Energy     =  -14.79 kcal/mol
DOCKED: USER    (3) Torsional Free Energy           =   +7.16 kcal/mol
DOCKED: USER    (4) Unbound System's Energy  [=(2)] =  -14.79 kcal/mol
DOCKED: USER    
DOCKED: USER    
DOCKED: USER    NEWDPF move IHP_ideal_opt.pdbqt
DOCKED: USER    NEWDPF about 0.035000 0.082000 -0.065000
DOCKED: USER    NEWDPF tran0 25.156505 32.233093 34.971735
DOCKED: USER    NEWDPF quaternion0 0.252927 0.547084 0.588073 -0.539349
DOCKED: USER    NEWDPF axisangle0 0.300359 0.649680 0.698355 -114.721308
DOCKED: USER    NEWDPF quat0 0.300359 0.649680 0.698355 -114.721308
DOCKED: USER    NEWDPF dihe0 84.10 -178.95 178.65 -22.24 160.94 101.22 1.08 -60.89 170.80 -27.55 64.68 -109.74 -75.18 166.19 115.98 -48.40 44.64 120.88 69.88 22.59 -59.72 10.20 -22.64 2.00 
DOCKED: USER  keepresnum = 1 
DOCKED: USER  
DOCKED: REMARK  24 active torsions:
DOCKED: REMARK  status: ('A' for Active; 'I' for Inactive)
DOCKED: REMARK    1  A    between atoms: C_1  and  O_7 
DOCKED: REMARK    2  A    between atoms: C_2  and  O_12 
DOCKED: REMARK    3  A    between atoms: C_3  and  O_17 
DOCKED: REMARK    4  A    between atoms: C_4  and  O_22 
DOCKED: REMARK    5  A    between atoms: C_5  and  O_27 
DOCKED: REMARK    6  A    between atoms: C_6  and  O_32 
DOCKED: REMARK    7  A    between atoms: O_7  and  P_8 
DOCKED: REMARK    8  A    between atoms: P_8  and  O_10 
DOCKED: REMARK    9  A    between atoms: P_8  and  O_11 
DOCKED: REMARK   10  A    between atoms: O_12  and  P_13 
DOCKED: REMARK   11  A    between atoms: P_13  and  O_15 
DOCKED: REMARK   12  A    between atoms: P_13  and  O_16 
DOCKED: REMARK   13  A    between atoms: O_17  and  P_18 
DOCKED: REMARK   14  A    between atoms: P_18  and  O_20 
DOCKED: REMARK   15  A    between atoms: P_18  and  O_21 
DOCKED: REMARK   16  A    between atoms: O_22  and  P_23 
DOCKED: REMARK   17  A    between atoms: P_23  and  O_25 
DOCKED: REMARK   18  A    between atoms: P_23  and  O_26 
DOCKED: REMARK   19  A    between atoms: O_27  and  P_28 
DOCKED: REMARK   20  A    between atoms: P_28  and  O_30 
DOCKED: REMARK   21  A    between atoms: P_28  and  O_31 
DOCKED: REMARK   22  A    between atoms: O_32  and  P_33 
DOCKED: REMARK   23  A    between atoms: P_33  and  O_35 
DOCKED: REMARK   24  A    between atoms: P_33  and  O_36 
DOCKED: USER                              x       y       z     vdW  Elec       q    Type
DOCKED: USER                           _______ _______ _______ _____ _____    ______ ____
DOCKED: ROOT
DOCKED: ATOM      1  C   UNL d   1      25.812  33.508  34.008 -0.03 +0.04    +0.194 C 
DOCKED: ATOM      2  C   UNL d   1      26.135  32.089  33.535 -0.03 +0.05    +0.194 C 
DOCKED: ATOM      3  C   UNL d   1      26.513  31.175  34.703 -0.00 +0.04    +0.194 C 
DOCKED: ATOM      4  C   UNL d   1      25.486  31.188  35.833 +0.00 +0.04    +0.194 C 
DOCKED: ATOM      5  C   UNL d   1      25.049  32.584  36.259 +0.00 +0.04    +0.194 C 
DOCKED: ATOM      6  C   UNL d   1      24.731  33.517  35.089 -0.03 +0.06    +0.194 C 
DOCKED: ENDROOT
DOCKED: BRANCH   1   7
DOCKED: ATOM      7  O   UNL d   1      25.306  34.245  32.892 -0.07 -0.07    -0.278 OA
DOCKED: BRANCH   7   8
DOCKED: ATOM      8  P   UNL d   1      26.166  34.270  31.546 -0.05 -0.13    +0.473 P 
DOCKED: ATOM      9  O   UNL d   1      27.620  34.006  31.721 -0.11 +0.16    -0.228 OA
DOCKED: BRANCH   8  10
DOCKED: ATOM     10  O   UNL d   1      25.443  33.204  30.605 -0.02 -0.07    -0.303 OA
DOCKED: ATOM     11  H   UNL d   1      25.644  32.303  30.918 +0.06 +0.08    +0.222 HD
DOCKED: ENDBRANCH   8  10
DOCKED: BRANCH   8  12
DOCKED: ATOM     12  O   UNL d   1      25.790  35.644  30.842 -0.15 +0.19    -0.303 OA
DOCKED: ATOM     13  H   UNL d   1      26.573  36.123  30.488 -0.46 -0.37    +0.222 HD
DOCKED: ENDBRANCH   8  12
DOCKED: ENDBRANCH   7   8
DOCKED: ENDBRANCH   1   7
DOCKED: BRANCH   2  14
DOCKED: ATOM     14  O   UNL d   1      24.983  31.541  32.881 -0.12 -0.22    -0.278 OA
DOCKED: BRANCH  14  15
DOCKED: ATOM     15  P   UNL d   1      25.254  30.400  31.791 -0.06 +0.28    +0.473 P 
DOCKED: ATOM     16  O   UNL d   1      24.450  30.471  30.530 -0.66 -0.21    -0.228 OA
DOCKED: BRANCH  15  17
DOCKED: ATOM     17  O   UNL d   1      26.823  30.479  31.529 -0.09 -0.05    -0.303 OA
DOCKED: ATOM     18  H   UNL d   1      27.319  29.982  32.208 +0.04 +0.04    +0.222 HD
DOCKED: ENDBRANCH  15  17
DOCKED: BRANCH  15  19
DOCKED: ATOM     19  O   UNL d   1      25.134  29.038  32.605 -0.53 -0.14    -0.303 OA
DOCKED: ATOM     20  H   UNL d   1      25.960  28.828  33.078 +0.05 +0.11    +0.222 HD
DOCKED: ENDBRANCH  15  19
DOCKED: ENDBRANCH  14  15
DOCKED: ENDBRANCH   2  14
DOCKED: BRANCH   6  21
DOCKED: ATOM     21  O   UNL d   1      24.680  34.840  35.618 -0.01 -0.04    -0.278 OA
DOCKED: BRANCH  21  22
DOCKED: ATOM     22  P   UNL d   1      23.963  35.998  34.788 -0.02 +0.07    +0.473 P 
DOCKED: ATOM     23  O   UNL d   1      23.247  37.067  35.543 -0.01 -0.02    -0.228 OA
DOCKED: BRANCH  22  24
DOCKED: ATOM     24  O   UNL d   1      25.148  36.516  33.861 -0.02 +0.01    -0.303 OA
DOCKED: ATOM     25  H   UNL d   1      25.086  36.047  32.990 +0.04 -0.01    +0.222 HD
DOCKED: ENDBRANCH  22  24
DOCKED: BRANCH  22  26
DOCKED: ATOM     26  O   UNL d   1      23.076  35.155  33.752 -0.05 -0.17    -0.303 OA
DOCKED: ATOM     27  H   UNL d   1      23.662  34.756  33.077 +0.03 +0.16    +0.222 HD
DOCKED: ENDBRANCH  22  26
DOCKED: ENDBRANCH  21  22
DOCKED: ENDBRANCH   6  21
DOCKED: BRANCH   3  28
DOCKED: ATOM     28  O   UNL d   1      26.521  29.839  34.216 -0.06 -0.07    -0.278 OA
DOCKED: BRANCH  28  29
DOCKED: ATOM     29  P   UNL d   1      27.847  28.961  34.298 -0.04 +0.13    +0.473 P 
DOCKED: ATOM     30  O   UNL d   1      28.909  29.312  33.320 -0.11 -0.08    -0.228 OA
DOCKED: BRANCH  29  31
DOCKED: ATOM     31  O   UNL d   1      28.202  29.136  35.849 -0.00 -0.08    -0.303 OA
DOCKED: ATOM     32  H   UNL d   1      27.409  28.897  36.381 +0.02 +0.04    +0.222 HD
DOCKED: ENDBRANCH  29  31
DOCKED: BRANCH  29  33
DOCKED: ATOM     33  O   UNL d   1      27.271  27.478  34.234 -0.18 -0.07    -0.303 OA
DOCKED: ATOM     34  H   UNL d   1      26.284  27.519  34.193 +0.03 +0.05    +0.222 HD
DOCKED: ENDBRANCH  29  33
DOCKED: ENDBRANCH  28  29
DOCKED: ENDBRANCH   3  28
DOCKED: BRANCH   5  35
DOCKED: ATOM     35  O   UNL d   1      23.840  32.404  36.994 +0.00 -0.05    -0.278 OA
DOCKED: BRANCH  35  36
DOCKED: ATOM     36  P   UNL d   1      23.824  32.600  38.576 +0.01 +0.05    +0.473 P 
DOCKED: ATOM     37  O   UNL d   1      23.545  33.991  39.051 +0.00 -0.02    -0.228 OA
DOCKED: BRANCH  36  38
DOCKED: ATOM     38  O   UNL d   1      22.739  31.525  39.027 +0.00 -0.03    -0.303 OA
DOCKED: ATOM     39  H   UNL d   1      23.199  30.728  39.367 +0.00 +0.02    +0.222 HD
DOCKED: ENDBRANCH  36  38
DOCKED: BRANCH  36  40
DOCKED: ATOM     40  O   UNL d   1      25.209  31.952  39.014 +0.00 -0.03    -0.303 OA
DOCKED: ATOM     41  H   UNL d   1      25.209  30.977  38.894 +0.00 +0.02    +0.222 HD
DOCKED: ENDBRANCH  36  40
DOCKED: ENDBRANCH  35  36
DOCKED: ENDBRANCH   5  35
DOCKED: BRANCH   4  42
DOCKED: ATOM     42  O   UNL d   1      26.111  30.578  36.968 +0.00 -0.04    -0.278 OA
DOCKED: BRANCH  42  43
DOCKED: ATOM     43  P   UNL d   1      25.623  29.133  37.433 +0.01 +0.06    +0.473 P 
DOCKED: ATOM     44  O   UNL d   1      26.479  28.399  38.407 +0.00 -0.02    -0.228 OA
DOCKED: BRANCH  43  45
DOCKED: ATOM     45  O   UNL d   1      24.144  29.414  37.950 +0.00 -0.04    -0.303 OA
DOCKED: ATOM     46  H   UNL d   1      23.953  30.373  37.984 +0.00 +0.03    +0.222 HD
DOCKED: ENDBRANCH  43  45
DOCKED: BRANCH  43  47
DOCKED: ATOM     47  O   UNL d   1      25.346  28.376  36.048 -0.00 -0.05    -0.303 OA
DOCKED: ATOM     48  H   UNL d   1      26.198  28.213  35.593 +0.02 +0.04    +0.222 HD
DOCKED: ENDBRANCH  43  47
DOCKED: ENDBRANCH  42  43
DOCKED: ENDBRANCH   4  42
DOCKED: TORSDOF 24
DOCKED: TER
DOCKED: ENDMDL
________________________________________________________________________________


	BEGINNING GENETIC ALGORITHM DOCKING 72 of 100
Run: 72 Seed: 1259866871 1473841418 [ Run 72 of 100 GA/GALS ]
Beginning LAMARCKIAN GENETIC ALGORITHM (LGA), with a maximum of 25000000 energy evaluations.

Final-Value: -17.886


	FINAL GENETIC ALGORITHM DOCKED STATE
	_______________________________________________


Detailed state:  trans -0.448 20.911 0.438 quatxyzw 0.146056 0.576648 0.358667 -0.719376 center 0.035 0.082 -0.065 ntor 24 -108.3178 -24.5987 -180.0000 -52.4071 -49.7602 177.9189 -108.3961 -64.0733 104.6190 25.5076 -20.2720 -115.6014 177.9111 169.6507 29.6755 -127.9153 149.5193 -25.1527 69.1597 20.4609 169.9977 -1.2297 -7.0493 174.7659
State:	 -0.448  20.911   0.438   0.210  0.830  0.516 -87.994   -108.32  -24.60 -180.00  -52.41  -49.76  177.92 -108.40  -64.07  104.62   25.51  -20.27 -115.60  177.91  169.65   29.68 -127.92  149.52  -25.15   69.16   20.46  170.00   -1.23   -7.05  174.77

DOCKED: MODEL       72
DOCKED: USER    Run = 72
DOCKED: USER    DPF = D:/Protein_go_brrr/autodock/final/2DN3/IHP/dock.dpf
DOCKED: USER  
DOCKED: USER    Estimated Free Energy of Binding    =   +3.65 kcal/mol  [=(1)+(2)+(3)-(4)]
DOCKED: USER    
DOCKED: USER    (1) Final Intermolecular Energy     =   -3.51 kcal/mol
DOCKED: USER        vdW + Hbond + desolv Energy     =   -3.48 kcal/mol
DOCKED: USER        Electrostatic Energy            =   -0.03 kcal/mol
DOCKED: USER    (2) Final Total Internal Energy     =  -14.38 kcal/mol
DOCKED: USER    (3) Torsional Free Energy           =   +7.16 kcal/mol
DOCKED: USER    (4) Unbound System's Energy  [=(2)] =  -14.38 kcal/mol
DOCKED: USER    
DOCKED: USER    
DOCKED: USER    NEWDPF move IHP_ideal_opt.pdbqt
DOCKED: USER    NEWDPF about 0.035000 0.082000 -0.065000
DOCKED: USER    NEWDPF tran0 -0.448143 20.910986 0.438392
DOCKED: USER    NEWDPF quaternion0 0.146056 0.576648 0.358667 -0.719376
DOCKED: USER    NEWDPF axisangle0 0.210268 0.830163 0.516350 -87.994033
DOCKED: USER    NEWDPF quat0 0.210268 0.830163 0.516350 -87.994033
DOCKED: USER    NEWDPF dihe0 -108.32 -24.60 -180.00 -52.41 -49.76 177.92 -108.40 -64.07 104.62 25.51 -20.27 -115.60 177.91 169.65 29.68 -127.92 149.52 -25.15 69.16 20.46 170.00 -1.23 -7.05 174.77 
DOCKED: USER  keepresnum = 1 
DOCKED: USER  
DOCKED: REMARK  24 active torsions:
DOCKED: REMARK  status: ('A' for Active; 'I' for Inactive)
DOCKED: REMARK    1  A    between atoms: C_1  and  O_7 
DOCKED: REMARK    2  A    between atoms: C_2  and  O_12 
DOCKED: REMARK    3  A    between atoms: C_3  and  O_17 
DOCKED: REMARK    4  A    between atoms: C_4  and  O_22 
DOCKED: REMARK    5  A    between atoms: C_5  and  O_27 
DOCKED: REMARK    6  A    between atoms: C_6  and  O_32 
DOCKED: REMARK    7  A    between atoms: O_7  and  P_8 
DOCKED: REMARK    8  A    between atoms: P_8  and  O_10 
DOCKED: REMARK    9  A    between atoms: P_8  and  O_11 
DOCKED: REMARK   10  A    between atoms: O_12  and  P_13 
DOCKED: REMARK   11  A    between atoms: P_13  and  O_15 
DOCKED: REMARK   12  A    between atoms: P_13  and  O_16 
DOCKED: REMARK   13  A    between atoms: O_17  and  P_18 
DOCKED: REMARK   14  A    between atoms: P_18  and  O_20 
DOCKED: REMARK   15  A    between atoms: P_18  and  O_21 
DOCKED: REMARK   16  A    between atoms: O_22  and  P_23 
DOCKED: REMARK   17  A    between atoms: P_23  and  O_25 
DOCKED: REMARK   18  A    between atoms: P_23  and  O_26 
DOCKED: REMARK   19  A    between atoms: O_27  and  P_28 
DOCKED: REMARK   20  A    between atoms: P_28  and  O_30 
DOCKED: REMARK   21  A    between atoms: P_28  and  O_31 
DOCKED: REMARK   22  A    between atoms: O_32  and  P_33 
DOCKED: REMARK   23  A    between atoms: P_33  and  O_35 
DOCKED: REMARK   24  A    between atoms: P_33  and  O_36 
DOCKED: USER                              x       y       z     vdW  Elec       q    Type
DOCKED: USER                           _______ _______ _______ _____ _____    ______ ____
DOCKED: ROOT
DOCKED: ATOM      1  C   UNL d   1       0.697  21.308  -0.793 -0.13 -0.02    +0.194 C 
DOCKED: ATOM      2  C   UNL d   1       0.535  19.816  -0.497 -0.08 -0.01    +0.194 C 
DOCKED: ATOM      3  C   UNL d   1       0.463  19.540   1.006 -0.09 -0.01    +0.194 C 
DOCKED: ATOM      4  C   UNL d   1      -0.585  20.388   1.723 -0.04 -0.02    +0.194 C 
DOCKED: ATOM      5  C   UNL d   1      -0.534  21.869   1.369 -0.05 -0.03    +0.194 C 
DOCKED: ATOM      6  C   UNL d   1      -0.400  22.143  -0.130 -0.06 -0.02    +0.194 C 
DOCKED: ENDROOT
DOCKED: BRANCH   1   7
DOCKED: ATOM      7  O   UNL d   1       0.583  21.498  -2.205 -0.09 +0.02    -0.278 OA
DOCKED: BRANCH   7   8
DOCKED: ATOM      8  P   UNL d   1       1.520  20.632  -3.166 -0.05 -0.04    +0.473 P 
DOCKED: ATOM      9  O   UNL d   1       2.251  21.410  -4.203 -0.19 +0.06    -0.228 OA
DOCKED: BRANCH   8  10
DOCKED: ATOM     10  O   UNL d   1       2.489  19.856  -2.164 -0.09 +0.00    -0.303 OA
DOCKED: ATOM     11  H   UNL d   1       2.117  18.976  -1.965 +0.06 +0.00    +0.222 HD
DOCKED: ENDBRANCH   8  10
DOCKED: BRANCH   8  12
DOCKED: ATOM     12  O   UNL d   1       0.590  19.461  -3.704 -0.02 +0.02    -0.303 OA
DOCKED: ATOM     13  H   UNL d   1       0.354  18.806  -3.009 +0.03 -0.00    +0.222 HD
DOCKED: ENDBRANCH   8  12
DOCKED: ENDBRANCH   7   8
DOCKED: ENDBRANCH   1   7
DOCKED: BRANCH   2  14
DOCKED: ATOM     14  O   UNL d   1      -0.676  19.348  -1.106 -0.01 +0.01    -0.278 OA
DOCKED: BRANCH  14  15
DOCKED: ATOM     15  P   UNL d   1      -0.715  17.804  -1.527 +0.00 +0.00    +0.473 P 
DOCKED: ATOM     16  O   UNL d   1      -1.268  17.491  -2.882 -0.00 -0.00    -0.228 OA
DOCKED: BRANCH  15  17
DOCKED: ATOM     17  O   UNL d   1       0.790  17.314  -1.345 -0.01 -0.02    -0.303 OA
DOCKED: ATOM     18  H   UNL d   1       0.968  17.061  -0.420 +0.03 +0.02    +0.222 HD
DOCKED: ENDBRANCH  15  17
DOCKED: BRANCH  15  19
DOCKED: ATOM     19  O   UNL d   1      -1.436  17.079  -0.308 +0.00 -0.00    -0.303 OA
DOCKED: ATOM     20  H   UNL d   1      -0.824  16.495   0.177 +0.01 +0.01    +0.222 HD
DOCKED: ENDBRANCH  15  19
DOCKED: ENDBRANCH  14  15
DOCKED: ENDBRANCH   2  14
DOCKED: BRANCH   6  21
DOCKED: ATOM     21  O   UNL d   1      -0.023  23.511  -0.267 -0.08 +0.04    -0.278 OA
DOCKED: BRANCH  21  22
DOCKED: ATOM     22  P   UNL d   1       1.414  23.991   0.231 -0.22 -0.12    +0.473 P 
DOCKED: ATOM     23  O   UNL d   1       2.619  23.365  -0.387 -0.89 +0.03    -0.228 OA
DOCKED: BRANCH  22  24
DOCKED: ATOM     24  O   UNL d   1       1.313  25.569   0.047 -0.18 +0.08    -0.303 OA
DOCKED: ATOM     25  H   UNL d   1       1.975  25.842  -0.638 -0.41 -0.09    +0.222 HD
DOCKED: ENDBRANCH  22  24
DOCKED: BRANCH  22  26
DOCKED: ATOM     26  O   UNL d   1       1.278  23.833   1.821 -0.15 +0.14    -0.303 OA
DOCKED: ATOM     27  H   UNL d   1       0.406  23.442   2.031 +0.08 -0.08    +0.222 HD
DOCKED: ENDBRANCH  22  26
DOCKED: ENDBRANCH  21  22
DOCKED: ENDBRANCH   6  21
DOCKED: BRANCH   3  28
DOCKED: ATOM     28  O   UNL d   1       0.039  18.194   1.175 -0.03 -0.00    -0.278 OA
DOCKED: BRANCH  28  29
DOCKED: ATOM     29  P   UNL d   1       1.055  17.091   1.711 -0.06 +0.05    +0.473 P 
DOCKED: ATOM     30  O   UNL d   1       0.761  15.694   1.301 -0.04 -0.02    -0.228 OA
DOCKED: BRANCH  29  31
DOCKED: ATOM     31  O   UNL d   1       2.439  17.720   1.209 -0.18 -0.07    -0.303 OA
DOCKED: ATOM     32  H   UNL d   1       2.389  17.848   0.234 +0.06 +0.04    +0.222 HD
DOCKED: ENDBRANCH  29  31
DOCKED: BRANCH  29  33
DOCKED: ATOM     33  O   UNL d   1       1.079  17.392   3.275 -0.10 -0.03    -0.303 OA
DOCKED: ATOM     34  H   UNL d   1       0.541  18.201   3.455 +0.06 +0.00    +0.222 HD
DOCKED: ENDBRANCH  29  33
DOCKED: ENDBRANCH  28  29
DOCKED: ENDBRANCH   3  28
DOCKED: BRANCH   5  35
DOCKED: ATOM     35  O   UNL d   1      -1.786  22.410   1.785 -0.00 +0.04    -0.278 OA
DOCKED: BRANCH  35  36
DOCKED: ATOM     36  P   UNL d   1      -1.835  23.634   2.806 +0.02 -0.12    +0.473 P 
DOCKED: ATOM     37  O   UNL d   1      -3.171  23.909   3.419 -0.00 +0.04    -0.228 OA
DOCKED: BRANCH  36  38
DOCKED: ATOM     38  O   UNL d   1      -0.705  23.230   3.853 -0.04 +0.14    -0.303 OA
DOCKED: ATOM     39  H   UNL d   1       0.018  22.764   3.381 +0.07 -0.09    +0.222 HD
DOCKED: ENDBRANCH  36  38
DOCKED: BRANCH  36  40
DOCKED: ATOM     40  O   UNL d   1      -1.173  24.808   1.962 -0.01 +0.08    -0.303 OA
DOCKED: ATOM     41  H   UNL d   1      -0.685  24.464   1.181 +0.05 -0.05    +0.222 HD
DOCKED: ENDBRANCH  36  40
DOCKED: ENDBRANCH  35  36
DOCKED: ENDBRANCH   5  35
DOCKED: BRANCH   4  42
DOCKED: ATOM     42  O   UNL d   1      -0.317  20.281   3.125 -0.04 +0.04    -0.278 OA
DOCKED: BRANCH  42  43
DOCKED: ATOM     43  P   UNL d   1       1.065  20.843   3.691 -0.15 -0.12    +0.473 P 
DOCKED: ATOM     44  O   UNL d   1       1.788  21.848   2.863 -0.16 +0.08    -0.228 OA
DOCKED: BRANCH  43  45
DOCKED: ATOM     45  O   UNL d   1       0.662  21.364   5.140 -0.20 +0.14    -0.303 OA
DOCKED: ATOM     46  H   UNL d   1       0.430  22.314   5.128 +0.08 -0.15    +0.222 HD
DOCKED: ENDBRANCH  43  45
DOCKED: BRANCH  43  47
DOCKED: ATOM     47  O   UNL d   1       1.887  19.512   4.040 -0.25 +0.03    -0.303 OA
DOCKED: ATOM     48  H   UNL d   1       2.049  19.008   3.216 +0.09 +0.01    +0.222 HD
DOCKED: ENDBRANCH  43  47
DOCKED: ENDBRANCH  42  43
DOCKED: ENDBRANCH   4  42
DOCKED: TORSDOF 24
DOCKED: TER
DOCKED: ENDMDL
________________________________________________________________________________


	BEGINNING GENETIC ALGORITHM DOCKING 73 of 100
Run: 73 Seed: 1930215046 1273291712 [ Run 73 of 100 GA/GALS ]
Beginning LAMARCKIAN GENETIC ALGORITHM (LGA), with a maximum of 25000000 energy evaluations.

Final-Value: -17.230


	FINAL GENETIC ALGORITHM DOCKED STATE
	_______________________________________________


Detailed state:  trans 22.187 30.966 -11.461 quatxyzw 0.105159 0.331632 0.809946 -0.472174 center 0.035 0.082 -0.065 ntor 24 -108.6701 21.5011 94.1580 96.8095 24.7591 180.0000 -125.0220 -20.9617 153.3596 -78.9731 -35.4984 -147.6394 -134.9343 118.3873 172.8841 50.4304 -137.6550 -44.6458 34.4721 -3.9854 -27.8716 154.9269 4.9110 -39.8693
State:	 22.187  30.966 -11.461   0.119  0.376  0.919 -123.649   -108.67   21.50   94.16   96.81   24.76  180.00 -125.02  -20.96  153.36  -78.97  -35.50 -147.64 -134.93  118.39  172.88   50.43 -137.65  -44.65   34.47   -3.99  -27.87  154.93    4.91  -39.87

DOCKED: MODEL       73
DOCKED: USER    Run = 73
DOCKED: USER    DPF = D:/Protein_go_brrr/autodock/final/2DN3/IHP/dock.dpf
DOCKED: USER  
DOCKED: USER    Estimated Free Energy of Binding    =   +3.57 kcal/mol  [=(1)+(2)+(3)-(4)]
DOCKED: USER    
DOCKED: USER    (1) Final Intermolecular Energy     =   -3.58 kcal/mol
DOCKED: USER        vdW + Hbond + desolv Energy     =   -3.27 kcal/mol
DOCKED: USER        Electrostatic Energy            =   -0.32 kcal/mol
DOCKED: USER    (2) Final Total Internal Energy     =  -13.64 kcal/mol
DOCKED: USER    (3) Torsional Free Energy           =   +7.16 kcal/mol
DOCKED: USER    (4) Unbound System's Energy  [=(2)] =  -13.64 kcal/mol
DOCKED: USER    
DOCKED: USER    
DOCKED: USER    NEWDPF move IHP_ideal_opt.pdbqt
DOCKED: USER    NEWDPF about 0.035000 0.082000 -0.065000
DOCKED: USER    NEWDPF tran0 22.186831 30.966415 -11.460993
DOCKED: USER    NEWDPF quaternion0 0.105159 0.331632 0.809946 -0.472174
DOCKED: USER    NEWDPF axisangle0 0.119295 0.376212 0.918822 -123.648953
DOCKED: USER    NEWDPF quat0 0.119295 0.376212 0.918822 -123.648953
DOCKED: USER    NEWDPF dihe0 -108.67 21.50 94.16 96.81 24.76 180.00 -125.02 -20.96 153.36 -78.97 -35.50 -147.64 -134.93 118.39 172.88 50.43 -137.65 -44.65 34.47 -3.99 -27.87 154.93 4.91 -39.87 
DOCKED: USER  keepresnum = 1 
DOCKED: USER  
DOCKED: REMARK  24 active torsions:
DOCKED: REMARK  status: ('A' for Active; 'I' for Inactive)
DOCKED: REMARK    1  A    between atoms: C_1  and  O_7 
DOCKED: REMARK    2  A    between atoms: C_2  and  O_12 
DOCKED: REMARK    3  A    between atoms: C_3  and  O_17 
DOCKED: REMARK    4  A    between atoms: C_4  and  O_22 
DOCKED: REMARK    5  A    between atoms: C_5  and  O_27 
DOCKED: REMARK    6  A    between atoms: C_6  and  O_32 
DOCKED: REMARK    7  A    between atoms: O_7  and  P_8 
DOCKED: REMARK    8  A    between atoms: P_8  and  O_10 
DOCKED: REMARK    9  A    between atoms: P_8  and  O_11 
DOCKED: REMARK   10  A    between atoms: O_12  and  P_13 
DOCKED: REMARK   11  A    between atoms: P_13  and  O_15 
DOCKED: REMARK   12  A    between atoms: P_13  and  O_16 
DOCKED: REMARK   13  A    between atoms: O_17  and  P_18 
DOCKED: REMARK   14  A    between atoms: P_18  and  O_20 
DOCKED: REMARK   15  A    between atoms: P_18  and  O_21 
DOCKED: REMARK   16  A    between atoms: O_22  and  P_23 
DOCKED: REMARK   17  A    between atoms: P_23  and  O_25 
DOCKED: REMARK   18  A    between atoms: P_23  and  O_26 
DOCKED: REMARK   19  A    between atoms: O_27  and  P_28 
DOCKED: REMARK   20  A    between atoms: P_28  and  O_30 
DOCKED: REMARK   21  A    between atoms: P_28  and  O_31 
DOCKED: REMARK   22  A    between atoms: O_32  and  P_33 
DOCKED: REMARK   23  A    between atoms: P_33  and  O_35 
DOCKED: REMARK   24  A    between atoms: P_33  and  O_36 
DOCKED: USER                              x       y       z     vdW  Elec       q    Type
DOCKED: USER                           _______ _______ _______ _____ _____    ______ ____
DOCKED: ROOT
DOCKED: ATOM      1  C   UNL d   1      22.520  32.655 -11.606 +0.00 -0.01    +0.194 C 
DOCKED: ATOM      2  C   UNL d   1      23.564  31.721 -12.219 +0.00 -0.01    +0.194 C 
DOCKED: ATOM      3  C   UNL d   1      23.865  30.530 -11.306 -0.00 -0.03    +0.194 C 
DOCKED: ATOM      4  C   UNL d   1      22.611  29.782 -10.861 -0.03 -0.05    +0.194 C 
DOCKED: ATOM      5  C   UNL d   1      21.497  30.686 -10.349 -0.07 -0.06    +0.194 C 
DOCKED: ATOM      6  C   UNL d   1      21.239  31.910 -11.230 -0.03 -0.02    +0.194 C 
DOCKED: ENDROOT
DOCKED: BRANCH   1   7
DOCKED: ATOM      7  O   UNL d   1      22.170  33.637 -12.584 +0.00 -0.02    -0.278 OA
DOCKED: BRANCH   7   8
DOCKED: ATOM      8  P   UNL d   1      23.040  34.974 -12.662 +0.02 +0.05    +0.473 P 
DOCKED: ATOM      9  O   UNL d   1      22.653  36.037 -11.695 -0.01 -0.05    -0.228 OA
DOCKED: BRANCH   8  10
DOCKED: ATOM     10  O   UNL d   1      24.542  34.470 -12.474 +0.00 -0.01    -0.303 OA
DOCKED: ATOM     11  H   UNL d   1      24.947  34.315 -13.348 +0.00 +0.01    +0.222 HD
DOCKED: ENDBRANCH   8  10
DOCKED: BRANCH   8  12
DOCKED: ATOM     12  O   UNL d   1      23.020  35.392 -14.195 +0.00 -0.03    -0.303 OA
DOCKED: ATOM     13  H   UNL d   1      22.844  34.635 -14.799 +0.00 +0.02    +0.222 HD
DOCKED: ENDBRANCH   8  12
DOCKED: ENDBRANCH   7   8
DOCKED: ENDBRANCH   1   7
DOCKED: BRANCH   2  14
DOCKED: ATOM     14  O   UNL d   1      23.070  31.224 -13.469 +0.00 +0.01    -0.278 OA
DOCKED: BRANCH  14  15
DOCKED: ATOM     15  P   UNL d   1      24.031  31.397 -14.738 +0.00 -0.00    +0.473 P 
DOCKED: ATOM     16  O   UNL d   1      23.582  30.755 -16.013 +0.00 -0.00    -0.228 OA
DOCKED: BRANCH  15  17
DOCKED: ATOM     17  O   UNL d   1      24.217  32.973 -14.872 +0.00 -0.01    -0.303 OA
DOCKED: ATOM     18  H   UNL d   1      23.701  33.447 -14.192 +0.00 +0.01    +0.222 HD
DOCKED: ENDBRANCH  15  17
DOCKED: BRANCH  15  19
DOCKED: ATOM     19  O   UNL d   1      25.465  30.949 -14.214 +0.00 +0.00    -0.303 OA
DOCKED: ATOM     20  H   UNL d   1      25.404  30.201 -13.592 +0.00 -0.01    +0.222 HD
DOCKED: ENDBRANCH  15  19
DOCKED: ENDBRANCH  14  15
DOCKED: ENDBRANCH   2  14
DOCKED: BRANCH   6  21
DOCKED: ATOM     21  O   UNL d   1      20.442  32.809 -10.462 -0.07 +0.02    -0.278 OA
DOCKED: BRANCH  21  22
DOCKED: ATOM     22  P   UNL d   1      19.115  33.430 -11.096 -0.07 +0.04    +0.473 P 
DOCKED: ATOM     23  O   UNL d   1      18.598  34.710 -10.533 -0.70 -0.11    -0.228 OA
DOCKED: BRANCH  22  24
DOCKED: ATOM     24  O   UNL d   1      19.487  33.482 -12.642 -0.04 -0.04    -0.303 OA
DOCKED: ATOM     25  H   UNL d   1      20.426  33.789 -12.724 +0.04 +0.03    +0.222 HD
DOCKED: ENDBRANCH  22  24
DOCKED: BRANCH  22  26
DOCKED: ATOM     26  O   UNL d   1      18.112  32.180 -11.038 -0.01 +0.03    -0.303 OA
DOCKED: ATOM     27  H   UNL d   1      18.543  31.443 -10.561 +0.02 -0.05    +0.222 HD
DOCKED: ENDBRANCH  22  26
DOCKED: ENDBRANCH  21  22
DOCKED: ENDBRANCH   6  21
DOCKED: BRANCH   3  28
DOCKED: ATOM     28  O   UNL d   1      24.617  29.590 -12.062 +0.00 +0.03    -0.278 OA
DOCKED: BRANCH  28  29
DOCKED: ATOM     29  P   UNL d   1      23.885  28.389 -12.810 +0.00 -0.04    +0.473 P 
DOCKED: ATOM     30  O   UNL d   1      22.457  28.620 -13.147 +0.00 +0.02    -0.228 OA
DOCKED: BRANCH  29  31
DOCKED: ATOM     31  O   UNL d   1      24.893  28.167 -14.033 +0.00 +0.01    -0.303 OA
DOCKED: ATOM     32  H   UNL d   1      24.781  28.909 -14.671 +0.00 -0.01    +0.222 HD
DOCKED: ENDBRANCH  29  31
DOCKED: BRANCH  29  33
DOCKED: ATOM     33  O   UNL d   1      24.210  27.155 -11.858 +0.00 +0.04    -0.303 OA
DOCKED: ATOM     34  H   UNL d   1      24.172  27.456 -10.917 +0.01 -0.04    +0.222 HD
DOCKED: ENDBRANCH  29  33
DOCKED: ENDBRANCH  28  29
DOCKED: ENDBRANCH   3  28
DOCKED: BRANCH   5  35
DOCKED: ATOM     35  O   UNL d   1      20.312  29.893 -10.373 -0.08 +0.09    -0.278 OA
DOCKED: BRANCH  35  36
DOCKED: ATOM     36  P   UNL d   1      19.305  29.913  -9.137 -0.29 -0.22    +0.473 P 
DOCKED: ATOM     37  O   UNL d   1      19.525  28.848  -8.109 -0.44 +0.14    -0.228 OA
DOCKED: BRANCH  36  38
DOCKED: ATOM     38  O   UNL d   1      19.489  31.397  -8.590 -0.32 +0.14    -0.303 OA
DOCKED: ATOM     39  H   UNL d   1      18.922  32.004  -9.113 -0.24 -0.11    +0.222 HD
DOCKED: ENDBRANCH  36  38
DOCKED: BRANCH  36  40
DOCKED: ATOM     40  O   UNL d   1      17.886  29.942  -9.854 -0.31 +0.11    -0.303 OA
DOCKED: ATOM     41  H   UNL d   1      17.367  30.738  -9.603 -0.11 -0.09    +0.222 HD
DOCKED: ENDBRANCH  36  40
DOCKED: ENDBRANCH  35  36
DOCKED: ENDBRANCH   5  35
DOCKED: BRANCH   4  42
DOCKED: ATOM     42  O   UNL d   1      22.998  28.933  -9.775 -0.05 +0.14    -0.278 OA
DOCKED: BRANCH  42  43
DOCKED: ATOM     43  P   UNL d   1      22.200  27.573  -9.536 -0.03 -0.20    +0.473 P 
DOCKED: ATOM     44  O   UNL d   1      21.099  27.247 -10.485 -0.05 +0.06    -0.228 OA
DOCKED: BRANCH  43  45
DOCKED: ATOM     45  O   UNL d   1      23.364  26.489  -9.493 -0.01 +0.09    -0.303 OA
DOCKED: ATOM     46  H   UNL d   1      23.360  25.927 -10.293 +0.02 -0.04    +0.222 HD
DOCKED: ENDBRANCH  43  45
DOCKED: BRANCH  43  47
DOCKED: ATOM     47  O   UNL d   1      21.778  27.661  -7.992 -0.13 +0.27    -0.303 OA
DOCKED: ATOM     48  H   UNL d   1      21.641  28.600  -7.748 -0.31 -0.39    +0.222 HD
DOCKED: ENDBRANCH  43  47
DOCKED: ENDBRANCH  42  43
DOCKED: ENDBRANCH   4  42
DOCKED: TORSDOF 24
DOCKED: TER
DOCKED: ENDMDL
________________________________________________________________________________


	BEGINNING GENETIC ALGORITHM DOCKING 74 of 100
Run: 74 Seed: 767824987 590654967 [ Run 74 of 100 GA/GALS ]
Beginning LAMARCKIAN GENETIC ALGORITHM (LGA), with a maximum of 25000000 energy evaluations.

Final-Value: -16.028


	FINAL GENETIC ALGORITHM DOCKED STATE
	_______________________________________________


Detailed state:  trans 35.378 46.883 -4.868 quatxyzw 0.322414 0.767205 -0.154994 -0.532374 center 0.035 0.082 -0.065 ntor 24 47.7913 136.3989 56.6220 75.5098 87.9569 115.7406 -20.0130 5.5530 135.2192 13.3339 -27.3965 173.5807 -57.2373 135.0693 93.1417 147.8893 -144.9279 170.2650 -158.4905 -10.9630 0.2623 17.8610 -3.7031 174.7730
State:	 35.378  46.883  -4.868   0.381  0.906 -0.183 -115.668     47.79  136.40   56.62   75.51   87.96  115.74  -20.01    5.55  135.22   13.33  -27.40  173.58  -57.24  135.07   93.14  147.89 -144.93  170.26 -158.49  -10.96    0.26   17.86   -3.70  174.77

DOCKED: MODEL       74
DOCKED: USER    Run = 74
DOCKED: USER    DPF = D:/Protein_go_brrr/autodock/final/2DN3/IHP/dock.dpf
DOCKED: USER  
DOCKED: USER    Estimated Free Energy of Binding    =   +5.91 kcal/mol  [=(1)+(2)+(3)-(4)]
DOCKED: USER    
DOCKED: USER    (1) Final Intermolecular Energy     =   -1.24 kcal/mol
DOCKED: USER        vdW + Hbond + desolv Energy     =   -1.02 kcal/mol
DOCKED: USER        Electrostatic Energy            =   -0.22 kcal/mol
DOCKED: USER    (2) Final Total Internal Energy     =  -14.78 kcal/mol
DOCKED: USER    (3) Torsional Free Energy           =   +7.16 kcal/mol
DOCKED: USER    (4) Unbound System's Energy  [=(2)] =  -14.78 kcal/mol
DOCKED: USER    
DOCKED: USER    
DOCKED: USER    NEWDPF move IHP_ideal_opt.pdbqt
DOCKED: USER    NEWDPF about 0.035000 0.082000 -0.065000
DOCKED: USER    NEWDPF tran0 35.378061 46.883437 -4.868014
DOCKED: USER    NEWDPF quaternion0 0.322414 0.767205 -0.154994 -0.532374
DOCKED: USER    NEWDPF axisangle0 0.380875 0.906317 -0.183097 -115.667981
DOCKED: USER    NEWDPF quat0 0.380875 0.906317 -0.183097 -115.667981
DOCKED: USER    NEWDPF dihe0 47.79 136.40 56.62 75.51 87.96 115.74 -20.01 5.55 135.22 13.33 -27.40 173.58 -57.24 135.07 93.14 147.89 -144.93 170.26 -158.49 -10.96 0.26 17.86 -3.70 174.77 
DOCKED: USER  keepresnum = 1 
DOCKED: USER  
DOCKED: REMARK  24 active torsions:
DOCKED: REMARK  status: ('A' for Active; 'I' for Inactive)
DOCKED: REMARK    1  A    between atoms: C_1  and  O_7 
DOCKED: REMARK    2  A    between atoms: C_2  and  O_12 
DOCKED: REMARK    3  A    between atoms: C_3  and  O_17 
DOCKED: REMARK    4  A    between atoms: C_4  and  O_22 
DOCKED: REMARK    5  A    between atoms: C_5  and  O_27 
DOCKED: REMARK    6  A    between atoms: C_6  and  O_32 
DOCKED: REMARK    7  A    between atoms: O_7  and  P_8 
DOCKED: REMARK    8  A    between atoms: P_8  and  O_10 
DOCKED: REMARK    9  A    between atoms: P_8  and  O_11 
DOCKED: REMARK   10  A    between atoms: O_12  and  P_13 
DOCKED: REMARK   11  A    between atoms: P_13  and  O_15 
DOCKED: REMARK   12  A    between atoms: P_13  and  O_16 
DOCKED: REMARK   13  A    between atoms: O_17  and  P_18 
DOCKED: REMARK   14  A    between atoms: P_18  and  O_20 
DOCKED: REMARK   15  A    between atoms: P_18  and  O_21 
DOCKED: REMARK   16  A    between atoms: O_22  and  P_23 
DOCKED: REMARK   17  A    between atoms: P_23  and  O_25 
DOCKED: REMARK   18  A    between atoms: P_23  and  O_26 
DOCKED: REMARK   19  A    between atoms: O_27  and  P_28 
DOCKED: REMARK   20  A    between atoms: P_28  and  O_30 
DOCKED: REMARK   21  A    between atoms: P_28  and  O_31 
DOCKED: REMARK   22  A    between atoms: O_32  and  P_33 
DOCKED: REMARK   23  A    between atoms: P_33  and  O_35 
DOCKED: REMARK   24  A    between atoms: P_33  and  O_36 
DOCKED: USER                              x       y       z     vdW  Elec       q    Type
DOCKED: USER                           _______ _______ _______ _____ _____    ______ ____
DOCKED: ROOT
DOCKED: ATOM      1  C   UNL d   1      35.077  46.176  -6.415 -0.00 +0.03    +0.194 C 
DOCKED: ATOM      2  C   UNL d   1      34.563  45.381  -5.214 -0.01 +0.05    +0.194 C 
DOCKED: ATOM      3  C   UNL d   1      35.587  45.347  -4.077 -0.05 +0.07    +0.194 C 
DOCKED: ATOM      4  C   UNL d   1      36.091  46.732  -3.680 -0.05 +0.07    +0.194 C 
DOCKED: ATOM      5  C   UNL d   1      36.507  47.603  -4.858 -0.03 +0.04    +0.194 C 
DOCKED: ATOM      6  C   UNL d   1      35.512  47.588  -6.021 -0.01 +0.03    +0.194 C 
DOCKED: ENDROOT
DOCKED: BRANCH   1   7
DOCKED: ATOM      7  O   UNL d   1      34.007  46.306  -7.354 -0.00 -0.04    -0.278 OA
DOCKED: BRANCH   7   8
DOCKED: ATOM      8  P   UNL d   1      32.886  47.410  -7.079 -0.00 +0.06    +0.473 P 
DOCKED: ATOM      9  O   UNL d   1      33.005  48.120  -5.776 -0.00 -0.04    -0.228 OA
DOCKED: BRANCH   8  10
DOCKED: ATOM     10  O   UNL d   1      32.987  48.386  -8.337 +0.00 -0.03    -0.303 OA
DOCKED: ATOM     11  H   UNL d   1      33.353  49.245  -8.056 +0.00 +0.02    +0.222 HD
DOCKED: ENDBRANCH   8  10
DOCKED: BRANCH   8  12
DOCKED: ATOM     12  O   UNL d   1      31.505  46.670  -7.342 +0.00 -0.03    -0.303 OA
DOCKED: ATOM     13  H   UNL d   1      31.128  46.258  -6.533 +0.00 +0.03    +0.222 HD
DOCKED: ENDBRANCH   8  12
DOCKED: ENDBRANCH   7   8
DOCKED: ENDBRANCH   1   7
DOCKED: BRANCH   2  14
DOCKED: ATOM     14  O   UNL d   1      33.362  45.993  -4.728 -0.01 -0.07    -0.278 OA
DOCKED: BRANCH  14  15
DOCKED: ATOM     15  P   UNL d   1      32.046  45.080  -4.720 +0.01 +0.11    +0.473 P 
DOCKED: ATOM     16  O   UNL d   1      30.748  45.774  -4.448 -0.00 -0.05    -0.228 OA
DOCKED: BRANCH  15  17
DOCKED: ATOM     17  O   UNL d   1      32.072  44.350  -6.136 +0.00 -0.05    -0.303 OA
DOCKED: ATOM     18  H   UNL d   1      32.377  44.956  -6.838 +0.00 +0.03    +0.222 HD
DOCKED: ENDBRANCH  15  17
DOCKED: BRANCH  15  19
DOCKED: ATOM     19  O   UNL d   1      32.401  43.881  -3.736 -0.00 -0.10    -0.303 OA
DOCKED: ATOM     20  H   UNL d   1      33.183  44.083  -3.189 +0.02 +0.10    +0.222 HD
DOCKED: ENDBRANCH  15  19
DOCKED: ENDBRANCH  14  15
DOCKED: ENDBRANCH   2  14
DOCKED: BRANCH   6  21
DOCKED: ATOM     21  O   UNL d   1      36.184  48.149  -7.146 -0.00 -0.03    -0.278 OA
DOCKED: BRANCH  21  22
DOCKED: ATOM     22  P   UNL d   1      35.886  49.655  -7.577 -0.00 +0.05    +0.473 P 
DOCKED: ATOM     23  O   UNL d   1      37.033  50.606  -7.655 -0.00 -0.02    -0.228 OA
DOCKED: BRANCH  22  24
DOCKED: ATOM     24  O   UNL d   1      35.093  49.453  -8.942 +0.00 -0.02    -0.303 OA
DOCKED: ATOM     25  H   UNL d   1      34.713  48.537  -8.944 +0.00 +0.02    +0.222 HD
DOCKED: ENDBRANCH  22  24
DOCKED: BRANCH  22  26
DOCKED: ATOM     26  O   UNL d   1      34.708  50.056  -6.566 -0.00 -0.03    -0.303 OA
DOCKED: ATOM     27  H   UNL d   1      33.958  49.440  -6.686 +0.00 +0.03    +0.222 HD
DOCKED: ENDBRANCH  22  26
DOCKED: ENDBRANCH  21  22
DOCKED: ENDBRANCH   6  21
DOCKED: BRANCH   3  28
DOCKED: ATOM     28  O   UNL d   1      34.929  44.839  -2.923 -0.08 -0.17    -0.278 OA
DOCKED: BRANCH  28  29
DOCKED: ATOM     29  P   UNL d   1      35.561  43.628  -2.104 -0.06 +0.35    +0.473 P 
DOCKED: ATOM     30  O   UNL d   1      35.842  43.901  -0.671 -0.68 -0.39    -0.228 OA
DOCKED: BRANCH  29  31
DOCKED: ATOM     31  O   UNL d   1      34.492  42.483  -2.429 -0.02 -0.15    -0.303 OA
DOCKED: ATOM     32  H   UNL d   1      34.127  42.641  -3.331 +0.01 +0.08    +0.222 HD
DOCKED: ENDBRANCH  29  31
DOCKED: BRANCH  29  33
DOCKED: ATOM     33  O   UNL d   1      36.801  43.220  -3.016 -0.02 -0.11    -0.303 OA
DOCKED: ATOM     34  H   UNL d   1      37.446  43.969  -3.035 +0.02 +0.08    +0.222 HD
DOCKED: ENDBRANCH  29  33
DOCKED: ENDBRANCH  28  29
DOCKED: ENDBRANCH   3  28
DOCKED: BRANCH   5  35
DOCKED: ATOM     35  O   UNL d   1      36.548  48.938  -4.358 -0.03 -0.06    -0.278 OA
DOCKED: BRANCH  35  36
DOCKED: ATOM     36  P   UNL d   1      37.857  49.829  -4.548 -0.01 +0.07    +0.473 P 
DOCKED: ATOM     37  O   UNL d   1      38.749  49.928  -3.351 -0.03 -0.04    -0.228 OA
DOCKED: BRANCH  36  38
DOCKED: ATOM     38  O   UNL d   1      38.536  49.144  -5.815 -0.00 -0.04    -0.303 OA
DOCKED: ATOM     39  H   UNL d   1      37.954  49.266  -6.596 +0.00 +0.02    +0.222 HD
DOCKED: ENDBRANCH  36  38
DOCKED: BRANCH  36  40
DOCKED: ATOM     40  O   UNL d   1      37.263  51.188  -5.121 -0.00 -0.04    -0.303 OA
DOCKED: ATOM     41  H   UNL d   1      36.429  51.040  -5.620 +0.01 +0.03    +0.222 HD
DOCKED: ENDBRANCH  36  40
DOCKED: ENDBRANCH  35  36
DOCKED: ENDBRANCH   5  35
DOCKED: BRANCH   4  42
DOCKED: ATOM     42  O   UNL d   1      37.255  46.534  -2.871 +0.07 -0.11    -0.278 OA
DOCKED: BRANCH  42  43
DOCKED: ATOM     43  P   UNL d   1      38.539  45.847  -3.523 -0.03 +0.12    +0.473 P 
DOCKED: ATOM     44  O   UNL d   1      39.344  44.938  -2.661 -0.03 -0.06    -0.228 OA
DOCKED: BRANCH  43  45
DOCKED: ATOM     45  O   UNL d   1      37.940  45.150  -4.822 -0.01 -0.06    -0.303 OA
DOCKED: ATOM     46  H   UNL d   1      37.797  44.193  -4.682 +0.01 +0.05    +0.222 HD
DOCKED: ENDBRANCH  43  45
DOCKED: BRANCH  43  47
DOCKED: ATOM     47  O   UNL d   1      39.336  47.086  -4.156 -0.01 -0.05    -0.303 OA
DOCKED: ATOM     48  H   UNL d   1      38.785  47.893  -4.086 +0.01 +0.04    +0.222 HD
DOCKED: ENDBRANCH  43  47
DOCKED: ENDBRANCH  42  43
DOCKED: ENDBRANCH   4  42
DOCKED: TORSDOF 24
DOCKED: TER
DOCKED: ENDMDL
________________________________________________________________________________


	BEGINNING GENETIC ALGORITHM DOCKING 75 of 100
Run: 75 Seed: 390844252 1215469088 [ Run 75 of 100 GA/GALS ]
Beginning LAMARCKIAN GENETIC ALGORITHM (LGA), with a maximum of 25000000 energy evaluations.

Final-Value: -16.761


	FINAL GENETIC ALGORITHM DOCKED STATE
	_______________________________________________


Detailed state:  trans 1.565 20.368 16.514 quatxyzw 0.314863 -0.273647 0.880346 0.225762 center 0.035 0.082 -0.065 ntor 24 -180.0000 -12.6233 111.3512 89.9327 79.2732 114.1458 -126.8896 -31.4181 87.5382 86.9726 104.9194 121.7998 -120.0226 95.6593 -134.8750 -166.9642 99.9452 36.7232 41.4321 -5.8613 -48.5157 6.0299 148.8240 -177.9772
State:	  1.565  20.368  16.514   0.323 -0.281  0.904 153.905   -180.00  -12.62  111.35   89.93   79.27  114.15 -126.89  -31.42   87.54   86.97  104.92  121.80 -120.02   95.66 -134.87 -166.96   99.95   36.72   41.43   -5.86  -48.52    6.03  148.82 -177.98

DOCKED: MODEL       75
DOCKED: USER    Run = 75
DOCKED: USER    DPF = D:/Protein_go_brrr/autodock/final/2DN3/IHP/dock.dpf
DOCKED: USER  
DOCKED: USER    Estimated Free Energy of Binding    =   +4.06 kcal/mol  [=(1)+(2)+(3)-(4)]
DOCKED: USER    
DOCKED: USER    (1) Final Intermolecular Energy     =   -3.10 kcal/mol
DOCKED: USER        vdW + Hbond + desolv Energy     =   -3.02 kcal/mol
DOCKED: USER        Electrostatic Energy            =   -0.09 kcal/mol
DOCKED: USER    (2) Final Total Internal Energy     =  -13.66 kcal/mol
DOCKED: USER    (3) Torsional Free Energy           =   +7.16 kcal/mol
DOCKED: USER    (4) Unbound System's Energy  [=(2)] =  -13.66 kcal/mol
DOCKED: USER    
DOCKED: USER    
DOCKED: USER    NEWDPF move IHP_ideal_opt.pdbqt
DOCKED: USER    NEWDPF about 0.035000 0.082000 -0.065000
DOCKED: USER    NEWDPF tran0 1.565210 20.367526 16.514060
DOCKED: USER    NEWDPF quaternion0 0.314863 -0.273647 0.880346 0.225762
DOCKED: USER    NEWDPF axisangle0 0.323208 -0.280899 0.903677 153.904618
DOCKED: USER    NEWDPF quat0 0.323208 -0.280899 0.903677 153.904618
DOCKED: USER    NEWDPF dihe0 -180.00 -12.62 111.35 89.93 79.27 114.15 -126.89 -31.42 87.54 86.97 104.92 121.80 -120.02 95.66 -134.87 -166.96 99.95 36.72 41.43 -5.86 -48.52 6.03 148.82 -177.98 
DOCKED: USER  keepresnum = 1 
DOCKED: USER  
DOCKED: REMARK  24 active torsions:
DOCKED: REMARK  status: ('A' for Active; 'I' for Inactive)
DOCKED: REMARK    1  A    between atoms: C_1  and  O_7 
DOCKED: REMARK    2  A    between atoms: C_2  and  O_12 
DOCKED: REMARK    3  A    between atoms: C_3  and  O_17 
DOCKED: REMARK    4  A    between atoms: C_4  and  O_22 
DOCKED: REMARK    5  A    between atoms: C_5  and  O_27 
DOCKED: REMARK    6  A    between atoms: C_6  and  O_32 
DOCKED: REMARK    7  A    between atoms: O_7  and  P_8 
DOCKED: REMARK    8  A    between atoms: P_8  and  O_10 
DOCKED: REMARK    9  A    between atoms: P_8  and  O_11 
DOCKED: REMARK   10  A    between atoms: O_12  and  P_13 
DOCKED: REMARK   11  A    between atoms: P_13  and  O_15 
DOCKED: REMARK   12  A    between atoms: P_13  and  O_16 
DOCKED: REMARK   13  A    between atoms: O_17  and  P_18 
DOCKED: REMARK   14  A    between atoms: P_18  and  O_20 
DOCKED: REMARK   15  A    between atoms: P_18  and  O_21 
DOCKED: REMARK   16  A    between atoms: O_22  and  P_23 
DOCKED: REMARK   17  A    between atoms: P_23  and  O_25 
DOCKED: REMARK   18  A    between atoms: P_23  and  O_26 
DOCKED: REMARK   19  A    between atoms: O_27  and  P_28 
DOCKED: REMARK   20  A    between atoms: P_28  and  O_30 
DOCKED: REMARK   21  A    between atoms: P_28  and  O_31 
DOCKED: REMARK   22  A    between atoms: O_32  and  P_33 
DOCKED: REMARK   23  A    between atoms: P_33  and  O_35 
DOCKED: REMARK   24  A    between atoms: P_33  and  O_36 
DOCKED: USER                              x       y       z     vdW  Elec       q    Type
DOCKED: USER                           _______ _______ _______ _____ _____    ______ ____
DOCKED: ROOT
DOCKED: ATOM      1  C   UNL d   1       1.025  20.049  18.124 -0.01 -0.00    +0.194 C 
DOCKED: ATOM      2  C   UNL d   1       1.467  21.487  17.847 -0.04 -0.01    +0.194 C 
DOCKED: ATOM      3  C   UNL d   1       2.753  21.536  17.019 -0.14 -0.01    +0.194 C 
DOCKED: ATOM      4  C   UNL d   1       2.679  20.699  15.745 -0.12 -0.04    +0.194 C 
DOCKED: ATOM      5  C   UNL d   1       2.134  19.292  15.956 -0.09 -0.02    +0.194 C 
DOCKED: ATOM      6  C   UNL d   1       0.883  19.239  16.835 -0.03 -0.01    +0.194 C 
DOCKED: ENDROOT
DOCKED: BRANCH   1   7
DOCKED: ATOM      7  O   UNL d   1      -0.262  20.090  18.745 -0.00 +0.00    -0.278 OA
DOCKED: BRANCH   7   8
DOCKED: ATOM      8  P   UNL d   1      -0.339  20.383  20.314 +0.00 -0.00    +0.473 P 
DOCKED: ATOM      9  O   UNL d   1       0.200  19.302  21.184 -0.00 -0.00    -0.228 OA
DOCKED: BRANCH   8  10
DOCKED: ATOM     10  O   UNL d   1       0.430  21.770  20.486 -0.00 +0.00    -0.303 OA
DOCKED: ATOM     11  H   UNL d   1       0.434  22.249  19.637 +0.01 -0.00    +0.222 HD
DOCKED: ENDBRANCH   8  10
DOCKED: BRANCH   8  12
DOCKED: ATOM     12  O   UNL d   1      -1.847  20.803  20.582 +0.00 +0.00    -0.303 OA
DOCKED: ATOM     13  H   UNL d   1      -2.131  21.581  20.051 +0.00 -0.00    +0.222 HD
DOCKED: ENDBRANCH   8  12
DOCKED: ENDBRANCH   7   8
DOCKED: ENDBRANCH   1   7
DOCKED: BRANCH   2  14
DOCKED: ATOM     14  O   UNL d   1       0.432  22.163  17.122 -0.03 +0.01    -0.278 OA
DOCKED: BRANCH  14  15
DOCKED: ATOM     15  P   UNL d   1      -0.102  23.537  17.748 -0.01 -0.02    +0.473 P 
DOCKED: ATOM     16  O   UNL d   1      -0.630  24.554  16.786 -0.02 +0.01    -0.228 OA
DOCKED: BRANCH  15  17
DOCKED: ATOM     17  O   UNL d   1      -1.188  23.078  18.820 -0.00 +0.01    -0.303 OA
DOCKED: ATOM     18  H   UNL d   1      -1.102  22.126  19.022 +0.00 -0.00    +0.222 HD
DOCKED: ENDBRANCH  15  17
DOCKED: BRANCH  15  19
DOCKED: ATOM     19  O   UNL d   1       1.084  24.031  18.687 -0.01 +0.01    -0.303 OA
DOCKED: ATOM     20  H   UNL d   1       1.953  23.742  18.352 +0.04 -0.01    +0.222 HD
DOCKED: ENDBRANCH  15  19
DOCKED: ENDBRANCH  14  15
DOCKED: ENDBRANCH   2  14
DOCKED: BRANCH   6  21
DOCKED: ATOM     21  O   UNL d   1       0.705  17.876  17.215 -0.00 +0.01    -0.278 OA
DOCKED: BRANCH  21  22
DOCKED: ATOM     22  P   UNL d   1      -0.762  17.321  17.508 +0.00 -0.01    +0.473 P 
DOCKED: ATOM     23  O   UNL d   1      -1.162  17.100  18.928 -0.00 -0.00    -0.228 OA
DOCKED: BRANCH  22  24
DOCKED: ATOM     24  O   UNL d   1      -1.668  18.361  16.713 -0.00 +0.01    -0.303 OA
DOCKED: ATOM     25  H   UNL d   1      -1.079  18.890  16.117 +0.01 -0.01    +0.222 HD
DOCKED: ENDBRANCH  22  24
DOCKED: BRANCH  22  26
DOCKED: ATOM     26  O   UNL d   1      -0.820  16.034  16.553 -0.00 +0.00    -0.303 OA
DOCKED: ATOM     27  H   UNL d   1      -0.689  16.316  15.625 +0.00 -0.01    +0.222 HD
DOCKED: ENDBRANCH  22  26
DOCKED: ENDBRANCH  21  22
DOCKED: ENDBRANCH   6  21
DOCKED: BRANCH   3  28
DOCKED: ATOM     28  O   UNL d   1       2.930  22.877  16.581 -0.17 +0.02    -0.278 OA
DOCKED: BRANCH  28  29
DOCKED: ATOM     29  P   UNL d   1       4.195  23.719  17.060 -0.15 -0.04    +0.473 P 
DOCKED: ATOM     30  O   UNL d   1       4.440  24.983  16.319 -0.34 +0.02    -0.228 OA
DOCKED: BRANCH  29  31
DOCKED: ATOM     31  O   UNL d   1       3.872  23.844  18.622 -0.11 -0.00    -0.303 OA
DOCKED: ATOM     32  H   UNL d   1       3.157  24.510  18.743 +0.07 -0.00    +0.222 HD
DOCKED: ENDBRANCH  29  31
DOCKED: BRANCH  29  33
DOCKED: ATOM     33  O   UNL d   1       5.354  22.628  17.026 -0.21 +0.04    -0.303 OA
DOCKED: ATOM     34  H   UNL d   1       5.132  21.943  16.349 -0.22 -0.06    +0.222 HD
DOCKED: ENDBRANCH  29  33
DOCKED: ENDBRANCH  28  29
DOCKED: ENDBRANCH   3  28
DOCKED: BRANCH   5  35
DOCKED: ATOM     35  O   UNL d   1       1.759  18.824  14.662 -0.07 +0.07    -0.278 OA
DOCKED: BRANCH  35  36
DOCKED: ATOM     36  P   UNL d   1       0.367  19.265  14.019 -0.06 -0.10    +0.473 P 
DOCKED: ATOM     37  O   UNL d   1       0.378  19.475  12.538 -0.21 +0.08    -0.228 OA
DOCKED: BRANCH  36  38
DOCKED: ATOM     38  O   UNL d   1      -0.602  18.100  14.508 -0.02 +0.03    -0.303 OA
DOCKED: ATOM     39  H   UNL d   1      -0.181  17.625  15.257 +0.02 -0.01    +0.222 HD
DOCKED: ENDBRANCH  36  38
DOCKED: BRANCH  36  40
DOCKED: ATOM     40  O   UNL d   1      -0.045  20.509  14.921 -0.08 +0.05    -0.303 OA
DOCKED: ATOM     41  H   UNL d   1       0.711  21.120  15.066 -0.00 -0.04    +0.222 HD
DOCKED: ENDBRANCH  36  40
DOCKED: ENDBRANCH  35  36
DOCKED: ENDBRANCH   5  35
DOCKED: BRANCH   4  42
DOCKED: ATOM     42  O   UNL d   1       4.020  20.563  15.260 -0.17 +0.07    -0.278 OA
DOCKED: BRANCH  42  43
DOCKED: ATOM     43  P   UNL d   1       5.040  19.637  16.064 -0.19 -0.01    +0.473 P 
DOCKED: ATOM     44  O   UNL d   1       4.989  18.172  15.804 -0.15 -0.01    -0.228 OA
DOCKED: BRANCH  43  45
DOCKED: ATOM     45  O   UNL d   1       6.447  20.307  15.742 -0.12 +0.01    -0.303 OA
DOCKED: ATOM     46  H   UNL d   1       6.363  21.274  15.620 -0.41 -0.08    +0.222 HD
DOCKED: ENDBRANCH  43  45
DOCKED: BRANCH  43  47
DOCKED: ATOM     47  O   UNL d   1       4.811  20.077  17.588 -0.08 -0.01    -0.303 OA
DOCKED: ATOM     48  H   UNL d   1       5.001  21.034  17.680 +0.09 -0.00    +0.222 HD
DOCKED: ENDBRANCH  43  47
DOCKED: ENDBRANCH  42  43
DOCKED: ENDBRANCH   4  42
DOCKED: TORSDOF 24
DOCKED: TER
DOCKED: ENDMDL
________________________________________________________________________________


	BEGINNING GENETIC ALGORITHM DOCKING 76 of 100
Run: 76 Seed: 330112898 2010359163 [ Run 76 of 100 GA/GALS ]
Beginning LAMARCKIAN GENETIC ALGORITHM (LGA), with a maximum of 25000000 energy evaluations.

Final-Value: -17.425


	FINAL GENETIC ALGORITHM DOCKED STATE
	_______________________________________________


Detailed state:  trans 29.187 59.266 14.251 quatxyzw 0.627715 0.012420 0.712171 -0.314058 center 0.035 0.082 -0.065 ntor 24 -170.9809 -20.0991 99.3837 92.6666 8.3742 -141.2534 -124.1645 -21.8688 82.3357 89.4036 158.1265 138.8143 66.0694 106.1963 -45.0720 -153.8057 109.7826 38.2329 -21.7192 -5.6387 -11.9939 5.9279 -6.8650 -7.4774
State:	 29.187  59.266  14.251   0.661  0.013  0.750 -143.392   -170.98  -20.10   99.38   92.67    8.37 -141.25 -124.16  -21.87   82.34   89.40  158.13  138.81   66.07  106.20  -45.07 -153.81  109.78   38.23  -21.72   -5.64  -11.99    5.93   -6.86   -7.48

DOCKED: MODEL       76
DOCKED: USER    Run = 76
DOCKED: USER    DPF = D:/Protein_go_brrr/autodock/final/2DN3/IHP/dock.dpf
DOCKED: USER  
DOCKED: USER    Estimated Free Energy of Binding    =   +5.32 kcal/mol  [=(1)+(2)+(3)-(4)]
DOCKED: USER    
DOCKED: USER    (1) Final Intermolecular Energy     =   -1.84 kcal/mol
DOCKED: USER        vdW + Hbond + desolv Energy     =   -1.78 kcal/mol
DOCKED: USER        Electrostatic Energy            =   -0.06 kcal/mol
DOCKED: USER    (2) Final Total Internal Energy     =  -15.59 kcal/mol
DOCKED: USER    (3) Torsional Free Energy           =   +7.16 kcal/mol
DOCKED: USER    (4) Unbound System's Energy  [=(2)] =  -15.59 kcal/mol
DOCKED: USER    
DOCKED: USER    
DOCKED: USER    NEWDPF move IHP_ideal_opt.pdbqt
DOCKED: USER    NEWDPF about 0.035000 0.082000 -0.065000
DOCKED: USER    NEWDPF tran0 29.186515 59.265560 14.251128
DOCKED: USER    NEWDPF quaternion0 0.627715 0.012420 0.712171 -0.314058
DOCKED: USER    NEWDPF axisangle0 0.661168 0.013082 0.750124 -143.392052
DOCKED: USER    NEWDPF quat0 0.661168 0.013082 0.750124 -143.392052
DOCKED: USER    NEWDPF dihe0 -170.98 -20.10 99.38 92.67 8.37 -141.25 -124.16 -21.87 82.34 89.40 158.13 138.81 66.07 106.20 -45.07 -153.81 109.78 38.23 -21.72 -5.64 -11.99 5.93 -6.86 -7.48 
DOCKED: USER  keepresnum = 1 
DOCKED: USER  
DOCKED: REMARK  24 active torsions:
DOCKED: REMARK  status: ('A' for Active; 'I' for Inactive)
DOCKED: REMARK    1  A    between atoms: C_1  and  O_7 
DOCKED: REMARK    2  A    between atoms: C_2  and  O_12 
DOCKED: REMARK    3  A    between atoms: C_3  and  O_17 
DOCKED: REMARK    4  A    between atoms: C_4  and  O_22 
DOCKED: REMARK    5  A    between atoms: C_5  and  O_27 
DOCKED: REMARK    6  A    between atoms: C_6  and  O_32 
DOCKED: REMARK    7  A    between atoms: O_7  and  P_8 
DOCKED: REMARK    8  A    between atoms: P_8  and  O_10 
DOCKED: REMARK    9  A    between atoms: P_8  and  O_11 
DOCKED: REMARK   10  A    between atoms: O_12  and  P_13 
DOCKED: REMARK   11  A    between atoms: P_13  and  O_15 
DOCKED: REMARK   12  A    between atoms: P_13  and  O_16 
DOCKED: REMARK   13  A    between atoms: O_17  and  P_18 
DOCKED: REMARK   14  A    between atoms: P_18  and  O_20 
DOCKED: REMARK   15  A    between atoms: P_18  and  O_21 
DOCKED: REMARK   16  A    between atoms: O_22  and  P_23 
DOCKED: REMARK   17  A    between atoms: P_23  and  O_25 
DOCKED: REMARK   18  A    between atoms: P_23  and  O_26 
DOCKED: REMARK   19  A    between atoms: O_27  and  P_28 
DOCKED: REMARK   20  A    between atoms: P_28  and  O_30 
DOCKED: REMARK   21  A    between atoms: P_28  and  O_31 
DOCKED: REMARK   22  A    between atoms: O_32  and  P_33 
DOCKED: REMARK   23  A    between atoms: P_33  and  O_35 
DOCKED: REMARK   24  A    between atoms: P_33  and  O_36 
DOCKED: USER                              x       y       z     vdW  Elec       q    Type
DOCKED: USER                           _______ _______ _______ _____ _____    ______ ____
DOCKED: ROOT
DOCKED: ATOM      1  C   UNL d   1      30.265  60.260  15.163 -0.01 +0.01    +0.194 C 
DOCKED: ATOM      2  C   UNL d   1      30.298  60.467  13.648 -0.01 +0.01    +0.194 C 
DOCKED: ATOM      3  C   UNL d   1      30.269  59.135  12.894 -0.06 +0.02    +0.194 C 
DOCKED: ATOM      4  C   UNL d   1      29.124  58.223  13.328 -0.07 +0.02    +0.194 C 
DOCKED: ATOM      5  C   UNL d   1      28.983  58.080  14.838 -0.05 +0.01    +0.194 C 
DOCKED: ATOM      6  C   UNL d   1      29.073  59.405  15.597 -0.02 +0.01    +0.194 C 
DOCKED: ENDROOT
DOCKED: BRANCH   1   7
DOCKED: ATOM      7  O   UNL d   1      30.120  61.540  15.785 -0.00 -0.01    -0.278 OA
DOCKED: BRANCH   7   8
DOCKED: ATOM      8  P   UNL d   1      30.872  61.800  17.170 +0.00 +0.02    +0.473 P 
DOCKED: ATOM      9  O   UNL d   1      31.894  62.882  17.139 -0.00 -0.01    -0.228 OA
DOCKED: BRANCH   8  10
DOCKED: ATOM     10  O   UNL d   1      29.691  62.081  18.204 -0.00 -0.01    -0.303 OA
DOCKED: ATOM     11  H   UNL d   1      28.899  61.577  17.941 +0.00 +0.01    +0.222 HD
DOCKED: ENDBRANCH   8  10
DOCKED: BRANCH   8  12
DOCKED: ATOM     12  O   UNL d   1      31.388  60.372  17.635 -0.00 -0.02    -0.303 OA
DOCKED: ATOM     13  H   UNL d   1      30.658  59.747  17.843 +0.01 +0.01    +0.222 HD
DOCKED: ENDBRANCH   8  12
DOCKED: ENDBRANCH   7   8
DOCKED: ENDBRANCH   1   7
DOCKED: BRANCH   2  14
DOCKED: ATOM     14  O   UNL d   1      29.154  61.237  13.257 -0.00 -0.01    -0.278 OA
DOCKED: BRANCH  14  15
DOCKED: ATOM     15  P   UNL d   1      29.442  62.563  12.406 +0.00 +0.02    +0.473 P 
DOCKED: ATOM     16  O   UNL d   1      28.289  63.135  11.643 +0.00 -0.01    -0.228 OA
DOCKED: BRANCH  15  17
DOCKED: ATOM     17  O   UNL d   1      30.046  63.583  13.470 +0.00 -0.01    -0.303 OA
DOCKED: ATOM     18  H   UNL d   1      30.150  63.160  14.343 +0.00 +0.01    +0.222 HD
DOCKED: ENDBRANCH  15  17
DOCKED: BRANCH  15  19
DOCKED: ATOM     19  O   UNL d   1      30.728  62.207  11.540 +0.00 -0.01    -0.303 OA
DOCKED: ATOM     20  H   UNL d   1      30.747  61.264  11.293 +0.01 +0.01    +0.222 HD
DOCKED: ENDBRANCH  15  19
DOCKED: ENDBRANCH  14  15
DOCKED: ENDBRANCH   2  14
DOCKED: BRANCH   6  21
DOCKED: ATOM     21  O   UNL d   1      29.269  59.081  16.971 -0.01 -0.02    -0.278 OA
DOCKED: BRANCH  21  22
DOCKED: ATOM     22  P   UNL d   1      28.140  59.442  18.039 -0.00 +0.02    +0.473 P 
DOCKED: ATOM     23  O   UNL d   1      27.071  60.400  17.637 -0.00 -0.01    -0.228 OA
DOCKED: BRANCH  22  24
DOCKED: ATOM     24  O   UNL d   1      27.619  57.999  18.462 -0.00 -0.02    -0.303 OA
DOCKED: ATOM     25  H   UNL d   1      27.305  57.533  17.645 +0.01 +0.01    +0.222 HD
DOCKED: ENDBRANCH  22  24
DOCKED: BRANCH  22  26
DOCKED: ATOM     26  O   UNL d   1      29.019  59.863  19.312 -0.00 -0.02    -0.303 OA
DOCKED: ATOM     27  H   UNL d   1      29.748  60.447  19.021 +0.00 +0.01    +0.222 HD
DOCKED: ENDBRANCH  22  26
DOCKED: ENDBRANCH  21  22
DOCKED: ENDBRANCH   6  21
DOCKED: BRANCH   3  28
DOCKED: ATOM     28  O   UNL d   1      30.023  59.424  11.524 -0.02 -0.02    -0.278 OA
DOCKED: BRANCH  28  29
DOCKED: ATOM     29  P   UNL d   1      31.115  59.074  10.419 -0.05 +0.06    +0.473 P 
DOCKED: ATOM     30  O   UNL d   1      30.750  59.427   9.023 -0.04 -0.02    -0.228 OA
DOCKED: BRANCH  29  31
DOCKED: ATOM     31  O   UNL d   1      32.390  59.812  11.044 -0.02 -0.03    -0.303 OA
DOCKED: ATOM     32  H   UNL d   1      32.273  60.784  10.939 +0.02 +0.02    +0.222 HD
DOCKED: ENDBRANCH  29  31
DOCKED: BRANCH  29  33
DOCKED: ATOM     33  O   UNL d   1      31.414  57.540  10.719 -0.37 -0.07    -0.303 OA
DOCKED: ATOM     34  H   UNL d   1      30.571  57.093  10.979 +0.08 +0.05    +0.222 HD
DOCKED: ENDBRANCH  29  33
DOCKED: ENDBRANCH  28  29
DOCKED: ENDBRANCH   3  28
DOCKED: BRANCH   5  35
DOCKED: ATOM     35  O   UNL d   1      27.673  57.560  15.056 -0.03 -0.01    -0.278 OA
DOCKED: BRANCH  35  36
DOCKED: ATOM     36  P   UNL d   1      27.472  56.203  15.872 -0.04 +0.01    +0.473 P 
DOCKED: ATOM     37  O   UNL d   1      26.150  56.052  16.555 -0.02 -0.00    -0.228 OA
DOCKED: BRANCH  36  38
DOCKED: ATOM     38  O   UNL d   1      27.761  55.106  14.755 -0.14 +0.02    -0.303 OA
DOCKED: ATOM     39  H   UNL d   1      28.162  55.542  13.972 +0.05 -0.01    +0.222 HD
DOCKED: ENDBRANCH  36  38
DOCKED: BRANCH  36  40
DOCKED: ATOM     40  O   UNL d   1      28.769  56.164  16.792 -0.07 -0.02    -0.303 OA
DOCKED: ATOM     41  H   UNL d   1      28.922  57.025  17.241 +0.03 +0.02    +0.222 HD
DOCKED: ENDBRANCH  36  40
DOCKED: ENDBRANCH  35  36
DOCKED: ENDBRANCH   5  35
DOCKED: BRANCH   4  42
DOCKED: ATOM     42  O   UNL d   1      29.411  56.921  12.806 -0.08 -0.04    -0.278 OA
DOCKED: BRANCH  42  43
DOCKED: ATOM     43  P   UNL d   1      28.393  56.263  11.770 -0.14 +0.03    +0.473 P 
DOCKED: ATOM     44  O   UNL d   1      28.534  56.638  10.336 -0.11 -0.03    -0.228 OA
DOCKED: BRANCH  43  45
DOCKED: ATOM     45  O   UNL d   1      28.560  54.707  12.057 -0.29 +0.04    -0.303 OA
DOCKED: ATOM     46  H   UNL d   1      27.992  54.416  12.797 -0.32 -0.09    +0.222 HD
DOCKED: ENDBRANCH  43  45
DOCKED: BRANCH  43  47
DOCKED: ATOM     47  O   UNL d   1      26.960  56.562  12.425 -0.05 +0.00    -0.303 OA
DOCKED: ATOM     48  H   UNL d   1      27.008  56.406  13.391 +0.05 -0.00    +0.222 HD
DOCKED: ENDBRANCH  43  47
DOCKED: ENDBRANCH  42  43
DOCKED: ENDBRANCH   4  42
DOCKED: TORSDOF 24
DOCKED: TER
DOCKED: ENDMDL
________________________________________________________________________________


	BEGINNING GENETIC ALGORITHM DOCKING 77 of 100
Run: 77 Seed: 267040268 249455022 [ Run 77 of 100 GA/GALS ]
Beginning LAMARCKIAN GENETIC ALGORITHM (LGA), with a maximum of 25000000 energy evaluations.

Final-Value: -16.770


	FINAL GENETIC ALGORITHM DOCKED STATE
	_______________________________________________


Detailed state:  trans 4.777 18.645 -8.270 quatxyzw 0.584496 0.006684 0.302971 0.752681 center 0.035 0.082 -0.065 ntor 24 176.2336 102.0828 65.8796 54.9700 65.2002 179.9895 36.9039 -69.6819 89.9730 -46.4470 67.8099 148.7653 -57.4103 160.1306 138.3079 93.0516 42.9146 180.0000 12.1681 -19.4208 -18.6462 -24.8513 -179.7924 20.3114
State:	  4.777  18.645  -8.270   0.888  0.010  0.460 82.354    176.23  102.08   65.88   54.97   65.20  179.99   36.90  -69.68   89.97  -46.45   67.81  148.77  -57.41  160.13  138.31   93.05   42.91  180.00   12.17  -19.42  -18.65  -24.85 -179.79   20.31

DOCKED: MODEL       77
DOCKED: USER    Run = 77
DOCKED: USER    DPF = D:/Protein_go_brrr/autodock/final/2DN3/IHP/dock.dpf
DOCKED: USER  
DOCKED: USER    Estimated Free Energy of Binding    =   +4.84 kcal/mol  [=(1)+(2)+(3)-(4)]
DOCKED: USER    
DOCKED: USER    (1) Final Intermolecular Energy     =   -2.32 kcal/mol
DOCKED: USER        vdW + Hbond + desolv Energy     =   -2.12 kcal/mol
DOCKED: USER        Electrostatic Energy            =   -0.21 kcal/mol
DOCKED: USER    (2) Final Total Internal Energy     =  -14.45 kcal/mol
DOCKED: USER    (3) Torsional Free Energy           =   +7.16 kcal/mol
DOCKED: USER    (4) Unbound System's Energy  [=(2)] =  -14.45 kcal/mol
DOCKED: USER    
DOCKED: USER    
DOCKED: USER    NEWDPF move IHP_ideal_opt.pdbqt
DOCKED: USER    NEWDPF about 0.035000 0.082000 -0.065000
DOCKED: USER    NEWDPF tran0 4.776930 18.644835 -8.270463
DOCKED: USER    NEWDPF quaternion0 0.584496 0.006684 0.302971 0.752681
DOCKED: USER    NEWDPF axisangle0 0.887772 0.010153 0.460172 82.353745
DOCKED: USER    NEWDPF quat0 0.887772 0.010153 0.460172 82.353745
DOCKED: USER    NEWDPF dihe0 176.23 102.08 65.88 54.97 65.20 179.99 36.90 -69.68 89.97 -46.45 67.81 148.77 -57.41 160.13 138.31 93.05 42.91 180.00 12.17 -19.42 -18.65 -24.85 -179.79 20.31 
DOCKED: USER  keepresnum = 1 
DOCKED: USER  
DOCKED: REMARK  24 active torsions:
DOCKED: REMARK  status: ('A' for Active; 'I' for Inactive)
DOCKED: REMARK    1  A    between atoms: C_1  and  O_7 
DOCKED: REMARK    2  A    between atoms: C_2  and  O_12 
DOCKED: REMARK    3  A    between atoms: C_3  and  O_17 
DOCKED: REMARK    4  A    between atoms: C_4  and  O_22 
DOCKED: REMARK    5  A    between atoms: C_5  and  O_27 
DOCKED: REMARK    6  A    between atoms: C_6  and  O_32 
DOCKED: REMARK    7  A    between atoms: O_7  and  P_8 
DOCKED: REMARK    8  A    between atoms: P_8  and  O_10 
DOCKED: REMARK    9  A    between atoms: P_8  and  O_11 
DOCKED: REMARK   10  A    between atoms: O_12  and  P_13 
DOCKED: REMARK   11  A    between atoms: P_13  and  O_15 
DOCKED: REMARK   12  A    between atoms: P_13  and  O_16 
DOCKED: REMARK   13  A    between atoms: O_17  and  P_18 
DOCKED: REMARK   14  A    between atoms: P_18  and  O_20 
DOCKED: REMARK   15  A    between atoms: P_18  and  O_21 
DOCKED: REMARK   16  A    between atoms: O_22  and  P_23 
DOCKED: REMARK   17  A    between atoms: P_23  and  O_25 
DOCKED: REMARK   18  A    between atoms: P_23  and  O_26 
DOCKED: REMARK   19  A    between atoms: O_27  and  P_28 
DOCKED: REMARK   20  A    between atoms: P_28  and  O_30 
DOCKED: REMARK   21  A    between atoms: P_28  and  O_31 
DOCKED: REMARK   22  A    between atoms: O_32  and  P_33 
DOCKED: REMARK   23  A    between atoms: P_33  and  O_35 
DOCKED: REMARK   24  A    between atoms: P_33  and  O_36 
DOCKED: USER                              x       y       z     vdW  Elec       q    Type
DOCKED: USER                           _______ _______ _______ _____ _____    ______ ____
DOCKED: ROOT
DOCKED: ATOM      1  C   UNL d   1       5.660  18.664  -6.786 -0.09 +0.01    +0.194 C 
DOCKED: ATOM      2  C   UNL d   1       4.141  18.790  -6.653 -0.06 -0.03    +0.194 C 
DOCKED: ATOM      3  C   UNL d   1       3.559  19.748  -7.695 -0.06 -0.12    +0.194 C 
DOCKED: ATOM      4  C   UNL d   1       3.988  19.417  -9.122 -0.03 -0.09    +0.194 C 
DOCKED: ATOM      5  C   UNL d   1       5.483  19.169  -9.279 -0.09 -0.00    +0.194 C 
DOCKED: ATOM      6  C   UNL d   1       6.077  18.261  -8.201 -0.07 +0.04    +0.194 C 
DOCKED: ENDROOT
DOCKED: BRANCH   1   7
DOCKED: ATOM      7  O   UNL d   1       6.101  17.631  -5.901 -0.04 -0.08    -0.278 OA
DOCKED: BRANCH   7   8
DOCKED: ATOM      8  P   UNL d   1       6.954  18.046  -4.616 -0.12 +0.25    +0.473 P 
DOCKED: ATOM      9  O   UNL d   1       7.323  19.486  -4.541 -0.26 -0.07    -0.228 OA
DOCKED: BRANCH   8  10
DOCKED: ATOM     10  O   UNL d   1       6.062  17.561  -3.386 -0.20 -0.20    -0.303 OA
DOCKED: ATOM     11  H   UNL d   1       5.409  16.905  -3.694 +0.06 +0.13    +0.222 HD
DOCKED: ENDBRANCH   8  10
DOCKED: BRANCH   8  12
DOCKED: ATOM     12  O   UNL d   1       8.164  17.017  -4.574 -0.47 -0.36    -0.303 OA
DOCKED: ATOM     13  H   UNL d   1       8.700  17.018  -5.400 +0.06 +0.19    +0.222 HD
DOCKED: ENDBRANCH   8  12
DOCKED: ENDBRANCH   7   8
DOCKED: ENDBRANCH   1   7
DOCKED: BRANCH   2  14
DOCKED: ATOM     14  O   UNL d   1       3.548  17.499  -6.837 -0.00 +0.00    -0.278 OA
DOCKED: BRANCH  14  15
DOCKED: ATOM     15  P   UNL d   1       2.856  16.840  -5.553 +0.02 +0.03    +0.473 P 
DOCKED: ATOM     16  O   UNL d   1       2.972  15.354  -5.415 +0.00 -0.03    -0.228 OA
DOCKED: BRANCH  15  17
DOCKED: ATOM     17  O   UNL d   1       3.494  17.625  -4.322 -0.02 -0.04    -0.303 OA
DOCKED: ATOM     18  H   UNL d   1       4.400  17.925  -4.529 +0.06 +0.04    +0.222 HD
DOCKED: ENDBRANCH  15  17
DOCKED: BRANCH  15  19
DOCKED: ATOM     19  O   UNL d   1       1.372  17.413  -5.563 +0.00 +0.00    -0.303 OA
DOCKED: ATOM     20  H   UNL d   1       1.244  18.069  -6.273 +0.01 -0.01    +0.222 HD
DOCKED: ENDBRANCH  15  19
DOCKED: ENDBRANCH  14  15
DOCKED: ENDBRANCH   2  14
DOCKED: BRANCH   6  21
DOCKED: ATOM     21  O   UNL d   1       7.494  18.404  -8.276 -0.46 -0.19    -0.278 OA
DOCKED: BRANCH  21  22
DOCKED: ATOM     22  P   UNL d   1       8.405  17.125  -8.561 -0.04 +0.20    +0.473 P 
DOCKED: ATOM     23  O   UNL d   1       9.842  17.344  -8.892 -0.10 -0.08    -0.228 OA
DOCKED: BRANCH  22  24
DOCKED: ATOM     24  O   UNL d   1       8.145  16.245  -7.260 -0.05 -0.12    -0.303 OA
DOCKED: ATOM     25  H   UNL d   1       7.525  16.743  -6.669 +0.05 +0.10    +0.222 HD
DOCKED: ENDBRANCH  22  24
DOCKED: BRANCH  22  26
DOCKED: ATOM     26  O   UNL d   1       7.539  16.348  -9.665 -0.00 -0.07    -0.303 OA
DOCKED: ATOM     27  H   UNL d   1       6.772  16.900  -9.919 +0.02 +0.05    +0.222 HD
DOCKED: ENDBRANCH  22  26
DOCKED: ENDBRANCH  21  22
DOCKED: ENDBRANCH   6  21
DOCKED: BRANCH   3  28
DOCKED: ATOM     28  O   UNL d   1       2.146  19.590  -7.680 -0.04 +0.10    -0.278 OA
DOCKED: BRANCH  28  29
DOCKED: ATOM     29  P   UNL d   1       1.256  20.409  -6.644 -0.04 -0.17    +0.473 P 
DOCKED: ATOM     30  O   UNL d   1       1.217  21.879  -6.855 -0.11 +0.15    -0.228 OA
DOCKED: BRANCH  29  31
DOCKED: ATOM     31  O   UNL d   1      -0.129  19.619  -6.779 -0.00 +0.04    -0.303 OA
DOCKED: ATOM     32  H   UNL d   1      -0.127  18.871  -6.138 +0.01 -0.02    +0.222 HD
DOCKED: ENDBRANCH  29  31
DOCKED: BRANCH  29  33
DOCKED: ATOM     33  O   UNL d   1       1.817  19.898  -5.244 -0.04 +0.06    -0.303 OA
DOCKED: ATOM     34  H   UNL d   1       2.409  19.122  -5.399 +0.04 -0.03    +0.222 HD
DOCKED: ENDBRANCH  29  33
DOCKED: ENDBRANCH  28  29
DOCKED: ENDBRANCH   3  28
DOCKED: BRANCH   5  35
DOCKED: ATOM     35  O   UNL d   1       5.635  18.495 -10.527 -0.03 -0.04    -0.278 OA
DOCKED: BRANCH  35  36
DOCKED: ATOM     36  P   UNL d   1       4.729  17.228 -10.872 +0.01 +0.02    +0.473 P 
DOCKED: ATOM     37  O   UNL d   1       3.409  17.533 -11.506 +0.00 +0.00    -0.228 OA
DOCKED: BRANCH  36  38
DOCKED: ATOM     38  O   UNL d   1       5.709  16.364 -11.783 +0.00 -0.03    -0.303 OA
DOCKED: ATOM     39  H   UNL d   1       6.634  16.651 -11.621 +0.01 +0.03    +0.222 HD
DOCKED: ENDBRANCH  36  38
DOCKED: BRANCH  36  40
DOCKED: ATOM     40  O   UNL d   1       4.701  16.443  -9.489 +0.01 -0.02    -0.303 OA
DOCKED: ATOM     41  H   UNL d   1       5.457  15.820  -9.408 +0.01 +0.03    +0.222 HD
DOCKED: ENDBRANCH  36  40
DOCKED: ENDBRANCH  35  36
DOCKED: ENDBRANCH   5  35
DOCKED: BRANCH   4  42
DOCKED: ATOM     42  O   UNL d   1       3.663  20.555  -9.928 -0.04 +0.23    -0.278 OA
DOCKED: BRANCH  42  43
DOCKED: ATOM     43  P   UNL d   1       2.233  20.618 -10.631 -0.02 -0.18    +0.473 P 
DOCKED: ATOM     44  O   UNL d   1       2.189  21.026 -12.063 -0.01 +0.04    -0.228 OA
DOCKED: BRANCH  43  45
DOCKED: ATOM     45  O   UNL d   1       1.640  19.168 -10.349 -0.00 +0.05    -0.303 OA
DOCKED: ATOM     46  H   UNL d   1       2.298  18.592  -9.911 +0.01 -0.03    +0.222 HD
DOCKED: ENDBRANCH  43  45
DOCKED: BRANCH  43  47
DOCKED: ATOM     47  O   UNL d   1       1.371  21.523  -9.628 -0.05 +0.16    -0.303 OA
DOCKED: ATOM     48  H   UNL d   1       1.680  21.372  -8.711 +0.01 -0.16    +0.222 HD
DOCKED: ENDBRANCH  43  47
DOCKED: ENDBRANCH  42  43
DOCKED: ENDBRANCH   4  42
DOCKED: TORSDOF 24
DOCKED: TER
DOCKED: ENDMDL
________________________________________________________________________________


	BEGINNING GENETIC ALGORITHM DOCKING 78 of 100
Run: 78 Seed: 1473817975 1112970590 [ Run 78 of 100 GA/GALS ]
Beginning LAMARCKIAN GENETIC ALGORITHM (LGA), with a maximum of 25000000 energy evaluations.

Final-Value: -17.323


	FINAL GENETIC ALGORITHM DOCKED STATE
	_______________________________________________


Detailed state:  trans 42.906 16.376 14.453 quatxyzw 0.118804 0.964361 -0.183389 0.149202 center 0.035 0.082 -0.065 ntor 24 49.6365 72.0000 110.3813 110.8787 -13.5219 -180.0000 23.8501 -102.2635 91.1767 64.8534 82.3305 -52.9570 -29.4479 114.1971 -178.7490 -45.2571 107.6591 41.0020 46.6623 3.7548 169.5880 144.0668 -9.7356 -174.5067
State:	 42.906  16.376  14.453   0.120  0.975 -0.185 162.839     49.64   72.00  110.38  110.88  -13.52 -180.00   23.85 -102.26   91.18   64.85   82.33  -52.96  -29.45  114.20 -178.75  -45.26  107.66   41.00   46.66    3.75  169.59  144.07   -9.74 -174.51

DOCKED: MODEL       78
DOCKED: USER    Run = 78
DOCKED: USER    DPF = D:/Protein_go_brrr/autodock/final/2DN3/IHP/dock.dpf
DOCKED: USER  
DOCKED: USER    Estimated Free Energy of Binding    =   +3.21 kcal/mol  [=(1)+(2)+(3)-(4)]
DOCKED: USER    
DOCKED: USER    (1) Final Intermolecular Energy     =   -3.95 kcal/mol
DOCKED: USER        vdW + Hbond + desolv Energy     =   -3.83 kcal/mol
DOCKED: USER        Electrostatic Energy            =   -0.12 kcal/mol
DOCKED: USER    (2) Final Total Internal Energy     =  -13.37 kcal/mol
DOCKED: USER    (3) Torsional Free Energy           =   +7.16 kcal/mol
DOCKED: USER    (4) Unbound System's Energy  [=(2)] =  -13.37 kcal/mol
DOCKED: USER    
DOCKED: USER    
DOCKED: USER    NEWDPF move IHP_ideal_opt.pdbqt
DOCKED: USER    NEWDPF about 0.035000 0.082000 -0.065000
DOCKED: USER    NEWDPF tran0 42.905936 16.375865 14.452901
DOCKED: USER    NEWDPF quaternion0 0.118804 0.964361 -0.183389 0.149202
DOCKED: USER    NEWDPF axisangle0 0.120149 0.975278 -0.185465 162.838582
DOCKED: USER    NEWDPF quat0 0.120149 0.975278 -0.185465 162.838582
DOCKED: USER    NEWDPF dihe0 49.64 72.00 110.38 110.88 -13.52 -180.00 23.85 -102.26 91.18 64.85 82.33 -52.96 -29.45 114.20 -178.75 -45.26 107.66 41.00 46.66 3.75 169.59 144.07 -9.74 -174.51 
DOCKED: USER  keepresnum = 1 
DOCKED: USER  
DOCKED: REMARK  24 active torsions:
DOCKED: REMARK  status: ('A' for Active; 'I' for Inactive)
DOCKED: REMARK    1  A    between atoms: C_1  and  O_7 
DOCKED: REMARK    2  A    between atoms: C_2  and  O_12 
DOCKED: REMARK    3  A    between atoms: C_3  and  O_17 
DOCKED: REMARK    4  A    between atoms: C_4  and  O_22 
DOCKED: REMARK    5  A    between atoms: C_5  and  O_27 
DOCKED: REMARK    6  A    between atoms: C_6  and  O_32 
DOCKED: REMARK    7  A    between atoms: O_7  and  P_8 
DOCKED: REMARK    8  A    between atoms: P_8  and  O_10 
DOCKED: REMARK    9  A    between atoms: P_8  and  O_11 
DOCKED: REMARK   10  A    between atoms: O_12  and  P_13 
DOCKED: REMARK   11  A    between atoms: P_13  and  O_15 
DOCKED: REMARK   12  A    between atoms: P_13  and  O_16 
DOCKED: REMARK   13  A    between atoms: O_17  and  P_18 
DOCKED: REMARK   14  A    between atoms: P_18  and  O_20 
DOCKED: REMARK   15  A    between atoms: P_18  and  O_21 
DOCKED: REMARK   16  A    between atoms: O_22  and  P_23 
DOCKED: REMARK   17  A    between atoms: P_23  and  O_25 
DOCKED: REMARK   18  A    between atoms: P_23  and  O_26 
DOCKED: REMARK   19  A    between atoms: O_27  and  P_28 
DOCKED: REMARK   20  A    between atoms: P_28  and  O_30 
DOCKED: REMARK   21  A    between atoms: P_28  and  O_31 
DOCKED: REMARK   22  A    between atoms: O_32  and  P_33 
DOCKED: REMARK   23  A    between atoms: P_33  and  O_35 
DOCKED: REMARK   24  A    between atoms: P_33  and  O_36 
DOCKED: USER                              x       y       z     vdW  Elec       q    Type
DOCKED: USER                           _______ _______ _______ _____ _____    ______ ____
DOCKED: ROOT
DOCKED: ATOM      1  C   UNL d   1      41.327  15.677  14.402 -0.15 +0.02    +0.194 C 
DOCKED: ATOM      2  C   UNL d   1      42.466  14.713  14.738 -0.07 +0.03    +0.194 C 
DOCKED: ATOM      3  C   UNL d   1      43.687  14.944  13.844 -0.02 +0.03    +0.194 C 
DOCKED: ATOM      4  C   UNL d   1      44.149  16.399  13.822 -0.03 +0.04    +0.194 C 
DOCKED: ATOM      5  C   UNL d   1      43.025  17.404  13.604 -0.09 +0.04    +0.194 C 
DOCKED: ATOM      6  C   UNL d   1      41.781  17.136  14.454 -0.21 +0.02    +0.194 C 
DOCKED: ENDROOT
DOCKED: BRANCH   1   7
DOCKED: ATOM      7  O   UNL d   1      40.301  15.514  15.384 -0.18 -0.01    -0.278 OA
DOCKED: BRANCH   7   8
DOCKED: ATOM      8  P   UNL d   1      39.359  14.228  15.292 -0.13 +0.04    +0.473 P 
DOCKED: ATOM      9  O   UNL d   1      39.931  13.079  14.538 -0.05 -0.02    -0.228 OA
DOCKED: BRANCH   8  10
DOCKED: ATOM     10  O   UNL d   1      39.031  13.879  16.814 -0.06 -0.04    -0.303 OA
DOCKED: ATOM     11  H   UNL d   1      39.507  13.068  17.073 +0.05 +0.03    +0.222 HD
DOCKED: ENDBRANCH   8  10
DOCKED: BRANCH   8  12
DOCKED: ATOM     12  O   UNL d   1      37.962  14.775  14.769 -0.18 -0.02    -0.303 OA
DOCKED: ATOM     13  H   UNL d   1      38.047  15.596  14.233 -0.43 -0.00    +0.222 HD
DOCKED: ENDBRANCH   8  12
DOCKED: ENDBRANCH   7   8
DOCKED: ENDBRANCH   1   7
DOCKED: BRANCH   2  14
DOCKED: ATOM     14  O   UNL d   1      42.857  14.908  16.103 -0.09 -0.06    -0.278 OA
DOCKED: BRANCH  14  15
DOCKED: ATOM     15  P   UNL d   1      43.087  13.587  16.978 -0.03 +0.08    +0.473 P 
DOCKED: ATOM     16  O   UNL d   1      43.720  13.773  18.321 -0.09 -0.04    -0.228 OA
DOCKED: BRANCH  15  17
DOCKED: ATOM     17  O   UNL d   1      41.642  12.922  17.063 -0.08 -0.05    -0.303 OA
DOCKED: ATOM     18  H   UNL d   1      41.036  13.313  16.405 +0.04 +0.03    +0.222 HD
DOCKED: ENDBRANCH  15  17
DOCKED: BRANCH  15  19
DOCKED: ATOM     19  O   UNL d   1      43.842  12.588  15.996 -0.01 -0.04    -0.303 OA
DOCKED: ATOM     20  H   UNL d   1      44.619  13.008  15.583 +0.01 +0.03    +0.222 HD
DOCKED: ENDBRANCH  15  19
DOCKED: ENDBRANCH  14  15
DOCKED: ENDBRANCH   2  14
DOCKED: BRANCH   6  21
DOCKED: ATOM     21  O   UNL d   1      40.727  17.922  13.901 -0.27 -0.01    -0.278 OA
DOCKED: BRANCH  21  22
DOCKED: ATOM     22  P   UNL d   1      40.161  17.578  12.450 -0.19 +0.04    +0.473 P 
DOCKED: ATOM     23  O   UNL d   1      39.645  18.698  11.611 -0.26 -0.03    -0.228 OA
DOCKED: BRANCH  22  24
DOCKED: ATOM     24  O   UNL d   1      41.372  16.768  11.811 -0.05 -0.04    -0.303 OA
DOCKED: ATOM     25  H   UNL d   1      42.052  17.421  11.504 +0.08 +0.03    +0.222 HD
DOCKED: ENDBRANCH  22  24
DOCKED: BRANCH  22  26
DOCKED: ATOM     26  O   UNL d   1      39.116  16.406  12.778 -0.23 -0.02    -0.303 OA
DOCKED: ATOM     27  H   UNL d   1      39.047  16.299  13.749 -0.26 -0.04    +0.222 HD
DOCKED: ENDBRANCH  22  26
DOCKED: ENDBRANCH  21  22
DOCKED: ENDBRANCH   6  21
DOCKED: BRANCH   3  28
DOCKED: ATOM     28  O   UNL d   1      44.771  14.212  14.401 -0.01 -0.05    -0.278 OA
DOCKED: BRANCH  28  29
DOCKED: ATOM     29  P   UNL d   1      45.936  14.968  15.180 +0.00 +0.11    +0.473 P 
DOCKED: ATOM     30  O   UNL d   1      46.852  15.776  14.336 -0.00 -0.06    -0.228 OA
DOCKED: BRANCH  29  31
DOCKED: ATOM     31  O   UNL d   1      45.074  15.754  16.276 -0.03 -0.08    -0.303 OA
DOCKED: ATOM     32  H   UNL d   1      44.787  15.115  16.968 +0.04 +0.05    +0.222 HD
DOCKED: ENDBRANCH  29  31
DOCKED: BRANCH  29  33
DOCKED: ATOM     33  O   UNL d   1      46.590  13.789  16.028 -0.00 -0.05    -0.303 OA
DOCKED: ATOM     34  H   UNL d   1      45.870  13.235  16.417 +0.01 +0.04    +0.222 HD
DOCKED: ENDBRANCH  29  33
DOCKED: ENDBRANCH  28  29
DOCKED: ENDBRANCH   3  28
DOCKED: BRANCH   5  35
DOCKED: ATOM     35  O   UNL d   1      43.549  18.665  14.014 -0.09 -0.08    -0.278 OA
DOCKED: BRANCH  35  36
DOCKED: ATOM     36  P   UNL d   1      43.619  19.881  12.983 -0.19 +0.14    +0.473 P 
DOCKED: ATOM     37  O   UNL d   1      43.545  21.246  13.590 -0.28 -0.10    -0.228 OA
DOCKED: BRANCH  36  38
DOCKED: ATOM     38  O   UNL d   1      44.981  19.579  12.215 -0.21 -0.11    -0.303 OA
DOCKED: ATOM     39  H   UNL d   1      45.204  18.629  12.319 +0.07 +0.08    +0.222 HD
DOCKED: ENDBRANCH  36  38
DOCKED: BRANCH  36  40
DOCKED: ATOM     40  O   UNL d   1      42.492  19.497  11.929 -0.20 -0.02    -0.303 OA
DOCKED: ATOM     41  H   UNL d   1      41.822  18.890  12.316 +0.11 +0.03    +0.222 HD
DOCKED: ENDBRANCH  36  40
DOCKED: ENDBRANCH  35  36
DOCKED: ENDBRANCH   5  35
DOCKED: BRANCH   4  42
DOCKED: ATOM     42  O   UNL d   1      45.052  16.531  12.719 -0.01 -0.07    -0.278 OA
DOCKED: BRANCH  42  43
DOCKED: ATOM     43  P   UNL d   1      44.461  16.553  11.237 +0.00 +0.10    +0.473 P 
DOCKED: ATOM     44  O   UNL d   1      44.024  17.869  10.692 -0.09 -0.05    -0.228 OA
DOCKED: BRANCH  43  45
DOCKED: ATOM     45  O   UNL d   1      45.610  15.847  10.393 -0.00 -0.07    -0.303 OA
DOCKED: ATOM     46  H   UNL d   1      46.292  15.456  10.974 +0.01 +0.05    +0.222 HD
DOCKED: ENDBRANCH  43  45
DOCKED: BRANCH  43  47
DOCKED: ATOM     47  O   UNL d   1      43.335  15.412  11.274 -0.00 -0.05    -0.303 OA
DOCKED: ATOM     48  H   UNL d   1      42.484  15.789  10.970 +0.03 +0.03    +0.222 HD
DOCKED: ENDBRANCH  43  47
DOCKED: ENDBRANCH  42  43
DOCKED: ENDBRANCH   4  42
DOCKED: TORSDOF 24
DOCKED: TER
DOCKED: ENDMDL
________________________________________________________________________________


	BEGINNING GENETIC ALGORITHM DOCKING 79 of 100
Run: 79 Seed: 233417020 633244175 [ Run 79 of 100 GA/GALS ]
Beginning LAMARCKIAN GENETIC ALGORITHM (LGA), with a maximum of 25000000 energy evaluations.

Final-Value: -19.179


	FINAL GENETIC ALGORITHM DOCKED STATE
	_______________________________________________


Detailed state:  trans 36.411 13.883 22.219 quatxyzw 0.342679 -0.562920 -0.075613 0.748315 center 0.035 0.082 -0.065 ntor 24 86.1780 108.3441 36.3803 96.7464 -39.4780 155.8611 14.8396 163.8029 125.3544 4.1217 -9.3125 -151.9012 -40.9419 -90.7976 -139.2113 -80.1063 56.3662 -167.8264 -167.5848 7.0343 -26.0678 30.0814 -13.1374 -29.6875
State:	 36.411  13.883  22.219   0.517 -0.849 -0.114 83.111     86.18  108.34   36.38   96.75  -39.48  155.86   14.84  163.80  125.35    4.12   -9.31 -151.90  -40.94  -90.80 -139.21  -80.11   56.37 -167.83 -167.58    7.03  -26.07   30.08  -13.14  -29.69

DOCKED: MODEL       79
DOCKED: USER    Run = 79
DOCKED: USER    DPF = D:/Protein_go_brrr/autodock/final/2DN3/IHP/dock.dpf
DOCKED: USER  
DOCKED: USER    Estimated Free Energy of Binding    =   +2.16 kcal/mol  [=(1)+(2)+(3)-(4)]
DOCKED: USER    
DOCKED: USER    (1) Final Intermolecular Energy     =   -5.00 kcal/mol
DOCKED: USER        vdW + Hbond + desolv Energy     =   -4.59 kcal/mol
DOCKED: USER        Electrostatic Energy            =   -0.41 kcal/mol
DOCKED: USER    (2) Final Total Internal Energy     =  -14.18 kcal/mol
DOCKED: USER    (3) Torsional Free Energy           =   +7.16 kcal/mol
DOCKED: USER    (4) Unbound System's Energy  [=(2)] =  -14.18 kcal/mol
DOCKED: USER    
DOCKED: USER    
DOCKED: USER    NEWDPF move IHP_ideal_opt.pdbqt
DOCKED: USER    NEWDPF about 0.035000 0.082000 -0.065000
DOCKED: USER    NEWDPF tran0 36.411360 13.882697 22.219277
DOCKED: USER    NEWDPF quaternion0 0.342679 -0.562920 -0.075613 0.748315
DOCKED: USER    NEWDPF axisangle0 0.516593 -0.848610 -0.113987 83.110802
DOCKED: USER    NEWDPF quat0 0.516593 -0.848610 -0.113987 83.110802
DOCKED: USER    NEWDPF dihe0 86.18 108.34 36.38 96.75 -39.48 155.86 14.84 163.80 125.35 4.12 -9.31 -151.90 -40.94 -90.80 -139.21 -80.11 56.37 -167.83 -167.58 7.03 -26.07 30.08 -13.14 -29.69 
DOCKED: USER  keepresnum = 1 
DOCKED: USER  
DOCKED: REMARK  24 active torsions:
DOCKED: REMARK  status: ('A' for Active; 'I' for Inactive)
DOCKED: REMARK    1  A    between atoms: C_1  and  O_7 
DOCKED: REMARK    2  A    between atoms: C_2  and  O_12 
DOCKED: REMARK    3  A    between atoms: C_3  and  O_17 
DOCKED: REMARK    4  A    between atoms: C_4  and  O_22 
DOCKED: REMARK    5  A    between atoms: C_5  and  O_27 
DOCKED: REMARK    6  A    between atoms: C_6  and  O_32 
DOCKED: REMARK    7  A    between atoms: O_7  and  P_8 
DOCKED: REMARK    8  A    between atoms: P_8  and  O_10 
DOCKED: REMARK    9  A    between atoms: P_8  and  O_11 
DOCKED: REMARK   10  A    between atoms: O_12  and  P_13 
DOCKED: REMARK   11  A    between atoms: P_13  and  O_15 
DOCKED: REMARK   12  A    between atoms: P_13  and  O_16 
DOCKED: REMARK   13  A    between atoms: O_17  and  P_18 
DOCKED: REMARK   14  A    between atoms: P_18  and  O_20 
DOCKED: REMARK   15  A    between atoms: P_18  and  O_21 
DOCKED: REMARK   16  A    between atoms: O_22  and  P_23 
DOCKED: REMARK   17  A    between atoms: P_23  and  O_25 
DOCKED: REMARK   18  A    between atoms: P_23  and  O_26 
DOCKED: REMARK   19  A    between atoms: O_27  and  P_28 
DOCKED: REMARK   20  A    between atoms: P_28  and  O_30 
DOCKED: REMARK   21  A    between atoms: P_28  and  O_31 
DOCKED: REMARK   22  A    between atoms: O_32  and  P_33 
DOCKED: REMARK   23  A    between atoms: P_33  and  O_35 
DOCKED: REMARK   24  A    between atoms: P_33  and  O_36 
DOCKED: USER                              x       y       z     vdW  Elec       q    Type
DOCKED: USER                           _______ _______ _______ _____ _____    ______ ____
DOCKED: ROOT
DOCKED: ATOM      1  C   UNL d   1      37.924  13.345  21.582 -0.11 -0.01    +0.194 C 
DOCKED: ATOM      2  C   UNL d   1      37.591  12.858  22.994 -0.08 -0.02    +0.194 C 
DOCKED: ATOM      3  C   UNL d   1      37.001  13.978  23.854 -0.12 -0.04    +0.194 C 
DOCKED: ATOM      4  C   UNL d   1      35.821  14.685  23.194 -0.14 -0.03    +0.194 C 
DOCKED: ATOM      5  C   UNL d   1      36.069  15.087  21.745 -0.22 -0.02    +0.194 C 
DOCKED: ATOM      6  C   UNL d   1      36.716  13.987  20.900 -0.15 +0.00    +0.194 C 
DOCKED: ENDROOT
DOCKED: BRANCH   1   7
DOCKED: ATOM      7  O   UNL d   1      38.304  12.211  20.798 -0.08 -0.01    -0.278 OA
DOCKED: BRANCH   7   8
DOCKED: ATOM      8  P   UNL d   1      37.178  11.148  20.407 -0.01 +0.03    +0.473 P 
DOCKED: ATOM      9  O   UNL d   1      35.781  11.573  20.694 -0.01 -0.02    -0.228 OA
DOCKED: BRANCH   8  10
DOCKED: ATOM     10  O   UNL d   1      37.440  10.858  18.860 -0.01 -0.03    -0.303 OA
DOCKED: ATOM     11  H   UNL d   1      37.176  11.634  18.333 +0.03 +0.02    +0.222 HD
DOCKED: ENDBRANCH   8  10
DOCKED: BRANCH   8  12
DOCKED: ATOM     12  O   UNL d   1      37.642   9.787  21.084 -0.00 -0.02    -0.303 OA
DOCKED: ATOM     13  H   UNL d   1      37.672   9.836  22.066 +0.01 +0.01    +0.222 HD
DOCKED: ENDBRANCH   8  12
DOCKED: ENDBRANCH   7   8
DOCKED: ENDBRANCH   1   7
DOCKED: BRANCH   2  14
DOCKED: ATOM     14  O   UNL d   1      36.633  11.796  22.908 -0.01 +0.00    -0.278 OA
DOCKED: BRANCH  14  15
DOCKED: ATOM     15  P   UNL d   1      36.859  10.548  23.885 +0.00 +0.00    +0.473 P 
DOCKED: ATOM     16  O   UNL d   1      38.278  10.158  24.161 -0.00 -0.00    -0.228 OA
DOCKED: BRANCH  15  17
DOCKED: ATOM     17  O   UNL d   1      36.059  10.939  25.205 +0.00 +0.01    -0.303 OA
DOCKED: ATOM     18  H   UNL d   1      36.400  11.769  25.590 +0.01 -0.02    +0.222 HD
DOCKED: ENDBRANCH  15  17
DOCKED: BRANCH  15  19
DOCKED: ATOM     19  O   UNL d   1      35.938   9.400  23.281 -0.00 -0.01    -0.303 OA
DOCKED: ATOM     20  H   UNL d   1      35.930   9.419  22.307 +0.00 +0.01    +0.222 HD
DOCKED: ENDBRANCH  15  19
DOCKED: ENDBRANCH  14  15
DOCKED: ENDBRANCH   2  14
DOCKED: BRANCH   6  21
DOCKED: ATOM     21  O   UNL d   1      37.190  14.609  19.708 -0.15 -0.03    -0.278 OA
DOCKED: BRANCH  21  22
DOCKED: ATOM     22  P   UNL d   1      36.793  14.002  18.287 -0.12 +0.07    +0.473 P 
DOCKED: ATOM     23  O   UNL d   1      37.854  13.321  17.490 -0.13 -0.03    -0.228 OA
DOCKED: BRANCH  22  24
DOCKED: ATOM     24  O   UNL d   1      35.547  13.085  18.661 -0.04 -0.04    -0.303 OA
DOCKED: ATOM     25  H   UNL d   1      35.842  12.139  18.634 +0.03 +0.03    +0.222 HD
DOCKED: ENDBRANCH  22  24
DOCKED: BRANCH  22  26
DOCKED: ATOM     26  O   UNL d   1      36.082  15.256  17.585 -0.27 -0.05    -0.303 OA
DOCKED: ATOM     27  H   UNL d   1      35.827  15.907  18.270 +0.08 +0.02    +0.222 HD
DOCKED: ENDBRANCH  22  26
DOCKED: ENDBRANCH  21  22
DOCKED: ENDBRANCH   6  21
DOCKED: BRANCH   3  28
DOCKED: ATOM     28  O   UNL d   1      36.472  13.380  25.031 -0.03 +0.04    -0.278 OA
DOCKED: BRANCH  28  29
DOCKED: ATOM     29  P   UNL d   1      36.636  14.100  26.443 -0.06 -0.14    +0.473 P 
DOCKED: ATOM     30  O   UNL d   1      37.634  13.491  27.360 -0.03 +0.04    -0.228 OA
DOCKED: BRANCH  29  31
DOCKED: ATOM     31  O   UNL d   1      36.913  15.600  25.960 -0.22 +0.13    -0.303 OA
DOCKED: ATOM     32  H   UNL d   1      36.099  15.946  25.526 +0.04 -0.11    +0.222 HD
DOCKED: ENDBRANCH  29  31
DOCKED: BRANCH  29  33
DOCKED: ATOM     33  O   UNL d   1      35.132  14.168  26.959 -0.07 +0.17    -0.303 OA
DOCKED: ATOM     34  H   UNL d   1      34.969  15.059  27.356 -0.31 -0.29    +0.222 HD
DOCKED: ENDBRANCH  29  33
DOCKED: ENDBRANCH  28  29
DOCKED: ENDBRANCH   3  28
DOCKED: BRANCH   5  35
DOCKED: ATOM     35  O   UNL d   1      34.781  15.342  21.188 -0.10 -0.02    -0.278 OA
DOCKED: BRANCH  35  36
DOCKED: ATOM     36  P   UNL d   1      34.409  16.798  20.655 -0.23 +0.06    +0.473 P 
DOCKED: ATOM     37  O   UNL d   1      34.486  16.982  19.173 -0.35 -0.04    -0.228 OA
DOCKED: BRANCH  36  38
DOCKED: ATOM     38  O   UNL d   1      32.953  17.006  21.266 -0.23 -0.13    -0.303 OA
DOCKED: ATOM     39  H   UNL d   1      32.991  16.878  22.238 +0.11 +0.06    +0.222 HD
DOCKED: ENDBRANCH  36  38
DOCKED: BRANCH  36  40
DOCKED: ATOM     40  O   UNL d   1      35.335  17.734  21.548 -0.34 +0.06    -0.303 OA
DOCKED: ATOM     41  H   UNL d   1      35.409  17.400  22.470 -0.10 -0.07    +0.222 HD
DOCKED: ENDBRANCH  36  40
DOCKED: ENDBRANCH  35  36
DOCKED: ENDBRANCH   5  35
DOCKED: BRANCH   4  42
DOCKED: ATOM     42  O   UNL d   1      35.594  15.891  23.932 -0.20 +0.09    -0.278 OA
DOCKED: BRANCH  42  43
DOCKED: ATOM     43  P   UNL d   1      34.094  16.358  24.204 -0.19 -0.09    +0.473 P 
DOCKED: ATOM     44  O   UNL d   1      33.695  17.707  23.715 -0.50 -0.04    -0.228 OA
DOCKED: BRANCH  43  45
DOCKED: ATOM     45  O   UNL d   1      33.239  15.164  23.591 -0.05 -0.00    -0.303 OA
DOCKED: ATOM     46  H   UNL d   1      33.135  15.259  22.623 +0.07 +0.03    +0.222 HD
DOCKED: ENDBRANCH  43  45
DOCKED: BRANCH  43  47
DOCKED: ATOM     47  O   UNL d   1      33.914  16.112  25.778 -0.16 +0.24    -0.303 OA
DOCKED: ATOM     48  H   UNL d   1      34.787  16.177  26.217 -0.15 -0.25    +0.222 HD
DOCKED: ENDBRANCH  43  47
DOCKED: ENDBRANCH  42  43
DOCKED: ENDBRANCH   4  42
DOCKED: TORSDOF 24
DOCKED: TER
DOCKED: ENDMDL
________________________________________________________________________________


	BEGINNING GENETIC ALGORITHM DOCKING 80 of 100
Run: 80 Seed: 1051001075 1010225389 [ Run 80 of 100 GA/GALS ]
Beginning LAMARCKIAN GENETIC ALGORITHM (LGA), with a maximum of 25000000 energy evaluations.

Final-Value: -17.457


	FINAL GENETIC ALGORITHM DOCKED STATE
	_______________________________________________


Detailed state:  trans 48.741 40.930 1.550 quatxyzw 0.099060 -0.560348 -0.636450 -0.520701 center 0.035 0.082 -0.065 ntor 24 -168.0750 72.3797 53.7070 101.0503 -7.5070 -177.8465 -106.6049 34.2000 109.2932 6.6797 128.9024 112.9715 -48.0138 -16.4948 -169.5687 28.3644 52.7200 67.5706 11.4112 -22.7707 -42.0190 170.2881 -8.9536 -18.2531
State:	 48.741  40.930   1.550   0.116 -0.656 -0.745 -117.241   -168.08   72.38   53.71  101.05   -7.51 -177.85 -106.60   34.20  109.29    6.68  128.90  112.97  -48.01  -16.49 -169.57   28.36   52.72   67.57   11.41  -22.77  -42.02  170.29   -8.95  -18.25

DOCKED: MODEL       80
DOCKED: USER    Run = 80
DOCKED: USER    DPF = D:/Protein_go_brrr/autodock/final/2DN3/IHP/dock.dpf
DOCKED: USER  
DOCKED: USER    Estimated Free Energy of Binding    =   +4.63 kcal/mol  [=(1)+(2)+(3)-(4)]
DOCKED: USER    
DOCKED: USER    (1) Final Intermolecular Energy     =   -2.53 kcal/mol
DOCKED: USER        vdW + Hbond + desolv Energy     =   -2.40 kcal/mol
DOCKED: USER        Electrostatic Energy            =   -0.13 kcal/mol
DOCKED: USER    (2) Final Total Internal Energy     =  -14.93 kcal/mol
DOCKED: USER    (3) Torsional Free Energy           =   +7.16 kcal/mol
DOCKED: USER    (4) Unbound System's Energy  [=(2)] =  -14.93 kcal/mol
DOCKED: USER    
DOCKED: USER    
DOCKED: USER    NEWDPF move IHP_ideal_opt.pdbqt
DOCKED: USER    NEWDPF about 0.035000 0.082000 -0.065000
DOCKED: USER    NEWDPF tran0 48.741127 40.930140 1.550426
DOCKED: USER    NEWDPF quaternion0 0.099060 -0.560348 -0.636450 -0.520701
DOCKED: USER    NEWDPF axisangle0 0.116031 -0.656345 -0.745485 -117.241475
DOCKED: USER    NEWDPF quat0 0.116031 -0.656345 -0.745485 -117.241475
DOCKED: USER    NEWDPF dihe0 -168.08 72.38 53.71 101.05 -7.51 -177.85 -106.60 34.20 109.29 6.68 128.90 112.97 -48.01 -16.49 -169.57 28.36 52.72 67.57 11.41 -22.77 -42.02 170.29 -8.95 -18.25 
DOCKED: USER  keepresnum = 1 
DOCKED: USER  
DOCKED: REMARK  24 active torsions:
DOCKED: REMARK  status: ('A' for Active; 'I' for Inactive)
DOCKED: REMARK    1  A    between atoms: C_1  and  O_7 
DOCKED: REMARK    2  A    between atoms: C_2  and  O_12 
DOCKED: REMARK    3  A    between atoms: C_3  and  O_17 
DOCKED: REMARK    4  A    between atoms: C_4  and  O_22 
DOCKED: REMARK    5  A    between atoms: C_5  and  O_27 
DOCKED: REMARK    6  A    between atoms: C_6  and  O_32 
DOCKED: REMARK    7  A    between atoms: O_7  and  P_8 
DOCKED: REMARK    8  A    between atoms: P_8  and  O_10 
DOCKED: REMARK    9  A    between atoms: P_8  and  O_11 
DOCKED: REMARK   10  A    between atoms: O_12  and  P_13 
DOCKED: REMARK   11  A    between atoms: P_13  and  O_15 
DOCKED: REMARK   12  A    between atoms: P_13  and  O_16 
DOCKED: REMARK   13  A    between atoms: O_17  and  P_18 
DOCKED: REMARK   14  A    between atoms: P_18  and  O_20 
DOCKED: REMARK   15  A    between atoms: P_18  and  O_21 
DOCKED: REMARK   16  A    between atoms: O_22  and  P_23 
DOCKED: REMARK   17  A    between atoms: P_23  and  O_25 
DOCKED: REMARK   18  A    between atoms: P_23  and  O_26 
DOCKED: REMARK   19  A    between atoms: O_27  and  P_28 
DOCKED: REMARK   20  A    between atoms: P_28  and  O_30 
DOCKED: REMARK   21  A    between atoms: P_28  and  O_31 
DOCKED: REMARK   22  A    between atoms: O_32  and  P_33 
DOCKED: REMARK   23  A    between atoms: P_33  and  O_35 
DOCKED: REMARK   24  A    between atoms: P_33  and  O_36 
DOCKED: USER                              x       y       z     vdW  Elec       q    Type
DOCKED: USER                           _______ _______ _______ _____ _____    ______ ____
DOCKED: ROOT
DOCKED: ATOM      1  C   UNL d   1      47.141  40.292   1.677 -0.07 +0.04    +0.194 C 
DOCKED: ATOM      2  C   UNL d   1      47.506  40.896   0.320 -0.04 +0.02    +0.194 C 
DOCKED: ATOM      3  C   UNL d   1      48.269  42.213   0.473 -0.03 +0.01    +0.194 C 
DOCKED: ATOM      4  C   UNL d   1      49.477  42.104   1.400 -0.03 +0.01    +0.194 C 
DOCKED: ATOM      5  C   UNL d   1      49.185  41.404   2.721 -0.10 +0.02    +0.194 C 
DOCKED: ATOM      6  C   UNL d   1      48.368  40.119   2.573 -0.10 +0.04    +0.194 C 
DOCKED: ENDROOT
DOCKED: BRANCH   1   7
DOCKED: ATOM      7  O   UNL d   1      46.590  38.992   1.454 -0.08 -0.07    -0.278 OA
DOCKED: BRANCH   7   8
DOCKED: ATOM      8  P   UNL d   1      45.035  38.766   1.745 -0.12 +0.13    +0.473 P 
DOCKED: ATOM      9  O   UNL d   1      44.286  39.986   2.151 -0.12 -0.06    -0.228 OA
DOCKED: BRANCH   8  10
DOCKED: ATOM     10  O   UNL d   1      44.482  38.107   0.401 -0.07 -0.06    -0.303 OA
DOCKED: ATOM     11  H   UNL d   1      45.170  37.536   0.010 +0.06 +0.04    +0.222 HD
DOCKED: ENDBRANCH   8  10
DOCKED: BRANCH   8  12
DOCKED: ATOM     12  O   UNL d   1      44.979  37.546   2.761 -0.42 -0.18    -0.303 OA
DOCKED: ATOM     13  H   UNL d   1      45.790  37.465   3.312 +0.14 +0.15    +0.222 HD
DOCKED: ENDBRANCH   8  12
DOCKED: ENDBRANCH   7   8
DOCKED: ENDBRANCH   1   7
DOCKED: BRANCH   2  14
DOCKED: ATOM     14  O   UNL d   1      48.333  39.970  -0.396 -0.01 -0.03    -0.278 OA
DOCKED: BRANCH  14  15
DOCKED: ATOM     15  P   UNL d   1      47.665  39.239  -1.655 +0.00 +0.05    +0.473 P 
DOCKED: ATOM     16  O   UNL d   1      46.762  40.070  -2.512 -0.00 -0.02    -0.228 OA
DOCKED: BRANCH  15  17
DOCKED: ATOM     17  O   UNL d   1      48.904  38.644  -2.460 -0.00 -0.03    -0.303 OA
DOCKED: ATOM     18  H   UNL d   1      49.640  39.284  -2.496 +0.00 +0.02    +0.222 HD
DOCKED: ENDBRANCH  15  17
DOCKED: BRANCH  15  19
DOCKED: ATOM     19  O   UNL d   1      47.014  37.921  -1.049 -0.01 -0.04    -0.303 OA
DOCKED: ATOM     20  H   UNL d   1      46.577  38.094  -0.195 +0.04 +0.04    +0.222 HD
DOCKED: ENDBRANCH  15  19
DOCKED: ENDBRANCH  14  15
DOCKED: ENDBRANCH   2  14
DOCKED: BRANCH   6  21
DOCKED: ATOM     21  O   UNL d   1      47.892  39.781   3.874 -0.04 -0.08    -0.278 OA
DOCKED: BRANCH  21  22
DOCKED: ATOM     22  P   UNL d   1      47.779  38.248   4.302 -0.19 +0.26    +0.473 P 
DOCKED: ATOM     23  O   UNL d   1      46.585  37.823   5.088 -0.50 -0.14    -0.228 OA
DOCKED: BRANCH  22  24
DOCKED: ATOM     24  O   UNL d   1      47.959  37.506   2.906 -0.11 -0.16    -0.303 OA
DOCKED: ATOM     25  H   UNL d   1      47.126  37.626   2.383 +0.09 +0.09    +0.222 HD
DOCKED: ENDBRANCH  22  24
DOCKED: BRANCH  22  26
DOCKED: ATOM     26  O   UNL d   1      49.203  37.998   4.996 -0.29 -0.23    -0.303 OA
DOCKED: ATOM     27  H   UNL d   1      49.674  38.852   5.081 +0.09 +0.09    +0.222 HD
DOCKED: ENDBRANCH  22  26
DOCKED: ENDBRANCH  21  22
DOCKED: ENDBRANCH   6  21
DOCKED: BRANCH   3  28
DOCKED: ATOM     28  O   UNL d   1      48.801  42.550  -0.802 -0.00 -0.02    -0.278 OA
DOCKED: BRANCH  28  29
DOCKED: ATOM     29  P   UNL d   1      50.122  41.839  -1.336 -0.00 +0.03    +0.473 P 
DOCKED: ATOM     30  O   UNL d   1      50.693  40.796  -0.446 -0.00 -0.02    -0.228 OA
DOCKED: BRANCH  29  31
DOCKED: ATOM     31  O   UNL d   1      49.621  41.367  -2.781 -0.00 -0.02    -0.303 OA
DOCKED: ATOM     32  H   UNL d   1      48.806  40.826  -2.669 +0.00 +0.02    +0.222 HD
DOCKED: ENDBRANCH  29  31
DOCKED: BRANCH  29  33
DOCKED: ATOM     33  O   UNL d   1      51.056  43.083  -1.677 -0.00 -0.01    -0.303 OA
DOCKED: ATOM     34  H   UNL d   1      51.624  43.283  -0.893 +0.00 +0.01    +0.222 HD
DOCKED: ENDBRANCH  29  33
DOCKED: ENDBRANCH  28  29
DOCKED: ENDBRANCH   3  28
DOCKED: BRANCH   5  35
DOCKED: ATOM     35  O   UNL d   1      50.455  41.036   3.253 -0.05 -0.02    -0.278 OA
DOCKED: BRANCH  35  36
DOCKED: ATOM     36  P   UNL d   1      50.911  41.564   4.688 -0.11 +0.00    +0.473 P 
DOCKED: ATOM     37  O   UNL d   1      50.687  40.619   5.824 -0.27 -0.02    -0.228 OA
DOCKED: BRANCH  36  38
DOCKED: ATOM     38  O   UNL d   1      52.440  41.929   4.431 -0.04 +0.01    -0.303 OA
DOCKED: ATOM     39  H   UNL d   1      52.527  42.338   3.543 +0.03 -0.00    +0.222 HD
DOCKED: ENDBRANCH  36  38
DOCKED: BRANCH  36  40
DOCKED: ATOM     40  O   UNL d   1      50.190  42.979   4.773 -0.16 +0.04    -0.303 OA
DOCKED: ATOM     41  H   UNL d   1      50.150  43.422   3.896 +0.06 -0.03    +0.222 HD
DOCKED: ENDBRANCH  36  40
DOCKED: ENDBRANCH  35  36
DOCKED: ENDBRANCH   5  35
DOCKED: BRANCH   4  42
DOCKED: ATOM     42  O   UNL d   1      49.882  43.442   1.712 -0.01 +0.00    -0.278 OA
DOCKED: BRANCH  42  43
DOCKED: ATOM     43  P   UNL d   1      51.413  43.847   1.528 +0.01 -0.01    +0.473 P 
DOCKED: ATOM     44  O   UNL d   1      51.737  44.843   0.468 -0.00 +0.00    -0.228 OA
DOCKED: BRANCH  43  45
DOCKED: ATOM     45  O   UNL d   1      51.834  44.298   2.994 -0.01 +0.03    -0.303 OA
DOCKED: ATOM     46  H   UNL d   1      51.663  43.592   3.649 +0.04 -0.02    +0.222 HD
DOCKED: ENDBRANCH  43  45
DOCKED: BRANCH  43  47
DOCKED: ATOM     47  O   UNL d   1      52.154  42.432   1.397 -0.00 -0.01    -0.303 OA
DOCKED: ATOM     48  H   UNL d   1      52.108  41.963   2.256 +0.02 +0.01    +0.222 HD
DOCKED: ENDBRANCH  43  47
DOCKED: ENDBRANCH  42  43
DOCKED: ENDBRANCH   4  42
DOCKED: TORSDOF 24
DOCKED: TER
DOCKED: ENDMDL
________________________________________________________________________________


	BEGINNING GENETIC ALGORITHM DOCKING 81 of 100
Run: 81 Seed: 1545812717 775924310 [ Run 81 of 100 GA/GALS ]
Beginning LAMARCKIAN GENETIC ALGORITHM (LGA), with a maximum of 25000000 energy evaluations.

Final-Value: -16.365


	FINAL GENETIC ALGORITHM DOCKED STATE
	_______________________________________________


Detailed state:  trans 10.342 29.833 -17.254 quatxyzw -0.786347 0.427673 0.425495 -0.133069 center 0.035 0.082 -0.065 ntor 24 139.9842 84.7487 -27.1170 14.0554 65.0802 -122.9733 -119.0190 -178.9403 21.3161 29.3813 23.9440 -137.3584 -24.9063 30.7024 -67.7934 -15.2650 -136.3274 -45.0147 -15.2491 -28.5730 -3.5681 29.6568 -31.8797 177.4481
State:	 10.342  29.833 -17.254  -0.793  0.432  0.429 -164.706    139.98   84.75  -27.12   14.06   65.08 -122.97 -119.02 -178.94   21.32   29.38   23.94 -137.36  -24.91   30.70  -67.79  -15.27 -136.33  -45.01  -15.25  -28.57   -3.57   29.66  -31.88  177.45

DOCKED: MODEL       81
DOCKED: USER    Run = 81
DOCKED: USER    DPF = D:/Protein_go_brrr/autodock/final/2DN3/IHP/dock.dpf
DOCKED: USER  
DOCKED: USER    Estimated Free Energy of Binding    =   +3.84 kcal/mol  [=(1)+(2)+(3)-(4)]
DOCKED: USER    
DOCKED: USER    (1) Final Intermolecular Energy     =   -3.32 kcal/mol
DOCKED: USER        vdW + Hbond + desolv Energy     =   -3.04 kcal/mol
DOCKED: USER        Electrostatic Energy            =   -0.28 kcal/mol
DOCKED: USER    (2) Final Total Internal Energy     =  -13.05 kcal/mol
DOCKED: USER    (3) Torsional Free Energy           =   +7.16 kcal/mol
DOCKED: USER    (4) Unbound System's Energy  [=(2)] =  -13.05 kcal/mol
DOCKED: USER    
DOCKED: USER    
DOCKED: USER    NEWDPF move IHP_ideal_opt.pdbqt
DOCKED: USER    NEWDPF about 0.035000 0.082000 -0.065000
DOCKED: USER    NEWDPF tran0 10.342405 29.833403 -17.253569
DOCKED: USER    NEWDPF quaternion0 -0.786347 0.427673 0.425495 -0.133069
DOCKED: USER    NEWDPF axisangle0 -0.793403 0.431510 0.429313 -164.706048
DOCKED: USER    NEWDPF quat0 -0.793403 0.431510 0.429313 -164.706048
DOCKED: USER    NEWDPF dihe0 139.98 84.75 -27.12 14.06 65.08 -122.97 -119.02 -178.94 21.32 29.38 23.94 -137.36 -24.91 30.70 -67.79 -15.27 -136.33 -45.01 -15.25 -28.57 -3.57 29.66 -31.88 177.45 
DOCKED: USER  keepresnum = 1 
DOCKED: USER  
DOCKED: REMARK  24 active torsions:
DOCKED: REMARK  status: ('A' for Active; 'I' for Inactive)
DOCKED: REMARK    1  A    between atoms: C_1  and  O_7 
DOCKED: REMARK    2  A    between atoms: C_2  and  O_12 
DOCKED: REMARK    3  A    between atoms: C_3  and  O_17 
DOCKED: REMARK    4  A    between atoms: C_4  and  O_22 
DOCKED: REMARK    5  A    between atoms: C_5  and  O_27 
DOCKED: REMARK    6  A    between atoms: C_6  and  O_32 
DOCKED: REMARK    7  A    between atoms: O_7  and  P_8 
DOCKED: REMARK    8  A    between atoms: P_8  and  O_10 
DOCKED: REMARK    9  A    between atoms: P_8  and  O_11 
DOCKED: REMARK   10  A    between atoms: O_12  and  P_13 
DOCKED: REMARK   11  A    between atoms: P_13  and  O_15 
DOCKED: REMARK   12  A    between atoms: P_13  and  O_16 
DOCKED: REMARK   13  A    between atoms: O_17  and  P_18 
DOCKED: REMARK   14  A    between atoms: P_18  and  O_20 
DOCKED: REMARK   15  A    between atoms: P_18  and  O_21 
DOCKED: REMARK   16  A    between atoms: O_22  and  P_23 
DOCKED: REMARK   17  A    between atoms: P_23  and  O_25 
DOCKED: REMARK   18  A    between atoms: P_23  and  O_26 
DOCKED: REMARK   19  A    between atoms: O_27  and  P_28 
DOCKED: REMARK   20  A    between atoms: P_28  and  O_30 
DOCKED: REMARK   21  A    between atoms: P_28  and  O_31 
DOCKED: REMARK   22  A    between atoms: O_32  and  P_33 
DOCKED: REMARK   23  A    between atoms: P_33  and  O_35 
DOCKED: REMARK   24  A    between atoms: P_33  and  O_36 
DOCKED: USER                              x       y       z     vdW  Elec       q    Type
DOCKED: USER                           _______ _______ _______ _____ _____    ______ ____
DOCKED: ROOT
DOCKED: ATOM      1  C   UNL d   1      10.942  30.118 -18.849 -0.01 +0.01    +0.194 C 
DOCKED: ATOM      2  C   UNL d   1      11.439  31.086 -17.773 -0.05 +0.01    +0.194 C 
DOCKED: ATOM      3  C   UNL d   1      10.309  31.524 -16.839 -0.09 +0.02    +0.194 C 
DOCKED: ATOM      4  C   UNL d   1       9.531  30.352 -16.246 -0.13 +0.04    +0.194 C 
DOCKED: ATOM      5  C   UNL d   1       9.114  29.303 -17.268 -0.03 +0.03    +0.194 C 
DOCKED: ATOM      6  C   UNL d   1      10.227  28.910 -18.242 -0.01 +0.01    +0.194 C 
DOCKED: ENDROOT
DOCKED: BRANCH   1   7
DOCKED: ATOM      7  O   UNL d   1      12.077  29.625 -19.565 -0.00 -0.01    -0.278 OA
DOCKED: BRANCH   7   8
DOCKED: ATOM      8  P   UNL d   1      11.978  29.505 -21.155 +0.00 +0.01    +0.473 P 
DOCKED: ATOM      9  O   UNL d   1      11.021  30.445 -21.800 +0.00 -0.01    -0.228 OA
DOCKED: BRANCH   8  10
DOCKED: ATOM     10  O   UNL d   1      13.481  29.698 -21.652 +0.00 -0.01    -0.303 OA
DOCKED: ATOM     11  H   UNL d   1      14.009  30.110 -20.943 +0.00 +0.00    +0.222 HD
DOCKED: ENDBRANCH   8  10
DOCKED: BRANCH   8  12
DOCKED: ATOM     12  O   UNL d   1      11.730  27.961 -21.437 +0.00 -0.01    -0.303 OA
DOCKED: ATOM     13  H   UNL d   1      11.116  27.544 -20.791 +0.00 +0.00    +0.222 HD
DOCKED: ENDBRANCH   8  12
DOCKED: ENDBRANCH   7   8
DOCKED: ENDBRANCH   1   7
DOCKED: BRANCH   2  14
DOCKED: ATOM     14  O   UNL d   1      12.451  30.437 -16.993 -0.09 -0.00    -0.278 OA
DOCKED: BRANCH  14  15
DOCKED: ATOM     15  P   UNL d   1      13.967  30.850 -17.301 -0.05 -0.01    +0.473 P 
DOCKED: ATOM     16  O   UNL d   1      14.495  32.052 -16.581 -0.11 +0.01    -0.228 OA
DOCKED: BRANCH  15  17
DOCKED: ATOM     17  O   UNL d   1      14.800  29.529 -16.989 -0.05 +0.02    -0.303 OA
DOCKED: ATOM     18  H   UNL d   1      15.488  29.697 -16.317 +0.03 -0.02    +0.222 HD
DOCKED: ENDBRANCH  15  17
DOCKED: BRANCH  15  19
DOCKED: ATOM     19  O   UNL d   1      14.047  30.912 -18.888 -0.01 -0.00    -0.303 OA
DOCKED: ATOM     20  H   UNL d   1      13.622  30.137 -19.301 +0.01 +0.00    +0.222 HD
DOCKED: ENDBRANCH  15  19
DOCKED: ENDBRANCH  14  15
DOCKED: ENDBRANCH   2  14
DOCKED: BRANCH   6  21
DOCKED: ATOM     21  O   UNL d   1       9.606  28.208 -19.316 +0.00 -0.02    -0.278 OA
DOCKED: BRANCH  21  22
DOCKED: ATOM     22  P   UNL d   1       9.766  26.624 -19.425 +0.00 +0.01    +0.473 P 
DOCKED: ATOM     23  O   UNL d   1      11.080  26.022 -19.056 -0.00 +0.00    -0.228 OA
DOCKED: BRANCH  22  24
DOCKED: ATOM     24  O   UNL d   1       8.531  26.112 -18.563 +0.00 -0.01    -0.303 OA
DOCKED: ATOM     25  H   UNL d   1       8.052  26.904 -18.210 +0.01 +0.02    +0.222 HD
DOCKED: ENDBRANCH  22  24
DOCKED: BRANCH  22  26
DOCKED: ATOM     26  O   UNL d   1       9.262  26.348 -20.922 +0.00 -0.01    -0.303 OA
DOCKED: ATOM     27  H   UNL d   1       9.860  26.801 -21.551 +0.00 +0.01    +0.222 HD
DOCKED: ENDBRANCH  22  26
DOCKED: ENDBRANCH  21  22
DOCKED: ENDBRANCH   6  21
DOCKED: BRANCH   3  28
DOCKED: ATOM     28  O   UNL d   1      10.903  32.184 -15.729 -0.65 -0.06    -0.278 OA
DOCKED: BRANCH  28  29
DOCKED: ATOM     29  P   UNL d   1      10.226  33.486 -15.110 -0.15 +0.04    +0.473 P 
DOCKED: ATOM     30  O   UNL d   1       9.684  34.456 -16.096 -0.05 -0.02    -0.228 OA
DOCKED: BRANCH  29  31
DOCKED: ATOM     31  O   UNL d   1       9.179  32.807 -14.108 -0.23 -0.07    -0.303 OA
DOCKED: ATOM     32  H   UNL d   1       8.495  32.338 -14.640 +0.06 +0.12    +0.222 HD
DOCKED: ENDBRANCH  29  31
DOCKED: BRANCH  29  33
DOCKED: ATOM     33  O   UNL d   1      11.360  34.017 -14.126 -0.16 +0.03    -0.303 OA
DOCKED: ATOM     34  H   UNL d   1      11.004  34.032 -13.204 -0.42 -0.11    +0.222 HD
DOCKED: ENDBRANCH  29  33
DOCKED: ENDBRANCH  28  29
DOCKED: ENDBRANCH   3  28
DOCKED: BRANCH   5  35
DOCKED: ATOM     35  O   UNL d   1       8.784  28.138 -16.515 -0.03 -0.05    -0.278 OA
DOCKED: BRANCH  35  36
DOCKED: ATOM     36  P   UNL d   1       7.262  27.803 -16.175 -0.03 +0.19    +0.473 P 
DOCKED: ATOM     37  O   UNL d   1       6.759  28.341 -14.873 -0.26 -0.27    -0.228 OA
DOCKED: BRANCH  36  38
DOCKED: ATOM     38  O   UNL d   1       6.509  28.377 -17.455 -0.01 -0.11    -0.303 OA
DOCKED: ATOM     39  H   UNL d   1       6.827  29.288 -17.633 +0.02 +0.08    +0.222 HD
DOCKED: ENDBRANCH  36  38
DOCKED: BRANCH  36  40
DOCKED: ATOM     40  O   UNL d   1       7.208  26.226 -16.374 -0.00 -0.05    -0.303 OA
DOCKED: ATOM     41  H   UNL d   1       8.014  25.888 -16.825 +0.02 +0.01    +0.222 HD
DOCKED: ENDBRANCH  36  40
DOCKED: ENDBRANCH  35  36
DOCKED: ENDBRANCH   5  35
DOCKED: BRANCH   4  42
DOCKED: ATOM     42  O   UNL d   1       8.330  30.894 -15.685 -0.13 -0.15    -0.278 OA
DOCKED: BRANCH  42  43
DOCKED: ATOM     43  P   UNL d   1       7.241  31.530 -16.661 -0.05 +0.28    +0.473 P 
DOCKED: ATOM     44  O   UNL d   1       7.533  31.510 -18.122 -0.01 -0.06    -0.228 OA
DOCKED: BRANCH  43  45
DOCKED: ATOM     45  O   UNL d   1       5.912  30.758 -16.252 -0.32 -0.38    -0.303 OA
DOCKED: ATOM     46  H   UNL d   1       6.055  29.791 -16.221 +0.02 +0.26    +0.222 HD
DOCKED: ENDBRANCH  43  45
DOCKED: BRANCH  43  47
DOCKED: ATOM     47  O   UNL d   1       6.984  32.980 -16.027 -0.10 -0.17    -0.303 OA
DOCKED: ATOM     48  H   UNL d   1       7.840  33.367 -15.750 +0.04 +0.09    +0.222 HD
DOCKED: ENDBRANCH  43  47
DOCKED: ENDBRANCH  42  43
DOCKED: ENDBRANCH   4  42
DOCKED: TORSDOF 24
DOCKED: TER
DOCKED: ENDMDL
________________________________________________________________________________


	BEGINNING GENETIC ALGORITHM DOCKING 82 of 100
Run: 82 Seed: 213652761 2027261586 [ Run 82 of 100 GA/GALS ]
Beginning LAMARCKIAN GENETIC ALGORITHM (LGA), with a maximum of 25000000 energy evaluations.

Final-Value: -15.548


	FINAL GENETIC ALGORITHM DOCKED STATE
	_______________________________________________


Detailed state:  trans 19.026 31.353 -12.986 quatxyzw 0.955760 0.078175 0.283123 0.015921 center 0.035 0.082 -0.065 ntor 24 -106.6205 13.3334 82.8756 54.4490 -16.5352 -46.5515 -101.7654 1.9728 106.5031 18.5639 -16.7683 -175.1465 -137.9410 132.4578 -88.3652 153.6012 21.5119 159.5753 31.1679 -7.1511 0.8699 23.8959 172.6810 -176.6762
State:	 19.026  31.353 -12.986   0.956  0.078  0.283 178.176   -106.62   13.33   82.88   54.45  -16.54  -46.55 -101.77    1.97  106.50   18.56  -16.77 -175.15 -137.94  132.46  -88.37  153.60   21.51  159.58   31.17   -7.15    0.87   23.90  172.68 -176.68

DOCKED: MODEL       82
DOCKED: USER    Run = 82
DOCKED: USER    DPF = D:/Protein_go_brrr/autodock/final/2DN3/IHP/dock.dpf
DOCKED: USER  
DOCKED: USER    Estimated Free Energy of Binding    =   +4.29 kcal/mol  [=(1)+(2)+(3)-(4)]
DOCKED: USER    
DOCKED: USER    (1) Final Intermolecular Energy     =   -2.87 kcal/mol
DOCKED: USER        vdW + Hbond + desolv Energy     =   -2.84 kcal/mol
DOCKED: USER        Electrostatic Energy            =   -0.03 kcal/mol
DOCKED: USER    (2) Final Total Internal Energy     =  -12.68 kcal/mol
DOCKED: USER    (3) Torsional Free Energy           =   +7.16 kcal/mol
DOCKED: USER    (4) Unbound System's Energy  [=(2)] =  -12.68 kcal/mol
DOCKED: USER    
DOCKED: USER    
DOCKED: USER    NEWDPF move IHP_ideal_opt.pdbqt
DOCKED: USER    NEWDPF about 0.035000 0.082000 -0.065000
DOCKED: USER    NEWDPF tran0 19.025724 31.352933 -12.986118
DOCKED: USER    NEWDPF quaternion0 0.955760 0.078175 0.283123 0.015921
DOCKED: USER    NEWDPF axisangle0 0.955881 0.078185 0.283159 178.175551
DOCKED: USER    NEWDPF quat0 0.955881 0.078185 0.283159 178.175551
DOCKED: USER    NEWDPF dihe0 -106.62 13.33 82.88 54.45 -16.54 -46.55 -101.77 1.97 106.50 18.56 -16.77 -175.15 -137.94 132.46 -88.37 153.60 21.51 159.58 31.17 -7.15 0.87 23.90 172.68 -176.68 
DOCKED: USER  keepresnum = 1 
DOCKED: USER  
DOCKED: REMARK  24 active torsions:
DOCKED: REMARK  status: ('A' for Active; 'I' for Inactive)
DOCKED: REMARK    1  A    between atoms: C_1  and  O_7 
DOCKED: REMARK    2  A    between atoms: C_2  and  O_12 
DOCKED: REMARK    3  A    between atoms: C_3  and  O_17 
DOCKED: REMARK    4  A    between atoms: C_4  and  O_22 
DOCKED: REMARK    5  A    between atoms: C_5  and  O_27 
DOCKED: REMARK    6  A    between atoms: C_6  and  O_32 
DOCKED: REMARK    7  A    between atoms: O_7  and  P_8 
DOCKED: REMARK    8  A    between atoms: P_8  and  O_10 
DOCKED: REMARK    9  A    between atoms: P_8  and  O_11 
DOCKED: REMARK   10  A    between atoms: O_12  and  P_13 
DOCKED: REMARK   11  A    between atoms: P_13  and  O_15 
DOCKED: REMARK   12  A    between atoms: P_13  and  O_16 
DOCKED: REMARK   13  A    between atoms: O_17  and  P_18 
DOCKED: REMARK   14  A    between atoms: P_18  and  O_20 
DOCKED: REMARK   15  A    between atoms: P_18  and  O_21 
DOCKED: REMARK   16  A    between atoms: O_22  and  P_23 
DOCKED: REMARK   17  A    between atoms: P_23  and  O_25 
DOCKED: REMARK   18  A    between atoms: P_23  and  O_26 
DOCKED: REMARK   19  A    between atoms: O_27  and  P_28 
DOCKED: REMARK   20  A    between atoms: P_28  and  O_30 
DOCKED: REMARK   21  A    between atoms: P_28  and  O_31 
DOCKED: REMARK   22  A    between atoms: O_32  and  P_33 
DOCKED: REMARK   23  A    between atoms: P_33  and  O_35 
DOCKED: REMARK   24  A    between atoms: P_33  and  O_36 
DOCKED: USER                              x       y       z     vdW  Elec       q    Type
DOCKED: USER                           _______ _______ _______ _____ _____    ______ ____
DOCKED: ROOT
DOCKED: ATOM      1  C   UNL d   1      20.348  32.465 -12.981 -0.01 +0.00    +0.194 C 
DOCKED: ATOM      2  C   UNL d   1      18.989  33.056 -13.361 -0.06 +0.02    +0.194 C 
DOCKED: ATOM      3  C   UNL d   1      18.219  32.139 -14.314 -0.08 +0.00    +0.194 C 
DOCKED: ATOM      4  C   UNL d   1      18.103  30.704 -13.805 -0.11 -0.01    +0.194 C 
DOCKED: ATOM      5  C   UNL d   1      19.416  30.113 -13.307 -0.04 -0.01    +0.194 C 
DOCKED: ATOM      6  C   UNL d   1      20.215  31.055 -12.404 -0.03 -0.01    +0.194 C 
DOCKED: ENDROOT
DOCKED: BRANCH   1   7
DOCKED: ATOM      7  O   UNL d   1      20.924  33.288 -11.965 -0.01 -0.02    -0.278 OA
DOCKED: BRANCH   7   8
DOCKED: ATOM      8  P   UNL d   1      21.875  34.492 -12.411 +0.01 +0.06    +0.473 P 
DOCKED: ATOM      9  O   UNL d   1      23.304  34.126 -12.611 +0.00 -0.01    -0.228 OA
DOCKED: BRANCH   8  10
DOCKED: ATOM     10  O   UNL d   1      21.183  35.063 -13.731 -0.00 -0.06    -0.303 OA
DOCKED: ATOM     11  H   UNL d   1      20.612  35.819 -13.499 +0.02 +0.08    +0.222 HD
DOCKED: ENDBRANCH   8  10
DOCKED: BRANCH   8  12
DOCKED: ATOM     12  O   UNL d   1      21.595  35.651 -11.361 -0.03 -0.09    -0.303 OA
DOCKED: ATOM     13  H   UNL d   1      20.670  35.654 -11.027 +0.04 +0.11    +0.222 HD
DOCKED: ENDBRANCH   8  12
DOCKED: ENDBRANCH   7   8
DOCKED: ENDBRANCH   1   7
DOCKED: BRANCH   2  14
DOCKED: ATOM     14  O   UNL d   1      18.210  33.237 -12.172 -0.14 -0.03    -0.278 OA
DOCKED: BRANCH  14  15
DOCKED: ATOM     15  P   UNL d   1      17.651  34.713 -11.900 -0.14 +0.23    +0.473 P 
DOCKED: ATOM     16  O   UNL d   1      16.996  34.950 -10.576 -0.70 -0.11    -0.228 OA
DOCKED: BRANCH  15  17
DOCKED: ATOM     17  O   UNL d   1      18.913  35.655 -12.143 -0.24 -0.29    -0.303 OA
DOCKED: ATOM     18  H   UNL d   1      19.737  35.134 -12.190 +0.04 +0.11    +0.222 HD
DOCKED: ENDBRANCH  15  17
DOCKED: BRANCH  15  19
DOCKED: ATOM     19  O   UNL d   1      16.758  35.040 -13.176 -0.29 -0.12    -0.303 OA
DOCKED: ATOM     20  H   UNL d   1      16.817  34.335 -13.847 +0.05 +0.04    +0.222 HD
DOCKED: ENDBRANCH  15  19
DOCKED: ENDBRANCH  14  15
DOCKED: ENDBRANCH   2  14
DOCKED: BRANCH   6  21
DOCKED: ATOM     21  O   UNL d   1      21.532  30.516 -12.310 -0.00 +0.03    -0.278 OA
DOCKED: BRANCH  21  22
DOCKED: ATOM     22  P   UNL d   1      21.963  29.701 -11.007 -0.00 -0.12    +0.473 P 
DOCKED: ATOM     23  O   UNL d   1      21.877  30.388  -9.686 -0.09 +0.13    -0.228 OA
DOCKED: BRANCH  22  24
DOCKED: ATOM     24  O   UNL d   1      21.073  28.388 -11.136 -0.02 +0.07    -0.303 OA
DOCKED: ATOM     25  H   UNL d   1      20.171  28.590 -10.779 +0.07 -0.06    +0.222 HD
DOCKED: ENDBRANCH  22  24
DOCKED: BRANCH  22  26
DOCKED: ATOM     26  O   UNL d   1      23.413  29.161 -11.426 -0.00 +0.06    -0.303 OA
DOCKED: ATOM     27  H   UNL d   1      24.017  29.233 -10.659 +0.01 -0.06    +0.222 HD
DOCKED: ENDBRANCH  22  26
DOCKED: ENDBRANCH  21  22
DOCKED: ENDBRANCH   6  21
DOCKED: BRANCH   3  28
DOCKED: ATOM     28  O   UNL d   1      16.884  32.622 -14.388 -0.14 -0.00    -0.278 OA
DOCKED: BRANCH  28  29
DOCKED: ATOM     29  P   UNL d   1      16.155  32.760 -15.797 -0.07 -0.01    +0.473 P 
DOCKED: ATOM     30  O   UNL d   1      14.826  32.105 -15.898 -0.04 +0.02    -0.228 OA
DOCKED: BRANCH  29  31
DOCKED: ATOM     31  O   UNL d   1      16.196  34.350 -15.978 -0.04 -0.02    -0.303 OA
DOCKED: ATOM     32  H   UNL d   1      15.852  34.769 -15.155 +0.04 +0.03    +0.222 HD
DOCKED: ENDBRANCH  29  31
DOCKED: BRANCH  29  33
DOCKED: ATOM     33  O   UNL d   1      17.282  32.263 -16.806 -0.02 -0.00    -0.303 OA
DOCKED: ATOM     34  H   UNL d   1      17.512  31.325 -16.593 +0.02 -0.00    +0.222 HD
DOCKED: ENDBRANCH  29  33
DOCKED: ENDBRANCH  28  29
DOCKED: ENDBRANCH   3  28
DOCKED: BRANCH   5  35
DOCKED: ATOM     35  O   UNL d   1      19.057  28.980 -12.520 -0.04 +0.04    -0.278 OA
DOCKED: BRANCH  35  36
DOCKED: ATOM     36  P   UNL d   1      18.069  29.144 -11.277 -0.18 -0.09    +0.473 P 
DOCKED: ATOM     37  O   UNL d   1      16.668  29.542 -11.615 -0.47 +0.01    -0.228 OA
DOCKED: BRANCH  36  38
DOCKED: ATOM     38  O   UNL d   1      18.193  27.721 -10.573 -0.04 +0.07    -0.303 OA
DOCKED: ATOM     39  H   UNL d   1      19.119  27.404 -10.649 +0.08 -0.05    +0.222 HD
DOCKED: ENDBRANCH  36  38
DOCKED: BRANCH  36  40
DOCKED: ATOM     40  O   UNL d   1      18.886  30.117 -10.320 -0.20 +0.09    -0.303 OA
DOCKED: ATOM     41  H   UNL d   1      19.851  30.081 -10.502 +0.08 -0.06    +0.222 HD
DOCKED: ENDBRANCH  36  40
DOCKED: ENDBRANCH  35  36
DOCKED: ENDBRANCH   5  35
DOCKED: BRANCH   4  42
DOCKED: ATOM     42  O   UNL d   1      17.674  29.905 -14.912 -0.06 +0.02    -0.278 OA
DOCKED: BRANCH  42  43
DOCKED: ATOM     43  P   UNL d   1      18.707  29.600 -16.089 +0.00 -0.02    +0.473 P 
DOCKED: ATOM     44  O   UNL d   1      18.145  29.299 -17.435 -0.00 +0.01    -0.228 OA
DOCKED: BRANCH  43  45
DOCKED: ATOM     45  O   UNL d   1      19.663  30.872 -16.052 -0.00 +0.00    -0.303 OA
DOCKED: ATOM     46  H   UNL d   1      19.330  31.586 -16.632 +0.01 +0.00    +0.222 HD
DOCKED: ENDBRANCH  43  45
DOCKED: BRANCH  43  47
DOCKED: ATOM     47  O   UNL d   1      19.651  28.465 -15.463 -0.00 +0.01    -0.303 OA
DOCKED: ATOM     48  H   UNL d   1      19.317  28.221 -14.575 +0.02 -0.02    +0.222 HD
DOCKED: ENDBRANCH  43  47
DOCKED: ENDBRANCH  42  43
DOCKED: ENDBRANCH   4  42
DOCKED: TORSDOF 24
DOCKED: TER
DOCKED: ENDMDL
________________________________________________________________________________


	BEGINNING GENETIC ALGORITHM DOCKING 83 of 100
Run: 83 Seed: 1358288831 718303454 [ Run 83 of 100 GA/GALS ]
Beginning LAMARCKIAN GENETIC ALGORITHM (LGA), with a maximum of 25000000 energy evaluations.

Final-Value: -18.593


	FINAL GENETIC ALGORITHM DOCKED STATE
	_______________________________________________


Detailed state:  trans 0.805 27.652 2.986 quatxyzw -0.076121 0.378173 -0.629091 -0.674859 center 0.035 0.082 -0.065 ntor 24 107.0710 9.5287 157.9700 6.3727 56.6774 87.5083 -136.4970 20.6721 50.9826 -39.2986 6.1720 179.0685 -146.5338 83.6231 -150.8920 167.2848 119.8835 -172.8157 23.5009 -40.3266 -46.3968 31.7853 157.9017 -23.0277
State:	  0.805  27.652   2.986  -0.103  0.512 -0.852 -95.114    107.07    9.53  157.97    6.37   56.68   87.51 -136.50   20.67   50.98  -39.30    6.17  179.07 -146.53   83.62 -150.89  167.28  119.88 -172.82   23.50  -40.33  -46.40   31.79  157.90  -23.03

DOCKED: MODEL       83
DOCKED: USER    Run = 83
DOCKED: USER    DPF = D:/Protein_go_brrr/autodock/final/2DN3/IHP/dock.dpf
DOCKED: USER  
DOCKED: USER    Estimated Free Energy of Binding    =   +2.17 kcal/mol  [=(1)+(2)+(3)-(4)]
DOCKED: USER    
DOCKED: USER    (1) Final Intermolecular Energy     =   -4.99 kcal/mol
DOCKED: USER        vdW + Hbond + desolv Energy     =   -4.25 kcal/mol
DOCKED: USER        Electrostatic Energy            =   -0.74 kcal/mol
DOCKED: USER    (2) Final Total Internal Energy     =  -13.61 kcal/mol
DOCKED: USER    (3) Torsional Free Energy           =   +7.16 kcal/mol
DOCKED: USER    (4) Unbound System's Energy  [=(2)] =  -13.61 kcal/mol
DOCKED: USER    
DOCKED: USER    
DOCKED: USER    NEWDPF move IHP_ideal_opt.pdbqt
DOCKED: USER    NEWDPF about 0.035000 0.082000 -0.065000
DOCKED: USER    NEWDPF tran0 0.805355 27.651819 2.986149
DOCKED: USER    NEWDPF quaternion0 -0.076121 0.378173 -0.629091 -0.674859
DOCKED: USER    NEWDPF axisangle0 -0.103153 0.512467 -0.852488 -95.113523
DOCKED: USER    NEWDPF quat0 -0.103153 0.512467 -0.852488 -95.113523
DOCKED: USER    NEWDPF dihe0 107.07 9.53 157.97 6.37 56.68 87.51 -136.50 20.67 50.98 -39.30 6.17 179.07 -146.53 83.62 -150.89 167.28 119.88 -172.82 23.50 -40.33 -46.40 31.79 157.90 -23.03 
DOCKED: USER  keepresnum = 1 
DOCKED: USER  
DOCKED: REMARK  24 active torsions:
DOCKED: REMARK  status: ('A' for Active; 'I' for Inactive)
DOCKED: REMARK    1  A    between atoms: C_1  and  O_7 
DOCKED: REMARK    2  A    between atoms: C_2  and  O_12 
DOCKED: REMARK    3  A    between atoms: C_3  and  O_17 
DOCKED: REMARK    4  A    between atoms: C_4  and  O_22 
DOCKED: REMARK    5  A    between atoms: C_5  and  O_27 
DOCKED: REMARK    6  A    between atoms: C_6  and  O_32 
DOCKED: REMARK    7  A    between atoms: O_7  and  P_8 
DOCKED: REMARK    8  A    between atoms: P_8  and  O_10 
DOCKED: REMARK    9  A    between atoms: P_8  and  O_11 
DOCKED: REMARK   10  A    between atoms: O_12  and  P_13 
DOCKED: REMARK   11  A    between atoms: P_13  and  O_15 
DOCKED: REMARK   12  A    between atoms: P_13  and  O_16 
DOCKED: REMARK   13  A    between atoms: O_17  and  P_18 
DOCKED: REMARK   14  A    between atoms: P_18  and  O_20 
DOCKED: REMARK   15  A    between atoms: P_18  and  O_21 
DOCKED: REMARK   16  A    between atoms: O_22  and  P_23 
DOCKED: REMARK   17  A    between atoms: P_23  and  O_25 
DOCKED: REMARK   18  A    between atoms: P_23  and  O_26 
DOCKED: REMARK   19  A    between atoms: O_27  and  P_28 
DOCKED: REMARK   20  A    between atoms: P_28  and  O_30 
DOCKED: REMARK   21  A    between atoms: P_28  and  O_31 
DOCKED: REMARK   22  A    between atoms: O_32  and  P_33 
DOCKED: REMARK   23  A    between atoms: P_33  and  O_35 
DOCKED: REMARK   24  A    between atoms: P_33  and  O_36 
DOCKED: USER                              x       y       z     vdW  Elec       q    Type
DOCKED: USER                           _______ _______ _______ _____ _____    ______ ____
DOCKED: ROOT
DOCKED: ATOM      1  C   UNL d   1       0.485  26.046   3.536 -0.06 -0.18    +0.194 C 
DOCKED: ATOM      2  C   UNL d   1      -0.278  27.157   4.259 -0.03 -0.16    +0.194 C 
DOCKED: ATOM      3  C   UNL d   1       0.622  28.355   4.568 -0.07 -0.15    +0.194 C 
DOCKED: ATOM      4  C   UNL d   1       1.374  28.873   3.345 -0.13 -0.08    +0.194 C 
DOCKED: ATOM      5  C   UNL d   1       2.056  27.783   2.528 -0.20 -0.09    +0.194 C 
DOCKED: ATOM      6  C   UNL d   1       1.175  26.559   2.271 -0.15 -0.10    +0.194 C 
DOCKED: ENDROOT
DOCKED: BRANCH   1   7
DOCKED: ATOM      7  O   UNL d   1      -0.456  25.048   3.133 -0.05 +0.15    -0.278 OA
DOCKED: BRANCH   7   8
DOCKED: ATOM      8  P   UNL d   1      -0.608  23.739   4.037 -0.05 -0.28    +0.473 P 
DOCKED: ATOM      9  O   UNL d   1       0.206  22.573   3.601 -0.13 +0.10    -0.228 OA
DOCKED: BRANCH   8  10
DOCKED: ATOM     10  O   UNL d   1      -0.249  24.241   5.508 -0.09 +0.41    -0.303 OA
DOCKED: ATOM     11  H   UNL d   1       0.599  24.722   5.491 -0.39 -0.57    +0.222 HD
DOCKED: ENDBRANCH   8  10
DOCKED: BRANCH   8  12
DOCKED: ATOM     12  O   UNL d   1      -2.174  23.491   4.143 -0.01 +0.10    -0.303 OA
DOCKED: ATOM     13  H   UNL d   1      -2.695  24.325   4.184 +0.02 -0.06    +0.222 HD
DOCKED: ENDBRANCH   8  12
DOCKED: ENDBRANCH   7   8
DOCKED: ENDBRANCH   1   7
DOCKED: BRANCH   2  14
DOCKED: ATOM     14  O   UNL d   1      -1.358  27.600   3.428 -0.02 +0.09    -0.278 OA
DOCKED: BRANCH  14  15
DOCKED: ATOM     15  P   UNL d   1      -2.766  26.863   3.629 +0.01 -0.11    +0.473 P 
DOCKED: ATOM     16  O   UNL d   1      -3.987  27.728   3.599 +0.00 +0.03    -0.228 OA
DOCKED: BRANCH  15  17
DOCKED: ATOM     17  O   UNL d   1      -2.779  25.737   2.502 +0.00 +0.05    -0.303 OA
DOCKED: ATOM     18  H   UNL d   1      -2.053  25.097   2.636 +0.02 -0.06    +0.222 HD
DOCKED: ENDBRANCH  15  17
DOCKED: BRANCH  15  19
DOCKED: ATOM     19  O   UNL d   1      -2.573  25.994   4.947 -0.01 +0.12    -0.303 OA
DOCKED: ATOM     20  H   UNL d   1      -1.788  25.420   4.889 +0.03 -0.13    +0.222 HD
DOCKED: ENDBRANCH  15  19
DOCKED: ENDBRANCH  14  15
DOCKED: ENDBRANCH   2  14
DOCKED: BRANCH   6  21
DOCKED: ATOM     21  O   UNL d   1       2.038  25.519   1.815 -0.05 +0.17    -0.278 OA
DOCKED: BRANCH  21  22
DOCKED: ATOM     22  P   UNL d   1       1.488  24.427   0.790 -0.17 -0.17    +0.473 P 
DOCKED: ATOM     23  O   UNL d   1       1.521  22.994   1.203 -0.24 +0.09    -0.228 OA
DOCKED: BRANCH  22  24
DOCKED: ATOM     24  O   UNL d   1       0.037  24.992   0.459 -0.07 +0.06    -0.303 OA
DOCKED: ATOM     25  H   UNL d   1      -0.152  25.740   1.082 +0.06 -0.05    +0.222 HD
DOCKED: ENDBRANCH  22  24
DOCKED: BRANCH  22  26
DOCKED: ATOM     26  O   UNL d   1       2.299  24.793  -0.543 -0.59 +0.05    -0.303 OA
DOCKED: ATOM     27  H   UNL d   1       1.811  25.485  -1.036 -0.41 -0.09    +0.222 HD
DOCKED: ENDBRANCH  22  26
DOCKED: ENDBRANCH  21  22
DOCKED: ENDBRANCH   6  21
DOCKED: BRANCH   3  28
DOCKED: ATOM     28  O   UNL d   1      -0.217  29.427   4.978 -0.05 +0.10    -0.278 OA
DOCKED: BRANCH  28  29
DOCKED: ATOM     29  P   UNL d   1       0.248  30.415   6.138 -0.09 -0.12    +0.473 P 
DOCKED: ATOM     30  O   UNL d   1      -0.099  31.845   5.939 -0.08 +0.01    -0.228 OA
DOCKED: BRANCH  29  31
DOCKED: ATOM     31  O   UNL d   1      -0.396  29.680   7.405 -0.09 +0.10    -0.303 OA
DOCKED: ATOM     32  H   UNL d   1      -1.333  29.972   7.494 +0.04 -0.05    +0.222 HD
DOCKED: ENDBRANCH  29  31
DOCKED: BRANCH  29  33
DOCKED: ATOM     33  O   UNL d   1       1.795  30.062   6.276 -0.23 +0.13    -0.303 OA
DOCKED: ATOM     34  H   UNL d   1       2.294  30.520   5.556 +0.10 -0.06    +0.222 HD
DOCKED: ENDBRANCH  29  33
DOCKED: ENDBRANCH  28  29
DOCKED: ENDBRANCH   3  28
DOCKED: BRANCH   5  35
DOCKED: ATOM     35  O   UNL d   1       2.338  28.370   1.259 -0.17 +0.06    -0.278 OA
DOCKED: BRANCH  35  36
DOCKED: ATOM     36  P   UNL d   1       1.155  28.680   0.235 -0.09 -0.04    +0.473 P 
DOCKED: ATOM     37  O   UNL d   1       1.499  29.611  -0.885 -0.15 +0.00    -0.228 OA
DOCKED: BRANCH  36  38
DOCKED: ATOM     38  O   UNL d   1       0.739  27.217  -0.235 +0.04 +0.01    -0.303 OA
DOCKED: ATOM     39  H   UNL d   1       1.472  26.595  -0.036 -0.10 -0.05    +0.222 HD
DOCKED: ENDBRANCH  36  38
DOCKED: BRANCH  36  40
DOCKED: ATOM     40  O   UNL d   1      -0.026  29.122   1.204 -0.02 +0.03    -0.303 OA
DOCKED: ATOM     41  H   UNL d   1      -0.485  28.346   1.596 +0.03 -0.03    +0.222 HD
DOCKED: ENDBRANCH  36  40
DOCKED: ENDBRANCH  35  36
DOCKED: ENDBRANCH   5  35
DOCKED: BRANCH   4  42
DOCKED: ATOM     42  O   UNL d   1       2.403  29.743   3.828 -0.18 +0.08    -0.278 OA
DOCKED: BRANCH  42  43
DOCKED: ATOM     43  P   UNL d   1       2.616  31.155   3.118 -0.14 -0.03    +0.473 P 
DOCKED: ATOM     44  O   UNL d   1       3.990  31.486   2.647 -0.21 +0.00    -0.228 OA
DOCKED: BRANCH  43  45
DOCKED: ATOM     45  O   UNL d   1       1.520  31.134   1.964 -0.06 +0.00    -0.303 OA
DOCKED: ATOM     46  H   UNL d   1       1.725  30.458   1.288 +0.06 -0.01    +0.222 HD
DOCKED: ENDBRANCH  43  45
DOCKED: BRANCH  43  47
DOCKED: ATOM     47  O   UNL d   1       1.974  32.190   4.160 -0.18 +0.01    -0.303 OA
DOCKED: ATOM     48  H   UNL d   1       1.602  31.695   4.919 +0.09 -0.02    +0.222 HD
DOCKED: ENDBRANCH  43  47
DOCKED: ENDBRANCH  42  43
DOCKED: ENDBRANCH   4  42
DOCKED: TORSDOF 24
DOCKED: TER
DOCKED: ENDMDL
________________________________________________________________________________


	BEGINNING GENETIC ALGORITHM DOCKING 84 of 100
Run: 84 Seed: 374684031 1043212207 [ Run 84 of 100 GA/GALS ]
Beginning LAMARCKIAN GENETIC ALGORITHM (LGA), with a maximum of 25000000 energy evaluations.

Final-Value: -17.169


	FINAL GENETIC ALGORITHM DOCKED STATE
	_______________________________________________


Detailed state:  trans 14.570 26.243 -15.190 quatxyzw 0.116492 0.737289 0.472088 0.469008 center 0.035 0.082 -0.065 ntor 24 50.8046 7.8677 40.8448 -2.9596 150.3617 117.7251 46.2146 -71.4775 40.1242 103.0540 154.6149 125.9347 -53.1414 -179.7926 -159.9405 -65.7824 -23.0040 -172.7695 56.4116 -11.3262 20.9896 -19.0442 -37.0886 27.2491
State:	 14.570  26.243 -15.190   0.132  0.835  0.535 124.060     50.80    7.87   40.84   -2.96  150.36  117.73   46.21  -71.48   40.12  103.05  154.61  125.93  -53.14 -179.79 -159.94  -65.78  -23.00 -172.77   56.41  -11.33   20.99  -19.04  -37.09   27.25

DOCKED: MODEL       84
DOCKED: USER    Run = 84
DOCKED: USER    DPF = D:/Protein_go_brrr/autodock/final/2DN3/IHP/dock.dpf
DOCKED: USER  
DOCKED: USER    Estimated Free Energy of Binding    =   +4.63 kcal/mol  [=(1)+(2)+(3)-(4)]
DOCKED: USER    
DOCKED: USER    (1) Final Intermolecular Energy     =   -2.53 kcal/mol
DOCKED: USER        vdW + Hbond + desolv Energy     =   -2.51 kcal/mol
DOCKED: USER        Electrostatic Energy            =   -0.01 kcal/mol
DOCKED: USER    (2) Final Total Internal Energy     =  -14.64 kcal/mol
DOCKED: USER    (3) Torsional Free Energy           =   +7.16 kcal/mol
DOCKED: USER    (4) Unbound System's Energy  [=(2)] =  -14.64 kcal/mol
DOCKED: USER    
DOCKED: USER    
DOCKED: USER    NEWDPF move IHP_ideal_opt.pdbqt
DOCKED: USER    NEWDPF about 0.035000 0.082000 -0.065000
DOCKED: USER    NEWDPF tran0 14.570443 26.242525 -15.189830
DOCKED: USER    NEWDPF quaternion0 0.116492 0.737289 0.472088 0.469008
DOCKED: USER    NEWDPF axisangle0 0.131898 0.834798 0.534523 124.060180
DOCKED: USER    NEWDPF quat0 0.131898 0.834798 0.534523 124.060180
DOCKED: USER    NEWDPF dihe0 50.80 7.87 40.84 -2.96 150.36 117.73 46.21 -71.48 40.12 103.05 154.61 125.93 -53.14 -179.79 -159.94 -65.78 -23.00 -172.77 56.41 -11.33 20.99 -19.04 -37.09 27.25 
DOCKED: USER  keepresnum = 1 
DOCKED: USER  
DOCKED: REMARK  24 active torsions:
DOCKED: REMARK  status: ('A' for Active; 'I' for Inactive)
DOCKED: REMARK    1  A    between atoms: C_1  and  O_7 
DOCKED: REMARK    2  A    between atoms: C_2  and  O_12 
DOCKED: REMARK    3  A    between atoms: C_3  and  O_17 
DOCKED: REMARK    4  A    between atoms: C_4  and  O_22 
DOCKED: REMARK    5  A    between atoms: C_5  and  O_27 
DOCKED: REMARK    6  A    between atoms: C_6  and  O_32 
DOCKED: REMARK    7  A    between atoms: O_7  and  P_8 
DOCKED: REMARK    8  A    between atoms: P_8  and  O_10 
DOCKED: REMARK    9  A    between atoms: P_8  and  O_11 
DOCKED: REMARK   10  A    between atoms: O_12  and  P_13 
DOCKED: REMARK   11  A    between atoms: P_13  and  O_15 
DOCKED: REMARK   12  A    between atoms: P_13  and  O_16 
DOCKED: REMARK   13  A    between atoms: O_17  and  P_18 
DOCKED: REMARK   14  A    between atoms: P_18  and  O_20 
DOCKED: REMARK   15  A    between atoms: P_18  and  O_21 
DOCKED: REMARK   16  A    between atoms: O_22  and  P_23 
DOCKED: REMARK   17  A    between atoms: P_23  and  O_25 
DOCKED: REMARK   18  A    between atoms: P_23  and  O_26 
DOCKED: REMARK   19  A    between atoms: O_27  and  P_28 
DOCKED: REMARK   20  A    between atoms: P_28  and  O_30 
DOCKED: REMARK   21  A    between atoms: P_28  and  O_31 
DOCKED: REMARK   22  A    between atoms: O_32  and  P_33 
DOCKED: REMARK   23  A    between atoms: P_33  and  O_35 
DOCKED: REMARK   24  A    between atoms: P_33  and  O_36 
DOCKED: USER                              x       y       z     vdW  Elec       q    Type
DOCKED: USER                           _______ _______ _______ _____ _____    ______ ____
DOCKED: ROOT
DOCKED: ATOM      1  C   UNL d   1      12.897  26.072 -14.797 -0.10 -0.06    +0.194 C 
DOCKED: ATOM      2  C   UNL d   1      13.282  25.689 -16.227 -0.01 -0.03    +0.194 C 
DOCKED: ATOM      3  C   UNL d   1      14.256  26.698 -16.841 -0.01 -0.02    +0.194 C 
DOCKED: ATOM      4  C   UNL d   1      15.478  26.963 -15.965 -0.03 -0.02    +0.194 C 
DOCKED: ATOM      5  C   UNL d   1      15.147  27.237 -14.503 -0.09 -0.04    +0.194 C 
DOCKED: ATOM      6  C   UNL d   1      14.126  26.265 -13.907 -0.13 -0.07    +0.194 C 
DOCKED: ENDROOT
DOCKED: BRANCH   1   7
DOCKED: ATOM      7  O   UNL d   1      12.131  25.001 -14.240 -0.10 +0.15    -0.278 OA
DOCKED: BRANCH   7   8
DOCKED: ATOM      8  P   UNL d   1      10.696  24.687 -14.867 -0.05 -0.15    +0.473 P 
DOCKED: ATOM      9  O   UNL d   1      10.281  25.590 -15.975 -0.03 +0.03    -0.228 OA
DOCKED: BRANCH   8  10
DOCKED: ATOM     10  O   UNL d   1      10.793  23.156 -15.307 -0.01 +0.06    -0.303 OA
DOCKED: ATOM     11  H   UNL d   1      10.851  23.099 -16.279 +0.01 -0.02    +0.222 HD
DOCKED: ENDBRANCH   8  10
DOCKED: BRANCH   8  12
DOCKED: ATOM     12  O   UNL d   1       9.709  24.614 -13.625 -0.05 +0.21    -0.303 OA
DOCKED: ATOM     13  H   UNL d   1      10.116  24.196 -12.833 +0.10 -0.32    +0.222 HD
DOCKED: ENDBRANCH   8  12
DOCKED: ENDBRANCH   7   8
DOCKED: ENDBRANCH   1   7
DOCKED: BRANCH   2  14
DOCKED: ATOM     14  O   UNL d   1      13.909  24.400 -16.213 -0.00 +0.04    -0.278 OA
DOCKED: BRANCH  14  15
DOCKED: ATOM     15  P   UNL d   1      13.202  23.251 -17.075 +0.01 -0.04    +0.473 P 
DOCKED: ATOM     16  O   UNL d   1      12.832  21.996 -16.348 +0.00 +0.02    -0.228 OA
DOCKED: BRANCH  15  17
DOCKED: ATOM     17  O   UNL d   1      11.945  23.977 -17.731 +0.00 +0.02    -0.303 OA
DOCKED: ATOM     18  H   UNL d   1      11.386  24.398 -17.050 +0.01 -0.02    +0.222 HD
DOCKED: ENDBRANCH  15  17
DOCKED: BRANCH  15  19
DOCKED: ATOM     19  O   UNL d   1      14.153  23.059 -18.335 +0.00 +0.01    -0.303 OA
DOCKED: ATOM     20  H   UNL d   1      14.204  23.869 -18.876 +0.00 -0.01    +0.222 HD
DOCKED: ENDBRANCH  15  19
DOCKED: ENDBRANCH  14  15
DOCKED: ENDBRANCH   2  14
DOCKED: BRANCH   6  21
DOCKED: ATOM     21  O   UNL d   1      13.671  26.842 -12.686 -0.30 +0.16    -0.278 OA
DOCKED: BRANCH  21  22
DOCKED: ATOM     22  P   UNL d   1      14.547  26.686 -11.362 -0.21 -0.27    +0.473 P 
DOCKED: ATOM     23  O   UNL d   1      13.873  26.201 -10.123 -0.41 +0.18    -0.228 OA
DOCKED: BRANCH  22  24
DOCKED: ATOM     24  O   UNL d   1      15.746  25.772 -11.871 -0.14 +0.11    -0.303 OA
DOCKED: ATOM     25  H   UNL d   1      16.427  26.359 -12.287 +0.09 -0.05    +0.222 HD
DOCKED: ENDBRANCH  22  24
DOCKED: BRANCH  22  26
DOCKED: ATOM     26  O   UNL d   1      15.247  28.125 -11.263 -0.83 +0.08    -0.303 OA
DOCKED: ATOM     27  H   UNL d   1      15.737  28.302 -12.092 +0.09 -0.02    +0.222 HD
DOCKED: ENDBRANCH  22  26
DOCKED: ENDBRANCH  21  22
DOCKED: ENDBRANCH   6  21
DOCKED: BRANCH   3  28
DOCKED: ATOM     28  O   UNL d   1      14.767  26.126 -18.038 +0.00 +0.01    -0.278 OA
DOCKED: BRANCH  28  29
DOCKED: ATOM     29  P   UNL d   1      14.045  26.398 -19.431 +0.00 -0.01    +0.473 P 
DOCKED: ATOM     30  O   UNL d   1      13.013  25.404 -19.823 +0.00 +0.00    -0.228 OA
DOCKED: BRANCH  29  31
DOCKED: ATOM     31  O   UNL d   1      13.554  27.903 -19.202 +0.00 +0.00    -0.303 OA
DOCKED: ATOM     32  H   UNL d   1      14.202  28.513 -19.624 +0.01 -0.00    +0.222 HD
DOCKED: ENDBRANCH  29  31
DOCKED: BRANCH  29  33
DOCKED: ATOM     33  O   UNL d   1      15.282  26.578 -20.418 +0.00 +0.00    -0.303 OA
DOCKED: ATOM     34  H   UNL d   1      16.108  26.674 -19.884 +0.00 -0.00    +0.222 HD
DOCKED: ENDBRANCH  29  33
DOCKED: ENDBRANCH  28  29
DOCKED: ENDBRANCH   3  28
DOCKED: BRANCH   5  35
DOCKED: ATOM     35  O   UNL d   1      16.367  27.053 -13.789 -0.06 +0.05    -0.278 OA
DOCKED: BRANCH  35  36
DOCKED: ATOM     36  P   UNL d   1      17.321  28.297 -13.493 -0.07 -0.06    +0.473 P 
DOCKED: ATOM     37  O   UNL d   1      16.663  29.640 -13.543 -0.16 +0.03    -0.228 OA
DOCKED: BRANCH  36  38
DOCKED: ATOM     38  O   UNL d   1      17.922  27.916 -12.069 -0.11 +0.05    -0.303 OA
DOCKED: ATOM     39  H   UNL d   1      17.265  27.378 -11.576 +0.09 -0.05    +0.222 HD
DOCKED: ENDBRANCH  36  38
DOCKED: BRANCH  36  40
DOCKED: ATOM     40  O   UNL d   1      18.528  28.047 -14.498 -0.01 +0.03    -0.303 OA
DOCKED: ATOM     41  H   UNL d   1      18.229  28.051 -15.434 +0.02 -0.01    +0.222 HD
DOCKED: ENDBRANCH  36  40
DOCKED: ENDBRANCH  35  36
DOCKED: ENDBRANCH   5  35
DOCKED: BRANCH   4  42
DOCKED: ATOM     42  O   UNL d   1      16.110  28.140 -16.480 -0.02 +0.02    -0.278 OA
DOCKED: BRANCH  42  43
DOCKED: ATOM     43  P   UNL d   1      17.120  27.998 -17.706 +0.01 -0.02    +0.473 P 
DOCKED: ATOM     44  O   UNL d   1      18.478  28.589 -17.549 -0.00 +0.01    -0.228 OA
DOCKED: BRANCH  43  45
DOCKED: ATOM     45  O   UNL d   1      17.121  26.430 -17.979 +0.00 +0.01    -0.303 OA
DOCKED: ATOM     46  H   UNL d   1      16.349  26.160 -18.516 +0.00 -0.01    +0.222 HD
DOCKED: ENDBRANCH  43  45
DOCKED: BRANCH  43  47
DOCKED: ATOM     47  O   UNL d   1      16.267  28.544 -18.949 +0.00 +0.01    -0.303 OA
DOCKED: ATOM     48  H   UNL d   1      15.427  28.044 -19.008 +0.01 -0.00    +0.222 HD
DOCKED: ENDBRANCH  43  47
DOCKED: ENDBRANCH  42  43
DOCKED: ENDBRANCH   4  42
DOCKED: TORSDOF 24
DOCKED: TER
DOCKED: ENDMDL
________________________________________________________________________________


	BEGINNING GENETIC ALGORITHM DOCKING 85 of 100
Run: 85 Seed: 2078112982 1269958872 [ Run 85 of 100 GA/GALS ]
Beginning LAMARCKIAN GENETIC ALGORITHM (LGA), with a maximum of 25000000 energy evaluations.

Final-Value: -17.478


	FINAL GENETIC ALGORITHM DOCKED STATE
	_______________________________________________


Detailed state:  trans 20.997 20.079 5.623 quatxyzw -0.190183 0.650092 -0.639453 0.363745 center 0.035 0.082 -0.065 ntor 24 118.3910 36.9181 45.9671 32.4435 -15.7492 160.3083 -39.2248 -151.6188 148.5721 -17.1317 -113.2421 179.1219 -180.0000 179.9470 -177.1338 -36.8977 164.4779 -5.5325 37.8230 -4.4549 -179.3595 135.7347 -179.0776 146.4854
State:	 20.997  20.079   5.623  -0.204  0.698 -0.686 137.339    118.39   36.92   45.97   32.44  -15.75  160.31  -39.22 -151.62  148.57  -17.13 -113.24  179.12 -180.00  179.95 -177.13  -36.90  164.48   -5.53   37.82   -4.45 -179.36  135.73 -179.08  146.49

DOCKED: MODEL       85
DOCKED: USER    Run = 85
DOCKED: USER    DPF = D:/Protein_go_brrr/autodock/final/2DN3/IHP/dock.dpf
DOCKED: USER  
DOCKED: USER    Estimated Free Energy of Binding    =   +3.54 kcal/mol  [=(1)+(2)+(3)-(4)]
DOCKED: USER    
DOCKED: USER    (1) Final Intermolecular Energy     =   -3.62 kcal/mol
DOCKED: USER        vdW + Hbond + desolv Energy     =   -3.41 kcal/mol
DOCKED: USER        Electrostatic Energy            =   -0.21 kcal/mol
DOCKED: USER    (2) Final Total Internal Energy     =  -13.86 kcal/mol
DOCKED: USER    (3) Torsional Free Energy           =   +7.16 kcal/mol
DOCKED: USER    (4) Unbound System's Energy  [=(2)] =  -13.86 kcal/mol
DOCKED: USER    
DOCKED: USER    
DOCKED: USER    NEWDPF move IHP_ideal_opt.pdbqt
DOCKED: USER    NEWDPF about 0.035000 0.082000 -0.065000
DOCKED: USER    NEWDPF tran0 20.997033 20.079360 5.623210
DOCKED: USER    NEWDPF quaternion0 -0.190183 0.650092 -0.639453 0.363745
DOCKED: USER    NEWDPF axisangle0 -0.204169 0.697899 -0.686478 137.339213
DOCKED: USER    NEWDPF quat0 -0.204169 0.697899 -0.686478 137.339213
DOCKED: USER    NEWDPF dihe0 118.39 36.92 45.97 32.44 -15.75 160.31 -39.22 -151.62 148.57 -17.13 -113.24 179.12 -180.00 179.95 -177.13 -36.90 164.48 -5.53 37.82 -4.45 -179.36 135.73 -179.08 146.49 
DOCKED: USER  keepresnum = 1 
DOCKED: USER  
DOCKED: REMARK  24 active torsions:
DOCKED: REMARK  status: ('A' for Active; 'I' for Inactive)
DOCKED: REMARK    1  A    between atoms: C_1  and  O_7 
DOCKED: REMARK    2  A    between atoms: C_2  and  O_12 
DOCKED: REMARK    3  A    between atoms: C_3  and  O_17 
DOCKED: REMARK    4  A    between atoms: C_4  and  O_22 
DOCKED: REMARK    5  A    between atoms: C_5  and  O_27 
DOCKED: REMARK    6  A    between atoms: C_6  and  O_32 
DOCKED: REMARK    7  A    between atoms: O_7  and  P_8 
DOCKED: REMARK    8  A    between atoms: P_8  and  O_10 
DOCKED: REMARK    9  A    between atoms: P_8  and  O_11 
DOCKED: REMARK   10  A    between atoms: O_12  and  P_13 
DOCKED: REMARK   11  A    between atoms: P_13  and  O_15 
DOCKED: REMARK   12  A    between atoms: P_13  and  O_16 
DOCKED: REMARK   13  A    between atoms: O_17  and  P_18 
DOCKED: REMARK   14  A    between atoms: P_18  and  O_20 
DOCKED: REMARK   15  A    between atoms: P_18  and  O_21 
DOCKED: REMARK   16  A    between atoms: O_22  and  P_23 
DOCKED: REMARK   17  A    between atoms: P_23  and  O_25 
DOCKED: REMARK   18  A    between atoms: P_23  and  O_26 
DOCKED: REMARK   19  A    between atoms: O_27  and  P_28 
DOCKED: REMARK   20  A    between atoms: P_28  and  O_30 
DOCKED: REMARK   21  A    between atoms: P_28  and  O_31 
DOCKED: REMARK   22  A    between atoms: O_32  and  P_33 
DOCKED: REMARK   23  A    between atoms: P_33  and  O_35 
DOCKED: REMARK   24  A    between atoms: P_33  and  O_36 
DOCKED: USER                              x       y       z     vdW  Elec       q    Type
DOCKED: USER                           _______ _______ _______ _____ _____    ______ ____
DOCKED: ROOT
DOCKED: ATOM      1  C   UNL d   1      20.617  19.488   7.201 -0.08 +0.05    +0.194 C 
DOCKED: ATOM      2  C   UNL d   1      22.102  19.485   6.834 -0.02 +0.03    +0.194 C 
DOCKED: ATOM      3  C   UNL d   1      22.332  18.984   5.407 -0.01 +0.03    +0.194 C 
DOCKED: ATOM      4  C   UNL d   1      21.482  19.712   4.369 -0.03 +0.03    +0.194 C 
DOCKED: ATOM      5  C   UNL d   1      20.013  19.839   4.749 -0.11 +0.04    +0.194 C 
DOCKED: ATOM      6  C   UNL d   1      19.783  20.282   6.195 -0.15 +0.05    +0.194 C 
DOCKED: ENDROOT
DOCKED: BRANCH   1   7
DOCKED: ATOM      7  O   UNL d   1      20.473  20.126   8.472 -0.11 -0.08    -0.278 OA
DOCKED: BRANCH   7   8
DOCKED: ATOM      8  P   UNL d   1      20.680  19.248   9.791 -0.07 +0.19    +0.473 P 
DOCKED: ATOM      9  O   UNL d   1      19.578  19.335  10.787 -0.38 -0.12    -0.228 OA
DOCKED: BRANCH   8  10
DOCKED: ATOM     10  O   UNL d   1      20.911  17.769   9.238 -0.64 -0.18    -0.303 OA
DOCKED: ATOM     11  H   UNL d   1      20.314  17.605   8.484 +0.05 +0.12    +0.222 HD
DOCKED: ENDBRANCH   8  10
DOCKED: BRANCH   8  12
DOCKED: ATOM     12  O   UNL d   1      22.127  19.634  10.321 -0.07 -0.08    -0.303 OA
DOCKED: ATOM     13  H   UNL d   1      22.629  20.201   9.693 +0.08 +0.04    +0.222 HD
DOCKED: ENDBRANCH   8  12
DOCKED: ENDBRANCH   7   8
DOCKED: ENDBRANCH   1   7
DOCKED: BRANCH   2  14
DOCKED: ATOM     14  O   UNL d   1      22.611  20.821   6.936 -0.02 -0.04    -0.278 OA
DOCKED: BRANCH  14  15
DOCKED: ATOM     15  P   UNL d   1      23.917  21.023   7.840 -0.00 +0.06    +0.473 P 
DOCKED: ATOM     16  O   UNL d   1      23.819  22.026   8.947 -0.09 -0.03    -0.228 OA
DOCKED: BRANCH  15  17
DOCKED: ATOM     17  O   UNL d   1      24.256  19.557   8.364 -0.01 -0.04    -0.303 OA
DOCKED: ATOM     18  H   UNL d   1      23.466  19.127   8.743 +0.04 +0.04    +0.222 HD
DOCKED: ENDBRANCH  15  17
DOCKED: BRANCH  15  19
DOCKED: ATOM     19  O   UNL d   1      25.090  21.268   6.794 -0.01 -0.03    -0.303 OA
DOCKED: ATOM     20  H   UNL d   1      24.903  20.843   5.937 +0.02 +0.02    +0.222 HD
DOCKED: ENDBRANCH  15  19
DOCKED: ENDBRANCH  14  15
DOCKED: ENDBRANCH   2  14
DOCKED: BRANCH   6  21
DOCKED: ATOM     21  O   UNL d   1      18.412  20.023   6.492 -0.23 -0.10    -0.278 OA
DOCKED: BRANCH  21  22
DOCKED: ATOM     22  P   UNL d   1      17.942  18.536   6.830 -0.17 +0.31    +0.473 P 
DOCKED: ATOM     23  O   UNL d   1      16.571  18.120   6.415 -0.69 -0.26    -0.228 OA
DOCKED: BRANCH  22  24
DOCKED: ATOM     24  O   UNL d   1      19.121  17.672   6.201 -0.05 -0.12    -0.303 OA
DOCKED: ATOM     25  H   UNL d   1      18.951  17.578   5.230 +0.06 +0.07    +0.222 HD
DOCKED: ENDBRANCH  22  24
DOCKED: BRANCH  22  26
DOCKED: ATOM     26  O   UNL d   1      18.261  18.442   8.398 -0.20 -0.24    -0.303 OA
DOCKED: ATOM     27  H   UNL d   1      18.835  19.192   8.655 +0.11 +0.12    +0.222 HD
DOCKED: ENDBRANCH  22  26
DOCKED: ENDBRANCH  21  22
DOCKED: ENDBRANCH   6  21
DOCKED: BRANCH   3  28
DOCKED: ATOM     28  O   UNL d   1      23.681  19.275   5.063 -0.00 -0.03    -0.278 OA
DOCKED: BRANCH  28  29
DOCKED: ATOM     29  P   UNL d   1      24.008  20.335   3.920 +0.01 +0.03    +0.473 P 
DOCKED: ATOM     30  O   UNL d   1      23.522  19.983   2.561 -0.00 -0.01    -0.228 OA
DOCKED: BRANCH  29  31
DOCKED: ATOM     31  O   UNL d   1      23.405  21.659   4.586 -0.01 -0.03    -0.303 OA
DOCKED: ATOM     32  H   UNL d   1      23.213  21.474   5.534 +0.02 +0.03    +0.222 HD
DOCKED: ENDBRANCH  29  31
DOCKED: BRANCH  29  33
DOCKED: ATOM     33  O   UNL d   1      25.578  20.539   4.092 -0.00 -0.01    -0.303 OA
DOCKED: ATOM     34  H   UNL d   1      25.738  21.304   4.698 +0.01 +0.01    +0.222 HD
DOCKED: ENDBRANCH  29  33
DOCKED: ENDBRANCH  28  29
DOCKED: ENDBRANCH   3  28
DOCKED: BRANCH   5  35
DOCKED: ATOM     35  O   UNL d   1      19.482  20.862   3.908 -0.14 -0.07    -0.278 OA
DOCKED: BRANCH  35  36
DOCKED: ATOM     36  P   UNL d   1      20.247  22.253   3.753 -0.13 +0.08    +0.473 P 
DOCKED: ATOM     37  O   UNL d   1      19.380  23.435   3.454 -0.30 -0.03    -0.228 OA
DOCKED: BRANCH  36  38
DOCKED: ATOM     38  O   UNL d   1      21.031  22.350   5.136 -0.08 -0.05    -0.303 OA
DOCKED: ATOM     39  H   UNL d   1      21.826  21.776   5.095 +0.05 +0.03    +0.222 HD
DOCKED: ENDBRANCH  36  38
DOCKED: BRANCH  36  40
DOCKED: ATOM     40  O   UNL d   1      21.380  21.902   2.694 -0.05 -0.03    -0.303 OA
DOCKED: ATOM     41  H   UNL d   1      21.963  21.177   3.011 +0.04 +0.02    +0.222 HD
DOCKED: ENDBRANCH  36  40
DOCKED: ENDBRANCH  35  36
DOCKED: ENDBRANCH   5  35
DOCKED: BRANCH   4  42
DOCKED: ATOM     42  O   UNL d   1      21.541  18.937   3.167 -0.02 -0.03    -0.278 OA
DOCKED: BRANCH  42  43
DOCKED: ATOM     43  P   UNL d   1      21.600  17.347   3.277 +0.00 +0.05    +0.473 P 
DOCKED: ATOM     44  O   UNL d   1      20.746  16.698   4.310 -0.01 -0.03    -0.228 OA
DOCKED: BRANCH  43  45
DOCKED: ATOM     45  O   UNL d   1      21.286  16.883   1.787 -0.01 -0.02    -0.303 OA
DOCKED: ATOM     46  H   UNL d   1      21.387  15.915   1.685 +0.01 +0.01    +0.222 HD
DOCKED: ENDBRANCH  43  45
DOCKED: BRANCH  43  47
DOCKED: ATOM     47  O   UNL d   1      23.170  17.045   3.388 +0.00 -0.02    -0.303 OA
DOCKED: ATOM     48  H   UNL d   1      23.666  17.888   3.329 +0.00 +0.01    +0.222 HD
DOCKED: ENDBRANCH  43  47
DOCKED: ENDBRANCH  42  43
DOCKED: ENDBRANCH   4  42
DOCKED: TORSDOF 24
DOCKED: TER
DOCKED: ENDMDL
________________________________________________________________________________


	BEGINNING GENETIC ALGORITHM DOCKING 86 of 100
Run: 86 Seed: 2027543499 904855757 [ Run 86 of 100 GA/GALS ]
Beginning LAMARCKIAN GENETIC ALGORITHM (LGA), with a maximum of 25000000 energy evaluations.

Final-Value: -18.629


	FINAL GENETIC ALGORITHM DOCKED STATE
	_______________________________________________


Detailed state:  trans 13.779 48.941 14.364 quatxyzw -0.455362 -0.326247 -0.017886 -0.828184 center 0.035 0.082 -0.065 ntor 24 160.2356 99.2861 -175.9589 -2.6246 2.8312 176.3879 -7.1813 -104.4576 72.4253 79.7645 -22.3554 -121.2902 -47.5561 86.5173 179.1838 -122.3400 123.8125 -50.7505 5.5431 -41.9978 -32.0663 28.0191 0.3193 170.0795
State:	 13.779  48.941  14.364  -0.812 -0.582 -0.032 -68.175    160.24   99.29 -175.96   -2.62    2.83  176.39   -7.18 -104.46   72.43   79.76  -22.36 -121.29  -47.56   86.52  179.18 -122.34  123.81  -50.75    5.54  -42.00  -32.07   28.02    0.32  170.08

DOCKED: MODEL       86
DOCKED: USER    Run = 86
DOCKED: USER    DPF = D:/Protein_go_brrr/autodock/final/2DN3/IHP/dock.dpf
DOCKED: USER  
DOCKED: USER    Estimated Free Energy of Binding    =   +3.86 kcal/mol  [=(1)+(2)+(3)-(4)]
DOCKED: USER    
DOCKED: USER    (1) Final Intermolecular Energy     =   -3.30 kcal/mol
DOCKED: USER        vdW + Hbond + desolv Energy     =   -3.45 kcal/mol
DOCKED: USER        Electrostatic Energy            =   +0.15 kcal/mol
DOCKED: USER    (2) Final Total Internal Energy     =  -15.33 kcal/mol
DOCKED: USER    (3) Torsional Free Energy           =   +7.16 kcal/mol
DOCKED: USER    (4) Unbound System's Energy  [=(2)] =  -15.33 kcal/mol
DOCKED: USER    
DOCKED: USER    
DOCKED: USER    NEWDPF move IHP_ideal_opt.pdbqt
DOCKED: USER    NEWDPF about 0.035000 0.082000 -0.065000
DOCKED: USER    NEWDPF tran0 13.779471 48.941271 14.363735
DOCKED: USER    NEWDPF quaternion0 -0.455362 -0.326247 -0.017886 -0.828184
DOCKED: USER    NEWDPF axisangle0 -0.812484 -0.582110 -0.031913 -68.174749
DOCKED: USER    NEWDPF quat0 -0.812484 -0.582110 -0.031913 -68.174749
DOCKED: USER    NEWDPF dihe0 160.24 99.29 -175.96 -2.62 2.83 176.39 -7.18 -104.46 72.43 79.76 -22.36 -121.29 -47.56 86.52 179.18 -122.34 123.81 -50.75 5.54 -42.00 -32.07 28.02 0.32 170.08 
DOCKED: USER  keepresnum = 1 
DOCKED: USER  
DOCKED: REMARK  24 active torsions:
DOCKED: REMARK  status: ('A' for Active; 'I' for Inactive)
DOCKED: REMARK    1  A    between atoms: C_1  and  O_7 
DOCKED: REMARK    2  A    between atoms: C_2  and  O_12 
DOCKED: REMARK    3  A    between atoms: C_3  and  O_17 
DOCKED: REMARK    4  A    between atoms: C_4  and  O_22 
DOCKED: REMARK    5  A    between atoms: C_5  and  O_27 
DOCKED: REMARK    6  A    between atoms: C_6  and  O_32 
DOCKED: REMARK    7  A    between atoms: O_7  and  P_8 
DOCKED: REMARK    8  A    between atoms: P_8  and  O_10 
DOCKED: REMARK    9  A    between atoms: P_8  and  O_11 
DOCKED: REMARK   10  A    between atoms: O_12  and  P_13 
DOCKED: REMARK   11  A    between atoms: P_13  and  O_15 
DOCKED: REMARK   12  A    between atoms: P_13  and  O_16 
DOCKED: REMARK   13  A    between atoms: O_17  and  P_18 
DOCKED: REMARK   14  A    between atoms: P_18  and  O_20 
DOCKED: REMARK   15  A    between atoms: P_18  and  O_21 
DOCKED: REMARK   16  A    between atoms: O_22  and  P_23 
DOCKED: REMARK   17  A    between atoms: P_23  and  O_25 
DOCKED: REMARK   18  A    between atoms: P_23  and  O_26 
DOCKED: REMARK   19  A    between atoms: O_27  and  P_28 
DOCKED: REMARK   20  A    between atoms: P_28  and  O_30 
DOCKED: REMARK   21  A    between atoms: P_28  and  O_31 
DOCKED: REMARK   22  A    between atoms: O_32  and  P_33 
DOCKED: REMARK   23  A    between atoms: P_33  and  O_35 
DOCKED: REMARK   24  A    between atoms: P_33  and  O_36 
DOCKED: USER                              x       y       z     vdW  Elec       q    Type
DOCKED: USER                           _______ _______ _______ _____ _____    ______ ____
DOCKED: ROOT
DOCKED: ATOM      1  C   UNL d   1      14.060  49.363  16.015 -0.04 -0.06    +0.194 C 
DOCKED: ATOM      2  C   UNL d   1      13.009  48.277  15.780 -0.07 -0.10    +0.194 C 
DOCKED: ATOM      3  C   UNL d   1      12.086  48.625  14.611 -0.08 -0.10    +0.194 C 
DOCKED: ATOM      4  C   UNL d   1      12.841  48.984  13.334 -0.17 -0.10    +0.194 C 
DOCKED: ATOM      5  C   UNL d   1      13.975  49.980  13.542 -0.14 -0.07    +0.194 C 
DOCKED: ATOM      6  C   UNL d   1      14.862  49.665  14.748 -0.10 -0.06    +0.194 C 
DOCKED: ENDROOT
DOCKED: BRANCH   1   7
DOCKED: ATOM      7  O   UNL d   1      14.982  48.887  16.999 -0.03 +0.06    -0.278 OA
DOCKED: BRANCH   7   8
DOCKED: ATOM      8  P   UNL d   1      15.085  49.674  18.386 +0.02 -0.07    +0.473 P 
DOCKED: ATOM      9  O   UNL d   1      14.120  50.795  18.549 -0.00 +0.03    -0.228 OA
DOCKED: BRANCH   8  10
DOCKED: ATOM     10  O   UNL d   1      14.917  48.535  19.490 -0.02 +0.05    -0.303 OA
DOCKED: ATOM     11  H   UNL d   1      14.835  47.666  19.054 +0.07 -0.04    +0.222 HD
DOCKED: ENDBRANCH   8  10
DOCKED: BRANCH   8  12
DOCKED: ATOM     12  O   UNL d   1      16.621  50.054  18.531 -0.04 +0.03    -0.303 OA
DOCKED: ATOM     13  H   UNL d   1      16.973  50.542  17.753 +0.06 -0.02    +0.222 HD
DOCKED: ENDBRANCH   8  12
DOCKED: ENDBRANCH   7   8
DOCKED: ENDBRANCH   1   7
DOCKED: BRANCH   2  14
DOCKED: ATOM     14  O   UNL d   1      13.673  47.041  15.485 -0.12 +0.28    -0.278 OA
DOCKED: BRANCH  14  15
DOCKED: ATOM     15  P   UNL d   1      14.035  46.107  16.734 -0.10 -0.30    +0.473 P 
DOCKED: ATOM     16  O   UNL d   1      13.884  44.631  16.535 -0.84 +0.15    -0.228 OA
DOCKED: BRANCH  15  17
DOCKED: ATOM     17  O   UNL d   1      15.523  46.529  17.116 -0.17 +0.08    -0.303 OA
DOCKED: ATOM     18  H   UNL d   1      15.525  47.274  17.747 +0.10 -0.04    +0.222 HD
DOCKED: ENDBRANCH  15  17
DOCKED: BRANCH  15  19
DOCKED: ATOM     19  O   UNL d   1      13.207  46.724  17.944 -0.05 +0.11    -0.303 OA
DOCKED: ATOM     20  H   UNL d   1      13.483  47.638  18.141 +0.05 -0.06    +0.222 HD
DOCKED: ENDBRANCH  15  19
DOCKED: ENDBRANCH  14  15
DOCKED: ENDBRANCH   2  14
DOCKED: BRANCH   6  21
DOCKED: ATOM     21  O   UNL d   1      15.633  50.835  15.010 -0.05 +0.07    -0.278 OA
DOCKED: BRANCH  21  22
DOCKED: ATOM     22  P   UNL d   1      17.197  50.706  15.293 -0.04 -0.05    +0.473 P 
DOCKED: ATOM     23  O   UNL d   1      17.841  51.723  16.174 -0.09 +0.02    -0.228 OA
DOCKED: BRANCH  22  24
DOCKED: ATOM     24  O   UNL d   1      17.312  49.206  15.812 -0.18 -0.01    -0.303 OA
DOCKED: ATOM     25  H   UNL d   1      16.795  49.131  16.654 +0.09 -0.01    +0.222 HD
DOCKED: ENDBRANCH  22  24
DOCKED: BRANCH  22  26
DOCKED: ATOM     26  O   UNL d   1      17.788  50.588  13.807 -0.14 +0.03    -0.303 OA
DOCKED: ATOM     27  H   UNL d   1      17.056  50.664  13.163 +0.11 -0.07    +0.222 HD
DOCKED: ENDBRANCH  22  26
DOCKED: ENDBRANCH  21  22
DOCKED: ENDBRANCH   6  21
DOCKED: BRANCH   3  28
DOCKED: ATOM     28  O   UNL d   1      11.338  47.458  14.293 -0.09 +0.24    -0.278 OA
DOCKED: BRANCH  28  29
DOCKED: ATOM     29  P   UNL d   1       9.788  47.566  13.945 -0.03 -0.20    +0.473 P 
DOCKED: ATOM     30  O   UNL d   1       8.961  46.395  14.336 -0.16 +0.10    -0.228 OA
DOCKED: BRANCH  29  31
DOCKED: ATOM     31  O   UNL d   1       9.442  48.964  14.641 -0.01 +0.07    -0.303 OA
DOCKED: ATOM     32  H   UNL d   1      10.154  49.609  14.422 +0.04 -0.05    +0.222 HD
DOCKED: ENDBRANCH  29  31
DOCKED: BRANCH  29  33
DOCKED: ATOM     33  O   UNL d   1       9.818  47.941  12.398 -0.12 +0.11    -0.303 OA
DOCKED: ATOM     34  H   UNL d   1      10.490  48.651  12.253 +0.07 -0.09    +0.222 HD
DOCKED: ENDBRANCH  29  33
DOCKED: ENDBRANCH  28  29
DOCKED: ENDBRANCH   3  28
DOCKED: BRANCH   5  35
DOCKED: ATOM     35  O   UNL d   1      14.795  49.880  12.380 -0.18 +0.10    -0.278 OA
DOCKED: BRANCH  35  36
DOCKED: ATOM     36  P   UNL d   1      15.244  51.196  11.597 -0.00 -0.36    +0.473 P 
DOCKED: ATOM     37  O   UNL d   1      16.315  51.002  10.571 -0.43 +0.18    -0.228 OA
DOCKED: BRANCH  36  38
DOCKED: ATOM     38  O   UNL d   1      13.858  51.712  11.007 -0.33 +0.18    -0.303 OA
DOCKED: ATOM     39  H   UNL d   1      13.138  51.119  11.313 +0.10 -0.08    +0.222 HD
DOCKED: ENDBRANCH  36  38
DOCKED: BRANCH  36  40
DOCKED: ATOM     40  O   UNL d   1      15.556  52.208  12.783 -0.10 +0.30    -0.303 OA
DOCKED: ATOM     41  H   UNL d   1      15.987  51.757  13.543 +0.08 -0.13    +0.222 HD
DOCKED: ENDBRANCH  36  40
DOCKED: ENDBRANCH  35  36
DOCKED: ENDBRANCH   5  35
DOCKED: BRANCH   4  42
DOCKED: ATOM     42  O   UNL d   1      11.896  49.600  12.453 -0.16 +0.10    -0.278 OA
DOCKED: BRANCH  42  43
DOCKED: ATOM     43  P   UNL d   1      11.141  50.920  12.933 -0.06 -0.12    +0.473 P 
DOCKED: ATOM     44  O   UNL d   1      11.379  51.379  14.330 -0.02 +0.05    -0.228 OA
DOCKED: BRANCH  43  45
DOCKED: ATOM     45  O   UNL d   1      11.551  51.982  11.820 -0.14 +0.09    -0.303 OA
DOCKED: ATOM     46  H   UNL d   1      12.321  52.516  12.102 +0.07 -0.08    +0.222 HD
DOCKED: ENDBRANCH  43  45
DOCKED: BRANCH  43  47
DOCKED: ATOM     47  O   UNL d   1       9.611  50.626  12.553 -0.07 +0.05    -0.303 OA
DOCKED: ATOM     48  H   UNL d   1       9.320  49.804  13.000 +0.06 -0.03    +0.222 HD
DOCKED: ENDBRANCH  43  47
DOCKED: ENDBRANCH  42  43
DOCKED: ENDBRANCH   4  42
DOCKED: TORSDOF 24
DOCKED: TER
DOCKED: ENDMDL
________________________________________________________________________________


	BEGINNING GENETIC ALGORITHM DOCKING 87 of 100
Run: 87 Seed: 70982913 1634549004 [ Run 87 of 100 GA/GALS ]
Beginning LAMARCKIAN GENETIC ALGORITHM (LGA), with a maximum of 25000000 energy evaluations.

Final-Value: -16.850


	FINAL GENETIC ALGORITHM DOCKED STATE
	_______________________________________________


Detailed state:  trans 54.447 32.954 2.121 quatxyzw 0.513620 0.172546 -0.770694 -0.335341 center 0.035 0.082 -0.065 ntor 24 92.6053 42.7450 54.3163 16.9655 -9.2336 180.0000 -55.2870 26.5397 113.5869 -47.0041 163.2097 98.7612 -170.9259 176.1533 -179.8811 177.1467 168.7545 14.6388 38.5176 -12.1937 173.8536 -13.9132 22.0017 -178.0981
State:	 54.447  32.954   2.121   0.545  0.183 -0.818 -140.813     92.61   42.74   54.32   16.97   -9.23  180.00  -55.29   26.54  113.59  -47.00  163.21   98.76 -170.93  176.15 -179.88  177.15  168.75   14.64   38.52  -12.19  173.85  -13.91   22.00 -178.10

DOCKED: MODEL       87
DOCKED: USER    Run = 87
DOCKED: USER    DPF = D:/Protein_go_brrr/autodock/final/2DN3/IHP/dock.dpf
DOCKED: USER  
DOCKED: USER    Estimated Free Energy of Binding    =   +3.51 kcal/mol  [=(1)+(2)+(3)-(4)]
DOCKED: USER    
DOCKED: USER    (1) Final Intermolecular Energy     =   -3.64 kcal/mol
DOCKED: USER        vdW + Hbond + desolv Energy     =   -3.07 kcal/mol
DOCKED: USER        Electrostatic Energy            =   -0.58 kcal/mol
DOCKED: USER    (2) Final Total Internal Energy     =  -13.21 kcal/mol
DOCKED: USER    (3) Torsional Free Energy           =   +7.16 kcal/mol
DOCKED: USER    (4) Unbound System's Energy  [=(2)] =  -13.21 kcal/mol
DOCKED: USER    
DOCKED: USER    
DOCKED: USER    NEWDPF move IHP_ideal_opt.pdbqt
DOCKED: USER    NEWDPF about 0.035000 0.082000 -0.065000
DOCKED: USER    NEWDPF tran0 54.447202 32.954356 2.120802
DOCKED: USER    NEWDPF quaternion0 0.513620 0.172546 -0.770694 -0.335341
DOCKED: USER    NEWDPF axisangle0 0.545188 0.183151 -0.818062 -140.813496
DOCKED: USER    NEWDPF quat0 0.545188 0.183151 -0.818062 -140.813496
DOCKED: USER    NEWDPF dihe0 92.61 42.74 54.32 16.97 -9.23 180.00 -55.29 26.54 113.59 -47.00 163.21 98.76 -170.93 176.15 -179.88 177.15 168.75 14.64 38.52 -12.19 173.85 -13.91 22.00 -178.10 
DOCKED: USER  keepresnum = 1 
DOCKED: USER  
DOCKED: REMARK  24 active torsions:
DOCKED: REMARK  status: ('A' for Active; 'I' for Inactive)
DOCKED: REMARK    1  A    between atoms: C_1  and  O_7 
DOCKED: REMARK    2  A    between atoms: C_2  and  O_12 
DOCKED: REMARK    3  A    between atoms: C_3  and  O_17 
DOCKED: REMARK    4  A    between atoms: C_4  and  O_22 
DOCKED: REMARK    5  A    between atoms: C_5  and  O_27 
DOCKED: REMARK    6  A    between atoms: C_6  and  O_32 
DOCKED: REMARK    7  A    between atoms: O_7  and  P_8 
DOCKED: REMARK    8  A    between atoms: P_8  and  O_10 
DOCKED: REMARK    9  A    between atoms: P_8  and  O_11 
DOCKED: REMARK   10  A    between atoms: O_12  and  P_13 
DOCKED: REMARK   11  A    between atoms: P_13  and  O_15 
DOCKED: REMARK   12  A    between atoms: P_13  and  O_16 
DOCKED: REMARK   13  A    between atoms: O_17  and  P_18 
DOCKED: REMARK   14  A    between atoms: P_18  and  O_20 
DOCKED: REMARK   15  A    between atoms: P_18  and  O_21 
DOCKED: REMARK   16  A    between atoms: O_22  and  P_23 
DOCKED: REMARK   17  A    between atoms: P_23  and  O_25 
DOCKED: REMARK   18  A    between atoms: P_23  and  O_26 
DOCKED: REMARK   19  A    between atoms: O_27  and  P_28 
DOCKED: REMARK   20  A    between atoms: P_28  and  O_30 
DOCKED: REMARK   21  A    between atoms: P_28  and  O_31 
DOCKED: REMARK   22  A    between atoms: O_32  and  P_33 
DOCKED: REMARK   23  A    between atoms: P_33  and  O_35 
DOCKED: REMARK   24  A    between atoms: P_33  and  O_36 
DOCKED: USER                              x       y       z     vdW  Elec       q    Type
DOCKED: USER                           _______ _______ _______ _____ _____    ______ ____
DOCKED: ROOT
DOCKED: ATOM      1  C   UNL d   1      52.986  32.681   1.241 -0.02 +0.04    +0.194 C 
DOCKED: ATOM      2  C   UNL d   1      52.986  33.906   2.158 -0.02 +0.04    +0.194 C 
DOCKED: ATOM      3  C   UNL d   1      53.625  33.598   3.514 -0.04 +0.02    +0.194 C 
DOCKED: ATOM      4  C   UNL d   1      55.009  32.964   3.397 +0.00 +0.02    +0.194 C 
DOCKED: ATOM      5  C   UNL d   1      55.081  31.810   2.405 -0.00 +0.04    +0.194 C 
DOCKED: ATOM      6  C   UNL d   1      54.389  32.096   1.071 -0.00 +0.04    +0.194 C 
DOCKED: ENDROOT
DOCKED: BRANCH   1   7
DOCKED: ATOM      7  O   UNL d   1      52.536  33.093  -0.052 -0.01 -0.05    -0.278 OA
DOCKED: BRANCH   7   8
DOCKED: ATOM      8  P   UNL d   1      50.963  33.171  -0.320 -0.01 +0.09    +0.473 P 
DOCKED: ATOM      9  O   UNL d   1      50.462  32.280  -1.402 -0.04 -0.04    -0.228 OA
DOCKED: BRANCH   8  10
DOCKED: ATOM     10  O   UNL d   1      50.313  32.858   1.103 -0.11 -0.08    -0.303 OA
DOCKED: ATOM     11  H   UNL d   1      50.522  31.941   1.363 +0.09 +0.06    +0.222 HD
DOCKED: ENDBRANCH   8  10
DOCKED: BRANCH   8  12
DOCKED: ATOM     12  O   UNL d   1      50.651  34.719  -0.495 -0.01 -0.05    -0.303 OA
DOCKED: ATOM     13  H   UNL d   1      51.443  35.289  -0.369 +0.02 +0.04    +0.222 HD
DOCKED: ENDBRANCH   8  12
DOCKED: ENDBRANCH   7   8
DOCKED: ENDBRANCH   1   7
DOCKED: BRANCH   2  14
DOCKED: ATOM     14  O   UNL d   1      53.730  34.958   1.531 +0.00 -0.04    -0.278 OA
DOCKED: BRANCH  14  15
DOCKED: ATOM     15  P   UNL d   1      52.933  36.312   1.221 +0.01 +0.08    +0.473 P 
DOCKED: ATOM     16  O   UNL d   1      53.019  36.838  -0.177 -0.00 -0.03    -0.228 OA
DOCKED: BRANCH  15  17
DOCKED: ATOM     17  O   UNL d   1      51.438  35.992   1.669 -0.03 -0.09    -0.303 OA
DOCKED: ATOM     18  H   UNL d   1      51.174  35.092   1.397 +0.04 +0.06    +0.222 HD
DOCKED: ENDBRANCH  15  17
DOCKED: BRANCH  15  19
DOCKED: ATOM     19  O   UNL d   1      53.400  37.317   2.362 +0.00 -0.05    -0.303 OA
DOCKED: ATOM     20  H   UNL d   1      53.435  36.882   3.234 +0.02 +0.04    +0.222 HD
DOCKED: ENDBRANCH  15  19
DOCKED: ENDBRANCH  14  15
DOCKED: ENDBRANCH   2  14
DOCKED: BRANCH   6  21
DOCKED: ATOM     21  O   UNL d   1      54.241  30.843   0.406 -0.02 -0.08    -0.278 OA
DOCKED: BRANCH  21  22
DOCKED: ATOM     22  P   UNL d   1      53.183  29.779   0.948 -0.06 +0.28    +0.473 P 
DOCKED: ATOM     23  O   UNL d   1      53.476  28.330   0.749 -0.61 -0.21    -0.228 OA
DOCKED: BRANCH  22  24
DOCKED: ATOM     24  O   UNL d   1      53.021  30.226   2.467 -0.28 -0.19    -0.303 OA
DOCKED: ATOM     25  H   UNL d   1      53.827  29.932   2.962 +0.05 +0.16    +0.222 HD
DOCKED: ENDBRANCH  22  24
DOCKED: BRANCH  22  26
DOCKED: ATOM     26  O   UNL d   1      51.820  30.316   0.297 -0.12 -0.12    -0.303 OA
DOCKED: ATOM     27  H   UNL d   1      52.022  31.060  -0.306 +0.06 +0.06    +0.222 HD
DOCKED: ENDBRANCH  22  26
DOCKED: ENDBRANCH  21  22
DOCKED: ENDBRANCH   6  21
DOCKED: BRANCH   3  28
DOCKED: ATOM     28  O   UNL d   1      53.832  34.837   4.180 -0.02 -0.03    -0.278 OA
DOCKED: BRANCH  28  29
DOCKED: ATOM     29  P   UNL d   1      52.772  35.364   5.246 -0.11 +0.10    +0.473 P 
DOCKED: ATOM     30  O   UNL d   1      53.322  36.227   6.323 -0.12 -0.03    -0.228 OA
DOCKED: BRANCH  29  31
DOCKED: ATOM     31  O   UNL d   1      51.695  36.025   4.264 -0.15 -0.19    -0.303 OA
DOCKED: ATOM     32  H   UNL d   1      52.031  35.961   3.340 +0.04 +0.08    +0.222 HD
DOCKED: ENDBRANCH  29  31
DOCKED: BRANCH  29  33
DOCKED: ATOM     33  O   UNL d   1      52.055  34.016   5.699 -0.76 +0.07    -0.303 OA
DOCKED: ATOM     34  H   UNL d   1      52.582  33.601   6.425 -0.35 -0.29    +0.222 HD
DOCKED: ENDBRANCH  29  33
DOCKED: ENDBRANCH  28  29
DOCKED: ENDBRANCH   3  28
DOCKED: BRANCH   5  35
DOCKED: ATOM     35  O   UNL d   1      56.468  31.625   2.127 +0.00 -0.05    -0.278 OA
DOCKED: BRANCH  35  36
DOCKED: ATOM     36  P   UNL d   1      57.017  30.192   1.691 +0.01 +0.12    +0.473 P 
DOCKED: ATOM     37  O   UNL d   1      58.403  29.867   2.148 +0.00 -0.04    -0.228 OA
DOCKED: BRANCH  36  38
DOCKED: ATOM     38  O   UNL d   1      55.893  29.223   2.268 -0.04 -0.15    -0.303 OA
DOCKED: ATOM     39  H   UNL d   1      55.009  29.604   2.073 +0.03 +0.13    +0.222 HD
DOCKED: ENDBRANCH  36  38
DOCKED: BRANCH  36  40
DOCKED: ATOM     40  O   UNL d   1      56.754  30.191   0.122 +0.00 -0.07    -0.303 OA
DOCKED: ATOM     41  H   UNL d   1      55.858  29.851  -0.097 +0.02 +0.06    +0.222 HD
DOCKED: ENDBRANCH  36  40
DOCKED: ENDBRANCH  35  36
DOCKED: ENDBRANCH   5  35
DOCKED: BRANCH   4  42
DOCKED: ATOM     42  O   UNL d   1      55.332  32.432   4.686 -0.01 -0.01    -0.278 OA
DOCKED: BRANCH  42  43
DOCKED: ATOM     43  P   UNL d   1      54.547  31.144   5.207 -0.05 +0.02    +0.473 P 
DOCKED: ATOM     44  O   UNL d   1      54.659  29.898   4.398 -0.12 -0.11    -0.228 OA
DOCKED: BRANCH  43  45
DOCKED: ATOM     45  O   UNL d   1      55.071  30.999   6.703 -0.04 +0.03    -0.303 OA
DOCKED: ATOM     46  H   UNL d   1      54.507  31.495   7.329 +0.01 -0.10    +0.222 HD
DOCKED: ENDBRANCH  43  45
DOCKED: BRANCH  43  47
DOCKED: ATOM     47  O   UNL d   1      53.058  31.690   5.435 -0.14 +0.15    -0.303 OA
DOCKED: ATOM     48  H   UNL d   1      53.006  32.133   6.307 -0.17 -0.30    +0.222 HD
DOCKED: ENDBRANCH  43  47
DOCKED: ENDBRANCH  42  43
DOCKED: ENDBRANCH   4  42
DOCKED: TORSDOF 24
DOCKED: TER
DOCKED: ENDMDL
________________________________________________________________________________


	BEGINNING GENETIC ALGORITHM DOCKING 88 of 100
Run: 88 Seed: 180856623 1995931836 [ Run 88 of 100 GA/GALS ]
Beginning LAMARCKIAN GENETIC ALGORITHM (LGA), with a maximum of 25000000 energy evaluations.

Final-Value: -18.144


	FINAL GENETIC ALGORITHM DOCKED STATE
	_______________________________________________


Detailed state:  trans 6.967 34.447 -15.994 quatxyzw 0.633480 -0.741475 0.096635 -0.198947 center 0.035 0.082 -0.065 ntor 24 179.8696 24.1404 112.4451 95.8035 31.1952 -101.2948 -129.0812 -71.6801 51.4479 10.6721 93.3440 -119.0020 -125.1810 99.1482 -61.4694 32.6100 134.3266 101.0709 40.5601 -7.5993 167.6116 13.6711 -11.6384 4.1126
State:	  6.967  34.447 -15.994   0.646 -0.757  0.099 -157.049    179.87   24.14  112.45   95.80   31.20 -101.29 -129.08  -71.68   51.45   10.67   93.34 -119.00 -125.18   99.15  -61.47   32.61  134.33  101.07   40.56   -7.60  167.61   13.67  -11.64    4.11

DOCKED: MODEL       88
DOCKED: USER    Run = 88
DOCKED: USER    DPF = D:/Protein_go_brrr/autodock/final/2DN3/IHP/dock.dpf
DOCKED: USER  
DOCKED: USER    Estimated Free Energy of Binding    =   +4.46 kcal/mol  [=(1)+(2)+(3)-(4)]
DOCKED: USER    
DOCKED: USER    (1) Final Intermolecular Energy     =   -2.70 kcal/mol
DOCKED: USER        vdW + Hbond + desolv Energy     =   -2.52 kcal/mol
DOCKED: USER        Electrostatic Energy            =   -0.17 kcal/mol
DOCKED: USER    (2) Final Total Internal Energy     =  -15.45 kcal/mol
DOCKED: USER    (3) Torsional Free Energy           =   +7.16 kcal/mol
DOCKED: USER    (4) Unbound System's Energy  [=(2)] =  -15.45 kcal/mol
DOCKED: USER    
DOCKED: USER    
DOCKED: USER    NEWDPF move IHP_ideal_opt.pdbqt
DOCKED: USER    NEWDPF about 0.035000 0.082000 -0.065000
DOCKED: USER    NEWDPF tran0 6.967441 34.446713 -15.994219
DOCKED: USER    NEWDPF quaternion0 0.633480 -0.741475 0.096635 -0.198947
DOCKED: USER    NEWDPF axisangle0 0.646402 -0.756599 0.098606 -157.049174
DOCKED: USER    NEWDPF quat0 0.646402 -0.756599 0.098606 -157.049174
DOCKED: USER    NEWDPF dihe0 179.87 24.14 112.45 95.80 31.20 -101.29 -129.08 -71.68 51.45 10.67 93.34 -119.00 -125.18 99.15 -61.47 32.61 134.33 101.07 40.56 -7.60 167.61 13.67 -11.64 4.11 
DOCKED: USER  keepresnum = 1 
DOCKED: USER  
DOCKED: REMARK  24 active torsions:
DOCKED: REMARK  status: ('A' for Active; 'I' for Inactive)
DOCKED: REMARK    1  A    between atoms: C_1  and  O_7 
DOCKED: REMARK    2  A    between atoms: C_2  and  O_12 
DOCKED: REMARK    3  A    between atoms: C_3  and  O_17 
DOCKED: REMARK    4  A    between atoms: C_4  and  O_22 
DOCKED: REMARK    5  A    between atoms: C_5  and  O_27 
DOCKED: REMARK    6  A    between atoms: C_6  and  O_32 
DOCKED: REMARK    7  A    between atoms: O_7  and  P_8 
DOCKED: REMARK    8  A    between atoms: P_8  and  O_10 
DOCKED: REMARK    9  A    between atoms: P_8  and  O_11 
DOCKED: REMARK   10  A    between atoms: O_12  and  P_13 
DOCKED: REMARK   11  A    between atoms: P_13  and  O_15 
DOCKED: REMARK   12  A    between atoms: P_13  and  O_16 
DOCKED: REMARK   13  A    between atoms: O_17  and  P_18 
DOCKED: REMARK   14  A    between atoms: P_18  and  O_20 
DOCKED: REMARK   15  A    between atoms: P_18  and  O_21 
DOCKED: REMARK   16  A    between atoms: O_22  and  P_23 
DOCKED: REMARK   17  A    between atoms: P_23  and  O_25 
DOCKED: REMARK   18  A    between atoms: P_23  and  O_26 
DOCKED: REMARK   19  A    between atoms: O_27  and  P_28 
DOCKED: REMARK   20  A    between atoms: P_28  and  O_30 
DOCKED: REMARK   21  A    between atoms: P_28  and  O_31 
DOCKED: REMARK   22  A    between atoms: O_32  and  P_33 
DOCKED: REMARK   23  A    between atoms: P_33  and  O_35 
DOCKED: REMARK   24  A    between atoms: P_33  and  O_36 
DOCKED: USER                              x       y       z     vdW  Elec       q    Type
DOCKED: USER                           _______ _______ _______ _____ _____    ______ ____
DOCKED: ROOT
DOCKED: ATOM      1  C   UNL d   1       7.551  32.846 -16.281 -0.09 +0.09    +0.194 C 
DOCKED: ATOM      2  C   UNL d   1       8.549  33.973 -16.557 -0.05 +0.04    +0.194 C 
DOCKED: ATOM      3  C   UNL d   1       7.893  35.142 -17.294 -0.01 +0.03    +0.194 C 
DOCKED: ATOM      4  C   UNL d   1       6.625  35.649 -16.612 -0.01 +0.03    +0.194 C 
DOCKED: ATOM      5  C   UNL d   1       5.651  34.546 -16.215 -0.04 +0.06    +0.194 C 
DOCKED: ATOM      6  C   UNL d   1       6.316  33.349 -15.533 -0.08 +0.13    +0.194 C 
DOCKED: ENDROOT
DOCKED: BRANCH   1   7
DOCKED: ATOM      7  O   UNL d   1       8.191  31.878 -15.446 -0.13 -0.16    -0.278 OA
DOCKED: BRANCH   7   8
DOCKED: ATOM      8  P   UNL d   1       9.146  30.797 -16.132 -0.11 +0.13    +0.473 P 
DOCKED: ATOM      9  O   UNL d   1       8.444  29.728 -16.894 -0.05 -0.07    -0.228 OA
DOCKED: BRANCH   8  10
DOCKED: ATOM     10  O   UNL d   1      10.131  31.668 -17.035 -0.05 -0.04    -0.303 OA
DOCKED: ATOM     11  H   UNL d   1      10.159  32.583 -16.699 +0.04 +0.03    +0.222 HD
DOCKED: ENDBRANCH   8  10
DOCKED: BRANCH   8  12
DOCKED: ATOM     12  O   UNL d   1      10.110  30.301 -14.971 -0.26 -0.01    -0.303 OA
DOCKED: ATOM     13  H   UNL d   1      10.171  30.937 -14.223 -0.25 -0.02    +0.222 HD
DOCKED: ENDBRANCH   8  12
DOCKED: ENDBRANCH   7   8
DOCKED: ENDBRANCH   1   7
DOCKED: BRANCH   2  14
DOCKED: ATOM     14  O   UNL d   1       9.067  34.453 -15.310 -0.08 -0.04    -0.278 OA
DOCKED: BRANCH  14  15
DOCKED: ATOM     15  P   UNL d   1      10.660  34.429 -15.141 -0.10 +0.02    +0.473 P 
DOCKED: ATOM     16  O   UNL d   1      11.247  35.409 -14.175 -0.14 +0.01    -0.228 OA
DOCKED: BRANCH  15  17
DOCKED: ATOM     17  O   UNL d   1      10.986  32.916 -14.761 -0.39 -0.05    -0.303 OA
DOCKED: ATOM     18  H   UNL d   1      10.235  32.330 -14.974 +0.06 +0.03    +0.222 HD
DOCKED: ENDBRANCH  15  17
DOCKED: BRANCH  15  19
DOCKED: ATOM     19  O   UNL d   1      11.218  34.513 -16.628 -0.04 -0.02    -0.303 OA
DOCKED: ATOM     20  H   UNL d   1      10.663  35.085 -17.189 +0.02 +0.01    +0.222 HD
DOCKED: ENDBRANCH  15  19
DOCKED: ENDBRANCH  14  15
DOCKED: ENDBRANCH   2  14
DOCKED: BRANCH   6  21
DOCKED: ATOM     21  O   UNL d   1       5.363  32.289 -15.540 -0.54 -0.42    -0.278 OA
DOCKED: BRANCH  21  22
DOCKED: ATOM     22  P   UNL d   1       4.894  31.655 -16.926 -0.04 +0.34    +0.473 P 
DOCKED: ATOM     23  O   UNL d   1       4.856  32.537 -18.128 -0.01 -0.07    -0.228 OA
DOCKED: BRANCH  22  24
DOCKED: ATOM     24  O   UNL d   1       5.861  30.397 -17.053 -0.08 -0.22    -0.303 OA
DOCKED: ATOM     25  H   UNL d   1       6.739  30.643 -16.665 +0.02 +0.17    +0.222 HD
DOCKED: ENDBRANCH  22  24
DOCKED: BRANCH  22  26
DOCKED: ATOM     26  O   UNL d   1       3.505  30.965 -16.516 -0.12 -0.23    -0.303 OA
DOCKED: ATOM     27  H   UNL d   1       2.791  31.633 -16.557 +0.01 +0.12    +0.222 HD
DOCKED: ENDBRANCH  22  26
DOCKED: ENDBRANCH  21  22
DOCKED: ENDBRANCH   6  21
DOCKED: BRANCH   3  28
DOCKED: ATOM     28  O   UNL d   1       8.802  36.235 -17.259 -0.00 -0.02    -0.278 OA
DOCKED: BRANCH  28  29
DOCKED: ATOM     29  P   UNL d   1       9.276  36.932 -18.610 +0.00 +0.03    +0.473 P 
DOCKED: ATOM     30  O   UNL d   1       8.592  36.467 -19.844 +0.00 -0.01    -0.228 OA
DOCKED: BRANCH  29  31
DOCKED: ATOM     31  O   UNL d   1       9.088  38.470 -18.212 +0.00 -0.01    -0.303 OA
DOCKED: ATOM     32  H   UNL d   1       8.129  38.693 -18.262 +0.00 +0.01    +0.222 HD
DOCKED: ENDBRANCH  29  31
DOCKED: BRANCH  29  33
DOCKED: ATOM     33  O   UNL d   1      10.855  36.743 -18.548 +0.00 -0.01    -0.303 OA
DOCKED: ATOM     34  H   UNL d   1      11.108  36.451 -17.638 +0.01 +0.01    +0.222 HD
DOCKED: ENDBRANCH  29  33
DOCKED: ENDBRANCH  28  29
DOCKED: ENDBRANCH   3  28
DOCKED: BRANCH   5  35
DOCKED: ATOM     35  O   UNL d   1       4.767  35.134 -15.263 -0.03 -0.09    -0.278 OA
DOCKED: BRANCH  35  36
DOCKED: ATOM     36  P   UNL d   1       3.203  35.219 -15.562 -0.00 +0.12    +0.473 P 
DOCKED: ATOM     37  O   UNL d   1       2.371  35.829 -14.479 -0.00 -0.04    -0.228 OA
DOCKED: BRANCH  36  38
DOCKED: ATOM     38  O   UNL d   1       3.177  36.022 -16.937 +0.00 -0.04    -0.303 OA
DOCKED: ATOM     39  H   UNL d   1       4.035  36.485 -17.055 +0.00 +0.03    +0.222 HD
DOCKED: ENDBRANCH  36  38
DOCKED: BRANCH  36  40
DOCKED: ATOM     40  O   UNL d   1       2.856  33.726 -15.985 -0.01 -0.11    -0.303 OA
DOCKED: ATOM     41  H   UNL d   1       3.617  33.286 -16.425 +0.01 +0.10    +0.222 HD
DOCKED: ENDBRANCH  36  40
DOCKED: ENDBRANCH  35  36
DOCKED: ENDBRANCH   5  35
DOCKED: BRANCH   4  42
DOCKED: ATOM     42  O   UNL d   1       5.950  36.485 -17.558 -0.00 -0.03    -0.278 OA
DOCKED: BRANCH  42  43
DOCKED: ATOM     43  P   UNL d   1       5.961  38.065 -17.335 +0.00 +0.03    +0.473 P 
DOCKED: ATOM     44  O   UNL d   1       5.975  38.929 -18.549 +0.00 -0.01    -0.228 OA
DOCKED: BRANCH  43  45
DOCKED: ATOM     45  O   UNL d   1       4.703  38.293 -16.388 -0.00 -0.02    -0.303 OA
DOCKED: ATOM     46  H   UNL d   1       4.446  37.468 -15.929 +0.01 +0.02    +0.222 HD
DOCKED: ENDBRANCH  43  45
DOCKED: BRANCH  43  47
DOCKED: ATOM     47  O   UNL d   1       7.179  38.283 -16.317 -0.00 -0.02    -0.303 OA
DOCKED: ATOM     48  H   UNL d   1       8.006  37.955 -16.727 +0.00 +0.01    +0.222 HD
DOCKED: ENDBRANCH  43  47
DOCKED: ENDBRANCH  42  43
DOCKED: ENDBRANCH   4  42
DOCKED: TORSDOF 24
DOCKED: TER
DOCKED: ENDMDL
________________________________________________________________________________


	BEGINNING GENETIC ALGORITHM DOCKING 89 of 100
Run: 89 Seed: 1828371417 1668256347 [ Run 89 of 100 GA/GALS ]
Beginning LAMARCKIAN GENETIC ALGORITHM (LGA), with a maximum of 25000000 energy evaluations.

Final-Value: -17.999


	FINAL GENETIC ALGORITHM DOCKED STATE
	_______________________________________________


Detailed state:  trans 35.786 47.303 30.173 quatxyzw -0.550934 -0.250694 -0.727320 -0.323467 center 0.035 0.082 -0.065 ntor 24 102.3824 43.2058 163.7757 -35.6531 125.6207 155.6677 8.6053 -62.0120 11.1976 47.2677 18.4883 -155.1710 157.3846 175.7450 31.6160 -55.6343 147.5612 144.9383 53.7535 14.6129 171.0367 13.6475 -17.9877 -11.5516
State:	 35.786  47.303  30.173  -0.582 -0.265 -0.769 -142.255    102.38   43.21  163.78  -35.65  125.62  155.67    8.61  -62.01   11.20   47.27   18.49 -155.17  157.38  175.74   31.62  -55.63  147.56  144.94   53.75   14.61  171.04   13.65  -17.99  -11.55

DOCKED: MODEL       89
DOCKED: USER    Run = 89
DOCKED: USER    DPF = D:/Protein_go_brrr/autodock/final/2DN3/IHP/dock.dpf
DOCKED: USER  
DOCKED: USER    Estimated Free Energy of Binding    =   +4.29 kcal/mol  [=(1)+(2)+(3)-(4)]
DOCKED: USER    
DOCKED: USER    (1) Final Intermolecular Energy     =   -2.86 kcal/mol
DOCKED: USER        vdW + Hbond + desolv Energy     =   -2.79 kcal/mol
DOCKED: USER        Electrostatic Energy            =   -0.07 kcal/mol
DOCKED: USER    (2) Final Total Internal Energy     =  -15.13 kcal/mol
DOCKED: USER    (3) Torsional Free Energy           =   +7.16 kcal/mol
DOCKED: USER    (4) Unbound System's Energy  [=(2)] =  -15.13 kcal/mol
DOCKED: USER    
DOCKED: USER    
DOCKED: USER    NEWDPF move IHP_ideal_opt.pdbqt
DOCKED: USER    NEWDPF about 0.035000 0.082000 -0.065000
DOCKED: USER    NEWDPF tran0 35.786119 47.302677 30.172717
DOCKED: USER    NEWDPF quaternion0 -0.550934 -0.250694 -0.727320 -0.323467
DOCKED: USER    NEWDPF axisangle0 -0.582235 -0.264937 -0.768642 -142.254597
DOCKED: USER    NEWDPF quat0 -0.582235 -0.264937 -0.768642 -142.254597
DOCKED: USER    NEWDPF dihe0 102.38 43.21 163.78 -35.65 125.62 155.67 8.61 -62.01 11.20 47.27 18.49 -155.17 157.38 175.74 31.62 -55.63 147.56 144.94 53.75 14.61 171.04 13.65 -17.99 -11.55 
DOCKED: USER  keepresnum = 1 
DOCKED: USER  
DOCKED: REMARK  24 active torsions:
DOCKED: REMARK  status: ('A' for Active; 'I' for Inactive)
DOCKED: REMARK    1  A    between atoms: C_1  and  O_7 
DOCKED: REMARK    2  A    between atoms: C_2  and  O_12 
DOCKED: REMARK    3  A    between atoms: C_3  and  O_17 
DOCKED: REMARK    4  A    between atoms: C_4  and  O_22 
DOCKED: REMARK    5  A    between atoms: C_5  and  O_27 
DOCKED: REMARK    6  A    between atoms: C_6  and  O_32 
DOCKED: REMARK    7  A    between atoms: O_7  and  P_8 
DOCKED: REMARK    8  A    between atoms: P_8  and  O_10 
DOCKED: REMARK    9  A    between atoms: P_8  and  O_11 
DOCKED: REMARK   10  A    between atoms: O_12  and  P_13 
DOCKED: REMARK   11  A    between atoms: P_13  and  O_15 
DOCKED: REMARK   12  A    between atoms: P_13  and  O_16 
DOCKED: REMARK   13  A    between atoms: O_17  and  P_18 
DOCKED: REMARK   14  A    between atoms: P_18  and  O_20 
DOCKED: REMARK   15  A    between atoms: P_18  and  O_21 
DOCKED: REMARK   16  A    between atoms: O_22  and  P_23 
DOCKED: REMARK   17  A    between atoms: P_23  and  O_25 
DOCKED: REMARK   18  A    between atoms: P_23  and  O_26 
DOCKED: REMARK   19  A    between atoms: O_27  and  P_28 
DOCKED: REMARK   20  A    between atoms: P_28  and  O_30 
DOCKED: REMARK   21  A    between atoms: P_28  and  O_31 
DOCKED: REMARK   22  A    between atoms: O_32  and  P_33 
DOCKED: REMARK   23  A    between atoms: P_33  and  O_35 
DOCKED: REMARK   24  A    between atoms: P_33  and  O_36 
DOCKED: USER                              x       y       z     vdW  Elec       q    Type
DOCKED: USER                           _______ _______ _______ _____ _____    ______ ____
DOCKED: ROOT
DOCKED: ATOM      1  C   UNL d   1      35.398  48.220  31.584 -0.05 +0.02    +0.194 C 
DOCKED: ATOM      2  C   UNL d   1      34.791  48.731  30.276 -0.07 +0.02    +0.194 C 
DOCKED: ATOM      3  C   UNL d   1      35.804  48.697  29.130 -0.07 +0.02    +0.194 C 
DOCKED: ATOM      4  C   UNL d   1      36.476  47.336  28.962 -0.06 +0.03    +0.194 C 
DOCKED: ATOM      5  C   UNL d   1      36.995  46.735  30.262 -0.12 +0.03    +0.194 C 
DOCKED: ATOM      6  C   UNL d   1      36.005  46.825  31.425 -0.12 +0.03    +0.194 C 
DOCKED: ENDROOT
DOCKED: BRANCH   1   7
DOCKED: ATOM      7  O   UNL d   1      34.352  48.122  32.553 -0.02 -0.02    -0.278 OA
DOCKED: BRANCH   7   8
DOCKED: ATOM      8  P   UNL d   1      33.693  49.471  33.098 +0.01 +0.02    +0.473 P 
DOCKED: ATOM      9  O   UNL d   1      33.157  49.396  34.485 -0.00 -0.01    -0.228 OA
DOCKED: BRANCH   8  10
DOCKED: ATOM     10  O   UNL d   1      34.845  50.561  32.928 +0.00 -0.02    -0.303 OA
DOCKED: ATOM     11  H   UNL d   1      35.649  50.261  33.392 +0.01 +0.01    +0.222 HD
DOCKED: ENDBRANCH   8  10
DOCKED: BRANCH   8  12
DOCKED: ATOM     12  O   UNL d   1      32.655  49.906  31.976 -0.00 -0.02    -0.303 OA
DOCKED: ATOM     13  H   UNL d   1      32.653  49.304  31.198 +0.03 +0.01    +0.222 HD
DOCKED: ENDBRANCH   8  12
DOCKED: ENDBRANCH   7   8
DOCKED: ENDBRANCH   1   7
DOCKED: BRANCH   2  14
DOCKED: ATOM     14  O   UNL d   1      33.675  47.904  29.925 -0.11 -0.04    -0.278 OA
DOCKED: BRANCH  14  15
DOCKED: ATOM     15  P   UNL d   1      32.453  48.627  29.186 -0.12 +0.02    +0.473 P 
DOCKED: ATOM     16  O   UNL d   1      31.090  48.402  29.763 -0.10 -0.00    -0.228 OA
DOCKED: BRANCH  15  17
DOCKED: ATOM     17  O   UNL d   1      32.868  50.165  29.165 -0.04 -0.01    -0.303 OA
DOCKED: ATOM     18  H   UNL d   1      33.633  50.315  28.577 +0.05 +0.01    +0.222 HD
DOCKED: ENDBRANCH  15  17
DOCKED: BRANCH  15  19
DOCKED: ATOM     19  O   UNL d   1      32.623  48.230  27.655 -0.25 +0.04    -0.303 OA
DOCKED: ATOM     20  H   UNL d   1      33.105  48.915  27.156 -0.35 -0.07    +0.222 HD
DOCKED: ENDBRANCH  15  19
DOCKED: ENDBRANCH  14  15
DOCKED: ENDBRANCH   2  14
DOCKED: BRANCH   6  21
DOCKED: ATOM     21  O   UNL d   1      36.740  46.550  32.615 -0.06 -0.03    -0.278 OA
DOCKED: BRANCH  21  22
DOCKED: ATOM     22  P   UNL d   1      37.832  47.594  33.130 -0.00 +0.03    +0.473 P 
DOCKED: ATOM     23  O   UNL d   1      37.376  48.965  33.501 -0.00 -0.01    -0.228 OA
DOCKED: BRANCH  22  24
DOCKED: ATOM     24  O   UNL d   1      38.529  46.781  34.307 -0.01 -0.02    -0.303 OA
DOCKED: ATOM     25  H   UNL d   1      38.912  45.951  33.924 +0.01 +0.02    +0.222 HD
DOCKED: ENDBRANCH  22  24
DOCKED: BRANCH  22  26
DOCKED: ATOM     26  O   UNL d   1      38.935  47.509  31.970 -0.01 -0.02    -0.303 OA
DOCKED: ATOM     27  H   UNL d   1      38.805  46.683  31.462 +0.02 +0.02    +0.222 HD
DOCKED: ENDBRANCH  22  26
DOCKED: ENDBRANCH  21  22
DOCKED: ENDBRANCH   6  21
DOCKED: BRANCH   3  28
DOCKED: ATOM     28  O   UNL d   1      35.090  48.917  27.920 -0.11 -0.01    -0.278 OA
DOCKED: BRANCH  28  29
DOCKED: ATOM     29  P   UNL d   1      35.507  50.104  26.944 -0.05 +0.01    +0.473 P 
DOCKED: ATOM     30  O   UNL d   1      34.991  51.448  27.313 -0.03 -0.01    -0.228 OA
DOCKED: BRANCH  29  31
DOCKED: ATOM     31  O   UNL d   1      37.096  49.914  26.937 -0.01 -0.02    -0.303 OA
DOCKED: ATOM     32  H   UNL d   1      37.303  49.016  26.589 +0.04 +0.01    +0.222 HD
DOCKED: ENDBRANCH  29  31
DOCKED: BRANCH  29  33
DOCKED: ATOM     33  O   UNL d   1      35.078  49.533  25.521 -0.08 +0.02    -0.303 OA
DOCKED: ATOM     34  H   UNL d   1      34.730  48.615  25.635 -0.40 -0.07    +0.222 HD
DOCKED: ENDBRANCH  29  33
DOCKED: ENDBRANCH  28  29
DOCKED: ENDBRANCH   3  28
DOCKED: BRANCH   5  35
DOCKED: ATOM     35  O   UNL d   1      37.201  45.350  29.993 -0.17 -0.04    -0.278 OA
DOCKED: BRANCH  35  36
DOCKED: ATOM     36  P   UNL d   1      38.677  44.744  29.976 -0.09 +0.06    +0.473 P 
DOCKED: ATOM     37  O   UNL d   1      38.801  43.363  29.416 -0.14 -0.04    -0.228 OA
DOCKED: BRANCH  36  38
DOCKED: ATOM     38  O   UNL d   1      39.476  45.855  29.162 -0.02 -0.03    -0.303 OA
DOCKED: ATOM     39  H   UNL d   1      39.071  45.955  28.273 +0.04 +0.02    +0.222 HD
DOCKED: ENDBRANCH  36  38
DOCKED: BRANCH  36  40
DOCKED: ATOM     40  O   UNL d   1      39.149  44.959  31.480 -0.04 -0.04    -0.303 OA
DOCKED: ATOM     41  H   UNL d   1      38.423  45.307  32.043 +0.03 +0.03    +0.222 HD
DOCKED: ENDBRANCH  36  40
DOCKED: ENDBRANCH  35  36
DOCKED: ENDBRANCH   5  35
DOCKED: BRANCH   4  42
DOCKED: ATOM     42  O   UNL d   1      37.608  47.535  28.108 -0.06 -0.03    -0.278 OA
DOCKED: BRANCH  42  43
DOCKED: ATOM     43  P   UNL d   1      37.712  46.694  26.757 -0.05 +0.04    +0.473 P 
DOCKED: ATOM     44  O   UNL d   1      39.004  46.740  26.017 -0.03 -0.02    -0.228 OA
DOCKED: BRANCH  43  45
DOCKED: ATOM     45  O   UNL d   1      37.279  45.234  27.220 -0.14 -0.02    -0.303 OA
DOCKED: ATOM     46  H   UNL d   1      37.821  44.921  27.972 +0.06 +0.02    +0.222 HD
DOCKED: ENDBRANCH  43  45
DOCKED: BRANCH  43  47
DOCKED: ATOM     47  O   UNL d   1      36.424  47.169  25.929 -0.16 -0.02    -0.303 OA
DOCKED: ATOM     48  H   UNL d   1      36.149  48.055  26.242 +0.06 +0.01    +0.222 HD
DOCKED: ENDBRANCH  43  47
DOCKED: ENDBRANCH  42  43
DOCKED: ENDBRANCH   4  42
DOCKED: TORSDOF 24
DOCKED: TER
DOCKED: ENDMDL
________________________________________________________________________________


	BEGINNING GENETIC ALGORITHM DOCKING 90 of 100
Run: 90 Seed: 2134044487 1532072836 [ Run 90 of 100 GA/GALS ]
Beginning LAMARCKIAN GENETIC ALGORITHM (LGA), with a maximum of 25000000 energy evaluations.

Final-Value: -16.517


	FINAL GENETIC ALGORITHM DOCKED STATE
	_______________________________________________


Detailed state:  trans -2.271 30.314 14.700 quatxyzw 0.949661 -0.168329 -0.223172 0.141435 center 0.035 0.082 -0.065 ntor 24 179.6621 -44.7136 100.4351 109.9030 -106.0192 -154.9640 -29.2218 -87.4443 -18.3706 73.3302 89.6511 -140.7765 -122.4438 99.1747 -1.8411 -42.5783 -11.9732 141.1829 41.9585 -5.9056 -48.8387 1.9446 162.5489 -4.0792
State:	 -2.271  30.314  14.700   0.959 -0.170 -0.225 163.738    179.66  -44.71  100.44  109.90 -106.02 -154.96  -29.22  -87.44  -18.37   73.33   89.65 -140.78 -122.44   99.17   -1.84  -42.58  -11.97  141.18   41.96   -5.91  -48.84    1.94  162.55   -4.08

DOCKED: MODEL       90
DOCKED: USER    Run = 90
DOCKED: USER    DPF = D:/Protein_go_brrr/autodock/final/2DN3/IHP/dock.dpf
DOCKED: USER  
DOCKED: USER    Estimated Free Energy of Binding    =   +5.71 kcal/mol  [=(1)+(2)+(3)-(4)]
DOCKED: USER    
DOCKED: USER    (1) Final Intermolecular Energy     =   -1.44 kcal/mol
DOCKED: USER        vdW + Hbond + desolv Energy     =   -1.38 kcal/mol
DOCKED: USER        Electrostatic Energy            =   -0.07 kcal/mol
DOCKED: USER    (2) Final Total Internal Energy     =  -15.07 kcal/mol
DOCKED: USER    (3) Torsional Free Energy           =   +7.16 kcal/mol
DOCKED: USER    (4) Unbound System's Energy  [=(2)] =  -15.07 kcal/mol
DOCKED: USER    
DOCKED: USER    
DOCKED: USER    NEWDPF move IHP_ideal_opt.pdbqt
DOCKED: USER    NEWDPF about 0.035000 0.082000 -0.065000
DOCKED: USER    NEWDPF tran0 -2.270514 30.313970 14.699640
DOCKED: USER    NEWDPF quaternion0 0.949661 -0.168329 -0.223172 0.141435
DOCKED: USER    NEWDPF axisangle0 0.959304 -0.170038 -0.225438 163.738169
DOCKED: USER    NEWDPF quat0 0.959304 -0.170038 -0.225438 163.738169
DOCKED: USER    NEWDPF dihe0 179.66 -44.71 100.44 109.90 -106.02 -154.96 -29.22 -87.44 -18.37 73.33 89.65 -140.78 -122.44 99.17 -1.84 -42.58 -11.97 141.18 41.96 -5.91 -48.84 1.94 162.55 -4.08 
DOCKED: USER  keepresnum = 1 
DOCKED: USER  
DOCKED: REMARK  24 active torsions:
DOCKED: REMARK  status: ('A' for Active; 'I' for Inactive)
DOCKED: REMARK    1  A    between atoms: C_1  and  O_7 
DOCKED: REMARK    2  A    between atoms: C_2  and  O_12 
DOCKED: REMARK    3  A    between atoms: C_3  and  O_17 
DOCKED: REMARK    4  A    between atoms: C_4  and  O_22 
DOCKED: REMARK    5  A    between atoms: C_5  and  O_27 
DOCKED: REMARK    6  A    between atoms: C_6  and  O_32 
DOCKED: REMARK    7  A    between atoms: O_7  and  P_8 
DOCKED: REMARK    8  A    between atoms: P_8  and  O_10 
DOCKED: REMARK    9  A    between atoms: P_8  and  O_11 
DOCKED: REMARK   10  A    between atoms: O_12  and  P_13 
DOCKED: REMARK   11  A    between atoms: P_13  and  O_15 
DOCKED: REMARK   12  A    between atoms: P_13  and  O_16 
DOCKED: REMARK   13  A    between atoms: O_17  and  P_18 
DOCKED: REMARK   14  A    between atoms: P_18  and  O_20 
DOCKED: REMARK   15  A    between atoms: P_18  and  O_21 
DOCKED: REMARK   16  A    between atoms: O_22  and  P_23 
DOCKED: REMARK   17  A    between atoms: P_23  and  O_25 
DOCKED: REMARK   18  A    between atoms: P_23  and  O_26 
DOCKED: REMARK   19  A    between atoms: O_27  and  P_28 
DOCKED: REMARK   20  A    between atoms: P_28  and  O_30 
DOCKED: REMARK   21  A    between atoms: P_28  and  O_31 
DOCKED: REMARK   22  A    between atoms: O_32  and  P_33 
DOCKED: REMARK   23  A    between atoms: P_33  and  O_35 
DOCKED: REMARK   24  A    between atoms: P_33  and  O_36 
DOCKED: USER                              x       y       z     vdW  Elec       q    Type
DOCKED: USER                           _______ _______ _______ _____ _____    ______ ____
DOCKED: ROOT
DOCKED: ATOM      1  C   UNL d   1      -1.171  31.067  13.600 -0.02 -0.00    +0.194 C 
DOCKED: ATOM      2  C   UNL d   1      -1.777  31.986  14.662 -0.02 -0.00    +0.194 C 
DOCKED: ATOM      3  C   UNL d   1      -3.274  31.729  14.846 -0.00 -0.00    +0.194 C 
DOCKED: ATOM      4  C   UNL d   1      -3.605  30.260  15.098 +0.00 -0.00    +0.194 C 
DOCKED: ATOM      5  C   UNL d   1      -2.928  29.297  14.131 -0.00 -0.01    +0.194 C 
DOCKED: ATOM      6  C   UNL d   1      -1.445  29.592  13.899 -0.01 -0.01    +0.194 C 
DOCKED: ENDROOT
DOCKED: BRANCH   1   7
DOCKED: ATOM      7  O   UNL d   1       0.247  31.247  13.611 -0.07 -0.01    -0.278 OA
DOCKED: BRANCH   7   8
DOCKED: ATOM      8  P   UNL d   1       0.858  32.507  12.842 -0.11 +0.04    +0.473 P 
DOCKED: ATOM      9  O   UNL d   1       0.788  32.434  11.357 -0.17 -0.01    -0.228 OA
DOCKED: BRANCH   8  10
DOCKED: ATOM     10  O   UNL d   1       0.065  33.752  13.448 -0.10 -0.00    -0.303 OA
DOCKED: ATOM     11  H   UNL d   1      -0.302  33.512  14.320 +0.05 -0.00    +0.222 HD
DOCKED: ENDBRANCH   8  10
DOCKED: BRANCH   8  12
DOCKED: ATOM     12  O   UNL d   1       2.309  32.704  13.459 -0.47 -0.12    -0.303 OA
DOCKED: ATOM     13  H   UNL d   1       2.317  33.302  14.241 +0.12 +0.03    +0.222 HD
DOCKED: ENDBRANCH   8  12
DOCKED: ENDBRANCH   7   8
DOCKED: ENDBRANCH   1   7
DOCKED: BRANCH   2  14
DOCKED: ATOM     14  O   UNL d   1      -1.117  31.755  15.912 -0.01 +0.01    -0.278 OA
DOCKED: BRANCH  14  15
DOCKED: ATOM     15  P   UNL d   1      -0.486  33.037  16.636 -0.04 -0.02    +0.473 P 
DOCKED: ATOM     16  O   UNL d   1      -0.330  32.960  18.123 -0.04 +0.02    -0.228 OA
DOCKED: BRANCH  15  17
DOCKED: ATOM     17  O   UNL d   1       0.898  33.267  15.881 -0.09 +0.01    -0.303 OA
DOCKED: ATOM     18  H   UNL d   1       0.998  32.645  15.135 +0.07 +0.00    +0.222 HD
DOCKED: ENDBRANCH  15  17
DOCKED: BRANCH  15  19
DOCKED: ATOM     19  O   UNL d   1      -1.350  34.260  16.100 -0.05 +0.02    -0.303 OA
DOCKED: ATOM     20  H   UNL d   1      -2.306  34.092  16.187 +0.02 -0.01    +0.222 HD
DOCKED: ENDBRANCH  15  19
DOCKED: ENDBRANCH  14  15
DOCKED: ENDBRANCH   2  14
DOCKED: BRANCH   6  21
DOCKED: ATOM     21  O   UNL d   1      -1.053  28.851  12.746 -0.02 +0.02    -0.278 OA
DOCKED: BRANCH  21  22
DOCKED: ATOM     22  P   UNL d   1       0.457  28.358  12.598 -0.09 -0.05    +0.473 P 
DOCKED: ATOM     23  O   UNL d   1       1.238  28.096  13.841 -0.18 +0.02    -0.228 OA
DOCKED: BRANCH  22  24
DOCKED: ATOM     24  O   UNL d   1       0.296  27.102  11.634 -0.18 +0.09    -0.303 OA
DOCKED: ATOM     25  H   UNL d   1       1.171  26.641  11.579 +0.09 -0.08    +0.222 HD
DOCKED: ENDBRANCH  22  24
DOCKED: BRANCH  22  26
DOCKED: ATOM     26  O   UNL d   1       1.064  29.461  11.605 -0.16 +0.01    -0.303 OA
DOCKED: ATOM     27  H   UNL d   1       0.606  30.313  11.753 +0.08 -0.00    +0.222 HD
DOCKED: ENDBRANCH  22  26
DOCKED: ENDBRANCH  21  22
DOCKED: ENDBRANCH   6  21
DOCKED: BRANCH   3  28
DOCKED: ATOM     28  O   UNL d   1      -3.685  32.415  16.022 -0.00 +0.01    -0.278 OA
DOCKED: BRANCH  28  29
DOCKED: ATOM     29  P   UNL d   1      -4.674  33.660  15.923 -0.00 -0.01    +0.473 P 
DOCKED: ATOM     30  O   UNL d   1      -4.108  34.878  15.289 -0.01 +0.00    -0.228 OA
DOCKED: BRANCH  29  31
DOCKED: ATOM     31  O   UNL d   1      -5.918  32.971  15.189 -0.00 +0.00    -0.303 OA
DOCKED: ATOM     32  H   UNL d   1      -5.876  31.999  15.346 +0.00 -0.00    +0.222 HD
DOCKED: ENDBRANCH  29  31
DOCKED: BRANCH  29  33
DOCKED: ATOM     33  O   UNL d   1      -5.185  33.801  17.424 -0.00 +0.01    -0.303 OA
DOCKED: ATOM     34  H   UNL d   1      -5.159  32.912  17.857 +0.00 -0.00    +0.222 HD
DOCKED: ENDBRANCH  29  33
DOCKED: ENDBRANCH  28  29
DOCKED: ENDBRANCH   3  28
DOCKED: BRANCH   5  35
DOCKED: ATOM     35  O   UNL d   1      -3.010  28.012  14.745 -0.00 +0.01    -0.278 OA
DOCKED: BRANCH  35  36
DOCKED: ATOM     36  P   UNL d   1      -2.204  27.709  16.087 +0.00 -0.02    +0.473 P 
DOCKED: ATOM     37  O   UNL d   1      -2.033  28.871  17.013 -0.00 +0.01    -0.228 OA
DOCKED: BRANCH  36  38
DOCKED: ATOM     38  O   UNL d   1      -3.037  26.499  16.702 -0.00 +0.01    -0.303 OA
DOCKED: ATOM     39  H   UNL d   1      -3.757  26.858  17.264 +0.00 -0.01    +0.222 HD
DOCKED: ENDBRANCH  36  38
DOCKED: BRANCH  36  40
DOCKED: ATOM     40  O   UNL d   1      -0.878  27.021  15.540 -0.01 +0.02    -0.303 OA
DOCKED: ATOM     41  H   UNL d   1      -0.624  27.371  14.657 +0.04 -0.02    +0.222 HD
DOCKED: ENDBRANCH  36  40
DOCKED: ENDBRANCH  35  36
DOCKED: ENDBRANCH   5  35
DOCKED: BRANCH   4  42
DOCKED: ATOM     42  O   UNL d   1      -5.018  30.116  14.915 +0.00 +0.00    -0.278 OA
DOCKED: BRANCH  42  43
DOCKED: ATOM     43  P   UNL d   1      -5.920  29.710  16.167 +0.00 -0.01    +0.473 P 
DOCKED: ATOM     44  O   UNL d   1      -7.357  29.416  15.911 +0.00 +0.00    -0.228 OA
DOCKED: BRANCH  43  45
DOCKED: ATOM     45  O   UNL d   1      -5.110  28.497  16.802 +0.00 +0.01    -0.303 OA
DOCKED: ATOM     46  H   UNL d   1      -4.190  28.468  16.471 +0.00 -0.01    +0.222 HD
DOCKED: ENDBRANCH  43  45
DOCKED: BRANCH  43  47
DOCKED: ATOM     47  O   UNL d   1      -5.631  30.883  17.222 +0.00 +0.00    -0.303 OA
DOCKED: ATOM     48  H   UNL d   1      -5.556  31.735  16.744 +0.00 -0.00    +0.222 HD
DOCKED: ENDBRANCH  43  47
DOCKED: ENDBRANCH  42  43
DOCKED: ENDBRANCH   4  42
DOCKED: TORSDOF 24
DOCKED: TER
DOCKED: ENDMDL
________________________________________________________________________________


	BEGINNING GENETIC ALGORITHM DOCKING 91 of 100
Run: 91 Seed: 1613331065 1064919963 [ Run 91 of 100 GA/GALS ]
Beginning LAMARCKIAN GENETIC ALGORITHM (LGA), with a maximum of 25000000 energy evaluations.

Final-Value: -18.508


	FINAL GENETIC ALGORITHM DOCKED STATE
	_______________________________________________


Detailed state:  trans 46.417 42.760 1.713 quatxyzw 0.493482 -0.787459 -0.188389 0.317638 center 0.035 0.082 -0.065 ntor 24 -163.6012 -46.8344 114.9673 106.3944 23.8277 160.0544 -9.9539 -89.0253 -5.3588 17.0328 -48.4502 -152.3440 -127.0200 97.6980 -179.8862 -73.3667 -177.3146 -42.6661 41.8108 -5.6503 -18.9706 8.3489 -35.0687 6.5511
State:	 46.417  42.760   1.713   0.520 -0.830 -0.199 142.960   -163.60  -46.83  114.97  106.39   23.83  160.05   -9.95  -89.03   -5.36   17.03  -48.45 -152.34 -127.02   97.70 -179.89  -73.37 -177.31  -42.67   41.81   -5.65  -18.97    8.35  -35.07    6.55

DOCKED: MODEL       91
DOCKED: USER    Run = 91
DOCKED: USER    DPF = D:/Protein_go_brrr/autodock/final/2DN3/IHP/dock.dpf
DOCKED: USER  
DOCKED: USER    Estimated Free Energy of Binding    =   +3.70 kcal/mol  [=(1)+(2)+(3)-(4)]
DOCKED: USER    
DOCKED: USER    (1) Final Intermolecular Energy     =   -3.46 kcal/mol
DOCKED: USER        vdW + Hbond + desolv Energy     =   -3.19 kcal/mol
DOCKED: USER        Electrostatic Energy            =   -0.27 kcal/mol
DOCKED: USER    (2) Final Total Internal Energy     =  -15.05 kcal/mol
DOCKED: USER    (3) Torsional Free Energy           =   +7.16 kcal/mol
DOCKED: USER    (4) Unbound System's Energy  [=(2)] =  -15.05 kcal/mol
DOCKED: USER    
DOCKED: USER    
DOCKED: USER    NEWDPF move IHP_ideal_opt.pdbqt
DOCKED: USER    NEWDPF about 0.035000 0.082000 -0.065000
DOCKED: USER    NEWDPF tran0 46.416939 42.759877 1.713488
DOCKED: USER    NEWDPF quaternion0 0.493482 -0.787459 -0.188389 0.317638
DOCKED: USER    NEWDPF axisangle0 0.520434 -0.830467 -0.198678 142.959754
DOCKED: USER    NEWDPF quat0 0.520434 -0.830467 -0.198678 142.959754
DOCKED: USER    NEWDPF dihe0 -163.60 -46.83 114.97 106.39 23.83 160.05 -9.95 -89.03 -5.36 17.03 -48.45 -152.34 -127.02 97.70 -179.89 -73.37 -177.31 -42.67 41.81 -5.65 -18.97 8.35 -35.07 6.55 
DOCKED: USER  keepresnum = 1 
DOCKED: USER  
DOCKED: REMARK  24 active torsions:
DOCKED: REMARK  status: ('A' for Active; 'I' for Inactive)
DOCKED: REMARK    1  A    between atoms: C_1  and  O_7 
DOCKED: REMARK    2  A    between atoms: C_2  and  O_12 
DOCKED: REMARK    3  A    between atoms: C_3  and  O_17 
DOCKED: REMARK    4  A    between atoms: C_4  and  O_22 
DOCKED: REMARK    5  A    between atoms: C_5  and  O_27 
DOCKED: REMARK    6  A    between atoms: C_6  and  O_32 
DOCKED: REMARK    7  A    between atoms: O_7  and  P_8 
DOCKED: REMARK    8  A    between atoms: P_8  and  O_10 
DOCKED: REMARK    9  A    between atoms: P_8  and  O_11 
DOCKED: REMARK   10  A    between atoms: O_12  and  P_13 
DOCKED: REMARK   11  A    between atoms: P_13  and  O_15 
DOCKED: REMARK   12  A    between atoms: P_13  and  O_16 
DOCKED: REMARK   13  A    between atoms: O_17  and  P_18 
DOCKED: REMARK   14  A    between atoms: P_18  and  O_20 
DOCKED: REMARK   15  A    between atoms: P_18  and  O_21 
DOCKED: REMARK   16  A    between atoms: O_22  and  P_23 
DOCKED: REMARK   17  A    between atoms: P_23  and  O_25 
DOCKED: REMARK   18  A    between atoms: P_23  and  O_26 
DOCKED: REMARK   19  A    between atoms: O_27  and  P_28 
DOCKED: REMARK   20  A    between atoms: P_28  and  O_30 
DOCKED: REMARK   21  A    between atoms: P_28  and  O_31 
DOCKED: REMARK   22  A    between atoms: O_32  and  P_33 
DOCKED: REMARK   23  A    between atoms: P_33  and  O_35 
DOCKED: REMARK   24  A    between atoms: P_33  and  O_36 
DOCKED: USER                              x       y       z     vdW  Elec       q    Type
DOCKED: USER                           _______ _______ _______ _____ _____    ______ ____
DOCKED: ROOT
DOCKED: ATOM      1  C   UNL d   1      47.072  42.026   0.293 -0.04 +0.02    +0.194 C 
DOCKED: ATOM      2  C   UNL d   1      48.066  42.266   1.432 -0.07 +0.02    +0.194 C 
DOCKED: ATOM      3  C   UNL d   1      47.874  43.644   2.070 -0.09 -0.00    +0.194 C 
DOCKED: ATOM      4  C   UNL d   1      46.433  43.914   2.495 -0.08 +0.01    +0.194 C 
DOCKED: ATOM      5  C   UNL d   1      45.398  43.579   1.428 -0.08 +0.02    +0.194 C 
DOCKED: ATOM      6  C   UNL d   1      45.626  42.228   0.747 -0.07 +0.03    +0.194 C 
DOCKED: ENDROOT
DOCKED: BRANCH   1   7
DOCKED: ATOM      7  O   UNL d   1      47.200  40.667  -0.131 -0.02 -0.03    -0.278 OA
DOCKED: BRANCH   7   8
DOCKED: ATOM      8  P   UNL d   1      48.394  40.290  -1.123 +0.00 +0.05    +0.473 P 
DOCKED: ATOM      9  O   UNL d   1      48.197  40.712  -2.536 -0.00 -0.02    -0.228 OA
DOCKED: BRANCH   8  10
DOCKED: ATOM     10  O   UNL d   1      49.681  40.946  -0.445 -0.00 -0.03    -0.303 OA
DOCKED: ATOM     11  H   UNL d   1      49.627  40.845   0.524 +0.02 +0.02    +0.222 HD
DOCKED: ENDBRANCH   8  10
DOCKED: BRANCH   8  12
DOCKED: ATOM     12  O   UNL d   1      48.649  38.739  -0.891 -0.00 -0.04    -0.303 OA
DOCKED: ATOM     13  H   UNL d   1      49.335  38.559  -0.208 +0.02 +0.03    +0.222 HD
DOCKED: ENDBRANCH   8  12
DOCKED: ENDBRANCH   7   8
DOCKED: ENDBRANCH   1   7
DOCKED: BRANCH   2  14
DOCKED: ATOM     14  O   UNL d   1      47.872  41.265   2.439 -0.08 -0.04    -0.278 OA
DOCKED: BRANCH  14  15
DOCKED: ATOM     15  P   UNL d   1      49.165  40.424   2.869 -0.06 +0.08    +0.473 P 
DOCKED: ATOM     16  O   UNL d   1      49.169  39.860   4.255 -0.22 -0.05    -0.228 OA
DOCKED: BRANCH  15  17
DOCKED: ATOM     17  O   UNL d   1      49.289  39.302   1.745 -0.02 -0.06    -0.303 OA
DOCKED: ATOM     18  H   UNL d   1      48.790  39.551   0.944 +0.03 +0.04    +0.222 HD
DOCKED: ENDBRANCH  15  17
DOCKED: BRANCH  15  19
DOCKED: ATOM     19  O   UNL d   1      50.392  41.372   2.512 -0.02 -0.02    -0.303 OA
DOCKED: ATOM     20  H   UNL d   1      50.247  42.283   2.825 +0.05 +0.00    +0.222 HD
DOCKED: ENDBRANCH  15  19
DOCKED: ENDBRANCH  14  15
DOCKED: ENDBRANCH   2  14
DOCKED: BRANCH   6  21
DOCKED: ATOM     21  O   UNL d   1      44.814  42.216  -0.426 -0.02 -0.03    -0.278 OA
DOCKED: BRANCH  21  22
DOCKED: ATOM     22  P   UNL d   1      43.707  41.082  -0.610 -0.02 +0.07    +0.473 P 
DOCKED: ATOM     23  O   UNL d   1      43.370  40.646  -1.996 -0.01 -0.03    -0.228 OA
DOCKED: BRANCH  22  24
DOCKED: ATOM     24  O   UNL d   1      44.261  39.929   0.336 -0.05 -0.05    -0.303 OA
DOCKED: ATOM     25  H   UNL d   1      45.241  39.865   0.203 +0.04 +0.04    +0.222 HD
DOCKED: ENDBRANCH  22  24
DOCKED: BRANCH  22  26
DOCKED: ATOM     26  O   UNL d   1      42.493  41.668   0.258 -0.03 -0.05    -0.303 OA
DOCKED: ATOM     27  H   UNL d   1      42.823  42.399   0.820 +0.04 +0.04    +0.222 HD
DOCKED: ENDBRANCH  22  26
DOCKED: ENDBRANCH  21  22
DOCKED: ENDBRANCH   6  21
DOCKED: BRANCH   3  28
DOCKED: ATOM     28  O   UNL d   1      48.633  43.668   3.272 -0.12 +0.03    -0.278 OA
DOCKED: BRANCH  28  29
DOCKED: ATOM     29  P   UNL d   1      49.813  44.721   3.457 -0.05 -0.12    +0.473 P 
DOCKED: ATOM     30  O   UNL d   1      51.182  44.200   3.208 -0.03 +0.03    -0.228 OA
DOCKED: BRANCH  29  31
DOCKED: ATOM     31  O   UNL d   1      49.296  45.892   2.497 -0.02 +0.06    -0.303 OA
DOCKED: ATOM     32  H   UNL d   1      48.326  46.000   2.628 +0.05 -0.05    +0.222 HD
DOCKED: ENDBRANCH  29  31
DOCKED: BRANCH  29  33
DOCKED: ATOM     33  O   UNL d   1      49.517  45.302   4.910 -0.07 +0.29    -0.303 OA
DOCKED: ATOM     34  H   UNL d   1      48.544  45.268   5.078 -0.40 -0.32    +0.222 HD
DOCKED: ENDBRANCH  29  33
DOCKED: ENDBRANCH  28  29
DOCKED: ENDBRANCH   3  28
DOCKED: BRANCH   5  35
DOCKED: ATOM     35  O   UNL d   1      44.149  43.499   2.112 +0.12 -0.05    -0.278 OA
DOCKED: BRANCH  35  36
DOCKED: ATOM     36  P   UNL d   1      43.177  44.763   2.164 -0.05 +0.06    +0.473 P 
DOCKED: ATOM     37  O   UNL d   1      42.616  45.090   3.512 -0.16 -0.03    -0.228 OA
DOCKED: BRANCH  36  38
DOCKED: ATOM     38  O   UNL d   1      44.096  45.906   1.543 -0.03 -0.01    -0.303 OA
DOCKED: ATOM     39  H   UNL d   1      44.759  46.183   2.210 +0.05 -0.01    +0.222 HD
DOCKED: ENDBRANCH  36  38
DOCKED: BRANCH  36  40
DOCKED: ATOM     40  O   UNL d   1      42.135  44.438   1.008 -0.03 -0.05    -0.303 OA
DOCKED: ATOM     41  H   UNL d   1      42.517  43.834   0.333 +0.02 +0.03    +0.222 HD
DOCKED: ENDBRANCH  36  40
DOCKED: ENDBRANCH  35  36
DOCKED: ENDBRANCH   5  35
DOCKED: BRANCH   4  42
DOCKED: ATOM     42  O   UNL d   1      46.333  45.319   2.752 -0.11 +0.03    -0.278 OA
DOCKED: BRANCH  42  43
DOCKED: ATOM     43  P   UNL d   1      46.281  45.825   4.264 -0.23 -0.21    +0.473 P 
DOCKED: ATOM     44  O   UNL d   1      46.411  44.799   5.336 -0.63 +0.11    -0.228 OA
DOCKED: BRANCH  43  45
DOCKED: ATOM     45  O   UNL d   1      47.410  46.946   4.296 -0.15 +0.24    -0.303 OA
DOCKED: ATOM     46  H   UNL d   1      48.099  46.742   4.960 -0.43 -0.37    +0.222 HD
DOCKED: ENDBRANCH  43  45
DOCKED: BRANCH  43  47
DOCKED: ATOM     47  O   UNL d   1      44.944  46.708   4.309 -0.18 +0.12    -0.303 OA
DOCKED: ATOM     48  H   UNL d   1      44.322  46.387   3.624 +0.06 -0.03    +0.222 HD
DOCKED: ENDBRANCH  43  47
DOCKED: ENDBRANCH  42  43
DOCKED: ENDBRANCH   4  42
DOCKED: TORSDOF 24
DOCKED: TER
DOCKED: ENDMDL
________________________________________________________________________________


	BEGINNING GENETIC ALGORITHM DOCKING 92 of 100
Run: 92 Seed: 1096781352 2105526420 [ Run 92 of 100 GA/GALS ]
Beginning LAMARCKIAN GENETIC ALGORITHM (LGA), with a maximum of 25000000 energy evaluations.

Final-Value: -17.702


	FINAL GENETIC ALGORITHM DOCKED STATE
	_______________________________________________


Detailed state:  trans 47.964 47.065 3.718 quatxyzw -0.092687 -0.036804 0.252900 0.962339 center 0.035 0.082 -0.065 ntor 24 -171.2926 -9.8555 97.3451 87.1751 -10.1773 179.8567 -102.5070 32.9180 -18.0766 123.7087 73.7233 174.8805 48.3488 -31.5156 -161.1758 10.9193 -31.3289 164.9870 -2.2403 -57.3652 -39.3325 175.4720 150.2045 -10.7819
State:	 47.964  47.065   3.718  -0.341 -0.135  0.930 31.549   -171.29   -9.86   97.35   87.18  -10.18  179.86 -102.51   32.92  -18.08  123.71   73.72  174.88   48.35  -31.52 -161.18   10.92  -31.33  164.99   -2.24  -57.37  -39.33  175.47  150.20  -10.78

DOCKED: MODEL       92
DOCKED: USER    Run = 92
DOCKED: USER    DPF = D:/Protein_go_brrr/autodock/final/2DN3/IHP/dock.dpf
DOCKED: USER  
DOCKED: USER    Estimated Free Energy of Binding    =   +4.50 kcal/mol  [=(1)+(2)+(3)-(4)]
DOCKED: USER    
DOCKED: USER    (1) Final Intermolecular Energy     =   -2.65 kcal/mol
DOCKED: USER        vdW + Hbond + desolv Energy     =   -2.23 kcal/mol
DOCKED: USER        Electrostatic Energy            =   -0.42 kcal/mol
DOCKED: USER    (2) Final Total Internal Energy     =  -15.05 kcal/mol
DOCKED: USER    (3) Torsional Free Energy           =   +7.16 kcal/mol
DOCKED: USER    (4) Unbound System's Energy  [=(2)] =  -15.05 kcal/mol
DOCKED: USER    
DOCKED: USER    
DOCKED: USER    NEWDPF move IHP_ideal_opt.pdbqt
DOCKED: USER    NEWDPF about 0.035000 0.082000 -0.065000
DOCKED: USER    NEWDPF tran0 47.963982 47.064839 3.717669
DOCKED: USER    NEWDPF quaternion0 -0.092687 -0.036804 0.252900 0.962339
DOCKED: USER    NEWDPF axisangle0 -0.340947 -0.135383 0.930283 31.549077
DOCKED: USER    NEWDPF quat0 -0.340947 -0.135383 0.930283 31.549077
DOCKED: USER    NEWDPF dihe0 -171.29 -9.86 97.35 87.18 -10.18 179.86 -102.51 32.92 -18.08 123.71 73.72 174.88 48.35 -31.52 -161.18 10.92 -31.33 164.99 -2.24 -57.37 -39.33 175.47 150.20 -10.78 
DOCKED: USER  keepresnum = 1 
DOCKED: USER  
DOCKED: REMARK  24 active torsions:
DOCKED: REMARK  status: ('A' for Active; 'I' for Inactive)
DOCKED: REMARK    1  A    between atoms: C_1  and  O_7 
DOCKED: REMARK    2  A    between atoms: C_2  and  O_12 
DOCKED: REMARK    3  A    between atoms: C_3  and  O_17 
DOCKED: REMARK    4  A    between atoms: C_4  and  O_22 
DOCKED: REMARK    5  A    between atoms: C_5  and  O_27 
DOCKED: REMARK    6  A    between atoms: C_6  and  O_32 
DOCKED: REMARK    7  A    between atoms: O_7  and  P_8 
DOCKED: REMARK    8  A    between atoms: P_8  and  O_10 
DOCKED: REMARK    9  A    between atoms: P_8  and  O_11 
DOCKED: REMARK   10  A    between atoms: O_12  and  P_13 
DOCKED: REMARK   11  A    between atoms: P_13  and  O_15 
DOCKED: REMARK   12  A    between atoms: P_13  and  O_16 
DOCKED: REMARK   13  A    between atoms: O_17  and  P_18 
DOCKED: REMARK   14  A    between atoms: P_18  and  O_20 
DOCKED: REMARK   15  A    between atoms: P_18  and  O_21 
DOCKED: REMARK   16  A    between atoms: O_22  and  P_23 
DOCKED: REMARK   17  A    between atoms: P_23  and  O_25 
DOCKED: REMARK   18  A    between atoms: P_23  and  O_26 
DOCKED: REMARK   19  A    between atoms: O_27  and  P_28 
DOCKED: REMARK   20  A    between atoms: P_28  and  O_30 
DOCKED: REMARK   21  A    between atoms: P_28  and  O_31 
DOCKED: REMARK   22  A    between atoms: O_32  and  P_33 
DOCKED: REMARK   23  A    between atoms: P_33  and  O_35 
DOCKED: REMARK   24  A    between atoms: P_33  and  O_36 
DOCKED: USER                              x       y       z     vdW  Elec       q    Type
DOCKED: USER                           _______ _______ _______ _____ _____    ______ ____
DOCKED: ROOT
DOCKED: ATOM      1  C   UNL d   1      48.634  45.549   4.204 -0.08 -0.14    +0.194 C 
DOCKED: ATOM      2  C   UNL d   1      47.143  45.533   3.860 -0.22 -0.09    +0.194 C 
DOCKED: ATOM      3  C   UNL d   1      46.415  46.745   4.444 -0.15 -0.13    +0.194 C 
DOCKED: ATOM      4  C   UNL d   1      47.076  48.074   4.086 -0.15 -0.10    +0.194 C 
DOCKED: ATOM      5  C   UNL d   1      48.583  48.096   4.305 -0.09 -0.12    +0.194 C 
DOCKED: ATOM      6  C   UNL d   1      49.304  46.855   3.775 -0.06 -0.10    +0.194 C 
DOCKED: ENDROOT
DOCKED: BRANCH   1   7
DOCKED: ATOM      7  O   UNL d   1      49.268  44.488   3.484 -0.09 +0.07    -0.278 OA
DOCKED: BRANCH   7   8
DOCKED: ATOM      8  P   UNL d   1      50.115  43.413   4.308 -0.12 -0.08    +0.473 P 
DOCKED: ATOM      9  O   UNL d   1      49.413  42.128   4.576 -0.24 -0.00    -0.228 OA
DOCKED: BRANCH   8  10
DOCKED: ATOM     10  O   UNL d   1      51.449  43.232   3.451 -0.03 +0.02    -0.303 OA
DOCKED: ATOM     11  H   UNL d   1      51.660  44.068   2.994 +0.03 -0.02    +0.222 HD
DOCKED: ENDBRANCH   8  10
DOCKED: BRANCH   8  12
DOCKED: ATOM     12  O   UNL d   1      50.644  44.194   5.586 -0.05 +0.13    -0.303 OA
DOCKED: ATOM     13  H   UNL d   1      51.146  45.010   5.359 +0.04 -0.11    +0.222 HD
DOCKED: ENDBRANCH   8  12
DOCKED: ENDBRANCH   7   8
DOCKED: ENDBRANCH   1   7
DOCKED: BRANCH   2  14
DOCKED: ATOM     14  O   UNL d   1      46.992  45.552   2.435 -0.06 +0.04    -0.278 OA
DOCKED: BRANCH  14  15
DOCKED: ATOM     15  P   UNL d   1      47.323  44.189   1.662 -0.04 -0.00    +0.473 P 
DOCKED: ATOM     16  O   UNL d   1      47.215  42.924   2.454 -0.09 -0.02    -0.228 OA
DOCKED: BRANCH  15  17
DOCKED: ATOM     17  O   UNL d   1      46.351  44.214   0.400 -0.02 -0.01    -0.303 OA
DOCKED: ATOM     18  H   UNL d   1      45.820  45.033   0.381 +0.02 +0.01    +0.222 HD
DOCKED: ENDBRANCH  15  17
DOCKED: BRANCH  15  19
DOCKED: ATOM     19  O   UNL d   1      48.736  44.453   0.981 -0.01 +0.00    -0.303 OA
DOCKED: ATOM     20  H   UNL d   1      49.260  45.107   1.480 +0.03 -0.01    +0.222 HD
DOCKED: ENDBRANCH  15  19
DOCKED: ENDBRANCH  14  15
DOCKED: ENDBRANCH   2  14
DOCKED: BRANCH   6  21
DOCKED: ATOM     21  O   UNL d   1      50.610  46.862   4.347 -0.06 +0.14    -0.278 OA
DOCKED: BRANCH  21  22
DOCKED: ATOM     22  P   UNL d   1      51.860  46.397   3.471 +0.01 -0.09    +0.473 P 
DOCKED: ATOM     23  O   UNL d   1      52.806  45.407   4.063 -0.02 +0.03    -0.228 OA
DOCKED: BRANCH  22  24
DOCKED: ATOM     24  O   UNL d   1      51.156  45.925   2.124 -0.00 +0.03    -0.303 OA
DOCKED: ATOM     25  H   UNL d   1      50.742  45.039   2.287 +0.03 -0.02    +0.222 HD
DOCKED: ENDBRANCH  22  24
DOCKED: BRANCH  22  26
DOCKED: ATOM     26  O   UNL d   1      52.495  47.803   3.038 +0.00 +0.03    -0.303 OA
DOCKED: ATOM     27  H   UNL d   1      52.016  48.526   3.491 +0.01 -0.03    +0.222 HD
DOCKED: ENDBRANCH  22  26
DOCKED: ENDBRANCH  21  22
DOCKED: ENDBRANCH   6  21
DOCKED: BRANCH   3  28
DOCKED: ATOM     28  O   UNL d   1      45.123  46.794   3.852 -0.17 +0.09    -0.278 OA
DOCKED: BRANCH  28  29
DOCKED: ATOM     29  P   UNL d   1      44.948  47.265   2.340 -0.04 -0.05    +0.473 P 
DOCKED: ATOM     30  O   UNL d   1      46.121  47.954   1.744 -0.02 +0.02    -0.228 OA
DOCKED: BRANCH  29  31
DOCKED: ATOM     31  O   UNL d   1      44.499  45.883   1.669 -0.04 -0.00    -0.303 OA
DOCKED: ATOM     32  H   UNL d   1      45.142  45.183   1.930 +0.05 +0.00    +0.222 HD
DOCKED: ENDBRANCH  29  31
DOCKED: BRANCH  29  33
DOCKED: ATOM     33  O   UNL d   1      43.585  48.085   2.401 -0.05 +0.02    -0.303 OA
DOCKED: ATOM     34  H   UNL d   1      43.791  49.037   2.569 +0.03 -0.02    +0.222 HD
DOCKED: ENDBRANCH  29  33
DOCKED: ENDBRANCH  28  29
DOCKED: ENDBRANCH   3  28
DOCKED: BRANCH   5  35
DOCKED: ATOM     35  O   UNL d   1      49.066  49.212   3.559 -0.02 +0.08    -0.278 OA
DOCKED: BRANCH  35  36
DOCKED: ATOM     36  P   UNL d   1      49.266  49.099   1.981 +0.01 -0.05    +0.473 P 
DOCKED: ATOM     37  O   UNL d   1      48.642  47.902   1.335 -0.00 +0.02    -0.228 OA
DOCKED: BRANCH  36  38
DOCKED: ATOM     38  O   UNL d   1      48.683  50.493   1.477 +0.00 +0.02    -0.303 OA
DOCKED: ATOM     39  H   UNL d   1      47.718  50.401   1.325 +0.01 -0.01    +0.222 HD
DOCKED: ENDBRANCH  36  38
DOCKED: BRANCH  36  40
DOCKED: ATOM     40  O   UNL d   1      50.840  49.264   1.825 +0.00 +0.02    -0.303 OA
DOCKED: ATOM     41  H   UNL d   1      51.313  48.418   1.992 +0.00 -0.02    +0.222 HD
DOCKED: ENDBRANCH  36  40
DOCKED: ENDBRANCH  35  36
DOCKED: ENDBRANCH   5  35
DOCKED: BRANCH   4  42
DOCKED: ATOM     42  O   UNL d   1      46.510  49.065   4.951 -0.14 +0.17    -0.278 OA
DOCKED: BRANCH  42  43
DOCKED: ATOM     43  P   UNL d   1      45.775  50.324   4.304 -0.04 -0.14    +0.473 P 
DOCKED: ATOM     44  O   UNL d   1      45.819  51.607   5.059 -0.09 +0.05    -0.228 OA
DOCKED: BRANCH  43  45
DOCKED: ATOM     45  O   UNL d   1      46.423  50.399   2.853 -0.02 +0.04    -0.303 OA
DOCKED: ATOM     46  H   UNL d   1      47.075  49.683   2.715 +0.03 -0.04    +0.222 HD
DOCKED: ENDBRANCH  43  45
DOCKED: BRANCH  43  47
DOCKED: ATOM     47  O   UNL d   1      44.309  49.764   3.977 +0.08 +0.11    -0.303 OA
DOCKED: ATOM     48  H   UNL d   1      44.283  48.802   4.160 -0.43 -0.13    +0.222 HD
DOCKED: ENDBRANCH  43  47
DOCKED: ENDBRANCH  42  43
DOCKED: ENDBRANCH   4  42
DOCKED: TORSDOF 24
DOCKED: TER
DOCKED: ENDMDL
________________________________________________________________________________


	BEGINNING GENETIC ALGORITHM DOCKING 93 of 100
Run: 93 Seed: 1514985384 666837412 [ Run 93 of 100 GA/GALS ]
Beginning LAMARCKIAN GENETIC ALGORITHM (LGA), with a maximum of 25000000 energy evaluations.

Final-Value: -17.819


	FINAL GENETIC ALGORITHM DOCKED STATE
	_______________________________________________


Detailed state:  trans 23.361 16.556 21.562 quatxyzw -0.722303 0.450401 0.407987 0.330096 center 0.035 0.082 -0.065 ntor 24 127.5371 100.1803 110.3353 137.1955 92.1755 105.2955 -129.1079 -18.9957 136.2066 -20.3986 -6.9946 -94.9316 110.6275 94.0937 55.4537 -172.2300 -180.0000 -81.6420 54.3871 2.0905 -180.0000 11.7616 12.1454 172.7029
State:	 23.361  16.556  21.562  -0.765  0.477  0.432 141.451    127.54  100.18  110.34  137.20   92.18  105.30 -129.11  -19.00  136.21  -20.40   -6.99  -94.93  110.63   94.09   55.45 -172.23 -180.00  -81.64   54.39    2.09 -180.00   11.76   12.15  172.70

DOCKED: MODEL       93
DOCKED: USER    Run = 93
DOCKED: USER    DPF = D:/Protein_go_brrr/autodock/final/2DN3/IHP/dock.dpf
DOCKED: USER  
DOCKED: USER    Estimated Free Energy of Binding    =   +3.81 kcal/mol  [=(1)+(2)+(3)-(4)]
DOCKED: USER    
DOCKED: USER    (1) Final Intermolecular Energy     =   -3.35 kcal/mol
DOCKED: USER        vdW + Hbond + desolv Energy     =   -3.14 kcal/mol
DOCKED: USER        Electrostatic Energy            =   -0.20 kcal/mol
DOCKED: USER    (2) Final Total Internal Energy     =  -14.47 kcal/mol
DOCKED: USER    (3) Torsional Free Energy           =   +7.16 kcal/mol
DOCKED: USER    (4) Unbound System's Energy  [=(2)] =  -14.47 kcal/mol
DOCKED: USER    
DOCKED: USER    
DOCKED: USER    NEWDPF move IHP_ideal_opt.pdbqt
DOCKED: USER    NEWDPF about 0.035000 0.082000 -0.065000
DOCKED: USER    NEWDPF tran0 23.361369 16.556244 21.561866
DOCKED: USER    NEWDPF quaternion0 -0.722303 0.450401 0.407987 0.330096
DOCKED: USER    NEWDPF axisangle0 -0.765195 0.477147 0.432214 141.450791
DOCKED: USER    NEWDPF quat0 -0.765195 0.477147 0.432214 141.450791
DOCKED: USER    NEWDPF dihe0 127.54 100.18 110.34 137.20 92.18 105.30 -129.11 -19.00 136.21 -20.40 -6.99 -94.93 110.63 94.09 55.45 -172.23 -180.00 -81.64 54.39 2.09 -180.00 11.76 12.15 172.70 
DOCKED: USER  keepresnum = 1 
DOCKED: USER  
DOCKED: REMARK  24 active torsions:
DOCKED: REMARK  status: ('A' for Active; 'I' for Inactive)
DOCKED: REMARK    1  A    between atoms: C_1  and  O_7 
DOCKED: REMARK    2  A    between atoms: C_2  and  O_12 
DOCKED: REMARK    3  A    between atoms: C_3  and  O_17 
DOCKED: REMARK    4  A    between atoms: C_4  and  O_22 
DOCKED: REMARK    5  A    between atoms: C_5  and  O_27 
DOCKED: REMARK    6  A    between atoms: C_6  and  O_32 
DOCKED: REMARK    7  A    between atoms: O_7  and  P_8 
DOCKED: REMARK    8  A    between atoms: P_8  and  O_10 
DOCKED: REMARK    9  A    between atoms: P_8  and  O_11 
DOCKED: REMARK   10  A    between atoms: O_12  and  P_13 
DOCKED: REMARK   11  A    between atoms: P_13  and  O_15 
DOCKED: REMARK   12  A    between atoms: P_13  and  O_16 
DOCKED: REMARK   13  A    between atoms: O_17  and  P_18 
DOCKED: REMARK   14  A    between atoms: P_18  and  O_20 
DOCKED: REMARK   15  A    between atoms: P_18  and  O_21 
DOCKED: REMARK   16  A    between atoms: O_22  and  P_23 
DOCKED: REMARK   17  A    between atoms: P_23  and  O_25 
DOCKED: REMARK   18  A    between atoms: P_23  and  O_26 
DOCKED: REMARK   19  A    between atoms: O_27  and  P_28 
DOCKED: REMARK   20  A    between atoms: P_28  and  O_30 
DOCKED: REMARK   21  A    between atoms: P_28  and  O_31 
DOCKED: REMARK   22  A    between atoms: O_32  and  P_33 
DOCKED: REMARK   23  A    between atoms: P_33  and  O_35 
DOCKED: REMARK   24  A    between atoms: P_33  and  O_36 
DOCKED: USER                              x       y       z     vdW  Elec       q    Type
DOCKED: USER                           _______ _______ _______ _____ _____    ______ ____
DOCKED: ROOT
DOCKED: ATOM      1  C   UNL d   1      23.326  15.651  20.091 -0.00 +0.05    +0.194 C 
DOCKED: ATOM      2  C   UNL d   1      23.634  17.142  19.942 -0.05 +0.05    +0.194 C 
DOCKED: ATOM      3  C   UNL d   1      22.724  17.999  20.825 -0.07 +0.01    +0.194 C 
DOCKED: ATOM      4  C   UNL d   1      22.712  17.555  22.286 -0.03 +0.00    +0.194 C 
DOCKED: ATOM      5  C   UNL d   1      22.523  16.056  22.477 +0.00 +0.01    +0.194 C 
DOCKED: ATOM      6  C   UNL d   1      23.388  15.199  21.550 +0.01 +0.03    +0.194 C 
DOCKED: ENDROOT
DOCKED: BRANCH   1   7
DOCKED: ATOM      7  O   UNL d   1      24.322  14.917  19.375 -0.01 -0.10    -0.278 OA
DOCKED: BRANCH   7   8
DOCKED: ATOM      8  P   UNL d   1      24.342  15.021  17.781 -0.01 +0.19    +0.473 P 
DOCKED: ATOM      9  O   UNL d   1      25.612  14.588  17.136 -0.06 -0.11    -0.228 OA
DOCKED: BRANCH   8  10
DOCKED: ATOM     10  O   UNL d   1      23.080  14.160  17.321 -0.00 -0.09    -0.303 OA
DOCKED: ATOM     11  H   UNL d   1      22.920  13.444  17.965 +0.02 +0.06    +0.222 HD
DOCKED: ENDBRANCH   8  10
DOCKED: BRANCH   8  12
DOCKED: ATOM     12  O   UNL d   1      23.869  16.503  17.457 -0.06 -0.12    -0.303 OA
DOCKED: ATOM     13  H   UNL d   1      24.410  17.188  17.911 +0.07 +0.10    +0.222 HD
DOCKED: ENDBRANCH   8  12
DOCKED: ENDBRANCH   7   8
DOCKED: ENDBRANCH   1   7
DOCKED: BRANCH   2  14
DOCKED: ATOM     14  O   UNL d   1      24.995  17.379  20.323 -0.07 -0.14    -0.278 OA
DOCKED: BRANCH  14  15
DOCKED: ATOM     15  P   UNL d   1      25.863  18.300  19.343 -0.23 +0.35    +0.473 P 
DOCKED: ATOM     16  O   UNL d   1      26.947  19.117  19.974 -0.60 -0.23    -0.228 OA
DOCKED: BRANCH  15  17
DOCKED: ATOM     17  O   UNL d   1      26.413  17.287  18.244 -0.11 -0.37    -0.303 OA
DOCKED: ATOM     18  H   UNL d   1      25.933  16.437  18.277 +0.05 +0.21    +0.222 HD
DOCKED: ENDBRANCH  15  17
DOCKED: BRANCH  15  19
DOCKED: ATOM     19  O   UNL d   1      24.784  19.120  18.510 -0.26 -0.06    -0.303 OA
DOCKED: ATOM     20  H   UNL d   1      24.407  19.853  19.030 -0.27 -0.01    +0.222 HD
DOCKED: ENDBRANCH  15  19
DOCKED: ENDBRANCH  14  15
DOCKED: ENDBRANCH   2  14
DOCKED: BRANCH   6  21
DOCKED: ATOM     21  O   UNL d   1      22.860  13.875  21.601 +0.00 -0.03    -0.278 OA
DOCKED: BRANCH  21  22
DOCKED: ATOM     22  P   UNL d   1      21.536  13.519  20.785 +0.01 +0.06    +0.473 P 
DOCKED: ATOM     23  O   UNL d   1      21.675  13.126  19.353 -0.00 -0.04    -0.228 OA
DOCKED: BRANCH  22  24
DOCKED: ATOM     24  O   UNL d   1      20.866  12.417  21.718 -0.00 -0.01    -0.303 OA
DOCKED: ATOM     25  H   UNL d   1      21.174  12.571  22.647 +0.01 +0.00    +0.222 HD
DOCKED: ENDBRANCH  22  24
DOCKED: BRANCH  22  26
DOCKED: ATOM     26  O   UNL d   1      20.619  14.802  21.077 -0.03 -0.02    -0.303 OA
DOCKED: ATOM     27  H   UNL d   1      20.355  14.801  22.019 +0.03 -0.00    +0.222 HD
DOCKED: ENDBRANCH  22  26
DOCKED: ENDBRANCH  21  22
DOCKED: ENDBRANCH   6  21
DOCKED: BRANCH   3  28
DOCKED: ATOM     28  O   UNL d   1      23.256  19.318  20.836 -0.13 -0.00    -0.278 OA
DOCKED: BRANCH  28  29
DOCKED: ATOM     29  P   UNL d   1      22.365  20.549  20.360 -0.18 -0.10    +0.473 P 
DOCKED: ATOM     30  O   UNL d   1      22.839  21.888  20.795 -0.19 +0.02    -0.228 OA
DOCKED: BRANCH  29  31
DOCKED: ATOM     31  O   UNL d   1      22.322  20.270  18.785 -0.22 +0.07    -0.303 OA
DOCKED: ATOM     32  H   UNL d   1      23.180  20.552  18.392 -0.39 -0.11    +0.222 HD
DOCKED: ENDBRANCH  29  31
DOCKED: BRANCH  29  33
DOCKED: ATOM     33  O   UNL d   1      20.910  20.111  20.836 -0.16 +0.20    -0.303 OA
DOCKED: ATOM     34  H   UNL d   1      20.977  19.686  21.726 +0.09 -0.09    +0.222 HD
DOCKED: ENDBRANCH  29  33
DOCKED: ENDBRANCH  28  29
DOCKED: ENDBRANCH   3  28
DOCKED: BRANCH   5  35
DOCKED: ATOM     35  O   UNL d   1      22.939  15.780  23.813 +0.00 -0.00    -0.278 OA
DOCKED: BRANCH  35  36
DOCKED: ATOM     36  P   UNL d   1      22.164  14.696  24.690 +0.01 -0.03    +0.473 P 
DOCKED: ATOM     37  O   UNL d   1      21.871  15.098  26.101 -0.00 +0.03    -0.228 OA
DOCKED: BRANCH  36  38
DOCKED: ATOM     38  O   UNL d   1      20.869  14.426  23.804 -0.00 +0.03    -0.303 OA
DOCKED: ATOM     39  H   UNL d   1      21.139  13.997  22.963 +0.02 -0.01    +0.222 HD
DOCKED: ENDBRANCH  36  38
DOCKED: BRANCH  36  40
DOCKED: ATOM     40  O   UNL d   1      23.051  13.393  24.480 +0.00 -0.00    -0.303 OA
DOCKED: ATOM     41  H   UNL d   1      23.073  13.115  23.538 +0.00 +0.01    +0.222 HD
DOCKED: ENDBRANCH  36  40
DOCKED: ENDBRANCH  35  36
DOCKED: ENDBRANCH   5  35
DOCKED: BRANCH   4  42
DOCKED: ATOM     42  O   UNL d   1      21.597  18.203  22.907 -0.03 +0.03    -0.278 OA
DOCKED: BRANCH  42  43
DOCKED: ATOM     43  P   UNL d   1      20.128  17.893  22.370 -0.06 -0.13    +0.473 P 
DOCKED: ATOM     44  O   UNL d   1      19.963  17.677  20.905 -0.18 +0.08    -0.228 OA
DOCKED: BRANCH  43  45
DOCKED: ATOM     45  O   UNL d   1      19.683  16.654  23.264 -0.06 +0.07    -0.303 OA
DOCKED: ATOM     46  H   UNL d   1      20.063  15.817  22.930 +0.05 -0.03    +0.222 HD
DOCKED: ENDBRANCH  43  45
DOCKED: BRANCH  43  47
DOCKED: ATOM     47  O   UNL d   1      19.250  19.079  22.998 -0.13 +0.11    -0.303 OA
DOCKED: ATOM     48  H   UNL d   1      19.316  19.868  22.421 +0.08 -0.13    +0.222 HD
DOCKED: ENDBRANCH  43  47
DOCKED: ENDBRANCH  42  43
DOCKED: ENDBRANCH   4  42
DOCKED: TORSDOF 24
DOCKED: TER
DOCKED: ENDMDL
________________________________________________________________________________


	BEGINNING GENETIC ALGORITHM DOCKING 94 of 100
Run: 94 Seed: 235678768 54564335 [ Run 94 of 100 GA/GALS ]
Beginning LAMARCKIAN GENETIC ALGORITHM (LGA), with a maximum of 25000000 energy evaluations.

Final-Value: -18.047


	FINAL GENETIC ALGORITHM DOCKED STATE
	_______________________________________________


Detailed state:  trans 7.417 55.665 4.602 quatxyzw 0.653060 0.366780 0.088198 0.656662 center 0.035 0.082 -0.065 ntor 24 -147.6822 -19.8108 142.5123 43.7416 100.6906 67.2178 -19.0451 39.1920 74.5780 -30.1040 20.3552 155.7163 30.7979 -161.2347 -179.8240 22.0730 53.2194 -180.0000 -135.2824 -21.0485 17.3349 -38.8961 -176.2713 14.7986
State:	  7.417  55.665   4.602   0.866  0.486  0.117 97.908   -147.68  -19.81  142.51   43.74  100.69   67.22  -19.05   39.19   74.58  -30.10   20.36  155.72   30.80 -161.23 -179.82   22.07   53.22 -180.00 -135.28  -21.05   17.33  -38.90 -176.27   14.80

DOCKED: MODEL       94
DOCKED: USER    Run = 94
DOCKED: USER    DPF = D:/Protein_go_brrr/autodock/final/2DN3/IHP/dock.dpf
DOCKED: USER  
DOCKED: USER    Estimated Free Energy of Binding    =   +3.58 kcal/mol  [=(1)+(2)+(3)-(4)]
DOCKED: USER    
DOCKED: USER    (1) Final Intermolecular Energy     =   -3.58 kcal/mol
DOCKED: USER        vdW + Hbond + desolv Energy     =   -3.38 kcal/mol
DOCKED: USER        Electrostatic Energy            =   -0.20 kcal/mol
DOCKED: USER    (2) Final Total Internal Energy     =  -14.46 kcal/mol
DOCKED: USER    (3) Torsional Free Energy           =   +7.16 kcal/mol
DOCKED: USER    (4) Unbound System's Energy  [=(2)] =  -14.46 kcal/mol
DOCKED: USER    
DOCKED: USER    
DOCKED: USER    NEWDPF move IHP_ideal_opt.pdbqt
DOCKED: USER    NEWDPF about 0.035000 0.082000 -0.065000
DOCKED: USER    NEWDPF tran0 7.417033 55.665353 4.601605
DOCKED: USER    NEWDPF quaternion0 0.653060 0.366780 0.088198 0.656662
DOCKED: USER    NEWDPF axisangle0 0.865916 0.486327 0.116945 97.908370
DOCKED: USER    NEWDPF quat0 0.865916 0.486327 0.116945 97.908370
DOCKED: USER    NEWDPF dihe0 -147.68 -19.81 142.51 43.74 100.69 67.22 -19.05 39.19 74.58 -30.10 20.36 155.72 30.80 -161.23 -179.82 22.07 53.22 -180.00 -135.28 -21.05 17.33 -38.90 -176.27 14.80 
DOCKED: USER  keepresnum = 1 
DOCKED: USER  
DOCKED: REMARK  24 active torsions:
DOCKED: REMARK  status: ('A' for Active; 'I' for Inactive)
DOCKED: REMARK    1  A    between atoms: C_1  and  O_7 
DOCKED: REMARK    2  A    between atoms: C_2  and  O_12 
DOCKED: REMARK    3  A    between atoms: C_3  and  O_17 
DOCKED: REMARK    4  A    between atoms: C_4  and  O_22 
DOCKED: REMARK    5  A    between atoms: C_5  and  O_27 
DOCKED: REMARK    6  A    between atoms: C_6  and  O_32 
DOCKED: REMARK    7  A    between atoms: O_7  and  P_8 
DOCKED: REMARK    8  A    between atoms: P_8  and  O_10 
DOCKED: REMARK    9  A    between atoms: P_8  and  O_11 
DOCKED: REMARK   10  A    between atoms: O_12  and  P_13 
DOCKED: REMARK   11  A    between atoms: P_13  and  O_15 
DOCKED: REMARK   12  A    between atoms: P_13  and  O_16 
DOCKED: REMARK   13  A    between atoms: O_17  and  P_18 
DOCKED: REMARK   14  A    between atoms: P_18  and  O_20 
DOCKED: REMARK   15  A    between atoms: P_18  and  O_21 
DOCKED: REMARK   16  A    between atoms: O_22  and  P_23 
DOCKED: REMARK   17  A    between atoms: P_23  and  O_25 
DOCKED: REMARK   18  A    between atoms: P_23  and  O_26 
DOCKED: REMARK   19  A    between atoms: O_27  and  P_28 
DOCKED: REMARK   20  A    between atoms: P_28  and  O_30 
DOCKED: REMARK   21  A    between atoms: P_28  and  O_31 
DOCKED: REMARK   22  A    between atoms: O_32  and  P_33 
DOCKED: REMARK   23  A    between atoms: P_33  and  O_35 
DOCKED: REMARK   24  A    between atoms: P_33  and  O_36 
DOCKED: USER                              x       y       z     vdW  Elec       q    Type
DOCKED: USER                           _______ _______ _______ _____ _____    ______ ____
DOCKED: ROOT
DOCKED: ATOM      1  C   UNL d   1       7.495  56.733   5.957 -0.03 -0.02    +0.194 C 
DOCKED: ATOM      2  C   UNL d   1       6.259  55.834   5.895 -0.06 -0.01    +0.194 C 
DOCKED: ATOM      3  C   UNL d   1       5.683  55.760   4.479 -0.05 -0.01    +0.194 C 
DOCKED: ATOM      4  C   UNL d   1       6.723  55.387   3.425 -0.07 -0.01    +0.194 C 
DOCKED: ATOM      5  C   UNL d   1       8.019  56.181   3.523 -0.05 -0.04    +0.194 C 
DOCKED: ATOM      6  C   UNL d   1       8.562  56.307   4.948 -0.05 -0.04    +0.194 C 
DOCKED: ENDROOT
DOCKED: BRANCH   1   7
DOCKED: ATOM      7  O   UNL d   1       8.069  56.612   7.261 -0.02 +0.03    -0.278 OA
DOCKED: BRANCH   7   8
DOCKED: ATOM      8  P   UNL d   1       9.368  55.698   7.437 -0.06 -0.09    +0.473 P 
DOCKED: ATOM      9  O   UNL d   1      10.656  56.357   7.088 -0.09 +0.06    -0.228 OA
DOCKED: BRANCH   8  10
DOCKED: ATOM     10  O   UNL d   1       9.299  55.218   8.956 -0.07 +0.05    -0.303 OA
DOCKED: ATOM     11  H   UNL d   1       8.437  54.794   9.127 +0.05 -0.03    +0.222 HD
DOCKED: ENDBRANCH   8  10
DOCKED: BRANCH   8  12
DOCKED: ATOM     12  O   UNL d   1       9.039  54.358   6.649 -0.12 +0.08    -0.303 OA
DOCKED: ATOM     13  H   UNL d   1       8.296  53.850   7.046 -0.20 -0.09    +0.222 HD
DOCKED: ENDBRANCH   8  12
DOCKED: ENDBRANCH   7   8
DOCKED: ENDBRANCH   1   7
DOCKED: BRANCH   2  14
DOCKED: ATOM     14  O   UNL d   1       6.623  54.511   6.309 -0.14 +0.04    -0.278 OA
DOCKED: BRANCH  14  15
DOCKED: ATOM     15  P   UNL d   1       6.037  54.015   7.714 -0.02 -0.07    +0.473 P 
DOCKED: ATOM     16  O   UNL d   1       6.997  53.961   8.861 -0.12 +0.03    -0.228 OA
DOCKED: BRANCH  15  17
DOCKED: ATOM     17  O   UNL d   1       4.805  54.987   7.985 -0.03 +0.01    -0.303 OA
DOCKED: ATOM     18  H   UNL d   1       4.245  55.075   7.190 +0.03 +0.00    +0.222 HD
DOCKED: ENDBRANCH  15  17
DOCKED: BRANCH  15  19
DOCKED: ATOM     19  O   UNL d   1       5.297  52.648   7.374 -0.19 +0.03    -0.303 OA
DOCKED: ATOM     20  H   UNL d   1       5.143  52.550   6.417 -0.03 -0.00    +0.222 HD
DOCKED: ENDBRANCH  15  19
DOCKED: ENDBRANCH  14  15
DOCKED: ENDBRANCH   2  14
DOCKED: BRANCH   6  21
DOCKED: ATOM     21  O   UNL d   1       9.549  57.336   4.923 -0.02 +0.07    -0.278 OA
DOCKED: BRANCH  21  22
DOCKED: ATOM     22  P   UNL d   1      11.048  56.985   4.505 -0.05 -0.24    +0.473 P 
DOCKED: ATOM     23  O   UNL d   1      12.153  57.789   5.102 -0.07 +0.09    -0.228 OA
DOCKED: BRANCH  22  24
DOCKED: ATOM     24  O   UNL d   1      11.115  55.425   4.813 -0.17 +0.14    -0.303 OA
DOCKED: ATOM     25  H   UNL d   1      10.227  55.033   4.614 +0.10 -0.09    +0.222 HD
DOCKED: ENDBRANCH  22  24
DOCKED: BRANCH  22  26
DOCKED: ATOM     26  O   UNL d   1      10.952  57.002   2.904 +0.01 +0.34    -0.303 OA
DOCKED: ATOM     27  H   UNL d   1      10.992  56.083   2.570 -0.42 -0.37    +0.222 HD
DOCKED: ENDBRANCH  22  26
DOCKED: ENDBRANCH  21  22
DOCKED: ENDBRANCH   6  21
DOCKED: BRANCH   3  28
DOCKED: ATOM     28  O   UNL d   1       4.730  54.706   4.459 -0.08 -0.01    -0.278 OA
DOCKED: BRANCH  28  29
DOCKED: ATOM     29  P   UNL d   1       3.331  54.872   5.202 -0.04 +0.03    +0.473 P 
DOCKED: ATOM     30  O   UNL d   1       3.156  56.135   5.964 -0.02 -0.01    -0.228 OA
DOCKED: BRANCH  29  31
DOCKED: ATOM     31  O   UNL d   1       2.332  54.618   3.978 -0.04 -0.03    -0.303 OA
DOCKED: ATOM     32  H   UNL d   1       2.748  53.970   3.362 +0.03 +0.03    +0.222 HD
DOCKED: ENDBRANCH  29  31
DOCKED: BRANCH  29  33
DOCKED: ATOM     33  O   UNL d   1       3.228  53.514   6.027 +0.00 -0.03    -0.303 OA
DOCKED: ATOM     34  H   UNL d   1       3.515  53.681   6.958 +0.04 +0.01    +0.222 HD
DOCKED: ENDBRANCH  29  33
DOCKED: ENDBRANCH  28  29
DOCKED: ENDBRANCH   3  28
DOCKED: BRANCH   5  35
DOCKED: ATOM     35  O   UNL d   1       8.981  55.446   2.770 -0.11 +0.10    -0.278 OA
DOCKED: BRANCH  35  36
DOCKED: ATOM     36  P   UNL d   1       9.105  53.866   2.947 -0.26 -0.13    +0.473 P 
DOCKED: ATOM     37  O   UNL d   1       8.387  53.044   1.924 -0.35 +0.02    -0.228 OA
DOCKED: BRANCH  36  38
DOCKED: ATOM     38  O   UNL d   1      10.684  53.662   2.960 -0.35 +0.18    -0.303 OA
DOCKED: ATOM     39  H   UNL d   1      11.122  54.540   2.931 +0.03 -0.21    +0.222 HD
DOCKED: ENDBRANCH  36  38
DOCKED: BRANCH  36  40
DOCKED: ATOM     40  O   UNL d   1       8.680  53.660   4.466 -0.27 +0.07    -0.303 OA
DOCKED: ATOM     41  H   UNL d   1       9.371  53.987   5.085 +0.10 -0.07    +0.222 HD
DOCKED: ENDBRANCH  36  40
DOCKED: ENDBRANCH  35  36
DOCKED: ENDBRANCH   5  35
DOCKED: BRANCH   4  42
DOCKED: ATOM     42  O   UNL d   1       6.144  55.681   2.150 -0.02 +0.01    -0.278 OA
DOCKED: BRANCH  42  43
DOCKED: ATOM     43  P   UNL d   1       5.438  54.506   1.334 -0.02 +0.04    +0.473 P 
DOCKED: ATOM     44  O   UNL d   1       5.757  54.389  -0.117 -0.05 -0.03    -0.228 OA
DOCKED: BRANCH  43  45
DOCKED: ATOM     45  O   UNL d   1       5.810  53.215   2.188 -0.12 -0.04    -0.303 OA
DOCKED: ATOM     46  H   UNL d   1       6.774  53.154   2.342 +0.10 +0.01    +0.222 HD
DOCKED: ENDBRANCH  43  45
DOCKED: BRANCH  43  47
DOCKED: ATOM     47  O   UNL d   1       3.886  54.694   1.688 -0.03 -0.03    -0.303 OA
DOCKED: ATOM     48  H   UNL d   1       3.805  55.147   2.553 +0.03 +0.02    +0.222 HD
DOCKED: ENDBRANCH  43  47
DOCKED: ENDBRANCH  42  43
DOCKED: ENDBRANCH   4  42
DOCKED: TORSDOF 24
DOCKED: TER
DOCKED: ENDMDL
________________________________________________________________________________


	BEGINNING GENETIC ALGORITHM DOCKING 95 of 100
Run: 95 Seed: 475229707 2039622500 [ Run 95 of 100 GA/GALS ]
Beginning LAMARCKIAN GENETIC ALGORITHM (LGA), with a maximum of 25000000 energy evaluations.

Final-Value: -16.237


	FINAL GENETIC ALGORITHM DOCKED STATE
	_______________________________________________


Detailed state:  trans 41.801 45.862 2.013 quatxyzw 0.360650 -0.195625 0.804909 0.428700 center 0.035 0.082 -0.065 ntor 24 -5.7575 24.7211 121.6615 154.6879 141.6298 78.0099 -138.2791 -41.0050 -20.7169 22.2614 32.0568 -73.6949 148.7935 75.5017 176.6126 -147.4717 170.1867 -52.8210 52.3815 16.2842 8.0713 1.5357 172.8670 179.1002
State:	 41.801  45.862   2.013   0.399 -0.217  0.891 129.230     -5.76   24.72  121.66  154.69  141.63   78.01 -138.28  -41.01  -20.72   22.26   32.06  -73.69  148.79   75.50  176.61 -147.47  170.19  -52.82   52.38   16.28    8.07    1.54  172.87  179.10

DOCKED: MODEL       95
DOCKED: USER    Run = 95
DOCKED: USER    DPF = D:/Protein_go_brrr/autodock/final/2DN3/IHP/dock.dpf
DOCKED: USER  
DOCKED: USER    Estimated Free Energy of Binding    =   +2.63 kcal/mol  [=(1)+(2)+(3)-(4)]
DOCKED: USER    
DOCKED: USER    (1) Final Intermolecular Energy     =   -4.53 kcal/mol
DOCKED: USER        vdW + Hbond + desolv Energy     =   -4.37 kcal/mol
DOCKED: USER        Electrostatic Energy            =   -0.16 kcal/mol
DOCKED: USER    (2) Final Total Internal Energy     =  -11.70 kcal/mol
DOCKED: USER    (3) Torsional Free Energy           =   +7.16 kcal/mol
DOCKED: USER    (4) Unbound System's Energy  [=(2)] =  -11.70 kcal/mol
DOCKED: USER    
DOCKED: USER    
DOCKED: USER    NEWDPF move IHP_ideal_opt.pdbqt
DOCKED: USER    NEWDPF about 0.035000 0.082000 -0.065000
DOCKED: USER    NEWDPF tran0 41.800972 45.862092 2.012832
DOCKED: USER    NEWDPF quaternion0 0.360650 -0.195625 0.804909 0.428700
DOCKED: USER    NEWDPF axisangle0 0.399194 -0.216531 0.890931 129.229810
DOCKED: USER    NEWDPF quat0 0.399194 -0.216531 0.890931 129.229810
DOCKED: USER    NEWDPF dihe0 -5.76 24.72 121.66 154.69 141.63 78.01 -138.28 -41.01 -20.72 22.26 32.06 -73.69 148.79 75.50 176.61 -147.47 170.19 -52.82 52.38 16.28 8.07 1.54 172.87 179.10 
DOCKED: USER  keepresnum = 1 
DOCKED: USER  
DOCKED: REMARK  24 active torsions:
DOCKED: REMARK  status: ('A' for Active; 'I' for Inactive)
DOCKED: REMARK    1  A    between atoms: C_1  and  O_7 
DOCKED: REMARK    2  A    between atoms: C_2  and  O_12 
DOCKED: REMARK    3  A    between atoms: C_3  and  O_17 
DOCKED: REMARK    4  A    between atoms: C_4  and  O_22 
DOCKED: REMARK    5  A    between atoms: C_5  and  O_27 
DOCKED: REMARK    6  A    between atoms: C_6  and  O_32 
DOCKED: REMARK    7  A    between atoms: O_7  and  P_8 
DOCKED: REMARK    8  A    between atoms: P_8  and  O_10 
DOCKED: REMARK    9  A    between atoms: P_8  and  O_11 
DOCKED: REMARK   10  A    between atoms: O_12  and  P_13 
DOCKED: REMARK   11  A    between atoms: P_13  and  O_15 
DOCKED: REMARK   12  A    between atoms: P_13  and  O_16 
DOCKED: REMARK   13  A    between atoms: O_17  and  P_18 
DOCKED: REMARK   14  A    between atoms: P_18  and  O_20 
DOCKED: REMARK   15  A    between atoms: P_18  and  O_21 
DOCKED: REMARK   16  A    between atoms: O_22  and  P_23 
DOCKED: REMARK   17  A    between atoms: P_23  and  O_25 
DOCKED: REMARK   18  A    between atoms: P_23  and  O_26 
DOCKED: REMARK   19  A    between atoms: O_27  and  P_28 
DOCKED: REMARK   20  A    between atoms: P_28  and  O_30 
DOCKED: REMARK   21  A    between atoms: P_28  and  O_31 
DOCKED: REMARK   22  A    between atoms: O_32  and  P_33 
DOCKED: REMARK   23  A    between atoms: P_33  and  O_35 
DOCKED: REMARK   24  A    between atoms: P_33  and  O_36 
DOCKED: USER                              x       y       z     vdW  Elec       q    Type
DOCKED: USER                           _______ _______ _______ _____ _____    ______ ____
DOCKED: ROOT
DOCKED: ATOM      1  C   UNL d   1      41.439  45.310   3.609 -0.16 +0.03    +0.194 C 
DOCKED: ATOM      2  C   UNL d   1      41.186  46.796   3.351 -0.12 +0.02    +0.194 C 
DOCKED: ATOM      3  C   UNL d   1      42.323  47.434   2.550 -0.07 +0.01    +0.194 C 
DOCKED: ATOM      4  C   UNL d   1      42.656  46.673   1.268 -0.03 +0.02    +0.194 C 
DOCKED: ATOM      5  C   UNL d   1      42.804  45.169   1.459 -0.06 +0.02    +0.194 C 
DOCKED: ATOM      6  C   UNL d   1      41.699  44.542   2.312 -0.09 +0.04    +0.194 C 
DOCKED: ENDROOT
DOCKED: BRANCH   1   7
DOCKED: ATOM      7  O   UNL d   1      40.264  44.754   4.205 -0.12 -0.06    -0.278 OA
DOCKED: BRANCH   7   8
DOCKED: ATOM      8  P   UNL d   1      39.900  45.175   5.702 -0.23 +0.06    +0.473 P 
DOCKED: ATOM      9  O   UNL d   1      38.986  44.243   6.415 -0.37 -0.05    -0.228 OA
DOCKED: BRANCH   8  10
DOCKED: ATOM     10  O   UNL d   1      41.319  45.331   6.415 -0.80 -0.02    -0.303 OA
DOCKED: ATOM     11  H   UNL d   1      41.200  45.331   7.383 -0.21 -0.03    +0.222 HD
DOCKED: ENDBRANCH   8  10
DOCKED: BRANCH   8  12
DOCKED: ATOM     12  O   UNL d   1      39.412  46.684   5.600 -0.24 -0.03    -0.303 OA
DOCKED: ATOM     13  H   UNL d   1      39.720  47.134   4.782 +0.12 +0.04    +0.222 HD
DOCKED: ENDBRANCH   8  12
DOCKED: ENDBRANCH   7   8
DOCKED: ENDBRANCH   1   7
DOCKED: BRANCH   2  14
DOCKED: ATOM     14  O   UNL d   1      39.968  46.941   2.609 -0.07 -0.08    -0.278 OA
DOCKED: BRANCH  14  15
DOCKED: ATOM     15  P   UNL d   1      39.112  48.264   2.891 -0.13 +0.18    +0.473 P 
DOCKED: ATOM     16  O   UNL d   1      38.656  49.037   1.693 -0.15 -0.09    -0.228 OA
DOCKED: BRANCH  15  17
DOCKED: ATOM     17  O   UNL d   1      37.902  47.758   3.795 -0.83 -0.21    -0.303 OA
DOCKED: ATOM     18  H   UNL d   1      38.146  46.952   4.290 +0.11 +0.13    +0.222 HD
DOCKED: ENDBRANCH  15  17
DOCKED: BRANCH  15  19
DOCKED: ATOM     19  O   UNL d   1      39.979  49.081   3.945 -0.17 -0.06    -0.303 OA
DOCKED: ATOM     20  H   UNL d   1      40.547  49.742   3.509 +0.07 +0.03    +0.222 HD
DOCKED: ENDBRANCH  15  19
DOCKED: ENDBRANCH  14  15
DOCKED: ENDBRANCH   2  14
DOCKED: BRANCH   6  21
DOCKED: ATOM     21  O   UNL d   1      42.151  43.241   2.680 -0.10 -0.06    -0.278 OA
DOCKED: BRANCH  21  22
DOCKED: ATOM     22  P   UNL d   1      41.733  41.978   1.799 -0.05 +0.10    +0.473 P 
DOCKED: ATOM     23  O   UNL d   1      41.670  40.645   2.463 -0.20 -0.05    -0.228 OA
DOCKED: BRANCH  22  24
DOCKED: ATOM     24  O   UNL d   1      40.363  42.470   1.157 -0.03 -0.08    -0.303 OA
DOCKED: ATOM     25  H   UNL d   1      40.574  43.115   0.435 +0.04 +0.05    +0.222 HD
DOCKED: ENDBRANCH  22  24
DOCKED: BRANCH  22  26
DOCKED: ATOM     26  O   UNL d   1      42.742  42.099   0.559 -0.05 -0.05    -0.303 OA
DOCKED: ATOM     27  H   UNL d   1      42.292  42.559  -0.179 +0.02 +0.04    +0.222 HD
DOCKED: ENDBRANCH  22  26
DOCKED: ENDBRANCH  21  22
DOCKED: ENDBRANCH   6  21
DOCKED: BRANCH   3  28
DOCKED: ATOM     28  O   UNL d   1      41.881  48.716   2.124 -0.03 -0.02    -0.278 OA
DOCKED: BRANCH  28  29
DOCKED: ATOM     29  P   UNL d   1      42.549  50.035   2.715 -0.04 -0.01    +0.473 P 
DOCKED: ATOM     30  O   UNL d   1      41.907  51.313   2.315 -0.03 -0.01    -0.228 OA
DOCKED: BRANCH  29  31
DOCKED: ATOM     31  O   UNL d   1      42.543  49.676   4.275 -0.16 +0.08    -0.303 OA
DOCKED: ATOM     32  H   UNL d   1      41.675  49.947   4.655 -0.06 -0.07    +0.222 HD
DOCKED: ENDBRANCH  29  31
DOCKED: BRANCH  29  33
DOCKED: ATOM     33  O   UNL d   1      44.079  49.842   2.317 -0.03 +0.02    -0.303 OA
DOCKED: ATOM     34  H   UNL d   1      44.140  49.164   1.600 +0.03 -0.01    +0.222 HD
DOCKED: ENDBRANCH  29  33
DOCKED: ENDBRANCH  28  29
DOCKED: ENDBRANCH   3  28
DOCKED: BRANCH   5  35
DOCKED: ATOM     35  O   UNL d   1      42.700  44.602   0.155 -0.02 -0.04    -0.278 OA
DOCKED: BRANCH  35  36
DOCKED: ATOM     36  P   UNL d   1      41.413  44.880  -0.744 -0.01 +0.09    +0.473 P 
DOCKED: ATOM     37  O   UNL d   1      40.983  43.748  -1.622 -0.01 -0.04    -0.228 OA
DOCKED: BRANCH  36  38
DOCKED: ATOM     38  O   UNL d   1      40.336  45.304   0.350 -0.03 -0.09    -0.303 OA
DOCKED: ATOM     39  H   UNL d   1      39.855  44.505   0.654 +0.04 +0.08    +0.222 HD
DOCKED: ENDBRANCH  36  38
DOCKED: BRANCH  36  40
DOCKED: ATOM     40  O   UNL d   1      41.788  46.248  -1.462 -0.01 -0.04    -0.303 OA
DOCKED: ATOM     41  H   UNL d   1      42.505  46.724  -0.986 +0.01 +0.03    +0.222 HD
DOCKED: ENDBRANCH  36  40
DOCKED: ENDBRANCH  35  36
DOCKED: ENDBRANCH   5  35
DOCKED: BRANCH   4  42
DOCKED: ATOM     42  O   UNL d   1      43.919  47.166   0.810 -0.01 -0.01    -0.278 OA
DOCKED: BRANCH  42  43
DOCKED: ATOM     43  P   UNL d   1      45.227  46.850   1.667 -0.01 -0.02    +0.473 P 
DOCKED: ATOM     44  O   UNL d   1      45.038  46.192   2.990 -0.13 +0.03    -0.228 OA
DOCKED: BRANCH  43  45
DOCKED: ATOM     45  O   UNL d   1      46.120  46.016   0.647 -0.01 +0.00    -0.303 OA
DOCKED: ATOM     46  H   UNL d   1      45.580  45.381   0.135 +0.02 +0.01    +0.222 HD
DOCKED: ENDBRANCH  43  45
DOCKED: BRANCH  43  47
DOCKED: ATOM     47  O   UNL d   1      45.994  48.257   1.697 -0.01 +0.03    -0.303 OA
DOCKED: ATOM     48  H   UNL d   1      45.891  48.662   2.583 +0.04 -0.04    +0.222 HD
DOCKED: ENDBRANCH  43  47
DOCKED: ENDBRANCH  42  43
DOCKED: ENDBRANCH   4  42
DOCKED: TORSDOF 24
DOCKED: TER
DOCKED: ENDMDL
________________________________________________________________________________


	BEGINNING GENETIC ALGORITHM DOCKING 96 of 100
Run: 96 Seed: 1263474543 1737545356 [ Run 96 of 100 GA/GALS ]
Beginning LAMARCKIAN GENETIC ALGORITHM (LGA), with a maximum of 25000000 energy evaluations.

Final-Value: -15.901


	FINAL GENETIC ALGORITHM DOCKED STATE
	_______________________________________________


Detailed state:  trans -1.793 32.409 3.111 quatxyzw 0.150579 0.419190 -0.625834 -0.640263 center 0.035 0.082 -0.065 ntor 24 -179.1132 139.4191 60.8339 100.3555 20.9381 -179.7762 13.2418 -67.4442 150.7010 8.5635 102.0523 111.7785 131.1633 143.9120 -27.1237 -37.0744 131.7275 -112.7832 26.6042 -4.7970 169.7079 144.1686 -27.8155 166.0967
State:	 -1.793  32.409   3.111   0.196  0.546 -0.815 -100.377   -179.11  139.42   60.83  100.36   20.94 -179.78   13.24  -67.44  150.70    8.56  102.05  111.78  131.16  143.91  -27.12  -37.07  131.73 -112.78   26.60   -4.80  169.71  144.17  -27.82  166.10

DOCKED: MODEL       96
DOCKED: USER    Run = 96
DOCKED: USER    DPF = D:/Protein_go_brrr/autodock/final/2DN3/IHP/dock.dpf
DOCKED: USER  
DOCKED: USER    Estimated Free Energy of Binding    =   +5.36 kcal/mol  [=(1)+(2)+(3)-(4)]
DOCKED: USER    
DOCKED: USER    (1) Final Intermolecular Energy     =   -1.80 kcal/mol
DOCKED: USER        vdW + Hbond + desolv Energy     =   -1.69 kcal/mol
DOCKED: USER        Electrostatic Energy            =   -0.10 kcal/mol
DOCKED: USER    (2) Final Total Internal Energy     =  -14.10 kcal/mol
DOCKED: USER    (3) Torsional Free Energy           =   +7.16 kcal/mol
DOCKED: USER    (4) Unbound System's Energy  [=(2)] =  -14.10 kcal/mol
DOCKED: USER    
DOCKED: USER    
DOCKED: USER    NEWDPF move IHP_ideal_opt.pdbqt
DOCKED: USER    NEWDPF about 0.035000 0.082000 -0.065000
DOCKED: USER    NEWDPF tran0 -1.792648 32.408982 3.110558
DOCKED: USER    NEWDPF quaternion0 0.150579 0.419190 -0.625834 -0.640263
DOCKED: USER    NEWDPF axisangle0 0.196026 0.545710 -0.814723 -100.377081
DOCKED: USER    NEWDPF quat0 0.196026 0.545710 -0.814723 -100.377081
DOCKED: USER    NEWDPF dihe0 -179.11 139.42 60.83 100.36 20.94 -179.78 13.24 -67.44 150.70 8.56 102.05 111.78 131.16 143.91 -27.12 -37.07 131.73 -112.78 26.60 -4.80 169.71 144.17 -27.82 166.10 
DOCKED: USER  keepresnum = 1 
DOCKED: USER  
DOCKED: REMARK  24 active torsions:
DOCKED: REMARK  status: ('A' for Active; 'I' for Inactive)
DOCKED: REMARK    1  A    between atoms: C_1  and  O_7 
DOCKED: REMARK    2  A    between atoms: C_2  and  O_12 
DOCKED: REMARK    3  A    between atoms: C_3  and  O_17 
DOCKED: REMARK    4  A    between atoms: C_4  and  O_22 
DOCKED: REMARK    5  A    between atoms: C_5  and  O_27 
DOCKED: REMARK    6  A    between atoms: C_6  and  O_32 
DOCKED: REMARK    7  A    between atoms: O_7  and  P_8 
DOCKED: REMARK    8  A    between atoms: P_8  and  O_10 
DOCKED: REMARK    9  A    between atoms: P_8  and  O_11 
DOCKED: REMARK   10  A    between atoms: O_12  and  P_13 
DOCKED: REMARK   11  A    between atoms: P_13  and  O_15 
DOCKED: REMARK   12  A    between atoms: P_13  and  O_16 
DOCKED: REMARK   13  A    between atoms: O_17  and  P_18 
DOCKED: REMARK   14  A    between atoms: P_18  and  O_20 
DOCKED: REMARK   15  A    between atoms: P_18  and  O_21 
DOCKED: REMARK   16  A    between atoms: O_22  and  P_23 
DOCKED: REMARK   17  A    between atoms: P_23  and  O_25 
DOCKED: REMARK   18  A    between atoms: P_23  and  O_26 
DOCKED: REMARK   19  A    between atoms: O_27  and  P_28 
DOCKED: REMARK   20  A    between atoms: P_28  and  O_30 
DOCKED: REMARK   21  A    between atoms: P_28  and  O_31 
DOCKED: REMARK   22  A    between atoms: O_32  and  P_33 
DOCKED: REMARK   23  A    between atoms: P_33  and  O_35 
DOCKED: REMARK   24  A    between atoms: P_33  and  O_36 
DOCKED: USER                              x       y       z     vdW  Elec       q    Type
DOCKED: USER                           _______ _______ _______ _____ _____    ______ ____
DOCKED: ROOT
DOCKED: ATOM      1  C   UNL d   1      -2.510  30.843   2.974 +0.00 -0.00    +0.194 C 
DOCKED: ATOM      2  C   UNL d   1      -3.216  31.813   3.923 -0.00 +0.00    +0.194 C 
DOCKED: ATOM      3  C   UNL d   1      -2.218  32.585   4.789 -0.01 +0.01    +0.194 C 
DOCKED: ATOM      4  C   UNL d   1      -1.120  33.268   3.978 -0.04 +0.02    +0.194 C 
DOCKED: ATOM      5  C   UNL d   1      -0.466  32.368   2.938 -0.03 +0.01    +0.194 C 
DOCKED: ATOM      6  C   UNL d   1      -1.462  31.550   2.113 -0.01 +0.01    +0.194 C 
DOCKED: ENDROOT
DOCKED: BRANCH   1   7
DOCKED: ATOM      7  O   UNL d   1      -3.488  30.294   2.088 +0.00 +0.00    -0.278 OA
DOCKED: BRANCH   7   8
DOCKED: ATOM      8  P   UNL d   1      -4.132  28.878   2.452 +0.00 -0.02    +0.473 P 
DOCKED: ATOM      9  O   UNL d   1      -5.093  28.345   1.448 +0.00 +0.00    -0.228 OA
DOCKED: BRANCH   8  10
DOCKED: ATOM     10  O   UNL d   1      -2.871  27.928   2.680 +0.00 +0.04    -0.303 OA
DOCKED: ATOM     11  H   UNL d   1      -2.091  28.468   2.907 +0.01 -0.04    +0.222 HD
DOCKED: ENDBRANCH   8  10
DOCKED: BRANCH   8  12
DOCKED: ATOM     12  O   UNL d   1      -4.693  29.046   3.929 +0.00 +0.02    -0.303 OA
DOCKED: ATOM     13  H   UNL d   1      -5.643  29.299   3.954 +0.00 -0.01    +0.222 HD
DOCKED: ENDBRANCH   8  12
DOCKED: ENDBRANCH   7   8
DOCKED: ENDBRANCH   1   7
DOCKED: BRANCH   2  14
DOCKED: ATOM     14  O   UNL d   1      -3.974  32.753   3.151 -0.00 -0.02    -0.278 OA
DOCKED: BRANCH  14  15
DOCKED: ATOM     15  P   UNL d   1      -5.523  32.904   3.528 +0.00 +0.03    +0.473 P 
DOCKED: ATOM     16  O   UNL d   1      -6.411  33.512   2.488 +0.00 -0.02    -0.228 OA
DOCKED: BRANCH  15  17
DOCKED: ATOM     17  O   UNL d   1      -5.969  31.429   3.934 +0.00 -0.01    -0.303 OA
DOCKED: ATOM     18  H   UNL d   1      -5.504  30.761   3.394 +0.00 +0.00    +0.222 HD
DOCKED: ENDBRANCH  15  17
DOCKED: BRANCH  15  19
DOCKED: ATOM     19  O   UNL d   1      -5.519  33.636   4.940 +0.00 -0.02    -0.303 OA
DOCKED: ATOM     20  H   UNL d   1      -4.846  34.341   4.978 +0.00 +0.02    +0.222 HD
DOCKED: ENDBRANCH  15  19
DOCKED: ENDBRANCH  14  15
DOCKED: ENDBRANCH   2  14
DOCKED: BRANCH   6  21
DOCKED: ATOM     21  O   UNL d   1      -0.711  30.535   1.450 -0.01 +0.00    -0.278 OA
DOCKED: BRANCH  21  22
DOCKED: ATOM     22  P   UNL d   1      -0.028  29.372   2.302 -0.00 -0.07    +0.473 P 
DOCKED: ATOM     23  O   UNL d   1      -0.258  29.349   3.775 -0.03 +0.06    -0.228 OA
DOCKED: BRANCH  22  24
DOCKED: ATOM     24  O   UNL d   1      -0.520  28.070   1.529 -0.01 +0.05    -0.303 OA
DOCKED: ATOM     25  H   UNL d   1      -1.488  28.170   1.343 +0.02 -0.02    +0.222 HD
DOCKED: ENDBRANCH  22  24
DOCKED: BRANCH  22  26
DOCKED: ATOM     26  O   UNL d   1       1.501  29.478   1.831 -0.08 +0.04    -0.303 OA
DOCKED: ATOM     27  H   UNL d   1       1.605  30.261   1.252 +0.06 -0.01    +0.222 HD
DOCKED: ENDBRANCH  22  26
DOCKED: ENDBRANCH  21  22
DOCKED: ENDBRANCH   6  21
DOCKED: BRANCH   3  28
DOCKED: ATOM     28  O   UNL d   1      -2.930  33.640   5.425 -0.01 -0.03    -0.278 OA
DOCKED: BRANCH  28  29
DOCKED: ATOM     29  P   UNL d   1      -2.758  35.142   4.924 -0.00 +0.09    +0.473 P 
DOCKED: ATOM     30  O   UNL d   1      -1.393  35.710   5.059 -0.08 -0.06    -0.228 OA
DOCKED: BRANCH  29  31
DOCKED: ATOM     31  O   UNL d   1      -3.347  35.010   3.441 -0.01 -0.06    -0.303 OA
DOCKED: ATOM     32  H   UNL d   1      -4.304  34.784   3.502 +0.01 +0.03    +0.222 HD
DOCKED: ENDBRANCH  29  31
DOCKED: BRANCH  29  33
DOCKED: ATOM     33  O   UNL d   1      -3.929  35.889   5.702 -0.00 -0.06    -0.303 OA
DOCKED: ATOM     34  H   UNL d   1      -4.498  35.216   6.150 +0.01 +0.03    +0.222 HD
DOCKED: ENDBRANCH  29  33
DOCKED: ENDBRANCH  28  29
DOCKED: ENDBRANCH   3  28
DOCKED: BRANCH   5  35
DOCKED: ATOM     35  O   UNL d   1       0.206  33.245   2.036 -0.05 -0.05    -0.278 OA
DOCKED: BRANCH  35  36
DOCKED: ATOM     36  P   UNL d   1       1.788  33.430   2.122 -0.11 +0.09    +0.473 P 
DOCKED: ATOM     37  O   UNL d   1       2.394  34.302   1.069 -0.16 -0.08    -0.228 OA
DOCKED: BRANCH  36  38
DOCKED: ATOM     38  O   UNL d   1       1.972  33.973   3.607 -0.18 -0.06    -0.303 OA
DOCKED: ATOM     39  H   UNL d   1       1.944  33.216   4.232 +0.04 +0.01    +0.222 HD
DOCKED: ENDBRANCH  36  38
DOCKED: BRANCH  36  40
DOCKED: ATOM     40  O   UNL d   1       2.302  31.926   2.197 -0.10 -0.01    -0.303 OA
DOCKED: ATOM     41  H   UNL d   1       1.668  31.348   2.677 +0.07 -0.01    +0.222 HD
DOCKED: ENDBRANCH  36  40
DOCKED: ENDBRANCH  35  36
DOCKED: ENDBRANCH   5  35
DOCKED: BRANCH   4  42
DOCKED: ATOM     42  O   UNL d   1      -0.099  33.652   4.905 -0.09 -0.03    -0.278 OA
DOCKED: BRANCH  42  43
DOCKED: ATOM     43  P   UNL d   1       0.539  32.541   5.854 -0.11 -0.00    +0.473 P 
DOCKED: ATOM     44  O   UNL d   1      -0.342  31.937   6.892 -0.08 +0.01    -0.228 OA
DOCKED: BRANCH  43  45
DOCKED: ATOM     45  O   UNL d   1       1.133  31.493   4.815 -0.11 +0.03    -0.303 OA
DOCKED: ATOM     46  H   UNL d   1       1.390  31.926   3.977 +0.08 -0.01    +0.222 HD
DOCKED: ENDBRANCH  43  45
DOCKED: BRANCH  43  47
DOCKED: ATOM     47  O   UNL d   1       1.870  33.246   6.402 -0.22 -0.00    -0.303 OA
DOCKED: ATOM     48  H   UNL d   1       2.512  33.339   5.668 -0.47 -0.04    +0.222 HD
DOCKED: ENDBRANCH  43  47
DOCKED: ENDBRANCH  42  43
DOCKED: ENDBRANCH   4  42
DOCKED: TORSDOF 24
DOCKED: TER
DOCKED: ENDMDL
________________________________________________________________________________


	BEGINNING GENETIC ALGORITHM DOCKING 97 of 100
Run: 97 Seed: 1065651633 959090898 [ Run 97 of 100 GA/GALS ]
Beginning LAMARCKIAN GENETIC ALGORITHM (LGA), with a maximum of 25000000 energy evaluations.

Final-Value: -16.620


	FINAL GENETIC ALGORITHM DOCKED STATE
	_______________________________________________


Detailed state:  trans 53.324 28.150 14.322 quatxyzw -0.098834 -0.630455 -0.254380 -0.726670 center 0.035 0.082 -0.065 ntor 24 127.0823 167.0295 -171.0208 18.5984 36.7556 -102.9390 -30.3170 18.0109 -172.0807 128.5171 27.4519 -87.8599 -88.8102 -172.4495 -53.3881 174.0347 84.7069 -71.0639 -140.0208 13.0996 -172.7143 22.2654 12.3021 -171.9115
State:	 53.324  28.150  14.322  -0.144 -0.918 -0.370 -86.784    127.08  167.03 -171.02   18.60   36.76 -102.94  -30.32   18.01 -172.08  128.52   27.45  -87.86  -88.81 -172.45  -53.39  174.03   84.71  -71.06 -140.02   13.10 -172.71   22.27   12.30 -171.91

DOCKED: MODEL       97
DOCKED: USER    Run = 97
DOCKED: USER    DPF = D:/Protein_go_brrr/autodock/final/2DN3/IHP/dock.dpf
DOCKED: USER  
DOCKED: USER    Estimated Free Energy of Binding    =   +3.92 kcal/mol  [=(1)+(2)+(3)-(4)]
DOCKED: USER    
DOCKED: USER    (1) Final Intermolecular Energy     =   -3.24 kcal/mol
DOCKED: USER        vdW + Hbond + desolv Energy     =   -3.17 kcal/mol
DOCKED: USER        Electrostatic Energy            =   -0.08 kcal/mol
DOCKED: USER    (2) Final Total Internal Energy     =  -13.38 kcal/mol
DOCKED: USER    (3) Torsional Free Energy           =   +7.16 kcal/mol
DOCKED: USER    (4) Unbound System's Energy  [=(2)] =  -13.38 kcal/mol
DOCKED: USER    
DOCKED: USER    
DOCKED: USER    NEWDPF move IHP_ideal_opt.pdbqt
DOCKED: USER    NEWDPF about 0.035000 0.082000 -0.065000
DOCKED: USER    NEWDPF tran0 53.323862 28.150390 14.322289
DOCKED: USER    NEWDPF quaternion0 -0.098834 -0.630455 -0.254380 -0.726670
DOCKED: USER    NEWDPF axisangle0 -0.143866 -0.917711 -0.370283 -86.784074
DOCKED: USER    NEWDPF quat0 -0.143866 -0.917711 -0.370283 -86.784074
DOCKED: USER    NEWDPF dihe0 127.08 167.03 -171.02 18.60 36.76 -102.94 -30.32 18.01 -172.08 128.52 27.45 -87.86 -88.81 -172.45 -53.39 174.03 84.71 -71.06 -140.02 13.10 -172.71 22.27 12.30 -171.91 
DOCKED: USER  keepresnum = 1 
DOCKED: USER  
DOCKED: REMARK  24 active torsions:
DOCKED: REMARK  status: ('A' for Active; 'I' for Inactive)
DOCKED: REMARK    1  A    between atoms: C_1  and  O_7 
DOCKED: REMARK    2  A    between atoms: C_2  and  O_12 
DOCKED: REMARK    3  A    between atoms: C_3  and  O_17 
DOCKED: REMARK    4  A    between atoms: C_4  and  O_22 
DOCKED: REMARK    5  A    between atoms: C_5  and  O_27 
DOCKED: REMARK    6  A    between atoms: C_6  and  O_32 
DOCKED: REMARK    7  A    between atoms: O_7  and  P_8 
DOCKED: REMARK    8  A    between atoms: P_8  and  O_10 
DOCKED: REMARK    9  A    between atoms: P_8  and  O_11 
DOCKED: REMARK   10  A    between atoms: O_12  and  P_13 
DOCKED: REMARK   11  A    between atoms: P_13  and  O_15 
DOCKED: REMARK   12  A    between atoms: P_13  and  O_16 
DOCKED: REMARK   13  A    between atoms: O_17  and  P_18 
DOCKED: REMARK   14  A    between atoms: P_18  and  O_20 
DOCKED: REMARK   15  A    between atoms: P_18  and  O_21 
DOCKED: REMARK   16  A    between atoms: O_22  and  P_23 
DOCKED: REMARK   17  A    between atoms: P_23  and  O_25 
DOCKED: REMARK   18  A    between atoms: P_23  and  O_26 
DOCKED: REMARK   19  A    between atoms: O_27  and  P_28 
DOCKED: REMARK   20  A    between atoms: P_28  and  O_30 
DOCKED: REMARK   21  A    between atoms: P_28  and  O_31 
DOCKED: REMARK   22  A    between atoms: O_32  and  P_33 
DOCKED: REMARK   23  A    between atoms: P_33  and  O_35 
DOCKED: REMARK   24  A    between atoms: P_33  and  O_36 
DOCKED: USER                              x       y       z     vdW  Elec       q    Type
DOCKED: USER                           _______ _______ _______ _____ _____    ______ ____
DOCKED: ROOT
DOCKED: ATOM      1  C   UNL d   1      52.295  27.455  15.523 -0.08 +0.06    +0.194 C 
DOCKED: ATOM      2  C   UNL d   1      52.122  26.905  14.106 -0.13 +0.07    +0.194 C 
DOCKED: ATOM      3  C   UNL d   1      52.132  28.022  13.060 -0.14 +0.05    +0.194 C 
DOCKED: ATOM      4  C   UNL d   1      53.342  28.946  13.177 -0.05 +0.03    +0.194 C 
DOCKED: ATOM      5  C   UNL d   1      53.620  29.427  14.596 -0.03 +0.03    +0.194 C 
DOCKED: ATOM      6  C   UNL d   1      53.549  28.320  15.650 -0.03 +0.04    +0.194 C 
DOCKED: ENDROOT
DOCKED: BRANCH   1   7
DOCKED: ATOM      7  O   UNL d   1      52.448  26.348  16.415 -0.04 -0.09    -0.278 OA
DOCKED: BRANCH   7   8
DOCKED: ATOM      8  P   UNL d   1      53.925  25.918  16.844 -0.01 +0.12    +0.473 P 
DOCKED: ATOM      9  O   UNL d   1      54.952  26.030  15.772 -0.01 -0.05    -0.228 OA
DOCKED: BRANCH   8  10
DOCKED: ATOM     10  O   UNL d   1      54.241  26.833  18.113 -0.00 -0.06    -0.303 OA
DOCKED: ATOM     11  H   UNL d   1      53.770  27.683  18.029 +0.01 +0.05    +0.222 HD
DOCKED: ENDBRANCH   8  10
DOCKED: BRANCH   8  12
DOCKED: ATOM     12  O   UNL d   1      53.762  24.481  17.502 -0.01 -0.09    -0.303 OA
DOCKED: ATOM     13  H   UNL d   1      54.298  23.789  17.054 +0.01 +0.06    +0.222 HD
DOCKED: ENDBRANCH   8  12
DOCKED: ENDBRANCH   7   8
DOCKED: ENDBRANCH   1   7
DOCKED: BRANCH   2  14
DOCKED: ATOM     14  O   UNL d   1      53.199  26.003  13.821 -0.05 -0.09    -0.278 OA
DOCKED: BRANCH  14  15
DOCKED: ATOM     15  P   UNL d   1      52.847  24.733  12.912 -0.08 +0.20    +0.473 P 
DOCKED: ATOM     16  O   UNL d   1      53.009  23.387  13.546 -0.10 -0.11    -0.228 OA
DOCKED: BRANCH  15  17
DOCKED: ATOM     17  O   UNL d   1      51.356  25.009  12.421 +0.00 -0.18    -0.303 OA
DOCKED: ATOM     18  H   UNL d   1      51.349  25.460  11.555 +0.10 +0.11    +0.222 HD
DOCKED: ENDBRANCH  15  17
DOCKED: BRANCH  15  19
DOCKED: ATOM     19  O   UNL d   1      53.672  24.963  11.571 -0.03 -0.10    -0.303 OA
DOCKED: ATOM     20  H   UNL d   1      53.643  25.895  11.286 +0.06 +0.07    +0.222 HD
DOCKED: ENDBRANCH  15  19
DOCKED: ENDBRANCH  14  15
DOCKED: ENDBRANCH   2  14
DOCKED: BRANCH   6  21
DOCKED: ATOM     21  O   UNL d   1      53.486  28.965  16.920 -0.01 -0.05    -0.278 OA
DOCKED: BRANCH  21  22
DOCKED: ATOM     22  P   UNL d   1      52.077  29.447  17.494 -0.02 +0.10    +0.473 P 
DOCKED: ATOM     23  O   UNL d   1      50.971  29.700  16.526 -0.08 -0.05    -0.228 OA
DOCKED: BRANCH  22  24
DOCKED: ATOM     24  O   UNL d   1      51.769  28.327  18.583 -0.01 -0.08    -0.303 OA
DOCKED: ATOM     25  H   UNL d   1      52.199  27.485  18.289 +0.02 +0.06    +0.222 HD
DOCKED: ENDBRANCH  22  24
DOCKED: BRANCH  22  26
DOCKED: ATOM     26  O   UNL d   1      52.507  30.690  18.410 -0.01 -0.06    -0.303 OA
DOCKED: ATOM     27  H   UNL d   1      52.603  31.486  17.849 +0.01 +0.04    +0.222 HD
DOCKED: ENDBRANCH  22  26
DOCKED: ENDBRANCH  21  22
DOCKED: ENDBRANCH   6  21
DOCKED: BRANCH   3  28
DOCKED: ATOM     28  O   UNL d   1      52.247  27.410  11.781 -0.11 -0.08    -0.278 OA
DOCKED: BRANCH  28  29
DOCKED: ATOM     29  P   UNL d   1      51.292  27.855  10.588 -0.24 +0.14    +0.473 P 
DOCKED: ATOM     30  O   UNL d   1      51.884  27.774   9.228 -0.60 -0.09    -0.228 OA
DOCKED: BRANCH  29  31
DOCKED: ATOM     31  O   UNL d   1      50.024  26.924  10.884 -0.43 -0.13    -0.303 OA
DOCKED: ATOM     32  H   UNL d   1      50.051  26.649  11.829 +0.14 +0.11    +0.222 HD
DOCKED: ENDBRANCH  29  31
DOCKED: BRANCH  29  33
DOCKED: ATOM     33  O   UNL d   1      50.796  29.289  11.073 -0.19 -0.04    -0.303 OA
DOCKED: ATOM     34  H   UNL d   1      51.519  29.946  10.921 +0.11 +0.00    +0.222 HD
DOCKED: ENDBRANCH  29  33
DOCKED: ENDBRANCH  28  29
DOCKED: ENDBRANCH   3  28
DOCKED: BRANCH   5  35
DOCKED: ATOM     35  O   UNL d   1      54.961  29.911  14.585 -0.00 -0.04    -0.278 OA
DOCKED: BRANCH  35  36
DOCKED: ATOM     36  P   UNL d   1      55.360  31.196  15.440 -0.00 +0.05    +0.473 P 
DOCKED: ATOM     37  O   UNL d   1      56.552  31.036  16.329 -0.00 -0.03    -0.228 OA
DOCKED: BRANCH  36  38
DOCKED: ATOM     38  O   UNL d   1      55.533  32.302  14.307 -0.00 -0.03    -0.303 OA
DOCKED: ATOM     39  H   UNL d   1      54.876  33.016  14.452 +0.02 +0.02    +0.222 HD
DOCKED: ENDBRANCH  36  38
DOCKED: BRANCH  36  40
DOCKED: ATOM     40  O   UNL d   1      53.984  31.579  16.141 -0.01 -0.04    -0.303 OA
DOCKED: ATOM     41  H   UNL d   1      53.858  31.092  16.985 +0.01 +0.03    +0.222 HD
DOCKED: ENDBRANCH  36  40
DOCKED: ENDBRANCH  35  36
DOCKED: ENDBRANCH   5  35
DOCKED: BRANCH   4  42
DOCKED: ATOM     42  O   UNL d   1      53.057  30.105  12.388 -0.06 -0.02    -0.278 OA
DOCKED: BRANCH  42  43
DOCKED: ATOM     43  P   UNL d   1      52.061  31.208  12.968 -0.13 +0.02    +0.473 P 
DOCKED: ATOM     44  O   UNL d   1      51.055  30.763  13.973 -0.22 -0.03    -0.228 OA
DOCKED: BRANCH  43  45
DOCKED: ATOM     45  O   UNL d   1      53.055  32.333  13.495 -0.07 -0.02    -0.303 OA
DOCKED: ATOM     46  H   UNL d   1      53.794  31.947  14.006 +0.03 +0.02    +0.222 HD
DOCKED: ENDBRANCH  43  45
DOCKED: BRANCH  43  47
DOCKED: ATOM     47  O   UNL d   1      51.464  31.893  11.648 -0.24 +0.06    -0.303 OA
DOCKED: ATOM     48  H   UNL d   1      50.645  31.424  11.384 -0.43 -0.06    +0.222 HD
DOCKED: ENDBRANCH  43  47
DOCKED: ENDBRANCH  42  43
DOCKED: ENDBRANCH   4  42
DOCKED: TORSDOF 24
DOCKED: TER
DOCKED: ENDMDL
________________________________________________________________________________


	BEGINNING GENETIC ALGORITHM DOCKING 98 of 100
Run: 98 Seed: 1099303498 1834909672 [ Run 98 of 100 GA/GALS ]
Beginning LAMARCKIAN GENETIC ALGORITHM (LGA), with a maximum of 25000000 energy evaluations.

Final-Value: -19.395


	FINAL GENETIC ALGORITHM DOCKED STATE
	_______________________________________________


Detailed state:  trans 39.523 30.466 -2.973 quatxyzw 0.413521 -0.135948 0.380926 -0.815729 center 0.035 0.082 -0.065 ntor 24 -123.2991 -0.1370 53.5565 49.6895 68.9744 -130.4240 36.6564 -73.1026 25.0235 108.7182 44.1397 117.7777 27.7133 159.2650 120.9113 93.9387 -65.7831 -177.4627 -0.1564 -18.4914 -12.6183 -22.4844 -169.7851 15.4038
State:	 39.523  30.466  -2.973   0.715 -0.235  0.659 -70.681   -123.30   -0.14   53.56   49.69   68.97 -130.42   36.66  -73.10   25.02  108.72   44.14  117.78   27.71  159.27  120.91   93.94  -65.78 -177.46   -0.16  -18.49  -12.62  -22.48 -169.79   15.40

DOCKED: MODEL       98
DOCKED: USER    Run = 98
DOCKED: USER    DPF = D:/Protein_go_brrr/autodock/final/2DN3/IHP/dock.dpf
DOCKED: USER  
DOCKED: USER    Estimated Free Energy of Binding    =   +3.87 kcal/mol  [=(1)+(2)+(3)-(4)]
DOCKED: USER    
DOCKED: USER    (1) Final Intermolecular Energy     =   -3.29 kcal/mol
DOCKED: USER        vdW + Hbond + desolv Energy     =   -3.20 kcal/mol
DOCKED: USER        Electrostatic Energy            =   -0.09 kcal/mol
DOCKED: USER    (2) Final Total Internal Energy     =  -16.11 kcal/mol
DOCKED: USER    (3) Torsional Free Energy           =   +7.16 kcal/mol
DOCKED: USER    (4) Unbound System's Energy  [=(2)] =  -16.11 kcal/mol
DOCKED: USER    
DOCKED: USER    
DOCKED: USER    NEWDPF move IHP_ideal_opt.pdbqt
DOCKED: USER    NEWDPF about 0.035000 0.082000 -0.065000
DOCKED: USER    NEWDPF tran0 39.523357 30.466349 -2.972542
DOCKED: USER    NEWDPF quaternion0 0.413521 -0.135948 0.380926 -0.815729
DOCKED: USER    NEWDPF axisangle0 0.714897 -0.235027 0.658547 -70.681038
DOCKED: USER    NEWDPF quat0 0.714897 -0.235027 0.658547 -70.681038
DOCKED: USER    NEWDPF dihe0 -123.30 -0.14 53.56 49.69 68.97 -130.42 36.66 -73.10 25.02 108.72 44.14 117.78 27.71 159.27 120.91 93.94 -65.78 -177.46 -0.16 -18.49 -12.62 -22.48 -169.79 15.40 
DOCKED: USER  keepresnum = 1 
DOCKED: USER  
DOCKED: REMARK  24 active torsions:
DOCKED: REMARK  status: ('A' for Active; 'I' for Inactive)
DOCKED: REMARK    1  A    between atoms: C_1  and  O_7 
DOCKED: REMARK    2  A    between atoms: C_2  and  O_12 
DOCKED: REMARK    3  A    between atoms: C_3  and  O_17 
DOCKED: REMARK    4  A    between atoms: C_4  and  O_22 
DOCKED: REMARK    5  A    between atoms: C_5  and  O_27 
DOCKED: REMARK    6  A    between atoms: C_6  and  O_32 
DOCKED: REMARK    7  A    between atoms: O_7  and  P_8 
DOCKED: REMARK    8  A    between atoms: P_8  and  O_10 
DOCKED: REMARK    9  A    between atoms: P_8  and  O_11 
DOCKED: REMARK   10  A    between atoms: O_12  and  P_13 
DOCKED: REMARK   11  A    between atoms: P_13  and  O_15 
DOCKED: REMARK   12  A    between atoms: P_13  and  O_16 
DOCKED: REMARK   13  A    between atoms: O_17  and  P_18 
DOCKED: REMARK   14  A    between atoms: P_18  and  O_20 
DOCKED: REMARK   15  A    between atoms: P_18  and  O_21 
DOCKED: REMARK   16  A    between atoms: O_22  and  P_23 
DOCKED: REMARK   17  A    between atoms: P_23  and  O_25 
DOCKED: REMARK   18  A    between atoms: P_23  and  O_26 
DOCKED: REMARK   19  A    between atoms: O_27  and  P_28 
DOCKED: REMARK   20  A    between atoms: P_28  and  O_30 
DOCKED: REMARK   21  A    between atoms: P_28  and  O_31 
DOCKED: REMARK   22  A    between atoms: O_32  and  P_33 
DOCKED: REMARK   23  A    between atoms: P_33  and  O_35 
DOCKED: REMARK   24  A    between atoms: P_33  and  O_36 
DOCKED: USER                              x       y       z     vdW  Elec       q    Type
DOCKED: USER                           _______ _______ _______ _____ _____    ______ ____
DOCKED: ROOT
DOCKED: ATOM      1  C   UNL d   1      41.092  30.162  -2.316 -0.08 +0.01    +0.194 C 
DOCKED: ATOM      2  C   UNL d   1      40.808  29.518  -3.674 -0.02 +0.02    +0.194 C 
DOCKED: ATOM      3  C   UNL d   1      39.408  28.902  -3.727 -0.01 +0.02    +0.194 C 
DOCKED: ATOM      4  C   UNL d   1      38.307  29.873  -3.307 -0.01 +0.02    +0.194 C 
DOCKED: ATOM      5  C   UNL d   1      38.602  30.623  -2.015 -0.04 +0.02    +0.194 C 
DOCKED: ATOM      6  C   UNL d   1      40.022  31.187  -1.936 -0.07 +0.01    +0.194 C 
DOCKED: ENDROOT
DOCKED: BRANCH   1   7
DOCKED: ATOM      7  O   UNL d   1      42.337  30.859  -2.404 -0.06 -0.02    -0.278 OA
DOCKED: BRANCH   7   8
DOCKED: ATOM      8  P   UNL d   1      43.501  30.467  -1.382 -0.26 +0.01    +0.473 P 
DOCKED: ATOM      9  O   UNL d   1      44.258  29.234  -1.732 -0.25 +0.00    -0.228 OA
DOCKED: BRANCH   8  10
DOCKED: ATOM     10  O   UNL d   1      44.417  31.771  -1.321 -0.14 +0.03    -0.303 OA
DOCKED: ATOM     11  H   UNL d   1      44.002  32.435  -0.739 -0.18 -0.04    +0.222 HD
DOCKED: ENDBRANCH   8  10
DOCKED: BRANCH   8  12
DOCKED: ATOM     12  O   UNL d   1      42.813  30.476   0.050 -0.61 -0.01    -0.303 OA
DOCKED: ATOM     13  H   UNL d   1      42.242  31.263   0.198 -0.36 -0.04    +0.222 HD
DOCKED: ENDBRANCH   8  12
DOCKED: ENDBRANCH   7   8
DOCKED: ENDBRANCH   1   7
DOCKED: BRANCH   2  14
DOCKED: ATOM     14  O   UNL d   1      40.905  30.519  -4.695 -0.00 -0.02    -0.278 OA
DOCKED: BRANCH  14  15
DOCKED: ATOM     15  P   UNL d   1      42.112  30.366  -5.735 +0.00 +0.04    +0.473 P 
DOCKED: ATOM     16  O   UNL d   1      42.734  31.632  -6.236 -0.00 -0.02    -0.228 OA
DOCKED: BRANCH  15  17
DOCKED: ATOM     17  O   UNL d   1      43.154  29.422  -4.984 -0.01 -0.02    -0.303 OA
DOCKED: ATOM     18  H   UNL d   1      43.241  29.673  -4.045 +0.04 +0.02    +0.222 HD
DOCKED: ENDBRANCH  15  17
DOCKED: BRANCH  15  19
DOCKED: ATOM     19  O   UNL d   1      41.548  29.389  -6.857 -0.00 -0.02    -0.303 OA
DOCKED: ATOM     20  H   UNL d   1      40.698  28.991  -6.594 +0.00 +0.02    +0.222 HD
DOCKED: ENDBRANCH  15  19
DOCKED: ENDBRANCH  14  15
DOCKED: ENDBRANCH   2  14
DOCKED: BRANCH   6  21
DOCKED: ATOM     21  O   UNL d   1      40.249  31.543  -0.574 -0.15 -0.01    -0.278 OA
DOCKED: BRANCH  21  22
DOCKED: ATOM     22  P   UNL d   1      40.470  33.073  -0.181 -0.12 +0.04    +0.473 P 
DOCKED: ATOM     23  O   UNL d   1      40.061  33.517   1.183 -0.78 -0.06    -0.228 OA
DOCKED: BRANCH  22  24
DOCKED: ATOM     24  O   UNL d   1      42.013  33.275  -0.515 -0.16 -0.03    -0.303 OA
DOCKED: ATOM     25  H   UNL d   1      42.358  32.430  -0.901 +0.06 +0.01    +0.222 HD
DOCKED: ENDBRANCH  22  24
DOCKED: BRANCH  22  26
DOCKED: ATOM     26  O   UNL d   1      39.765  33.828  -1.407 -0.04 -0.03    -0.303 OA
DOCKED: ATOM     27  H   UNL d   1      38.840  33.516  -1.489 +0.05 +0.02    +0.222 HD
DOCKED: ENDBRANCH  22  26
DOCKED: ENDBRANCH  21  22
DOCKED: ENDBRANCH   6  21
DOCKED: BRANCH   3  28
DOCKED: ATOM     28  O   UNL d   1      39.132  28.583  -5.085 -0.00 -0.02    -0.278 OA
DOCKED: BRANCH  28  29
DOCKED: ATOM     29  P   UNL d   1      39.559  27.170  -5.683 -0.00 +0.03    +0.473 P 
DOCKED: ATOM     30  O   UNL d   1      38.823  25.998  -5.142 -0.00 -0.01    -0.228 OA
DOCKED: BRANCH  29  31
DOCKED: ATOM     31  O   UNL d   1      39.401  27.469  -7.247 +0.00 -0.02    -0.303 OA
DOCKED: ATOM     32  H   UNL d   1      40.250  27.836  -7.583 +0.00 +0.01    +0.222 HD
DOCKED: ENDBRANCH  29  31
DOCKED: BRANCH  29  33
DOCKED: ATOM     33  O   UNL d   1      41.138  27.184  -5.480 -0.00 -0.02    -0.303 OA
DOCKED: ATOM     34  H   UNL d   1      41.426  28.106  -5.270 +0.01 +0.02    +0.222 HD
DOCKED: ENDBRANCH  29  33
DOCKED: ENDBRANCH  28  29
DOCKED: ENDBRANCH   3  28
DOCKED: BRANCH   5  35
DOCKED: ATOM     35  O   UNL d   1      37.708  31.734  -2.000 -0.01 -0.03    -0.278 OA
DOCKED: BRANCH  35  36
DOCKED: ATOM     36  P   UNL d   1      37.394  32.532  -3.345 +0.01 +0.05    +0.473 P 
DOCKED: ATOM     37  O   UNL d   1      38.412  32.390  -4.432 +0.00 -0.02    -0.228 OA
DOCKED: BRANCH  36  38
DOCKED: ATOM     38  O   UNL d   1      35.951  31.976  -3.725 +0.00 -0.03    -0.303 OA
DOCKED: ATOM     39  H   UNL d   1      35.944  31.000  -3.619 +0.00 +0.02    +0.222 HD
DOCKED: ENDBRANCH  36  38
DOCKED: BRANCH  36  40
DOCKED: ATOM     40  O   UNL d   1      37.109  34.002  -2.810 -0.00 -0.03    -0.303 OA
DOCKED: ATOM     41  H   UNL d   1      37.918  34.416  -2.434 +0.02 +0.02    +0.222 HD
DOCKED: ENDBRANCH  36  40
DOCKED: ENDBRANCH  35  36
DOCKED: ENDBRANCH   5  35
DOCKED: BRANCH   4  42
DOCKED: ATOM     42  O   UNL d   1      37.130  29.091  -3.081 -0.01 -0.02    -0.278 OA
DOCKED: BRANCH  42  43
DOCKED: ATOM     43  P   UNL d   1      36.061  28.948  -4.257 -0.00 +0.04    +0.473 P 
DOCKED: ATOM     44  O   UNL d   1      34.630  29.184  -3.917 -0.00 -0.02    -0.228 OA
DOCKED: BRANCH  43  45
DOCKED: ATOM     45  O   UNL d   1      36.635  29.928  -5.371 +0.00 -0.02    -0.303 OA
DOCKED: ATOM     46  H   UNL d   1      37.143  30.664  -4.974 +0.00 +0.02    +0.222 HD
DOCKED: ENDBRANCH  43  45
DOCKED: BRANCH  43  47
DOCKED: ATOM     47  O   UNL d   1      36.395  27.511  -4.883 -0.00 -0.02    -0.303 OA
DOCKED: ATOM     48  H   UNL d   1      37.301  27.525  -5.258 +0.00 +0.01    +0.222 HD
DOCKED: ENDBRANCH  43  47
DOCKED: ENDBRANCH  42  43
DOCKED: ENDBRANCH   4  42
DOCKED: TORSDOF 24
DOCKED: TER
DOCKED: ENDMDL
________________________________________________________________________________


	BEGINNING GENETIC ALGORITHM DOCKING 99 of 100
Run: 99 Seed: 2038869917 790101169 [ Run 99 of 100 GA/GALS ]
Beginning LAMARCKIAN GENETIC ALGORITHM (LGA), with a maximum of 25000000 energy evaluations.

Final-Value: -15.977


	FINAL GENETIC ALGORITHM DOCKED STATE
	_______________________________________________


Detailed state:  trans 32.791 62.464 13.595 quatxyzw 0.041411 -0.056100 0.985563 -0.154281 center 0.035 0.082 -0.065 ntor 24 66.2006 83.5726 94.9779 111.1622 5.1243 -123.8460 -123.2246 -8.0225 47.3933 0.3595 84.0935 82.2118 -46.9380 108.3281 -56.4769 45.3089 154.6450 -148.9310 26.6462 -4.3449 174.3321 162.7053 -2.8101 -35.7073
State:	 32.791  62.464  13.595   0.042 -0.057  0.998 -162.250     66.20   83.57   94.98  111.16    5.12 -123.85 -123.22   -8.02   47.39    0.36   84.09   82.21  -46.94  108.33  -56.48   45.31  154.64 -148.93   26.65   -4.34  174.33  162.71   -2.81  -35.71

DOCKED: MODEL       99
DOCKED: USER    Run = 99
DOCKED: USER    DPF = D:/Protein_go_brrr/autodock/final/2DN3/IHP/dock.dpf
DOCKED: USER  
DOCKED: USER    Estimated Free Energy of Binding    =   +6.19 kcal/mol  [=(1)+(2)+(3)-(4)]
DOCKED: USER    
DOCKED: USER    (1) Final Intermolecular Energy     =   -0.97 kcal/mol
DOCKED: USER        vdW + Hbond + desolv Energy     =   -0.92 kcal/mol
DOCKED: USER        Electrostatic Energy            =   -0.06 kcal/mol
DOCKED: USER    (2) Final Total Internal Energy     =  -15.00 kcal/mol
DOCKED: USER    (3) Torsional Free Energy           =   +7.16 kcal/mol
DOCKED: USER    (4) Unbound System's Energy  [=(2)] =  -15.00 kcal/mol
DOCKED: USER    
DOCKED: USER    
DOCKED: USER    NEWDPF move IHP_ideal_opt.pdbqt
DOCKED: USER    NEWDPF about 0.035000 0.082000 -0.065000
DOCKED: USER    NEWDPF tran0 32.790623 62.464255 13.595047
DOCKED: USER    NEWDPF quaternion0 0.041411 -0.056100 0.985563 -0.154281
DOCKED: USER    NEWDPF axisangle0 0.041913 -0.056779 0.997507 -162.249755
DOCKED: USER    NEWDPF quat0 0.041913 -0.056779 0.997507 -162.249755
DOCKED: USER    NEWDPF dihe0 66.20 83.57 94.98 111.16 5.12 -123.85 -123.22 -8.02 47.39 0.36 84.09 82.21 -46.94 108.33 -56.48 45.31 154.64 -148.93 26.65 -4.34 174.33 162.71 -2.81 -35.71 
DOCKED: USER  keepresnum = 1 
DOCKED: USER  
DOCKED: REMARK  24 active torsions:
DOCKED: REMARK  status: ('A' for Active; 'I' for Inactive)
DOCKED: REMARK    1  A    between atoms: C_1  and  O_7 
DOCKED: REMARK    2  A    between atoms: C_2  and  O_12 
DOCKED: REMARK    3  A    between atoms: C_3  and  O_17 
DOCKED: REMARK    4  A    between atoms: C_4  and  O_22 
DOCKED: REMARK    5  A    between atoms: C_5  and  O_27 
DOCKED: REMARK    6  A    between atoms: C_6  and  O_32 
DOCKED: REMARK    7  A    between atoms: O_7  and  P_8 
DOCKED: REMARK    8  A    between atoms: P_8  and  O_10 
DOCKED: REMARK    9  A    between atoms: P_8  and  O_11 
DOCKED: REMARK   10  A    between atoms: O_12  and  P_13 
DOCKED: REMARK   11  A    between atoms: P_13  and  O_15 
DOCKED: REMARK   12  A    between atoms: P_13  and  O_16 
DOCKED: REMARK   13  A    between atoms: O_17  and  P_18 
DOCKED: REMARK   14  A    between atoms: P_18  and  O_20 
DOCKED: REMARK   15  A    between atoms: P_18  and  O_21 
DOCKED: REMARK   16  A    between atoms: O_22  and  P_23 
DOCKED: REMARK   17  A    between atoms: P_23  and  O_25 
DOCKED: REMARK   18  A    between atoms: P_23  and  O_26 
DOCKED: REMARK   19  A    between atoms: O_27  and  P_28 
DOCKED: REMARK   20  A    between atoms: P_28  and  O_30 
DOCKED: REMARK   21  A    between atoms: P_28  and  O_31 
DOCKED: REMARK   22  A    between atoms: O_32  and  P_33 
DOCKED: REMARK   23  A    between atoms: P_33  and  O_35 
DOCKED: REMARK   24  A    between atoms: P_33  and  O_36 
DOCKED: USER                              x       y       z     vdW  Elec       q    Type
DOCKED: USER                           _______ _______ _______ _____ _____    ______ ____
DOCKED: ROOT
DOCKED: ATOM      1  C   UNL d   1      31.927  63.582  14.589 +0.00 +0.01    +0.194 C 
DOCKED: ATOM      2  C   UNL d   1      33.335  64.014  14.179 +0.00 +0.01    +0.194 C 
DOCKED: ATOM      3  C   UNL d   1      34.336  62.863  14.290 +0.00 +0.01    +0.194 C 
DOCKED: ATOM      4  C   UNL d   1      33.884  61.601  13.559 -0.00 +0.01    +0.194 C 
DOCKED: ATOM      5  C   UNL d   1      32.445  61.197  13.850 -0.01 +0.01    +0.194 C 
DOCKED: ATOM      6  C   UNL d   1      31.453  62.361  13.800 -0.00 +0.01    +0.194 C 
DOCKED: ENDROOT
DOCKED: BRANCH   1   7
DOCKED: ATOM      7  O   UNL d   1      31.028  64.654  14.295 +0.00 -0.01    -0.278 OA
DOCKED: BRANCH   7   8
DOCKED: ATOM      8  P   UNL d   1      30.651  65.672  15.468 +0.00 +0.01    +0.473 P 
DOCKED: ATOM      9  O   UNL d   1      31.376  65.454  16.749 +0.00 -0.01    -0.228 OA
DOCKED: BRANCH   8  10
DOCKED: ATOM     10  O   UNL d   1      30.916  67.110  14.832 +0.00 -0.01    -0.303 OA
DOCKED: ATOM     11  H   UNL d   1      31.830  67.390  15.026 +0.00 +0.01    +0.222 HD
DOCKED: ENDBRANCH   8  10
DOCKED: BRANCH   8  12
DOCKED: ATOM     12  O   UNL d   1      29.065  65.634  15.553 +0.00 -0.01    -0.303 OA
DOCKED: ATOM     13  H   UNL d   1      28.693  64.733  15.418 +0.00 +0.01    +0.222 HD
DOCKED: ENDBRANCH   8  12
DOCKED: ENDBRANCH   7   8
DOCKED: ENDBRANCH   1   7
DOCKED: BRANCH   2  14
DOCKED: ATOM     14  O   UNL d   1      33.308  64.466  12.819 +0.00 -0.01    -0.278 OA
DOCKED: BRANCH  14  15
DOCKED: ATOM     15  P   UNL d   1      33.923  65.917  12.535 +0.00 +0.02    +0.473 P 
DOCKED: ATOM     16  O   UNL d   1      34.241  66.244  11.109 +0.00 -0.01    -0.228 OA
DOCKED: BRANCH  15  17
DOCKED: ATOM     17  O   UNL d   1      32.863  66.920  13.176 +0.00 -0.01    -0.303 OA
DOCKED: ATOM     18  H   UNL d   1      32.111  66.434  13.565 +0.00 +0.01    +0.222 HD
DOCKED: ENDBRANCH  15  17
DOCKED: BRANCH  15  19
DOCKED: ATOM     19  O   UNL d   1      35.137  66.041  13.555 +0.00 -0.01    -0.303 OA
DOCKED: ATOM     20  H   UNL d   1      35.734  65.272  13.498 +0.00 +0.01    +0.222 HD
DOCKED: ENDBRANCH  15  19
DOCKED: ENDBRANCH  14  15
DOCKED: ENDBRANCH   2  14
DOCKED: BRANCH   6  21
DOCKED: ATOM     21  O   UNL d   1      30.251  61.905  14.417 -0.00 -0.01    -0.278 OA
DOCKED: BRANCH  21  22
DOCKED: ATOM     22  P   UNL d   1      30.203  61.694  15.998 +0.00 +0.02    +0.473 P 
DOCKED: ATOM     23  O   UNL d   1      31.480  61.393  16.708 -0.00 -0.01    -0.228 OA
DOCKED: BRANCH  22  24
DOCKED: ATOM     24  O   UNL d   1      29.467  63.019  16.481 -0.00 -0.01    -0.303 OA
DOCKED: ATOM     25  H   UNL d   1      30.022  63.795  16.214 +0.00 +0.01    +0.222 HD
DOCKED: ENDBRANCH  22  24
DOCKED: BRANCH  22  26
DOCKED: ATOM     26  O   UNL d   1      29.042  60.598  16.145 -0.00 -0.01    -0.303 OA
DOCKED: ATOM     27  H   UNL d   1      29.313  59.779  15.682 +0.01 +0.01    +0.222 HD
DOCKED: ENDBRANCH  22  26
DOCKED: ENDBRANCH  21  22
DOCKED: ENDBRANCH   6  21
DOCKED: BRANCH   3  28
DOCKED: ATOM     28  O   UNL d   1      35.532  63.269  13.635 +0.00 -0.01    -0.278 OA
DOCKED: BRANCH  28  29
DOCKED: ATOM     29  P   UNL d   1      35.706  63.050  12.068 +0.00 +0.02    +0.473 P 
DOCKED: ATOM     30  O   UNL d   1      34.447  62.840  11.307 +0.00 -0.01    -0.228 OA
DOCKED: BRANCH  29  31
DOCKED: ATOM     31  O   UNL d   1      36.570  64.345  11.698 +0.00 -0.01    -0.303 OA
DOCKED: ATOM     32  H   UNL d   1      35.990  65.138  11.762 +0.00 +0.01    +0.222 HD
DOCKED: ENDBRANCH  29  31
DOCKED: BRANCH  29  33
DOCKED: ATOM     33  O   UNL d   1      36.784  61.879  12.012 +0.00 -0.02    -0.303 OA
DOCKED: ATOM     34  H   UNL d   1      36.487  61.141  12.598 +0.00 +0.01    +0.222 HD
DOCKED: ENDBRANCH  29  33
DOCKED: ENDBRANCH  28  29
DOCKED: ENDBRANCH   3  28
DOCKED: BRANCH   5  35
DOCKED: ATOM     35  O   UNL d   1      32.080  60.289  12.813 -0.01 -0.02    -0.278 OA
DOCKED: BRANCH  35  36
DOCKED: ATOM     36  P   UNL d   1      31.462  58.863  13.172 -0.06 +0.07    +0.473 P 
DOCKED: ATOM     37  O   UNL d   1      31.527  57.839  12.083 -0.68 -0.08    -0.228 OA
DOCKED: BRANCH  36  38
DOCKED: ATOM     38  O   UNL d   1      32.277  58.476  14.484 -0.08 -0.04    -0.303 OA
DOCKED: ATOM     39  H   UNL d   1      33.121  58.977  14.497 +0.02 +0.02    +0.222 HD
DOCKED: ENDBRANCH  36  38
DOCKED: BRANCH  36  40
DOCKED: ATOM     40  O   UNL d   1      30.018  59.246  13.718 -0.03 -0.03    -0.303 OA
DOCKED: ATOM     41  H   UNL d   1      30.046  60.041  14.294 +0.01 +0.01    +0.222 HD
DOCKED: ENDBRANCH  36  40
DOCKED: ENDBRANCH  35  36
DOCKED: ENDBRANCH   5  35
DOCKED: BRANCH   4  42
DOCKED: ATOM     42  O   UNL d   1      34.722  60.534  14.017 -0.00 -0.02    -0.278 OA
DOCKED: BRANCH  42  43
DOCKED: ATOM     43  P   UNL d   1      35.100  59.361  13.004 -0.01 +0.04    +0.473 P 
DOCKED: ATOM     44  O   UNL d   1      34.384  58.064  13.156 -0.09 -0.02    -0.228 OA
DOCKED: BRANCH  43  45
DOCKED: ATOM     45  O   UNL d   1      34.904  60.051  11.583 -0.01 -0.03    -0.303 OA
DOCKED: ATOM     46  H   UNL d   1      34.784  61.018  11.668 +0.01 +0.02    +0.222 HD
DOCKED: ENDBRANCH  43  45
DOCKED: BRANCH  43  47
DOCKED: ATOM     47  O   UNL d   1      36.698  59.286  13.111 -0.00 -0.03    -0.303 OA
DOCKED: ATOM     48  H   UNL d   1      37.095  59.775  12.361 +0.01 +0.02    +0.222 HD
DOCKED: ENDBRANCH  43  47
DOCKED: ENDBRANCH  42  43
DOCKED: ENDBRANCH   4  42
DOCKED: TORSDOF 24
DOCKED: TER
DOCKED: ENDMDL
________________________________________________________________________________


	BEGINNING GENETIC ALGORITHM DOCKING 100 of 100
Run: 100 Seed: 288976631 790221418 [ Run 100 of 100 GA/GALS ]
Beginning LAMARCKIAN GENETIC ALGORITHM (LGA), with a maximum of 25000000 energy evaluations.

Final-Value: -14.877


	FINAL GENETIC ALGORITHM DOCKED STATE
	_______________________________________________


Detailed state:  trans 44.818 40.788 33.224 quatxyzw 0.582874 -0.297170 -0.575487 0.490675 center 0.035 0.082 -0.065 ntor 24 106.3584 81.2256 5.5275 59.0345 39.3487 -159.5035 156.9055 -9.1394 -0.8821 98.2327 83.4579 -138.2560 142.2629 -166.0752 130.1788 61.8496 -66.3755 116.6171 1.1681 -48.6311 -21.1418 -41.3091 3.5966 -10.4229
State:	 44.818  40.788  33.224   0.669 -0.341 -0.660 121.230    106.36   81.23    5.53   59.03   39.35 -159.50  156.91   -9.14   -0.88   98.23   83.46 -138.26  142.26 -166.08  130.18   61.85  -66.38  116.62    1.17  -48.63  -21.14  -41.31    3.60  -10.42

DOCKED: MODEL      100
DOCKED: USER    Run = 100
DOCKED: USER    DPF = D:/Protein_go_brrr/autodock/final/2DN3/IHP/dock.dpf
DOCKED: USER  
DOCKED: USER    Estimated Free Energy of Binding    =   +6.24 kcal/mol  [=(1)+(2)+(3)-(4)]
DOCKED: USER    
DOCKED: USER    (1) Final Intermolecular Energy     =   -0.92 kcal/mol
DOCKED: USER        vdW + Hbond + desolv Energy     =   -0.75 kcal/mol
DOCKED: USER        Electrostatic Energy            =   -0.16 kcal/mol
DOCKED: USER    (2) Final Total Internal Energy     =  -13.96 kcal/mol
DOCKED: USER    (3) Torsional Free Energy           =   +7.16 kcal/mol
DOCKED: USER    (4) Unbound System's Energy  [=(2)] =  -13.96 kcal/mol
DOCKED: USER    
DOCKED: USER    
DOCKED: USER    NEWDPF move IHP_ideal_opt.pdbqt
DOCKED: USER    NEWDPF about 0.035000 0.082000 -0.065000
DOCKED: USER    NEWDPF tran0 44.818162 40.788131 33.223803
DOCKED: USER    NEWDPF quaternion0 0.582874 -0.297170 -0.575487 0.490675
DOCKED: USER    NEWDPF axisangle0 0.668937 -0.341049 -0.660461 121.230053
DOCKED: USER    NEWDPF quat0 0.668937 -0.341049 -0.660461 121.230053
DOCKED: USER    NEWDPF dihe0 106.36 81.23 5.53 59.03 39.35 -159.50 156.91 -9.14 -0.88 98.23 83.46 -138.26 142.26 -166.08 130.18 61.85 -66.38 116.62 1.17 -48.63 -21.14 -41.31 3.60 -10.42 
DOCKED: USER  keepresnum = 1 
DOCKED: USER  
DOCKED: REMARK  24 active torsions:
DOCKED: REMARK  status: ('A' for Active; 'I' for Inactive)
DOCKED: REMARK    1  A    between atoms: C_1  and  O_7 
DOCKED: REMARK    2  A    between atoms: C_2  and  O_12 
DOCKED: REMARK    3  A    between atoms: C_3  and  O_17 
DOCKED: REMARK    4  A    between atoms: C_4  and  O_22 
DOCKED: REMARK    5  A    between atoms: C_5  and  O_27 
DOCKED: REMARK    6  A    between atoms: C_6  and  O_32 
DOCKED: REMARK    7  A    between atoms: O_7  and  P_8 
DOCKED: REMARK    8  A    between atoms: P_8  and  O_10 
DOCKED: REMARK    9  A    between atoms: P_8  and  O_11 
DOCKED: REMARK   10  A    between atoms: O_12  and  P_13 
DOCKED: REMARK   11  A    between atoms: P_13  and  O_15 
DOCKED: REMARK   12  A    between atoms: P_13  and  O_16 
DOCKED: REMARK   13  A    between atoms: O_17  and  P_18 
DOCKED: REMARK   14  A    between atoms: P_18  and  O_20 
DOCKED: REMARK   15  A    between atoms: P_18  and  O_21 
DOCKED: REMARK   16  A    between atoms: O_22  and  P_23 
DOCKED: REMARK   17  A    between atoms: P_23  and  O_25 
DOCKED: REMARK   18  A    between atoms: P_23  and  O_26 
DOCKED: REMARK   19  A    between atoms: O_27  and  P_28 
DOCKED: REMARK   20  A    between atoms: P_28  and  O_30 
DOCKED: REMARK   21  A    between atoms: P_28  and  O_31 
DOCKED: REMARK   22  A    between atoms: O_32  and  P_33 
DOCKED: REMARK   23  A    between atoms: P_33  and  O_35 
DOCKED: REMARK   24  A    between atoms: P_33  and  O_36 
DOCKED: USER                              x       y       z     vdW  Elec       q    Type
DOCKED: USER                           _______ _______ _______ _____ _____    ______ ____
DOCKED: ROOT
DOCKED: ATOM      1  C   UNL d   1      45.529  42.088  32.336 +0.00 +0.02    +0.194 C 
DOCKED: ATOM      2  C   UNL d   1      46.201  41.753  33.669 +0.00 +0.02    +0.194 C 
DOCKED: ATOM      3  C   UNL d   1      45.172  41.499  34.773 +0.00 +0.02    +0.194 C 
DOCKED: ATOM      4  C   UNL d   1      44.115  40.468  34.384 +0.00 +0.02    +0.194 C 
DOCKED: ATOM      5  C   UNL d   1      43.500  40.698  33.010 +0.00 +0.03    +0.194 C 
DOCKED: ATOM      6  C   UNL d   1      44.524  41.014  31.918 +0.00 +0.03    +0.194 C 
DOCKED: ENDROOT
DOCKED: BRANCH   1   7
DOCKED: ATOM      7  O   UNL d   1      46.541  42.141  31.327 +0.00 -0.03    -0.278 OA
DOCKED: BRANCH   7   8
DOCKED: ATOM      8  P   UNL d   1      46.725  43.499  30.506 +0.00 +0.05    +0.473 P 
DOCKED: ATOM      9  O   UNL d   1      47.555  43.385  29.276 +0.00 -0.02    -0.228 OA
DOCKED: BRANCH   8  10
DOCKED: ATOM     10  O   UNL d   1      45.232  43.979  30.214 +0.00 -0.04    -0.303 OA
DOCKED: ATOM     11  H   UNL d   1      44.725  43.247  29.816 +0.01 +0.04    +0.222 HD
DOCKED: ENDBRANCH   8  10
DOCKED: BRANCH   8  12
DOCKED: ATOM     12  O   UNL d   1      47.214  44.566  31.577 +0.00 -0.02    -0.303 OA
DOCKED: ATOM     13  H   UNL d   1      47.812  44.183  32.258 +0.00 +0.02    +0.222 HD
DOCKED: ENDBRANCH   8  12
DOCKED: ENDBRANCH   7   8
DOCKED: ENDBRANCH   1   7
DOCKED: BRANCH   2  14
DOCKED: ATOM     14  O   UNL d   1      46.998  40.574  33.507 +0.00 -0.03    -0.278 OA
DOCKED: BRANCH  14  15
DOCKED: ATOM     15  P   UNL d   1      48.464  40.779  32.896 +0.00 +0.04    +0.473 P 
DOCKED: ATOM     16  O   UNL d   1      48.698  40.251  31.516 +0.00 -0.02    -0.228 OA
DOCKED: BRANCH  15  17
DOCKED: ATOM     17  O   UNL d   1      48.714  42.349  33.007 +0.00 -0.02    -0.303 OA
DOCKED: ATOM     18  H   UNL d   1      48.411  42.811  32.202 +0.00 +0.02    +0.222 HD
DOCKED: ENDBRANCH  15  17
DOCKED: BRANCH  15  19
DOCKED: ATOM     19  O   UNL d   1      49.443  40.220  34.019 +0.00 -0.02    -0.303 OA
DOCKED: ATOM     20  H   UNL d   1      48.952  39.901  34.799 +0.00 +0.02    +0.222 HD
DOCKED: ENDBRANCH  15  19
DOCKED: ENDBRANCH  14  15
DOCKED: ENDBRANCH   2  14
DOCKED: BRANCH   6  21
DOCKED: ATOM     21  O   UNL d   1      43.796  41.532  30.807 -0.01 -0.07    -0.278 OA
DOCKED: BRANCH  21  22
DOCKED: ATOM     22  P   UNL d   1      43.925  40.832  29.379 -0.02 +0.25    +0.473 P 
DOCKED: ATOM     23  O   UNL d   1      42.856  41.086  28.370 -0.64 -0.31    -0.228 OA
DOCKED: BRANCH  22  24
DOCKED: ATOM     24  O   UNL d   1      45.386  41.275  28.930 -0.01 -0.07    -0.303 OA
DOCKED: ATOM     25  H   UNL d   1      45.599  42.133  29.378 +0.01 +0.04    +0.222 HD
DOCKED: ENDBRANCH  22  24
DOCKED: BRANCH  22  26
DOCKED: ATOM     26  O   UNL d   1      44.155  39.299  29.789 -0.06 -0.14    -0.303 OA
DOCKED: ATOM     27  H   UNL d   1      43.751  39.136  30.665 +0.02 +0.09    +0.222 HD
DOCKED: ENDBRANCH  22  26
DOCKED: ENDBRANCH  21  22
DOCKED: ENDBRANCH   6  21
DOCKED: BRANCH   3  28
DOCKED: ATOM     28  O   UNL d   1      45.863  40.932  35.879 +0.00 -0.02    -0.278 OA
DOCKED: BRANCH  28  29
DOCKED: ATOM     29  P   UNL d   1      46.884  41.812  36.727 +0.00 +0.03    +0.473 P 
DOCKED: ATOM     30  O   UNL d   1      46.506  43.238  36.905 +0.00 -0.01    -0.228 OA
DOCKED: BRANCH  29  31
DOCKED: ATOM     31  O   UNL d   1      46.991  40.919  38.050 +0.00 -0.02    -0.303 OA
DOCKED: ATOM     32  H   UNL d   1      47.195  41.509  38.812 +0.00 +0.01    +0.222 HD
DOCKED: ENDBRANCH  29  31
DOCKED: BRANCH  29  33
DOCKED: ATOM     33  O   UNL d   1      48.267  41.521  35.993 +0.00 -0.02    -0.303 OA
DOCKED: ATOM     34  H   UNL d   1      48.148  41.653  35.020 +0.00 +0.02    +0.222 HD
DOCKED: ENDBRANCH  29  33
DOCKED: ENDBRANCH  28  29
DOCKED: ENDBRANCH   3  28
DOCKED: BRANCH   5  35
DOCKED: ATOM     35  O   UNL d   1      42.874  39.467  32.655 -0.00 -0.06    -0.278 OA
DOCKED: BRANCH  35  36
DOCKED: ATOM     36  P   UNL d   1      41.399  39.460  32.048 -0.02 +0.13    +0.473 P 
DOCKED: ATOM     37  O   UNL d   1      40.571  40.668  32.352 -0.02 -0.05    -0.228 OA
DOCKED: BRANCH  36  38
DOCKED: ATOM     38  O   UNL d   1      41.685  39.236  30.498 -0.06 -0.19    -0.303 OA
DOCKED: ATOM     39  H   UNL d   1      42.084  40.050  30.124 +0.02 +0.17    +0.222 HD
DOCKED: ENDBRANCH  36  38
DOCKED: BRANCH  36  40
DOCKED: ATOM     40  O   UNL d   1      40.835  38.057  32.540 -0.02 -0.07    -0.303 OA
DOCKED: ATOM     41  H   UNL d   1      40.880  37.969  33.519 +0.01 +0.04    +0.222 HD
DOCKED: ENDBRANCH  36  40
DOCKED: ENDBRANCH  35  36
DOCKED: ENDBRANCH   5  35
DOCKED: BRANCH   4  42
DOCKED: ATOM     42  O   UNL d   1      43.058  40.577  35.343 +0.00 -0.03    -0.278 OA
DOCKED: BRANCH  42  43
DOCKED: ATOM     43  P   UNL d   1      42.660  39.294  36.203 +0.00 +0.04    +0.473 P 
DOCKED: ATOM     44  O   UNL d   1      41.865  39.517  37.442 +0.00 -0.02    -0.228 OA
DOCKED: BRANCH  43  45
DOCKED: ATOM     45  O   UNL d   1      41.945  38.362  35.129 -0.00 -0.03    -0.303 OA
DOCKED: ATOM     46  H   UNL d   1      42.067  38.704  34.221 +0.01 +0.03    +0.222 HD
DOCKED: ENDBRANCH  43  45
DOCKED: BRANCH  43  47
DOCKED: ATOM     47  O   UNL d   1      44.061  38.542  36.406 +0.00 -0.03    -0.303 OA
DOCKED: ATOM     48  H   UNL d   1      44.760  39.204  36.587 +0.00 +0.02    +0.222 HD
DOCKED: ENDBRANCH  43  47
DOCKED: ENDBRANCH  42  43
DOCKED: ENDBRANCH   4  42
DOCKED: TORSDOF 24
DOCKED: TER
DOCKED: ENDMDL
________________________________________________________________________________

DPF> analysis                             # perform a ranked cluster analysis


		CLUSTER ANALYSIS OF CONFORMATIONS
		_________________________________

Number of conformations = 100

RMSD cluster analysis will be performed using the ligand atoms only (48 / 48 total atoms).

Outputting structurally similar clusters, ranked in order of increasing energy.


________________________________________________________________________________

Number of distinct conformational clusters found = 96,  out of 100 runs,
Using an rmsd-tolerance of 2.0 A


	CLUSTERING HISTOGRAM
	____________________

________________________________________________________________________________
     |           |     |           |     |                                    
Clus | Lowest    | Run | Mean      | Num | Histogram                          
-ter | Binding   |     | Binding   | in  |                                    
Rank | Energy    |     | Energy    | Clus|    5    10   15   20   25   30   35
_____|___________|_____|___________|_____|____:____|____:____|____:____|____:___
   1 |     +1.74 |   9 |     +1.74 |   1 |#
   2 |     +1.89 |  29 |     +1.89 |   1 |#
   3 |     +1.90 |  16 |     +1.90 |   1 |#
   4 |     +2.16 |  79 |     +2.16 |   1 |#
   5 |     +2.17 |  83 |     +2.17 |   1 |#
   6 |     +2.37 |  68 |     +2.37 |   1 |#
   7 |     +2.52 |  11 |     +2.52 |   1 |#
   8 |     +2.63 |  95 |     +2.63 |   1 |#
   9 |     +2.74 |   3 |     +3.40 |   2 |##
  10 |     +2.96 |  59 |     +3.20 |   2 |##
  11 |     +2.99 |  61 |     +2.99 |   1 |#
  12 |     +3.21 |  78 |     +3.21 |   1 |#
  13 |     +3.27 |  52 |     +3.27 |   1 |#
  14 |     +3.29 |  42 |     +3.29 |   1 |#
  15 |     +3.30 |  20 |     +3.30 |   1 |#
  16 |     +3.32 |  34 |     +3.32 |   1 |#
  17 |     +3.33 |  44 |     +3.33 |   1 |#
  18 |     +3.37 |  21 |     +3.37 |   1 |#
  19 |     +3.39 |  14 |     +3.39 |   1 |#
  20 |     +3.51 |  87 |     +3.51 |   1 |#
  21 |     +3.53 |   6 |     +3.53 |   1 |#
  22 |     +3.54 |  85 |     +3.70 |   2 |##
  23 |     +3.57 |  73 |     +3.57 |   1 |#
  24 |     +3.58 |  94 |     +3.58 |   1 |#
  25 |     +3.65 |  72 |     +3.65 |   1 |#
  26 |     +3.66 |  57 |     +3.66 |   1 |#
  27 |     +3.68 |  55 |     +3.68 |   1 |#
  28 |     +3.70 |  91 |     +3.70 |   1 |#
  29 |     +3.81 |  93 |     +3.81 |   1 |#
  30 |     +3.82 |  24 |     +3.82 |   1 |#
  31 |     +3.82 |  43 |     +3.82 |   1 |#
  32 |     +3.84 |  81 |     +3.84 |   1 |#
  33 |     +3.86 |  86 |     +3.86 |   1 |#
  34 |     +3.87 |  98 |     +3.87 |   1 |#
  35 |     +3.88 |  33 |     +3.88 |   1 |#
  36 |     +3.92 |  97 |     +3.92 |   1 |#
  37 |     +3.97 |  32 |     +3.97 |   1 |#
  38 |     +3.98 |  56 |     +3.98 |   1 |#
  39 |     +4.02 |  13 |     +4.02 |   1 |#
  40 |     +4.08 |  47 |     +4.08 |   1 |#
  41 |     +4.09 |  25 |     +4.09 |   1 |#
  42 |     +4.11 |  31 |     +4.11 |   1 |#
  43 |     +4.19 |  62 |     +4.19 |   1 |#
  44 |     +4.22 |  40 |     +4.22 |   1 |#
  45 |     +4.25 |  15 |     +4.25 |   1 |#
  46 |     +4.29 |  82 |     +4.29 |   1 |#
  47 |     +4.29 |  89 |     +4.29 |   1 |#
  48 |     +4.30 |  64 |     +4.30 |   1 |#
  49 |     +4.32 |  71 |     +4.32 |   1 |#
  50 |     +4.33 |  35 |     +4.33 |   1 |#
  51 |     +4.36 |  28 |     +4.36 |   1 |#
  52 |     +4.40 |  23 |     +4.40 |   1 |#
  53 |     +4.46 |  45 |     +4.46 |   1 |#
  54 |     +4.46 |  69 |     +4.46 |   1 |#
  55 |     +4.46 |  88 |     +4.57 |   2 |##
  56 |     +4.50 |  92 |     +4.50 |   1 |#
  57 |     +4.57 |  46 |     +4.57 |   1 |#
  58 |     +4.63 |  80 |     +4.63 |   1 |#
  59 |     +4.63 |  84 |     +4.63 |   1 |#
  60 |     +4.67 |  48 |     +4.67 |   1 |#
  61 |     +4.68 |   5 |     +4.68 |   1 |#
  62 |     +4.70 |  10 |     +4.70 |   1 |#
  63 |     +4.76 |   8 |     +4.76 |   1 |#
  64 |     +4.76 |  67 |     +4.76 |   1 |#
  65 |     +4.77 |  41 |     +4.77 |   1 |#
  66 |     +4.78 |  22 |     +4.78 |   1 |#
  67 |     +4.84 |  77 |     +4.84 |   1 |#
  68 |     +4.87 |  58 |     +4.87 |   1 |#
  69 |     +4.88 |  18 |     +4.88 |   1 |#
  70 |     +4.94 |  49 |     +4.94 |   1 |#
  71 |     +4.95 |  30 |     +4.95 |   1 |#
  72 |     +4.96 |  37 |     +4.96 |   1 |#
  73 |     +4.96 |  63 |     +4.96 |   1 |#
  74 |     +4.96 |  66 |     +4.96 |   1 |#
  75 |     +5.03 |   2 |     +5.03 |   1 |#
  76 |     +5.06 |   7 |     +5.06 |   1 |#
  77 |     +5.09 |  17 |     +5.09 |   1 |#
  78 |     +5.15 |  60 |     +5.15 |   1 |#
  79 |     +5.24 |  38 |     +5.24 |   1 |#
  80 |     +5.32 |  76 |     +5.32 |   1 |#
  81 |     +5.36 |  96 |     +5.36 |   1 |#
  82 |     +5.38 |  27 |     +5.38 |   1 |#
  83 |     +5.43 |   4 |     +5.43 |   1 |#
  84 |     +5.46 |  51 |     +5.46 |   1 |#
  85 |     +5.49 |  65 |     +5.49 |   1 |#
  86 |     +5.53 |  39 |     +5.53 |   1 |#
  87 |     +5.61 |  19 |     +5.61 |   1 |#
  88 |     +5.66 |  12 |     +5.66 |   1 |#
  89 |     +5.71 |  90 |     +5.71 |   1 |#
  90 |     +5.91 |  74 |     +5.91 |   1 |#
  91 |     +6.13 |  36 |     +6.13 |   1 |#
  92 |     +6.19 |  99 |     +6.19 |   1 |#
  93 |     +6.24 | 100 |     +6.24 |   1 |#
  94 |     +6.38 |   1 |     +6.38 |   1 |#
  95 |     +6.75 |  70 |     +6.75 |   1 |#
  96 |     +6.98 |  50 |     +6.98 |   1 |#
_____|___________|_____|___________|_____|______________________________________


Number of multi-member conformational clusters found = 4, out of 100 runs.

	RMSD TABLE
	__________

_____________________________________________________________________
     |      |      |           |         |                 |
Rank | Sub- | Run  | Binding   | Cluster | Reference       | Grep
     | Rank |      | Energy    | RMSD    | RMSD            | Pattern
_____|______|______|___________|_________|_________________|___________
   1      1      9       +1.74      0.00     50.81           RANKING
   2      1     29       +1.89      0.00     48.12           RANKING
   3      1     16       +1.90      0.00     43.58           RANKING
   4      1     79       +2.16      0.00     40.94           RANKING
   5      1     83       +2.17      0.00     24.03           RANKING
   6      1     68       +2.37      0.00     30.24           RANKING
   7      1     11       +2.52      0.00     65.06           RANKING
   8      1     95       +2.63      0.00     58.12           RANKING
   9      1      3       +2.74      0.00     23.58           RANKING
   9      2     75       +4.06      2.00     24.02           RANKING
  10      1     59       +2.96      0.00     49.19           RANKING
  10      2     53       +3.43      1.70     49.99           RANKING
  11      1     61       +2.99      0.00     54.92           RANKING
  12      1     78       +3.21      0.00     43.64           RANKING
  13      1     52       +3.27      0.00     40.61           RANKING
  14      1     42       +3.29      0.00     48.28           RANKING
  15      1     20       +3.30      0.00     50.58           RANKING
  16      1     34       +3.32      0.00     52.07           RANKING
  17      1     44       +3.33      0.00     51.72           RANKING
  18      1     21       +3.37      0.00     41.48           RANKING
  19      1     14       +3.39      0.00     58.59           RANKING
  20      1     87       +3.51      0.00     58.34           RANKING
  21      1      6       +3.53      0.00     61.54           RANKING
  22      1     85       +3.54      0.00     25.64           RANKING
  22      2     26       +3.87      1.83     24.64           RANKING
  23      1     73       +3.57      0.00     36.05           RANKING
  24      1     94       +3.58      0.00     51.77           RANKING
  25      1     72       +3.65      0.00     17.09           RANKING
  26      1     57       +3.66      0.00     27.17           RANKING
  27      1     55       +3.68      0.00     21.70           RANKING
  28      1     91       +3.70      0.00     59.23           RANKING
  29      1     93       +3.81      0.00     31.44           RANKING
  30      1     24       +3.82      0.00     65.65           RANKING
  31      1     43       +3.82      0.00     22.34           RANKING
  32      1     81       +3.84      0.00     32.29           RANKING
  33      1     86       +3.86      0.00     49.58           RANKING
  34      1     98       +3.87      0.00     46.01           RANKING
  35      1     33       +3.88      0.00     26.93           RANKING
  36      1     97       +3.92      0.00     57.49           RANKING
  37      1     32       +3.97      0.00     31.54           RANKING
  38      1     56       +3.98      0.00     50.37           RANKING
  39      1     13       +4.02      0.00     51.01           RANKING
  40      1     47       +4.08      0.00     60.72           RANKING
  41      1     25       +4.09      0.00     50.63           RANKING
  42      1     31       +4.11      0.00     20.58           RANKING
  43      1     62       +4.19      0.00     56.36           RANKING
  44      1     40       +4.22      0.00     46.00           RANKING
  45      1     15       +4.25      0.00     58.29           RANKING
  46      1     82       +4.29      0.00     35.57           RANKING
  47      1     89       +4.29      0.00     62.90           RANKING
  48      1     64       +4.30      0.00     58.97           RANKING
  49      1     71       +4.32      0.00     50.04           RANKING
  50      1     35       +4.33      0.00     39.43           RANKING
  51      1     28       +4.36      0.00     10.82           RANKING
  52      1     23       +4.40      0.00     64.82           RANKING
  53      1     45       +4.46      0.00     65.09           RANKING
  54      1     69       +4.46      0.00     50.82           RANKING
  55      1     88       +4.46      0.00     34.89           RANKING
  55      2     54       +4.68      1.86     35.10           RANKING
  56      1     92       +4.50      0.00     62.97           RANKING
  57      1     46       +4.57      0.00     56.85           RANKING
  58      1     80       +4.63      0.00     59.22           RANKING
  59      1     84       +4.63      0.00     30.21           RANKING
  60      1     48       +4.67      0.00     48.77           RANKING
  61      1      5       +4.68      0.00     57.08           RANKING
  62      1     10       +4.70      0.00     20.14           RANKING
  63      1      8       +4.76      0.00     44.40           RANKING
  64      1     67       +4.76      0.00     56.92           RANKING
  65      1     41       +4.77      0.00     26.84           RANKING
  66      1     22       +4.78      0.00     49.49           RANKING
  67      1     77       +4.84      0.00     16.59           RANKING
  68      1     58       +4.87      0.00     57.12           RANKING
  69      1     18       +4.88      0.00     48.34           RANKING
  70      1     49       +4.94      0.00     58.48           RANKING
  71      1     30       +4.95      0.00     58.10           RANKING
  72      1     37       +4.96      0.00     49.28           RANKING
  73      1     63       +4.96      0.00     33.97           RANKING
  74      1     66       +4.96      0.00     67.42           RANKING
  75      1      2       +5.03      0.00     65.91           RANKING
  76      1      7       +5.06      0.00     53.45           RANKING
  77      1     17       +5.09      0.00     50.67           RANKING
  78      1     60       +5.15      0.00     64.41           RANKING
  79      1     38       +5.24      0.00     21.19           RANKING
  80      1     76       +5.32      0.00     63.51           RANKING
  81      1     96       +5.36      0.00     28.52           RANKING
  82      1     27       +5.38      0.00     36.63           RANKING
  83      1      4       +5.43      0.00     57.58           RANKING
  84      1     51       +5.46      0.00     57.82           RANKING
  85      1     65       +5.49      0.00     63.11           RANKING
  86      1     39       +5.53      0.00     55.56           RANKING
  87      1     19       +5.61      0.00     59.07           RANKING
  88      1     12       +5.66      0.00     61.53           RANKING
  89      1     90       +5.71      0.00     30.97           RANKING
  90      1     74       +5.91      0.00     54.80           RANKING
  91      1     36       +6.13      0.00     59.62           RANKING
  92      1     99       +6.19      0.00     67.94           RANKING
  93      1    100       +6.24      0.00     65.28           RANKING
  94      1      1       +6.38      0.00     38.86           RANKING
  95      1     70       +6.75      0.00     56.48           RANKING
  96      1     50       +6.98      0.00     23.55           RANKING
_______________________________________________________________________



	INFORMATION ENTROPY ANALYSIS FOR THIS CLUSTERING
	________________________________________________


Information entropy for this clustering = 0.99  (rmstol = 2.00 Angstrom)

_______________________________________________________________________


	STATISTICAL MECHANICAL ANALYSIS
	_______________________________


Partition function, Q =    99.28            at Temperature, T = 298.15 K
Free energy,        A ~ -2724.19 kcal/mol   at Temperature, T = 298.15 K
Internal energy,    U =     4.28 kcal/mol   at Temperature, T = 298.15 K
Entropy,            S =     9.15 kcal/mol/K at Temperature, T = 298.15 K

_______________________________________________________________________


	LOWEST ENERGY DOCKED CONFORMATION from EACH CLUSTER
	___________________________________________________



Keeping original residue number (specified in the input PDBQ file) for outputting.

MODEL        9
USER    Run = 9
USER    Cluster Rank = 1
USER    Number of conformations in this cluster = 1
USER  
USER    RMSD from reference structure       = 50.808 A
USER  
USER    Estimated Free Energy of Binding    =   +1.74 kcal/mol  [=(1)+(2)+(3)-(4)]
USER    
USER    (1) Final Intermolecular Energy     =   -5.42 kcal/mol
USER        vdW + Hbond + desolv Energy     =   -5.28 kcal/mol
USER        Electrostatic Energy            =   -0.15 kcal/mol
USER    (2) Final Total Internal Energy     =  -11.51 kcal/mol
USER    (3) Torsional Free Energy           =   +7.16 kcal/mol
USER    (4) Unbound System's Energy  [=(2)] =  -11.51 kcal/mol
USER    
USER    
USER  
USER    DPF = D:/Protein_go_brrr/autodock/final/2DN3/IHP/dock.dpf
USER    NEWDPF move	IHP_ideal_opt.pdbqt
USER    NEWDPF about	0.035000 0.082000 -0.065000
USER    NEWDPF tran0	23.134977 49.472750 1.015389
USER    NEWDPF axisangle0	-0.714433 -0.622458 0.319579 80.887902
USER    NEWDPF quaternion0	-0.463456 -0.403791 0.207312 0.761041
USER    NEWDPF dihe0	180.00 1.09 6.12 43.89 64.20 -172.37 -137.70 39.76 -7.88 111.74 -0.40 180.00 28.10 -153.47 125.94 69.62 -82.61 160.84 0.54 -59.08 -15.74 153.54 -179.91 -173.88 
USER  
USER                              x       y       z    vdW   Elec        q     RMS 
ATOM      1  C   UNL d   1      23.593  48.426  -0.280 -0.07 +0.03    +0.194    50.808
ATOM      2  C   UNL d   1      22.149  48.285   0.204 -0.08 +0.02    +0.194    50.808
ATOM      3  C   UNL d   1      22.059  48.307   1.732 -0.28 +0.01    +0.194    50.808
ATOM      4  C   UNL d   1      22.763  49.507   2.358 -0.15 +0.01    +0.194    50.808
ATOM      5  C   UNL d   1      24.167  49.754   1.820 -0.06 +0.02    +0.194    50.808
ATOM      6  C   UNL d   1      24.269  49.671   0.296 -0.05 +0.02    +0.194    50.808
ATOM      7  O   UNL d   1      23.575  48.570  -1.702 -0.08 -0.02    -0.278    50.808
ATOM      8  P   UNL d   1      24.383  47.510  -2.583 -0.05 +0.06    +0.473    50.808
ATOM      9  O   UNL d   1      23.694  46.209  -2.795 -0.18 -0.03    -0.228    50.808
ATOM     10  O   UNL d   1      24.687  48.289  -3.942 -0.02 -0.02    -0.303    50.808
ATOM     11  H   UNL d   1      24.643  49.250  -3.785 +0.02 +0.01    +0.222    50.808
ATOM     12  O   UNL d   1      25.823  47.432  -1.916 -0.06 -0.05    -0.303    50.808
ATOM     13  H   UNL d   1      26.190  48.315  -1.685 +0.03 +0.04    +0.222    50.808
ATOM     14  O   UNL d   1      21.374  49.373  -0.315 -0.34 +0.00    -0.278    50.808
ATOM     15  P   UNL d   1      21.038  49.331  -1.880 -0.10 -0.05    +0.473    50.808
ATOM     16  O   UNL d   1      21.918  50.143  -2.778 -0.05 +0.01    -0.228    50.808
ATOM     17  O   UNL d   1      21.055  47.779  -2.237 -0.22 +0.04    -0.303    50.808
ATOM     18  H   UNL d   1      21.948  47.489  -2.503 +0.07 -0.00    +0.222    50.808
ATOM     19  O   UNL d   1      19.484  49.661  -1.961 -0.03 +0.12    -0.303    50.808
ATOM     20  H   UNL d   1      19.050  49.565  -1.093 -0.31 -0.12    +0.222    50.808
ATOM     21  O   UNL d   1      25.656  49.578  -0.020 -0.02 -0.04    -0.278    50.808
ATOM     22  P   UNL d   1      26.348  50.721  -0.893 +0.00 +0.04    +0.473    50.808
ATOM     23  O   UNL d   1      27.822  50.911  -0.764 -0.00 -0.03    -0.228    50.808
ATOM     24  O   UNL d   1      25.847  50.359  -2.359 -0.00 -0.02    -0.303    50.808
ATOM     25  H   UNL d   1      25.296  49.537  -2.303 +0.02 +0.02    +0.222    50.808
ATOM     26  O   UNL d   1      25.441  51.995  -0.538 -0.00 -0.01    -0.303    50.808
ATOM     27  H   UNL d   1      24.887  51.788   0.242 +0.02 +0.01    +0.222    50.808
ATOM     28  O   UNL d   1      20.687  48.451   2.077 -0.41 -0.01    -0.278    50.808
ATOM     29  P   UNL d   1      20.086  49.891   2.397 -0.35 -0.05    +0.473    50.808
ATOM     30  O   UNL d   1      20.499  50.978   1.473 -0.31 +0.05    -0.228    50.808
ATOM     31  O   UNL d   1      18.526  49.536   2.450 -0.32 +0.09    -0.303    50.808
ATOM     32  H   UNL d   1      18.163  49.579   1.535 -0.31 -0.15    +0.222    50.808
ATOM     33  O   UNL d   1      20.457  50.074   3.935 -0.28 -0.00    -0.303    50.808
ATOM     34  H   UNL d   1      21.271  50.629   4.005 +0.11 +0.01    +0.222    50.808
ATOM     35  O   UNL d   1      24.494  51.092   2.191 -0.02 -0.02    -0.278    50.808
ATOM     36  P   UNL d   1      23.472  52.281   1.897 -0.03 -0.01    +0.473    50.808
ATOM     37  O   UNL d   1      22.734  52.191   0.599 -0.07 +0.02    -0.228    50.808
ATOM     38  O   UNL d   1      22.537  52.232   3.186 -0.14 +0.00    -0.303    50.808
ATOM     39  H   UNL d   1      21.898  51.493   3.092 +0.09 -0.00    +0.222    50.808
ATOM     40  O   UNL d   1      24.374  53.570   2.128 -0.01 -0.00    -0.303    50.808
ATOM     41  H   UNL d   1      25.049  53.673   1.420 +0.02 +0.00    +0.222    50.808
ATOM     42  O   UNL d   1      22.892  49.229   3.757 -0.16 -0.03    -0.278    50.808
ATOM     43  P   UNL d   1      23.992  48.178   4.236 -0.16 +0.17    +0.473    50.808
ATOM     44  O   UNL d   1      23.741  47.456   5.515 -0.27 -0.09    -0.228    50.808
ATOM     45  O   UNL d   1      24.140  47.226   2.969 -0.28 -0.15    -0.303    50.808
ATOM     46  H   UNL d   1      23.365  46.636   2.872 -0.35 +0.02    +0.222    50.808
ATOM     47  O   UNL d   1      25.355  49.019   4.172 -0.10 -0.11    -0.303    50.808
ATOM     48  H   UNL d   1      25.161  49.923   3.850 +0.08 +0.04    +0.222    50.808
TER
ENDMDL
MODEL       29
USER    Run = 29
USER    Cluster Rank = 2
USER    Number of conformations in this cluster = 1
USER  
USER    RMSD from reference structure       = 48.123 A
USER  
USER    Estimated Free Energy of Binding    =   +1.89 kcal/mol  [=(1)+(2)+(3)-(4)]
USER    
USER    (1) Final Intermolecular Energy     =   -5.27 kcal/mol
USER        vdW + Hbond + desolv Energy     =   -5.15 kcal/mol
USER        Electrostatic Energy            =   -0.12 kcal/mol
USER    (2) Final Total Internal Energy     =  -13.61 kcal/mol
USER    (3) Torsional Free Energy           =   +7.16 kcal/mol
USER    (4) Unbound System's Energy  [=(2)] =  -13.61 kcal/mol
USER    
USER    
USER  
USER    DPF = D:/Protein_go_brrr/autodock/final/2DN3/IHP/dock.dpf
USER    NEWDPF move	IHP_ideal_opt.pdbqt
USER    NEWDPF about	0.035000 0.082000 -0.065000
USER    NEWDPF tran0	18.058491 48.944254 -5.861677
USER    NEWDPF axisangle0	-0.831898 0.554523 0.021237 55.661765
USER    NEWDPF quaternion0	-0.388382 0.258886 0.009915 0.884329
USER    NEWDPF dihe0	147.81 7.05 33.61 32.91 9.71 -157.06 139.01 17.72 100.84 129.44 1.38 98.97 -33.17 -154.19 -13.06 52.67 67.33 -83.18 28.06 -51.78 -32.72 -53.40 32.49 -159.93 
USER  
USER                              x       y       z    vdW   Elec        q     RMS 
ATOM      1  C   UNL d   1      18.938  47.511  -5.466 -0.18 -0.02    +0.194    48.123
ATOM      2  C   UNL d   1      18.177  47.474  -6.792 -0.13 -0.02    +0.194    48.123
ATOM      3  C   UNL d   1      16.777  48.077  -6.659 -0.15 -0.02    +0.194    48.123
ATOM      4  C   UNL d   1      16.779  49.470  -6.033 -0.08 -0.03    +0.194    48.123
ATOM      5  C   UNL d   1      17.621  49.580  -4.768 -0.13 -0.04    +0.194    48.123
ATOM      6  C   UNL d   1      18.998  48.923  -4.882 -0.11 -0.03    +0.194    48.123
ATOM      7  O   UNL d   1      20.283  47.094  -5.712 -0.09 +0.01    -0.278    48.123
ATOM      8  P   UNL d   1      20.654  45.557  -5.488 -0.22 -0.01    +0.473    48.123
ATOM      9  O   UNL d   1      19.494  44.625  -5.460 -0.46 +0.00    -0.228    48.123
ATOM     10  O   UNL d   1      21.690  45.235  -6.659 -0.08 -0.02    -0.303    48.123
ATOM     11  H   UNL d   1      21.711  45.978  -7.290 +0.05 +0.01    +0.222    48.123
ATOM     12  O   UNL d   1      21.589  45.540  -4.204 -0.23 +0.02    -0.303    48.123
ATOM     13  H   UNL d   1      22.207  46.305  -4.166 +0.08 +0.00    +0.222    48.123
ATOM     14  O   UNL d   1      18.906  48.226  -7.770 -0.02 +0.01    -0.278    48.123
ATOM     15  P   UNL d   1      20.152  47.489  -8.457 +0.00 +0.00    +0.473    48.123
ATOM     16  O   UNL d   1      21.507  47.807  -7.907 -0.01 -0.01    -0.228    48.123
ATOM     17  O   UNL d   1      19.791  45.941  -8.353 -0.06 -0.01    -0.303    48.123
ATOM     18  H   UNL d   1      19.717  45.658  -7.421 +0.08 +0.01    +0.222    48.123
ATOM     19  O   UNL d   1      19.963  47.758 -10.013 -0.00 -0.00    -0.303    48.123
ATOM     20  H   UNL d   1      19.026  47.895 -10.244 +0.02 -0.00    +0.222    48.123
ATOM     21  O   UNL d   1      19.509  48.806  -3.556 -0.03 +0.10    -0.278    48.123
ATOM     22  P   UNL d   1      21.023  49.208  -3.253 -0.08 -0.05    +0.473    48.123
ATOM     23  O   UNL d   1      21.743  50.047  -4.253 -0.02 +0.01    -0.228    48.123
ATOM     24  O   UNL d   1      20.904  49.852  -1.802 -0.14 +0.04    -0.303    48.123
ATOM     25  H   UNL d   1      20.246  50.591  -1.846 +0.07 -0.04    +0.222    48.123
ATOM     26  O   UNL d   1      21.679  47.781  -2.929 -0.17 +0.01    -0.303    48.123
ATOM     27  H   UNL d   1      21.195  47.086  -3.419 +0.07 -0.02    +0.222    48.123
ATOM     28  O   UNL d   1      16.260  48.254  -7.972 -0.08 +0.03    -0.278    48.123
ATOM     29  P   UNL d   1      16.142  47.014  -8.964 -0.04 -0.08    +0.473    48.123
ATOM     30  O   UNL d   1      15.991  45.686  -8.315 -0.28 +0.06    -0.228    48.123
ATOM     31  O   UNL d   1      14.936  47.511  -9.890 -0.06 +0.07    -0.303    48.123
ATOM     32  H   UNL d   1      14.640  46.758 -10.452 +0.04 -0.09    +0.222    48.123
ATOM     33  O   UNL d   1      17.412  47.215  -9.903 -0.03 +0.02    -0.303    48.123
ATOM     34  H   UNL d   1      18.222  46.928  -9.414 +0.05 -0.01    +0.222    48.123
ATOM     35  O   UNL d   1      17.837  50.976  -4.568 -0.06 +0.04    -0.278    48.123
ATOM     36  P   UNL d   1      18.325  51.519  -3.150 -0.15 -0.09    +0.473    48.123
ATOM     37  O   UNL d   1      19.714  52.072  -3.115 -0.09 +0.03    -0.228    48.123
ATOM     38  O   UNL d   1      17.190  52.579  -2.799 -0.22 +0.05    -0.303    48.123
ATOM     39  H   UNL d   1      16.342  52.287  -3.199 +0.08 -0.04    +0.222    48.123
ATOM     40  O   UNL d   1      18.012  50.291  -2.190 -0.23 +0.14    -0.303    48.123
ATOM     41  H   UNL d   1      18.761  49.655  -2.155 -0.46 -0.14    +0.222    48.123
ATOM     42  O   UNL d   1      15.426  49.760  -5.665 -0.09 +0.04    -0.278    48.123
ATOM     43  P   UNL d   1      14.910  49.329  -4.219 -0.22 -0.11    +0.473    48.123
ATOM     44  O   UNL d   1      15.401  48.033  -3.673 -0.22 +0.06    -0.228    48.123
ATOM     45  O   UNL d   1      15.281  50.593  -3.325 -0.37 +0.06    -0.303    48.123
ATOM     46  H   UNL d   1      16.246  50.660  -3.182 +0.09 -0.05    +0.222    48.123
ATOM     47  O   UNL d   1      13.318  49.471  -4.340 -0.33 +0.11    -0.303    48.123
ATOM     48  H   UNL d   1      13.067  50.408  -4.206 -0.44 -0.12    +0.222    48.123
TER
ENDMDL
MODEL       16
USER    Run = 16
USER    Cluster Rank = 3
USER    Number of conformations in this cluster = 1
USER  
USER    RMSD from reference structure       = 43.579 A
USER  
USER    Estimated Free Energy of Binding    =   +1.90 kcal/mol  [=(1)+(2)+(3)-(4)]
USER    
USER    (1) Final Intermolecular Energy     =   -5.26 kcal/mol
USER        vdW + Hbond + desolv Energy     =   -5.33 kcal/mol
USER        Electrostatic Energy            =   +0.07 kcal/mol
USER    (2) Final Total Internal Energy     =  -13.07 kcal/mol
USER    (3) Torsional Free Energy           =   +7.16 kcal/mol
USER    (4) Unbound System's Energy  [=(2)] =  -13.07 kcal/mol
USER    
USER    
USER  
USER    DPF = D:/Protein_go_brrr/autodock/final/2DN3/IHP/dock.dpf
USER    NEWDPF move	IHP_ideal_opt.pdbqt
USER    NEWDPF about	0.035000 0.082000 -0.065000
USER    NEWDPF tran0	41.503652 24.512337 0.099686
USER    NEWDPF axisangle0	0.858456 0.430793 -0.278335 -132.484819
USER    NEWDPF quaternion0	0.785709 0.394287 -0.254748 -0.402868
USER    NEWDPF dihe0	112.16 100.52 45.28 -54.23 -0.74 -127.06 -49.07 76.00 -16.50 80.79 25.32 -164.05 175.47 -180.00 -24.78 180.00 -89.49 129.76 12.33 -31.93 166.88 -28.23 7.33 -22.74 
USER  
USER                              x       y       z    vdW   Elec        q     RMS 
ATOM      1  C   UNL d   1      41.407  24.695  -1.615 -0.10 +0.03    +0.194    43.579
ATOM      2  C   UNL d   1      40.076  24.779  -0.865 -0.12 +0.02    +0.194    43.579
ATOM      3  C   UNL d   1      39.967  23.703   0.217 -0.13 +0.01    +0.194    43.579
ATOM      4  C   UNL d   1      41.163  23.680   1.165 -0.20 +0.03    +0.194    43.579
ATOM      5  C   UNL d   1      42.514  23.712   0.461 -0.17 +0.05    +0.194    43.579
ATOM      6  C   UNL d   1      42.602  24.747  -0.663 -0.16 +0.04    +0.194    43.579
ATOM      7  O   UNL d   1      41.503  25.829  -2.481 -0.06 -0.03    -0.278    43.579
ATOM      8  P   UNL d   1      41.402  25.591  -4.057 -0.01 +0.04    +0.473    43.579
ATOM      9  O   UNL d   1      42.443  26.280  -4.867 -0.02 -0.02    -0.228    43.579
ATOM     10  O   UNL d   1      41.435  24.004  -4.212 -0.01 -0.03    -0.303    43.579
ATOM     11  H   UNL d   1      42.143  23.635  -3.651 +0.02 +0.02    +0.222    43.579
ATOM     12  O   UNL d   1      39.895  25.930  -4.431 -0.00 -0.02    -0.303    43.579
ATOM     13  H   UNL d   1      39.621  26.831  -4.147 +0.01 +0.02    +0.222    43.579
ATOM     14  O   UNL d   1      39.971  26.065  -0.242 -0.19 -0.03    -0.278    43.579
ATOM     15  P   UNL d   1      39.082  27.159  -1.003 -0.10 +0.04    +0.473    43.579
ATOM     16  O   UNL d   1      39.748  28.460  -1.326 -0.12 -0.02    -0.228    43.579
ATOM     17  O   UNL d   1      38.555  26.396  -2.298 -0.02 -0.02    -0.303    43.579
ATOM     18  H   UNL d   1      39.289  25.964  -2.775 +0.03 +0.02    +0.222    43.579
ATOM     19  O   UNL d   1      37.755  27.266  -0.133 -0.03 -0.03    -0.303    43.579
ATOM     20  H   UNL d   1      36.976  26.945  -0.623 +0.06 +0.01    +0.222    43.579
ATOM     21  O   UNL d   1      43.761  24.425  -1.429 -0.18 -0.06    -0.278    43.579
ATOM     22  P   UNL d   1      43.824  23.046  -2.229 -0.07 +0.08    +0.473    43.579
ATOM     23  O   UNL d   1      42.607  22.185  -2.246 -0.02 -0.03    -0.228    43.579
ATOM     24  O   UNL d   1      44.324  23.524  -3.662 -0.06 -0.04    -0.303    43.579
ATOM     25  H   UNL d   1      43.608  24.075  -4.070 +0.02 +0.03    +0.222    43.579
ATOM     26  O   UNL d   1      45.150  22.379  -1.622 -0.10 -0.05    -0.303    43.579
ATOM     27  H   UNL d   1      45.045  22.279  -0.654 +0.03 +0.06    +0.222    43.579
ATOM     28  O   UNL d   1      38.847  24.026   1.031 -0.15 +0.01    -0.278    43.579
ATOM     29  P   UNL d   1      37.376  23.618   0.574 -0.08 -0.10    +0.473    43.579
ATOM     30  O   UNL d   1      36.391  23.439   1.672 -0.18 +0.19    -0.228    43.579
ATOM     31  O   UNL d   1      37.080  24.780  -0.485 -0.08 +0.02    -0.303    43.579
ATOM     32  H   UNL d   1      37.882  25.347  -0.561 +0.06 +0.00    +0.222    43.579
ATOM     33  O   UNL d   1      37.654  22.356  -0.356 -0.02 +0.03    -0.303    43.579
ATOM     34  H   UNL d   1      37.007  21.643  -0.131 +0.03 -0.04    +0.222    43.579
ATOM     35  O   UNL d   1      43.461  24.092   1.457 -0.20 -0.13    -0.278    43.579
ATOM     36  P   UNL d   1      44.877  23.364   1.540 -0.25 +0.37    +0.473    43.579
ATOM     37  O   UNL d   1      44.843  21.873   1.430 -0.33 -0.20    -0.228    43.579
ATOM     38  O   UNL d   1      45.685  24.088   0.374 -0.31 -0.13    -0.303    43.579
ATOM     39  H   UNL d   1      45.510  23.625  -0.473 -0.24 +0.04    +0.222    43.579
ATOM     40  O   UNL d   1      45.497  23.976   2.871 -0.99 -0.37    -0.303    43.579
ATOM     41  H   UNL d   1      44.818  24.080   3.574 +0.10 +0.24    +0.222    43.579
ATOM     42  O   UNL d   1      41.095  22.447   1.889 -0.09 -0.04    -0.278    43.579
ATOM     43  P   UNL d   1      41.309  22.468   3.469 -0.22 +0.07    +0.473    43.579
ATOM     44  O   UNL d   1      41.130  21.184   4.204 -0.22 -0.03    -0.228    43.579
ATOM     45  O   UNL d   1      42.760  23.104   3.616 -0.32 -0.14    -0.303    43.579
ATOM     46  H   UNL d   1      43.401  22.679   3.012 +0.11 +0.15    +0.222    43.579
ATOM     47  O   UNL d   1      40.373  23.676   3.950 -0.37 +0.02    -0.303    43.579
ATOM     48  H   UNL d   1      39.757  23.915   3.227 +0.12 -0.02    +0.222    43.579
TER
ENDMDL
MODEL       79
USER    Run = 79
USER    Cluster Rank = 4
USER    Number of conformations in this cluster = 1
USER  
USER    RMSD from reference structure       = 40.939 A
USER  
USER    Estimated Free Energy of Binding    =   +2.16 kcal/mol  [=(1)+(2)+(3)-(4)]
USER    
USER    (1) Final Intermolecular Energy     =   -5.00 kcal/mol
USER        vdW + Hbond + desolv Energy     =   -4.59 kcal/mol
USER        Electrostatic Energy            =   -0.41 kcal/mol
USER    (2) Final Total Internal Energy     =  -14.18 kcal/mol
USER    (3) Torsional Free Energy           =   +7.16 kcal/mol
USER    (4) Unbound System's Energy  [=(2)] =  -14.18 kcal/mol
USER    
USER    
USER  
USER    DPF = D:/Protein_go_brrr/autodock/final/2DN3/IHP/dock.dpf
USER    NEWDPF move	IHP_ideal_opt.pdbqt
USER    NEWDPF about	0.035000 0.082000 -0.065000
USER    NEWDPF tran0	36.411360 13.882697 22.219277
USER    NEWDPF axisangle0	0.516593 -0.848610 -0.113987 83.110802
USER    NEWDPF quaternion0	0.342679 -0.562920 -0.075613 0.748315
USER    NEWDPF dihe0	86.18 108.34 36.38 96.75 -39.48 155.86 14.84 163.80 125.35 4.12 -9.31 -151.90 -40.94 -90.80 -139.21 -80.11 56.37 -167.83 -167.58 7.03 -26.07 30.08 -13.14 -29.69 
USER  
USER                              x       y       z    vdW   Elec        q     RMS 
ATOM      1  C   UNL d   1      37.924  13.345  21.582 -0.11 -0.01    +0.194    40.939
ATOM      2  C   UNL d   1      37.591  12.858  22.994 -0.08 -0.02    +0.194    40.939
ATOM      3  C   UNL d   1      37.001  13.978  23.854 -0.12 -0.04    +0.194    40.939
ATOM      4  C   UNL d   1      35.821  14.685  23.194 -0.14 -0.03    +0.194    40.939
ATOM      5  C   UNL d   1      36.069  15.087  21.745 -0.22 -0.02    +0.194    40.939
ATOM      6  C   UNL d   1      36.716  13.987  20.900 -0.15 +0.00    +0.194    40.939
ATOM      7  O   UNL d   1      38.304  12.211  20.798 -0.08 -0.01    -0.278    40.939
ATOM      8  P   UNL d   1      37.178  11.148  20.407 -0.01 +0.03    +0.473    40.939
ATOM      9  O   UNL d   1      35.781  11.573  20.694 -0.01 -0.02    -0.228    40.939
ATOM     10  O   UNL d   1      37.440  10.858  18.860 -0.01 -0.03    -0.303    40.939
ATOM     11  H   UNL d   1      37.176  11.634  18.333 +0.03 +0.02    +0.222    40.939
ATOM     12  O   UNL d   1      37.642   9.787  21.084 -0.00 -0.02    -0.303    40.939
ATOM     13  H   UNL d   1      37.672   9.836  22.066 +0.01 +0.01    +0.222    40.939
ATOM     14  O   UNL d   1      36.633  11.796  22.908 -0.01 +0.00    -0.278    40.939
ATOM     15  P   UNL d   1      36.859  10.548  23.885 +0.00 +0.00    +0.473    40.939
ATOM     16  O   UNL d   1      38.278  10.158  24.161 -0.00 -0.00    -0.228    40.939
ATOM     17  O   UNL d   1      36.059  10.939  25.205 +0.00 +0.01    -0.303    40.939
ATOM     18  H   UNL d   1      36.400  11.769  25.590 +0.01 -0.02    +0.222    40.939
ATOM     19  O   UNL d   1      35.938   9.400  23.281 -0.00 -0.01    -0.303    40.939
ATOM     20  H   UNL d   1      35.930   9.419  22.307 +0.00 +0.01    +0.222    40.939
ATOM     21  O   UNL d   1      37.190  14.609  19.708 -0.15 -0.03    -0.278    40.939
ATOM     22  P   UNL d   1      36.793  14.002  18.287 -0.12 +0.07    +0.473    40.939
ATOM     23  O   UNL d   1      37.854  13.321  17.490 -0.13 -0.03    -0.228    40.939
ATOM     24  O   UNL d   1      35.547  13.085  18.661 -0.04 -0.04    -0.303    40.939
ATOM     25  H   UNL d   1      35.842  12.139  18.634 +0.03 +0.03    +0.222    40.939
ATOM     26  O   UNL d   1      36.082  15.256  17.585 -0.27 -0.05    -0.303    40.939
ATOM     27  H   UNL d   1      35.827  15.907  18.270 +0.08 +0.02    +0.222    40.939
ATOM     28  O   UNL d   1      36.472  13.380  25.031 -0.03 +0.04    -0.278    40.939
ATOM     29  P   UNL d   1      36.636  14.100  26.443 -0.06 -0.14    +0.473    40.939
ATOM     30  O   UNL d   1      37.634  13.491  27.360 -0.03 +0.04    -0.228    40.939
ATOM     31  O   UNL d   1      36.913  15.600  25.960 -0.22 +0.13    -0.303    40.939
ATOM     32  H   UNL d   1      36.099  15.946  25.526 +0.04 -0.11    +0.222    40.939
ATOM     33  O   UNL d   1      35.132  14.168  26.959 -0.07 +0.17    -0.303    40.939
ATOM     34  H   UNL d   1      34.969  15.059  27.356 -0.31 -0.29    +0.222    40.939
ATOM     35  O   UNL d   1      34.781  15.342  21.188 -0.10 -0.02    -0.278    40.939
ATOM     36  P   UNL d   1      34.409  16.798  20.655 -0.23 +0.06    +0.473    40.939
ATOM     37  O   UNL d   1      34.486  16.982  19.173 -0.35 -0.04    -0.228    40.939
ATOM     38  O   UNL d   1      32.953  17.006  21.266 -0.23 -0.13    -0.303    40.939
ATOM     39  H   UNL d   1      32.991  16.878  22.238 +0.11 +0.06    +0.222    40.939
ATOM     40  O   UNL d   1      35.335  17.734  21.548 -0.34 +0.06    -0.303    40.939
ATOM     41  H   UNL d   1      35.409  17.400  22.470 -0.10 -0.07    +0.222    40.939
ATOM     42  O   UNL d   1      35.594  15.891  23.932 -0.20 +0.09    -0.278    40.939
ATOM     43  P   UNL d   1      34.094  16.358  24.204 -0.19 -0.09    +0.473    40.939
ATOM     44  O   UNL d   1      33.695  17.707  23.715 -0.50 -0.04    -0.228    40.939
ATOM     45  O   UNL d   1      33.239  15.164  23.591 -0.05 -0.00    -0.303    40.939
ATOM     46  H   UNL d   1      33.135  15.259  22.623 +0.07 +0.03    +0.222    40.939
ATOM     47  O   UNL d   1      33.914  16.112  25.778 -0.16 +0.24    -0.303    40.939
ATOM     48  H   UNL d   1      34.787  16.177  26.217 -0.15 -0.25    +0.222    40.939
TER
ENDMDL
MODEL       83
USER    Run = 83
USER    Cluster Rank = 5
USER    Number of conformations in this cluster = 1
USER  
USER    RMSD from reference structure       = 24.032 A
USER  
USER    Estimated Free Energy of Binding    =   +2.17 kcal/mol  [=(1)+(2)+(3)-(4)]
USER    
USER    (1) Final Intermolecular Energy     =   -4.99 kcal/mol
USER        vdW + Hbond + desolv Energy     =   -4.25 kcal/mol
USER        Electrostatic Energy            =   -0.74 kcal/mol
USER    (2) Final Total Internal Energy     =  -13.61 kcal/mol
USER    (3) Torsional Free Energy           =   +7.16 kcal/mol
USER    (4) Unbound System's Energy  [=(2)] =  -13.61 kcal/mol
USER    
USER    
USER  
USER    DPF = D:/Protein_go_brrr/autodock/final/2DN3/IHP/dock.dpf
USER    NEWDPF move	IHP_ideal_opt.pdbqt
USER    NEWDPF about	0.035000 0.082000 -0.065000
USER    NEWDPF tran0	0.805355 27.651819 2.986149
USER    NEWDPF axisangle0	-0.103153 0.512467 -0.852488 -95.113523
USER    NEWDPF quaternion0	-0.076121 0.378173 -0.629091 -0.674859
USER    NEWDPF dihe0	107.07 9.53 157.97 6.37 56.68 87.51 -136.50 20.67 50.98 -39.30 6.17 179.07 -146.53 83.62 -150.89 167.28 119.88 -172.82 23.50 -40.33 -46.40 31.79 157.90 -23.03 
USER  
USER                              x       y       z    vdW   Elec        q     RMS 
ATOM      1  C   UNL d   1       0.485  26.046   3.536 -0.06 -0.18    +0.194    24.032
ATOM      2  C   UNL d   1      -0.278  27.157   4.259 -0.03 -0.16    +0.194    24.032
ATOM      3  C   UNL d   1       0.622  28.355   4.568 -0.07 -0.15    +0.194    24.032
ATOM      4  C   UNL d   1       1.374  28.873   3.345 -0.13 -0.08    +0.194    24.032
ATOM      5  C   UNL d   1       2.056  27.783   2.528 -0.20 -0.09    +0.194    24.032
ATOM      6  C   UNL d   1       1.175  26.559   2.271 -0.15 -0.10    +0.194    24.032
ATOM      7  O   UNL d   1      -0.456  25.048   3.133 -0.05 +0.15    -0.278    24.032
ATOM      8  P   UNL d   1      -0.608  23.739   4.037 -0.05 -0.28    +0.473    24.032
ATOM      9  O   UNL d   1       0.206  22.573   3.601 -0.13 +0.10    -0.228    24.032
ATOM     10  O   UNL d   1      -0.249  24.241   5.508 -0.09 +0.41    -0.303    24.032
ATOM     11  H   UNL d   1       0.599  24.722   5.491 -0.39 -0.57    +0.222    24.032
ATOM     12  O   UNL d   1      -2.174  23.491   4.143 -0.01 +0.10    -0.303    24.032
ATOM     13  H   UNL d   1      -2.695  24.325   4.184 +0.02 -0.06    +0.222    24.032
ATOM     14  O   UNL d   1      -1.358  27.600   3.428 -0.02 +0.09    -0.278    24.032
ATOM     15  P   UNL d   1      -2.766  26.863   3.629 +0.01 -0.11    +0.473    24.032
ATOM     16  O   UNL d   1      -3.987  27.728   3.599 +0.00 +0.03    -0.228    24.032
ATOM     17  O   UNL d   1      -2.779  25.737   2.502 +0.00 +0.05    -0.303    24.032
ATOM     18  H   UNL d   1      -2.053  25.097   2.636 +0.02 -0.06    +0.222    24.032
ATOM     19  O   UNL d   1      -2.573  25.994   4.947 -0.01 +0.12    -0.303    24.032
ATOM     20  H   UNL d   1      -1.788  25.420   4.889 +0.03 -0.13    +0.222    24.032
ATOM     21  O   UNL d   1       2.038  25.519   1.815 -0.05 +0.17    -0.278    24.032
ATOM     22  P   UNL d   1       1.488  24.427   0.790 -0.17 -0.17    +0.473    24.032
ATOM     23  O   UNL d   1       1.521  22.994   1.203 -0.24 +0.09    -0.228    24.032
ATOM     24  O   UNL d   1       0.037  24.992   0.459 -0.07 +0.06    -0.303    24.032
ATOM     25  H   UNL d   1      -0.152  25.740   1.082 +0.06 -0.05    +0.222    24.032
ATOM     26  O   UNL d   1       2.299  24.793  -0.543 -0.59 +0.05    -0.303    24.032
ATOM     27  H   UNL d   1       1.811  25.485  -1.036 -0.41 -0.09    +0.222    24.032
ATOM     28  O   UNL d   1      -0.217  29.427   4.978 -0.05 +0.10    -0.278    24.032
ATOM     29  P   UNL d   1       0.248  30.415   6.138 -0.09 -0.12    +0.473    24.032
ATOM     30  O   UNL d   1      -0.099  31.845   5.939 -0.08 +0.01    -0.228    24.032
ATOM     31  O   UNL d   1      -0.396  29.680   7.405 -0.09 +0.10    -0.303    24.032
ATOM     32  H   UNL d   1      -1.333  29.972   7.494 +0.04 -0.05    +0.222    24.032
ATOM     33  O   UNL d   1       1.795  30.062   6.276 -0.23 +0.13    -0.303    24.032
ATOM     34  H   UNL d   1       2.294  30.520   5.556 +0.10 -0.06    +0.222    24.032
ATOM     35  O   UNL d   1       2.338  28.370   1.259 -0.17 +0.06    -0.278    24.032
ATOM     36  P   UNL d   1       1.155  28.680   0.235 -0.09 -0.04    +0.473    24.032
ATOM     37  O   UNL d   1       1.499  29.611  -0.885 -0.15 +0.00    -0.228    24.032
ATOM     38  O   UNL d   1       0.739  27.217  -0.235 +0.04 +0.01    -0.303    24.032
ATOM     39  H   UNL d   1       1.472  26.595  -0.036 -0.10 -0.05    +0.222    24.032
ATOM     40  O   UNL d   1      -0.026  29.122   1.204 -0.02 +0.03    -0.303    24.032
ATOM     41  H   UNL d   1      -0.485  28.346   1.596 +0.03 -0.03    +0.222    24.032
ATOM     42  O   UNL d   1       2.403  29.743   3.828 -0.18 +0.08    -0.278    24.032
ATOM     43  P   UNL d   1       2.616  31.155   3.118 -0.14 -0.03    +0.473    24.032
ATOM     44  O   UNL d   1       3.990  31.486   2.647 -0.21 +0.00    -0.228    24.032
ATOM     45  O   UNL d   1       1.520  31.134   1.964 -0.06 +0.00    -0.303    24.032
ATOM     46  H   UNL d   1       1.725  30.458   1.288 +0.06 -0.01    +0.222    24.032
ATOM     47  O   UNL d   1       1.974  32.190   4.160 -0.18 +0.01    -0.303    24.032
ATOM     48  H   UNL d   1       1.602  31.695   4.919 +0.09 -0.02    +0.222    24.032
TER
ENDMDL
MODEL       68
USER    Run = 68
USER    Cluster Rank = 6
USER    Number of conformations in this cluster = 1
USER  
USER    RMSD from reference structure       = 30.243 A
USER  
USER    Estimated Free Energy of Binding    =   +2.37 kcal/mol  [=(1)+(2)+(3)-(4)]
USER    
USER    (1) Final Intermolecular Energy     =   -4.79 kcal/mol
USER        vdW + Hbond + desolv Energy     =   -4.49 kcal/mol
USER        Electrostatic Energy            =   -0.30 kcal/mol
USER    (2) Final Total Internal Energy     =  -13.98 kcal/mol
USER    (3) Torsional Free Energy           =   +7.16 kcal/mol
USER    (4) Unbound System's Energy  [=(2)] =  -13.98 kcal/mol
USER    
USER    
USER  
USER    DPF = D:/Protein_go_brrr/autodock/final/2DN3/IHP/dock.dpf
USER    NEWDPF move	IHP_ideal_opt.pdbqt
USER    NEWDPF about	0.035000 0.082000 -0.065000
USER    NEWDPF tran0	20.044551 25.458835 -10.585304
USER    NEWDPF axisangle0	-0.502978 -0.310278 0.806685 -124.792063
USER    NEWDPF quaternion0	-0.445725 -0.274959 0.714861 -0.463357
USER    NEWDPF dihe0	67.72 142.27 179.28 93.26 156.20 77.97 -80.24 -24.35 82.90 81.51 172.20 150.54 -18.04 99.29 -140.39 8.69 108.70 39.48 44.08 -9.75 3.39 -16.34 -10.75 -4.20 
USER  
USER                              x       y       z    vdW   Elec        q     RMS 
ATOM      1  C   UNL d   1      19.492  26.984  -9.992 -0.15 -0.05    +0.194    30.243
ATOM      2  C   UNL d   1      20.373  26.181  -9.033 -0.19 -0.06    +0.194    30.243
ATOM      3  C   UNL d   1      19.993  24.699  -9.020 -0.15 -0.05    +0.194    30.243
ATOM      4  C   UNL d   1      19.942  24.079 -10.414 -0.13 -0.04    +0.194    30.243
ATOM      5  C   UNL d   1      19.169  24.906 -11.433 -0.10 -0.04    +0.194    30.243
ATOM      6  C   UNL d   1      19.506  26.398 -11.404 -0.09 -0.04    +0.194    30.243
ATOM      7  O   UNL d   1      20.019  28.311 -10.076 -0.12 +0.09    -0.278    30.243
ATOM      8  P   UNL d   1      19.704  29.329  -8.886 -0.26 -0.26    +0.473    30.243
ATOM      9  O   UNL d   1      19.609  28.711  -7.535 -0.22 +0.16    -0.228    30.243
ATOM     10  O   UNL d   1      20.861  30.422  -8.996 -0.15 +0.22    -0.303    30.243
ATOM     11  H   UNL d   1      21.623  30.148  -8.451 -0.49 -0.31    +0.222    30.243
ATOM     12  O   UNL d   1      18.429  30.145  -9.367 -0.34 +0.13    -0.303    30.243
ATOM     13  H   UNL d   1      17.585  29.790  -9.007 -0.35 -0.16    +0.222    30.243
ATOM     14  O   UNL d   1      21.741  26.298  -9.446 -0.05 +0.08    -0.278    30.243
ATOM     15  P   UNL d   1      22.765  26.899  -8.372 -0.05 -0.25    +0.473    30.243
ATOM     16  O   UNL d   1      24.202  26.509  -8.522 -0.02 +0.08    -0.228    30.243
ATOM     17  O   UNL d   1      22.540  28.474  -8.461 -0.03 +0.32    -0.303    30.243
ATOM     18  H   UNL d   1      21.780  28.752  -7.915 -0.31 -0.40    +0.222    30.243
ATOM     19  O   UNL d   1      22.106  26.562  -6.964 -0.15 +0.20    -0.303    30.243
ATOM     20  H   UNL d   1      21.623  25.715  -6.985 +0.08 -0.09    +0.222    30.243
ATOM     21  O   UNL d   1      18.485  27.065 -12.143 -0.07 +0.05    -0.278    30.243
ATOM     22  P   UNL d   1      18.750  27.482 -13.660 -0.00 -0.05    +0.473    30.243
ATOM     23  O   UNL d   1      18.889  28.933 -13.978 -0.03 +0.02    -0.228    30.243
ATOM     24  O   UNL d   1      20.019  26.594 -14.025 -0.00 +0.03    -0.303    30.243
ATOM     25  H   UNL d   1      19.697  25.730 -14.386 +0.01 -0.02    +0.222    30.243
ATOM     26  O   UNL d   1      17.573  26.705 -14.422 -0.01 +0.04    -0.303    30.243
ATOM     27  H   UNL d   1      17.917  25.855 -14.765 +0.02 -0.02    +0.222    30.243
ATOM     28  O   UNL d   1      21.021  23.999  -8.332 -0.11 +0.07    -0.278    30.243
ATOM     29  P   UNL d   1      20.885  23.696  -6.774 -0.15 -0.12    +0.473    30.243
ATOM     30  O   UNL d   1      19.874  24.508  -6.050 -0.18 +0.05    -0.228    30.243
ATOM     31  O   UNL d   1      20.652  22.113  -6.817 -0.17 +0.11    -0.303    30.243
ATOM     32  H   UNL d   1      20.214  21.884  -7.669 -0.23 -0.13    +0.222    30.243
ATOM     33  O   UNL d   1      22.393  23.815  -6.278 -0.04 +0.07    -0.303    30.243
ATOM     34  H   UNL d   1      22.849  24.521  -6.800 +0.05 -0.06    +0.222    30.243
ATOM     35  O   UNL d   1      19.564  24.412 -12.712 -0.02 +0.04    -0.278    30.243
ATOM     36  P   UNL d   1      18.480  23.791 -13.704 +0.00 -0.07    +0.473    30.243
ATOM     37  O   UNL d   1      18.811  23.884 -15.160 -0.00 +0.02    -0.228    30.243
ATOM     38  O   UNL d   1      18.350  22.302 -13.156 -0.01 +0.06    -0.303    30.243
ATOM     39  H   UNL d   1      18.786  22.244 -12.278 +0.03 -0.05    +0.222    30.243
ATOM     40  O   UNL d   1      17.137  24.495 -13.223 -0.02 +0.06    -0.303    30.243
ATOM     41  H   UNL d   1      17.282  25.440 -12.997 +0.05 -0.04    +0.222    30.243
ATOM     42  O   UNL d   1      19.263  22.826 -10.286 -0.15 +0.10    -0.278    30.243
ATOM     43  P   UNL d   1      20.065  21.480 -10.586 -0.05 -0.17    +0.473    30.243
ATOM     44  O   UNL d   1      20.862  20.892  -9.473 -0.08 +0.09    -0.228    30.243
ATOM     45  O   UNL d   1      18.931  20.517 -11.153 -0.07 +0.14    -0.303    30.243
ATOM     46  H   UNL d   1      18.946  20.484 -12.130 +0.03 -0.07    +0.222    30.243
ATOM     47  O   UNL d   1      20.888  21.832 -11.915 -0.01 +0.06    -0.303    30.243
ATOM     48  H   UNL d   1      20.380  22.481 -12.446 +0.02 -0.04    +0.222    30.243
TER
ENDMDL
MODEL       11
USER    Run = 11
USER    Cluster Rank = 7
USER    Number of conformations in this cluster = 1
USER  
USER    RMSD from reference structure       = 65.058 A
USER  
USER    Estimated Free Energy of Binding    =   +2.52 kcal/mol  [=(1)+(2)+(3)-(4)]
USER    
USER    (1) Final Intermolecular Energy     =   -4.64 kcal/mol
USER        vdW + Hbond + desolv Energy     =   -4.40 kcal/mol
USER        Electrostatic Energy            =   -0.23 kcal/mol
USER    (2) Final Total Internal Energy     =  -13.86 kcal/mol
USER    (3) Torsional Free Energy           =   +7.16 kcal/mol
USER    (4) Unbound System's Energy  [=(2)] =  -13.86 kcal/mol
USER    
USER    
USER  
USER    DPF = D:/Protein_go_brrr/autodock/final/2DN3/IHP/dock.dpf
USER    NEWDPF move	IHP_ideal_opt.pdbqt
USER    NEWDPF about	0.035000 0.082000 -0.065000
USER    NEWDPF tran0	40.671908 53.282986 15.169535
USER    NEWDPF axisangle0	0.422937 0.549873 0.720252 -132.691979
USER    NEWDPF quaternion0	0.387404 0.503676 0.659740 -0.401213
USER    NEWDPF dihe0	180.00 0.04 154.75 3.61 113.72 135.96 -123.62 -14.11 105.71 -28.62 -8.51 -165.74 -141.99 72.19 -136.36 -160.85 -145.76 -51.81 29.47 -27.31 -2.16 -31.08 -10.11 -174.88 
USER  
USER                              x       y       z    vdW   Elec        q     RMS 
ATOM      1  C   UNL d   1      41.046  54.867  14.590 -0.04 +0.04    +0.194    65.058
ATOM      2  C   UNL d   1      41.292  53.726  13.601 -0.08 +0.05    +0.194    65.058
ATOM      3  C   UNL d   1      41.959  52.525  14.275 -0.16 +0.05    +0.194    65.058
ATOM      4  C   UNL d   1      41.225  52.055  15.529 -0.21 +0.11    +0.194    65.058
ATOM      5  C   UNL d   1      40.858  53.177  16.491 -0.11 +0.08    +0.194    65.058
ATOM      6  C   UNL d   1      40.247  54.403  15.808 -0.07 +0.07    +0.194    65.058
ATOM      7  O   UNL d   1      40.272  55.870  13.929 -0.01 -0.05    -0.278    65.058
ATOM      8  P   UNL d   1      41.041  57.072  13.210 +0.01 +0.04    +0.473    65.058
ATOM      9  O   UNL d   1      41.288  58.264  14.066 -0.00 -0.02    -0.228    65.058
ATOM     10  O   UNL d   1      42.381  56.402  12.664 +0.00 -0.01    -0.303    65.058
ATOM     11  H   UNL d   1      42.253  55.439  12.576 +0.02 +0.00    +0.222    65.058
ATOM     12  O   UNL d   1      40.231  57.337  11.869 +0.00 -0.02    -0.303    65.058
ATOM     13  H   UNL d   1      40.001  56.511  11.388 +0.03 +0.01    +0.222    65.058
ATOM     14  O   UNL d   1      40.036  53.303  13.055 -0.12 -0.14    -0.278    65.058
ATOM     15  P   UNL d   1      39.713  53.770  11.557 -0.11 +0.06    +0.473    65.058
ATOM     16  O   UNL d   1      39.317  52.700  10.590 -0.27 -0.01    -0.228    65.058
ATOM     17  O   UNL d   1      38.592  54.888  11.734 -0.08 -0.08    -0.303    65.058
ATOM     18  H   UNL d   1      38.913  55.624  12.290 +0.05 +0.04    +0.222    65.058
ATOM     19  O   UNL d   1      40.972  54.646  11.135 -0.06 +0.06    -0.303    65.058
ATOM     20  H   UNL d   1      41.127  55.380  11.758 +0.03 -0.00    +0.222    65.058
ATOM     21  O   UNL d   1      40.281  55.464  16.760 -0.02 -0.06    -0.278    65.058
ATOM     22  P   UNL d   1      38.939  55.908  17.499 -0.02 +0.09    +0.473    65.058
ATOM     23  O   UNL d   1      38.301  57.193  17.090 -0.01 -0.03    -0.228    65.058
ATOM     24  O   UNL d   1      38.024  54.620  17.314 -0.07 -0.10    -0.303    65.058
ATOM     25  H   UNL d   1      38.560  53.823  17.560 +0.04 +0.09    +0.222    65.058
ATOM     26  O   UNL d   1      39.364  55.794  19.041 -0.01 -0.04    -0.303    65.058
ATOM     27  H   UNL d   1      39.939  55.011  19.159 +0.01 +0.04    +0.222    65.058
ATOM     28  O   UNL d   1      41.894  51.433  13.368 -0.25 -0.08    -0.278    65.058
ATOM     29  P   UNL d   1      42.929  51.325  12.162 -0.24 -0.03    +0.473    65.058
ATOM     30  O   UNL d   1      42.868  50.067  11.375 -0.92 -0.04    -0.228    65.058
ATOM     31  O   UNL d   1      42.597  52.685  11.386 -0.13 +0.13    -0.303    65.058
ATOM     32  H   UNL d   1      41.721  52.589  10.946 -0.25 -0.21    +0.222    65.058
ATOM     33  O   UNL d   1      44.311  51.659  12.879 -0.13 +0.03    -0.303    65.058
ATOM     34  H   UNL d   1      44.360  51.160  13.731 -0.22 -0.05    +0.222    65.058
ATOM     35  O   UNL d   1      39.860  52.636  17.354 -0.08 -0.15    -0.278    65.058
ATOM     36  P   UNL d   1      40.105  52.575  18.929 -0.05 +0.13    +0.473    65.058
ATOM     37  O   UNL d   1      40.502  51.238  19.468 -0.07 -0.06    -0.228    65.058
ATOM     38  O   UNL d   1      41.198  53.715  19.133 -0.01 -0.05    -0.303    65.058
ATOM     39  H   UNL d   1      41.016  54.450  18.509 +0.02 +0.04    +0.222    65.058
ATOM     40  O   UNL d   1      38.769  53.218  19.506 -0.05 -0.07    -0.303    65.058
ATOM     41  H   UNL d   1      38.722  54.183  19.324 +0.03 +0.05    +0.222    65.058
ATOM     42  O   UNL d   1      42.116  51.177  16.226 -0.16 -0.07    -0.278    65.058
ATOM     43  P   UNL d   1      43.356  51.802  17.011 -0.07 +0.04    +0.473    65.058
ATOM     44  O   UNL d   1      43.600  53.263  16.859 -0.03 -0.02    -0.228    65.058
ATOM     45  O   UNL d   1      43.090  51.338  18.509 -0.07 -0.04    -0.303    65.058
ATOM     46  H   UNL d   1      42.447  51.923  18.956 +0.04 +0.03    +0.222    65.058
ATOM     47  O   UNL d   1      44.574  50.850  16.586 -0.06 +0.03    -0.303    65.058
ATOM     48  H   UNL d   1      44.302  50.297  15.825 -0.44 -0.12    +0.222    65.058
TER
ENDMDL
MODEL       95
USER    Run = 95
USER    Cluster Rank = 8
USER    Number of conformations in this cluster = 1
USER  
USER    RMSD from reference structure       = 58.123 A
USER  
USER    Estimated Free Energy of Binding    =   +2.63 kcal/mol  [=(1)+(2)+(3)-(4)]
USER    
USER    (1) Final Intermolecular Energy     =   -4.53 kcal/mol
USER        vdW + Hbond + desolv Energy     =   -4.37 kcal/mol
USER        Electrostatic Energy            =   -0.16 kcal/mol
USER    (2) Final Total Internal Energy     =  -11.70 kcal/mol
USER    (3) Torsional Free Energy           =   +7.16 kcal/mol
USER    (4) Unbound System's Energy  [=(2)] =  -11.70 kcal/mol
USER    
USER    
USER  
USER    DPF = D:/Protein_go_brrr/autodock/final/2DN3/IHP/dock.dpf
USER    NEWDPF move	IHP_ideal_opt.pdbqt
USER    NEWDPF about	0.035000 0.082000 -0.065000
USER    NEWDPF tran0	41.800972 45.862092 2.012832
USER    NEWDPF axisangle0	0.399194 -0.216531 0.890931 129.229810
USER    NEWDPF quaternion0	0.360650 -0.195625 0.804909 0.428700
USER    NEWDPF dihe0	-5.76 24.72 121.66 154.69 141.63 78.01 -138.28 -41.01 -20.72 22.26 32.06 -73.69 148.79 75.50 176.61 -147.47 170.19 -52.82 52.38 16.28 8.07 1.54 172.87 179.10 
USER  
USER                              x       y       z    vdW   Elec        q     RMS 
ATOM      1  C   UNL d   1      41.439  45.310   3.609 -0.16 +0.03    +0.194    58.123
ATOM      2  C   UNL d   1      41.186  46.796   3.351 -0.12 +0.02    +0.194    58.123
ATOM      3  C   UNL d   1      42.323  47.434   2.550 -0.07 +0.01    +0.194    58.123
ATOM      4  C   UNL d   1      42.656  46.673   1.268 -0.03 +0.02    +0.194    58.123
ATOM      5  C   UNL d   1      42.804  45.169   1.459 -0.06 +0.02    +0.194    58.123
ATOM      6  C   UNL d   1      41.699  44.542   2.312 -0.09 +0.04    +0.194    58.123
ATOM      7  O   UNL d   1      40.264  44.754   4.205 -0.12 -0.06    -0.278    58.123
ATOM      8  P   UNL d   1      39.900  45.175   5.702 -0.23 +0.06    +0.473    58.123
ATOM      9  O   UNL d   1      38.986  44.243   6.415 -0.37 -0.05    -0.228    58.123
ATOM     10  O   UNL d   1      41.319  45.331   6.415 -0.80 -0.02    -0.303    58.123
ATOM     11  H   UNL d   1      41.200  45.331   7.383 -0.21 -0.03    +0.222    58.123
ATOM     12  O   UNL d   1      39.412  46.684   5.600 -0.24 -0.03    -0.303    58.123
ATOM     13  H   UNL d   1      39.720  47.134   4.782 +0.12 +0.04    +0.222    58.123
ATOM     14  O   UNL d   1      39.968  46.941   2.609 -0.07 -0.08    -0.278    58.123
ATOM     15  P   UNL d   1      39.112  48.264   2.891 -0.13 +0.18    +0.473    58.123
ATOM     16  O   UNL d   1      38.656  49.037   1.693 -0.15 -0.09    -0.228    58.123
ATOM     17  O   UNL d   1      37.902  47.758   3.795 -0.83 -0.21    -0.303    58.123
ATOM     18  H   UNL d   1      38.146  46.952   4.290 +0.11 +0.13    +0.222    58.123
ATOM     19  O   UNL d   1      39.979  49.081   3.945 -0.17 -0.06    -0.303    58.123
ATOM     20  H   UNL d   1      40.547  49.742   3.509 +0.07 +0.03    +0.222    58.123
ATOM     21  O   UNL d   1      42.151  43.241   2.680 -0.10 -0.06    -0.278    58.123
ATOM     22  P   UNL d   1      41.733  41.978   1.799 -0.05 +0.10    +0.473    58.123
ATOM     23  O   UNL d   1      41.670  40.645   2.463 -0.20 -0.05    -0.228    58.123
ATOM     24  O   UNL d   1      40.363  42.470   1.157 -0.03 -0.08    -0.303    58.123
ATOM     25  H   UNL d   1      40.574  43.115   0.435 +0.04 +0.05    +0.222    58.123
ATOM     26  O   UNL d   1      42.742  42.099   0.559 -0.05 -0.05    -0.303    58.123
ATOM     27  H   UNL d   1      42.292  42.559  -0.179 +0.02 +0.04    +0.222    58.123
ATOM     28  O   UNL d   1      41.881  48.716   2.124 -0.03 -0.02    -0.278    58.123
ATOM     29  P   UNL d   1      42.549  50.035   2.715 -0.04 -0.01    +0.473    58.123
ATOM     30  O   UNL d   1      41.907  51.313   2.315 -0.03 -0.01    -0.228    58.123
ATOM     31  O   UNL d   1      42.543  49.676   4.275 -0.16 +0.08    -0.303    58.123
ATOM     32  H   UNL d   1      41.675  49.947   4.655 -0.06 -0.07    +0.222    58.123
ATOM     33  O   UNL d   1      44.079  49.842   2.317 -0.03 +0.02    -0.303    58.123
ATOM     34  H   UNL d   1      44.140  49.164   1.600 +0.03 -0.01    +0.222    58.123
ATOM     35  O   UNL d   1      42.700  44.602   0.155 -0.02 -0.04    -0.278    58.123
ATOM     36  P   UNL d   1      41.413  44.880  -0.744 -0.01 +0.09    +0.473    58.123
ATOM     37  O   UNL d   1      40.983  43.748  -1.622 -0.01 -0.04    -0.228    58.123
ATOM     38  O   UNL d   1      40.336  45.304   0.350 -0.03 -0.09    -0.303    58.123
ATOM     39  H   UNL d   1      39.855  44.505   0.654 +0.04 +0.08    +0.222    58.123
ATOM     40  O   UNL d   1      41.788  46.248  -1.462 -0.01 -0.04    -0.303    58.123
ATOM     41  H   UNL d   1      42.505  46.724  -0.986 +0.01 +0.03    +0.222    58.123
ATOM     42  O   UNL d   1      43.919  47.166   0.810 -0.01 -0.01    -0.278    58.123
ATOM     43  P   UNL d   1      45.227  46.850   1.667 -0.01 -0.02    +0.473    58.123
ATOM     44  O   UNL d   1      45.038  46.192   2.990 -0.13 +0.03    -0.228    58.123
ATOM     45  O   UNL d   1      46.120  46.016   0.647 -0.01 +0.00    -0.303    58.123
ATOM     46  H   UNL d   1      45.580  45.381   0.135 +0.02 +0.01    +0.222    58.123
ATOM     47  O   UNL d   1      45.994  48.257   1.697 -0.01 +0.03    -0.303    58.123
ATOM     48  H   UNL d   1      45.891  48.662   2.583 +0.04 -0.04    +0.222    58.123
TER
ENDMDL
MODEL        3
USER    Run = 3
USER    Cluster Rank = 9
USER    Number of conformations in this cluster = 2
USER  
USER    RMSD from reference structure       = 23.581 A
USER  
USER    Estimated Free Energy of Binding    =   +2.74 kcal/mol  [=(1)+(2)+(3)-(4)]
USER    
USER    (1) Final Intermolecular Energy     =   -4.42 kcal/mol
USER        vdW + Hbond + desolv Energy     =   -4.26 kcal/mol
USER        Electrostatic Energy            =   -0.16 kcal/mol
USER    (2) Final Total Internal Energy     =  -16.03 kcal/mol
USER    (3) Torsional Free Energy           =   +7.16 kcal/mol
USER    (4) Unbound System's Energy  [=(2)] =  -16.03 kcal/mol
USER    
USER    
USER  
USER    DPF = D:/Protein_go_brrr/autodock/final/2DN3/IHP/dock.dpf
USER    NEWDPF move	IHP_ideal_opt.pdbqt
USER    NEWDPF about	0.035000 0.082000 -0.065000
USER    NEWDPF tran0	2.369656 20.396795 17.167862
USER    NEWDPF axisangle0	-0.673293 0.650331 -0.351775 68.851330
USER    NEWDPF quaternion0	-0.380637 0.367656 -0.198871 0.824860
USER    NEWDPF dihe0	-164.18 -33.37 74.81 90.72 114.30 79.80 -25.89 -90.63 0.62 68.79 125.91 124.81 51.49 -84.72 175.50 -65.86 -61.24 -155.67 -146.03 -16.66 16.63 1.89 -180.00 9.49 
USER  
USER                              x       y       z    vdW   Elec        q     RMS 
ATOM      1  C   UNL d   1       3.365  19.284  18.038 -0.04 +0.01    +0.194    23.581
ATOM      2  C   UNL d   1       3.210  19.002  16.542 -0.08 -0.01    +0.194    23.581
ATOM      3  C   UNL d   1       1.762  19.182  16.079 -0.07 -0.02    +0.194    23.581
ATOM      4  C   UNL d   1       1.166  20.530  16.477 -0.08 -0.02    +0.194    23.581
ATOM      5  C   UNL d   1       1.398  20.904  17.935 -0.03 -0.01    +0.194    23.581
ATOM      6  C   UNL d   1       2.831  20.667  18.416 -0.04 -0.00    +0.194    23.581
ATOM      7  O   UNL d   1       4.759  19.265  18.353 -0.06 -0.03    -0.278    23.581
ATOM      8  P   UNL d   1       5.571  20.639  18.286 -0.11 +0.03    +0.473    23.581
ATOM      9  O   UNL d   1       5.865  21.263  19.605 -0.16 -0.00    -0.228    23.581
ATOM     10  O   UNL d   1       6.885  20.271  17.458 -0.24 -0.06    -0.303    23.581
ATOM     11  H   UNL d   1       6.657  19.646  16.745 +0.11 +0.05    +0.222    23.581
ATOM     12  O   UNL d   1       4.770  21.543  17.254 -0.16 +0.02    -0.303    23.581
ATOM     13  H   UNL d   1       4.948  21.307  16.316 -0.02 -0.04    +0.222    23.581
ATOM     14  O   UNL d   1       4.040  19.910  15.807 -0.18 +0.03    -0.278    23.581
ATOM     15  P   UNL d   1       5.250  19.264  14.981 -0.28 -0.03    +0.473    23.581
ATOM     16  O   UNL d   1       5.832  17.996  15.523 -0.25 -0.02    -0.228    23.581
ATOM     17  O   UNL d   1       4.668  19.096  13.508 -0.57 +0.04    -0.303    23.581
ATOM     18  H   UNL d   1       3.691  19.092  13.514 -0.25 -0.10    +0.222    23.581
ATOM     19  O   UNL d   1       6.279  20.461  14.783 -0.13 +0.04    -0.303    23.581
ATOM     20  H   UNL d   1       6.246  21.091  15.527 -0.32 -0.07    +0.222    23.581
ATOM     21  O   UNL d   1       2.804  20.730  19.840 -0.02 -0.00    -0.278    23.581
ATOM     22  P   UNL d   1       2.932  22.141  20.573 -0.04 -0.01    +0.473    23.581
ATOM     23  O   UNL d   1       3.474  22.167  21.962 -0.08 +0.01    -0.228    23.581
ATOM     24  O   UNL d   1       3.769  22.983  19.513 -0.10 +0.01    -0.303    23.581
ATOM     25  H   UNL d   1       3.351  22.860  18.623 +0.06 -0.00    +0.222    23.581
ATOM     26  O   UNL d   1       1.457  22.741  20.383 -0.01 +0.00    -0.303    23.581
ATOM     27  H   UNL d   1       1.441  23.307  19.584 +0.02 -0.00    +0.222    23.581
ATOM     28  O   UNL d   1       1.764  19.175  14.657 -0.04 +0.08    -0.278    23.581
ATOM     29  P   UNL d   1       1.084  17.977  13.858 -0.04 -0.08    +0.473    23.581
ATOM     30  O   UNL d   1       1.985  16.851  13.503 -0.06 +0.03    -0.228    23.581
ATOM     31  O   UNL d   1      -0.140  17.649  14.835 -0.01 +0.02    -0.303    23.581
ATOM     32  H   UNL d   1      -0.361  18.461  15.345 +0.02 -0.02    +0.222    23.581
ATOM     33  O   UNL d   1       0.377  18.739  12.652 -0.14 +0.07    -0.303    23.581
ATOM     34  H   UNL d   1       0.101  19.638  12.957 -0.03 -0.07    +0.222    23.581
ATOM     35  O   UNL d   1       1.155  22.307  18.018 -0.02 +0.01    -0.278    23.581
ATOM     36  P   UNL d   1       1.841  23.305  16.980 -0.07 -0.03    +0.473    23.581
ATOM     37  O   UNL d   1       3.004  22.749  16.223 -0.18 +0.02    -0.228    23.581
ATOM     38  O   UNL d   1       0.605  23.725  16.066 -0.07 +0.02    -0.303    23.581
ATOM     39  H   UNL d   1       0.327  22.953  15.528 +0.04 -0.02    +0.222    23.581
ATOM     40  O   UNL d   1       2.110  24.593  17.874 -0.04 +0.01    -0.303    23.581
ATOM     41  H   UNL d   1       2.219  24.361  18.823 +0.05 -0.00    +0.222    23.581
ATOM     42  O   UNL d   1      -0.249  20.429  16.288 -0.02 +0.02    -0.278    23.581
ATOM     43  P   UNL d   1      -0.902  21.083  14.988 -0.04 -0.05    +0.473    23.581
ATOM     44  O   UNL d   1      -1.749  22.293  15.179 -0.03 +0.02    -0.228    23.581
ATOM     45  O   UNL d   1       0.357  21.311  14.042 -0.14 +0.08    -0.303    23.581
ATOM     46  H   UNL d   1       0.875  20.489  13.931 -0.35 -0.10    +0.222    23.581
ATOM     47  O   UNL d   1      -1.623  19.840  14.276 -0.02 +0.03    -0.303    23.581
ATOM     48  H   UNL d   1      -0.963  19.134  14.114 +0.03 -0.03    +0.222    23.581
TER
ENDMDL
MODEL       59
USER    Run = 59
USER    Cluster Rank = 10
USER    Number of conformations in this cluster = 2
USER  
USER    RMSD from reference structure       = 49.186 A
USER  
USER    Estimated Free Energy of Binding    =   +2.96 kcal/mol  [=(1)+(2)+(3)-(4)]
USER    
USER    (1) Final Intermolecular Energy     =   -4.20 kcal/mol
USER        vdW + Hbond + desolv Energy     =   -4.13 kcal/mol
USER        Electrostatic Energy            =   -0.07 kcal/mol
USER    (2) Final Total Internal Energy     =  -15.70 kcal/mol
USER    (3) Torsional Free Energy           =   +7.16 kcal/mol
USER    (4) Unbound System's Energy  [=(2)] =  -15.70 kcal/mol
USER    
USER    
USER  
USER    DPF = D:/Protein_go_brrr/autodock/final/2DN3/IHP/dock.dpf
USER    NEWDPF move	IHP_ideal_opt.pdbqt
USER    NEWDPF about	0.035000 0.082000 -0.065000
USER    NEWDPF tran0	13.330148 50.728540 -7.234391
USER    NEWDPF axisangle0	0.233525 0.652301 -0.721090 150.322658
USER    NEWDPF quaternion0	0.225737 0.630547 -0.697042 0.256098
USER    NEWDPF dihe0	40.93 73.72 141.62 -22.37 62.74 144.17 -103.13 -93.59 3.84 94.95 101.38 138.49 -25.64 168.83 131.40 30.08 -64.67 -148.52 -167.15 22.43 -8.73 9.31 178.01 6.15 
USER  
USER                              x       y       z    vdW   Elec        q     RMS 
ATOM      1  C   UNL d   1      11.929  50.994  -6.259 -0.20 -0.04    +0.194    49.186
ATOM      2  C   UNL d   1      13.180  50.534  -5.508 -0.22 -0.05    +0.194    49.186
ATOM      3  C   UNL d   1      13.907  49.412  -6.252 -0.22 -0.03    +0.194    49.186
ATOM      4  C   UNL d   1      14.202  49.751  -7.711 -0.13 -0.02    +0.194    49.186
ATOM      5  C   UNL d   1      13.011  50.322  -8.469 -0.12 -0.02    +0.194    49.186
ATOM      6  C   UNL d   1      12.246  51.401  -7.699 -0.11 -0.02    +0.194    49.186
ATOM      7  O   UNL d   1      11.409  52.148  -5.595 -0.15 +0.03    -0.278    49.186
ATOM      8  P   UNL d   1      12.231  53.515  -5.692 -0.07 -0.06    +0.473    49.186
ATOM      9  O   UNL d   1      13.093  53.648  -6.898 -0.03 +0.02    -0.228    49.186
ATOM     10  O   UNL d   1      11.111  54.647  -5.592 -0.06 +0.02    -0.303    49.186
ATOM     11  H   UNL d   1      11.094  55.163  -6.420 +0.03 -0.01    +0.222    49.186
ATOM     12  O   UNL d   1      12.969  53.653  -4.292 -0.18 +0.08    -0.303    49.186
ATOM     13  H   UNL d   1      13.164  52.785  -3.872 -0.11 -0.09    +0.222    49.186
ATOM     14  O   UNL d   1      14.075  51.644  -5.368 -0.12 +0.06    -0.278    49.186
ATOM     15  P   UNL d   1      15.086  51.596  -4.127 -0.17 -0.10    +0.473    49.186
ATOM     16  O   UNL d   1      15.247  52.860  -3.341 -0.52 +0.06    -0.228    49.186
ATOM     17  O   UNL d   1      14.556  50.383  -3.242 -0.33 +0.07    -0.303    49.186
ATOM     18  H   UNL d   1      14.359  49.603  -3.796 +0.09 -0.06    +0.222    49.186
ATOM     19  O   UNL d   1      16.426  50.989  -4.731 -0.07 +0.05    -0.303    49.186
ATOM     20  H   UNL d   1      16.392  50.016  -4.780 +0.09 -0.04    +0.222    49.186
ATOM     21  O   UNL d   1      11.000  51.579  -8.367 -0.07 +0.02    -0.278    49.186
ATOM     22  P   UNL d   1      10.710  52.937  -9.154 +0.00 -0.01    +0.473    49.186
ATOM     23  O   UNL d   1       9.617  52.944 -10.169 -0.01 -0.00    -0.228    49.186
ATOM     24  O   UNL d   1      10.518  53.971  -7.959 -0.01 +0.00    -0.303    49.186
ATOM     25  H   UNL d   1      10.577  53.470  -7.106 +0.04 -0.00    +0.222    49.186
ATOM     26  O   UNL d   1      12.171  53.320  -9.692 -0.00 +0.01    -0.303    49.186
ATOM     27  H   UNL d   1      12.843  52.980  -9.066 +0.02 -0.01    +0.222    49.186
ATOM     28  O   UNL d   1      15.179  49.246  -5.638 -0.13 +0.05    -0.278    49.186
ATOM     29  P   UNL d   1      15.581  47.850  -4.985 -0.26 -0.10    +0.473    49.186
ATOM     30  O   UNL d   1      14.591  46.756  -5.153 -0.47 +0.08    -0.228    49.186
ATOM     31  O   UNL d   1      17.021  47.636  -5.648 -0.18 +0.05    -0.303    49.186
ATOM     32  H   UNL d   1      16.937  47.745  -6.624 +0.09 -0.03    +0.222    49.186
ATOM     33  O   UNL d   1      15.940  48.272  -3.492 -0.28 +0.09    -0.303    49.186
ATOM     34  H   UNL d   1      16.355  49.169  -3.503 -0.04 -0.08    +0.222    49.186
ATOM     35  O   UNL d   1      13.553  50.942  -9.633 -0.03 +0.02    -0.278    49.186
ATOM     36  P   UNL d   1      14.750  51.988  -9.504 +0.00 -0.02    +0.473    49.186
ATOM     37  O   UNL d   1      14.922  52.608  -8.153 -0.01 +0.01    -0.228    49.186
ATOM     38  O   UNL d   1      15.995  51.121  -9.989 -0.00 +0.01    -0.303    49.186
ATOM     39  H   UNL d   1      16.155  50.400  -9.343 +0.02 -0.01    +0.222    49.186
ATOM     40  O   UNL d   1      14.473  52.974 -10.720 -0.00 +0.01    -0.303    49.186
ATOM     41  H   UNL d   1      13.556  53.327 -10.701 +0.00 -0.01    +0.222    49.186
ATOM     42  O   UNL d   1      14.564  48.525  -8.356 -0.12 +0.03    -0.278    49.186
ATOM     43  P   UNL d   1      16.098  48.259  -8.703 -0.05 -0.05    +0.473    49.186
ATOM     44  O   UNL d   1      16.524  48.443 -10.118 -0.04 +0.02    -0.228    49.186
ATOM     45  O   UNL d   1      16.857  49.198  -7.666 -0.02 +0.03    -0.303    49.186
ATOM     46  H   UNL d   1      16.333  49.330  -6.851 +0.07 -0.02    +0.222    49.186
ATOM     47  O   UNL d   1      16.366  46.805  -8.082 -0.16 +0.05    -0.303    49.186
ATOM     48  H   UNL d   1      15.942  46.747  -7.201 +0.10 -0.04    +0.222    49.186
TER
ENDMDL
MODEL       61
USER    Run = 61
USER    Cluster Rank = 11
USER    Number of conformations in this cluster = 1
USER  
USER    RMSD from reference structure       = 54.915 A
USER  
USER    Estimated Free Energy of Binding    =   +2.99 kcal/mol  [=(1)+(2)+(3)-(4)]
USER    
USER    (1) Final Intermolecular Energy     =   -4.17 kcal/mol
USER        vdW + Hbond + desolv Energy     =   -4.08 kcal/mol
USER        Electrostatic Energy            =   -0.09 kcal/mol
USER    (2) Final Total Internal Energy     =  -14.15 kcal/mol
USER    (3) Torsional Free Energy           =   +7.16 kcal/mol
USER    (4) Unbound System's Energy  [=(2)] =  -14.15 kcal/mol
USER    
USER    
USER  
USER    DPF = D:/Protein_go_brrr/autodock/final/2DN3/IHP/dock.dpf
USER    NEWDPF move	IHP_ideal_opt.pdbqt
USER    NEWDPF about	0.035000 0.082000 -0.065000
USER    NEWDPF tran0	51.326726 29.791342 -1.648226
USER    NEWDPF axisangle0	-0.887443 0.309766 0.341306 72.287276
USER    NEWDPF quaternion0	-0.523424 0.182703 0.201306 0.807541
USER    NEWDPF dihe0	-153.22 -30.47 22.90 87.27 21.72 126.05 -55.52 -4.85 165.68 -25.03 163.76 106.62 36.73 151.37 -169.88 179.85 100.21 -173.54 -137.79 -30.52 17.25 -16.11 -41.05 26.55 
USER  
USER                              x       y       z    vdW   Elec        q     RMS 
ATOM      1  C   UNL d   1      51.876  28.204  -2.054 -0.07 +0.07    +0.194    54.915
ATOM      2  C   UNL d   1      50.891  28.835  -3.040 -0.10 +0.05    +0.194    54.915
ATOM      3  C   UNL d   1      49.740  29.540  -2.319 -0.12 +0.04    +0.194    54.915
ATOM      4  C   UNL d   1      50.212  30.533  -1.260 -0.16 +0.04    +0.194    54.915
ATOM      5  C   UNL d   1      51.280  29.981  -0.324 -0.14 +0.07    +0.194    54.915
ATOM      6  C   UNL d   1      52.400  29.223  -1.041 -0.11 +0.08    +0.194    54.915
ATOM      7  O   UNL d   1      53.000  27.722  -2.793 -0.04 -0.08    -0.278    54.915
ATOM      8  P   UNL d   1      54.324  28.614  -2.829 +0.00 +0.10    +0.473    54.915
ATOM      9  O   UNL d   1      55.285  28.363  -1.720 -0.01 -0.06    -0.228    54.915
ATOM     10  O   UNL d   1      54.943  28.329  -4.272 -0.00 -0.05    -0.303    54.915
ATOM     11  H   UNL d   1      54.249  28.425  -4.950 +0.01 +0.03    +0.222    54.915
ATOM     12  O   UNL d   1      53.810  30.110  -2.977 -0.00 -0.06    -0.303    54.915
ATOM     13  H   UNL d   1      53.502  30.324  -3.887 +0.01 +0.03    +0.222    54.915
ATOM     14  O   UNL d   1      51.586  29.799  -3.842 -0.02 -0.05    -0.278    54.915
ATOM     15  P   UNL d   1      52.002  29.336  -5.317 -0.00 +0.07    +0.473    54.915
ATOM     16  O   UNL d   1      53.196  30.007  -5.921 -0.00 -0.03    -0.228    54.915
ATOM     17  O   UNL d   1      52.177  27.758  -5.193 -0.01 -0.05    -0.303    54.915
ATOM     18  H   UNL d   1      52.991  27.532  -4.704 +0.02 +0.04    +0.222    54.915
ATOM     19  O   UNL d   1      50.657  29.443  -6.160 -0.01 -0.04    -0.303    54.915
ATOM     20  H   UNL d   1      50.054  30.117  -5.794 +0.01 +0.03    +0.222    54.915
ATOM     21  O   UNL d   1      53.108  28.493  -0.042 -0.18 -0.17    -0.278    54.915
ATOM     22  P   UNL d   1      54.275  29.205   0.781 -0.04 +0.28    +0.473    54.915
ATOM     23  O   UNL d   1      55.510  28.421   1.074 -0.08 -0.12    -0.228    54.915
ATOM     24  O   UNL d   1      54.512  30.529  -0.069 -0.01 -0.09    -0.303    54.915
ATOM     25  H   UNL d   1      54.525  30.281  -1.029 +0.02 +0.06    +0.222    54.915
ATOM     26  O   UNL d   1      53.480  29.766   2.054 -0.49 -0.24    -0.303    54.915
ATOM     27  H   UNL d   1      52.673  30.230   1.751 +0.07 +0.13    +0.222    54.915
ATOM     28  O   UNL d   1      49.044  30.320  -3.283 -0.07 -0.03    -0.278    54.915
ATOM     29  P   UNL d   1      47.761  29.730  -4.020 -0.07 +0.04    +0.473    54.915
ATOM     30  O   UNL d   1      46.785  30.736  -4.511 -0.03 -0.01    -0.228    54.915
ATOM     31  O   UNL d   1      48.471  28.809  -5.121 -0.04 -0.04    -0.303    54.915
ATOM     32  H   UNL d   1      49.445  28.933  -5.053 +0.03 +0.03    +0.222    54.915
ATOM     33  O   UNL d   1      47.228  28.666  -2.963 -0.15 -0.00    -0.303    54.915
ATOM     34  H   UNL d   1      47.100  29.115  -2.092 -0.50 -0.08    +0.222    54.915
ATOM     35  O   UNL d   1      51.875  31.119   0.298 -0.07 -0.08    -0.278    54.915
ATOM     36  P   UNL d   1      51.277  31.696   1.659 -0.13 +0.14    +0.473    54.915
ATOM     37  O   UNL d   1      52.281  32.242   2.624 -0.11 -0.05    -0.228    54.915
ATOM     38  O   UNL d   1      50.230  32.771   1.126 -0.12 -0.08    -0.303    54.915
ATOM     39  H   UNL d   1      49.339  32.360   1.089 +0.09 +0.06    +0.222    54.915
ATOM     40  O   UNL d   1      50.367  30.494   2.167 -0.62 -0.13    -0.303    54.915
ATOM     41  H   UNL d   1      49.600  30.342   1.572 -0.02 +0.07    +0.222    54.915
ATOM     42  O   UNL d   1      49.073  30.854  -0.455 -0.25 -0.03    -0.278    54.915
ATOM     43  P   UNL d   1      48.079  32.000  -0.947 -0.17 +0.01    +0.473    54.915
ATOM     44  O   UNL d   1      47.757  33.091   0.015 -0.17 -0.00    -0.228    54.915
ATOM     45  O   UNL d   1      48.763  32.501  -2.294 -0.03 -0.03    -0.303    54.915
ATOM     46  H   UNL d   1      48.433  32.006  -3.069 +0.04 +0.02    +0.222    54.915
ATOM     47  O   UNL d   1      46.821  31.179  -1.507 -0.22 +0.04    -0.303    54.915
ATOM     48  H   UNL d   1      47.056  30.778  -2.370 +0.01 -0.01    +0.222    54.915
TER
ENDMDL
MODEL       78
USER    Run = 78
USER    Cluster Rank = 12
USER    Number of conformations in this cluster = 1
USER  
USER    RMSD from reference structure       = 43.636 A
USER  
USER    Estimated Free Energy of Binding    =   +3.21 kcal/mol  [=(1)+(2)+(3)-(4)]
USER    
USER    (1) Final Intermolecular Energy     =   -3.95 kcal/mol
USER        vdW + Hbond + desolv Energy     =   -3.83 kcal/mol
USER        Electrostatic Energy            =   -0.12 kcal/mol
USER    (2) Final Total Internal Energy     =  -13.37 kcal/mol
USER    (3) Torsional Free Energy           =   +7.16 kcal/mol
USER    (4) Unbound System's Energy  [=(2)] =  -13.37 kcal/mol
USER    
USER    
USER  
USER    DPF = D:/Protein_go_brrr/autodock/final/2DN3/IHP/dock.dpf
USER    NEWDPF move	IHP_ideal_opt.pdbqt
USER    NEWDPF about	0.035000 0.082000 -0.065000
USER    NEWDPF tran0	42.905936 16.375865 14.452901
USER    NEWDPF axisangle0	0.120149 0.975278 -0.185465 162.838582
USER    NEWDPF quaternion0	0.118804 0.964361 -0.183389 0.149202
USER    NEWDPF dihe0	49.64 72.00 110.38 110.88 -13.52 -180.00 23.85 -102.26 91.18 64.85 82.33 -52.96 -29.45 114.20 -178.75 -45.26 107.66 41.00 46.66 3.75 169.59 144.07 -9.74 -174.51 
USER  
USER                              x       y       z    vdW   Elec        q     RMS 
ATOM      1  C   UNL d   1      41.327  15.677  14.402 -0.15 +0.02    +0.194    43.636
ATOM      2  C   UNL d   1      42.466  14.713  14.738 -0.07 +0.03    +0.194    43.636
ATOM      3  C   UNL d   1      43.687  14.944  13.844 -0.02 +0.03    +0.194    43.636
ATOM      4  C   UNL d   1      44.149  16.399  13.822 -0.03 +0.04    +0.194    43.636
ATOM      5  C   UNL d   1      43.025  17.404  13.604 -0.09 +0.04    +0.194    43.636
ATOM      6  C   UNL d   1      41.781  17.136  14.454 -0.21 +0.02    +0.194    43.636
ATOM      7  O   UNL d   1      40.301  15.514  15.384 -0.18 -0.01    -0.278    43.636
ATOM      8  P   UNL d   1      39.359  14.228  15.292 -0.13 +0.04    +0.473    43.636
ATOM      9  O   UNL d   1      39.931  13.079  14.538 -0.05 -0.02    -0.228    43.636
ATOM     10  O   UNL d   1      39.031  13.879  16.814 -0.06 -0.04    -0.303    43.636
ATOM     11  H   UNL d   1      39.507  13.068  17.073 +0.05 +0.03    +0.222    43.636
ATOM     12  O   UNL d   1      37.962  14.775  14.769 -0.18 -0.02    -0.303    43.636
ATOM     13  H   UNL d   1      38.047  15.596  14.233 -0.43 -0.00    +0.222    43.636
ATOM     14  O   UNL d   1      42.857  14.908  16.103 -0.09 -0.06    -0.278    43.636
ATOM     15  P   UNL d   1      43.087  13.587  16.978 -0.03 +0.08    +0.473    43.636
ATOM     16  O   UNL d   1      43.720  13.773  18.321 -0.09 -0.04    -0.228    43.636
ATOM     17  O   UNL d   1      41.642  12.922  17.063 -0.08 -0.05    -0.303    43.636
ATOM     18  H   UNL d   1      41.036  13.313  16.405 +0.04 +0.03    +0.222    43.636
ATOM     19  O   UNL d   1      43.842  12.588  15.996 -0.01 -0.04    -0.303    43.636
ATOM     20  H   UNL d   1      44.619  13.008  15.583 +0.01 +0.03    +0.222    43.636
ATOM     21  O   UNL d   1      40.727  17.922  13.901 -0.27 -0.01    -0.278    43.636
ATOM     22  P   UNL d   1      40.161  17.578  12.450 -0.19 +0.04    +0.473    43.636
ATOM     23  O   UNL d   1      39.645  18.698  11.611 -0.26 -0.03    -0.228    43.636
ATOM     24  O   UNL d   1      41.372  16.768  11.811 -0.05 -0.04    -0.303    43.636
ATOM     25  H   UNL d   1      42.052  17.421  11.504 +0.08 +0.03    +0.222    43.636
ATOM     26  O   UNL d   1      39.116  16.406  12.778 -0.23 -0.02    -0.303    43.636
ATOM     27  H   UNL d   1      39.047  16.299  13.749 -0.26 -0.04    +0.222    43.636
ATOM     28  O   UNL d   1      44.771  14.212  14.401 -0.01 -0.05    -0.278    43.636
ATOM     29  P   UNL d   1      45.936  14.968  15.180 +0.00 +0.11    +0.473    43.636
ATOM     30  O   UNL d   1      46.852  15.776  14.336 -0.00 -0.06    -0.228    43.636
ATOM     31  O   UNL d   1      45.074  15.754  16.276 -0.03 -0.08    -0.303    43.636
ATOM     32  H   UNL d   1      44.787  15.115  16.968 +0.04 +0.05    +0.222    43.636
ATOM     33  O   UNL d   1      46.590  13.789  16.028 -0.00 -0.05    -0.303    43.636
ATOM     34  H   UNL d   1      45.870  13.235  16.417 +0.01 +0.04    +0.222    43.636
ATOM     35  O   UNL d   1      43.549  18.665  14.014 -0.09 -0.08    -0.278    43.636
ATOM     36  P   UNL d   1      43.619  19.881  12.983 -0.19 +0.14    +0.473    43.636
ATOM     37  O   UNL d   1      43.545  21.246  13.590 -0.28 -0.10    -0.228    43.636
ATOM     38  O   UNL d   1      44.981  19.579  12.215 -0.21 -0.11    -0.303    43.636
ATOM     39  H   UNL d   1      45.204  18.629  12.319 +0.07 +0.08    +0.222    43.636
ATOM     40  O   UNL d   1      42.492  19.497  11.929 -0.20 -0.02    -0.303    43.636
ATOM     41  H   UNL d   1      41.822  18.890  12.316 +0.11 +0.03    +0.222    43.636
ATOM     42  O   UNL d   1      45.052  16.531  12.719 -0.01 -0.07    -0.278    43.636
ATOM     43  P   UNL d   1      44.461  16.553  11.237 +0.00 +0.10    +0.473    43.636
ATOM     44  O   UNL d   1      44.024  17.869  10.692 -0.09 -0.05    -0.228    43.636
ATOM     45  O   UNL d   1      45.610  15.847  10.393 -0.00 -0.07    -0.303    43.636
ATOM     46  H   UNL d   1      46.292  15.456  10.974 +0.01 +0.05    +0.222    43.636
ATOM     47  O   UNL d   1      43.335  15.412  11.274 -0.00 -0.05    -0.303    43.636
ATOM     48  H   UNL d   1      42.484  15.789  10.970 +0.03 +0.03    +0.222    43.636
TER
ENDMDL
MODEL       52
USER    Run = 52
USER    Cluster Rank = 13
USER    Number of conformations in this cluster = 1
USER  
USER    RMSD from reference structure       = 40.612 A
USER  
USER    Estimated Free Energy of Binding    =   +3.27 kcal/mol  [=(1)+(2)+(3)-(4)]
USER    
USER    (1) Final Intermolecular Energy     =   -3.89 kcal/mol
USER        vdW + Hbond + desolv Energy     =   -3.70 kcal/mol
USER        Electrostatic Energy            =   -0.19 kcal/mol
USER    (2) Final Total Internal Energy     =  -14.45 kcal/mol
USER    (3) Torsional Free Energy           =   +7.16 kcal/mol
USER    (4) Unbound System's Energy  [=(2)] =  -14.45 kcal/mol
USER    
USER    
USER  
USER    DPF = D:/Protein_go_brrr/autodock/final/2DN3/IHP/dock.dpf
USER    NEWDPF move	IHP_ideal_opt.pdbqt
USER    NEWDPF about	0.035000 0.082000 -0.065000
USER    NEWDPF tran0	0.879479 39.218930 19.807096
USER    NEWDPF axisangle0	0.038310 -0.975953 -0.214587 142.042037
USER    NEWDPF quaternion0	0.036228 -0.922899 -0.202921 0.325221
USER    NEWDPF dihe0	-159.50 -180.00 127.23 8.19 0.55 162.05 -71.91 -107.31 6.29 12.95 130.65 173.02 39.72 31.65 21.28 -47.46 -118.13 105.11 -140.60 -17.81 115.84 143.80 139.93 -52.41 
USER  
USER                              x       y       z    vdW   Elec        q     RMS 
ATOM      1  C   UNL d   1       0.535  38.803  18.166 -0.25 -0.07    +0.194    40.612
ATOM      2  C   UNL d   1       1.459  37.839  18.912 -0.27 -0.04    +0.194    40.612
ATOM      3  C   UNL d   1       2.500  38.586  19.749 -0.20 -0.04    +0.194    40.612
ATOM      4  C   UNL d   1       1.888  39.632  20.677 -0.15 -0.04    +0.194    40.612
ATOM      5  C   UNL d   1       0.872  40.543  19.999 -0.11 -0.05    +0.194    40.612
ATOM      6  C   UNL d   1      -0.131  39.802  19.113 -0.10 -0.06    +0.194    40.612
ATOM      7  O   UNL d   1      -0.506  38.038  17.553 -0.11 +0.10    -0.278    40.612
ATOM      8  P   UNL d   1      -1.905  37.914  18.314 -0.00 -0.10    +0.473    40.612
ATOM      9  O   UNL d   1      -2.911  38.952  17.960 -0.02 +0.05    -0.228    40.612
ATOM     10  O   UNL d   1      -2.393  36.430  17.986 -0.01 +0.04    -0.303    40.612
ATOM     11  H   UNL d   1      -1.640  35.815  18.060 +0.03 -0.03    +0.222    40.612
ATOM     12  O   UNL d   1      -1.530  37.808  19.854 -0.00 +0.04    -0.303    40.612
ATOM     13  H   UNL d   1      -2.087  38.381  20.427 +0.02 -0.03    +0.222    40.612
ATOM     14  O   UNL d   1       0.673  37.020  19.787 -0.08 +0.05    -0.278    40.612
ATOM     15  P   UNL d   1       0.611  35.458  19.441 -0.08 -0.09    +0.473    40.612
ATOM     16  O   UNL d   1       1.698  34.600  20.010 -0.20 +0.07    -0.228    40.612
ATOM     17  O   UNL d   1      -0.841  35.012  19.920 -0.01 +0.03    -0.303    40.612
ATOM     18  H   UNL d   1      -1.482  35.742  19.826 +0.02 -0.02    +0.222    40.612
ATOM     19  O   UNL d   1       0.456  35.407  17.859 -0.12 +0.04    -0.303    40.612
ATOM     20  H   UNL d   1      -0.277  35.971  17.550 +0.06 -0.03    +0.222    40.612
ATOM     21  O   UNL d   1      -0.770  40.785  18.302 -0.08 +0.16    -0.278    40.612
ATOM     22  P   UNL d   1      -0.157  42.255  18.209 -0.03 -0.30    +0.473    40.612
ATOM     23  O   UNL d   1       1.289  42.396  17.875 -0.26 +0.15    -0.228    40.612
ATOM     24  O   UNL d   1      -1.151  42.958  17.183 -0.04 +0.24    -0.303    40.612
ATOM     25  H   UNL d   1      -1.049  42.514  16.303 -0.46 -0.39    +0.222    40.612
ATOM     26  O   UNL d   1      -0.621  42.890  19.606 -0.01 +0.08    -0.303    40.612
ATOM     27  H   UNL d   1      -1.286  42.304  20.022 +0.02 -0.05    +0.222    40.612
ATOM     28  O   UNL d   1       3.120  37.637  20.608 -0.28 +0.09    -0.278    40.612
ATOM     29  P   UNL d   1       2.767  37.606  22.160 -0.16 -0.11    +0.473    40.612
ATOM     30  O   UNL d   1       3.333  38.717  22.968 -0.10 +0.04    -0.228    40.612
ATOM     31  O   UNL d   1       1.172  37.505  22.082 -0.03 +0.05    -0.303    40.612
ATOM     32  H   UNL d   1       0.881  37.816  21.194 +0.06 -0.04    +0.222    40.612
ATOM     33  O   UNL d   1       3.194  36.128  22.571 -0.25 +0.10    -0.303    40.612
ATOM     34  H   UNL d   1       2.815  35.491  21.916 -0.33 -0.11    +0.222    40.612
ATOM     35  O   UNL d   1       0.131  41.150  21.056 -0.01 +0.05    -0.278    40.612
ATOM     36  P   UNL d   1      -1.185  40.448  21.622 +0.01 -0.06    +0.473    40.612
ATOM     37  O   UNL d   1      -2.388  40.522  20.735 +0.00 +0.03    -0.228    40.612
ATOM     38  O   UNL d   1      -0.670  38.967  21.903 +0.00 +0.03    -0.303    40.612
ATOM     39  H   UNL d   1      -0.407  38.552  21.053 +0.03 -0.03    +0.222    40.612
ATOM     40  O   UNL d   1      -1.317  41.089  23.071 +0.00 +0.02    -0.303    40.612
ATOM     41  H   UNL d   1      -0.441  41.343  23.438 +0.01 -0.02    +0.222    40.612
ATOM     42  O   UNL d   1       2.961  40.463  21.131 -0.14 +0.04    -0.278    40.612
ATOM     43  P   UNL d   1       2.731  41.393  22.406 -0.03 -0.07    +0.473    40.612
ATOM     44  O   UNL d   1       3.918  41.712  23.247 -0.03 +0.03    -0.228    40.612
ATOM     45  O   UNL d   1       2.013  42.669  21.782 -0.03 +0.05    -0.303    40.612
ATOM     46  H   UNL d   1       1.190  42.424  21.315 +0.03 -0.04    +0.222    40.612
ATOM     47  O   UNL d   1       1.516  40.676  23.167 -0.00 +0.03    -0.303    40.612
ATOM     48  H   UNL d   1       1.161  39.958  22.604 +0.03 -0.03    +0.222    40.612
TER
ENDMDL
MODEL       42
USER    Run = 42
USER    Cluster Rank = 14
USER    Number of conformations in this cluster = 1
USER  
USER    RMSD from reference structure       = 48.284 A
USER  
USER    Estimated Free Energy of Binding    =   +3.29 kcal/mol  [=(1)+(2)+(3)-(4)]
USER    
USER    (1) Final Intermolecular Energy     =   -3.87 kcal/mol
USER        vdW + Hbond + desolv Energy     =   -3.85 kcal/mol
USER        Electrostatic Energy            =   -0.02 kcal/mol
USER    (2) Final Total Internal Energy     =  -14.68 kcal/mol
USER    (3) Torsional Free Energy           =   +7.16 kcal/mol
USER    (4) Unbound System's Energy  [=(2)] =  -14.68 kcal/mol
USER    
USER    
USER  
USER    DPF = D:/Protein_go_brrr/autodock/final/2DN3/IHP/dock.dpf
USER    NEWDPF move	IHP_ideal_opt.pdbqt
USER    NEWDPF about	0.035000 0.082000 -0.065000
USER    NEWDPF tran0	40.008484 34.402342 -0.182919
USER    NEWDPF axisangle0	-0.777385 0.628646 -0.021820 142.528160
USER    NEWDPF quaternion0	-0.736191 0.595334 -0.020664 0.321207
USER    NEWDPF dihe0	101.29 49.36 167.63 153.67 15.69 -116.85 -17.21 -72.82 85.98 28.97 -139.85 160.11 152.24 60.97 -60.90 106.56 108.82 159.40 50.59 19.97 174.29 -2.47 -4.63 176.80 
USER  
USER                              x       y       z    vdW   Elec        q     RMS 
ATOM      1  C   UNL d   1      40.884  33.002  -0.691 -0.19 +0.01    +0.194    48.284
ATOM      2  C   UNL d   1      41.367  34.332  -1.274 -0.12 +0.02    +0.194    48.284
ATOM      3  C   UNL d   1      40.198  35.217  -1.709 -0.06 +0.02    +0.194    48.284
ATOM      4  C   UNL d   1      39.152  35.413  -0.615 -0.11 +0.03    +0.194    48.284
ATOM      5  C   UNL d   1      38.725  34.124   0.074 -0.21 +0.02    +0.194    48.284
ATOM      6  C   UNL d   1      39.891  33.209   0.454 -0.22 +0.02    +0.194    48.284
ATOM      7  O   UNL d   1      42.016  32.313  -0.154 -0.15 +0.00    -0.278    48.284
ATOM      8  P   UNL d   1      43.075  31.685  -1.172 -0.13 +0.00    +0.473    48.284
ATOM      9  O   UNL d   1      43.879  30.557  -0.629 -0.45 +0.00    -0.228    48.284
ATOM     10  O   UNL d   1      42.198  31.278  -2.441 -0.05 -0.02    -0.303    48.284
ATOM     11  H   UNL d   1      41.484  30.674  -2.164 +0.06 +0.01    +0.222    48.284
ATOM     12  O   UNL d   1      43.902  32.925  -1.723 -0.11 +0.01    -0.303    48.284
ATOM     13  H   UNL d   1      43.653  33.775  -1.297 -0.02 +0.00    +0.222    48.284
ATOM     14  O   UNL d   1      42.124  35.031  -0.278 -0.15 -0.05    -0.278    48.284
ATOM     15  P   UNL d   1      43.263  36.022  -0.810 -0.05 +0.08    +0.473    48.284
ATOM     16  O   UNL d   1      43.089  37.476  -0.499 -0.08 -0.04    -0.228    48.284
ATOM     17  O   UNL d   1      44.611  35.420  -0.211 -0.02 -0.04    -0.303    48.284
ATOM     18  H   UNL d   1      44.856  34.590  -0.662 -0.33 -0.02    +0.222    48.284
ATOM     19  O   UNL d   1      43.412  35.664  -2.353 -0.03 -0.03    -0.303    48.284
ATOM     20  H   UNL d   1      42.860  36.242  -2.912 +0.02 +0.02    +0.222    48.284
ATOM     21  O   UNL d   1      39.333  31.933   0.759 -0.27 -0.02    -0.278    48.284
ATOM     22  P   UNL d   1      38.759  31.019  -0.416 -0.11 +0.04    +0.473    48.284
ATOM     23  O   UNL d   1      38.179  31.692  -1.614 -0.03 -0.02    -0.228    48.284
ATOM     24  O   UNL d   1      39.997  30.066  -0.720 -0.14 -0.02    -0.303    48.284
ATOM     25  H   UNL d   1      40.801  30.633  -0.842 +0.07 +0.01    +0.222    48.284
ATOM     26  O   UNL d   1      37.776  30.039   0.384 -0.16 -0.04    -0.303    48.284
ATOM     27  H   UNL d   1      37.008  30.550   0.711 +0.09 +0.03    +0.222    48.284
ATOM     28  O   UNL d   1      40.718  36.515  -1.971 -0.03 -0.04    -0.278    48.284
ATOM     29  P   UNL d   1      40.829  37.050  -3.467 +0.00 +0.05    +0.473    48.284
ATOM     30  O   UNL d   1      39.572  37.584  -4.051 -0.00 -0.03    -0.228    48.284
ATOM     31  O   UNL d   1      42.047  38.075  -3.307 -0.00 -0.03    -0.303    48.284
ATOM     32  H   UNL d   1      42.676  37.713  -2.641 +0.02 +0.03    +0.222    48.284
ATOM     33  O   UNL d   1      41.503  35.816  -4.214 -0.00 -0.03    -0.303    48.284
ATOM     34  H   UNL d   1      41.857  35.187  -3.539 +0.02 +0.02    +0.222    48.284
ATOM     35  O   UNL d   1      38.092  34.524   1.288 -0.27 -0.03    -0.278    48.284
ATOM     36  P   UNL d   1      36.619  34.018   1.632 -0.14 +0.00    +0.473    48.284
ATOM     37  O   UNL d   1      36.288  33.942   3.089 -0.36 +0.03    -0.228    48.284
ATOM     38  O   UNL d   1      35.722  35.045   0.810 -0.11 -0.02    -0.303    48.284
ATOM     39  H   UNL d   1      36.283  35.505   0.150 +0.03 +0.02    +0.222    48.284
ATOM     40  O   UNL d   1      36.520  32.668   0.798 -0.09 -0.03    -0.303    48.284
ATOM     41  H   UNL d   1      37.255  32.585   0.151 +0.07 +0.02    +0.222    48.284
ATOM     42  O   UNL d   1      37.988  35.959  -1.246 -0.06 -0.04    -0.278    48.284
ATOM     43  P   UNL d   1      37.193  35.065  -2.302 -0.00 +0.06    +0.473    48.284
ATOM     44  O   UNL d   1      36.390  35.775  -3.336 -0.00 -0.03    -0.228    48.284
ATOM     45  O   UNL d   1      38.334  34.128  -2.895 -0.00 -0.03    -0.303    48.284
ATOM     46  H   UNL d   1      37.986  33.245  -3.130 +0.01 +0.02    +0.222    48.284
ATOM     47  O   UNL d   1      36.379  34.041  -1.375 -0.01 -0.04    -0.303    48.284
ATOM     48  H   UNL d   1      36.808  33.991  -0.496 +0.05 +0.03    +0.222    48.284
TER
ENDMDL
MODEL       20
USER    Run = 20
USER    Cluster Rank = 15
USER    Number of conformations in this cluster = 1
USER  
USER    RMSD from reference structure       = 50.582 A
USER  
USER    Estimated Free Energy of Binding    =   +3.30 kcal/mol  [=(1)+(2)+(3)-(4)]
USER    
USER    (1) Final Intermolecular Energy     =   -3.86 kcal/mol
USER        vdW + Hbond + desolv Energy     =   -3.57 kcal/mol
USER        Electrostatic Energy            =   -0.30 kcal/mol
USER    (2) Final Total Internal Energy     =  -14.28 kcal/mol
USER    (3) Torsional Free Energy           =   +7.16 kcal/mol
USER    (4) Unbound System's Energy  [=(2)] =  -14.28 kcal/mol
USER    
USER    
USER  
USER    DPF = D:/Protein_go_brrr/autodock/final/2DN3/IHP/dock.dpf
USER    NEWDPF move	IHP_ideal_opt.pdbqt
USER    NEWDPF about	0.035000 0.082000 -0.065000
USER    NEWDPF tran0	16.597583 51.776875 -6.404722
USER    NEWDPF axisangle0	-0.461274 -0.724439 0.512263 -118.719532
USER    NEWDPF quaternion0	-0.396873 -0.623296 0.440743 -0.509646
USER    NEWDPF dihe0	-79.27 93.62 -177.59 -36.14 -11.79 59.62 -26.12 -169.90 78.76 129.11 34.64 155.04 -61.32 179.20 -166.72 -54.64 112.10 166.82 0.08 14.04 -39.71 11.70 162.36 -10.12 
USER  
USER                              x       y       z    vdW   Elec        q     RMS 
ATOM      1  C   UNL d   1      15.571  52.582  -5.273 -0.07 -0.03    +0.194    50.582
ATOM      2  C   UNL d   1      16.104  51.219  -4.828 -0.12 -0.03    +0.194    50.582
ATOM      3  C   UNL d   1      16.040  50.189  -5.958 -0.08 -0.03    +0.194    50.582
ATOM      4  C   UNL d   1      16.696  50.672  -7.250 -0.02 -0.02    +0.194    50.582
ATOM      5  C   UNL d   1      16.279  52.076  -7.670 -0.01 -0.01    +0.194    50.582
ATOM      6  C   UNL d   1      16.283  53.092  -6.526 -0.01 -0.02    +0.194    50.582
ATOM      7  O   UNL d   1      15.823  53.522  -4.226 -0.10 +0.05    -0.278    50.582
ATOM      8  P   UNL d   1      14.583  54.312  -3.600 -0.20 -0.18    +0.473    50.582
ATOM      9  O   UNL d   1      13.297  54.149  -4.331 -0.18 +0.06    -0.228    50.582
ATOM     10  O   UNL d   1      14.518  53.796  -2.092 -0.39 +0.28    -0.303    50.582
ATOM     11  H   UNL d   1      14.583  54.555  -1.483 -0.35 -0.52    +0.222    50.582
ATOM     12  O   UNL d   1      15.093  55.805  -3.419 -0.10 +0.11    -0.303    50.582
ATOM     13  H   UNL d   1      15.533  56.163  -4.223 +0.04 -0.05    +0.222    50.582
ATOM     14  O   UNL d   1      17.470  51.363  -4.418 -0.07 +0.04    -0.278    50.582
ATOM     15  P   UNL d   1      17.957  50.431  -3.210 -0.07 -0.15    +0.473    50.582
ATOM     16  O   UNL d   1      18.572  51.123  -2.034 -0.27 +0.07    -0.228    50.582
ATOM     17  O   UNL d   1      16.661  49.590  -2.823 -0.22 +0.13    -0.303    50.582
ATOM     18  H   UNL d   1      16.588  48.784  -3.371 -0.25 -0.10    +0.222    50.582
ATOM     19  O   UNL d   1      18.862  49.323  -3.904 +0.01 +0.10    -0.303    50.582
ATOM     20  H   UNL d   1      18.357  48.510  -4.090 -0.17 -0.09    +0.222    50.582
ATOM     21  O   UNL d   1      15.560  54.232  -6.984 -0.00 +0.02    -0.278    50.582
ATOM     22  P   UNL d   1      16.050  55.696  -6.581 +0.01 -0.03    +0.473    50.582
ATOM     23  O   UNL d   1      15.024  56.690  -6.153 -0.00 +0.02    -0.228    50.582
ATOM     24  O   UNL d   1      17.165  55.377  -5.491 -0.01 +0.03    -0.303    50.582
ATOM     25  H   UNL d   1      16.709  55.153  -4.640 +0.04 -0.03    +0.222    50.582
ATOM     26  O   UNL d   1      16.937  56.103  -7.853 -0.00 +0.01    -0.303    50.582
ATOM     27  H   UNL d   1      17.872  56.194  -7.577 +0.00 -0.01    +0.222    50.582
ATOM     28  O   UNL d   1      16.799  49.058  -5.550 -0.09 +0.04    -0.278    50.582
ATOM     29  P   UNL d   1      16.121  47.618  -5.478 -0.22 -0.09    +0.473    50.582
ATOM     30  O   UNL d   1      15.317  47.350  -4.258 -0.42 +0.06    -0.228    50.582
ATOM     31  O   UNL d   1      15.345  47.605  -6.877 -0.20 +0.05    -0.303    50.582
ATOM     32  H   UNL d   1      15.808  48.213  -7.499 +0.08 -0.03    +0.222    50.582
ATOM     33  O   UNL d   1      17.357  46.653  -5.752 -0.25 +0.04    -0.303    50.582
ATOM     34  H   UNL d   1      17.243  46.229  -6.637 +0.10 -0.03    +0.222    50.582
ATOM     35  O   UNL d   1      17.257  52.504  -8.615 +0.00 +0.01    -0.278    50.582
ATOM     36  P   UNL d   1      18.762  52.765  -8.153 +0.00 -0.01    +0.473    50.582
ATOM     37  O   UNL d   1      19.793  52.668  -9.232 +0.00 +0.00    -0.228    50.582
ATOM     38  O   UNL d   1      18.651  54.204  -7.481 -0.00 +0.01    -0.303    50.582
ATOM     39  H   UNL d   1      17.705  54.454  -7.411 +0.00 -0.01    +0.222    50.582
ATOM     40  O   UNL d   1      18.915  51.775  -6.918 -0.00 +0.01    -0.303    50.582
ATOM     41  H   UNL d   1      19.198  50.878  -7.202 +0.01 -0.01    +0.222    50.582
ATOM     42  O   UNL d   1      16.275  49.780  -8.287 -0.02 +0.02    -0.278    50.582
ATOM     43  P   UNL d   1      17.382  48.977  -9.109 +0.00 -0.03    +0.473    50.582
ATOM     44  O   UNL d   1      17.093  48.679 -10.540 -0.02 +0.01    -0.228    50.582
ATOM     45  O   UNL d   1      18.691  49.851  -8.878 -0.00 +0.01    -0.303    50.582
ATOM     46  H   UNL d   1      18.489  50.808  -8.887 +0.00 -0.01    +0.222    50.582
ATOM     47  O   UNL d   1      17.673  47.702  -8.182 -0.04 +0.02    -0.303    50.582
ATOM     48  H   UNL d   1      17.467  47.926  -7.251 +0.07 -0.02    +0.222    50.582
TER
ENDMDL
MODEL       34
USER    Run = 34
USER    Cluster Rank = 16
USER    Number of conformations in this cluster = 1
USER  
USER    RMSD from reference structure       = 52.069 A
USER  
USER    Estimated Free Energy of Binding    =   +3.32 kcal/mol  [=(1)+(2)+(3)-(4)]
USER    
USER    (1) Final Intermolecular Energy     =   -3.83 kcal/mol
USER        vdW + Hbond + desolv Energy     =   -3.56 kcal/mol
USER        Electrostatic Energy            =   -0.28 kcal/mol
USER    (2) Final Total Internal Energy     =  -14.60 kcal/mol
USER    (3) Torsional Free Energy           =   +7.16 kcal/mol
USER    (4) Unbound System's Energy  [=(2)] =  -14.60 kcal/mol
USER    
USER    
USER  
USER    DPF = D:/Protein_go_brrr/autodock/final/2DN3/IHP/dock.dpf
USER    NEWDPF move	IHP_ideal_opt.pdbqt
USER    NEWDPF about	0.035000 0.082000 -0.065000
USER    NEWDPF tran0	20.885471 51.837916 -5.080771
USER    NEWDPF axisangle0	0.450357 -0.732195 -0.510949 -86.027541
USER    NEWDPF quaternion0	0.307222 -0.499485 -0.348556 -0.731190
USER    NEWDPF dihe0	-136.17 -58.19 152.09 -15.08 129.54 98.80 -75.68 -106.98 -26.54 -64.03 34.14 -166.14 111.44 165.00 -100.25 59.05 -179.82 159.52 -4.94 13.47 149.35 1.23 -36.60 -6.20 
USER  
USER                              x       y       z    vdW   Elec        q     RMS 
ATOM      1  C   UNL d   1      20.282  50.230  -4.895 -0.04 -0.02    +0.194    52.069
ATOM      2  C   UNL d   1      20.145  50.830  -6.296 -0.01 -0.01    +0.194    52.069
ATOM      3  C   UNL d   1      19.671  52.284  -6.246 -0.00 -0.01    +0.194    52.069
ATOM      4  C   UNL d   1      20.515  53.160  -5.323 -0.01 -0.01    +0.194    52.069
ATOM      5  C   UNL d   1      20.773  52.548  -3.952 -0.02 -0.01    +0.194    52.069
ATOM      6  C   UNL d   1      21.187  51.076  -3.999 -0.03 -0.01    +0.194    52.069
ATOM      7  O   UNL d   1      20.888  48.941  -5.019 -0.03 +0.02    -0.278    52.069
ATOM      8  P   UNL d   1      20.162  47.692  -4.336 -0.12 -0.07    +0.473    52.069
ATOM      9  O   UNL d   1      20.611  46.359  -4.822 -0.23 +0.02    -0.228    52.069
ATOM     10  O   UNL d   1      20.408  47.908  -2.775 -0.05 +0.08    -0.303    52.069
ATOM     11  H   UNL d   1      19.936  48.708  -2.477 -0.20 -0.09    +0.222    52.069
ATOM     12  O   UNL d   1      18.608  47.993  -4.473 -0.10 +0.08    -0.303    52.069
ATOM     13  H   UNL d   1      18.200  48.302  -3.633 -0.36 -0.15    +0.222    52.069
ATOM     14  O   UNL d   1      21.420  50.787  -6.948 -0.00 +0.00    -0.278    52.069
ATOM     15  P   UNL d   1      21.408  50.522  -8.528 +0.00 +0.00    +0.473    52.069
ATOM     16  O   UNL d   1      22.462  49.606  -9.064 +0.00 -0.01    -0.228    52.069
ATOM     17  O   UNL d   1      19.931  50.002  -8.821 -0.00 +0.00    -0.303    52.069
ATOM     18  H   UNL d   1      19.264  50.646  -8.514 +0.00 -0.01    +0.222    52.069
ATOM     19  O   UNL d   1      21.369  51.975  -9.173 +0.00 -0.00    -0.303    52.069
ATOM     20  H   UNL d   1      20.487  52.382  -9.092 +0.00 -0.00    +0.222    52.069
ATOM     21  O   UNL d   1      21.055  50.568  -2.673 -0.06 +0.03    -0.278    52.069
ATOM     22  P   UNL d   1      19.730  50.871  -1.837 -0.17 -0.11    +0.473    52.069
ATOM     23  O   UNL d   1      19.497  52.267  -1.368 -0.21 +0.05    -0.228    52.069
ATOM     24  O   UNL d   1      18.601  50.292  -2.797 -0.18 +0.11    -0.303    52.069
ATOM     25  H   UNL d   1      18.742  49.315  -2.886 -0.42 -0.14    +0.222    52.069
ATOM     26  O   UNL d   1      19.802  49.748  -0.695 -0.50 +0.07    -0.303    52.069
ATOM     27  H   UNL d   1      19.559  48.881  -1.081 -0.29 -0.07    +0.222    52.069
ATOM     28  O   UNL d   1      19.840  52.834  -7.546 -0.00 +0.01    -0.278    52.069
ATOM     29  P   UNL d   1      18.571  53.219  -8.428 +0.00 -0.01    +0.473    52.069
ATOM     30  O   UNL d   1      17.388  53.703  -7.670 -0.00 +0.01    -0.228    52.069
ATOM     31  O   UNL d   1      19.245  54.245  -9.455 +0.00 +0.00    -0.303    52.069
ATOM     32  H   UNL d   1      20.054  54.621  -9.037 +0.00 -0.00    +0.222    52.069
ATOM     33  O   UNL d   1      18.371  51.913  -9.315 -0.00 +0.01    -0.303    52.069
ATOM     34  H   UNL d   1      19.243  51.650  -9.700 +0.00 -0.00    +0.222    52.069
ATOM     35  O   UNL d   1      21.870  53.275  -3.404 -0.01 +0.01    -0.278    52.069
ATOM     36  P   UNL d   1      21.610  54.528  -2.451 -0.03 -0.03    +0.473    52.069
ATOM     37  O   UNL d   1      22.450  55.734  -2.727 -0.01 +0.01    -0.228    52.069
ATOM     38  O   UNL d   1      20.046  54.762  -2.640 -0.08 +0.02    -0.303    52.069
ATOM     39  H   UNL d   1      19.905  55.462  -3.313 +0.03 -0.01    +0.222    52.069
ATOM     40  O   UNL d   1      21.728  53.882  -1.002 -0.08 +0.05    -0.303    52.069
ATOM     41  H   UNL d   1      20.848  53.781  -0.576 -0.33 -0.08    +0.222    52.069
ATOM     42  O   UNL d   1      19.779  54.369  -5.112 -0.01 +0.01    -0.278    52.069
ATOM     43  P   UNL d   1      20.404  55.750  -5.610 +0.00 -0.01    +0.473    52.069
ATOM     44  O   UNL d   1      19.964  56.993  -4.917 -0.00 +0.01    -0.228    52.069
ATOM     45  O   UNL d   1      21.969  55.475  -5.523 -0.00 +0.00    -0.303    52.069
ATOM     46  H   UNL d   1      22.197  54.950  -4.729 +0.01 -0.00    +0.222    52.069
ATOM     47  O   UNL d   1      20.155  55.715  -7.193 -0.00 +0.01    -0.303    52.069
ATOM     48  H   UNL d   1      19.527  54.994  -7.405 +0.00 -0.00    +0.222    52.069
TER
ENDMDL
MODEL       44
USER    Run = 44
USER    Cluster Rank = 17
USER    Number of conformations in this cluster = 1
USER  
USER    RMSD from reference structure       = 51.719 A
USER  
USER    Estimated Free Energy of Binding    =   +3.33 kcal/mol  [=(1)+(2)+(3)-(4)]
USER    
USER    (1) Final Intermolecular Energy     =   -3.83 kcal/mol
USER        vdW + Hbond + desolv Energy     =   -3.54 kcal/mol
USER        Electrostatic Energy            =   -0.29 kcal/mol
USER    (2) Final Total Internal Energy     =  -14.48 kcal/mol
USER    (3) Torsional Free Energy           =   +7.16 kcal/mol
USER    (4) Unbound System's Energy  [=(2)] =  -14.48 kcal/mol
USER    
USER    
USER  
USER    DPF = D:/Protein_go_brrr/autodock/final/2DN3/IHP/dock.dpf
USER    NEWDPF move	IHP_ideal_opt.pdbqt
USER    NEWDPF about	0.035000 0.082000 -0.065000
USER    NEWDPF tran0	52.499942 20.373965 3.068173
USER    NEWDPF axisangle0	0.875051 -0.297351 0.381927 138.617188
USER    NEWDPF quaternion0	0.818607 -0.278171 0.357292 0.353335
USER    NEWDPF dihe0	163.54 -19.35 46.11 77.96 7.00 169.15 -120.84 -15.62 15.14 119.64 -47.04 -91.51 29.43 -19.63 154.71 42.58 -74.87 11.50 -7.76 -10.48 -23.33 166.97 164.49 -37.03 
USER  
USER                              x       y       z    vdW   Elec        q     RMS 
ATOM      1  C   UNL d   1      54.038  20.316   3.853 +0.01 +0.07    +0.194    51.719
ATOM      2  C   UNL d   1      53.176  21.538   4.176 -0.04 +0.11    +0.194    51.719
ATOM      3  C   UNL d   1      52.509  22.109   2.923 -0.08 +0.14    +0.194    51.719
ATOM      4  C   UNL d   1      51.745  21.060   2.118 -0.03 +0.11    +0.194    51.719
ATOM      5  C   UNL d   1      52.527  19.776   1.871 +0.01 +0.07    +0.194    51.719
ATOM      6  C   UNL d   1      53.245  19.240   3.111 +0.01 +0.07    +0.194    51.719
ATOM      7  O   UNL d   1      54.481  19.745   5.087 +0.01 -0.09    -0.278    51.719
ATOM      8  P   UNL d   1      56.035  19.418   5.256 +0.01 +0.11    +0.473    51.719
ATOM      9  O   UNL d   1      56.888  20.581   5.623 +0.00 -0.05    -0.228    51.719
ATOM     10  O   UNL d   1      56.068  18.248   6.341 +0.00 -0.06    -0.303    51.719
ATOM     11  H   UNL d   1      55.157  17.972   6.552 +0.00 +0.05    +0.222    51.719
ATOM     12  O   UNL d   1      56.443  18.650   3.927 +0.00 -0.06    -0.303    51.719
ATOM     13  H   UNL d   1      55.989  17.783   3.827 +0.00 +0.04    +0.222    51.719
ATOM     14  O   UNL d   1      52.153  21.156   5.104 -0.04 -0.17    -0.278    51.719
ATOM     15  P   UNL d   1      52.127  21.936   6.502 -0.06 +0.30    +0.473    51.719
ATOM     16  O   UNL d   1      52.493  23.387   6.469 -0.19 -0.24    -0.228    51.719
ATOM     17  O   UNL d   1      50.657  21.683   7.061 -0.15 -0.16    -0.303    51.719
ATOM     18  H   UNL d   1      49.984  21.880   6.381 -0.28 +0.13    +0.222    51.719
ATOM     19  O   UNL d   1      52.999  21.031   7.477 -0.01 -0.13    -0.303    51.719
ATOM     20  H   UNL d   1      53.566  20.411   6.983 +0.02 +0.08    +0.222    51.719
ATOM     21  O   UNL d   1      54.183  18.268   2.656 +0.00 -0.07    -0.278    51.719
ATOM     22  P   UNL d   1      54.159  16.795   3.269 +0.00 +0.10    +0.473    51.719
ATOM     23  O   UNL d   1      55.225  15.840   2.850 +0.00 -0.04    -0.228    51.719
ATOM     24  O   UNL d   1      54.108  17.094   4.832 +0.00 -0.07    -0.303    51.719
ATOM     25  H   UNL d   1      54.910  17.625   5.071 +0.00 +0.05    +0.222    51.719
ATOM     26  O   UNL d   1      52.651  16.342   2.969 +0.00 -0.07    -0.303    51.719
ATOM     27  H   UNL d   1      52.160  17.096   2.582 +0.00 +0.06    +0.222    51.719
ATOM     28  O   UNL d   1      51.529  23.046   3.348 -0.18 -0.34    -0.278    51.719
ATOM     29  P   UNL d   1      50.086  22.550   3.806 -0.20 +0.53    +0.473    51.719
ATOM     30  O   UNL d   1      49.977  21.102   4.121 -0.15 -0.24    -0.228    51.719
ATOM     31  O   UNL d   1      49.803  23.577   5.000 -0.69 -0.39    -0.303    51.719
ATOM     32  H   UNL d   1      50.412  23.367   5.745 -0.04 +0.26    +0.222    51.719
ATOM     33  O   UNL d   1      49.156  23.104   2.638 -0.35 -0.35    -0.303    51.719
ATOM     34  H   UNL d   1      49.597  22.935   1.769 +0.07 +0.19    +0.222    51.719
ATOM     35  O   UNL d   1      51.559  18.801   1.491 +0.00 -0.10    -0.278    51.719
ATOM     36  P   UNL d   1      50.442  18.329   2.528 -0.02 +0.25    +0.473    51.719
ATOM     37  O   UNL d   1      50.845  18.360   3.968 -0.04 -0.12    -0.228    51.719
ATOM     38  O   UNL d   1      49.231  19.297   2.165 -0.58 -0.29    -0.303    51.719
ATOM     39  H   UNL d   1      49.537  20.228   2.218 +0.03 +0.23    +0.222    51.719
ATOM     40  O   UNL d   1      49.999  16.922   1.933 +0.00 -0.11    -0.303    51.719
ATOM     41  H   UNL d   1      50.649  16.215   2.145 +0.01 +0.06    +0.222    51.719
ATOM     42  O   UNL d   1      51.471  21.639   0.838 -0.04 -0.14    -0.278    51.719
ATOM     43  P   UNL d   1      50.134  21.222   0.073 -0.05 +0.20    +0.473    51.719
ATOM     44  O   UNL d   1      48.842  21.443   0.779 -0.14 -0.15    -0.228    51.719
ATOM     45  O   UNL d   1      50.264  22.003  -1.307 -0.08 -0.08    -0.303    51.719
ATOM     46  H   UNL d   1      49.520  22.624  -1.439 -0.33 +0.02    +0.222    51.719
ATOM     47  O   UNL d   1      50.427  19.712  -0.378 -0.01 -0.10    -0.303    51.719
ATOM     48  H   UNL d   1      50.164  19.103   0.343 +0.02 +0.09    +0.222    51.719
TER
ENDMDL
MODEL       21
USER    Run = 21
USER    Cluster Rank = 18
USER    Number of conformations in this cluster = 1
USER  
USER    RMSD from reference structure       = 41.483 A
USER  
USER    Estimated Free Energy of Binding    =   +3.37 kcal/mol  [=(1)+(2)+(3)-(4)]
USER    
USER    (1) Final Intermolecular Energy     =   -3.79 kcal/mol
USER        vdW + Hbond + desolv Energy     =   -3.79 kcal/mol
USER        Electrostatic Energy            =   -0.00 kcal/mol
USER    (2) Final Total Internal Energy     =  -14.30 kcal/mol
USER    (3) Torsional Free Energy           =   +7.16 kcal/mol
USER    (4) Unbound System's Energy  [=(2)] =  -14.30 kcal/mol
USER    
USER    
USER  
USER    DPF = D:/Protein_go_brrr/autodock/final/2DN3/IHP/dock.dpf
USER    NEWDPF move	IHP_ideal_opt.pdbqt
USER    NEWDPF about	0.035000 0.082000 -0.065000
USER    NEWDPF tran0	26.338987 36.909372 -3.463618
USER    NEWDPF axisangle0	-0.916440 0.360861 -0.172966 171.885238
USER    NEWDPF quaternion0	-0.914143 0.359957 -0.172533 0.070755
USER    NEWDPF dihe0	76.89 126.36 69.82 103.23 -12.89 -141.87 -122.80 17.39 118.01 -25.30 1.52 -168.22 -73.83 -76.76 -42.19 -8.38 104.67 -33.62 -151.05 -15.12 14.35 -21.74 -25.15 176.94 
USER  
USER                              x       y       z    vdW   Elec        q     RMS 
ATOM      1  C   UNL d   1      28.008  36.564  -3.745 -0.06 +0.02    +0.194    41.483
ATOM      2  C   UNL d   1      27.609  38.036  -3.863 -0.13 +0.02    +0.194    41.483
ATOM      3  C   UNL d   1      26.292  38.207  -4.624 -0.18 +0.02    +0.194    41.483
ATOM      4  C   UNL d   1      25.161  37.344  -4.069 -0.14 +0.01    +0.194    41.483
ATOM      5  C   UNL d   1      25.549  35.891  -3.827 -0.18 -0.00    +0.194    41.483
ATOM      6  C   UNL d   1      26.896  35.720  -3.121 -0.11 +0.01    +0.194    41.483
ATOM      7  O   UNL d   1      29.144  36.478  -2.882 -0.02 -0.04    -0.278    41.483
ATOM      8  P   UNL d   1      28.895  36.377  -1.307 -0.04 +0.09    +0.473    41.483
ATOM      9  O   UNL d   1      27.577  36.889  -0.843 -0.14 -0.03    -0.228    41.483
ATOM     10  O   UNL d   1      29.121  34.833  -0.977 -0.03 -0.11    -0.303    41.483
ATOM     11  H   UNL d   1      28.315  34.330  -1.199 +0.05 +0.07    +0.222    41.483
ATOM     12  O   UNL d   1      30.172  37.049  -0.643 -0.01 -0.06    -0.303    41.483
ATOM     13  H   UNL d   1      30.125  38.032  -0.622 +0.03 +0.04    +0.222    41.483
ATOM     14  O   UNL d   1      27.451  38.584  -2.548 -0.15 -0.03    -0.278    41.483
ATOM     15  P   UNL d   1      28.458  39.759  -2.137 -0.05 +0.07    +0.473    41.483
ATOM     16  O   UNL d   1      29.737  39.849  -2.909 -0.03 -0.04    -0.228    41.483
ATOM     17  O   UNL d   1      27.576  41.081  -2.248 -0.10 -0.06    -0.303    41.483
ATOM     18  H   UNL d   1      26.845  40.964  -2.885 +0.07 +0.04    +0.222    41.483
ATOM     19  O   UNL d   1      28.617  39.612  -0.561 -0.09 -0.05    -0.303    41.483
ATOM     20  H   UNL d   1      28.726  38.681  -0.295 +0.05 +0.03    +0.222    41.483
ATOM     21  O   UNL d   1      27.271  34.353  -3.276 -0.02 -0.01    -0.278    41.483
ATOM     22  P   UNL d   1      26.782  33.272  -2.209 -0.03 +0.03    +0.473    41.483
ATOM     23  O   UNL d   1      26.176  33.761  -0.937 -0.16 -0.02    -0.228    41.483
ATOM     24  O   UNL d   1      25.829  32.352  -3.092 -0.08 +0.07    -0.303    41.483
ATOM     25  H   UNL d   1      24.959  32.815  -3.191 +0.09 -0.07    +0.222    41.483
ATOM     26  O   UNL d   1      28.085  32.350  -2.059 -0.03 -0.08    -0.303    41.483
ATOM     27  H   UNL d   1      28.877  32.922  -1.992 +0.03 +0.09    +0.222    41.483
ATOM     28  O   UNL d   1      25.865  39.551  -4.444 -0.21 -0.04    -0.278    41.483
ATOM     29  P   UNL d   1      26.342  40.688  -5.452 -0.10 +0.07    +0.473    41.483
ATOM     30  O   UNL d   1      27.716  40.529  -5.993 -0.03 -0.03    -0.228    41.483
ATOM     31  O   UNL d   1      25.138  40.651  -6.505 -0.09 -0.05    -0.303    41.483
ATOM     32  H   UNL d   1      25.205  39.819  -7.029 +0.05 +0.03    +0.222    41.483
ATOM     33  O   UNL d   1      26.044  42.015  -4.624 -0.14 -0.05    -0.303    41.483
ATOM     34  H   UNL d   1      26.744  42.127  -3.934 +0.06 +0.04    +0.222    41.483
ATOM     35  O   UNL d   1      24.550  35.363  -2.958 -0.23 +0.03    -0.278    41.483
ATOM     36  P   UNL d   1      23.435  34.372  -3.523 -0.23 -0.08    +0.473    41.483
ATOM     37  O   UNL d   1      22.927  33.353  -2.553 -0.44 +0.07    -0.228    41.483
ATOM     38  O   UNL d   1      22.326  35.391  -4.042 -0.81 -0.01    -0.303    41.483
ATOM     39  H   UNL d   1      22.758  36.087  -4.583 +0.10 -0.00    +0.222    41.483
ATOM     40  O   UNL d   1      24.109  33.827  -4.856 -0.11 +0.08    -0.303    41.483
ATOM     41  H   UNL d   1      24.208  34.536  -5.530 +0.07 -0.03    +0.222    41.483
ATOM     42  O   UNL d   1      24.120  37.344  -5.051 -0.18 -0.01    -0.278    41.483
ATOM     43  P   UNL d   1      24.392  36.652  -6.463 -0.04 +0.02    +0.473    41.483
ATOM     44  O   UNL d   1      25.610  35.804  -6.588 -0.02 +0.00    -0.228    41.483
ATOM     45  O   UNL d   1      23.029  35.879  -6.740 -0.05 -0.01    -0.303    41.483
ATOM     46  H   UNL d   1      22.930  35.105  -6.151 +0.09 -0.01    +0.222    41.483
ATOM     47  O   UNL d   1      24.289  37.874  -7.495 -0.04 -0.04    -0.303    41.483
ATOM     48  H   UNL d   1      24.265  38.716  -6.996 +0.06 +0.03    +0.222    41.483
TER
ENDMDL
MODEL       14
USER    Run = 14
USER    Cluster Rank = 19
USER    Number of conformations in this cluster = 1
USER  
USER    RMSD from reference structure       = 58.587 A
USER  
USER    Estimated Free Energy of Binding    =   +3.39 kcal/mol  [=(1)+(2)+(3)-(4)]
USER    
USER    (1) Final Intermolecular Energy     =   -3.77 kcal/mol
USER        vdW + Hbond + desolv Energy     =   -3.51 kcal/mol
USER        Electrostatic Energy            =   -0.25 kcal/mol
USER    (2) Final Total Internal Energy     =  -13.03 kcal/mol
USER    (3) Torsional Free Energy           =   +7.16 kcal/mol
USER    (4) Unbound System's Energy  [=(2)] =  -13.03 kcal/mol
USER    
USER    
USER  
USER    DPF = D:/Protein_go_brrr/autodock/final/2DN3/IHP/dock.dpf
USER    NEWDPF move	IHP_ideal_opt.pdbqt
USER    NEWDPF about	0.035000 0.082000 -0.065000
USER    NEWDPF tran0	47.155502 36.949936 20.267519
USER    NEWDPF axisangle0	-0.320384 -0.945750 -0.053963 -84.084567
USER    NEWDPF quaternion0	-0.214554 -0.633349 -0.036138 -0.742651
USER    NEWDPF dihe0	130.45 158.50 57.94 10.05 171.98 51.72 -115.58 12.85 89.25 22.83 25.77 -109.15 -39.46 -180.00 178.31 -136.31 -132.26 -72.22 38.96 -28.04 41.18 -41.61 -55.48 32.68 
USER  
USER                              x       y       z    vdW   Elec        q     RMS 
ATOM      1  C   UNL d   1      46.379  36.708  21.792 -0.13 -0.03    +0.194    58.587
ATOM      2  C   UNL d   1      46.215  35.573  20.779 -0.14 +0.01    +0.194    58.587
ATOM      3  C   UNL d   1      45.923  36.105  19.374 -0.17 +0.01    +0.194    58.587
ATOM      4  C   UNL d   1      46.929  37.155  18.908 -0.09 +0.01    +0.194    58.587
ATOM      5  C   UNL d   1      47.209  38.245  19.934 -0.07 +0.00    +0.194    58.587
ATOM      6  C   UNL d   1      47.441  37.716  21.351 -0.05 -0.01    +0.194    58.587
ATOM      7  O   UNL d   1      46.817  36.141  23.029 -0.08 +0.04    -0.278    58.587
ATOM      8  P   UNL d   1      45.718  35.535  24.017 -0.06 -0.14    +0.473    58.587
ATOM      9  O   UNL d   1      44.363  35.366  23.427 -0.29 +0.12    -0.228    58.587
ATOM     10  O   UNL d   1      46.362  34.163  24.517 -0.11 -0.06    -0.303    58.587
ATOM     11  H   UNL d   1      46.974  33.823  23.838 +0.05 +0.07    +0.222    58.587
ATOM     12  O   UNL d   1      45.798  36.435  25.325 -0.07 +0.15    -0.303    58.587
ATOM     13  H   UNL d   1      44.987  36.972  25.473 -0.46 -0.28    +0.222    58.587
ATOM     14  O   UNL d   1      47.427  34.808  20.734 -0.03 -0.04    -0.278    58.587
ATOM     15  P   UNL d   1      47.409  33.396  21.488 -0.06 +0.15    +0.473    58.587
ATOM     16  O   UNL d   1      48.465  33.175  22.526 -0.04 -0.08    -0.228    58.587
ATOM     17  O   UNL d   1      45.933  33.289  22.077 -0.05 -0.13    -0.303    58.587
ATOM     18  H   UNL d   1      45.618  34.157  22.395 +0.08 +0.05    +0.222    58.587
ATOM     19  O   UNL d   1      47.364  32.321  20.316 -0.06 -0.12    -0.303    58.587
ATOM     20  H   UNL d   1      46.665  32.525  19.667 +0.07 +0.08    +0.222    58.587
ATOM     21  O   UNL d   1      47.344  38.835  22.229 -0.04 +0.03    -0.278    58.587
ATOM     22  P   UNL d   1      48.362  40.054  22.074 +0.01 -0.01    +0.473    58.587
ATOM     23  O   UNL d   1      48.695  40.853  23.289 -0.00 +0.00    -0.228    58.587
ATOM     24  O   UNL d   1      49.608  39.350  21.377 +0.00 -0.01    -0.303    58.587
ATOM     25  H   UNL d   1      49.625  39.627  20.425 +0.01 +0.01    +0.222    58.587
ATOM     26  O   UNL d   1      47.714  40.866  20.854 -0.02 +0.01    -0.303    58.587
ATOM     27  H   UNL d   1      48.373  40.945  20.134 +0.04 -0.00    +0.222    58.587
ATOM     28  O   UNL d   1      46.063  35.019  18.467 -0.11 -0.04    -0.278    58.587
ATOM     29  P   UNL d   1      45.014  33.821  18.479 -0.14 +0.09    +0.473    58.587
ATOM     30  O   UNL d   1      45.459  32.573  17.807 -0.05 -0.06    -0.228    58.587
ATOM     31  O   UNL d   1      44.708  33.733  20.047 -0.18 -0.07    -0.303    58.587
ATOM     32  H   UNL d   1      45.537  33.476  20.514 +0.08 +0.07    +0.222    58.587
ATOM     33  O   UNL d   1      43.703  34.519  17.904 -0.22 -0.04    -0.303    58.587
ATOM     34  H   UNL d   1      43.827  34.689  16.938 +0.17 +0.04    +0.222    58.587
ATOM     35  O   UNL d   1      48.422  38.868  19.515 -0.02 -0.01    -0.278    58.587
ATOM     36  P   UNL d   1      48.425  39.867  18.272 -0.04 +0.01    +0.473    58.587
ATOM     37  O   UNL d   1      48.622  39.230  16.933 -0.10 -0.01    -0.228    58.587
ATOM     38  O   UNL d   1      47.026  40.608  18.445 -0.12 +0.00    -0.303    58.587
ATOM     39  H   UNL d   1      46.715  40.495  19.369 +0.07 -0.00    +0.222    58.587
ATOM     40  O   UNL d   1      49.493  40.959  18.716 -0.02 -0.00    -0.303    58.587
ATOM     41  H   UNL d   1      49.649  40.942  19.686 +0.02 +0.00    +0.222    58.587
ATOM     42  O   UNL d   1      46.359  37.794  17.760 -0.14 -0.03    -0.278    58.587
ATOM     43  P   UNL d   1      46.417  37.046  16.352 -0.20 +0.07    +0.473    58.587
ATOM     44  O   UNL d   1      47.523  36.072  16.138 -0.18 -0.04    -0.228    58.587
ATOM     45  O   UNL d   1      44.961  36.416  16.231 -0.18 -0.06    -0.303    58.587
ATOM     46  H   UNL d   1      44.699  35.960  17.055 +0.12 +0.04    +0.222    58.587
ATOM     47  O   UNL d   1      46.341  38.249  15.295 -0.49 -0.05    -0.303    58.587
ATOM     48  H   UNL d   1      47.176  38.760  15.327 -0.05 +0.00    +0.222    58.587
TER
ENDMDL
MODEL       87
USER    Run = 87
USER    Cluster Rank = 20
USER    Number of conformations in this cluster = 1
USER  
USER    RMSD from reference structure       = 58.344 A
USER  
USER    Estimated Free Energy of Binding    =   +3.51 kcal/mol  [=(1)+(2)+(3)-(4)]
USER    
USER    (1) Final Intermolecular Energy     =   -3.64 kcal/mol
USER        vdW + Hbond + desolv Energy     =   -3.07 kcal/mol
USER        Electrostatic Energy            =   -0.58 kcal/mol
USER    (2) Final Total Internal Energy     =  -13.21 kcal/mol
USER    (3) Torsional Free Energy           =   +7.16 kcal/mol
USER    (4) Unbound System's Energy  [=(2)] =  -13.21 kcal/mol
USER    
USER    
USER  
USER    DPF = D:/Protein_go_brrr/autodock/final/2DN3/IHP/dock.dpf
USER    NEWDPF move	IHP_ideal_opt.pdbqt
USER    NEWDPF about	0.035000 0.082000 -0.065000
USER    NEWDPF tran0	54.447202 32.954356 2.120802
USER    NEWDPF axisangle0	0.545188 0.183151 -0.818062 -140.813496
USER    NEWDPF quaternion0	0.513620 0.172546 -0.770694 -0.335341
USER    NEWDPF dihe0	92.61 42.74 54.32 16.97 -9.23 180.00 -55.29 26.54 113.59 -47.00 163.21 98.76 -170.93 176.15 -179.88 177.15 168.75 14.64 38.52 -12.19 173.85 -13.91 22.00 -178.10 
USER  
USER                              x       y       z    vdW   Elec        q     RMS 
ATOM      1  C   UNL d   1      52.986  32.681   1.241 -0.02 +0.04    +0.194    58.344
ATOM      2  C   UNL d   1      52.986  33.906   2.158 -0.02 +0.04    +0.194    58.344
ATOM      3  C   UNL d   1      53.625  33.598   3.514 -0.04 +0.02    +0.194    58.344
ATOM      4  C   UNL d   1      55.009  32.964   3.397 +0.00 +0.02    +0.194    58.344
ATOM      5  C   UNL d   1      55.081  31.810   2.405 -0.00 +0.04    +0.194    58.344
ATOM      6  C   UNL d   1      54.389  32.096   1.071 -0.00 +0.04    +0.194    58.344
ATOM      7  O   UNL d   1      52.536  33.093  -0.052 -0.01 -0.05    -0.278    58.344
ATOM      8  P   UNL d   1      50.963  33.171  -0.320 -0.01 +0.09    +0.473    58.344
ATOM      9  O   UNL d   1      50.462  32.280  -1.402 -0.04 -0.04    -0.228    58.344
ATOM     10  O   UNL d   1      50.313  32.858   1.103 -0.11 -0.08    -0.303    58.344
ATOM     11  H   UNL d   1      50.522  31.941   1.363 +0.09 +0.06    +0.222    58.344
ATOM     12  O   UNL d   1      50.651  34.719  -0.495 -0.01 -0.05    -0.303    58.344
ATOM     13  H   UNL d   1      51.443  35.289  -0.369 +0.02 +0.04    +0.222    58.344
ATOM     14  O   UNL d   1      53.730  34.958   1.531 +0.00 -0.04    -0.278    58.344
ATOM     15  P   UNL d   1      52.933  36.312   1.221 +0.01 +0.08    +0.473    58.344
ATOM     16  O   UNL d   1      53.019  36.838  -0.177 -0.00 -0.03    -0.228    58.344
ATOM     17  O   UNL d   1      51.438  35.992   1.669 -0.03 -0.09    -0.303    58.344
ATOM     18  H   UNL d   1      51.174  35.092   1.397 +0.04 +0.06    +0.222    58.344
ATOM     19  O   UNL d   1      53.400  37.317   2.362 +0.00 -0.05    -0.303    58.344
ATOM     20  H   UNL d   1      53.435  36.882   3.234 +0.02 +0.04    +0.222    58.344
ATOM     21  O   UNL d   1      54.241  30.843   0.406 -0.02 -0.08    -0.278    58.344
ATOM     22  P   UNL d   1      53.183  29.779   0.948 -0.06 +0.28    +0.473    58.344
ATOM     23  O   UNL d   1      53.476  28.330   0.749 -0.61 -0.21    -0.228    58.344
ATOM     24  O   UNL d   1      53.021  30.226   2.467 -0.28 -0.19    -0.303    58.344
ATOM     25  H   UNL d   1      53.827  29.932   2.962 +0.05 +0.16    +0.222    58.344
ATOM     26  O   UNL d   1      51.820  30.316   0.297 -0.12 -0.12    -0.303    58.344
ATOM     27  H   UNL d   1      52.022  31.060  -0.306 +0.06 +0.06    +0.222    58.344
ATOM     28  O   UNL d   1      53.832  34.837   4.180 -0.02 -0.03    -0.278    58.344
ATOM     29  P   UNL d   1      52.772  35.364   5.246 -0.11 +0.10    +0.473    58.344
ATOM     30  O   UNL d   1      53.322  36.227   6.323 -0.12 -0.03    -0.228    58.344
ATOM     31  O   UNL d   1      51.695  36.025   4.264 -0.15 -0.19    -0.303    58.344
ATOM     32  H   UNL d   1      52.031  35.961   3.340 +0.04 +0.08    +0.222    58.344
ATOM     33  O   UNL d   1      52.055  34.016   5.699 -0.76 +0.07    -0.303    58.344
ATOM     34  H   UNL d   1      52.582  33.601   6.425 -0.35 -0.29    +0.222    58.344
ATOM     35  O   UNL d   1      56.468  31.625   2.127 +0.00 -0.05    -0.278    58.344
ATOM     36  P   UNL d   1      57.017  30.192   1.691 +0.01 +0.12    +0.473    58.344
ATOM     37  O   UNL d   1      58.403  29.867   2.148 +0.00 -0.04    -0.228    58.344
ATOM     38  O   UNL d   1      55.893  29.223   2.268 -0.04 -0.15    -0.303    58.344
ATOM     39  H   UNL d   1      55.009  29.604   2.073 +0.03 +0.13    +0.222    58.344
ATOM     40  O   UNL d   1      56.754  30.191   0.122 +0.00 -0.07    -0.303    58.344
ATOM     41  H   UNL d   1      55.858  29.851  -0.097 +0.02 +0.06    +0.222    58.344
ATOM     42  O   UNL d   1      55.332  32.432   4.686 -0.01 -0.01    -0.278    58.344
ATOM     43  P   UNL d   1      54.547  31.144   5.207 -0.05 +0.02    +0.473    58.344
ATOM     44  O   UNL d   1      54.659  29.898   4.398 -0.12 -0.11    -0.228    58.344
ATOM     45  O   UNL d   1      55.071  30.999   6.703 -0.04 +0.03    -0.303    58.344
ATOM     46  H   UNL d   1      54.507  31.495   7.329 +0.01 -0.10    +0.222    58.344
ATOM     47  O   UNL d   1      53.058  31.690   5.435 -0.14 +0.15    -0.303    58.344
ATOM     48  H   UNL d   1      53.006  32.133   6.307 -0.17 -0.30    +0.222    58.344
TER
ENDMDL
MODEL        6
USER    Run = 6
USER    Cluster Rank = 21
USER    Number of conformations in this cluster = 1
USER  
USER    RMSD from reference structure       = 61.538 A
USER  
USER    Estimated Free Energy of Binding    =   +3.53 kcal/mol  [=(1)+(2)+(3)-(4)]
USER    
USER    (1) Final Intermolecular Energy     =   -3.63 kcal/mol
USER        vdW + Hbond + desolv Energy     =   -3.56 kcal/mol
USER        Electrostatic Energy            =   -0.06 kcal/mol
USER    (2) Final Total Internal Energy     =  -14.24 kcal/mol
USER    (3) Torsional Free Energy           =   +7.16 kcal/mol
USER    (4) Unbound System's Energy  [=(2)] =  -14.24 kcal/mol
USER    
USER    
USER  
USER    DPF = D:/Protein_go_brrr/autodock/final/2DN3/IHP/dock.dpf
USER    NEWDPF move	IHP_ideal_opt.pdbqt
USER    NEWDPF about	0.035000 0.082000 -0.065000
USER    NEWDPF tran0	49.397773 40.154150 16.694361
USER    NEWDPF axisangle0	-0.842796 -0.456149 0.285697 -120.518328
USER    NEWDPF quaternion0	-0.731781 -0.396065 0.248064 -0.496078
USER    NEWDPF dihe0	-25.45 112.16 -31.29 135.14 40.29 179.33 -84.63 -22.06 99.29 -47.12 37.24 176.97 -30.35 54.18 163.94 -0.22 -120.79 140.43 -15.07 25.41 -11.38 -5.50 -16.24 -4.98 
USER  
USER                              x       y       z    vdW   Elec        q     RMS 
ATOM      1  C   UNL d   1      49.209  41.780  17.247 -0.10 -0.01    +0.194    61.538
ATOM      2  C   UNL d   1      48.517  40.710  18.093 -0.10 -0.00    +0.194    61.538
ATOM      3  C   UNL d   1      47.812  39.668  17.223 -0.02 +0.00    +0.194    61.538
ATOM      4  C   UNL d   1      48.720  39.062  16.156 -0.14 +0.00    +0.194    61.538
ATOM      5  C   UNL d   1      49.518  40.089  15.363 -0.14 -0.01    +0.194    61.538
ATOM      6  C   UNL d   1      50.172  41.167  16.229 -0.07 -0.00    +0.194    61.538
ATOM      7  O   UNL d   1      49.982  42.608  18.119 -0.02 +0.01    -0.278    61.538
ATOM      8  P   UNL d   1      49.956  44.188  17.885 -0.03 -0.02    +0.473    61.538
ATOM      9  O   UNL d   1      48.782  44.695  17.125 -0.13 +0.03    -0.228    61.538
ATOM     10  O   UNL d   1      50.064  44.799  19.355 -0.01 +0.00    -0.303    61.538
ATOM     11  H   UNL d   1      50.108  45.772  19.303 +0.02 +0.00    +0.222    61.538
ATOM     12  O   UNL d   1      51.381  44.538  17.275 -0.01 +0.01    -0.303    61.538
ATOM     13  H   UNL d   1      51.519  44.163  16.376 +0.03 -0.01    +0.222    61.538
ATOM     14  O   UNL d   1      49.498  40.044  18.898 -0.01 -0.01    -0.278    61.538
ATOM     15  P   UNL d   1      48.966  39.323  20.224 +0.01 +0.01    +0.473    61.538
ATOM     16  O   UNL d   1      48.977  37.826  20.225 -0.01 -0.01    -0.228    61.538
ATOM     17  O   UNL d   1      49.856  39.947  21.389 +0.00 -0.01    -0.303    61.538
ATOM     18  H   UNL d   1      50.277  39.247  21.924 +0.00 +0.01    +0.222    61.538
ATOM     19  O   UNL d   1      47.553  39.998  20.504 -0.03 +0.01    -0.303    61.538
ATOM     20  H   UNL d   1      46.869  39.670  19.892 +0.07 -0.00    +0.222    61.538
ATOM     21  O   UNL d   1      50.574  42.215  15.349 -0.05 +0.02    -0.278    61.538
ATOM     22  P   UNL d   1      52.125  42.523  15.141 +0.02 -0.01    +0.473    61.538
ATOM     23  O   UNL d   1      52.506  43.806  14.481 -0.02 +0.01    -0.228    61.538
ATOM     24  O   UNL d   1      52.695  42.335  16.615 +0.00 -0.00    -0.303    61.538
ATOM     25  H   UNL d   1      51.958  42.508  17.255 +0.02 +0.00    +0.222    61.538
ATOM     26  O   UNL d   1      52.628  41.184  14.417 -0.01 +0.01    -0.303    61.538
ATOM     27  H   UNL d   1      51.858  40.609  14.234 +0.05 -0.01    +0.222    61.538
ATOM     28  O   UNL d   1      47.445  38.583  18.066 -0.08 -0.01    -0.278    61.538
ATOM     29  P   UNL d   1      45.927  38.385  18.506 -0.17 +0.03    +0.473    61.538
ATOM     30  O   UNL d   1      45.099  39.618  18.527 -0.29 -0.01    -0.228    61.538
ATOM     31  O   UNL d   1      45.489  37.233  17.485 -0.21 -0.04    -0.303    61.538
ATOM     32  H   UNL d   1      45.979  37.360  16.640 +0.12 +0.04    +0.222    61.538
ATOM     33  O   UNL d   1      46.078  37.596  19.881 -0.12 +0.00    -0.303    61.538
ATOM     34  H   UNL d   1      46.868  37.942  20.365 +0.06 -0.00    +0.222    61.538
ATOM     35  O   UNL d   1      50.570  39.360  14.733 -0.08 +0.00    -0.278    61.538
ATOM     36  P   UNL d   1      50.620  39.230  13.144 -0.18 -0.02    +0.473    61.538
ATOM     37  O   UNL d   1      49.656  38.254  12.547 -0.93 -0.02    -0.228    61.538
ATOM     38  O   UNL d   1      50.392  40.738  12.686 -0.19 +0.07    -0.303    61.538
ATOM     39  H   UNL d   1      50.743  41.340  13.377 +0.08 -0.03    +0.222    61.538
ATOM     40  O   UNL d   1      52.166  38.976  12.872 -0.07 -0.00    -0.303    61.538
ATOM     41  H   UNL d   1      52.659  39.819  12.760 +0.06 -0.01    +0.222    61.538
ATOM     42  O   UNL d   1      47.870  38.380  15.227 -0.18 +0.00    -0.278    61.538
ATOM     43  P   UNL d   1      48.003  36.797  15.078 -0.25 +0.07    +0.473    61.538
ATOM     44  O   UNL d   1      47.206  36.139  14.005 -0.51 -0.08    -0.228    61.538
ATOM     45  O   UNL d   1      49.575  36.590  14.941 -0.03 -0.05    -0.303    61.538
ATOM     46  H   UNL d   1      49.989  37.319  14.437 +0.08 +0.03    +0.222    61.538
ATOM     47  O   UNL d   1      47.732  36.266  16.566 -0.10 -0.04    -0.303    61.538
ATOM     48  H   UNL d   1      47.627  37.032  17.168 +0.08 +0.02    +0.222    61.538
TER
ENDMDL
MODEL       85
USER    Run = 85
USER    Cluster Rank = 22
USER    Number of conformations in this cluster = 2
USER  
USER    RMSD from reference structure       = 25.644 A
USER  
USER    Estimated Free Energy of Binding    =   +3.54 kcal/mol  [=(1)+(2)+(3)-(4)]
USER    
USER    (1) Final Intermolecular Energy     =   -3.62 kcal/mol
USER        vdW + Hbond + desolv Energy     =   -3.41 kcal/mol
USER        Electrostatic Energy            =   -0.21 kcal/mol
USER    (2) Final Total Internal Energy     =  -13.86 kcal/mol
USER    (3) Torsional Free Energy           =   +7.16 kcal/mol
USER    (4) Unbound System's Energy  [=(2)] =  -13.86 kcal/mol
USER    
USER    
USER  
USER    DPF = D:/Protein_go_brrr/autodock/final/2DN3/IHP/dock.dpf
USER    NEWDPF move	IHP_ideal_opt.pdbqt
USER    NEWDPF about	0.035000 0.082000 -0.065000
USER    NEWDPF tran0	20.997033 20.079360 5.623210
USER    NEWDPF axisangle0	-0.204169 0.697899 -0.686478 137.339213
USER    NEWDPF quaternion0	-0.190183 0.650092 -0.639453 0.363745
USER    NEWDPF dihe0	118.39 36.92 45.97 32.44 -15.75 160.31 -39.22 -151.62 148.57 -17.13 -113.24 179.12 -180.00 179.95 -177.13 -36.90 164.48 -5.53 37.82 -4.45 -179.36 135.73 -179.08 146.49 
USER  
USER                              x       y       z    vdW   Elec        q     RMS 
ATOM      1  C   UNL d   1      20.617  19.488   7.201 -0.08 +0.05    +0.194    25.644
ATOM      2  C   UNL d   1      22.102  19.485   6.834 -0.02 +0.03    +0.194    25.644
ATOM      3  C   UNL d   1      22.332  18.984   5.407 -0.01 +0.03    +0.194    25.644
ATOM      4  C   UNL d   1      21.482  19.712   4.369 -0.03 +0.03    +0.194    25.644
ATOM      5  C   UNL d   1      20.013  19.839   4.749 -0.11 +0.04    +0.194    25.644
ATOM      6  C   UNL d   1      19.783  20.282   6.195 -0.15 +0.05    +0.194    25.644
ATOM      7  O   UNL d   1      20.473  20.126   8.472 -0.11 -0.08    -0.278    25.644
ATOM      8  P   UNL d   1      20.680  19.248   9.791 -0.07 +0.19    +0.473    25.644
ATOM      9  O   UNL d   1      19.578  19.335  10.787 -0.38 -0.12    -0.228    25.644
ATOM     10  O   UNL d   1      20.911  17.769   9.238 -0.64 -0.18    -0.303    25.644
ATOM     11  H   UNL d   1      20.314  17.605   8.484 +0.05 +0.12    +0.222    25.644
ATOM     12  O   UNL d   1      22.127  19.634  10.321 -0.07 -0.08    -0.303    25.644
ATOM     13  H   UNL d   1      22.629  20.201   9.693 +0.08 +0.04    +0.222    25.644
ATOM     14  O   UNL d   1      22.611  20.821   6.936 -0.02 -0.04    -0.278    25.644
ATOM     15  P   UNL d   1      23.917  21.023   7.840 -0.00 +0.06    +0.473    25.644
ATOM     16  O   UNL d   1      23.819  22.026   8.947 -0.09 -0.03    -0.228    25.644
ATOM     17  O   UNL d   1      24.256  19.557   8.364 -0.01 -0.04    -0.303    25.644
ATOM     18  H   UNL d   1      23.466  19.127   8.743 +0.04 +0.04    +0.222    25.644
ATOM     19  O   UNL d   1      25.090  21.268   6.794 -0.01 -0.03    -0.303    25.644
ATOM     20  H   UNL d   1      24.903  20.843   5.937 +0.02 +0.02    +0.222    25.644
ATOM     21  O   UNL d   1      18.412  20.023   6.492 -0.23 -0.10    -0.278    25.644
ATOM     22  P   UNL d   1      17.942  18.536   6.830 -0.17 +0.31    +0.473    25.644
ATOM     23  O   UNL d   1      16.571  18.120   6.415 -0.69 -0.26    -0.228    25.644
ATOM     24  O   UNL d   1      19.121  17.672   6.201 -0.05 -0.12    -0.303    25.644
ATOM     25  H   UNL d   1      18.951  17.578   5.230 +0.06 +0.07    +0.222    25.644
ATOM     26  O   UNL d   1      18.261  18.442   8.398 -0.20 -0.24    -0.303    25.644
ATOM     27  H   UNL d   1      18.835  19.192   8.655 +0.11 +0.12    +0.222    25.644
ATOM     28  O   UNL d   1      23.681  19.275   5.063 -0.00 -0.03    -0.278    25.644
ATOM     29  P   UNL d   1      24.008  20.335   3.920 +0.01 +0.03    +0.473    25.644
ATOM     30  O   UNL d   1      23.522  19.983   2.561 -0.00 -0.01    -0.228    25.644
ATOM     31  O   UNL d   1      23.405  21.659   4.586 -0.01 -0.03    -0.303    25.644
ATOM     32  H   UNL d   1      23.213  21.474   5.534 +0.02 +0.03    +0.222    25.644
ATOM     33  O   UNL d   1      25.578  20.539   4.092 -0.00 -0.01    -0.303    25.644
ATOM     34  H   UNL d   1      25.738  21.304   4.698 +0.01 +0.01    +0.222    25.644
ATOM     35  O   UNL d   1      19.482  20.862   3.908 -0.14 -0.07    -0.278    25.644
ATOM     36  P   UNL d   1      20.247  22.253   3.753 -0.13 +0.08    +0.473    25.644
ATOM     37  O   UNL d   1      19.380  23.435   3.454 -0.30 -0.03    -0.228    25.644
ATOM     38  O   UNL d   1      21.031  22.350   5.136 -0.08 -0.05    -0.303    25.644
ATOM     39  H   UNL d   1      21.826  21.776   5.095 +0.05 +0.03    +0.222    25.644
ATOM     40  O   UNL d   1      21.380  21.902   2.694 -0.05 -0.03    -0.303    25.644
ATOM     41  H   UNL d   1      21.963  21.177   3.011 +0.04 +0.02    +0.222    25.644
ATOM     42  O   UNL d   1      21.541  18.937   3.167 -0.02 -0.03    -0.278    25.644
ATOM     43  P   UNL d   1      21.600  17.347   3.277 +0.00 +0.05    +0.473    25.644
ATOM     44  O   UNL d   1      20.746  16.698   4.310 -0.01 -0.03    -0.228    25.644
ATOM     45  O   UNL d   1      21.286  16.883   1.787 -0.01 -0.02    -0.303    25.644
ATOM     46  H   UNL d   1      21.387  15.915   1.685 +0.01 +0.01    +0.222    25.644
ATOM     47  O   UNL d   1      23.170  17.045   3.388 +0.00 -0.02    -0.303    25.644
ATOM     48  H   UNL d   1      23.666  17.888   3.329 +0.00 +0.01    +0.222    25.644
TER
ENDMDL
MODEL       73
USER    Run = 73
USER    Cluster Rank = 23
USER    Number of conformations in this cluster = 1
USER  
USER    RMSD from reference structure       = 36.052 A
USER  
USER    Estimated Free Energy of Binding    =   +3.57 kcal/mol  [=(1)+(2)+(3)-(4)]
USER    
USER    (1) Final Intermolecular Energy     =   -3.58 kcal/mol
USER        vdW + Hbond + desolv Energy     =   -3.27 kcal/mol
USER        Electrostatic Energy            =   -0.32 kcal/mol
USER    (2) Final Total Internal Energy     =  -13.64 kcal/mol
USER    (3) Torsional Free Energy           =   +7.16 kcal/mol
USER    (4) Unbound System's Energy  [=(2)] =  -13.64 kcal/mol
USER    
USER    
USER  
USER    DPF = D:/Protein_go_brrr/autodock/final/2DN3/IHP/dock.dpf
USER    NEWDPF move	IHP_ideal_opt.pdbqt
USER    NEWDPF about	0.035000 0.082000 -0.065000
USER    NEWDPF tran0	22.186831 30.966415 -11.460993
USER    NEWDPF axisangle0	0.119295 0.376212 0.918822 -123.648953
USER    NEWDPF quaternion0	0.105159 0.331632 0.809946 -0.472174
USER    NEWDPF dihe0	-108.67 21.50 94.16 96.81 24.76 180.00 -125.02 -20.96 153.36 -78.97 -35.50 -147.64 -134.93 118.39 172.88 50.43 -137.65 -44.65 34.47 -3.99 -27.87 154.93 4.91 -39.87 
USER  
USER                              x       y       z    vdW   Elec        q     RMS 
ATOM      1  C   UNL d   1      22.520  32.655 -11.606 +0.00 -0.01    +0.194    36.052
ATOM      2  C   UNL d   1      23.564  31.721 -12.219 +0.00 -0.01    +0.194    36.052
ATOM      3  C   UNL d   1      23.865  30.530 -11.306 -0.00 -0.03    +0.194    36.052
ATOM      4  C   UNL d   1      22.611  29.782 -10.861 -0.03 -0.05    +0.194    36.052
ATOM      5  C   UNL d   1      21.497  30.686 -10.349 -0.07 -0.06    +0.194    36.052
ATOM      6  C   UNL d   1      21.239  31.910 -11.230 -0.03 -0.02    +0.194    36.052
ATOM      7  O   UNL d   1      22.170  33.637 -12.584 +0.00 -0.02    -0.278    36.052
ATOM      8  P   UNL d   1      23.040  34.974 -12.662 +0.02 +0.05    +0.473    36.052
ATOM      9  O   UNL d   1      22.653  36.037 -11.695 -0.01 -0.05    -0.228    36.052
ATOM     10  O   UNL d   1      24.542  34.470 -12.474 +0.00 -0.01    -0.303    36.052
ATOM     11  H   UNL d   1      24.947  34.315 -13.348 +0.00 +0.01    +0.222    36.052
ATOM     12  O   UNL d   1      23.020  35.392 -14.195 +0.00 -0.03    -0.303    36.052
ATOM     13  H   UNL d   1      22.844  34.635 -14.799 +0.00 +0.02    +0.222    36.052
ATOM     14  O   UNL d   1      23.070  31.224 -13.469 +0.00 +0.01    -0.278    36.052
ATOM     15  P   UNL d   1      24.031  31.397 -14.738 +0.00 -0.00    +0.473    36.052
ATOM     16  O   UNL d   1      23.582  30.755 -16.013 +0.00 -0.00    -0.228    36.052
ATOM     17  O   UNL d   1      24.217  32.973 -14.872 +0.00 -0.01    -0.303    36.052
ATOM     18  H   UNL d   1      23.701  33.447 -14.192 +0.00 +0.01    +0.222    36.052
ATOM     19  O   UNL d   1      25.465  30.949 -14.214 +0.00 +0.00    -0.303    36.052
ATOM     20  H   UNL d   1      25.404  30.201 -13.592 +0.00 -0.01    +0.222    36.052
ATOM     21  O   UNL d   1      20.442  32.809 -10.462 -0.07 +0.02    -0.278    36.052
ATOM     22  P   UNL d   1      19.115  33.430 -11.096 -0.07 +0.04    +0.473    36.052
ATOM     23  O   UNL d   1      18.598  34.710 -10.533 -0.70 -0.11    -0.228    36.052
ATOM     24  O   UNL d   1      19.487  33.482 -12.642 -0.04 -0.04    -0.303    36.052
ATOM     25  H   UNL d   1      20.426  33.789 -12.724 +0.04 +0.03    +0.222    36.052
ATOM     26  O   UNL d   1      18.112  32.180 -11.038 -0.01 +0.03    -0.303    36.052
ATOM     27  H   UNL d   1      18.543  31.443 -10.561 +0.02 -0.05    +0.222    36.052
ATOM     28  O   UNL d   1      24.617  29.590 -12.062 +0.00 +0.03    -0.278    36.052
ATOM     29  P   UNL d   1      23.885  28.389 -12.810 +0.00 -0.04    +0.473    36.052
ATOM     30  O   UNL d   1      22.457  28.620 -13.147 +0.00 +0.02    -0.228    36.052
ATOM     31  O   UNL d   1      24.893  28.167 -14.033 +0.00 +0.01    -0.303    36.052
ATOM     32  H   UNL d   1      24.781  28.909 -14.671 +0.00 -0.01    +0.222    36.052
ATOM     33  O   UNL d   1      24.210  27.155 -11.858 +0.00 +0.04    -0.303    36.052
ATOM     34  H   UNL d   1      24.172  27.456 -10.917 +0.01 -0.04    +0.222    36.052
ATOM     35  O   UNL d   1      20.312  29.893 -10.373 -0.08 +0.09    -0.278    36.052
ATOM     36  P   UNL d   1      19.305  29.913  -9.137 -0.29 -0.22    +0.473    36.052
ATOM     37  O   UNL d   1      19.525  28.848  -8.109 -0.44 +0.14    -0.228    36.052
ATOM     38  O   UNL d   1      19.489  31.397  -8.590 -0.32 +0.14    -0.303    36.052
ATOM     39  H   UNL d   1      18.922  32.004  -9.113 -0.24 -0.11    +0.222    36.052
ATOM     40  O   UNL d   1      17.886  29.942  -9.854 -0.31 +0.11    -0.303    36.052
ATOM     41  H   UNL d   1      17.367  30.738  -9.603 -0.11 -0.09    +0.222    36.052
ATOM     42  O   UNL d   1      22.998  28.933  -9.775 -0.05 +0.14    -0.278    36.052
ATOM     43  P   UNL d   1      22.200  27.573  -9.536 -0.03 -0.20    +0.473    36.052
ATOM     44  O   UNL d   1      21.099  27.247 -10.485 -0.05 +0.06    -0.228    36.052
ATOM     45  O   UNL d   1      23.364  26.489  -9.493 -0.01 +0.09    -0.303    36.052
ATOM     46  H   UNL d   1      23.360  25.927 -10.293 +0.02 -0.04    +0.222    36.052
ATOM     47  O   UNL d   1      21.778  27.661  -7.992 -0.13 +0.27    -0.303    36.052
ATOM     48  H   UNL d   1      21.641  28.600  -7.748 -0.31 -0.39    +0.222    36.052
TER
ENDMDL
MODEL       94
USER    Run = 94
USER    Cluster Rank = 24
USER    Number of conformations in this cluster = 1
USER  
USER    RMSD from reference structure       = 51.775 A
USER  
USER    Estimated Free Energy of Binding    =   +3.58 kcal/mol  [=(1)+(2)+(3)-(4)]
USER    
USER    (1) Final Intermolecular Energy     =   -3.58 kcal/mol
USER        vdW + Hbond + desolv Energy     =   -3.38 kcal/mol
USER        Electrostatic Energy            =   -0.20 kcal/mol
USER    (2) Final Total Internal Energy     =  -14.46 kcal/mol
USER    (3) Torsional Free Energy           =   +7.16 kcal/mol
USER    (4) Unbound System's Energy  [=(2)] =  -14.46 kcal/mol
USER    
USER    
USER  
USER    DPF = D:/Protein_go_brrr/autodock/final/2DN3/IHP/dock.dpf
USER    NEWDPF move	IHP_ideal_opt.pdbqt
USER    NEWDPF about	0.035000 0.082000 -0.065000
USER    NEWDPF tran0	7.417033 55.665353 4.601605
USER    NEWDPF axisangle0	0.865916 0.486327 0.116945 97.908370
USER    NEWDPF quaternion0	0.653060 0.366780 0.088198 0.656662
USER    NEWDPF dihe0	-147.68 -19.81 142.51 43.74 100.69 67.22 -19.05 39.19 74.58 -30.10 20.36 155.72 30.80 -161.23 -179.82 22.07 53.22 -180.00 -135.28 -21.05 17.33 -38.90 -176.27 14.80 
USER  
USER                              x       y       z    vdW   Elec        q     RMS 
ATOM      1  C   UNL d   1       7.495  56.733   5.957 -0.03 -0.02    +0.194    51.775
ATOM      2  C   UNL d   1       6.259  55.834   5.895 -0.06 -0.01    +0.194    51.775
ATOM      3  C   UNL d   1       5.683  55.760   4.479 -0.05 -0.01    +0.194    51.775
ATOM      4  C   UNL d   1       6.723  55.387   3.425 -0.07 -0.01    +0.194    51.775
ATOM      5  C   UNL d   1       8.019  56.181   3.523 -0.05 -0.04    +0.194    51.775
ATOM      6  C   UNL d   1       8.562  56.307   4.948 -0.05 -0.04    +0.194    51.775
ATOM      7  O   UNL d   1       8.069  56.612   7.261 -0.02 +0.03    -0.278    51.775
ATOM      8  P   UNL d   1       9.368  55.698   7.437 -0.06 -0.09    +0.473    51.775
ATOM      9  O   UNL d   1      10.656  56.357   7.088 -0.09 +0.06    -0.228    51.775
ATOM     10  O   UNL d   1       9.299  55.218   8.956 -0.07 +0.05    -0.303    51.775
ATOM     11  H   UNL d   1       8.437  54.794   9.127 +0.05 -0.03    +0.222    51.775
ATOM     12  O   UNL d   1       9.039  54.358   6.649 -0.12 +0.08    -0.303    51.775
ATOM     13  H   UNL d   1       8.296  53.850   7.046 -0.20 -0.09    +0.222    51.775
ATOM     14  O   UNL d   1       6.623  54.511   6.309 -0.14 +0.04    -0.278    51.775
ATOM     15  P   UNL d   1       6.037  54.015   7.714 -0.02 -0.07    +0.473    51.775
ATOM     16  O   UNL d   1       6.997  53.961   8.861 -0.12 +0.03    -0.228    51.775
ATOM     17  O   UNL d   1       4.805  54.987   7.985 -0.03 +0.01    -0.303    51.775
ATOM     18  H   UNL d   1       4.245  55.075   7.190 +0.03 +0.00    +0.222    51.775
ATOM     19  O   UNL d   1       5.297  52.648   7.374 -0.19 +0.03    -0.303    51.775
ATOM     20  H   UNL d   1       5.143  52.550   6.417 -0.03 -0.00    +0.222    51.775
ATOM     21  O   UNL d   1       9.549  57.336   4.923 -0.02 +0.07    -0.278    51.775
ATOM     22  P   UNL d   1      11.048  56.985   4.505 -0.05 -0.24    +0.473    51.775
ATOM     23  O   UNL d   1      12.153  57.789   5.102 -0.07 +0.09    -0.228    51.775
ATOM     24  O   UNL d   1      11.115  55.425   4.813 -0.17 +0.14    -0.303    51.775
ATOM     25  H   UNL d   1      10.227  55.033   4.614 +0.10 -0.09    +0.222    51.775
ATOM     26  O   UNL d   1      10.952  57.002   2.904 +0.01 +0.34    -0.303    51.775
ATOM     27  H   UNL d   1      10.992  56.083   2.570 -0.42 -0.37    +0.222    51.775
ATOM     28  O   UNL d   1       4.730  54.706   4.459 -0.08 -0.01    -0.278    51.775
ATOM     29  P   UNL d   1       3.331  54.872   5.202 -0.04 +0.03    +0.473    51.775
ATOM     30  O   UNL d   1       3.156  56.135   5.964 -0.02 -0.01    -0.228    51.775
ATOM     31  O   UNL d   1       2.332  54.618   3.978 -0.04 -0.03    -0.303    51.775
ATOM     32  H   UNL d   1       2.748  53.970   3.362 +0.03 +0.03    +0.222    51.775
ATOM     33  O   UNL d   1       3.228  53.514   6.027 +0.00 -0.03    -0.303    51.775
ATOM     34  H   UNL d   1       3.515  53.681   6.958 +0.04 +0.01    +0.222    51.775
ATOM     35  O   UNL d   1       8.981  55.446   2.770 -0.11 +0.10    -0.278    51.775
ATOM     36  P   UNL d   1       9.105  53.866   2.947 -0.26 -0.13    +0.473    51.775
ATOM     37  O   UNL d   1       8.387  53.044   1.924 -0.35 +0.02    -0.228    51.775
ATOM     38  O   UNL d   1      10.684  53.662   2.960 -0.35 +0.18    -0.303    51.775
ATOM     39  H   UNL d   1      11.122  54.540   2.931 +0.03 -0.21    +0.222    51.775
ATOM     40  O   UNL d   1       8.680  53.660   4.466 -0.27 +0.07    -0.303    51.775
ATOM     41  H   UNL d   1       9.371  53.987   5.085 +0.10 -0.07    +0.222    51.775
ATOM     42  O   UNL d   1       6.144  55.681   2.150 -0.02 +0.01    -0.278    51.775
ATOM     43  P   UNL d   1       5.438  54.506   1.334 -0.02 +0.04    +0.473    51.775
ATOM     44  O   UNL d   1       5.757  54.389  -0.117 -0.05 -0.03    -0.228    51.775
ATOM     45  O   UNL d   1       5.810  53.215   2.188 -0.12 -0.04    -0.303    51.775
ATOM     46  H   UNL d   1       6.774  53.154   2.342 +0.10 +0.01    +0.222    51.775
ATOM     47  O   UNL d   1       3.886  54.694   1.688 -0.03 -0.03    -0.303    51.775
ATOM     48  H   UNL d   1       3.805  55.147   2.553 +0.03 +0.02    +0.222    51.775
TER
ENDMDL
MODEL       72
USER    Run = 72
USER    Cluster Rank = 25
USER    Number of conformations in this cluster = 1
USER  
USER    RMSD from reference structure       = 17.085 A
USER  
USER    Estimated Free Energy of Binding    =   +3.65 kcal/mol  [=(1)+(2)+(3)-(4)]
USER    
USER    (1) Final Intermolecular Energy     =   -3.51 kcal/mol
USER        vdW + Hbond + desolv Energy     =   -3.48 kcal/mol
USER        Electrostatic Energy            =   -0.03 kcal/mol
USER    (2) Final Total Internal Energy     =  -14.38 kcal/mol
USER    (3) Torsional Free Energy           =   +7.16 kcal/mol
USER    (4) Unbound System's Energy  [=(2)] =  -14.38 kcal/mol
USER    
USER    
USER  
USER    DPF = D:/Protein_go_brrr/autodock/final/2DN3/IHP/dock.dpf
USER    NEWDPF move	IHP_ideal_opt.pdbqt
USER    NEWDPF about	0.035000 0.082000 -0.065000
USER    NEWDPF tran0	-0.448143 20.910986 0.438392
USER    NEWDPF axisangle0	0.210268 0.830163 0.516350 -87.994033
USER    NEWDPF quaternion0	0.146056 0.576648 0.358667 -0.719376
USER    NEWDPF dihe0	-108.32 -24.60 -180.00 -52.41 -49.76 177.92 -108.40 -64.07 104.62 25.51 -20.27 -115.60 177.91 169.65 29.68 -127.92 149.52 -25.15 69.16 20.46 170.00 -1.23 -7.05 174.77 
USER  
USER                              x       y       z    vdW   Elec        q     RMS 
ATOM      1  C   UNL d   1       0.697  21.308  -0.793 -0.13 -0.02    +0.194    17.085
ATOM      2  C   UNL d   1       0.535  19.816  -0.497 -0.08 -0.01    +0.194    17.085
ATOM      3  C   UNL d   1       0.463  19.540   1.006 -0.09 -0.01    +0.194    17.085
ATOM      4  C   UNL d   1      -0.585  20.388   1.723 -0.04 -0.02    +0.194    17.085
ATOM      5  C   UNL d   1      -0.534  21.869   1.369 -0.05 -0.03    +0.194    17.085
ATOM      6  C   UNL d   1      -0.400  22.143  -0.130 -0.06 -0.02    +0.194    17.085
ATOM      7  O   UNL d   1       0.583  21.498  -2.205 -0.09 +0.02    -0.278    17.085
ATOM      8  P   UNL d   1       1.520  20.632  -3.166 -0.05 -0.04    +0.473    17.085
ATOM      9  O   UNL d   1       2.251  21.410  -4.203 -0.19 +0.06    -0.228    17.085
ATOM     10  O   UNL d   1       2.489  19.856  -2.164 -0.09 +0.00    -0.303    17.085
ATOM     11  H   UNL d   1       2.117  18.976  -1.965 +0.06 +0.00    +0.222    17.085
ATOM     12  O   UNL d   1       0.590  19.461  -3.704 -0.02 +0.02    -0.303    17.085
ATOM     13  H   UNL d   1       0.354  18.806  -3.009 +0.03 -0.00    +0.222    17.085
ATOM     14  O   UNL d   1      -0.676  19.348  -1.106 -0.01 +0.01    -0.278    17.085
ATOM     15  P   UNL d   1      -0.715  17.804  -1.527 +0.00 +0.00    +0.473    17.085
ATOM     16  O   UNL d   1      -1.268  17.491  -2.882 -0.00 -0.00    -0.228    17.085
ATOM     17  O   UNL d   1       0.790  17.314  -1.345 -0.01 -0.02    -0.303    17.085
ATOM     18  H   UNL d   1       0.968  17.061  -0.420 +0.03 +0.02    +0.222    17.085
ATOM     19  O   UNL d   1      -1.436  17.079  -0.308 +0.00 -0.00    -0.303    17.085
ATOM     20  H   UNL d   1      -0.824  16.495   0.177 +0.01 +0.01    +0.222    17.085
ATOM     21  O   UNL d   1      -0.023  23.511  -0.267 -0.08 +0.04    -0.278    17.085
ATOM     22  P   UNL d   1       1.414  23.991   0.231 -0.22 -0.12    +0.473    17.085
ATOM     23  O   UNL d   1       2.619  23.365  -0.387 -0.89 +0.03    -0.228    17.085
ATOM     24  O   UNL d   1       1.313  25.569   0.047 -0.18 +0.08    -0.303    17.085
ATOM     25  H   UNL d   1       1.975  25.842  -0.638 -0.41 -0.09    +0.222    17.085
ATOM     26  O   UNL d   1       1.278  23.833   1.821 -0.15 +0.14    -0.303    17.085
ATOM     27  H   UNL d   1       0.406  23.442   2.031 +0.08 -0.08    +0.222    17.085
ATOM     28  O   UNL d   1       0.039  18.194   1.175 -0.03 -0.00    -0.278    17.085
ATOM     29  P   UNL d   1       1.055  17.091   1.711 -0.06 +0.05    +0.473    17.085
ATOM     30  O   UNL d   1       0.761  15.694   1.301 -0.04 -0.02    -0.228    17.085
ATOM     31  O   UNL d   1       2.439  17.720   1.209 -0.18 -0.07    -0.303    17.085
ATOM     32  H   UNL d   1       2.389  17.848   0.234 +0.06 +0.04    +0.222    17.085
ATOM     33  O   UNL d   1       1.079  17.392   3.275 -0.10 -0.03    -0.303    17.085
ATOM     34  H   UNL d   1       0.541  18.201   3.455 +0.06 +0.00    +0.222    17.085
ATOM     35  O   UNL d   1      -1.786  22.410   1.785 -0.00 +0.04    -0.278    17.085
ATOM     36  P   UNL d   1      -1.835  23.634   2.806 +0.02 -0.12    +0.473    17.085
ATOM     37  O   UNL d   1      -3.171  23.909   3.419 -0.00 +0.04    -0.228    17.085
ATOM     38  O   UNL d   1      -0.705  23.230   3.853 -0.04 +0.14    -0.303    17.085
ATOM     39  H   UNL d   1       0.018  22.764   3.381 +0.07 -0.09    +0.222    17.085
ATOM     40  O   UNL d   1      -1.173  24.808   1.962 -0.01 +0.08    -0.303    17.085
ATOM     41  H   UNL d   1      -0.685  24.464   1.181 +0.05 -0.05    +0.222    17.085
ATOM     42  O   UNL d   1      -0.317  20.281   3.125 -0.04 +0.04    -0.278    17.085
ATOM     43  P   UNL d   1       1.065  20.843   3.691 -0.15 -0.12    +0.473    17.085
ATOM     44  O   UNL d   1       1.788  21.848   2.863 -0.16 +0.08    -0.228    17.085
ATOM     45  O   UNL d   1       0.662  21.364   5.140 -0.20 +0.14    -0.303    17.085
ATOM     46  H   UNL d   1       0.430  22.314   5.128 +0.08 -0.15    +0.222    17.085
ATOM     47  O   UNL d   1       1.887  19.512   4.040 -0.25 +0.03    -0.303    17.085
ATOM     48  H   UNL d   1       2.049  19.008   3.216 +0.09 +0.01    +0.222    17.085
TER
ENDMDL
MODEL       57
USER    Run = 57
USER    Cluster Rank = 26
USER    Number of conformations in this cluster = 1
USER  
USER    RMSD from reference structure       = 27.169 A
USER  
USER    Estimated Free Energy of Binding    =   +3.66 kcal/mol  [=(1)+(2)+(3)-(4)]
USER    
USER    (1) Final Intermolecular Energy     =   -3.50 kcal/mol
USER        vdW + Hbond + desolv Energy     =   -3.30 kcal/mol
USER        Electrostatic Energy            =   -0.20 kcal/mol
USER    (2) Final Total Internal Energy     =  -14.14 kcal/mol
USER    (3) Torsional Free Energy           =   +7.16 kcal/mol
USER    (4) Unbound System's Energy  [=(2)] =  -14.14 kcal/mol
USER    
USER    
USER  
USER    DPF = D:/Protein_go_brrr/autodock/final/2DN3/IHP/dock.dpf
USER    NEWDPF move	IHP_ideal_opt.pdbqt
USER    NEWDPF about	0.035000 0.082000 -0.065000
USER    NEWDPF tran0	0.287401 30.660775 2.846907
USER    NEWDPF axisangle0	0.621014 0.727433 0.291861 177.513865
USER    NEWDPF quaternion0	0.620868 0.727262 0.291792 0.021694
USER    NEWDPF dihe0	141.47 57.82 -2.59 105.02 -14.33 178.80 4.50 -128.85 -4.30 87.90 94.35 -140.98 -48.23 -30.93 -162.53 -48.06 -15.98 120.89 5.47 -57.77 -40.40 12.38 156.84 -1.09 
USER  
USER                              x       y       z    vdW   Elec        q     RMS 
ATOM      1  C   UNL d   1      -0.550  32.081   2.332 -0.03 +0.01    +0.194    27.169
ATOM      2  C   UNL d   1      -1.124  30.756   1.827 -0.01 -0.00    +0.194    27.169
ATOM      3  C   UNL d   1      -0.021  29.801   1.365 -0.03 -0.01    +0.194    27.169
ATOM      4  C   UNL d   1       1.073  29.595   2.410 -0.08 -0.03    +0.194    27.169
ATOM      5  C   UNL d   1       1.594  30.888   3.025 -0.12 -0.02    +0.194    27.169
ATOM      6  C   UNL d   1       0.493  31.869   3.430 -0.07 -0.00    +0.194    27.169
ATOM      7  O   UNL d   1      -1.619  32.842   2.900 -0.01 -0.03    -0.278    27.169
ATOM      8  P   UNL d   1      -1.998  34.239   2.225 -0.02 +0.11    +0.473    27.169
ATOM      9  O   UNL d   1      -1.230  34.575   0.996 -0.04 -0.08    -0.228    27.169
ATOM     10  O   UNL d   1      -3.570  34.133   1.974 -0.00 -0.05    -0.303    27.169
ATOM     11  H   UNL d   1      -3.849  33.200   2.037 +0.01 +0.02    +0.222    27.169
ATOM     12  O   UNL d   1      -1.921  35.302   3.404 -0.04 -0.09    -0.303    27.169
ATOM     13  H   UNL d   1      -1.483  34.951   4.211 +0.04 +0.05    +0.222    27.169
ATOM     14  O   UNL d   1      -1.856  30.130   2.887 -0.00 +0.02    -0.278    27.169
ATOM     15  P   UNL d   1      -3.277  30.772   3.253 +0.00 -0.01    +0.473    27.169
ATOM     16  O   UNL d   1      -3.963  31.544   2.170 +0.00 -0.01    -0.228    27.169
ATOM     17  O   UNL d   1      -4.138  29.537   3.772 +0.00 +0.02    -0.303    27.169
ATOM     18  H   UNL d   1      -4.718  29.191   3.066 +0.00 -0.01    +0.222    27.169
ATOM     19  O   UNL d   1      -3.016  31.570   4.604 -0.00 +0.00    -0.303    27.169
ATOM     20  H   UNL d   1      -2.195  32.095   4.560 +0.02 +0.00    +0.222    27.169
ATOM     21  O   UNL d   1       1.125  33.128   3.656 -0.13 -0.03    -0.278    27.169
ATOM     22  P   UNL d   1       0.614  34.069   4.838 -0.13 +0.08    +0.473    27.169
ATOM     23  O   UNL d   1       0.376  35.511   4.538 -0.13 -0.08    -0.228    27.169
ATOM     24  O   UNL d   1      -0.663  33.275   5.358 -0.04 -0.02    -0.303    27.169
ATOM     25  H   UNL d   1      -1.420  33.476   4.750 +0.04 +0.02    +0.222    27.169
ATOM     26  O   UNL d   1       1.688  33.758   5.988 -0.29 -0.01    -0.303    27.169
ATOM     27  H   UNL d   1       2.376  33.160   5.632 -0.33 -0.03    +0.222    27.169
ATOM     28  O   UNL d   1      -0.613  28.521   1.181 -0.02 +0.03    -0.278    27.169
ATOM     29  P   UNL d   1      -0.514  27.784  -0.227 -0.04 -0.01    +0.473    27.169
ATOM     30  O   UNL d   1      -1.381  28.333  -1.300 -0.07 -0.01    -0.228    27.169
ATOM     31  O   UNL d   1       1.067  27.850  -0.466 +0.05 -0.00    -0.303    27.169
ATOM     32  H   UNL d   1       1.519  27.431   0.302 +0.02 -0.04    +0.222    27.169
ATOM     33  O   UNL d   1      -0.745  26.261   0.176 -0.05 +0.03    -0.303    27.169
ATOM     34  H   UNL d   1       0.042  25.939   0.681 +0.06 -0.04    +0.222    27.169
ATOM     35  O   UNL d   1       2.273  30.502   4.219 -0.18 +0.05    -0.278    27.169
ATOM     36  P   UNL d   1       1.445  30.018   5.494 -0.15 -0.18    +0.473    27.169
ATOM     37  O   UNL d   1       0.125  29.379   5.201 -0.09 +0.10    -0.228    27.169
ATOM     38  O   UNL d   1       2.491  29.059   6.216 -0.26 +0.22    -0.303    27.169
ATOM     39  H   UNL d   1       2.555  28.218   5.715 -0.27 -0.31    +0.222    27.169
ATOM     40  O   UNL d   1       1.430  31.322   6.404 -0.13 +0.05    -0.303    27.169
ATOM     41  H   UNL d   1       1.200  32.125   5.886 +0.09 -0.01    +0.222    27.169
ATOM     42  O   UNL d   1       2.175  28.973   1.740 -0.13 +0.05    -0.278    27.169
ATOM     43  P   UNL d   1       2.553  27.469   2.111 -0.15 -0.20    +0.473    27.169
ATOM     44  O   UNL d   1       3.489  26.752   1.201 -0.38 +0.08    -0.228    27.169
ATOM     45  O   UNL d   1       3.075  27.600   3.609 -0.25 +0.22    -0.303    27.169
ATOM     46  H   UNL d   1       2.741  28.415   4.034 +0.08 -0.14    +0.222    27.169
ATOM     47  O   UNL d   1       1.125  26.773   2.324 -0.09 +0.16    -0.303    27.169
ATOM     48  H   UNL d   1       0.493  27.126   1.663 +0.07 -0.07    +0.222    27.169
TER
ENDMDL
MODEL       55
USER    Run = 55
USER    Cluster Rank = 27
USER    Number of conformations in this cluster = 1
USER  
USER    RMSD from reference structure       = 21.699 A
USER  
USER    Estimated Free Energy of Binding    =   +3.68 kcal/mol  [=(1)+(2)+(3)-(4)]
USER    
USER    (1) Final Intermolecular Energy     =   -3.48 kcal/mol
USER        vdW + Hbond + desolv Energy     =   -3.41 kcal/mol
USER        Electrostatic Energy            =   -0.06 kcal/mol
USER    (2) Final Total Internal Energy     =  -15.28 kcal/mol
USER    (3) Torsional Free Energy           =   +7.16 kcal/mol
USER    (4) Unbound System's Energy  [=(2)] =  -15.28 kcal/mol
USER    
USER    
USER  
USER    DPF = D:/Protein_go_brrr/autodock/final/2DN3/IHP/dock.dpf
USER    NEWDPF move	IHP_ideal_opt.pdbqt
USER    NEWDPF about	0.035000 0.082000 -0.065000
USER    NEWDPF tran0	3.309817 17.651322 16.815301
USER    NEWDPF axisangle0	0.436312 -0.513274 -0.739041 -144.426899
USER    NEWDPF quaternion0	0.415457 -0.488740 -0.703716 -0.305472
USER    NEWDPF dihe0	153.89 83.46 176.97 8.78 -14.40 -83.17 -103.30 2.94 42.77 48.11 179.99 153.59 -35.75 85.13 -47.58 14.94 122.04 172.90 14.65 -46.31 169.56 177.81 -16.13 2.26 
USER  
USER                              x       y       z    vdW   Elec        q     RMS 
ATOM      1  C   UNL d   1       2.003  17.245  15.761 -0.02 -0.01    +0.194    21.699
ATOM      2  C   UNL d   1       2.894  18.398  15.295 -0.10 -0.02    +0.194    21.699
ATOM      3  C   UNL d   1       3.235  19.350  16.444 -0.10 -0.01    +0.194    21.699
ATOM      4  C   UNL d   1       3.805  18.637  17.667 -0.04 +0.01    +0.194    21.699
ATOM      5  C   UNL d   1       3.011  17.411  18.098 -0.01 +0.01    +0.194    21.699
ATOM      6  C   UNL d   1       2.617  16.490  16.940 -0.00 +0.01    +0.194    21.699
ATOM      7  O   UNL d   1       1.875  16.317  14.681 -0.01 +0.02    -0.278    21.699
ATOM      8  P   UNL d   1       0.476  16.231  13.916 +0.01 -0.03    +0.473    21.699
ATOM      9  O   UNL d   1      -0.445  17.375  14.154 -0.02 +0.02    -0.228    21.699
ATOM     10  O   UNL d   1       0.883  16.061  12.383 -0.02 +0.02    -0.303    21.699
ATOM     11  H   UNL d   1       1.853  16.116  12.294 +0.06 -0.02    +0.222    21.699
ATOM     12  O   UNL d   1      -0.100  14.792  14.268 +0.00 +0.01    -0.303    21.699
ATOM     13  H   UNL d   1       0.077  14.523  15.197 +0.00 -0.00    +0.222    21.699
ATOM     14  O   UNL d   1       4.115  17.862  14.770 -0.13 +0.03    -0.278    21.699
ATOM     15  P   UNL d   1       4.097  17.416  13.232 -0.22 -0.09    +0.473    21.699
ATOM     16  O   UNL d   1       5.324  17.721  12.430 -0.80 +0.01    -0.228    21.699
ATOM     17  O   UNL d   1       3.764  15.859  13.283 -0.10 +0.06    -0.303    21.699
ATOM     18  H   UNL d   1       2.805  15.708  13.390 +0.06 -0.03    +0.222    21.699
ATOM     19  O   UNL d   1       2.739  18.015  12.661 -0.14 +0.08    -0.303    21.699
ATOM     20  H   UNL d   1       1.977  17.777  13.221 +0.04 -0.05    +0.222    21.699
ATOM     21  O   UNL d   1       1.615  15.607  17.439 +0.00 -0.01    -0.278    21.699
ATOM     22  P   UNL d   1       0.184  16.182  17.845 +0.00 +0.00    +0.473    21.699
ATOM     23  O   UNL d   1       0.052  17.651  18.068 -0.00 +0.00    -0.228    21.699
ATOM     24  O   UNL d   1      -0.742  15.597  16.690 -0.00 +0.00    -0.303    21.699
ATOM     25  H   UNL d   1      -0.638  16.173  15.890 +0.00 -0.00    +0.222    21.699
ATOM     26  O   UNL d   1      -0.204  15.244  19.086 +0.00 -0.01    -0.303    21.699
ATOM     27  H   UNL d   1      -0.064  15.739  19.919 +0.00 +0.00    +0.222    21.699
ATOM     28  O   UNL d   1       4.271  20.213  15.992 -0.20 +0.03    -0.278    21.699
ATOM     29  P   UNL d   1       5.749  19.656  15.787 -0.24 +0.01    +0.473    21.699
ATOM     30  O   UNL d   1       6.003  18.297  16.331 -0.21 -0.07    -0.228    21.699
ATOM     31  O   UNL d   1       5.901  19.844  14.205 -0.96 -0.02    -0.303    21.699
ATOM     32  H   UNL d   1       5.126  19.426  13.763 +0.07 -0.00    +0.222    21.699
ATOM     33  O   UNL d   1       6.637  20.842  16.369 -0.20 +0.01    -0.303    21.699
ATOM     34  H   UNL d   1       6.426  20.961  17.327 +0.12 +0.01    +0.222    21.699
ATOM     35  O   UNL d   1       3.879  16.667  18.950 -0.01 -0.04    -0.278    21.699
ATOM     36  P   UNL d   1       3.527  16.484  20.495 +0.00 +0.05    +0.473    21.699
ATOM     37  O   UNL d   1       4.318  15.440  21.217 -0.01 -0.03    -0.228    21.699
ATOM     38  O   UNL d   1       3.730  17.962  21.052 -0.01 -0.02    -0.303    21.699
ATOM     39  H   UNL d   1       4.387  18.429  20.492 +0.04 +0.02    +0.222    21.699
ATOM     40  O   UNL d   1       1.948  16.300  20.465 +0.00 -0.02    -0.303    21.699
ATOM     41  H   UNL d   1       1.606  16.240  19.545 +0.00 +0.01    +0.222    21.699
ATOM     42  O   UNL d   1       3.758  19.571  18.751 -0.03 -0.01    -0.278    21.699
ATOM     43  P   UNL d   1       5.124  20.193  19.294 -0.08 +0.04    +0.473    21.699
ATOM     44  O   UNL d   1       5.253  20.386  20.765 -0.13 -0.00    -0.228    21.699
ATOM     45  O   UNL d   1       6.221  19.226  18.665 -0.15 -0.09    -0.303    21.699
ATOM     46  H   UNL d   1       6.706  19.662  17.936 +0.11 +0.07    +0.222    21.699
ATOM     47  O   UNL d   1       5.304  21.513  18.404 -0.07 -0.00    -0.303    21.699
ATOM     48  H   UNL d   1       4.858  21.385  17.541 +0.09 -0.01    +0.222    21.699
TER
ENDMDL
MODEL       91
USER    Run = 91
USER    Cluster Rank = 28
USER    Number of conformations in this cluster = 1
USER  
USER    RMSD from reference structure       = 59.235 A
USER  
USER    Estimated Free Energy of Binding    =   +3.70 kcal/mol  [=(1)+(2)+(3)-(4)]
USER    
USER    (1) Final Intermolecular Energy     =   -3.46 kcal/mol
USER        vdW + Hbond + desolv Energy     =   -3.19 kcal/mol
USER        Electrostatic Energy            =   -0.27 kcal/mol
USER    (2) Final Total Internal Energy     =  -15.05 kcal/mol
USER    (3) Torsional Free Energy           =   +7.16 kcal/mol
USER    (4) Unbound System's Energy  [=(2)] =  -15.05 kcal/mol
USER    
USER    
USER  
USER    DPF = D:/Protein_go_brrr/autodock/final/2DN3/IHP/dock.dpf
USER    NEWDPF move	IHP_ideal_opt.pdbqt
USER    NEWDPF about	0.035000 0.082000 -0.065000
USER    NEWDPF tran0	46.416939 42.759877 1.713488
USER    NEWDPF axisangle0	0.520434 -0.830467 -0.198678 142.959754
USER    NEWDPF quaternion0	0.493482 -0.787459 -0.188389 0.317638
USER    NEWDPF dihe0	-163.60 -46.83 114.97 106.39 23.83 160.05 -9.95 -89.03 -5.36 17.03 -48.45 -152.34 -127.02 97.70 -179.89 -73.37 -177.31 -42.67 41.81 -5.65 -18.97 8.35 -35.07 6.55 
USER  
USER                              x       y       z    vdW   Elec        q     RMS 
ATOM      1  C   UNL d   1      47.072  42.026   0.293 -0.04 +0.02    +0.194    59.235
ATOM      2  C   UNL d   1      48.066  42.266   1.432 -0.07 +0.02    +0.194    59.235
ATOM      3  C   UNL d   1      47.874  43.644   2.070 -0.09 -0.00    +0.194    59.235
ATOM      4  C   UNL d   1      46.433  43.914   2.495 -0.08 +0.01    +0.194    59.235
ATOM      5  C   UNL d   1      45.398  43.579   1.428 -0.08 +0.02    +0.194    59.235
ATOM      6  C   UNL d   1      45.626  42.228   0.747 -0.07 +0.03    +0.194    59.235
ATOM      7  O   UNL d   1      47.200  40.667  -0.131 -0.02 -0.03    -0.278    59.235
ATOM      8  P   UNL d   1      48.394  40.290  -1.123 +0.00 +0.05    +0.473    59.235
ATOM      9  O   UNL d   1      48.197  40.712  -2.536 -0.00 -0.02    -0.228    59.235
ATOM     10  O   UNL d   1      49.681  40.946  -0.445 -0.00 -0.03    -0.303    59.235
ATOM     11  H   UNL d   1      49.627  40.845   0.524 +0.02 +0.02    +0.222    59.235
ATOM     12  O   UNL d   1      48.649  38.739  -0.891 -0.00 -0.04    -0.303    59.235
ATOM     13  H   UNL d   1      49.335  38.559  -0.208 +0.02 +0.03    +0.222    59.235
ATOM     14  O   UNL d   1      47.872  41.265   2.439 -0.08 -0.04    -0.278    59.235
ATOM     15  P   UNL d   1      49.165  40.424   2.869 -0.06 +0.08    +0.473    59.235
ATOM     16  O   UNL d   1      49.169  39.860   4.255 -0.22 -0.05    -0.228    59.235
ATOM     17  O   UNL d   1      49.289  39.302   1.745 -0.02 -0.06    -0.303    59.235
ATOM     18  H   UNL d   1      48.790  39.551   0.944 +0.03 +0.04    +0.222    59.235
ATOM     19  O   UNL d   1      50.392  41.372   2.512 -0.02 -0.02    -0.303    59.235
ATOM     20  H   UNL d   1      50.247  42.283   2.825 +0.05 +0.00    +0.222    59.235
ATOM     21  O   UNL d   1      44.814  42.216  -0.426 -0.02 -0.03    -0.278    59.235
ATOM     22  P   UNL d   1      43.707  41.082  -0.610 -0.02 +0.07    +0.473    59.235
ATOM     23  O   UNL d   1      43.370  40.646  -1.996 -0.01 -0.03    -0.228    59.235
ATOM     24  O   UNL d   1      44.261  39.929   0.336 -0.05 -0.05    -0.303    59.235
ATOM     25  H   UNL d   1      45.241  39.865   0.203 +0.04 +0.04    +0.222    59.235
ATOM     26  O   UNL d   1      42.493  41.668   0.258 -0.03 -0.05    -0.303    59.235
ATOM     27  H   UNL d   1      42.823  42.399   0.820 +0.04 +0.04    +0.222    59.235
ATOM     28  O   UNL d   1      48.633  43.668   3.272 -0.12 +0.03    -0.278    59.235
ATOM     29  P   UNL d   1      49.813  44.721   3.457 -0.05 -0.12    +0.473    59.235
ATOM     30  O   UNL d   1      51.182  44.200   3.208 -0.03 +0.03    -0.228    59.235
ATOM     31  O   UNL d   1      49.296  45.892   2.497 -0.02 +0.06    -0.303    59.235
ATOM     32  H   UNL d   1      48.326  46.000   2.628 +0.05 -0.05    +0.222    59.235
ATOM     33  O   UNL d   1      49.517  45.302   4.910 -0.07 +0.29    -0.303    59.235
ATOM     34  H   UNL d   1      48.544  45.268   5.078 -0.40 -0.32    +0.222    59.235
ATOM     35  O   UNL d   1      44.149  43.499   2.112 +0.12 -0.05    -0.278    59.235
ATOM     36  P   UNL d   1      43.177  44.763   2.164 -0.05 +0.06    +0.473    59.235
ATOM     37  O   UNL d   1      42.616  45.090   3.512 -0.16 -0.03    -0.228    59.235
ATOM     38  O   UNL d   1      44.096  45.906   1.543 -0.03 -0.01    -0.303    59.235
ATOM     39  H   UNL d   1      44.759  46.183   2.210 +0.05 -0.01    +0.222    59.235
ATOM     40  O   UNL d   1      42.135  44.438   1.008 -0.03 -0.05    -0.303    59.235
ATOM     41  H   UNL d   1      42.517  43.834   0.333 +0.02 +0.03    +0.222    59.235
ATOM     42  O   UNL d   1      46.333  45.319   2.752 -0.11 +0.03    -0.278    59.235
ATOM     43  P   UNL d   1      46.281  45.825   4.264 -0.23 -0.21    +0.473    59.235
ATOM     44  O   UNL d   1      46.411  44.799   5.336 -0.63 +0.11    -0.228    59.235
ATOM     45  O   UNL d   1      47.410  46.946   4.296 -0.15 +0.24    -0.303    59.235
ATOM     46  H   UNL d   1      48.099  46.742   4.960 -0.43 -0.37    +0.222    59.235
ATOM     47  O   UNL d   1      44.944  46.708   4.309 -0.18 +0.12    -0.303    59.235
ATOM     48  H   UNL d   1      44.322  46.387   3.624 +0.06 -0.03    +0.222    59.235
TER
ENDMDL
MODEL       93
USER    Run = 93
USER    Cluster Rank = 29
USER    Number of conformations in this cluster = 1
USER  
USER    RMSD from reference structure       = 31.438 A
USER  
USER    Estimated Free Energy of Binding    =   +3.81 kcal/mol  [=(1)+(2)+(3)-(4)]
USER    
USER    (1) Final Intermolecular Energy     =   -3.35 kcal/mol
USER        vdW + Hbond + desolv Energy     =   -3.14 kcal/mol
USER        Electrostatic Energy            =   -0.20 kcal/mol
USER    (2) Final Total Internal Energy     =  -14.47 kcal/mol
USER    (3) Torsional Free Energy           =   +7.16 kcal/mol
USER    (4) Unbound System's Energy  [=(2)] =  -14.47 kcal/mol
USER    
USER    
USER  
USER    DPF = D:/Protein_go_brrr/autodock/final/2DN3/IHP/dock.dpf
USER    NEWDPF move	IHP_ideal_opt.pdbqt
USER    NEWDPF about	0.035000 0.082000 -0.065000
USER    NEWDPF tran0	23.361369 16.556244 21.561866
USER    NEWDPF axisangle0	-0.765195 0.477147 0.432214 141.450791
USER    NEWDPF quaternion0	-0.722303 0.450401 0.407987 0.330096
USER    NEWDPF dihe0	127.54 100.18 110.34 137.20 92.18 105.30 -129.11 -19.00 136.21 -20.40 -6.99 -94.93 110.63 94.09 55.45 -172.23 -180.00 -81.64 54.39 2.09 -180.00 11.76 12.15 172.70 
USER  
USER                              x       y       z    vdW   Elec        q     RMS 
ATOM      1  C   UNL d   1      23.326  15.651  20.091 -0.00 +0.05    +0.194    31.438
ATOM      2  C   UNL d   1      23.634  17.142  19.942 -0.05 +0.05    +0.194    31.438
ATOM      3  C   UNL d   1      22.724  17.999  20.825 -0.07 +0.01    +0.194    31.438
ATOM      4  C   UNL d   1      22.712  17.555  22.286 -0.03 +0.00    +0.194    31.438
ATOM      5  C   UNL d   1      22.523  16.056  22.477 +0.00 +0.01    +0.194    31.438
ATOM      6  C   UNL d   1      23.388  15.199  21.550 +0.01 +0.03    +0.194    31.438
ATOM      7  O   UNL d   1      24.322  14.917  19.375 -0.01 -0.10    -0.278    31.438
ATOM      8  P   UNL d   1      24.342  15.021  17.781 -0.01 +0.19    +0.473    31.438
ATOM      9  O   UNL d   1      25.612  14.588  17.136 -0.06 -0.11    -0.228    31.438
ATOM     10  O   UNL d   1      23.080  14.160  17.321 -0.00 -0.09    -0.303    31.438
ATOM     11  H   UNL d   1      22.920  13.444  17.965 +0.02 +0.06    +0.222    31.438
ATOM     12  O   UNL d   1      23.869  16.503  17.457 -0.06 -0.12    -0.303    31.438
ATOM     13  H   UNL d   1      24.410  17.188  17.911 +0.07 +0.10    +0.222    31.438
ATOM     14  O   UNL d   1      24.995  17.379  20.323 -0.07 -0.14    -0.278    31.438
ATOM     15  P   UNL d   1      25.863  18.300  19.343 -0.23 +0.35    +0.473    31.438
ATOM     16  O   UNL d   1      26.947  19.117  19.974 -0.60 -0.23    -0.228    31.438
ATOM     17  O   UNL d   1      26.413  17.287  18.244 -0.11 -0.37    -0.303    31.438
ATOM     18  H   UNL d   1      25.933  16.437  18.277 +0.05 +0.21    +0.222    31.438
ATOM     19  O   UNL d   1      24.784  19.120  18.510 -0.26 -0.06    -0.303    31.438
ATOM     20  H   UNL d   1      24.407  19.853  19.030 -0.27 -0.01    +0.222    31.438
ATOM     21  O   UNL d   1      22.860  13.875  21.601 +0.00 -0.03    -0.278    31.438
ATOM     22  P   UNL d   1      21.536  13.519  20.785 +0.01 +0.06    +0.473    31.438
ATOM     23  O   UNL d   1      21.675  13.126  19.353 -0.00 -0.04    -0.228    31.438
ATOM     24  O   UNL d   1      20.866  12.417  21.718 -0.00 -0.01    -0.303    31.438
ATOM     25  H   UNL d   1      21.174  12.571  22.647 +0.01 +0.00    +0.222    31.438
ATOM     26  O   UNL d   1      20.619  14.802  21.077 -0.03 -0.02    -0.303    31.438
ATOM     27  H   UNL d   1      20.355  14.801  22.019 +0.03 -0.00    +0.222    31.438
ATOM     28  O   UNL d   1      23.256  19.318  20.836 -0.13 -0.00    -0.278    31.438
ATOM     29  P   UNL d   1      22.365  20.549  20.360 -0.18 -0.10    +0.473    31.438
ATOM     30  O   UNL d   1      22.839  21.888  20.795 -0.19 +0.02    -0.228    31.438
ATOM     31  O   UNL d   1      22.322  20.270  18.785 -0.22 +0.07    -0.303    31.438
ATOM     32  H   UNL d   1      23.180  20.552  18.392 -0.39 -0.11    +0.222    31.438
ATOM     33  O   UNL d   1      20.910  20.111  20.836 -0.16 +0.20    -0.303    31.438
ATOM     34  H   UNL d   1      20.977  19.686  21.726 +0.09 -0.09    +0.222    31.438
ATOM     35  O   UNL d   1      22.939  15.780  23.813 +0.00 -0.00    -0.278    31.438
ATOM     36  P   UNL d   1      22.164  14.696  24.690 +0.01 -0.03    +0.473    31.438
ATOM     37  O   UNL d   1      21.871  15.098  26.101 -0.00 +0.03    -0.228    31.438
ATOM     38  O   UNL d   1      20.869  14.426  23.804 -0.00 +0.03    -0.303    31.438
ATOM     39  H   UNL d   1      21.139  13.997  22.963 +0.02 -0.01    +0.222    31.438
ATOM     40  O   UNL d   1      23.051  13.393  24.480 +0.00 -0.00    -0.303    31.438
ATOM     41  H   UNL d   1      23.073  13.115  23.538 +0.00 +0.01    +0.222    31.438
ATOM     42  O   UNL d   1      21.597  18.203  22.907 -0.03 +0.03    -0.278    31.438
ATOM     43  P   UNL d   1      20.128  17.893  22.370 -0.06 -0.13    +0.473    31.438
ATOM     44  O   UNL d   1      19.963  17.677  20.905 -0.18 +0.08    -0.228    31.438
ATOM     45  O   UNL d   1      19.683  16.654  23.264 -0.06 +0.07    -0.303    31.438
ATOM     46  H   UNL d   1      20.063  15.817  22.930 +0.05 -0.03    +0.222    31.438
ATOM     47  O   UNL d   1      19.250  19.079  22.998 -0.13 +0.11    -0.303    31.438
ATOM     48  H   UNL d   1      19.316  19.868  22.421 +0.08 -0.13    +0.222    31.438
TER
ENDMDL
MODEL       24
USER    Run = 24
USER    Cluster Rank = 30
USER    Number of conformations in this cluster = 1
USER  
USER    RMSD from reference structure       = 65.647 A
USER  
USER    Estimated Free Energy of Binding    =   +3.82 kcal/mol  [=(1)+(2)+(3)-(4)]
USER    
USER    (1) Final Intermolecular Energy     =   -3.34 kcal/mol
USER        vdW + Hbond + desolv Energy     =   -3.02 kcal/mol
USER        Electrostatic Energy            =   -0.32 kcal/mol
USER    (2) Final Total Internal Energy     =  -13.47 kcal/mol
USER    (3) Torsional Free Energy           =   +7.16 kcal/mol
USER    (4) Unbound System's Energy  [=(2)] =  -13.47 kcal/mol
USER    
USER    
USER  
USER    DPF = D:/Protein_go_brrr/autodock/final/2DN3/IHP/dock.dpf
USER    NEWDPF move	IHP_ideal_opt.pdbqt
USER    NEWDPF about	0.035000 0.082000 -0.065000
USER    NEWDPF tran0	42.358304 52.288815 17.312104
USER    NEWDPF axisangle0	0.613705 -0.480391 0.626570 -125.174649
USER    NEWDPF quaternion0	0.544795 -0.426450 0.556215 -0.460396
USER    NEWDPF dihe0	-149.38 -52.69 150.90 109.89 121.17 93.98 -36.41 -0.89 80.92 119.94 178.49 130.96 81.24 81.36 179.83 159.68 56.50 -179.45 -34.10 -29.34 10.41 -32.16 179.90 24.97 
USER  
USER                              x       y       z    vdW   Elec        q     RMS 
ATOM      1  C   UNL d   1      43.416  51.765  18.573 -0.06 +0.02    +0.194    65.647
ATOM      2  C   UNL d   1      44.101  52.236  17.289 -0.07 +0.01    +0.194    65.647
ATOM      3  C   UNL d   1      43.394  51.704  16.041 -0.03 +0.00    +0.194    65.647
ATOM      4  C   UNL d   1      41.894  51.987  16.033 -0.17 +0.06    +0.194    65.647
ATOM      5  C   UNL d   1      41.189  51.638  17.338 -0.19 +0.08    +0.194    65.647
ATOM      6  C   UNL d   1      41.928  52.117  18.588 -0.07 +0.04    +0.194    65.647
ATOM      7  O   UNL d   1      44.025  52.439  19.677 -0.01 -0.02    -0.278    65.647
ATOM      8  P   UNL d   1      43.932  51.766  21.123 -0.00 +0.04    +0.473    65.647
ATOM      9  O   UNL d   1      45.213  51.717  21.880 -0.00 -0.01    -0.228    65.647
ATOM     10  O   UNL d   1      42.795  52.602  21.866 -0.00 -0.03    -0.303    65.647
ATOM     11  H   UNL d   1      41.991  52.622  21.314 +0.01 +0.02    +0.222    65.647
ATOM     12  O   UNL d   1      43.214  50.369  20.882 -0.02 -0.03    -0.303    65.647
ATOM     13  H   UNL d   1      42.250  50.393  21.074 +0.03 +0.03    +0.222    65.647
ATOM     14  O   UNL d   1      44.081  53.669  17.248 -0.01 -0.02    -0.278    65.647
ATOM     15  P   UNL d   1      45.446  54.415  17.630 +0.00 +0.02    +0.473    65.647
ATOM     16  O   UNL d   1      45.846  55.569  16.766 -0.00 -0.01    -0.228    65.647
ATOM     17  O   UNL d   1      45.249  54.825  19.157 -0.00 -0.02    -0.303    65.647
ATOM     18  H   UNL d   1      45.029  54.047  19.704 +0.00 +0.01    +0.222    65.647
ATOM     19  O   UNL d   1      46.517  53.245  17.750 -0.00 -0.01    -0.303    65.647
ATOM     20  H   UNL d   1      46.501  52.660  16.969 +0.03 +0.00    +0.222    65.647
ATOM     21  O   UNL d   1      41.348  51.435  19.697 -0.04 -0.05    -0.278    65.647
ATOM     22  P   UNL d   1      40.137  52.102  20.493 -0.01 +0.08    +0.473    65.647
ATOM     23  O   UNL d   1      39.989  51.790  21.944 -0.01 -0.03    -0.228    65.647
ATOM     24  O   UNL d   1      40.340  53.645  20.159 -0.01 -0.05    -0.303    65.647
ATOM     25  H   UNL d   1      40.361  53.747  19.174 +0.03 +0.04    +0.222    65.647
ATOM     26  O   UNL d   1      38.888  51.723  19.562 -0.08 -0.09    -0.303    65.647
ATOM     27  H   UNL d   1      38.851  52.343  18.805 +0.05 +0.08    +0.222    65.647
ATOM     28  O   UNL d   1      43.917  52.405  14.920 -0.08 +0.00    -0.278    65.647
ATOM     29  P   UNL d   1      45.333  52.007  14.311 -0.06 -0.04    +0.473    65.647
ATOM     30  O   UNL d   1      45.383  51.882  12.832 -0.11 +0.02    -0.228    65.647
ATOM     31  O   UNL d   1      46.251  53.138  14.976 -0.01 +0.00    -0.303    65.647
ATOM     32  H   UNL d   1      45.749  53.554  15.715 +0.02 +0.00    +0.222    65.647
ATOM     33  O   UNL d   1      45.707  50.710  15.155 -0.18 +0.06    -0.303    65.647
ATOM     34  H   UNL d   1      44.998  50.032  15.033 -0.36 -0.12    +0.222    65.647
ATOM     35  O   UNL d   1      39.940  52.325  17.299 -0.11 -0.16    -0.278    65.647
ATOM     36  P   UNL d   1      39.887  53.877  16.935 -0.03 +0.18    +0.473    65.647
ATOM     37  O   UNL d   1      39.484  54.197  15.531 -0.09 -0.11    -0.228    65.647
ATOM     38  O   UNL d   1      38.892  54.438  18.045 -0.06 -0.08    -0.303    65.647
ATOM     39  H   UNL d   1      38.739  53.742  18.720 +0.03 +0.06    +0.222    65.647
ATOM     40  O   UNL d   1      41.317  54.387  17.410 -0.02 -0.06    -0.303    65.647
ATOM     41  H   UNL d   1      42.020  54.154  16.763 +0.03 +0.04    +0.222    65.647
ATOM     42  O   UNL d   1      41.322  51.162  15.012 -0.42 -0.19    -0.278    65.647
ATOM     43  P   UNL d   1      41.296  51.701  13.510 -0.20 +0.25    +0.473    65.647
ATOM     44  O   UNL d   1      40.022  51.559  12.752 -0.24 -0.26    -0.228    65.647
ATOM     45  O   UNL d   1      41.795  53.203  13.670 -0.06 -0.06    -0.303    65.647
ATOM     46  H   UNL d   1      42.716  53.310  13.358 +0.06 +0.01    +0.222    65.647
ATOM     47  O   UNL d   1      42.577  51.000  12.848 -0.28 -0.01    -0.303    65.647
ATOM     48  H   UNL d   1      43.357  51.146  13.423 -0.23 -0.04    +0.222    65.647
TER
ENDMDL
MODEL       43
USER    Run = 43
USER    Cluster Rank = 31
USER    Number of conformations in this cluster = 1
USER  
USER    RMSD from reference structure       = 22.343 A
USER  
USER    Estimated Free Energy of Binding    =   +3.82 kcal/mol  [=(1)+(2)+(3)-(4)]
USER    
USER    (1) Final Intermolecular Energy     =   -3.34 kcal/mol
USER        vdW + Hbond + desolv Energy     =   -3.11 kcal/mol
USER        Electrostatic Energy            =   -0.22 kcal/mol
USER    (2) Final Total Internal Energy     =  -14.04 kcal/mol
USER    (3) Torsional Free Energy           =   +7.16 kcal/mol
USER    (4) Unbound System's Energy  [=(2)] =  -14.04 kcal/mol
USER    
USER    
USER  
USER    DPF = D:/Protein_go_brrr/autodock/final/2DN3/IHP/dock.dpf
USER    NEWDPF move	IHP_ideal_opt.pdbqt
USER    NEWDPF about	0.035000 0.082000 -0.065000
USER    NEWDPF tran0	20.034692 17.314279 4.295060
USER    NEWDPF axisangle0	0.214837 0.432639 -0.875596 168.386111
USER    NEWDPF quaternion0	0.213735 0.430419 -0.871103 0.101177
USER    NEWDPF dihe0	119.63 83.75 137.62 30.76 -7.88 -178.36 -61.76 12.28 142.74 57.37 -126.59 -170.65 176.17 -147.02 180.00 29.94 79.88 155.50 31.17 -37.39 177.87 -49.22 14.13 -177.18 
USER  
USER                              x       y       z    vdW   Elec        q     RMS 
ATOM      1  C   UNL d   1      18.552  17.748   5.068 -0.11 +0.06    +0.194    22.343
ATOM      2  C   UNL d   1      19.823  18.048   5.863 -0.06 +0.06    +0.194    22.343
ATOM      3  C   UNL d   1      20.824  16.894   5.788 -0.02 +0.04    +0.194    22.343
ATOM      4  C   UNL d   1      21.128  16.452   4.359 -0.00 +0.03    +0.194    22.343
ATOM      5  C   UNL d   1      19.890  16.251   3.495 -0.02 +0.03    +0.194    22.343
ATOM      6  C   UNL d   1      18.861  17.377   3.616 -0.08 +0.03    +0.194    22.343
ATOM      7  O   UNL d   1      17.750  18.931   5.044 -0.12 -0.09    -0.278    22.343
ATOM      8  P   UNL d   1      16.660  19.133   6.194 -0.20 +0.32    +0.473    22.343
ATOM      9  O   UNL d   1      15.307  19.532   5.718 -0.38 -0.12    -0.228    22.343
ATOM     10  O   UNL d   1      16.665  17.745   6.980 -0.63 -0.52    -0.303    22.343
ATOM     11  H   UNL d   1      16.771  17.011   6.346 +0.07 +0.29    +0.222    22.343
ATOM     12  O   UNL d   1      17.343  20.112   7.243 -0.28 -0.16    -0.303    22.343
ATOM     13  H   UNL d   1      17.880  20.818   6.818 +0.10 +0.07    +0.222    22.343
ATOM     14  O   UNL d   1      20.442  19.224   5.326 -0.04 -0.06    -0.278    22.343
ATOM     15  P   UNL d   1      20.072  20.613   6.032 -0.09 +0.11    +0.473    22.343
ATOM     16  O   UNL d   1      18.912  21.369   5.462 -0.25 -0.05    -0.228    22.343
ATOM     17  O   UNL d   1      19.864  20.227   7.564 -0.11 -0.09    -0.303    22.343
ATOM     18  H   UNL d   1      20.547  19.596   7.863 +0.07 +0.07    +0.222    22.343
ATOM     19  O   UNL d   1      21.448  21.409   6.088 -0.05 -0.05    -0.303    22.343
ATOM     20  H   UNL d   1      22.212  20.805   6.139 +0.03 +0.03    +0.222    22.343
ATOM     21  O   UNL d   1      17.649  16.892   3.042 -0.09 -0.02    -0.278    22.343
ATOM     22  P   UNL d   1      16.754  15.846   3.847 -0.02 +0.12    +0.473    22.343
ATOM     23  O   UNL d   1      15.942  14.866   3.069 -0.02 -0.05    -0.228    22.343
ATOM     24  O   UNL d   1      17.820  15.196   4.833 -0.01 -0.11    -0.303    22.343
ATOM     25  H   UNL d   1      18.397  14.587   4.306 +0.02 +0.05    +0.222    22.343
ATOM     26  O   UNL d   1      15.936  16.810   4.833 -0.12 -0.16    -0.303    22.343
ATOM     27  H   UNL d   1      16.112  17.742   4.592 -0.13 +0.05    +0.222    22.343
ATOM     28  O   UNL d   1      22.061  17.365   6.309 -0.01 -0.05    -0.278    22.343
ATOM     29  P   UNL d   1      22.161  17.864   7.818 -0.02 +0.11    +0.473    22.343
ATOM     30  O   UNL d   1      20.924  17.711   8.626 -0.58 -0.10    -0.228    22.343
ATOM     31  O   UNL d   1      23.449  17.045   8.298 -0.01 -0.05    -0.303    22.343
ATOM     32  H   UNL d   1      23.678  16.384   7.604 +0.01 +0.03    +0.222    22.343
ATOM     33  O   UNL d   1      22.728  19.341   7.644 -0.01 -0.05    -0.303    22.343
ATOM     34  H   UNL d   1      22.019  19.915   7.264 +0.04 +0.04    +0.222    22.343
ATOM     35  O   UNL d   1      20.354  16.251   2.146 -0.01 -0.02    -0.278    22.343
ATOM     36  P   UNL d   1      19.667  15.309   1.058 +0.00 +0.02    +0.473    22.343
ATOM     37  O   UNL d   1      19.145  16.004  -0.159 -0.05 -0.00    -0.228    22.343
ATOM     38  O   UNL d   1      20.822  14.253   0.765 +0.00 -0.01    -0.303    22.343
ATOM     39  H   UNL d   1      20.907  13.649   1.534 +0.00 +0.01    +0.222    22.343
ATOM     40  O   UNL d   1      18.615  14.494   1.930 -0.00 -0.03    -0.303    22.343
ATOM     41  H   UNL d   1      18.465  14.915   2.806 +0.02 +0.03    +0.222    22.343
ATOM     42  O   UNL d   1      21.790  15.186   4.448 +0.00 -0.03    -0.278    22.343
ATOM     43  P   UNL d   1      20.944  13.902   4.873 +0.01 +0.07    +0.473    22.343
ATOM     44  O   UNL d   1      21.692  12.737   5.422 -0.00 -0.03    -0.228    22.343
ATOM     45  O   UNL d   1      19.864  14.511   5.872 -0.01 -0.08    -0.303    22.343
ATOM     46  H   UNL d   1      19.096  13.915   5.975 +0.03 +0.07    +0.222    22.343
ATOM     47  O   UNL d   1      20.054  13.602   3.574 +0.00 -0.04    -0.303    22.343
ATOM     48  H   UNL d   1      20.350  14.179   2.840 +0.01 +0.02    +0.222    22.343
TER
ENDMDL
MODEL       81
USER    Run = 81
USER    Cluster Rank = 32
USER    Number of conformations in this cluster = 1
USER  
USER    RMSD from reference structure       = 32.291 A
USER  
USER    Estimated Free Energy of Binding    =   +3.84 kcal/mol  [=(1)+(2)+(3)-(4)]
USER    
USER    (1) Final Intermolecular Energy     =   -3.32 kcal/mol
USER        vdW + Hbond + desolv Energy     =   -3.04 kcal/mol
USER        Electrostatic Energy            =   -0.28 kcal/mol
USER    (2) Final Total Internal Energy     =  -13.05 kcal/mol
USER    (3) Torsional Free Energy           =   +7.16 kcal/mol
USER    (4) Unbound System's Energy  [=(2)] =  -13.05 kcal/mol
USER    
USER    
USER  
USER    DPF = D:/Protein_go_brrr/autodock/final/2DN3/IHP/dock.dpf
USER    NEWDPF move	IHP_ideal_opt.pdbqt
USER    NEWDPF about	0.035000 0.082000 -0.065000
USER    NEWDPF tran0	10.342405 29.833403 -17.253569
USER    NEWDPF axisangle0	-0.793403 0.431510 0.429313 -164.706048
USER    NEWDPF quaternion0	-0.786347 0.427673 0.425495 -0.133069
USER    NEWDPF dihe0	139.98 84.75 -27.12 14.06 65.08 -122.97 -119.02 -178.94 21.32 29.38 23.94 -137.36 -24.91 30.70 -67.79 -15.27 -136.33 -45.01 -15.25 -28.57 -3.57 29.66 -31.88 177.45 
USER  
USER                              x       y       z    vdW   Elec        q     RMS 
ATOM      1  C   UNL d   1      10.942  30.118 -18.849 -0.01 +0.01    +0.194    32.291
ATOM      2  C   UNL d   1      11.439  31.086 -17.773 -0.05 +0.01    +0.194    32.291
ATOM      3  C   UNL d   1      10.309  31.524 -16.839 -0.09 +0.02    +0.194    32.291
ATOM      4  C   UNL d   1       9.531  30.352 -16.246 -0.13 +0.04    +0.194    32.291
ATOM      5  C   UNL d   1       9.114  29.303 -17.268 -0.03 +0.03    +0.194    32.291
ATOM      6  C   UNL d   1      10.227  28.910 -18.242 -0.01 +0.01    +0.194    32.291
ATOM      7  O   UNL d   1      12.077  29.625 -19.565 -0.00 -0.01    -0.278    32.291
ATOM      8  P   UNL d   1      11.978  29.505 -21.155 +0.00 +0.01    +0.473    32.291
ATOM      9  O   UNL d   1      11.021  30.445 -21.800 +0.00 -0.01    -0.228    32.291
ATOM     10  O   UNL d   1      13.481  29.698 -21.652 +0.00 -0.01    -0.303    32.291
ATOM     11  H   UNL d   1      14.009  30.110 -20.943 +0.00 +0.00    +0.222    32.291
ATOM     12  O   UNL d   1      11.730  27.961 -21.437 +0.00 -0.01    -0.303    32.291
ATOM     13  H   UNL d   1      11.116  27.544 -20.791 +0.00 +0.00    +0.222    32.291
ATOM     14  O   UNL d   1      12.451  30.437 -16.993 -0.09 -0.00    -0.278    32.291
ATOM     15  P   UNL d   1      13.967  30.850 -17.301 -0.05 -0.01    +0.473    32.291
ATOM     16  O   UNL d   1      14.495  32.052 -16.581 -0.11 +0.01    -0.228    32.291
ATOM     17  O   UNL d   1      14.800  29.529 -16.989 -0.05 +0.02    -0.303    32.291
ATOM     18  H   UNL d   1      15.488  29.697 -16.317 +0.03 -0.02    +0.222    32.291
ATOM     19  O   UNL d   1      14.047  30.912 -18.888 -0.01 -0.00    -0.303    32.291
ATOM     20  H   UNL d   1      13.622  30.137 -19.301 +0.01 +0.00    +0.222    32.291
ATOM     21  O   UNL d   1       9.606  28.208 -19.316 +0.00 -0.02    -0.278    32.291
ATOM     22  P   UNL d   1       9.766  26.624 -19.425 +0.00 +0.01    +0.473    32.291
ATOM     23  O   UNL d   1      11.080  26.022 -19.056 -0.00 +0.00    -0.228    32.291
ATOM     24  O   UNL d   1       8.531  26.112 -18.563 +0.00 -0.01    -0.303    32.291
ATOM     25  H   UNL d   1       8.052  26.904 -18.210 +0.01 +0.02    +0.222    32.291
ATOM     26  O   UNL d   1       9.262  26.348 -20.922 +0.00 -0.01    -0.303    32.291
ATOM     27  H   UNL d   1       9.860  26.801 -21.551 +0.00 +0.01    +0.222    32.291
ATOM     28  O   UNL d   1      10.903  32.184 -15.729 -0.65 -0.06    -0.278    32.291
ATOM     29  P   UNL d   1      10.226  33.486 -15.110 -0.15 +0.04    +0.473    32.291
ATOM     30  O   UNL d   1       9.684  34.456 -16.096 -0.05 -0.02    -0.228    32.291
ATOM     31  O   UNL d   1       9.179  32.807 -14.108 -0.23 -0.07    -0.303    32.291
ATOM     32  H   UNL d   1       8.495  32.338 -14.640 +0.06 +0.12    +0.222    32.291
ATOM     33  O   UNL d   1      11.360  34.017 -14.126 -0.16 +0.03    -0.303    32.291
ATOM     34  H   UNL d   1      11.004  34.032 -13.204 -0.42 -0.11    +0.222    32.291
ATOM     35  O   UNL d   1       8.784  28.138 -16.515 -0.03 -0.05    -0.278    32.291
ATOM     36  P   UNL d   1       7.262  27.803 -16.175 -0.03 +0.19    +0.473    32.291
ATOM     37  O   UNL d   1       6.759  28.341 -14.873 -0.26 -0.27    -0.228    32.291
ATOM     38  O   UNL d   1       6.509  28.377 -17.455 -0.01 -0.11    -0.303    32.291
ATOM     39  H   UNL d   1       6.827  29.288 -17.633 +0.02 +0.08    +0.222    32.291
ATOM     40  O   UNL d   1       7.208  26.226 -16.374 -0.00 -0.05    -0.303    32.291
ATOM     41  H   UNL d   1       8.014  25.888 -16.825 +0.02 +0.01    +0.222    32.291
ATOM     42  O   UNL d   1       8.330  30.894 -15.685 -0.13 -0.15    -0.278    32.291
ATOM     43  P   UNL d   1       7.241  31.530 -16.661 -0.05 +0.28    +0.473    32.291
ATOM     44  O   UNL d   1       7.533  31.510 -18.122 -0.01 -0.06    -0.228    32.291
ATOM     45  O   UNL d   1       5.912  30.758 -16.252 -0.32 -0.38    -0.303    32.291
ATOM     46  H   UNL d   1       6.055  29.791 -16.221 +0.02 +0.26    +0.222    32.291
ATOM     47  O   UNL d   1       6.984  32.980 -16.027 -0.10 -0.17    -0.303    32.291
ATOM     48  H   UNL d   1       7.840  33.367 -15.750 +0.04 +0.09    +0.222    32.291
TER
ENDMDL
MODEL       86
USER    Run = 86
USER    Cluster Rank = 33
USER    Number of conformations in this cluster = 1
USER  
USER    RMSD from reference structure       = 49.578 A
USER  
USER    Estimated Free Energy of Binding    =   +3.86 kcal/mol  [=(1)+(2)+(3)-(4)]
USER    
USER    (1) Final Intermolecular Energy     =   -3.30 kcal/mol
USER        vdW + Hbond + desolv Energy     =   -3.45 kcal/mol
USER        Electrostatic Energy            =   +0.15 kcal/mol
USER    (2) Final Total Internal Energy     =  -15.33 kcal/mol
USER    (3) Torsional Free Energy           =   +7.16 kcal/mol
USER    (4) Unbound System's Energy  [=(2)] =  -15.33 kcal/mol
USER    
USER    
USER  
USER    DPF = D:/Protein_go_brrr/autodock/final/2DN3/IHP/dock.dpf
USER    NEWDPF move	IHP_ideal_opt.pdbqt
USER    NEWDPF about	0.035000 0.082000 -0.065000
USER    NEWDPF tran0	13.779471 48.941271 14.363735
USER    NEWDPF axisangle0	-0.812484 -0.582110 -0.031913 -68.174749
USER    NEWDPF quaternion0	-0.455362 -0.326247 -0.017886 -0.828184
USER    NEWDPF dihe0	160.24 99.29 -175.96 -2.62 2.83 176.39 -7.18 -104.46 72.43 79.76 -22.36 -121.29 -47.56 86.52 179.18 -122.34 123.81 -50.75 5.54 -42.00 -32.07 28.02 0.32 170.08 
USER  
USER                              x       y       z    vdW   Elec        q     RMS 
ATOM      1  C   UNL d   1      14.060  49.363  16.015 -0.04 -0.06    +0.194    49.578
ATOM      2  C   UNL d   1      13.009  48.277  15.780 -0.07 -0.10    +0.194    49.578
ATOM      3  C   UNL d   1      12.086  48.625  14.611 -0.08 -0.10    +0.194    49.578
ATOM      4  C   UNL d   1      12.841  48.984  13.334 -0.17 -0.10    +0.194    49.578
ATOM      5  C   UNL d   1      13.975  49.980  13.542 -0.14 -0.07    +0.194    49.578
ATOM      6  C   UNL d   1      14.862  49.665  14.748 -0.10 -0.06    +0.194    49.578
ATOM      7  O   UNL d   1      14.982  48.887  16.999 -0.03 +0.06    -0.278    49.578
ATOM      8  P   UNL d   1      15.085  49.674  18.386 +0.02 -0.07    +0.473    49.578
ATOM      9  O   UNL d   1      14.120  50.795  18.549 -0.00 +0.03    -0.228    49.578
ATOM     10  O   UNL d   1      14.917  48.535  19.490 -0.02 +0.05    -0.303    49.578
ATOM     11  H   UNL d   1      14.835  47.666  19.054 +0.07 -0.04    +0.222    49.578
ATOM     12  O   UNL d   1      16.621  50.054  18.531 -0.04 +0.03    -0.303    49.578
ATOM     13  H   UNL d   1      16.973  50.542  17.753 +0.06 -0.02    +0.222    49.578
ATOM     14  O   UNL d   1      13.673  47.041  15.485 -0.12 +0.28    -0.278    49.578
ATOM     15  P   UNL d   1      14.035  46.107  16.734 -0.10 -0.30    +0.473    49.578
ATOM     16  O   UNL d   1      13.884  44.631  16.535 -0.84 +0.15    -0.228    49.578
ATOM     17  O   UNL d   1      15.523  46.529  17.116 -0.17 +0.08    -0.303    49.578
ATOM     18  H   UNL d   1      15.525  47.274  17.747 +0.10 -0.04    +0.222    49.578
ATOM     19  O   UNL d   1      13.207  46.724  17.944 -0.05 +0.11    -0.303    49.578
ATOM     20  H   UNL d   1      13.483  47.638  18.141 +0.05 -0.06    +0.222    49.578
ATOM     21  O   UNL d   1      15.633  50.835  15.010 -0.05 +0.07    -0.278    49.578
ATOM     22  P   UNL d   1      17.197  50.706  15.293 -0.04 -0.05    +0.473    49.578
ATOM     23  O   UNL d   1      17.841  51.723  16.174 -0.09 +0.02    -0.228    49.578
ATOM     24  O   UNL d   1      17.312  49.206  15.812 -0.18 -0.01    -0.303    49.578
ATOM     25  H   UNL d   1      16.795  49.131  16.654 +0.09 -0.01    +0.222    49.578
ATOM     26  O   UNL d   1      17.788  50.588  13.807 -0.14 +0.03    -0.303    49.578
ATOM     27  H   UNL d   1      17.056  50.664  13.163 +0.11 -0.07    +0.222    49.578
ATOM     28  O   UNL d   1      11.338  47.458  14.293 -0.09 +0.24    -0.278    49.578
ATOM     29  P   UNL d   1       9.788  47.566  13.945 -0.03 -0.20    +0.473    49.578
ATOM     30  O   UNL d   1       8.961  46.395  14.336 -0.16 +0.10    -0.228    49.578
ATOM     31  O   UNL d   1       9.442  48.964  14.641 -0.01 +0.07    -0.303    49.578
ATOM     32  H   UNL d   1      10.154  49.609  14.422 +0.04 -0.05    +0.222    49.578
ATOM     33  O   UNL d   1       9.818  47.941  12.398 -0.12 +0.11    -0.303    49.578
ATOM     34  H   UNL d   1      10.490  48.651  12.253 +0.07 -0.09    +0.222    49.578
ATOM     35  O   UNL d   1      14.795  49.880  12.380 -0.18 +0.10    -0.278    49.578
ATOM     36  P   UNL d   1      15.244  51.196  11.597 -0.00 -0.36    +0.473    49.578
ATOM     37  O   UNL d   1      16.315  51.002  10.571 -0.43 +0.18    -0.228    49.578
ATOM     38  O   UNL d   1      13.858  51.712  11.007 -0.33 +0.18    -0.303    49.578
ATOM     39  H   UNL d   1      13.138  51.119  11.313 +0.10 -0.08    +0.222    49.578
ATOM     40  O   UNL d   1      15.556  52.208  12.783 -0.10 +0.30    -0.303    49.578
ATOM     41  H   UNL d   1      15.987  51.757  13.543 +0.08 -0.13    +0.222    49.578
ATOM     42  O   UNL d   1      11.896  49.600  12.453 -0.16 +0.10    -0.278    49.578
ATOM     43  P   UNL d   1      11.141  50.920  12.933 -0.06 -0.12    +0.473    49.578
ATOM     44  O   UNL d   1      11.379  51.379  14.330 -0.02 +0.05    -0.228    49.578
ATOM     45  O   UNL d   1      11.551  51.982  11.820 -0.14 +0.09    -0.303    49.578
ATOM     46  H   UNL d   1      12.321  52.516  12.102 +0.07 -0.08    +0.222    49.578
ATOM     47  O   UNL d   1       9.611  50.626  12.553 -0.07 +0.05    -0.303    49.578
ATOM     48  H   UNL d   1       9.320  49.804  13.000 +0.06 -0.03    +0.222    49.578
TER
ENDMDL
MODEL       98
USER    Run = 98
USER    Cluster Rank = 34
USER    Number of conformations in this cluster = 1
USER  
USER    RMSD from reference structure       = 46.009 A
USER  
USER    Estimated Free Energy of Binding    =   +3.87 kcal/mol  [=(1)+(2)+(3)-(4)]
USER    
USER    (1) Final Intermolecular Energy     =   -3.29 kcal/mol
USER        vdW + Hbond + desolv Energy     =   -3.20 kcal/mol
USER        Electrostatic Energy            =   -0.09 kcal/mol
USER    (2) Final Total Internal Energy     =  -16.11 kcal/mol
USER    (3) Torsional Free Energy           =   +7.16 kcal/mol
USER    (4) Unbound System's Energy  [=(2)] =  -16.11 kcal/mol
USER    
USER    
USER  
USER    DPF = D:/Protein_go_brrr/autodock/final/2DN3/IHP/dock.dpf
USER    NEWDPF move	IHP_ideal_opt.pdbqt
USER    NEWDPF about	0.035000 0.082000 -0.065000
USER    NEWDPF tran0	39.523357 30.466349 -2.972542
USER    NEWDPF axisangle0	0.714897 -0.235027 0.658547 -70.681038
USER    NEWDPF quaternion0	0.413521 -0.135948 0.380926 -0.815729
USER    NEWDPF dihe0	-123.30 -0.14 53.56 49.69 68.97 -130.42 36.66 -73.10 25.02 108.72 44.14 117.78 27.71 159.27 120.91 93.94 -65.78 -177.46 -0.16 -18.49 -12.62 -22.48 -169.79 15.40 
USER  
USER                              x       y       z    vdW   Elec        q     RMS 
ATOM      1  C   UNL d   1      41.092  30.162  -2.316 -0.08 +0.01    +0.194    46.009
ATOM      2  C   UNL d   1      40.808  29.518  -3.674 -0.02 +0.02    +0.194    46.009
ATOM      3  C   UNL d   1      39.408  28.902  -3.727 -0.01 +0.02    +0.194    46.009
ATOM      4  C   UNL d   1      38.307  29.873  -3.307 -0.01 +0.02    +0.194    46.009
ATOM      5  C   UNL d   1      38.602  30.623  -2.015 -0.04 +0.02    +0.194    46.009
ATOM      6  C   UNL d   1      40.022  31.187  -1.936 -0.07 +0.01    +0.194    46.009
ATOM      7  O   UNL d   1      42.337  30.859  -2.404 -0.06 -0.02    -0.278    46.009
ATOM      8  P   UNL d   1      43.501  30.467  -1.382 -0.26 +0.01    +0.473    46.009
ATOM      9  O   UNL d   1      44.258  29.234  -1.732 -0.25 +0.00    -0.228    46.009
ATOM     10  O   UNL d   1      44.417  31.771  -1.321 -0.14 +0.03    -0.303    46.009
ATOM     11  H   UNL d   1      44.002  32.435  -0.739 -0.18 -0.04    +0.222    46.009
ATOM     12  O   UNL d   1      42.813  30.476   0.050 -0.61 -0.01    -0.303    46.009
ATOM     13  H   UNL d   1      42.242  31.263   0.198 -0.36 -0.04    +0.222    46.009
ATOM     14  O   UNL d   1      40.905  30.519  -4.695 -0.00 -0.02    -0.278    46.009
ATOM     15  P   UNL d   1      42.112  30.366  -5.735 +0.00 +0.04    +0.473    46.009
ATOM     16  O   UNL d   1      42.734  31.632  -6.236 -0.00 -0.02    -0.228    46.009
ATOM     17  O   UNL d   1      43.154  29.422  -4.984 -0.01 -0.02    -0.303    46.009
ATOM     18  H   UNL d   1      43.241  29.673  -4.045 +0.04 +0.02    +0.222    46.009
ATOM     19  O   UNL d   1      41.548  29.389  -6.857 -0.00 -0.02    -0.303    46.009
ATOM     20  H   UNL d   1      40.698  28.991  -6.594 +0.00 +0.02    +0.222    46.009
ATOM     21  O   UNL d   1      40.249  31.543  -0.574 -0.15 -0.01    -0.278    46.009
ATOM     22  P   UNL d   1      40.470  33.073  -0.181 -0.12 +0.04    +0.473    46.009
ATOM     23  O   UNL d   1      40.061  33.517   1.183 -0.78 -0.06    -0.228    46.009
ATOM     24  O   UNL d   1      42.013  33.275  -0.515 -0.16 -0.03    -0.303    46.009
ATOM     25  H   UNL d   1      42.358  32.430  -0.901 +0.06 +0.01    +0.222    46.009
ATOM     26  O   UNL d   1      39.765  33.828  -1.407 -0.04 -0.03    -0.303    46.009
ATOM     27  H   UNL d   1      38.840  33.516  -1.489 +0.05 +0.02    +0.222    46.009
ATOM     28  O   UNL d   1      39.132  28.583  -5.085 -0.00 -0.02    -0.278    46.009
ATOM     29  P   UNL d   1      39.559  27.170  -5.683 -0.00 +0.03    +0.473    46.009
ATOM     30  O   UNL d   1      38.823  25.998  -5.142 -0.00 -0.01    -0.228    46.009
ATOM     31  O   UNL d   1      39.401  27.469  -7.247 +0.00 -0.02    -0.303    46.009
ATOM     32  H   UNL d   1      40.250  27.836  -7.583 +0.00 +0.01    +0.222    46.009
ATOM     33  O   UNL d   1      41.138  27.184  -5.480 -0.00 -0.02    -0.303    46.009
ATOM     34  H   UNL d   1      41.426  28.106  -5.270 +0.01 +0.02    +0.222    46.009
ATOM     35  O   UNL d   1      37.708  31.734  -2.000 -0.01 -0.03    -0.278    46.009
ATOM     36  P   UNL d   1      37.394  32.532  -3.345 +0.01 +0.05    +0.473    46.009
ATOM     37  O   UNL d   1      38.412  32.390  -4.432 +0.00 -0.02    -0.228    46.009
ATOM     38  O   UNL d   1      35.951  31.976  -3.725 +0.00 -0.03    -0.303    46.009
ATOM     39  H   UNL d   1      35.944  31.000  -3.619 +0.00 +0.02    +0.222    46.009
ATOM     40  O   UNL d   1      37.109  34.002  -2.810 -0.00 -0.03    -0.303    46.009
ATOM     41  H   UNL d   1      37.918  34.416  -2.434 +0.02 +0.02    +0.222    46.009
ATOM     42  O   UNL d   1      37.130  29.091  -3.081 -0.01 -0.02    -0.278    46.009
ATOM     43  P   UNL d   1      36.061  28.948  -4.257 -0.00 +0.04    +0.473    46.009
ATOM     44  O   UNL d   1      34.630  29.184  -3.917 -0.00 -0.02    -0.228    46.009
ATOM     45  O   UNL d   1      36.635  29.928  -5.371 +0.00 -0.02    -0.303    46.009
ATOM     46  H   UNL d   1      37.143  30.664  -4.974 +0.00 +0.02    +0.222    46.009
ATOM     47  O   UNL d   1      36.395  27.511  -4.883 -0.00 -0.02    -0.303    46.009
ATOM     48  H   UNL d   1      37.301  27.525  -5.258 +0.00 +0.01    +0.222    46.009
TER
ENDMDL
MODEL       33
USER    Run = 33
USER    Cluster Rank = 35
USER    Number of conformations in this cluster = 1
USER  
USER    RMSD from reference structure       = 26.931 A
USER  
USER    Estimated Free Energy of Binding    =   +3.88 kcal/mol  [=(1)+(2)+(3)-(4)]
USER    
USER    (1) Final Intermolecular Energy     =   -3.28 kcal/mol
USER        vdW + Hbond + desolv Energy     =   -2.83 kcal/mol
USER        Electrostatic Energy            =   -0.45 kcal/mol
USER    (2) Final Total Internal Energy     =  -12.71 kcal/mol
USER    (3) Torsional Free Energy           =   +7.16 kcal/mol
USER    (4) Unbound System's Energy  [=(2)] =  -12.71 kcal/mol
USER    
USER    
USER  
USER    DPF = D:/Protein_go_brrr/autodock/final/2DN3/IHP/dock.dpf
USER    NEWDPF move	IHP_ideal_opt.pdbqt
USER    NEWDPF about	0.035000 0.082000 -0.065000
USER    NEWDPF tran0	1.434965 28.886242 -10.062025
USER    NEWDPF axisangle0	-0.220530 0.913033 0.343128 -116.531320
USER    NEWDPF quaternion0	-0.187560 0.776531 0.291829 -0.525981
USER    NEWDPF dihe0	-180.00 144.74 77.58 131.92 24.16 -150.89 -103.89 -15.27 54.26 59.79 27.39 -174.50 99.13 127.05 -50.02 72.06 133.90 -13.27 46.50 1.68 -169.79 128.27 -10.72 167.84 
USER  
USER                              x       y       z    vdW   Elec        q     RMS 
ATOM      1  C   UNL d   1       2.054  28.746 -11.669 -0.04 +0.09    +0.194    26.931
ATOM      2  C   UNL d   1       2.744  27.876 -10.616 -0.06 +0.04    +0.194    26.931
ATOM      3  C   UNL d   1       2.990  28.646  -9.317 -0.11 +0.02    +0.194    26.931
ATOM      4  C   UNL d   1       1.735  29.324  -8.773 -0.04 +0.02    +0.194    26.931
ATOM      5  C   UNL d   1       0.952  30.110  -9.817 -0.01 +0.03    +0.194    26.931
ATOM      6  C   UNL d   1       0.759  29.363 -11.139 -0.01 +0.05    +0.194    26.931
ATOM      7  O   UNL d   1       1.707  27.914 -12.778 -0.01 -0.10    -0.278    26.931
ATOM      8  P   UNL d   1       2.865  27.466 -13.783 -0.02 +0.27    +0.473    26.931
ATOM      9  O   UNL d   1       2.648  26.153 -14.450 -0.00 -0.05    -0.228    26.931
ATOM     10  O   UNL d   1       2.977  28.682 -14.810 -0.06 -0.29    -0.303    26.931
ATOM     11  H   UNL d   1       2.615  29.489 -14.401 +0.01 +0.24    +0.222    26.931
ATOM     12  O   UNL d   1       4.211  27.607 -12.951 -0.28 -0.30    -0.303    26.931
ATOM     13  H   UNL d   1       4.532  26.751 -12.589 +0.05 +0.10    +0.222    26.931
ATOM     14  O   UNL d   1       1.912  26.746 -10.326 -0.02 +0.03    -0.278    26.931
ATOM     15  P   UNL d   1       2.632  25.316 -10.293 -0.04 -0.22    +0.473    26.931
ATOM     16  O   UNL d   1       1.756  24.128 -10.048 -0.08 +0.14    -0.228    26.931
ATOM     17  O   UNL d   1       3.405  25.239 -11.684 -0.03 +0.06    -0.303    26.931
ATOM     18  H   UNL d   1       3.050  25.889 -12.320 +0.03 +0.01    +0.222    26.931
ATOM     19  O   UNL d   1       3.836  25.503  -9.269 -0.04 +0.30    -0.303    26.931
ATOM     20  H   UNL d   1       3.520  25.565  -8.349 -0.05 -0.34    +0.222    26.931
ATOM     21  O   UNL d   1       0.332  30.327 -12.098 -0.00 -0.08    -0.278    26.931
ATOM     22  P   UNL d   1       1.416  31.151 -12.930 -0.03 +0.27    +0.473    26.931
ATOM     23  O   UNL d   1       2.804  31.233 -12.391 -0.44 -0.31    -0.228    26.931
ATOM     24  O   UNL d   1       1.297  30.485 -14.370 -0.02 -0.16    -0.303    26.931
ATOM     25  H   UNL d   1       1.218  29.504 -14.250 +0.01 +0.10    +0.222    26.931
ATOM     26  O   UNL d   1       0.663  32.550 -13.149 -0.00 -0.09    -0.303    26.931
ATOM     27  H   UNL d   1       0.121  32.751 -12.359 +0.01 +0.05    +0.222    26.931
ATOM     28  O   UNL d   1       3.369  27.701  -8.324 -0.17 +0.06    -0.278    26.931
ATOM     29  P   UNL d   1       2.513  27.550  -6.990 -0.18 -0.13    +0.473    26.931
ATOM     30  O   UNL d   1       1.041  27.483  -7.177 -0.09 +0.03    -0.228    26.931
ATOM     31  O   UNL d   1       3.222  26.267  -6.347 -0.23 +0.25    -0.303    26.931
ATOM     32  H   UNL d   1       3.243  25.549  -7.022 -0.38 -0.47    +0.222    26.931
ATOM     33  O   UNL d   1       3.071  28.744  -6.097 -0.24 +0.04    -0.303    26.931
ATOM     34  H   UNL d   1       3.154  29.554  -6.659 +0.10 -0.00    +0.222    26.931
ATOM     35  O   UNL d   1      -0.344  30.314  -9.257 +0.00 -0.03    -0.278    26.931
ATOM     36  P   UNL d   1      -0.892  31.792  -9.015 +0.00 +0.05    +0.473    26.931
ATOM     37  O   UNL d   1      -2.279  31.882  -8.460 +0.00 -0.02    -0.228    26.931
ATOM     38  O   UNL d   1       0.232  32.406  -8.069 -0.01 -0.04    -0.303    26.931
ATOM     39  H   UNL d   1       0.777  31.677  -7.703 +0.03 +0.02    +0.222    26.931
ATOM     40  O   UNL d   1      -0.631  32.486 -10.421 +0.00 -0.04    -0.303    26.931
ATOM     41  H   UNL d   1      -0.492  31.824 -11.134 +0.01 +0.04    +0.222    26.931
ATOM     42  O   UNL d   1       2.167  30.259  -7.779 -0.06 -0.03    -0.278    26.931
ATOM     43  P   UNL d   1       3.220  31.386  -8.186 -0.11 +0.09    +0.473    26.931
ATOM     44  O   UNL d   1       3.162  31.909  -9.579 -0.12 -0.09    -0.228    26.931
ATOM     45  O   UNL d   1       2.995  32.494  -7.065 -0.11 -0.04    -0.303    26.931
ATOM     46  H   UNL d   1       2.044  32.668  -6.920 +0.04 +0.03    +0.222    26.931
ATOM     47  O   UNL d   1       4.624  30.754  -7.741 -0.13 -0.06    -0.303    26.931
ATOM     48  H   UNL d   1       4.478  29.842  -7.415 +0.12 +0.02    +0.222    26.931
TER
ENDMDL
MODEL       97
USER    Run = 97
USER    Cluster Rank = 36
USER    Number of conformations in this cluster = 1
USER  
USER    RMSD from reference structure       = 57.491 A
USER  
USER    Estimated Free Energy of Binding    =   +3.92 kcal/mol  [=(1)+(2)+(3)-(4)]
USER    
USER    (1) Final Intermolecular Energy     =   -3.24 kcal/mol
USER        vdW + Hbond + desolv Energy     =   -3.17 kcal/mol
USER        Electrostatic Energy            =   -0.08 kcal/mol
USER    (2) Final Total Internal Energy     =  -13.38 kcal/mol
USER    (3) Torsional Free Energy           =   +7.16 kcal/mol
USER    (4) Unbound System's Energy  [=(2)] =  -13.38 kcal/mol
USER    
USER    
USER  
USER    DPF = D:/Protein_go_brrr/autodock/final/2DN3/IHP/dock.dpf
USER    NEWDPF move	IHP_ideal_opt.pdbqt
USER    NEWDPF about	0.035000 0.082000 -0.065000
USER    NEWDPF tran0	53.323862 28.150390 14.322289
USER    NEWDPF axisangle0	-0.143866 -0.917711 -0.370283 -86.784074
USER    NEWDPF quaternion0	-0.098834 -0.630455 -0.254380 -0.726670
USER    NEWDPF dihe0	127.08 167.03 -171.02 18.60 36.76 -102.94 -30.32 18.01 -172.08 128.52 27.45 -87.86 -88.81 -172.45 -53.39 174.03 84.71 -71.06 -140.02 13.10 -172.71 22.27 12.30 -171.91 
USER  
USER                              x       y       z    vdW   Elec        q     RMS 
ATOM      1  C   UNL d   1      52.295  27.455  15.523 -0.08 +0.06    +0.194    57.491
ATOM      2  C   UNL d   1      52.122  26.905  14.106 -0.13 +0.07    +0.194    57.491
ATOM      3  C   UNL d   1      52.132  28.022  13.060 -0.14 +0.05    +0.194    57.491
ATOM      4  C   UNL d   1      53.342  28.946  13.177 -0.05 +0.03    +0.194    57.491
ATOM      5  C   UNL d   1      53.620  29.427  14.596 -0.03 +0.03    +0.194    57.491
ATOM      6  C   UNL d   1      53.549  28.320  15.650 -0.03 +0.04    +0.194    57.491
ATOM      7  O   UNL d   1      52.448  26.348  16.415 -0.04 -0.09    -0.278    57.491
ATOM      8  P   UNL d   1      53.925  25.918  16.844 -0.01 +0.12    +0.473    57.491
ATOM      9  O   UNL d   1      54.952  26.030  15.772 -0.01 -0.05    -0.228    57.491
ATOM     10  O   UNL d   1      54.241  26.833  18.113 -0.00 -0.06    -0.303    57.491
ATOM     11  H   UNL d   1      53.770  27.683  18.029 +0.01 +0.05    +0.222    57.491
ATOM     12  O   UNL d   1      53.762  24.481  17.502 -0.01 -0.09    -0.303    57.491
ATOM     13  H   UNL d   1      54.298  23.789  17.054 +0.01 +0.06    +0.222    57.491
ATOM     14  O   UNL d   1      53.199  26.003  13.821 -0.05 -0.09    -0.278    57.491
ATOM     15  P   UNL d   1      52.847  24.733  12.912 -0.08 +0.20    +0.473    57.491
ATOM     16  O   UNL d   1      53.009  23.387  13.546 -0.10 -0.11    -0.228    57.491
ATOM     17  O   UNL d   1      51.356  25.009  12.421 +0.00 -0.18    -0.303    57.491
ATOM     18  H   UNL d   1      51.349  25.460  11.555 +0.10 +0.11    +0.222    57.491
ATOM     19  O   UNL d   1      53.672  24.963  11.571 -0.03 -0.10    -0.303    57.491
ATOM     20  H   UNL d   1      53.643  25.895  11.286 +0.06 +0.07    +0.222    57.491
ATOM     21  O   UNL d   1      53.486  28.965  16.920 -0.01 -0.05    -0.278    57.491
ATOM     22  P   UNL d   1      52.077  29.447  17.494 -0.02 +0.10    +0.473    57.491
ATOM     23  O   UNL d   1      50.971  29.700  16.526 -0.08 -0.05    -0.228    57.491
ATOM     24  O   UNL d   1      51.769  28.327  18.583 -0.01 -0.08    -0.303    57.491
ATOM     25  H   UNL d   1      52.199  27.485  18.289 +0.02 +0.06    +0.222    57.491
ATOM     26  O   UNL d   1      52.507  30.690  18.410 -0.01 -0.06    -0.303    57.491
ATOM     27  H   UNL d   1      52.603  31.486  17.849 +0.01 +0.04    +0.222    57.491
ATOM     28  O   UNL d   1      52.247  27.410  11.781 -0.11 -0.08    -0.278    57.491
ATOM     29  P   UNL d   1      51.292  27.855  10.588 -0.24 +0.14    +0.473    57.491
ATOM     30  O   UNL d   1      51.884  27.774   9.228 -0.60 -0.09    -0.228    57.491
ATOM     31  O   UNL d   1      50.024  26.924  10.884 -0.43 -0.13    -0.303    57.491
ATOM     32  H   UNL d   1      50.051  26.649  11.829 +0.14 +0.11    +0.222    57.491
ATOM     33  O   UNL d   1      50.796  29.289  11.073 -0.19 -0.04    -0.303    57.491
ATOM     34  H   UNL d   1      51.519  29.946  10.921 +0.11 +0.00    +0.222    57.491
ATOM     35  O   UNL d   1      54.961  29.911  14.585 -0.00 -0.04    -0.278    57.491
ATOM     36  P   UNL d   1      55.360  31.196  15.440 -0.00 +0.05    +0.473    57.491
ATOM     37  O   UNL d   1      56.552  31.036  16.329 -0.00 -0.03    -0.228    57.491
ATOM     38  O   UNL d   1      55.533  32.302  14.307 -0.00 -0.03    -0.303    57.491
ATOM     39  H   UNL d   1      54.876  33.016  14.452 +0.02 +0.02    +0.222    57.491
ATOM     40  O   UNL d   1      53.984  31.579  16.141 -0.01 -0.04    -0.303    57.491
ATOM     41  H   UNL d   1      53.858  31.092  16.985 +0.01 +0.03    +0.222    57.491
ATOM     42  O   UNL d   1      53.057  30.105  12.388 -0.06 -0.02    -0.278    57.491
ATOM     43  P   UNL d   1      52.061  31.208  12.968 -0.13 +0.02    +0.473    57.491
ATOM     44  O   UNL d   1      51.055  30.763  13.973 -0.22 -0.03    -0.228    57.491
ATOM     45  O   UNL d   1      53.055  32.333  13.495 -0.07 -0.02    -0.303    57.491
ATOM     46  H   UNL d   1      53.794  31.947  14.006 +0.03 +0.02    +0.222    57.491
ATOM     47  O   UNL d   1      51.464  31.893  11.648 -0.24 +0.06    -0.303    57.491
ATOM     48  H   UNL d   1      50.645  31.424  11.384 -0.43 -0.06    +0.222    57.491
TER
ENDMDL
MODEL       32
USER    Run = 32
USER    Cluster Rank = 37
USER    Number of conformations in this cluster = 1
USER  
USER    RMSD from reference structure       = 31.538 A
USER  
USER    Estimated Free Energy of Binding    =   +3.97 kcal/mol  [=(1)+(2)+(3)-(4)]
USER    
USER    (1) Final Intermolecular Energy     =   -3.19 kcal/mol
USER        vdW + Hbond + desolv Energy     =   -3.11 kcal/mol
USER        Electrostatic Energy            =   -0.09 kcal/mol
USER    (2) Final Total Internal Energy     =  -14.19 kcal/mol
USER    (3) Torsional Free Energy           =   +7.16 kcal/mol
USER    (4) Unbound System's Energy  [=(2)] =  -14.19 kcal/mol
USER    
USER    
USER  
USER    DPF = D:/Protein_go_brrr/autodock/final/2DN3/IHP/dock.dpf
USER    NEWDPF move	IHP_ideal_opt.pdbqt
USER    NEWDPF about	0.035000 0.082000 -0.065000
USER    NEWDPF tran0	23.470479 25.927699 -7.133976
USER    NEWDPF axisangle0	-0.910295 -0.323230 -0.258620 86.101983
USER    NEWDPF quaternion0	-0.621412 -0.220653 -0.176547 0.730746
USER    NEWDPF dihe0	-174.63 5.69 37.95 39.13 7.27 173.90 -129.19 -28.12 37.20 111.26 164.78 128.72 55.11 171.11 -47.34 51.97 -118.70 -170.56 31.12 -11.70 -176.75 -10.06 -9.51 21.50 
USER  
USER                              x       y       z    vdW   Elec        q     RMS 
ATOM      1  C   UNL d   1      24.938  25.791  -8.036 -0.01 -0.05    +0.194    31.538
ATOM      2  C   UNL d   1      23.676  25.300  -8.748 -0.02 -0.05    +0.194    31.538
ATOM      3  C   UNL d   1      22.781  24.482  -7.815 -0.04 -0.05    +0.194    31.538
ATOM      4  C   UNL d   1      22.462  25.199  -6.505 -0.11 -0.07    +0.194    31.538
ATOM      5  C   UNL d   1      23.679  25.804  -5.818 -0.09 -0.08    +0.194    31.538
ATOM      6  C   UNL d   1      24.607  26.571  -6.763 -0.05 -0.09    +0.194    31.538
ATOM      7  O   UNL d   1      25.628  26.683  -8.915 -0.00 +0.06    -0.278    31.538
ATOM      8  P   UNL d   1      26.740  26.079  -9.889 +0.00 -0.05    +0.473    31.538
ATOM      9  O   UNL d   1      26.347  25.998 -11.322 +0.00 +0.02    -0.228    31.538
ATOM     10  O   UNL d   1      28.017  27.002  -9.638 +0.00 +0.02    -0.303    31.538
ATOM     11  H   UNL d   1      27.984  27.366  -8.734 +0.00 -0.02    +0.222    31.538
ATOM     12  O   UNL d   1      27.182  24.710  -9.213 +0.00 +0.02    -0.303    31.538
ATOM     13  H   UNL d   1      27.247  24.768  -8.233 +0.00 -0.02    +0.222    31.538
ATOM     14  O   UNL d   1      22.933  26.433  -9.216 -0.03 +0.09    -0.278    31.538
ATOM     15  P   UNL d   1      22.688  26.526 -10.796 +0.00 -0.09    +0.473    31.538
ATOM     16  O   UNL d   1      22.950  27.851 -11.440 -0.01 +0.04    -0.228    31.538
ATOM     17  O   UNL d   1      23.590  25.358 -11.397 -0.00 +0.04    -0.303    31.538
ATOM     18  H   UNL d   1      24.527  25.472 -11.145 +0.00 -0.03    +0.222    31.538
ATOM     19  O   UNL d   1      21.225  25.938 -11.005 -0.02 +0.06    -0.303    31.538
ATOM     20  H   UNL d   1      20.949  25.382 -10.253 +0.04 -0.05    +0.222    31.538
ATOM     21  O   UNL d   1      25.833  26.771  -6.064 -0.01 +0.09    -0.278    31.538
ATOM     22  P   UNL d   1      26.907  25.593  -5.996 +0.01 -0.07    +0.473    31.538
ATOM     23  O   UNL d   1      26.456  24.208  -6.319 +0.00 +0.03    -0.228    31.538
ATOM     24  O   UNL d   1      28.064  26.153  -6.934 +0.00 +0.03    -0.303    31.538
ATOM     25  H   UNL d   1      27.681  26.313  -7.834 +0.00 -0.02    +0.222    31.538
ATOM     26  O   UNL d   1      27.533  25.806  -4.536 +0.00 +0.04    -0.303    31.538
ATOM     27  H   UNL d   1      27.100  26.573  -4.109 +0.02 -0.04    +0.222    31.538
ATOM     28  O   UNL d   1      21.528  24.310  -8.466 -0.07 +0.07    -0.278    31.538
ATOM     29  P   UNL d   1      21.186  22.941  -9.203 -0.06 -0.13    +0.473    31.538
ATOM     30  O   UNL d   1      21.897  21.741  -8.690 -0.05 +0.06    -0.228    31.538
ATOM     31  O   UNL d   1      19.590  22.948  -9.079 -0.13 +0.13    -0.303    31.538
ATOM     32  H   UNL d   1      19.346  22.682  -8.163 -0.41 -0.13    +0.222    31.538
ATOM     33  O   UNL d   1      21.421  23.318 -10.732 -0.02 +0.06    -0.303    31.538
ATOM     34  H   UNL d   1      22.130  24.004 -10.789 +0.02 -0.04    +0.222    31.538
ATOM     35  O   UNL d   1      23.164  26.747  -4.879 -0.18 +0.22    -0.278    31.538
ATOM     36  P   UNL d   1      23.491  26.595  -3.325 -0.15 -0.29    +0.473    31.538
ATOM     37  O   UNL d   1      22.758  25.502  -2.615 -0.14 +0.08    -0.228    31.538
ATOM     38  O   UNL d   1      25.074  26.418  -3.341 -0.04 +0.12    -0.303    31.538
ATOM     39  H   UNL d   1      25.335  25.941  -4.158 +0.04 -0.07    +0.222    31.538
ATOM     40  O   UNL d   1      23.277  28.077  -2.787 -0.24 +0.36    -0.303    31.538
ATOM     41  H   UNL d   1      22.329  28.336  -2.801 -0.44 -0.32    +0.222    31.538
ATOM     42  O   UNL d   1      21.922  24.216  -5.616 -0.10 +0.07    -0.278    31.538
ATOM     43  P   UNL d   1      20.347  23.963  -5.611 -0.17 -0.10    +0.473    31.538
ATOM     44  O   UNL d   1      19.635  24.088  -4.308 -0.39 +0.02    -0.228    31.538
ATOM     45  O   UNL d   1      19.829  24.965  -6.733 -0.14 +0.07    -0.303    31.538
ATOM     46  H   UNL d   1      19.789  24.532  -7.609 +0.09 -0.05    +0.222    31.538
ATOM     47  O   UNL d   1      20.201  22.546  -6.346 -0.25 +0.10    -0.303    31.538
ATOM     48  H   UNL d   1      20.676  22.577  -7.202 +0.04 -0.08    +0.222    31.538
TER
ENDMDL
MODEL       56
USER    Run = 56
USER    Cluster Rank = 38
USER    Number of conformations in this cluster = 1
USER  
USER    RMSD from reference structure       = 50.370 A
USER  
USER    Estimated Free Energy of Binding    =   +3.98 kcal/mol  [=(1)+(2)+(3)-(4)]
USER    
USER    (1) Final Intermolecular Energy     =   -3.18 kcal/mol
USER        vdW + Hbond + desolv Energy     =   -2.76 kcal/mol
USER        Electrostatic Energy            =   -0.42 kcal/mol
USER    (2) Final Total Internal Energy     =  -14.94 kcal/mol
USER    (3) Torsional Free Energy           =   +7.16 kcal/mol
USER    (4) Unbound System's Energy  [=(2)] =  -14.94 kcal/mol
USER    
USER    
USER  
USER    DPF = D:/Protein_go_brrr/autodock/final/2DN3/IHP/dock.dpf
USER    NEWDPF move	IHP_ideal_opt.pdbqt
USER    NEWDPF about	0.035000 0.082000 -0.065000
USER    NEWDPF tran0	50.078745 18.484948 11.728958
USER    NEWDPF axisangle0	-0.481206 -0.731072 0.483709 149.955242
USER    NEWDPF quaternion0	-0.464760 -0.706088 0.467178 0.259196
USER    NEWDPF dihe0	168.00 -180.00 -178.72 -36.23 10.45 174.39 -129.91 -57.83 -43.25 96.51 88.41 -163.56 91.64 177.05 172.85 -134.58 -18.69 133.70 -4.18 15.91 -17.04 -1.29 172.10 0.56 
USER  
USER                              x       y       z    vdW   Elec        q     RMS 
ATOM      1  C   UNL d   1      48.684  18.175  10.759 -0.07 +0.07    +0.194    50.370
ATOM      2  C   UNL d   1      48.528  17.884  12.252 -0.05 +0.09    +0.194    50.370
ATOM      3  C   UNL d   1      49.755  17.169  12.822 -0.01 +0.07    +0.194    50.370
ATOM      4  C   UNL d   1      51.067  17.883  12.507 -0.02 +0.07    +0.194    50.370
ATOM      5  C   UNL d   1      51.215  18.294  11.047 -0.02 +0.06    +0.194    50.370
ATOM      6  C   UNL d   1      49.965  18.954  10.460 -0.09 +0.08    +0.194    50.370
ATOM      7  O   UNL d   1      47.584  18.989  10.345 -0.14 -0.09    -0.278    50.370
ATOM      8  P   UNL d   1      46.708  18.506   9.100 -0.12 +0.20    +0.473    50.370
ATOM      9  O   UNL d   1      45.250  18.787   9.207 -0.21 -0.08    -0.228    50.370
ATOM     10  O   UNL d   1      47.394  19.216   7.846 -0.55 -0.29    -0.303    50.370
ATOM     11  H   UNL d   1      48.240  19.616   8.120 +0.06 +0.15    +0.222    50.370
ATOM     12  O   UNL d   1      47.107  16.984   8.879 -0.03 -0.11    -0.303    50.370
ATOM     13  H   UNL d   1      46.330  16.399   8.734 +0.03 +0.07    +0.222    50.370
ATOM     14  O   UNL d   1      48.355  19.123  12.953 -0.16 -0.23    -0.278    50.370
ATOM     15  P   UNL d   1      47.425  19.084  14.257 -0.01 +0.56    +0.473    50.370
ATOM     16  O   UNL d   1      46.313  20.083  14.319 -0.21 -0.39    -0.228    50.370
ATOM     17  O   UNL d   1      46.908  17.578  14.319 -0.02 -0.16    -0.303    50.370
ATOM     18  H   UNL d   1      47.550  17.004  14.779 +0.02 +0.10    +0.222    50.370
ATOM     19  O   UNL d   1      48.449  19.120  15.474 -0.22 -0.42    -0.303    50.370
ATOM     20  H   UNL d   1      48.643  18.225  15.808 +0.02 +0.17    +0.222    50.370
ATOM     21  O   UNL d   1      50.130  18.961   9.044 -0.05 -0.11    -0.278    50.370
ATOM     22  P   UNL d   1      50.155  20.348   8.257 -0.12 +0.21    +0.473    50.370
ATOM     23  O   UNL d   1      49.806  20.342   6.806 -0.16 -0.16    -0.228    50.370
ATOM     24  O   UNL d   1      49.214  21.255   9.165 -0.12 -0.11    -0.303    50.370
ATOM     25  H   UNL d   1      48.340  20.798   9.257 -0.25 +0.06    +0.222    50.370
ATOM     26  O   UNL d   1      51.611  20.907   8.627 -0.07 -0.12    -0.303    50.370
ATOM     27  H   UNL d   1      52.065  20.262   9.208 +0.04 +0.08    +0.222    50.370
ATOM     28  O   UNL d   1      49.644  17.192  14.239 -0.01 -0.12    -0.278    50.370
ATOM     29  P   UNL d   1      49.334  15.852  15.043 +0.01 +0.14    +0.473    50.370
ATOM     30  O   UNL d   1      48.801  16.039  16.418 +0.00 -0.07    -0.228    50.370
ATOM     31  O   UNL d   1      48.385  15.109  13.991 +0.00 -0.07    -0.303    50.370
ATOM     32  H   UNL d   1      47.485  15.506  14.045 +0.01 +0.06    +0.222    50.370
ATOM     33  O   UNL d   1      50.705  15.055  14.905 +0.00 -0.07    -0.303    50.370
ATOM     34  H   UNL d   1      51.347  15.606  14.394 +0.00 +0.05    +0.222    50.370
ATOM     35  O   UNL d   1      52.255  19.269  11.023 -0.02 -0.09    -0.278    50.370
ATOM     36  P   UNL d   1      52.136  20.594  11.904 -0.06 +0.21    +0.473    50.370
ATOM     37  O   UNL d   1      51.273  20.485  13.120 -0.12 -0.15    -0.228    50.370
ATOM     38  O   UNL d   1      53.665  20.918  12.212 -0.02 -0.10    -0.303    50.370
ATOM     39  H   UNL d   1      53.829  20.806  13.173 +0.02 +0.07    +0.222    50.370
ATOM     40  O   UNL d   1      51.725  21.685  10.822 -0.12 -0.14    -0.303    50.370
ATOM     41  H   UNL d   1      50.919  21.419  10.325 +0.06 +0.11    +0.222    50.370
ATOM     42  O   UNL d   1      52.121  16.958  12.792 -0.00 -0.07    -0.278    50.370
ATOM     43  P   UNL d   1      53.075  17.236  14.040 +0.00 +0.12    +0.473    50.370
ATOM     44  O   UNL d   1      54.153  16.246  14.315 +0.00 -0.04    -0.228    50.370
ATOM     45  O   UNL d   1      53.603  18.710  13.753 -0.00 -0.09    -0.303    50.370
ATOM     46  H   UNL d   1      53.062  19.158  13.072 +0.02 +0.07    +0.222    50.370
ATOM     47  O   UNL d   1      52.044  17.488  15.241 -0.00 -0.10    -0.303    50.370
ATOM     48  H   UNL d   1      51.156  17.171  14.975 +0.01 +0.08    +0.222    50.370
TER
ENDMDL
MODEL       13
USER    Run = 13
USER    Cluster Rank = 39
USER    Number of conformations in this cluster = 1
USER  
USER    RMSD from reference structure       = 51.005 A
USER  
USER    Estimated Free Energy of Binding    =   +4.02 kcal/mol  [=(1)+(2)+(3)-(4)]
USER    
USER    (1) Final Intermolecular Energy     =   -3.14 kcal/mol
USER        vdW + Hbond + desolv Energy     =   -3.16 kcal/mol
USER        Electrostatic Energy            =   +0.02 kcal/mol
USER    (2) Final Total Internal Energy     =  -14.67 kcal/mol
USER    (3) Torsional Free Energy           =   +7.16 kcal/mol
USER    (4) Unbound System's Energy  [=(2)] =  -14.67 kcal/mol
USER    
USER    
USER  
USER    DPF = D:/Protein_go_brrr/autodock/final/2DN3/IHP/dock.dpf
USER    NEWDPF move	IHP_ideal_opt.pdbqt
USER    NEWDPF about	0.035000 0.082000 -0.065000
USER    NEWDPF tran0	16.622245 44.816847 25.936770
USER    NEWDPF axisangle0	0.567074 -0.262197 -0.780820 -122.656808
USER    NEWDPF quaternion0	0.497542 -0.230048 -0.685079 -0.479789
USER    NEWDPF dihe0	-159.91 97.30 169.52 -25.51 142.42 154.44 -121.81 -55.68 39.73 79.60 157.17 169.88 -113.80 -179.93 -114.21 -125.62 127.41 -138.95 54.40 11.01 -1.82 -6.58 -13.53 8.50 
USER  
USER                              x       y       z    vdW   Elec        q     RMS 
ATOM      1  C   UNL d   1      15.472  43.963  24.971 -0.12 -0.03    +0.194    51.005
ATOM      2  C   UNL d   1      15.516  45.478  24.762 -0.09 -0.02    +0.194    51.005
ATOM      3  C   UNL d   1      15.618  46.231  26.090 -0.05 -0.01    +0.194    51.005
ATOM      4  C   UNL d   1      16.760  45.737  26.975 -0.06 -0.01    +0.194    51.005
ATOM      5  C   UNL d   1      16.823  44.221  27.119 -0.07 -0.01    +0.194    51.005
ATOM      6  C   UNL d   1      16.659  43.467  25.797 -0.08 -0.02    +0.194    51.005
ATOM      7  O   UNL d   1      15.552  43.333  23.690 -0.21 +0.07    -0.278    51.005
ATOM      8  P   UNL d   1      14.319  43.494  22.687 -0.21 -0.11    +0.473    51.005
ATOM      9  O   UNL d   1      13.033  42.922  23.172 -0.17 +0.06    -0.228    51.005
ATOM     10  O   UNL d   1      14.244  45.064  22.414 -0.08 +0.05    -0.303    51.005
ATOM     11  H   UNL d   1      15.145  45.417  22.288 +0.08 -0.04    +0.222    51.005
ATOM     12  O   UNL d   1      14.844  42.938  21.295 -0.30 +0.09    -0.303    51.005
ATOM     13  H   UNL d   1      15.238  42.039  21.362 -0.15 -0.11    +0.222    51.005
ATOM     14  O   UNL d   1      16.660  45.806  23.962 -0.14 +0.02    -0.278    51.005
ATOM     15  P   UNL d   1      16.473  46.986  22.896 -0.15 -0.05    +0.473    51.005
ATOM     16  O   UNL d   1      16.794  46.661  21.471 -0.30 +0.03    -0.228    51.005
ATOM     17  O   UNL d   1      14.964  47.455  23.097 -0.03 +0.03    -0.303    51.005
ATOM     18  H   UNL d   1      14.861  47.965  23.923 +0.03 -0.02    +0.222    51.005
ATOM     19  O   UNL d   1      17.274  48.212  23.517 -0.15 +0.02    -0.303    51.005
ATOM     20  H   UNL d   1      16.727  48.717  24.147 +0.04 -0.01    +0.222    51.005
ATOM     21  O   UNL d   1      16.397  42.105  26.130 -0.11 +0.05    -0.278    51.005
ATOM     22  P   UNL d   1      17.551  41.015  25.969 -0.16 -0.08    +0.473    51.005
ATOM     23  O   UNL d   1      17.760  40.404  24.624 -0.38 +0.07    -0.228    51.005
ATOM     24  O   UNL d   1      18.813  41.787  26.555 -0.16 +0.04    -0.303    51.005
ATOM     25  H   UNL d   1      18.740  41.791  27.543 +0.08 -0.02    +0.222    51.005
ATOM     26  O   UNL d   1      17.204  39.997  27.158 -0.19 +0.02    -0.303    51.005
ATOM     27  H   UNL d   1      16.634  40.449  27.813 +0.08 -0.02    +0.222    51.005
ATOM     28  O   UNL d   1      15.931  47.585  25.792 -0.03 +0.02    -0.278    51.005
ATOM     29  P   UNL d   1      14.807  48.710  25.886 +0.00 -0.03    +0.473    51.005
ATOM     30  O   UNL d   1      14.991  49.877  24.985 -0.01 +0.01    -0.228    51.005
ATOM     31  O   UNL d   1      13.498  47.817  25.660 -0.00 +0.02    -0.303    51.005
ATOM     32  H   UNL d   1      13.482  47.515  24.723 +0.01 -0.02    +0.222    51.005
ATOM     33  O   UNL d   1      14.764  49.008  27.450 -0.00 +0.01    -0.303    51.005
ATOM     34  H   UNL d   1      15.462  48.471  27.899 +0.01 -0.01    +0.222    51.005
ATOM     35  O   UNL d   1      18.131  43.933  27.607 -0.07 +0.02    -0.278    51.005
ATOM     36  P   UNL d   1      18.324  43.251  29.036 -0.01 -0.03    +0.473    51.005
ATOM     37  O   UNL d   1      19.720  42.822  29.363 -0.04 +0.02    -0.228    51.005
ATOM     38  O   UNL d   1      17.737  44.364  30.011 -0.01 +0.01    -0.303    51.005
ATOM     39  H   UNL d   1      17.883  45.249  29.613 +0.01 -0.01    +0.222    51.005
ATOM     40  O   UNL d   1      17.205  42.121  29.027 -0.01 +0.02    -0.303    51.005
ATOM     41  H   UNL d   1      17.116  41.703  28.141 +0.06 -0.02    +0.222    51.005
ATOM     42  O   UNL d   1      16.533  46.274  28.282 -0.01 +0.01    -0.278    51.005
ATOM     43  P   UNL d   1      17.394  47.529  28.760 -0.00 -0.02    +0.473    51.005
ATOM     44  O   UNL d   1      18.643  47.254  29.525 -0.01 +0.01    -0.228    51.005
ATOM     45  O   UNL d   1      17.624  48.331  27.405 -0.02 +0.02    -0.303    51.005
ATOM     46  H   UNL d   1      16.865  48.914  27.201 +0.02 -0.01    +0.222    51.005
ATOM     47  O   UNL d   1      16.316  48.451  29.506 -0.00 +0.01    -0.303    51.005
ATOM     48  H   UNL d   1      15.416  48.109  29.322 +0.00 -0.01    +0.222    51.005
TER
ENDMDL
MODEL       47
USER    Run = 47
USER    Cluster Rank = 40
USER    Number of conformations in this cluster = 1
USER  
USER    RMSD from reference structure       = 60.724 A
USER  
USER    Estimated Free Energy of Binding    =   +4.08 kcal/mol  [=(1)+(2)+(3)-(4)]
USER    
USER    (1) Final Intermolecular Energy     =   -3.07 kcal/mol
USER        vdW + Hbond + desolv Energy     =   -2.76 kcal/mol
USER        Electrostatic Energy            =   -0.31 kcal/mol
USER    (2) Final Total Internal Energy     =  -16.05 kcal/mol
USER    (3) Torsional Free Energy           =   +7.16 kcal/mol
USER    (4) Unbound System's Energy  [=(2)] =  -16.05 kcal/mol
USER    
USER    
USER  
USER    DPF = D:/Protein_go_brrr/autodock/final/2DN3/IHP/dock.dpf
USER    NEWDPF move	IHP_ideal_opt.pdbqt
USER    NEWDPF about	0.035000 0.082000 -0.065000
USER    NEWDPF tran0	46.420521 40.338927 22.578027
USER    NEWDPF axisangle0	0.257452 0.887848 -0.381373 95.487980
USER    NEWDPF quaternion0	0.190552 0.657138 -0.282272 0.672444
USER    NEWDPF dihe0	-180.00 -51.37 110.68 100.61 37.35 -147.22 3.34 -119.32 44.52 5.15 63.05 -134.06 -127.18 95.06 -59.89 -46.23 137.88 121.13 44.47 -2.75 167.79 11.61 -10.71 -2.10 
USER  
USER                              x       y       z    vdW   Elec        q     RMS 
ATOM      1  C   UNL d   1      45.722  40.356  24.158 -0.09 -0.07    +0.194    60.724
ATOM      2  C   UNL d   1      46.221  38.994  23.670 +0.06 -0.10    +0.194    60.724
ATOM      3  C   UNL d   1      45.837  38.740  22.211 +0.06 -0.07    +0.194    60.724
ATOM      4  C   UNL d   1      46.248  39.875  21.275 -0.12 -0.02    +0.194    60.724
ATOM      5  C   UNL d   1      45.872  41.262  21.779 -0.12 -0.03    +0.194    60.724
ATOM      6  C   UNL d   1      46.199  41.494  23.256 -0.05 -0.03    +0.194    60.724
ATOM      7  O   UNL d   1      46.264  40.588  25.460 -0.04 +0.03    -0.278    60.724
ATOM      8  P   UNL d   1      45.589  39.851  26.706 -0.07 +0.02    +0.473    60.724
ATOM      9  O   UNL d   1      44.289  40.423  27.149 -0.22 -0.13    -0.228    60.724
ATOM     10  O   UNL d   1      45.480  38.329  26.242 -0.11 +0.11    -0.303    60.724
ATOM     11  H   UNL d   1      46.128  38.156  25.533 -0.03 -0.11    +0.222    60.724
ATOM     12  O   UNL d   1      46.729  39.781  27.811 -0.00 -0.03    -0.303    60.724
ATOM     13  H   UNL d   1      47.207  38.921  27.818 +0.02 +0.02    +0.222    60.724
ATOM     14  O   UNL d   1      47.649  38.953  23.781 -0.03 +0.04    -0.278    60.724
ATOM     15  P   UNL d   1      48.271  37.690  24.545 -0.00 -0.02    +0.473    60.724
ATOM     16  O   UNL d   1      49.638  37.254  24.120 -0.00 -0.01    -0.228    60.724
ATOM     17  O   UNL d   1      48.204  38.097  26.084 -0.00 +0.00    -0.303    60.724
ATOM     18  H   UNL d   1      47.613  38.863  26.220 +0.02 -0.01    +0.222    60.724
ATOM     19  O   UNL d   1      47.138  36.577  24.460 -0.05 +0.04    -0.303    60.724
ATOM     20  H   UNL d   1      46.712  36.563  23.583 +0.04 -0.06    +0.222    60.724
ATOM     21  O   UNL d   1      45.494  42.668  23.654 -0.03 +0.02    -0.278    60.724
ATOM     22  P   UNL d   1      43.899  42.664  23.674 -0.09 -0.09    +0.473    60.724
ATOM     23  O   UNL d   1      43.184  41.785  22.705 -0.26 +0.13    -0.228    60.724
ATOM     24  O   UNL d   1      43.593  42.357  25.206 -0.08 +0.00    -0.303    60.724
ATOM     25  H   UNL d   1      44.344  41.821  25.569 +0.04 +0.00    +0.222    60.724
ATOM     26  O   UNL d   1      43.569  44.230  23.579 -0.04 +0.01    -0.303    60.724
ATOM     27  H   UNL d   1      44.201  44.655  22.965 +0.05 -0.00    +0.222    60.724
ATOM     28  O   UNL d   1      46.567  37.603  21.768 -0.09 +0.04    -0.278    60.724
ATOM     29  P   UNL d   1      45.801  36.325  21.204 -0.13 -0.04    +0.473    60.724
ATOM     30  O   UNL d   1      45.085  35.509  22.217 -0.29 +0.04    -0.228    60.724
ATOM     31  O   UNL d   1      44.912  37.013  20.065 -0.23 +0.01    -0.303    60.724
ATOM     32  H   UNL d   1      45.508  37.512  19.460 +0.10 +0.00    +0.222    60.724
ATOM     33  O   UNL d   1      46.942  35.595  20.367 -0.04 -0.03    -0.303    60.724
ATOM     34  H   UNL d   1      47.256  36.203  19.654 +0.06 +0.02    +0.222    60.724
ATOM     35  O   UNL d   1      46.665  42.176  21.024 -0.05 +0.01    -0.278    60.724
ATOM     36  P   UNL d   1      45.967  43.283  20.112 -0.11 -0.01    +0.473    60.724
ATOM     37  O   UNL d   1      46.898  44.151  19.326 -0.14 +0.01    -0.228    60.724
ATOM     38  O   UNL d   1      44.986  42.401  19.221 -0.08 -0.02    -0.303    60.724
ATOM     39  H   UNL d   1      45.343  41.488  19.158 +0.09 +0.01    +0.222    60.724
ATOM     40  O   UNL d   1      44.998  44.011  21.142 -0.09 -0.00    -0.303    60.724
ATOM     41  H   UNL d   1      44.612  43.378  21.788 +0.07 -0.01    +0.222    60.724
ATOM     42  O   UNL d   1      45.548  39.670  20.043 -0.22 +0.02    -0.278    60.724
ATOM     43  P   UNL d   1      46.382  39.298  18.735 -0.12 +0.01    +0.473    60.724
ATOM     44  O   UNL d   1      45.621  38.802  17.554 -0.29 -0.03    -0.228    60.724
ATOM     45  O   UNL d   1      47.213  40.627  18.462 -0.12 +0.00    -0.303    60.724
ATOM     46  H   UNL d   1      46.908  41.363  19.029 +0.07 -0.01    +0.222    60.724
ATOM     47  O   UNL d   1      47.517  38.313  19.291 -0.03 -0.01    -0.303    60.724
ATOM     48  H   UNL d   1      47.110  37.665  19.904 +0.06 +0.00    +0.222    60.724
TER
ENDMDL
MODEL       25
USER    Run = 25
USER    Cluster Rank = 41
USER    Number of conformations in this cluster = 1
USER  
USER    RMSD from reference structure       = 50.633 A
USER  
USER    Estimated Free Energy of Binding    =   +4.09 kcal/mol  [=(1)+(2)+(3)-(4)]
USER    
USER    (1) Final Intermolecular Energy     =   -3.07 kcal/mol
USER        vdW + Hbond + desolv Energy     =   -2.98 kcal/mol
USER        Electrostatic Energy            =   -0.09 kcal/mol
USER    (2) Final Total Internal Energy     =  -15.93 kcal/mol
USER    (3) Torsional Free Energy           =   +7.16 kcal/mol
USER    (4) Unbound System's Energy  [=(2)] =  -15.93 kcal/mol
USER    
USER    
USER  
USER    DPF = D:/Protein_go_brrr/autodock/final/2DN3/IHP/dock.dpf
USER    NEWDPF move	IHP_ideal_opt.pdbqt
USER    NEWDPF about	0.035000 0.082000 -0.065000
USER    NEWDPF tran0	3.672970 53.456188 8.069175
USER    NEWDPF axisangle0	0.598961 0.733511 -0.321258 176.785238
USER    NEWDPF quaternion0	0.598725 0.733223 -0.321132 0.028050
USER    NEWDPF dihe0	119.49 133.10 47.49 92.32 170.59 176.31 -75.89 -24.67 -4.89 60.09 62.66 139.88 -76.71 -69.27 71.23 44.80 157.89 -175.85 -152.66 -7.96 15.01 -15.06 -175.40 26.88 
USER  
USER                              x       y       z    vdW   Elec        q     RMS 
ATOM      1  C   UNL d   1       2.220  54.165   7.460 -0.04 +0.01    +0.194    50.633
ATOM      2  C   UNL d   1       2.037  53.146   8.587 -0.03 +0.02    +0.194    50.633
ATOM      3  C   UNL d   1       2.926  51.917   8.389 -0.10 +0.03    +0.194    50.633
ATOM      4  C   UNL d   1       4.394  52.267   8.160 -0.17 +0.01    +0.194    50.633
ATOM      5  C   UNL d   1       4.617  53.362   7.125 -0.14 +0.00    +0.194    50.633
ATOM      6  C   UNL d   1       3.685  54.565   7.286 -0.07 +0.01    +0.194    50.633
ATOM      7  O   UNL d   1       1.493  55.347   7.805 -0.01 -0.01    -0.278    50.633
ATOM      8  P   UNL d   1       2.204  56.428   8.742 +0.00 +0.01    +0.473    50.633
ATOM      9  O   UNL d   1       3.275  55.892   9.625 -0.00 -0.00    -0.228    50.633
ATOM     10  O   UNL d   1       2.729  57.538   7.722 -0.00 -0.00    -0.303    50.633
ATOM     11  H   UNL d   1       3.059  57.107   6.912 +0.01 +0.00    +0.222    50.633
ATOM     12  O   UNL d   1       1.015  57.186   9.474 -0.00 -0.01    -0.303    50.633
ATOM     13  H   UNL d   1       0.735  56.748  10.309 +0.00 +0.01    +0.222    50.633
ATOM     14  O   UNL d   1       2.381  53.762   9.834 -0.01 -0.02    -0.278    50.633
ATOM     15  P   UNL d   1       1.256  53.749  10.974 +0.01 +0.04    +0.473    50.633
ATOM     16  O   UNL d   1      -0.132  53.391  10.543 -0.00 -0.02    -0.228    50.633
ATOM     17  O   UNL d   1       1.835  52.756  12.077 +0.00 -0.04    -0.303    50.633
ATOM     18  H   UNL d   1       2.150  51.926  11.673 +0.02 +0.05    +0.222    50.633
ATOM     19  O   UNL d   1       1.408  55.156  11.698 +0.00 -0.01    -0.303    50.633
ATOM     20  H   UNL d   1       1.696  55.852  11.078 +0.00 +0.01    +0.222    50.633
ATOM     21  O   UNL d   1       3.773  55.318   6.079 -0.04 -0.01    -0.278    50.633
ATOM     22  P   UNL d   1       4.906  56.430   5.919 -0.01 -0.01    +0.473    50.633
ATOM     23  O   UNL d   1       6.117  56.092   5.117 -0.04 +0.01    -0.228    50.633
ATOM     24  O   UNL d   1       4.070  57.671   5.376 -0.00 +0.00    -0.303    50.633
ATOM     25  H   UNL d   1       3.956  58.315   6.120 +0.00 -0.00    +0.222    50.633
ATOM     26  O   UNL d   1       5.167  56.850   7.444 -0.01 +0.01    -0.303    50.633
ATOM     27  H   UNL d   1       4.606  56.301   8.029 +0.02 -0.00    +0.222    50.633
ATOM     28  O   UNL d   1       2.900  51.170   9.599 -0.05 -0.08    -0.278    50.633
ATOM     29  P   UNL d   1       1.889  49.952   9.771 -0.05 +0.21    +0.473    50.633
ATOM     30  O   UNL d   1       1.336  49.395   8.509 -0.08 -0.07    -0.228    50.633
ATOM     31  O   UNL d   1       2.783  48.972  10.667 -0.47 -0.37    -0.303    50.633
ATOM     32  H   UNL d   1       3.732  49.187  10.515 +0.05 +0.24    +0.222    50.633
ATOM     33  O   UNL d   1       0.842  50.532  10.821 -0.01 -0.10    -0.303    50.633
ATOM     34  H   UNL d   1       0.729  51.500  10.660 +0.01 +0.05    +0.222    50.633
ATOM     35  O   UNL d   1       5.948  53.830   7.337 -0.15 +0.04    -0.278    50.633
ATOM     36  P   UNL d   1       6.474  54.116   8.816 -0.03 -0.05    +0.473    50.633
ATOM     37  O   UNL d   1       7.631  55.058   8.918 -0.08 +0.03    -0.228    50.633
ATOM     38  O   UNL d   1       5.150  54.624   9.541 -0.02 +0.00    -0.303    50.633
ATOM     39  H   UNL d   1       4.956  55.541   9.249 +0.02 -0.00    +0.222    50.633
ATOM     40  O   UNL d   1       6.686  52.648   9.391 -0.11 +0.03    -0.303    50.633
ATOM     41  H   UNL d   1       6.739  51.979   8.672 -0.38 -0.08    +0.222    50.633
ATOM     42  O   UNL d   1       5.030  51.084   7.665 -0.18 -0.01    -0.278    50.633
ATOM     43  P   UNL d   1       5.545  49.991   8.707 -0.24 +0.07    +0.473    50.633
ATOM     44  O   UNL d   1       6.945  49.503   8.555 -0.40 +0.01    -0.228    50.633
ATOM     45  O   UNL d   1       5.245  50.678  10.110 -0.10 -0.08    -0.303    50.633
ATOM     46  H   UNL d   1       4.992  51.617  10.002 +0.06 +0.03    +0.222    50.633
ATOM     47  O   UNL d   1       4.409  48.863   8.647 -0.24 -0.14    -0.303    50.633
ATOM     48  H   UNL d   1       3.529  49.293   8.607 +0.08 +0.09    +0.222    50.633
TER
ENDMDL
MODEL       31
USER    Run = 31
USER    Cluster Rank = 42
USER    Number of conformations in this cluster = 1
USER  
USER    RMSD from reference structure       = 20.582 A
USER  
USER    Estimated Free Energy of Binding    =   +4.11 kcal/mol  [=(1)+(2)+(3)-(4)]
USER    
USER    (1) Final Intermolecular Energy     =   -3.05 kcal/mol
USER        vdW + Hbond + desolv Energy     =   -2.72 kcal/mol
USER        Electrostatic Energy            =   -0.33 kcal/mol
USER    (2) Final Total Internal Energy     =  -15.26 kcal/mol
USER    (3) Torsional Free Energy           =   +7.16 kcal/mol
USER    (4) Unbound System's Energy  [=(2)] =  -15.26 kcal/mol
USER    
USER    
USER  
USER    DPF = D:/Protein_go_brrr/autodock/final/2DN3/IHP/dock.dpf
USER    NEWDPF move	IHP_ideal_opt.pdbqt
USER    NEWDPF about	0.035000 0.082000 -0.065000
USER    NEWDPF tran0	-1.139475 23.430770 5.130740
USER    NEWDPF axisangle0	-0.451154 -0.516544 -0.727765 161.424175
USER    NEWDPF quaternion0	-0.445239 -0.509772 -0.718224 0.161396
USER    NEWDPF dihe0	-113.46 10.11 140.51 136.48 63.96 -133.03 -88.47 13.69 30.31 112.63 71.19 100.85 30.45 94.08 124.21 30.33 -65.10 166.83 -5.11 -28.93 -10.94 -49.67 -168.61 19.35 
USER  
USER                              x       y       z    vdW   Elec        q     RMS 
ATOM      1  C   UNL d   1      -1.392  25.136   5.014 -0.07 -0.14    +0.194    20.582
ATOM      2  C   UNL d   1      -1.179  24.407   3.686 -0.05 -0.09    +0.194    20.582
ATOM      3  C   UNL d   1      -0.046  23.383   3.777 -0.13 -0.11    +0.194    20.582
ATOM      4  C   UNL d   1      -0.202  22.415   4.948 -0.17 -0.11    +0.194    20.582
ATOM      5  C   UNL d   1      -0.529  23.092   6.273 -0.13 -0.19    +0.194    20.582
ATOM      6  C   UNL d   1      -1.620  24.160   6.170 -0.10 -0.15    +0.194    20.582
ATOM      7  O   UNL d   1      -2.567  25.941   4.898 -0.02 +0.11    -0.278    20.582
ATOM      8  P   UNL d   1      -2.467  27.490   5.276 -0.01 -0.16    +0.473    20.582
ATOM      9  O   UNL d   1      -1.925  28.368   4.204 -0.01 +0.06    -0.228    20.582
ATOM     10  O   UNL d   1      -3.951  27.877   5.715 +0.00 +0.05    -0.303    20.582
ATOM     11  H   UNL d   1      -4.063  27.712   6.670 +0.01 -0.04    +0.222    20.582
ATOM     12  O   UNL d   1      -1.690  27.527   6.662 -0.06 +0.17    -0.303    20.582
ATOM     13  H   UNL d   1      -1.904  26.764   7.245 +0.04 -0.14    +0.222    20.582
ATOM     14  O   UNL d   1      -2.386  23.722   3.331 -0.00 +0.07    -0.278    20.582
ATOM     15  P   UNL d   1      -3.291  24.405   2.200 +0.01 -0.06    +0.473    20.582
ATOM     16  O   UNL d   1      -4.095  23.486   1.336 +0.00 +0.02    -0.228    20.582
ATOM     17  O   UNL d   1      -4.193  25.445   3.002 +0.00 +0.04    -0.303    20.582
ATOM     18  H   UNL d   1      -3.660  25.948   3.648 +0.01 -0.04    +0.222    20.582
ATOM     19  O   UNL d   1      -2.295  25.376   1.428 +0.00 +0.04    -0.303    20.582
ATOM     20  H   UNL d   1      -1.711  24.884   0.821 +0.02 -0.03    +0.222    20.582
ATOM     21  O   UNL d   1      -1.568  24.920   7.375 -0.11 +0.27    -0.278    20.582
ATOM     22  P   UNL d   1      -2.785  24.856   8.405 -0.04 -0.20    +0.473    20.582
ATOM     23  O   UNL d   1      -2.509  25.145   9.842 -0.05 +0.08    -0.228    20.582
ATOM     24  O   UNL d   1      -3.842  25.829   7.720 -0.00 +0.07    -0.303    20.582
ATOM     25  H   UNL d   1      -3.431  26.203   6.900 +0.02 -0.07    +0.222    20.582
ATOM     26  O   UNL d   1      -3.407  23.413   8.085 -0.03 +0.08    -0.303    20.582
ATOM     27  H   UNL d   1      -2.698  22.740   8.135 +0.03 -0.07    +0.222    20.582
ATOM     28  O   UNL d   1      -0.104  22.574   2.609 -0.07 +0.09    -0.278    20.582
ATOM     29  P   UNL d   1       0.071  23.229   1.168 -0.06 -0.12    +0.473    20.582
ATOM     30  O   UNL d   1       0.393  24.679   1.158 -0.10 +0.07    -0.228    20.582
ATOM     31  O   UNL d   1       1.162  22.239   0.543 -0.13 +0.09    -0.303    20.582
ATOM     32  H   UNL d   1       1.792  21.977   1.253 -0.34 -0.11    +0.222    20.582
ATOM     33  O   UNL d   1      -1.270  22.784   0.434 -0.01 +0.04    -0.303    20.582
ATOM     34  H   UNL d   1      -2.025  23.304   0.802 +0.02 -0.03    +0.222    20.582
ATOM     35  O   UNL d   1      -1.031  22.061   7.121 -0.06 +0.16    -0.278    20.582
ATOM     36  P   UNL d   1      -1.966  20.914   6.526 -0.03 -0.10    +0.473    20.582
ATOM     37  O   UNL d   1      -2.648  21.242   5.236 -0.02 +0.04    -0.228    20.582
ATOM     38  O   UNL d   1      -0.958  19.684   6.439 -0.10 +0.05    -0.303    20.582
ATOM     39  H   UNL d   1      -0.083  20.007   6.135 +0.07 -0.06    +0.222    20.582
ATOM     40  O   UNL d   1      -2.898  20.558   7.765 -0.22 +0.03    -0.303    20.582
ATOM     41  H   UNL d   1      -3.539  21.278   7.957 +0.02 -0.03    +0.222    20.582
ATOM     42  O   UNL d   1       1.058  21.756   5.112 -0.28 +0.17    -0.278    20.582
ATOM     43  P   UNL d   1       1.312  20.377   4.352 -0.15 -0.11    +0.473    20.582
ATOM     44  O   UNL d   1       2.185  19.373   5.022 -0.37 +0.03    -0.228    20.582
ATOM     45  O   UNL d   1      -0.165  19.863   4.058 -0.05 +0.04    -0.303    20.582
ATOM     46  H   UNL d   1      -0.836  20.473   4.425 +0.05 -0.04    +0.222    20.582
ATOM     47  O   UNL d   1       1.789  20.845   2.895 -0.11 +0.08    -0.303    20.582
ATOM     48  H   UNL d   1       1.005  21.088   2.361 +0.06 -0.06    +0.222    20.582
TER
ENDMDL
MODEL       62
USER    Run = 62
USER    Cluster Rank = 43
USER    Number of conformations in this cluster = 1
USER  
USER    RMSD from reference structure       = 56.357 A
USER  
USER    Estimated Free Energy of Binding    =   +4.19 kcal/mol  [=(1)+(2)+(3)-(4)]
USER    
USER    (1) Final Intermolecular Energy     =   -2.97 kcal/mol
USER        vdW + Hbond + desolv Energy     =   -2.84 kcal/mol
USER        Electrostatic Energy            =   -0.14 kcal/mol
USER    (2) Final Total Internal Energy     =  -15.78 kcal/mol
USER    (3) Torsional Free Energy           =   +7.16 kcal/mol
USER    (4) Unbound System's Energy  [=(2)] =  -15.78 kcal/mol
USER    
USER    
USER  
USER    DPF = D:/Protein_go_brrr/autodock/final/2DN3/IHP/dock.dpf
USER    NEWDPF move	IHP_ideal_opt.pdbqt
USER    NEWDPF about	0.035000 0.082000 -0.065000
USER    NEWDPF tran0	42.589211 29.150959 31.217665
USER    NEWDPF axisangle0	0.193525 0.951260 0.240109 139.160351
USER    NEWDPF quaternion0	0.181364 0.891484 0.225020 0.348896
USER    NEWDPF dihe0	-131.39 -46.08 145.85 -11.03 156.08 122.03 -106.81 -33.92 21.10 34.35 42.38 -137.90 81.87 -179.76 -160.50 8.43 -142.93 -25.21 -27.01 14.34 22.64 1.81 -43.88 168.62 
USER  
USER                              x       y       z    vdW   Elec        q     RMS 
ATOM      1  C   UNL d   1      40.870  29.037  31.337 -0.21 +0.04    +0.194    56.357
ATOM      2  C   UNL d   1      41.545  27.965  30.480 -0.14 +0.03    +0.194    56.357
ATOM      3  C   UNL d   1      42.631  28.560  29.581 -0.10 +0.06    +0.194    56.357
ATOM      4  C   UNL d   1      43.643  29.411  30.343 -0.05 +0.05    +0.194    56.357
ATOM      5  C   UNL d   1      43.013  30.418  31.298 -0.04 +0.04    +0.194    56.357
ATOM      6  C   UNL d   1      41.885  29.838  32.153 -0.07 +0.04    +0.194    56.357
ATOM      7  O   UNL d   1      39.999  28.384  32.264 -0.19 -0.07    -0.278    56.357
ATOM      8  P   UNL d   1      38.683  29.154  32.741 -0.17 +0.18    +0.473    56.357
ATOM      9  O   UNL d   1      37.435  28.345  32.719 -0.22 -0.16    -0.228    56.357
ATOM     10  O   UNL d   1      39.057  29.693  34.196 -0.05 -0.10    -0.303    56.357
ATOM     11  H   UNL d   1      39.711  30.412  34.120 +0.04 +0.05    +0.222    56.357
ATOM     12  O   UNL d   1      38.656  30.494  31.888 -0.19 -0.10    -0.303    56.357
ATOM     13  H   UNL d   1      39.112  31.244  32.333 +0.07 +0.06    +0.222    56.357
ATOM     14  O   UNL d   1      42.148  26.990  31.340 -0.13 -0.05    -0.278    56.357
ATOM     15  P   UNL d   1      42.150  25.477  30.817 -0.13 +0.10    +0.473    56.357
ATOM     16  O   UNL d   1      41.528  24.454  31.715 -0.16 -0.05    -0.228    56.357
ATOM     17  O   UNL d   1      41.442  25.559  29.392 -0.18 -0.08    -0.303    56.357
ATOM     18  H   UNL d   1      41.840  26.260  28.841 +0.05 +0.06    +0.222    56.357
ATOM     19  O   UNL d   1      43.662  25.202  30.406 -0.04 -0.07    -0.303    56.357
ATOM     20  H   UNL d   1      43.912  25.692  29.601 +0.06 +0.06    +0.222    56.357
ATOM     21  O   UNL d   1      41.187  30.945  32.720 -0.03 -0.05    -0.278    56.357
ATOM     22  P   UNL d   1      41.785  31.687  33.999 +0.00 +0.08    +0.473    56.357
ATOM     23  O   UNL d   1      40.883  31.925  35.162 -0.00 -0.04    -0.228    56.357
ATOM     24  O   UNL d   1      43.068  30.802  34.319 -0.00 -0.04    -0.303    56.357
ATOM     25  H   UNL d   1      43.836  31.179  33.818 +0.00 +0.03    +0.222    56.357
ATOM     26  O   UNL d   1      42.441  32.994  33.339 -0.00 -0.05    -0.303    56.357
ATOM     27  H   UNL d   1      43.032  32.723  32.607 +0.02 +0.04    +0.222    56.357
ATOM     28  O   UNL d   1      43.379  27.478  29.040 -0.09 -0.10    -0.278    56.357
ATOM     29  P   UNL d   1      43.313  27.154  27.482 -0.15 +0.25    +0.473    56.357
ATOM     30  O   UNL d   1      42.165  27.749  26.752 -0.33 -0.12    -0.228    56.357
ATOM     31  O   UNL d   1      44.778  27.621  27.038 -0.12 -0.27    -0.303    56.357
ATOM     32  H   UNL d   1      44.908  28.556  27.318 +0.06 +0.19    +0.222    56.357
ATOM     33  O   UNL d   1      43.431  25.566  27.467 -0.12 -0.13    -0.303    56.357
ATOM     34  H   UNL d   1      43.108  25.211  28.331 +0.09 +0.08    +0.222    56.357
ATOM     35  O   UNL d   1      44.056  30.811  32.188 -0.01 -0.05    -0.278    56.357
ATOM     36  P   UNL d   1      45.036  32.008  31.800 +0.00 +0.08    +0.473    56.357
ATOM     37  O   UNL d   1      46.358  31.600  31.231 -0.00 -0.04    -0.228    56.357
ATOM     38  O   UNL d   1      44.131  32.862  30.805 -0.01 -0.06    -0.303    56.357
ATOM     39  H   UNL d   1      43.736  32.262  30.136 +0.04 +0.05    +0.222    56.357
ATOM     40  O   UNL d   1      45.060  32.874  33.134 -0.00 -0.04    -0.303    56.357
ATOM     41  H   UNL d   1      44.408  32.546  33.793 +0.00 +0.03    +0.222    56.357
ATOM     42  O   UNL d   1      44.375  30.159  29.366 -0.04 -0.09    -0.278    56.357
ATOM     43  P   UNL d   1      43.577  31.114  28.368 -0.10 +0.18    +0.473    56.357
ATOM     44  O   UNL d   1      42.211  31.546  28.777 -0.05 -0.08    -0.228    56.357
ATOM     45  O   UNL d   1      44.599  32.313  28.141 -0.08 -0.10    -0.303    56.357
ATOM     46  H   UNL d   1      45.159  32.460  28.929 +0.04 +0.06    +0.222    56.357
ATOM     47  O   UNL d   1      43.667  30.339  26.968 -0.20 -0.21    -0.303    56.357
ATOM     48  H   UNL d   1      43.538  29.380  27.122 +0.09 +0.16    +0.222    56.357
TER
ENDMDL
MODEL       40
USER    Run = 40
USER    Cluster Rank = 44
USER    Number of conformations in this cluster = 1
USER  
USER    RMSD from reference structure       = 45.998 A
USER  
USER    Estimated Free Energy of Binding    =   +4.22 kcal/mol  [=(1)+(2)+(3)-(4)]
USER    
USER    (1) Final Intermolecular Energy     =   -2.94 kcal/mol
USER        vdW + Hbond + desolv Energy     =   -2.68 kcal/mol
USER        Electrostatic Energy            =   -0.25 kcal/mol
USER    (2) Final Total Internal Energy     =  -14.20 kcal/mol
USER    (3) Torsional Free Energy           =   +7.16 kcal/mol
USER    (4) Unbound System's Energy  [=(2)] =  -14.20 kcal/mol
USER    
USER    
USER  
USER    DPF = D:/Protein_go_brrr/autodock/final/2DN3/IHP/dock.dpf
USER    NEWDPF move	IHP_ideal_opt.pdbqt
USER    NEWDPF about	0.035000 0.082000 -0.065000
USER    NEWDPF tran0	45.182792 16.750416 15.641700
USER    NEWDPF axisangle0	-0.459204 0.866512 0.195672 42.430743
USER    NEWDPF quaternion0	-0.166174 0.313569 0.070809 0.932227
USER    NEWDPF dihe0	62.68 43.76 109.99 137.32 -21.50 -179.98 -128.47 -48.35 133.27 -43.00 144.90 164.17 144.41 80.35 177.82 -135.22 175.49 -131.86 47.40 10.19 172.78 -1.00 15.80 3.41 
USER  
USER                              x       y       z    vdW   Elec        q     RMS 
ATOM      1  C   UNL d   1      45.671  15.414  16.622 -0.03 +0.05    +0.194    45.998
ATOM      2  C   UNL d   1      44.883  15.056  15.361 -0.02 +0.04    +0.194    45.998
ATOM      3  C   UNL d   1      43.694  15.995  15.150 -0.07 +0.04    +0.194    45.998
ATOM      4  C   UNL d   1      44.079  17.472  15.189 -0.09 +0.06    +0.194    45.998
ATOM      5  C   UNL d   1      44.962  17.851  16.370 -0.09 +0.08    +0.194    45.998
ATOM      6  C   UNL d   1      46.116  16.877  16.619 -0.03 +0.07    +0.194    45.998
ATOM      7  O   UNL d   1      46.852  14.610  16.654 -0.00 -0.06    -0.278    45.998
ATOM      8  P   UNL d   1      46.711  13.069  17.052 -0.00 +0.07    +0.473    45.998
ATOM      9  O   UNL d   1      47.984  12.395  17.426 -0.00 -0.03    -0.228    45.998
ATOM     10  O   UNL d   1      45.632  13.071  18.228 -0.01 -0.05    -0.303    45.998
ATOM     11  H   UNL d   1      46.088  13.087  19.090 +0.02 +0.03    +0.222    45.998
ATOM     12  O   UNL d   1      45.900  12.407  15.858 -0.00 -0.04    -0.303    45.998
ATOM     13  H   UNL d   1      45.642  13.052  15.162 +0.01 +0.03    +0.222    45.998
ATOM     14  O   UNL d   1      45.750  15.155  14.224 -0.00 -0.06    -0.278    45.998
ATOM     15  P   UNL d   1      45.563  14.047  13.083 +0.00 +0.08    +0.473    45.998
ATOM     16  O   UNL d   1      45.568  14.534  11.667 +0.00 -0.04    -0.228    45.998
ATOM     17  O   UNL d   1      46.719  12.990  13.376 -0.00 -0.05    -0.303    45.998
ATOM     18  H   UNL d   1      47.102  13.125  14.263 +0.00 +0.04    +0.222    45.998
ATOM     19  O   UNL d   1      44.268  13.236  13.525 -0.00 -0.04    -0.303    45.998
ATOM     20  H   UNL d   1      43.450  13.726  13.323 +0.01 +0.03    +0.222    45.998
ATOM     21  O   UNL d   1      46.623  17.163  17.921 -0.02 -0.10    -0.278    45.998
ATOM     22  P   UNL d   1      45.752  16.798  19.207 -0.09 +0.13    +0.473    45.998
ATOM     23  O   UNL d   1      45.942  17.614  20.441 -0.16 -0.06    -0.228    45.998
ATOM     24  O   UNL d   1      44.275  16.817  18.616 -0.19 -0.09    -0.303    45.998
ATOM     25  H   UNL d   1      43.930  17.744  18.676 +0.07 +0.07    +0.222    45.998
ATOM     26  O   UNL d   1      46.030  15.226  19.354 -0.03 -0.06    -0.303    45.998
ATOM     27  H   UNL d   1      46.707  14.957  18.700 +0.03 +0.04    +0.222    45.998
ATOM     28  O   UNL d   1      43.198  15.769  13.836 -0.03 -0.05    -0.278    45.998
ATOM     29  P   UNL d   1      41.792  15.052  13.619 -0.04 +0.06    +0.473    45.998
ATOM     30  O   UNL d   1      41.567  14.480  12.267 -0.02 -0.03    -0.228    45.998
ATOM     31  O   UNL d   1      41.809  14.027  14.848 -0.05 -0.04    -0.303    45.998
ATOM     32  H   UNL d   1      42.403  13.275  14.621 +0.02 +0.03    +0.222    45.998
ATOM     33  O   UNL d   1      40.768  16.170  14.108 -0.16 -0.01    -0.303    45.998
ATOM     34  H   UNL d   1      41.257  17.020  14.233 +0.03 +0.01    +0.222    45.998
ATOM     35  O   UNL d   1      45.541  19.110  16.032 -0.07 -0.21    -0.278    45.998
ATOM     36  P   UNL d   1      45.838  20.190  17.168 -0.06 +0.47    +0.473    45.998
ATOM     37  O   UNL d   1      45.542  21.610  16.801 -0.24 -0.32    -0.228    45.998
ATOM     38  O   UNL d   1      44.971  19.633  18.382 -0.17 -0.12    -0.303    45.998
ATOM     39  H   UNL d   1      45.317  18.753  18.646 +0.07 +0.08    +0.222    45.998
ATOM     40  O   UNL d   1      47.336  19.848  17.579 -0.35 -0.36    -0.303    45.998
ATOM     41  H   UNL d   1      47.376  19.127  18.246 +0.04 +0.15    +0.222    45.998
ATOM     42  O   UNL d   1      42.862  18.214  15.317 -0.17 -0.06    -0.278    45.998
ATOM     43  P   UNL d   1      42.326  19.039  14.061 -0.18 +0.09    +0.473    45.998
ATOM     44  O   UNL d   1      42.850  20.420  13.872 -0.30 -0.06    -0.228    45.998
ATOM     45  O   UNL d   1      42.624  18.056  12.846 -0.08 -0.05    -0.303    45.998
ATOM     46  H   UNL d   1      42.020  17.287  12.850 +0.08 +0.03    +0.222    45.998
ATOM     47  O   UNL d   1      40.733  18.916  14.196 -0.09 -0.04    -0.303    45.998
ATOM     48  H   UNL d   1      40.517  18.182  14.807 -0.22 -0.01    +0.222    45.998
TER
ENDMDL
MODEL       15
USER    Run = 15
USER    Cluster Rank = 45
USER    Number of conformations in this cluster = 1
USER  
USER    RMSD from reference structure       = 58.293 A
USER  
USER    Estimated Free Energy of Binding    =   +4.25 kcal/mol  [=(1)+(2)+(3)-(4)]
USER    
USER    (1) Final Intermolecular Energy     =   -2.91 kcal/mol
USER        vdW + Hbond + desolv Energy     =   -2.91 kcal/mol
USER        Electrostatic Energy            =   -0.00 kcal/mol
USER    (2) Final Total Internal Energy     =  -14.00 kcal/mol
USER    (3) Torsional Free Energy           =   +7.16 kcal/mol
USER    (4) Unbound System's Energy  [=(2)] =  -14.00 kcal/mol
USER    
USER    
USER  
USER    DPF = D:/Protein_go_brrr/autodock/final/2DN3/IHP/dock.dpf
USER    NEWDPF move	IHP_ideal_opt.pdbqt
USER    NEWDPF about	0.035000 0.082000 -0.065000
USER    NEWDPF tran0	48.938910 35.022683 18.583784
USER    NEWDPF axisangle0	-0.746520 -0.656284 0.109538 145.318564
USER    NEWDPF quaternion0	-0.712590 -0.626456 0.104559 0.298053
USER    NEWDPF dihe0	-179.03 -47.84 96.43 115.87 116.43 95.92 47.82 -85.31 31.93 74.58 -53.23 172.07 -123.07 98.94 178.35 -127.06 -61.08 10.56 45.42 -4.44 13.19 1.38 173.18 -179.99 
USER  
USER                              x       y       z    vdW   Elec        q     RMS 
ATOM      1  C   UNL d   1      48.510  35.657  17.035 -0.09 +0.03    +0.194    58.293
ATOM      2  C   UNL d   1      47.418  34.856  17.746 -0.11 +0.03    +0.194    58.293
ATOM      3  C   UNL d   1      47.977  33.585  18.390 -0.08 +0.04    +0.194    58.293
ATOM      4  C   UNL d   1      49.181  33.847  19.292 -0.02 +0.04    +0.194    58.293
ATOM      5  C   UNL d   1      50.244  34.738  18.664 -0.02 +0.03    +0.194    58.293
ATOM      6  C   UNL d   1      49.680  35.978  17.966 -0.03 +0.02    +0.194    58.293
ATOM      7  O   UNL d   1      47.947  36.902  16.614 -0.08 -0.03    -0.278    58.293
ATOM      8  P   UNL d   1      47.011  36.912  15.319 -0.28 +0.07    +0.473    58.293
ATOM      9  O   UNL d   1      47.720  36.706  14.027 -0.65 -0.06    -0.228    58.293
ATOM     10  O   UNL d   1      45.919  35.790  15.623 -0.12 -0.06    -0.303    58.293
ATOM     11  H   UNL d   1      45.849  35.654  16.586 +0.11 +0.04    +0.222    58.293
ATOM     12  O   UNL d   1      46.158  38.247  15.438 -0.53 -0.07    -0.303    58.293
ATOM     13  H   UNL d   1      45.291  38.113  15.883 +0.13 +0.07    +0.222    58.293
ATOM     14  O   UNL d   1      46.835  35.669  18.772 -0.06 -0.03    -0.278    58.293
ATOM     15  P   UNL d   1      45.241  35.816  18.750 -0.17 +0.04    +0.473    58.293
ATOM     16  O   UNL d   1      44.576  36.124  20.054 -0.34 +0.01    -0.228    58.293
ATOM     17  O   UNL d   1      44.969  36.926  17.641 -0.22 -0.04    -0.303    58.293
ATOM     18  H   UNL d   1      45.805  37.238  17.243 +0.12 +0.03    +0.222    58.293
ATOM     19  O   UNL d   1      44.732  34.500  18.015 -0.19 -0.05    -0.303    58.293
ATOM     20  H   UNL d   1      45.052  33.692  18.458 +0.11 +0.04    +0.222    58.293
ATOM     21  O   UNL d   1      50.727  36.506  17.156 -0.02 -0.03    -0.278    58.293
ATOM     22  P   UNL d   1      51.743  37.573  17.770 +0.01 +0.04    +0.473    58.293
ATOM     23  O   UNL d   1      52.370  38.562  16.846 -0.01 -0.01    -0.228    58.293
ATOM     24  O   UNL d   1      50.875  38.211  18.941 +0.00 -0.02    -0.303    58.293
ATOM     25  H   UNL d   1      50.498  37.472  19.483 +0.01 +0.02    +0.222    58.293
ATOM     26  O   UNL d   1      52.753  36.630  18.582 -0.00 -0.03    -0.303    58.293
ATOM     27  H   UNL d   1      52.335  36.362  19.425 +0.00 +0.02    +0.222    58.293
ATOM     28  O   UNL d   1      46.970  33.061  19.247 -0.06 -0.07    -0.278    58.293
ATOM     29  P   UNL d   1      46.251  31.684  18.896 -0.08 +0.17    +0.473    58.293
ATOM     30  O   UNL d   1      44.873  31.527  19.429 -0.20 -0.10    -0.228    58.293
ATOM     31  O   UNL d   1      46.419  31.679  17.305 -0.04 -0.08    -0.303    58.293
ATOM     32  H   UNL d   1      47.183  31.102  17.072 +0.08 +0.06    +0.222    58.293
ATOM     33  O   UNL d   1      47.332  30.614  19.367 -0.06 -0.14    -0.303    58.293
ATOM     34  H   UNL d   1      48.229  31.025  19.329 +0.04 +0.08    +0.222    58.293
ATOM     35  O   UNL d   1      51.053  35.197  19.745 -0.00 -0.03    -0.278    58.293
ATOM     36  P   UNL d   1      50.391  35.967  20.975 +0.00 +0.05    +0.473    58.293
ATOM     37  O   UNL d   1      49.014  36.500  20.736 -0.01 -0.02    -0.228    58.293
ATOM     38  O   UNL d   1      50.478  34.874  22.130 -0.00 -0.04    -0.303    58.293
ATOM     39  H   UNL d   1      50.299  33.988  21.748 +0.01 +0.04    +0.222    58.293
ATOM     40  O   UNL d   1      51.516  37.022  21.361 +0.00 -0.02    -0.303    58.293
ATOM     41  H   UNL d   1      52.018  37.325  20.571 +0.00 +0.02    +0.222    58.293
ATOM     42  O   UNL d   1      49.792  32.577  19.546 -0.01 -0.06    -0.278    58.293
ATOM     43  P   UNL d   1      50.526  31.821  18.349 -0.01 +0.10    +0.473    58.293
ATOM     44  O   UNL d   1      51.613  32.552  17.639 -0.02 -0.04    -0.228    58.293
ATOM     45  O   UNL d   1      50.993  30.461  19.030 -0.01 -0.08    -0.303    58.293
ATOM     46  H   UNL d   1      51.952  30.310  18.908 +0.01 +0.05    +0.222    58.293
ATOM     47  O   UNL d   1      49.311  31.324  17.429 -0.06 -0.07    -0.303    58.293
ATOM     48  H   UNL d   1      48.466  31.480  17.900 +0.05 +0.06    +0.222    58.293
TER
ENDMDL
MODEL       82
USER    Run = 82
USER    Cluster Rank = 46
USER    Number of conformations in this cluster = 1
USER  
USER    RMSD from reference structure       = 35.570 A
USER  
USER    Estimated Free Energy of Binding    =   +4.29 kcal/mol  [=(1)+(2)+(3)-(4)]
USER    
USER    (1) Final Intermolecular Energy     =   -2.87 kcal/mol
USER        vdW + Hbond + desolv Energy     =   -2.84 kcal/mol
USER        Electrostatic Energy            =   -0.03 kcal/mol
USER    (2) Final Total Internal Energy     =  -12.68 kcal/mol
USER    (3) Torsional Free Energy           =   +7.16 kcal/mol
USER    (4) Unbound System's Energy  [=(2)] =  -12.68 kcal/mol
USER    
USER    
USER  
USER    DPF = D:/Protein_go_brrr/autodock/final/2DN3/IHP/dock.dpf
USER    NEWDPF move	IHP_ideal_opt.pdbqt
USER    NEWDPF about	0.035000 0.082000 -0.065000
USER    NEWDPF tran0	19.025724 31.352933 -12.986118
USER    NEWDPF axisangle0	0.955881 0.078185 0.283159 178.175551
USER    NEWDPF quaternion0	0.955760 0.078175 0.283123 0.015921
USER    NEWDPF dihe0	-106.62 13.33 82.88 54.45 -16.54 -46.55 -101.77 1.97 106.50 18.56 -16.77 -175.15 -137.94 132.46 -88.37 153.60 21.51 159.58 31.17 -7.15 0.87 23.90 172.68 -176.68 
USER  
USER                              x       y       z    vdW   Elec        q     RMS 
ATOM      1  C   UNL d   1      20.348  32.465 -12.981 -0.01 +0.00    +0.194    35.570
ATOM      2  C   UNL d   1      18.989  33.056 -13.361 -0.06 +0.02    +0.194    35.570
ATOM      3  C   UNL d   1      18.219  32.139 -14.314 -0.08 +0.00    +0.194    35.570
ATOM      4  C   UNL d   1      18.103  30.704 -13.805 -0.11 -0.01    +0.194    35.570
ATOM      5  C   UNL d   1      19.416  30.113 -13.307 -0.04 -0.01    +0.194    35.570
ATOM      6  C   UNL d   1      20.215  31.055 -12.404 -0.03 -0.01    +0.194    35.570
ATOM      7  O   UNL d   1      20.924  33.288 -11.965 -0.01 -0.02    -0.278    35.570
ATOM      8  P   UNL d   1      21.875  34.492 -12.411 +0.01 +0.06    +0.473    35.570
ATOM      9  O   UNL d   1      23.304  34.126 -12.611 +0.00 -0.01    -0.228    35.570
ATOM     10  O   UNL d   1      21.183  35.063 -13.731 -0.00 -0.06    -0.303    35.570
ATOM     11  H   UNL d   1      20.612  35.819 -13.499 +0.02 +0.08    +0.222    35.570
ATOM     12  O   UNL d   1      21.595  35.651 -11.361 -0.03 -0.09    -0.303    35.570
ATOM     13  H   UNL d   1      20.670  35.654 -11.027 +0.04 +0.11    +0.222    35.570
ATOM     14  O   UNL d   1      18.210  33.237 -12.172 -0.14 -0.03    -0.278    35.570
ATOM     15  P   UNL d   1      17.651  34.713 -11.900 -0.14 +0.23    +0.473    35.570
ATOM     16  O   UNL d   1      16.996  34.950 -10.576 -0.70 -0.11    -0.228    35.570
ATOM     17  O   UNL d   1      18.913  35.655 -12.143 -0.24 -0.29    -0.303    35.570
ATOM     18  H   UNL d   1      19.737  35.134 -12.190 +0.04 +0.11    +0.222    35.570
ATOM     19  O   UNL d   1      16.758  35.040 -13.176 -0.29 -0.12    -0.303    35.570
ATOM     20  H   UNL d   1      16.817  34.335 -13.847 +0.05 +0.04    +0.222    35.570
ATOM     21  O   UNL d   1      21.532  30.516 -12.310 -0.00 +0.03    -0.278    35.570
ATOM     22  P   UNL d   1      21.963  29.701 -11.007 -0.00 -0.12    +0.473    35.570
ATOM     23  O   UNL d   1      21.877  30.388  -9.686 -0.09 +0.13    -0.228    35.570
ATOM     24  O   UNL d   1      21.073  28.388 -11.136 -0.02 +0.07    -0.303    35.570
ATOM     25  H   UNL d   1      20.171  28.590 -10.779 +0.07 -0.06    +0.222    35.570
ATOM     26  O   UNL d   1      23.413  29.161 -11.426 -0.00 +0.06    -0.303    35.570
ATOM     27  H   UNL d   1      24.017  29.233 -10.659 +0.01 -0.06    +0.222    35.570
ATOM     28  O   UNL d   1      16.884  32.622 -14.388 -0.14 -0.00    -0.278    35.570
ATOM     29  P   UNL d   1      16.155  32.760 -15.797 -0.07 -0.01    +0.473    35.570
ATOM     30  O   UNL d   1      14.826  32.105 -15.898 -0.04 +0.02    -0.228    35.570
ATOM     31  O   UNL d   1      16.196  34.350 -15.978 -0.04 -0.02    -0.303    35.570
ATOM     32  H   UNL d   1      15.852  34.769 -15.155 +0.04 +0.03    +0.222    35.570
ATOM     33  O   UNL d   1      17.282  32.263 -16.806 -0.02 -0.00    -0.303    35.570
ATOM     34  H   UNL d   1      17.512  31.325 -16.593 +0.02 -0.00    +0.222    35.570
ATOM     35  O   UNL d   1      19.057  28.980 -12.520 -0.04 +0.04    -0.278    35.570
ATOM     36  P   UNL d   1      18.069  29.144 -11.277 -0.18 -0.09    +0.473    35.570
ATOM     37  O   UNL d   1      16.668  29.542 -11.615 -0.47 +0.01    -0.228    35.570
ATOM     38  O   UNL d   1      18.193  27.721 -10.573 -0.04 +0.07    -0.303    35.570
ATOM     39  H   UNL d   1      19.119  27.404 -10.649 +0.08 -0.05    +0.222    35.570
ATOM     40  O   UNL d   1      18.886  30.117 -10.320 -0.20 +0.09    -0.303    35.570
ATOM     41  H   UNL d   1      19.851  30.081 -10.502 +0.08 -0.06    +0.222    35.570
ATOM     42  O   UNL d   1      17.674  29.905 -14.912 -0.06 +0.02    -0.278    35.570
ATOM     43  P   UNL d   1      18.707  29.600 -16.089 +0.00 -0.02    +0.473    35.570
ATOM     44  O   UNL d   1      18.145  29.299 -17.435 -0.00 +0.01    -0.228    35.570
ATOM     45  O   UNL d   1      19.663  30.872 -16.052 -0.00 +0.00    -0.303    35.570
ATOM     46  H   UNL d   1      19.330  31.586 -16.632 +0.01 +0.00    +0.222    35.570
ATOM     47  O   UNL d   1      19.651  28.465 -15.463 -0.00 +0.01    -0.303    35.570
ATOM     48  H   UNL d   1      19.317  28.221 -14.575 +0.02 -0.02    +0.222    35.570
TER
ENDMDL
MODEL       89
USER    Run = 89
USER    Cluster Rank = 47
USER    Number of conformations in this cluster = 1
USER  
USER    RMSD from reference structure       = 62.896 A
USER  
USER    Estimated Free Energy of Binding    =   +4.29 kcal/mol  [=(1)+(2)+(3)-(4)]
USER    
USER    (1) Final Intermolecular Energy     =   -2.86 kcal/mol
USER        vdW + Hbond + desolv Energy     =   -2.79 kcal/mol
USER        Electrostatic Energy            =   -0.07 kcal/mol
USER    (2) Final Total Internal Energy     =  -15.13 kcal/mol
USER    (3) Torsional Free Energy           =   +7.16 kcal/mol
USER    (4) Unbound System's Energy  [=(2)] =  -15.13 kcal/mol
USER    
USER    
USER  
USER    DPF = D:/Protein_go_brrr/autodock/final/2DN3/IHP/dock.dpf
USER    NEWDPF move	IHP_ideal_opt.pdbqt
USER    NEWDPF about	0.035000 0.082000 -0.065000
USER    NEWDPF tran0	35.786119 47.302677 30.172717
USER    NEWDPF axisangle0	-0.582235 -0.264937 -0.768642 -142.254597
USER    NEWDPF quaternion0	-0.550934 -0.250694 -0.727320 -0.323467
USER    NEWDPF dihe0	102.38 43.21 163.78 -35.65 125.62 155.67 8.61 -62.01 11.20 47.27 18.49 -155.17 157.38 175.74 31.62 -55.63 147.56 144.94 53.75 14.61 171.04 13.65 -17.99 -11.55 
USER  
USER                              x       y       z    vdW   Elec        q     RMS 
ATOM      1  C   UNL d   1      35.398  48.220  31.584 -0.05 +0.02    +0.194    62.896
ATOM      2  C   UNL d   1      34.791  48.731  30.276 -0.07 +0.02    +0.194    62.896
ATOM      3  C   UNL d   1      35.804  48.697  29.130 -0.07 +0.02    +0.194    62.896
ATOM      4  C   UNL d   1      36.476  47.336  28.962 -0.06 +0.03    +0.194    62.896
ATOM      5  C   UNL d   1      36.995  46.735  30.262 -0.12 +0.03    +0.194    62.896
ATOM      6  C   UNL d   1      36.005  46.825  31.425 -0.12 +0.03    +0.194    62.896
ATOM      7  O   UNL d   1      34.352  48.122  32.553 -0.02 -0.02    -0.278    62.896
ATOM      8  P   UNL d   1      33.693  49.471  33.098 +0.01 +0.02    +0.473    62.896
ATOM      9  O   UNL d   1      33.157  49.396  34.485 -0.00 -0.01    -0.228    62.896
ATOM     10  O   UNL d   1      34.845  50.561  32.928 +0.00 -0.02    -0.303    62.896
ATOM     11  H   UNL d   1      35.649  50.261  33.392 +0.01 +0.01    +0.222    62.896
ATOM     12  O   UNL d   1      32.655  49.906  31.976 -0.00 -0.02    -0.303    62.896
ATOM     13  H   UNL d   1      32.653  49.304  31.198 +0.03 +0.01    +0.222    62.896
ATOM     14  O   UNL d   1      33.675  47.904  29.925 -0.11 -0.04    -0.278    62.896
ATOM     15  P   UNL d   1      32.453  48.627  29.186 -0.12 +0.02    +0.473    62.896
ATOM     16  O   UNL d   1      31.090  48.402  29.763 -0.10 -0.00    -0.228    62.896
ATOM     17  O   UNL d   1      32.868  50.165  29.165 -0.04 -0.01    -0.303    62.896
ATOM     18  H   UNL d   1      33.633  50.315  28.577 +0.05 +0.01    +0.222    62.896
ATOM     19  O   UNL d   1      32.623  48.230  27.655 -0.25 +0.04    -0.303    62.896
ATOM     20  H   UNL d   1      33.105  48.915  27.156 -0.35 -0.07    +0.222    62.896
ATOM     21  O   UNL d   1      36.740  46.550  32.615 -0.06 -0.03    -0.278    62.896
ATOM     22  P   UNL d   1      37.832  47.594  33.130 -0.00 +0.03    +0.473    62.896
ATOM     23  O   UNL d   1      37.376  48.965  33.501 -0.00 -0.01    -0.228    62.896
ATOM     24  O   UNL d   1      38.529  46.781  34.307 -0.01 -0.02    -0.303    62.896
ATOM     25  H   UNL d   1      38.912  45.951  33.924 +0.01 +0.02    +0.222    62.896
ATOM     26  O   UNL d   1      38.935  47.509  31.970 -0.01 -0.02    -0.303    62.896
ATOM     27  H   UNL d   1      38.805  46.683  31.462 +0.02 +0.02    +0.222    62.896
ATOM     28  O   UNL d   1      35.090  48.917  27.920 -0.11 -0.01    -0.278    62.896
ATOM     29  P   UNL d   1      35.507  50.104  26.944 -0.05 +0.01    +0.473    62.896
ATOM     30  O   UNL d   1      34.991  51.448  27.313 -0.03 -0.01    -0.228    62.896
ATOM     31  O   UNL d   1      37.096  49.914  26.937 -0.01 -0.02    -0.303    62.896
ATOM     32  H   UNL d   1      37.303  49.016  26.589 +0.04 +0.01    +0.222    62.896
ATOM     33  O   UNL d   1      35.078  49.533  25.521 -0.08 +0.02    -0.303    62.896
ATOM     34  H   UNL d   1      34.730  48.615  25.635 -0.40 -0.07    +0.222    62.896
ATOM     35  O   UNL d   1      37.201  45.350  29.993 -0.17 -0.04    -0.278    62.896
ATOM     36  P   UNL d   1      38.677  44.744  29.976 -0.09 +0.06    +0.473    62.896
ATOM     37  O   UNL d   1      38.801  43.363  29.416 -0.14 -0.04    -0.228    62.896
ATOM     38  O   UNL d   1      39.476  45.855  29.162 -0.02 -0.03    -0.303    62.896
ATOM     39  H   UNL d   1      39.071  45.955  28.273 +0.04 +0.02    +0.222    62.896
ATOM     40  O   UNL d   1      39.149  44.959  31.480 -0.04 -0.04    -0.303    62.896
ATOM     41  H   UNL d   1      38.423  45.307  32.043 +0.03 +0.03    +0.222    62.896
ATOM     42  O   UNL d   1      37.608  47.535  28.108 -0.06 -0.03    -0.278    62.896
ATOM     43  P   UNL d   1      37.712  46.694  26.757 -0.05 +0.04    +0.473    62.896
ATOM     44  O   UNL d   1      39.004  46.740  26.017 -0.03 -0.02    -0.228    62.896
ATOM     45  O   UNL d   1      37.279  45.234  27.220 -0.14 -0.02    -0.303    62.896
ATOM     46  H   UNL d   1      37.821  44.921  27.972 +0.06 +0.02    +0.222    62.896
ATOM     47  O   UNL d   1      36.424  47.169  25.929 -0.16 -0.02    -0.303    62.896
ATOM     48  H   UNL d   1      36.149  48.055  26.242 +0.06 +0.01    +0.222    62.896
TER
ENDMDL
MODEL       64
USER    Run = 64
USER    Cluster Rank = 48
USER    Number of conformations in this cluster = 1
USER  
USER    RMSD from reference structure       = 58.970 A
USER  
USER    Estimated Free Energy of Binding    =   +4.30 kcal/mol  [=(1)+(2)+(3)-(4)]
USER    
USER    (1) Final Intermolecular Energy     =   -2.85 kcal/mol
USER        vdW + Hbond + desolv Energy     =   -2.72 kcal/mol
USER        Electrostatic Energy            =   -0.13 kcal/mol
USER    (2) Final Total Internal Energy     =  -12.98 kcal/mol
USER    (3) Torsional Free Energy           =   +7.16 kcal/mol
USER    (4) Unbound System's Energy  [=(2)] =  -12.98 kcal/mol
USER    
USER    
USER  
USER    DPF = D:/Protein_go_brrr/autodock/final/2DN3/IHP/dock.dpf
USER    NEWDPF move	IHP_ideal_opt.pdbqt
USER    NEWDPF about	0.035000 0.082000 -0.065000
USER    NEWDPF tran0	24.760522 54.058500 20.173750
USER    NEWDPF axisangle0	-0.120150 -0.713030 0.690762 110.201550
USER    NEWDPF quaternion0	-0.098543 -0.584799 0.566535 0.572135
USER    NEWDPF dihe0	180.00 32.49 55.70 84.13 -93.69 -168.02 13.40 -151.80 21.77 116.49 99.44 180.00 27.81 -56.15 -180.00 -52.49 -10.33 152.31 -126.98 -33.76 -177.65 15.65 157.92 -14.21 
USER  
USER                              x       y       z    vdW   Elec        q     RMS 
ATOM      1  C   UNL d   1      24.115  52.477  19.918 -0.16 -0.01    +0.194    58.970
ATOM      2  C   UNL d   1      23.702  53.156  21.225 -0.10 +0.01    +0.194    58.970
ATOM      3  C   UNL d   1      24.885  53.856  21.898 -0.08 +0.08    +0.194    58.970
ATOM      4  C   UNL d   1      25.632  54.806  20.965 -0.03 +0.05    +0.194    58.970
ATOM      5  C   UNL d   1      25.963  54.206  19.604 -0.05 +0.03    +0.194    58.970
ATOM      6  C   UNL d   1      24.798  53.453  18.959 -0.06 +0.01    +0.194    58.970
ATOM      7  O   UNL d   1      22.933  51.999  19.271 -0.17 +0.05    -0.278    58.970
ATOM      8  P   UNL d   1      22.462  52.719  17.924 -0.07 -0.04    +0.473    58.970
ATOM      9  O   UNL d   1      23.200  52.308  16.699 -0.17 +0.00    -0.228    58.970
ATOM     10  O   UNL d   1      20.898  52.412  17.849 -0.07 +0.03    -0.303    58.970
ATOM     11  H   UNL d   1      20.563  52.204  18.741 +0.02 -0.04    +0.222    58.970
ATOM     12  O   UNL d   1      22.481  54.272  18.258 -0.02 +0.01    -0.303    58.970
ATOM     13  H   UNL d   1      22.568  54.459  19.220 +0.03 -0.00    +0.222    58.970
ATOM     14  O   UNL d   1      22.692  54.133  20.945 -0.02 -0.00    -0.278    58.970
ATOM     15  P   UNL d   1      21.175  53.684  21.188 -0.02 -0.03    +0.473    58.970
ATOM     16  O   UNL d   1      20.957  52.283  21.668 -0.13 +0.03    -0.228    58.970
ATOM     17  O   UNL d   1      20.603  54.778  22.194 -0.00 +0.00    -0.303    58.970
ATOM     18  H   UNL d   1      21.265  55.012  22.873 +0.02 +0.01    +0.222    58.970
ATOM     19  O   UNL d   1      20.426  54.069  19.838 -0.02 +0.02    -0.303    58.970
ATOM     20  H   UNL d   1      21.042  54.109  19.083 +0.03 -0.01    +0.222    58.970
ATOM     21  O   UNL d   1      25.346  52.679  17.895 -0.08 -0.00    -0.278    58.970
ATOM     22  P   UNL d   1      26.068  51.293  18.214 -0.21 +0.00    +0.473    58.970
ATOM     23  O   UNL d   1      27.172  50.850  17.315 -0.41 -0.00    -0.228    58.970
ATOM     24  O   UNL d   1      26.484  51.485  19.738 -0.23 -0.03    -0.303    58.970
ATOM     25  H   UNL d   1      27.209  50.842  19.943 +0.13 +0.03    +0.222    58.970
ATOM     26  O   UNL d   1      24.818  50.296  18.336 -0.29 +0.04    -0.303    58.970
ATOM     27  H   UNL d   1      24.035  50.708  17.916 +0.05 -0.04    +0.222    58.970
ATOM     28  O   UNL d   1      24.363  54.678  22.934 -0.06 -0.11    -0.278    58.970
ATOM     29  P   UNL d   1      24.913  54.542  24.423 +0.05 +0.38    +0.473    58.970
ATOM     30  O   UNL d   1      24.387  53.390  25.198 -0.09 -0.20    -0.228    58.970
ATOM     31  O   UNL d   1      26.488  54.570  24.142 -0.50 -0.45    -0.303    58.970
ATOM     32  H   UNL d   1      26.727  55.453  23.777 +0.02 +0.15    +0.222    58.970
ATOM     33  O   UNL d   1      24.636  55.994  25.015 -0.01 -0.09    -0.303    58.970
ATOM     34  H   UNL d   1      25.442  56.553  24.886 +0.01 +0.06    +0.222    58.970
ATOM     35  O   UNL d   1      26.268  55.312  18.758 -0.01 -0.02    -0.278    58.970
ATOM     36  P   UNL d   1      25.110  56.295  18.270 +0.00 +0.02    +0.473    58.970
ATOM     37  O   UNL d   1      24.003  56.524  19.249 +0.00 -0.01    -0.228    58.970
ATOM     38  O   UNL d   1      25.932  57.606  17.893 -0.00 -0.01    -0.303    58.970
ATOM     39  H   UNL d   1      26.547  57.821  18.627 +0.01 +0.01    +0.222    58.970
ATOM     40  O   UNL d   1      24.710  55.675  16.860 -0.01 +0.00    -0.303    58.970
ATOM     41  H   UNL d   1      24.183  54.852  16.961 +0.03 -0.00    +0.222    58.970
ATOM     42  O   UNL d   1      26.875  55.119  21.601 -0.05 -0.11    -0.278    58.970
ATOM     43  P   UNL d   1      27.257  56.650  21.836 +0.00 +0.10    +0.473    58.970
ATOM     44  O   UNL d   1      28.687  56.967  22.107 -0.01 -0.04    -0.228    58.970
ATOM     45  O   UNL d   1      26.668  57.359  20.539 +0.00 -0.03    -0.303    58.970
ATOM     46  H   UNL d   1      25.916  56.857  20.167 +0.01 +0.02    +0.222    58.970
ATOM     47  O   UNL d   1      26.219  57.118  22.963 -0.00 -0.06    -0.303    58.970
ATOM     48  H   UNL d   1      25.631  56.368  23.192 +0.01 +0.07    +0.222    58.970
TER
ENDMDL
MODEL       71
USER    Run = 71
USER    Cluster Rank = 49
USER    Number of conformations in this cluster = 1
USER  
USER    RMSD from reference structure       = 50.035 A
USER  
USER    Estimated Free Energy of Binding    =   +4.32 kcal/mol  [=(1)+(2)+(3)-(4)]
USER    
USER    (1) Final Intermolecular Energy     =   -2.84 kcal/mol
USER        vdW + Hbond + desolv Energy     =   -2.58 kcal/mol
USER        Electrostatic Energy            =   -0.26 kcal/mol
USER    (2) Final Total Internal Energy     =  -14.79 kcal/mol
USER    (3) Torsional Free Energy           =   +7.16 kcal/mol
USER    (4) Unbound System's Energy  [=(2)] =  -14.79 kcal/mol
USER    
USER    
USER  
USER    DPF = D:/Protein_go_brrr/autodock/final/2DN3/IHP/dock.dpf
USER    NEWDPF move	IHP_ideal_opt.pdbqt
USER    NEWDPF about	0.035000 0.082000 -0.065000
USER    NEWDPF tran0	25.156505 32.233093 34.971735
USER    NEWDPF axisangle0	0.300359 0.649680 0.698355 -114.721308
USER    NEWDPF quaternion0	0.252927 0.547084 0.588073 -0.539349
USER    NEWDPF dihe0	84.10 -178.95 178.65 -22.24 160.94 101.22 1.08 -60.89 170.80 -27.55 64.68 -109.74 -75.18 166.19 115.98 -48.40 44.64 120.88 69.88 22.59 -59.72 10.20 -22.64 2.00 
USER  
USER                              x       y       z    vdW   Elec        q     RMS 
ATOM      1  C   UNL d   1      25.812  33.508  34.008 -0.03 +0.04    +0.194    50.035
ATOM      2  C   UNL d   1      26.135  32.089  33.535 -0.03 +0.05    +0.194    50.035
ATOM      3  C   UNL d   1      26.513  31.175  34.703 -0.00 +0.04    +0.194    50.035
ATOM      4  C   UNL d   1      25.486  31.188  35.833 +0.00 +0.04    +0.194    50.035
ATOM      5  C   UNL d   1      25.049  32.584  36.259 +0.00 +0.04    +0.194    50.035
ATOM      6  C   UNL d   1      24.731  33.517  35.089 -0.03 +0.06    +0.194    50.035
ATOM      7  O   UNL d   1      25.306  34.245  32.892 -0.07 -0.07    -0.278    50.035
ATOM      8  P   UNL d   1      26.166  34.270  31.546 -0.05 -0.13    +0.473    50.035
ATOM      9  O   UNL d   1      27.620  34.006  31.721 -0.11 +0.16    -0.228    50.035
ATOM     10  O   UNL d   1      25.443  33.204  30.605 -0.02 -0.07    -0.303    50.035
ATOM     11  H   UNL d   1      25.644  32.303  30.918 +0.06 +0.08    +0.222    50.035
ATOM     12  O   UNL d   1      25.790  35.644  30.842 -0.15 +0.19    -0.303    50.035
ATOM     13  H   UNL d   1      26.573  36.123  30.488 -0.46 -0.37    +0.222    50.035
ATOM     14  O   UNL d   1      24.983  31.541  32.881 -0.12 -0.22    -0.278    50.035
ATOM     15  P   UNL d   1      25.254  30.400  31.791 -0.06 +0.28    +0.473    50.035
ATOM     16  O   UNL d   1      24.450  30.471  30.530 -0.66 -0.21    -0.228    50.035
ATOM     17  O   UNL d   1      26.823  30.479  31.529 -0.09 -0.05    -0.303    50.035
ATOM     18  H   UNL d   1      27.319  29.982  32.208 +0.04 +0.04    +0.222    50.035
ATOM     19  O   UNL d   1      25.134  29.038  32.605 -0.53 -0.14    -0.303    50.035
ATOM     20  H   UNL d   1      25.960  28.828  33.078 +0.05 +0.11    +0.222    50.035
ATOM     21  O   UNL d   1      24.680  34.840  35.618 -0.01 -0.04    -0.278    50.035
ATOM     22  P   UNL d   1      23.963  35.998  34.788 -0.02 +0.07    +0.473    50.035
ATOM     23  O   UNL d   1      23.247  37.067  35.543 -0.01 -0.02    -0.228    50.035
ATOM     24  O   UNL d   1      25.148  36.516  33.861 -0.02 +0.01    -0.303    50.035
ATOM     25  H   UNL d   1      25.086  36.047  32.990 +0.04 -0.01    +0.222    50.035
ATOM     26  O   UNL d   1      23.076  35.155  33.752 -0.05 -0.17    -0.303    50.035
ATOM     27  H   UNL d   1      23.662  34.756  33.077 +0.03 +0.16    +0.222    50.035
ATOM     28  O   UNL d   1      26.521  29.839  34.216 -0.06 -0.07    -0.278    50.035
ATOM     29  P   UNL d   1      27.847  28.961  34.298 -0.04 +0.13    +0.473    50.035
ATOM     30  O   UNL d   1      28.909  29.312  33.320 -0.11 -0.08    -0.228    50.035
ATOM     31  O   UNL d   1      28.202  29.136  35.849 -0.00 -0.08    -0.303    50.035
ATOM     32  H   UNL d   1      27.409  28.897  36.381 +0.02 +0.04    +0.222    50.035
ATOM     33  O   UNL d   1      27.271  27.478  34.234 -0.18 -0.07    -0.303    50.035
ATOM     34  H   UNL d   1      26.284  27.519  34.193 +0.03 +0.05    +0.222    50.035
ATOM     35  O   UNL d   1      23.840  32.404  36.994 +0.00 -0.05    -0.278    50.035
ATOM     36  P   UNL d   1      23.824  32.600  38.576 +0.01 +0.05    +0.473    50.035
ATOM     37  O   UNL d   1      23.545  33.991  39.051 +0.00 -0.02    -0.228    50.035
ATOM     38  O   UNL d   1      22.739  31.525  39.027 +0.00 -0.03    -0.303    50.035
ATOM     39  H   UNL d   1      23.199  30.728  39.367 +0.00 +0.02    +0.222    50.035
ATOM     40  O   UNL d   1      25.209  31.952  39.014 +0.00 -0.03    -0.303    50.035
ATOM     41  H   UNL d   1      25.209  30.977  38.894 +0.00 +0.02    +0.222    50.035
ATOM     42  O   UNL d   1      26.111  30.578  36.968 +0.00 -0.04    -0.278    50.035
ATOM     43  P   UNL d   1      25.623  29.133  37.433 +0.01 +0.06    +0.473    50.035
ATOM     44  O   UNL d   1      26.479  28.399  38.407 +0.00 -0.02    -0.228    50.035
ATOM     45  O   UNL d   1      24.144  29.414  37.950 +0.00 -0.04    -0.303    50.035
ATOM     46  H   UNL d   1      23.953  30.373  37.984 +0.00 +0.03    +0.222    50.035
ATOM     47  O   UNL d   1      25.346  28.376  36.048 -0.00 -0.05    -0.303    50.035
ATOM     48  H   UNL d   1      26.198  28.213  35.593 +0.02 +0.04    +0.222    50.035
TER
ENDMDL
MODEL       35
USER    Run = 35
USER    Cluster Rank = 50
USER    Number of conformations in this cluster = 1
USER  
USER    RMSD from reference structure       = 39.426 A
USER  
USER    Estimated Free Energy of Binding    =   +4.33 kcal/mol  [=(1)+(2)+(3)-(4)]
USER    
USER    (1) Final Intermolecular Energy     =   -2.83 kcal/mol
USER        vdW + Hbond + desolv Energy     =   -2.76 kcal/mol
USER        Electrostatic Energy            =   -0.07 kcal/mol
USER    (2) Final Total Internal Energy     =  -15.50 kcal/mol
USER    (3) Torsional Free Energy           =   +7.16 kcal/mol
USER    (4) Unbound System's Energy  [=(2)] =  -15.50 kcal/mol
USER    
USER    
USER  
USER    DPF = D:/Protein_go_brrr/autodock/final/2DN3/IHP/dock.dpf
USER    NEWDPF move	IHP_ideal_opt.pdbqt
USER    NEWDPF about	0.035000 0.082000 -0.065000
USER    NEWDPF tran0	-2.647770 42.558729 6.651086
USER    NEWDPF axisangle0	0.929748 -0.346867 -0.123497 -44.364703
USER    NEWDPF quaternion0	0.351032 -0.130962 -0.046627 -0.925987
USER    NEWDPF dihe0	99.45 19.52 111.05 138.78 129.16 110.85 22.29 -126.62 1.32 112.94 97.99 -118.20 -85.56 64.81 179.76 -73.65 -59.50 99.61 59.32 20.53 3.75 17.73 168.02 0.29 
USER  
USER                              x       y       z    vdW   Elec        q     RMS 
ATOM      1  C   UNL d   1      -1.656  41.165   6.895 -0.12 +0.17    +0.194    39.426
ATOM      2  C   UNL d   1      -2.750  41.021   5.835 -0.05 +0.10    +0.194    39.426
ATOM      3  C   UNL d   1      -4.075  41.625   6.303 -0.02 +0.08    +0.194    39.426
ATOM      4  C   UNL d   1      -3.939  43.062   6.800 -0.01 +0.07    +0.194    39.426
ATOM      5  C   UNL d   1      -2.786  43.276   7.772 -0.05 +0.12    +0.194    39.426
ATOM      6  C   UNL d   1      -1.476  42.619   7.334 -0.11 +0.15    +0.194    39.426
ATOM      7  O   UNL d   1      -0.419  40.738   6.320 -0.21 -0.18    -0.278    39.426
ATOM      8  P   UNL d   1      -0.282  39.214   5.860 -0.20 +0.27    +0.473    39.426
ATOM      9  O   UNL d   1      -1.022  38.233   6.699 -0.18 -0.13    -0.228    39.426
ATOM     10  O   UNL d   1      -0.760  39.225   4.338 -0.12 -0.21    -0.303    39.426
ATOM     11  H   UNL d   1      -1.672  39.566   4.284 +0.06 +0.13    +0.222    39.426
ATOM     12  O   UNL d   1       1.280  38.965   5.717 -0.30 -0.13    -0.303    39.426
ATOM     13  H   UNL d   1       1.787  39.787   5.530 -0.45 +0.05    +0.222    39.426
ATOM     14  O   UNL d   1      -2.336  41.698   4.641 -0.03 -0.12    -0.278    39.426
ATOM     15  P   UNL d   1      -2.925  41.139   3.261 -0.01 +0.22    +0.473    39.426
ATOM     16  O   UNL d   1      -3.730  42.095   2.438 -0.01 -0.08    -0.228    39.426
ATOM     17  O   UNL d   1      -1.646  40.586   2.489 -0.07 -0.28    -0.303    39.426
ATOM     18  H   UNL d   1      -0.885  40.488   3.094 +0.06 +0.22    +0.222    39.426
ATOM     19  O   UNL d   1      -3.664  39.789   3.663 -0.01 -0.12    -0.303    39.426
ATOM     20  H   UNL d   1      -4.539  39.960   4.056 +0.01 +0.07    +0.222    39.426
ATOM     21  O   UNL d   1      -0.619  42.609   8.473 -0.38 -0.33    -0.278    39.426
ATOM     22  P   UNL d   1       0.499  43.736   8.633 -0.15 +0.28    +0.473    39.426
ATOM     23  O   UNL d   1       1.752  43.387   9.363 -0.37 -0.12    -0.228    39.426
ATOM     24  O   UNL d   1       0.711  44.200   7.126 -0.16 -0.13    -0.303    39.426
ATOM     25  H   UNL d   1      -0.140  44.589   6.800 +0.07 +0.09    +0.222    39.426
ATOM     26  O   UNL d   1      -0.351  44.953   9.238 -0.05 -0.15    -0.303    39.426
ATOM     27  H   UNL d   1      -1.025  45.231   8.586 +0.05 +0.09    +0.222    39.426
ATOM     28  O   UNL d   1      -4.936  41.696   5.173 +0.00 -0.07    -0.278    39.426
ATOM     29  P   UNL d   1      -6.407  41.089   5.243 +0.01 +0.09    +0.473    39.426
ATOM     30  O   UNL d   1      -6.574  39.744   4.635 +0.00 -0.04    -0.228    39.426
ATOM     31  O   UNL d   1      -6.687  41.217   6.813 +0.00 -0.06    -0.303    39.426
ATOM     32  H   UNL d   1      -6.852  42.164   7.027 +0.00 +0.04    +0.222    39.426
ATOM     33  O   UNL d   1      -7.284  42.269   4.632 +0.00 -0.04    -0.303    39.426
ATOM     34  H   UNL d   1      -7.266  43.038   5.254 +0.00 +0.03    +0.222    39.426
ATOM     35  O   UNL d   1      -2.561  44.684   7.802 -0.01 -0.10    -0.278    39.426
ATOM     36  P   UNL d   1      -2.134  45.459   6.474 +0.00 +0.13    +0.473    39.426
ATOM     37  O   UNL d   1      -1.658  44.596   5.349 -0.04 -0.07    -0.228    39.426
ATOM     38  O   UNL d   1      -3.450  46.293   6.147 +0.00 -0.06    -0.303    39.426
ATOM     39  H   UNL d   1      -4.163  45.676   5.874 +0.00 +0.04    +0.222    39.426
ATOM     40  O   UNL d   1      -1.118  46.549   7.028 -0.02 -0.08    -0.303    39.426
ATOM     41  H   UNL d   1      -0.269  46.143   7.314 +0.06 +0.07    +0.222    39.426
ATOM     42  O   UNL d   1      -5.147  43.374   7.503 +0.00 -0.08    -0.278    39.426
ATOM     43  P   UNL d   1      -6.158  44.432   6.867 +0.01 +0.08    +0.473    39.426
ATOM     44  O   UNL d   1      -7.614  44.203   7.081 +0.00 -0.03    -0.228    39.426
ATOM     45  O   UNL d   1      -5.624  45.815   7.444 +0.00 -0.05    -0.303    39.426
ATOM     46  H   UNL d   1      -4.675  45.765   7.674 +0.00 +0.04    +0.222    39.426
ATOM     47  O   UNL d   1      -5.688  44.514   5.337 +0.00 -0.05    -0.303    39.426
ATOM     48  H   UNL d   1      -5.776  43.629   4.924 +0.00 +0.04    +0.222    39.426
TER
ENDMDL
MODEL       28
USER    Run = 28
USER    Cluster Rank = 51
USER    Number of conformations in this cluster = 1
USER  
USER    RMSD from reference structure       = 10.816 A
USER  
USER    Estimated Free Energy of Binding    =   +4.36 kcal/mol  [=(1)+(2)+(3)-(4)]
USER    
USER    (1) Final Intermolecular Energy     =   -2.80 kcal/mol
USER        vdW + Hbond + desolv Energy     =   -2.68 kcal/mol
USER        Electrostatic Energy            =   -0.12 kcal/mol
USER    (2) Final Total Internal Energy     =  -15.69 kcal/mol
USER    (3) Torsional Free Energy           =   +7.16 kcal/mol
USER    (4) Unbound System's Energy  [=(2)] =  -15.69 kcal/mol
USER    
USER    
USER  
USER    DPF = D:/Protein_go_brrr/autodock/final/2DN3/IHP/dock.dpf
USER    NEWDPF move	IHP_ideal_opt.pdbqt
USER    NEWDPF about	0.035000 0.082000 -0.065000
USER    NEWDPF tran0	5.074031 14.352897 0.874125
USER    NEWDPF axisangle0	-0.807486 -0.288550 0.514495 120.448185
USER    NEWDPF quaternion0	-0.700877 -0.250454 0.446569 0.496609
USER    NEWDPF dihe0	-127.86 -14.44 169.30 -38.05 -64.17 131.11 44.09 -82.91 152.73 8.87 -180.00 159.16 95.64 174.37 -114.43 -121.01 112.54 -144.03 -21.47 15.16 147.86 1.45 -42.78 168.95 
USER  
USER                              x       y       z    vdW   Elec        q     RMS 
ATOM      1  C   UNL d   1       4.666  13.848  -0.727 -0.06 +0.09    +0.194    10.816
ATOM      2  C   UNL d   1       3.573  14.609   0.025 -0.07 +0.05    +0.194    10.816
ATOM      3  C   UNL d   1       3.455  14.144   1.478 -0.09 +0.04    +0.194    10.816
ATOM      4  C   UNL d   1       4.786  14.159   2.224 -0.12 +0.04    +0.194    10.816
ATOM      5  C   UNL d   1       5.934  13.511   1.460 -0.12 +0.07    +0.194    10.816
ATOM      6  C   UNL d   1       6.014  13.930  -0.009 -0.12 +0.15    +0.194    10.816
ATOM      7  O   UNL d   1       4.830  14.455  -2.011 -0.08 -0.19    -0.278    10.816
ATOM      8  P   UNL d   1       5.160  13.513  -3.259 -0.03 +0.31    +0.473    10.816
ATOM      9  O   UNL d   1       4.598  13.969  -4.559 -0.01 -0.09    -0.228    10.816
ATOM     10  O   UNL d   1       6.752  13.418  -3.261 -0.06 -0.48    -0.303    10.816
ATOM     11  H   UNL d   1       7.046  12.836  -2.536 +0.02 +0.35    +0.222    10.816
ATOM     12  O   UNL d   1       4.740  12.052  -2.796 -0.00 -0.11    -0.303    10.816
ATOM     13  H   UNL d   1       5.227  11.746  -1.998 +0.01 +0.09    +0.222    10.816
ATOM     14  O   UNL d   1       3.888  16.007   0.018 -0.14 -0.09    -0.278    10.816
ATOM     15  P   UNL d   1       2.649  17.020  -0.032 -0.03 +0.09    +0.473    10.816
ATOM     16  O   UNL d   1       2.705  18.101  -1.066 -0.14 -0.03    -0.228    10.816
ATOM     17  O   UNL d   1       1.379  16.072  -0.198 -0.02 -0.03    -0.303    10.816
ATOM     18  H   UNL d   1       1.178  15.605   0.636 +0.03 +0.03    +0.222    10.816
ATOM     19  O   UNL d   1       2.482  17.517   1.470 -0.33 -0.08    -0.303    10.816
ATOM     20  H   UNL d   1       1.787  17.019   1.940 +0.05 +0.05    +0.222    10.816
ATOM     21  O   UNL d   1       6.888  13.006  -0.654 -0.51 -0.33    -0.278    10.816
ATOM     22  P   UNL d   1       6.729  11.442  -0.379 -0.02 +0.22    +0.473    10.816
ATOM     23  O   UNL d   1       7.395  10.867   0.826 -0.01 -0.07    -0.228    10.816
ATOM     24  O   UNL d   1       5.148  11.264  -0.417 -0.00 -0.09    -0.303    10.816
ATOM     25  H   UNL d   1       4.875  10.761   0.393 +0.01 +0.04    +0.222    10.816
ATOM     26  O   UNL d   1       7.166  10.818  -1.789 -0.01 -0.14    -0.303    10.816
ATOM     27  H   UNL d   1       6.763  11.341  -2.512 +0.01 +0.13    +0.222    10.816
ATOM     28  O   UNL d   1       2.628  15.078   2.161 -0.29 -0.07    -0.278    10.816
ATOM     29  P   UNL d   1       1.185  14.647   2.679 -0.02 +0.05    +0.473    10.816
ATOM     30  O   UNL d   1       0.153  15.714   2.663 -0.03 -0.02    -0.228    10.816
ATOM     31  O   UNL d   1       0.925  13.370   1.750 -0.00 -0.03    -0.303    10.816
ATOM     32  H   UNL d   1       1.184  12.561   2.249 +0.01 +0.02    +0.222    10.816
ATOM     33  O   UNL d   1       1.520  13.991   4.092 -0.05 -0.03    -0.303    10.816
ATOM     34  H   UNL d   1       2.460  13.684   4.088 +0.03 +0.02    +0.222    10.816
ATOM     35  O   UNL d   1       7.127  13.968   2.093 -0.16 -0.10    -0.278    10.816
ATOM     36  P   UNL d   1       7.732  13.176   3.339 -0.07 +0.10    +0.473    10.816
ATOM     37  O   UNL d   1       9.193  13.379   3.585 -0.07 -0.05    -0.228    10.816
ATOM     38  O   UNL d   1       6.793  13.670   4.526 -0.17 -0.03    -0.303    10.816
ATOM     39  H   UNL d   1       5.967  13.140   4.525 +0.05 +0.02    +0.222    10.816
ATOM     40  O   UNL d   1       7.246  11.687   3.062 -0.01 -0.05    -0.303    10.816
ATOM     41  H   UNL d   1       6.373  11.666   2.612 +0.03 +0.04    +0.222    10.816
ATOM     42  O   UNL d   1       4.598  13.401   3.424 -0.11 -0.03    -0.278    10.816
ATOM     43  P   UNL d   1       4.119  11.884   3.310 -0.02 +0.05    +0.473    10.816
ATOM     44  O   UNL d   1       2.669  11.605   3.501 -0.01 -0.02    -0.228    10.816
ATOM     45  O   UNL d   1       4.685  11.445   1.889 -0.00 -0.05    -0.303    10.816
ATOM     46  H   UNL d   1       5.450  10.843   1.978 +0.02 +0.04    +0.222    10.816
ATOM     47  O   UNL d   1       5.109  11.112   4.307 -0.01 -0.02    -0.303    10.816
ATOM     48  H   UNL d   1       5.919  11.648   4.437 +0.03 +0.02    +0.222    10.816
TER
ENDMDL
MODEL       23
USER    Run = 23
USER    Cluster Rank = 52
USER    Number of conformations in this cluster = 1
USER  
USER    RMSD from reference structure       = 64.825 A
USER  
USER    Estimated Free Energy of Binding    =   +4.40 kcal/mol  [=(1)+(2)+(3)-(4)]
USER    
USER    (1) Final Intermolecular Energy     =   -2.76 kcal/mol
USER        vdW + Hbond + desolv Energy     =   -2.39 kcal/mol
USER        Electrostatic Energy            =   -0.37 kcal/mol
USER    (2) Final Total Internal Energy     =  -13.60 kcal/mol
USER    (3) Torsional Free Energy           =   +7.16 kcal/mol
USER    (4) Unbound System's Energy  [=(2)] =  -13.60 kcal/mol
USER    
USER    
USER  
USER    DPF = D:/Protein_go_brrr/autodock/final/2DN3/IHP/dock.dpf
USER    NEWDPF move	IHP_ideal_opt.pdbqt
USER    NEWDPF about	0.035000 0.082000 -0.065000
USER    NEWDPF tran0	53.503043 43.656200 6.120244
USER    NEWDPF axisangle0	0.904537 0.327748 0.272754 -160.116495
USER    NEWDPF quaternion0	0.890954 0.322826 0.268658 -0.172647
USER    NEWDPF dihe0	114.31 34.82 21.51 143.94 -1.13 -124.36 -4.03 -92.24 -7.04 79.74 119.63 147.00 157.15 168.01 -1.58 -78.27 -38.71 -153.63 0.89 -29.64 141.58 9.72 -40.02 4.33 
USER  
USER                              x       y       z    vdW   Elec        q     RMS 
ATOM      1  C   UNL d   1      54.352  45.037   5.524 -0.02 -0.02    +0.194    64.825
ATOM      2  C   UNL d   1      52.939  44.841   4.972 -0.05 -0.04    +0.194    64.825
ATOM      3  C   UNL d   1      52.666  43.378   4.619 -0.06 -0.02    +0.194    64.825
ATOM      4  C   UNL d   1      52.978  42.415   5.763 -0.05 -0.03    +0.194    64.825
ATOM      5  C   UNL d   1      54.333  42.649   6.419 -0.06 -0.03    +0.194    64.825
ATOM      6  C   UNL d   1      54.632  44.120   6.715 -0.05 -0.03    +0.194    64.825
ATOM      7  O   UNL d   1      54.468  46.385   5.986 -0.01 +0.04    -0.278    64.825
ATOM      8  P   UNL d   1      55.603  47.311   5.350 +0.01 -0.03    +0.473    64.825
ATOM      9  O   UNL d   1      56.122  48.380   6.246 +0.00 +0.01    -0.228    64.825
ATOM     10  O   UNL d   1      56.728  46.280   4.884 +0.00 +0.01    -0.303    64.825
ATOM     11  H   UNL d   1      56.867  45.612   5.580 +0.00 -0.00    +0.222    64.825
ATOM     12  O   UNL d   1      55.005  47.801   3.961 +0.00 +0.01    -0.303    64.825
ATOM     13  H   UNL d   1      54.180  47.329   3.708 +0.01 -0.02    +0.222    64.825
ATOM     14  O   UNL d   1      51.990  45.257   5.962 -0.13 +0.12    -0.278    64.825
ATOM     15  P   UNL d   1      51.318  46.695   5.750 -0.08 -0.32    +0.473    64.825
ATOM     16  O   UNL d   1      51.199  47.567   6.961 -0.14 +0.21    -0.228    64.825
ATOM     17  O   UNL d   1      52.186  47.362   4.593 -0.01 +0.08    -0.303    64.825
ATOM     18  H   UNL d   1      53.058  47.647   4.927 +0.02 -0.04    +0.222    64.825
ATOM     19  O   UNL d   1      49.955  46.388   4.990 -0.09 +0.30    -0.303    64.825
ATOM     20  H   UNL d   1      49.242  46.148   5.611 -0.46 -0.57    +0.222    64.825
ATOM     21  O   UNL d   1      56.027  44.210   6.994 -0.01 +0.02    -0.278    64.825
ATOM     22  P   UNL d   1      57.061  43.340   6.145 +0.00 -0.00    +0.473    64.825
ATOM     23  O   UNL d   1      56.697  42.983   4.743 -0.00 -0.00    -0.228    64.825
ATOM     24  O   UNL d   1      58.398  44.191   6.291 -0.00 -0.00    -0.303    64.825
ATOM     25  H   UNL d   1      58.272  45.049   5.811 +0.00 +0.00    +0.222    64.825
ATOM     26  O   UNL d   1      57.341  42.110   7.134 -0.00 -0.00    -0.303    64.825
ATOM     27  H   UNL d   1      56.504  41.629   7.295 +0.01 -0.00    +0.222    64.825
ATOM     28  O   UNL d   1      51.270  43.247   4.386 -0.09 +0.04    -0.278    64.825
ATOM     29  P   UNL d   1      50.734  42.741   2.974 -0.01 -0.01    +0.473    64.825
ATOM     30  O   UNL d   1      50.163  43.791   2.092 -0.02 +0.01    -0.228    64.825
ATOM     31  O   UNL d   1      52.032  41.972   2.442 -0.00 -0.01    -0.303    64.825
ATOM     32  H   UNL d   1      52.368  41.388   3.161 +0.03 +0.01    +0.222    64.825
ATOM     33  O   UNL d   1      49.765  41.548   3.392 -0.08 -0.02    -0.303    64.825
ATOM     34  H   UNL d   1      50.128  41.108   4.200 +0.07 +0.02    +0.222    64.825
ATOM     35  O   UNL d   1      54.278  41.971   7.672 -0.07 +0.06    -0.278    64.825
ATOM     36  P   UNL d   1      54.746  40.450   7.785 -0.02 -0.03    +0.473    64.825
ATOM     37  O   UNL d   1      55.349  39.868   6.547 -0.01 -0.00    -0.228    64.825
ATOM     38  O   UNL d   1      55.736  40.506   9.032 -0.01 +0.01    -0.303    64.825
ATOM     39  H   UNL d   1      56.592  40.891   8.745 +0.01 -0.00    +0.222    64.825
ATOM     40  O   UNL d   1      53.446  39.737   8.360 -0.09 +0.02    -0.303    64.825
ATOM     41  H   UNL d   1      52.624  40.109   7.971 -0.11 -0.03    +0.222    64.825
ATOM     42  O   UNL d   1      53.004  41.099   5.201 -0.05 +0.00    -0.278    64.825
ATOM     43  P   UNL d   1      51.794  40.105   5.509 -0.11 +0.05    +0.473    64.825
ATOM     44  O   UNL d   1      52.058  38.968   6.434 -0.53 -0.09    -0.228    64.825
ATOM     45  O   UNL d   1      50.648  41.093   6.001 -0.17 -0.01    -0.303    64.825
ATOM     46  H   UNL d   1      50.563  41.867   5.409 +0.05 -0.00    +0.222    64.825
ATOM     47  O   UNL d   1      51.272  39.702   4.048 -0.04 -0.05    -0.303    64.825
ATOM     48  H   UNL d   1      51.377  40.467   3.445 +0.05 +0.02    +0.222    64.825
TER
ENDMDL
MODEL       45
USER    Run = 45
USER    Cluster Rank = 53
USER    Number of conformations in this cluster = 1
USER  
USER    RMSD from reference structure       = 65.091 A
USER  
USER    Estimated Free Energy of Binding    =   +4.46 kcal/mol  [=(1)+(2)+(3)-(4)]
USER    
USER    (1) Final Intermolecular Energy     =   -2.70 kcal/mol
USER        vdW + Hbond + desolv Energy     =   -2.38 kcal/mol
USER        Electrostatic Energy            =   -0.32 kcal/mol
USER    (2) Final Total Internal Energy     =  -13.65 kcal/mol
USER    (3) Torsional Free Energy           =   +7.16 kcal/mol
USER    (4) Unbound System's Energy  [=(2)] =  -13.65 kcal/mol
USER    
USER    
USER  
USER    DPF = D:/Protein_go_brrr/autodock/final/2DN3/IHP/dock.dpf
USER    NEWDPF move	IHP_ideal_opt.pdbqt
USER    NEWDPF about	0.035000 0.082000 -0.065000
USER    NEWDPF tran0	36.582650 56.266862 13.120666
USER    NEWDPF axisangle0	-0.257994 -0.587080 -0.767317 121.988162
USER    NEWDPF quaternion0	-0.225633 -0.513443 -0.671072 0.484900
USER    NEWDPF dihe0	142.58 106.03 36.19 64.58 156.23 124.61 142.49 7.23 146.70 -33.12 5.14 -3.23 -30.95 -159.63 51.89 53.34 180.00 -86.38 26.71 -49.38 -180.00 -48.53 16.06 178.40 
USER  
USER                              x       y       z    vdW   Elec        q     RMS 
ATOM      1  C   UNL d   1      37.052  57.747  12.363 -0.04 +0.02    +0.194    65.091
ATOM      2  C   UNL d   1      37.628  56.474  11.740 -0.06 +0.03    +0.194    65.091
ATOM      3  C   UNL d   1      38.107  55.488  12.807 -0.09 +0.05    +0.194    65.091
ATOM      4  C   UNL d   1      37.049  55.185  13.865 -0.15 +0.06    +0.194    65.091
ATOM      5  C   UNL d   1      36.367  56.423  14.432 -0.11 +0.03    +0.194    65.091
ATOM      6  C   UNL d   1      35.942  57.438  13.369 -0.08 +0.02    +0.194    65.091
ATOM      7  O   UNL d   1      36.474  58.533  11.319 -0.02 -0.03    -0.278    65.091
ATOM      8  P   UNL d   1      37.354  59.697  10.669 +0.00 +0.04    +0.473    65.091
ATOM      9  O   UNL d   1      38.823  59.558  10.858 -0.00 -0.02    -0.228    65.091
ATOM     10  O   UNL d   1      36.916  59.701   9.134 -0.01 -0.03    -0.303    65.091
ATOM     11  H   UNL d   1      36.437  58.877   8.929 +0.03 +0.03    +0.222    65.091
ATOM     12  O   UNL d   1      36.710  61.048  11.202 -0.00 -0.02    -0.303    65.091
ATOM     13  H   UNL d   1      36.737  61.128  12.182 +0.00 +0.01    +0.222    65.091
ATOM     14  O   UNL d   1      36.612  55.838  10.954 -0.14 -0.05    -0.278    65.091
ATOM     15  P   UNL d   1      36.393  56.405   9.473 -0.06 +0.12    +0.473    65.091
ATOM     16  O   UNL d   1      35.188  57.266   9.254 -0.10 -0.05    -0.228    65.091
ATOM     17  O   UNL d   1      37.757  57.158   9.140 -0.05 -0.06    -0.303    65.091
ATOM     18  H   UNL d   1      37.928  57.875   9.781 +0.04 +0.03    +0.222    65.091
ATOM     19  O   UNL d   1      36.499  55.123   8.537 -0.24 -0.17    -0.303    65.091
ATOM     20  H   UNL d   1      36.590  54.304   9.058 +0.10 +0.13    +0.222    65.091
ATOM     21  O   UNL d   1      35.648  58.653  14.054 -0.02 -0.02    -0.278    65.091
ATOM     22  P   UNL d   1      36.839  59.590  14.551 +0.00 +0.04    +0.473    65.091
ATOM     23  O   UNL d   1      37.463  60.521  13.567 +0.00 -0.02    -0.228    65.091
ATOM     24  O   UNL d   1      36.189  60.298  15.820 +0.00 -0.02    -0.303    65.091
ATOM     25  H   UNL d   1      36.381  59.741  16.616 +0.01 +0.02    +0.222    65.091
ATOM     26  O   UNL d   1      37.826  58.527  15.235 -0.00 -0.03    -0.303    65.091
ATOM     27  H   UNL d   1      37.314  57.962  15.849 +0.02 +0.03    +0.222    65.091
ATOM     28  O   UNL d   1      38.360  54.247  12.160 -0.14 -0.11    -0.278    65.091
ATOM     29  P   UNL d   1      39.476  54.142  11.029 -0.10 +0.03    +0.473    65.091
ATOM     30  O   UNL d   1      40.590  55.120  11.135 -0.06 +0.02    -0.228    65.091
ATOM     31  O   UNL d   1      39.856  52.592  11.154 -0.22 -0.00    -0.303    65.091
ATOM     32  H   UNL d   1      40.698  52.435  10.667 -0.26 -0.21    +0.222    65.091
ATOM     33  O   UNL d   1      38.606  54.184   9.696 -0.16 -0.09    -0.303    65.091
ATOM     34  H   UNL d   1      38.182  55.073   9.617 +0.08 +0.07    +0.222    65.091
ATOM     35  O   UNL d   1      35.177  55.954  15.064 -0.16 -0.04    -0.278    65.091
ATOM     36  P   UNL d   1      34.620  56.679  16.371 -0.08 +0.06    +0.473    65.091
ATOM     37  O   UNL d   1      34.175  55.771  17.472 -0.11 -0.04    -0.228    65.091
ATOM     38  O   UNL d   1      35.837  57.630  16.759 -0.01 -0.04    -0.303    65.091
ATOM     39  H   UNL d   1      35.844  58.405  16.156 +0.02 +0.02    +0.222    65.091
ATOM     40  O   UNL d   1      33.534  57.673  15.771 -0.07 -0.03    -0.303    65.091
ATOM     41  H   UNL d   1      33.951  58.446  15.329 +0.02 +0.02    +0.222    65.091
ATOM     42  O   UNL d   1      37.723  54.540  14.952 -0.05 -0.15    -0.278    65.091
ATOM     43  P   UNL d   1      38.770  55.377  15.816 -0.04 +0.14    +0.473    65.091
ATOM     44  O   UNL d   1      39.677  56.305  15.085 -0.02 -0.04    -0.228    65.091
ATOM     45  O   UNL d   1      37.841  56.090  16.894 -0.03 -0.06    -0.303    65.091
ATOM     46  H   UNL d   1      37.260  56.759  16.480 +0.03 +0.04    +0.222    65.091
ATOM     47  O   UNL d   1      39.495  54.255  16.701 -0.07 -0.12    -0.303    65.091
ATOM     48  H   UNL d   1      40.212  54.670  17.224 +0.03 +0.06    +0.222    65.091
TER
ENDMDL
MODEL       69
USER    Run = 69
USER    Cluster Rank = 54
USER    Number of conformations in this cluster = 1
USER  
USER    RMSD from reference structure       = 50.821 A
USER  
USER    Estimated Free Energy of Binding    =   +4.46 kcal/mol  [=(1)+(2)+(3)-(4)]
USER    
USER    (1) Final Intermolecular Energy     =   -2.70 kcal/mol
USER        vdW + Hbond + desolv Energy     =   -2.55 kcal/mol
USER        Electrostatic Energy            =   -0.15 kcal/mol
USER    (2) Final Total Internal Energy     =  -13.11 kcal/mol
USER    (3) Torsional Free Energy           =   +7.16 kcal/mol
USER    (4) Unbound System's Energy  [=(2)] =  -13.11 kcal/mol
USER    
USER    
USER  
USER    DPF = D:/Protein_go_brrr/autodock/final/2DN3/IHP/dock.dpf
USER    NEWDPF move	IHP_ideal_opt.pdbqt
USER    NEWDPF about	0.035000 0.082000 -0.065000
USER    NEWDPF tran0	16.527574 43.471314 28.645562
USER    NEWDPF axisangle0	-0.302569 -0.890754 0.339131 -140.977911
USER    NEWDPF quaternion0	-0.285194 -0.839604 0.319657 -0.333989
USER    NEWDPF dihe0	144.03 148.65 -165.92 55.01 31.44 -102.13 -61.32 -35.50 169.41 -8.82 62.95 -4.22 125.42 91.52 -4.39 -179.49 180.00 -93.02 29.52 -34.18 -44.92 -27.96 25.92 -180.00 
USER  
USER                              x       y       z    vdW   Elec        q     RMS 
ATOM      1  C   UNL d   1      14.934  43.503  29.313 -0.01 -0.01    +0.194    50.821
ATOM      2  C   UNL d   1      15.762  42.258  29.636 -0.01 -0.01    +0.194    50.821
ATOM      3  C   UNL d   1      16.520  41.747  28.409 -0.04 -0.02    +0.194    50.821
ATOM      4  C   UNL d   1      17.349  42.828  27.722 -0.07 -0.02    +0.194    50.821
ATOM      5  C   UNL d   1      16.596  44.130  27.483 -0.05 -0.01    +0.194    50.821
ATOM      6  C   UNL d   1      15.788  44.609  28.691 -0.01 -0.01    +0.194    50.821
ATOM      7  O   UNL d   1      14.401  44.014  30.536 -0.00 +0.01    -0.278    50.821
ATOM      8  P   UNL d   1      12.943  43.540  30.986 +0.00 -0.02    +0.473    50.821
ATOM      9  O   UNL d   1      12.487  44.062  32.303 +0.00 +0.01    -0.228    50.821
ATOM     10  O   UNL d   1      12.002  43.982  29.775 -0.00 +0.02    -0.303    50.821
ATOM     11  H   UNL d   1      12.484  44.601  29.196 +0.00 -0.01    +0.222    50.821
ATOM     12  O   UNL d   1      12.958  41.958  30.834 +0.00 +0.02    -0.303    50.821
ATOM     13  H   UNL d   1      13.044  41.489  31.695 +0.00 -0.01    +0.222    50.821
ATOM     14  O   UNL d   1      16.713  42.581  30.658 -0.00 +0.01    -0.278    50.821
ATOM     15  P   UNL d   1      16.307  42.201  32.160 +0.00 -0.01    +0.473    50.821
ATOM     16  O   UNL d   1      17.421  41.805  33.077 -0.00 +0.00    -0.228    50.821
ATOM     17  O   UNL d   1      15.504  43.476  32.679 +0.00 +0.01    -0.303    50.821
ATOM     18  H   UNL d   1      14.540  43.336  32.610 +0.00 -0.01    +0.222    50.821
ATOM     19  O   UNL d   1      15.139  41.133  31.997 +0.00 +0.01    -0.303    50.821
ATOM     20  H   UNL d   1      14.890  41.011  31.062 +0.01 -0.01    +0.222    50.821
ATOM     21  O   UNL d   1      14.892  45.612  28.216 -0.01 +0.02    -0.278    50.821
ATOM     22  P   UNL d   1      14.489  46.827  29.168 -0.00 -0.02    +0.473    50.821
ATOM     23  O   UNL d   1      15.439  47.223  30.247 -0.00 +0.01    -0.228    50.821
ATOM     24  O   UNL d   1      14.164  47.973  28.112 -0.00 +0.01    -0.303    50.821
ATOM     25  H   UNL d   1      14.779  47.867  27.342 +0.01 -0.01    +0.222    50.821
ATOM     26  O   UNL d   1      13.022  46.392  29.647 +0.00 +0.01    -0.303    50.821
ATOM     27  H   UNL d   1      13.100  45.781  30.407 +0.00 -0.01    +0.222    50.821
ATOM     28  O   UNL d   1      17.460  40.779  28.859 -0.05 +0.01    -0.278    50.821
ATOM     29  P   UNL d   1      17.006  39.274  29.112 -0.11 -0.00    +0.473    50.821
ATOM     30  O   UNL d   1      18.080  38.253  28.999 -0.73 -0.06    -0.228    50.821
ATOM     31  O   UNL d   1      16.302  39.431  30.540 -0.02 +0.01    -0.303    50.821
ATOM     32  H   UNL d   1      16.495  40.332  30.889 +0.02 -0.01    +0.222    50.821
ATOM     33  O   UNL d   1      15.767  39.128  28.123 -0.14 +0.05    -0.303    50.821
ATOM     34  H   UNL d   1      15.854  39.794  27.399 +0.09 -0.04    +0.222    50.821
ATOM     35  O   UNL d   1      17.596  45.115  27.229 -0.07 +0.02    -0.278    50.821
ATOM     36  P   UNL d   1      17.236  46.434  26.407 -0.06 -0.03    +0.473    50.821
ATOM     37  O   UNL d   1      18.229  46.834  25.363 -0.20 +0.01    -0.228    50.821
ATOM     38  O   UNL d   1      15.793  46.078  25.835 -0.04 +0.02    -0.303    50.821
ATOM     39  H   UNL d   1      15.110  46.501  26.399 +0.02 -0.02    +0.222    50.821
ATOM     40  O   UNL d   1      16.941  47.485  27.563 -0.02 +0.02    -0.303    50.821
ATOM     41  H   UNL d   1      16.305  47.131  28.224 +0.01 -0.01    +0.222    50.821
ATOM     42  O   UNL d   1      17.719  42.313  26.438 -0.11 +0.03    -0.278    50.821
ATOM     43  P   UNL d   1      16.586  42.114  25.332 -0.14 -0.10    +0.473    50.821
ATOM     44  O   UNL d   1      15.331  41.431  25.750 -0.18 +0.06    -0.228    50.821
ATOM     45  O   UNL d   1      16.371  43.593  24.783 -0.10 +0.04    -0.303    50.821
ATOM     46  H   UNL d   1      16.834  44.251  25.338 +0.08 -0.02    +0.222    50.821
ATOM     47  O   UNL d   1      17.376  41.428  24.118 -0.26 +0.13    -0.303    50.821
ATOM     48  H   UNL d   1      16.740  41.188  23.413 -0.38 -0.21    +0.222    50.821
TER
ENDMDL
MODEL       88
USER    Run = 88
USER    Cluster Rank = 55
USER    Number of conformations in this cluster = 2
USER  
USER    RMSD from reference structure       = 34.891 A
USER  
USER    Estimated Free Energy of Binding    =   +4.46 kcal/mol  [=(1)+(2)+(3)-(4)]
USER    
USER    (1) Final Intermolecular Energy     =   -2.70 kcal/mol
USER        vdW + Hbond + desolv Energy     =   -2.52 kcal/mol
USER        Electrostatic Energy            =   -0.17 kcal/mol
USER    (2) Final Total Internal Energy     =  -15.45 kcal/mol
USER    (3) Torsional Free Energy           =   +7.16 kcal/mol
USER    (4) Unbound System's Energy  [=(2)] =  -15.45 kcal/mol
USER    
USER    
USER  
USER    DPF = D:/Protein_go_brrr/autodock/final/2DN3/IHP/dock.dpf
USER    NEWDPF move	IHP_ideal_opt.pdbqt
USER    NEWDPF about	0.035000 0.082000 -0.065000
USER    NEWDPF tran0	6.967441 34.446713 -15.994219
USER    NEWDPF axisangle0	0.646402 -0.756599 0.098606 -157.049174
USER    NEWDPF quaternion0	0.633480 -0.741475 0.096635 -0.198947
USER    NEWDPF dihe0	179.87 24.14 112.45 95.80 31.20 -101.29 -129.08 -71.68 51.45 10.67 93.34 -119.00 -125.18 99.15 -61.47 32.61 134.33 101.07 40.56 -7.60 167.61 13.67 -11.64 4.11 
USER  
USER                              x       y       z    vdW   Elec        q     RMS 
ATOM      1  C   UNL d   1       7.551  32.846 -16.281 -0.09 +0.09    +0.194    34.891
ATOM      2  C   UNL d   1       8.549  33.973 -16.557 -0.05 +0.04    +0.194    34.891
ATOM      3  C   UNL d   1       7.893  35.142 -17.294 -0.01 +0.03    +0.194    34.891
ATOM      4  C   UNL d   1       6.625  35.649 -16.612 -0.01 +0.03    +0.194    34.891
ATOM      5  C   UNL d   1       5.651  34.546 -16.215 -0.04 +0.06    +0.194    34.891
ATOM      6  C   UNL d   1       6.316  33.349 -15.533 -0.08 +0.13    +0.194    34.891
ATOM      7  O   UNL d   1       8.191  31.878 -15.446 -0.13 -0.16    -0.278    34.891
ATOM      8  P   UNL d   1       9.146  30.797 -16.132 -0.11 +0.13    +0.473    34.891
ATOM      9  O   UNL d   1       8.444  29.728 -16.894 -0.05 -0.07    -0.228    34.891
ATOM     10  O   UNL d   1      10.131  31.668 -17.035 -0.05 -0.04    -0.303    34.891
ATOM     11  H   UNL d   1      10.159  32.583 -16.699 +0.04 +0.03    +0.222    34.891
ATOM     12  O   UNL d   1      10.110  30.301 -14.971 -0.26 -0.01    -0.303    34.891
ATOM     13  H   UNL d   1      10.171  30.937 -14.223 -0.25 -0.02    +0.222    34.891
ATOM     14  O   UNL d   1       9.067  34.453 -15.310 -0.08 -0.04    -0.278    34.891
ATOM     15  P   UNL d   1      10.660  34.429 -15.141 -0.10 +0.02    +0.473    34.891
ATOM     16  O   UNL d   1      11.247  35.409 -14.175 -0.14 +0.01    -0.228    34.891
ATOM     17  O   UNL d   1      10.986  32.916 -14.761 -0.39 -0.05    -0.303    34.891
ATOM     18  H   UNL d   1      10.235  32.330 -14.974 +0.06 +0.03    +0.222    34.891
ATOM     19  O   UNL d   1      11.218  34.513 -16.628 -0.04 -0.02    -0.303    34.891
ATOM     20  H   UNL d   1      10.663  35.085 -17.189 +0.02 +0.01    +0.222    34.891
ATOM     21  O   UNL d   1       5.363  32.289 -15.540 -0.54 -0.42    -0.278    34.891
ATOM     22  P   UNL d   1       4.894  31.655 -16.926 -0.04 +0.34    +0.473    34.891
ATOM     23  O   UNL d   1       4.856  32.537 -18.128 -0.01 -0.07    -0.228    34.891
ATOM     24  O   UNL d   1       5.861  30.397 -17.053 -0.08 -0.22    -0.303    34.891
ATOM     25  H   UNL d   1       6.739  30.643 -16.665 +0.02 +0.17    +0.222    34.891
ATOM     26  O   UNL d   1       3.505  30.965 -16.516 -0.12 -0.23    -0.303    34.891
ATOM     27  H   UNL d   1       2.791  31.633 -16.557 +0.01 +0.12    +0.222    34.891
ATOM     28  O   UNL d   1       8.802  36.235 -17.259 -0.00 -0.02    -0.278    34.891
ATOM     29  P   UNL d   1       9.276  36.932 -18.610 +0.00 +0.03    +0.473    34.891
ATOM     30  O   UNL d   1       8.592  36.467 -19.844 +0.00 -0.01    -0.228    34.891
ATOM     31  O   UNL d   1       9.088  38.470 -18.212 +0.00 -0.01    -0.303    34.891
ATOM     32  H   UNL d   1       8.129  38.693 -18.262 +0.00 +0.01    +0.222    34.891
ATOM     33  O   UNL d   1      10.855  36.743 -18.548 +0.00 -0.01    -0.303    34.891
ATOM     34  H   UNL d   1      11.108  36.451 -17.638 +0.01 +0.01    +0.222    34.891
ATOM     35  O   UNL d   1       4.767  35.134 -15.263 -0.03 -0.09    -0.278    34.891
ATOM     36  P   UNL d   1       3.203  35.219 -15.562 -0.00 +0.12    +0.473    34.891
ATOM     37  O   UNL d   1       2.371  35.829 -14.479 -0.00 -0.04    -0.228    34.891
ATOM     38  O   UNL d   1       3.177  36.022 -16.937 +0.00 -0.04    -0.303    34.891
ATOM     39  H   UNL d   1       4.035  36.485 -17.055 +0.00 +0.03    +0.222    34.891
ATOM     40  O   UNL d   1       2.856  33.726 -15.985 -0.01 -0.11    -0.303    34.891
ATOM     41  H   UNL d   1       3.617  33.286 -16.425 +0.01 +0.10    +0.222    34.891
ATOM     42  O   UNL d   1       5.950  36.485 -17.558 -0.00 -0.03    -0.278    34.891
ATOM     43  P   UNL d   1       5.961  38.065 -17.335 +0.00 +0.03    +0.473    34.891
ATOM     44  O   UNL d   1       5.975  38.929 -18.549 +0.00 -0.01    -0.228    34.891
ATOM     45  O   UNL d   1       4.703  38.293 -16.388 -0.00 -0.02    -0.303    34.891
ATOM     46  H   UNL d   1       4.446  37.468 -15.929 +0.01 +0.02    +0.222    34.891
ATOM     47  O   UNL d   1       7.179  38.283 -16.317 -0.00 -0.02    -0.303    34.891
ATOM     48  H   UNL d   1       8.006  37.955 -16.727 +0.00 +0.01    +0.222    34.891
TER
ENDMDL
MODEL       92
USER    Run = 92
USER    Cluster Rank = 56
USER    Number of conformations in this cluster = 1
USER  
USER    RMSD from reference structure       = 62.972 A
USER  
USER    Estimated Free Energy of Binding    =   +4.50 kcal/mol  [=(1)+(2)+(3)-(4)]
USER    
USER    (1) Final Intermolecular Energy     =   -2.65 kcal/mol
USER        vdW + Hbond + desolv Energy     =   -2.23 kcal/mol
USER        Electrostatic Energy            =   -0.42 kcal/mol
USER    (2) Final Total Internal Energy     =  -15.05 kcal/mol
USER    (3) Torsional Free Energy           =   +7.16 kcal/mol
USER    (4) Unbound System's Energy  [=(2)] =  -15.05 kcal/mol
USER    
USER    
USER  
USER    DPF = D:/Protein_go_brrr/autodock/final/2DN3/IHP/dock.dpf
USER    NEWDPF move	IHP_ideal_opt.pdbqt
USER    NEWDPF about	0.035000 0.082000 -0.065000
USER    NEWDPF tran0	47.963982 47.064839 3.717669
USER    NEWDPF axisangle0	-0.340947 -0.135383 0.930283 31.549077
USER    NEWDPF quaternion0	-0.092687 -0.036804 0.252900 0.962339
USER    NEWDPF dihe0	-171.29 -9.86 97.35 87.18 -10.18 179.86 -102.51 32.92 -18.08 123.71 73.72 174.88 48.35 -31.52 -161.18 10.92 -31.33 164.99 -2.24 -57.37 -39.33 175.47 150.20 -10.78 
USER  
USER                              x       y       z    vdW   Elec        q     RMS 
ATOM      1  C   UNL d   1      48.634  45.549   4.204 -0.08 -0.14    +0.194    62.972
ATOM      2  C   UNL d   1      47.143  45.533   3.860 -0.22 -0.09    +0.194    62.972
ATOM      3  C   UNL d   1      46.415  46.745   4.444 -0.15 -0.13    +0.194    62.972
ATOM      4  C   UNL d   1      47.076  48.074   4.086 -0.15 -0.10    +0.194    62.972
ATOM      5  C   UNL d   1      48.583  48.096   4.305 -0.09 -0.12    +0.194    62.972
ATOM      6  C   UNL d   1      49.304  46.855   3.775 -0.06 -0.10    +0.194    62.972
ATOM      7  O   UNL d   1      49.268  44.488   3.484 -0.09 +0.07    -0.278    62.972
ATOM      8  P   UNL d   1      50.115  43.413   4.308 -0.12 -0.08    +0.473    62.972
ATOM      9  O   UNL d   1      49.413  42.128   4.576 -0.24 -0.00    -0.228    62.972
ATOM     10  O   UNL d   1      51.449  43.232   3.451 -0.03 +0.02    -0.303    62.972
ATOM     11  H   UNL d   1      51.660  44.068   2.994 +0.03 -0.02    +0.222    62.972
ATOM     12  O   UNL d   1      50.644  44.194   5.586 -0.05 +0.13    -0.303    62.972
ATOM     13  H   UNL d   1      51.146  45.010   5.359 +0.04 -0.11    +0.222    62.972
ATOM     14  O   UNL d   1      46.992  45.552   2.435 -0.06 +0.04    -0.278    62.972
ATOM     15  P   UNL d   1      47.323  44.189   1.662 -0.04 -0.00    +0.473    62.972
ATOM     16  O   UNL d   1      47.215  42.924   2.454 -0.09 -0.02    -0.228    62.972
ATOM     17  O   UNL d   1      46.351  44.214   0.400 -0.02 -0.01    -0.303    62.972
ATOM     18  H   UNL d   1      45.820  45.033   0.381 +0.02 +0.01    +0.222    62.972
ATOM     19  O   UNL d   1      48.736  44.453   0.981 -0.01 +0.00    -0.303    62.972
ATOM     20  H   UNL d   1      49.260  45.107   1.480 +0.03 -0.01    +0.222    62.972
ATOM     21  O   UNL d   1      50.610  46.862   4.347 -0.06 +0.14    -0.278    62.972
ATOM     22  P   UNL d   1      51.860  46.397   3.471 +0.01 -0.09    +0.473    62.972
ATOM     23  O   UNL d   1      52.806  45.407   4.063 -0.02 +0.03    -0.228    62.972
ATOM     24  O   UNL d   1      51.156  45.925   2.124 -0.00 +0.03    -0.303    62.972
ATOM     25  H   UNL d   1      50.742  45.039   2.287 +0.03 -0.02    +0.222    62.972
ATOM     26  O   UNL d   1      52.495  47.803   3.038 +0.00 +0.03    -0.303    62.972
ATOM     27  H   UNL d   1      52.016  48.526   3.491 +0.01 -0.03    +0.222    62.972
ATOM     28  O   UNL d   1      45.123  46.794   3.852 -0.17 +0.09    -0.278    62.972
ATOM     29  P   UNL d   1      44.948  47.265   2.340 -0.04 -0.05    +0.473    62.972
ATOM     30  O   UNL d   1      46.121  47.954   1.744 -0.02 +0.02    -0.228    62.972
ATOM     31  O   UNL d   1      44.499  45.883   1.669 -0.04 -0.00    -0.303    62.972
ATOM     32  H   UNL d   1      45.142  45.183   1.930 +0.05 +0.00    +0.222    62.972
ATOM     33  O   UNL d   1      43.585  48.085   2.401 -0.05 +0.02    -0.303    62.972
ATOM     34  H   UNL d   1      43.791  49.037   2.569 +0.03 -0.02    +0.222    62.972
ATOM     35  O   UNL d   1      49.066  49.212   3.559 -0.02 +0.08    -0.278    62.972
ATOM     36  P   UNL d   1      49.266  49.099   1.981 +0.01 -0.05    +0.473    62.972
ATOM     37  O   UNL d   1      48.642  47.902   1.335 -0.00 +0.02    -0.228    62.972
ATOM     38  O   UNL d   1      48.683  50.493   1.477 +0.00 +0.02    -0.303    62.972
ATOM     39  H   UNL d   1      47.718  50.401   1.325 +0.01 -0.01    +0.222    62.972
ATOM     40  O   UNL d   1      50.840  49.264   1.825 +0.00 +0.02    -0.303    62.972
ATOM     41  H   UNL d   1      51.313  48.418   1.992 +0.00 -0.02    +0.222    62.972
ATOM     42  O   UNL d   1      46.510  49.065   4.951 -0.14 +0.17    -0.278    62.972
ATOM     43  P   UNL d   1      45.775  50.324   4.304 -0.04 -0.14    +0.473    62.972
ATOM     44  O   UNL d   1      45.819  51.607   5.059 -0.09 +0.05    -0.228    62.972
ATOM     45  O   UNL d   1      46.423  50.399   2.853 -0.02 +0.04    -0.303    62.972
ATOM     46  H   UNL d   1      47.075  49.683   2.715 +0.03 -0.04    +0.222    62.972
ATOM     47  O   UNL d   1      44.309  49.764   3.977 +0.08 +0.11    -0.303    62.972
ATOM     48  H   UNL d   1      44.283  48.802   4.160 -0.43 -0.13    +0.222    62.972
TER
ENDMDL
MODEL       46
USER    Run = 46
USER    Cluster Rank = 57
USER    Number of conformations in this cluster = 1
USER  
USER    RMSD from reference structure       = 56.847 A
USER  
USER    Estimated Free Energy of Binding    =   +4.57 kcal/mol  [=(1)+(2)+(3)-(4)]
USER    
USER    (1) Final Intermolecular Energy     =   -2.59 kcal/mol
USER        vdW + Hbond + desolv Energy     =   -2.44 kcal/mol
USER        Electrostatic Energy            =   -0.15 kcal/mol
USER    (2) Final Total Internal Energy     =  -14.86 kcal/mol
USER    (3) Torsional Free Energy           =   +7.16 kcal/mol
USER    (4) Unbound System's Energy  [=(2)] =  -14.86 kcal/mol
USER    
USER    
USER  
USER    DPF = D:/Protein_go_brrr/autodock/final/2DN3/IHP/dock.dpf
USER    NEWDPF move	IHP_ideal_opt.pdbqt
USER    NEWDPF about	0.035000 0.082000 -0.065000
USER    NEWDPF tran0	38.994760 32.474004 32.272530
USER    NEWDPF axisangle0	0.795071 -0.219307 -0.565478 32.105775
USER    NEWDPF quaternion0	0.219857 -0.060644 -0.156369 0.961007
USER    NEWDPF dihe0	91.31 48.91 152.27 -6.88 91.87 92.42 -25.70 20.27 122.87 -27.49 24.16 -97.98 153.62 -177.64 57.57 112.33 -180.00 -86.38 51.03 10.76 -179.80 5.41 11.26 160.06 
USER  
USER                              x       y       z    vdW   Elec        q     RMS 
ATOM      1  C   UNL d   1      40.506  32.408  33.107 -0.03 +0.04    +0.194    56.847
ATOM      2  C   UNL d   1      39.573  31.216  33.333 -0.06 +0.05    +0.194    56.847
ATOM      3  C   UNL d   1      38.125  31.662  33.543 -0.08 +0.06    +0.194    56.847
ATOM      4  C   UNL d   1      37.617  32.593  32.445 -0.11 +0.06    +0.194    56.847
ATOM      5  C   UNL d   1      38.570  33.732  32.107 -0.07 +0.04    +0.194    56.847
ATOM      6  C   UNL d   1      40.028  33.296  31.958 -0.06 +0.04    +0.194    56.847
ATOM      7  O   UNL d   1      41.795  31.904  32.750 -0.02 -0.05    -0.278    56.847
ATOM      8  P   UNL d   1      42.672  31.192  33.880 +0.00 +0.07    +0.473    56.847
ATOM      9  O   UNL d   1      44.142  31.223  33.650 -0.00 -0.03    -0.228    56.847
ATOM     10  O   UNL d   1      42.231  31.922  35.228 -0.00 -0.04    -0.303    56.847
ATOM     11  H   UNL d   1      42.517  32.854  35.204 +0.00 +0.03    +0.222    56.847
ATOM     12  O   UNL d   1      42.027  29.751  34.056 -0.01 -0.05    -0.303    56.847
ATOM     13  H   UNL d   1      41.294  29.576  33.423 +0.04 +0.04    +0.222    56.847
ATOM     14  O   UNL d   1      39.625  30.359  32.185 -0.13 -0.07    -0.278    56.847
ATOM     15  P   UNL d   1      39.565  28.784  32.465 -0.08 +0.13    +0.473    56.847
ATOM     16  O   UNL d   1      40.711  27.966  31.957 -0.18 -0.04    -0.228    56.847
ATOM     17  O   UNL d   1      39.383  28.677  34.044 -0.07 -0.09    -0.303    56.847
ATOM     18  H   UNL d   1      38.593  29.169  34.341 +0.05 +0.09    +0.222    56.847
ATOM     19  O   UNL d   1      38.127  28.344  31.947 -0.20 -0.14    -0.303    56.847
ATOM     20  H   UNL d   1      37.414  28.730  32.490 +0.07 +0.15    +0.222    56.847
ATOM     21  O   UNL d   1      40.819  34.482  31.989 -0.03 -0.06    -0.278    56.847
ATOM     22  P   UNL d   1      41.122  35.194  33.384 -0.00 +0.08    +0.473    56.847
ATOM     23  O   UNL d   1      42.314  34.745  34.160 -0.00 -0.03    -0.228    56.847
ATOM     24  O   UNL d   1      41.136  36.730  32.969 -0.01 -0.06    -0.303    56.847
ATOM     25  H   UNL d   1      40.574  36.836  32.160 +0.03 +0.05    +0.222    56.847
ATOM     26  O   UNL d   1      39.709  35.065  34.130 -0.00 -0.04    -0.303    56.847
ATOM     27  H   UNL d   1      39.115  35.779  33.819 +0.01 +0.03    +0.222    56.847
ATOM     28  O   UNL d   1      37.304  30.503  33.465 -0.12 -0.16    -0.278    56.847
ATOM     29  P   UNL d   1      36.475  30.017  34.735 -0.05 +0.43    +0.473    56.847
ATOM     30  O   UNL d   1      35.140  30.644  34.906 -0.48 -0.34    -0.228    56.847
ATOM     31  O   UNL d   1      36.510  28.434  34.502 -0.31 -0.34    -0.303    56.847
ATOM     32  H   UNL d   1      37.310  28.212  33.971 +0.06 +0.17    +0.222    56.847
ATOM     33  O   UNL d   1      37.523  30.222  35.916 -0.02 -0.13    -0.303    56.847
ATOM     34  H   UNL d   1      37.542  31.178  36.167 +0.02 +0.07    +0.222    56.847
ATOM     35  O   UNL d   1      38.147  34.227  30.838 -0.11 -0.06    -0.278    56.847
ATOM     36  P   UNL d   1      38.183  35.792  30.532 -0.11 +0.13    +0.473    56.847
ATOM     37  O   UNL d   1      36.972  36.343  29.848 -0.28 -0.06    -0.228    56.847
ATOM     38  O   UNL d   1      38.452  36.401  31.978 -0.03 -0.06    -0.303    56.847
ATOM     39  H   UNL d   1      39.241  35.967  32.368 +0.04 +0.04    +0.222    56.847
ATOM     40  O   UNL d   1      39.575  35.960  29.781 -0.14 -0.14    -0.303    56.847
ATOM     41  H   UNL d   1      40.335  35.816  30.387 +0.05 +0.09    +0.222    56.847
ATOM     42  O   UNL d   1      36.407  33.185  32.931 -0.06 -0.08    -0.278    56.847
ATOM     43  P   UNL d   1      36.395  33.828  34.390 +0.00 +0.10    +0.473    56.847
ATOM     44  O   UNL d   1      37.116  33.096  35.469 -0.01 -0.05    -0.228    56.847
ATOM     45  O   UNL d   1      36.939  35.300  34.128 -0.00 -0.04    -0.303    56.847
ATOM     46  H   UNL d   1      37.754  35.290  33.587 +0.03 +0.03    +0.222    56.847
ATOM     47  O   UNL d   1      34.839  34.099  34.659 -0.01 -0.06    -0.303    56.847
ATOM     48  H   UNL d   1      34.411  33.266  34.948 +0.02 +0.07    +0.222    56.847
TER
ENDMDL
MODEL       80
USER    Run = 80
USER    Cluster Rank = 58
USER    Number of conformations in this cluster = 1
USER  
USER    RMSD from reference structure       = 59.223 A
USER  
USER    Estimated Free Energy of Binding    =   +4.63 kcal/mol  [=(1)+(2)+(3)-(4)]
USER    
USER    (1) Final Intermolecular Energy     =   -2.53 kcal/mol
USER        vdW + Hbond + desolv Energy     =   -2.40 kcal/mol
USER        Electrostatic Energy            =   -0.13 kcal/mol
USER    (2) Final Total Internal Energy     =  -14.93 kcal/mol
USER    (3) Torsional Free Energy           =   +7.16 kcal/mol
USER    (4) Unbound System's Energy  [=(2)] =  -14.93 kcal/mol
USER    
USER    
USER  
USER    DPF = D:/Protein_go_brrr/autodock/final/2DN3/IHP/dock.dpf
USER    NEWDPF move	IHP_ideal_opt.pdbqt
USER    NEWDPF about	0.035000 0.082000 -0.065000
USER    NEWDPF tran0	48.741127 40.930140 1.550426
USER    NEWDPF axisangle0	0.116031 -0.656345 -0.745485 -117.241475
USER    NEWDPF quaternion0	0.099060 -0.560348 -0.636450 -0.520701
USER    NEWDPF dihe0	-168.08 72.38 53.71 101.05 -7.51 -177.85 -106.60 34.20 109.29 6.68 128.90 112.97 -48.01 -16.49 -169.57 28.36 52.72 67.57 11.41 -22.77 -42.02 170.29 -8.95 -18.25 
USER  
USER                              x       y       z    vdW   Elec        q     RMS 
ATOM      1  C   UNL d   1      47.141  40.292   1.677 -0.07 +0.04    +0.194    59.223
ATOM      2  C   UNL d   1      47.506  40.896   0.320 -0.04 +0.02    +0.194    59.223
ATOM      3  C   UNL d   1      48.269  42.213   0.473 -0.03 +0.01    +0.194    59.223
ATOM      4  C   UNL d   1      49.477  42.104   1.400 -0.03 +0.01    +0.194    59.223
ATOM      5  C   UNL d   1      49.185  41.404   2.721 -0.10 +0.02    +0.194    59.223
ATOM      6  C   UNL d   1      48.368  40.119   2.573 -0.10 +0.04    +0.194    59.223
ATOM      7  O   UNL d   1      46.590  38.992   1.454 -0.08 -0.07    -0.278    59.223
ATOM      8  P   UNL d   1      45.035  38.766   1.745 -0.12 +0.13    +0.473    59.223
ATOM      9  O   UNL d   1      44.286  39.986   2.151 -0.12 -0.06    -0.228    59.223
ATOM     10  O   UNL d   1      44.482  38.107   0.401 -0.07 -0.06    -0.303    59.223
ATOM     11  H   UNL d   1      45.170  37.536   0.010 +0.06 +0.04    +0.222    59.223
ATOM     12  O   UNL d   1      44.979  37.546   2.761 -0.42 -0.18    -0.303    59.223
ATOM     13  H   UNL d   1      45.790  37.465   3.312 +0.14 +0.15    +0.222    59.223
ATOM     14  O   UNL d   1      48.333  39.970  -0.396 -0.01 -0.03    -0.278    59.223
ATOM     15  P   UNL d   1      47.665  39.239  -1.655 +0.00 +0.05    +0.473    59.223
ATOM     16  O   UNL d   1      46.762  40.070  -2.512 -0.00 -0.02    -0.228    59.223
ATOM     17  O   UNL d   1      48.904  38.644  -2.460 -0.00 -0.03    -0.303    59.223
ATOM     18  H   UNL d   1      49.640  39.284  -2.496 +0.00 +0.02    +0.222    59.223
ATOM     19  O   UNL d   1      47.014  37.921  -1.049 -0.01 -0.04    -0.303    59.223
ATOM     20  H   UNL d   1      46.577  38.094  -0.195 +0.04 +0.04    +0.222    59.223
ATOM     21  O   UNL d   1      47.892  39.781   3.874 -0.04 -0.08    -0.278    59.223
ATOM     22  P   UNL d   1      47.779  38.248   4.302 -0.19 +0.26    +0.473    59.223
ATOM     23  O   UNL d   1      46.585  37.823   5.088 -0.50 -0.14    -0.228    59.223
ATOM     24  O   UNL d   1      47.959  37.506   2.906 -0.11 -0.16    -0.303    59.223
ATOM     25  H   UNL d   1      47.126  37.626   2.383 +0.09 +0.09    +0.222    59.223
ATOM     26  O   UNL d   1      49.203  37.998   4.996 -0.29 -0.23    -0.303    59.223
ATOM     27  H   UNL d   1      49.674  38.852   5.081 +0.09 +0.09    +0.222    59.223
ATOM     28  O   UNL d   1      48.801  42.550  -0.802 -0.00 -0.02    -0.278    59.223
ATOM     29  P   UNL d   1      50.122  41.839  -1.336 -0.00 +0.03    +0.473    59.223
ATOM     30  O   UNL d   1      50.693  40.796  -0.446 -0.00 -0.02    -0.228    59.223
ATOM     31  O   UNL d   1      49.621  41.367  -2.781 -0.00 -0.02    -0.303    59.223
ATOM     32  H   UNL d   1      48.806  40.826  -2.669 +0.00 +0.02    +0.222    59.223
ATOM     33  O   UNL d   1      51.056  43.083  -1.677 -0.00 -0.01    -0.303    59.223
ATOM     34  H   UNL d   1      51.624  43.283  -0.893 +0.00 +0.01    +0.222    59.223
ATOM     35  O   UNL d   1      50.455  41.036   3.253 -0.05 -0.02    -0.278    59.223
ATOM     36  P   UNL d   1      50.911  41.564   4.688 -0.11 +0.00    +0.473    59.223
ATOM     37  O   UNL d   1      50.687  40.619   5.824 -0.27 -0.02    -0.228    59.223
ATOM     38  O   UNL d   1      52.440  41.929   4.431 -0.04 +0.01    -0.303    59.223
ATOM     39  H   UNL d   1      52.527  42.338   3.543 +0.03 -0.00    +0.222    59.223
ATOM     40  O   UNL d   1      50.190  42.979   4.773 -0.16 +0.04    -0.303    59.223
ATOM     41  H   UNL d   1      50.150  43.422   3.896 +0.06 -0.03    +0.222    59.223
ATOM     42  O   UNL d   1      49.882  43.442   1.712 -0.01 +0.00    -0.278    59.223
ATOM     43  P   UNL d   1      51.413  43.847   1.528 +0.01 -0.01    +0.473    59.223
ATOM     44  O   UNL d   1      51.737  44.843   0.468 -0.00 +0.00    -0.228    59.223
ATOM     45  O   UNL d   1      51.834  44.298   2.994 -0.01 +0.03    -0.303    59.223
ATOM     46  H   UNL d   1      51.663  43.592   3.649 +0.04 -0.02    +0.222    59.223
ATOM     47  O   UNL d   1      52.154  42.432   1.397 -0.00 -0.01    -0.303    59.223
ATOM     48  H   UNL d   1      52.108  41.963   2.256 +0.02 +0.01    +0.222    59.223
TER
ENDMDL
MODEL       84
USER    Run = 84
USER    Cluster Rank = 59
USER    Number of conformations in this cluster = 1
USER  
USER    RMSD from reference structure       = 30.214 A
USER  
USER    Estimated Free Energy of Binding    =   +4.63 kcal/mol  [=(1)+(2)+(3)-(4)]
USER    
USER    (1) Final Intermolecular Energy     =   -2.53 kcal/mol
USER        vdW + Hbond + desolv Energy     =   -2.51 kcal/mol
USER        Electrostatic Energy            =   -0.01 kcal/mol
USER    (2) Final Total Internal Energy     =  -14.64 kcal/mol
USER    (3) Torsional Free Energy           =   +7.16 kcal/mol
USER    (4) Unbound System's Energy  [=(2)] =  -14.64 kcal/mol
USER    
USER    
USER  
USER    DPF = D:/Protein_go_brrr/autodock/final/2DN3/IHP/dock.dpf
USER    NEWDPF move	IHP_ideal_opt.pdbqt
USER    NEWDPF about	0.035000 0.082000 -0.065000
USER    NEWDPF tran0	14.570443 26.242525 -15.189830
USER    NEWDPF axisangle0	0.131898 0.834798 0.534523 124.060180
USER    NEWDPF quaternion0	0.116492 0.737289 0.472088 0.469008
USER    NEWDPF dihe0	50.80 7.87 40.84 -2.96 150.36 117.73 46.21 -71.48 40.12 103.05 154.61 125.93 -53.14 -179.79 -159.94 -65.78 -23.00 -172.77 56.41 -11.33 20.99 -19.04 -37.09 27.25 
USER  
USER                              x       y       z    vdW   Elec        q     RMS 
ATOM      1  C   UNL d   1      12.897  26.072 -14.797 -0.10 -0.06    +0.194    30.214
ATOM      2  C   UNL d   1      13.282  25.689 -16.227 -0.01 -0.03    +0.194    30.214
ATOM      3  C   UNL d   1      14.256  26.698 -16.841 -0.01 -0.02    +0.194    30.214
ATOM      4  C   UNL d   1      15.478  26.963 -15.965 -0.03 -0.02    +0.194    30.214
ATOM      5  C   UNL d   1      15.147  27.237 -14.503 -0.09 -0.04    +0.194    30.214
ATOM      6  C   UNL d   1      14.126  26.265 -13.907 -0.13 -0.07    +0.194    30.214
ATOM      7  O   UNL d   1      12.131  25.001 -14.240 -0.10 +0.15    -0.278    30.214
ATOM      8  P   UNL d   1      10.696  24.687 -14.867 -0.05 -0.15    +0.473    30.214
ATOM      9  O   UNL d   1      10.281  25.590 -15.975 -0.03 +0.03    -0.228    30.214
ATOM     10  O   UNL d   1      10.793  23.156 -15.307 -0.01 +0.06    -0.303    30.214
ATOM     11  H   UNL d   1      10.851  23.099 -16.279 +0.01 -0.02    +0.222    30.214
ATOM     12  O   UNL d   1       9.709  24.614 -13.625 -0.05 +0.21    -0.303    30.214
ATOM     13  H   UNL d   1      10.116  24.196 -12.833 +0.10 -0.32    +0.222    30.214
ATOM     14  O   UNL d   1      13.909  24.400 -16.213 -0.00 +0.04    -0.278    30.214
ATOM     15  P   UNL d   1      13.202  23.251 -17.075 +0.01 -0.04    +0.473    30.214
ATOM     16  O   UNL d   1      12.832  21.996 -16.348 +0.00 +0.02    -0.228    30.214
ATOM     17  O   UNL d   1      11.945  23.977 -17.731 +0.00 +0.02    -0.303    30.214
ATOM     18  H   UNL d   1      11.386  24.398 -17.050 +0.01 -0.02    +0.222    30.214
ATOM     19  O   UNL d   1      14.153  23.059 -18.335 +0.00 +0.01    -0.303    30.214
ATOM     20  H   UNL d   1      14.204  23.869 -18.876 +0.00 -0.01    +0.222    30.214
ATOM     21  O   UNL d   1      13.671  26.842 -12.686 -0.30 +0.16    -0.278    30.214
ATOM     22  P   UNL d   1      14.547  26.686 -11.362 -0.21 -0.27    +0.473    30.214
ATOM     23  O   UNL d   1      13.873  26.201 -10.123 -0.41 +0.18    -0.228    30.214
ATOM     24  O   UNL d   1      15.746  25.772 -11.871 -0.14 +0.11    -0.303    30.214
ATOM     25  H   UNL d   1      16.427  26.359 -12.287 +0.09 -0.05    +0.222    30.214
ATOM     26  O   UNL d   1      15.247  28.125 -11.263 -0.83 +0.08    -0.303    30.214
ATOM     27  H   UNL d   1      15.737  28.302 -12.092 +0.09 -0.02    +0.222    30.214
ATOM     28  O   UNL d   1      14.767  26.126 -18.038 +0.00 +0.01    -0.278    30.214
ATOM     29  P   UNL d   1      14.045  26.398 -19.431 +0.00 -0.01    +0.473    30.214
ATOM     30  O   UNL d   1      13.013  25.404 -19.823 +0.00 +0.00    -0.228    30.214
ATOM     31  O   UNL d   1      13.554  27.903 -19.202 +0.00 +0.00    -0.303    30.214
ATOM     32  H   UNL d   1      14.202  28.513 -19.624 +0.01 -0.00    +0.222    30.214
ATOM     33  O   UNL d   1      15.282  26.578 -20.418 +0.00 +0.00    -0.303    30.214
ATOM     34  H   UNL d   1      16.108  26.674 -19.884 +0.00 -0.00    +0.222    30.214
ATOM     35  O   UNL d   1      16.367  27.053 -13.789 -0.06 +0.05    -0.278    30.214
ATOM     36  P   UNL d   1      17.321  28.297 -13.493 -0.07 -0.06    +0.473    30.214
ATOM     37  O   UNL d   1      16.663  29.640 -13.543 -0.16 +0.03    -0.228    30.214
ATOM     38  O   UNL d   1      17.922  27.916 -12.069 -0.11 +0.05    -0.303    30.214
ATOM     39  H   UNL d   1      17.265  27.378 -11.576 +0.09 -0.05    +0.222    30.214
ATOM     40  O   UNL d   1      18.528  28.047 -14.498 -0.01 +0.03    -0.303    30.214
ATOM     41  H   UNL d   1      18.229  28.051 -15.434 +0.02 -0.01    +0.222    30.214
ATOM     42  O   UNL d   1      16.110  28.140 -16.480 -0.02 +0.02    -0.278    30.214
ATOM     43  P   UNL d   1      17.120  27.998 -17.706 +0.01 -0.02    +0.473    30.214
ATOM     44  O   UNL d   1      18.478  28.589 -17.549 -0.00 +0.01    -0.228    30.214
ATOM     45  O   UNL d   1      17.121  26.430 -17.979 +0.00 +0.01    -0.303    30.214
ATOM     46  H   UNL d   1      16.349  26.160 -18.516 +0.00 -0.01    +0.222    30.214
ATOM     47  O   UNL d   1      16.267  28.544 -18.949 +0.00 +0.01    -0.303    30.214
ATOM     48  H   UNL d   1      15.427  28.044 -19.008 +0.01 -0.00    +0.222    30.214
TER
ENDMDL
MODEL       48
USER    Run = 48
USER    Cluster Rank = 60
USER    Number of conformations in this cluster = 1
USER  
USER    RMSD from reference structure       = 48.772 A
USER  
USER    Estimated Free Energy of Binding    =   +4.67 kcal/mol  [=(1)+(2)+(3)-(4)]
USER    
USER    (1) Final Intermolecular Energy     =   -2.49 kcal/mol
USER        vdW + Hbond + desolv Energy     =   -2.41 kcal/mol
USER        Electrostatic Energy            =   -0.08 kcal/mol
USER    (2) Final Total Internal Energy     =  -14.43 kcal/mol
USER    (3) Torsional Free Energy           =   +7.16 kcal/mol
USER    (4) Unbound System's Energy  [=(2)] =  -14.43 kcal/mol
USER    
USER    
USER  
USER    DPF = D:/Protein_go_brrr/autodock/final/2DN3/IHP/dock.dpf
USER    NEWDPF move	IHP_ideal_opt.pdbqt
USER    NEWDPF about	0.035000 0.082000 -0.065000
USER    NEWDPF tran0	0.979328 51.924833 7.454061
USER    NEWDPF axisangle0	-0.083453 -0.094809 0.991991 -130.611743
USER    NEWDPF quaternion0	-0.075822 -0.086139 0.901275 -0.417774
USER    NEWDPF dihe0	-92.85 13.84 158.36 180.00 -11.07 -150.01 -89.78 -7.62 19.89 87.41 134.27 113.62 32.92 -127.94 -0.28 -1.50 -62.42 75.62 4.99 -1.17 -21.87 17.99 1.27 -34.25 
USER  
USER                              x       y       z    vdW   Elec        q     RMS 
ATOM      1  C   UNL d   1       0.670  53.377   8.337 -0.01 +0.02    +0.194    48.772
ATOM      2  C   UNL d   1       2.140  52.966   8.235 -0.05 +0.02    +0.194    48.772
ATOM      3  C   UNL d   1       2.325  51.464   8.457 -0.09 +0.04    +0.194    48.772
ATOM      4  C   UNL d   1       1.424  50.609   7.570 -0.08 +0.04    +0.194    48.772
ATOM      5  C   UNL d   1      -0.033  51.055   7.552 -0.04 +0.03    +0.194    48.772
ATOM      6  C   UNL d   1      -0.216  52.565   7.392 -0.02 +0.02    +0.194    48.772
ATOM      7  O   UNL d   1       0.562  54.749   7.950 -0.00 -0.02    -0.278    48.772
ATOM      8  P   UNL d   1       0.044  55.804   9.031 +0.00 +0.02    +0.473    48.772
ATOM      9  O   UNL d   1       1.091  56.340   9.943 -0.00 -0.01    -0.228    48.772
ATOM     10  O   UNL d   1      -0.666  56.935   8.157 -0.00 -0.01    -0.303    48.772
ATOM     11  H   UNL d   1      -1.632  56.892   8.289 +0.00 +0.01    +0.222    48.772
ATOM     12  O   UNL d   1      -1.195  55.101   9.734 -0.00 -0.01    -0.303    48.772
ATOM     13  H   UNL d   1      -1.687  54.496   9.133 +0.00 +0.01    +0.222    48.772
ATOM     14  O   UNL d   1       2.627  53.298   6.928 -0.08 -0.03    -0.278    48.772
ATOM     15  P   UNL d   1       4.006  54.110   6.864 -0.06 +0.02    +0.473    48.772
ATOM     16  O   UNL d   1       3.959  55.547   7.277 -0.03 -0.00    -0.228    48.772
ATOM     17  O   UNL d   1       5.008  53.244   7.750 -0.14 +0.02    -0.303    48.772
ATOM     18  H   UNL d   1       5.140  52.356   7.366 -0.05 -0.02    +0.222    48.772
ATOM     19  O   UNL d   1       4.559  53.836   5.397 -0.03 -0.02    -0.303    48.772
ATOM     20  H   UNL d   1       4.667  54.663   4.892 +0.04 +0.01    +0.222    48.772
ATOM     21  O   UNL d   1      -1.569  52.855   7.735 -0.00 -0.02    -0.278    48.772
ATOM     22  P   UNL d   1      -2.505  53.617   6.692 +0.00 +0.03    +0.473    48.772
ATOM     23  O   UNL d   1      -2.242  53.424   5.237 -0.00 -0.02    -0.228    48.772
ATOM     24  O   UNL d   1      -3.956  53.174   7.172 +0.00 -0.02    -0.303    48.772
ATOM     25  H   UNL d   1      -4.117  52.249   6.856 +0.00 +0.02    +0.222    48.772
ATOM     26  O   UNL d   1      -2.426  55.127   7.227 -0.00 -0.02    -0.303    48.772
ATOM     27  H   UNL d   1      -1.525  55.301   7.567 +0.00 +0.01    +0.222    48.772
ATOM     28  O   UNL d   1       3.654  51.134   8.073 -0.16 -0.05    -0.278    48.772
ATOM     29  P   UNL d   1       4.598  50.317   9.062 -0.19 +0.13    +0.473    48.772
ATOM     30  O   UNL d   1       4.305  50.480  10.509 -0.10 -0.11    -0.228    48.772
ATOM     31  O   UNL d   1       4.438  48.847   8.449 -0.25 -0.13    -0.303    48.772
ATOM     32  H   UNL d   1       3.503  48.726   8.165 +0.08 +0.10    +0.222    48.772
ATOM     33  O   UNL d   1       6.050  50.747   8.568 -0.24 +0.02    -0.303    48.772
ATOM     34  H   UNL d   1       6.097  51.734   8.530 -0.23 -0.05    +0.222    48.772
ATOM     35  O   UNL d   1      -0.613  50.437   6.405 -0.03 -0.04    -0.278    48.772
ATOM     36  P   UNL d   1      -2.004  49.665   6.524 -0.00 +0.07    +0.473    48.772
ATOM     37  O   UNL d   1      -2.412  49.280   7.911 -0.00 -0.03    -0.228    48.772
ATOM     38  O   UNL d   1      -3.001  50.679   5.806 -0.00 -0.03    -0.303    48.772
ATOM     39  H   UNL d   1      -2.875  51.576   6.185 +0.00 +0.02    +0.222    48.772
ATOM     40  O   UNL d   1      -1.831  48.488   5.469 -0.01 -0.05    -0.303    48.772
ATOM     41  H   UNL d   1      -0.955  48.048   5.555 +0.03 +0.04    +0.222    48.772
ATOM     42  O   UNL d   1       1.452  49.282   8.107 -0.09 -0.09    -0.278    48.772
ATOM     43  P   UNL d   1       1.372  48.043   7.106 -0.12 +0.14    +0.473    48.772
ATOM     44  O   UNL d   1       2.498  47.068   7.128 -0.36 -0.07    -0.228    48.772
ATOM     45  O   UNL d   1      -0.047  47.408   7.449 -0.04 -0.08    -0.303    48.772
ATOM     46  H   UNL d   1      -0.773  48.041   7.279 +0.03 +0.05    +0.222    48.772
ATOM     47  O   UNL d   1       1.085  48.735   5.689 -0.13 -0.07    -0.303    48.772
ATOM     48  H   UNL d   1       0.190  49.134   5.700 +0.05 +0.05    +0.222    48.772
TER
ENDMDL
MODEL        5
USER    Run = 5
USER    Cluster Rank = 61
USER    Number of conformations in this cluster = 1
USER  
USER    RMSD from reference structure       = 57.077 A
USER  
USER    Estimated Free Energy of Binding    =   +4.68 kcal/mol  [=(1)+(2)+(3)-(4)]
USER    
USER    (1) Final Intermolecular Energy     =   -2.48 kcal/mol
USER        vdW + Hbond + desolv Energy     =   -2.27 kcal/mol
USER        Electrostatic Energy            =   -0.21 kcal/mol
USER    (2) Final Total Internal Energy     =  -15.37 kcal/mol
USER    (3) Torsional Free Energy           =   +7.16 kcal/mol
USER    (4) Unbound System's Energy  [=(2)] =  -15.37 kcal/mol
USER    
USER    
USER  
USER    DPF = D:/Protein_go_brrr/autodock/final/2DN3/IHP/dock.dpf
USER    NEWDPF move	IHP_ideal_opt.pdbqt
USER    NEWDPF about	0.035000 0.082000 -0.065000
USER    NEWDPF tran0	50.043826 29.354090 17.739266
USER    NEWDPF axisangle0	-0.571097 -0.302890 -0.762958 107.833387
USER    NEWDPF quaternion0	-0.461539 -0.244784 -0.616594 0.588961
USER    NEWDPF dihe0	118.53 83.89 163.18 12.77 14.89 -140.77 -24.78 100.03 92.93 115.05 127.01 100.88 -31.36 74.14 -42.97 164.54 48.02 87.13 26.62 -34.30 159.29 -33.99 17.54 -44.64 
USER  
USER                              x       y       z    vdW   Elec        q     RMS 
ATOM      1  C   UNL d   1      51.317  30.522  17.700 -0.04 +0.04    +0.194    57.077
ATOM      2  C   UNL d   1      51.253  29.572  16.502 -0.09 +0.05    +0.194    57.077
ATOM      3  C   UNL d   1      50.985  28.130  16.936 -0.09 +0.06    +0.194    57.077
ATOM      4  C   UNL d   1      49.767  27.992  17.847 -0.09 +0.07    +0.194    57.077
ATOM      5  C   UNL d   1      49.732  28.997  18.991 -0.04 +0.07    +0.194    57.077
ATOM      6  C   UNL d   1      50.060  30.430  18.567 -0.04 +0.05    +0.194    57.077
ATOM      7  O   UNL d   1      51.395  31.860  17.204 -0.02 -0.05    -0.278    57.077
ATOM      8  P   UNL d   1      52.837  32.536  17.070 -0.01 +0.07    +0.473    57.077
ATOM      9  O   UNL d   1      53.979  31.583  17.022 -0.01 -0.03    -0.228    57.077
ATOM     10  O   UNL d   1      52.719  33.442  15.762 -0.04 -0.04    -0.303    57.077
ATOM     11  H   UNL d   1      52.200  32.970  15.083 +0.04 +0.03    +0.222    57.077
ATOM     12  O   UNL d   1      52.890  33.626  18.225 -0.00 -0.04    -0.303    57.077
ATOM     13  H   UNL d   1      52.464  33.325  19.059 +0.00 +0.03    +0.222    57.077
ATOM     14  O   UNL d   1      50.195  29.991  15.630 -0.15 -0.07    -0.278    57.077
ATOM     15  P   UNL d   1      50.616  30.893  14.376 -0.19 +0.07    +0.473    57.077
ATOM     16  O   UNL d   1      50.109  30.460  13.036 -0.31 -0.01    -0.228    57.077
ATOM     17  O   UNL d   1      50.136  32.359  14.774 -0.15 -0.05    -0.303    57.077
ATOM     18  H   UNL d   1      50.656  32.707  15.524 +0.06 +0.04    +0.222    57.077
ATOM     19  O   UNL d   1      52.196  31.030  14.498 -0.07 -0.04    -0.303    57.077
ATOM     20  H   UNL d   1      52.469  31.261  15.406 +0.04 +0.03    +0.222    57.077
ATOM     21  O   UNL d   1      50.323  31.163  19.761 -0.01 -0.08    -0.278    57.077
ATOM     22  P   UNL d   1      51.464  30.668  20.760 +0.01 +0.12    +0.473    57.077
ATOM     23  O   UNL d   1      52.027  29.301  20.565 +0.00 -0.06    -0.228    57.077
ATOM     24  O   UNL d   1      52.527  31.848  20.650 +0.00 -0.05    -0.303    57.077
ATOM     25  H   UNL d   1      52.715  32.005  19.689 +0.00 +0.04    +0.222    57.077
ATOM     26  O   UNL d   1      50.796  30.957  22.188 -0.00 -0.10    -0.303    57.077
ATOM     27  H   UNL d   1      49.868  30.644  22.178 +0.01 +0.10    +0.222    57.077
ATOM     28  O   UNL d   1      50.668  27.383  15.768 +0.02 -0.11    -0.278    57.077
ATOM     29  P   UNL d   1      51.821  26.931  14.765 -0.03 +0.17    +0.473    57.077
ATOM     30  O   UNL d   1      51.700  25.550  14.231 -0.16 -0.12    -0.228    57.077
ATOM     31  O   UNL d   1      51.753  28.129  13.705 -0.11 -0.08    -0.303    57.077
ATOM     32  H   UNL d   1      51.404  28.930  14.159 +0.07 +0.05    +0.222    57.077
ATOM     33  O   UNL d   1      53.137  27.270  15.595 -0.03 -0.08    -0.303    57.077
ATOM     34  H   UNL d   1      53.889  26.739  15.234 +0.02 +0.06    +0.222    57.077
ATOM     35  O   UNL d   1      48.386  28.997  19.464 -0.04 -0.14    -0.278    57.077
ATOM     36  P   UNL d   1      48.075  29.270  21.004 -0.04 +0.41    +0.473    57.077
ATOM     37  O   UNL d   1      47.806  30.696  21.366 -0.17 -0.19    -0.228    57.077
ATOM     38  O   UNL d   1      46.851  28.285  21.269 -0.49 -0.46    -0.303    57.077
ATOM     39  H   UNL d   1      46.868  27.566  20.601 +0.05 +0.21    +0.222    57.077
ATOM     40  O   UNL d   1      49.300  28.560  21.729 -0.03 -0.19    -0.303    57.077
ATOM     41  H   UNL d   1      50.132  29.073  21.623 +0.01 +0.10    +0.222    57.077
ATOM     42  O   UNL d   1      49.834  26.688  18.434 -0.05 -0.12    -0.278    57.077
ATOM     43  P   UNL d   1      48.488  26.004  18.948 -0.04 +0.26    +0.473    57.077
ATOM     44  O   UNL d   1      48.245  24.587  18.557 -0.08 -0.16    -0.228    57.077
ATOM     45  O   UNL d   1      48.552  26.244  20.519 -0.00 -0.17    -0.303    57.077
ATOM     46  H   UNL d   1      48.679  27.190  20.732 +0.02 +0.13    +0.222    57.077
ATOM     47  O   UNL d   1      47.354  27.047  18.505 -0.07 -0.16    -0.303    57.077
ATOM     48  H   UNL d   1      47.323  27.783  19.151 +0.05 +0.12    +0.222    57.077
TER
ENDMDL
MODEL       10
USER    Run = 10
USER    Cluster Rank = 62
USER    Number of conformations in this cluster = 1
USER  
USER    RMSD from reference structure       = 20.141 A
USER  
USER    Estimated Free Energy of Binding    =   +4.70 kcal/mol  [=(1)+(2)+(3)-(4)]
USER    
USER    (1) Final Intermolecular Energy     =   -2.46 kcal/mol
USER        vdW + Hbond + desolv Energy     =   -1.82 kcal/mol
USER        Electrostatic Energy            =   -0.64 kcal/mol
USER    (2) Final Total Internal Energy     =  -13.32 kcal/mol
USER    (3) Torsional Free Energy           =   +7.16 kcal/mol
USER    (4) Unbound System's Energy  [=(2)] =  -13.32 kcal/mol
USER    
USER    
USER  
USER    DPF = D:/Protein_go_brrr/autodock/final/2DN3/IHP/dock.dpf
USER    NEWDPF move	IHP_ideal_opt.pdbqt
USER    NEWDPF about	0.035000 0.082000 -0.065000
USER    NEWDPF tran0	3.898232 18.732314 -13.420912
USER    NEWDPF axisangle0	-0.818968 -0.108781 -0.563434 156.104835
USER    NEWDPF quaternion0	-0.801227 -0.106425 -0.551229 0.207017
USER    NEWDPF dihe0	164.28 75.83 104.36 -180.00 -50.17 77.92 -92.00 12.23 20.22 85.98 127.99 -178.32 -66.77 -133.62 -155.38 153.96 -3.36 137.28 14.10 -4.79 -52.82 26.92 157.15 -16.05 
USER  
USER                              x       y       z    vdW   Elec        q     RMS 
ATOM      1  C   UNL d   1       5.146  19.854 -13.011 -0.00 +0.00    +0.194    20.141
ATOM      2  C   UNL d   1       4.389  20.152 -14.306 +0.01 -0.00    +0.194    20.141
ATOM      3  C   UNL d   1       4.163  18.886 -15.135 +0.01 +0.00    +0.194    20.141
ATOM      4  C   UNL d   1       3.521  17.753 -14.338 +0.01 +0.00    +0.194    20.141
ATOM      5  C   UNL d   1       4.174  17.497 -12.986 +0.01 +0.00    +0.194    20.141
ATOM      6  C   UNL d   1       4.456  18.769 -12.184 +0.00 -0.00    +0.194    20.141
ATOM      7  O   UNL d   1       5.164  21.045 -12.220 -0.04 +0.03    -0.278    20.141
ATOM      8  P   UNL d   1       6.545  21.834 -12.067 -0.07 +0.07    +0.473    20.141
ATOM      9  O   UNL d   1       7.756  21.070 -12.471 -0.19 -0.15    -0.228    20.141
ATOM     10  O   UNL d   1       6.327  23.164 -12.921 -0.05 +0.05    -0.303    20.141
ATOM     11  H   UNL d   1       5.402  23.209 -13.225 +0.04 -0.03    +0.222    20.141
ATOM     12  O   UNL d   1       6.540  22.390 -10.579 -0.33 +0.01    -0.303    20.141
ATOM     13  H   UNL d   1       6.046  21.813  -9.953 -0.49 -0.20    +0.222    20.141
ATOM     14  O   UNL d   1       3.113  20.719 -13.981 +0.00 +0.01    -0.278    20.141
ATOM     15  P   UNL d   1       2.750  22.113 -14.681 +0.01 -0.01    +0.473    20.141
ATOM     16  O   UNL d   1       3.382  23.340 -14.103 +0.00 +0.01    -0.228    20.141
ATOM     17  O   UNL d   1       3.128  21.887 -16.213 +0.00 -0.00    -0.303    20.141
ATOM     18  H   UNL d   1       3.350  20.952 -16.386 +0.00 +0.00    +0.222    20.141
ATOM     19  O   UNL d   1       1.161  22.124 -14.743 +0.00 +0.00    -0.303    20.141
ATOM     20  H   UNL d   1       0.786  22.882 -14.257 +0.00 -0.00    +0.222    20.141
ATOM     21  O   UNL d   1       5.354  18.405 -11.138 -0.01 -0.03    -0.278    20.141
ATOM     22  P   UNL d   1       5.404  19.273  -9.800 -0.05 -0.01    +0.473    20.141
ATOM     23  O   UNL d   1       6.721  19.823  -9.365 -0.29 -0.24    -0.228    20.141
ATOM     24  O   UNL d   1       4.283  20.368 -10.080 -0.00 +0.22    -0.303    20.141
ATOM     25  H   UNL d   1       4.721  21.256 -10.111 -0.43 -0.33    +0.222    20.141
ATOM     26  O   UNL d   1       4.668  18.305  -8.756 -0.02 +0.02    -0.303    20.141
ATOM     27  H   UNL d   1       3.724  18.559  -8.691 +0.02 -0.04    +0.222    20.141
ATOM     28  O   UNL d   1       3.229  19.205 -16.158 +0.00 -0.00    -0.278    20.141
ATOM     29  P   UNL d   1       3.451  18.676 -17.644 +0.00 +0.01    +0.473    20.141
ATOM     30  O   UNL d   1       2.297  17.965 -18.250 +0.00 -0.00    -0.228    20.141
ATOM     31  O   UNL d   1       3.925  20.030 -18.354 +0.00 -0.01    -0.303    20.141
ATOM     32  H   UNL d   1       3.380  20.773 -18.008 +0.00 +0.00    +0.222    20.141
ATOM     33  O   UNL d   1       4.810  17.857 -17.506 +0.00 -0.00    -0.303    20.141
ATOM     34  H   UNL d   1       4.635  17.028 -16.996 +0.00 +0.00    +0.222    20.141
ATOM     35  O   UNL d   1       3.231  16.730 -12.240 +0.00 -0.00    -0.278    20.141
ATOM     36  P   UNL d   1       1.903  17.413 -11.678 +0.01 -0.01    +0.473    20.141
ATOM     37  O   UNL d   1       1.227  18.370 -12.608 +0.00 +0.01    -0.228    20.141
ATOM     38  O   UNL d   1       1.022  16.144 -11.291 +0.00 +0.00    -0.303    20.141
ATOM     39  H   UNL d   1       1.005  15.522 -12.050 +0.00 +0.00    +0.222    20.141
ATOM     40  O   UNL d   1       2.384  17.988 -10.275 +0.00 +0.03    -0.303    20.141
ATOM     41  H   UNL d   1       3.257  18.434 -10.344 +0.01 -0.03    +0.222    20.141
ATOM     42  O   UNL d   1       3.677  16.560 -15.114 +0.00 -0.00    -0.278    20.141
ATOM     43  P   UNL d   1       2.390  15.675 -15.437 +0.00 +0.01    +0.473    20.141
ATOM     44  O   UNL d   1       2.600  14.406 -16.187 +0.00 -0.00    -0.228    20.141
ATOM     45  O   UNL d   1       1.731  15.481 -14.001 +0.00 -0.00    -0.303    20.141
ATOM     46  H   UNL d   1       1.566  16.340 -13.564 +0.00 +0.00    +0.222    20.141
ATOM     47  O   UNL d   1       1.386  16.723 -16.117 +0.00 -0.00    -0.303    20.141
ATOM     48  H   UNL d   1       1.818  17.601 -16.163 +0.00 +0.00    +0.222    20.141
TER
ENDMDL
MODEL        8
USER    Run = 8
USER    Cluster Rank = 63
USER    Number of conformations in this cluster = 1
USER  
USER    RMSD from reference structure       = 44.401 A
USER  
USER    Estimated Free Energy of Binding    =   +4.76 kcal/mol  [=(1)+(2)+(3)-(4)]
USER    
USER    (1) Final Intermolecular Energy     =   -2.40 kcal/mol
USER        vdW + Hbond + desolv Energy     =   -2.53 kcal/mol
USER        Electrostatic Energy            =   +0.13 kcal/mol
USER    (2) Final Total Internal Energy     =  -13.19 kcal/mol
USER    (3) Torsional Free Energy           =   +7.16 kcal/mol
USER    (4) Unbound System's Energy  [=(2)] =  -13.19 kcal/mol
USER    
USER    
USER  
USER    DPF = D:/Protein_go_brrr/autodock/final/2DN3/IHP/dock.dpf
USER    NEWDPF move	IHP_ideal_opt.pdbqt
USER    NEWDPF about	0.035000 0.082000 -0.065000
USER    NEWDPF tran0	-0.607775 46.658832 11.020211
USER    NEWDPF axisangle0	-0.541474 -0.496550 -0.678412 162.981083
USER    NEWDPF quaternion0	-0.535513 -0.491084 -0.670944 0.147973
USER    NEWDPF dihe0	-112.88 -7.19 -71.17 124.45 -96.65 -180.00 -8.52 -65.30 -7.72 94.57 75.79 -115.32 -142.63 -34.92 5.00 -47.53 -25.94 124.36 37.41 -34.55 -39.03 7.57 157.75 1.37 
USER  
USER                              x       y       z    vdW   Elec        q     RMS 
ATOM      1  C   UNL d   1      -0.695  48.383  10.968 -0.02 +0.07    +0.194    44.401
ATOM      2  C   UNL d   1      -0.799  47.675   9.616 -0.02 +0.06    +0.194    44.401
ATOM      3  C   UNL d   1       0.217  46.538   9.492 -0.09 +0.09    +0.194    44.401
ATOM      4  C   UNL d   1       0.170  45.559  10.662 -0.11 +0.10    +0.194    44.401
ATOM      5  C   UNL d   1       0.156  46.227  12.031 -0.09 +0.11    +0.194    44.401
ATOM      6  C   UNL d   1      -0.816  47.403  12.136 -0.02 +0.07    +0.194    44.401
ATOM      7  O   UNL d   1      -1.780  49.308  11.073 +0.00 -0.05    -0.278    44.401
ATOM      8  P   UNL d   1      -1.602  50.762  10.437 +0.01 +0.07    +0.473    44.401
ATOM      9  O   UNL d   1      -1.058  51.793  11.363 +0.00 -0.03    -0.228    44.401
ATOM     10  O   UNL d   1      -0.680  50.516   9.159 -0.00 -0.05    -0.303    44.401
ATOM     11  H   UNL d   1      -1.240  50.321   8.385 +0.01 +0.03    +0.222    44.401
ATOM     12  O   UNL d   1      -3.007  51.098   9.774 +0.00 -0.03    -0.303    44.401
ATOM     13  H   UNL d   1      -3.323  50.394   9.164 +0.00 +0.02    +0.222    44.401
ATOM     14  O   UNL d   1      -2.116  47.128   9.476 +0.00 -0.07    -0.278    44.401
ATOM     15  P   UNL d   1      -3.171  48.003   8.648 +0.01 +0.08    +0.473    44.401
ATOM     16  O   UNL d   1      -2.608  49.031   7.718 -0.00 -0.03    -0.228    44.401
ATOM     17  O   UNL d   1      -4.070  46.921   7.901 +0.00 -0.05    -0.303    44.401
ATOM     18  H   UNL d   1      -4.617  47.337   7.207 +0.00 +0.03    +0.222    44.401
ATOM     19  O   UNL d   1      -4.180  48.553   9.748 +0.00 -0.04    -0.303    44.401
ATOM     20  H   UNL d   1      -3.738  49.157  10.373 +0.00 +0.03    +0.222    44.401
ATOM     21  O   UNL d   1      -0.471  48.119  13.320 -0.01 -0.10    -0.278    44.401
ATOM     22  P   UNL d   1      -1.623  48.730  14.240 +0.01 +0.06    +0.473    44.401
ATOM     23  O   UNL d   1      -2.900  47.970  14.369 +0.00 -0.02    -0.228    44.401
ATOM     24  O   UNL d   1      -0.850  48.974  15.610 +0.01 -0.03    -0.303    44.401
ATOM     25  H   UNL d   1      -1.523  49.087  16.328 +0.00 +0.01    +0.222    44.401
ATOM     26  O   UNL d   1      -1.747  50.219  13.660 +0.00 -0.04    -0.303    44.401
ATOM     27  H   UNL d   1      -1.174  50.306  12.871 +0.00 +0.04    +0.222    44.401
ATOM     28  O   UNL d   1      -0.133  45.774   8.345 -0.05 -0.11    -0.278    44.401
ATOM     29  P   UNL d   1       0.878  45.652   7.121 -0.13 +0.16    +0.473    44.401
ATOM     30  O   UNL d   1       1.012  46.867   6.276 -0.19 -0.06    -0.228    44.401
ATOM     31  O   UNL d   1       2.190  45.154   7.890 -0.29 -0.13    -0.303    44.401
ATOM     32  H   UNL d   1       1.928  44.466   8.544 +0.11 +0.10    +0.222    44.401
ATOM     33  O   UNL d   1       0.370  44.327   6.399 -0.11 -0.13    -0.303    44.401
ATOM     34  H   UNL d   1      -0.337  43.911   6.951 +0.07 +0.10    +0.222    44.401
ATOM     35  O   UNL d   1      -0.293  45.228  12.944 -0.09 -0.07    -0.278    44.401
ATOM     36  P   UNL d   1      -1.818  44.758  12.937 -0.03 +0.04    +0.473    44.401
ATOM     37  O   UNL d   1      -2.587  45.083  11.696 -0.01 -0.06    -0.228    44.401
ATOM     38  O   UNL d   1      -1.680  43.199  13.232 -0.15 +0.07    -0.303    44.401
ATOM     39  H   UNL d   1      -1.402  42.740  12.411 +0.04 +0.06    +0.222    44.401
ATOM     40  O   UNL d   1      -2.365  45.359  14.304 -0.01 +0.01    -0.303    44.401
ATOM     41  H   UNL d   1      -2.181  46.322  14.378 +0.02 +0.01    +0.222    44.401
ATOM     42  O   UNL d   1       1.362  44.769  10.591 -0.11 -0.19    -0.278    44.401
ATOM     43  P   UNL d   1       1.246  43.233  10.179 -0.21 +0.27    +0.473    44.401
ATOM     44  O   UNL d   1       2.512  42.501   9.894 -0.46 -0.07    -0.228    44.401
ATOM     45  O   UNL d   1       0.391  42.616  11.371 -0.63 -0.20    -0.303    44.401
ATOM     46  H   UNL d   1       0.120  43.304  12.011 +0.08 +0.06    +0.222    44.401
ATOM     47  O   UNL d   1       0.175  43.252   8.987 -0.19 -0.24    -0.303    44.401
ATOM     48  H   UNL d   1       0.539  43.764   8.235 +0.10 +0.12    +0.222    44.401
TER
ENDMDL
MODEL       67
USER    Run = 67
USER    Cluster Rank = 64
USER    Number of conformations in this cluster = 1
USER  
USER    RMSD from reference structure       = 56.920 A
USER  
USER    Estimated Free Energy of Binding    =   +4.76 kcal/mol  [=(1)+(2)+(3)-(4)]
USER    
USER    (1) Final Intermolecular Energy     =   -2.40 kcal/mol
USER        vdW + Hbond + desolv Energy     =   -2.17 kcal/mol
USER        Electrostatic Energy            =   -0.23 kcal/mol
USER    (2) Final Total Internal Energy     =  -12.74 kcal/mol
USER    (3) Torsional Free Energy           =   +7.16 kcal/mol
USER    (4) Unbound System's Energy  [=(2)] =  -12.74 kcal/mol
USER    
USER    
USER  
USER    DPF = D:/Protein_go_brrr/autodock/final/2DN3/IHP/dock.dpf
USER    NEWDPF move	IHP_ideal_opt.pdbqt
USER    NEWDPF about	0.035000 0.082000 -0.065000
USER    NEWDPF tran0	39.943939 27.770834 36.325893
USER    NEWDPF axisangle0	-0.698591 -0.669730 -0.251857 -116.047034
USER    NEWDPF quaternion0	-0.592591 -0.568109 -0.213642 -0.529571
USER    NEWDPF dihe0	80.63 131.61 1.73 99.73 27.57 172.86 98.48 -12.76 91.38 -5.18 -36.00 110.64 -47.61 -33.04 -51.91 29.61 133.91 -24.03 40.60 -23.11 -174.08 -46.86 -2.72 -179.97 
USER  
USER                              x       y       z    vdW   Elec        q     RMS 
ATOM      1  C   UNL d   1      39.199  28.836  37.464 -0.00 +0.04    +0.194    56.920
ATOM      2  C   UNL d   1      38.276  27.791  36.835 -0.02 +0.06    +0.194    56.920
ATOM      3  C   UNL d   1      38.521  27.651  35.331 -0.07 +0.07    +0.194    56.920
ATOM      4  C   UNL d   1      39.987  27.412  34.980 -0.05 +0.05    +0.194    56.920
ATOM      5  C   UNL d   1      40.955  28.360  35.676 -0.02 +0.03    +0.194    56.920
ATOM      6  C   UNL d   1      40.672  28.548  37.168 -0.00 +0.03    +0.194    56.920
ATOM      7  O   UNL d   1      39.031  28.783  38.882 +0.00 -0.04    -0.278    56.920
ATOM      8  P   UNL d   1      37.794  29.559  39.530 +0.01 +0.07    +0.473    56.920
ATOM      9  O   UNL d   1      36.869  30.197  38.554 +0.00 -0.05    -0.228    56.920
ATOM     10  O   UNL d   1      37.084  28.461  40.443 +0.00 -0.04    -0.303    56.920
ATOM     11  H   UNL d   1      36.563  27.856  39.882 +0.00 +0.04    +0.222    56.920
ATOM     12  O   UNL d   1      38.436  30.528  40.614 +0.00 -0.03    -0.303    56.920
ATOM     13  H   UNL d   1      38.722  31.391  40.238 +0.00 +0.02    +0.222    56.920
ATOM     14  O   UNL d   1      38.515  26.522  37.456 -0.01 -0.06    -0.278    56.920
ATOM     15  P   UNL d   1      37.370  25.977  38.433 +0.01 +0.09    +0.473    56.920
ATOM     16  O   UNL d   1      35.993  26.525  38.227 -0.00 -0.06    -0.228    56.920
ATOM     17  O   UNL d   1      37.436  24.394  38.262 +0.00 -0.04    -0.303    56.920
ATOM     18  H   UNL d   1      36.800  24.087  37.587 +0.01 +0.04    +0.222    56.920
ATOM     19  O   UNL d   1      37.971  26.165  39.894 +0.00 -0.04    -0.303    56.920
ATOM     20  H   UNL d   1      38.456  27.007  39.978 +0.00 +0.03    +0.222    56.920
ATOM     21  O   UNL d   1      41.414  29.691  37.588 -0.00 -0.04    -0.278    56.920
ATOM     22  P   UNL d   1      40.809  31.151  37.372 +0.00 +0.06    +0.473    56.920
ATOM     23  O   UNL d   1      39.757  31.331  36.330 -0.00 -0.04    -0.228    56.920
ATOM     24  O   UNL d   1      40.359  31.539  38.848 +0.00 -0.03    -0.303    56.920
ATOM     25  H   UNL d   1      39.985  30.729  39.279 +0.00 +0.03    +0.222    56.920
ATOM     26  O   UNL d   1      42.137  32.030  37.189 +0.00 -0.03    -0.303    56.920
ATOM     27  H   UNL d   1      42.921  31.451  37.277 +0.00 +0.02    +0.222    56.920
ATOM     28  O   UNL d   1      37.833  26.487  34.891 -0.04 -0.12    -0.278    56.920
ATOM     29  P   UNL d   1      36.245  26.408  34.983 -0.11 +0.35    +0.473    56.920
ATOM     30  O   UNL d   1      35.569  27.640  35.466 -0.47 -0.33    -0.228    56.920
ATOM     31  O   UNL d   1      35.903  25.927  33.496 -0.19 -0.19    -0.303    56.920
ATOM     32  H   UNL d   1      35.076  25.391  33.521 -0.47 +0.05    +0.222    56.920
ATOM     33  O   UNL d   1      36.025  25.084  35.840 -0.07 -0.11    -0.303    56.920
ATOM     34  H   UNL d   1      36.635  25.100  36.618 +0.03 +0.06    +0.222    56.920
ATOM     35  O   UNL d   1      42.240  27.752  35.566 -0.01 -0.04    -0.278    56.920
ATOM     36  P   UNL d   1      43.474  28.578  34.984 -0.00 +0.06    +0.473    56.920
ATOM     37  O   UNL d   1      44.780  27.850  34.952 -0.00 -0.03    -0.228    56.920
ATOM     38  O   UNL d   1      42.930  29.010  33.550 -0.01 -0.05    -0.303    56.920
ATOM     39  H   UNL d   1      41.950  28.971  33.554 +0.03 +0.04    +0.222    56.920
ATOM     40  O   UNL d   1      43.416  29.921  35.835 -0.00 -0.04    -0.303    56.920
ATOM     41  H   UNL d   1      42.504  30.285  35.879 +0.00 +0.03    +0.222    56.920
ATOM     42  O   UNL d   1      40.118  27.636  33.572 -0.08 -0.08    -0.278    56.920
ATOM     43  P   UNL d   1      39.957  29.120  33.009 -0.10 +0.12    +0.473    56.920
ATOM     44  O   UNL d   1      40.171  30.244  33.963 -0.03 -0.05    -0.228    56.920
ATOM     45  O   UNL d   1      40.945  29.128  31.761 -0.13 -0.06    -0.303    56.920
ATOM     46  H   UNL d   1      41.736  29.676  31.934 +0.05 +0.04    +0.222    56.920
ATOM     47  O   UNL d   1      38.525  29.086  32.290 -0.24 -0.12    -0.303    56.920
ATOM     48  H   UNL d   1      38.583  28.539  31.479 -0.21 +0.07    +0.222    56.920
TER
ENDMDL
MODEL       41
USER    Run = 41
USER    Cluster Rank = 65
USER    Number of conformations in this cluster = 1
USER  
USER    RMSD from reference structure       = 26.841 A
USER  
USER    Estimated Free Energy of Binding    =   +4.77 kcal/mol  [=(1)+(2)+(3)-(4)]
USER    
USER    (1) Final Intermolecular Energy     =   -2.38 kcal/mol
USER        vdW + Hbond + desolv Energy     =   -2.24 kcal/mol
USER        Electrostatic Energy            =   -0.14 kcal/mol
USER    (2) Final Total Internal Energy     =  -14.96 kcal/mol
USER    (3) Torsional Free Energy           =   +7.16 kcal/mol
USER    (4) Unbound System's Energy  [=(2)] =  -14.96 kcal/mol
USER    
USER    
USER  
USER    DPF = D:/Protein_go_brrr/autodock/final/2DN3/IHP/dock.dpf
USER    NEWDPF move	IHP_ideal_opt.pdbqt
USER    NEWDPF about	0.035000 0.082000 -0.065000
USER    NEWDPF tran0	21.844404 13.314822 16.614670
USER    NEWDPF axisangle0	0.880779 -0.273147 -0.386806 153.545933
USER    NEWDPF quaternion0	0.857413 -0.265901 -0.376544 0.228810
USER    NEWDPF dihe0	75.86 84.17 156.80 21.83 33.23 -135.02 -10.69 -165.16 102.54 36.58 -172.96 165.43 147.84 179.91 -63.34 114.51 88.30 162.89 47.74 4.93 177.36 -10.92 11.03 179.99 
USER  
USER                              x       y       z    vdW   Elec        q     RMS 
ATOM      1  C   UNL d   1      22.708  14.098  15.340 -0.03 +0.06    +0.194    26.841
ATOM      2  C   UNL d   1      22.689  14.839  16.678 -0.03 +0.07    +0.194    26.841
ATOM      3  C   UNL d   1      21.301  14.810  17.322 -0.06 +0.10    +0.194    26.841
ATOM      4  C   UNL d   1      20.720  13.403  17.433 -0.03 +0.06    +0.194    26.841
ATOM      5  C   UNL d   1      20.822  12.586  16.152 -0.02 +0.05    +0.194    26.841
ATOM      6  C   UNL d   1      22.192  12.665  15.475 -0.01 +0.05    +0.194    26.841
ATOM      7  O   UNL d   1      24.064  14.022  14.891 -0.01 -0.07    -0.278    26.841
ATOM      8  P   UNL d   1      24.743  15.341  14.299 -0.02 +0.15    +0.473    26.841
ATOM      9  O   UNL d   1      25.946  15.107  13.456 -0.08 -0.06    -0.228    26.841
ATOM     10  O   UNL d   1      23.558  16.067  13.516 -0.07 -0.09    -0.303    26.841
ATOM     11  H   UNL d   1      23.457  15.668  12.632 +0.05 +0.06    +0.222    26.841
ATOM     12  O   UNL d   1      24.948  16.297  15.552 +0.04 -0.13    -0.303    26.841
ATOM     13  H   UNL d   1      25.229  15.815  16.363 +0.05 +0.11    +0.222    26.841
ATOM     14  O   UNL d   1      23.620  14.215  17.571 -0.00 -0.09    -0.278    26.841
ATOM     15  P   UNL d   1      24.551  15.193  18.432 -0.01 +0.21    +0.473    26.841
ATOM     16  O   UNL d   1      26.029  14.986  18.319 -0.17 -0.18    -0.228    26.841
ATOM     17  O   UNL d   1      24.096  16.653  17.987 -0.06 -0.13    -0.303    26.841
ATOM     18  H   UNL d   1      23.154  16.806  18.194 +0.06 +0.08    +0.222    26.841
ATOM     19  O   UNL d   1      23.958  15.109  19.906 +0.00 -0.10    -0.303    26.841
ATOM     20  H   UNL d   1      22.984  15.054  19.900 +0.02 +0.05    +0.222    26.841
ATOM     21  O   UNL d   1      22.029  12.153  14.154 -0.02 -0.06    -0.278    26.841
ATOM     22  P   UNL d   1      21.302  13.040  13.045 -0.07 +0.10    +0.473    26.841
ATOM     23  O   UNL d   1      20.206  13.953  13.480 -0.14 -0.07    -0.228    26.841
ATOM     24  O   UNL d   1      22.536  13.764  12.347 -0.06 -0.06    -0.303    26.841
ATOM     25  H   UNL d   1      23.233  13.915  13.035 +0.03 +0.05    +0.222    26.841
ATOM     26  O   UNL d   1      20.905  11.935  11.953 -0.07 -0.06    -0.303    26.841
ATOM     27  H   UNL d   1      20.439  11.198  12.396 +0.02 +0.04    +0.222    26.841
ATOM     28  O   UNL d   1      21.441  15.268  18.661 -0.08 -0.11    -0.278    26.841
ATOM     29  P   UNL d   1      21.075  16.771  19.040 -0.01 +0.22    +0.473    26.841
ATOM     30  O   UNL d   1      19.658  17.009  19.418 -0.35 -0.08    -0.228    26.841
ATOM     31  O   UNL d   1      22.183  17.055  20.158 -0.03 -0.04    -0.303    26.841
ATOM     32  H   UNL d   1      23.036  16.659  19.863 +0.05 +0.05    +0.222    26.841
ATOM     33  O   UNL d   1      21.628  17.576  17.783 -0.39 -0.21    -0.303    26.841
ATOM     34  H   UNL d   1      22.455  18.051  18.045 +0.09 +0.07    +0.222    26.841
ATOM     35  O   UNL d   1      20.624  11.228  16.542 -0.00 -0.05    -0.278    26.841
ATOM     36  P   UNL d   1      19.788  10.238  15.611 +0.01 +0.07    +0.473    26.841
ATOM     37  O   UNL d   1      20.415   8.903  15.363 -0.00 -0.03    -0.228    26.841
ATOM     38  O   UNL d   1      18.392  10.173  16.376 -0.00 -0.04    -0.303    26.841
ATOM     39  H   UNL d   1      18.223  11.037  16.809 +0.03 +0.04    +0.222    26.841
ATOM     40  O   UNL d   1      19.485  11.142  14.338 -0.03 -0.06    -0.303    26.841
ATOM     41  H   UNL d   1      19.797  12.065  14.465 +0.04 +0.06    +0.222    26.841
ATOM     42  O   UNL d   1      19.326  13.553  17.727 -0.07 -0.11    -0.278    26.841
ATOM     43  P   UNL d   1      18.360  14.143  16.604 -0.14 +0.29    +0.473    26.841
ATOM     44  O   UNL d   1      17.151  14.885  17.058 -0.44 -0.15    -0.228    26.841
ATOM     45  O   UNL d   1      19.353  15.005  15.707 -0.22 -0.30    -0.303    26.841
ATOM     46  H   UNL d   1      19.443  14.629  14.809 +0.06 +0.15    +0.222    26.841
ATOM     47  O   UNL d   1      18.082  12.879  15.658 -0.11 -0.11    -0.303    26.841
ATOM     48  H   UNL d   1      18.742  12.181  15.850 +0.05 +0.06    +0.222    26.841
TER
ENDMDL
MODEL       22
USER    Run = 22
USER    Cluster Rank = 66
USER    Number of conformations in this cluster = 1
USER  
USER    RMSD from reference structure       = 49.487 A
USER  
USER    Estimated Free Energy of Binding    =   +4.78 kcal/mol  [=(1)+(2)+(3)-(4)]
USER    
USER    (1) Final Intermolecular Energy     =   -2.38 kcal/mol
USER        vdW + Hbond + desolv Energy     =   -2.45 kcal/mol
USER        Electrostatic Energy            =   +0.08 kcal/mol
USER    (2) Final Total Internal Energy     =  -15.04 kcal/mol
USER    (3) Torsional Free Energy           =   +7.16 kcal/mol
USER    (4) Unbound System's Energy  [=(2)] =  -15.04 kcal/mol
USER    
USER    
USER  
USER    DPF = D:/Protein_go_brrr/autodock/final/2DN3/IHP/dock.dpf
USER    NEWDPF move	IHP_ideal_opt.pdbqt
USER    NEWDPF about	0.035000 0.082000 -0.065000
USER    NEWDPF tran0	35.678787 19.671051 32.973203
USER    NEWDPF axisangle0	-0.360856 0.262723 -0.894852 -102.011676
USER    NEWDPF quaternion0	-0.280461 0.204191 -0.695488 -0.629241
USER    NEWDPF dihe0	-153.49 -14.48 -180.00 -35.60 104.89 137.54 52.65 -84.62 109.79 100.60 2.34 -150.76 28.89 172.65 -100.95 -121.25 121.09 -15.55 -8.28 17.59 -16.75 3.23 -1.85 -179.41 
USER  
USER                              x       y       z    vdW   Elec        q     RMS 
ATOM      1  C   UNL d   1      35.451  18.596  34.306 -0.00 -0.02    +0.194    49.487
ATOM      2  C   UNL d   1      34.664  19.906  34.372 -0.02 -0.02    +0.194    49.487
ATOM      3  C   UNL d   1      35.520  21.103  33.951 -0.08 -0.00    +0.194    49.487
ATOM      4  C   UNL d   1      36.203  20.907  32.600 -0.15 -0.01    +0.194    49.487
ATOM      5  C   UNL d   1      36.905  19.564  32.448 -0.07 -0.03    +0.194    49.487
ATOM      6  C   UNL d   1      36.072  18.373  32.927 -0.03 -0.04    +0.194    49.487
ATOM      7  O   UNL d   1      34.543  17.518  34.544 +0.00 +0.03    -0.278    49.487
ATOM      8  P   UNL d   1      34.947  16.410  35.622 +0.01 -0.02    +0.473    49.487
ATOM      9  O   UNL d   1      34.702  16.791  37.040 +0.00 +0.00    -0.228    49.487
ATOM     10  O   UNL d   1      34.131  15.116  35.170 +0.00 +0.02    -0.303    49.487
ATOM     11  H   UNL d   1      34.258  14.967  34.214 +0.01 -0.02    +0.222    49.487
ATOM     12  O   UNL d   1      36.440  16.006  35.260 +0.00 +0.01    -0.303    49.487
ATOM     13  H   UNL d   1      36.532  15.645  34.350 +0.01 -0.02    +0.222    49.487
ATOM     14  O   UNL d   1      33.537  19.818  33.492 -0.04 +0.06    -0.278    49.487
ATOM     15  P   UNL d   1      32.232  20.643  33.916 -0.06 -0.07    +0.473    49.487
ATOM     16  O   UNL d   1      30.928  19.909  33.870 -0.06 +0.03    -0.228    49.487
ATOM     17  O   UNL d   1      32.578  21.196  35.370 -0.02 +0.01    -0.303    49.487
ATOM     18  H   UNL d   1      33.089  22.026  35.318 +0.04 +0.00    +0.222    49.487
ATOM     19  O   UNL d   1      32.301  21.972  33.045 -0.22 +0.08    -0.303    49.487
ATOM     20  H   UNL d   1      32.714  22.705  33.537 +0.05 -0.03    +0.222    49.487
ATOM     21  O   UNL d   1      36.965  17.267  33.044 -0.01 +0.04    -0.278    49.487
ATOM     22  P   UNL d   1      36.724  15.958  32.164 -0.01 -0.11    +0.473    49.487
ATOM     23  O   UNL d   1      35.559  15.088  32.499 -0.01 +0.05    -0.228    49.487
ATOM     24  O   UNL d   1      36.707  16.557  30.689 -0.09 +0.16    -0.303    49.487
ATOM     25  H   UNL d   1      37.399  17.265  30.636 +0.05 -0.08    +0.222    49.487
ATOM     26  O   UNL d   1      38.164  15.258  32.220 -0.00 +0.03    -0.303    49.487
ATOM     27  H   UNL d   1      38.859  15.948  32.204 +0.02 -0.02    +0.222    49.487
ATOM     28  O   UNL d   1      34.648  22.212  33.775 -0.16 +0.01    -0.278    49.487
ATOM     29  P   UNL d   1      34.744  23.472  34.744 -0.03 +0.05    +0.473    49.487
ATOM     30  O   UNL d   1      33.461  24.168  35.020 -0.10 -0.04    -0.228    49.487
ATOM     31  O   UNL d   1      35.493  22.808  35.993 -0.02 -0.04    -0.303    49.487
ATOM     32  H   UNL d   1      36.434  23.097  35.985 +0.03 +0.03    +0.222    49.487
ATOM     33  O   UNL d   1      35.897  24.332  34.061 -0.22 -0.08    -0.303    49.487
ATOM     34  H   UNL d   1      36.484  23.728  33.542 +0.04 +0.08    +0.222    49.487
ATOM     35  O   UNL d   1      37.115  19.393  31.047 -0.14 +0.08    -0.278    49.487
ATOM     36  P   UNL d   1      38.564  19.024  30.490 -0.11 -0.09    +0.473    49.487
ATOM     37  O   UNL d   1      38.606  18.541  29.075 -0.20 +0.06    -0.228    49.487
ATOM     38  O   UNL d   1      39.365  20.377  30.744 -0.16 +0.01    -0.303    49.487
ATOM     39  H   UNL d   1      39.097  20.751  31.611 +0.08 +0.01    +0.222    49.487
ATOM     40  O   UNL d   1      39.116  18.036  31.608 -0.03 +0.03    -0.303    49.487
ATOM     41  H   UNL d   1      38.537  17.250  31.717 +0.04 -0.03    +0.222    49.487
ATOM     42  O   UNL d   1      37.208  21.921  32.493 -0.67 -0.06    -0.278    49.487
ATOM     43  P   UNL d   1      38.494  21.835  33.433 -0.06 +0.07    +0.473    49.487
ATOM     44  O   UNL d   1      38.954  20.479  33.844 -0.03 -0.01    -0.228    49.487
ATOM     45  O   UNL d   1      39.577  22.671  32.620 -0.08 -0.07    -0.303    49.487
ATOM     46  H   UNL d   1      39.867  22.195  31.816 +0.07 +0.04    +0.222    49.487
ATOM     47  O   UNL d   1      38.140  22.839  34.631 -0.06 -0.05    -0.303    49.487
ATOM     48  H   UNL d   1      37.168  22.877  34.743 +0.05 +0.04    +0.222    49.487
TER
ENDMDL
MODEL       77
USER    Run = 77
USER    Cluster Rank = 67
USER    Number of conformations in this cluster = 1
USER  
USER    RMSD from reference structure       = 16.590 A
USER  
USER    Estimated Free Energy of Binding    =   +4.84 kcal/mol  [=(1)+(2)+(3)-(4)]
USER    
USER    (1) Final Intermolecular Energy     =   -2.32 kcal/mol
USER        vdW + Hbond + desolv Energy     =   -2.12 kcal/mol
USER        Electrostatic Energy            =   -0.21 kcal/mol
USER    (2) Final Total Internal Energy     =  -14.45 kcal/mol
USER    (3) Torsional Free Energy           =   +7.16 kcal/mol
USER    (4) Unbound System's Energy  [=(2)] =  -14.45 kcal/mol
USER    
USER    
USER  
USER    DPF = D:/Protein_go_brrr/autodock/final/2DN3/IHP/dock.dpf
USER    NEWDPF move	IHP_ideal_opt.pdbqt
USER    NEWDPF about	0.035000 0.082000 -0.065000
USER    NEWDPF tran0	4.776930 18.644835 -8.270463
USER    NEWDPF axisangle0	0.887772 0.010153 0.460172 82.353745
USER    NEWDPF quaternion0	0.584496 0.006684 0.302971 0.752681
USER    NEWDPF dihe0	176.23 102.08 65.88 54.97 65.20 179.99 36.90 -69.68 89.97 -46.45 67.81 148.77 -57.41 160.13 138.31 93.05 42.91 180.00 12.17 -19.42 -18.65 -24.85 -179.79 20.31 
USER  
USER                              x       y       z    vdW   Elec        q     RMS 
ATOM      1  C   UNL d   1       5.660  18.664  -6.786 -0.09 +0.01    +0.194    16.590
ATOM      2  C   UNL d   1       4.141  18.790  -6.653 -0.06 -0.03    +0.194    16.590
ATOM      3  C   UNL d   1       3.559  19.748  -7.695 -0.06 -0.12    +0.194    16.590
ATOM      4  C   UNL d   1       3.988  19.417  -9.122 -0.03 -0.09    +0.194    16.590
ATOM      5  C   UNL d   1       5.483  19.169  -9.279 -0.09 -0.00    +0.194    16.590
ATOM      6  C   UNL d   1       6.077  18.261  -8.201 -0.07 +0.04    +0.194    16.590
ATOM      7  O   UNL d   1       6.101  17.631  -5.901 -0.04 -0.08    -0.278    16.590
ATOM      8  P   UNL d   1       6.954  18.046  -4.616 -0.12 +0.25    +0.473    16.590
ATOM      9  O   UNL d   1       7.323  19.486  -4.541 -0.26 -0.07    -0.228    16.590
ATOM     10  O   UNL d   1       6.062  17.561  -3.386 -0.20 -0.20    -0.303    16.590
ATOM     11  H   UNL d   1       5.409  16.905  -3.694 +0.06 +0.13    +0.222    16.590
ATOM     12  O   UNL d   1       8.164  17.017  -4.574 -0.47 -0.36    -0.303    16.590
ATOM     13  H   UNL d   1       8.700  17.018  -5.400 +0.06 +0.19    +0.222    16.590
ATOM     14  O   UNL d   1       3.548  17.499  -6.837 -0.00 +0.00    -0.278    16.590
ATOM     15  P   UNL d   1       2.856  16.840  -5.553 +0.02 +0.03    +0.473    16.590
ATOM     16  O   UNL d   1       2.972  15.354  -5.415 +0.00 -0.03    -0.228    16.590
ATOM     17  O   UNL d   1       3.494  17.625  -4.322 -0.02 -0.04    -0.303    16.590
ATOM     18  H   UNL d   1       4.400  17.925  -4.529 +0.06 +0.04    +0.222    16.590
ATOM     19  O   UNL d   1       1.372  17.413  -5.563 +0.00 +0.00    -0.303    16.590
ATOM     20  H   UNL d   1       1.244  18.069  -6.273 +0.01 -0.01    +0.222    16.590
ATOM     21  O   UNL d   1       7.494  18.404  -8.276 -0.46 -0.19    -0.278    16.590
ATOM     22  P   UNL d   1       8.405  17.125  -8.561 -0.04 +0.20    +0.473    16.590
ATOM     23  O   UNL d   1       9.842  17.344  -8.892 -0.10 -0.08    -0.228    16.590
ATOM     24  O   UNL d   1       8.145  16.245  -7.260 -0.05 -0.12    -0.303    16.590
ATOM     25  H   UNL d   1       7.525  16.743  -6.669 +0.05 +0.10    +0.222    16.590
ATOM     26  O   UNL d   1       7.539  16.348  -9.665 -0.00 -0.07    -0.303    16.590
ATOM     27  H   UNL d   1       6.772  16.900  -9.919 +0.02 +0.05    +0.222    16.590
ATOM     28  O   UNL d   1       2.146  19.590  -7.680 -0.04 +0.10    -0.278    16.590
ATOM     29  P   UNL d   1       1.256  20.409  -6.644 -0.04 -0.17    +0.473    16.590
ATOM     30  O   UNL d   1       1.217  21.879  -6.855 -0.11 +0.15    -0.228    16.590
ATOM     31  O   UNL d   1      -0.129  19.619  -6.779 -0.00 +0.04    -0.303    16.590
ATOM     32  H   UNL d   1      -0.127  18.871  -6.138 +0.01 -0.02    +0.222    16.590
ATOM     33  O   UNL d   1       1.817  19.898  -5.244 -0.04 +0.06    -0.303    16.590
ATOM     34  H   UNL d   1       2.409  19.122  -5.399 +0.04 -0.03    +0.222    16.590
ATOM     35  O   UNL d   1       5.635  18.495 -10.527 -0.03 -0.04    -0.278    16.590
ATOM     36  P   UNL d   1       4.729  17.228 -10.872 +0.01 +0.02    +0.473    16.590
ATOM     37  O   UNL d   1       3.409  17.533 -11.506 +0.00 +0.00    -0.228    16.590
ATOM     38  O   UNL d   1       5.709  16.364 -11.783 +0.00 -0.03    -0.303    16.590
ATOM     39  H   UNL d   1       6.634  16.651 -11.621 +0.01 +0.03    +0.222    16.590
ATOM     40  O   UNL d   1       4.701  16.443  -9.489 +0.01 -0.02    -0.303    16.590
ATOM     41  H   UNL d   1       5.457  15.820  -9.408 +0.01 +0.03    +0.222    16.590
ATOM     42  O   UNL d   1       3.663  20.555  -9.928 -0.04 +0.23    -0.278    16.590
ATOM     43  P   UNL d   1       2.233  20.618 -10.631 -0.02 -0.18    +0.473    16.590
ATOM     44  O   UNL d   1       2.189  21.026 -12.063 -0.01 +0.04    -0.228    16.590
ATOM     45  O   UNL d   1       1.640  19.168 -10.349 -0.00 +0.05    -0.303    16.590
ATOM     46  H   UNL d   1       2.298  18.592  -9.911 +0.01 -0.03    +0.222    16.590
ATOM     47  O   UNL d   1       1.371  21.523  -9.628 -0.05 +0.16    -0.303    16.590
ATOM     48  H   UNL d   1       1.680  21.372  -8.711 +0.01 -0.16    +0.222    16.590
TER
ENDMDL
MODEL       58
USER    Run = 58
USER    Cluster Rank = 68
USER    Number of conformations in this cluster = 1
USER  
USER    RMSD from reference structure       = 57.119 A
USER  
USER    Estimated Free Energy of Binding    =   +4.87 kcal/mol  [=(1)+(2)+(3)-(4)]
USER    
USER    (1) Final Intermolecular Energy     =   -2.29 kcal/mol
USER        vdW + Hbond + desolv Energy     =   -1.83 kcal/mol
USER        Electrostatic Energy            =   -0.45 kcal/mol
USER    (2) Final Total Internal Energy     =  -14.42 kcal/mol
USER    (3) Torsional Free Energy           =   +7.16 kcal/mol
USER    (4) Unbound System's Energy  [=(2)] =  -14.42 kcal/mol
USER    
USER    
USER  
USER    DPF = D:/Protein_go_brrr/autodock/final/2DN3/IHP/dock.dpf
USER    NEWDPF move	IHP_ideal_opt.pdbqt
USER    NEWDPF about	0.035000 0.082000 -0.065000
USER    NEWDPF tran0	12.093694 60.323239 2.175576
USER    NEWDPF axisangle0	-0.620191 -0.783564 0.037301 67.696624
USER    NEWDPF quaternion0	-0.345444 -0.436442 0.020777 0.830515
USER    NEWDPF dihe0	-134.04 27.20 119.30 86.45 21.45 -162.83 -84.94 -27.46 114.99 -15.71 149.77 -179.94 56.18 100.53 -33.87 -149.74 -179.97 -133.24 20.40 -7.17 169.78 4.63 0.08 5.57 
USER  
USER                              x       y       z    vdW   Elec        q     RMS 
ATOM      1  C   UNL d   1      13.132  59.514   1.057 -0.05 -0.11    +0.194    57.119
ATOM      2  C   UNL d   1      11.828  58.788   1.392 -0.01 -0.17    +0.194    57.119
ATOM      3  C   UNL d   1      11.518  58.844   2.890 -0.05 -0.11    +0.194    57.119
ATOM      4  C   UNL d   1      11.553  60.260   3.459 -0.01 -0.05    +0.194    57.119
ATOM      5  C   UNL d   1      12.783  61.061   3.054 -0.00 -0.04    +0.194    57.119
ATOM      6  C   UNL d   1      13.129  60.956   1.567 -0.00 -0.05    +0.194    57.119
ATOM      7  O   UNL d   1      13.260  59.566  -0.366 -0.04 +0.13    -0.278    57.119
ATOM      8  P   UNL d   1      14.257  58.540  -1.077 -0.07 -0.26    +0.473    57.119
ATOM      9  O   UNL d   1      13.597  57.447  -1.842 -0.15 +0.18    -0.228    57.119
ATOM     10  O   UNL d   1      15.187  59.467  -1.982 -0.02 +0.07    -0.303    57.119
ATOM     11  H   UNL d   1      15.755  60.017  -1.411 +0.02 -0.04    +0.222    57.119
ATOM     12  O   UNL d   1      15.259  58.079   0.067 -0.67 +0.14    -0.303    57.119
ATOM     13  H   UNL d   1      15.263  58.684   0.842 +0.05 -0.10    +0.222    57.119
ATOM     14  O   UNL d   1      10.751  59.409   0.679 -0.04 +0.12    -0.278    57.119
ATOM     15  P   UNL d   1       9.869  58.455  -0.258 -0.03 -0.19    +0.473    57.119
ATOM     16  O   UNL d   1       8.475  58.910  -0.557 -0.01 +0.04    -0.228    57.119
ATOM     17  O   UNL d   1      10.755  58.276  -1.570 -0.06 +0.12    -0.303    57.119
ATOM     18  H   UNL d   1      11.700  58.433  -1.381 +0.03 -0.12    +0.222    57.119
ATOM     19  O   UNL d   1       9.994  57.017   0.411 -0.02 +0.23    -0.303    57.119
ATOM     20  H   UNL d   1      10.170  57.079   1.368 -0.19 -0.22    +0.222    57.119
ATOM     21  O   UNL d   1      14.456  61.455   1.416 +0.00 +0.05    -0.278    57.119
ATOM     22  P   UNL d   1      15.681  60.651   2.047 +0.01 -0.09    +0.473    57.119
ATOM     23  O   UNL d   1      15.384  59.433   2.854 -0.05 +0.07    -0.228    57.119
ATOM     24  O   UNL d   1      16.597  60.399   0.770 -0.01 +0.05    -0.303    57.119
ATOM     25  H   UNL d   1      16.013  60.102   0.026 +0.03 -0.04    +0.222    57.119
ATOM     26  O   UNL d   1      16.481  61.817   2.803 +0.00 +0.03    -0.303    57.119
ATOM     27  H   UNL d   1      15.868  62.556   2.994 +0.00 -0.02    +0.222    57.119
ATOM     28  O   UNL d   1      10.179  58.399   3.066 -0.04 +0.12    -0.278    57.119
ATOM     29  P   UNL d   1       9.876  57.059   3.872 -0.03 -0.20    +0.473    57.119
ATOM     30  O   UNL d   1       8.451  56.641   3.908 -0.04 +0.05    -0.228    57.119
ATOM     31  O   UNL d   1      10.907  56.065   3.159 +0.05 +0.34    -0.303    57.119
ATOM     32  H   UNL d   1      10.990  56.325   2.212 -0.49 -0.44    +0.222    57.119
ATOM     33  O   UNL d   1      10.577  57.347   5.273 -0.03 +0.10    -0.303    57.119
ATOM     34  H   UNL d   1      10.531  58.316   5.462 +0.03 -0.06    +0.222    57.119
ATOM     35  O   UNL d   1      12.459  62.426   3.314 +0.00 +0.03    -0.278    57.119
ATOM     36  P   UNL d   1      13.467  63.350   4.135 +0.00 -0.04    +0.473    57.119
ATOM     37  O   UNL d   1      12.842  64.212   5.185 +0.00 +0.01    -0.228    57.119
ATOM     38  O   UNL d   1      14.505  62.281   4.697 +0.00 +0.03    -0.303    57.119
ATOM     39  H   UNL d   1      14.748  61.659   3.978 +0.01 -0.03    +0.222    57.119
ATOM     40  O   UNL d   1      14.269  64.089   2.978 +0.00 +0.02    -0.303    57.119
ATOM     41  H   UNL d   1      14.709  63.451   2.373 +0.00 -0.02    +0.222    57.119
ATOM     42  O   UNL d   1      11.583  60.133   4.884 -0.00 +0.06    -0.278    57.119
ATOM     43  P   UNL d   1      10.261  60.458   5.716 +0.00 -0.06    +0.473    57.119
ATOM     44  O   UNL d   1      10.040  61.872   6.129 +0.00 +0.02    -0.228    57.119
ATOM     45  O   UNL d   1       9.112  59.863   4.790 -0.00 +0.04    -0.303    57.119
ATOM     46  H   UNL d   1       9.066  58.889   4.858 +0.01 -0.04    +0.222    57.119
ATOM     47  O   UNL d   1      10.306  59.388   6.908 +0.00 +0.05    -0.303    57.119
ATOM     48  H   UNL d   1      11.100  58.824   6.806 +0.03 -0.04    +0.222    57.119
TER
ENDMDL
MODEL       18
USER    Run = 18
USER    Cluster Rank = 69
USER    Number of conformations in this cluster = 1
USER  
USER    RMSD from reference structure       = 48.338 A
USER  
USER    Estimated Free Energy of Binding    =   +4.88 kcal/mol  [=(1)+(2)+(3)-(4)]
USER    
USER    (1) Final Intermolecular Energy     =   -2.28 kcal/mol
USER        vdW + Hbond + desolv Energy     =   -2.27 kcal/mol
USER        Electrostatic Energy            =   -0.01 kcal/mol
USER    (2) Final Total Internal Energy     =  -15.43 kcal/mol
USER    (3) Torsional Free Energy           =   +7.16 kcal/mol
USER    (4) Unbound System's Energy  [=(2)] =  -15.43 kcal/mol
USER    
USER    
USER  
USER    DPF = D:/Protein_go_brrr/autodock/final/2DN3/IHP/dock.dpf
USER    NEWDPF move	IHP_ideal_opt.pdbqt
USER    NEWDPF about	0.035000 0.082000 -0.065000
USER    NEWDPF tran0	14.937291 49.597775 -9.655803
USER    NEWDPF axisangle0	0.602908 0.282305 -0.746195 179.298980
USER    NEWDPF quaternion0	0.602896 0.282299 -0.746181 0.006118
USER    NEWDPF dihe0	78.77 72.67 153.46 -12.83 -22.76 167.10 -101.11 -96.11 88.70 78.09 119.94 127.93 148.26 172.68 -179.95 42.71 102.24 -155.27 51.74 12.55 170.24 4.72 -10.36 9.74 
USER  
USER                              x       y       z    vdW   Elec        q     RMS 
ATOM      1  C   UNL d   1      13.587  50.455 -10.308 -0.04 -0.02    +0.194    48.338
ATOM      2  C   UNL d   1      13.994  50.847  -8.887 -0.05 -0.02    +0.194    48.338
ATOM      3  C   UNL d   1      14.314  49.620  -8.030 -0.12 -0.02    +0.194    48.338
ATOM      4  C   UNL d   1      15.325  48.679  -8.682 -0.10 -0.02    +0.194    48.338
ATOM      5  C   UNL d   1      15.019  48.352 -10.138 -0.08 -0.03    +0.194    48.338
ATOM      6  C   UNL d   1      14.639  49.571 -10.980 -0.04 -0.02    +0.194    48.338
ATOM      7  O   UNL d   1      13.474  51.649 -11.086 -0.01 +0.01    -0.278    48.338
ATOM      8  P   UNL d   1      12.252  52.635 -10.790 +0.00 -0.01    +0.473    48.338
ATOM      9  O   UNL d   1      11.924  53.581 -11.891 -0.00 +0.00    -0.228    48.338
ATOM     10  O   UNL d   1      11.047  51.657 -10.422 -0.01 +0.01    -0.303    48.338
ATOM     11  H   UNL d   1      10.666  51.286 -11.239 +0.02 -0.01    +0.222    48.338
ATOM     12  O   UNL d   1      12.586  53.296  -9.384 -0.00 +0.01    -0.303    48.338
ATOM     13  H   UNL d   1      13.551  53.342  -9.199 +0.01 -0.01    +0.222    48.338
ATOM     14  O   UNL d   1      15.160  51.678  -8.948 -0.01 +0.02    -0.278    48.338
ATOM     15  P   UNL d   1      15.256  52.857  -7.869 +0.01 -0.03    +0.473    48.338
ATOM     16  O   UNL d   1      15.611  54.216  -8.387 -0.00 +0.01    -0.228    48.338
ATOM     17  O   UNL d   1      13.843  52.826  -7.134 -0.01 +0.03    -0.303    48.338
ATOM     18  H   UNL d   1      13.673  51.951  -6.736 +0.06 -0.03    +0.222    48.338
ATOM     19  O   UNL d   1      16.217  52.283  -6.738 -0.01 +0.03    -0.303    48.338
ATOM     20  H   UNL d   1      15.776  51.596  -6.206 +0.05 -0.02    +0.222    48.338
ATOM     21  O   UNL d   1      14.061  49.076 -12.185 -0.02 +0.03    -0.278    48.338
ATOM     22  P   UNL d   1      12.652  48.329 -12.140 -0.05 -0.11    +0.473    48.338
ATOM     23  O   UNL d   1      12.382  47.270 -13.155 -0.05 +0.07    -0.228    48.338
ATOM     24  O   UNL d   1      12.595  47.834 -10.628 +0.03 +0.10    -0.303    48.338
ATOM     25  H   UNL d   1      13.020  46.940 -10.580 -0.05 -0.15    +0.222    48.338
ATOM     26  O   UNL d   1      11.630  49.564 -12.122 -0.02 +0.03    -0.303    48.338
ATOM     27  H   UNL d   1      12.134  50.398 -12.032 +0.02 -0.02    +0.222    48.338
ATOM     28  O   UNL d   1      14.941  50.081  -6.840 -0.07 +0.03    -0.278    48.338
ATOM     29  P   UNL d   1      14.232  49.879  -5.428 -0.17 -0.10    +0.473    48.338
ATOM     30  O   UNL d   1      13.133  48.880  -5.400 -0.37 +0.06    -0.228    48.338
ATOM     31  O   UNL d   1      15.510  49.579  -4.514 -0.17 +0.06    -0.303    48.338
ATOM     32  H   UNL d   1      16.053  48.884  -4.952 +0.11 -0.04    +0.222    48.338
ATOM     33  O   UNL d   1      13.856  51.374  -5.027 -0.16 +0.08    -0.303    48.338
ATOM     34  H   UNL d   1      14.579  51.978  -5.325 +0.08 -0.04    +0.222    48.338
ATOM     35  O   UNL d   1      16.230  47.829 -10.679 -0.04 +0.04    -0.278    48.338
ATOM     36  P   UNL d   1      16.271  46.353 -11.283 -0.05 -0.10    +0.473    48.338
ATOM     37  O   UNL d   1      17.196  46.154 -12.441 -0.02 +0.02    -0.228    48.338
ATOM     38  O   UNL d   1      16.635  45.485  -9.998 -0.16 +0.06    -0.303    48.338
ATOM     39  H   UNL d   1      16.440  46.009  -9.191 +0.07 -0.04    +0.222    48.338
ATOM     40  O   UNL d   1      14.730  46.044 -11.528 -0.11 +0.19    -0.303    48.338
ATOM     41  H   UNL d   1      14.241  46.843 -11.825 +0.02 -0.10    +0.222    48.338
ATOM     42  O   UNL d   1      15.273  47.447  -7.954 -0.15 +0.04    -0.278    48.338
ATOM     43  P   UNL d   1      16.412  47.138  -6.880 -0.18 -0.07    +0.473    48.338
ATOM     44  O   UNL d   1      17.393  46.066  -7.210 -0.27 +0.02    -0.228    48.338
ATOM     45  O   UNL d   1      17.067  48.569  -6.643 -0.05 +0.03    -0.303    48.338
ATOM     46  H   UNL d   1      16.384  49.256  -6.506 +0.08 -0.03    +0.222    48.338
ATOM     47  O   UNL d   1      15.588  46.927  -5.522 -0.32 +0.08    -0.303    48.338
ATOM     48  H   UNL d   1      15.005  47.701  -5.375 +0.13 -0.05    +0.222    48.338
TER
ENDMDL
MODEL       49
USER    Run = 49
USER    Cluster Rank = 70
USER    Number of conformations in this cluster = 1
USER  
USER    RMSD from reference structure       = 58.480 A
USER  
USER    Estimated Free Energy of Binding    =   +4.94 kcal/mol  [=(1)+(2)+(3)-(4)]
USER    
USER    (1) Final Intermolecular Energy     =   -2.22 kcal/mol
USER        vdW + Hbond + desolv Energy     =   -2.08 kcal/mol
USER        Electrostatic Energy            =   -0.14 kcal/mol
USER    (2) Final Total Internal Energy     =  -14.87 kcal/mol
USER    (3) Torsional Free Energy           =   +7.16 kcal/mol
USER    (4) Unbound System's Energy  [=(2)] =  -14.87 kcal/mol
USER    
USER    
USER  
USER    DPF = D:/Protein_go_brrr/autodock/final/2DN3/IHP/dock.dpf
USER    NEWDPF move	IHP_ideal_opt.pdbqt
USER    NEWDPF about	0.035000 0.082000 -0.065000
USER    NEWDPF tran0	56.085547 25.950998 8.957327
USER    NEWDPF axisangle0	0.519442 0.666063 0.535295 156.079937
USER    NEWDPF quaternion0	0.508166 0.651604 0.523675 0.207229
USER    NEWDPF dihe0	89.44 38.78 -180.00 15.07 -4.24 -138.82 -4.59 -90.43 31.38 12.96 99.32 -81.87 -154.50 79.53 -15.65 -119.95 161.38 78.72 20.92 -39.02 174.95 13.24 -5.25 173.65 
USER  
USER                              x       y       z    vdW   Elec        q     RMS 
ATOM      1  C   UNL d   1      55.014  27.273   9.254 -0.01 +0.05    +0.194    58.480
ATOM      2  C   UNL d   1      54.706  26.440   8.009 -0.07 +0.10    +0.194    58.480
ATOM      3  C   UNL d   1      55.977  26.101   7.226 -0.04 +0.10    +0.194    58.480
ATOM      4  C   UNL d   1      57.064  25.467   8.091 +0.01 +0.06    +0.194    58.480
ATOM      5  C   UNL d   1      57.324  26.202   9.399 +0.01 +0.04    +0.194    58.480
ATOM      6  C   UNL d   1      56.051  26.596  10.152 +0.01 +0.04    +0.194    58.480
ATOM      7  O   UNL d   1      53.810  27.399  10.015 -0.04 -0.07    -0.278    58.480
ATOM      8  P   UNL d   1      52.993  28.769   9.922 -0.09 +0.06    +0.473    58.480
ATOM      9  O   UNL d   1      53.155  29.680  11.087 -0.11 -0.01    -0.228    58.480
ATOM     10  O   UNL d   1      53.478  29.416   8.546 -0.20 +0.01    -0.303    58.480
ATOM     11  H   UNL d   1      54.412  29.687   8.624 +0.05 -0.00    +0.222    58.480
ATOM     12  O   UNL d   1      51.503  28.338   9.579 -0.55 -0.09    -0.303    58.480
ATOM     13  H   UNL d   1      51.411  27.376   9.400 +0.12 +0.09    +0.222    58.480
ATOM     14  O   UNL d   1      54.076  25.217   8.409 -0.10 -0.15    -0.278    58.480
ATOM     15  P   UNL d   1      52.475  25.215   8.444 -0.07 +0.32    +0.473    58.480
ATOM     16  O   UNL d   1      51.791  24.027   7.843 -0.26 -0.17    -0.228    58.480
ATOM     17  O   UNL d   1      52.122  25.416   9.985 -0.17 -0.14    -0.303    58.480
ATOM     18  H   UNL d   1      52.129  26.363  10.226 +0.10 +0.09    +0.222    58.480
ATOM     19  O   UNL d   1      52.063  26.625   7.835 -0.21 -0.25    -0.303    58.480
ATOM     20  H   UNL d   1      52.605  27.348   8.201 +0.09 +0.14    +0.222    58.480
ATOM     21  O   UNL d   1      56.434  27.549  11.140 +0.00 -0.05    -0.278    58.480
ATOM     22  P   UNL d   1      56.834  29.029  10.700 +0.01 +0.06    +0.473    58.480
ATOM     23  O   UNL d   1      56.485  29.473   9.320 -0.00 -0.02    -0.228    58.480
ATOM     24  O   UNL d   1      56.188  29.900  11.865 +0.00 -0.03    -0.303    58.480
ATOM     25  H   UNL d   1      55.203  29.870  11.763 +0.02 +0.02    +0.222    58.480
ATOM     26  O   UNL d   1      58.391  29.072  11.079 +0.00 -0.03    -0.303    58.480
ATOM     27  H   UNL d   1      58.826  28.261  10.745 +0.00 +0.03    +0.222    58.480
ATOM     28  O   UNL d   1      55.636  25.111   6.264 -0.22 -0.20    -0.278    58.480
ATOM     29  P   UNL d   1      55.922  25.361   4.717 +0.01 +0.39    +0.473    58.480
ATOM     30  O   UNL d   1      54.931  24.774   3.779 -0.06 -0.25    -0.228    58.480
ATOM     31  O   UNL d   1      56.068  26.955   4.714 -0.38 -0.27    -0.303    58.480
ATOM     32  H   UNL d   1      56.662  27.217   5.455 +0.02 +0.12    +0.222    58.480
ATOM     33  O   UNL d   1      57.429  24.869   4.572 -0.01 -0.12    -0.303    58.480
ATOM     34  H   UNL d   1      57.905  25.038   5.422 +0.01 +0.07    +0.222    58.480
ATOM     35  O   UNL d   1      58.032  25.281  10.227 +0.00 -0.05    -0.278    58.480
ATOM     36  P   UNL d   1      59.435  25.689  10.866 +0.00 +0.07    +0.473    58.480
ATOM     37  O   UNL d   1      60.354  24.552  11.184 +0.00 -0.03    -0.228    58.480
ATOM     38  O   UNL d   1      60.005  26.706   9.781 +0.00 -0.04    -0.303    58.480
ATOM     39  H   UNL d   1      59.778  26.379   8.884 +0.00 +0.03    +0.222    58.480
ATOM     40  O   UNL d   1      58.999  26.625  12.076 +0.00 -0.04    -0.303    58.480
ATOM     41  H   UNL d   1      58.148  27.082  11.894 +0.00 +0.03    +0.222    58.480
ATOM     42  O   UNL d   1      58.278  25.516   7.333 +0.00 -0.07    -0.278    58.480
ATOM     43  P   UNL d   1      58.877  26.937   6.927 +0.01 +0.10    +0.473    58.480
ATOM     44  O   UNL d   1      60.281  27.231   7.330 +0.00 -0.03    -0.228    58.480
ATOM     45  O   UNL d   1      58.626  26.986   5.356 +0.00 -0.08    -0.303    58.480
ATOM     46  H   UNL d   1      57.867  26.427   5.097 +0.01 +0.08    +0.222    58.480
ATOM     47  O   UNL d   1      57.773  27.967   7.465 +0.01 -0.07    -0.303    58.480
ATOM     48  H   UNL d   1      58.049  28.308   8.341 +0.01 +0.04    +0.222    58.480
TER
ENDMDL
MODEL       30
USER    Run = 30
USER    Cluster Rank = 71
USER    Number of conformations in this cluster = 1
USER  
USER    RMSD from reference structure       = 58.099 A
USER  
USER    Estimated Free Energy of Binding    =   +4.95 kcal/mol  [=(1)+(2)+(3)-(4)]
USER    
USER    (1) Final Intermolecular Energy     =   -2.21 kcal/mol
USER        vdW + Hbond + desolv Energy     =   -2.15 kcal/mol
USER        Electrostatic Energy            =   -0.06 kcal/mol
USER    (2) Final Total Internal Energy     =  -14.83 kcal/mol
USER    (3) Torsional Free Energy           =   +7.16 kcal/mol
USER    (4) Unbound System's Energy  [=(2)] =  -14.83 kcal/mol
USER    
USER    
USER  
USER    DPF = D:/Protein_go_brrr/autodock/final/2DN3/IHP/dock.dpf
USER    NEWDPF move	IHP_ideal_opt.pdbqt
USER    NEWDPF about	0.035000 0.082000 -0.065000
USER    NEWDPF tran0	33.700470 52.276945 -1.184507
USER    NEWDPF axisangle0	-0.440865 0.806326 0.394305 148.520770
USER    NEWDPF quaternion0	-0.424335 0.776092 0.379520 0.271266
USER    NEWDPF dihe0	-150.49 7.41 141.97 3.85 -7.99 66.82 -1.58 -153.08 -6.38 -161.42 45.58 164.92 44.21 -177.78 -159.77 117.52 -132.28 168.68 2.13 7.75 -46.49 -6.44 152.43 -8.70 
USER  
USER                              x       y       z    vdW   Elec        q     RMS 
ATOM      1  C   UNL d   1      32.897  51.165  -2.235 -0.04 +0.04    +0.194    58.099
ATOM      2  C   UNL d   1      34.150  51.829  -2.809 -0.03 +0.03    +0.194    58.099
ATOM      3  C   UNL d   1      34.200  53.323  -2.483 -0.02 +0.03    +0.194    58.099
ATOM      4  C   UNL d   1      34.018  53.621  -0.997 -0.03 +0.03    +0.194    58.099
ATOM      5  C   UNL d   1      32.846  52.889  -0.356 -0.06 +0.03    +0.194    58.099
ATOM      6  C   UNL d   1      32.761  51.408  -0.731 -0.08 +0.04    +0.194    58.099
ATOM      7  O   UNL d   1      33.011  49.754  -2.430 -0.06 -0.08    -0.278    58.099
ATOM      8  P   UNL d   1      31.891  49.014  -3.297 -0.01 +0.11    +0.473    58.099
ATOM      9  O   UNL d   1      32.234  48.814  -4.731 -0.01 -0.04    -0.228    58.099
ATOM     10  O   UNL d   1      31.637  47.647  -2.515 -0.03 -0.11    -0.303    58.099
ATOM     11  H   UNL d   1      31.460  47.836  -1.575 +0.04 +0.10    +0.222    58.099
ATOM     12  O   UNL d   1      30.550  49.816  -3.009 -0.00 -0.05    -0.303    58.099
ATOM     13  H   UNL d   1      30.472  50.115  -2.075 +0.02 +0.04    +0.222    58.099
ATOM     14  O   UNL d   1      35.310  51.201  -2.247 -0.05 -0.06    -0.278    58.099
ATOM     15  P   UNL d   1      36.533  50.934  -3.246 -0.04 +0.08    +0.473    58.099
ATOM     16  O   UNL d   1      36.992  49.515  -3.382 -0.06 -0.05    -0.228    58.099
ATOM     17  O   UNL d   1      36.049  51.561  -4.628 -0.01 -0.04    -0.303    58.099
ATOM     18  H   UNL d   1      35.663  52.448  -4.495 +0.01 +0.03    +0.222    58.099
ATOM     19  O   UNL d   1      37.648  51.975  -2.795 -0.01 -0.04    -0.303    58.099
ATOM     20  H   UNL d   1      37.312  52.890  -2.807 +0.01 +0.03    +0.222    58.099
ATOM     21  O   UNL d   1      31.462  50.960  -0.351 -0.05 -0.05    -0.278    58.099
ATOM     22  P   UNL d   1      31.249  49.447   0.108 -0.10 +0.12    +0.473    58.099
ATOM     23  O   UNL d   1      30.150  48.665  -0.528 -0.05 -0.06    -0.228    58.099
ATOM     24  O   UNL d   1      32.705  48.838  -0.093 -0.10 -0.16    -0.303    58.099
ATOM     25  H   UNL d   1      32.859  48.721  -1.066 +0.03 +0.11    +0.222    58.099
ATOM     26  O   UNL d   1      31.172  49.599   1.703 -0.22 -0.02    -0.303    58.099
ATOM     27  H   UNL d   1      31.996  49.251   2.099 -0.22 -0.03    +0.222    58.099
ATOM     28  O   UNL d   1      35.504  53.789  -2.804 -0.01 -0.03    -0.278    58.099
ATOM     29  P   UNL d   1      35.750  54.645  -4.125 -0.00 +0.04    +0.473    58.099
ATOM     30  O   UNL d   1      35.652  56.118  -3.960 +0.00 -0.02    -0.228    58.099
ATOM     31  O   UNL d   1      37.168  54.058  -4.578 -0.00 -0.03    -0.303    58.099
ATOM     32  H   UNL d   1      37.115  53.074  -4.580 +0.00 +0.02    +0.222    58.099
ATOM     33  O   UNL d   1      34.743  53.967  -5.155 -0.00 -0.03    -0.303    58.099
ATOM     34  H   UNL d   1      35.228  53.277  -5.670 +0.00 +0.02    +0.222    58.099
ATOM     35  O   UNL d   1      33.072  52.954   1.051 -0.13 -0.07    -0.278    58.099
ATOM     36  P   UNL d   1      34.149  51.998   1.737 +0.02 +0.12    +0.473    58.099
ATOM     37  O   UNL d   1      33.641  50.659   2.167 -0.22 -0.05    -0.228    58.099
ATOM     38  O   UNL d   1      35.289  51.941   0.627 -0.08 -0.08    -0.303    58.099
ATOM     39  H   UNL d   1      35.002  51.343  -0.097 +0.06 +0.06    +0.222    58.099
ATOM     40  O   UNL d   1      34.762  52.935   2.867 -0.15 -0.11    -0.303    58.099
ATOM     41  H   UNL d   1      35.163  52.411   3.596 -0.45 +0.06    +0.222    58.099
ATOM     42  O   UNL d   1      33.750  55.023  -0.885 -0.01 -0.04    -0.278    58.099
ATOM     43  P   UNL d   1      34.746  55.933  -0.034 -0.01 +0.06    +0.473    58.099
ATOM     44  O   UNL d   1      34.157  57.074   0.721 -0.03 -0.03    -0.228    58.099
ATOM     45  O   UNL d   1      35.498  54.868   0.878 -0.04 -0.06    -0.303    58.099
ATOM     46  H   UNL d   1      34.942  54.080   1.041 +0.05 +0.05    +0.222    58.099
ATOM     47  O   UNL d   1      35.885  56.319  -1.093 -0.00 -0.03    -0.303    58.099
ATOM     48  H   UNL d   1      35.827  55.717  -1.864 +0.00 +0.02    +0.222    58.099
TER
ENDMDL
MODEL       37
USER    Run = 37
USER    Cluster Rank = 72
USER    Number of conformations in this cluster = 1
USER  
USER    RMSD from reference structure       = 49.276 A
USER  
USER    Estimated Free Energy of Binding    =   +4.96 kcal/mol  [=(1)+(2)+(3)-(4)]
USER    
USER    (1) Final Intermolecular Energy     =   -2.20 kcal/mol
USER        vdW + Hbond + desolv Energy     =   -2.18 kcal/mol
USER        Electrostatic Energy            =   -0.02 kcal/mol
USER    (2) Final Total Internal Energy     =  -15.19 kcal/mol
USER    (3) Torsional Free Energy           =   +7.16 kcal/mol
USER    (4) Unbound System's Energy  [=(2)] =  -15.19 kcal/mol
USER    
USER    
USER  
USER    DPF = D:/Protein_go_brrr/autodock/final/2DN3/IHP/dock.dpf
USER    NEWDPF move	IHP_ideal_opt.pdbqt
USER    NEWDPF about	0.035000 0.082000 -0.065000
USER    NEWDPF tran0	38.652603 36.770170 -2.451220
USER    NEWDPF axisangle0	0.106689 -0.460294 -0.881332 120.897143
USER    NEWDPF quaternion0	0.092810 -0.400416 -0.766683 0.493205
USER    NEWDPF dihe0	103.85 71.16 57.43 65.59 16.55 170.19 2.59 -107.02 97.62 -58.53 23.35 -137.30 -26.38 133.63 170.38 -81.55 -128.05 -30.57 3.36 -19.18 -24.62 24.02 -0.30 -8.39 
USER  
USER                              x       y       z    vdW   Elec        q     RMS 
ATOM      1  C   UNL d   1      38.968  38.354  -3.065 -0.02 +0.03    +0.194    49.276
ATOM      2  C   UNL d   1      40.162  37.398  -3.058 -0.02 +0.02    +0.194    49.276
ATOM      3  C   UNL d   1      40.240  36.596  -1.757 -0.05 +0.03    +0.194    49.276
ATOM      4  C   UNL d   1      38.932  35.890  -1.407 -0.06 +0.03    +0.194    49.276
ATOM      5  C   UNL d   1      37.699  36.778  -1.512 -0.06 +0.03    +0.194    49.276
ATOM      6  C   UNL d   1      37.653  37.626  -2.785 -0.02 +0.03    +0.194    49.276
ATOM      7  O   UNL d   1      38.866  38.932  -4.368 -0.00 -0.04    -0.278    49.276
ATOM      8  P   UNL d   1      39.000  40.518  -4.508 +0.00 +0.07    +0.473    49.276
ATOM      9  O   UNL d   1      39.774  41.184  -3.426 -0.00 -0.04    -0.228    49.276
ATOM     10  O   UNL d   1      39.637  40.726  -5.956 +0.00 -0.03    -0.303    49.276
ATOM     11  H   UNL d   1      40.456  40.203  -6.031 +0.00 +0.02    +0.222    49.276
ATOM     12  O   UNL d   1      37.514  41.040  -4.720 +0.00 -0.05    -0.303    49.276
ATOM     13  H   UNL d   1      36.836  40.440  -4.335 +0.00 +0.04    +0.222    49.276
ATOM     14  O   UNL d   1      40.032  36.481  -4.152 -0.00 -0.03    -0.278    49.276
ATOM     15  P   UNL d   1      41.106  36.616  -5.332 -0.00 +0.04    +0.473    49.276
ATOM     16  O   UNL d   1      40.853  35.810  -6.567 +0.00 -0.02    -0.228    49.276
ATOM     17  O   UNL d   1      41.171  38.181  -5.619 -0.00 -0.03    -0.303    49.276
ATOM     18  H   UNL d   1      40.286  38.588  -5.554 +0.00 +0.02    +0.222    49.276
ATOM     19  O   UNL d   1      42.507  36.363  -4.623 -0.00 -0.03    -0.303    49.276
ATOM     20  H   UNL d   1      42.397  36.099  -3.691 +0.01 +0.02    +0.222    49.276
ATOM     21  O   UNL d   1      36.657  38.625  -2.579 -0.01 -0.05    -0.278    49.276
ATOM     22  P   UNL d   1      35.487  38.809  -3.647 +0.00 +0.08    +0.473    49.276
ATOM     23  O   UNL d   1      34.754  40.108  -3.674 +0.00 -0.05    -0.228    49.276
ATOM     24  O   UNL d   1      36.224  38.431  -5.006 +0.00 -0.04    -0.303    49.276
ATOM     25  H   UNL d   1      37.073  38.942  -5.049 +0.00 +0.03    +0.222    49.276
ATOM     26  O   UNL d   1      34.595  37.504  -3.381 -0.00 -0.04    -0.303    49.276
ATOM     27  H   UNL d   1      35.034  36.946  -2.707 +0.01 +0.03    +0.222    49.276
ATOM     28  O   UNL d   1      41.190  35.557  -1.950 -0.03 -0.03    -0.278    49.276
ATOM     29  P   UNL d   1      42.286  35.252  -0.835 -0.08 +0.07    +0.473    49.276
ATOM     30  O   UNL d   1      43.673  35.664  -1.171 -0.12 -0.03    -0.228    49.276
ATOM     31  O   UNL d   1      41.603  35.959   0.428 -0.15 -0.06    -0.303    49.276
ATOM     32  H   UNL d   1      40.693  35.599   0.535 +0.06 +0.03    +0.222    49.276
ATOM     33  O   UNL d   1      42.045  33.705  -0.545 -0.16 -0.04    -0.303    49.276
ATOM     34  H   UNL d   1      41.078  33.549  -0.415 +0.08 +0.02    +0.222    49.276
ATOM     35  O   UNL d   1      36.585  35.890  -1.558 -0.03 -0.04    -0.278    49.276
ATOM     36  P   UNL d   1      35.336  36.115  -0.591 -0.05 +0.07    +0.473    49.276
ATOM     37  O   UNL d   1      35.477  35.551   0.787 -0.11 -0.01    -0.228    49.276
ATOM     38  O   UNL d   1      35.170  37.698  -0.636 -0.05 -0.06    -0.303    49.276
ATOM     39  H   UNL d   1      35.511  38.033  -1.494 +0.02 +0.04    +0.222    49.276
ATOM     40  O   UNL d   1      34.124  35.578  -1.471 -0.00 -0.05    -0.303    49.276
ATOM     41  H   UNL d   1      33.628  36.313  -1.895 +0.01 +0.04    +0.222    49.276
ATOM     42  O   UNL d   1      39.038  35.476  -0.041 -0.11 -0.04    -0.278    49.276
ATOM     43  P   UNL d   1      38.941  33.921   0.303 -0.18 +0.06    +0.473    49.276
ATOM     44  O   UNL d   1      39.091  32.958  -0.823 -0.09 -0.02    -0.228    49.276
ATOM     45  O   UNL d   1      40.025  33.751   1.456 -0.85 -0.08    -0.303    49.276
ATOM     46  H   UNL d   1      40.882  34.150   1.203 -0.01 +0.03    +0.222    49.276
ATOM     47  O   UNL d   1      37.570  33.813   1.128 -0.20 -0.02    -0.303    49.276
ATOM     48  H   UNL d   1      36.892  34.375   0.700 +0.07 +0.02    +0.222    49.276
TER
ENDMDL
MODEL       63
USER    Run = 63
USER    Cluster Rank = 73
USER    Number of conformations in this cluster = 1
USER  
USER    RMSD from reference structure       = 33.975 A
USER  
USER    Estimated Free Energy of Binding    =   +4.96 kcal/mol  [=(1)+(2)+(3)-(4)]
USER    
USER    (1) Final Intermolecular Energy     =   -2.20 kcal/mol
USER        vdW + Hbond + desolv Energy     =   -1.99 kcal/mol
USER        Electrostatic Energy            =   -0.21 kcal/mol
USER    (2) Final Total Internal Energy     =  -14.52 kcal/mol
USER    (3) Torsional Free Energy           =   +7.16 kcal/mol
USER    (4) Unbound System's Energy  [=(2)] =  -14.52 kcal/mol
USER    
USER    
USER  
USER    DPF = D:/Protein_go_brrr/autodock/final/2DN3/IHP/dock.dpf
USER    NEWDPF move	IHP_ideal_opt.pdbqt
USER    NEWDPF about	0.035000 0.082000 -0.065000
USER    NEWDPF tran0	1.463976 37.277966 -4.471334
USER    NEWDPF axisangle0	0.493650 -0.307728 -0.813396 -119.247373
USER    NEWDPF quaternion0	0.425883 -0.265484 -0.701735 -0.505677
USER    NEWDPF dihe0	70.86 89.04 5.91 67.65 -29.97 -148.31 -94.83 -102.85 50.32 -26.30 42.31 171.07 -33.80 -83.88 55.62 64.81 89.49 171.84 -168.18 11.77 5.52 -6.98 173.53 3.98 
USER  
USER                              x       y       z    vdW   Elec        q     RMS 
ATOM      1  C   UNL d   1       0.192  36.368  -5.205 -0.00 +0.05    +0.194    33.975
ATOM      2  C   UNL d   1       0.280  37.837  -5.623 +0.00 +0.05    +0.194    33.975
ATOM      3  C   UNL d   1       0.540  38.753  -4.425 -0.01 +0.09    +0.194    33.975
ATOM      4  C   UNL d   1       1.739  38.318  -3.585 -0.05 +0.12    +0.194    33.975
ATOM      5  C   UNL d   1       1.751  36.835  -3.242 -0.05 +0.10    +0.194    33.975
ATOM      6  C   UNL d   1       1.430  35.922  -4.427 -0.02 +0.05    +0.194    33.975
ATOM      7  O   UNL d   1       0.122  35.571  -6.389 -0.00 -0.04    -0.278    33.975
ATOM      8  P   UNL d   1       1.419  35.474  -7.317 -0.01 +0.07    +0.473    33.975
ATOM      9  O   UNL d   1       2.693  35.879  -6.664 -0.04 -0.04    -0.228    33.975
ATOM     10  O   UNL d   1       1.424  33.960  -7.819 -0.02 -0.04    -0.303    33.975
ATOM     11  H   UNL d   1       1.888  33.401  -7.168 +0.03 +0.03    +0.222    33.975
ATOM     12  O   UNL d   1       1.037  36.263  -8.643 -0.00 -0.04    -0.303    33.975
ATOM     13  H   UNL d   1       0.574  37.112  -8.466 +0.00 +0.03    +0.222    33.975
ATOM     14  O   UNL d   1       1.354  37.993  -6.558 +0.00 -0.05    -0.278    33.975
ATOM     15  P   UNL d   1       1.124  39.043  -7.745 +0.00 +0.07    +0.473    33.975
ATOM     16  O   UNL d   1      -0.291  39.265  -8.180 +0.00 -0.03    -0.228    33.975
ATOM     17  O   UNL d   1       1.826  40.375  -7.225 +0.00 -0.05    -0.303    33.975
ATOM     18  H   UNL d   1       1.198  40.931  -6.723 +0.00 +0.05    +0.222    33.975
ATOM     19  O   UNL d   1       2.128  38.578  -8.887 -0.00 -0.04    -0.303    33.975
ATOM     20  H   UNL d   1       2.546  37.723  -8.673 +0.01 +0.03    +0.222    33.975
ATOM     21  O   UNL d   1       1.144  34.633  -3.889 -0.02 -0.06    -0.278    33.975
ATOM     22  P   UNL d   1       2.288  33.522  -3.842 -0.05 +0.07    +0.473    33.975
ATOM     23  O   UNL d   1       3.213  33.511  -2.672 -0.11 -0.04    -0.228    33.975
ATOM     24  O   UNL d   1       1.451  32.184  -4.044 -0.05 -0.03    -0.303    33.975
ATOM     25  H   UNL d   1       1.265  31.799  -3.150 +0.04 +0.02    +0.222    33.975
ATOM     26  O   UNL d   1       2.975  33.702  -5.280 -0.09 -0.04    -0.303    33.975
ATOM     27  H   UNL d   1       3.000  34.654  -5.508 +0.03 +0.04    +0.222    33.975
ATOM     28  O   UNL d   1       0.880  40.036  -4.933 +0.00 -0.10    -0.278    33.975
ATOM     29  P   UNL d   1      -0.185  41.221  -4.902 +0.01 +0.16    +0.473    33.975
ATOM     30  O   UNL d   1      -1.034  41.288  -3.685 -0.00 -0.10    -0.228    33.975
ATOM     31  O   UNL d   1       0.778  42.468  -5.186 +0.01 -0.09    -0.303    33.975
ATOM     32  H   UNL d   1       1.596  42.362  -4.648 +0.02 +0.08    +0.222    33.975
ATOM     33  O   UNL d   1      -0.935  41.032  -6.294 +0.00 -0.06    -0.303    33.975
ATOM     34  H   UNL d   1      -0.264  40.855  -6.999 +0.00 +0.04    +0.222    33.975
ATOM     35  O   UNL d   1       3.087  36.542  -2.836 -0.06 -0.12    -0.278    33.975
ATOM     36  P   UNL d   1       4.311  36.867  -3.806 -0.06 +0.12    +0.473    33.975
ATOM     37  O   UNL d   1       5.477  37.553  -3.166 -0.08 -0.05    -0.228    33.975
ATOM     38  O   UNL d   1       4.645  35.429  -4.403 -0.10 -0.05    -0.303    33.975
ATOM     39  H   UNL d   1       4.266  34.741  -3.814 +0.06 +0.04    +0.222    33.975
ATOM     40  O   UNL d   1       3.600  37.625  -5.010 -0.02 -0.07    -0.303    33.975
ATOM     41  H   UNL d   1       3.016  37.025  -5.524 +0.02 +0.05    +0.222    33.975
ATOM     42  O   UNL d   1       1.661  39.036  -2.349 -0.10 -0.40    -0.278    33.975
ATOM     43  P   UNL d   1       2.690  40.226  -2.082 -0.05 +0.54    +0.473    33.975
ATOM     44  O   UNL d   1       3.211  40.385  -0.695 -1.23 -0.40    -0.228    33.975
ATOM     45  O   UNL d   1       3.818  39.964  -3.174 -0.08 -0.15    -0.303    33.975
ATOM     46  H   UNL d   1       3.910  39.010  -3.372 +0.05 +0.10    +0.222    33.975
ATOM     47  O   UNL d   1       1.938  41.504  -2.690 -0.05 -0.23    -0.303    33.975
ATOM     48  H   UNL d   1       1.151  41.207  -3.192 +0.03 +0.15    +0.222    33.975
TER
ENDMDL
MODEL       66
USER    Run = 66
USER    Cluster Rank = 74
USER    Number of conformations in this cluster = 1
USER  
USER    RMSD from reference structure       = 67.418 A
USER  
USER    Estimated Free Energy of Binding    =   +4.96 kcal/mol  [=(1)+(2)+(3)-(4)]
USER    
USER    (1) Final Intermolecular Energy     =   -2.20 kcal/mol
USER        vdW + Hbond + desolv Energy     =   -2.24 kcal/mol
USER        Electrostatic Energy            =   +0.04 kcal/mol
USER    (2) Final Total Internal Energy     =  -13.28 kcal/mol
USER    (3) Torsional Free Energy           =   +7.16 kcal/mol
USER    (4) Unbound System's Energy  [=(2)] =  -13.28 kcal/mol
USER    
USER    
USER  
USER    DPF = D:/Protein_go_brrr/autodock/final/2DN3/IHP/dock.dpf
USER    NEWDPF move	IHP_ideal_opt.pdbqt
USER    NEWDPF about	0.035000 0.082000 -0.065000
USER    NEWDPF tran0	48.129925 52.359773 9.593840
USER    NEWDPF axisangle0	0.567846 0.772188 0.285091 131.865785
USER    NEWDPF quaternion0	0.518482 0.705061 0.260308 0.407806
USER    NEWDPF dihe0	89.11 91.02 136.14 8.79 -68.24 99.29 -179.48 35.96 100.87 29.32 174.48 118.89 -38.04 74.46 -178.29 176.17 28.25 40.76 36.69 -26.92 179.78 30.61 -12.66 -14.38 
USER  
USER                              x       y       z    vdW   Elec        q     RMS 
ATOM      1  C   UNL d   1      46.888  53.344  10.281 -0.01 -0.02    +0.194    67.418
ATOM      2  C   UNL d   1      46.404  52.143   9.468 -0.09 -0.04    +0.194    67.418
ATOM      3  C   UNL d   1      47.201  51.978   8.172 -0.07 -0.04    +0.194    67.418
ATOM      4  C   UNL d   1      48.711  51.955   8.393 -0.02 -0.04    +0.194    67.418
ATOM      5  C   UNL d   1      49.224  53.071   9.295 -0.00 -0.02    +0.194    67.418
ATOM      6  C   UNL d   1      48.390  53.276  10.561 -0.00 -0.02    +0.194    67.418
ATOM      7  O   UNL d   1      46.218  53.327  11.544 -0.01 +0.03    -0.278    67.418
ATOM      8  P   UNL d   1      44.780  54.013  11.650 +0.01 -0.06    +0.473    67.418
ATOM      9  O   UNL d   1      44.135  54.331  10.347 -0.06 +0.06    -0.228    67.418
ATOM     10  O   UNL d   1      43.931  52.997  12.539 -0.04 +0.03    -0.303    67.418
ATOM     11  H   UNL d   1      43.773  52.176  12.037 +0.09 -0.03    +0.222    67.418
ATOM     12  O   UNL d   1      44.979  55.238  12.643 +0.00 +0.01    -0.303    67.418
ATOM     13  H   UNL d   1      45.782  55.769  12.444 +0.01 -0.00    +0.222    67.418
ATOM     14  O   UNL d   1      46.559  50.954  10.254 -0.12 +0.05    -0.278    67.418
ATOM     15  P   UNL d   1      45.224  50.333  10.883 -0.28 -0.05    +0.473    67.418
ATOM     16  O   UNL d   1      44.996  48.870  10.664 -0.52 -0.01    -0.228    67.418
ATOM     17  O   UNL d   1      45.306  50.721  12.426 -0.20 +0.04    -0.303    67.418
ATOM     18  H   UNL d   1      45.643  51.630  12.542 +0.08 -0.02    +0.222    67.418
ATOM     19  O   UNL d   1      44.062  51.292  10.373 -0.09 +0.09    -0.303    67.418
ATOM     20  H   UNL d   1      44.265  52.229  10.550 +0.06 -0.08    +0.222    67.418
ATOM     21  O   UNL d   1      48.772  54.537  11.106 +0.00 +0.01    -0.278    67.418
ATOM     22  P   UNL d   1      48.219  55.883  10.451 +0.00 -0.01    +0.473    67.418
ATOM     23  O   UNL d   1      49.088  57.094  10.489 +0.00 +0.00    -0.228    67.418
ATOM     24  O   UNL d   1      47.819  55.393   8.990 +0.00 +0.01    -0.303    67.418
ATOM     25  H   UNL d   1      48.163  56.056   8.339 +0.00 -0.01    +0.222    67.418
ATOM     26  O   UNL d   1      46.786  56.023  11.157 +0.00 +0.01    -0.303    67.418
ATOM     27  H   UNL d   1      46.169  55.373  10.763 +0.01 -0.01    +0.222    67.418
ATOM     28  O   UNL d   1      46.879  50.703   7.631 -0.17 +0.09    -0.278    67.418
ATOM     29  P   UNL d   1      46.711  50.516   6.058 -0.09 -0.18    +0.473    67.418
ATOM     30  O   UNL d   1      47.058  49.171   5.532 -0.20 +0.15    -0.228    67.418
ATOM     31  O   UNL d   1      45.194  50.995   5.881 -0.10 +0.09    -0.303    67.418
ATOM     32  H   UNL d   1      44.700  50.299   5.390 -0.36 -0.11    +0.222    67.418
ATOM     33  O   UNL d   1      47.539  51.749   5.485 -0.02 +0.06    -0.303    67.418
ATOM     34  H   UNL d   1      48.456  51.449   5.272 +0.03 -0.04    +0.222    67.418
ATOM     35  O   UNL d   1      50.526  52.665   9.710 +0.00 +0.03    -0.278    67.418
ATOM     36  P   UNL d   1      51.803  53.538   9.321 +0.00 -0.02    +0.473    67.418
ATOM     37  O   UNL d   1      51.947  54.833  10.056 +0.00 +0.00    -0.228    67.418
ATOM     38  O   UNL d   1      52.991  52.508   9.572 +0.00 +0.02    -0.303    67.418
ATOM     39  H   UNL d   1      52.669  51.597   9.398 +0.01 -0.02    +0.222    67.418
ATOM     40  O   UNL d   1      51.692  53.615   7.737 +0.00 +0.02    -0.303    67.418
ATOM     41  H   UNL d   1      51.028  52.980   7.387 +0.01 -0.02    +0.222    67.418
ATOM     42  O   UNL d   1      49.321  52.135   7.111 -0.01 +0.05    -0.278    67.418
ATOM     43  P   UNL d   1      50.388  51.063   6.606 -0.00 -0.11    +0.473    67.418
ATOM     44  O   UNL d   1      49.870  49.859   5.898 -0.06 +0.10    -0.228    67.418
ATOM     45  O   UNL d   1      51.389  51.947   5.740 +0.00 +0.03    -0.303    67.418
ATOM     46  H   UNL d   1      52.207  52.150   6.235 +0.00 -0.02    +0.222    67.418
ATOM     47  O   UNL d   1      51.263  50.772   7.917 -0.01 +0.08    -0.303    67.418
ATOM     48  H   UNL d   1      51.708  51.598   8.199 +0.01 -0.03    +0.222    67.418
TER
ENDMDL
MODEL        2
USER    Run = 2
USER    Cluster Rank = 75
USER    Number of conformations in this cluster = 1
USER  
USER    RMSD from reference structure       = 65.911 A
USER  
USER    Estimated Free Energy of Binding    =   +5.03 kcal/mol  [=(1)+(2)+(3)-(4)]
USER    
USER    (1) Final Intermolecular Energy     =   -2.13 kcal/mol
USER        vdW + Hbond + desolv Energy     =   -1.95 kcal/mol
USER        Electrostatic Energy            =   -0.18 kcal/mol
USER    (2) Final Total Internal Energy     =  -13.29 kcal/mol
USER    (3) Torsional Free Energy           =   +7.16 kcal/mol
USER    (4) Unbound System's Energy  [=(2)] =  -13.29 kcal/mol
USER    
USER    
USER  
USER    DPF = D:/Protein_go_brrr/autodock/final/2DN3/IHP/dock.dpf
USER    NEWDPF move	IHP_ideal_opt.pdbqt
USER    NEWDPF about	0.035000 0.082000 -0.065000
USER    NEWDPF tran0	56.340982 41.521293 6.772870
USER    NEWDPF axisangle0	0.646059 -0.265401 0.715660 -90.584162
USER    NEWDPF quaternion0	0.459156 -0.188621 0.508621 -0.703493
USER    NEWDPF dihe0	-147.17 -46.87 44.45 46.68 141.87 73.55 -122.37 -143.84 50.64 76.59 17.99 -107.98 86.01 166.40 180.00 -34.84 -78.87 -91.16 -39.49 -8.34 17.60 143.36 179.80 -125.11 
USER  
USER                              x       y       z    vdW   Elec        q     RMS 
ATOM      1  C   UNL d   1      57.805  41.484   7.689 +0.00 +0.00    +0.194    65.911
ATOM      2  C   UNL d   1      57.932  41.067   6.222 +0.00 +0.00    +0.194    65.911
ATOM      3  C   UNL d   1      56.783  40.153   5.792 +0.00 +0.01    +0.194    65.911
ATOM      4  C   UNL d   1      55.405  40.727   6.112 -0.01 +0.00    +0.194    65.911
ATOM      5  C   UNL d   1      55.270  41.261   7.532 -0.03 -0.01    +0.194    65.911
ATOM      6  C   UNL d   1      56.449  42.125   7.984 -0.01 -0.01    +0.194    65.911
ATOM      7  O   UNL d   1      58.809  42.465   7.962 +0.00 -0.00    -0.278    65.911
ATOM      8  P   UNL d   1      59.193  42.754   9.485 +0.00 +0.01    +0.473    65.911
ATOM      9  O   UNL d   1      60.650  42.904   9.751 +0.00 -0.01    -0.228    65.911
ATOM     10  O   UNL d   1      58.350  44.056   9.857 +0.00 -0.00    -0.303    65.911
ATOM     11  H   UNL d   1      57.405  43.897   9.672 +0.01 -0.00    +0.222    65.911
ATOM     12  O   UNL d   1      58.448  41.626  10.320 +0.00 -0.01    -0.303    65.911
ATOM     13  H   UNL d   1      57.557  41.901  10.631 +0.00 +0.00    +0.222    65.911
ATOM     14  O   UNL d   1      57.914  42.241   5.400 -0.00 -0.01    -0.278    65.911
ATOM     15  P   UNL d   1      59.170  42.454   4.430 +0.00 +0.02    +0.473    65.911
ATOM     16  O   UNL d   1      59.712  43.846   4.329 +0.00 -0.01    -0.228    65.911
ATOM     17  O   UNL d   1      60.250  41.408   4.958 +0.00 -0.01    -0.303    65.911
ATOM     18  H   UNL d   1      60.384  41.497   5.921 +0.00 +0.01    +0.222    65.911
ATOM     19  O   UNL d   1      58.727  41.789   3.055 +0.00 -0.01    -0.303    65.911
ATOM     20  H   UNL d   1      57.926  41.243   3.160 +0.00 +0.01    +0.222    65.911
ATOM     21  O   UNL d   1      56.346  42.254   9.400 -0.01 +0.01    -0.278    65.911
ATOM     22  P   UNL d   1      55.415  43.387  10.027 -0.03 -0.04    +0.473    65.911
ATOM     23  O   UNL d   1      55.799  43.964  11.348 -0.01 +0.01    -0.228    65.911
ATOM     24  O   UNL d   1      55.337  44.440   8.836 -0.03 +0.03    -0.303    65.911
ATOM     25  H   UNL d   1      54.720  44.083   8.149 +0.01 -0.04    +0.222    65.911
ATOM     26  O   UNL d   1      53.970  42.698   9.955 -0.10 +0.07    -0.303    65.911
ATOM     27  H   UNL d   1      53.483  43.051   9.182 -0.51 -0.11    +0.222    65.911
ATOM     28  O   UNL d   1      56.828  40.047   4.374 +0.00 -0.01    -0.278    65.911
ATOM     29  P   UNL d   1      55.755  40.808   3.476 +0.00 +0.02    +0.473    65.911
ATOM     30  O   UNL d   1      54.339  40.419   3.702 -0.00 -0.01    -0.228    65.911
ATOM     31  O   UNL d   1      56.150  42.326   3.795 -0.00 -0.00    -0.303    65.911
ATOM     32  H   UNL d   1      55.889  42.530   4.722 +0.01 -0.00    +0.222    65.911
ATOM     33  O   UNL d   1      56.335  40.594   2.009 +0.00 -0.02    -0.303    65.911
ATOM     34  H   UNL d   1      57.009  41.293   1.825 +0.00 +0.01    +0.222    65.911
ATOM     35  O   UNL d   1      54.115  42.098   7.522 -0.02 +0.07    -0.278    65.911
ATOM     36  P   UNL d   1      53.941  43.217   6.399 -0.03 -0.09    +0.473    65.911
ATOM     37  O   UNL d   1      55.205  43.873   5.941 -0.02 +0.02    -0.228    65.911
ATOM     38  O   UNL d   1      53.170  42.416   5.258 -0.06 +0.03    -0.303    65.911
ATOM     39  H   UNL d   1      53.293  41.453   5.403 +0.03 -0.01    +0.222    65.911
ATOM     40  O   UNL d   1      52.825  44.159   7.027 +0.08 +0.12    -0.303    65.911
ATOM     41  H   UNL d   1      52.910  44.223   8.004 -0.10 -0.12    +0.222    65.911
ATOM     42  O   UNL d   1      54.467  39.655   5.973 -0.01 -0.01    -0.278    65.911
ATOM     43  P   UNL d   1      53.529  39.287   7.210 -0.06 +0.03    +0.473    65.911
ATOM     44  O   UNL d   1      54.168  39.195   8.553 -0.05 +0.00    -0.228    65.911
ATOM     45  O   UNL d   1      52.375  40.378   7.111 -0.16 +0.03    -0.303    65.911
ATOM     46  H   UNL d   1      52.741  41.285   7.104 -0.37 -0.08    +0.222    65.911
ATOM     47  O   UNL d   1      52.771  37.965   6.713 -0.53 -0.13    -0.303    65.911
ATOM     48  H   UNL d   1      53.405  37.219   6.689 +0.05 +0.05    +0.222    65.911
TER
ENDMDL
MODEL        7
USER    Run = 7
USER    Cluster Rank = 76
USER    Number of conformations in this cluster = 1
USER  
USER    RMSD from reference structure       = 53.452 A
USER  
USER    Estimated Free Energy of Binding    =   +5.06 kcal/mol  [=(1)+(2)+(3)-(4)]
USER    
USER    (1) Final Intermolecular Energy     =   -2.10 kcal/mol
USER        vdW + Hbond + desolv Energy     =   -1.93 kcal/mol
USER        Electrostatic Energy            =   -0.17 kcal/mol
USER    (2) Final Total Internal Energy     =  -13.52 kcal/mol
USER    (3) Torsional Free Energy           =   +7.16 kcal/mol
USER    (4) Unbound System's Energy  [=(2)] =  -13.52 kcal/mol
USER    
USER    
USER  
USER    DPF = D:/Protein_go_brrr/autodock/final/2DN3/IHP/dock.dpf
USER    NEWDPF move	IHP_ideal_opt.pdbqt
USER    NEWDPF about	0.035000 0.082000 -0.065000
USER    NEWDPF tran0	54.232455 21.019654 2.832540
USER    NEWDPF axisangle0	-0.031871 0.947937 -0.316858 152.337588
USER    NEWDPF quaternion0	-0.030947 0.920451 -0.307670 0.239062
USER    NEWDPF dihe0	56.43 93.53 80.24 76.45 148.93 115.36 -84.81 15.25 76.98 64.82 108.79 -100.74 -30.60 140.49 104.44 -8.59 150.70 100.21 38.34 -7.03 -38.07 4.42 -7.98 172.02 
USER  
USER                              x       y       z    vdW   Elec        q     RMS 
ATOM      1  C   UNL d   1      52.973  19.955   3.347 +0.01 +0.08    +0.194    53.452
ATOM      2  C   UNL d   1      54.396  19.406   3.474 +0.01 +0.06    +0.194    53.452
ATOM      3  C   UNL d   1      55.240  19.730   2.240 +0.01 +0.05    +0.194    53.452
ATOM      4  C   UNL d   1      55.223  21.211   1.871 +0.01 +0.06    +0.194    53.452
ATOM      5  C   UNL d   1      53.831  21.828   1.845 -0.02 +0.09    +0.194    53.452
ATOM      6  C   UNL d   1      52.965  21.455   3.049 -0.03 +0.11    +0.194    53.452
ATOM      7  O   UNL d   1      52.308  19.765   4.598 -0.00 -0.13    -0.278    53.452
ATOM      8  P   UNL d   1      51.627  18.349   4.889 +0.01 +0.20    +0.473    53.452
ATOM      9  O   UNL d   1      52.146  17.220   4.071 +0.00 -0.07    -0.228    53.452
ATOM     10  O   UNL d   1      51.832  18.136   6.456 +0.00 -0.11    -0.303    53.452
ATOM     11  H   UNL d   1      52.574  17.522   6.608 +0.01 +0.06    +0.222    53.452
ATOM     12  O   UNL d   1      50.064  18.616   4.791 -0.23 -0.24    -0.303    53.452
ATOM     13  H   UNL d   1      49.808  19.116   3.983 +0.02 +0.22    +0.222    53.452
ATOM     14  O   UNL d   1      55.021  19.994   4.622 +0.00 -0.08    -0.278    53.452
ATOM     15  P   UNL d   1      55.610  18.980   5.713 +0.00 +0.11    +0.473    53.452
ATOM     16  O   UNL d   1      55.924  19.551   7.060 +0.00 -0.05    -0.228    53.452
ATOM     17  O   UNL d   1      54.531  17.809   5.776 +0.00 -0.07    -0.303    53.452
ATOM     18  H   UNL d   1      53.692  18.081   5.358 +0.00 +0.06    +0.222    53.452
ATOM     19  O   UNL d   1      56.820  18.260   4.974 +0.00 -0.05    -0.303    53.452
ATOM     20  H   UNL d   1      57.097  18.748   4.177 +0.00 +0.04    +0.222    53.452
ATOM     21  O   UNL d   1      51.624  21.808   2.718 -0.06 -0.20    -0.278    53.452
ATOM     22  P   UNL d   1      50.678  22.456   3.828 -0.16 +0.50    +0.473    53.452
ATOM     23  O   UNL d   1      49.861  23.645   3.451 -0.76 -0.33    -0.228    53.452
ATOM     24  O   UNL d   1      49.838  21.195   4.315 -0.06 -0.34    -0.303    53.452
ATOM     25  H   UNL d   1      50.378  20.705   4.986 +0.06 +0.19    +0.222    53.452
ATOM     26  O   UNL d   1      51.701  22.663   5.046 -0.43 -0.33    -0.303    53.452
ATOM     27  H   UNL d   1      52.083  21.797   5.295 +0.06 +0.16    +0.222    53.452
ATOM     28  O   UNL d   1      56.594  19.436   2.559 +0.00 -0.06    -0.278    53.452
ATOM     29  P   UNL d   1      57.366  18.271   1.793 +0.00 +0.07    +0.473    53.452
ATOM     30  O   UNL d   1      56.540  17.097   1.413 +0.00 -0.03    -0.228    53.452
ATOM     31  O   UNL d   1      58.027  19.111   0.601 +0.00 -0.04    -0.303    53.452
ATOM     32  H   UNL d   1      57.415  19.844   0.357 +0.00 +0.04    +0.222    53.452
ATOM     33  O   UNL d   1      58.603  17.999   2.759 +0.00 -0.04    -0.303    53.452
ATOM     34  H   UNL d   1      58.285  17.510   3.557 +0.00 +0.03    +0.222    53.452
ATOM     35  O   UNL d   1      54.032  23.239   1.894 -0.07 -0.18    -0.278    53.452
ATOM     36  P   UNL d   1      53.449  24.176   0.742 -0.09 +0.31    +0.473    53.452
ATOM     37  O   UNL d   1      54.003  25.564   0.697 -0.14 -0.17    -0.228    53.452
ATOM     38  O   UNL d   1      53.744  23.311  -0.562 -0.02 -0.11    -0.303    53.452
ATOM     39  H   UNL d   1      54.084  22.430  -0.294 +0.02 +0.07    +0.222    53.452
ATOM     40  O   UNL d   1      51.879  24.032   0.949 -0.17 -0.26    -0.303    53.452
ATOM     41  H   UNL d   1      51.656  23.758   1.866 +0.06 +0.24    +0.222    53.452
ATOM     42  O   UNL d   1      55.755  21.314   0.546 +0.00 -0.07    -0.278    53.452
ATOM     43  P   UNL d   1      55.003  20.569  -0.647 +0.01 +0.10    +0.473    53.452
ATOM     44  O   UNL d   1      55.018  21.225  -1.984 -0.00 -0.04    -0.228    53.452
ATOM     45  O   UNL d   1      55.662  19.121  -0.625 +0.00 -0.05    -0.303    53.452
ATOM     46  H   UNL d   1      55.862  18.833   0.288 +0.00 +0.04    +0.222    53.452
ATOM     47  O   UNL d   1      53.550  20.275  -0.037 +0.00 -0.08    -0.303    53.452
ATOM     48  H   UNL d   1      53.016  21.096  -0.066 +0.02 +0.07    +0.222    53.452
TER
ENDMDL
MODEL       17
USER    Run = 17
USER    Cluster Rank = 77
USER    Number of conformations in this cluster = 1
USER  
USER    RMSD from reference structure       = 50.670 A
USER  
USER    Estimated Free Energy of Binding    =   +5.09 kcal/mol  [=(1)+(2)+(3)-(4)]
USER    
USER    (1) Final Intermolecular Energy     =   -2.07 kcal/mol
USER        vdW + Hbond + desolv Energy     =   -2.05 kcal/mol
USER        Electrostatic Energy            =   -0.02 kcal/mol
USER    (2) Final Total Internal Energy     =  -13.20 kcal/mol
USER    (3) Torsional Free Energy           =   +7.16 kcal/mol
USER    (4) Unbound System's Energy  [=(2)] =  -13.20 kcal/mol
USER    
USER    
USER  
USER    DPF = D:/Protein_go_brrr/autodock/final/2DN3/IHP/dock.dpf
USER    NEWDPF move	IHP_ideal_opt.pdbqt
USER    NEWDPF about	0.035000 0.082000 -0.065000
USER    NEWDPF tran0	14.431604 44.669365 26.701399
USER    NEWDPF axisangle0	0.486550 -0.824645 0.288497 129.233535
USER    NEWDPF quaternion0	0.439579 -0.745034 0.260646 0.428671
USER    NEWDPF dihe0	104.14 173.61 156.02 13.88 -52.29 99.97 -26.54 -101.96 9.34 -180.00 102.79 176.24 171.48 -142.37 -108.40 -48.02 -82.86 -2.32 -7.98 5.64 137.88 139.84 179.99 142.55 
USER  
USER                              x       y       z    vdW   Elec        q     RMS 
ATOM      1  C   UNL d   1      15.193  43.135  26.475 -0.06 -0.03    +0.194    50.670
ATOM      2  C   UNL d   1      15.527  43.852  27.785 -0.02 -0.02    +0.194    50.670
ATOM      3  C   UNL d   1      15.785  45.344  27.564 -0.03 -0.01    +0.194    50.670
ATOM      4  C   UNL d   1      14.665  46.040  26.794 -0.02 -0.01    +0.194    50.670
ATOM      5  C   UNL d   1      14.221  45.300  25.540 -0.03 -0.02    +0.194    50.670
ATOM      6  C   UNL d   1      14.023  43.796  25.745 -0.04 -0.03    +0.194    50.670
ATOM      7  O   UNL d   1      14.799  41.797  26.787 -0.05 +0.05    -0.278    50.670
ATOM      8  P   UNL d   1      15.479  40.598  25.979 -0.17 -0.13    +0.473    50.670
ATOM      9  O   UNL d   1      14.547  39.525  25.539 -0.16 +0.11    -0.228    50.670
ATOM     10  O   UNL d   1      16.222  41.321  24.766 -0.28 +0.11    -0.303    50.670
ATOM     11  H   UNL d   1      15.589  41.884  24.284 +0.04 -0.08    +0.222    50.670
ATOM     12  O   UNL d   1      16.699  40.130  26.884 -0.18 +0.04    -0.303    50.670
ATOM     13  H   UNL d   1      16.703  39.161  27.054 +0.06 -0.03    +0.222    50.670
ATOM     14  O   UNL d   1      14.425  43.708  28.690 -0.00 +0.02    -0.278    50.670
ATOM     15  P   UNL d   1      14.789  43.374  30.213 +0.00 -0.02    +0.473    50.670
ATOM     16  O   UNL d   1      14.959  41.928  30.562 -0.00 +0.01    -0.228    50.670
ATOM     17  O   UNL d   1      16.099  44.235  30.496 -0.00 +0.01    -0.303    50.670
ATOM     18  H   UNL d   1      15.925  45.189  30.376 +0.00 -0.01    +0.222    50.670
ATOM     19  O   UNL d   1      13.699  44.161  31.063 +0.00 +0.01    -0.303    50.670
ATOM     20  H   UNL d   1      13.583  45.075  30.743 +0.00 -0.01    +0.222    50.670
ATOM     21  O   UNL d   1      13.953  43.208  24.448 -0.08 +0.06    -0.278    50.670
ATOM     22  P   UNL d   1      14.847  43.794  23.264 -0.16 -0.10    +0.473    50.670
ATOM     23  O   UNL d   1      14.395  45.046  22.592 -0.11 +0.04    -0.228    50.670
ATOM     24  O   UNL d   1      16.279  43.885  23.953 -0.01 +0.05    -0.303    50.670
ATOM     25  H   UNL d   1      16.559  44.836  23.958 +0.09 -0.02    +0.222    50.670
ATOM     26  O   UNL d   1      15.016  42.510  22.319 -0.25 +0.12    -0.303    50.670
ATOM     27  H   UNL d   1      15.647  41.886  22.733 -0.37 -0.17    +0.222    50.670
ATOM     28  O   UNL d   1      15.808  45.968  28.842 -0.01 +0.01    -0.278    50.670
ATOM     29  P   UNL d   1      14.624  46.936  29.287 -0.00 -0.02    +0.473    50.670
ATOM     30  O   UNL d   1      14.612  48.273  28.639 -0.00 +0.01    -0.228    50.670
ATOM     31  O   UNL d   1      13.367  45.984  29.011 -0.00 +0.02    -0.303    50.670
ATOM     32  H   UNL d   1      13.666  45.047  29.062 +0.00 -0.01    +0.222    50.670
ATOM     33  O   UNL d   1      14.747  46.906  30.874 -0.00 +0.01    -0.303    50.670
ATOM     34  H   UNL d   1      14.907  45.975  31.166 +0.00 -0.01    +0.222    50.670
ATOM     35  O   UNL d   1      12.950  45.848  25.196 -0.01 +0.03    -0.278    50.670
ATOM     36  P   UNL d   1      11.808  45.985  26.301 +0.00 -0.04    +0.473    50.670
ATOM     37  O   UNL d   1      11.716  44.855  27.277 -0.00 +0.02    -0.228    50.670
ATOM     38  O   UNL d   1      12.159  47.392  26.960 -0.00 +0.02    -0.303    50.670
ATOM     39  H   UNL d   1      13.059  47.348  27.349 +0.00 -0.01    +0.222    50.670
ATOM     40  O   UNL d   1      10.518  46.286  25.421 -0.00 +0.03    -0.303    50.670
ATOM     41  H   UNL d   1       9.732  45.791  25.746 +0.00 -0.02    +0.222    50.670
ATOM     42  O   UNL d   1      15.178  47.309  26.375 -0.01 +0.02    -0.278    50.670
ATOM     43  P   UNL d   1      16.735  47.444  26.052 -0.05 -0.03    +0.473    50.670
ATOM     44  O   UNL d   1      17.369  46.352  25.261 -0.14 +0.01    -0.228    50.670
ATOM     45  O   UNL d   1      16.827  48.879  25.371 -0.04 +0.02    -0.303    50.670
ATOM     46  H   UNL d   1      16.136  49.482  25.711 +0.02 -0.01    +0.222    50.670
ATOM     47  O   UNL d   1      17.384  47.723  27.490 -0.02 +0.02    -0.303    50.670
ATOM     48  H   UNL d   1      16.670  47.813  28.155 +0.01 -0.01    +0.222    50.670
TER
ENDMDL
MODEL       60
USER    Run = 60
USER    Cluster Rank = 78
USER    Number of conformations in this cluster = 1
USER  
USER    RMSD from reference structure       = 64.406 A
USER  
USER    Estimated Free Energy of Binding    =   +5.15 kcal/mol  [=(1)+(2)+(3)-(4)]
USER    
USER    (1) Final Intermolecular Energy     =   -2.01 kcal/mol
USER        vdW + Hbond + desolv Energy     =   -1.94 kcal/mol
USER        Electrostatic Energy            =   -0.06 kcal/mol
USER    (2) Final Total Internal Energy     =  -15.38 kcal/mol
USER    (3) Torsional Free Energy           =   +7.16 kcal/mol
USER    (4) Unbound System's Energy  [=(2)] =  -15.38 kcal/mol
USER    
USER    
USER  
USER    DPF = D:/Protein_go_brrr/autodock/final/2DN3/IHP/dock.dpf
USER    NEWDPF move	IHP_ideal_opt.pdbqt
USER    NEWDPF about	0.035000 0.082000 -0.065000
USER    NEWDPF tran0	54.821017 38.916400 14.176527
USER    NEWDPF axisangle0	0.055510 -0.615858 -0.785899 -156.873425
USER    NEWDPF quaternion0	0.054384 -0.603358 -0.769949 -0.200450
USER    NEWDPF dihe0	121.07 -154.34 176.44 5.13 17.58 157.84 -73.25 -3.19 -19.00 90.92 102.39 -155.24 -84.68 173.84 180.00 -4.89 -10.28 125.65 59.48 17.05 -19.13 -3.75 171.27 -1.50 
USER  
USER                              x       y       z    vdW   Elec        q     RMS 
ATOM      1  C   UNL d   1      53.203  39.335  13.741 -0.02 +0.00    +0.194    64.406
ATOM      2  C   UNL d   1      54.268  39.622  12.681 -0.01 +0.00    +0.194    64.406
ATOM      3  C   UNL d   1      55.525  40.241  13.294 -0.00 +0.00    +0.194    64.406
ATOM      4  C   UNL d   1      56.080  39.438  14.468 -0.00 +0.01    +0.194    64.406
ATOM      5  C   UNL d   1      55.030  39.032  15.493 -0.00 +0.01    +0.194    64.406
ATOM      6  C   UNL d   1      53.748  38.469  14.877 -0.01 +0.01    +0.194    64.406
ATOM      7  O   UNL d   1      52.141  38.606  13.121 -0.08 -0.01    -0.278    64.406
ATOM      8  P   UNL d   1      51.315  39.314  11.951 -0.17 -0.03    +0.473    64.406
ATOM      9  O   UNL d   1      51.154  40.787  12.095 -0.23 +0.05    -0.228    64.406
ATOM     10  O   UNL d   1      52.090  38.894  10.621 -0.18 +0.00    -0.303    64.406
ATOM     11  H   UNL d   1      53.049  38.869  10.796 +0.07 -0.00    +0.222    64.406
ATOM     12  O   UNL d   1      49.970  38.478  11.830 -0.81 -0.04    -0.303    64.406
ATOM     13  H   UNL d   1      49.250  38.970  11.375 -0.43 -0.03    +0.222    64.406
ATOM     14  O   UNL d   1      54.631  38.392  12.039 -0.01 -0.01    -0.278    64.406
ATOM     15  P   UNL d   1      55.071  38.489  10.503 +0.01 +0.01    +0.473    64.406
ATOM     16  O   UNL d   1      54.419  37.532   9.555 -0.04 -0.00    -0.228    64.406
ATOM     17  O   UNL d   1      54.808  40.013  10.120 -0.02 +0.01    -0.303    64.406
ATOM     18  H   UNL d   1      55.539  40.584  10.426 +0.02 -0.01    +0.222    64.406
ATOM     19  O   UNL d   1      56.661  38.440  10.542 +0.00 -0.01    -0.303    64.406
ATOM     20  H   UNL d   1      57.028  39.128  11.127 +0.00 +0.01    +0.222    64.406
ATOM     21  O   UNL d   1      52.763  38.464  15.908 -0.01 -0.02    -0.278    64.406
ATOM     22  P   UNL d   1      52.063  37.093  16.328 -0.01 +0.04    +0.473    64.406
ATOM     23  O   UNL d   1      50.663  37.143  16.838 -0.03 -0.02    -0.228    64.406
ATOM     24  O   UNL d   1      52.265  36.210  15.018 -0.02 -0.04    -0.303    64.406
ATOM     25  H   UNL d   1      51.985  36.751  14.236 +0.05 +0.03    +0.222    64.406
ATOM     26  O   UNL d   1      53.152  36.463  17.322 -0.01 -0.03    -0.303    64.406
ATOM     27  H   UNL d   1      54.006  36.924  17.198 +0.00 +0.02    +0.222    64.406
ATOM     28  O   UNL d   1      56.544  40.213  12.302 +0.00 -0.01    -0.278    64.406
ATOM     29  P   UNL d   1      56.995  41.556  11.574 +0.00 +0.00    +0.473    64.406
ATOM     30  O   UNL d   1      55.937  42.587  11.418 -0.01 +0.01    -0.228    64.406
ATOM     31  O   UNL d   1      58.263  41.946  12.470 +0.00 -0.01    -0.303    64.406
ATOM     32  H   UNL d   1      58.180  41.499  13.343 +0.00 +0.01    +0.222    64.406
ATOM     33  O   UNL d   1      57.664  41.003  10.239 +0.00 -0.00    -0.303    64.406
ATOM     34  H   UNL d   1      57.009  40.437   9.762 +0.01 +0.00    +0.222    64.406
ATOM     35  O   UNL d   1      55.622  37.985  16.260 -0.00 -0.02    -0.278    64.406
ATOM     36  P   UNL d   1      56.136  36.655  15.543 -0.00 +0.03    +0.473    64.406
ATOM     37  O   UNL d   1      56.697  36.838  14.169 -0.00 -0.01    -0.228    64.406
ATOM     38  O   UNL d   1      57.179  36.094  16.607 -0.00 -0.02    -0.303    64.406
ATOM     39  H   UNL d   1      58.064  36.475  16.421 +0.00 +0.01    +0.222    64.406
ATOM     40  O   UNL d   1      54.883  35.686  15.688 -0.01 -0.02    -0.303    64.406
ATOM     41  H   UNL d   1      54.050  36.123  15.403 +0.01 +0.02    +0.222    64.406
ATOM     42  O   UNL d   1      57.021  40.283  15.140 +0.00 -0.01    -0.278    64.406
ATOM     43  P   UNL d   1      58.568  39.897  15.103 +0.00 +0.02    +0.473    64.406
ATOM     44  O   UNL d   1      59.537  40.893  15.639 +0.00 -0.01    -0.228    64.406
ATOM     45  O   UNL d   1      58.596  38.493  15.852 +0.00 -0.02    -0.303    64.406
ATOM     46  H   UNL d   1      57.755  38.008  15.734 +0.00 +0.01    +0.222    64.406
ATOM     47  O   UNL d   1      58.800  39.458  13.579 +0.00 -0.01    -0.303    64.406
ATOM     48  H   UNL d   1      58.117  39.877  13.015 +0.00 +0.01    +0.222    64.406
TER
ENDMDL
MODEL       38
USER    Run = 38
USER    Cluster Rank = 79
USER    Number of conformations in this cluster = 1
USER  
USER    RMSD from reference structure       = 21.192 A
USER  
USER    Estimated Free Energy of Binding    =   +5.24 kcal/mol  [=(1)+(2)+(3)-(4)]
USER    
USER    (1) Final Intermolecular Energy     =   -1.92 kcal/mol
USER        vdW + Hbond + desolv Energy     =   -1.75 kcal/mol
USER        Electrostatic Energy            =   -0.17 kcal/mol
USER    (2) Final Total Internal Energy     =  -13.41 kcal/mol
USER    (3) Torsional Free Energy           =   +7.16 kcal/mol
USER    (4) Unbound System's Energy  [=(2)] =  -13.41 kcal/mol
USER    
USER    
USER  
USER    DPF = D:/Protein_go_brrr/autodock/final/2DN3/IHP/dock.dpf
USER    NEWDPF move	IHP_ideal_opt.pdbqt
USER    NEWDPF about	0.035000 0.082000 -0.065000
USER    NEWDPF tran0	-1.954995 17.741770 15.388457
USER    NEWDPF axisangle0	-0.359879 0.579607 0.731125 167.968132
USER    NEWDPF quaternion0	-0.357897 0.576415 0.727098 0.104805
USER    NEWDPF dihe0	129.70 138.58 171.41 -43.11 0.58 -160.28 -120.57 -6.87 89.05 -7.88 -26.43 180.00 -92.67 174.65 172.58 166.85 -180.00 160.25 -129.78 17.23 180.00 15.13 18.34 -179.75 
USER  
USER                              x       y       z    vdW   Elec        q     RMS 
ATOM      1  C   UNL d   1      -3.136  17.916  14.140 -0.00 -0.01    +0.194    21.192
ATOM      2  C   UNL d   1      -1.789  18.591  13.875 -0.02 -0.01    +0.194    21.192
ATOM      3  C   UNL d   1      -1.265  19.317  15.116 -0.02 -0.01    +0.194    21.192
ATOM      4  C   UNL d   1      -1.233  18.432  16.360 -0.01 -0.01    +0.194    21.192
ATOM      5  C   UNL d   1      -2.518  17.650  16.599 -0.00 -0.00    +0.194    21.192
ATOM      6  C   UNL d   1      -3.075  16.976  15.344 +0.00 -0.00    +0.194    21.192
ATOM      7  O   UNL d   1      -3.470  17.124  12.997 -0.00 +0.01    -0.278    21.192
ATOM      8  P   UNL d   1      -3.377  15.534  13.122 +0.00 -0.01    +0.473    21.192
ATOM      9  O   UNL d   1      -2.195  15.028  13.872 -0.00 +0.00    -0.228    21.192
ATOM     10  O   UNL d   1      -4.767  15.117  13.785 +0.00 +0.00    -0.303    21.192
ATOM     11  H   UNL d   1      -5.101  15.851  14.334 +0.00 -0.00    +0.222    21.192
ATOM     12  O   UNL d   1      -3.540  14.993  11.638 +0.00 +0.00    -0.303    21.192
ATOM     13  H   UNL d   1      -2.680  14.854  11.181 +0.00 -0.00    +0.222    21.192
ATOM     14  O   UNL d   1      -0.834  17.594  13.491 -0.02 +0.02    -0.278    21.192
ATOM     15  P   UNL d   1       0.316  18.057  12.477 -0.09 -0.08    +0.473    21.192
ATOM     16  O   UNL d   1       0.535  17.196  11.272 -0.10 +0.02    -0.228    21.192
ATOM     17  O   UNL d   1      -0.077  19.555  12.103 -0.19 +0.09    -0.303    21.192
ATOM     18  H   UNL d   1       0.135  20.167  12.833 -0.08 -0.08    +0.222    21.192
ATOM     19  O   UNL d   1       1.592  18.283  13.400 -0.11 +0.08    -0.303    21.192
ATOM     20  H   UNL d   1       1.754  19.230  13.565 -0.43 -0.13    +0.222    21.192
ATOM     21  O   UNL d   1      -4.415  16.592  15.643 +0.00 +0.00    -0.278    21.192
ATOM     22  P   UNL d   1      -5.574  17.688  15.635 +0.00 -0.00    +0.473    21.192
ATOM     23  O   UNL d   1      -6.811  17.412  16.420 +0.00 +0.00    -0.228    21.192
ATOM     24  O   UNL d   1      -4.784  18.999  16.072 +0.00 +0.01    -0.303    21.192
ATOM     25  H   UNL d   1      -4.471  18.873  17.004 +0.00 -0.00    +0.222    21.192
ATOM     26  O   UNL d   1      -5.778  17.934  14.064 +0.00 +0.00    -0.303    21.192
ATOM     27  H   UNL d   1      -5.498  17.134  13.574 +0.00 -0.00    +0.222    21.192
ATOM     28  O   UNL d   1       0.090  19.668  14.867 -0.06 +0.04    -0.278    21.192
ATOM     29  P   UNL d   1       0.572  21.177  15.025 -0.03 -0.08    +0.473    21.192
ATOM     30  O   UNL d   1       1.917  21.361  15.629 -0.17 +0.04    -0.228    21.192
ATOM     31  O   UNL d   1       0.375  21.692  13.522 -0.05 +0.09    -0.303    21.192
ATOM     32  H   UNL d   1       1.041  21.248  12.948 -0.36 -0.15    +0.222    21.192
ATOM     33  O   UNL d   1      -0.657  21.842  15.788 -0.04 +0.02    -0.303    21.192
ATOM     34  H   UNL d   1      -0.864  21.305  16.592 +0.02 -0.01    +0.222    21.192
ATOM     35  O   UNL d   1      -2.175  16.613  17.516 -0.00 +0.00    -0.278    21.192
ATOM     36  P   UNL d   1      -3.254  16.069  18.556 +0.00 +0.00    +0.473    21.192
ATOM     37  O   UNL d   1      -2.762  15.875  19.955 +0.00 -0.00    -0.228    21.192
ATOM     38  O   UNL d   1      -4.417  17.148  18.414 +0.00 +0.00    -0.303    21.192
ATOM     39  H   UNL d   1      -4.305  17.631  17.567 +0.00 -0.00    +0.222    21.192
ATOM     40  O   UNL d   1      -3.829  14.787  17.810 +0.00 -0.00    -0.303    21.192
ATOM     41  H   UNL d   1      -4.084  14.990  16.882 +0.00 +0.00    +0.222    21.192
ATOM     42  O   UNL d   1      -1.054  19.303  17.483 -0.00 +0.01    -0.278    21.192
ATOM     43  P   UNL d   1      -2.245  20.279  17.898 +0.00 -0.01    +0.473    21.192
ATOM     44  O   UNL d   1      -1.886  21.532  18.620 -0.00 +0.00    -0.228    21.192
ATOM     45  O   UNL d   1      -2.999  20.517  16.517 -0.00 +0.01    -0.303    21.192
ATOM     46  H   UNL d   1      -2.743  21.370  16.112 +0.01 -0.01    +0.222    21.192
ATOM     47  O   UNL d   1      -3.266  19.308  18.663 +0.00 +0.00    -0.303    21.192
ATOM     48  H   UNL d   1      -2.908  18.397  18.659 +0.00 -0.00    +0.222    21.192
TER
ENDMDL
MODEL       76
USER    Run = 76
USER    Cluster Rank = 80
USER    Number of conformations in this cluster = 1
USER  
USER    RMSD from reference structure       = 63.510 A
USER  
USER    Estimated Free Energy of Binding    =   +5.32 kcal/mol  [=(1)+(2)+(3)-(4)]
USER    
USER    (1) Final Intermolecular Energy     =   -1.84 kcal/mol
USER        vdW + Hbond + desolv Energy     =   -1.78 kcal/mol
USER        Electrostatic Energy            =   -0.06 kcal/mol
USER    (2) Final Total Internal Energy     =  -15.59 kcal/mol
USER    (3) Torsional Free Energy           =   +7.16 kcal/mol
USER    (4) Unbound System's Energy  [=(2)] =  -15.59 kcal/mol
USER    
USER    
USER  
USER    DPF = D:/Protein_go_brrr/autodock/final/2DN3/IHP/dock.dpf
USER    NEWDPF move	IHP_ideal_opt.pdbqt
USER    NEWDPF about	0.035000 0.082000 -0.065000
USER    NEWDPF tran0	29.186515 59.265560 14.251128
USER    NEWDPF axisangle0	0.661168 0.013082 0.750124 -143.392052
USER    NEWDPF quaternion0	0.627715 0.012420 0.712171 -0.314058
USER    NEWDPF dihe0	-170.98 -20.10 99.38 92.67 8.37 -141.25 -124.16 -21.87 82.34 89.40 158.13 138.81 66.07 106.20 -45.07 -153.81 109.78 38.23 -21.72 -5.64 -11.99 5.93 -6.86 -7.48 
USER  
USER                              x       y       z    vdW   Elec        q     RMS 
ATOM      1  C   UNL d   1      30.265  60.260  15.163 -0.01 +0.01    +0.194    63.510
ATOM      2  C   UNL d   1      30.298  60.467  13.648 -0.01 +0.01    +0.194    63.510
ATOM      3  C   UNL d   1      30.269  59.135  12.894 -0.06 +0.02    +0.194    63.510
ATOM      4  C   UNL d   1      29.124  58.223  13.328 -0.07 +0.02    +0.194    63.510
ATOM      5  C   UNL d   1      28.983  58.080  14.838 -0.05 +0.01    +0.194    63.510
ATOM      6  C   UNL d   1      29.073  59.405  15.597 -0.02 +0.01    +0.194    63.510
ATOM      7  O   UNL d   1      30.120  61.540  15.785 -0.00 -0.01    -0.278    63.510
ATOM      8  P   UNL d   1      30.872  61.800  17.170 +0.00 +0.02    +0.473    63.510
ATOM      9  O   UNL d   1      31.894  62.882  17.139 -0.00 -0.01    -0.228    63.510
ATOM     10  O   UNL d   1      29.691  62.081  18.204 -0.00 -0.01    -0.303    63.510
ATOM     11  H   UNL d   1      28.899  61.577  17.941 +0.00 +0.01    +0.222    63.510
ATOM     12  O   UNL d   1      31.388  60.372  17.635 -0.00 -0.02    -0.303    63.510
ATOM     13  H   UNL d   1      30.658  59.747  17.843 +0.01 +0.01    +0.222    63.510
ATOM     14  O   UNL d   1      29.154  61.237  13.257 -0.00 -0.01    -0.278    63.510
ATOM     15  P   UNL d   1      29.442  62.563  12.406 +0.00 +0.02    +0.473    63.510
ATOM     16  O   UNL d   1      28.289  63.135  11.643 +0.00 -0.01    -0.228    63.510
ATOM     17  O   UNL d   1      30.046  63.583  13.470 +0.00 -0.01    -0.303    63.510
ATOM     18  H   UNL d   1      30.150  63.160  14.343 +0.00 +0.01    +0.222    63.510
ATOM     19  O   UNL d   1      30.728  62.207  11.540 +0.00 -0.01    -0.303    63.510
ATOM     20  H   UNL d   1      30.747  61.264  11.293 +0.01 +0.01    +0.222    63.510
ATOM     21  O   UNL d   1      29.269  59.081  16.971 -0.01 -0.02    -0.278    63.510
ATOM     22  P   UNL d   1      28.140  59.442  18.039 -0.00 +0.02    +0.473    63.510
ATOM     23  O   UNL d   1      27.071  60.400  17.637 -0.00 -0.01    -0.228    63.510
ATOM     24  O   UNL d   1      27.619  57.999  18.462 -0.00 -0.02    -0.303    63.510
ATOM     25  H   UNL d   1      27.305  57.533  17.645 +0.01 +0.01    +0.222    63.510
ATOM     26  O   UNL d   1      29.019  59.863  19.312 -0.00 -0.02    -0.303    63.510
ATOM     27  H   UNL d   1      29.748  60.447  19.021 +0.00 +0.01    +0.222    63.510
ATOM     28  O   UNL d   1      30.023  59.424  11.524 -0.02 -0.02    -0.278    63.510
ATOM     29  P   UNL d   1      31.115  59.074  10.419 -0.05 +0.06    +0.473    63.510
ATOM     30  O   UNL d   1      30.750  59.427   9.023 -0.04 -0.02    -0.228    63.510
ATOM     31  O   UNL d   1      32.390  59.812  11.044 -0.02 -0.03    -0.303    63.510
ATOM     32  H   UNL d   1      32.273  60.784  10.939 +0.02 +0.02    +0.222    63.510
ATOM     33  O   UNL d   1      31.414  57.540  10.719 -0.37 -0.07    -0.303    63.510
ATOM     34  H   UNL d   1      30.571  57.093  10.979 +0.08 +0.05    +0.222    63.510
ATOM     35  O   UNL d   1      27.673  57.560  15.056 -0.03 -0.01    -0.278    63.510
ATOM     36  P   UNL d   1      27.472  56.203  15.872 -0.04 +0.01    +0.473    63.510
ATOM     37  O   UNL d   1      26.150  56.052  16.555 -0.02 -0.00    -0.228    63.510
ATOM     38  O   UNL d   1      27.761  55.106  14.755 -0.14 +0.02    -0.303    63.510
ATOM     39  H   UNL d   1      28.162  55.542  13.972 +0.05 -0.01    +0.222    63.510
ATOM     40  O   UNL d   1      28.769  56.164  16.792 -0.07 -0.02    -0.303    63.510
ATOM     41  H   UNL d   1      28.922  57.025  17.241 +0.03 +0.02    +0.222    63.510
ATOM     42  O   UNL d   1      29.411  56.921  12.806 -0.08 -0.04    -0.278    63.510
ATOM     43  P   UNL d   1      28.393  56.263  11.770 -0.14 +0.03    +0.473    63.510
ATOM     44  O   UNL d   1      28.534  56.638  10.336 -0.11 -0.03    -0.228    63.510
ATOM     45  O   UNL d   1      28.560  54.707  12.057 -0.29 +0.04    -0.303    63.510
ATOM     46  H   UNL d   1      27.992  54.416  12.797 -0.32 -0.09    +0.222    63.510
ATOM     47  O   UNL d   1      26.960  56.562  12.425 -0.05 +0.00    -0.303    63.510
ATOM     48  H   UNL d   1      27.008  56.406  13.391 +0.05 -0.00    +0.222    63.510
TER
ENDMDL
MODEL       96
USER    Run = 96
USER    Cluster Rank = 81
USER    Number of conformations in this cluster = 1
USER  
USER    RMSD from reference structure       = 28.522 A
USER  
USER    Estimated Free Energy of Binding    =   +5.36 kcal/mol  [=(1)+(2)+(3)-(4)]
USER    
USER    (1) Final Intermolecular Energy     =   -1.80 kcal/mol
USER        vdW + Hbond + desolv Energy     =   -1.69 kcal/mol
USER        Electrostatic Energy            =   -0.10 kcal/mol
USER    (2) Final Total Internal Energy     =  -14.10 kcal/mol
USER    (3) Torsional Free Energy           =   +7.16 kcal/mol
USER    (4) Unbound System's Energy  [=(2)] =  -14.10 kcal/mol
USER    
USER    
USER  
USER    DPF = D:/Protein_go_brrr/autodock/final/2DN3/IHP/dock.dpf
USER    NEWDPF move	IHP_ideal_opt.pdbqt
USER    NEWDPF about	0.035000 0.082000 -0.065000
USER    NEWDPF tran0	-1.792648 32.408982 3.110558
USER    NEWDPF axisangle0	0.196026 0.545710 -0.814723 -100.377081
USER    NEWDPF quaternion0	0.150579 0.419190 -0.625834 -0.640263
USER    NEWDPF dihe0	-179.11 139.42 60.83 100.36 20.94 -179.78 13.24 -67.44 150.70 8.56 102.05 111.78 131.16 143.91 -27.12 -37.07 131.73 -112.78 26.60 -4.80 169.71 144.17 -27.82 166.10 
USER  
USER                              x       y       z    vdW   Elec        q     RMS 
ATOM      1  C   UNL d   1      -2.510  30.843   2.974 +0.00 -0.00    +0.194    28.522
ATOM      2  C   UNL d   1      -3.216  31.813   3.923 -0.00 +0.00    +0.194    28.522
ATOM      3  C   UNL d   1      -2.218  32.585   4.789 -0.01 +0.01    +0.194    28.522
ATOM      4  C   UNL d   1      -1.120  33.268   3.978 -0.04 +0.02    +0.194    28.522
ATOM      5  C   UNL d   1      -0.466  32.368   2.938 -0.03 +0.01    +0.194    28.522
ATOM      6  C   UNL d   1      -1.462  31.550   2.113 -0.01 +0.01    +0.194    28.522
ATOM      7  O   UNL d   1      -3.488  30.294   2.088 +0.00 +0.00    -0.278    28.522
ATOM      8  P   UNL d   1      -4.132  28.878   2.452 +0.00 -0.02    +0.473    28.522
ATOM      9  O   UNL d   1      -5.093  28.345   1.448 +0.00 +0.00    -0.228    28.522
ATOM     10  O   UNL d   1      -2.871  27.928   2.680 +0.00 +0.04    -0.303    28.522
ATOM     11  H   UNL d   1      -2.091  28.468   2.907 +0.01 -0.04    +0.222    28.522
ATOM     12  O   UNL d   1      -4.693  29.046   3.929 +0.00 +0.02    -0.303    28.522
ATOM     13  H   UNL d   1      -5.643  29.299   3.954 +0.00 -0.01    +0.222    28.522
ATOM     14  O   UNL d   1      -3.974  32.753   3.151 -0.00 -0.02    -0.278    28.522
ATOM     15  P   UNL d   1      -5.523  32.904   3.528 +0.00 +0.03    +0.473    28.522
ATOM     16  O   UNL d   1      -6.411  33.512   2.488 +0.00 -0.02    -0.228    28.522
ATOM     17  O   UNL d   1      -5.969  31.429   3.934 +0.00 -0.01    -0.303    28.522
ATOM     18  H   UNL d   1      -5.504  30.761   3.394 +0.00 +0.00    +0.222    28.522
ATOM     19  O   UNL d   1      -5.519  33.636   4.940 +0.00 -0.02    -0.303    28.522
ATOM     20  H   UNL d   1      -4.846  34.341   4.978 +0.00 +0.02    +0.222    28.522
ATOM     21  O   UNL d   1      -0.711  30.535   1.450 -0.01 +0.00    -0.278    28.522
ATOM     22  P   UNL d   1      -0.028  29.372   2.302 -0.00 -0.07    +0.473    28.522
ATOM     23  O   UNL d   1      -0.258  29.349   3.775 -0.03 +0.06    -0.228    28.522
ATOM     24  O   UNL d   1      -0.520  28.070   1.529 -0.01 +0.05    -0.303    28.522
ATOM     25  H   UNL d   1      -1.488  28.170   1.343 +0.02 -0.02    +0.222    28.522
ATOM     26  O   UNL d   1       1.501  29.478   1.831 -0.08 +0.04    -0.303    28.522
ATOM     27  H   UNL d   1       1.605  30.261   1.252 +0.06 -0.01    +0.222    28.522
ATOM     28  O   UNL d   1      -2.930  33.640   5.425 -0.01 -0.03    -0.278    28.522
ATOM     29  P   UNL d   1      -2.758  35.142   4.924 -0.00 +0.09    +0.473    28.522
ATOM     30  O   UNL d   1      -1.393  35.710   5.059 -0.08 -0.06    -0.228    28.522
ATOM     31  O   UNL d   1      -3.347  35.010   3.441 -0.01 -0.06    -0.303    28.522
ATOM     32  H   UNL d   1      -4.304  34.784   3.502 +0.01 +0.03    +0.222    28.522
ATOM     33  O   UNL d   1      -3.929  35.889   5.702 -0.00 -0.06    -0.303    28.522
ATOM     34  H   UNL d   1      -4.498  35.216   6.150 +0.01 +0.03    +0.222    28.522
ATOM     35  O   UNL d   1       0.206  33.245   2.036 -0.05 -0.05    -0.278    28.522
ATOM     36  P   UNL d   1       1.788  33.430   2.122 -0.11 +0.09    +0.473    28.522
ATOM     37  O   UNL d   1       2.394  34.302   1.069 -0.16 -0.08    -0.228    28.522
ATOM     38  O   UNL d   1       1.972  33.973   3.607 -0.18 -0.06    -0.303    28.522
ATOM     39  H   UNL d   1       1.944  33.216   4.232 +0.04 +0.01    +0.222    28.522
ATOM     40  O   UNL d   1       2.302  31.926   2.197 -0.10 -0.01    -0.303    28.522
ATOM     41  H   UNL d   1       1.668  31.348   2.677 +0.07 -0.01    +0.222    28.522
ATOM     42  O   UNL d   1      -0.099  33.652   4.905 -0.09 -0.03    -0.278    28.522
ATOM     43  P   UNL d   1       0.539  32.541   5.854 -0.11 -0.00    +0.473    28.522
ATOM     44  O   UNL d   1      -0.342  31.937   6.892 -0.08 +0.01    -0.228    28.522
ATOM     45  O   UNL d   1       1.133  31.493   4.815 -0.11 +0.03    -0.303    28.522
ATOM     46  H   UNL d   1       1.390  31.926   3.977 +0.08 -0.01    +0.222    28.522
ATOM     47  O   UNL d   1       1.870  33.246   6.402 -0.22 -0.00    -0.303    28.522
ATOM     48  H   UNL d   1       2.512  33.339   5.668 -0.47 -0.04    +0.222    28.522
TER
ENDMDL
MODEL       27
USER    Run = 27
USER    Cluster Rank = 82
USER    Number of conformations in this cluster = 1
USER  
USER    RMSD from reference structure       = 36.628 A
USER  
USER    Estimated Free Energy of Binding    =   +5.38 kcal/mol  [=(1)+(2)+(3)-(4)]
USER    
USER    (1) Final Intermolecular Energy     =   -1.78 kcal/mol
USER        vdW + Hbond + desolv Energy     =   -1.29 kcal/mol
USER        Electrostatic Energy            =   -0.49 kcal/mol
USER    (2) Final Total Internal Energy     =  -14.42 kcal/mol
USER    (3) Torsional Free Energy           =   +7.16 kcal/mol
USER    (4) Unbound System's Energy  [=(2)] =  -14.42 kcal/mol
USER    
USER    
USER  
USER    DPF = D:/Protein_go_brrr/autodock/final/2DN3/IHP/dock.dpf
USER    NEWDPF move	IHP_ideal_opt.pdbqt
USER    NEWDPF about	0.035000 0.082000 -0.065000
USER    NEWDPF tran0	18.481481 12.777123 32.310321
USER    NEWDPF axisangle0	0.477703 -0.429551 -0.766346 128.515722
USER    NEWDPF quaternion0	0.430295 -0.386921 -0.690292 0.434322
USER    NEWDPF dihe0	-107.87 -42.84 46.21 52.21 -174.50 132.11 62.44 -80.46 -55.53 32.77 79.31 103.28 63.06 159.14 55.71 102.42 9.60 -177.42 -16.64 -19.68 -14.62 -27.85 171.46 20.10 
USER  
USER                              x       y       z    vdW   Elec        q     RMS 
ATOM      1  C   UNL d   1      18.789  14.117  31.264 -0.00 -0.05    +0.194    36.628
ATOM      2  C   UNL d   1      19.949  13.709  32.174 +0.00 -0.02    +0.194    36.628
ATOM      3  C   UNL d   1      19.474  13.404  33.596 +0.00 -0.01    +0.194    36.628
ATOM      4  C   UNL d   1      18.323  12.402  33.644 +0.00 -0.01    +0.194    36.628
ATOM      5  C   UNL d   1      17.194  12.707  32.668 +0.00 -0.02    +0.194    36.628
ATOM      6  C   UNL d   1      17.672  13.072  31.261 -0.00 -0.05    +0.194    36.628
ATOM      7  O   UNL d   1      19.285  14.214  29.926 -0.01 +0.10    -0.278    36.628
ATOM      8  P   UNL d   1      18.780  15.426  29.016 -0.05 -0.37    +0.473    36.628
ATOM      9  O   UNL d   1      19.832  16.404  28.627 -0.04 +0.12    -0.228    36.628
ATOM     10  O   UNL d   1      18.093  14.711  27.766 -0.07 +0.40    -0.303    36.628
ATOM     11  H   UNL d   1      17.135  14.623  27.925 -0.32 -0.44    +0.222    36.628
ATOM     12  O   UNL d   1      17.525  16.025  29.786 +0.01 +0.36    -0.303    36.628
ATOM     13  H   UNL d   1      16.679  15.585  29.546 -0.42 -0.40    +0.222    36.628
ATOM     14  O   UNL d   1      20.571  12.534  31.639 +0.00 +0.02    -0.278    36.628
ATOM     15  P   UNL d   1      22.056  12.708  31.065 +0.00 -0.03    +0.473    36.628
ATOM     16  O   UNL d   1      22.420  11.874  29.877 +0.00 +0.01    -0.228    36.628
ATOM     17  O   UNL d   1      22.183  14.271  30.785 +0.00 +0.03    -0.303    36.628
ATOM     18  H   UNL d   1      21.420  14.599  30.271 +0.00 -0.03    +0.222    36.628
ATOM     19  O   UNL d   1      22.996  12.534  32.337 +0.00 +0.01    -0.303    36.628
ATOM     20  H   UNL d   1      22.479  12.486  33.163 +0.00 -0.01    +0.222    36.628
ATOM     21  O   UNL d   1      16.559  13.652  30.584 -0.03 +0.12    -0.278    36.628
ATOM     22  P   UNL d   1      15.958  12.936  29.291 -0.05 -0.25    +0.473    36.628
ATOM     23  O   UNL d   1      14.938  11.866  29.488 -0.01 +0.06    -0.228    36.628
ATOM     24  O   UNL d   1      15.463  14.181  28.431 -0.03 +0.41    -0.303    36.628
ATOM     25  H   UNL d   1      15.953  14.175  27.570 -0.28 -0.46    +0.222    36.628
ATOM     26  O   UNL d   1      17.290  12.504  28.510 -0.03 +0.14    -0.303    36.628
ATOM     27  H   UNL d   1      17.940  13.234  28.554 +0.01 -0.13    +0.222    36.628
ATOM     28  O   UNL d   1      20.549  12.776  34.282 +0.00 +0.01    -0.278    36.628
ATOM     29  P   UNL d   1      21.705  13.653  34.939 +0.00 -0.01    +0.473    36.628
ATOM     30  O   UNL d   1      21.352  14.324  36.217 +0.00 +0.00    -0.228    36.628
ATOM     31  O   UNL d   1      22.883  12.570  34.989 +0.00 +0.00    -0.303    36.628
ATOM     32  H   UNL d   1      23.601  12.860  34.381 +0.00 -0.00    +0.222    36.628
ATOM     33  O   UNL d   1      22.142  14.592  33.730 +0.00 +0.01    -0.303    36.628
ATOM     34  H   UNL d   1      21.865  14.170  32.880 +0.00 -0.01    +0.222    36.628
ATOM     35  O   UNL d   1      16.442  11.500  32.556 +0.00 +0.03    -0.278    36.628
ATOM     36  P   UNL d   1      17.149  10.154  32.074 +0.00 -0.03    +0.473    36.628
ATOM     37  O   UNL d   1      18.364   9.752  32.848 +0.00 +0.01    -0.228    36.628
ATOM     38  O   UNL d   1      15.949   9.110  32.150 +0.00 +0.01    -0.303    36.628
ATOM     39  H   UNL d   1      16.220   8.349  32.707 +0.00 -0.01    +0.222    36.628
ATOM     40  O   UNL d   1      17.337  10.408  30.515 +0.00 +0.03    -0.303    36.628
ATOM     41  H   UNL d   1      16.868  11.220  30.219 +0.01 -0.04    +0.222    36.628
ATOM     42  O   UNL d   1      17.769  12.469  34.962 +0.00 +0.01    -0.278    36.628
ATOM     43  P   UNL d   1      18.339  11.493  36.088 +0.00 -0.01    +0.473    36.628
ATOM     44  O   UNL d   1      17.349  10.738  36.907 +0.00 +0.00    -0.228    36.628
ATOM     45  O   UNL d   1      19.347  10.571  35.273 +0.00 +0.01    -0.303    36.628
ATOM     46  H   UNL d   1      19.445  10.877  34.349 +0.00 -0.01    +0.222    36.628
ATOM     47  O   UNL d   1      19.346  12.430  36.910 +0.00 +0.00    -0.303    36.628
ATOM     48  H   UNL d   1      20.181  12.527  36.406 +0.00 -0.00    +0.222    36.628
TER
ENDMDL
MODEL        4
USER    Run = 4
USER    Cluster Rank = 83
USER    Number of conformations in this cluster = 1
USER  
USER    RMSD from reference structure       = 57.584 A
USER  
USER    Estimated Free Energy of Binding    =   +5.43 kcal/mol  [=(1)+(2)+(3)-(4)]
USER    
USER    (1) Final Intermolecular Energy     =   -1.73 kcal/mol
USER        vdW + Hbond + desolv Energy     =   -1.56 kcal/mol
USER        Electrostatic Energy            =   -0.17 kcal/mol
USER    (2) Final Total Internal Energy     =  -15.25 kcal/mol
USER    (3) Torsional Free Energy           =   +7.16 kcal/mol
USER    (4) Unbound System's Energy  [=(2)] =  -15.25 kcal/mol
USER    
USER    
USER  
USER    DPF = D:/Protein_go_brrr/autodock/final/2DN3/IHP/dock.dpf
USER    NEWDPF move	IHP_ideal_opt.pdbqt
USER    NEWDPF about	0.035000 0.082000 -0.065000
USER    NEWDPF tran0	55.771202 23.555219 10.376136
USER    NEWDPF axisangle0	-0.848062 0.518848 -0.107648 145.765887
USER    NEWDPF quaternion0	-0.810497 0.495866 -0.102879 0.294325
USER    NEWDPF dihe0	-180.00 -38.05 107.36 111.45 26.66 -129.17 -143.73 -44.93 -179.19 -27.41 137.72 102.63 -121.85 97.63 -8.37 -164.40 -177.90 -177.62 40.74 -6.32 -46.62 -0.82 32.84 11.14 
USER  
USER                              x       y       z    vdW   Elec        q     RMS 
ATOM      1  C   UNL d   1      57.050  22.463   9.981 +0.00 +0.04    +0.194    57.584
ATOM      2  C   UNL d   1      57.183  23.874   9.404 +0.01 +0.04    +0.194    57.584
ATOM      3  C   UNL d   1      55.853  24.387   8.849 -0.00 +0.06    +0.194    57.584
ATOM      4  C   UNL d   1      54.703  24.278   9.847 -0.02 +0.07    +0.194    57.584
ATOM      5  C   UNL d   1      54.603  22.921  10.533 -0.02 +0.06    +0.194    57.584
ATOM      6  C   UNL d   1      55.944  22.380  11.033 -0.00 +0.05    +0.194    57.584
ATOM      7  O   UNL d   1      58.280  22.128  10.628 +0.00 -0.05    -0.278    57.584
ATOM      8  P   UNL d   1      59.490  21.596   9.730 +0.00 +0.07    +0.473    57.584
ATOM      9  O   UNL d   1      59.301  20.235   9.159 +0.00 -0.03    -0.228    57.584
ATOM     10  O   UNL d   1      59.670  22.725   8.617 +0.00 -0.05    -0.303    57.584
ATOM     11  H   UNL d   1      59.292  23.564   8.938 +0.00 +0.04    +0.222    57.584
ATOM     12  O   UNL d   1      60.788  21.800  10.624 +0.00 -0.04    -0.303    57.584
ATOM     13  H   UNL d   1      61.150  22.713  10.575 +0.00 +0.03    +0.222    57.584
ATOM     14  O   UNL d   1      57.619  24.763  10.440 +0.00 -0.05    -0.278    57.584
ATOM     15  P   UNL d   1      58.941  25.617  10.141 +0.00 +0.08    +0.473    57.584
ATOM     16  O   UNL d   1      59.071  26.926  10.855 +0.00 -0.03    -0.228    57.584
ATOM     17  O   UNL d   1      60.133  24.613  10.471 +0.00 -0.04    -0.303    57.584
ATOM     18  H   UNL d   1      59.804  23.701  10.588 +0.00 +0.03    +0.222    57.584
ATOM     19  O   UNL d   1      59.015  25.690   8.554 +0.00 -0.05    -0.303    57.584
ATOM     20  H   UNL d   1      58.176  26.003   8.168 +0.00 +0.05    +0.222    57.584
ATOM     21  O   UNL d   1      55.747  20.998  11.325 -0.00 -0.06    -0.278    57.584
ATOM     22  P   UNL d   1      56.592  20.306  12.488 +0.00 +0.09    +0.473    57.584
ATOM     23  O   UNL d   1      57.181  21.178  13.545 +0.00 -0.04    -0.228    57.584
ATOM     24  O   UNL d   1      55.572  19.207  13.021 -0.00 -0.06    -0.303    57.584
ATOM     25  H   UNL d   1      54.665  19.605  13.026 +0.01 +0.06    +0.222    57.584
ATOM     26  O   UNL d   1      57.631  19.417  11.651 +0.00 -0.05    -0.303    57.584
ATOM     27  H   UNL d   1      58.131  19.995  11.041 +0.00 +0.04    +0.222    57.584
ATOM     28  O   UNL d   1      56.002  25.779   8.597 -0.00 -0.09    -0.278    57.584
ATOM     29  P   UNL d   1      56.047  26.324   7.101 -0.02 +0.23    +0.473    57.584
ATOM     30  O   UNL d   1      55.964  27.800   6.955 -0.05 -0.10    -0.228    57.584
ATOM     31  O   UNL d   1      57.387  25.617   6.586 -0.00 -0.11    -0.303    57.584
ATOM     32  H   UNL d   1      58.143  26.230   6.737 +0.01 +0.06    +0.222    57.584
ATOM     33  O   UNL d   1      54.904  25.467   6.398 -0.63 -0.32    -0.303    57.584
ATOM     34  H   UNL d   1      54.354  25.032   7.096 +0.04 +0.20    +0.222    57.584
ATOM     35  O   UNL d   1      53.779  23.126  11.679 -0.04 -0.10    -0.278    57.584
ATOM     36  P   UNL d   1      53.121  21.883  12.430 -0.06 +0.20    +0.473    57.584
ATOM     37  O   UNL d   1      51.671  22.026  12.765 -0.09 -0.16    -0.228    57.584
ATOM     38  O   UNL d   1      53.447  20.688  11.429 -0.01 -0.10    -0.303    57.584
ATOM     39  H   UNL d   1      54.107  20.092  11.843 +0.01 +0.06    +0.222    57.584
ATOM     40  O   UNL d   1      54.123  21.649  13.643 -0.02 -0.10    -0.303    57.584
ATOM     41  H   UNL d   1      54.994  21.312  13.336 +0.01 +0.06    +0.222    57.584
ATOM     42  O   UNL d   1      53.492  24.466   9.107 -0.06 -0.13    -0.278    57.584
ATOM     43  P   UNL d   1      52.782  25.894   9.140 -0.13 +0.24    +0.473    57.584
ATOM     44  O   UNL d   1      51.317  25.926   9.408 -0.31 -0.12    -0.228    57.584
ATOM     45  O   UNL d   1      53.655  26.694  10.203 -0.03 -0.10    -0.303    57.584
ATOM     46  H   UNL d   1      54.573  26.821   9.889 +0.05 +0.06    +0.222    57.584
ATOM     47  O   UNL d   1      53.247  26.567   7.762 -0.28 -0.24    -0.303    57.584
ATOM     48  H   UNL d   1      54.163  26.900   7.860 +0.06 +0.13    +0.222    57.584
TER
ENDMDL
MODEL       51
USER    Run = 51
USER    Cluster Rank = 84
USER    Number of conformations in this cluster = 1
USER  
USER    RMSD from reference structure       = 57.822 A
USER  
USER    Estimated Free Energy of Binding    =   +5.46 kcal/mol  [=(1)+(2)+(3)-(4)]
USER    
USER    (1) Final Intermolecular Energy     =   -1.70 kcal/mol
USER        vdW + Hbond + desolv Energy     =   -1.76 kcal/mol
USER        Electrostatic Energy            =   +0.06 kcal/mol
USER    (2) Final Total Internal Energy     =  -14.75 kcal/mol
USER    (3) Torsional Free Energy           =   +7.16 kcal/mol
USER    (4) Unbound System's Energy  [=(2)] =  -14.75 kcal/mol
USER    
USER    
USER  
USER    DPF = D:/Protein_go_brrr/autodock/final/2DN3/IHP/dock.dpf
USER    NEWDPF move	IHP_ideal_opt.pdbqt
USER    NEWDPF about	0.035000 0.082000 -0.065000
USER    NEWDPF tran0	52.228268 28.536989 16.240401
USER    NEWDPF axisangle0	-0.813493 -0.410288 0.412181 143.709804
USER    NEWDPF quaternion0	-0.773038 -0.389884 0.391684 0.311424
USER    NEWDPF dihe0	-162.25 -8.99 78.05 124.54 127.28 104.36 -99.15 21.35 93.01 10.46 150.52 156.03 78.30 -21.21 -144.41 20.37 -138.41 176.58 -16.09 -29.11 3.81 177.55 -15.50 -7.50 
USER  
USER                              x       y       z    vdW   Elec        q     RMS 
ATOM      1  C   UNL d   1      51.677  28.810  14.626 -0.11 +0.05    +0.194    57.822
ATOM      2  C   UNL d   1      50.644  29.056  15.728 -0.07 +0.05    +0.194    57.822
ATOM      3  C   UNL d   1      50.682  27.960  16.795 -0.09 +0.07    +0.194    57.822
ATOM      4  C   UNL d   1      52.080  27.717  17.358 -0.04 +0.05    +0.194    57.822
ATOM      5  C   UNL d   1      53.162  27.580  16.295 -0.04 +0.05    +0.194    57.822
ATOM      6  C   UNL d   1      53.087  28.640  15.194 -0.05 +0.04    +0.194    57.822
ATOM      7  O   UNL d   1      51.698  29.955  13.770 -0.13 -0.04    -0.278    57.822
ATOM      8  P   UNL d   1      51.795  29.722  12.193 -0.17 +0.05    +0.473    57.822
ATOM      9  O   UNL d   1      50.788  30.459  11.382 -0.34 +0.01    -0.228    57.822
ATOM     10  O   UNL d   1      53.299  30.116  11.836 -0.06 -0.01    -0.303    57.822
ATOM     11  H   UNL d   1      53.897  29.790  12.534 +0.04 +0.02    +0.222    57.822
ATOM     12  O   UNL d   1      51.813  28.143  12.009 -0.15 -0.07    -0.303    57.822
ATOM     13  H   UNL d   1      52.518  27.702  12.534 +0.08 +0.06    +0.222    57.822
ATOM     14  O   UNL d   1      50.922  30.314  16.355 -0.07 -0.06    -0.278    57.822
ATOM     15  P   UNL d   1      49.988  31.545  15.935 -0.14 +0.09    +0.473    57.822
ATOM     16  O   UNL d   1      48.558  31.230  15.629 -0.27 -0.05    -0.228    57.822
ATOM     17  O   UNL d   1      50.149  32.581  17.134 -0.04 -0.06    -0.303    57.822
ATOM     18  H   UNL d   1      50.514  32.146  17.928 +0.03 +0.04    +0.222    57.822
ATOM     19  O   UNL d   1      50.793  32.275  14.773 -0.11 -0.05    -0.303    57.822
ATOM     20  H   UNL d   1      50.884  31.706  13.986 +0.06 +0.02    +0.222    57.822
ATOM     21  O   UNL d   1      53.916  28.185  14.126 -0.02 -0.05    -0.278    57.822
ATOM     22  P   UNL d   1      55.399  28.753  13.979 +0.00 +0.07    +0.473    57.822
ATOM     23  O   UNL d   1      55.720  29.583  12.782 -0.00 -0.03    -0.228    57.822
ATOM     24  O   UNL d   1      55.607  29.488  15.375 -0.00 -0.04    -0.303    57.822
ATOM     25  H   UNL d   1      55.527  28.811  16.095 +0.00 +0.03    +0.222    57.822
ATOM     26  O   UNL d   1      56.276  27.425  14.170 -0.00 -0.05    -0.303    57.822
ATOM     27  H   UNL d   1      56.215  27.130  15.101 +0.00 +0.04    +0.222    57.822
ATOM     28  O   UNL d   1      49.904  28.409  17.897 -0.07 -0.10    -0.278    57.822
ATOM     29  P   UNL d   1      50.440  29.576  18.838 -0.02 +0.14    +0.473    57.822
ATOM     30  O   UNL d   1      51.822  30.042  18.557 -0.01 -0.05    -0.228    57.822
ATOM     31  O   UNL d   1      49.263  30.645  18.656 -0.03 -0.09    -0.303    57.822
ATOM     32  H   UNL d   1      49.068  30.737  17.695 +0.05 +0.06    +0.222    57.822
ATOM     33  O   UNL d   1      50.161  28.989  20.291 -0.01 -0.12    -0.303    57.822
ATOM     34  H   UNL d   1      50.882  28.354  20.525 +0.01 +0.08    +0.222    57.822
ATOM     35  O   UNL d   1      54.401  27.770  16.976 -0.00 -0.05    -0.278    57.822
ATOM     36  P   UNL d   1      55.452  26.576  17.082 -0.00 +0.09    +0.473    57.822
ATOM     37  O   UNL d   1      55.365  25.748  18.325 -0.00 -0.04    -0.228    57.822
ATOM     38  O   UNL d   1      55.168  25.770  15.738 -0.00 -0.07    -0.303    57.822
ATOM     39  H   UNL d   1      54.749  26.372  15.086 +0.01 +0.05    +0.222    57.822
ATOM     40  O   UNL d   1      56.834  27.313  16.802 +0.00 -0.04    -0.303    57.822
ATOM     41  H   UNL d   1      56.722  28.075  16.192 +0.00 +0.03    +0.222    57.822
ATOM     42  O   UNL d   1      52.030  26.476  18.070 -0.02 -0.09    -0.278    57.822
ATOM     43  P   UNL d   1      52.342  26.472  19.635 +0.00 +0.13    +0.473    57.822
ATOM     44  O   UNL d   1      53.194  25.370  20.162 -0.00 -0.06    -0.228    57.822
ATOM     45  O   UNL d   1      52.937  27.928  19.876 -0.00 -0.07    -0.303    57.822
ATOM     46  H   UNL d   1      52.230  28.604  19.902 +0.01 +0.06    +0.222    57.822
ATOM     47  O   UNL d   1      50.888  26.600  20.298 -0.00 -0.11    -0.303    57.822
ATOM     48  H   UNL d   1      50.281  27.034  19.663 +0.02 +0.09    +0.222    57.822
TER
ENDMDL
MODEL       65
USER    Run = 65
USER    Cluster Rank = 85
USER    Number of conformations in this cluster = 1
USER  
USER    RMSD from reference structure       = 63.109 A
USER  
USER    Estimated Free Energy of Binding    =   +5.49 kcal/mol  [=(1)+(2)+(3)-(4)]
USER    
USER    (1) Final Intermolecular Energy     =   -1.66 kcal/mol
USER        vdW + Hbond + desolv Energy     =   -1.29 kcal/mol
USER        Electrostatic Energy            =   -0.37 kcal/mol
USER    (2) Final Total Internal Energy     =  -14.68 kcal/mol
USER    (3) Torsional Free Energy           =   +7.16 kcal/mol
USER    (4) Unbound System's Energy  [=(2)] =  -14.68 kcal/mol
USER    
USER    
USER  
USER    DPF = D:/Protein_go_brrr/autodock/final/2DN3/IHP/dock.dpf
USER    NEWDPF move	IHP_ideal_opt.pdbqt
USER    NEWDPF about	0.035000 0.082000 -0.065000
USER    NEWDPF tran0	55.897568 37.462490 5.015400
USER    NEWDPF axisangle0	-0.851548 -0.094307 0.515725 -125.279406
USER    NEWDPF quaternion0	-0.756289 -0.083757 0.458033 -0.459584
USER    NEWDPF dihe0	90.42 117.92 142.76 23.65 79.39 146.12 -86.68 19.06 156.89 -53.80 17.40 9.38 -74.64 30.04 70.01 -152.80 86.61 -74.93 -149.47 -19.82 22.34 -25.10 -47.43 15.98 
USER  
USER                              x       y       z    vdW   Elec        q     RMS 
ATOM      1  C   UNL d   1      56.260  39.138   4.804 +0.00 +0.01    +0.194    63.109
ATOM      2  C   UNL d   1      56.074  38.680   6.252 +0.00 +0.01    +0.194    63.109
ATOM      3  C   UNL d   1      54.876  37.738   6.398 -0.01 +0.01    +0.194    63.109
ATOM      4  C   UNL d   1      54.911  36.565   5.421 -0.00 +0.01    +0.194    63.109
ATOM      5  C   UNL d   1      55.208  36.966   3.981 +0.01 +0.02    +0.194    63.109
ATOM      6  C   UNL d   1      56.366  37.956   3.841 +0.00 +0.01    +0.194    63.109
ATOM      7  O   UNL d   1      57.487  39.867   4.722 +0.00 -0.01    -0.278    63.109
ATOM      8  P   UNL d   1      58.834  39.056   4.437 +0.00 +0.02    +0.473    63.109
ATOM      9  O   UNL d   1      58.792  37.615   4.805 +0.00 -0.01    -0.228    63.109
ATOM     10  O   UNL d   1      59.112  39.300   2.885 +0.00 -0.02    -0.303    63.109
ATOM     11  H   UNL d   1      58.422  38.858   2.356 +0.00 +0.01    +0.222    63.109
ATOM     12  O   UNL d   1      59.984  39.913   5.120 +0.00 -0.01    -0.303    63.109
ATOM     13  H   UNL d   1      59.971  39.862   6.103 +0.00 +0.01    +0.222    63.109
ATOM     14  O   UNL d   1      57.254  37.987   6.678 +0.00 -0.01    -0.278    63.109
ATOM     15  P   UNL d   1      58.142  38.709   7.798 +0.00 +0.02    +0.473    63.109
ATOM     16  O   UNL d   1      57.745  38.479   9.222 +0.00 -0.01    -0.228    63.109
ATOM     17  O   UNL d   1      59.628  38.226   7.485 +0.00 -0.01    -0.303    63.109
ATOM     18  H   UNL d   1      59.830  38.305   6.533 +0.00 +0.01    +0.222    63.109
ATOM     19  O   UNL d   1      58.199  40.231   7.339 +0.00 -0.01    -0.303    63.109
ATOM     20  H   UNL d   1      58.239  40.314   6.368 +0.00 +0.01    +0.222    63.109
ATOM     21  O   UNL d   1      56.297  38.486   2.519 +0.00 -0.02    -0.278    63.109
ATOM     22  P   UNL d   1      56.871  37.639   1.295 +0.00 +0.04    +0.473    63.109
ATOM     23  O   UNL d   1      55.905  36.882   0.447 +0.00 -0.02    -0.228    63.109
ATOM     24  O   UNL d   1      57.728  38.731   0.517 +0.00 -0.02    -0.303    63.109
ATOM     25  H   UNL d   1      57.834  39.519   1.109 +0.00 +0.01    +0.222    63.109
ATOM     26  O   UNL d   1      58.012  36.768   2.009 +0.00 -0.02    -0.303    63.109
ATOM     27  H   UNL d   1      58.351  37.257   2.786 +0.00 +0.02    +0.222    63.109
ATOM     28  O   UNL d   1      54.948  37.153   7.692 -0.01 -0.01    -0.278    63.109
ATOM     29  P   UNL d   1      54.329  37.907   8.951 -0.02 +0.01    +0.473    63.109
ATOM     30  O   UNL d   1      54.488  37.214  10.255 -0.04 -0.00    -0.228    63.109
ATOM     31  O   UNL d   1      55.036  39.334   8.797 -0.01 +0.00    -0.303    63.109
ATOM     32  H   UNL d   1      55.945  39.198   8.442 +0.02 +0.00    +0.222    63.109
ATOM     33  O   UNL d   1      52.840  38.199   8.467 -0.13 -0.05    -0.303    63.109
ATOM     34  H   UNL d   1      52.308  37.370   8.550 +0.10 +0.05    +0.222    63.109
ATOM     35  O   UNL d   1      55.599  35.765   3.319 +0.00 -0.03    -0.278    63.109
ATOM     36  P   UNL d   1      54.495  34.764   2.749 +0.02 +0.06    +0.473    63.109
ATOM     37  O   UNL d   1      54.699  34.316   1.336 +0.00 -0.03    -0.228    63.109
ATOM     38  O   UNL d   1      54.537  33.588   3.821 -0.00 -0.02    -0.303    63.109
ATOM     39  H   UNL d   1      53.932  33.808   4.563 +0.05 -0.00    +0.222    63.109
ATOM     40  O   UNL d   1      53.141  35.532   3.074 -0.02 -0.06    -0.303    63.109
ATOM     41  H   UNL d   1      52.744  35.228   3.921 +0.05 +0.06    +0.222    63.109
ATOM     42  O   UNL d   1      53.605  35.977   5.433 -0.05 -0.04    -0.278    63.109
ATOM     43  P   UNL d   1      53.331  34.728   6.387 -0.08 -0.13    +0.473    63.109
ATOM     44  O   UNL d   1      54.482  33.833   6.693 -0.07 +0.08    -0.228    63.109
ATOM     45  O   UNL d   1      52.674  35.405   7.668 -0.17 +0.09    -0.303    63.109
ATOM     46  H   UNL d   1      53.251  36.102   8.040 +0.06 -0.01    +0.222    63.109
ATOM     47  O   UNL d   1      52.064  34.020   5.707 -0.77 +0.07    -0.303    63.109
ATOM     48  H   UNL d   1      51.735  33.311   6.298 -0.23 -0.47    +0.222    63.109
TER
ENDMDL
MODEL       39
USER    Run = 39
USER    Cluster Rank = 86
USER    Number of conformations in this cluster = 1
USER  
USER    RMSD from reference structure       = 55.562 A
USER  
USER    Estimated Free Energy of Binding    =   +5.53 kcal/mol  [=(1)+(2)+(3)-(4)]
USER    
USER    (1) Final Intermolecular Energy     =   -1.63 kcal/mol
USER        vdW + Hbond + desolv Energy     =   -1.60 kcal/mol
USER        Electrostatic Energy            =   -0.03 kcal/mol
USER    (2) Final Total Internal Energy     =  -13.36 kcal/mol
USER    (3) Torsional Free Energy           =   +7.16 kcal/mol
USER    (4) Unbound System's Energy  [=(2)] =  -13.36 kcal/mol
USER    
USER    
USER  
USER    DPF = D:/Protein_go_brrr/autodock/final/2DN3/IHP/dock.dpf
USER    NEWDPF move	IHP_ideal_opt.pdbqt
USER    NEWDPF about	0.035000 0.082000 -0.065000
USER    NEWDPF tran0	16.947949 51.899965 22.586462
USER    NEWDPF axisangle0	0.300607 -0.300628 0.905129 -148.295700
USER    NEWDPF quaternion0	0.289175 -0.289195 0.870707 -0.273156
USER    NEWDPF dihe0	-149.30 111.89 145.69 33.01 -87.31 -170.62 14.28 -98.33 -5.66 -4.56 84.20 162.90 31.84 -137.09 179.90 -61.54 -103.91 -151.58 -139.23 -6.42 180.00 151.51 139.09 -46.38 
USER  
USER                              x       y       z    vdW   Elec        q     RMS 
ATOM      1  C   UNL d   1      16.936  52.370  24.249 -0.02 -0.01    +0.194    55.562
ATOM      2  C   UNL d   1      18.178  52.779  23.455 -0.03 -0.01    +0.194    55.562
ATOM      3  C   UNL d   1      18.670  51.647  22.550 -0.04 -0.01    +0.194    55.562
ATOM      4  C   UNL d   1      17.575  51.076  21.653 -0.09 -0.02    +0.194    55.562
ATOM      5  C   UNL d   1      16.276  50.760  22.384 -0.04 -0.01    +0.194    55.562
ATOM      6  C   UNL d   1      15.817  51.867  23.336 -0.01 -0.01    +0.194    55.562
ATOM      7  O   UNL d   1      16.442  53.525  24.931 -0.00 +0.01    -0.278    55.562
ATOM      8  P   UNL d   1      15.230  54.334  24.275 +0.00 -0.02    +0.473    55.562
ATOM      9  O   UNL d   1      13.877  53.788  24.566 -0.00 +0.01    -0.228    55.562
ATOM     10  O   UNL d   1      15.432  55.827  24.801 -0.00 +0.01    -0.303    55.562
ATOM     11  H   UNL d   1      16.341  56.122  24.606 +0.00 -0.00    +0.222    55.562
ATOM     12  O   UNL d   1      15.608  54.470  22.738 -0.00 +0.01    -0.303    55.562
ATOM     13  H   UNL d   1      15.613  53.607  22.264 +0.01 -0.01    +0.222    55.562
ATOM     14  O   UNL d   1      17.858  53.911  22.638 -0.01 +0.01    -0.278    55.562
ATOM     15  P   UNL d   1      18.790  55.203  22.808 -0.00 -0.01    +0.473    55.562
ATOM     16  O   UNL d   1      18.481  56.107  23.961 -0.00 +0.00    -0.228    55.562
ATOM     17  O   UNL d   1      20.267  54.610  22.867 -0.00 +0.00    -0.303    55.562
ATOM     18  H   UNL d   1      20.428  53.993  22.128 +0.03 -0.01    +0.222    55.562
ATOM     19  O   UNL d   1      18.779  55.892  21.374 -0.00 +0.01    -0.303    55.562
ATOM     20  H   UNL d   1      18.614  55.244  20.664 +0.01 -0.01    +0.222    55.562
ATOM     21  O   UNL d   1      14.816  51.298  24.177 -0.00 +0.02    -0.278    55.562
ATOM     22  P   UNL d   1      15.243  50.355  25.391 -0.00 -0.02    +0.473    55.562
ATOM     23  O   UNL d   1      14.303  49.274  25.809 -0.00 +0.01    -0.228    55.562
ATOM     24  O   UNL d   1      16.676  49.847  24.919 -0.03 +0.02    -0.303    55.562
ATOM     25  H   UNL d   1      16.846  48.967  25.343 +0.03 -0.01    +0.222    55.562
ATOM     26  O   UNL d   1      15.626  51.428  26.518 -0.00 +0.01    -0.303    55.562
ATOM     27  H   UNL d   1      15.273  52.304  26.261 +0.00 -0.01    +0.222    55.562
ATOM     28  O   UNL d   1      19.635  52.198  21.663 -0.10 +0.03    -0.278    55.562
ATOM     29  P   UNL d   1      19.218  52.628  20.187 -0.06 -0.06    +0.473    55.562
ATOM     30  O   UNL d   1      19.291  51.554  19.163 -0.15 +0.04    -0.228    55.562
ATOM     31  O   UNL d   1      17.777  53.259  20.477 -0.01 +0.02    -0.303    55.562
ATOM     32  H   UNL d   1      17.893  54.068  21.026 +0.01 -0.01    +0.222    55.562
ATOM     33  O   UNL d   1      20.124  53.915  19.946 -0.02 +0.02    -0.303    55.562
ATOM     34  H   UNL d   1      20.160  54.443  20.781 +0.02 -0.01    +0.222    55.562
ATOM     35  O   UNL d   1      15.281  50.640  21.370 -0.01 +0.02    -0.278    55.562
ATOM     36  P   UNL d   1      14.445  51.917  20.906 +0.00 -0.04    +0.473    55.562
ATOM     37  O   UNL d   1      13.650  52.592  21.979 -0.00 +0.02    -0.228    55.562
ATOM     38  O   UNL d   1      15.578  52.830  20.258 -0.00 +0.03    -0.303    55.562
ATOM     39  H   UNL d   1      16.108  53.240  20.975 +0.01 -0.02    +0.222    55.562
ATOM     40  O   UNL d   1      13.639  51.359  19.653 -0.00 +0.03    -0.303    55.562
ATOM     41  H   UNL d   1      14.218  50.844  19.048 +0.01 -0.03    +0.222    55.562
ATOM     42  O   UNL d   1      18.072  49.841  21.127 -0.16 +0.03    -0.278    55.562
ATOM     43  P   UNL d   1      17.444  49.268  19.777 -0.14 -0.07    +0.473    55.562
ATOM     44  O   UNL d   1      16.526  48.100  19.888 -0.16 +0.03    -0.228    55.562
ATOM     45  O   UNL d   1      16.779  50.560  19.127 -0.04 +0.03    -0.303    55.562
ATOM     46  H   UNL d   1      17.056  51.376  19.589 +0.04 -0.02    +0.222    55.562
ATOM     47  O   UNL d   1      18.726  49.055  18.839 -0.26 +0.06    -0.303    55.562
ATOM     48  H   UNL d   1      19.476  49.576  19.193 -0.36 -0.09    +0.222    55.562
TER
ENDMDL
MODEL       19
USER    Run = 19
USER    Cluster Rank = 87
USER    Number of conformations in this cluster = 1
USER  
USER    RMSD from reference structure       = 59.072 A
USER  
USER    Estimated Free Energy of Binding    =   +5.61 kcal/mol  [=(1)+(2)+(3)-(4)]
USER    
USER    (1) Final Intermolecular Energy     =   -1.54 kcal/mol
USER        vdW + Hbond + desolv Energy     =   -1.52 kcal/mol
USER        Electrostatic Energy            =   -0.02 kcal/mol
USER    (2) Final Total Internal Energy     =  -14.41 kcal/mol
USER    (3) Torsional Free Energy           =   +7.16 kcal/mol
USER    (4) Unbound System's Energy  [=(2)] =  -14.41 kcal/mol
USER    
USER    
USER  
USER    DPF = D:/Protein_go_brrr/autodock/final/2DN3/IHP/dock.dpf
USER    NEWDPF move	IHP_ideal_opt.pdbqt
USER    NEWDPF about	0.035000 0.082000 -0.065000
USER    NEWDPF tran0	52.748841 31.362567 15.247546
USER    NEWDPF axisangle0	0.263609 -0.189226 0.945888 -84.008781
USER    NEWDPF quaternion0	0.176404 -0.126628 0.632976 -0.743094
USER    NEWDPF dihe0	137.12 65.02 -179.78 -5.30 0.56 -178.60 -17.53 -69.51 21.45 22.76 -5.32 -97.35 145.79 -179.83 21.35 104.09 160.30 -75.86 54.49 13.78 166.92 6.61 -10.67 154.78 
USER  
USER                              x       y       z    vdW   Elec        q     RMS 
ATOM      1  C   UNL d   1      53.860  32.030  16.389 -0.01 +0.02    +0.194    59.072
ATOM      2  C   UNL d   1      54.432  30.958  15.459 -0.01 +0.02    +0.194    59.072
ATOM      3  C   UNL d   1      53.470  29.779  15.296 -0.03 +0.03    +0.194    59.072
ATOM      4  C   UNL d   1      52.061  30.204  14.889 -0.10 +0.03    +0.194    59.072
ATOM      5  C   UNL d   1      51.496  31.351  15.718 -0.10 +0.03    +0.194    59.072
ATOM      6  C   UNL d   1      52.479  32.503  15.933 -0.05 +0.03    +0.194    59.072
ATOM      7  O   UNL d   1      54.732  33.163  16.353 -0.01 -0.03    -0.278    59.072
ATOM      8  P   UNL d   1      56.192  33.018  16.985 -0.00 +0.05    +0.473    59.072
ATOM      9  O   UNL d   1      56.882  34.303  17.280 -0.00 -0.02    -0.228    59.072
ATOM     10  O   UNL d   1      55.964  32.115  18.281 -0.00 -0.03    -0.303    59.072
ATOM     11  H   UNL d   1      55.027  32.157  18.548 +0.00 +0.03    +0.222    59.072
ATOM     12  O   UNL d   1      56.964  32.022  16.018 -0.00 -0.03    -0.303    59.072
ATOM     13  H   UNL d   1      56.554  31.954  15.126 +0.00 +0.02    +0.222    59.072
ATOM     14  O   UNL d   1      54.669  31.536  14.170 -0.01 -0.03    -0.278    59.072
ATOM     15  P   UNL d   1      55.940  30.990  13.363 +0.00 +0.04    +0.473    59.072
ATOM     16  O   UNL d   1      56.943  32.009  12.921 -0.00 -0.02    -0.228    59.072
ATOM     17  O   UNL d   1      56.565  29.886  14.326 -0.00 -0.03    -0.303    59.072
ATOM     18  H   UNL d   1      56.121  29.025  14.209 +0.00 +0.03    +0.222    59.072
ATOM     19  O   UNL d   1      55.320  30.091  12.207 -0.00 -0.02    -0.303    59.072
ATOM     20  H   UNL d   1      54.859  29.311  12.565 +0.02 +0.03    +0.222    59.072
ATOM     21  O   UNL d   1      51.946  33.309  16.982 -0.03 -0.04    -0.278    59.072
ATOM     22  P   UNL d   1      51.803  32.704  18.451 -0.00 +0.08    +0.473    59.072
ATOM     23  O   UNL d   1      52.997  32.057  19.066 -0.00 -0.04    -0.228    59.072
ATOM     24  O   UNL d   1      51.227  33.948  19.260 -0.00 -0.05    -0.303    59.072
ATOM     25  H   UNL d   1      51.921  34.655  19.273 +0.00 +0.03    +0.222    59.072
ATOM     26  O   UNL d   1      50.503  31.779  18.296 -0.02 -0.06    -0.303    59.072
ATOM     27  H   UNL d   1      50.240  31.748  17.354 +0.04 +0.05    +0.222    59.072
ATOM     28  O   UNL d   1      53.949  28.982  14.220 -0.02 -0.05    -0.278    59.072
ATOM     29  P   UNL d   1      54.408  27.479  14.475 -0.01 +0.10    +0.473    59.072
ATOM     30  O   UNL d   1      53.311  26.487  14.607 -0.04 -0.07    -0.228    59.072
ATOM     31  O   UNL d   1      55.419  27.284  13.249 -0.00 -0.06    -0.303    59.072
ATOM     32  H   UNL d   1      55.872  28.141  13.076 +0.00 +0.03    +0.222    59.072
ATOM     33  O   UNL d   1      55.390  27.636  15.718 -0.00 -0.05    -0.303    59.072
ATOM     34  H   UNL d   1      55.569  28.597  15.867 +0.00 +0.03    +0.222    59.072
ATOM     35  O   UNL d   1      50.401  31.869  14.965 -0.19 -0.04    -0.278    59.072
ATOM     36  P   UNL d   1      48.929  31.867  15.580 -0.23 +0.09    +0.473    59.072
ATOM     37  O   UNL d   1      47.814  31.872  14.584 -0.37 -0.04    -0.228    59.072
ATOM     38  O   UNL d   1      48.967  30.577  16.514 -0.12 -0.08    -0.303    59.072
ATOM     39  H   UNL d   1      49.334  29.823  16.004 +0.06 +0.06    +0.222    59.072
ATOM     40  O   UNL d   1      48.988  33.082  16.605 -0.11 -0.06    -0.303    59.072
ATOM     41  H   UNL d   1      49.913  33.322  16.833 +0.05 +0.04    +0.222    59.072
ATOM     42  O   UNL d   1      51.210  29.073  15.100 -0.10 -0.07    -0.278    59.072
ATOM     43  P   UNL d   1      51.373  28.224  16.441 -0.06 +0.14    +0.473    59.072
ATOM     44  O   UNL d   1      52.728  28.165  17.056 -0.02 -0.05    -0.228    59.072
ATOM     45  O   UNL d   1      50.255  28.848  17.387 -0.07 -0.09    -0.303    59.072
ATOM     46  H   UNL d   1      50.546  29.699  17.771 +0.03 +0.06    +0.222    59.072
ATOM     47  O   UNL d   1      50.724  26.809  16.060 -0.07 -0.13    -0.303    59.072
ATOM     48  H   UNL d   1      51.382  26.272  15.572 +0.05 +0.10    +0.222    59.072
TER
ENDMDL
MODEL       12
USER    Run = 12
USER    Cluster Rank = 88
USER    Number of conformations in this cluster = 1
USER  
USER    RMSD from reference structure       = 61.531 A
USER  
USER    Estimated Free Energy of Binding    =   +5.66 kcal/mol  [=(1)+(2)+(3)-(4)]
USER    
USER    (1) Final Intermolecular Energy     =   -1.50 kcal/mol
USER        vdW + Hbond + desolv Energy     =   -1.47 kcal/mol
USER        Electrostatic Energy            =   -0.03 kcal/mol
USER    (2) Final Total Internal Energy     =  -15.20 kcal/mol
USER    (3) Torsional Free Energy           =   +7.16 kcal/mol
USER    (4) Unbound System's Energy  [=(2)] =  -15.20 kcal/mol
USER    
USER    
USER  
USER    DPF = D:/Protein_go_brrr/autodock/final/2DN3/IHP/dock.dpf
USER    NEWDPF move	IHP_ideal_opt.pdbqt
USER    NEWDPF about	0.035000 0.082000 -0.065000
USER    NEWDPF tran0	28.161368 58.325391 2.996226
USER    NEWDPF axisangle0	-0.483729 0.777677 0.401528 -90.644760
USER    NEWDPF quaternion0	-0.343967 0.552986 0.285516 -0.703117
USER    NEWDPF dihe0	115.14 77.84 27.89 146.61 10.74 -99.83 -19.28 -151.20 108.24 38.83 112.41 115.59 174.39 -24.26 -48.87 150.12 114.67 -120.29 25.79 -33.84 179.97 -49.64 -9.89 176.26 
USER  
USER                              x       y       z    vdW   Elec        q     RMS 
ATOM      1  C   UNL d   1      29.598  58.451   2.045 -0.01 +0.01    +0.194    61.531
ATOM      2  C   UNL d   1      29.731  57.647   3.340 -0.04 +0.02    +0.194    61.531
ATOM      3  C   UNL d   1      29.023  58.335   4.509 -0.03 +0.02    +0.194    61.531
ATOM      4  C   UNL d   1      27.573  58.701   4.203 -0.01 +0.01    +0.194    61.531
ATOM      5  C   UNL d   1      27.379  59.403   2.865 -0.00 +0.01    +0.194    61.531
ATOM      6  C   UNL d   1      28.137  58.751   1.707 -0.00 +0.01    +0.194    61.531
ATOM      7  O   UNL d   1      30.130  57.666   0.976 -0.01 -0.02    -0.278    61.531
ATOM      8  P   UNL d   1      31.638  57.928   0.518 -0.00 +0.04    +0.473    61.531
ATOM      9  O   UNL d   1      31.843  58.025  -0.953 -0.00 -0.02    -0.228    61.531
ATOM     10  O   UNL d   1      32.053  59.256   1.300 -0.01 -0.03    -0.303    61.531
ATOM     11  H   UNL d   1      31.321  59.899   1.264 +0.01 +0.02    +0.222    61.531
ATOM     12  O   UNL d   1      32.495  56.820   1.267 -0.04 -0.04    -0.303    61.531
ATOM     13  H   UNL d   1      32.007  55.975   1.393 +0.04 +0.04    +0.222    61.531
ATOM     14  O   UNL d   1      29.144  56.354   3.148 -0.03 -0.03    -0.278    61.531
ATOM     15  P   UNL d   1      30.149  55.158   2.794 -0.07 +0.09    +0.473    61.531
ATOM     16  O   UNL d   1      31.529  55.248   3.365 -0.08 -0.08    -0.228    61.531
ATOM     17  O   UNL d   1      29.372  53.848   3.261 -0.09 -0.07    -0.303    61.531
ATOM     18  H   UNL d   1      29.286  53.818   4.233 +0.07 +0.07    +0.222    61.531
ATOM     19  O   UNL d   1      30.069  55.029   1.210 -0.03 -0.04    -0.303    61.531
ATOM     20  H   UNL d   1      30.696  55.630   0.767 +0.03 +0.03    +0.222    61.531
ATOM     21  O   UNL d   1      28.140  59.690   0.635 +0.00 -0.01    -0.278    61.531
ATOM     22  P   UNL d   1      29.145  60.928   0.669 +0.00 +0.02    +0.473    61.531
ATOM     23  O   UNL d   1      29.746  61.312   1.979 -0.00 -0.01    -0.228    61.531
ATOM     24  O   UNL d   1      30.198  60.523  -0.454 -0.00 -0.01    -0.303    61.531
ATOM     25  H   UNL d   1      30.560  59.628  -0.229 +0.00 +0.01    +0.222    61.531
ATOM     26  O   UNL d   1      28.290  62.063  -0.072 +0.00 -0.01    -0.303    61.531
ATOM     27  H   UNL d   1      27.719  62.514   0.582 +0.00 +0.01    +0.222    61.531
ATOM     28  O   UNL d   1      28.959  57.402   5.580 -0.06 -0.03    -0.278    61.531
ATOM     29  P   UNL d   1      30.296  56.817   6.218 -0.12 +0.12    +0.473    61.531
ATOM     30  O   UNL d   1      30.441  57.006   7.684 -0.17 -0.05    -0.228    61.531
ATOM     31  O   UNL d   1      30.224  55.310   5.684 -0.76 -0.13    -0.303    61.531
ATOM     32  H   UNL d   1      29.785  55.310   4.802 +0.06 +0.06    +0.222    61.531
ATOM     33  O   UNL d   1      31.419  57.464   5.294 -0.16 -0.07    -0.303    61.531
ATOM     34  H   UNL d   1      31.621  56.843   4.552 +0.05 +0.06    +0.222    61.531
ATOM     35  O   UNL d   1      25.988  59.296   2.570 -0.00 -0.01    -0.278    61.531
ATOM     36  P   UNL d   1      25.105  60.609   2.368 -0.00 +0.00    +0.473    61.531
ATOM     37  O   UNL d   1      23.832  60.419   1.605 -0.00 +0.00    -0.228    61.531
ATOM     38  O   UNL d   1      24.901  61.099   3.869 -0.00 -0.00    -0.303    61.531
ATOM     39  H   UNL d   1      25.730  60.947   4.372 +0.00 +0.00    +0.222    61.531
ATOM     40  O   UNL d   1      26.159  61.639   1.769 +0.00 -0.00    -0.303    61.531
ATOM     41  H   UNL d   1      27.059  61.249   1.716 +0.00 +0.01    +0.222    61.531
ATOM     42  O   UNL d   1      27.151  59.613   5.222 -0.00 -0.01    -0.278    61.531
ATOM     43  P   UNL d   1      27.849  61.044   5.313 +0.00 +0.02    +0.473    61.531
ATOM     44  O   UNL d   1      29.231  61.101   5.867 -0.00 -0.01    -0.228    61.531
ATOM     45  O   UNL d   1      27.722  61.589   3.824 +0.00 -0.01    -0.303    61.531
ATOM     46  H   UNL d   1      26.857  61.359   3.430 +0.00 +0.01    +0.222    61.531
ATOM     47  O   UNL d   1      26.759  61.935   6.080 -0.00 -0.01    -0.303    61.531
ATOM     48  H   UNL d   1      25.962  62.025   5.518 +0.00 +0.00    +0.222    61.531
TER
ENDMDL
MODEL       90
USER    Run = 90
USER    Cluster Rank = 89
USER    Number of conformations in this cluster = 1
USER  
USER    RMSD from reference structure       = 30.968 A
USER  
USER    Estimated Free Energy of Binding    =   +5.71 kcal/mol  [=(1)+(2)+(3)-(4)]
USER    
USER    (1) Final Intermolecular Energy     =   -1.44 kcal/mol
USER        vdW + Hbond + desolv Energy     =   -1.38 kcal/mol
USER        Electrostatic Energy            =   -0.07 kcal/mol
USER    (2) Final Total Internal Energy     =  -15.07 kcal/mol
USER    (3) Torsional Free Energy           =   +7.16 kcal/mol
USER    (4) Unbound System's Energy  [=(2)] =  -15.07 kcal/mol
USER    
USER    
USER  
USER    DPF = D:/Protein_go_brrr/autodock/final/2DN3/IHP/dock.dpf
USER    NEWDPF move	IHP_ideal_opt.pdbqt
USER    NEWDPF about	0.035000 0.082000 -0.065000
USER    NEWDPF tran0	-2.270514 30.313970 14.699640
USER    NEWDPF axisangle0	0.959304 -0.170038 -0.225438 163.738169
USER    NEWDPF quaternion0	0.949661 -0.168329 -0.223172 0.141435
USER    NEWDPF dihe0	179.66 -44.71 100.44 109.90 -106.02 -154.96 -29.22 -87.44 -18.37 73.33 89.65 -140.78 -122.44 99.17 -1.84 -42.58 -11.97 141.18 41.96 -5.91 -48.84 1.94 162.55 -4.08 
USER  
USER                              x       y       z    vdW   Elec        q     RMS 
ATOM      1  C   UNL d   1      -1.171  31.067  13.600 -0.02 -0.00    +0.194    30.968
ATOM      2  C   UNL d   1      -1.777  31.986  14.662 -0.02 -0.00    +0.194    30.968
ATOM      3  C   UNL d   1      -3.274  31.729  14.846 -0.00 -0.00    +0.194    30.968
ATOM      4  C   UNL d   1      -3.605  30.260  15.098 +0.00 -0.00    +0.194    30.968
ATOM      5  C   UNL d   1      -2.928  29.297  14.131 -0.00 -0.01    +0.194    30.968
ATOM      6  C   UNL d   1      -1.445  29.592  13.899 -0.01 -0.01    +0.194    30.968
ATOM      7  O   UNL d   1       0.247  31.247  13.611 -0.07 -0.01    -0.278    30.968
ATOM      8  P   UNL d   1       0.858  32.507  12.842 -0.11 +0.04    +0.473    30.968
ATOM      9  O   UNL d   1       0.788  32.434  11.357 -0.17 -0.01    -0.228    30.968
ATOM     10  O   UNL d   1       0.065  33.752  13.448 -0.10 -0.00    -0.303    30.968
ATOM     11  H   UNL d   1      -0.302  33.512  14.320 +0.05 -0.00    +0.222    30.968
ATOM     12  O   UNL d   1       2.309  32.704  13.459 -0.47 -0.12    -0.303    30.968
ATOM     13  H   UNL d   1       2.317  33.302  14.241 +0.12 +0.03    +0.222    30.968
ATOM     14  O   UNL d   1      -1.117  31.755  15.912 -0.01 +0.01    -0.278    30.968
ATOM     15  P   UNL d   1      -0.486  33.037  16.636 -0.04 -0.02    +0.473    30.968
ATOM     16  O   UNL d   1      -0.330  32.960  18.123 -0.04 +0.02    -0.228    30.968
ATOM     17  O   UNL d   1       0.898  33.267  15.881 -0.09 +0.01    -0.303    30.968
ATOM     18  H   UNL d   1       0.998  32.645  15.135 +0.07 +0.00    +0.222    30.968
ATOM     19  O   UNL d   1      -1.350  34.260  16.100 -0.05 +0.02    -0.303    30.968
ATOM     20  H   UNL d   1      -2.306  34.092  16.187 +0.02 -0.01    +0.222    30.968
ATOM     21  O   UNL d   1      -1.053  28.851  12.746 -0.02 +0.02    -0.278    30.968
ATOM     22  P   UNL d   1       0.457  28.358  12.598 -0.09 -0.05    +0.473    30.968
ATOM     23  O   UNL d   1       1.238  28.096  13.841 -0.18 +0.02    -0.228    30.968
ATOM     24  O   UNL d   1       0.296  27.102  11.634 -0.18 +0.09    -0.303    30.968
ATOM     25  H   UNL d   1       1.171  26.641  11.579 +0.09 -0.08    +0.222    30.968
ATOM     26  O   UNL d   1       1.064  29.461  11.605 -0.16 +0.01    -0.303    30.968
ATOM     27  H   UNL d   1       0.606  30.313  11.753 +0.08 -0.00    +0.222    30.968
ATOM     28  O   UNL d   1      -3.685  32.415  16.022 -0.00 +0.01    -0.278    30.968
ATOM     29  P   UNL d   1      -4.674  33.660  15.923 -0.00 -0.01    +0.473    30.968
ATOM     30  O   UNL d   1      -4.108  34.878  15.289 -0.01 +0.00    -0.228    30.968
ATOM     31  O   UNL d   1      -5.918  32.971  15.189 -0.00 +0.00    -0.303    30.968
ATOM     32  H   UNL d   1      -5.876  31.999  15.346 +0.00 -0.00    +0.222    30.968
ATOM     33  O   UNL d   1      -5.185  33.801  17.424 -0.00 +0.01    -0.303    30.968
ATOM     34  H   UNL d   1      -5.159  32.912  17.857 +0.00 -0.00    +0.222    30.968
ATOM     35  O   UNL d   1      -3.010  28.012  14.745 -0.00 +0.01    -0.278    30.968
ATOM     36  P   UNL d   1      -2.204  27.709  16.087 +0.00 -0.02    +0.473    30.968
ATOM     37  O   UNL d   1      -2.033  28.871  17.013 -0.00 +0.01    -0.228    30.968
ATOM     38  O   UNL d   1      -3.037  26.499  16.702 -0.00 +0.01    -0.303    30.968
ATOM     39  H   UNL d   1      -3.757  26.858  17.264 +0.00 -0.01    +0.222    30.968
ATOM     40  O   UNL d   1      -0.878  27.021  15.540 -0.01 +0.02    -0.303    30.968
ATOM     41  H   UNL d   1      -0.624  27.371  14.657 +0.04 -0.02    +0.222    30.968
ATOM     42  O   UNL d   1      -5.018  30.116  14.915 +0.00 +0.00    -0.278    30.968
ATOM     43  P   UNL d   1      -5.920  29.710  16.167 +0.00 -0.01    +0.473    30.968
ATOM     44  O   UNL d   1      -7.357  29.416  15.911 +0.00 +0.00    -0.228    30.968
ATOM     45  O   UNL d   1      -5.110  28.497  16.802 +0.00 +0.01    -0.303    30.968
ATOM     46  H   UNL d   1      -4.190  28.468  16.471 +0.00 -0.01    +0.222    30.968
ATOM     47  O   UNL d   1      -5.631  30.883  17.222 +0.00 +0.00    -0.303    30.968
ATOM     48  H   UNL d   1      -5.556  31.735  16.744 +0.00 -0.00    +0.222    30.968
TER
ENDMDL
MODEL       74
USER    Run = 74
USER    Cluster Rank = 90
USER    Number of conformations in this cluster = 1
USER  
USER    RMSD from reference structure       = 54.801 A
USER  
USER    Estimated Free Energy of Binding    =   +5.91 kcal/mol  [=(1)+(2)+(3)-(4)]
USER    
USER    (1) Final Intermolecular Energy     =   -1.24 kcal/mol
USER        vdW + Hbond + desolv Energy     =   -1.02 kcal/mol
USER        Electrostatic Energy            =   -0.22 kcal/mol
USER    (2) Final Total Internal Energy     =  -14.78 kcal/mol
USER    (3) Torsional Free Energy           =   +7.16 kcal/mol
USER    (4) Unbound System's Energy  [=(2)] =  -14.78 kcal/mol
USER    
USER    
USER  
USER    DPF = D:/Protein_go_brrr/autodock/final/2DN3/IHP/dock.dpf
USER    NEWDPF move	IHP_ideal_opt.pdbqt
USER    NEWDPF about	0.035000 0.082000 -0.065000
USER    NEWDPF tran0	35.378061 46.883437 -4.868014
USER    NEWDPF axisangle0	0.380875 0.906317 -0.183097 -115.667981
USER    NEWDPF quaternion0	0.322414 0.767205 -0.154994 -0.532374
USER    NEWDPF dihe0	47.79 136.40 56.62 75.51 87.96 115.74 -20.01 5.55 135.22 13.33 -27.40 173.58 -57.24 135.07 93.14 147.89 -144.93 170.26 -158.49 -10.96 0.26 17.86 -3.70 174.77 
USER  
USER                              x       y       z    vdW   Elec        q     RMS 
ATOM      1  C   UNL d   1      35.077  46.176  -6.415 -0.00 +0.03    +0.194    54.801
ATOM      2  C   UNL d   1      34.563  45.381  -5.214 -0.01 +0.05    +0.194    54.801
ATOM      3  C   UNL d   1      35.587  45.347  -4.077 -0.05 +0.07    +0.194    54.801
ATOM      4  C   UNL d   1      36.091  46.732  -3.680 -0.05 +0.07    +0.194    54.801
ATOM      5  C   UNL d   1      36.507  47.603  -4.858 -0.03 +0.04    +0.194    54.801
ATOM      6  C   UNL d   1      35.512  47.588  -6.021 -0.01 +0.03    +0.194    54.801
ATOM      7  O   UNL d   1      34.007  46.306  -7.354 -0.00 -0.04    -0.278    54.801
ATOM      8  P   UNL d   1      32.886  47.410  -7.079 -0.00 +0.06    +0.473    54.801
ATOM      9  O   UNL d   1      33.005  48.120  -5.776 -0.00 -0.04    -0.228    54.801
ATOM     10  O   UNL d   1      32.987  48.386  -8.337 +0.00 -0.03    -0.303    54.801
ATOM     11  H   UNL d   1      33.353  49.245  -8.056 +0.00 +0.02    +0.222    54.801
ATOM     12  O   UNL d   1      31.505  46.670  -7.342 +0.00 -0.03    -0.303    54.801
ATOM     13  H   UNL d   1      31.128  46.258  -6.533 +0.00 +0.03    +0.222    54.801
ATOM     14  O   UNL d   1      33.362  45.993  -4.728 -0.01 -0.07    -0.278    54.801
ATOM     15  P   UNL d   1      32.046  45.080  -4.720 +0.01 +0.11    +0.473    54.801
ATOM     16  O   UNL d   1      30.748  45.774  -4.448 -0.00 -0.05    -0.228    54.801
ATOM     17  O   UNL d   1      32.072  44.350  -6.136 +0.00 -0.05    -0.303    54.801
ATOM     18  H   UNL d   1      32.377  44.956  -6.838 +0.00 +0.03    +0.222    54.801
ATOM     19  O   UNL d   1      32.401  43.881  -3.736 -0.00 -0.10    -0.303    54.801
ATOM     20  H   UNL d   1      33.183  44.083  -3.189 +0.02 +0.10    +0.222    54.801
ATOM     21  O   UNL d   1      36.184  48.149  -7.146 -0.00 -0.03    -0.278    54.801
ATOM     22  P   UNL d   1      35.886  49.655  -7.577 -0.00 +0.05    +0.473    54.801
ATOM     23  O   UNL d   1      37.033  50.606  -7.655 -0.00 -0.02    -0.228    54.801
ATOM     24  O   UNL d   1      35.093  49.453  -8.942 +0.00 -0.02    -0.303    54.801
ATOM     25  H   UNL d   1      34.713  48.537  -8.944 +0.00 +0.02    +0.222    54.801
ATOM     26  O   UNL d   1      34.708  50.056  -6.566 -0.00 -0.03    -0.303    54.801
ATOM     27  H   UNL d   1      33.958  49.440  -6.686 +0.00 +0.03    +0.222    54.801
ATOM     28  O   UNL d   1      34.929  44.839  -2.923 -0.08 -0.17    -0.278    54.801
ATOM     29  P   UNL d   1      35.561  43.628  -2.104 -0.06 +0.35    +0.473    54.801
ATOM     30  O   UNL d   1      35.842  43.901  -0.671 -0.68 -0.39    -0.228    54.801
ATOM     31  O   UNL d   1      34.492  42.483  -2.429 -0.02 -0.15    -0.303    54.801
ATOM     32  H   UNL d   1      34.127  42.641  -3.331 +0.01 +0.08    +0.222    54.801
ATOM     33  O   UNL d   1      36.801  43.220  -3.016 -0.02 -0.11    -0.303    54.801
ATOM     34  H   UNL d   1      37.446  43.969  -3.035 +0.02 +0.08    +0.222    54.801
ATOM     35  O   UNL d   1      36.548  48.938  -4.358 -0.03 -0.06    -0.278    54.801
ATOM     36  P   UNL d   1      37.857  49.829  -4.548 -0.01 +0.07    +0.473    54.801
ATOM     37  O   UNL d   1      38.749  49.928  -3.351 -0.03 -0.04    -0.228    54.801
ATOM     38  O   UNL d   1      38.536  49.144  -5.815 -0.00 -0.04    -0.303    54.801
ATOM     39  H   UNL d   1      37.954  49.266  -6.596 +0.00 +0.02    +0.222    54.801
ATOM     40  O   UNL d   1      37.263  51.188  -5.121 -0.00 -0.04    -0.303    54.801
ATOM     41  H   UNL d   1      36.429  51.040  -5.620 +0.01 +0.03    +0.222    54.801
ATOM     42  O   UNL d   1      37.255  46.534  -2.871 +0.07 -0.11    -0.278    54.801
ATOM     43  P   UNL d   1      38.539  45.847  -3.523 -0.03 +0.12    +0.473    54.801
ATOM     44  O   UNL d   1      39.344  44.938  -2.661 -0.03 -0.06    -0.228    54.801
ATOM     45  O   UNL d   1      37.940  45.150  -4.822 -0.01 -0.06    -0.303    54.801
ATOM     46  H   UNL d   1      37.797  44.193  -4.682 +0.01 +0.05    +0.222    54.801
ATOM     47  O   UNL d   1      39.336  47.086  -4.156 -0.01 -0.05    -0.303    54.801
ATOM     48  H   UNL d   1      38.785  47.893  -4.086 +0.01 +0.04    +0.222    54.801
TER
ENDMDL
MODEL       36
USER    Run = 36
USER    Cluster Rank = 91
USER    Number of conformations in this cluster = 1
USER  
USER    RMSD from reference structure       = 59.619 A
USER  
USER    Estimated Free Energy of Binding    =   +6.13 kcal/mol  [=(1)+(2)+(3)-(4)]
USER    
USER    (1) Final Intermolecular Energy     =   -1.03 kcal/mol
USER        vdW + Hbond + desolv Energy     =   -0.83 kcal/mol
USER        Electrostatic Energy            =   -0.20 kcal/mol
USER    (2) Final Total Internal Energy     =  -14.17 kcal/mol
USER    (3) Torsional Free Energy           =   +7.16 kcal/mol
USER    (4) Unbound System's Energy  [=(2)] =  -14.17 kcal/mol
USER    
USER    
USER  
USER    DPF = D:/Protein_go_brrr/autodock/final/2DN3/IHP/dock.dpf
USER    NEWDPF move	IHP_ideal_opt.pdbqt
USER    NEWDPF about	0.035000 0.082000 -0.065000
USER    NEWDPF tran0	57.267359 27.716351 -1.859251
USER    NEWDPF axisangle0	0.173440 -0.984783 -0.011030 -136.750501
USER    NEWDPF quaternion0	0.161233 -0.915471 -0.010253 -0.368526
USER    NEWDPF dihe0	-172.22 20.15 122.24 -1.27 41.42 92.23 -32.70 150.95 128.86 58.31 -95.47 -151.04 31.65 43.56 -179.81 -179.49 149.73 -1.75 -131.95 -31.45 22.95 159.49 -175.93 129.87 
USER  
USER                              x       y       z    vdW   Elec        q     RMS 
ATOM      1  C   UNL d   1      56.139  26.416  -1.716 -0.00 +0.05    +0.194    59.619
ATOM      2  C   UNL d   1      57.465  26.069  -2.396 +0.00 +0.03    +0.194    59.619
ATOM      3  C   UNL d   1      57.897  27.156  -3.382 +0.00 +0.03    +0.194    59.619
ATOM      4  C   UNL d   1      57.912  28.554  -2.768 +0.00 +0.03    +0.194    59.619
ATOM      5  C   UNL d   1      56.654  28.900  -1.982 +0.00 +0.04    +0.194    59.619
ATOM      6  C   UNL d   1      56.186  27.788  -1.041 -0.01 +0.05    +0.194    59.619
ATOM      7  O   UNL d   1      55.894  25.447  -0.694 -0.01 -0.09    -0.278    59.619
ATOM      8  P   UNL d   1      56.104  25.880   0.829 -0.03 +0.21    +0.473    59.619
ATOM      9  O   UNL d   1      54.949  26.586   1.448 -0.09 -0.19    -0.228    59.619
ATOM     10  O   UNL d   1      56.478  24.517   1.570 -0.01 -0.12    -0.303    59.619
ATOM     11  H   UNL d   1      56.938  23.923   0.949 +0.01 +0.07    +0.222    59.619
ATOM     12  O   UNL d   1      57.487  26.660   0.850 -0.00 -0.09    -0.303    59.619
ATOM     13  H   UNL d   1      58.088  26.399   0.116 +0.01 +0.05    +0.222    59.619
ATOM     14  O   UNL d   1      58.481  25.930  -1.395 +0.00 -0.05    -0.278    59.619
ATOM     15  P   UNL d   1      58.857  24.436  -0.959 +0.00 +0.08    +0.473    59.619
ATOM     16  O   UNL d   1      60.080  23.841  -1.584 +0.00 -0.03    -0.228    59.619
ATOM     17  O   UNL d   1      58.947  24.507   0.630 +0.00 -0.06    -0.303    59.619
ATOM     18  H   UNL d   1      58.386  25.224   0.982 +0.01 +0.05    +0.222    59.619
ATOM     19  O   UNL d   1      57.512  23.612  -1.166 +0.00 -0.06    -0.303    59.619
ATOM     20  H   UNL d   1      56.790  23.954  -0.606 +0.01 +0.05    +0.222    59.619
ATOM     21  O   UNL d   1      54.853  28.109  -0.653 -0.03 -0.11    -0.278    59.619
ATOM     22  P   UNL d   1      54.600  29.199   0.484 -0.04 +0.23    +0.473    59.619
ATOM     23  O   UNL d   1      53.387  29.055   1.341 -0.66 -0.22    -0.228    59.619
ATOM     24  O   UNL d   1      55.981  29.172   1.273 -0.03 -0.12    -0.303    59.619
ATOM     25  H   UNL d   1      56.402  28.287   1.129 +0.02 +0.09    +0.222    59.619
ATOM     26  O   UNL d   1      54.717  30.567  -0.343 -0.01 -0.08    -0.303    59.619
ATOM     27  H   UNL d   1      55.662  30.801  -0.446 +0.01 +0.05    +0.222    59.619
ATOM     28  O   UNL d   1      59.245  26.890  -3.748 +0.00 -0.03    -0.278    59.619
ATOM     29  P   UNL d   1      60.445  27.513  -2.906 +0.00 +0.05    +0.473    59.619
ATOM     30  O   UNL d   1      61.725  26.761  -2.961 +0.00 -0.02    -0.228    59.619
ATOM     31  O   UNL d   1      60.453  29.003  -3.492 +0.00 -0.03    -0.303    59.619
ATOM     32  H   UNL d   1      59.584  29.175  -3.923 +0.00 +0.02    +0.222    59.619
ATOM     33  O   UNL d   1      59.783  27.703  -1.471 +0.00 -0.04    -0.303    59.619
ATOM     34  H   UNL d   1      60.206  28.475  -1.021 +0.00 +0.03    +0.222    59.619
ATOM     35  O   UNL d   1      57.001  30.019  -1.170 +0.00 -0.05    -0.278    59.619
ATOM     36  P   UNL d   1      58.375  30.030  -0.359 +0.01 +0.07    +0.473    59.619
ATOM     37  O   UNL d   1      58.490  31.079   0.701 +0.00 -0.03    -0.228    59.619
ATOM     38  O   UNL d   1      58.441  28.536   0.189 +0.00 -0.06    -0.303    59.619
ATOM     39  H   UNL d   1      58.424  27.914  -0.570 +0.00 +0.04    +0.222    59.619
ATOM     40  O   UNL d   1      59.457  30.058  -1.524 +0.00 -0.04    -0.303    59.619
ATOM     41  H   UNL d   1      59.060  30.324  -2.383 +0.00 +0.03    +0.222    59.619
ATOM     42  O   UNL d   1      57.999  29.482  -3.854 +0.00 -0.03    -0.278    59.619
ATOM     43  P   UNL d   1      57.608  28.993  -5.321 +0.00 +0.05    +0.473    59.619
ATOM     44  O   UNL d   1      56.375  28.169  -5.464 +0.00 -0.03    -0.228    59.619
ATOM     45  O   UNL d   1      57.582  30.352  -6.148 +0.00 -0.03    -0.303    59.619
ATOM     46  H   UNL d   1      57.180  30.227  -7.031 +0.00 +0.02    +0.222    59.619
ATOM     47  O   UNL d   1      58.959  28.314  -5.853 +0.00 -0.03    -0.303    59.619
ATOM     48  H   UNL d   1      59.471  27.973  -5.090 +0.00 +0.02    +0.222    59.619
TER
ENDMDL
MODEL       99
USER    Run = 99
USER    Cluster Rank = 92
USER    Number of conformations in this cluster = 1
USER  
USER    RMSD from reference structure       = 67.942 A
USER  
USER    Estimated Free Energy of Binding    =   +6.19 kcal/mol  [=(1)+(2)+(3)-(4)]
USER    
USER    (1) Final Intermolecular Energy     =   -0.97 kcal/mol
USER        vdW + Hbond + desolv Energy     =   -0.92 kcal/mol
USER        Electrostatic Energy            =   -0.06 kcal/mol
USER    (2) Final Total Internal Energy     =  -15.00 kcal/mol
USER    (3) Torsional Free Energy           =   +7.16 kcal/mol
USER    (4) Unbound System's Energy  [=(2)] =  -15.00 kcal/mol
USER    
USER    
USER  
USER    DPF = D:/Protein_go_brrr/autodock/final/2DN3/IHP/dock.dpf
USER    NEWDPF move	IHP_ideal_opt.pdbqt
USER    NEWDPF about	0.035000 0.082000 -0.065000
USER    NEWDPF tran0	32.790623 62.464255 13.595047
USER    NEWDPF axisangle0	0.041913 -0.056779 0.997507 -162.249755
USER    NEWDPF quaternion0	0.041411 -0.056100 0.985563 -0.154281
USER    NEWDPF dihe0	66.20 83.57 94.98 111.16 5.12 -123.85 -123.22 -8.02 47.39 0.36 84.09 82.21 -46.94 108.33 -56.48 45.31 154.64 -148.93 26.65 -4.34 174.33 162.71 -2.81 -35.71 
USER  
USER                              x       y       z    vdW   Elec        q     RMS 
ATOM      1  C   UNL d   1      31.927  63.582  14.589 +0.00 +0.01    +0.194    67.942
ATOM      2  C   UNL d   1      33.335  64.014  14.179 +0.00 +0.01    +0.194    67.942
ATOM      3  C   UNL d   1      34.336  62.863  14.290 +0.00 +0.01    +0.194    67.942
ATOM      4  C   UNL d   1      33.884  61.601  13.559 -0.00 +0.01    +0.194    67.942
ATOM      5  C   UNL d   1      32.445  61.197  13.850 -0.01 +0.01    +0.194    67.942
ATOM      6  C   UNL d   1      31.453  62.361  13.800 -0.00 +0.01    +0.194    67.942
ATOM      7  O   UNL d   1      31.028  64.654  14.295 +0.00 -0.01    -0.278    67.942
ATOM      8  P   UNL d   1      30.651  65.672  15.468 +0.00 +0.01    +0.473    67.942
ATOM      9  O   UNL d   1      31.376  65.454  16.749 +0.00 -0.01    -0.228    67.942
ATOM     10  O   UNL d   1      30.916  67.110  14.832 +0.00 -0.01    -0.303    67.942
ATOM     11  H   UNL d   1      31.830  67.390  15.026 +0.00 +0.01    +0.222    67.942
ATOM     12  O   UNL d   1      29.065  65.634  15.553 +0.00 -0.01    -0.303    67.942
ATOM     13  H   UNL d   1      28.693  64.733  15.418 +0.00 +0.01    +0.222    67.942
ATOM     14  O   UNL d   1      33.308  64.466  12.819 +0.00 -0.01    -0.278    67.942
ATOM     15  P   UNL d   1      33.923  65.917  12.535 +0.00 +0.02    +0.473    67.942
ATOM     16  O   UNL d   1      34.241  66.244  11.109 +0.00 -0.01    -0.228    67.942
ATOM     17  O   UNL d   1      32.863  66.920  13.176 +0.00 -0.01    -0.303    67.942
ATOM     18  H   UNL d   1      32.111  66.434  13.565 +0.00 +0.01    +0.222    67.942
ATOM     19  O   UNL d   1      35.137  66.041  13.555 +0.00 -0.01    -0.303    67.942
ATOM     20  H   UNL d   1      35.734  65.272  13.498 +0.00 +0.01    +0.222    67.942
ATOM     21  O   UNL d   1      30.251  61.905  14.417 -0.00 -0.01    -0.278    67.942
ATOM     22  P   UNL d   1      30.203  61.694  15.998 +0.00 +0.02    +0.473    67.942
ATOM     23  O   UNL d   1      31.480  61.393  16.708 -0.00 -0.01    -0.228    67.942
ATOM     24  O   UNL d   1      29.467  63.019  16.481 -0.00 -0.01    -0.303    67.942
ATOM     25  H   UNL d   1      30.022  63.795  16.214 +0.00 +0.01    +0.222    67.942
ATOM     26  O   UNL d   1      29.042  60.598  16.145 -0.00 -0.01    -0.303    67.942
ATOM     27  H   UNL d   1      29.313  59.779  15.682 +0.01 +0.01    +0.222    67.942
ATOM     28  O   UNL d   1      35.532  63.269  13.635 +0.00 -0.01    -0.278    67.942
ATOM     29  P   UNL d   1      35.706  63.050  12.068 +0.00 +0.02    +0.473    67.942
ATOM     30  O   UNL d   1      34.447  62.840  11.307 +0.00 -0.01    -0.228    67.942
ATOM     31  O   UNL d   1      36.570  64.345  11.698 +0.00 -0.01    -0.303    67.942
ATOM     32  H   UNL d   1      35.990  65.138  11.762 +0.00 +0.01    +0.222    67.942
ATOM     33  O   UNL d   1      36.784  61.879  12.012 +0.00 -0.02    -0.303    67.942
ATOM     34  H   UNL d   1      36.487  61.141  12.598 +0.00 +0.01    +0.222    67.942
ATOM     35  O   UNL d   1      32.080  60.289  12.813 -0.01 -0.02    -0.278    67.942
ATOM     36  P   UNL d   1      31.462  58.863  13.172 -0.06 +0.07    +0.473    67.942
ATOM     37  O   UNL d   1      31.527  57.839  12.083 -0.68 -0.08    -0.228    67.942
ATOM     38  O   UNL d   1      32.277  58.476  14.484 -0.08 -0.04    -0.303    67.942
ATOM     39  H   UNL d   1      33.121  58.977  14.497 +0.02 +0.02    +0.222    67.942
ATOM     40  O   UNL d   1      30.018  59.246  13.718 -0.03 -0.03    -0.303    67.942
ATOM     41  H   UNL d   1      30.046  60.041  14.294 +0.01 +0.01    +0.222    67.942
ATOM     42  O   UNL d   1      34.722  60.534  14.017 -0.00 -0.02    -0.278    67.942
ATOM     43  P   UNL d   1      35.100  59.361  13.004 -0.01 +0.04    +0.473    67.942
ATOM     44  O   UNL d   1      34.384  58.064  13.156 -0.09 -0.02    -0.228    67.942
ATOM     45  O   UNL d   1      34.904  60.051  11.583 -0.01 -0.03    -0.303    67.942
ATOM     46  H   UNL d   1      34.784  61.018  11.668 +0.01 +0.02    +0.222    67.942
ATOM     47  O   UNL d   1      36.698  59.286  13.111 -0.00 -0.03    -0.303    67.942
ATOM     48  H   UNL d   1      37.095  59.775  12.361 +0.01 +0.02    +0.222    67.942
TER
ENDMDL
MODEL      100
USER    Run = 100
USER    Cluster Rank = 93
USER    Number of conformations in this cluster = 1
USER  
USER    RMSD from reference structure       = 65.281 A
USER  
USER    Estimated Free Energy of Binding    =   +6.24 kcal/mol  [=(1)+(2)+(3)-(4)]
USER    
USER    (1) Final Intermolecular Energy     =   -0.92 kcal/mol
USER        vdW + Hbond + desolv Energy     =   -0.75 kcal/mol
USER        Electrostatic Energy            =   -0.16 kcal/mol
USER    (2) Final Total Internal Energy     =  -13.96 kcal/mol
USER    (3) Torsional Free Energy           =   +7.16 kcal/mol
USER    (4) Unbound System's Energy  [=(2)] =  -13.96 kcal/mol
USER    
USER    
USER  
USER    DPF = D:/Protein_go_brrr/autodock/final/2DN3/IHP/dock.dpf
USER    NEWDPF move	IHP_ideal_opt.pdbqt
USER    NEWDPF about	0.035000 0.082000 -0.065000
USER    NEWDPF tran0	44.818162 40.788131 33.223803
USER    NEWDPF axisangle0	0.668937 -0.341049 -0.660461 121.230053
USER    NEWDPF quaternion0	0.582874 -0.297170 -0.575487 0.490675
USER    NEWDPF dihe0	106.36 81.23 5.53 59.03 39.35 -159.50 156.91 -9.14 -0.88 98.23 83.46 -138.26 142.26 -166.08 130.18 61.85 -66.38 116.62 1.17 -48.63 -21.14 -41.31 3.60 -10.42 
USER  
USER                              x       y       z    vdW   Elec        q     RMS 
ATOM      1  C   UNL d   1      45.529  42.088  32.336 +0.00 +0.02    +0.194    65.281
ATOM      2  C   UNL d   1      46.201  41.753  33.669 +0.00 +0.02    +0.194    65.281
ATOM      3  C   UNL d   1      45.172  41.499  34.773 +0.00 +0.02    +0.194    65.281
ATOM      4  C   UNL d   1      44.115  40.468  34.384 +0.00 +0.02    +0.194    65.281
ATOM      5  C   UNL d   1      43.500  40.698  33.010 +0.00 +0.03    +0.194    65.281
ATOM      6  C   UNL d   1      44.524  41.014  31.918 +0.00 +0.03    +0.194    65.281
ATOM      7  O   UNL d   1      46.541  42.141  31.327 +0.00 -0.03    -0.278    65.281
ATOM      8  P   UNL d   1      46.725  43.499  30.506 +0.00 +0.05    +0.473    65.281
ATOM      9  O   UNL d   1      47.555  43.385  29.276 +0.00 -0.02    -0.228    65.281
ATOM     10  O   UNL d   1      45.232  43.979  30.214 +0.00 -0.04    -0.303    65.281
ATOM     11  H   UNL d   1      44.725  43.247  29.816 +0.01 +0.04    +0.222    65.281
ATOM     12  O   UNL d   1      47.214  44.566  31.577 +0.00 -0.02    -0.303    65.281
ATOM     13  H   UNL d   1      47.812  44.183  32.258 +0.00 +0.02    +0.222    65.281
ATOM     14  O   UNL d   1      46.998  40.574  33.507 +0.00 -0.03    -0.278    65.281
ATOM     15  P   UNL d   1      48.464  40.779  32.896 +0.00 +0.04    +0.473    65.281
ATOM     16  O   UNL d   1      48.698  40.251  31.516 +0.00 -0.02    -0.228    65.281
ATOM     17  O   UNL d   1      48.714  42.349  33.007 +0.00 -0.02    -0.303    65.281
ATOM     18  H   UNL d   1      48.411  42.811  32.202 +0.00 +0.02    +0.222    65.281
ATOM     19  O   UNL d   1      49.443  40.220  34.019 +0.00 -0.02    -0.303    65.281
ATOM     20  H   UNL d   1      48.952  39.901  34.799 +0.00 +0.02    +0.222    65.281
ATOM     21  O   UNL d   1      43.796  41.532  30.807 -0.01 -0.07    -0.278    65.281
ATOM     22  P   UNL d   1      43.925  40.832  29.379 -0.02 +0.25    +0.473    65.281
ATOM     23  O   UNL d   1      42.856  41.086  28.370 -0.64 -0.31    -0.228    65.281
ATOM     24  O   UNL d   1      45.386  41.275  28.930 -0.01 -0.07    -0.303    65.281
ATOM     25  H   UNL d   1      45.599  42.133  29.378 +0.01 +0.04    +0.222    65.281
ATOM     26  O   UNL d   1      44.155  39.299  29.789 -0.06 -0.14    -0.303    65.281
ATOM     27  H   UNL d   1      43.751  39.136  30.665 +0.02 +0.09    +0.222    65.281
ATOM     28  O   UNL d   1      45.863  40.932  35.879 +0.00 -0.02    -0.278    65.281
ATOM     29  P   UNL d   1      46.884  41.812  36.727 +0.00 +0.03    +0.473    65.281
ATOM     30  O   UNL d   1      46.506  43.238  36.905 +0.00 -0.01    -0.228    65.281
ATOM     31  O   UNL d   1      46.991  40.919  38.050 +0.00 -0.02    -0.303    65.281
ATOM     32  H   UNL d   1      47.195  41.509  38.812 +0.00 +0.01    +0.222    65.281
ATOM     33  O   UNL d   1      48.267  41.521  35.993 +0.00 -0.02    -0.303    65.281
ATOM     34  H   UNL d   1      48.148  41.653  35.020 +0.00 +0.02    +0.222    65.281
ATOM     35  O   UNL d   1      42.874  39.467  32.655 -0.00 -0.06    -0.278    65.281
ATOM     36  P   UNL d   1      41.399  39.460  32.048 -0.02 +0.13    +0.473    65.281
ATOM     37  O   UNL d   1      40.571  40.668  32.352 -0.02 -0.05    -0.228    65.281
ATOM     38  O   UNL d   1      41.685  39.236  30.498 -0.06 -0.19    -0.303    65.281
ATOM     39  H   UNL d   1      42.084  40.050  30.124 +0.02 +0.17    +0.222    65.281
ATOM     40  O   UNL d   1      40.835  38.057  32.540 -0.02 -0.07    -0.303    65.281
ATOM     41  H   UNL d   1      40.880  37.969  33.519 +0.01 +0.04    +0.222    65.281
ATOM     42  O   UNL d   1      43.058  40.577  35.343 +0.00 -0.03    -0.278    65.281
ATOM     43  P   UNL d   1      42.660  39.294  36.203 +0.00 +0.04    +0.473    65.281
ATOM     44  O   UNL d   1      41.865  39.517  37.442 +0.00 -0.02    -0.228    65.281
ATOM     45  O   UNL d   1      41.945  38.362  35.129 -0.00 -0.03    -0.303    65.281
ATOM     46  H   UNL d   1      42.067  38.704  34.221 +0.01 +0.03    +0.222    65.281
ATOM     47  O   UNL d   1      44.061  38.542  36.406 +0.00 -0.03    -0.303    65.281
ATOM     48  H   UNL d   1      44.760  39.204  36.587 +0.00 +0.02    +0.222    65.281
TER
ENDMDL
MODEL        1
USER    Run = 1
USER    Cluster Rank = 94
USER    Number of conformations in this cluster = 1
USER  
USER    RMSD from reference structure       = 38.859 A
USER  
USER    Estimated Free Energy of Binding    =   +6.38 kcal/mol  [=(1)+(2)+(3)-(4)]
USER    
USER    (1) Final Intermolecular Energy     =   -0.78 kcal/mol
USER        vdW + Hbond + desolv Energy     =   -0.77 kcal/mol
USER        Electrostatic Energy            =   -0.01 kcal/mol
USER    (2) Final Total Internal Energy     =  -14.91 kcal/mol
USER    (3) Torsional Free Energy           =   +7.16 kcal/mol
USER    (4) Unbound System's Energy  [=(2)] =  -14.91 kcal/mol
USER    
USER    
USER  
USER    DPF = D:/Protein_go_brrr/autodock/final/2DN3/IHP/dock.dpf
USER    NEWDPF move	IHP_ideal_opt.pdbqt
USER    NEWDPF about	0.035000 0.082000 -0.065000
USER    NEWDPF tran0	-6.754727 40.324274 11.382335
USER    NEWDPF axisangle0	0.934440 -0.352909 -0.047709 131.974608
USER    NEWDPF quaternion0	0.853570 -0.322367 -0.043580 0.406939
USER    NEWDPF dihe0	100.62 123.19 -173.64 0.03 -9.85 -108.60 -47.03 -135.49 7.25 53.66 83.51 135.02 -33.98 176.21 5.52 114.11 147.71 34.78 -157.16 17.04 4.18 -0.47 -18.38 -9.81 
USER  
USER                              x       y       z    vdW   Elec        q     RMS 
ATOM      1  C   UNL d   1      -5.098  40.660  11.026 -0.03 +0.10    +0.194    38.859
ATOM      2  C   UNL d   1      -5.680  41.407  12.228 -0.01 +0.04    +0.194    38.859
ATOM      3  C   UNL d   1      -7.084  41.941  11.937 +0.01 +0.02    +0.194    38.859
ATOM      4  C   UNL d   1      -8.036  40.873  11.404 +0.01 +0.02    +0.194    38.859
ATOM      5  C   UNL d   1      -7.453  40.027  10.280 +0.01 +0.03    +0.194    38.859
ATOM      6  C   UNL d   1      -6.025  39.544  10.545 -0.01 +0.06    +0.194    38.859
ATOM      7  O   UNL d   1      -3.871  40.049  11.433 -0.48 -0.34    -0.278    38.859
ATOM      8  P   UNL d   1      -3.939  38.673  12.240 -0.03 +0.22    +0.473    38.859
ATOM      9  O   UNL d   1      -5.235  37.947  12.142 -0.01 -0.05    -0.228    38.859
ATOM     10  O   UNL d   1      -2.705  37.832  11.677 -0.22 -0.20    -0.303    38.859
ATOM     11  H   UNL d   1      -2.789  37.738  10.709 +0.03 +0.19    +0.222    38.859
ATOM     12  O   UNL d   1      -3.454  39.031  13.710 -0.08 +0.01    -0.303    38.859
ATOM     13  H   UNL d   1      -4.148  39.475  14.247 +0.03 -0.01    +0.222    38.859
ATOM     14  O   UNL d   1      -5.755  40.510  13.343 -0.00 -0.03    -0.278    38.859
ATOM     15  P   UNL d   1      -5.576  41.158  14.796 +0.01 -0.01    +0.473    38.859
ATOM     16  O   UNL d   1      -4.559  40.525  15.694 -0.01 +0.04    -0.228    38.859
ATOM     17  O   UNL d   1      -5.267  42.693  14.501 +0.00 +0.00    -0.303    38.859
ATOM     18  H   UNL d   1      -6.090  43.218  14.472 +0.01 +0.00    +0.222    38.859
ATOM     19  O   UNL d   1      -7.053  41.236  15.381 +0.00 +0.00    -0.303    38.859
ATOM     20  H   UNL d   1      -7.634  41.783  14.820 +0.00 +0.00    +0.222    38.859
ATOM     21  O   UNL d   1      -5.510  39.080   9.299 -0.02 -0.11    -0.278    38.859
ATOM     22  P   UNL d   1      -5.528  37.520   8.966 +0.00 +0.12    +0.473    38.859
ATOM     23  O   UNL d   1      -6.683  36.710   9.450 +0.00 -0.03    -0.228    38.859
ATOM     24  O   UNL d   1      -5.329  37.522   7.387 -0.00 -0.07    -0.303    38.859
ATOM     25  H   UNL d   1      -6.188  37.786   6.968 +0.00 +0.04    +0.222    38.859
ATOM     26  O   UNL d   1      -4.082  37.059   9.481 -0.03 -0.11    -0.303    38.859
ATOM     27  H   UNL d   1      -4.096  36.988  10.457 +0.02 +0.08    +0.222    38.859
ATOM     28  O   UNL d   1      -7.646  42.365  13.173 +0.00 -0.02    -0.278    38.859
ATOM     29  P   UNL d   1      -7.873  43.914  13.464 +0.00 +0.02    +0.473    38.859
ATOM     30  O   UNL d   1      -9.175  44.467  13.012 +0.00 -0.01    -0.228    38.859
ATOM     31  O   UNL d   1      -7.575  43.949  15.036 +0.00 -0.01    -0.303    38.859
ATOM     32  H   UNL d   1      -7.279  43.054  15.319 +0.00 +0.00    +0.222    38.859
ATOM     33  O   UNL d   1      -6.560  44.567  12.843 +0.00 -0.02    -0.303    38.859
ATOM     34  H   UNL d   1      -5.802  44.410  13.458 +0.01 +0.01    +0.222    38.859
ATOM     35  O   UNL d   1      -8.280  38.868  10.198 +0.00 -0.03    -0.278    38.859
ATOM     36  P   UNL d   1      -9.207  38.629   8.923 +0.00 +0.04    +0.473    38.859
ATOM     37  O   UNL d   1     -10.230  37.547   9.062 +0.00 -0.01    -0.228    38.859
ATOM     38  O   UNL d   1      -9.818  40.081   8.687 +0.00 -0.02    -0.303    38.859
ATOM     39  H   UNL d   1     -10.357  40.333   9.468 +0.00 +0.01    +0.222    38.859
ATOM     40  O   UNL d   1      -8.141  38.469   7.753 +0.00 -0.04    -0.303    38.859
ATOM     41  H   UNL d   1      -7.229  38.361   8.104 +0.00 +0.03    +0.222    38.859
ATOM     42  O   UNL d   1      -9.172  41.560  10.869 +0.00 -0.02    -0.278    38.859
ATOM     43  P   UNL d   1     -10.616  41.247  11.469 +0.00 +0.02    +0.473    38.859
ATOM     44  O   UNL d   1     -10.990  41.918  12.745 +0.00 -0.01    -0.228    38.859
ATOM     45  O   UNL d   1     -11.582  41.583  10.250 +0.00 -0.01    -0.303    38.859
ATOM     46  H   UNL d   1     -11.079  41.725   9.423 +0.00 +0.01    +0.222    38.859
ATOM     47  O   UNL d   1     -10.665  39.644  11.491 +0.00 -0.01    -0.303    38.859
ATOM     48  H   UNL d   1     -10.337  39.300  10.635 +0.00 +0.01    +0.222    38.859
TER
ENDMDL
MODEL       70
USER    Run = 70
USER    Cluster Rank = 95
USER    Number of conformations in this cluster = 1
USER  
USER    RMSD from reference structure       = 56.480 A
USER  
USER    Estimated Free Energy of Binding    =   +6.75 kcal/mol  [=(1)+(2)+(3)-(4)]
USER    
USER    (1) Final Intermolecular Energy     =   -0.40 kcal/mol
USER        vdW + Hbond + desolv Energy     =   -0.40 kcal/mol
USER        Electrostatic Energy            =   -0.01 kcal/mol
USER    (2) Final Total Internal Energy     =  -13.34 kcal/mol
USER    (3) Torsional Free Energy           =   +7.16 kcal/mol
USER    (4) Unbound System's Energy  [=(2)] =  -13.34 kcal/mol
USER    
USER    
USER  
USER    DPF = D:/Protein_go_brrr/autodock/final/2DN3/IHP/dock.dpf
USER    NEWDPF move	IHP_ideal_opt.pdbqt
USER    NEWDPF about	0.035000 0.082000 -0.065000
USER    NEWDPF tran0	36.036752 47.929665 -7.264896
USER    NEWDPF axisangle0	0.214341 -0.654883 0.724697 178.543934
USER    NEWDPF quaternion0	0.214323 -0.654830 0.724639 0.012706
USER    NEWDPF dihe0	-84.21 22.73 -153.31 9.82 39.46 120.37 11.85 -138.05 42.50 79.96 96.03 101.94 -179.26 47.14 153.51 -125.05 -80.13 50.65 63.50 11.87 -9.91 34.69 175.68 -174.02 
USER  
USER                              x       y       z    vdW   Elec        q     RMS 
ATOM      1  C   UNL d   1      35.391  46.935  -6.009 -0.01 +0.03    +0.194    56.480
ATOM      2  C   UNL d   1      36.614  47.770  -5.627 -0.01 +0.03    +0.194    56.480
ATOM      3  C   UNL d   1      37.681  47.747  -6.724 -0.01 +0.02    +0.194    56.480
ATOM      4  C   UNL d   1      37.136  48.117  -8.101 -0.00 +0.02    +0.194    56.480
ATOM      5  C   UNL d   1      35.851  47.390  -8.476 +0.00 +0.02    +0.194    56.480
ATOM      6  C   UNL d   1      34.808  47.361  -7.357 -0.00 +0.02    +0.194    56.480
ATOM      7  O   UNL d   1      34.380  47.147  -5.021 -0.01 -0.06    -0.278    56.480
ATOM      8  P   UNL d   1      34.716  46.785  -3.502 -0.06 +0.19    +0.473    56.480
ATOM      9  O   UNL d   1      33.732  45.889  -2.834 -0.09 -0.14    -0.228    56.480
ATOM     10  O   UNL d   1      36.185  46.167  -3.567 -0.06 -0.12    -0.303    56.480
ATOM     11  H   UNL d   1      36.796  46.722  -3.047 +0.02 +0.09    +0.222    56.480
ATOM     12  O   UNL d   1      34.974  48.183  -2.792 -0.09 -0.13    -0.303    56.480
ATOM     13  H   UNL d   1      35.227  48.894  -3.422 +0.02 +0.06    +0.222    56.480
ATOM     14  O   UNL d   1      36.205  49.128  -5.417 -0.01 -0.04    -0.278    56.480
ATOM     15  P   UNL d   1      36.946  49.925  -4.243 -0.02 +0.08    +0.473    56.480
ATOM     16  O   UNL d   1      38.003  50.901  -4.655 -0.01 -0.03    -0.228    56.480
ATOM     17  O   UNL d   1      35.759  50.608  -3.429 -0.03 -0.06    -0.303    56.480
ATOM     18  H   UNL d   1      35.660  50.204  -2.546 +0.02 +0.06    +0.222    56.480
ATOM     19  O   UNL d   1      37.417  48.792  -3.230 -0.06 -0.07    -0.303    56.480
ATOM     20  H   UNL d   1      36.688  48.184  -3.005 +0.02 +0.07    +0.222    56.480
ATOM     21  O   UNL d   1      33.839  46.380  -7.722 -0.00 -0.03    -0.278    56.480
ATOM     22  P   UNL d   1      32.355  46.833  -8.094 +0.00 +0.05    +0.473    56.480
ATOM     23  O   UNL d   1      31.349  45.773  -8.390 +0.00 -0.02    -0.228    56.480
ATOM     24  O   UNL d   1      31.987  47.779  -6.869 -0.00 -0.04    -0.303    56.480
ATOM     25  H   UNL d   1      32.521  47.491  -6.085 +0.01 +0.03    +0.222    56.480
ATOM     26  O   UNL d   1      32.623  47.895  -9.265 +0.00 -0.02    -0.303    56.480
ATOM     27  H   UNL d   1      33.255  48.571  -8.947 +0.00 +0.02    +0.222    56.480
ATOM     28  O   UNL d   1      38.637  48.753  -6.413 -0.00 -0.03    -0.278    56.480
ATOM     29  P   UNL d   1      40.177  48.531  -6.751 -0.00 +0.04    +0.473    56.480
ATOM     30  O   UNL d   1      41.136  49.232  -5.860 -0.00 -0.02    -0.228    56.480
ATOM     31  O   UNL d   1      40.233  46.932  -6.764 -0.00 -0.03    -0.303    56.480
ATOM     32  H   UNL d   1      39.658  46.604  -7.493 +0.00 +0.02    +0.222    56.480
ATOM     33  O   UNL d   1      40.235  48.898  -8.300 +0.00 -0.02    -0.303    56.480
ATOM     34  H   UNL d   1      39.898  48.130  -8.824 +0.00 +0.02    +0.222    56.480
ATOM     35  O   UNL d   1      35.288  48.132  -9.556 +0.00 -0.02    -0.278    56.480
ATOM     36  P   UNL d   1      35.029  49.699  -9.407 +0.00 +0.04    +0.473    56.480
ATOM     37  O   UNL d   1      34.598  50.156  -8.049 +0.00 -0.02    -0.228    56.480
ATOM     38  O   UNL d   1      36.420  50.306  -9.891 +0.00 -0.02    -0.303    56.480
ATOM     39  H   UNL d   1      37.133  49.655  -9.716 +0.00 +0.02    +0.222    56.480
ATOM     40  O   UNL d   1      34.040  49.997 -10.616 +0.00 -0.02    -0.303    56.480
ATOM     41  H   UNL d   1      33.392  49.269 -10.744 +0.00 +0.01    +0.222    56.480
ATOM     42  O   UNL d   1      38.131  47.733  -9.057 +0.00 -0.02    -0.278    56.480
ATOM     43  P   UNL d   1      38.311  46.187  -9.404 +0.00 +0.04    +0.473    56.480
ATOM     44  O   UNL d   1      37.612  45.669 -10.614 +0.00 -0.02    -0.228    56.480
ATOM     45  O   UNL d   1      39.893  46.020  -9.445 +0.00 -0.02    -0.303    56.480
ATOM     46  H   UNL d   1      40.340  46.718  -8.926 +0.00 +0.02    +0.222    56.480
ATOM     47  O   UNL d   1      37.942  45.456  -8.026 -0.00 -0.03    -0.303    56.480
ATOM     48  H   UNL d   1      38.708  45.508  -7.418 +0.00 +0.02    +0.222    56.480
TER
ENDMDL
MODEL       50
USER    Run = 50
USER    Cluster Rank = 96
USER    Number of conformations in this cluster = 1
USER  
USER    RMSD from reference structure       = 23.549 A
USER  
USER    Estimated Free Energy of Binding    =   +6.98 kcal/mol  [=(1)+(2)+(3)-(4)]
USER    
USER    (1) Final Intermolecular Energy     =   -0.18 kcal/mol
USER        vdW + Hbond + desolv Energy     =   -0.17 kcal/mol
USER        Electrostatic Energy            =   -0.01 kcal/mol
USER    (2) Final Total Internal Energy     =  -14.51 kcal/mol
USER    (3) Torsional Free Energy           =   +7.16 kcal/mol
USER    (4) Unbound System's Energy  [=(2)] =  -14.51 kcal/mol
USER    
USER    
USER  
USER    DPF = D:/Protein_go_brrr/autodock/final/2DN3/IHP/dock.dpf
USER    NEWDPF move	IHP_ideal_opt.pdbqt
USER    NEWDPF about	0.035000 0.082000 -0.065000
USER    NEWDPF tran0	-6.176716 26.206706 -3.149581
USER    NEWDPF axisangle0	0.657391 0.747174 -0.097812 -178.350991
USER    NEWDPF quaternion0	0.657323 0.747097 -0.097802 -0.014390
USER    NEWDPF dihe0	156.33 70.82 44.68 117.94 32.91 -104.19 -120.86 38.88 -12.84 64.76 25.73 -91.41 -17.72 -9.77 -59.43 20.57 -10.78 -74.13 -4.02 -32.04 -4.86 174.31 -21.19 1.65 
USER  
USER                              x       y       z    vdW   Elec        q     RMS 
ATOM      1  C   UNL d   1      -7.306  27.200  -4.000 +0.00 +0.00    +0.194    23.549
ATOM      2  C   UNL d   1      -7.889  25.944  -3.349 +0.00 +0.00    +0.194    23.549
ATOM      3  C   UNL d   1      -6.991  24.725  -3.564 +0.00 +0.00    +0.194    23.549
ATOM      4  C   UNL d   1      -5.540  24.967  -3.154 -0.00 -0.00    +0.194    23.549
ATOM      5  C   UNL d   1      -4.953  26.267  -3.688 -0.00 +0.00    +0.194    23.549
ATOM      6  C   UNL d   1      -5.878  27.476  -3.528 +0.00 +0.00    +0.194    23.549
ATOM      7  O   UNL d   1      -8.107  28.318  -3.610 +0.00 -0.01    -0.278    23.549
ATOM      8  P   UNL d   1      -8.703  29.260  -4.754 +0.00 +0.01    +0.473    23.549
ATOM      9  O   UNL d   1      -9.069  28.564  -6.018 +0.00 -0.01    -0.228    23.549
ATOM     10  O   UNL d   1      -9.942  29.981  -4.054 +0.00 -0.01    -0.303    23.549
ATOM     11  H   UNL d   1     -10.035  29.656  -3.139 +0.00 +0.01    +0.222    23.549
ATOM     12  O   UNL d   1      -7.661  30.450  -4.894 +0.00 -0.01    -0.303    23.549
ATOM     13  H   UNL d   1      -6.752  30.202  -4.613 +0.00 +0.01    +0.222    23.549
ATOM     14  O   UNL d   1      -8.024  26.169  -1.940 +0.00 -0.00    -0.278    23.549
ATOM     15  P   UNL d   1      -9.485  26.563  -1.415 +0.00 +0.01    +0.473    23.549
ATOM     16  O   UNL d   1     -10.629  25.752  -1.939 +0.00 -0.00    -0.228    23.549
ATOM     17  O   UNL d   1      -9.357  26.496   0.172 +0.00 -0.00    -0.303    23.549
ATOM     18  H   UNL d   1      -8.968  25.648   0.458 +0.00 +0.00    +0.222    23.549
ATOM     19  O   UNL d   1      -9.586  28.131  -1.662 +0.00 -0.01    -0.303    23.549
ATOM     20  H   UNL d   1      -9.455  28.357  -2.601 +0.00 +0.00    +0.222    23.549
ATOM     21  O   UNL d   1      -5.354  28.508  -4.361 +0.00 -0.01    -0.278    23.549
ATOM     22  P   UNL d   1      -4.626  29.764  -3.701 +0.00 +0.02    +0.473    23.549
ATOM     23  O   UNL d   1      -5.052  30.190  -2.337 +0.00 -0.01    -0.228    23.549
ATOM     24  O   UNL d   1      -3.093  29.354  -3.824 -0.00 -0.01    -0.303    23.549
ATOM     25  H   UNL d   1      -3.029  28.369  -3.732 +0.01 +0.01    +0.222    23.549
ATOM     26  O   UNL d   1      -4.767  30.867  -4.857 +0.00 -0.01    -0.303    23.549
ATOM     27  H   UNL d   1      -5.656  31.273  -4.807 +0.00 +0.01    +0.222    23.549
ATOM     28  O   UNL d   1      -7.458  23.692  -2.706 +0.00 -0.00    -0.278    23.549
ATOM     29  P   UNL d   1      -7.165  23.752  -1.141 +0.00 -0.00    +0.473    23.549
ATOM     30  O   UNL d   1      -6.288  24.865  -0.696 +0.00 +0.00    -0.228    23.549
ATOM     31  O   UNL d   1      -8.662  23.736  -0.576 +0.00 -0.00    -0.303    23.549
ATOM     32  H   UNL d   1      -9.093  24.592  -0.804 +0.00 +0.00    +0.222    23.549
ATOM     33  O   UNL d   1      -6.660  22.272  -0.839 +0.00 +0.00    -0.303    23.549
ATOM     34  H   UNL d   1      -5.671  22.267  -0.826 +0.00 -0.00    +0.222    23.549
ATOM     35  O   UNL d   1      -3.792  26.520  -2.900 -0.00 +0.00    -0.278    23.549
ATOM     36  P   UNL d   1      -2.338  26.372  -3.539 -0.03 +0.00    +0.473    23.549
ATOM     37  O   UNL d   1      -2.228  26.739  -4.985 -0.03 +0.00    -0.228    23.549
ATOM     38  O   UNL d   1      -1.461  27.278  -2.566 -0.12 -0.02    -0.303    23.549
ATOM     39  H   UNL d   1      -1.538  28.216  -2.843 +0.02 +0.01    +0.222    23.549
ATOM     40  O   UNL d   1      -1.940  24.885  -3.139 -0.04 +0.01    -0.303    23.549
ATOM     41  H   UNL d   1      -2.732  24.331  -2.962 +0.01 -0.01    +0.222    23.549
ATOM     42  O   UNL d   1      -4.768  23.897  -3.710 -0.00 +0.00    -0.278    23.549
ATOM     43  P   UNL d   1      -4.158  22.796  -2.730 +0.00 -0.01    +0.473    23.549
ATOM     44  O   UNL d   1      -3.843  23.216  -1.336 -0.00 +0.01    -0.228    23.549
ATOM     45  O   UNL d   1      -5.218  21.613  -2.830 -0.00 +0.00    -0.303    23.549
ATOM     46  H   UNL d   1      -6.134  21.945  -2.739 +0.00 -0.00    +0.222    23.549
ATOM     47  O   UNL d   1      -2.927  22.202  -3.568 -0.01 +0.01    -0.303    23.549
ATOM     48  H   UNL d   1      -2.129  22.744  -3.398 +0.02 -0.01    +0.222    23.549
TER
ENDMDL


AVSFLD: # AVS field file
AVSFLD: #
AVSFLD: # Created by AutoDock
AVSFLD: #
AVSFLD: ndim=2           # number of dimensions in the field
AVSFLD: nspace=1         # number of physical coordinates
AVSFLD: veclen=7         # vector size
AVSFLD: dim1=48          # atoms
AVSFLD: dim2=96          # conformations
AVSFLD: data=Real       # data type (byte,integer,Real,double)
AVSFLD: field=uniform    # field coordinate layout
AVSFLD: label= x y z vdW Elec q RMS
AVSFLD: variable 1 file = D:/Protein_go_brrr/autodock/final/2DN3/IHP/dock.dlg.pdb filetype = ascii offset = 5 stride = 12
AVSFLD: variable 2 file = D:/Protein_go_brrr/autodock/final/2DN3/IHP/dock.dlg.pdb filetype = ascii offset = 6 stride = 12
AVSFLD: variable 3 file = D:/Protein_go_brrr/autodock/final/2DN3/IHP/dock.dlg.pdb filetype = ascii offset = 7 stride = 12
AVSFLD: variable 4 file = D:/Protein_go_brrr/autodock/final/2DN3/IHP/dock.dlg.pdb filetype = ascii offset = 8 stride = 12
AVSFLD: variable 5 file = D:/Protein_go_brrr/autodock/final/2DN3/IHP/dock.dlg.pdb filetype = ascii offset = 9 stride = 12
AVSFLD: variable 6 file = D:/Protein_go_brrr/autodock/final/2DN3/IHP/dock.dlg.pdb filetype = ascii offset = 10 stride = 12
AVSFLD: variable 7 file = D:/Protein_go_brrr/autodock/final/2DN3/IHP/dock.dlg.pdb filetype = ascii offset = 11 stride = 12
AVSFLD: # end of file

>>> Closing the docking parameter file (DPF)...
This docking finished at:			9:59 21" p.m., 09/28/2025


________________________________________________________________________________

D:/autodockScripts/autodock4.exe: Successful Completion on "ACER"

Real= 26h 06m 39.04s,  CPU= 4m 09.47s,  System= 4m 06.13s
________________________________________________________________________________

