          AutoDock 4.2 Release 4.2.6   
         (C) 1989-2012 The Scripps Research Institute
        AutoDock comes with ABSOLUTELY NO WARRANTY.
        AutoDock is free software, and you are welcome
        to redistribute it under certain conditions;
        for details type 'autodock4 -C'

                     main.cc  $Revision: 1.213 $

                   Compiled on Jul 18 2014 at 15:34:58


This file was created at:			6:12 17" p.m., 10/01/2025
                   on host:		"ACER"
Current Working Directory = "D:\Protein_go_brrr\autodock\final\AncMH_nat\heme"

      ________________________________________________________________

                   SETTING UP DEFAULT PARAMETER LIBRARY
      ________________________________________________________________


Random number generator was seeded with values 138392, 1759335137.
Docking parameter file (DPF) used for this docking:		D:/Protein_go_brrr/autodock/final/AncMH_nat/heme/dock.dpf
DPF> autodock_parameter_version 4.2       # used by autodock to validate parameter set

	Autodock parameter version 4.2.
DPF> outlev 1                             # diagnostic output level

Output Level = 1  ADT-COMPATIBLE OUTPUT DURING DOCKING.
DPF> intelec                              # calculate internal electrostatics

Electrostatic energies will be calculated for all non-bonds between moving atoms.
DPF> seed pid time                        # seeds for random generator

Random number generator was seeded with values 138392, 1759335137.
DPF> ligand_types A C NA OA N HD          # atoms types in ligand

DPF> fld opt_AncMH_nat.maps.fld           # grid_data_file

Opening Grid Map Dimensions file:		opt_AncMH_nat.maps.fld
Grid Point Spacing =				0.425 Angstroms

Even Number of User-specified Grid Points =	126 x-points
						126 y-points
						126 z-points

Coordinates of Central Grid Point of Maps =	(-1.644, 0.366, 1.789)
Macromolecule file used to create Grid Maps =	opt_AncMH_nat.pdbqt
Grid Parameter file used to create Grid Maps =	D:/Protein_go_brrr/autodock/final/AncMH_nat/heme/grid.gpf
Minimum coordinates in grid = (-28.419, -26.409, -24.986)
Maximum coordinates in grid = (25.131, 27.141, 28.564)

DPF> map opt_AncMH_nat.A.map              # atom-specific affinity map

DPF> map opt_AncMH_nat.C.map              # atom-specific affinity map

DPF> map opt_AncMH_nat.NA.map             # atom-specific affinity map

DPF> map opt_AncMH_nat.OA.map             # atom-specific affinity map

DPF> map opt_AncMH_nat.N.map              # atom-specific affinity map

DPF> map opt_AncMH_nat.HD.map             # atom-specific affinity map

DPF> elecmap opt_AncMH_nat.e.map          # electrostatics map

DPF> desolvmap opt_AncMH_nat.d.map        # desolvation map

DPF> move heme_opt.pdbqt                  # small molecule

1,4-interactions will be _ignored_ in the non-bonded internal energy calculation.

Ligand PDBQT file = "heme_opt.pdbqt"

INPUT LIGAND PDBQT FILE:
________________________

INPUT-LIGAND-PDBQT: REMARK  13 active torsions:
INPUT-LIGAND-PDBQT: REMARK  status: ('A' for Active; 'I' for Inactive)
INPUT-LIGAND-PDBQT: REMARK    1  A    between atoms: O_3  and  C_38 
INPUT-LIGAND-PDBQT: REMARK    2  A    between atoms: O_4  and  C_40 
INPUT-LIGAND-PDBQT: REMARK    3  A    between atoms: O_7  and  C_46 
INPUT-LIGAND-PDBQT: REMARK    4  A    between atoms: O_9  and  C_48 
INPUT-LIGAND-PDBQT: REMARK    5  A    between atoms: C_15  and  C_20 
INPUT-LIGAND-PDBQT: REMARK    6  A    between atoms: C_16  and  C_23 
INPUT-LIGAND-PDBQT: REMARK    7  A    between atoms: C_20  and  C_38 
INPUT-LIGAND-PDBQT: REMARK    8  A    between atoms: C_23  and  C_40 
INPUT-LIGAND-PDBQT: REMARK    9  A    between atoms: C_32  and  C_41 
INPUT-LIGAND-PDBQT: REMARK   10  A    between atoms: C_37  and  C_45 
INPUT-LIGAND-PDBQT: REMARK   11  A    between atoms: C_41  and  C_44 
INPUT-LIGAND-PDBQT: REMARK   12  A    between atoms: C_44  and  C_46 
INPUT-LIGAND-PDBQT: REMARK   13  A    between atoms: C_47  and  C_48 
INPUT-LIGAND-PDBQT: ROOT
INPUT-LIGAND-PDBQT: ATOM      1  O   UNL d   1      -5.458   1.707   0.620  0.00  0.00    -0.289 OA
INPUT-LIGAND-PDBQT: ATOM      2  O   UNL d   1      -2.504  -4.828  -1.607  0.00  0.00    -0.289 OA
INPUT-LIGAND-PDBQT: ATOM      3  N   UNL d   1      -2.063   1.218   0.259  0.00  0.00    -0.247 NA
INPUT-LIGAND-PDBQT: ATOM      4  N   UNL d   1      -1.851  -1.684  -0.343  0.00  0.00    -0.247 NA
INPUT-LIGAND-PDBQT: ATOM      5  N   UNL d   1       0.972  -1.489   0.166  0.00  0.00    -0.354 N 
INPUT-LIGAND-PDBQT: ATOM      6  N   UNL d   1       0.740   1.517   0.808  0.00  0.00    -0.354 N 
INPUT-LIGAND-PDBQT: ATOM      7  C   UNL d   1      -3.467   3.037   1.112  0.00  0.00     0.084 A 
INPUT-LIGAND-PDBQT: ATOM      8  C   UNL d   1      -3.784  -2.753  -1.388  0.00  0.00     0.084 A 
INPUT-LIGAND-PDBQT: ATOM      9  C   UNL d   1      -3.156  -1.511  -0.747  0.00  0.00     0.058 A 
INPUT-LIGAND-PDBQT: ATOM     10  C   UNL d   1      -2.069   2.485   0.818  0.00  0.00     0.058 A 
INPUT-LIGAND-PDBQT: ATOM     11  C   UNL d   1      -4.251   1.865   0.603  0.00  0.00     0.193 A 
INPUT-LIGAND-PDBQT: ATOM     12  C   UNL d   1      -3.288   0.840   0.089  0.00  0.00     0.109 A 
INPUT-LIGAND-PDBQT: ATOM     13  C   UNL d   1      -2.606  -3.674  -1.239  0.00  0.00     0.193 A 
INPUT-LIGAND-PDBQT: ATOM     14  C   UNL d   1      -3.721   3.188   2.614  0.00  0.00     0.026 C 
INPUT-LIGAND-PDBQT: ATOM     15  C   UNL d   1      -3.838  -0.372  -0.551  0.00  0.00     0.055 C 
INPUT-LIGAND-PDBQT: ATOM     16  C   UNL d   1      -4.060  -2.544  -2.880  0.00  0.00     0.026 C 
INPUT-LIGAND-PDBQT: ATOM     17  C   UNL d   1      -1.503  -2.907  -0.585  0.00  0.00     0.109 A 
INPUT-LIGAND-PDBQT: ATOM     18  C   UNL d   1      -0.964   3.229   1.013  0.00  0.00     0.050 C 
INPUT-LIGAND-PDBQT: ATOM     19  C   UNL d   1       0.360   2.835   0.692  0.00  0.00     0.045 A 
INPUT-LIGAND-PDBQT: ATOM     20  C   UNL d   1       0.841  -2.851   0.084  0.00  0.00     0.045 A 
INPUT-LIGAND-PDBQT: ATOM     21  C   UNL d   1      -0.229  -3.570  -0.270  0.00  0.00     0.057 C 
INPUT-LIGAND-PDBQT: ATOM     22  C   UNL d   1       2.967  -2.353   0.755  0.00  0.00    -0.019 A 
INPUT-LIGAND-PDBQT: ATOM     23  C   UNL d   1       2.221  -1.093   0.564  0.00  0.00     0.045 A 
INPUT-LIGAND-PDBQT: ATOM     24  C   UNL d   1       2.145  -3.390   0.468  0.00  0.00    -0.022 A 
INPUT-LIGAND-PDBQT: ATOM     25  C   UNL d   1       2.081   1.375   0.536  0.00  0.00     0.049 A 
INPUT-LIGAND-PDBQT: ATOM     26  C   UNL d   1       1.473   3.562   0.299  0.00  0.00    -0.018 A 
INPUT-LIGAND-PDBQT: ATOM     27  C   UNL d   1       2.552   2.632   0.183  0.00  0.00     0.003 A 
INPUT-LIGAND-PDBQT: ATOM     28  C   UNL d   1       2.739   0.132   0.742  0.00  0.00     0.052 C 
INPUT-LIGAND-PDBQT: ATOM     29  C   UNL d   1       2.440  -4.851   0.501  0.00  0.00     0.046 C 
INPUT-LIGAND-PDBQT: ATOM     30  C   UNL d   1       1.533   5.030   0.044  0.00  0.00     0.046 C 
INPUT-LIGAND-PDBQT: ATOM     31  H   UNL d   1       0.223  -0.870  -0.125  0.00  0.00     0.166 HD
INPUT-LIGAND-PDBQT: ATOM     32  H   UNL d   1       0.112   0.776   1.096  0.00  0.00     0.166 HD
INPUT-LIGAND-PDBQT: ENDROOT
INPUT-LIGAND-PDBQT: BRANCH   7  33
INPUT-LIGAND-PDBQT: ATOM     33  C   UNL d   1      -3.845   4.310   0.347  0.00  0.00     0.141 C 
INPUT-LIGAND-PDBQT: BRANCH  33  34
INPUT-LIGAND-PDBQT: ATOM     34  C   UNL d   1      -3.538   4.215  -1.123  0.00  0.00     0.306 C 
INPUT-LIGAND-PDBQT: ATOM     35  O   UNL d   1      -3.917   3.340  -1.883  0.00  0.00    -0.251 OA
INPUT-LIGAND-PDBQT: BRANCH  34  36
INPUT-LIGAND-PDBQT: ATOM     36  O   UNL d   1      -2.771   5.230  -1.559  0.00  0.00    -0.481 OA
INPUT-LIGAND-PDBQT: ATOM     37  H   UNL d   1      -2.612   5.030  -2.506  0.00  0.00     0.295 HD
INPUT-LIGAND-PDBQT: ENDBRANCH  34  36
INPUT-LIGAND-PDBQT: ENDBRANCH  33  34
INPUT-LIGAND-PDBQT: ENDBRANCH   7  33
INPUT-LIGAND-PDBQT: BRANCH  27  38
INPUT-LIGAND-PDBQT: ATOM     38  C   UNL d   1       3.894   2.967  -0.187  0.00  0.00     0.017 C 
INPUT-LIGAND-PDBQT: ATOM     39  C   UNL d   1       4.701   2.208  -0.944  0.00  0.00     0.092 C 
INPUT-LIGAND-PDBQT: BRANCH  39  40
INPUT-LIGAND-PDBQT: ATOM     40  C   UNL d   1       6.052   2.675  -1.266  0.00  0.00     0.330 C 
INPUT-LIGAND-PDBQT: ATOM     41  O   UNL d   1       6.568   3.731  -0.953  0.00  0.00    -0.246 OA
INPUT-LIGAND-PDBQT: BRANCH  40  42
INPUT-LIGAND-PDBQT: ATOM     42  O   UNL d   1       6.703   1.746  -1.983  0.00  0.00    -0.477 OA
INPUT-LIGAND-PDBQT: ATOM     43  H   UNL d   1       7.581   2.148  -2.146  0.00  0.00     0.295 HD
INPUT-LIGAND-PDBQT: ENDBRANCH  40  42
INPUT-LIGAND-PDBQT: ENDBRANCH  39  40
INPUT-LIGAND-PDBQT: ENDBRANCH  27  38
INPUT-LIGAND-PDBQT: BRANCH   8  44
INPUT-LIGAND-PDBQT: ATOM     44  C   UNL d   1      -5.015  -3.316  -0.670  0.00  0.00     0.141 C 
INPUT-LIGAND-PDBQT: BRANCH  44  45
INPUT-LIGAND-PDBQT: ATOM     45  C   UNL d   1      -4.806  -3.504   0.809  0.00  0.00     0.306 C 
INPUT-LIGAND-PDBQT: ATOM     46  O   UNL d   1      -3.825  -3.985   1.349  0.00  0.00    -0.251 OA
INPUT-LIGAND-PDBQT: BRANCH  45  47
INPUT-LIGAND-PDBQT: ATOM     47  O   UNL d   1      -5.864  -3.098   1.534  0.00  0.00    -0.481 OA
INPUT-LIGAND-PDBQT: ATOM     48  H   UNL d   1      -5.613  -3.283   2.464  0.00  0.00     0.295 HD
INPUT-LIGAND-PDBQT: ENDBRANCH  45  47
INPUT-LIGAND-PDBQT: ENDBRANCH  44  45
INPUT-LIGAND-PDBQT: ENDBRANCH   8  44
INPUT-LIGAND-PDBQT: BRANCH  22  49
INPUT-LIGAND-PDBQT: ATOM     49  C   UNL d   1       4.395  -2.426   1.210  0.00  0.00     0.048 C 
INPUT-LIGAND-PDBQT: BRANCH  49  50
INPUT-LIGAND-PDBQT: ATOM     50  C   UNL d   1       5.372  -2.242   0.049  0.00  0.00     0.125 C 
INPUT-LIGAND-PDBQT: BRANCH  50  51
INPUT-LIGAND-PDBQT: ATOM     51  C   UNL d   1       6.794  -2.339   0.524  0.00  0.00     0.305 C 
INPUT-LIGAND-PDBQT: ATOM     52  O   UNL d   1       7.189  -2.431   1.673  0.00  0.00    -0.251 OA
INPUT-LIGAND-PDBQT: BRANCH  51  53
INPUT-LIGAND-PDBQT: ATOM     53  O   UNL d   1       7.671  -2.302  -0.499  0.00  0.00    -0.481 OA
INPUT-LIGAND-PDBQT: ATOM     54  H   UNL d   1       8.547  -2.365  -0.064  0.00  0.00     0.295 HD
INPUT-LIGAND-PDBQT: ENDBRANCH  51  53
INPUT-LIGAND-PDBQT: ENDBRANCH  50  51
INPUT-LIGAND-PDBQT: ENDBRANCH  49  50
INPUT-LIGAND-PDBQT: ENDBRANCH  22  49
INPUT-LIGAND-PDBQT: TORSDOF 13
________________________________________________________________________________

Total charge on ligand                               =	-0.002 e
REMARK  13 active torsions:
REMARK  status: ('A' for Active; 'I' for Inactive)
REMARK    1  A    between atoms: O_3  and  C_38 
REMARK    2  A    between atoms: O_4  and  C_40 
REMARK    3  A    between atoms: O_7  and  C_46 
REMARK    4  A    between atoms: O_9  and  C_48 
REMARK    5  A    between atoms: C_15  and  C_20 
REMARK    6  A    between atoms: C_16  and  C_23 
REMARK    7  A    between atoms: C_20  and  C_38 
REMARK    8  A    between atoms: C_23  and  C_40 
REMARK    9  A    between atoms: C_32  and  C_41 
REMARK   10  A    between atoms: C_37  and  C_45 
REMARK   11  A    between atoms: C_41  and  C_44 
REMARK   12  A    between atoms: C_44  and  C_46 
REMARK   13  A    between atoms: C_47  and  C_48 


Number of Rotatable Bonds in Small Molecule =	13 torsions
Number of atoms in ligand:  54

Number of non-hydrogen atoms in ligand:  48

Number of vibrational degrees of freedom of ligand:  156


Number of torsional degrees of freedom = 13
Estimated loss of torsional free energy upon binding = +3.8779 kcal/mol


DPF> about 0.153 0.018 -0.028            # small molecule center

Small molecule center of rotation =	(+0.153, +0.018, -0.028)

DPF> tran0 random                         # initial coordinates/A or random

Initial translation =			(-2.702, 26.443, -16.609) Angstroms
DPF> quaternion0 random                   # initial orientation

Each run will begin with a new, random initial orientation.
Initial quaternion,  (x,y,z,w) =	( 0.205, 0.434, -0.213, -0.851 ),
DPF> dihe0 random                         # initial dihedrals (relative) or random

DPF> torsdof 13                            # torsional degrees of freedom

Number of torsional degrees of freedom = 13
Free energy coefficient for torsional degrees of freedom = 0.2983, the factory default value.

Estimated loss of torsional free energy upon binding = +3.8779 kcal/mol

DPF> rmstol 2.0                           # cluster_tolerance/A

Maximum RMS tolerance for conformational cluster analysis = 2.00 Angstroms
DPF> extnrg 1000.0                        # external grid energy

External grid energy (beyond grid map walls) = 1000.00

DPF> e0max 0.0 10000                      # max initial energy; max number of retries

Using user-specified maximum number of retries for simanneal initialization, 10000 retries.
If the simanneal initial energy is greater than e0max, 0.000,
then a new, random initial state will be created.

DPF> ga_pop_size 150                      # number of individuals in population

A population of 150 individuals will be used
DPF> ga_num_evals 25000000                # maximum number of energy evaluations

There will be at most 25000000 function evaluations used.
DPF> ga_num_generations 27000             # maximum number of generations

The GA will run for at most 27000 generations.
DPF> ga_elitism 1                         # number of top individuals to survive to next generation

The 1 best will be preserved each GA generation.
DPF> ga_mutation_rate 0.02                # rate of gene mutation

The mutation rate is 0.020000.
DPF> ga_crossover_rate 0.8                # rate of crossover

The crossover rate is 0.800000.
DPF> ga_window_size 10                    # 

The GA's selection window is 10 generations.
DPF> ga_cauchy_alpha 0.0                  # Alpha parameter of Cauchy distribution

The alpha parameter (for the Cauchy distribution) is being set to 0.000000.
DPF> ga_cauchy_beta 1.0                   # Beta parameter Cauchy distribution

The beta parameter (for the Cauchy distribution) is being set to 1.000000.
DPF> set_ga                               # set the above parameters for GA or LGA

DPF> sw_max_its 300                       # iterations of Solis & Wets local search

Solis & Wets algorithms will perform at most 300 iterations.
DPF> sw_max_succ 4                        # consecutive successes before changing rho

Solis & Wets algorithms expand rho every 4 in a row successes.
DPF> sw_max_fail 4                        # consecutive failures before changing rho

Solis & Wets algorithms contract rho every 4 in a row failures.
DPF> sw_rho 1.0                           # size of local search space to sample

rho is set to 1.000000.
DPF> sw_lb_rho 0.01                       # lower bound on rho

rho will never get smaller than 0.010000.
DPF> ls_search_freq 0.06                  # probability of performing local search on individual

Local search will be performed with frequency 0.060000.
DPF> set_psw1                             # set the above pseudo-Solis & Wets parameters

Creating a new Local Search object using the pseudo-Solis-Wets algorithm (pSW1) with the current settings.

DPF> unbound_model bound                  # state of unbound ligand

DPF> ga_run 100                           # do this many hybrid GA-LS runs

centering ligand on specified point: 0.153 0.018 -0.028
Furthest true ligand atom from "about" center is 8.726 Angstroms (maxrad).
Number of requested GA dockings = 100 runs
Unbound model to be used is 'same as bound' [AutoDock 4.2 default].

	BEGINNING GENETIC ALGORITHM DOCKING 1 of 100
Run: 1 Seed: 1681505211 275559944 [ Run 1 of 100 GA/GALS ]
Beginning LAMARCKIAN GENETIC ALGORITHM (LGA), with a maximum of 25000000 energy evaluations.

Final-Value: -10.962


	FINAL GENETIC ALGORITHM DOCKED STATE
	_______________________________________________


Detailed state:  trans -7.682 -13.911 -7.081 quatxyzw 0.698376 -0.603315 0.224876 -0.312590 center 0.153 0.018 -0.028 ntor 13 161.4966 -0.6057 81.1522 174.2673 -143.7561 -180.0000 -36.6680 -59.8753 38.3447 -110.1074 136.2127 178.4884 -177.2840
State:	 -7.682 -13.911  -7.081   0.735 -0.635  0.237 -143.569    161.50   -0.61   81.15  174.27 -143.76 -180.00  -36.67  -59.88   38.34 -110.11  136.21  178.49 -177.28

DOCKED: MODEL        1
DOCKED: USER    Run = 1
DOCKED: USER    DPF = D:/Protein_go_brrr/autodock/final/AncMH_nat/heme/dock.dpf
DOCKED: USER  
DOCKED: USER    Estimated Free Energy of Binding    =   -4.64 kcal/mol  [=(1)+(2)+(3)-(4)]
DOCKED: USER    Estimated Inhibition Constant, Ki   =  396.77 uM (micromolar)  [Temperature = 298.15 K]
DOCKED: USER    
DOCKED: USER    (1) Final Intermolecular Energy     =   -8.52 kcal/mol
DOCKED: USER        vdW + Hbond + desolv Energy     =   -8.18 kcal/mol
DOCKED: USER        Electrostatic Energy            =   -0.34 kcal/mol
DOCKED: USER    (2) Final Total Internal Energy     =   -2.44 kcal/mol
DOCKED: USER    (3) Torsional Free Energy           =   +3.88 kcal/mol
DOCKED: USER    (4) Unbound System's Energy  [=(2)] =   -2.44 kcal/mol
DOCKED: USER    
DOCKED: USER    
DOCKED: USER    NEWDPF move heme_opt.pdbqt
DOCKED: USER    NEWDPF about 0.153000 0.018000 -0.028000
DOCKED: USER    NEWDPF tran0 -7.682427 -13.910511 -7.081044
DOCKED: USER    NEWDPF quaternion0 0.698376 -0.603315 0.224876 -0.312590
DOCKED: USER    NEWDPF axisangle0 0.735220 -0.635143 0.236739 -143.569185
DOCKED: USER    NEWDPF quat0 0.735220 -0.635143 0.236739 -143.569185
DOCKED: USER    NEWDPF dihe0 161.50 -0.61 81.15 174.27 -143.76 -180.00 -36.67 -59.88 38.34 -110.11 136.21 178.49 -177.28 
DOCKED: USER  keepresnum = 1 
DOCKED: USER  
DOCKED: REMARK  13 active torsions:
DOCKED: REMARK  status: ('A' for Active; 'I' for Inactive)
DOCKED: REMARK    1  A    between atoms: O_3  and  C_38 
DOCKED: REMARK    2  A    between atoms: O_4  and  C_40 
DOCKED: REMARK    3  A    between atoms: O_7  and  C_46 
DOCKED: REMARK    4  A    between atoms: O_9  and  C_48 
DOCKED: REMARK    5  A    between atoms: C_15  and  C_20 
DOCKED: REMARK    6  A    between atoms: C_16  and  C_23 
DOCKED: REMARK    7  A    between atoms: C_20  and  C_38 
DOCKED: REMARK    8  A    between atoms: C_23  and  C_40 
DOCKED: REMARK    9  A    between atoms: C_32  and  C_41 
DOCKED: REMARK   10  A    between atoms: C_37  and  C_45 
DOCKED: REMARK   11  A    between atoms: C_41  and  C_44 
DOCKED: REMARK   12  A    between atoms: C_44  and  C_46 
DOCKED: REMARK   13  A    between atoms: C_47  and  C_48 
DOCKED: USER                              x       y       z     vdW  Elec       q    Type
DOCKED: USER                           _______ _______ _______ _____ _____    ______ ____
DOCKED: ROOT
DOCKED: ATOM      1  O   UNL d   1     -10.343 -10.559 -11.136 -0.04 -0.25    -0.289 OA
DOCKED: ATOM      2  O   UNL d   1      -3.272 -10.556  -8.608 -0.62 -0.05    -0.289 OA
DOCKED: ATOM      3  N   UNL d   1      -9.259 -12.650  -8.616 -0.10 +0.09    -0.247 NA
DOCKED: ATOM      4  N   UNL d   1      -6.331 -12.150  -8.526 -0.13 +0.08    -0.247 NA
DOCKED: ATOM      5  N   UNL d   1      -6.073 -14.507  -6.900 +0.00 +0.27    -0.354 N 
DOCKED: ATOM      6  N   UNL d   1      -9.109 -15.029  -7.016 -0.04 +0.22    -0.354 N 
DOCKED: ATOM      7  C   UNL d   1     -11.341 -12.407  -9.886 -0.03 +0.02    +0.084 A 
DOCKED: ATOM      8  C   UNL d   1      -5.545  -9.971  -9.304 -0.27 +0.02    +0.084 A 
DOCKED: ATOM      9  C   UNL d   1      -6.699 -10.961  -9.115 -0.22 +0.01    +0.058 A 
DOCKED: ATOM     10  C   UNL d   1     -10.541 -13.138  -8.804 -0.07 -0.01    +0.058 A 
DOCKED: ATOM     11  C   UNL d   1     -10.291 -11.407 -10.264 -0.05 +0.12    +0.193 A 
DOCKED: ATOM     12  C   UNL d   1      -9.086 -11.640  -9.406 -0.12 +0.03    +0.109 A 
DOCKED: ATOM     13  C   UNL d   1      -4.447 -10.833  -8.747 -0.23 +0.02    +0.193 A 
DOCKED: ATOM     14  C   UNL d   1     -11.628 -13.304 -11.094 +0.00 +0.00    +0.026 C 
DOCKED: ATOM     15  C   UNL d   1      -7.948 -10.708  -9.536 -0.13 +0.03    +0.055 C 
DOCKED: ATOM     16  C   UNL d   1      -5.703  -8.737  -8.411 -0.29 +0.01    +0.026 C 
DOCKED: ATOM     17  C   UNL d   1      -5.054 -12.129  -8.317 -0.17 -0.02    +0.109 A 
DOCKED: ATOM     18  C   UNL d   1     -11.096 -14.109  -8.055 -0.05 -0.01    +0.050 C 
DOCKED: ATOM     19  C   UNL d   1     -10.462 -14.781  -6.979 -0.08 -0.02    +0.045 A 
DOCKED: ATOM     20  C   UNL d   1      -4.751 -14.253  -7.158 -0.19 -0.02    +0.045 A 
DOCKED: ATOM     21  C   UNL d   1      -4.204 -13.196  -7.768 -0.29 -0.01    +0.057 C 
DOCKED: ATOM     22  C   UNL d   1      -4.920 -16.259  -6.078 -0.11 +0.00    -0.019 A 
DOCKED: ATOM     23  C   UNL d   1      -6.274 -15.696  -6.252 -0.12 -0.01    +0.045 A 
DOCKED: ATOM     24  C   UNL d   1      -4.022 -15.399  -6.616 -0.13 +0.00    -0.022 A 
DOCKED: ATOM     25  C   UNL d   1      -8.723 -15.767  -5.921 -0.09 -0.02    +0.049 A 
DOCKED: ATOM     26  C   UNL d   1     -10.962 -15.340  -5.813 -0.11 +0.00    -0.018 A 
DOCKED: ATOM     27  C   UNL d   1      -9.856 -15.944  -5.139 -0.18 -0.00    +0.003 A 
DOCKED: ATOM     28  C   UNL d   1      -7.401 -16.280  -5.816 -0.16 +0.00    +0.052 C 
DOCKED: ATOM     29  C   UNL d   1      -2.537 -15.518  -6.677 -0.17 -0.02    +0.046 C 
DOCKED: ATOM     30  C   UNL d   1     -12.379 -15.314  -5.349 -0.08 -0.00    +0.046 C 
DOCKED: ATOM     31  H   UNL d   1      -6.791 -13.823  -7.111 -0.10 -0.22    +0.166 HD
DOCKED: ATOM     32  H   UNL d   1      -8.506 -14.736  -7.775 -0.00 -0.10    +0.166 HD
DOCKED: ENDROOT
DOCKED: BRANCH   7  33
DOCKED: ATOM     33  C   UNL d   1     -12.609 -11.698  -9.399 -0.03 +0.04    +0.141 C 
DOCKED: BRANCH  33  34
DOCKED: ATOM     34  C   UNL d   1     -12.336 -10.308  -8.890 -0.01 +0.27    +0.306 C 
DOCKED: ATOM     35  O   UNL d   1     -12.052 -10.004  -7.744 -0.40 -0.23    -0.251 OA
DOCKED: BRANCH  34  36
DOCKED: ATOM     36  O   UNL d   1     -12.433  -9.375  -9.854 -0.21 -0.60    -0.481 OA
DOCKED: ATOM     37  H   UNL d   1     -12.321  -9.873 -10.691 +0.01 +0.24    +0.295 HD
DOCKED: ENDBRANCH  34  36
DOCKED: ENDBRANCH  33  34
DOCKED: ENDBRANCH   7  33
DOCKED: BRANCH  27  38
DOCKED: ATOM     38  C   UNL d   1      -9.933 -16.650  -3.896 -0.21 +0.01    +0.017 C 
DOCKED: ATOM     39  C   UNL d   1     -10.961 -17.419  -3.504 -0.21 +0.04    +0.092 C 
DOCKED: BRANCH  39  40
DOCKED: ATOM     40  C   UNL d   1     -10.908 -18.104  -2.209 -0.19 +0.16    +0.330 C 
DOCKED: ATOM     41  O   UNL d   1     -11.765 -18.801  -1.702 -0.17 -0.06    -0.246 OA
DOCKED: BRANCH  40  42
DOCKED: ATOM     42  O   UNL d   1      -9.730 -17.869  -1.611 -0.70 -0.59    -0.477 OA
DOCKED: ATOM     43  H   UNL d   1      -9.797 -18.353  -0.762 -0.44 +0.13    +0.295 HD
DOCKED: ENDBRANCH  40  42
DOCKED: ENDBRANCH  39  40
DOCKED: ENDBRANCH  27  38
DOCKED: BRANCH   8  44
DOCKED: ATOM     44  C   UNL d   1      -5.247  -9.572 -10.753 -0.16 +0.02    +0.141 C 
DOCKED: BRANCH  44  45
DOCKED: ATOM     45  C   UNL d   1      -3.861  -9.015 -10.943 -0.24 -0.02    +0.306 C 
DOCKED: ATOM     46  O   UNL d   1      -3.497  -7.876 -10.706 -0.47 +0.03    -0.251 OA
DOCKED: BRANCH  45  47
DOCKED: ATOM     47  O   UNL d   1      -3.007  -9.922 -11.452 -0.01 +0.16    -0.481 OA
DOCKED: ATOM     48  H   UNL d   1      -2.505 -10.251 -10.677 -0.32 -0.12    +0.295 HD
DOCKED: ENDBRANCH  45  47
DOCKED: ENDBRANCH  44  45
DOCKED: ENDBRANCH   8  44
DOCKED: BRANCH  22  49
DOCKED: ATOM     49  C   UNL d   1      -4.633 -17.578  -5.423 -0.08 +0.01    +0.048 C 
DOCKED: BRANCH  49  50
DOCKED: ATOM     50  C   UNL d   1      -4.408 -18.687  -6.451 -0.01 +0.01    +0.125 C 
DOCKED: BRANCH  50  51
DOCKED: ATOM     51  C   UNL d   1      -5.416 -18.600  -7.562 +0.01 +0.01    +0.305 C 
DOCKED: ATOM     52  O   UNL d   1      -6.620 -18.774  -7.489 +0.00 -0.02    -0.251 OA
DOCKED: BRANCH  51  53
DOCKED: ATOM     53  O   UNL d   1      -4.840 -18.303  -8.744 +0.01 +0.02    -0.481 OA
DOCKED: ATOM     54  H   UNL d   1      -3.904 -18.125  -8.514 +0.01 -0.02    +0.295 HD
DOCKED: ENDBRANCH  51  53
DOCKED: ENDBRANCH  50  51
DOCKED: ENDBRANCH  49  50
DOCKED: ENDBRANCH  22  49
DOCKED: TORSDOF 13
DOCKED: TER
DOCKED: ENDMDL
________________________________________________________________________________


	BEGINNING GENETIC ALGORITHM DOCKING 2 of 100
Run: 2 Seed: 1031328021 2119480552 [ Run 2 of 100 GA/GALS ]
Beginning LAMARCKIAN GENETIC ALGORITHM (LGA), with a maximum of 25000000 energy evaluations.

Final-Value: -10.698


	FINAL GENETIC ALGORITHM DOCKED STATE
	_______________________________________________


Detailed state:  trans -11.291 -1.467 -8.223 quatxyzw -0.478979 0.153397 -0.864156 0.016829 center 0.153 0.018 -0.028 ntor 13 -124.7567 160.1809 162.8116 15.1172 -133.3660 9.3094 146.2457 105.2966 -121.5607 39.7986 -79.9495 -29.8377 -22.2100
State:	-11.291  -1.467  -8.223  -0.479  0.153 -0.864 178.071   -124.76  160.18  162.81   15.12 -133.37    9.31  146.25  105.30 -121.56   39.80  -79.95  -29.84  -22.21

DOCKED: MODEL        2
DOCKED: USER    Run = 2
DOCKED: USER    DPF = D:/Protein_go_brrr/autodock/final/AncMH_nat/heme/dock.dpf
DOCKED: USER  
DOCKED: USER    Estimated Free Energy of Binding    =   -3.74 kcal/mol  [=(1)+(2)+(3)-(4)]
DOCKED: USER    Estimated Inhibition Constant, Ki   =    1.82 mM (millimolar)  [Temperature = 298.15 K]
DOCKED: USER    
DOCKED: USER    (1) Final Intermolecular Energy     =   -7.62 kcal/mol
DOCKED: USER        vdW + Hbond + desolv Energy     =   -6.89 kcal/mol
DOCKED: USER        Electrostatic Energy            =   -0.72 kcal/mol
DOCKED: USER    (2) Final Total Internal Energy     =   -3.08 kcal/mol
DOCKED: USER    (3) Torsional Free Energy           =   +3.88 kcal/mol
DOCKED: USER    (4) Unbound System's Energy  [=(2)] =   -3.08 kcal/mol
DOCKED: USER    
DOCKED: USER    
DOCKED: USER    NEWDPF move heme_opt.pdbqt
DOCKED: USER    NEWDPF about 0.153000 0.018000 -0.028000
DOCKED: USER    NEWDPF tran0 -11.290959 -1.467416 -8.222675
DOCKED: USER    NEWDPF quaternion0 -0.478979 0.153397 -0.864156 0.016829
DOCKED: USER    NEWDPF axisangle0 -0.479047 0.153419 -0.864278 178.071486
DOCKED: USER    NEWDPF quat0 -0.479047 0.153419 -0.864278 178.071486
DOCKED: USER    NEWDPF dihe0 -124.76 160.18 162.81 15.12 -133.37 9.31 146.25 105.30 -121.56 39.80 -79.95 -29.84 -22.21 
DOCKED: USER  keepresnum = 1 
DOCKED: USER  
DOCKED: REMARK  13 active torsions:
DOCKED: REMARK  status: ('A' for Active; 'I' for Inactive)
DOCKED: REMARK    1  A    between atoms: O_3  and  C_38 
DOCKED: REMARK    2  A    between atoms: O_4  and  C_40 
DOCKED: REMARK    3  A    between atoms: O_7  and  C_46 
DOCKED: REMARK    4  A    between atoms: O_9  and  C_48 
DOCKED: REMARK    5  A    between atoms: C_15  and  C_20 
DOCKED: REMARK    6  A    between atoms: C_16  and  C_23 
DOCKED: REMARK    7  A    between atoms: C_20  and  C_38 
DOCKED: REMARK    8  A    between atoms: C_23  and  C_40 
DOCKED: REMARK    9  A    between atoms: C_32  and  C_41 
DOCKED: REMARK   10  A    between atoms: C_37  and  C_45 
DOCKED: REMARK   11  A    between atoms: C_41  and  C_44 
DOCKED: REMARK   12  A    between atoms: C_44  and  C_46 
DOCKED: REMARK   13  A    between atoms: C_47  and  C_48 
DOCKED: USER                              x       y       z     vdW  Elec       q    Type
DOCKED: USER                           _______ _______ _______ _____ _____    ______ ____
DOCKED: ROOT
DOCKED: ATOM      1  O   UNL d   1      -8.022  -2.597 -12.997 -0.04 +0.05    -0.289 OA
DOCKED: ATOM      2  O   UNL d   1     -10.301   3.905 -10.009 -0.08 +0.38    -0.289 OA
DOCKED: ATOM      3  N   UNL d   1     -10.068  -2.430 -10.226 -0.05 -0.01    -0.247 NA
DOCKED: ATOM      4  N   UNL d   1     -10.167   0.478  -9.624 -0.07 +0.10    -0.247 NA
DOCKED: ATOM      5  N   UNL d   1     -11.309  -0.183  -7.069 -0.05 +0.04    -0.354 N 
DOCKED: ATOM      6  N   UNL d   1     -11.184  -3.199  -7.694 -0.08 -0.05    -0.354 N 
DOCKED: ATOM      7  C   UNL d   1      -8.928  -4.237 -11.427 -0.11 +0.02    +0.084 A 
DOCKED: ATOM      8  C   UNL d   1      -9.794   2.018 -11.484 -0.06 -0.05    +0.084 A 
DOCKED: ATOM      9  C   UNL d   1      -9.824   0.581 -10.954 -0.06 -0.02    +0.058 A 
DOCKED: ATOM     10  C   UNL d   1      -9.828  -3.793 -10.270 -0.12 +0.02    +0.058 A 
DOCKED: ATOM     11  C   UNL d   1      -8.716  -2.885 -12.039 -0.06 -0.01    +0.193 A 
DOCKED: ATOM     12  C   UNL d   1      -9.479  -1.878 -11.236 -0.06 -0.00    +0.109 A 
DOCKED: ATOM     13  C   UNL d   1     -10.146   2.715 -10.200 -0.01 -0.21    +0.193 A 
DOCKED: ATOM     14  C   UNL d   1      -7.581  -4.773 -10.934 -0.23 +0.00    +0.026 C 
DOCKED: ATOM     15  C   UNL d   1      -9.495  -0.479 -11.708 -0.05 -0.01    +0.055 C 
DOCKED: ATOM     16  C   UNL d   1     -10.909   2.271 -12.503 -0.02 -0.01    +0.026 C 
DOCKED: ATOM     17  C   UNL d   1     -10.339   1.670  -9.149 -0.12 -0.09    +0.109 A 
DOCKED: ATOM     18  C   UNL d   1     -10.396  -4.687  -9.438 +0.04 +0.03    +0.050 C 
DOCKED: ATOM     19  C   UNL d   1     -11.306  -4.377  -8.396 -0.14 +0.02    +0.045 A 
DOCKED: ATOM     20  C   UNL d   1     -11.066   1.152  -6.880 -0.17 -0.02    +0.045 A 
DOCKED: ATOM     21  C   UNL d   1     -10.652   2.063  -7.767 -0.09 -0.06    +0.057 C 
DOCKED: ATOM     22  C   UNL d   1     -11.751   0.239  -4.901 -0.20 -0.00    -0.019 A 
DOCKED: ATOM     23  C   UNL d   1     -11.726  -0.820  -5.931 -0.18 +0.00    +0.045 A 
DOCKED: ATOM     24  C   UNL d   1     -11.360   1.404  -5.470 -0.18 +0.00    -0.022 A 
DOCKED: ATOM     25  C   UNL d   1     -12.108  -3.146  -6.676 -0.18 +0.01    +0.049 A 
DOCKED: ATOM     26  C   UNL d   1     -12.359  -5.090  -7.844 -0.14 -0.01    -0.018 A 
DOCKED: ATOM     27  C   UNL d   1     -12.874  -4.299  -6.771 -0.14 +0.00    +0.003 A 
DOCKED: ATOM     28  C   UNL d   1     -12.076  -2.097  -5.716 -0.25 +0.01    +0.052 C 
DOCKED: ATOM     29  C   UNL d   1     -11.235   2.751  -4.844 -0.19 -0.01    +0.046 C 
DOCKED: ATOM     30  C   UNL d   1     -12.860  -6.424  -8.286 -0.11 +0.04    +0.046 C 
DOCKED: ATOM     31  H   UNL d   1     -11.252  -0.603  -7.991 +0.04 -0.02    +0.166 HD
DOCKED: ATOM     32  H   UNL d   1     -10.478  -2.501  -7.890 -0.25 -0.01    +0.166 HD
DOCKED: ENDROOT
DOCKED: BRANCH   7  33
DOCKED: ATOM     33  C   UNL d   1      -9.577  -5.189 -12.436 -0.06 +0.04    +0.141 C 
DOCKED: BRANCH  33  34
DOCKED: ATOM     34  C   UNL d   1      -9.739  -6.584 -11.895 -0.02 +0.26    +0.306 C 
DOCKED: ATOM     35  O   UNL d   1      -8.866  -7.432 -11.818 -0.50 -0.26    -0.251 OA
DOCKED: BRANCH  34  36
DOCKED: ATOM     36  O   UNL d   1     -10.992  -6.836 -11.478 -0.33 -0.52    -0.481 OA
DOCKED: ATOM     37  H   UNL d   1     -11.559  -6.596 -12.241 +0.02 +0.16    +0.295 HD
DOCKED: ENDBRANCH  34  36
DOCKED: ENDBRANCH  33  34
DOCKED: ENDBRANCH   7  33
DOCKED: BRANCH  27  38
DOCKED: ATOM     38  C   UNL d   1     -13.963  -4.672  -5.919 -0.15 +0.01    +0.017 C 
DOCKED: ATOM     39  C   UNL d   1     -14.532  -3.880  -4.998 -0.15 +0.07    +0.092 C 
DOCKED: BRANCH  39  40
DOCKED: ATOM     40  C   UNL d   1     -15.655  -4.379  -4.200 +0.10 +0.38    +0.330 C 
DOCKED: ATOM     41  O   UNL d   1     -16.101  -5.510  -4.169 -0.68 -0.27    -0.246 OA
DOCKED: BRANCH  40  42
DOCKED: ATOM     42  O   UNL d   1     -16.166  -3.388  -3.452 -0.18 -0.56    -0.477 OA
DOCKED: ATOM     43  H   UNL d   1     -15.446  -2.725  -3.417 +0.04 +0.33    +0.295 HD
DOCKED: ENDBRANCH  40  42
DOCKED: ENDBRANCH  39  40
DOCKED: ENDBRANCH  27  38
DOCKED: BRANCH   8  44
DOCKED: ATOM     44  C   UNL d   1      -8.438   2.497 -12.015 -0.14 -0.10    +0.141 C 
DOCKED: BRANCH  44  45
DOCKED: ATOM     45  C   UNL d   1      -7.311   1.549 -11.707 -0.11 -0.16    +0.306 C 
DOCKED: ATOM     46  O   UNL d   1      -6.795   0.758 -12.478 -0.33 +0.06    -0.251 OA
DOCKED: BRANCH  45  47
DOCKED: ATOM     47  O   UNL d   1      -6.907   1.628 -10.426 -0.13 +0.49    -0.481 OA
DOCKED: ATOM     48  H   UNL d   1      -7.257   2.487 -10.108 -0.34 -0.76    +0.295 HD
DOCKED: ENDBRANCH  45  47
DOCKED: ENDBRANCH  44  45
DOCKED: ENDBRANCH   8  44
DOCKED: BRANCH  22  49
DOCKED: ATOM     49  C   UNL d   1     -12.135   0.012  -3.469 -0.23 +0.02    +0.048 C 
DOCKED: BRANCH  49  50
DOCKED: ATOM     50  C   UNL d   1     -13.525   0.567  -3.159 -0.11 +0.07    +0.125 C 
DOCKED: BRANCH  50  51
DOCKED: ATOM     51  C   UNL d   1     -14.550  -0.531  -3.141 -0.07 +0.22    +0.305 C 
DOCKED: ATOM     52  O   UNL d   1     -15.009  -1.103  -2.168 -0.12 -0.25    -0.251 OA
DOCKED: BRANCH  51  53
DOCKED: ATOM     53  O   UNL d   1     -14.946  -0.871  -4.384 -0.01 -0.24    -0.481 OA
DOCKED: ATOM     54  H   UNL d   1     -15.760  -1.399  -4.238 +0.04 +0.17    +0.295 HD
DOCKED: ENDBRANCH  51  53
DOCKED: ENDBRANCH  50  51
DOCKED: ENDBRANCH  49  50
DOCKED: ENDBRANCH  22  49
DOCKED: TORSDOF 13
DOCKED: TER
DOCKED: ENDMDL
________________________________________________________________________________


	BEGINNING GENETIC ALGORITHM DOCKING 3 of 100
Run: 3 Seed: 335942763 150764985 [ Run 3 of 100 GA/GALS ]
Beginning LAMARCKIAN GENETIC ALGORITHM (LGA), with a maximum of 25000000 energy evaluations.

Final-Value: -12.180


	FINAL GENETIC ALGORITHM DOCKED STATE
	_______________________________________________


Detailed state:  trans -2.933 -10.475 -12.333 quatxyzw 0.075265 0.412280 0.728761 -0.541542 center 0.153 0.018 -0.028 ntor 13 -73.3919 159.0581 78.6729 -28.6793 -139.0773 77.4638 -37.1137 -66.5447 177.8968 17.5225 -90.1676 -91.2965 -8.7336
State:	 -2.933 -10.475 -12.333   0.090  0.490  0.867 -114.423    -73.39  159.06   78.67  -28.68 -139.08   77.46  -37.11  -66.54  177.90   17.52  -90.17  -91.30   -8.73

DOCKED: MODEL        3
DOCKED: USER    Run = 3
DOCKED: USER    DPF = D:/Protein_go_brrr/autodock/final/AncMH_nat/heme/dock.dpf
DOCKED: USER  
DOCKED: USER    Estimated Free Energy of Binding    =   -4.93 kcal/mol  [=(1)+(2)+(3)-(4)]
DOCKED: USER    Estimated Inhibition Constant, Ki   =  244.86 uM (micromolar)  [Temperature = 298.15 K]
DOCKED: USER    
DOCKED: USER    (1) Final Intermolecular Energy     =   -8.80 kcal/mol
DOCKED: USER        vdW + Hbond + desolv Energy     =   -8.46 kcal/mol
DOCKED: USER        Electrostatic Energy            =   -0.34 kcal/mol
DOCKED: USER    (2) Final Total Internal Energy     =   -3.38 kcal/mol
DOCKED: USER    (3) Torsional Free Energy           =   +3.88 kcal/mol
DOCKED: USER    (4) Unbound System's Energy  [=(2)] =   -3.38 kcal/mol
DOCKED: USER    
DOCKED: USER    
DOCKED: USER    NEWDPF move heme_opt.pdbqt
DOCKED: USER    NEWDPF about 0.153000 0.018000 -0.028000
DOCKED: USER    NEWDPF tran0 -2.933217 -10.474801 -12.332960
DOCKED: USER    NEWDPF quaternion0 0.075265 0.412280 0.728761 -0.541542
DOCKED: USER    NEWDPF axisangle0 0.089529 0.490417 0.866877 -114.422706
DOCKED: USER    NEWDPF quat0 0.089529 0.490417 0.866877 -114.422706
DOCKED: USER    NEWDPF dihe0 -73.39 159.06 78.67 -28.68 -139.08 77.46 -37.11 -66.54 177.90 17.52 -90.17 -91.30 -8.73 
DOCKED: USER  keepresnum = 1 
DOCKED: USER  
DOCKED: REMARK  13 active torsions:
DOCKED: REMARK  status: ('A' for Active; 'I' for Inactive)
DOCKED: REMARK    1  A    between atoms: O_3  and  C_38 
DOCKED: REMARK    2  A    between atoms: O_4  and  C_40 
DOCKED: REMARK    3  A    between atoms: O_7  and  C_46 
DOCKED: REMARK    4  A    between atoms: O_9  and  C_48 
DOCKED: REMARK    5  A    between atoms: C_15  and  C_20 
DOCKED: REMARK    6  A    between atoms: C_16  and  C_23 
DOCKED: REMARK    7  A    between atoms: C_20  and  C_38 
DOCKED: REMARK    8  A    between atoms: C_23  and  C_40 
DOCKED: REMARK    9  A    between atoms: C_32  and  C_41 
DOCKED: REMARK   10  A    between atoms: C_37  and  C_45 
DOCKED: REMARK   11  A    between atoms: C_41  and  C_44 
DOCKED: REMARK   12  A    between atoms: C_44  and  C_46 
DOCKED: REMARK   13  A    between atoms: C_47  and  C_48 
DOCKED: USER                              x       y       z     vdW  Elec       q    Type
DOCKED: USER                           _______ _______ _______ _____ _____    ______ ____
DOCKED: ROOT
DOCKED: ATOM      1  O   UNL d   1      -1.545 -15.039  -8.870 -0.11 +0.14    -0.289 OA
DOCKED: ATOM      2  O   UNL d   1       0.781 -13.201 -15.769 -0.01 +0.03    -0.289 OA
DOCKED: ATOM      3  N   UNL d   1      -2.755 -12.301 -10.581 -0.14 +0.08    -0.247 NA
DOCKED: ATOM      4  N   UNL d   1      -1.065 -12.219 -13.024 -0.11 +0.10    -0.247 NA
DOCKED: ATOM      5  N   UNL d   1      -2.059  -9.566 -13.511 +0.02 +0.12    -0.354 N 
DOCKED: ATOM      6  N   UNL d   1      -3.794  -9.651 -10.965 -0.14 +0.03    -0.354 N 
DOCKED: ATOM      7  C   UNL d   1      -3.039 -13.187  -8.314 -0.26 -0.02    +0.084 A 
DOCKED: ATOM      8  C   UNL d   1      -0.091 -14.329 -13.780 -0.05 -0.01    +0.084 A 
DOCKED: ATOM      9  C   UNL d   1      -0.891 -13.553 -12.728 -0.11 -0.02    +0.058 A 
DOCKED: ATOM     10  C   UNL d   1      -3.363 -12.109  -9.352 -0.27 -0.01    +0.058 A 
DOCKED: ATOM     11  C   UNL d   1      -2.154 -14.032  -9.180 -0.09 -0.08    +0.193 A 
DOCKED: ATOM     12  C   UNL d   1      -2.082 -13.404 -10.537 +0.13 -0.05    +0.109 A 
DOCKED: ATOM     13  C   UNL d   1       0.188 -13.181 -14.709 -0.03 -0.03    +0.193 A 
DOCKED: ATOM     14  C   UNL d   1      -2.211 -12.634  -7.151 -0.15 -0.00    +0.026 C 
DOCKED: ATOM     15  C   UNL d   1      -1.336 -14.116 -11.594 -0.04 -0.02    +0.055 C 
DOCKED: ATOM     16  C   UNL d   1      -0.962 -15.355 -14.512 -0.01 -0.00    +0.026 C 
DOCKED: ATOM     17  C   UNL d   1      -0.450 -11.959 -14.133 -0.11 -0.03    +0.109 A 
DOCKED: ATOM     18  C   UNL d   1      -4.240 -11.121  -9.090 -0.36 +0.00    +0.050 C 
DOCKED: ATOM     19  C   UNL d   1      -4.665 -10.132 -10.013 -0.27 +0.00    +0.045 A 
DOCKED: ATOM     20  C   UNL d   1      -1.061  -9.620 -14.450 -0.13 -0.01    +0.045 A 
DOCKED: ATOM     21  C   UNL d   1      -0.305 -10.662 -14.810 -0.14 -0.01    +0.057 C 
DOCKED: ATOM     22  C   UNL d   1      -1.905  -7.498 -14.391 -0.27 +0.00    -0.019 A 
DOCKED: ATOM     23  C   UNL d   1      -2.628  -8.325 -13.404 -0.24 -0.01    +0.045 A 
DOCKED: ATOM     24  C   UNL d   1      -0.980  -8.271 -15.008 -0.18 +0.00    -0.022 A 
DOCKED: ATOM     25  C   UNL d   1      -4.382  -8.640 -11.690 -0.23 -0.00    +0.049 A 
DOCKED: ATOM     26  C   UNL d   1      -5.860  -9.442 -10.147 -0.22 -0.01    -0.018 A 
DOCKED: ATOM     27  C   UNL d   1      -5.682  -8.515 -11.220 -0.17 +0.00    +0.003 A 
DOCKED: ATOM     28  C   UNL d   1      -3.628  -7.882 -12.627 -0.32 -0.01    +0.052 C 
DOCKED: ATOM     29  C   UNL d   1      -0.018  -7.895 -16.083 -0.12 -0.00    +0.046 C 
DOCKED: ATOM     30  C   UNL d   1      -7.093  -9.631  -9.331 -0.22 +0.03    +0.046 C 
DOCKED: ATOM     31  H   UNL d   1      -2.370 -10.400 -13.025 -0.22 -0.06    +0.166 HD
DOCKED: ATOM     32  H   UNL d   1      -2.843  -9.982 -11.073 -0.19 -0.06    +0.166 HD
DOCKED: ENDROOT
DOCKED: BRANCH   7  33
DOCKED: ATOM     33  C   UNL d   1      -4.238 -13.999  -7.814 -0.16 -0.04    +0.141 C 
DOCKED: BRANCH  33  34
DOCKED: ATOM     34  C   UNL d   1      -4.245 -14.161  -6.318 -0.19 -0.09    +0.306 C 
DOCKED: ATOM     35  O   UNL d   1      -3.652 -15.017  -5.683 -0.16 +0.05    -0.251 OA
DOCKED: BRANCH  34  36
DOCKED: ATOM     36  O   UNL d   1      -4.998 -13.234  -5.700 -0.06 +0.29    -0.481 OA
DOCKED: ATOM     37  H   UNL d   1      -5.817 -13.711  -5.445 -0.31 -0.45    +0.295 HD
DOCKED: ENDBRANCH  34  36
DOCKED: ENDBRANCH  33  34
DOCKED: ENDBRANCH   7  33
DOCKED: BRANCH  27  38
DOCKED: ATOM     38  C   UNL d   1      -6.671  -7.589 -11.684 -0.17 +0.01    +0.017 C 
DOCKED: ATOM     39  C   UNL d   1      -6.499  -6.263 -11.795 -0.20 +0.02    +0.092 C 
DOCKED: BRANCH  39  40
DOCKED: ATOM     40  C   UNL d   1      -7.589  -5.425 -12.301 -0.07 +0.05    +0.330 C 
DOCKED: ATOM     41  O   UNL d   1      -8.598  -5.083 -11.714 -0.10 -0.08    -0.246 OA
DOCKED: BRANCH  40  42
DOCKED: ATOM     42  O   UNL d   1      -7.332  -5.045 -13.562 -0.02 -0.02    -0.477 OA
DOCKED: ATOM     43  H   UNL d   1      -6.361  -5.149 -13.645 -0.20 +0.01    +0.295 HD
DOCKED: ENDBRANCH  40  42
DOCKED: ENDBRANCH  39  40
DOCKED: ENDBRANCH  27  38
DOCKED: BRANCH   8  44
DOCKED: ATOM     44  C   UNL d   1       1.213 -14.963 -13.284 -0.05 -0.02    +0.141 C 
DOCKED: BRANCH  44  45
DOCKED: ATOM     45  C   UNL d   1       1.882 -14.169 -12.195 -0.07 -0.06    +0.306 C 
DOCKED: ATOM     46  O   UNL d   1       2.591 -13.188 -12.341 -0.56 +0.02    -0.251 OA
DOCKED: BRANCH  45  47
DOCKED: ATOM     47  O   UNL d   1       1.645 -14.672 -10.970 -0.21 +0.16    -0.481 OA
DOCKED: ATOM     48  H   UNL d   1       0.958 -14.084 -10.589 -0.46 -0.21    +0.295 HD
DOCKED: ENDBRANCH  45  47
DOCKED: ENDBRANCH  44  45
DOCKED: ENDBRANCH   8  44
DOCKED: BRANCH  22  49
DOCKED: ATOM     49  C   UNL d   1      -2.173  -6.041 -14.627 -0.09 -0.00    +0.048 C 
DOCKED: BRANCH  49  50
DOCKED: ATOM     50  C   UNL d   1      -3.197  -5.823 -15.740 -0.12 -0.00    +0.125 C 
DOCKED: BRANCH  50  51
DOCKED: ATOM     51  C   UNL d   1      -4.592  -5.769 -15.184 -0.08 +0.02    +0.305 C 
DOCKED: ATOM     52  O   UNL d   1      -5.256  -6.694 -14.751 -0.09 -0.01    -0.251 OA
DOCKED: BRANCH  51  53
DOCKED: ATOM     53  O   UNL d   1      -5.097  -4.519 -15.212 -0.36 -0.12    -0.481 OA
DOCKED: ATOM     54  H   UNL d   1      -6.064  -4.656 -15.300 +0.03 +0.06    +0.295 HD
DOCKED: ENDBRANCH  51  53
DOCKED: ENDBRANCH  50  51
DOCKED: ENDBRANCH  49  50
DOCKED: ENDBRANCH  22  49
DOCKED: TORSDOF 13
DOCKED: TER
DOCKED: ENDMDL
________________________________________________________________________________


	BEGINNING GENETIC ALGORITHM DOCKING 4 of 100
Run: 4 Seed: 1652116234 1157588956 [ Run 4 of 100 GA/GALS ]
Beginning LAMARCKIAN GENETIC ALGORITHM (LGA), with a maximum of 25000000 energy evaluations.

Final-Value: -12.222


	FINAL GENETIC ALGORITHM DOCKED STATE
	_______________________________________________


Detailed state:  trans -9.820 14.042 15.482 quatxyzw 0.000748 0.093668 0.076062 0.992693 center 0.153 0.018 -0.028 ntor 13 -157.7690 -179.7588 99.3833 -51.4830 -139.4813 108.8113 -51.5890 -105.0579 -136.8343 -142.5264 -97.6659 -117.7793 5.2159
State:	 -9.820  14.042  15.482   0.006  0.776  0.630 13.861   -157.77 -179.76   99.38  -51.48 -139.48  108.81  -51.59 -105.06 -136.83 -142.53  -97.67 -117.78    5.22

DOCKED: MODEL        4
DOCKED: USER    Run = 4
DOCKED: USER    DPF = D:/Protein_go_brrr/autodock/final/AncMH_nat/heme/dock.dpf
DOCKED: USER  
DOCKED: USER    Estimated Free Energy of Binding    =   -4.55 kcal/mol  [=(1)+(2)+(3)-(4)]
DOCKED: USER    Estimated Inhibition Constant, Ki   =  463.62 uM (micromolar)  [Temperature = 298.15 K]
DOCKED: USER    
DOCKED: USER    (1) Final Intermolecular Energy     =   -8.43 kcal/mol
DOCKED: USER        vdW + Hbond + desolv Energy     =   -7.69 kcal/mol
DOCKED: USER        Electrostatic Energy            =   -0.74 kcal/mol
DOCKED: USER    (2) Final Total Internal Energy     =   -3.80 kcal/mol
DOCKED: USER    (3) Torsional Free Energy           =   +3.88 kcal/mol
DOCKED: USER    (4) Unbound System's Energy  [=(2)] =   -3.80 kcal/mol
DOCKED: USER    
DOCKED: USER    
DOCKED: USER    NEWDPF move heme_opt.pdbqt
DOCKED: USER    NEWDPF about 0.153000 0.018000 -0.028000
DOCKED: USER    NEWDPF tran0 -9.820278 14.041673 15.482274
DOCKED: USER    NEWDPF quaternion0 0.000748 0.093668 0.076062 0.992693
DOCKED: USER    NEWDPF axisangle0 0.006201 0.776272 0.630367 13.860782
DOCKED: USER    NEWDPF quat0 0.006201 0.776272 0.630367 13.860782
DOCKED: USER    NEWDPF dihe0 -157.77 -179.76 99.38 -51.48 -139.48 108.81 -51.59 -105.06 -136.83 -142.53 -97.67 -117.78 5.22 
DOCKED: USER  keepresnum = 1 
DOCKED: USER  
DOCKED: REMARK  13 active torsions:
DOCKED: REMARK  status: ('A' for Active; 'I' for Inactive)
DOCKED: REMARK    1  A    between atoms: O_3  and  C_38 
DOCKED: REMARK    2  A    between atoms: O_4  and  C_40 
DOCKED: REMARK    3  A    between atoms: O_7  and  C_46 
DOCKED: REMARK    4  A    between atoms: O_9  and  C_48 
DOCKED: REMARK    5  A    between atoms: C_15  and  C_20 
DOCKED: REMARK    6  A    between atoms: C_16  and  C_23 
DOCKED: REMARK    7  A    between atoms: C_20  and  C_38 
DOCKED: REMARK    8  A    between atoms: C_23  and  C_40 
DOCKED: REMARK    9  A    between atoms: C_32  and  C_41 
DOCKED: REMARK   10  A    between atoms: C_37  and  C_45 
DOCKED: REMARK   11  A    between atoms: C_41  and  C_44 
DOCKED: REMARK   12  A    between atoms: C_44  and  C_46 
DOCKED: REMARK   13  A    between atoms: C_47  and  C_48 
DOCKED: USER                              x       y       z     vdW  Elec       q    Type
DOCKED: USER                           _______ _______ _______ _____ _____    ______ ____
DOCKED: ROOT
DOCKED: ATOM      1  O   UNL d   1     -15.133  16.568  15.096 -0.01 +0.09    -0.289 OA
DOCKED: ATOM      2  O   UNL d   1     -12.839   9.628  13.375 -0.33 +0.04    -0.289 OA
DOCKED: ATOM      3  N   UNL d   1     -11.844  15.567  15.367 -0.15 +0.18    -0.247 NA
DOCKED: ATOM      4  N   UNL d   1     -11.965  12.657  14.778 -0.16 +0.06    -0.247 NA
DOCKED: ATOM      5  N   UNL d   1      -9.289  12.432  15.806 -0.12 +0.11    -0.354 N 
DOCKED: ATOM      6  N   UNL d   1      -9.179  15.448  16.432 +0.04 +0.21    -0.354 N 
DOCKED: ATOM      7  C   UNL d   1     -13.090  17.590  15.967 -0.07 -0.06    +0.084 A 
DOCKED: ATOM      8  C   UNL d   1     -13.809  11.875  13.378 -0.24 -0.01    +0.084 A 
DOCKED: ATOM      9  C   UNL d   1     -13.130  13.018  14.141 -0.19 -0.01    +0.058 A 
DOCKED: ATOM     10  C   UNL d   1     -11.762  16.829  15.931 -0.13 -0.05    +0.058 A 
DOCKED: ATOM     11  C   UNL d   1     -13.934  16.542  15.306 -0.05 -0.10    +0.193 A 
DOCKED: ATOM     12  C   UNL d   1     -13.059  15.375  14.967 -0.14 -0.06    +0.109 A 
DOCKED: ATOM     13  C   UNL d   1     -12.832  10.790  13.732 -0.25 -0.02    +0.193 A 
DOCKED: ATOM     14  C   UNL d   1     -13.593  17.801  17.397 -0.02 -0.01    +0.026 C 
DOCKED: ATOM     15  C   UNL d   1     -13.657  14.250  14.221 -0.15 -0.02    +0.055 C 
DOCKED: ATOM     16  C   UNL d   1     -13.768  12.100  11.864 -0.43 -0.01    +0.026 C 
DOCKED: ATOM     17  C   UNL d   1     -11.767  11.392  14.590 -0.21 -0.02    +0.109 A 
DOCKED: ATOM     18  C   UNL d   1     -10.613  17.400  16.338 -0.11 -0.05    +0.050 C 
DOCKED: ATOM     19  C   UNL d   1      -9.327  16.806  16.264 -0.18 -0.03    +0.045 A 
DOCKED: ATOM     20  C   UNL d   1      -9.607  11.104  15.684 -0.20 -0.01    +0.045 A 
DOCKED: ATOM     21  C   UNL d   1     -10.689  10.549  15.128 +0.04 -0.01    +0.057 C 
DOCKED: ATOM     22  C   UNL d   1      -7.592  11.286  16.745 -0.17 +0.00    -0.019 A 
DOCKED: ATOM     23  C   UNL d   1      -8.090  12.641  16.435 -0.18 -0.01    +0.045 A 
DOCKED: ATOM     24  C   UNL d   1      -8.494  10.380  16.297 -0.24 +0.01    -0.022 A 
DOCKED: ATOM     25  C   UNL d   1      -7.848  15.101  16.412 -0.11 -0.02    +0.049 A 
DOCKED: ATOM     26  C   UNL d   1      -8.064  17.351  16.094 -0.20 +0.01    -0.018 A 
DOCKED: ATOM     27  C   UNL d   1      -7.135  16.267  16.169 -0.20 -0.00    +0.003 A 
DOCKED: ATOM     28  C   UNL d   1      -7.435  13.776  16.721 -0.16 -0.01    +0.052 C 
DOCKED: ATOM     29  C   UNL d   1      -8.434   8.892  16.365 -0.31 -0.02    +0.046 C 
DOCKED: ATOM     30  C   UNL d   1      -7.736  18.789  15.874 -0.19 -0.02    +0.046 C 
DOCKED: ATOM     31  H   UNL d   1      -9.869  13.152  15.389 -0.48 -0.09    +0.166 HD
DOCKED: ATOM     32  H   UNL d   1      -9.954  14.815  16.589 -0.10 -0.09    +0.166 HD
DOCKED: ENDROOT
DOCKED: BRANCH   7  33
DOCKED: ATOM     33  C   UNL d   1     -13.123  18.893  15.162 +0.02 -0.15    +0.141 C 
DOCKED: BRANCH  33  34
DOCKED: ATOM     34  C   UNL d   1     -12.684  20.084  15.969 -0.03 -0.21    +0.306 C 
DOCKED: ATOM     35  O   UNL d   1     -13.389  20.758  16.701 -0.01 +0.09    -0.251 OA
DOCKED: BRANCH  34  36
DOCKED: ATOM     36  O   UNL d   1     -11.377  20.363  15.814 -0.04 +0.47    -0.481 OA
DOCKED: ATOM     37  H   UNL d   1     -11.128  19.917  14.976 -0.49 -0.69    +0.295 HD
DOCKED: ENDBRANCH  34  36
DOCKED: ENDBRANCH  33  34
DOCKED: ENDBRANCH   7  33
DOCKED: BRANCH  27  38
DOCKED: ATOM     38  C   UNL d   1      -5.713  16.390  16.060 -0.17 -0.00    +0.017 C 
DOCKED: ATOM     39  C   UNL d   1      -4.857  16.424  17.092 -0.05 -0.00    +0.092 C 
DOCKED: BRANCH  39  40
DOCKED: ATOM     40  C   UNL d   1      -3.417  16.535  16.844 -0.01 +0.01    +0.330 C 
DOCKED: ATOM     41  O   UNL d   1      -2.706  17.506  17.016 -0.01 -0.02    -0.246 OA
DOCKED: BRANCH  40  42
DOCKED: ATOM     42  O   UNL d   1      -2.937  15.370  16.383 +0.01 -0.00    -0.477 OA
DOCKED: ATOM     43  H   UNL d   1      -3.723  14.787  16.352 +0.05 -0.01    +0.295 HD
DOCKED: ENDBRANCH  40  42
DOCKED: ENDBRANCH  39  40
DOCKED: ENDBRANCH  27  38
DOCKED: BRANCH   8  44
DOCKED: ATOM     44  C   UNL d   1     -15.222  11.516  13.847 -0.17 +0.00    +0.141 C 
DOCKED: BRANCH  44  45
DOCKED: ATOM     45  C   UNL d   1     -15.950  10.602  12.897 -0.25 +0.04    +0.306 C 
DOCKED: ATOM     46  O   UNL d   1     -16.732  10.936  12.024 -0.30 -0.02    -0.251 OA
DOCKED: BRANCH  45  47
DOCKED: ATOM     47  O   UNL d   1     -15.671   9.305  13.116 -0.15 -0.14    -0.481 OA
DOCKED: ATOM     48  H   UNL d   1     -14.815   9.154  12.661 -0.31 -0.08    +0.295 HD
DOCKED: ENDBRANCH  45  47
DOCKED: ENDBRANCH  44  45
DOCKED: ENDBRANCH   8  44
DOCKED: BRANCH  22  49
DOCKED: ATOM     49  C   UNL d   1      -6.301  11.005  17.457 -0.12 -0.01    +0.048 C 
DOCKED: BRANCH  49  50
DOCKED: ATOM     50  C   UNL d   1      -5.097  11.147  16.527 -0.15 -0.03    +0.125 C 
DOCKED: BRANCH  50  51
DOCKED: ATOM     51  C   UNL d   1      -4.671  12.584  16.416 -0.04 -0.05    +0.305 C 
DOCKED: ATOM     52  O   UNL d   1      -4.756  13.311  15.441 -0.08 +0.03    -0.251 OA
DOCKED: BRANCH  51  53
DOCKED: ATOM     53  O   UNL d   1      -4.134  13.041  17.564 +0.01 +0.06    -0.481 OA
DOCKED: ATOM     54  H   UNL d   1      -3.276  13.428  17.289 +0.03 -0.03    +0.295 HD
DOCKED: ENDBRANCH  51  53
DOCKED: ENDBRANCH  50  51
DOCKED: ENDBRANCH  49  50
DOCKED: ENDBRANCH  22  49
DOCKED: TORSDOF 13
DOCKED: TER
DOCKED: ENDMDL
________________________________________________________________________________


	BEGINNING GENETIC ALGORITHM DOCKING 5 of 100
Run: 5 Seed: 614331675 1301195624 [ Run 5 of 100 GA/GALS ]
Beginning LAMARCKIAN GENETIC ALGORITHM (LGA), with a maximum of 25000000 energy evaluations.

Final-Value: -10.550


	FINAL GENETIC ALGORITHM DOCKED STATE
	_______________________________________________


Detailed state:  trans 13.256 7.498 4.828 quatxyzw 0.389040 0.849580 -0.339101 0.108962 center 0.153 0.018 -0.028 ntor 13 -108.3443 135.6315 109.8011 172.1724 33.0649 -14.4941 -74.6562 -61.1000 133.0967 -19.9140 -96.5864 6.0548 -15.0949
State:	 13.256   7.498   4.828   0.391  0.855 -0.341 167.489   -108.34  135.63  109.80  172.17   33.06  -14.49  -74.66  -61.10  133.10  -19.91  -96.59    6.05  -15.09

DOCKED: MODEL        5
DOCKED: USER    Run = 5
DOCKED: USER    DPF = D:/Protein_go_brrr/autodock/final/AncMH_nat/heme/dock.dpf
DOCKED: USER  
DOCKED: USER    Estimated Free Energy of Binding    =   -2.93 kcal/mol  [=(1)+(2)+(3)-(4)]
DOCKED: USER    Estimated Inhibition Constant, Ki   =    7.08 mM (millimolar)  [Temperature = 298.15 K]
DOCKED: USER    
DOCKED: USER    (1) Final Intermolecular Energy     =   -6.81 kcal/mol
DOCKED: USER        vdW + Hbond + desolv Energy     =   -6.46 kcal/mol
DOCKED: USER        Electrostatic Energy            =   -0.35 kcal/mol
DOCKED: USER    (2) Final Total Internal Energy     =   -3.74 kcal/mol
DOCKED: USER    (3) Torsional Free Energy           =   +3.88 kcal/mol
DOCKED: USER    (4) Unbound System's Energy  [=(2)] =   -3.74 kcal/mol
DOCKED: USER    
DOCKED: USER    
DOCKED: USER    NEWDPF move heme_opt.pdbqt
DOCKED: USER    NEWDPF about 0.153000 0.018000 -0.028000
DOCKED: USER    NEWDPF tran0 13.255740 7.498448 4.828058
DOCKED: USER    NEWDPF quaternion0 0.389040 0.849580 -0.339101 0.108962
DOCKED: USER    NEWDPF axisangle0 0.391370 0.854669 -0.341132 167.488994
DOCKED: USER    NEWDPF quat0 0.391370 0.854669 -0.341132 167.488994
DOCKED: USER    NEWDPF dihe0 -108.34 135.63 109.80 172.17 33.06 -14.49 -74.66 -61.10 133.10 -19.91 -96.59 6.05 -15.09 
DOCKED: USER  keepresnum = 1 
DOCKED: USER  
DOCKED: REMARK  13 active torsions:
DOCKED: REMARK  status: ('A' for Active; 'I' for Inactive)
DOCKED: REMARK    1  A    between atoms: O_3  and  C_38 
DOCKED: REMARK    2  A    between atoms: O_4  and  C_40 
DOCKED: REMARK    3  A    between atoms: O_7  and  C_46 
DOCKED: REMARK    4  A    between atoms: O_9  and  C_48 
DOCKED: REMARK    5  A    between atoms: C_15  and  C_20 
DOCKED: REMARK    6  A    between atoms: C_16  and  C_23 
DOCKED: REMARK    7  A    between atoms: C_20  and  C_38 
DOCKED: REMARK    8  A    between atoms: C_23  and  C_40 
DOCKED: REMARK    9  A    between atoms: C_32  and  C_41 
DOCKED: REMARK   10  A    between atoms: C_37  and  C_45 
DOCKED: REMARK   11  A    between atoms: C_41  and  C_44 
DOCKED: REMARK   12  A    between atoms: C_44  and  C_46 
DOCKED: REMARK   13  A    between atoms: C_47  and  C_48 
DOCKED: USER                              x       y       z     vdW  Elec       q    Type
DOCKED: USER                           _______ _______ _______ _____ _____    ______ ____
DOCKED: ROOT
DOCKED: ATOM      1  O   UNL d   1      17.736   3.846   3.670 -0.03 +0.07    -0.289 OA
DOCKED: ATOM      2  O   UNL d   1      12.909   4.057   9.419 -0.00 +0.09    -0.289 OA
DOCKED: ATOM      3  N   UNL d   1      15.324   6.290   3.995 -0.08 +0.22    -0.247 NA
DOCKED: ATOM      4  N   UNL d   1      13.748   5.385   6.346 -0.06 +0.26    -0.247 NA
DOCKED: ATOM      5  N   UNL d   1      11.732   7.301   5.615 -0.04 +0.35    -0.354 N 
DOCKED: ATOM      6  N   UNL d   1      13.365   8.220   3.167 -0.11 +0.29    -0.354 N 
DOCKED: ATOM      7  C   UNL d   1      16.955   5.689   2.267 -0.15 -0.03    +0.084 A 
DOCKED: ATOM      8  C   UNL d   1      14.891   3.978   7.984 -0.02 -0.03    +0.084 A 
DOCKED: ATOM      9  C   UNL d   1      14.910   4.705   6.636 -0.09 -0.03    +0.058 A 
DOCKED: ATOM     10  C   UNL d   1      15.821   6.603   2.741 -0.16 -0.03    +0.058 A 
DOCKED: ATOM     11  C   UNL d   1      17.023   4.815   3.483 -0.06 -0.07    +0.193 A 
DOCKED: ATOM     12  C   UNL d   1      16.004   5.296   4.468 -0.10 -0.07    +0.109 A 
DOCKED: ATOM     13  C   UNL d   1      13.490   4.341   8.389 -0.02 -0.08    +0.193 A 
DOCKED: ATOM     14  C   UNL d   1      16.540   4.834   1.066 -0.28 -0.01    +0.026 C 
DOCKED: ATOM     15  C   UNL d   1      15.950   4.640   5.790 -0.09 -0.03    +0.055 C 
DOCKED: ATOM     16  C   UNL d   1      15.870   4.606   8.981 +0.00 -0.01    +0.026 C 
DOCKED: ATOM     17  C   UNL d   1      12.904   5.188   7.307 -0.09 -0.08    +0.109 A 
DOCKED: ATOM     18  C   UNL d   1      15.426   7.667   2.017 +0.10 -0.02    +0.050 C 
DOCKED: ATOM     19  C   UNL d   1      14.447   8.613   2.413 -0.18 -0.02    +0.045 A 
DOCKED: ATOM     20  C   UNL d   1      11.058   6.608   6.587 -0.14 -0.03    +0.045 A 
DOCKED: ATOM     21  C   UNL d   1      11.515   5.660   7.410 -0.13 -0.04    +0.057 C 
DOCKED: ATOM     22  C   UNL d   1       9.617   8.074   5.589 -0.26 +0.01    -0.019 A 
DOCKED: ATOM     23  C   UNL d   1      10.945   8.208   4.958 -0.18 -0.03    +0.045 A 
DOCKED: ATOM     24  C   UNL d   1       9.690   7.126   6.554 -0.18 +0.01    -0.022 A 
DOCKED: ATOM     25  C   UNL d   1      12.501   9.272   3.358 -0.26 -0.02    +0.049 A 
DOCKED: ATOM     26  C   UNL d   1      14.301   9.964   2.138 -0.17 +0.00    -0.018 A 
DOCKED: ATOM     27  C   UNL d   1      13.080  10.379   2.754 -0.20 -0.00    +0.003 A 
DOCKED: ATOM     28  C   UNL d   1      11.235   9.074   3.975 -0.33 -0.02    +0.052 C 
DOCKED: ATOM     29  C   UNL d   1       8.619   6.644   7.472 -0.15 -0.02    +0.046 C 
DOCKED: ATOM     30  C   UNL d   1      15.237  10.819   1.353 -0.12 +0.00    +0.046 C 
DOCKED: ATOM     31  H   UNL d   1      12.731   7.183   5.482 -0.11 -0.21    +0.166 HD
DOCKED: ATOM     32  H   UNL d   1      13.224   7.270   3.491 -0.50 -0.34    +0.166 HD
DOCKED: ENDROOT
DOCKED: BRANCH   7  33
DOCKED: ATOM     33  C   UNL d   1      18.300   6.382   2.026 -0.07 -0.04    +0.141 C 
DOCKED: BRANCH  33  34
DOCKED: ATOM     34  C   UNL d   1      19.363   5.431   1.545 -0.05 -0.07    +0.306 C 
DOCKED: ATOM     35  O   UNL d   1      19.582   5.122   0.386 -0.12 +0.07    -0.251 OA
DOCKED: BRANCH  34  36
DOCKED: ATOM     36  O   UNL d   1      20.097   4.923   2.550 +0.00 +0.09    -0.481 OA
DOCKED: ATOM     37  H   UNL d   1      19.480   4.332   3.032 +0.04 -0.06    +0.295 HD
DOCKED: ENDBRANCH  34  36
DOCKED: ENDBRANCH  33  34
DOCKED: ENDBRANCH   7  33
DOCKED: BRANCH  27  38
DOCKED: ATOM     38  C   UNL d   1      12.539  11.704   2.703 -0.21 +0.00    +0.017 C 
DOCKED: ATOM     39  C   UNL d   1      11.992  12.358   3.739 -0.15 +0.00    +0.092 C 
DOCKED: BRANCH  39  40
DOCKED: ATOM     40  C   UNL d   1      11.488  13.722   3.559 -0.09 +0.02    +0.330 C 
DOCKED: ATOM     41  O   UNL d   1      11.731  14.489   2.647 -0.13 -0.03    -0.246 OA
DOCKED: BRANCH  40  42
DOCKED: ATOM     42  O   UNL d   1      10.670  14.050   4.571 -0.04 -0.03    -0.477 OA
DOCKED: ATOM     43  H   UNL d   1      10.105  13.258   4.682 +0.08 +0.01    +0.295 HD
DOCKED: ENDBRANCH  40  42
DOCKED: ENDBRANCH  39  40
DOCKED: ENDBRANCH  27  38
DOCKED: BRANCH   8  44
DOCKED: ATOM     44  C   UNL d   1      15.067   2.458   7.918 -0.04 -0.02    +0.141 C 
DOCKED: BRANCH  44  45
DOCKED: ATOM     45  C   UNL d   1      13.884   1.748   7.315 -0.05 -0.00    +0.306 C 
DOCKED: ATOM     46  O   UNL d   1      13.179   0.917   7.861 -0.06 -0.03    -0.251 OA
DOCKED: BRANCH  45  47
DOCKED: ATOM     47  O   UNL d   1      13.666   2.106   6.036 -0.07 +0.01    -0.481 OA
DOCKED: ATOM     48  H   UNL d   1      13.329   3.025   6.090 -0.34 -0.28    +0.295 HD
DOCKED: ENDBRANCH  45  47
DOCKED: ENDBRANCH  44  45
DOCKED: ENDBRANCH   8  44
DOCKED: BRANCH  22  49
DOCKED: ATOM     49  C   UNL d   1       8.408   8.866   5.186 -0.28 -0.01    +0.048 C 
DOCKED: BRANCH  49  50
DOCKED: ATOM     50  C   UNL d   1       8.176  10.061   6.110 -0.03 -0.01    +0.125 C 
DOCKED: BRANCH  50  51
DOCKED: ATOM     51  C   UNL d   1       9.005  11.239   5.681 -0.12 -0.03    +0.305 C 
DOCKED: ATOM     52  O   UNL d   1      10.218  11.344   5.713 -0.07 +0.03    -0.251 OA
DOCKED: BRANCH  51  53
DOCKED: ATOM     53  O   UNL d   1       8.242  12.256   5.234 -0.04 +0.05    -0.481 OA
DOCKED: ATOM     54  H   UNL d   1       7.339  11.876   5.192 -0.42 -0.13    +0.295 HD
DOCKED: ENDBRANCH  51  53
DOCKED: ENDBRANCH  50  51
DOCKED: ENDBRANCH  49  50
DOCKED: ENDBRANCH  22  49
DOCKED: TORSDOF 13
DOCKED: TER
DOCKED: ENDMDL
________________________________________________________________________________


	BEGINNING GENETIC ALGORITHM DOCKING 6 of 100
Run: 6 Seed: 1390952430 1108871267 [ Run 6 of 100 GA/GALS ]
Beginning LAMARCKIAN GENETIC ALGORITHM (LGA), with a maximum of 25000000 energy evaluations.

Final-Value: -12.825


	FINAL GENETIC ALGORITHM DOCKED STATE
	_______________________________________________


Detailed state:  trans -2.610 -10.596 -12.450 quatxyzw 0.323637 0.014330 0.943526 0.069369 center 0.153 0.018 -0.028 ntor 13 135.8038 161.0624 -107.6747 36.0059 -133.9766 84.5082 128.6967 -6.6198 24.2989 -47.5785 -77.1593 -102.1681 4.0107
State:	 -2.610 -10.596 -12.450   0.324  0.014  0.946 172.045    135.80  161.06 -107.67   36.01 -133.98   84.51  128.70   -6.62   24.30  -47.58  -77.16 -102.17    4.01

DOCKED: MODEL        6
DOCKED: USER    Run = 6
DOCKED: USER    DPF = D:/Protein_go_brrr/autodock/final/AncMH_nat/heme/dock.dpf
DOCKED: USER  
DOCKED: USER    Estimated Free Energy of Binding    =   -4.32 kcal/mol  [=(1)+(2)+(3)-(4)]
DOCKED: USER    Estimated Inhibition Constant, Ki   =  683.34 uM (micromolar)  [Temperature = 298.15 K]
DOCKED: USER    
DOCKED: USER    (1) Final Intermolecular Energy     =   -8.20 kcal/mol
DOCKED: USER        vdW + Hbond + desolv Energy     =   -7.96 kcal/mol
DOCKED: USER        Electrostatic Energy            =   -0.24 kcal/mol
DOCKED: USER    (2) Final Total Internal Energy     =   -4.63 kcal/mol
DOCKED: USER    (3) Torsional Free Energy           =   +3.88 kcal/mol
DOCKED: USER    (4) Unbound System's Energy  [=(2)] =   -4.63 kcal/mol
DOCKED: USER    
DOCKED: USER    
DOCKED: USER    NEWDPF move heme_opt.pdbqt
DOCKED: USER    NEWDPF about 0.153000 0.018000 -0.028000
DOCKED: USER    NEWDPF tran0 -2.610347 -10.595957 -12.450237
DOCKED: USER    NEWDPF quaternion0 0.323637 0.014330 0.943526 0.069369
DOCKED: USER    NEWDPF axisangle0 0.324419 0.014364 0.945804 172.044527
DOCKED: USER    NEWDPF quat0 0.324419 0.014364 0.945804 172.044527
DOCKED: USER    NEWDPF dihe0 135.80 161.06 -107.67 36.01 -133.98 84.51 128.70 -6.62 24.30 -47.58 -77.16 -102.17 4.01 
DOCKED: USER  keepresnum = 1 
DOCKED: USER  
DOCKED: REMARK  13 active torsions:
DOCKED: REMARK  status: ('A' for Active; 'I' for Inactive)
DOCKED: REMARK    1  A    between atoms: O_3  and  C_38 
DOCKED: REMARK    2  A    between atoms: O_4  and  C_40 
DOCKED: REMARK    3  A    between atoms: O_7  and  C_46 
DOCKED: REMARK    4  A    between atoms: O_9  and  C_48 
DOCKED: REMARK    5  A    between atoms: C_15  and  C_20 
DOCKED: REMARK    6  A    between atoms: C_16  and  C_23 
DOCKED: REMARK    7  A    between atoms: C_20  and  C_38 
DOCKED: REMARK    8  A    between atoms: C_23  and  C_40 
DOCKED: REMARK    9  A    between atoms: C_32  and  C_41 
DOCKED: REMARK   10  A    between atoms: C_37  and  C_45 
DOCKED: REMARK   11  A    between atoms: C_41  and  C_44 
DOCKED: REMARK   12  A    between atoms: C_44  and  C_46 
DOCKED: REMARK   13  A    between atoms: C_47  and  C_48 
DOCKED: USER                              x       y       z     vdW  Elec       q    Type
DOCKED: USER                           _______ _______ _______ _____ _____    ______ ____
DOCKED: ROOT
DOCKED: ATOM      1  O   UNL d   1       2.402 -11.539 -15.406 -0.03 +0.03    -0.289 OA
DOCKED: ATOM      2  O   UNL d   1      -2.176  -5.589 -15.239 -0.13 +0.01    -0.289 OA
DOCKED: ATOM      3  N   UNL d   1      -0.537 -11.494 -13.603 -0.09 +0.09    -0.247 NA
DOCKED: ATOM      4  N   UNL d   1      -1.476  -8.690 -13.897 -0.12 +0.05    -0.247 NA
DOCKED: ATOM      5  N   UNL d   1      -3.343  -9.190 -11.768 -0.14 +0.08    -0.354 N 
DOCKED: ATOM      6  N   UNL d   1      -2.350 -12.091 -11.457 -0.10 +0.15    -0.354 N 
DOCKED: ATOM      7  C   UNL d   1       1.334 -13.062 -13.821 -0.10 -0.01    +0.084 A 
DOCKED: ATOM      8  C   UNL d   1      -0.752  -7.472 -15.888 -0.11 -0.01    +0.084 A 
DOCKED: ATOM      9  C   UNL d   1      -0.678  -8.732 -15.018 -0.15 -0.01    +0.058 A 
DOCKED: ATOM     10  C   UNL d   1      -0.014 -12.707 -13.187 -0.15 -0.02    +0.058 A 
DOCKED: ATOM     11  C   UNL d   1       1.472 -11.843 -14.683 -0.08 -0.03    +0.193 A 
DOCKED: ATOM     12  C   UNL d   1       0.263 -10.983 -14.481 -0.13 -0.02    +0.109 A 
DOCKED: ATOM     13  C   UNL d   1      -1.711  -6.693 -15.032 -0.17 -0.01    +0.193 A 
DOCKED: ATOM     14  C   UNL d   1       2.467 -13.073 -12.793 -0.14 -0.00    +0.026 C 
DOCKED: ATOM     15  C   UNL d   1       0.133  -9.762 -15.302 -0.14 -0.01    +0.055 C 
DOCKED: ATOM     16  C   UNL d   1      -1.416  -7.752 -17.239 -0.04 -0.00    +0.026 C 
DOCKED: ATOM     17  C   UNL d   1      -2.066  -7.539 -13.853 -0.27 -0.02    +0.109 A 
DOCKED: ATOM     18  C   UNL d   1      -0.654 -13.564 -12.369 -0.06 -0.02    +0.050 C 
DOCKED: ATOM     19  C   UNL d   1      -1.939 -13.358 -11.805 -0.10 -0.02    +0.045 A 
DOCKED: ATOM     20  C   UNL d   1      -3.482  -7.831 -11.889 -0.29 -0.01    +0.045 A 
DOCKED: ATOM     21  C   UNL d   1      -2.962  -7.015 -12.811 -0.28 -0.01    +0.057 C 
DOCKED: ATOM     22  C   UNL d   1      -4.664  -8.535 -10.065 -0.37 -0.00    -0.019 A 
DOCKED: ATOM     23  C   UNL d   1      -4.021  -9.705 -10.696 -0.29 -0.00    +0.045 A 
DOCKED: ATOM     24  C   UNL d   1      -4.342  -7.429 -10.777 -0.40 -0.00    -0.022 A 
DOCKED: ATOM     25  C   UNL d   1      -3.582 -12.133 -10.848 -0.15 -0.01    +0.049 A 
DOCKED: ATOM     26  C   UNL d   1      -2.945 -14.241 -11.446 -0.06 +0.00    -0.018 A 
DOCKED: ATOM     27  C   UNL d   1      -3.989 -13.460 -10.860 -0.06 -0.00    +0.003 A 
DOCKED: ATOM     28  C   UNL d   1      -4.145 -10.968 -10.259 -0.26 -0.00    +0.052 C 
DOCKED: ATOM     29  C   UNL d   1      -4.757  -6.016 -10.544 -0.33 +0.00    +0.046 C 
DOCKED: ATOM     30  C   UNL d   1      -2.942 -15.720 -11.637 -0.02 -0.01    +0.046 C 
DOCKED: ATOM     31  H   UNL d   1      -2.849  -9.732 -12.468 -0.12 -0.06    +0.166 HD
DOCKED: ATOM     32  H   UNL d   1      -1.788 -11.261 -11.601 -0.52 -0.13    +0.166 HD
DOCKED: ENDROOT
DOCKED: BRANCH   7  33
DOCKED: ATOM     33  C   UNL d   1       1.342 -14.332 -14.680 -0.02 -0.02    +0.141 C 
DOCKED: BRANCH  33  34
DOCKED: ATOM     34  C   UNL d   1       0.615 -14.152 -15.986 +0.00 -0.03    +0.306 C 
DOCKED: ATOM     35  O   UNL d   1      -0.592 -14.189 -16.150 -0.00 +0.02    -0.251 OA
DOCKED: BRANCH  34  36
DOCKED: ATOM     36  O   UNL d   1       1.450 -13.932 -17.017 +0.00 +0.04    -0.481 OA
DOCKED: ATOM     37  H   UNL d   1       2.075 -13.251 -16.688 +0.01 -0.03    +0.295 HD
DOCKED: ENDBRANCH  34  36
DOCKED: ENDBRANCH  33  34
DOCKED: ENDBRANCH   7  33
DOCKED: BRANCH  27  38
DOCKED: ATOM     38  C   UNL d   1      -5.215 -13.982 -10.336 -0.04 -0.00    +0.017 C 
DOCKED: ATOM     39  C   UNL d   1      -5.584 -13.946  -9.047 -0.08 -0.02    +0.092 C 
DOCKED: BRANCH  39  40
DOCKED: ATOM     40  C   UNL d   1      -6.878 -14.501  -8.641 -0.04 -0.11    +0.330 C 
DOCKED: ATOM     41  O   UNL d   1      -7.149 -15.665  -8.415 -0.03 +0.06    -0.246 OA
DOCKED: BRANCH  40  42
DOCKED: ATOM     42  O   UNL d   1      -7.787 -13.520  -8.532 -0.06 +0.25    -0.477 OA
DOCKED: ATOM     43  H   UNL d   1      -7.247 -12.707  -8.453 +0.08 -0.16    +0.295 HD
DOCKED: ENDBRANCH  40  42
DOCKED: ENDBRANCH  39  40
DOCKED: ENDBRANCH  27  38
DOCKED: BRANCH   8  44
DOCKED: ATOM     44  C   UNL d   1       0.567  -6.713 -16.064 -0.12 -0.01    +0.141 C 
DOCKED: BRANCH  44  45
DOCKED: ATOM     45  C   UNL d   1       0.715  -5.550 -15.120 -0.19 -0.03    +0.306 C 
DOCKED: ATOM     46  O   UNL d   1       1.128  -5.593 -13.974 -0.34 +0.04    -0.251 OA
DOCKED: BRANCH  45  47
DOCKED: ATOM     47  O   UNL d   1       0.307  -4.390 -15.664 -0.05 +0.04    -0.481 OA
DOCKED: ATOM     48  H   UNL d   1      -0.670  -4.467 -15.709 +0.08 -0.02    +0.295 HD
DOCKED: ENDBRANCH  45  47
DOCKED: ENDBRANCH  44  45
DOCKED: ENDBRANCH   8  44
DOCKED: BRANCH  22  49
DOCKED: ATOM     49  C   UNL d   1      -5.512  -8.603  -8.829 -0.42 +0.02    +0.048 C 
DOCKED: BRANCH  49  50
DOCKED: ATOM     50  C   UNL d   1      -6.930  -9.083  -9.139 -0.12 +0.10    +0.125 C 
DOCKED: BRANCH  50  51
DOCKED: ATOM     51  C   UNL d   1      -7.113 -10.516  -8.728 -0.15 +0.07    +0.305 C 
DOCKED: ATOM     52  O   UNL d   1      -6.248 -11.316  -8.417 -0.20 +0.04    -0.251 OA
DOCKED: BRANCH  51  53
DOCKED: ATOM     53  O   UNL d   1      -8.410 -10.883  -8.741 -0.68 -0.22    -0.481 OA
DOCKED: ATOM     54  H   UNL d   1      -8.491 -11.501  -7.985 -0.19 -0.27    +0.295 HD
DOCKED: ENDBRANCH  51  53
DOCKED: ENDBRANCH  50  51
DOCKED: ENDBRANCH  49  50
DOCKED: ENDBRANCH  22  49
DOCKED: TORSDOF 13
DOCKED: TER
DOCKED: ENDMDL
________________________________________________________________________________


	BEGINNING GENETIC ALGORITHM DOCKING 7 of 100
Run: 7 Seed: 558123614 629008416 [ Run 7 of 100 GA/GALS ]
Beginning LAMARCKIAN GENETIC ALGORITHM (LGA), with a maximum of 25000000 energy evaluations.

Final-Value: -11.907


	FINAL GENETIC ALGORITHM DOCKED STATE
	_______________________________________________


Detailed state:  trans -17.187 13.073 0.782 quatxyzw 0.446872 -0.411450 0.671913 0.423731 center 0.153 0.018 -0.028 ntor 13 161.4674 118.3326 -95.6494 -76.5650 -143.8878 46.1261 177.8752 29.6742 14.8727 20.5361 -65.2042 -47.3598 -11.0758
State:	-17.187  13.073   0.782   0.493 -0.454  0.742 129.859    161.47  118.33  -95.65  -76.56 -143.89   46.13  177.88   29.67   14.87   20.54  -65.20  -47.36  -11.08

DOCKED: MODEL        7
DOCKED: USER    Run = 7
DOCKED: USER    DPF = D:/Protein_go_brrr/autodock/final/AncMH_nat/heme/dock.dpf
DOCKED: USER  
DOCKED: USER    Estimated Free Energy of Binding    =   -3.65 kcal/mol  [=(1)+(2)+(3)-(4)]
DOCKED: USER    Estimated Inhibition Constant, Ki   =    2.13 mM (millimolar)  [Temperature = 298.15 K]
DOCKED: USER    
DOCKED: USER    (1) Final Intermolecular Energy     =   -7.52 kcal/mol
DOCKED: USER        vdW + Hbond + desolv Energy     =   -7.07 kcal/mol
DOCKED: USER        Electrostatic Energy            =   -0.45 kcal/mol
DOCKED: USER    (2) Final Total Internal Energy     =   -4.38 kcal/mol
DOCKED: USER    (3) Torsional Free Energy           =   +3.88 kcal/mol
DOCKED: USER    (4) Unbound System's Energy  [=(2)] =   -4.38 kcal/mol
DOCKED: USER    
DOCKED: USER    
DOCKED: USER    NEWDPF move heme_opt.pdbqt
DOCKED: USER    NEWDPF about 0.153000 0.018000 -0.028000
DOCKED: USER    NEWDPF tran0 -17.187072 13.072867 0.781900
DOCKED: USER    NEWDPF quaternion0 0.446872 -0.411450 0.671913 0.423731
DOCKED: USER    NEWDPF axisangle0 0.493351 -0.454245 0.741799 129.859319
DOCKED: USER    NEWDPF quat0 0.493351 -0.454245 0.741799 129.859319
DOCKED: USER    NEWDPF dihe0 161.47 118.33 -95.65 -76.56 -143.89 46.13 177.88 29.67 14.87 20.54 -65.20 -47.36 -11.08 
DOCKED: USER  keepresnum = 1 
DOCKED: USER  
DOCKED: REMARK  13 active torsions:
DOCKED: REMARK  status: ('A' for Active; 'I' for Inactive)
DOCKED: REMARK    1  A    between atoms: O_3  and  C_38 
DOCKED: REMARK    2  A    between atoms: O_4  and  C_40 
DOCKED: REMARK    3  A    between atoms: O_7  and  C_46 
DOCKED: REMARK    4  A    between atoms: O_9  and  C_48 
DOCKED: REMARK    5  A    between atoms: C_15  and  C_20 
DOCKED: REMARK    6  A    between atoms: C_16  and  C_23 
DOCKED: REMARK    7  A    between atoms: C_20  and  C_38 
DOCKED: REMARK    8  A    between atoms: C_23  and  C_40 
DOCKED: REMARK    9  A    between atoms: C_32  and  C_41 
DOCKED: REMARK   10  A    between atoms: C_37  and  C_45 
DOCKED: REMARK   11  A    between atoms: C_41  and  C_44 
DOCKED: REMARK   12  A    between atoms: C_44  and  C_46 
DOCKED: REMARK   13  A    between atoms: C_47  and  C_48 
DOCKED: USER                              x       y       z     vdW  Elec       q    Type
DOCKED: USER                           _______ _______ _______ _____ _____    ______ ____
DOCKED: ROOT
DOCKED: ATOM      1  O   UNL d   1     -14.876  17.708  -2.035 -0.39 -0.22    -0.289 OA
DOCKED: ATOM      2  O   UNL d   1     -19.022  17.303   4.214 -0.00 +0.03    -0.289 OA
DOCKED: ATOM      3  N   UNL d   1     -16.137  14.737  -0.819 -0.11 +0.18    -0.247 NA
DOCKED: ATOM      4  N   UNL d   1     -17.345  15.520   1.780 -0.07 +0.22    -0.247 NA
DOCKED: ATOM      5  N   UNL d   1     -17.505  12.727   2.443 +0.01 +0.30    -0.354 N 
DOCKED: ATOM      6  N   UNL d   1     -16.233  11.924  -0.248 -0.09 +0.26    -0.354 N 
DOCKED: ATOM      7  C   UNL d   1     -14.622  15.354  -2.644 -0.19 +0.00    +0.084 A 
DOCKED: ATOM      8  C   UNL d   1     -18.086  17.837   2.016 -0.02 -0.01    +0.084 A 
DOCKED: ATOM      9  C   UNL d   1     -17.379  16.761   1.185 -0.09 -0.02    +0.058 A 
DOCKED: ATOM     10  C   UNL d   1     -15.350  14.262  -1.854 -0.23 -0.02    +0.058 A 
DOCKED: ATOM     11  C   UNL d   1     -15.152  16.532  -1.883 -0.12 +0.04    +0.193 A 
DOCKED: ATOM     12  C   UNL d   1     -16.079  16.029  -0.820 -0.15 -0.03    +0.109 A 
DOCKED: ATOM     13  C   UNL d   1     -18.415  16.986   3.209 -0.02 -0.04    +0.193 A 
DOCKED: ATOM     14  C   UNL d   1     -13.104  15.285  -2.455 -0.34 +0.00    +0.026 C 
DOCKED: ATOM     15  C   UNL d   1     -16.798  17.022   0.003 -0.13 -0.01    +0.055 C 
DOCKED: ATOM     16  C   UNL d   1     -19.393  18.292   1.360 -0.00 -0.00    +0.026 C 
DOCKED: ATOM     17  C   UNL d   1     -17.906  15.606   2.944 -0.08 -0.06    +0.109 A 
DOCKED: ATOM     18  C   UNL d   1     -15.282  12.968  -2.218 -0.15 -0.01    +0.050 C 
DOCKED: ATOM     19  C   UNL d   1     -15.985  11.902  -1.602 -0.04 -0.01    +0.045 A 
DOCKED: ATOM     20  C   UNL d   1     -17.826  13.276   3.657 -0.17 -0.02    +0.045 A 
DOCKED: ATOM     21  C   UNL d   1     -18.048  14.558   3.965 -0.14 -0.02    +0.057 C 
DOCKED: ATOM     22  C   UNL d   1     -17.602  11.016   3.905 -0.30 +0.00    -0.019 A 
DOCKED: ATOM     23  C   UNL d   1     -17.349  11.368   2.493 -0.22 -0.02    +0.045 A 
DOCKED: ATOM     24  C   UNL d   1     -17.885  12.150   4.588 -0.25 +0.00    -0.022 A 
DOCKED: ATOM     25  C   UNL d   1     -16.844  10.758   0.151 -0.21 -0.01    +0.049 A 
DOCKED: ATOM     26  C   UNL d   1     -16.481  10.707  -2.102 -0.12 +0.00    -0.018 A 
DOCKED: ATOM     27  C   UNL d   1     -17.039   9.998  -0.994 -0.14 -0.00    +0.003 A 
DOCKED: ATOM     28  C   UNL d   1     -17.058  10.481   1.529 -0.29 -0.01    +0.052 C 
DOCKED: ATOM     29  C   UNL d   1     -18.219  12.309   6.033 +0.00 +0.00    +0.046 C 
DOCKED: ATOM     30  C   UNL d   1     -16.441  10.252  -3.521 -0.09 +0.00    +0.046 C 
DOCKED: ATOM     31  H   UNL d   1     -17.475  13.293   1.601 -0.22 -0.20    +0.166 HD
DOCKED: ATOM     32  H   UNL d   1     -15.957  12.686   0.360 -0.46 -0.35    +0.166 HD
DOCKED: ENDROOT
DOCKED: BRANCH   7  33
DOCKED: ATOM     33  C   UNL d   1     -15.000  15.457  -4.125 -0.06 +0.01    +0.141 C 
DOCKED: BRANCH  33  34
DOCKED: ATOM     34  C   UNL d   1     -16.448  15.811  -4.330 +0.00 +0.01    +0.306 C 
DOCKED: ATOM     35  O   UNL d   1     -17.375  15.024  -4.430 -0.00 +0.00    -0.251 OA
DOCKED: BRANCH  34  36
DOCKED: ATOM     36  O   UNL d   1     -16.653  17.138  -4.396 +0.01 -0.04    -0.481 OA
DOCKED: ATOM     37  H   UNL d   1     -15.868  17.531  -3.957 +0.03 +0.05    +0.295 HD
DOCKED: ENDBRANCH  34  36
DOCKED: ENDBRANCH  33  34
DOCKED: ENDBRANCH   7  33
DOCKED: BRANCH  27  38
DOCKED: ATOM     38  C   UNL d   1     -17.647   8.703  -1.065 -0.09 +0.00    +0.017 C 
DOCKED: ATOM     39  C   UNL d   1     -17.987   7.948  -0.009 -0.10 +0.03    +0.092 C 
DOCKED: BRANCH  39  40
DOCKED: ATOM     40  C   UNL d   1     -18.621   6.644  -0.218 -0.03 +0.16    +0.330 C 
DOCKED: ATOM     41  O   UNL d   1     -18.309   5.786  -1.022 -0.04 -0.14    -0.246 OA
DOCKED: BRANCH  40  42
DOCKED: ATOM     42  O   UNL d   1     -19.644   6.486   0.635 +0.00 -0.26    -0.477 OA
DOCKED: ATOM     43  H   UNL d   1     -19.222   6.523   1.518 +0.07 +0.20    +0.295 HD
DOCKED: ENDBRANCH  40  42
DOCKED: ENDBRANCH  39  40
DOCKED: ENDBRANCH  27  38
DOCKED: BRANCH   8  44
DOCKED: ATOM     44  C   UNL d   1     -17.221  19.036   2.418 -0.03 +0.00    +0.141 C 
DOCKED: BRANCH  44  45
DOCKED: ATOM     45  C   UNL d   1     -15.762  18.693   2.565 -0.08 +0.04    +0.306 C 
DOCKED: ATOM     46  O   UNL d   1     -14.819  19.324   2.119 -0.61 -0.25    -0.251 OA
DOCKED: BRANCH  45  47
DOCKED: ATOM     47  O   UNL d   1     -15.568  17.551   3.248 -0.05 +0.28    -0.481 OA
DOCKED: ATOM     48  H   UNL d   1     -15.672  16.841   2.578 -0.27 -0.40    +0.295 HD
DOCKED: ENDBRANCH  45  47
DOCKED: ENDBRANCH  44  45
DOCKED: ENDBRANCH   8  44
DOCKED: BRANCH  22  49
DOCKED: ATOM     49  C   UNL d   1     -17.529   9.621   4.451 -0.43 +0.01    +0.048 C 
DOCKED: BRANCH  49  50
DOCKED: ATOM     50  C   UNL d   1     -18.900   8.945   4.470 -0.22 +0.03    +0.125 C 
DOCKED: BRANCH  50  51
DOCKED: ATOM     51  C   UNL d   1     -18.927   7.761   3.545 -0.14 +0.14    +0.305 C 
DOCKED: ATOM     52  O   UNL d   1     -17.980   7.100   3.156 -0.25 -0.15    -0.251 OA
DOCKED: BRANCH  51  53
DOCKED: ATOM     53  O   UNL d   1     -20.178   7.468   3.137 -0.02 -0.24    -0.481 OA
DOCKED: ATOM     54  H   UNL d   1     -20.218   7.818   2.223 +0.06 +0.12    +0.295 HD
DOCKED: ENDBRANCH  51  53
DOCKED: ENDBRANCH  50  51
DOCKED: ENDBRANCH  49  50
DOCKED: ENDBRANCH  22  49
DOCKED: TORSDOF 13
DOCKED: TER
DOCKED: ENDMDL
________________________________________________________________________________


	BEGINNING GENETIC ALGORITHM DOCKING 8 of 100
Run: 8 Seed: 627166306 820367196 [ Run 8 of 100 GA/GALS ]
Beginning LAMARCKIAN GENETIC ALGORITHM (LGA), with a maximum of 25000000 energy evaluations.

Final-Value: -11.333


	FINAL GENETIC ALGORITHM DOCKED STATE
	_______________________________________________


Detailed state:  trans -14.203 10.021 -3.422 quatxyzw -0.199743 -0.895813 0.158913 -0.363825 center 0.153 0.018 -0.028 ntor 13 180.0000 -113.2731 -155.8880 -57.5227 -134.4833 -96.4926 69.9259 31.5722 -118.0379 -143.6885 -84.4255 47.9519 0.5384
State:	-14.203  10.021  -3.422  -0.214 -0.962  0.171 -137.329    180.00 -113.27 -155.89  -57.52 -134.48  -96.49   69.93   31.57 -118.04 -143.69  -84.43   47.95    0.54

DOCKED: MODEL        8
DOCKED: USER    Run = 8
DOCKED: USER    DPF = D:/Protein_go_brrr/autodock/final/AncMH_nat/heme/dock.dpf
DOCKED: USER  
DOCKED: USER    Estimated Free Energy of Binding    =   -5.15 kcal/mol  [=(1)+(2)+(3)-(4)]
DOCKED: USER    Estimated Inhibition Constant, Ki   =  168.96 uM (micromolar)  [Temperature = 298.15 K]
DOCKED: USER    
DOCKED: USER    (1) Final Intermolecular Energy     =   -9.02 kcal/mol
DOCKED: USER        vdW + Hbond + desolv Energy     =   -7.81 kcal/mol
DOCKED: USER        Electrostatic Energy            =   -1.22 kcal/mol
DOCKED: USER    (2) Final Total Internal Energy     =   -2.31 kcal/mol
DOCKED: USER    (3) Torsional Free Energy           =   +3.88 kcal/mol
DOCKED: USER    (4) Unbound System's Energy  [=(2)] =   -2.31 kcal/mol
DOCKED: USER    
DOCKED: USER    
DOCKED: USER    NEWDPF move heme_opt.pdbqt
DOCKED: USER    NEWDPF about 0.153000 0.018000 -0.028000
DOCKED: USER    NEWDPF tran0 -14.203338 10.020549 -3.421587
DOCKED: USER    NEWDPF quaternion0 -0.199743 -0.895813 0.158913 -0.363825
DOCKED: USER    NEWDPF axisangle0 -0.214439 -0.961722 0.170605 -137.329392
DOCKED: USER    NEWDPF quat0 -0.214439 -0.961722 0.170605 -137.329392
DOCKED: USER    NEWDPF dihe0 180.00 -113.27 -155.89 -57.52 -134.48 -96.49 69.93 31.57 -118.04 -143.69 -84.43 47.95 0.54 
DOCKED: USER  keepresnum = 1 
DOCKED: USER  
DOCKED: REMARK  13 active torsions:
DOCKED: REMARK  status: ('A' for Active; 'I' for Inactive)
DOCKED: REMARK    1  A    between atoms: O_3  and  C_38 
DOCKED: REMARK    2  A    between atoms: O_4  and  C_40 
DOCKED: REMARK    3  A    between atoms: O_7  and  C_46 
DOCKED: REMARK    4  A    between atoms: O_9  and  C_48 
DOCKED: REMARK    5  A    between atoms: C_15  and  C_20 
DOCKED: REMARK    6  A    between atoms: C_16  and  C_23 
DOCKED: REMARK    7  A    between atoms: C_20  and  C_38 
DOCKED: REMARK    8  A    between atoms: C_23  and  C_40 
DOCKED: REMARK    9  A    between atoms: C_32  and  C_41 
DOCKED: REMARK   10  A    between atoms: C_37  and  C_45 
DOCKED: REMARK   11  A    between atoms: C_41  and  C_44 
DOCKED: REMARK   12  A    between atoms: C_44  and  C_46 
DOCKED: REMARK   13  A    between atoms: C_47  and  C_48 
DOCKED: USER                              x       y       z     vdW  Elec       q    Type
DOCKED: USER                           _______ _______ _______ _____ _____    ______ ____
DOCKED: ROOT
DOCKED: ATOM      1  O   UNL d   1     -10.580   8.742  -7.893 -0.12 +0.08    -0.289 OA
DOCKED: ATOM      2  O   UNL d   1     -12.506   4.768  -1.820 -0.13 -0.14    -0.289 OA
DOCKED: ATOM      3  N   UNL d   1     -12.665   9.975  -5.438 -0.10 +0.02    -0.247 NA
DOCKED: ATOM      4  N   UNL d   1     -13.077   7.635  -3.653 -0.12 -0.01    -0.247 NA
DOCKED: ATOM      5  N   UNL d   1     -15.244   9.071  -2.424 +0.13 -0.04    -0.354 N 
DOCKED: ATOM      6  N   UNL d   1     -14.823  11.486  -4.293 -0.04 +0.00    -0.354 N 
DOCKED: ATOM      7  C   UNL d   1     -11.915  10.773  -7.630 -0.14 -0.01    +0.084 A 
DOCKED: ATOM      8  C   UNL d   1     -11.321   5.936  -3.615 -0.19 -0.01    +0.084 A 
DOCKED: ATOM      9  C   UNL d   1     -11.890   7.224  -4.219 -0.21 -0.01    +0.058 A 
DOCKED: ATOM     10  C   UNL d   1     -12.754  10.996  -6.369 -0.17 -0.01    +0.058 A 
DOCKED: ATOM     11  C   UNL d   1     -11.321   9.454  -7.239 -0.14 -0.04    +0.193 A 
DOCKED: ATOM     12  C   UNL d   1     -11.832   9.090  -5.880 -0.20 -0.02    +0.109 A 
DOCKED: ATOM     13  C   UNL d   1     -12.423   5.672  -2.628 -0.13 +0.04    +0.193 A 
DOCKED: ATOM     14  C   UNL d   1     -12.786  10.575  -8.873 -0.06 -0.00    +0.026 C 
DOCKED: ATOM     15  C   UNL d   1     -11.308   7.865  -5.244 -0.28 -0.01    +0.055 C 
DOCKED: ATOM     16  C   UNL d   1     -10.022   6.195  -2.846 -0.44 -0.00    +0.026 C 
DOCKED: ATOM     17  C   UNL d   1     -13.428   6.770  -2.757 -0.18 +0.02    +0.109 A 
DOCKED: ATOM     18  C   UNL d   1     -13.438  12.139  -6.173 -0.17 -0.00    +0.050 C 
DOCKED: ATOM     19  C   UNL d   1     -14.172  12.468  -5.004 -0.15 -0.00    +0.045 A 
DOCKED: ATOM     20  C   UNL d   1     -15.429   7.836  -1.860 -0.18 +0.01    +0.045 A 
DOCKED: ATOM     21  C   UNL d   1     -14.649   6.753  -1.938 -0.22 +0.02    +0.057 C 
DOCKED: ATOM     22  C   UNL d   1     -17.182   9.182  -1.282 -0.11 -0.00    -0.019 A 
DOCKED: ATOM     23  C   UNL d   1     -16.251   9.951  -2.132 -0.08 +0.00    +0.045 A 
DOCKED: ATOM     24  C   UNL d   1     -16.689   7.931  -1.124 -0.14 -0.01    -0.022 A 
DOCKED: ATOM     25  C   UNL d   1     -15.542  12.035  -3.257 -0.03 -0.00    +0.049 A 
DOCKED: ATOM     26  C   UNL d   1     -14.444  13.682  -4.393 -0.16 +0.00    -0.018 A 
DOCKED: ATOM     27  C   UNL d   1     -15.294  13.400  -3.279 -0.17 -0.00    +0.003 A 
DOCKED: ATOM     28  C   UNL d   1     -16.422  11.237  -2.476 -0.12 -0.00    +0.052 C 
DOCKED: ATOM     29  C   UNL d   1     -17.260   6.795  -0.344 -0.16 +0.02    +0.046 C 
DOCKED: ATOM     30  C   UNL d   1     -13.945  15.023  -4.814 -0.13 +0.00    +0.046 C 
DOCKED: ATOM     31  H   UNL d   1     -14.395   9.295  -2.932 +0.09 +0.02    +0.166 HD
DOCKED: ATOM     32  H   UNL d   1     -14.797  10.504  -4.541 +0.03 +0.00    +0.166 HD
DOCKED: ENDROOT
DOCKED: BRANCH   7  33
DOCKED: ATOM     33  C   UNL d   1     -10.811  11.808  -7.876 -0.19 -0.03    +0.141 C 
DOCKED: BRANCH  33  34
DOCKED: ATOM     34  C   UNL d   1     -11.357  13.155  -8.267 -0.11 -0.03    +0.306 C 
DOCKED: ATOM     35  O   UNL d   1     -11.739  13.482  -9.378 -0.06 +0.01    -0.251 OA
DOCKED: BRANCH  34  36
DOCKED: ATOM     36  O   UNL d   1     -11.395  14.018  -7.237 -0.08 +0.03    -0.481 OA
DOCKED: ATOM     37  H   UNL d   1     -11.079  13.498  -6.468 -0.36 -0.11    +0.295 HD
DOCKED: ENDBRANCH  34  36
DOCKED: ENDBRANCH  33  34
DOCKED: ENDBRANCH   7  33
DOCKED: BRANCH  27  38
DOCKED: ATOM     38  C   UNL d   1     -15.827  14.379  -2.380 -0.17 -0.00    +0.017 C 
DOCKED: ATOM     39  C   UNL d   1     -15.287  14.724  -1.201 -0.27 -0.05    +0.092 C 
DOCKED: BRANCH  39  40
DOCKED: ATOM     40  C   UNL d   1     -15.925  15.756  -0.380 -0.10 -0.21    +0.330 C 
DOCKED: ATOM     41  O   UNL d   1     -15.625  16.932  -0.299 -0.17 -0.00    -0.246 OA
DOCKED: BRANCH  40  42
DOCKED: ATOM     42  O   UNL d   1     -16.949  15.230   0.311 -0.06 +0.43    -0.477 OA
DOCKED: ATOM     43  H   UNL d   1     -16.517  14.612   0.936 -0.43 -0.64    +0.295 HD
DOCKED: ENDBRANCH  40  42
DOCKED: ENDBRANCH  39  40
DOCKED: ENDBRANCH  27  38
DOCKED: BRANCH   8  44
DOCKED: ATOM     44  C   UNL d   1     -11.164   4.763  -4.589 -0.15 -0.05    +0.141 C 
DOCKED: BRANCH  44  45
DOCKED: ATOM     45  C   UNL d   1     -10.319   3.644  -4.040 -0.15 -0.10    +0.306 C 
DOCKED: ATOM     46  O   UNL d   1     -10.146   3.374  -2.865 -0.17 -0.00    -0.251 OA
DOCKED: BRANCH  45  47
DOCKED: ATOM     47  O   UNL d   1      -9.711   2.936  -5.009 -0.14 +0.41    -0.481 OA
DOCKED: ATOM     48  H   UNL d   1      -9.671   3.548  -5.775 -0.35 -0.66    +0.295 HD
DOCKED: ENDBRANCH  45  47
DOCKED: ENDBRANCH  44  45
DOCKED: ENDBRANCH   8  44
DOCKED: BRANCH  22  49
DOCKED: ATOM     49  C   UNL d   1     -18.461   9.731  -0.722 -0.06 +0.00    +0.048 C 
DOCKED: BRANCH  49  50
DOCKED: ATOM     50  C   UNL d   1     -18.225  10.527   0.561 -0.08 -0.01    +0.125 C 
DOCKED: BRANCH  50  51
DOCKED: ATOM     51  C   UNL d   1     -18.126  11.997   0.270 -0.05 -0.10    +0.305 C 
DOCKED: ATOM     52  O   UNL d   1     -18.608  12.603  -0.671 -0.03 +0.05    -0.251 OA
DOCKED: BRANCH  51  53
DOCKED: ATOM     53  O   UNL d   1     -17.395  12.647   1.198 +0.02 +0.48    -0.481 OA
DOCKED: ATOM     54  H   UNL d   1     -16.674  13.065   0.683 -0.44 -0.56    +0.295 HD
DOCKED: ENDBRANCH  51  53
DOCKED: ENDBRANCH  50  51
DOCKED: ENDBRANCH  49  50
DOCKED: ENDBRANCH  22  49
DOCKED: TORSDOF 13
DOCKED: TER
DOCKED: ENDMDL
________________________________________________________________________________


	BEGINNING GENETIC ALGORITHM DOCKING 9 of 100
Run: 9 Seed: 484073811 1661920219 [ Run 9 of 100 GA/GALS ]
Beginning LAMARCKIAN GENETIC ALGORITHM (LGA), with a maximum of 25000000 energy evaluations.

Final-Value: -11.638


	FINAL GENETIC ALGORITHM DOCKED STATE
	_______________________________________________


Detailed state:  trans -17.196 12.988 0.797 quatxyzw 0.445031 -0.415537 0.668717 0.426725 center 0.153 0.018 -0.028 ntor 13 71.4259 131.2912 -95.0407 -92.3335 180.0000 13.6791 177.8350 19.4750 101.9364 20.3572 -56.1403 -34.1319 -8.7084
State:	-17.196  12.988   0.797   0.492 -0.459  0.739 129.480     71.43  131.29  -95.04  -92.33  180.00   13.68  177.84   19.47  101.94   20.36  -56.14  -34.13   -8.71

DOCKED: MODEL        9
DOCKED: USER    Run = 9
DOCKED: USER    DPF = D:/Protein_go_brrr/autodock/final/AncMH_nat/heme/dock.dpf
DOCKED: USER  
DOCKED: USER    Estimated Free Energy of Binding    =   -3.69 kcal/mol  [=(1)+(2)+(3)-(4)]
DOCKED: USER    Estimated Inhibition Constant, Ki   =    1.98 mM (millimolar)  [Temperature = 298.15 K]
DOCKED: USER    
DOCKED: USER    (1) Final Intermolecular Energy     =   -7.57 kcal/mol
DOCKED: USER        vdW + Hbond + desolv Energy     =   -7.08 kcal/mol
DOCKED: USER        Electrostatic Energy            =   -0.49 kcal/mol
DOCKED: USER    (2) Final Total Internal Energy     =   -4.07 kcal/mol
DOCKED: USER    (3) Torsional Free Energy           =   +3.88 kcal/mol
DOCKED: USER    (4) Unbound System's Energy  [=(2)] =   -4.07 kcal/mol
DOCKED: USER    
DOCKED: USER    
DOCKED: USER    NEWDPF move heme_opt.pdbqt
DOCKED: USER    NEWDPF about 0.153000 0.018000 -0.028000
DOCKED: USER    NEWDPF tran0 -17.196028 12.987789 0.797410
DOCKED: USER    NEWDPF quaternion0 0.445031 -0.415537 0.668717 0.426725
DOCKED: USER    NEWDPF axisangle0 0.492083 -0.459471 0.739419 129.480250
DOCKED: USER    NEWDPF quat0 0.492083 -0.459471 0.739419 129.480250
DOCKED: USER    NEWDPF dihe0 71.43 131.29 -95.04 -92.33 180.00 13.68 177.84 19.47 101.94 20.36 -56.14 -34.13 -8.71 
DOCKED: USER  keepresnum = 1 
DOCKED: USER  
DOCKED: REMARK  13 active torsions:
DOCKED: REMARK  status: ('A' for Active; 'I' for Inactive)
DOCKED: REMARK    1  A    between atoms: O_3  and  C_38 
DOCKED: REMARK    2  A    between atoms: O_4  and  C_40 
DOCKED: REMARK    3  A    between atoms: O_7  and  C_46 
DOCKED: REMARK    4  A    between atoms: O_9  and  C_48 
DOCKED: REMARK    5  A    between atoms: C_15  and  C_20 
DOCKED: REMARK    6  A    between atoms: C_16  and  C_23 
DOCKED: REMARK    7  A    between atoms: C_20  and  C_38 
DOCKED: REMARK    8  A    between atoms: C_23  and  C_40 
DOCKED: REMARK    9  A    between atoms: C_32  and  C_41 
DOCKED: REMARK   10  A    between atoms: C_37  and  C_45 
DOCKED: REMARK   11  A    between atoms: C_41  and  C_44 
DOCKED: REMARK   12  A    between atoms: C_44  and  C_46 
DOCKED: REMARK   13  A    between atoms: C_47  and  C_48 
DOCKED: USER                              x       y       z     vdW  Elec       q    Type
DOCKED: USER                           _______ _______ _______ _____ _____    ______ ____
DOCKED: ROOT
DOCKED: ATOM      1  O   UNL d   1     -14.896  17.661  -1.965 -0.36 -0.22    -0.289 OA
DOCKED: ATOM      2  O   UNL d   1     -19.032  17.172   4.284 -0.00 +0.04    -0.289 OA
DOCKED: ATOM      3  N   UNL d   1     -16.151  14.673  -0.784 -0.11 +0.19    -0.247 NA
DOCKED: ATOM      4  N   UNL d   1     -17.357  15.422   1.826 -0.06 +0.23    -0.247 NA
DOCKED: ATOM      5  N   UNL d   1     -17.511  12.621   2.454 -0.01 +0.29    -0.354 N 
DOCKED: ATOM      6  N   UNL d   1     -16.242  11.853  -0.248 -0.11 +0.24    -0.354 N 
DOCKED: ATOM      7  C   UNL d   1     -14.639  15.315  -2.603 -0.19 -0.00    +0.084 A 
DOCKED: ATOM      8  C   UNL d   1     -18.101  17.735   2.091 -0.03 -0.01    +0.084 A 
DOCKED: ATOM      9  C   UNL d   1     -17.393  16.671   1.246 -0.09 -0.02    +0.058 A 
DOCKED: ATOM     10  C   UNL d   1     -15.364  14.212  -1.826 -0.23 -0.02    +0.058 A 
DOCKED: ATOM     11  C   UNL d   1     -15.170  16.483  -1.827 -0.13 +0.03    +0.193 A 
DOCKED: ATOM     12  C   UNL d   1     -16.095  15.965  -0.769 -0.15 -0.04    +0.109 A 
DOCKED: ATOM     13  C   UNL d   1     -18.427  16.868   3.275 -0.02 -0.04    +0.193 A 
DOCKED: ATOM     14  C   UNL d   1     -13.121  15.246  -2.417 -0.34 +0.00    +0.026 C 
DOCKED: ATOM     15  C   UNL d   1     -16.814  16.947   0.067 -0.13 -0.01    +0.055 C 
DOCKED: ATOM     16  C   UNL d   1     -19.410  18.196   1.443 -0.00 -0.00    +0.026 C 
DOCKED: ATOM     17  C   UNL d   1     -17.916  15.493   2.992 -0.09 -0.06    +0.109 A 
DOCKED: ATOM     18  C   UNL d   1     -15.295  12.923  -2.206 -0.14 -0.01    +0.050 C 
DOCKED: ATOM     19  C   UNL d   1     -15.996  11.848  -1.602 -0.04 -0.01    +0.045 A 
DOCKED: ATOM     20  C   UNL d   1     -17.831  13.154   3.676 -0.18 -0.02    +0.045 A 
DOCKED: ATOM     21  C   UNL d   1     -18.055  14.432   4.000 -0.15 -0.02    +0.057 C 
DOCKED: ATOM     22  C   UNL d   1     -17.603  10.892   3.895 -0.31 +0.00    -0.019 A 
DOCKED: ATOM     23  C   UNL d   1     -17.353  11.261   2.487 -0.23 -0.02    +0.045 A 
DOCKED: ATOM     24  C   UNL d   1     -17.887  12.017   4.593 -0.25 +0.00    -0.022 A 
DOCKED: ATOM     25  C   UNL d   1     -16.850  10.681   0.137 -0.21 -0.01    +0.049 A 
DOCKED: ATOM     26  C   UNL d   1     -16.490  10.659  -2.116 -0.12 +0.00    -0.018 A 
DOCKED: ATOM     27  C   UNL d   1     -17.046   9.935  -1.016 -0.14 -0.00    +0.003 A 
DOCKED: ATOM     28  C   UNL d   1     -17.062  10.387   1.512 -0.29 -0.01    +0.052 C 
DOCKED: ATOM     29  C   UNL d   1     -18.220  12.158   6.040 +0.00 +0.00    +0.046 C 
DOCKED: ATOM     30  C   UNL d   1     -16.452  10.221  -3.541 -0.09 +0.00    +0.046 C 
DOCKED: ATOM     31  H   UNL d   1     -17.483  13.197   1.620 -0.21 -0.19    +0.166 HD
DOCKED: ATOM     32  H   UNL d   1     -15.966  12.608   0.369 -0.46 -0.33    +0.166 HD
DOCKED: ENDROOT
DOCKED: BRANCH   7  33
DOCKED: ATOM     33  C   UNL d   1     -15.019  15.436  -4.083 -0.07 +0.01    +0.141 C 
DOCKED: BRANCH  33  34
DOCKED: ATOM     34  C   UNL d   1     -14.904  16.845  -4.598 -0.01 +0.04    +0.306 C 
DOCKED: ATOM     35  O   UNL d   1     -15.780  17.481  -5.158 -0.00 -0.02    -0.251 OA
DOCKED: BRANCH  34  36
DOCKED: ATOM     36  O   UNL d   1     -13.690  17.379  -4.377 -0.00 -0.12    -0.481 OA
DOCKED: ATOM     37  H   UNL d   1     -13.846  18.076  -3.704 +0.05 +0.13    +0.295 HD
DOCKED: ENDBRANCH  34  36
DOCKED: ENDBRANCH  33  34
DOCKED: ENDBRANCH   7  33
DOCKED: BRANCH  27  38
DOCKED: ATOM     38  C   UNL d   1     -17.651   8.640  -1.103 -0.09 +0.00    +0.017 C 
DOCKED: ATOM     39  C   UNL d   1     -18.216   7.980  -0.080 -0.08 +0.03    +0.092 C 
DOCKED: BRANCH  39  40
DOCKED: ATOM     40  C   UNL d   1     -18.820   6.664  -0.306 -0.02 +0.15    +0.330 C 
DOCKED: ATOM     41  O   UNL d   1     -18.721   5.960  -1.292 -0.02 -0.12    -0.246 OA
DOCKED: BRANCH  40  42
DOCKED: ATOM     42  O   UNL d   1     -19.532   6.293   0.769 -0.01 -0.29    -0.477 OA
DOCKED: ATOM     43  H   UNL d   1     -18.923   6.450   1.520 +0.08 +0.20    +0.295 HD
DOCKED: ENDBRANCH  40  42
DOCKED: ENDBRANCH  39  40
DOCKED: ENDBRANCH  27  38
DOCKED: BRANCH   8  44
DOCKED: ATOM     44  C   UNL d   1     -17.237  18.930   2.507 -0.03 +0.00    +0.141 C 
DOCKED: BRANCH  44  45
DOCKED: ATOM     45  C   UNL d   1     -15.778  18.587   2.652 -0.08 +0.02    +0.306 C 
DOCKED: ATOM     46  O   UNL d   1     -14.835  19.222   2.213 -0.60 -0.22    -0.251 OA
DOCKED: BRANCH  45  47
DOCKED: ATOM     47  O   UNL d   1     -15.584  17.438   3.323 -0.04 +0.31    -0.481 OA
DOCKED: ATOM     48  H   UNL d   1     -15.677  16.735   2.645 -0.24 -0.44    +0.295 HD
DOCKED: ENDBRANCH  45  47
DOCKED: ENDBRANCH  44  45
DOCKED: ENDBRANCH   8  44
DOCKED: BRANCH  22  49
DOCKED: ATOM     49  C   UNL d   1     -17.528   9.490   4.424 -0.43 +0.01    +0.048 C 
DOCKED: BRANCH  49  50
DOCKED: ATOM     50  C   UNL d   1     -18.887   8.792   4.382 -0.22 +0.03    +0.125 C 
DOCKED: BRANCH  50  51
DOCKED: ATOM     51  C   UNL d   1     -18.804   7.501   3.618 -0.16 +0.16    +0.305 C 
DOCKED: ATOM     52  O   UNL d   1     -17.798   6.906   3.273 -0.28 -0.16    -0.251 OA
DOCKED: BRANCH  51  53
DOCKED: ATOM     53  O   UNL d   1     -20.024   7.018   3.309 -0.05 -0.31    -0.481 OA
DOCKED: ATOM     54  H   UNL d   1     -20.243   7.453   2.459 +0.06 +0.14    +0.295 HD
DOCKED: ENDBRANCH  51  53
DOCKED: ENDBRANCH  50  51
DOCKED: ENDBRANCH  49  50
DOCKED: ENDBRANCH  22  49
DOCKED: TORSDOF 13
DOCKED: TER
DOCKED: ENDMDL
________________________________________________________________________________


	BEGINNING GENETIC ALGORITHM DOCKING 10 of 100
Run: 10 Seed: 1890295998 1429904445 [ Run 10 of 100 GA/GALS ]
Beginning LAMARCKIAN GENETIC ALGORITHM (LGA), with a maximum of 25000000 energy evaluations.

Final-Value: -11.963


	FINAL GENETIC ALGORITHM DOCKED STATE
	_______________________________________________


Detailed state:  trans -9.148 14.801 15.558 quatxyzw -0.015745 -0.055162 0.843784 -0.533609 center 0.153 0.018 -0.028 ntor 13 -89.7349 -171.8931 103.0956 30.7356 35.4427 -55.7761 -57.2083 -140.9624 124.7550 -145.7539 -92.1237 22.7740 -32.8091
State:	 -9.148  14.801  15.558  -0.019 -0.065  0.998 -115.501    -89.73 -171.89  103.10   30.74   35.44  -55.78  -57.21 -140.96  124.75 -145.75  -92.12   22.77  -32.81

DOCKED: MODEL       10
DOCKED: USER    Run = 10
DOCKED: USER    DPF = D:/Protein_go_brrr/autodock/final/AncMH_nat/heme/dock.dpf
DOCKED: USER  
DOCKED: USER    Estimated Free Energy of Binding    =   -4.82 kcal/mol  [=(1)+(2)+(3)-(4)]
DOCKED: USER    Estimated Inhibition Constant, Ki   =  294.82 uM (micromolar)  [Temperature = 298.15 K]
DOCKED: USER    
DOCKED: USER    (1) Final Intermolecular Energy     =   -8.69 kcal/mol
DOCKED: USER        vdW + Hbond + desolv Energy     =   -8.24 kcal/mol
DOCKED: USER        Electrostatic Energy            =   -0.45 kcal/mol
DOCKED: USER    (2) Final Total Internal Energy     =   -3.27 kcal/mol
DOCKED: USER    (3) Torsional Free Energy           =   +3.88 kcal/mol
DOCKED: USER    (4) Unbound System's Energy  [=(2)] =   -3.27 kcal/mol
DOCKED: USER    
DOCKED: USER    
DOCKED: USER    NEWDPF move heme_opt.pdbqt
DOCKED: USER    NEWDPF about 0.153000 0.018000 -0.028000
DOCKED: USER    NEWDPF tran0 -9.147820 14.800980 15.557807
DOCKED: USER    NEWDPF quaternion0 -0.015745 -0.055162 0.843784 -0.533609
DOCKED: USER    NEWDPF axisangle0 -0.018617 -0.065224 0.997697 -115.500780
DOCKED: USER    NEWDPF quat0 -0.018617 -0.065224 0.997697 -115.500780
DOCKED: USER    NEWDPF dihe0 -89.73 -171.89 103.10 30.74 35.44 -55.78 -57.21 -140.96 124.75 -145.75 -92.12 22.77 -32.81 
DOCKED: USER  keepresnum = 1 
DOCKED: USER  
DOCKED: REMARK  13 active torsions:
DOCKED: REMARK  status: ('A' for Active; 'I' for Inactive)
DOCKED: REMARK    1  A    between atoms: O_3  and  C_38 
DOCKED: REMARK    2  A    between atoms: O_4  and  C_40 
DOCKED: REMARK    3  A    between atoms: O_7  and  C_46 
DOCKED: REMARK    4  A    between atoms: O_9  and  C_48 
DOCKED: REMARK    5  A    between atoms: C_15  and  C_20 
DOCKED: REMARK    6  A    between atoms: C_16  and  C_23 
DOCKED: REMARK    7  A    between atoms: C_20  and  C_38 
DOCKED: REMARK    8  A    between atoms: C_23  and  C_40 
DOCKED: REMARK    9  A    between atoms: C_32  and  C_41 
DOCKED: REMARK   10  A    between atoms: C_37  and  C_45 
DOCKED: REMARK   11  A    between atoms: C_41  and  C_44 
DOCKED: REMARK   12  A    between atoms: C_44  and  C_46 
DOCKED: REMARK   13  A    between atoms: C_47  and  C_48 
DOCKED: USER                              x       y       z     vdW  Elec       q    Type
DOCKED: USER                           _______ _______ _______ _____ _____    ______ ____
DOCKED: ROOT
DOCKED: ATOM      1  O   UNL d   1      -8.308   8.972  15.835 -0.20 +0.09    -0.289 OA
DOCKED: ATOM      2  O   UNL d   1      -3.515  14.581  14.436 -0.08 +0.00    -0.289 OA
DOCKED: ATOM      3  N   UNL d   1      -9.298  12.270  15.639 -0.17 +0.07    -0.247 NA
DOCKED: ATOM      4  N   UNL d   1      -6.729  13.739  15.367 -0.17 +0.06    -0.247 NA
DOCKED: ATOM      5  N   UNL d   1      -8.162  16.165  15.943 -0.09 +0.19    -0.354 N 
DOCKED: ATOM      6  N   UNL d   1     -10.819  14.631  16.243 -0.04 +0.19    -0.354 N 
DOCKED: ATOM      7  C   UNL d   1     -10.402  10.167  16.242 -0.16 -0.01    +0.084 A 
DOCKED: ATOM      8  C   UNL d   1      -4.848  12.529  14.384 -0.26 -0.01    +0.084 A 
DOCKED: ATOM      9  C   UNL d   1      -6.289  12.519  14.905 -0.28 -0.01    +0.058 A 
DOCKED: ATOM     10  C   UNL d   1     -10.482  11.685  16.055 -0.19 -0.01    +0.058 A 
DOCKED: ATOM     11  C   UNL d   1      -8.968   9.995  15.839 -0.18 -0.04    +0.193 A 
DOCKED: ATOM     12  C   UNL d   1      -8.417  11.339  15.473 -0.21 -0.02    +0.109 A 
DOCKED: ATOM     13  C   UNL d   1      -4.540  13.971  14.671 -0.13 -0.02    +0.193 A 
DOCKED: ATOM     14  C   UNL d   1     -10.557   9.759  17.709 -0.08 -0.00    +0.026 C 
DOCKED: ATOM     15  C   UNL d   1      -7.036  11.406  14.952 -0.21 -0.01    +0.055 C 
DOCKED: ATOM     16  C   UNL d   1      -4.790  12.305  12.870 -0.49 -0.00    +0.026 C 
DOCKED: ATOM     17  C   UNL d   1      -5.759  14.591  15.272 -0.20 -0.02    +0.109 A 
DOCKED: ATOM     18  C   UNL d   1     -11.642  12.351  16.203 -0.15 -0.01    +0.050 C 
DOCKED: ATOM     19  C   UNL d   1     -11.830  13.737  15.970 -0.13 -0.02    +0.045 A 
DOCKED: ATOM     20  C   UNL d   1      -6.875  16.631  16.007 -0.20 -0.01    +0.045 A 
DOCKED: ATOM     21  C   UNL d   1      -5.738  15.998  15.699 -0.20 -0.00    +0.057 C 
DOCKED: ATOM     22  C   UNL d   1      -8.294  18.286  16.687 -0.15 +0.01    -0.019 A 
DOCKED: ATOM     23  C   UNL d   1      -9.089  17.093  16.335 -0.19 -0.03    +0.045 A 
DOCKED: ATOM     24  C   UNL d   1      -6.984  18.007  16.489 -0.14 +0.00    -0.022 A 
DOCKED: ATOM     25  C   UNL d   1     -11.245  15.922  16.031 -0.13 -0.04    +0.049 A 
DOCKED: ATOM     26  C   UNL d   1     -12.929  14.463  15.536 -0.11 +0.01    -0.018 A 
DOCKED: ATOM     27  C   UNL d   1     -12.547  15.840  15.558 -0.16 -0.00    +0.003 A 
DOCKED: ATOM     28  C   UNL d   1     -10.428  17.027  16.394 -0.17 -0.04    +0.052 C 
DOCKED: ATOM     29  C   UNL d   1      -5.800  18.891  16.692 -0.08 -0.00    +0.046 C 
DOCKED: ATOM     30  C   UNL d   1     -14.252  13.913  15.123 -0.07 -0.01    +0.046 C 
DOCKED: ATOM     31  H   UNL d   1      -8.372  15.248  15.561 -0.45 -0.13    +0.166 HD
DOCKED: ATOM     32  H   UNL d   1      -9.907  14.357  16.590 -0.09 -0.08    +0.166 HD
DOCKED: ENDROOT
DOCKED: BRANCH   7  33
DOCKED: ATOM     33  C   UNL d   1     -11.318   9.344  15.330 -0.24 -0.01    +0.141 C 
DOCKED: BRANCH  33  34
DOCKED: ATOM     34  C   UNL d   1     -11.061   7.865  15.433 -0.27 -0.05    +0.306 C 
DOCKED: ATOM     35  O   UNL d   1     -11.597   7.093  16.211 -0.21 +0.03    -0.251 OA
DOCKED: BRANCH  34  36
DOCKED: ATOM     36  O   UNL d   1     -10.144   7.434  14.549 -0.27 +0.14    -0.481 OA
DOCKED: ATOM     37  H   UNL d   1      -9.285   7.554  15.006 +0.14 -0.10    +0.295 HD
DOCKED: ENDBRANCH  34  36
DOCKED: ENDBRANCH  33  34
DOCKED: ENDBRANCH   7  33
DOCKED: BRANCH  27  38
DOCKED: ATOM     38  C   UNL d   1     -13.393  16.937  15.197 -0.12 -0.01    +0.017 C 
DOCKED: ATOM     39  C   UNL d   1     -13.143  17.818  14.217 +0.21 -0.12    +0.092 C 
DOCKED: BRANCH  39  40
DOCKED: ATOM     40  C   UNL d   1     -14.103  18.889  13.935 -0.05 -0.27    +0.330 C 
DOCKED: ATOM     41  O   UNL d   1     -15.276  18.777  13.635 -0.02 +0.11    -0.246 OA
DOCKED: BRANCH  40  42
DOCKED: ATOM     42  O   UNL d   1     -13.509  20.086  14.062 -0.05 +0.42    -0.477 OA
DOCKED: ATOM     43  H   UNL d   1     -12.562  19.867  14.181 -0.44 -0.50    +0.295 HD
DOCKED: ENDBRANCH  40  42
DOCKED: ENDBRANCH  39  40
DOCKED: ENDBRANCH  27  38
DOCKED: BRANCH   8  44
DOCKED: ATOM     44  C   UNL d   1      -3.874  11.602  15.119 -0.19 -0.03    +0.141 C 
DOCKED: BRANCH  44  45
DOCKED: ATOM     45  C   UNL d   1      -2.594  11.366  14.364 -0.17 -0.09    +0.306 C 
DOCKED: ATOM     46  O   UNL d   1      -2.309  10.378  13.708 -0.30 +0.11    -0.251 OA
DOCKED: BRANCH  45  47
DOCKED: ATOM     47  O   UNL d   1      -1.722  12.382  14.497 -0.05 +0.13    -0.481 OA
DOCKED: ATOM     48  H   UNL d   1      -2.058  13.077  13.892 +0.10 -0.11    +0.295 HD
DOCKED: ENDBRANCH  45  47
DOCKED: ENDBRANCH  44  45
DOCKED: ENDBRANCH   8  44
DOCKED: BRANCH  22  49
DOCKED: ATOM     49  C   UNL d   1      -8.881  19.571  17.193 -0.08 -0.02    +0.048 C 
DOCKED: BRANCH  49  50
DOCKED: ATOM     50  C   UNL d   1      -8.633  20.730  16.228 -0.09 -0.05    +0.125 C 
DOCKED: BRANCH  50  51
DOCKED: ATOM     51  C   UNL d   1      -9.734  20.826  15.210 +0.06 -0.28    +0.305 C 
DOCKED: ATOM     52  O   UNL d   1      -9.645  21.191  14.051 -0.12 +0.24    -0.251 OA
DOCKED: BRANCH  51  53
DOCKED: ATOM     53  O   UNL d   1     -10.926  20.459  15.722 -0.01 +0.50    -0.481 OA
DOCKED: ATOM     54  H   UNL d   1     -11.410  20.087  14.955 -0.52 -0.58    +0.295 HD
DOCKED: ENDBRANCH  51  53
DOCKED: ENDBRANCH  50  51
DOCKED: ENDBRANCH  49  50
DOCKED: ENDBRANCH  22  49
DOCKED: TORSDOF 13
DOCKED: TER
DOCKED: ENDMDL
________________________________________________________________________________


	BEGINNING GENETIC ALGORITHM DOCKING 11 of 100
Run: 11 Seed: 1405945267 2015069094 [ Run 11 of 100 GA/GALS ]
Beginning LAMARCKIAN GENETIC ALGORITHM (LGA), with a maximum of 25000000 energy evaluations.

Final-Value: -10.986


	FINAL GENETIC ALGORITHM DOCKED STATE
	_______________________________________________


Detailed state:  trans -10.133 13.605 15.886 quatxyzw -0.875238 0.440398 -0.178134 -0.090979 center 0.153 0.018 -0.028 ntor 13 170.1839 30.6257 -178.8290 -157.1309 -148.9697 46.2353 126.6790 -69.8531 12.9829 133.7719 151.9346 -49.8813 -167.9914
State:	-10.133  13.605  15.886  -0.879  0.442 -0.179 -169.560    170.18   30.63 -178.83 -157.13 -148.97   46.24  126.68  -69.85   12.98  133.77  151.93  -49.88 -167.99

DOCKED: MODEL       11
DOCKED: USER    Run = 11
DOCKED: USER    DPF = D:/Protein_go_brrr/autodock/final/AncMH_nat/heme/dock.dpf
DOCKED: USER  
DOCKED: USER    Estimated Free Energy of Binding    =   -5.21 kcal/mol  [=(1)+(2)+(3)-(4)]
DOCKED: USER    Estimated Inhibition Constant, Ki   =  152.90 uM (micromolar)  [Temperature = 298.15 K]
DOCKED: USER    
DOCKED: USER    (1) Final Intermolecular Energy     =   -9.08 kcal/mol
DOCKED: USER        vdW + Hbond + desolv Energy     =   -8.23 kcal/mol
DOCKED: USER        Electrostatic Energy            =   -0.86 kcal/mol
DOCKED: USER    (2) Final Total Internal Energy     =   -1.90 kcal/mol
DOCKED: USER    (3) Torsional Free Energy           =   +3.88 kcal/mol
DOCKED: USER    (4) Unbound System's Energy  [=(2)] =   -1.90 kcal/mol
DOCKED: USER    
DOCKED: USER    
DOCKED: USER    NEWDPF move heme_opt.pdbqt
DOCKED: USER    NEWDPF about 0.153000 0.018000 -0.028000
DOCKED: USER    NEWDPF tran0 -10.133152 13.605301 15.886474
DOCKED: USER    NEWDPF quaternion0 -0.875238 0.440398 -0.178134 -0.090979
DOCKED: USER    NEWDPF axisangle0 -0.878883 0.442232 -0.178875 -169.560161
DOCKED: USER    NEWDPF quat0 -0.878883 0.442232 -0.178875 -169.560161
DOCKED: USER    NEWDPF dihe0 170.18 30.63 -178.83 -157.13 -148.97 46.24 126.68 -69.85 12.98 133.77 151.93 -49.88 -167.99 
DOCKED: USER  keepresnum = 1 
DOCKED: USER  
DOCKED: REMARK  13 active torsions:
DOCKED: REMARK  status: ('A' for Active; 'I' for Inactive)
DOCKED: REMARK    1  A    between atoms: O_3  and  C_38 
DOCKED: REMARK    2  A    between atoms: O_4  and  C_40 
DOCKED: REMARK    3  A    between atoms: O_7  and  C_46 
DOCKED: REMARK    4  A    between atoms: O_9  and  C_48 
DOCKED: REMARK    5  A    between atoms: C_15  and  C_20 
DOCKED: REMARK    6  A    between atoms: C_16  and  C_23 
DOCKED: REMARK    7  A    between atoms: C_20  and  C_38 
DOCKED: REMARK    8  A    between atoms: C_23  and  C_40 
DOCKED: REMARK    9  A    between atoms: C_32  and  C_41 
DOCKED: REMARK   10  A    between atoms: C_37  and  C_45 
DOCKED: REMARK   11  A    between atoms: C_41  and  C_44 
DOCKED: REMARK   12  A    between atoms: C_44  and  C_46 
DOCKED: REMARK   13  A    between atoms: C_47  and  C_48 
DOCKED: USER                              x       y       z     vdW  Elec       q    Type
DOCKED: USER                           _______ _______ _______ _____ _____    ______ ____
DOCKED: ROOT
DOCKED: ATOM      1  O   UNL d   1     -14.205  17.108  13.456 -0.08 +0.21    -0.289 OA
DOCKED: ATOM      2  O   UNL d   1      -8.631  18.622  18.256 -0.01 +0.07    -0.289 OA
DOCKED: ATOM      3  N   UNL d   1     -12.123  14.671  14.730 -0.13 +0.15    -0.247 NA
DOCKED: ATOM      4  N   UNL d   1     -10.099  16.228  16.250 -0.13 +0.18    -0.247 NA
DOCKED: ATOM      5  N   UNL d   1      -8.495  13.845  16.374 -0.04 +0.15    -0.354 N 
DOCKED: ATOM      6  N   UNL d   1     -10.590  12.243  14.779 -0.12 +0.10    -0.354 N 
DOCKED: ATOM      7  C   UNL d   1     -13.902  14.718  13.045 -0.17 -0.04    +0.084 A 
DOCKED: ATOM      8  C   UNL d   1     -10.780  18.415  17.102 -0.08 -0.05    +0.084 A 
DOCKED: ATOM      9  C   UNL d   1     -11.101  17.172  16.265 -0.11 -0.05    +0.058 A 
DOCKED: ATOM     10  C   UNL d   1     -12.842  13.923  13.813 -0.23 -0.02    +0.058 A 
DOCKED: ATOM     11  C   UNL d   1     -13.666  16.045  13.702 -0.12 -0.14    +0.193 A 
DOCKED: ATOM     12  C   UNL d   1     -12.582  15.880  14.722 -0.17 -0.09    +0.109 A 
DOCKED: ATOM     13  C   UNL d   1      -9.395  18.018  17.529 -0.06 -0.08    +0.193 A 
DOCKED: ATOM     14  C   UNL d   1     -13.564  14.836  11.556 -0.33 -0.02    +0.026 C 
DOCKED: ATOM     15  C   UNL d   1     -12.240  17.042  15.566 -0.08 -0.06    +0.055 C 
DOCKED: ATOM     16  C   UNL d   1     -11.670  18.509  18.344 -0.03 -0.01    +0.026 C 
DOCKED: ATOM     17  C   UNL d   1      -9.100  16.676  16.940 -0.14 -0.05    +0.109 A 
DOCKED: ATOM     18  C   UNL d   1     -12.709  12.593  13.655 -0.34 -0.01    +0.050 C 
DOCKED: ATOM     19  C   UNL d   1     -11.818  11.763  14.381 -0.27 -0.01    +0.045 A 
DOCKED: ATOM     20  C   UNL d   1      -7.593  14.762  16.850 -0.13 -0.01    +0.045 A 
DOCKED: ATOM     21  C   UNL d   1      -7.788  16.048  17.155 -0.13 -0.02    +0.057 C 
DOCKED: ATOM     22  C   UNL d   1      -6.531  12.759  16.568 -0.15 +0.00    -0.019 A 
DOCKED: ATOM     23  C   UNL d   1      -7.946  12.607  16.172 -0.21 -0.01    +0.045 A 
DOCKED: ATOM     24  C   UNL d   1      -6.329  14.036  16.969 -0.09 +0.00    -0.022 A 
DOCKED: ATOM     25  C   UNL d   1      -9.856  11.250  15.385 -0.16 -0.01    +0.049 A 
DOCKED: ATOM     26  C   UNL d   1     -11.898  10.435  14.771 -0.25 +0.00    -0.018 A 
DOCKED: ATOM     27  C   UNL d   1     -10.665  10.122  15.422 -0.19 -0.00    +0.003 A 
DOCKED: ATOM     28  C   UNL d   1      -8.497  11.462  15.741 -0.30 -0.01    +0.052 C 
DOCKED: ATOM     29  C   UNL d   1      -5.075  14.669  17.469 -0.04 -0.00    +0.046 C 
DOCKED: ATOM     30  C   UNL d   1     -13.049   9.512  14.555 -0.36 +0.00    +0.046 C 
DOCKED: ATOM     31  H   UNL d   1      -9.477  14.078  16.273 -0.26 -0.09    +0.166 HD
DOCKED: ATOM     32  H   UNL d   1     -10.275  13.189  14.603 -0.49 -0.11    +0.166 HD
DOCKED: ENDROOT
DOCKED: BRANCH   7  33
DOCKED: ATOM     33  C   UNL d   1     -15.349  14.262  13.258 -0.07 -0.03    +0.141 C 
DOCKED: BRANCH  33  34
DOCKED: ATOM     34  C   UNL d   1     -15.783  14.367  14.695 +0.00 -0.04    +0.306 C 
DOCKED: ATOM     35  O   UNL d   1     -15.753  13.473  15.524 -0.01 +0.01    -0.251 OA
DOCKED: BRANCH  34  36
DOCKED: ATOM     36  O   UNL d   1     -16.231  15.594  15.013 +0.01 +0.07    -0.481 OA
DOCKED: ATOM     37  H   UNL d   1     -15.964  16.158  14.256 +0.03 -0.07    +0.295 HD
DOCKED: ENDBRANCH  34  36
DOCKED: ENDBRANCH  33  34
DOCKED: ENDBRANCH   7  33
DOCKED: BRANCH  27  38
DOCKED: ATOM     38  C   UNL d   1     -10.321   8.843  15.967 -0.31 -0.00    +0.017 C 
DOCKED: ATOM     39  C   UNL d   1      -9.090   8.470  16.350 -0.32 -0.03    +0.092 C 
DOCKED: BRANCH  39  40
DOCKED: ATOM     40  C   UNL d   1      -8.874   7.134  16.911 -0.18 -0.17    +0.330 C 
DOCKED: ATOM     41  O   UNL d   1      -9.316   6.077  16.505 -0.29 +0.10    -0.246 OA
DOCKED: BRANCH  40  42
DOCKED: ATOM     42  O   UNL d   1      -8.074   7.209  17.986 -0.08 +0.46    -0.477 OA
DOCKED: ATOM     43  H   UNL d   1      -7.598   6.354  17.984 -0.22 -0.58    +0.295 HD
DOCKED: ENDBRANCH  40  42
DOCKED: ENDBRANCH  39  40
DOCKED: ENDBRANCH  27  38
DOCKED: BRANCH   8  44
DOCKED: ATOM     44  C   UNL d   1     -10.758  19.741  16.334 +0.03 -0.13    +0.141 C 
DOCKED: BRANCH  44  45
DOCKED: ATOM     45  C   UNL d   1     -12.122  20.358  16.176 -0.03 -0.21    +0.306 C 
DOCKED: ATOM     46  O   UNL d   1     -12.711  21.040  16.997 -0.01 +0.08    -0.251 OA
DOCKED: BRANCH  45  47
DOCKED: ATOM     47  O   UNL d   1     -12.688  20.059  14.993 -0.03 +0.52    -0.481 OA
DOCKED: ATOM     48  H   UNL d   1     -12.030  19.491  14.539 -0.51 -0.78    +0.295 HD
DOCKED: ENDBRANCH  45  47
DOCKED: ENDBRANCH  44  45
DOCKED: ENDBRANCH   8  44
DOCKED: BRANCH  22  49
DOCKED: ATOM     49  C   UNL d   1      -5.516  11.656  16.503 -0.17 -0.01    +0.048 C 
DOCKED: BRANCH  49  50
DOCKED: ATOM     50  C   UNL d   1      -4.503  11.880  15.380 -0.19 -0.02    +0.125 C 
DOCKED: BRANCH  50  51
DOCKED: ATOM     51  C   UNL d   1      -5.105  12.696  14.271 -0.22 -0.05    +0.305 C 
DOCKED: ATOM     52  O   UNL d   1      -5.894  12.326  13.420 -0.32 +0.03    -0.251 OA
DOCKED: BRANCH  51  53
DOCKED: ATOM     53  O   UNL d   1      -4.660  13.969  14.283 -0.05 +0.04    -0.481 OA
DOCKED: ATOM     54  H   UNL d   1      -3.811  13.920  14.770 +0.11 -0.03    +0.295 HD
DOCKED: ENDBRANCH  51  53
DOCKED: ENDBRANCH  50  51
DOCKED: ENDBRANCH  49  50
DOCKED: ENDBRANCH  22  49
DOCKED: TORSDOF 13
DOCKED: TER
DOCKED: ENDMDL
________________________________________________________________________________


	BEGINNING GENETIC ALGORITHM DOCKING 12 of 100
Run: 12 Seed: 1097083294 2143707267 [ Run 12 of 100 GA/GALS ]
Beginning LAMARCKIAN GENETIC ALGORITHM (LGA), with a maximum of 25000000 energy evaluations.

Final-Value: -10.622


	FINAL GENETIC ALGORITHM DOCKED STATE
	_______________________________________________


Detailed state:  trans 10.954 -9.397 -11.934 quatxyzw 0.014077 0.595606 0.792916 -0.127827 center 0.153 0.018 -0.028 ntor 13 145.6169 123.3360 116.8203 -0.5598 41.7272 175.5134 -49.5370 -84.3292 -158.8890 -131.6840 -64.5883 166.9644 10.8849
State:	 10.954  -9.397 -11.934   0.014  0.601  0.799 -165.312    145.62  123.34  116.82   -0.56   41.73  175.51  -49.54  -84.33 -158.89 -131.68  -64.59  166.96   10.88

DOCKED: MODEL       12
DOCKED: USER    Run = 12
DOCKED: USER    DPF = D:/Protein_go_brrr/autodock/final/AncMH_nat/heme/dock.dpf
DOCKED: USER  
DOCKED: USER    Estimated Free Energy of Binding    =   -4.51 kcal/mol  [=(1)+(2)+(3)-(4)]
DOCKED: USER    Estimated Inhibition Constant, Ki   =  493.02 uM (micromolar)  [Temperature = 298.15 K]
DOCKED: USER    
DOCKED: USER    (1) Final Intermolecular Energy     =   -8.39 kcal/mol
DOCKED: USER        vdW + Hbond + desolv Energy     =   -8.16 kcal/mol
DOCKED: USER        Electrostatic Energy            =   -0.23 kcal/mol
DOCKED: USER    (2) Final Total Internal Energy     =   -2.23 kcal/mol
DOCKED: USER    (3) Torsional Free Energy           =   +3.88 kcal/mol
DOCKED: USER    (4) Unbound System's Energy  [=(2)] =   -2.23 kcal/mol
DOCKED: USER    
DOCKED: USER    
DOCKED: USER    NEWDPF move heme_opt.pdbqt
DOCKED: USER    NEWDPF about 0.153000 0.018000 -0.028000
DOCKED: USER    NEWDPF tran0 10.953835 -9.397431 -11.934409
DOCKED: USER    NEWDPF quaternion0 0.014077 0.595606 0.792916 -0.127827
DOCKED: USER    NEWDPF axisangle0 0.014193 0.600533 0.799474 -165.311936
DOCKED: USER    NEWDPF quat0 0.014193 0.600533 0.799474 -165.311936
DOCKED: USER    NEWDPF dihe0 145.62 123.34 116.82 -0.56 41.73 175.51 -49.54 -84.33 -158.89 -131.68 -64.59 166.96 10.88 
DOCKED: USER  keepresnum = 1 
DOCKED: USER  
DOCKED: REMARK  13 active torsions:
DOCKED: REMARK  status: ('A' for Active; 'I' for Inactive)
DOCKED: REMARK    1  A    between atoms: O_3  and  C_38 
DOCKED: REMARK    2  A    between atoms: O_4  and  C_40 
DOCKED: REMARK    3  A    between atoms: O_7  and  C_46 
DOCKED: REMARK    4  A    between atoms: O_9  and  C_48 
DOCKED: REMARK    5  A    between atoms: C_15  and  C_20 
DOCKED: REMARK    6  A    between atoms: C_16  and  C_23 
DOCKED: REMARK    7  A    between atoms: C_20  and  C_38 
DOCKED: REMARK    8  A    between atoms: C_23  and  C_40 
DOCKED: REMARK    9  A    between atoms: C_32  and  C_41 
DOCKED: REMARK   10  A    between atoms: C_37  and  C_45 
DOCKED: REMARK   11  A    between atoms: C_41  and  C_44 
DOCKED: REMARK   12  A    between atoms: C_44  and  C_46 
DOCKED: REMARK   13  A    between atoms: C_47  and  C_48 
DOCKED: USER                              x       y       z     vdW  Elec       q    Type
DOCKED: USER                           _______ _______ _______ _____ _____    ______ ____
DOCKED: ROOT
DOCKED: ATOM      1  O   UNL d   1      16.178 -10.455  -9.416 -0.02 +0.08    -0.289 OA
DOCKED: ATOM      2  O   UNL d   1      14.148 -10.217 -16.642 +0.00 +0.04    -0.289 OA
DOCKED: ATOM      3  N   UNL d   1      12.924  -9.923 -10.425 -0.07 +0.17    -0.247 NA
DOCKED: ATOM      4  N   UNL d   1      13.153  -9.695 -13.379 -0.01 +0.07    -0.247 NA
DOCKED: ATOM      5  N   UNL d   1      10.476  -8.647 -13.413 -0.05 +0.05    -0.354 N 
DOCKED: ATOM      6  N   UNL d   1      10.253  -8.868 -10.347 -0.09 +0.23    -0.354 N 
DOCKED: ATOM      7  C   UNL d   1      14.092  -9.898  -8.271 -0.20 -0.04    +0.084 A 
DOCKED: ATOM      8  C   UNL d   1      15.038 -10.827 -14.445 +0.01 -0.01    +0.084 A 
DOCKED: ATOM      9  C   UNL d   1      14.312 -10.406 -13.163 -0.00 -0.02    +0.058 A 
DOCKED: ATOM     10  C   UNL d   1      12.791  -9.725  -9.061 -0.13 -0.05    +0.058 A 
DOCKED: ATOM     11  C   UNL d   1      14.979 -10.246  -9.428 -0.05 -0.08    +0.193 A 
DOCKED: ATOM     12  C   UNL d   1      14.149 -10.255 -10.674 -0.06 -0.05    +0.109 A 
DOCKED: ATOM     13  C   UNL d   1      14.097 -10.191 -15.428 +0.01 -0.03    +0.193 A 
DOCKED: ATOM     14  C   UNL d   1      14.572  -8.579  -7.659 -0.23 -0.01    +0.026 C 
DOCKED: ATOM     15  C   UNL d   1      14.794 -10.665 -11.937 -0.02 -0.02    +0.055 C 
DOCKED: ATOM     16  C   UNL d   1      15.006 -12.345 -14.643 +0.00 -0.00    +0.026 C 
DOCKED: ATOM     17  C   UNL d   1      13.002  -9.531 -14.654 -0.00 -0.02    +0.109 A 
DOCKED: ATOM     18  C   UNL d   1      11.619  -9.491  -8.443 -0.30 -0.04    +0.050 C 
DOCKED: ATOM     19  C   UNL d   1      10.356  -9.401  -9.082 -0.28 -0.03    +0.045 A 
DOCKED: ATOM     20  C   UNL d   1      10.842  -8.401 -14.712 -0.04 -0.00    +0.045 A 
DOCKED: ATOM     21  C   UNL d   1      11.948  -8.784 -15.357 -0.01 -0.01    +0.057 C 
DOCKED: ATOM     22  C   UNL d   1       8.810  -7.432 -14.321 -0.12 -0.00    -0.019 A 
DOCKED: ATOM     23  C   UNL d   1       9.264  -8.100 -13.085 -0.15 -0.00    +0.045 A 
DOCKED: ATOM     24  C   UNL d   1       9.748  -7.615 -15.281 -0.05 +0.00    -0.022 A 
DOCKED: ATOM     25  C   UNL d   1       8.936  -8.793 -10.735 -0.24 -0.01    +0.049 A 
DOCKED: ATOM     26  C   UNL d   1       9.076  -9.714  -8.651 -0.27 +0.01    -0.018 A 
DOCKED: ATOM     27  C   UNL d   1       8.185  -9.346  -9.707 -0.27 -0.00    +0.003 A 
DOCKED: ATOM     28  C   UNL d   1       8.567  -8.135 -11.939 -0.18 -0.00    +0.052 C 
DOCKED: ATOM     29  C   UNL d   1       9.740  -7.142 -16.695 -0.02 -0.00    +0.046 C 
DOCKED: ATOM     30  C   UNL d   1       8.700 -10.319  -7.341 -0.18 -0.02    +0.046 C 
DOCKED: ATOM     31  H   UNL d   1      11.034  -9.244 -12.814 +0.02 -0.05    +0.166 HD
DOCKED: ATOM     32  H   UNL d   1      11.049  -8.544 -10.884 -0.45 -0.19    +0.166 HD
DOCKED: ENDROOT
DOCKED: BRANCH   7  33
DOCKED: ATOM     33  C   UNL d   1      14.087 -11.029  -7.237 -0.13 -0.04    +0.141 C 
DOCKED: BRANCH  33  34
DOCKED: ATOM     34  C   UNL d   1      14.122 -10.519  -5.821 -0.17 -0.07    +0.306 C 
DOCKED: ATOM     35  O   UNL d   1      13.159 -10.351  -5.092 -0.29 +0.08    -0.251 OA
DOCKED: BRANCH  34  36
DOCKED: ATOM     36  O   UNL d   1      15.369 -10.251  -5.397 -0.66 +0.00    -0.481 OA
DOCKED: ATOM     37  H   UNL d   1      15.924 -10.951  -5.802 +0.07 -0.03    +0.295 HD
DOCKED: ENDBRANCH  34  36
DOCKED: ENDBRANCH  33  34
DOCKED: ENDBRANCH   7  33
DOCKED: BRANCH  27  38
DOCKED: ATOM     38  C   UNL d   1       6.760  -9.486  -9.671 -0.34 -0.00    +0.017 C 
DOCKED: ATOM     39  C   UNL d   1       6.016  -9.544  -8.556 +0.08 -0.01    +0.092 C 
DOCKED: BRANCH  39  40
DOCKED: ATOM     40  C   UNL d   1       4.560  -9.671  -8.657 -0.20 +0.00    +0.330 C 
DOCKED: ATOM     41  O   UNL d   1       3.764  -9.844  -7.753 -1.27 -0.06    -0.246 OA
DOCKED: BRANCH  40  42
DOCKED: ATOM     42  O   UNL d   1       4.174  -9.560  -9.937 -0.30 +0.04    -0.477 OA
DOCKED: ATOM     43  H   UNL d   1       4.528  -8.690 -10.214 -0.32 -0.09    +0.295 HD
DOCKED: ENDBRANCH  40  42
DOCKED: ENDBRANCH  39  40
DOCKED: ENDBRANCH  27  38
DOCKED: BRANCH   8  44
DOCKED: ATOM     44  C   UNL d   1      16.459 -10.276 -14.610 +0.01 -0.02    +0.141 C 
DOCKED: BRANCH  44  45
DOCKED: ATOM     45  C   UNL d   1      17.135 -10.747 -15.870 +0.00 -0.04    +0.306 C 
DOCKED: ATOM     46  O   UNL d   1      17.868 -11.714 -15.984 +0.00 +0.03    -0.251 OA
DOCKED: BRANCH  45  47
DOCKED: ATOM     47  O   UNL d   1      16.873  -9.952 -16.923 +0.00 +0.06    -0.481 OA
DOCKED: ATOM     48  H   UNL d   1      15.906 -10.039 -17.064 +0.00 -0.04    +0.295 HD
DOCKED: ENDBRANCH  45  47
DOCKED: ENDBRANCH  44  45
DOCKED: ENDBRANCH   8  44
DOCKED: BRANCH  22  49
DOCKED: ATOM     49  C   UNL d   1       7.523  -6.671 -14.444 -0.18 -0.00    +0.048 C 
DOCKED: BRANCH  49  50
DOCKED: ATOM     50  C   UNL d   1       6.312  -7.604 -14.466 -0.14 -0.01    +0.125 C 
DOCKED: BRANCH  50  51
DOCKED: ATOM     51  C   UNL d   1       5.432  -7.369 -13.270 -0.17 -0.02    +0.305 C 
DOCKED: ATOM     52  O   UNL d   1       5.491  -7.920 -12.185 -0.26 +0.01    -0.251 OA
DOCKED: BRANCH  51  53
DOCKED: ATOM     53  O   UNL d   1       4.491  -6.435 -13.513 -0.13 +0.10    -0.481 OA
DOCKED: ATOM     54  H   UNL d   1       3.982  -6.388 -12.676 -0.33 -0.10    +0.295 HD
DOCKED: ENDBRANCH  51  53
DOCKED: ENDBRANCH  50  51
DOCKED: ENDBRANCH  49  50
DOCKED: ENDBRANCH  22  49
DOCKED: TORSDOF 13
DOCKED: TER
DOCKED: ENDMDL
________________________________________________________________________________


	BEGINNING GENETIC ALGORITHM DOCKING 13 of 100
Run: 13 Seed: 945018354 1617696833 [ Run 13 of 100 GA/GALS ]
Beginning LAMARCKIAN GENETIC ALGORITHM (LGA), with a maximum of 25000000 energy evaluations.

Final-Value: -11.584


	FINAL GENETIC ALGORITHM DOCKED STATE
	_______________________________________________


Detailed state:  trans 10.140 -12.106 -6.126 quatxyzw -0.584775 0.060125 0.282005 -0.758219 center 0.153 0.018 -0.028 ntor 13 90.5916 151.8447 -120.4032 57.6878 -133.9150 114.8602 120.6996 35.4189 55.0120 -26.6278 -75.9774 -156.5444 24.3508
State:	 10.140 -12.106  -6.126  -0.897  0.092  0.433 -81.385     90.59  151.84 -120.40   57.69 -133.91  114.86  120.70   35.42   55.01  -26.63  -75.98 -156.54   24.35

DOCKED: MODEL       13
DOCKED: USER    Run = 13
DOCKED: USER    DPF = D:/Protein_go_brrr/autodock/final/AncMH_nat/heme/dock.dpf
DOCKED: USER  
DOCKED: USER    Estimated Free Energy of Binding    =   -3.65 kcal/mol  [=(1)+(2)+(3)-(4)]
DOCKED: USER    Estimated Inhibition Constant, Ki   =    2.12 mM (millimolar)  [Temperature = 298.15 K]
DOCKED: USER    
DOCKED: USER    (1) Final Intermolecular Energy     =   -7.53 kcal/mol
DOCKED: USER        vdW + Hbond + desolv Energy     =   -7.38 kcal/mol
DOCKED: USER        Electrostatic Energy            =   -0.15 kcal/mol
DOCKED: USER    (2) Final Total Internal Energy     =   -4.06 kcal/mol
DOCKED: USER    (3) Torsional Free Energy           =   +3.88 kcal/mol
DOCKED: USER    (4) Unbound System's Energy  [=(2)] =   -4.06 kcal/mol
DOCKED: USER    
DOCKED: USER    
DOCKED: USER    NEWDPF move heme_opt.pdbqt
DOCKED: USER    NEWDPF about 0.153000 0.018000 -0.028000
DOCKED: USER    NEWDPF tran0 10.140150 -12.106362 -6.126398
DOCKED: USER    NEWDPF quaternion0 -0.584775 0.060125 0.282005 -0.758219
DOCKED: USER    NEWDPF axisangle0 -0.896894 0.092217 0.432523 -81.385056
DOCKED: USER    NEWDPF quat0 -0.896894 0.092217 0.432523 -81.385056
DOCKED: USER    NEWDPF dihe0 90.59 151.84 -120.40 57.69 -133.91 114.86 120.70 35.42 55.01 -26.63 -75.98 -156.54 24.35 
DOCKED: USER  keepresnum = 1 
DOCKED: USER  
DOCKED: REMARK  13 active torsions:
DOCKED: REMARK  status: ('A' for Active; 'I' for Inactive)
DOCKED: REMARK    1  A    between atoms: O_3  and  C_38 
DOCKED: REMARK    2  A    between atoms: O_4  and  C_40 
DOCKED: REMARK    3  A    between atoms: O_7  and  C_46 
DOCKED: REMARK    4  A    between atoms: O_9  and  C_48 
DOCKED: REMARK    5  A    between atoms: C_15  and  C_20 
DOCKED: REMARK    6  A    between atoms: C_16  and  C_23 
DOCKED: REMARK    7  A    between atoms: C_20  and  C_38 
DOCKED: REMARK    8  A    between atoms: C_23  and  C_40 
DOCKED: REMARK    9  A    between atoms: C_32  and  C_41 
DOCKED: REMARK   10  A    between atoms: C_37  and  C_45 
DOCKED: REMARK   11  A    between atoms: C_41  and  C_44 
DOCKED: REMARK   12  A    between atoms: C_44  and  C_46 
DOCKED: REMARK   13  A    between atoms: C_47  and  C_48 
DOCKED: USER                              x       y       z     vdW  Elec       q    Type
DOCKED: USER                           _______ _______ _______ _____ _____    ______ ____
DOCKED: ROOT
DOCKED: ATOM      1  O   UNL d   1       4.466 -13.249  -5.005 -0.19 -0.03    -0.289 OA
DOCKED: ATOM      2  O   UNL d   1      10.715 -15.270  -1.363 -0.02 +0.04    -0.289 OA
DOCKED: ATOM      3  N   UNL d   1       7.627 -12.446  -6.128 -0.12 +0.03    -0.247 NA
DOCKED: ATOM      4  N   UNL d   1       9.392 -13.380  -3.928 -0.13 +0.04    -0.247 NA
DOCKED: ATOM      5  N   UNL d   1      11.527 -11.872  -5.126 -0.08 +0.14    -0.354 N 
DOCKED: ATOM      6  N   UNL d   1       9.684 -10.892  -7.394 -0.08 +0.14    -0.354 N 
DOCKED: ATOM      7  C   UNL d   1       5.347 -11.876  -6.825 -0.25 +0.00    +0.084 A 
DOCKED: ATOM      8  C   UNL d   1       8.562 -15.200  -2.526 -0.05 -0.01    +0.084 A 
DOCKED: ATOM      9  C   UNL d   1       8.314 -14.191  -3.651 -0.12 -0.00    +0.058 A 
DOCKED: ATOM     10  C   UNL d   1       6.857 -11.734  -7.034 -0.21 -0.00    +0.058 A 
DOCKED: ATOM     11  C   UNL d   1       5.398 -12.809  -5.653 -0.04 +0.02    +0.193 A 
DOCKED: ATOM     12  C   UNL d   1       6.834 -13.099  -5.343 -0.16 +0.00    +0.109 A 
DOCKED: ATOM     13  C   UNL d   1       9.967 -14.787  -2.190 -0.05 -0.03    +0.193 A 
DOCKED: ATOM     14  C   UNL d   1       4.701 -10.560  -6.383 -0.51 +0.01    +0.026 C 
DOCKED: ATOM     15  C   UNL d   1       7.132 -14.075  -4.275 -0.15 +0.00    +0.055 C 
DOCKED: ATOM     16  C   UNL d   1       8.584 -16.640  -3.049 -0.02 -0.00    +0.026 C 
DOCKED: ATOM     17  C   UNL d   1      10.349 -13.670  -3.107 -0.15 -0.02    +0.109 A 
DOCKED: ATOM     18  C   UNL d   1       7.362 -11.043  -8.073 -0.22 -0.01    +0.050 C 
DOCKED: ATOM     19  C   UNL d   1       8.738 -10.927  -8.394 -0.18 -0.01    +0.045 A 
DOCKED: ATOM     20  C   UNL d   1      12.116 -12.208  -3.935 -0.23 -0.02    +0.045 A 
DOCKED: ATOM     21  C   UNL d   1      11.666 -13.029  -2.980 -0.19 -0.02    +0.057 C 
DOCKED: ATOM     22  C   UNL d   1      13.480 -10.752  -5.047 -0.29 +0.00    -0.019 A 
DOCKED: ATOM     23  C   UNL d   1      12.276 -10.997  -5.867 -0.25 -0.02    +0.045 A 
DOCKED: ATOM     24  C   UNL d   1      13.380 -11.473  -3.905 -0.26 +0.01    -0.022 A 
DOCKED: ATOM     25  C   UNL d   1      10.937 -10.685  -7.921 -0.22 -0.02    +0.049 A 
DOCKED: ATOM     26  C   UNL d   1       9.398 -10.777  -9.604 -0.12 +0.00    -0.018 A 
DOCKED: ATOM     27  C   UNL d   1      10.788 -10.644  -9.301 -0.14 -0.00    +0.003 A 
DOCKED: ATOM     28  C   UNL d   1      12.056 -10.455  -7.075 -0.30 -0.02    +0.052 C 
DOCKED: ATOM     29  C   UNL d   1      14.345 -11.567  -2.773 -0.19 -0.01    +0.046 C 
DOCKED: ATOM     30  C   UNL d   1       8.778 -10.760 -10.960 -0.08 -0.01    +0.046 C 
DOCKED: ATOM     31  H   UNL d   1      10.664 -12.310  -5.428 -0.10 -0.07    +0.166 HD
DOCKED: ATOM     32  H   UNL d   1       9.460 -10.967  -6.408 -0.46 -0.11    +0.166 HD
DOCKED: ENDROOT
DOCKED: BRANCH   7  33
DOCKED: ATOM     33  C   UNL d   1       4.580 -12.516  -7.988 +0.09 -0.01    +0.141 C 
DOCKED: BRANCH  33  34
DOCKED: ATOM     34  C   UNL d   1       4.221 -13.953  -7.724 -0.11 -0.11    +0.306 C 
DOCKED: ATOM     35  O   UNL d   1       4.963 -14.914  -7.837 -0.04 +0.07    -0.251 OA
DOCKED: BRANCH  34  36
DOCKED: ATOM     36  O   UNL d   1       2.944 -14.104  -7.329 -0.09 +0.48    -0.481 OA
DOCKED: ATOM     37  H   UNL d   1       2.983 -14.065  -6.349 -0.26 -0.48    +0.295 HD
DOCKED: ENDBRANCH  34  36
DOCKED: ENDBRANCH  33  34
DOCKED: ENDBRANCH   7  33
DOCKED: BRANCH  27  38
DOCKED: ATOM     38  C   UNL d   1      11.829 -10.453 -10.266 -0.11 -0.01    +0.017 C 
DOCKED: ATOM     39  C   UNL d   1      11.915  -9.419 -11.116 -0.04 -0.07    +0.092 C 
DOCKED: BRANCH  39  40
DOCKED: ATOM     40  C   UNL d   1      13.044  -9.331 -12.046 -0.05 -0.19    +0.330 C 
DOCKED: ATOM     41  O   UNL d   1      13.018  -9.424 -13.258 -0.03 +0.08    -0.246 OA
DOCKED: BRANCH  40  42
DOCKED: ATOM     42  O   UNL d   1      14.183  -9.113 -11.370 -0.05 +0.36    -0.477 OA
DOCKED: ATOM     43  H   UNL d   1      13.892  -8.634 -10.567 -0.06 -0.40    +0.295 HD
DOCKED: ENDBRANCH  40  42
DOCKED: ENDBRANCH  39  40
DOCKED: ENDBRANCH  27  38
DOCKED: BRANCH   8  44
DOCKED: ATOM     44  C   UNL d   1       7.645 -15.068  -1.306 -0.06 -0.00    +0.141 C 
DOCKED: BRANCH  44  45
DOCKED: ATOM     45  C   UNL d   1       8.013 -13.916  -0.408 -0.10 -0.01    +0.306 C 
DOCKED: ATOM     46  O   UNL d   1       7.785 -12.736  -0.610 -0.24 +0.00    -0.251 OA
DOCKED: BRANCH  45  47
DOCKED: ATOM     47  O   UNL d   1       8.678 -14.313   0.692 -0.00 +0.06    -0.481 OA
DOCKED: ATOM     48  H   UNL d   1       9.475 -14.770   0.348 +0.05 -0.04    +0.295 HD
DOCKED: ENDBRANCH  45  47
DOCKED: ENDBRANCH  44  45
DOCKED: ENDBRANCH   8  44
DOCKED: BRANCH  22  49
DOCKED: ATOM     49  C   UNL d   1      14.598  -9.835  -5.446 +0.09 -0.00    +0.048 C 
DOCKED: BRANCH  49  50
DOCKED: ATOM     50  C   UNL d   1      15.238 -10.258  -6.768 -0.20 -0.02    +0.125 C 
DOCKED: BRANCH  50  51
DOCKED: ATOM     51  C   UNL d   1      14.810  -9.349  -7.885 -0.22 -0.14    +0.305 C 
DOCKED: ATOM     52  O   UNL d   1      14.497  -8.174  -7.809 -0.44 +0.18    -0.251 OA
DOCKED: BRANCH  51  53
DOCKED: ATOM     53  O   UNL d   1      14.786  -9.987  -9.073 -0.03 +0.23    -0.481 OA
DOCKED: ATOM     54  H   UNL d   1      15.391  -9.461  -9.637 +0.07 -0.15    +0.295 HD
DOCKED: ENDBRANCH  51  53
DOCKED: ENDBRANCH  50  51
DOCKED: ENDBRANCH  49  50
DOCKED: ENDBRANCH  22  49
DOCKED: TORSDOF 13
DOCKED: TER
DOCKED: ENDMDL
________________________________________________________________________________


	BEGINNING GENETIC ALGORITHM DOCKING 14 of 100
Run: 14 Seed: 596636073 1818140002 [ Run 14 of 100 GA/GALS ]
Beginning LAMARCKIAN GENETIC ALGORITHM (LGA), with a maximum of 25000000 energy evaluations.

Final-Value: -13.240


	FINAL GENETIC ALGORITHM DOCKED STATE
	_______________________________________________


Detailed state:  trans 10.305 -11.721 -5.319 quatxyzw -0.035237 0.902608 -0.413924 -0.112804 center 0.153 0.018 -0.028 ntor 13 -128.3511 110.6898 106.1376 -113.9524 48.8892 -13.2299 -45.3267 -100.3279 150.8060 -134.6625 -51.4079 1.3648 14.6590
State:	 10.305 -11.721  -5.319  -0.035  0.908 -0.417 -167.046   -128.35  110.69  106.14 -113.95   48.89  -13.23  -45.33 -100.33  150.81 -134.66  -51.41    1.36   14.66

DOCKED: MODEL       14
DOCKED: USER    Run = 14
DOCKED: USER    DPF = D:/Protein_go_brrr/autodock/final/AncMH_nat/heme/dock.dpf
DOCKED: USER  
DOCKED: USER    Estimated Free Energy of Binding    =   -6.13 kcal/mol  [=(1)+(2)+(3)-(4)]
DOCKED: USER    Estimated Inhibition Constant, Ki   =   32.00 uM (micromolar)  [Temperature = 298.15 K]
DOCKED: USER    
DOCKED: USER    (1) Final Intermolecular Energy     =  -10.01 kcal/mol
DOCKED: USER        vdW + Hbond + desolv Energy     =   -9.62 kcal/mol
DOCKED: USER        Electrostatic Energy            =   -0.39 kcal/mol
DOCKED: USER    (2) Final Total Internal Energy     =   -3.23 kcal/mol
DOCKED: USER    (3) Torsional Free Energy           =   +3.88 kcal/mol
DOCKED: USER    (4) Unbound System's Energy  [=(2)] =   -3.23 kcal/mol
DOCKED: USER    
DOCKED: USER    
DOCKED: USER    NEWDPF move heme_opt.pdbqt
DOCKED: USER    NEWDPF about 0.153000 0.018000 -0.028000
DOCKED: USER    NEWDPF tran0 10.305285 -11.721238 -5.318649
DOCKED: USER    NEWDPF quaternion0 -0.035237 0.902608 -0.413924 -0.112804
DOCKED: USER    NEWDPF axisangle0 -0.035463 0.908406 -0.416583 -167.046096
DOCKED: USER    NEWDPF quat0 -0.035463 0.908406 -0.416583 -167.046096
DOCKED: USER    NEWDPF dihe0 -128.35 110.69 106.14 -113.95 48.89 -13.23 -45.33 -100.33 150.81 -134.66 -51.41 1.36 14.66 
DOCKED: USER  keepresnum = 1 
DOCKED: USER  
DOCKED: REMARK  13 active torsions:
DOCKED: REMARK  status: ('A' for Active; 'I' for Inactive)
DOCKED: REMARK    1  A    between atoms: O_3  and  C_38 
DOCKED: REMARK    2  A    between atoms: O_4  and  C_40 
DOCKED: REMARK    3  A    between atoms: O_7  and  C_46 
DOCKED: REMARK    4  A    between atoms: O_9  and  C_48 
DOCKED: REMARK    5  A    between atoms: C_15  and  C_20 
DOCKED: REMARK    6  A    between atoms: C_16  and  C_23 
DOCKED: REMARK    7  A    between atoms: C_20  and  C_38 
DOCKED: REMARK    8  A    between atoms: C_23  and  C_40 
DOCKED: REMARK    9  A    between atoms: C_32  and  C_41 
DOCKED: REMARK   10  A    between atoms: C_37  and  C_45 
DOCKED: REMARK   11  A    between atoms: C_41  and  C_44 
DOCKED: REMARK   12  A    between atoms: C_44  and  C_46 
DOCKED: REMARK   13  A    between atoms: C_47  and  C_48 
DOCKED: USER                              x       y       z     vdW  Elec       q    Type
DOCKED: USER                           _______ _______ _______ _____ _____    ______ ____
DOCKED: ROOT
DOCKED: ATOM      1  O   UNL d   1      15.961 -10.213  -6.025 -0.65 +0.00    -0.289 OA
DOCKED: ATOM      2  O   UNL d   1      12.376 -13.310  -0.198 -0.09 +0.08    -0.289 OA
DOCKED: ATOM      3  N   UNL d   1      12.562 -10.800  -6.020 -0.20 +0.09    -0.247 NA
DOCKED: ATOM      4  N   UNL d   1      12.129 -12.288  -3.485 -0.16 +0.09    -0.247 NA
DOCKED: ATOM      5  N   UNL d   1       9.509 -12.980  -4.446 -0.09 +0.09    -0.354 N 
DOCKED: ATOM      6  N   UNL d   1       9.974 -11.450  -7.081 -0.05 +0.14    -0.354 N 
DOCKED: ATOM      7  C   UNL d   1      14.179 -10.019  -7.687 -0.22 -0.03    +0.084 A 
DOCKED: ATOM      8  C   UNL d   1      13.733 -11.912  -1.680 -0.14 -0.03    +0.084 A 
DOCKED: ATOM      9  C   UNL d   1      13.309 -11.671  -3.132 -0.23 -0.02    +0.058 A 
DOCKED: ATOM     10  C   UNL d   1      12.736 -10.382  -7.329 -0.24 -0.03    +0.058 A 
DOCKED: ATOM     11  C   UNL d   1      14.788 -10.287  -6.344 -0.17 -0.03    +0.193 A 
DOCKED: ATOM     12  C   UNL d   1      13.702 -10.729  -5.413 -0.24 -0.03    +0.109 A 
DOCKED: ATOM     13  C   UNL d   1      12.595 -12.811  -1.284 +0.00 -0.07    +0.193 A 
DOCKED: ATOM     14  C   UNL d   1      14.781 -10.990  -8.706 -0.08 -0.01    +0.026 C 
DOCKED: ATOM     15  C   UNL d   1      14.051 -10.963  -3.997 -0.22 -0.01    +0.055 C 
DOCKED: ATOM     16  C   UNL d   1      13.660 -10.629  -0.847 -0.13 -0.01    +0.026 C 
DOCKED: ATOM     17  C   UNL d   1      11.698 -12.965  -2.469 -0.09 -0.04    +0.109 A 
DOCKED: ATOM     18  C   UNL d   1      11.729 -10.213  -8.206 -0.27 -0.03    +0.050 C 
DOCKED: ATOM     19  C   UNL d   1      10.356 -10.441  -7.937 -0.25 -0.02    +0.045 A 
DOCKED: ATOM     20  C   UNL d   1       9.577 -13.791  -3.343 -0.16 -0.01    +0.045 A 
DOCKED: ATOM     21  C   UNL d   1      10.513 -13.832  -2.390 -0.16 -0.01    +0.057 C 
DOCKED: ATOM     22  C   UNL d   1       7.682 -14.295  -4.514 -0.10 +0.00    -0.019 A 
DOCKED: ATOM     23  C   UNL d   1       8.400 -13.211  -5.215 -0.16 -0.01    +0.045 A 
DOCKED: ATOM     24  C   UNL d   1       8.383 -14.632  -3.406 -0.09 +0.00    -0.022 A 
DOCKED: ATOM     25  C   UNL d   1       8.603 -11.552  -7.036 -0.15 -0.01    +0.049 A 
DOCKED: ATOM     26  C   UNL d   1       9.204  -9.849  -8.432 -0.29 +0.01    -0.018 A 
DOCKED: ATOM     27  C   UNL d   1       8.100 -10.542  -7.845 -0.26 -0.00    +0.003 A 
DOCKED: ATOM     28  C   UNL d   1       7.974 -12.622  -6.342 -0.18 -0.01    +0.052 C 
DOCKED: ATOM     29  C   UNL d   1       8.060 -15.660  -2.375 -0.04 -0.00    +0.046 C 
DOCKED: ATOM     30  C   UNL d   1       9.130  -8.709  -9.390 -0.34 -0.02    +0.046 C 
DOCKED: ATOM     31  H   UNL d   1      10.188 -12.242  -4.599 -0.28 -0.08    +0.166 HD
DOCKED: ATOM     32  H   UNL d   1      10.629 -12.049  -6.594 -0.01 -0.06    +0.166 HD
DOCKED: ENDROOT
DOCKED: BRANCH   7  33
DOCKED: ATOM     33  C   UNL d   1      14.407  -8.560  -8.099 -0.19 -0.10    +0.141 C 
DOCKED: BRANCH  33  34
DOCKED: ATOM     34  C   UNL d   1      15.697  -8.364  -8.848 -0.19 -0.19    +0.306 C 
DOCKED: ATOM     35  O   UNL d   1      15.815  -8.216 -10.053 -0.16 +0.20    -0.251 OA
DOCKED: BRANCH  34  36
DOCKED: ATOM     36  O   UNL d   1      16.771  -8.363  -8.039 -0.08 +0.12    -0.481 OA
DOCKED: ATOM     37  H   UNL d   1      16.659  -9.161  -7.480 +0.07 -0.04    +0.295 HD
DOCKED: ENDBRANCH  34  36
DOCKED: ENDBRANCH  33  34
DOCKED: ENDBRANCH   7  33
DOCKED: BRANCH  27  38
DOCKED: ATOM     38  C   UNL d   1       6.720 -10.260  -8.098 -0.28 -0.00    +0.017 C 
DOCKED: ATOM     39  C   UNL d   1       5.740 -10.299  -7.181 -0.32 +0.00    +0.092 C 
DOCKED: BRANCH  39  40
DOCKED: ATOM     40  C   UNL d   1       4.366  -9.970  -7.567 -0.29 +0.05    +0.330 C 
DOCKED: ATOM     41  O   UNL d   1       3.991  -9.409  -8.580 -0.94 -0.01    -0.246 OA
DOCKED: BRANCH  40  42
DOCKED: ATOM     42  O   UNL d   1       3.508 -10.391  -6.625 -0.59 -0.12    -0.477 OA
DOCKED: ATOM     43  H   UNL d   1       3.543 -11.367  -6.695 +0.16 +0.03    +0.295 HD
DOCKED: ENDBRANCH  40  42
DOCKED: ENDBRANCH  39  40
DOCKED: ENDBRANCH  27  38
DOCKED: BRANCH   8  44
DOCKED: ATOM     44  C   UNL d   1      15.080 -12.619  -1.494 -0.05 -0.02    +0.141 C 
DOCKED: BRANCH  44  45
DOCKED: ATOM     45  C   UNL d   1      15.495 -12.737  -0.051 -0.01 -0.05    +0.306 C 
DOCKED: ATOM     46  O   UNL d   1      16.147 -11.928   0.586 -0.01 +0.04    -0.251 OA
DOCKED: BRANCH  45  47
DOCKED: ATOM     47  O   UNL d   1      15.086 -13.889   0.509 +0.01 +0.07    -0.481 OA
DOCKED: ATOM     48  H   UNL d   1      14.123 -13.767   0.653 +0.03 -0.05    +0.295 HD
DOCKED: ENDBRANCH  45  47
DOCKED: ENDBRANCH  44  45
DOCKED: ENDBRANCH   8  44
DOCKED: BRANCH  22  49
DOCKED: ATOM     49  C   UNL d   1       6.397 -14.903  -4.995 -0.09 -0.01    +0.048 C 
DOCKED: BRANCH  49  50
DOCKED: ATOM     50  C   UNL d   1       5.230 -13.921  -4.894 -0.11 -0.00    +0.125 C 
DOCKED: BRANCH  50  51
DOCKED: ATOM     51  C   UNL d   1       4.480 -13.843  -6.194 -0.11 -0.13    +0.305 C 
DOCKED: ATOM     52  O   UNL d   1       4.491 -12.934  -7.005 -0.20 +0.05    -0.251 OA
DOCKED: BRANCH  51  53
DOCKED: ATOM     53  O   UNL d   1       3.726 -14.940  -6.407 -0.07 +0.45    -0.481 OA
DOCKED: ATOM     54  H   UNL d   1       3.050 -14.905  -5.698 -0.44 -0.61    +0.295 HD
DOCKED: ENDBRANCH  51  53
DOCKED: ENDBRANCH  50  51
DOCKED: ENDBRANCH  49  50
DOCKED: ENDBRANCH  22  49
DOCKED: TORSDOF 13
DOCKED: TER
DOCKED: ENDMDL
________________________________________________________________________________


	BEGINNING GENETIC ALGORITHM DOCKING 15 of 100
Run: 15 Seed: 1311893529 2017024239 [ Run 15 of 100 GA/GALS ]
Beginning LAMARCKIAN GENETIC ALGORITHM (LGA), with a maximum of 25000000 energy evaluations.

Final-Value: -10.557


	FINAL GENETIC ALGORITHM DOCKED STATE
	_______________________________________________


Detailed state:  trans -11.740 10.563 16.715 quatxyzw 0.798905 0.561117 -0.141314 -0.164104 center 0.153 0.018 -0.028 ntor 13 179.4604 130.3864 -109.3834 -110.0828 -86.8277 169.8657 177.2487 -73.8800 141.7488 12.3156 162.9765 -154.9953 -180.0000
State:	-11.740  10.563  16.715   0.810  0.569 -0.143 -161.110    179.46  130.39 -109.38 -110.08  -86.83  169.87  177.25  -73.88  141.75   12.32  162.98 -155.00 -180.00

DOCKED: MODEL       15
DOCKED: USER    Run = 15
DOCKED: USER    DPF = D:/Protein_go_brrr/autodock/final/AncMH_nat/heme/dock.dpf
DOCKED: USER  
DOCKED: USER    Estimated Free Energy of Binding    =   -5.17 kcal/mol  [=(1)+(2)+(3)-(4)]
DOCKED: USER    Estimated Inhibition Constant, Ki   =  161.37 uM (micromolar)  [Temperature = 298.15 K]
DOCKED: USER    
DOCKED: USER    (1) Final Intermolecular Energy     =   -9.05 kcal/mol
DOCKED: USER        vdW + Hbond + desolv Energy     =   -7.95 kcal/mol
DOCKED: USER        Electrostatic Energy            =   -1.10 kcal/mol
DOCKED: USER    (2) Final Total Internal Energy     =   -1.51 kcal/mol
DOCKED: USER    (3) Torsional Free Energy           =   +3.88 kcal/mol
DOCKED: USER    (4) Unbound System's Energy  [=(2)] =   -1.51 kcal/mol
DOCKED: USER    
DOCKED: USER    
DOCKED: USER    NEWDPF move heme_opt.pdbqt
DOCKED: USER    NEWDPF about 0.153000 0.018000 -0.028000
DOCKED: USER    NEWDPF tran0 -11.739961 10.563158 16.715273
DOCKED: USER    NEWDPF quaternion0 0.798905 0.561117 -0.141314 -0.164104
DOCKED: USER    NEWDPF axisangle0 0.809884 0.568828 -0.143256 -161.109663
DOCKED: USER    NEWDPF quat0 0.809884 0.568828 -0.143256 -161.109663
DOCKED: USER    NEWDPF dihe0 179.46 130.39 -109.38 -110.08 -86.83 169.87 177.25 -73.88 141.75 12.32 162.98 -155.00 -180.00 
DOCKED: USER  keepresnum = 1 
DOCKED: USER  
DOCKED: REMARK  13 active torsions:
DOCKED: REMARK  status: ('A' for Active; 'I' for Inactive)
DOCKED: REMARK    1  A    between atoms: O_3  and  C_38 
DOCKED: REMARK    2  A    between atoms: O_4  and  C_40 
DOCKED: REMARK    3  A    between atoms: O_7  and  C_46 
DOCKED: REMARK    4  A    between atoms: O_9  and  C_48 
DOCKED: REMARK    5  A    between atoms: C_15  and  C_20 
DOCKED: REMARK    6  A    between atoms: C_16  and  C_23 
DOCKED: REMARK    7  A    between atoms: C_20  and  C_38 
DOCKED: REMARK    8  A    between atoms: C_23  and  C_40 
DOCKED: REMARK    9  A    between atoms: C_32  and  C_41 
DOCKED: REMARK   10  A    between atoms: C_37  and  C_45 
DOCKED: REMARK   11  A    between atoms: C_41  and  C_44 
DOCKED: REMARK   12  A    between atoms: C_44  and  C_46 
DOCKED: REMARK   13  A    between atoms: C_47  and  C_48 
DOCKED: USER                              x       y       z     vdW  Elec       q    Type
DOCKED: USER                           _______ _______ _______ _____ _____    ______ ____
DOCKED: ROOT
DOCKED: ATOM      1  O   UNL d   1     -12.028   4.986  18.603 -0.03 +0.03    -0.289 OA
DOCKED: ATOM      2  O   UNL d   1     -17.121  10.502  18.733 -0.01 -0.08    -0.289 OA
DOCKED: ATOM      3  N   UNL d   1     -11.352   8.179  17.488 -0.03 +0.03    -0.247 NA
DOCKED: ATOM      4  N   UNL d   1     -13.994   9.531  17.646 -0.02 -0.03    -0.247 NA
DOCKED: ATOM      5  N   UNL d   1     -12.898  11.655  16.048 -0.01 +0.03    -0.354 N 
DOCKED: ATOM      6  N   UNL d   1     -10.167  10.236  15.872 -0.09 +0.06    -0.354 N 
DOCKED: ATOM      7  C   UNL d   1     -10.137   6.050  17.479 -0.22 -0.03    +0.084 A 
DOCKED: ATOM      8  C   UNL d   1     -15.597   8.665  19.275 -0.02 +0.02    +0.084 A 
DOCKED: ATOM      9  C   UNL d   1     -14.245   8.536  18.565 -0.03 +0.01    +0.058 A 
DOCKED: ATOM     10  C   UNL d   1     -10.183   7.537  17.115 -0.19 -0.02    +0.058 A 
DOCKED: ATOM     11  C   UNL d   1     -11.480   5.969  18.140 -0.06 -0.03    +0.193 A 
DOCKED: ATOM     12  C   UNL d   1     -12.106   7.328  18.105 -0.05 -0.01    +0.109 A 
DOCKED: ATOM     13  C   UNL d   1     -16.082   9.895  18.561 -0.02 +0.05    +0.193 A 
DOCKED: ATOM     14  C   UNL d   1     -10.141   5.155  16.238 -0.40 -0.01    +0.026 C 
DOCKED: ATOM     15  C   UNL d   1     -13.404   7.514  18.785 -0.04 +0.00    +0.055 C 
DOCKED: ATOM     16  C   UNL d   1     -15.429   8.992  20.761 -0.00 +0.00    +0.026 C 
DOCKED: ATOM     17  C   UNL d   1     -15.022  10.315  17.596 -0.03 +0.02    +0.109 A 
DOCKED: ATOM     18  C   UNL d   1      -9.125   8.159  16.563 -0.34 -0.02    +0.050 C 
DOCKED: ATOM     19  C   UNL d   1      -9.045   9.545  16.270 -0.25 -0.01    +0.045 A 
DOCKED: ATOM     20  C   UNL d   1     -14.223  12.009  16.034 -0.05 -0.00    +0.045 A 
DOCKED: ATOM     21  C   UNL d   1     -15.239  11.476  16.719 -0.04 +0.01    +0.057 C 
DOCKED: ATOM     22  C   UNL d   1     -13.079  13.376  14.606 -0.17 +0.01    -0.019 A 
DOCKED: ATOM     23  C   UNL d   1     -12.129  12.424  15.216 -0.19 -0.01    +0.045 A 
DOCKED: ATOM     24  C   UNL d   1     -14.316  13.126  15.096 -0.06 +0.00    -0.022 A 
DOCKED: ATOM     25  C   UNL d   1      -9.847  11.536  15.554 -0.21 -0.01    +0.049 A 
DOCKED: ATOM     26  C   UNL d   1      -7.976  10.426  16.245 -0.25 +0.00    -0.018 A 
DOCKED: ATOM     27  C   UNL d   1      -8.491  11.687  15.811 -0.28 -0.00    +0.003 A 
DOCKED: ATOM     28  C   UNL d   1     -10.810  12.402  14.969 -0.21 -0.02    +0.052 C 
DOCKED: ATOM     29  C   UNL d   1     -15.598  13.826  14.794 -0.04 -0.00    +0.046 C 
DOCKED: ATOM     30  C   UNL d   1      -6.561  10.120  16.604 -0.22 -0.02    +0.046 C 
DOCKED: ATOM     31  H   UNL d   1     -12.550  10.944  16.682 +0.04 -0.01    +0.166 HD
DOCKED: ATOM     32  H   UNL d   1     -11.086   9.815  15.792 +0.07 -0.02    +0.166 HD
DOCKED: ENDROOT
DOCKED: BRANCH   7  33
DOCKED: ATOM     33  C   UNL d   1      -9.029   5.648  18.459 -0.14 -0.09    +0.141 C 
DOCKED: BRANCH  33  34
DOCKED: ATOM     34  C   UNL d   1      -8.894   4.156  18.600 -0.12 -0.15    +0.306 C 
DOCKED: ATOM     35  O   UNL d   1      -9.797   3.341  18.523 -0.22 +0.05    -0.251 OA
DOCKED: BRANCH  34  36
DOCKED: ATOM     36  O   UNL d   1      -7.626   3.770  18.827 -0.05 +0.44    -0.481 OA
DOCKED: ATOM     37  H   UNL d   1      -7.105   4.600  18.789 -0.48 -0.63    +0.295 HD
DOCKED: ENDBRANCH  34  36
DOCKED: ENDBRANCH  33  34
DOCKED: ENDBRANCH   7  33
DOCKED: BRANCH  27  38
DOCKED: ATOM     38  C   UNL d   1      -7.717  12.877  15.631 -0.24 -0.00    +0.017 C 
DOCKED: ATOM     39  C   UNL d   1      -6.703  13.018  14.764 -0.18 -0.02    +0.092 C 
DOCKED: BRANCH  39  40
DOCKED: ATOM     40  C   UNL d   1      -6.000  14.299  14.664 -0.20 -0.06    +0.330 C 
DOCKED: ATOM     41  O   UNL d   1      -4.952  14.530  14.091 -0.22 +0.01    -0.246 OA
DOCKED: BRANCH  40  42
DOCKED: ATOM     42  O   UNL d   1      -6.687  15.255  15.308 -0.13 +0.13    -0.477 OA
DOCKED: ATOM     43  H   UNL d   1      -7.599  15.161  14.963 -0.23 -0.18    +0.295 HD
DOCKED: ENDBRANCH  40  42
DOCKED: ENDBRANCH  39  40
DOCKED: ENDBRANCH  27  38
DOCKED: BRANCH   8  44
DOCKED: ATOM     44  C   UNL d   1     -16.564   7.495  19.070 -0.05 +0.06    +0.141 C 
DOCKED: BRANCH  44  45
DOCKED: ATOM     45  C   UNL d   1     -16.514   6.918  17.680 -0.06 +0.26    +0.306 C 
DOCKED: ATOM     46  O   UNL d   1     -16.451   5.737  17.385 -0.10 -0.18    -0.251 OA
DOCKED: BRANCH  45  47
DOCKED: ATOM     47  O   UNL d   1     -16.519   7.869  16.728 -0.29 -0.72    -0.481 OA
DOCKED: ATOM     48  H   UNL d   1     -15.643   8.302  16.806 +0.04 +0.21    +0.295 HD
DOCKED: ENDBRANCH  45  47
DOCKED: ENDBRANCH  44  45
DOCKED: ENDBRANCH   8  44
DOCKED: BRANCH  22  49
DOCKED: ATOM     49  C   UNL d   1     -12.695  14.422  13.601 -0.30 -0.03    +0.048 C 
DOCKED: BRANCH  49  50
DOCKED: ATOM     50  C   UNL d   1     -12.948  13.954  12.168 -0.31 -0.07    +0.125 C 
DOCKED: BRANCH  50  51
DOCKED: ATOM     51  C   UNL d   1     -13.137  12.464  12.116 -0.32 -0.10    +0.305 C 
DOCKED: ATOM     52  O   UNL d   1     -12.272  11.605  12.126 -0.45 +0.05    -0.251 OA
DOCKED: BRANCH  51  53
DOCKED: ATOM     53  O   UNL d   1     -14.438  12.123  12.040 -0.15 +0.15    -0.481 OA
DOCKED: ATOM     54  H   UNL d   1     -14.707  12.410  11.142 -0.35 -0.20    +0.295 HD
DOCKED: ENDBRANCH  51  53
DOCKED: ENDBRANCH  50  51
DOCKED: ENDBRANCH  49  50
DOCKED: ENDBRANCH  22  49
DOCKED: TORSDOF 13
DOCKED: TER
DOCKED: ENDMDL
________________________________________________________________________________


	BEGINNING GENETIC ALGORITHM DOCKING 16 of 100
Run: 16 Seed: 692398359 1004050566 [ Run 16 of 100 GA/GALS ]
Beginning LAMARCKIAN GENETIC ALGORITHM (LGA), with a maximum of 25000000 energy evaluations.

Final-Value: -11.932


	FINAL GENETIC ALGORITHM DOCKED STATE
	_______________________________________________


Detailed state:  trans 9.923 -12.354 -5.663 quatxyzw 0.036548 -0.458297 -0.886634 -0.050075 center 0.153 0.018 -0.028 ntor 13 127.2852 102.7289 -68.3912 109.1050 -133.6077 176.1561 121.7720 -96.1383 23.3182 22.8441 -67.7653 -155.6337 9.5304
State:	  9.923 -12.354  -5.663   0.037 -0.459 -0.888 -174.259    127.29  102.73  -68.39  109.11 -133.61  176.16  121.77  -96.14   23.32   22.84  -67.77 -155.63    9.53

DOCKED: MODEL       16
DOCKED: USER    Run = 16
DOCKED: USER    DPF = D:/Protein_go_brrr/autodock/final/AncMH_nat/heme/dock.dpf
DOCKED: USER  
DOCKED: USER    Estimated Free Energy of Binding    =   -5.22 kcal/mol  [=(1)+(2)+(3)-(4)]
DOCKED: USER    Estimated Inhibition Constant, Ki   =  148.77 uM (micromolar)  [Temperature = 298.15 K]
DOCKED: USER    
DOCKED: USER    (1) Final Intermolecular Energy     =   -9.10 kcal/mol
DOCKED: USER        vdW + Hbond + desolv Energy     =   -9.00 kcal/mol
DOCKED: USER        Electrostatic Energy            =   -0.10 kcal/mol
DOCKED: USER    (2) Final Total Internal Energy     =   -2.83 kcal/mol
DOCKED: USER    (3) Torsional Free Energy           =   +3.88 kcal/mol
DOCKED: USER    (4) Unbound System's Energy  [=(2)] =   -2.83 kcal/mol
DOCKED: USER    
DOCKED: USER    
DOCKED: USER    NEWDPF move heme_opt.pdbqt
DOCKED: USER    NEWDPF about 0.153000 0.018000 -0.028000
DOCKED: USER    NEWDPF tran0 9.923103 -12.353952 -5.662895
DOCKED: USER    NEWDPF quaternion0 0.036548 -0.458297 -0.886634 -0.050075
DOCKED: USER    NEWDPF axisangle0 0.036594 -0.458873 -0.887748 -174.259401
DOCKED: USER    NEWDPF quat0 0.036594 -0.458873 -0.887748 -174.259401
DOCKED: USER    NEWDPF dihe0 127.29 102.73 -68.39 109.11 -133.61 176.16 121.77 -96.14 23.32 22.84 -67.77 -155.63 9.53 
DOCKED: USER  keepresnum = 1 
DOCKED: USER  
DOCKED: REMARK  13 active torsions:
DOCKED: REMARK  status: ('A' for Active; 'I' for Inactive)
DOCKED: REMARK    1  A    between atoms: O_3  and  C_38 
DOCKED: REMARK    2  A    between atoms: O_4  and  C_40 
DOCKED: REMARK    3  A    between atoms: O_7  and  C_46 
DOCKED: REMARK    4  A    between atoms: O_9  and  C_48 
DOCKED: REMARK    5  A    between atoms: C_15  and  C_20 
DOCKED: REMARK    6  A    between atoms: C_16  and  C_23 
DOCKED: REMARK    7  A    between atoms: C_20  and  C_38 
DOCKED: REMARK    8  A    between atoms: C_23  and  C_40 
DOCKED: REMARK    9  A    between atoms: C_32  and  C_41 
DOCKED: REMARK   10  A    between atoms: C_37  and  C_45 
DOCKED: REMARK   11  A    between atoms: C_41  and  C_44 
DOCKED: REMARK   12  A    between atoms: C_44  and  C_46 
DOCKED: REMARK   13  A    between atoms: C_47  and  C_48 
DOCKED: USER                              x       y       z     vdW  Elec       q    Type
DOCKED: USER                           _______ _______ _______ _____ _____    ______ ____
DOCKED: ROOT
DOCKED: ATOM      1  O   UNL d   1      15.513 -12.115  -3.804 -0.03 +0.04    -0.289 OA
DOCKED: ATOM      2  O   UNL d   1      12.467 -10.520 -10.480 -0.05 +0.14    -0.289 OA
DOCKED: ATOM      3  N   UNL d   1      12.157 -12.541  -4.476 -0.11 +0.07    -0.247 NA
DOCKED: ATOM      4  N   UNL d   1      11.852 -11.385  -7.196 -0.10 +0.09    -0.247 NA
DOCKED: ATOM      5  N   UNL d   1       9.006 -11.431  -6.797 +0.03 +0.14    -0.354 N 
DOCKED: ATOM      6  N   UNL d   1       9.331 -12.611  -3.968 -0.04 +0.09    -0.354 N 
DOCKED: ATOM      7  C   UNL d   1      13.556 -12.725  -2.472 -0.10 -0.02    +0.084 A 
DOCKED: ATOM      8  C   UNL d   1      13.827 -11.380  -8.636 -0.04 -0.03    +0.084 A 
DOCKED: ATOM      9  C   UNL d   1      13.202 -11.652  -7.264 -0.09 -0.02    +0.058 A 
DOCKED: ATOM     10  C   UNL d   1      12.171 -12.816  -3.119 -0.17 -0.02    +0.058 A 
DOCKED: ATOM     11  C   UNL d   1      14.326 -12.367  -3.708 -0.06 -0.04    +0.193 A 
DOCKED: ATOM     12  C   UNL d   1      13.370 -12.311  -4.859 -0.11 -0.02    +0.109 A 
DOCKED: ATOM     13  C   UNL d   1      12.591 -10.874  -9.324 -0.05 -0.08    +0.193 A 
DOCKED: ATOM     14  C   UNL d   1      13.650 -11.565  -1.477 -0.18 -0.01    +0.026 C 
DOCKED: ATOM     15  C   UNL d   1      13.920 -12.065  -6.208 -0.09 -0.01    +0.055 C 
DOCKED: ATOM     16  C   UNL d   1      14.278 -12.673  -9.321 -0.01 -0.01    +0.026 C 
DOCKED: ATOM     17  C   UNL d   1      11.466 -10.920  -8.341 -0.13 -0.04    +0.109 A 
DOCKED: ATOM     18  C   UNL d   1      11.094 -13.221  -2.420 -0.18 -0.02    +0.050 C 
DOCKED: ATOM     19  C   UNL d   1       9.794 -13.416  -2.952 -0.20 -0.01    +0.045 A 
DOCKED: ATOM     20  C   UNL d   1       9.069 -10.698  -7.953 -0.23 -0.01    +0.045 A 
DOCKED: ATOM     21  C   UNL d   1      10.131 -10.440  -8.724 -0.22 -0.02    +0.057 C 
DOCKED: ATOM     22  C   UNL d   1       6.913 -10.702  -7.200 -0.30 +0.00    -0.019 A 
DOCKED: ATOM     23  C   UNL d   1       7.744 -11.489  -6.267 -0.17 -0.01    +0.045 A 
DOCKED: ATOM     24  C   UNL d   1       7.703 -10.237  -8.196 -0.23 +0.00    -0.022 A 
DOCKED: ATOM     25  C   UNL d   1       8.023 -12.914  -4.266 -0.23 -0.00    +0.049 A 
DOCKED: ATOM     26  C   UNL d   1       8.773 -14.288  -2.606 -0.13 +0.00    -0.018 A 
DOCKED: ATOM     27  C   UNL d   1       7.664 -13.979  -3.453 -0.17 +0.00    +0.003 A 
DOCKED: ATOM     28  C   UNL d   1       7.278 -12.113  -5.174 -0.27 +0.00    +0.052 C 
DOCKED: ATOM     29  C   UNL d   1       7.326  -9.406  -9.376 -0.29 -0.01    +0.046 C 
DOCKED: ATOM     30  C   UNL d   1       8.823 -15.346  -1.556 -0.05 -0.00    +0.046 C 
DOCKED: ATOM     31  H   UNL d   1       9.815 -11.930  -6.445 -0.15 -0.07    +0.166 HD
DOCKED: ATOM     32  H   UNL d   1       9.881 -11.875  -4.394 -0.42 -0.11    +0.166 HD
DOCKED: ENDROOT
DOCKED: BRANCH   7  33
DOCKED: ATOM     33  C   UNL d   1      14.086 -14.029  -1.867 -0.03 -0.02    +0.141 C 
DOCKED: BRANCH  33  34
DOCKED: ATOM     34  C   UNL d   1      14.465 -15.041  -2.914 +0.00 -0.04    +0.306 C 
DOCKED: ATOM     35  O   UNL d   1      13.698 -15.766  -3.526 -0.00 +0.03    -0.251 OA
DOCKED: BRANCH  34  36
DOCKED: ATOM     36  O   UNL d   1      15.790 -15.085  -3.138 +0.00 +0.06    -0.481 OA
DOCKED: ATOM     37  H   UNL d   1      16.033 -14.161  -3.362 +0.01 -0.04    +0.295 HD
DOCKED: ENDBRANCH  34  36
DOCKED: ENDBRANCH  33  34
DOCKED: ENDBRANCH   7  33
DOCKED: BRANCH  27  38
DOCKED: ATOM     38  C   UNL d   1       6.392 -14.636  -3.418 -0.15 +0.00    +0.017 C 
DOCKED: ATOM     39  C   UNL d   1       5.563 -14.663  -2.363 -0.15 +0.01    +0.092 C 
DOCKED: BRANCH  39  40
DOCKED: ATOM     40  C   UNL d   1       4.276 -15.357  -2.463 -0.07 -0.05    +0.330 C 
DOCKED: ATOM     41  O   UNL d   1       3.467 -15.555  -1.577 -0.12 +0.01    -0.246 OA
DOCKED: BRANCH  40  42
DOCKED: ATOM     42  O   UNL d   1       4.072 -15.771  -3.724 -0.04 +0.30    -0.477 OA
DOCKED: ATOM     43  H   UNL d   1       3.800 -14.957  -4.196 -0.46 -0.41    +0.295 HD
DOCKED: ENDBRANCH  40  42
DOCKED: ENDBRANCH  39  40
DOCKED: ENDBRANCH  27  38
DOCKED: BRANCH   8  44
DOCKED: ATOM     44  C   UNL d   1      14.938 -10.325  -8.657 -0.11 -0.05    +0.141 C 
DOCKED: BRANCH  44  45
DOCKED: ATOM     45  C   UNL d   1      14.814  -9.308  -7.554 -0.23 -0.12    +0.306 C 
DOCKED: ATOM     46  O   UNL d   1      15.115  -9.464  -6.384 -0.62 +0.01    -0.251 OA
DOCKED: BRANCH  45  47
DOCKED: ATOM     47  O   UNL d   1      14.285  -8.147  -7.982 -0.25 +0.40    -0.481 OA
DOCKED: ATOM     48  H   UNL d   1      13.399  -8.109  -7.564 -0.35 -0.31    +0.295 HD
DOCKED: ENDBRANCH  45  47
DOCKED: ENDBRANCH  44  45
DOCKED: ENDBRANCH   8  44
DOCKED: BRANCH  22  49
DOCKED: ATOM     49  C   UNL d   1       5.442 -10.466  -7.024 -0.42 +0.00    +0.048 C 
DOCKED: BRANCH  49  50
DOCKED: ATOM     50  C   UNL d   1       4.623 -11.717  -7.343 -0.23 +0.01    +0.125 C 
DOCKED: BRANCH  50  51
DOCKED: ATOM     51  C   UNL d   1       3.961 -12.255  -6.107 -0.16 +0.01    +0.305 C 
DOCKED: ATOM     52  O   UNL d   1       4.305 -13.212  -5.436 -0.43 +0.03    -0.251 OA
DOCKED: BRANCH  51  53
DOCKED: ATOM     53  O   UNL d   1       2.862 -11.549  -5.775 -0.26 -0.09    -0.481 OA
DOCKED: ATOM     54  H   UNL d   1       3.216 -10.695  -5.449 -0.32 +0.12    +0.295 HD
DOCKED: ENDBRANCH  51  53
DOCKED: ENDBRANCH  50  51
DOCKED: ENDBRANCH  49  50
DOCKED: ENDBRANCH  22  49
DOCKED: TORSDOF 13
DOCKED: TER
DOCKED: ENDMDL
________________________________________________________________________________


	BEGINNING GENETIC ALGORITHM DOCKING 17 of 100
Run: 17 Seed: 318355519 2010531353 [ Run 17 of 100 GA/GALS ]
Beginning LAMARCKIAN GENETIC ALGORITHM (LGA), with a maximum of 25000000 energy evaluations.

Final-Value: -11.682


	FINAL GENETIC ALGORITHM DOCKED STATE
	_______________________________________________


Detailed state:  trans -12.646 -0.055 0.403 quatxyzw 0.352602 0.410503 0.418377 0.729466 center 0.153 0.018 -0.028 ntor 13 109.7403 -173.2038 -165.6482 23.1579 36.8594 0.2294 137.9830 141.9034 -175.9990 -9.7791 41.4562 -168.7359 -20.7351
State:	-12.646  -0.055   0.403   0.515  0.600  0.612 86.317    109.74 -173.20 -165.65   23.16   36.86    0.23  137.98  141.90 -176.00   -9.78   41.46 -168.74  -20.74

DOCKED: MODEL       17
DOCKED: USER    Run = 17
DOCKED: USER    DPF = D:/Protein_go_brrr/autodock/final/AncMH_nat/heme/dock.dpf
DOCKED: USER  
DOCKED: USER    Estimated Free Energy of Binding    =   -6.12 kcal/mol  [=(1)+(2)+(3)-(4)]
DOCKED: USER    Estimated Inhibition Constant, Ki   =   32.89 uM (micromolar)  [Temperature = 298.15 K]
DOCKED: USER    
DOCKED: USER    (1) Final Intermolecular Energy     =   -9.99 kcal/mol
DOCKED: USER        vdW + Hbond + desolv Energy     =   -9.41 kcal/mol
DOCKED: USER        Electrostatic Energy            =   -0.58 kcal/mol
DOCKED: USER    (2) Final Total Internal Energy     =   -1.69 kcal/mol
DOCKED: USER    (3) Torsional Free Energy           =   +3.88 kcal/mol
DOCKED: USER    (4) Unbound System's Energy  [=(2)] =   -1.69 kcal/mol
DOCKED: USER    
DOCKED: USER    
DOCKED: USER    NEWDPF move heme_opt.pdbqt
DOCKED: USER    NEWDPF about 0.153000 0.018000 -0.028000
DOCKED: USER    NEWDPF tran0 -12.645732 -0.055315 0.403031
DOCKED: USER    NEWDPF quaternion0 0.352602 0.410503 0.418377 0.729466
DOCKED: USER    NEWDPF axisangle0 0.515487 0.600135 0.611647 86.316733
DOCKED: USER    NEWDPF quat0 0.515487 0.600135 0.611647 86.316733
DOCKED: USER    NEWDPF dihe0 109.74 -173.20 -165.65 23.16 36.86 0.23 137.98 141.90 -176.00 -9.78 41.46 -168.74 -20.74 
DOCKED: USER  keepresnum = 1 
DOCKED: USER  
DOCKED: REMARK  13 active torsions:
DOCKED: REMARK  status: ('A' for Active; 'I' for Inactive)
DOCKED: REMARK    1  A    between atoms: O_3  and  C_38 
DOCKED: REMARK    2  A    between atoms: O_4  and  C_40 
DOCKED: REMARK    3  A    between atoms: O_7  and  C_46 
DOCKED: REMARK    4  A    between atoms: O_9  and  C_48 
DOCKED: REMARK    5  A    between atoms: C_15  and  C_20 
DOCKED: REMARK    6  A    between atoms: C_16  and  C_23 
DOCKED: REMARK    7  A    between atoms: C_20  and  C_38 
DOCKED: REMARK    8  A    between atoms: C_23  and  C_40 
DOCKED: REMARK    9  A    between atoms: C_32  and  C_41 
DOCKED: REMARK   10  A    between atoms: C_37  and  C_45 
DOCKED: REMARK   11  A    between atoms: C_41  and  C_44 
DOCKED: REMARK   12  A    between atoms: C_44  and  C_46 
DOCKED: REMARK   13  A    between atoms: C_47  and  C_48 
DOCKED: USER                              x       y       z     vdW  Elec       q    Type
DOCKED: USER                           _______ _______ _______ _____ _____    ______ ____
DOCKED: ROOT
DOCKED: ATOM      1  O   UNL d   1     -13.078   2.979  -4.633 -0.01 -0.03    -0.289 OA
DOCKED: ATOM      2  O   UNL d   1     -17.358  -2.502  -1.798 -0.09 -0.27    -0.289 OA
DOCKED: ATOM      3  N   UNL d   1     -12.346   1.384  -1.664 -0.10 -0.19    -0.247 NA
DOCKED: ATOM      4  N   UNL d   1     -14.709  -0.365  -1.228 -0.11 -0.31    -0.247 NA
DOCKED: ATOM      5  N   UNL d   1     -13.805  -0.756   1.473 -0.12 -0.42    -0.354 N 
DOCKED: ATOM      6  N   UNL d   1     -11.367   1.075   1.018 -0.09 -0.25    -0.354 N 
DOCKED: ATOM      7  C   UNL d   1     -11.408   3.296  -2.877 -0.14 +0.01    +0.084 A 
DOCKED: ATOM      8  C   UNL d   1     -15.958  -1.071  -3.206 -0.08 +0.06    +0.084 A 
DOCKED: ATOM      9  C   UNL d   1     -14.839  -0.224  -2.592 -0.11 +0.05    +0.058 A 
DOCKED: ATOM     10  C   UNL d   1     -11.378   2.373  -1.654 -0.19 +0.03    +0.058 A 
DOCKED: ATOM     11  C   UNL d   1     -12.553   2.640  -3.588 -0.04 +0.05    +0.193 A 
DOCKED: ATOM     12  C   UNL d   1     -13.018   1.479  -2.765 -0.09 +0.07    +0.109 A 
DOCKED: ATOM     13  C   UNL d   1     -16.463  -1.690  -1.934 -0.08 +0.19    +0.193 A 
DOCKED: ATOM     14  C   UNL d   1     -11.808   4.726  -2.507 -0.22 +0.01    +0.026 C 
DOCKED: ATOM     15  C   UNL d   1     -14.087   0.620  -3.315 -0.10 +0.03    +0.055 C 
DOCKED: ATOM     16  C   UNL d   1     -15.403  -2.178  -4.107 -0.13 +0.02    +0.026 C 
DOCKED: ATOM     17  C   UNL d   1     -15.627  -1.175  -0.808 -0.13 +0.14    +0.109 A 
DOCKED: ATOM     18  C   UNL d   1     -10.422   2.485  -0.713 -0.24 +0.02    +0.050 C 
DOCKED: ATOM     19  C   UNL d   1     -10.265   1.626   0.405 -0.28 +0.02    +0.045 A 
DOCKED: ATOM     20  C   UNL d   1     -15.046  -1.331   1.555 -0.19 +0.05    +0.045 A 
DOCKED: ATOM     21  C   UNL d   1     -15.920  -1.580   0.575 -0.16 +0.07    +0.057 C 
DOCKED: ATOM     22  C   UNL d   1     -14.137  -1.238   3.648 -0.23 -0.01    -0.019 A 
DOCKED: ATOM     23  C   UNL d   1     -13.178  -0.657   2.687 -0.26 +0.04    +0.045 A 
DOCKED: ATOM     24  C   UNL d   1     -15.240  -1.637   2.972 -0.17 -0.02    -0.022 A 
DOCKED: ATOM     25  C   UNL d   1     -10.993   0.354   2.128 -0.28 +0.02    +0.049 A 
DOCKED: ATOM     26  C   UNL d   1      -9.143   1.224   1.113 -0.37 -0.00    -0.018 A 
DOCKED: ATOM     27  C   UNL d   1      -9.607   0.405   2.188 -0.36 +0.00    +0.003 A 
DOCKED: ATOM     28  C   UNL d   1     -11.968  -0.179   3.014 -0.21 +0.03    +0.052 C 
DOCKED: ATOM     29  C   UNL d   1     -16.472  -2.289   3.499 -0.11 +0.03    +0.046 C 
DOCKED: ATOM     30  C   UNL d   1      -7.726   1.575   0.810 -0.46 +0.01    +0.046 C 
DOCKED: ATOM     31  H   UNL d   1     -13.393  -0.517   0.577 +0.06 +0.20    +0.166 HD
DOCKED: ATOM     32  H   UNL d   1     -12.318   1.226   0.703 +0.07 +0.21    +0.166 HD
DOCKED: ENDROOT
DOCKED: BRANCH   7  33
DOCKED: ATOM     33  C   UNL d   1     -10.148   3.272  -3.749 -0.22 -0.03    +0.141 C 
DOCKED: BRANCH  33  34
DOCKED: ATOM     34  C   UNL d   1      -9.598   4.648  -4.011 -0.20 -0.13    +0.306 C 
DOCKED: ATOM     35  O   UNL d   1      -8.764   5.230  -3.338 -0.33 +0.06    -0.251 OA
DOCKED: BRANCH  34  36
DOCKED: ATOM     36  O   UNL d   1     -10.127   5.217  -5.108 -0.05 +0.41    -0.481 OA
DOCKED: ATOM     37  H   UNL d   1      -9.721   4.733  -5.858 -0.45 -0.68    +0.295 HD
DOCKED: ENDBRANCH  34  36
DOCKED: ENDBRANCH  33  34
DOCKED: ENDBRANCH   7  33
DOCKED: BRANCH  27  38
DOCKED: ATOM     38  C   UNL d   1      -8.773  -0.209   3.177 -0.32 +0.00    +0.017 C 
DOCKED: ATOM     39  C   UNL d   1      -7.802   0.412   3.865 -0.32 +0.02    +0.092 C 
DOCKED: BRANCH  39  40
DOCKED: ATOM     40  C   UNL d   1      -7.029  -0.328   4.866 -0.25 +0.06    +0.330 C 
DOCKED: ATOM     41  O   UNL d   1      -7.169  -1.488   5.205 -0.85 -0.06    -0.246 OA
DOCKED: BRANCH  40  42
DOCKED: ATOM     42  O   UNL d   1      -6.084   0.463   5.396 -0.06 -0.03    -0.477 OA
DOCKED: ATOM     43  H   UNL d   1      -6.276   1.345   5.017 +0.17 +0.02    +0.295 HD
DOCKED: ENDBRANCH  40  42
DOCKED: ENDBRANCH  39  40
DOCKED: ENDBRANCH  27  38
DOCKED: BRANCH   8  44
DOCKED: ATOM     44  C   UNL d   1     -17.068  -0.286  -3.913 -0.01 +0.07    +0.141 C 
DOCKED: BRANCH  44  45
DOCKED: ATOM     45  C   UNL d   1     -17.780   0.683  -3.007 +0.01 +0.18    +0.306 C 
DOCKED: ATOM     46  O   UNL d   1     -17.519   1.864  -2.857 -0.01 -0.17    -0.251 OA
DOCKED: BRANCH  45  47
DOCKED: ATOM     47  O   UNL d   1     -18.773   0.102  -2.311 +0.02 -0.28    -0.481 OA
DOCKED: ATOM     48  H   UNL d   1     -18.624  -0.861  -2.423 +0.02 +0.17    +0.295 HD
DOCKED: ENDBRANCH  45  47
DOCKED: ENDBRANCH  44  45
DOCKED: ENDBRANCH   8  44
DOCKED: BRANCH  22  49
DOCKED: ATOM     49  C   UNL d   1     -13.894  -1.335   5.126 -0.26 +0.02    +0.048 C 
DOCKED: BRANCH  49  50
DOCKED: ATOM     50  C   UNL d   1     -13.540  -2.760   5.552 -0.30 +0.04    +0.125 C 
DOCKED: BRANCH  50  51
DOCKED: ATOM     51  C   UNL d   1     -14.246  -3.131   6.824 -0.19 +0.07    +0.305 C 
DOCKED: ATOM     52  O   UNL d   1     -14.821  -4.175   7.078 -0.28 -0.07    -0.251 OA
DOCKED: BRANCH  51  53
DOCKED: ATOM     53  O   UNL d   1     -14.203  -2.136   7.734 -0.15 -0.05    -0.481 OA
DOCKED: ATOM     54  H   UNL d   1     -14.338  -2.592   8.591 -0.37 -0.05    +0.295 HD
DOCKED: ENDBRANCH  51  53
DOCKED: ENDBRANCH  50  51
DOCKED: ENDBRANCH  49  50
DOCKED: ENDBRANCH  22  49
DOCKED: TORSDOF 13
DOCKED: TER
DOCKED: ENDMDL
________________________________________________________________________________


	BEGINNING GENETIC ALGORITHM DOCKING 18 of 100
Run: 18 Seed: 1454019999 816583623 [ Run 18 of 100 GA/GALS ]
Beginning LAMARCKIAN GENETIC ALGORITHM (LGA), with a maximum of 25000000 energy evaluations.

Final-Value: -10.214


	FINAL GENETIC ALGORITHM DOCKED STATE
	_______________________________________________


Detailed state:  trans -12.487 -19.690 2.764 quatxyzw 0.788606 0.156715 0.435118 0.405232 center 0.153 0.018 -0.028 ntor 13 -100.2284 -79.2905 -113.6276 -110.1212 34.0086 99.9493 120.3497 -91.3037 129.2203 -35.6920 -143.3319 -161.8806 -6.1725
State:	-12.487 -19.690   2.764   0.863  0.171  0.476 132.189   -100.23  -79.29 -113.63 -110.12   34.01   99.95  120.35  -91.30  129.22  -35.69 -143.33 -161.88   -6.17

DOCKED: MODEL       18
DOCKED: USER    Run = 18
DOCKED: USER    DPF = D:/Protein_go_brrr/autodock/final/AncMH_nat/heme/dock.dpf
DOCKED: USER  
DOCKED: USER    Estimated Free Energy of Binding    =   -3.69 kcal/mol  [=(1)+(2)+(3)-(4)]
DOCKED: USER    Estimated Inhibition Constant, Ki   =    1.97 mM (millimolar)  [Temperature = 298.15 K]
DOCKED: USER    
DOCKED: USER    (1) Final Intermolecular Energy     =   -7.57 kcal/mol
DOCKED: USER        vdW + Hbond + desolv Energy     =   -7.16 kcal/mol
DOCKED: USER        Electrostatic Energy            =   -0.41 kcal/mol
DOCKED: USER    (2) Final Total Internal Energy     =   -2.65 kcal/mol
DOCKED: USER    (3) Torsional Free Energy           =   +3.88 kcal/mol
DOCKED: USER    (4) Unbound System's Energy  [=(2)] =   -2.65 kcal/mol
DOCKED: USER    
DOCKED: USER    
DOCKED: USER    NEWDPF move heme_opt.pdbqt
DOCKED: USER    NEWDPF about 0.153000 0.018000 -0.028000
DOCKED: USER    NEWDPF tran0 -12.486874 -19.689592 2.764015
DOCKED: USER    NEWDPF quaternion0 0.788606 0.156715 0.435118 0.405232
DOCKED: USER    NEWDPF axisangle0 0.862606 0.171421 0.475948 132.188726
DOCKED: USER    NEWDPF quat0 0.862606 0.171421 0.475948 132.188726
DOCKED: USER    NEWDPF dihe0 -100.23 -79.29 -113.63 -110.12 34.01 99.95 120.35 -91.30 129.22 -35.69 -143.33 -161.88 -6.17 
DOCKED: USER  keepresnum = 1 
DOCKED: USER  
DOCKED: REMARK  13 active torsions:
DOCKED: REMARK  status: ('A' for Active; 'I' for Inactive)
DOCKED: REMARK    1  A    between atoms: O_3  and  C_38 
DOCKED: REMARK    2  A    between atoms: O_4  and  C_40 
DOCKED: REMARK    3  A    between atoms: O_7  and  C_46 
DOCKED: REMARK    4  A    between atoms: O_9  and  C_48 
DOCKED: REMARK    5  A    between atoms: C_15  and  C_20 
DOCKED: REMARK    6  A    between atoms: C_16  and  C_23 
DOCKED: REMARK    7  A    between atoms: C_20  and  C_38 
DOCKED: REMARK    8  A    between atoms: C_23  and  C_40 
DOCKED: REMARK    9  A    between atoms: C_32  and  C_41 
DOCKED: REMARK   10  A    between atoms: C_37  and  C_45 
DOCKED: REMARK   11  A    between atoms: C_41  and  C_44 
DOCKED: REMARK   12  A    between atoms: C_44  and  C_46 
DOCKED: REMARK   13  A    between atoms: C_47  and  C_48 
DOCKED: USER                              x       y       z     vdW  Elec       q    Type
DOCKED: USER                           _______ _______ _______ _____ _____    ______ ____
DOCKED: ROOT
DOCKED: ATOM      1  O   UNL d   1     -14.322 -19.647  -2.838 -0.04 -0.02    -0.289 OA
DOCKED: ATOM      2  O   UNL d   1     -17.797 -17.617   3.502 -0.05 -0.01    -0.289 OA
DOCKED: ATOM      3  N   UNL d   1     -12.875 -19.980   0.274 -0.09 -0.02    -0.247 NA
DOCKED: ATOM      4  N   UNL d   1     -14.831 -18.663   2.082 -0.06 -0.02    -0.247 NA
DOCKED: ATOM      5  N   UNL d   1     -12.814 -18.687   4.131 -0.13 -0.01    -0.354 N 
DOCKED: ATOM      6  N   UNL d   1     -10.784 -20.036   2.243 -0.05 +0.03    -0.354 N 
DOCKED: ATOM      7  C   UNL d   1     -12.110 -20.303  -2.032 -0.08 +0.01    +0.084 A 
DOCKED: ATOM      8  C   UNL d   1     -17.162 -18.604   1.354 -0.06 +0.00    +0.084 A 
DOCKED: ATOM      9  C   UNL d   1     -15.700 -18.946   1.052 -0.09 +0.00    +0.058 A 
DOCKED: ATOM     10  C   UNL d   1     -11.805 -20.335  -0.531 -0.14 +0.00    +0.058 A 
DOCKED: ATOM     11  C   UNL d   1     -13.546 -19.885  -1.931 -0.06 +0.02    +0.193 A 
DOCKED: ATOM     12  C   UNL d   1     -13.897 -19.748  -0.482 +0.01 +0.01    +0.109 A 
DOCKED: ATOM     13  C   UNL d   1     -16.957 -18.040   2.731 -0.08 +0.01    +0.193 A 
DOCKED: ATOM     14  C   UNL d   1     -11.325 -19.205  -2.754 -0.15 +0.01    +0.026 C 
DOCKED: ATOM     15  C   UNL d   1     -15.297 -19.431  -0.133 -0.08 +0.00    +0.055 C 
DOCKED: ATOM     16  C   UNL d   1     -18.029 -19.862   1.461 -0.02 +0.00    +0.026 C 
DOCKED: ATOM     17  C   UNL d   1     -15.500 -18.126   3.051 -0.16 +0.01    +0.109 A 
DOCKED: ATOM     18  C   UNL d   1     -10.618 -20.763  -0.064 -0.16 +0.00    +0.050 C 
DOCKED: ATOM     19  C   UNL d   1     -10.276 -20.907   1.305 -0.14 -0.00    +0.045 A 
DOCKED: ATOM     20  C   UNL d   1     -13.751 -17.889   4.733 -0.28 +0.00    +0.045 A 
DOCKED: ATOM     21  C   UNL d   1     -14.993 -17.604   4.328 -0.21 +0.00    +0.057 C 
DOCKED: ATOM     22  C   UNL d   1     -11.861 -17.903   6.015 -0.39 +0.00    -0.019 A 
DOCKED: ATOM     23  C   UNL d   1     -11.639 -18.757   4.831 -0.32 -0.00    +0.045 A 
DOCKED: ATOM     24  C   UNL d   1     -13.114 -17.394   5.952 -0.34 +0.00    -0.022 A 
DOCKED: ATOM     25  C   UNL d   1     -10.254 -20.300   3.485 -0.20 -0.00    +0.049 A 
DOCKED: ATOM     26  C   UNL d   1      -9.423 -21.781   1.960 -0.12 +0.00    -0.018 A 
DOCKED: ATOM     27  C   UNL d   1      -9.428 -21.406   3.339 -0.18 -0.00    +0.003 A 
DOCKED: ATOM     28  C   UNL d   1     -10.508 -19.436   4.584 -0.37 -0.01    +0.052 C 
DOCKED: ATOM     29  C   UNL d   1     -13.803 -16.490   6.917 -0.34 -0.00    +0.046 C 
DOCKED: ATOM     30  C   UNL d   1      -8.651 -22.899   1.345 -0.06 -0.00    +0.046 C 
DOCKED: ATOM     31  H   UNL d   1     -13.034 -19.219   3.296 +0.05 +0.00    +0.166 HD
DOCKED: ATOM     32  H   UNL d   1     -11.427 -19.285   2.020 -0.05 -0.01    +0.166 HD
DOCKED: ENDROOT
DOCKED: BRANCH   7  33
DOCKED: ATOM     33  C   UNL d   1     -11.990 -21.649  -2.755 -0.02 +0.01    +0.141 C 
DOCKED: BRANCH  33  34
DOCKED: ATOM     34  C   UNL d   1     -12.374 -21.562  -4.207 +0.00 +0.02    +0.306 C 
DOCKED: ATOM     35  O   UNL d   1     -11.632 -21.281  -5.133 +0.00 -0.02    -0.251 OA
DOCKED: BRANCH  34  36
DOCKED: ATOM     36  O   UNL d   1     -13.674 -21.835  -4.417 +0.00 -0.02    -0.481 OA
DOCKED: ATOM     37  H   UNL d   1     -14.146 -21.020  -4.142 +0.01 +0.01    +0.295 HD
DOCKED: ENDBRANCH  34  36
DOCKED: ENDBRANCH  33  34
DOCKED: ENDBRANCH   7  33
DOCKED: BRANCH  27  38
DOCKED: ATOM     38  C   UNL d   1      -8.666 -22.043   4.370 -0.21 -0.01    +0.017 C 
DOCKED: ATOM     39  C   UNL d   1      -7.337 -22.223   4.352 -0.25 -0.04    +0.092 C 
DOCKED: BRANCH  39  40
DOCKED: ATOM     40  C   UNL d   1      -6.673 -22.877   5.483 -0.18 -0.26    +0.330 C 
DOCKED: ATOM     41  O   UNL d   1      -6.340 -24.043   5.577 -0.14 +0.20    -0.246 OA
DOCKED: BRANCH  40  42
DOCKED: ATOM     42  O   UNL d   1      -6.450 -21.989   6.464 -0.16 +0.58    -0.477 OA
DOCKED: ATOM     43  H   UNL d   1      -7.170 -22.161   7.105 -0.41 -0.67    +0.295 HD
DOCKED: ENDBRANCH  40  42
DOCKED: ENDBRANCH  39  40
DOCKED: ENDBRANCH  27  38
DOCKED: BRANCH   8  44
DOCKED: ATOM     44  C   UNL d   1     -17.803 -17.567   0.425 -0.06 +0.01    +0.141 C 
DOCKED: BRANCH  44  45
DOCKED: ATOM     45  C   UNL d   1     -17.545 -16.147   0.853 -0.10 +0.03    +0.306 C 
DOCKED: ATOM     46  O   UNL d   1     -16.507 -15.523   0.713 -0.20 -0.03    -0.251 OA
DOCKED: BRANCH  45  47
DOCKED: ATOM     47  O   UNL d   1     -18.607 -15.592   1.463 -0.02 -0.04    -0.481 OA
DOCKED: ATOM     48  H   UNL d   1     -18.714 -16.106   2.291 +0.04 +0.02    +0.295 HD
DOCKED: ENDBRANCH  45  47
DOCKED: ENDBRANCH  44  45
DOCKED: ENDBRANCH   8  44
DOCKED: BRANCH  22  49
DOCKED: ATOM     49  C   UNL d   1     -10.833 -17.656   7.080 -0.37 -0.01    +0.048 C 
DOCKED: BRANCH  49  50
DOCKED: ATOM     50  C   UNL d   1     -10.915 -18.691   8.201 -0.30 -0.04    +0.125 C 
DOCKED: BRANCH  50  51
DOCKED: ATOM     51  C   UNL d   1     -11.234 -20.053   7.652 -0.13 -0.13    +0.305 C 
DOCKED: ATOM     52  O   UNL d   1     -12.325 -20.594   7.596 -0.05 +0.07    -0.251 OA
DOCKED: BRANCH  51  53
DOCKED: ATOM     53  O   UNL d   1     -10.133 -20.685   7.200 -0.08 +0.37    -0.481 OA
DOCKED: ATOM     54  H   UNL d   1      -9.626 -20.890   8.013 -0.12 -0.49    +0.295 HD
DOCKED: ENDBRANCH  51  53
DOCKED: ENDBRANCH  50  51
DOCKED: ENDBRANCH  49  50
DOCKED: ENDBRANCH  22  49
DOCKED: TORSDOF 13
DOCKED: TER
DOCKED: ENDMDL
________________________________________________________________________________


	BEGINNING GENETIC ALGORITHM DOCKING 19 of 100
Run: 19 Seed: 586683048 160814299 [ Run 19 of 100 GA/GALS ]
Beginning LAMARCKIAN GENETIC ALGORITHM (LGA), with a maximum of 25000000 energy evaluations.

Final-Value: -11.030


	FINAL GENETIC ALGORITHM DOCKED STATE
	_______________________________________________


Detailed state:  trans 3.153 -3.423 -14.596 quatxyzw -0.011384 -0.985814 -0.108989 -0.127131 center 0.153 0.018 -0.028 ntor 13 170.1219 -24.2244 110.7822 -4.3591 -17.3799 57.1014 -46.4303 -100.5222 -124.7783 -129.1724 22.4452 -128.1526 -35.0453
State:	  3.153  -3.423 -14.596  -0.011 -0.994 -0.110 -165.392    170.12  -24.22  110.78   -4.36  -17.38   57.10  -46.43 -100.52 -124.78 -129.17   22.45 -128.15  -35.05

DOCKED: MODEL       19
DOCKED: USER    Run = 19
DOCKED: USER    DPF = D:/Protein_go_brrr/autodock/final/AncMH_nat/heme/dock.dpf
DOCKED: USER  
DOCKED: USER    Estimated Free Energy of Binding    =   -5.69 kcal/mol  [=(1)+(2)+(3)-(4)]
DOCKED: USER    Estimated Inhibition Constant, Ki   =   67.69 uM (micromolar)  [Temperature = 298.15 K]
DOCKED: USER    
DOCKED: USER    (1) Final Intermolecular Energy     =   -9.57 kcal/mol
DOCKED: USER        vdW + Hbond + desolv Energy     =   -9.01 kcal/mol
DOCKED: USER        Electrostatic Energy            =   -0.55 kcal/mol
DOCKED: USER    (2) Final Total Internal Energy     =   -1.46 kcal/mol
DOCKED: USER    (3) Torsional Free Energy           =   +3.88 kcal/mol
DOCKED: USER    (4) Unbound System's Energy  [=(2)] =   -1.46 kcal/mol
DOCKED: USER    
DOCKED: USER    
DOCKED: USER    NEWDPF move heme_opt.pdbqt
DOCKED: USER    NEWDPF about 0.153000 0.018000 -0.028000
DOCKED: USER    NEWDPF tran0 3.152987 -3.422724 -14.595984
DOCKED: USER    NEWDPF quaternion0 -0.011384 -0.985814 -0.108989 -0.127131
DOCKED: USER    NEWDPF axisangle0 -0.011477 -0.993879 -0.109880 -165.392305
DOCKED: USER    NEWDPF quat0 -0.011477 -0.993879 -0.109880 -165.392305
DOCKED: USER    NEWDPF dihe0 170.12 -24.22 110.78 -4.36 -17.38 57.10 -46.43 -100.52 -124.78 -129.17 22.45 -128.15 -35.05 
DOCKED: USER  keepresnum = 1 
DOCKED: USER  
DOCKED: REMARK  13 active torsions:
DOCKED: REMARK  status: ('A' for Active; 'I' for Inactive)
DOCKED: REMARK    1  A    between atoms: O_3  and  C_38 
DOCKED: REMARK    2  A    between atoms: O_4  and  C_40 
DOCKED: REMARK    3  A    between atoms: O_7  and  C_46 
DOCKED: REMARK    4  A    between atoms: O_9  and  C_48 
DOCKED: REMARK    5  A    between atoms: C_15  and  C_20 
DOCKED: REMARK    6  A    between atoms: C_16  and  C_23 
DOCKED: REMARK    7  A    between atoms: C_20  and  C_38 
DOCKED: REMARK    8  A    between atoms: C_23  and  C_40 
DOCKED: REMARK    9  A    between atoms: C_32  and  C_41 
DOCKED: REMARK   10  A    between atoms: C_37  and  C_45 
DOCKED: REMARK   11  A    between atoms: C_41  and  C_44 
DOCKED: REMARK   12  A    between atoms: C_44  and  C_46 
DOCKED: REMARK   13  A    between atoms: C_47  and  C_48 
DOCKED: USER                              x       y       z     vdW  Elec       q    Type
DOCKED: USER                           _______ _______ _______ _____ _____    ______ ____
DOCKED: ROOT
DOCKED: ATOM      1  O   UNL d   1       8.505  -1.604 -16.270 -0.04 +0.10    -0.289 OA
DOCKED: ATOM      2  O   UNL d   1       5.872  -8.482 -14.805 -0.04 +0.02    -0.289 OA
DOCKED: ATOM      3  N   UNL d   1       5.286  -2.177 -15.173 -0.09 +0.03    -0.247 NA
DOCKED: ATOM      4  N   UNL d   1       5.084  -5.142 -15.167 -0.13 +0.03    -0.247 NA
DOCKED: ATOM      5  N   UNL d   1       2.237  -4.856 -14.891 -0.12 +0.07    -0.354 N 
DOCKED: ATOM      6  N   UNL d   1       2.453  -1.781 -14.919 -0.03 +0.02    -0.354 N 
DOCKED: ATOM      7  C   UNL d   1       6.524  -0.209 -15.948 -0.13 -0.03    +0.084 A 
DOCKED: ATOM      8  C   UNL d   1       7.160  -6.403 -14.896 -0.13 -0.00    +0.084 A 
DOCKED: ATOM      9  C   UNL d   1       6.456  -5.054 -15.079 -0.18 -0.00    +0.058 A 
DOCKED: ATOM     10  C   UNL d   1       5.216  -0.819 -15.434 -0.16 -0.01    +0.058 A 
DOCKED: ATOM     11  C   UNL d   1       7.350  -1.459 -15.915 -0.07 -0.06    +0.193 A 
DOCKED: ATOM     12  C   UNL d   1       6.494  -2.577 -15.403 -0.14 -0.02    +0.109 A 
DOCKED: ATOM     13  C   UNL d   1       5.937  -7.275 -14.934 -0.09 -0.01    +0.193 A 
DOCKED: ATOM     14  C   UNL d   1       6.404   0.267 -17.398 -0.05 -0.01    +0.026 C 
DOCKED: ATOM     15  C   UNL d   1       7.124  -3.896 -15.195 -0.20 -0.00    +0.055 C 
DOCKED: ATOM     16  C   UNL d   1       7.808  -6.522 -13.514 +0.19 +0.00    +0.026 C 
DOCKED: ATOM     17  C   UNL d   1       4.747  -6.390 -15.109 -0.15 -0.01    +0.109 A 
DOCKED: ATOM     18  C   UNL d   1       4.136  -0.056 -15.181 -0.21 -0.01    +0.050 C 
DOCKED: ATOM     19  C   UNL d   1       2.915  -0.518 -14.626 -0.06 -0.00    +0.045 A 
DOCKED: ATOM     20  C   UNL d   1       2.316  -6.202 -15.136 -0.20 -0.01    +0.045 A 
DOCKED: ATOM     21  C   UNL d   1       3.403  -6.975 -15.225 -0.17 -0.01    +0.057 C 
DOCKED: ATOM     22  C   UNL d   1       0.117  -5.581 -15.125 -0.26 +0.00    -0.019 A 
DOCKED: ATOM     23  C   UNL d   1       0.950  -4.389 -14.867 -0.29 -0.01    +0.045 A 
DOCKED: ATOM     24  C   UNL d   1       0.932  -6.651 -15.282 -0.20 +0.00    -0.022 A 
DOCKED: ATOM     25  C   UNL d   1       1.216  -1.986 -14.353 -0.28 -0.00    +0.049 A 
DOCKED: ATOM     26  C   UNL d   1       1.973   0.100 -13.819 -0.30 +0.00    -0.018 A 
DOCKED: ATOM     27  C   UNL d   1       0.911  -0.838 -13.634 -0.39 -0.00    +0.003 A 
DOCKED: ATOM     28  C   UNL d   1       0.466  -3.157 -14.644 -0.19 -0.00    +0.052 C 
DOCKED: ATOM     29  C   UNL d   1       0.565  -8.072 -15.549 -0.15 -0.00    +0.046 C 
DOCKED: ATOM     30  C   UNL d   1       2.051   1.477 -13.252 -0.41 -0.00    +0.046 C 
DOCKED: ATOM     31  H   UNL d   1       3.065  -4.311 -14.675 -0.18 -0.04    +0.166 HD
DOCKED: ATOM     32  H   UNL d   1       2.952  -2.438 -15.507 +0.05 -0.01    +0.166 HD
DOCKED: ENDROOT
DOCKED: BRANCH   7  33
DOCKED: ATOM     33  C   UNL d   1       7.143   0.869 -15.052 -0.21 -0.12    +0.141 C 
DOCKED: BRANCH  33  34
DOCKED: ATOM     34  C   UNL d   1       6.441   2.194 -15.171 -0.19 -0.21    +0.306 C 
DOCKED: ATOM     35  O   UNL d   1       5.242   2.364 -15.315 -0.17 +0.08    -0.251 OA
DOCKED: BRANCH  34  36
DOCKED: ATOM     36  O   UNL d   1       7.286   3.237 -15.098 -0.13 +0.52    -0.481 OA
DOCKED: ATOM     37  H   UNL d   1       8.130   2.849 -14.782 -0.39 -0.77    +0.295 HD
DOCKED: ENDBRANCH  34  36
DOCKED: ENDBRANCH  33  34
DOCKED: ENDBRANCH   7  33
DOCKED: BRANCH  27  38
DOCKED: ATOM     38  C   UNL d   1      -0.279  -0.599 -12.874 -0.40 -0.00    +0.017 C 
DOCKED: ATOM     39  C   UNL d   1      -1.409  -0.059 -13.354 -0.36 +0.00    +0.092 C 
DOCKED: BRANCH  39  40
DOCKED: ATOM     40  C   UNL d   1      -2.566   0.117 -12.473 -0.26 +0.02    +0.330 C 
DOCKED: ATOM     41  O   UNL d   1      -2.609   0.708 -11.411 -1.32 -0.06    -0.246 OA
DOCKED: BRANCH  40  42
DOCKED: ATOM     42  O   UNL d   1      -3.647  -0.476 -13.005 -0.12 +0.01    -0.477 OA
DOCKED: ATOM     43  H   UNL d   1      -4.218  -0.660 -12.231 +0.08 -0.02    +0.295 HD
DOCKED: ENDBRANCH  40  42
DOCKED: ENDBRANCH  39  40
DOCKED: ENDBRANCH  27  38
DOCKED: BRANCH   8  44
DOCKED: ATOM     44  C   UNL d   1       8.145  -6.789 -16.005 -0.04 -0.01    +0.141 C 
DOCKED: BRANCH  44  45
DOCKED: ATOM     45  C   UNL d   1       8.785  -8.134 -15.788 -0.01 -0.02    +0.306 C 
DOCKED: ATOM     46  O   UNL d   1       9.827  -8.356 -15.195 -0.02 +0.02    -0.251 OA
DOCKED: BRANCH  45  47
DOCKED: ATOM     47  O   UNL d   1       8.089  -9.134 -16.359 +0.01 +0.04    -0.481 OA
DOCKED: ATOM     48  H   UNL d   1       7.273  -9.207 -15.819 +0.03 -0.02    +0.295 HD
DOCKED: ENDBRANCH  45  47
DOCKED: ENDBRANCH  44  45
DOCKED: ENDBRANCH   8  44
DOCKED: BRANCH  22  49
DOCKED: ATOM     49  C   UNL d   1      -1.381  -5.561 -15.209 -0.19 -0.00    +0.048 C 
DOCKED: BRANCH  49  50
DOCKED: ATOM     50  C   UNL d   1      -2.022  -6.437 -14.133 -0.24 -0.01    +0.125 C 
DOCKED: BRANCH  50  51
DOCKED: ATOM     51  C   UNL d   1      -3.404  -6.863 -14.542 -0.14 -0.01    +0.305 C 
DOCKED: ATOM     52  O   UNL d   1      -4.466  -6.461 -14.101 -0.16 -0.00    -0.251 OA
DOCKED: BRANCH  51  53
DOCKED: ATOM     53  O   UNL d   1      -3.376  -7.809 -15.502 -0.00 +0.02    -0.481 OA
DOCKED: ATOM     54  H   UNL d   1      -4.317  -8.054 -15.621 +0.04 -0.01    +0.295 HD
DOCKED: ENDBRANCH  51  53
DOCKED: ENDBRANCH  50  51
DOCKED: ENDBRANCH  49  50
DOCKED: ENDBRANCH  22  49
DOCKED: TORSDOF 13
DOCKED: TER
DOCKED: ENDMDL
________________________________________________________________________________


	BEGINNING GENETIC ALGORITHM DOCKING 20 of 100
Run: 20 Seed: 1046804979 707501586 [ Run 20 of 100 GA/GALS ]
Beginning LAMARCKIAN GENETIC ALGORITHM (LGA), with a maximum of 25000000 energy evaluations.

Final-Value: -11.427


	FINAL GENETIC ALGORITHM DOCKED STATE
	_______________________________________________


Detailed state:  trans 13.522 7.369 4.430 quatxyzw -0.571733 -0.746004 0.338199 -0.047129 center 0.153 0.018 -0.028 ntor 13 -173.3027 -179.6777 132.4884 -44.7107 -157.0163 -70.2581 -72.0762 -100.3176 11.0999 -27.5345 -100.7343 29.3639 -7.0762
State:	 13.522   7.369   4.430  -0.572 -0.747  0.339 -174.597   -173.30 -179.68  132.49  -44.71 -157.02  -70.26  -72.08 -100.32   11.10  -27.53 -100.73   29.36   -7.08

DOCKED: MODEL       20
DOCKED: USER    Run = 20
DOCKED: USER    DPF = D:/Protein_go_brrr/autodock/final/AncMH_nat/heme/dock.dpf
DOCKED: USER  
DOCKED: USER    Estimated Free Energy of Binding    =   -3.13 kcal/mol  [=(1)+(2)+(3)-(4)]
DOCKED: USER    Estimated Inhibition Constant, Ki   =    5.10 mM (millimolar)  [Temperature = 298.15 K]
DOCKED: USER    
DOCKED: USER    (1) Final Intermolecular Energy     =   -7.00 kcal/mol
DOCKED: USER        vdW + Hbond + desolv Energy     =   -6.87 kcal/mol
DOCKED: USER        Electrostatic Energy            =   -0.13 kcal/mol
DOCKED: USER    (2) Final Total Internal Energy     =   -4.42 kcal/mol
DOCKED: USER    (3) Torsional Free Energy           =   +3.88 kcal/mol
DOCKED: USER    (4) Unbound System's Energy  [=(2)] =   -4.42 kcal/mol
DOCKED: USER    
DOCKED: USER    
DOCKED: USER    NEWDPF move heme_opt.pdbqt
DOCKED: USER    NEWDPF about 0.153000 0.018000 -0.028000
DOCKED: USER    NEWDPF tran0 13.522224 7.368513 4.430106
DOCKED: USER    NEWDPF quaternion0 -0.571733 -0.746004 0.338199 -0.047129
DOCKED: USER    NEWDPF axisangle0 -0.572369 -0.746834 0.338575 -174.597402
DOCKED: USER    NEWDPF quat0 -0.572369 -0.746834 0.338575 -174.597402
DOCKED: USER    NEWDPF dihe0 -173.30 -179.68 132.49 -44.71 -157.02 -70.26 -72.08 -100.32 11.10 -27.53 -100.73 29.36 -7.08 
DOCKED: USER  keepresnum = 1 
DOCKED: USER  
DOCKED: REMARK  13 active torsions:
DOCKED: REMARK  status: ('A' for Active; 'I' for Inactive)
DOCKED: REMARK    1  A    between atoms: O_3  and  C_38 
DOCKED: REMARK    2  A    between atoms: O_4  and  C_40 
DOCKED: REMARK    3  A    between atoms: O_7  and  C_46 
DOCKED: REMARK    4  A    between atoms: O_9  and  C_48 
DOCKED: REMARK    5  A    between atoms: C_15  and  C_20 
DOCKED: REMARK    6  A    between atoms: C_16  and  C_23 
DOCKED: REMARK    7  A    between atoms: C_20  and  C_38 
DOCKED: REMARK    8  A    between atoms: C_23  and  C_40 
DOCKED: REMARK    9  A    between atoms: C_32  and  C_41 
DOCKED: REMARK   10  A    between atoms: C_37  and  C_45 
DOCKED: REMARK   11  A    between atoms: C_41  and  C_44 
DOCKED: REMARK   12  A    between atoms: C_44  and  C_46 
DOCKED: REMARK   13  A    between atoms: C_47  and  C_48 
DOCKED: USER                              x       y       z     vdW  Elec       q    Type
DOCKED: USER                           _______ _______ _______ _____ _____    ______ ____
DOCKED: ROOT
DOCKED: ATOM      1  O   UNL d   1      16.531   2.310   4.765 -0.09 +0.04    -0.289 OA
DOCKED: ATOM      2  O   UNL d   1      11.173   5.160   9.188 -0.01 +0.13    -0.289 OA
DOCKED: ATOM      3  N   UNL d   1      15.134   5.419   4.241 -0.03 +0.28    -0.247 NA
DOCKED: ATOM      4  N   UNL d   1      12.954   5.537   6.256 +0.16 +0.33    -0.247 NA
DOCKED: ATOM      5  N   UNL d   1      11.916   7.829   4.864 +0.02 +0.36    -0.354 N 
DOCKED: ATOM      6  N   UNL d   1      14.170   7.687   2.766 -0.10 +0.29    -0.354 N 
DOCKED: ATOM      7  C   UNL d   1      16.718   4.006   3.015 -0.18 -0.03    +0.084 A 
DOCKED: ATOM      8  C   UNL d   1      13.214   4.172   8.266 -0.05 -0.04    +0.084 A 
DOCKED: ATOM      9  C   UNL d   1      13.726   4.585   6.882 -0.11 -0.05    +0.058 A 
DOCKED: ATOM     10  C   UNL d   1      15.921   5.311   3.107 -0.20 -0.04    +0.058 A 
DOCKED: ATOM     11  C   UNL d   1      16.256   3.404   4.308 -0.12 -0.07    +0.193 A 
DOCKED: ATOM     12  C   UNL d   1      15.320   4.367   4.970 -0.14 -0.09    +0.109 A 
DOCKED: ATOM     13  C   UNL d   1      11.987   5.039   8.294 -0.04 -0.10    +0.193 A 
DOCKED: ATOM     14  C   UNL d   1      16.242   3.122   1.860 -0.39 -0.01    +0.026 C 
DOCKED: ATOM     15  C   UNL d   1      14.805   4.027   6.312 -0.14 -0.03    +0.055 C 
DOCKED: ATOM     16  C   UNL d   1      14.162   4.625   9.381 -0.00 -0.01    +0.026 C 
DOCKED: ATOM     17  C   UNL d   1      11.941   5.811   7.015 -0.10 -0.09    +0.109 A 
DOCKED: ATOM     18  C   UNL d   1      16.065   6.288   2.192 -0.21 -0.02    +0.050 C 
DOCKED: ATOM     19  C   UNL d   1      15.436   7.558   2.239 -0.08 -0.02    +0.045 A 
DOCKED: ATOM     20  C   UNL d   1      10.880   7.590   5.729 -0.18 -0.03    +0.045 A 
DOCKED: ATOM     21  C   UNL d   1      10.817   6.718   6.740 -0.16 -0.04    +0.057 C 
DOCKED: ATOM     22  C   UNL d   1      10.256   9.227   4.264 -0.33 +0.01    -0.019 A 
DOCKED: ATOM     23  C   UNL d   1      11.633   8.801   3.942 -0.27 -0.02    +0.045 A 
DOCKED: ATOM     24  C   UNL d   1       9.816   8.507   5.323 -0.27 +0.01    -0.022 A 
DOCKED: ATOM     25  C   UNL d   1      13.720   8.980   2.630 -0.23 -0.02    +0.049 A 
DOCKED: ATOM     26  C   UNL d   1      15.832   8.806   1.782 -0.10 +0.00    -0.018 A 
DOCKED: ATOM     27  C   UNL d   1      14.752   9.703   2.049 -0.15 -0.00    +0.003 A 
DOCKED: ATOM     28  C   UNL d   1      12.380   9.323   2.958 -0.35 -0.02    +0.052 C 
DOCKED: ATOM     29  C   UNL d   1       8.501   8.582   6.020 -0.28 -0.01    +0.046 C 
DOCKED: ATOM     30  C   UNL d   1      17.133   9.146   1.139 -0.07 -0.01    +0.046 C 
DOCKED: ATOM     31  H   UNL d   1      12.813   7.370   4.978 -0.24 -0.24    +0.166 HD
DOCKED: ATOM     32  H   UNL d   1      13.645   6.915   3.158 -0.46 -0.35    +0.166 HD
DOCKED: ENDROOT
DOCKED: BRANCH   7  33
DOCKED: ATOM     33  C   UNL d   1      18.242   4.166   3.011 -0.08 -0.03    +0.141 C 
DOCKED: BRANCH  33  34
DOCKED: ATOM     34  C   UNL d   1      18.755   4.865   4.240 +0.00 -0.06    +0.306 C 
DOCKED: ATOM     35  O   UNL d   1      19.114   6.028   4.310 -0.00 +0.05    -0.251 OA
DOCKED: BRANCH  34  36
DOCKED: ATOM     36  O   UNL d   1      18.785   4.062   5.319 +0.01 +0.09    -0.481 OA
DOCKED: ATOM     37  H   UNL d   1      18.514   3.183   4.979 +0.03 -0.05    +0.295 HD
DOCKED: ENDBRANCH  34  36
DOCKED: ENDBRANCH  33  34
DOCKED: ENDBRANCH   7  33
DOCKED: BRANCH  27  38
DOCKED: ATOM     38  C   UNL d   1      14.738  11.097   1.721 -0.13 +0.00    +0.017 C 
DOCKED: ATOM     39  C   UNL d   1      14.721  12.102   2.611 -0.06 +0.00    +0.092 C 
DOCKED: BRANCH  39  40
DOCKED: ATOM     40  C   UNL d   1      14.725  13.490   2.143 -0.03 +0.03    +0.330 C 
DOCKED: ATOM     41  O   UNL d   1      15.649  14.104   1.644 -0.01 -0.02    -0.246 OA
DOCKED: BRANCH  40  42
DOCKED: ATOM     42  O   UNL d   1      13.517  14.044   2.331 -0.01 -0.05    -0.477 OA
DOCKED: ATOM     43  H   UNL d   1      12.991  13.327   2.739 +0.06 +0.03    +0.295 HD
DOCKED: ENDBRANCH  40  42
DOCKED: ENDBRANCH  39  40
DOCKED: ENDBRANCH  27  38
DOCKED: BRANCH   8  44
DOCKED: ATOM     44  C   UNL d   1      12.844   2.693   8.420 -0.08 -0.04    +0.141 C 
DOCKED: BRANCH  44  45
DOCKED: ATOM     45  C   UNL d   1      11.516   2.345   7.801 -0.10 -0.10    +0.306 C 
DOCKED: ATOM     46  O   UNL d   1      10.525   1.945   8.386 -0.13 +0.13    -0.251 OA
DOCKED: BRANCH  45  47
DOCKED: ATOM     47  O   UNL d   1      11.516   2.495   6.464 -0.49 +0.20    -0.481 OA
DOCKED: ATOM     48  H   UNL d   1      11.907   3.382   6.314 -0.09 -0.41    +0.295 HD
DOCKED: ENDBRANCH  45  47
DOCKED: ENDBRANCH  44  45
DOCKED: ENDBRANCH   8  44
DOCKED: BRANCH  22  49
DOCKED: ATOM     49  C   UNL d   1       9.500  10.277   3.504 -0.41 -0.01    +0.048 C 
DOCKED: BRANCH  49  50
DOCKED: ATOM     50  C   UNL d   1       9.713  11.671   4.094 -0.27 -0.01    +0.125 C 
DOCKED: BRANCH  50  51
DOCKED: ATOM     51  C   UNL d   1      11.023  12.251   3.640 -0.14 +0.00    +0.305 C 
DOCKED: ATOM     52  O   UNL d   1      12.041  12.390   4.295 -0.06 +0.01    -0.251 OA
DOCKED: BRANCH  51  53
DOCKED: ATOM     53  O   UNL d   1      10.979  12.647   2.352 -0.10 -0.07    -0.481 OA
DOCKED: ATOM     54  H   UNL d   1      11.408  13.529   2.360 +0.10 +0.04    +0.295 HD
DOCKED: ENDBRANCH  51  53
DOCKED: ENDBRANCH  50  51
DOCKED: ENDBRANCH  49  50
DOCKED: ENDBRANCH  22  49
DOCKED: TORSDOF 13
DOCKED: TER
DOCKED: ENDMDL
________________________________________________________________________________


	BEGINNING GENETIC ALGORITHM DOCKING 21 of 100
Run: 21 Seed: 2050313978 291211116 [ Run 21 of 100 GA/GALS ]
Beginning LAMARCKIAN GENETIC ALGORITHM (LGA), with a maximum of 25000000 energy evaluations.

Final-Value: -11.299


	FINAL GENETIC ALGORITHM DOCKED STATE
	_______________________________________________


Detailed state:  trans -13.358 9.402 -3.999 quatxyzw 0.175104 0.915574 -0.206516 0.297344 center 0.153 0.018 -0.028 ntor 13 171.8577 -123.8558 -126.3594 -1.6734 -35.1644 -33.3680 -44.8606 118.5576 -133.4365 -25.1716 166.0145 15.8952 12.7723
State:	-13.358   9.402  -3.999   0.183  0.959 -0.216 145.404    171.86 -123.86 -126.36   -1.67  -35.16  -33.37  -44.86  118.56 -133.44  -25.17  166.01   15.90   12.77

DOCKED: MODEL       21
DOCKED: USER    Run = 21
DOCKED: USER    DPF = D:/Protein_go_brrr/autodock/final/AncMH_nat/heme/dock.dpf
DOCKED: USER  
DOCKED: USER    Estimated Free Energy of Binding    =   -5.97 kcal/mol  [=(1)+(2)+(3)-(4)]
DOCKED: USER    Estimated Inhibition Constant, Ki   =   42.40 uM (micromolar)  [Temperature = 298.15 K]
DOCKED: USER    
DOCKED: USER    (1) Final Intermolecular Energy     =   -9.84 kcal/mol
DOCKED: USER        vdW + Hbond + desolv Energy     =   -8.94 kcal/mol
DOCKED: USER        Electrostatic Energy            =   -0.90 kcal/mol
DOCKED: USER    (2) Final Total Internal Energy     =   -1.46 kcal/mol
DOCKED: USER    (3) Torsional Free Energy           =   +3.88 kcal/mol
DOCKED: USER    (4) Unbound System's Energy  [=(2)] =   -1.46 kcal/mol
DOCKED: USER    
DOCKED: USER    
DOCKED: USER    NEWDPF move heme_opt.pdbqt
DOCKED: USER    NEWDPF about 0.153000 0.018000 -0.028000
DOCKED: USER    NEWDPF tran0 -13.358208 9.402327 -3.999476
DOCKED: USER    NEWDPF quaternion0 0.175104 0.915574 -0.206516 0.297344
DOCKED: USER    NEWDPF axisangle0 0.183399 0.958947 -0.216299 145.403734
DOCKED: USER    NEWDPF quat0 0.183399 0.958947 -0.216299 145.403734
DOCKED: USER    NEWDPF dihe0 171.86 -123.86 -126.36 -1.67 -35.16 -33.37 -44.86 118.56 -133.44 -25.17 166.01 15.90 12.77 
DOCKED: USER  keepresnum = 1 
DOCKED: USER  
DOCKED: REMARK  13 active torsions:
DOCKED: REMARK  status: ('A' for Active; 'I' for Inactive)
DOCKED: REMARK    1  A    between atoms: O_3  and  C_38 
DOCKED: REMARK    2  A    between atoms: O_4  and  C_40 
DOCKED: REMARK    3  A    between atoms: O_7  and  C_46 
DOCKED: REMARK    4  A    between atoms: O_9  and  C_48 
DOCKED: REMARK    5  A    between atoms: C_15  and  C_20 
DOCKED: REMARK    6  A    between atoms: C_16  and  C_23 
DOCKED: REMARK    7  A    between atoms: C_20  and  C_38 
DOCKED: REMARK    8  A    between atoms: C_23  and  C_40 
DOCKED: REMARK    9  A    between atoms: C_32  and  C_41 
DOCKED: REMARK   10  A    between atoms: C_37  and  C_45 
DOCKED: REMARK   11  A    between atoms: C_41  and  C_44 
DOCKED: REMARK   12  A    between atoms: C_44  and  C_46 
DOCKED: REMARK   13  A    between atoms: C_47  and  C_48 
DOCKED: USER                              x       y       z     vdW  Elec       q    Type
DOCKED: USER                           _______ _______ _______ _____ _____    ______ ____
DOCKED: ROOT
DOCKED: ATOM      1  O   UNL d   1      -9.149   8.178  -7.941 -0.26 +0.12    -0.289 OA
DOCKED: ATOM      2  O   UNL d   1     -11.319   4.521  -1.752 -0.13 -0.08    -0.289 OA
DOCKED: ATOM      3  N   UNL d   1     -11.610   9.365  -5.836 -0.18 +0.04    -0.247 NA
DOCKED: ATOM      4  N   UNL d   1     -11.974   7.148  -3.892 -0.13 +0.01    -0.247 NA
DOCKED: ATOM      5  N   UNL d   1     -14.400   8.426  -3.029 -0.00 -0.04    -0.354 N 
DOCKED: ATOM      6  N   UNL d   1     -14.025  10.713  -5.062 -0.05 +0.01    -0.354 N 
DOCKED: ATOM      7  C   UNL d   1     -10.706  10.061  -8.006 -0.21 -0.02    +0.084 A 
DOCKED: ATOM      8  C   UNL d   1     -10.068   5.664  -3.518 -0.30 -0.02    +0.084 A 
DOCKED: ATOM      9  C   UNL d   1     -10.696   6.827  -4.294 -0.28 -0.01    +0.058 A 
DOCKED: ATOM     10  C   UNL d   1     -11.699  10.290  -6.863 -0.21 -0.01    +0.058 A 
DOCKED: ATOM     11  C   UNL d   1     -10.027   8.853  -7.435 -0.19 -0.06    +0.193 A 
DOCKED: ATOM     12  C   UNL d   1     -10.646   8.546  -6.107 -0.27 -0.03    +0.109 A 
DOCKED: ATOM     13  C   UNL d   1     -11.240   5.360  -2.628 -0.16 +0.02    +0.193 A 
DOCKED: ATOM     14  C   UNL d   1     -11.409   9.666  -9.307 -0.11 -0.00    +0.026 C 
DOCKED: ATOM     15  C   UNL d   1     -10.072   7.443  -5.310 -0.31 -0.02    +0.055 C 
DOCKED: ATOM     16  C   UNL d   1      -8.896   6.129  -2.649 -0.46 -0.00    +0.026 C 
DOCKED: ATOM     17  C   UNL d   1     -12.332   6.324  -2.960 -0.20 +0.01    +0.109 A 
DOCKED: ATOM     18  C   UNL d   1     -12.514  11.362  -6.844 -0.19 -0.01    +0.050 C 
DOCKED: ATOM     19  C   UNL d   1     -13.403  11.701  -5.792 -0.16 -0.00    +0.045 A 
DOCKED: ATOM     20  C   UNL d   1     -14.519   7.228  -2.374 -0.19 +0.01    +0.045 A 
DOCKED: ATOM     21  C   UNL d   1     -13.628   6.237  -2.271 -0.23 +0.02    +0.057 C 
DOCKED: ATOM     22  C   UNL d   1     -16.454   8.412  -2.105 -0.11 -0.00    -0.019 A 
DOCKED: ATOM     23  C   UNL d   1     -15.519   9.209  -2.924 +0.02 +0.00    +0.045 A 
DOCKED: ATOM     24  C   UNL d   1     -15.856   7.241  -1.781 -0.15 -0.01    -0.022 A 
DOCKED: ATOM     25  C   UNL d   1     -14.906  11.261  -4.160 +0.02 +0.00    +0.049 A 
DOCKED: ATOM     26  C   UNL d   1     -13.864  12.922  -5.327 -0.17 +0.00    -0.018 A 
DOCKED: ATOM     27  C   UNL d   1     -14.799  12.639  -4.283 -0.15 -0.00    +0.003 A 
DOCKED: ATOM     28  C   UNL d   1     -15.781  10.435  -3.402 -0.04 +0.00    +0.052 C 
DOCKED: ATOM     29  C   UNL d   1     -16.390   6.116  -0.962 -0.17 +0.03    +0.046 C 
DOCKED: ATOM     30  C   UNL d   1     -13.462  14.272  -5.818 -0.15 -0.00    +0.046 C 
DOCKED: ATOM     31  H   UNL d   1     -13.527   8.702  -3.467 +0.06 +0.01    +0.166 HD
DOCKED: ATOM     32  H   UNL d   1     -13.870   9.723  -5.214 +0.04 -0.00    +0.166 HD
DOCKED: ENDROOT
DOCKED: BRANCH   7  33
DOCKED: ATOM     33  C   UNL d   1      -9.695  11.189  -8.234 -0.30 -0.03    +0.141 C 
DOCKED: BRANCH  33  34
DOCKED: ATOM     34  C   UNL d   1     -10.230  12.276  -9.126 -0.16 -0.05    +0.306 C 
DOCKED: ATOM     35  O   UNL d   1     -11.405  12.489  -9.376 -0.07 +0.02    -0.251 OA
DOCKED: BRANCH  34  36
DOCKED: ATOM     36  O   UNL d   1      -9.258  13.040  -9.654 -0.09 +0.10    -0.481 OA
DOCKED: ATOM     37  H   UNL d   1      -8.447  12.780  -9.167 -0.37 -0.14    +0.295 HD
DOCKED: ENDBRANCH  34  36
DOCKED: ENDBRANCH  33  34
DOCKED: ENDBRANCH   7  33
DOCKED: BRANCH  27  38
DOCKED: ATOM     38  C   UNL d   1     -15.527  13.621  -3.538 -0.15 -0.00    +0.017 C 
DOCKED: ATOM     39  C   UNL d   1     -15.571  13.702  -2.199 -0.21 -0.02    +0.092 C 
DOCKED: BRANCH  39  40
DOCKED: ATOM     40  C   UNL d   1     -16.342  14.770  -1.558 -0.09 -0.12    +0.330 C 
DOCKED: ATOM     41  O   UNL d   1     -16.490  15.914  -1.942 -0.05 +0.02    -0.246 OA
DOCKED: BRANCH  40  42
DOCKED: ATOM     42  O   UNL d   1     -16.912  14.315  -0.431 -0.05 +0.37    -0.477 OA
DOCKED: ATOM     43  H   UNL d   1     -16.158  13.972   0.092 -0.50 -0.57    +0.295 HD
DOCKED: ENDBRANCH  40  42
DOCKED: ENDBRANCH  39  40
DOCKED: ENDBRANCH  27  38
DOCKED: BRANCH   8  44
DOCKED: ATOM     44  C   UNL d   1      -9.685   4.441  -4.358 -0.25 -0.08    +0.141 C 
DOCKED: BRANCH  44  45
DOCKED: ATOM     45  C   UNL d   1     -10.870   3.614  -4.778 -0.10 -0.15    +0.306 C 
DOCKED: ATOM     46  O   UNL d   1     -11.369   2.692  -4.158 -0.10 +0.02    -0.251 OA
DOCKED: BRANCH  45  47
DOCKED: ATOM     47  O   UNL d   1     -11.350   3.977  -5.981 -0.02 +0.39    -0.481 OA
DOCKED: ATOM     48  H   UNL d   1     -10.571   3.955  -6.576 -0.45 -0.62    +0.295 HD
DOCKED: ENDBRANCH  45  47
DOCKED: ENDBRANCH  44  45
DOCKED: ENDBRANCH   8  44
DOCKED: BRANCH  22  49
DOCKED: ATOM     49  C   UNL d   1     -17.837   8.859  -1.731 -0.06 +0.01    +0.048 C 
DOCKED: BRANCH  49  50
DOCKED: ATOM     50  C   UNL d   1     -17.811  10.000  -0.715 -0.08 -0.00    +0.125 C 
DOCKED: BRANCH  50  51
DOCKED: ATOM     51  C   UNL d   1     -16.440  10.159  -0.122 -0.16 -0.04    +0.305 C 
DOCKED: ATOM     52  O   UNL d   1     -15.669  11.090  -0.273 -0.23 +0.10    -0.251 OA
DOCKED: BRANCH  51  53
DOCKED: ATOM     53  O   UNL d   1     -16.095   9.103   0.642 -0.14 -0.00    -0.481 OA
DOCKED: ATOM     54  H   UNL d   1     -15.183   9.310   0.936 -0.27 -0.07    +0.295 HD
DOCKED: ENDBRANCH  51  53
DOCKED: ENDBRANCH  50  51
DOCKED: ENDBRANCH  49  50
DOCKED: ENDBRANCH  22  49
DOCKED: TORSDOF 13
DOCKED: TER
DOCKED: ENDMDL
________________________________________________________________________________


	BEGINNING GENETIC ALGORITHM DOCKING 22 of 100
Run: 22 Seed: 237887643 1730284018 [ Run 22 of 100 GA/GALS ]
Beginning LAMARCKIAN GENETIC ALGORITHM (LGA), with a maximum of 25000000 energy evaluations.

Final-Value: -11.271


	FINAL GENETIC ALGORITHM DOCKED STATE
	_______________________________________________


Detailed state:  trans 10.276 -12.013 -5.949 quatxyzw -0.586280 0.015181 0.184155 -0.788753 center 0.153 0.018 -0.028 ntor 13 -179.7700 -158.2705 108.3074 16.2704 -155.6749 39.2770 -47.6435 39.0260 7.7403 -133.2173 -72.7448 -84.3482 -2.7517
State:	 10.276 -12.013  -5.949  -0.954  0.025  0.300 -75.862   -179.77 -158.27  108.31   16.27 -155.67   39.28  -47.64   39.03    7.74 -133.22  -72.74  -84.35   -2.75

DOCKED: MODEL       22
DOCKED: USER    Run = 22
DOCKED: USER    DPF = D:/Protein_go_brrr/autodock/final/AncMH_nat/heme/dock.dpf
DOCKED: USER  
DOCKED: USER    Estimated Free Energy of Binding    =   -2.87 kcal/mol  [=(1)+(2)+(3)-(4)]
DOCKED: USER    Estimated Inhibition Constant, Ki   =    7.92 mM (millimolar)  [Temperature = 298.15 K]
DOCKED: USER    
DOCKED: USER    (1) Final Intermolecular Energy     =   -6.74 kcal/mol
DOCKED: USER        vdW + Hbond + desolv Energy     =   -6.73 kcal/mol
DOCKED: USER        Electrostatic Energy            =   -0.02 kcal/mol
DOCKED: USER    (2) Final Total Internal Energy     =   -4.53 kcal/mol
DOCKED: USER    (3) Torsional Free Energy           =   +3.88 kcal/mol
DOCKED: USER    (4) Unbound System's Energy  [=(2)] =   -4.53 kcal/mol
DOCKED: USER    
DOCKED: USER    
DOCKED: USER    NEWDPF move heme_opt.pdbqt
DOCKED: USER    NEWDPF about 0.153000 0.018000 -0.028000
DOCKED: USER    NEWDPF tran0 10.275651 -12.012606 -5.949078
DOCKED: USER    NEWDPF quaternion0 -0.586280 0.015181 0.184155 -0.788753
DOCKED: USER    NEWDPF axisangle0 -0.953751 0.024696 0.299581 -75.861667
DOCKED: USER    NEWDPF quat0 -0.953751 0.024696 0.299581 -75.861667
DOCKED: USER    NEWDPF dihe0 -179.77 -158.27 108.31 16.27 -155.67 39.28 -47.64 39.03 7.74 -133.22 -72.74 -84.35 -2.75 
DOCKED: USER  keepresnum = 1 
DOCKED: USER  
DOCKED: REMARK  13 active torsions:
DOCKED: REMARK  status: ('A' for Active; 'I' for Inactive)
DOCKED: REMARK    1  A    between atoms: O_3  and  C_38 
DOCKED: REMARK    2  A    between atoms: O_4  and  C_40 
DOCKED: REMARK    3  A    between atoms: O_7  and  C_46 
DOCKED: REMARK    4  A    between atoms: O_9  and  C_48 
DOCKED: REMARK    5  A    between atoms: C_15  and  C_20 
DOCKED: REMARK    6  A    between atoms: C_16  and  C_23 
DOCKED: REMARK    7  A    between atoms: C_20  and  C_38 
DOCKED: REMARK    8  A    between atoms: C_23  and  C_40 
DOCKED: REMARK    9  A    between atoms: C_32  and  C_41 
DOCKED: REMARK   10  A    between atoms: C_37  and  C_45 
DOCKED: REMARK   11  A    between atoms: C_41  and  C_44 
DOCKED: REMARK   12  A    between atoms: C_44  and  C_46 
DOCKED: REMARK   13  A    between atoms: C_47  and  C_48 
DOCKED: USER                              x       y       z     vdW  Elec       q    Type
DOCKED: USER                           _______ _______ _______ _____ _____    ______ ____
DOCKED: ROOT
DOCKED: ATOM      1  O   UNL d   1       4.403 -12.526  -5.954 -0.28 -0.01    -0.289 OA
DOCKED: ATOM      2  O   UNL d   1       9.597 -15.392  -1.350 -0.02 +0.03    -0.289 OA
DOCKED: ATOM      3  N   UNL d   1       7.786 -12.056  -6.431 -0.13 +0.04    -0.247 NA
DOCKED: ATOM      4  N   UNL d   1       8.994 -13.269  -4.002 -0.14 +0.04    -0.247 NA
DOCKED: ATOM      5  N   UNL d   1      11.466 -11.978  -4.700 -0.09 +0.15    -0.354 N 
DOCKED: ATOM      6  N   UNL d   1      10.200 -10.708  -7.207 -0.07 +0.16    -0.354 N 
DOCKED: ATOM      7  C   UNL d   1       5.753 -11.200  -7.500 -0.25 -0.00    +0.084 A 
DOCKED: ATOM      8  C   UNL d   1       7.723 -15.030  -2.882 -0.06 -0.00    +0.084 A 
DOCKED: ATOM      9  C   UNL d   1       7.802 -13.958  -3.974 -0.15 -0.00    +0.058 A 
DOCKED: ATOM     10  C   UNL d   1       7.282 -11.228  -7.420 -0.22 -0.01    +0.058 A 
DOCKED: ATOM     11  C   UNL d   1       5.482 -12.174  -6.394 -0.18 +0.01    +0.193 A 
DOCKED: ATOM     12  C   UNL d   1       6.794 -12.641  -5.843 -0.18 -0.00    +0.109 A 
DOCKED: ATOM     13  C   UNL d   1       9.076 -14.795  -2.271 -0.05 -0.02    +0.193 A 
DOCKED: ATOM     14  C   UNL d   1       5.182  -9.835  -7.109 -0.28 +0.00    +0.026 C 
DOCKED: ATOM     15  C   UNL d   1       6.778 -13.683  -4.796 -0.18 +0.00    +0.055 C 
DOCKED: ATOM     16  C   UNL d   1       7.688 -16.442  -3.473 -0.02 -0.00    +0.026 C 
DOCKED: ATOM     17  C   UNL d   1       9.741 -13.698  -3.037 -0.16 -0.02    +0.109 A 
DOCKED: ATOM     18  C   UNL d   1       8.045 -10.563  -8.308 -0.25 -0.01    +0.050 C 
DOCKED: ATOM     19  C   UNL d   1       9.462 -10.597  -8.364 -0.21 -0.01    +0.045 A 
DOCKED: ATOM     20  C   UNL d   1      11.780 -12.423  -3.442 -0.21 -0.02    +0.045 A 
DOCKED: ATOM     21  C   UNL d   1      11.072 -13.220  -2.635 -0.19 -0.02    +0.057 C 
DOCKED: ATOM     22  C   UNL d   1      13.478 -11.097  -4.200 -0.29 +0.00    -0.019 A 
DOCKED: ATOM     23  C   UNL d   1      12.431 -11.170  -5.239 -0.28 -0.02    +0.045 A 
DOCKED: ATOM     24  C   UNL d   1      13.087 -11.842  -3.139 -0.23 +0.01    -0.022 A 
DOCKED: ATOM     25  C   UNL d   1      11.545 -10.630  -7.483 -0.24 -0.02    +0.049 A 
DOCKED: ATOM     26  C   UNL d   1      10.350 -10.481  -9.422 -0.15 +0.01    -0.018 A 
DOCKED: ATOM     27  C   UNL d   1      11.664 -10.522  -8.862 -0.17 -0.00    +0.003 A 
DOCKED: ATOM     28  C   UNL d   1      12.502 -10.563  -6.434 -0.30 -0.02    +0.052 C 
DOCKED: ATOM     29  C   UNL d   1      13.806 -12.088  -1.857 -0.17 -0.01    +0.046 C 
DOCKED: ATOM     30  C   UNL d   1      10.002 -10.343 -10.865 -0.11 -0.01    +0.046 C 
DOCKED: ATOM     31  H   UNL d   1      10.633 -12.301  -5.180 -0.13 -0.07    +0.166 HD
DOCKED: ATOM     32  H   UNL d   1       9.788 -10.792  -6.285 -0.50 -0.14    +0.166 HD
DOCKED: ENDROOT
DOCKED: BRANCH   7  33
DOCKED: ATOM     33  C   UNL d   1       5.155 -11.704  -8.819 -0.02 +0.00    +0.141 C 
DOCKED: BRANCH  33  34
DOCKED: ATOM     34  C   UNL d   1       5.614 -13.093  -9.169 -0.04 -0.03    +0.306 C 
DOCKED: ATOM     35  O   UNL d   1       6.475 -13.384  -9.981 -0.02 +0.03    -0.251 OA
DOCKED: BRANCH  34  36
DOCKED: ATOM     36  O   UNL d   1       4.963 -14.044  -8.475 -0.01 +0.10    -0.481 OA
DOCKED: ATOM     37  H   UNL d   1       4.366 -13.547  -7.876 +0.08 -0.08    +0.295 HD
DOCKED: ENDBRANCH  34  36
DOCKED: ENDBRANCH  33  34
DOCKED: ENDBRANCH   7  33
DOCKED: BRANCH  27  38
DOCKED: ATOM     38  C   UNL d   1      12.883 -10.419  -9.607 -0.13 -0.01    +0.017 C 
DOCKED: ATOM     39  C   UNL d   1      13.916  -9.621  -9.295 -0.17 -0.07    +0.092 C 
DOCKED: BRANCH  39  40
DOCKED: ATOM     40  C   UNL d   1      15.117  -9.621 -10.134 -0.06 -0.18    +0.330 C 
DOCKED: ATOM     41  O   UNL d   1      15.179  -9.722 -11.345 -0.04 +0.11    -0.246 OA
DOCKED: BRANCH  40  42
DOCKED: ATOM     42  O   UNL d   1      16.212  -9.480  -9.372 -0.02 +0.18    -0.477 OA
DOCKED: ATOM     43  H   UNL d   1      15.919  -9.769  -8.484 +0.07 -0.09    +0.295 HD
DOCKED: ENDBRANCH  40  42
DOCKED: ENDBRANCH  39  40
DOCKED: ENDBRANCH  27  38
DOCKED: BRANCH   8  44
DOCKED: ATOM     44  C   UNL d   1       6.612 -14.835  -1.845 -0.10 +0.01    +0.141 C 
DOCKED: BRANCH  44  45
DOCKED: ATOM     45  C   UNL d   1       6.537 -15.951  -0.837 +0.00 +0.01    +0.306 C 
DOCKED: ATOM     46  O   UNL d   1       5.853 -16.957  -0.916 -0.00 -0.01    -0.251 OA
DOCKED: BRANCH  45  47
DOCKED: ATOM     47  O   UNL d   1       7.313 -15.726   0.238 +0.02 -0.01    -0.481 OA
DOCKED: ATOM     48  H   UNL d   1       8.230 -15.854  -0.087 +0.04 -0.01    +0.295 HD
DOCKED: ENDBRANCH  45  47
DOCKED: ENDBRANCH  44  45
DOCKED: ENDBRANCH   8  44
DOCKED: BRANCH  22  49
DOCKED: ATOM     49  C   UNL d   1      14.744 -10.302  -4.334 +0.24 -0.00    +0.048 C 
DOCKED: BRANCH  49  50
DOCKED: ATOM     50  C   UNL d   1      15.842 -11.096  -5.040 -0.13 -0.01    +0.125 C 
DOCKED: BRANCH  50  51
DOCKED: ATOM     51  C   UNL d   1      16.080 -10.567  -6.426 -0.09 -0.03    +0.305 C 
DOCKED: ATOM     52  O   UNL d   1      15.982  -9.414  -6.808 -0.55 +0.01    -0.251 OA
DOCKED: BRANCH  51  53
DOCKED: ATOM     53  O   UNL d   1      16.427 -11.544  -7.286 +0.01 +0.07    -0.481 OA
DOCKED: ATOM     54  H   UNL d   1      16.800 -11.064  -8.055 +0.04 -0.05    +0.295 HD
DOCKED: ENDBRANCH  51  53
DOCKED: ENDBRANCH  50  51
DOCKED: ENDBRANCH  49  50
DOCKED: ENDBRANCH  22  49
DOCKED: TORSDOF 13
DOCKED: TER
DOCKED: ENDMDL
________________________________________________________________________________


	BEGINNING GENETIC ALGORITHM DOCKING 23 of 100
Run: 23 Seed: 615086717 2017269137 [ Run 23 of 100 GA/GALS ]
Beginning LAMARCKIAN GENETIC ALGORITHM (LGA), with a maximum of 25000000 energy evaluations.

Final-Value: -10.256


	FINAL GENETIC ALGORITHM DOCKED STATE
	_______________________________________________


Detailed state:  trans -12.206 8.786 16.690 quatxyzw -0.739111 -0.595926 0.108411 0.294676 center 0.153 0.018 -0.028 ntor 13 135.9396 -103.6070 -174.4810 -159.4775 -110.3104 168.2264 139.1059 -70.3556 172.4284 -27.8922 -173.9855 89.3700 5.5506
State:	-12.206   8.786  16.690  -0.773 -0.624  0.113 145.724    135.94 -103.61 -174.48 -159.48 -110.31  168.23  139.11  -70.36  172.43  -27.89 -173.99   89.37    5.55

DOCKED: MODEL       23
DOCKED: USER    Run = 23
DOCKED: USER    DPF = D:/Protein_go_brrr/autodock/final/AncMH_nat/heme/dock.dpf
DOCKED: USER  
DOCKED: USER    Estimated Free Energy of Binding    =   -4.73 kcal/mol  [=(1)+(2)+(3)-(4)]
DOCKED: USER    Estimated Inhibition Constant, Ki   =  338.43 uM (micromolar)  [Temperature = 298.15 K]
DOCKED: USER    
DOCKED: USER    (1) Final Intermolecular Energy     =   -8.61 kcal/mol
DOCKED: USER        vdW + Hbond + desolv Energy     =   -7.68 kcal/mol
DOCKED: USER        Electrostatic Energy            =   -0.93 kcal/mol
DOCKED: USER    (2) Final Total Internal Energy     =   -1.64 kcal/mol
DOCKED: USER    (3) Torsional Free Energy           =   +3.88 kcal/mol
DOCKED: USER    (4) Unbound System's Energy  [=(2)] =   -1.64 kcal/mol
DOCKED: USER    
DOCKED: USER    
DOCKED: USER    NEWDPF move heme_opt.pdbqt
DOCKED: USER    NEWDPF about 0.153000 0.018000 -0.028000
DOCKED: USER    NEWDPF tran0 -12.206119 8.785777 16.689847
DOCKED: USER    NEWDPF quaternion0 -0.739111 -0.595926 0.108411 0.294676
DOCKED: USER    NEWDPF axisangle0 -0.773454 -0.623617 0.113448 145.723755
DOCKED: USER    NEWDPF quat0 -0.773454 -0.623617 0.113448 145.723755
DOCKED: USER    NEWDPF dihe0 135.94 -103.61 -174.48 -159.48 -110.31 168.23 139.11 -70.36 172.43 -27.89 -173.99 89.37 5.55 
DOCKED: USER  keepresnum = 1 
DOCKED: USER  
DOCKED: REMARK  13 active torsions:
DOCKED: REMARK  status: ('A' for Active; 'I' for Inactive)
DOCKED: REMARK    1  A    between atoms: O_3  and  C_38 
DOCKED: REMARK    2  A    between atoms: O_4  and  C_40 
DOCKED: REMARK    3  A    between atoms: O_7  and  C_46 
DOCKED: REMARK    4  A    between atoms: O_9  and  C_48 
DOCKED: REMARK    5  A    between atoms: C_15  and  C_20 
DOCKED: REMARK    6  A    between atoms: C_16  and  C_23 
DOCKED: REMARK    7  A    between atoms: C_20  and  C_38 
DOCKED: REMARK    8  A    between atoms: C_23  and  C_40 
DOCKED: REMARK    9  A    between atoms: C_32  and  C_41 
DOCKED: REMARK   10  A    between atoms: C_37  and  C_45 
DOCKED: REMARK   11  A    between atoms: C_41  and  C_44 
DOCKED: REMARK   12  A    between atoms: C_44  and  C_46 
DOCKED: REMARK   13  A    between atoms: C_47  and  C_48 
DOCKED: USER                              x       y       z     vdW  Elec       q    Type
DOCKED: USER                           _______ _______ _______ _____ _____    ______ ____
DOCKED: ROOT
DOCKED: ATOM      1  O   UNL d   1     -11.980   3.639  19.557 -0.02 +0.03    -0.289 OA
DOCKED: ATOM      2  O   UNL d   1     -17.794   8.069  17.832 -0.48 -0.38    -0.289 OA
DOCKED: ATOM      3  N   UNL d   1     -11.608   6.674  17.961 -0.04 +0.03    -0.247 NA
DOCKED: ATOM      4  N   UNL d   1     -14.408   7.524  17.446 -0.08 -0.07    -0.247 NA
DOCKED: ATOM      5  N   UNL d   1     -13.375   9.520  15.653 -0.06 -0.03    -0.354 N 
DOCKED: ATOM      6  N   UNL d   1     -10.474   8.619  16.178 -0.09 +0.06    -0.354 N 
DOCKED: ATOM      7  C   UNL d   1     -10.100   4.834  18.551 -0.14 -0.02    +0.084 A 
DOCKED: ATOM      8  C   UNL d   1     -16.132   6.659  18.946 -0.05 +0.03    +0.084 A 
DOCKED: ATOM      9  C   UNL d   1     -14.669   6.666  18.491 -0.06 +0.01    +0.058 A 
DOCKED: ATOM     10  C   UNL d   1     -10.305   6.206  17.903 -0.16 -0.02    +0.058 A 
DOCKED: ATOM     11  C   UNL d   1     -11.513   4.617  19.002 -0.03 -0.02    +0.193 A 
DOCKED: ATOM     12  C   UNL d   1     -12.323   5.813  18.608 -0.05 -0.01    +0.109 A 
DOCKED: ATOM     13  C   UNL d   1     -16.660   7.644  17.942 -0.08 +0.16    +0.193 A 
DOCKED: ATOM     14  C   UNL d   1      -9.738   3.760  17.521 -0.21 -0.00    +0.026 C 
DOCKED: ATOM     15  C   UNL d   1     -13.737   5.866  19.031 -0.04 +0.00    +0.055 C 
DOCKED: ATOM     16  C   UNL d   1     -16.293   7.252  20.349 -0.01 +0.00    +0.026 C 
DOCKED: ATOM     17  C   UNL d   1     -15.517   8.087  17.088 -0.11 +0.07    +0.109 A 
DOCKED: ATOM     18  C   UNL d   1      -9.271   6.912  17.409 -0.27 -0.02    +0.050 C 
DOCKED: ATOM     19  C   UNL d   1      -9.352   8.221  16.869 -0.24 -0.01    +0.045 A 
DOCKED: ATOM     20  C   UNL d   1     -14.712   9.618  15.369 -0.19 +0.01    +0.045 A 
DOCKED: ATOM     21  C   UNL d   1     -15.744   9.027  15.980 -0.06 +0.04    +0.057 C 
DOCKED: ATOM     22  C   UNL d   1     -13.548  10.918  13.896 -0.28 +0.00    -0.019 A 
DOCKED: ATOM     23  C   UNL d   1     -12.592  10.270  14.816 -0.24 -0.00    +0.045 A 
DOCKED: ATOM     24  C   UNL d   1     -14.801  10.529  14.229 -0.24 -0.00    -0.022 A 
DOCKED: ATOM     25  C   UNL d   1     -10.303   9.885  15.667 -0.18 -0.01    +0.049 A 
DOCKED: ATOM     26  C   UNL d   1      -8.444   9.268  16.838 -0.23 +0.01    -0.018 A 
DOCKED: ATOM     27  C   UNL d   1      -9.057  10.323  16.094 -0.25 -0.00    +0.003 A 
DOCKED: ATOM     28  C   UNL d   1     -11.263  10.450  14.784 +0.04 -0.01    +0.052 C 
DOCKED: ATOM     29  C   UNL d   1     -16.096  10.921  13.604 -0.28 +0.01    +0.046 C 
DOCKED: ATOM     30  C   UNL d   1      -7.090   9.291  17.462 -0.23 -0.02    +0.046 C 
DOCKED: ATOM     31  H   UNL d   1     -13.045   9.001  16.460 +0.05 +0.01    +0.166 HD
DOCKED: ATOM     32  H   UNL d   1     -11.286   8.029  16.041 +0.08 -0.02    +0.166 HD
DOCKED: ENDROOT
DOCKED: BRANCH   7  33
DOCKED: ATOM     33  C   UNL d   1      -9.144   4.809  19.749 -0.08 -0.06    +0.141 C 
DOCKED: BRANCH  33  34
DOCKED: ATOM     34  C   UNL d   1      -8.253   3.597  19.754 -0.07 -0.16    +0.306 C 
DOCKED: ATOM     35  O   UNL d   1      -8.619   2.434  19.729 -0.09 +0.08    -0.251 OA
DOCKED: BRANCH  34  36
DOCKED: ATOM     36  O   UNL d   1      -6.946   3.914  19.787 -0.01 +0.46    -0.481 OA
DOCKED: ATOM     37  H   UNL d   1      -6.845   4.615  19.108 -0.48 -0.63    +0.295 HD
DOCKED: ENDBRANCH  34  36
DOCKED: ENDBRANCH  33  34
DOCKED: ENDBRANCH   7  33
DOCKED: BRANCH  27  38
DOCKED: ATOM     38  C   UNL d   1      -8.454  11.590  15.808 -0.31 -0.00    +0.017 C 
DOCKED: ATOM     39  C   UNL d   1      -7.937  12.425  16.721 -0.17 -0.02    +0.092 C 
DOCKED: BRANCH  39  40
DOCKED: ATOM     40  C   UNL d   1      -7.330  13.689  16.294 -0.11 -0.09    +0.330 C 
DOCKED: ATOM     41  O   UNL d   1      -7.033  14.643  16.987 -0.07 +0.06    -0.246 OA
DOCKED: BRANCH  40  42
DOCKED: ATOM     42  O   UNL d   1      -7.117  13.674  14.969 -0.12 +0.15    -0.477 OA
DOCKED: ATOM     43  H   UNL d   1      -8.007  13.820  14.586 -0.17 -0.20    +0.295 HD
DOCKED: ENDBRANCH  40  42
DOCKED: ENDBRANCH  39  40
DOCKED: ENDBRANCH  27  38
DOCKED: BRANCH   8  44
DOCKED: ATOM     44  C   UNL d   1     -16.855   5.313  18.827 -0.05 +0.05    +0.141 C 
DOCKED: BRANCH  44  45
DOCKED: ATOM     45  C   UNL d   1     -17.277   4.988  17.419 -0.07 +0.22    +0.306 C 
DOCKED: ATOM     46  O   UNL d   1     -16.661   4.314  16.612 -0.11 -0.14    -0.251 OA
DOCKED: BRANCH  45  47
DOCKED: ATOM     47  O   UNL d   1     -18.451   5.558  17.090 -0.25 -0.69    -0.481 OA
DOCKED: ATOM     48  H   UNL d   1     -18.684   6.112  17.865 +0.02 +0.32    +0.295 HD
DOCKED: ENDBRANCH  45  47
DOCKED: ENDBRANCH  44  45
DOCKED: ENDBRANCH   8  44
DOCKED: BRANCH  22  49
DOCKED: ATOM     49  C   UNL d   1     -13.149  11.836  12.778 -0.44 -0.01    +0.048 C 
DOCKED: BRANCH  49  50
DOCKED: ATOM     50  C   UNL d   1     -12.805  13.236  13.286 -0.31 -0.04    +0.125 C 
DOCKED: BRANCH  50  51
DOCKED: ATOM     51  C   UNL d   1     -12.797  13.274  14.788 -0.11 -0.08    +0.305 C 
DOCKED: ATOM     52  O   UNL d   1     -13.759  13.300  15.536 -0.03 +0.04    -0.251 OA
DOCKED: BRANCH  51  53
DOCKED: ATOM     53  O   UNL d   1     -11.544  13.290  15.285 -0.09 +0.18    -0.481 OA
DOCKED: ATOM     54  H   UNL d   1     -10.994  13.599  14.535 -0.33 -0.19    +0.295 HD
DOCKED: ENDBRANCH  51  53
DOCKED: ENDBRANCH  50  51
DOCKED: ENDBRANCH  49  50
DOCKED: ENDBRANCH  22  49
DOCKED: TORSDOF 13
DOCKED: TER
DOCKED: ENDMDL
________________________________________________________________________________


	BEGINNING GENETIC ALGORITHM DOCKING 24 of 100
Run: 24 Seed: 1032031989 909803754 [ Run 24 of 100 GA/GALS ]
Beginning LAMARCKIAN GENETIC ALGORITHM (LGA), with a maximum of 25000000 energy evaluations.

Final-Value: -12.766


	FINAL GENETIC ALGORITHM DOCKED STATE
	_______________________________________________


Detailed state:  trans -2.463 -9.842 -12.882 quatxyzw 0.041360 0.377513 0.673024 -0.634674 center 0.153 0.018 -0.028 ntor 13 -179.9382 -173.4049 96.9355 -50.7380 -152.4682 -56.4088 -27.3042 -79.2329 13.3568 8.9358 -101.1711 14.3290 -11.8580
State:	 -2.463  -9.842 -12.882   0.054  0.489  0.871 -101.208   -179.94 -173.40   96.94  -50.74 -152.47  -56.41  -27.30  -79.23   13.36    8.94 -101.17   14.33  -11.86

DOCKED: MODEL       24
DOCKED: USER    Run = 24
DOCKED: USER    DPF = D:/Protein_go_brrr/autodock/final/AncMH_nat/heme/dock.dpf
DOCKED: USER  
DOCKED: USER    Estimated Free Energy of Binding    =   -4.69 kcal/mol  [=(1)+(2)+(3)-(4)]
DOCKED: USER    Estimated Inhibition Constant, Ki   =  362.42 uM (micromolar)  [Temperature = 298.15 K]
DOCKED: USER    
DOCKED: USER    (1) Final Intermolecular Energy     =   -8.57 kcal/mol
DOCKED: USER        vdW + Hbond + desolv Energy     =   -8.44 kcal/mol
DOCKED: USER        Electrostatic Energy            =   -0.13 kcal/mol
DOCKED: USER    (2) Final Total Internal Energy     =   -4.19 kcal/mol
DOCKED: USER    (3) Torsional Free Energy           =   +3.88 kcal/mol
DOCKED: USER    (4) Unbound System's Energy  [=(2)] =   -4.19 kcal/mol
DOCKED: USER    
DOCKED: USER    
DOCKED: USER    NEWDPF move heme_opt.pdbqt
DOCKED: USER    NEWDPF about 0.153000 0.018000 -0.028000
DOCKED: USER    NEWDPF tran0 -2.463039 -9.842385 -12.882168
DOCKED: USER    NEWDPF quaternion0 0.041360 0.377513 0.673024 -0.634674
DOCKED: USER    NEWDPF axisangle0 0.053521 0.488514 0.870913 -101.208333
DOCKED: USER    NEWDPF quat0 0.053521 0.488514 0.870913 -101.208333
DOCKED: USER    NEWDPF dihe0 -179.94 -173.40 96.94 -50.74 -152.47 -56.41 -27.30 -79.23 13.36 8.94 -101.17 14.33 -11.86 
DOCKED: USER  keepresnum = 1 
DOCKED: USER  
DOCKED: REMARK  13 active torsions:
DOCKED: REMARK  status: ('A' for Active; 'I' for Inactive)
DOCKED: REMARK    1  A    between atoms: O_3  and  C_38 
DOCKED: REMARK    2  A    between atoms: O_4  and  C_40 
DOCKED: REMARK    3  A    between atoms: O_7  and  C_46 
DOCKED: REMARK    4  A    between atoms: O_9  and  C_48 
DOCKED: REMARK    5  A    between atoms: C_15  and  C_20 
DOCKED: REMARK    6  A    between atoms: C_16  and  C_23 
DOCKED: REMARK    7  A    between atoms: C_20  and  C_38 
DOCKED: REMARK    8  A    between atoms: C_23  and  C_40 
DOCKED: REMARK    9  A    between atoms: C_32  and  C_41 
DOCKED: REMARK   10  A    between atoms: C_37  and  C_45 
DOCKED: REMARK   11  A    between atoms: C_41  and  C_44 
DOCKED: REMARK   12  A    between atoms: C_44  and  C_46 
DOCKED: REMARK   13  A    between atoms: C_47  and  C_48 
DOCKED: USER                              x       y       z     vdW  Elec       q    Type
DOCKED: USER                           _______ _______ _______ _____ _____    ______ ____
DOCKED: ROOT
DOCKED: ATOM      1  O   UNL d   1      -2.435 -14.363  -9.098 -0.10 +0.10    -0.289 OA
DOCKED: ATOM      2  O   UNL d   1       1.188 -13.354 -15.597 -0.01 +0.03    -0.289 OA
DOCKED: ATOM      3  N   UNL d   1      -2.874 -11.565 -11.067 -0.16 +0.08    -0.247 NA
DOCKED: ATOM      4  N   UNL d   1      -0.848 -11.915 -13.212 -0.09 +0.10    -0.247 NA
DOCKED: ATOM      5  N   UNL d   1      -1.275  -9.165 -13.936 -0.04 +0.09    -0.354 N 
DOCKED: ATOM      6  N   UNL d   1      -3.362  -8.806 -11.696 -0.17 +0.07    -0.354 N 
DOCKED: ATOM      7  C   UNL d   1      -3.647 -12.255  -8.845 -0.27 -0.01    +0.084 A 
DOCKED: ATOM      8  C   UNL d   1      -0.158 -14.200 -13.736 -0.05 -0.02    +0.084 A 
DOCKED: ATOM      9  C   UNL d   1      -0.957 -13.239 -12.850 -0.12 -0.02    +0.058 A 
DOCKED: ATOM     10  C   UNL d   1      -3.617 -11.201  -9.956 -0.28 -0.01    +0.058 A 
DOCKED: ATOM     11  C   UNL d   1      -2.805 -13.287  -9.532 -0.12 -0.06    +0.193 A 
DOCKED: ATOM     12  C   UNL d   1      -2.420 -12.762 -10.881 -0.07 -0.04    +0.109 A 
DOCKED: ATOM     13  C   UNL d   1       0.455 -13.172 -14.645 -0.04 -0.03    +0.193 A 
DOCKED: ATOM     14  C   UNL d   1      -2.919 -11.782  -7.584 -0.47 +0.00    +0.026 C 
DOCKED: ATOM     15  C   UNL d   1      -1.660 -13.650 -11.783 -0.10 -0.02    +0.055 C 
DOCKED: ATOM     16  C   UNL d   1      -1.075 -15.105 -14.564 -0.01 -0.00    +0.026 C 
DOCKED: ATOM     17  C   UNL d   1      -0.037 -11.828 -14.217 -0.12 -0.02    +0.109 A 
DOCKED: ATOM     18  C   UNL d   1      -4.336 -10.066  -9.868 -0.37 +0.00    +0.050 C 
DOCKED: ATOM     19  C   UNL d   1      -4.436  -9.076 -10.878 -0.27 +0.00    +0.045 A 
DOCKED: ATOM     20  C   UNL d   1      -0.173  -9.442 -14.702 -0.13 -0.01    +0.045 A 
DOCKED: ATOM     21  C   UNL d   1       0.434 -10.616 -14.904 -0.14 -0.01    +0.057 C 
DOCKED: ATOM     22  C   UNL d   1      -0.630  -7.209 -14.846 -0.24 +0.00    -0.019 A 
DOCKED: ATOM     23  C   UNL d   1      -1.627  -7.842 -13.960 -0.25 -0.01    +0.045 A 
DOCKED: ATOM     24  C   UNL d   1       0.227  -8.161 -15.284 -0.16 +0.00    -0.022 A 
DOCKED: ATOM     25  C   UNL d   1      -3.646  -7.755 -12.537 -0.30 -0.01    +0.049 A 
DOCKED: ATOM     26  C   UNL d   1      -5.457  -8.203 -11.222 -0.19 -0.00    -0.018 A 
DOCKED: ATOM     27  C   UNL d   1      -4.960  -7.385 -12.283 -0.24 +0.00    +0.003 A 
DOCKED: ATOM     28  C   UNL d   1      -2.639  -7.191 -13.366 -0.35 -0.01    +0.052 C 
DOCKED: ATOM     29  C   UNL d   1       1.391  -8.018 -16.204 -0.10 -0.00    +0.046 C 
DOCKED: ATOM     30  C   UNL d   1      -6.813  -8.133 -10.605 -0.19 +0.03    +0.046 C 
DOCKED: ATOM     31  H   UNL d   1      -1.797  -9.905 -13.479 -0.33 -0.07    +0.166 HD
DOCKED: ATOM     32  H   UNL d   1      -2.478  -9.298 -11.640 -0.19 -0.09    +0.166 HD
DOCKED: ENDROOT
DOCKED: BRANCH   7  33
DOCKED: ATOM     33  C   UNL d   1      -5.032 -12.823  -8.516 -0.19 -0.03    +0.141 C 
DOCKED: BRANCH  33  34
DOCKED: ATOM     34  C   UNL d   1      -5.666 -13.519  -9.689 -0.02 -0.05    +0.306 C 
DOCKED: ATOM     35  O   UNL d   1      -6.494 -13.043 -10.448 -0.02 +0.02    -0.251 OA
DOCKED: BRANCH  34  36
DOCKED: ATOM     36  O   UNL d   1      -5.223 -14.779  -9.846 +0.02 +0.07    -0.481 OA
DOCKED: ATOM     37  H   UNL d   1      -4.547 -14.892  -9.144 +0.06 -0.05    +0.295 HD
DOCKED: ENDBRANCH  34  36
DOCKED: ENDBRANCH  33  34
DOCKED: ENDBRANCH   7  33
DOCKED: BRANCH  27  38
DOCKED: ATOM     38  C   UNL d   1      -5.690  -6.335 -12.926 -0.18 +0.00    +0.017 C 
DOCKED: ATOM     39  C   UNL d   1      -5.842  -6.198 -14.252 -0.13 +0.01    +0.092 C 
DOCKED: BRANCH  39  40
DOCKED: ATOM     40  C   UNL d   1      -6.631  -5.084 -14.785 +0.01 +0.04    +0.330 C 
DOCKED: ATOM     41  O   UNL d   1      -7.796  -4.822 -14.557 -0.06 -0.02    -0.246 OA
DOCKED: BRANCH  40  42
DOCKED: ATOM     42  O   UNL d   1      -5.875  -4.330 -15.598 -0.53 -0.09    -0.477 OA
DOCKED: ATOM     43  H   UNL d   1      -5.035  -4.829 -15.668 +0.04 +0.04    +0.295 HD
DOCKED: ENDBRANCH  40  42
DOCKED: ENDBRANCH  39  40
DOCKED: ENDBRANCH  27  38
DOCKED: BRANCH   8  44
DOCKED: ATOM     44  C   UNL d   1       0.925 -15.014 -13.019 -0.06 -0.03    +0.141 C 
DOCKED: BRANCH  44  45
DOCKED: ATOM     45  C   UNL d   1       1.693 -14.214 -12.001 -0.04 -0.07    +0.306 C 
DOCKED: ATOM     46  O   UNL d   1       2.506 -13.335 -12.229 -0.61 +0.02    -0.251 OA
DOCKED: BRANCH  45  47
DOCKED: ATOM     47  O   UNL d   1       1.414 -14.586 -10.738 -0.12 +0.20    -0.481 OA
DOCKED: ATOM     48  H   UNL d   1       0.598 -14.091 -10.509 -0.45 -0.25    +0.295 HD
DOCKED: ENDBRANCH  45  47
DOCKED: ENDBRANCH  44  45
DOCKED: ENDBRANCH   8  44
DOCKED: BRANCH  22  49
DOCKED: ATOM     49  C   UNL d   1      -0.599  -5.743 -15.168 -0.26 -0.00    +0.048 C 
DOCKED: BRANCH  49  50
DOCKED: ATOM     50  C   UNL d   1      -1.325  -5.433 -16.477 -0.10 -0.01    +0.125 C 
DOCKED: BRANCH  50  51
DOCKED: ATOM     51  C   UNL d   1      -2.812  -5.391 -16.269 -0.07 -0.01    +0.305 C 
DOCKED: ATOM     52  O   UNL d   1      -3.592  -6.328 -16.285 -0.06 +0.00    -0.251 OA
DOCKED: BRANCH  51  53
DOCKED: ATOM     53  O   UNL d   1      -3.256  -4.136 -16.057 -0.05 -0.01    -0.481 OA
DOCKED: ATOM     54  H   UNL d   1      -3.991  -4.033 -16.697 +0.04 +0.01    +0.295 HD
DOCKED: ENDBRANCH  51  53
DOCKED: ENDBRANCH  50  51
DOCKED: ENDBRANCH  49  50
DOCKED: ENDBRANCH  22  49
DOCKED: TORSDOF 13
DOCKED: TER
DOCKED: ENDMDL
________________________________________________________________________________


	BEGINNING GENETIC ALGORITHM DOCKING 25 of 100
Run: 25 Seed: 1969139971 1767122162 [ Run 25 of 100 GA/GALS ]
Beginning LAMARCKIAN GENETIC ALGORITHM (LGA), with a maximum of 25000000 energy evaluations.

Final-Value: -10.575


	FINAL GENETIC ALGORITHM DOCKED STATE
	_______________________________________________


Detailed state:  trans -8.257 -6.806 19.666 quatxyzw -0.204995 0.928347 0.262385 -0.165235 center 0.153 0.018 -0.028 ntor 13 -179.8815 -170.0082 111.0188 29.1751 -156.2917 22.9254 -49.0862 60.2324 7.1845 -131.7480 110.6707 -25.8359 54.6135
State:	 -8.257  -6.806  19.666  -0.208  0.941  0.266 -160.978   -179.88 -170.01  111.02   29.18 -156.29   22.93  -49.09   60.23    7.18 -131.75  110.67  -25.84   54.61

DOCKED: MODEL       25
DOCKED: USER    Run = 25
DOCKED: USER    DPF = D:/Protein_go_brrr/autodock/final/AncMH_nat/heme/dock.dpf
DOCKED: USER  
DOCKED: USER    Estimated Free Energy of Binding    =   -3.13 kcal/mol  [=(1)+(2)+(3)-(4)]
DOCKED: USER    Estimated Inhibition Constant, Ki   =    5.10 mM (millimolar)  [Temperature = 298.15 K]
DOCKED: USER    
DOCKED: USER    (1) Final Intermolecular Energy     =   -7.01 kcal/mol
DOCKED: USER        vdW + Hbond + desolv Energy     =   -6.77 kcal/mol
DOCKED: USER        Electrostatic Energy            =   -0.24 kcal/mol
DOCKED: USER    (2) Final Total Internal Energy     =   -3.57 kcal/mol
DOCKED: USER    (3) Torsional Free Energy           =   +3.88 kcal/mol
DOCKED: USER    (4) Unbound System's Energy  [=(2)] =   -3.57 kcal/mol
DOCKED: USER    
DOCKED: USER    
DOCKED: USER    NEWDPF move heme_opt.pdbqt
DOCKED: USER    NEWDPF about 0.153000 0.018000 -0.028000
DOCKED: USER    NEWDPF tran0 -8.257470 -6.806402 19.666428
DOCKED: USER    NEWDPF quaternion0 -0.204995 0.928347 0.262385 -0.165235
DOCKED: USER    NEWDPF axisangle0 -0.207853 0.941286 0.266042 -160.978241
DOCKED: USER    NEWDPF quat0 -0.207853 0.941286 0.266042 -160.978241
DOCKED: USER    NEWDPF dihe0 -179.88 -170.01 111.02 29.18 -156.29 22.93 -49.09 60.23 7.18 -131.75 110.67 -25.84 54.61 
DOCKED: USER  keepresnum = 1 
DOCKED: USER  
DOCKED: REMARK  13 active torsions:
DOCKED: REMARK  status: ('A' for Active; 'I' for Inactive)
DOCKED: REMARK    1  A    between atoms: O_3  and  C_38 
DOCKED: REMARK    2  A    between atoms: O_4  and  C_40 
DOCKED: REMARK    3  A    between atoms: O_7  and  C_46 
DOCKED: REMARK    4  A    between atoms: O_9  and  C_48 
DOCKED: REMARK    5  A    between atoms: C_15  and  C_20 
DOCKED: REMARK    6  A    between atoms: C_16  and  C_23 
DOCKED: REMARK    7  A    between atoms: C_20  and  C_38 
DOCKED: REMARK    8  A    between atoms: C_23  and  C_40 
DOCKED: REMARK    9  A    between atoms: C_32  and  C_41 
DOCKED: REMARK   10  A    between atoms: C_37  and  C_45 
DOCKED: REMARK   11  A    between atoms: C_41  and  C_44 
DOCKED: REMARK   12  A    between atoms: C_44  and  C_46 
DOCKED: REMARK   13  A    between atoms: C_47  and  C_48 
DOCKED: USER                              x       y       z     vdW  Elec       q    Type
DOCKED: USER                           _______ _______ _______ _____ _____    ______ ____
DOCKED: ROOT
DOCKED: ATOM      1  O   UNL d   1      -4.085  -3.483  22.176 -0.06 +0.07    -0.289 OA
DOCKED: ATOM      2  O   UNL d   1      -4.019 -10.673  20.010 -0.09 +0.02    -0.289 OA
DOCKED: ATOM      3  N   UNL d   1      -6.852  -5.062  20.856 -0.10 +0.03    -0.247 NA
DOCKED: ATOM      4  N   UNL d   1      -5.799  -7.717  20.037 -0.18 +0.04    -0.247 NA
DOCKED: ATOM      5  N   UNL d   1      -8.220  -8.112  18.538 -0.11 +0.01    -0.354 N 
DOCKED: ATOM      6  N   UNL d   1      -9.297  -5.348  19.377 -0.16 +0.00    -0.354 N 
DOCKED: ATOM      7  C   UNL d   1      -6.323  -2.760  21.512 -0.11 -0.01    +0.084 A 
DOCKED: ATOM      8  C   UNL d   1      -3.842  -8.561  21.234 -0.11 -0.02    +0.084 A 
DOCKED: ATOM      9  C   UNL d   1      -4.836  -7.423  20.977 -0.18 -0.01    +0.058 A 
DOCKED: ATOM     10  C   UNL d   1      -7.328  -3.764  20.939 -0.18 -0.01    +0.058 A 
DOCKED: ATOM     11  C   UNL d   1      -5.202  -3.724  21.756 -0.07 -0.04    +0.193 A 
DOCKED: ATOM     12  C   UNL d   1      -5.654  -5.090  21.343 -0.09 -0.02    +0.109 A 
DOCKED: ATOM     13  C   UNL d   1      -4.397  -9.541  20.239 -0.08 -0.02    +0.193 A 
DOCKED: ATOM     14  C   UNL d   1      -5.876  -1.735  20.467 -0.17 -0.00    +0.026 C 
DOCKED: ATOM     15  C   UNL d   1      -4.742  -6.227  21.579 -0.15 -0.01    +0.055 C 
DOCKED: ATOM     16  C   UNL d   1      -3.999  -9.145  22.641 -0.04 -0.00    +0.026 C 
DOCKED: ATOM     17  C   UNL d   1      -5.575  -8.905  19.576 -0.19 -0.01    +0.109 A 
DOCKED: ATOM     18  C   UNL d   1      -8.589  -3.401  20.635 -0.20 -0.01    +0.050 C 
DOCKED: ATOM     19  C   UNL d   1      -9.609  -4.275  20.181 -0.20 -0.00    +0.045 A 
DOCKED: ATOM     20  C   UNL d   1      -7.487  -9.179  18.088 -0.25 -0.00    +0.045 A 
DOCKED: ATOM     21  C   UNL d   1      -6.300  -9.621  18.515 -0.21 -0.00    +0.057 C 
DOCKED: ATOM     22  C   UNL d   1      -9.417  -9.044  16.874 -0.34 -0.00    -0.019 A 
DOCKED: ATOM     23  C   UNL d   1      -9.402  -7.950  17.865 -0.30 +0.00    +0.045 A 
DOCKED: ATOM     24  C   UNL d   1      -8.282  -9.769  17.011 -0.31 -0.00    -0.022 A 
DOCKED: ATOM     25  C   UNL d   1     -10.440  -6.004  18.981 -0.14 +0.01    +0.049 A 
DOCKED: ATOM     26  C   UNL d   1     -10.986  -4.255  20.342 -0.16 +0.00    -0.018 A 
DOCKED: ATOM     27  C   UNL d   1     -11.503  -5.360  19.598 -0.15 +0.00    +0.003 A 
DOCKED: ATOM     28  C   UNL d   1     -10.385  -7.050  18.021 -0.29 +0.01    +0.052 C 
DOCKED: ATOM     29  C   UNL d   1      -7.847 -10.974  16.249 -0.27 +0.03    +0.046 C 
DOCKED: ATOM     30  C   UNL d   1     -11.774  -3.271  21.139 -0.11 -0.00    +0.046 C 
DOCKED: ATOM     31  H   UNL d   1      -7.922  -7.572  19.343 +0.06 -0.01    +0.166 HD
DOCKED: ATOM     32  H   UNL d   1      -8.352  -5.581  19.093 +0.05 -0.01    +0.166 HD
DOCKED: ENDROOT
DOCKED: BRANCH   7  33
DOCKED: ATOM     33  C   UNL d   1      -6.745  -2.083  22.820 -0.04 -0.02    +0.141 C 
DOCKED: BRANCH  33  34
DOCKED: ATOM     34  C   UNL d   1      -7.094  -3.073  23.899 -0.00 -0.03    +0.306 C 
DOCKED: ATOM     35  O   UNL d   1      -8.218  -3.390  24.248 -0.00 +0.02    -0.251 OA
DOCKED: BRANCH  34  36
DOCKED: ATOM     36  O   UNL d   1      -6.007  -3.613  24.478 +0.01 +0.05    -0.481 OA
DOCKED: ATOM     37  H   UNL d   1      -5.249  -3.224  23.991 +0.02 -0.04    +0.295 HD
DOCKED: ENDBRANCH  34  36
DOCKED: ENDBRANCH  33  34
DOCKED: ENDBRANCH   7  33
DOCKED: BRANCH  27  38
DOCKED: ATOM     38  C   UNL d   1     -12.890  -5.699  19.482 -0.15 +0.00    +0.017 C 
DOCKED: ATOM     39  C   UNL d   1     -13.367  -6.841  18.962 -0.16 +0.05    +0.092 C 
DOCKED: BRANCH  39  40
DOCKED: ATOM     40  C   UNL d   1     -14.812  -7.074  18.917 -0.01 +0.35    +0.330 C 
DOCKED: ATOM     41  O   UNL d   1     -15.701  -6.245  18.969 -0.12 -0.31    -0.246 OA
DOCKED: BRANCH  40  42
DOCKED: ATOM     42  O   UNL d   1     -15.065  -8.386  18.794 -0.37 -0.52    -0.477 OA
DOCKED: ATOM     43  H   UNL d   1     -14.192  -8.807  18.935 +0.05 +0.18    +0.295 HD
DOCKED: ENDBRANCH  40  42
DOCKED: ENDBRANCH  39  40
DOCKED: ENDBRANCH  27  38
DOCKED: BRANCH   8  44
DOCKED: ATOM     44  C   UNL d   1      -2.376  -8.238  20.928 -0.13 -0.04    +0.141 C 
DOCKED: BRANCH  44  45
DOCKED: ATOM     45  C   UNL d   1      -1.441  -9.380  21.230 -0.05 -0.06    +0.306 C 
DOCKED: ATOM     46  O   UNL d   1      -0.832  -9.564  22.269 -0.02 +0.04    -0.251 OA
DOCKED: BRANCH  45  47
DOCKED: ATOM     47  O   UNL d   1      -1.302 -10.220  20.189 -0.03 +0.08    -0.481 OA
DOCKED: ATOM     48  H   UNL d   1      -2.168 -10.674  20.119 +0.05 -0.04    +0.295 HD
DOCKED: ENDBRANCH  45  47
DOCKED: ENDBRANCH  44  45
DOCKED: ENDBRANCH   8  44
DOCKED: BRANCH  22  49
DOCKED: ATOM     49  C   UNL d   1     -10.523  -9.268  15.884 -0.47 +0.02    +0.048 C 
DOCKED: BRANCH  49  50
DOCKED: ATOM     50  C   UNL d   1     -11.868  -8.771  16.411 -0.32 +0.05    +0.125 C 
DOCKED: BRANCH  50  51
DOCKED: ATOM     51  C   UNL d   1     -12.343  -9.621  17.555 -0.13 +0.11    +0.305 C 
DOCKED: ATOM     52  O   UNL d   1     -11.741  -9.892  18.579 -0.06 -0.05    -0.251 OA
DOCKED: BRANCH  51  53
DOCKED: ATOM     53  O   UNL d   1     -13.581 -10.109  17.341 -0.02 -0.23    -0.481 OA
DOCKED: ATOM     54  H   UNL d   1     -13.955 -10.213  18.241 +0.07 +0.12    +0.295 HD
DOCKED: ENDBRANCH  51  53
DOCKED: ENDBRANCH  50  51
DOCKED: ENDBRANCH  49  50
DOCKED: ENDBRANCH  22  49
DOCKED: TORSDOF 13
DOCKED: TER
DOCKED: ENDMDL
________________________________________________________________________________


	BEGINNING GENETIC ALGORITHM DOCKING 26 of 100
Run: 26 Seed: 86458223 842785306 [ Run 26 of 100 GA/GALS ]
Beginning LAMARCKIAN GENETIC ALGORITHM (LGA), with a maximum of 25000000 energy evaluations.

Final-Value: -11.858


	FINAL GENETIC ALGORITHM DOCKED STATE
	_______________________________________________


Detailed state:  trans -18.011 0.135 8.254 quatxyzw -0.115381 0.424986 -0.609976 0.658789 center 0.153 0.018 -0.028 ntor 13 122.7404 -93.6528 -91.4974 133.2099 -177.4609 -64.3299 120.0789 85.2131 -27.2968 132.2023 -57.5962 30.4510 14.9469
State:	-18.011   0.135   8.254  -0.153  0.565 -0.811 97.585    122.74  -93.65  -91.50  133.21 -177.46  -64.33  120.08   85.21  -27.30  132.20  -57.60   30.45   14.95

DOCKED: MODEL       26
DOCKED: USER    Run = 26
DOCKED: USER    DPF = D:/Protein_go_brrr/autodock/final/AncMH_nat/heme/dock.dpf
DOCKED: USER  
DOCKED: USER    Estimated Free Energy of Binding    =   -5.57 kcal/mol  [=(1)+(2)+(3)-(4)]
DOCKED: USER    Estimated Inhibition Constant, Ki   =   83.22 uM (micromolar)  [Temperature = 298.15 K]
DOCKED: USER    
DOCKED: USER    (1) Final Intermolecular Energy     =   -9.44 kcal/mol
DOCKED: USER        vdW + Hbond + desolv Energy     =   -8.70 kcal/mol
DOCKED: USER        Electrostatic Energy            =   -0.75 kcal/mol
DOCKED: USER    (2) Final Total Internal Energy     =   -2.41 kcal/mol
DOCKED: USER    (3) Torsional Free Energy           =   +3.88 kcal/mol
DOCKED: USER    (4) Unbound System's Energy  [=(2)] =   -2.41 kcal/mol
DOCKED: USER    
DOCKED: USER    
DOCKED: USER    NEWDPF move heme_opt.pdbqt
DOCKED: USER    NEWDPF about 0.153000 0.018000 -0.028000
DOCKED: USER    NEWDPF tran0 -18.010729 0.135334 8.253842
DOCKED: USER    NEWDPF quaternion0 -0.115381 0.424986 -0.609976 0.658789
DOCKED: USER    NEWDPF axisangle0 -0.153365 0.564895 -0.810785 97.584788
DOCKED: USER    NEWDPF quat0 -0.153365 0.564895 -0.810785 97.584788
DOCKED: USER    NEWDPF dihe0 122.74 -93.65 -91.50 133.21 -177.46 -64.33 120.08 85.21 -27.30 132.20 -57.60 30.45 14.95 
DOCKED: USER  keepresnum = 1 
DOCKED: USER  
DOCKED: REMARK  13 active torsions:
DOCKED: REMARK  status: ('A' for Active; 'I' for Inactive)
DOCKED: REMARK    1  A    between atoms: O_3  and  C_38 
DOCKED: REMARK    2  A    between atoms: O_4  and  C_40 
DOCKED: REMARK    3  A    between atoms: O_7  and  C_46 
DOCKED: REMARK    4  A    between atoms: O_9  and  C_48 
DOCKED: REMARK    5  A    between atoms: C_15  and  C_20 
DOCKED: REMARK    6  A    between atoms: C_16  and  C_23 
DOCKED: REMARK    7  A    between atoms: C_20  and  C_38 
DOCKED: REMARK    8  A    between atoms: C_23  and  C_40 
DOCKED: REMARK    9  A    between atoms: C_32  and  C_41 
DOCKED: REMARK   10  A    between atoms: C_37  and  C_45 
DOCKED: REMARK   11  A    between atoms: C_41  and  C_44 
DOCKED: REMARK   12  A    between atoms: C_44  and  C_46 
DOCKED: REMARK   13  A    between atoms: C_47  and  C_48 
DOCKED: USER                              x       y       z     vdW  Elec       q    Type
DOCKED: USER                           _______ _______ _______ _____ _____    ______ ____
DOCKED: ROOT
DOCKED: ATOM      1  O   UNL d   1     -19.214  -3.871   4.100 -0.06 -0.14    -0.289 OA
DOCKED: ATOM      2  O   UNL d   1     -12.699  -1.792   7.201 -0.23 -0.04    -0.289 OA
DOCKED: ATOM      3  N   UNL d   1     -18.980  -1.346   6.437 -0.04 -0.14    -0.247 NA
DOCKED: ATOM      4  N   UNL d   1     -16.133  -1.458   7.280 -0.14 -0.09    -0.247 NA
DOCKED: ATOM      5  N   UNL d   1     -16.819   0.238   9.499 -0.14 -0.10    -0.354 N 
DOCKED: ATOM      6  N   UNL d   1     -19.775   0.333   8.628 -0.04 -0.15    -0.354 N 
DOCKED: ATOM      7  C   UNL d   1     -20.830  -2.491   5.309 -0.02 +0.04    +0.084 A 
DOCKED: ATOM      8  C   UNL d   1     -14.527  -2.366   5.678 -0.21 +0.03    +0.084 A 
DOCKED: ATOM      9  C   UNL d   1     -15.982  -2.068   6.055 -0.13 +0.02    +0.058 A 
DOCKED: ATOM     10  C   UNL d   1     -20.356  -1.434   6.311 -0.05 +0.03    +0.058 A 
DOCKED: ATOM     11  C   UNL d   1     -19.477  -2.972   4.877 -0.02 +0.10    +0.193 A 
DOCKED: ATOM     12  C   UNL d   1     -18.438  -2.183   5.613 -0.04 +0.06    +0.109 A 
DOCKED: ATOM     13  C   UNL d   1     -13.883  -1.846   6.932 -0.25 +0.04    +0.193 A 
DOCKED: ATOM     14  C   UNL d   1     -21.569  -3.643   5.995 -0.05 +0.01    +0.026 C 
DOCKED: ATOM     15  C   UNL d   1     -17.019  -2.420   5.280 -0.10 +0.03    +0.055 C 
DOCKED: ATOM     16  C   UNL d   1     -14.061  -1.513   4.495 -0.27 +0.01    +0.026 C 
DOCKED: ATOM     17  C   UNL d   1     -14.965  -1.330   7.824 -0.22 +0.02    +0.109 A 
DOCKED: ATOM     18  C   UNL d   1     -21.225  -0.615   6.932 -0.06 +0.03    +0.050 C 
DOCKED: ATOM     19  C   UNL d   1     -20.875   0.444   7.807 -0.09 +0.03    +0.045 A 
DOCKED: ATOM     20  C   UNL d   1     -15.543  -0.112   9.856 -0.35 +0.01    +0.045 A 
DOCKED: ATOM     21  C   UNL d   1     -14.634  -0.794   9.153 -0.13 +0.00    +0.057 C 
DOCKED: ATOM     22  C   UNL d   1     -16.497   1.052  11.574 -0.30 -0.00    -0.019 A 
DOCKED: ATOM     23  C   UNL d   1     -17.475   0.943  10.472 -0.25 +0.01    +0.045 A 
DOCKED: ATOM     24  C   UNL d   1     -15.355   0.427  11.202 -0.36 +0.00    -0.022 A 
DOCKED: ATOM     25  C   UNL d   1     -19.674   1.429   9.453 -0.17 +0.02    +0.049 A 
DOCKED: ATOM     26  C   UNL d   1     -21.483   1.660   8.080 -0.10 -0.01    -0.018 A 
DOCKED: ATOM     27  C   UNL d   1     -20.709   2.286   9.106 -0.17 +0.00    +0.003 A 
DOCKED: ATOM     28  C   UNL d   1     -18.709   1.470  10.495 -0.19 +0.01    +0.052 C 
DOCKED: ATOM     29  C   UNL d   1     -14.083   0.278  11.964 -0.28 -0.00    +0.046 C 
DOCKED: ATOM     30  C   UNL d   1     -22.706   2.210   7.428 -0.09 +0.03    +0.046 C 
DOCKED: ATOM     31  H   UNL d   1     -17.177   0.046   8.569 +0.06 +0.07    +0.166 HD
DOCKED: ATOM     32  H   UNL d   1     -19.161  -0.473   8.635 +0.04 +0.06    +0.166 HD
DOCKED: ENDROOT
DOCKED: BRANCH   7  33
DOCKED: ATOM     33  C   UNL d   1     -21.617  -1.953   4.109 -0.01 +0.08    +0.141 C 
DOCKED: BRANCH  33  34
DOCKED: ATOM     34  C   UNL d   1     -21.374  -0.488   3.867 -0.02 +0.35    +0.306 C 
DOCKED: ATOM     35  O   UNL d   1     -22.224   0.386   3.826 -0.63 -0.37    -0.251 OA
DOCKED: BRANCH  34  36
DOCKED: ATOM     36  O   UNL d   1     -20.072  -0.200   3.692 -0.12 -0.74    -0.481 OA
DOCKED: ATOM     37  H   UNL d   1     -19.642  -0.489   4.525 +0.05 +0.35    +0.295 HD
DOCKED: ENDBRANCH  34  36
DOCKED: ENDBRANCH  33  34
DOCKED: ENDBRANCH   7  33
DOCKED: BRANCH  27  38
DOCKED: ATOM     38  C   UNL d   1     -20.998   3.558   9.697 -0.19 +0.01    +0.017 C 
DOCKED: ATOM     39  C   UNL d   1     -20.247   4.662   9.564 -0.19 +0.03    +0.092 C 
DOCKED: BRANCH  39  40
DOCKED: ATOM     40  C   UNL d   1     -20.663   5.910  10.209 -0.16 +0.09    +0.330 C 
DOCKED: ATOM     41  O   UNL d   1     -21.641   6.588   9.954 -0.08 -0.07    -0.246 OA
DOCKED: BRANCH  40  42
DOCKED: ATOM     42  O   UNL d   1     -19.797   6.240  11.179 -0.16 -0.16    -0.477 OA
DOCKED: ATOM     43  H   UNL d   1     -19.099   6.742  10.709 -0.47 -0.01    +0.295 HD
DOCKED: ENDBRANCH  40  42
DOCKED: ENDBRANCH  39  40
DOCKED: ENDBRANCH  27  38
DOCKED: BRANCH   8  44
DOCKED: ATOM     44  C   UNL d   1     -14.191  -3.845   5.461 -0.28 +0.05    +0.141 C 
DOCKED: BRANCH  44  45
DOCKED: ATOM     45  C   UNL d   1     -14.549  -4.341   4.086 -0.16 +0.19    +0.306 C 
DOCKED: ATOM     46  O   UNL d   1     -13.941  -4.122   3.053 -0.48 -0.26    -0.251 OA
DOCKED: BRANCH  45  47
DOCKED: ATOM     47  O   UNL d   1     -15.681  -5.069   4.080 -0.04 -0.29    -0.481 OA
DOCKED: ATOM     48  H   UNL d   1     -16.399  -4.411   3.966 +0.10 +0.18    +0.295 HD
DOCKED: ENDBRANCH  45  47
DOCKED: ENDBRANCH  44  45
DOCKED: ENDBRANCH   8  44
DOCKED: BRANCH  22  49
DOCKED: ATOM     49  C   UNL d   1     -16.773   1.738  12.880 -0.29 +0.00    +0.048 C 
DOCKED: BRANCH  49  50
DOCKED: ATOM     50  C   UNL d   1     -16.916   3.250  12.709 -0.28 +0.01    +0.125 C 
DOCKED: BRANCH  50  51
DOCKED: ATOM     51  C   UNL d   1     -18.243   3.726  13.229 -0.16 +0.13    +0.305 C 
DOCKED: ATOM     52  O   UNL d   1     -18.559   3.921  14.390 -0.18 -0.19    -0.251 OA
DOCKED: BRANCH  51  53
DOCKED: ATOM     53  O   UNL d   1     -19.132   3.926  12.236 -0.11 -0.14    -0.481 OA
DOCKED: ATOM     54  H   UNL d   1     -18.631   4.441  11.569 -0.36 +0.02    +0.295 HD
DOCKED: ENDBRANCH  51  53
DOCKED: ENDBRANCH  50  51
DOCKED: ENDBRANCH  49  50
DOCKED: ENDBRANCH  22  49
DOCKED: TORSDOF 13
DOCKED: TER
DOCKED: ENDMDL
________________________________________________________________________________


	BEGINNING GENETIC ALGORITHM DOCKING 27 of 100
Run: 27 Seed: 477226398 528512967 [ Run 27 of 100 GA/GALS ]
Beginning LAMARCKIAN GENETIC ALGORITHM (LGA), with a maximum of 25000000 energy evaluations.

Final-Value: -11.931


	FINAL GENETIC ALGORITHM DOCKED STATE
	_______________________________________________


Detailed state:  trans 11.175 -12.445 -0.911 quatxyzw 0.549150 0.496495 -0.269072 -0.616058 center 0.153 0.018 -0.028 ntor 13 121.5077 -169.3185 120.9792 -30.2013 -143.5063 61.5132 -45.5226 -57.6609 12.7308 -135.7712 -97.0930 -69.8324 -13.0093
State:	 11.175 -12.445  -0.911   0.697  0.630 -0.342 -103.942    121.51 -169.32  120.98  -30.20 -143.51   61.51  -45.52  -57.66   12.73 -135.77  -97.09  -69.83  -13.01

DOCKED: MODEL       27
DOCKED: USER    Run = 27
DOCKED: USER    DPF = D:/Protein_go_brrr/autodock/final/AncMH_nat/heme/dock.dpf
DOCKED: USER  
DOCKED: USER    Estimated Free Energy of Binding    =   -3.44 kcal/mol  [=(1)+(2)+(3)-(4)]
DOCKED: USER    Estimated Inhibition Constant, Ki   =    3.00 mM (millimolar)  [Temperature = 298.15 K]
DOCKED: USER    
DOCKED: USER    (1) Final Intermolecular Energy     =   -7.32 kcal/mol
DOCKED: USER        vdW + Hbond + desolv Energy     =   -7.15 kcal/mol
DOCKED: USER        Electrostatic Energy            =   -0.17 kcal/mol
DOCKED: USER    (2) Final Total Internal Energy     =   -4.61 kcal/mol
DOCKED: USER    (3) Torsional Free Energy           =   +3.88 kcal/mol
DOCKED: USER    (4) Unbound System's Energy  [=(2)] =   -4.61 kcal/mol
DOCKED: USER    
DOCKED: USER    
DOCKED: USER    NEWDPF move heme_opt.pdbqt
DOCKED: USER    NEWDPF about 0.153000 0.018000 -0.028000
DOCKED: USER    NEWDPF tran0 11.175139 -12.444660 -0.911341
DOCKED: USER    NEWDPF quaternion0 0.549150 0.496495 -0.269072 -0.616058
DOCKED: USER    NEWDPF axisangle0 0.697155 0.630309 -0.341591 -103.942309
DOCKED: USER    NEWDPF quat0 0.697155 0.630309 -0.341591 -103.942309
DOCKED: USER    NEWDPF dihe0 121.51 -169.32 120.98 -30.20 -143.51 61.51 -45.52 -57.66 12.73 -135.77 -97.09 -69.83 -13.01 
DOCKED: USER  keepresnum = 1 
DOCKED: USER  
DOCKED: REMARK  13 active torsions:
DOCKED: REMARK  status: ('A' for Active; 'I' for Inactive)
DOCKED: REMARK    1  A    between atoms: O_3  and  C_38 
DOCKED: REMARK    2  A    between atoms: O_4  and  C_40 
DOCKED: REMARK    3  A    between atoms: O_7  and  C_46 
DOCKED: REMARK    4  A    between atoms: O_9  and  C_48 
DOCKED: REMARK    5  A    between atoms: C_15  and  C_20 
DOCKED: REMARK    6  A    between atoms: C_16  and  C_23 
DOCKED: REMARK    7  A    between atoms: C_20  and  C_38 
DOCKED: REMARK    8  A    between atoms: C_23  and  C_40 
DOCKED: REMARK    9  A    between atoms: C_32  and  C_41 
DOCKED: REMARK   10  A    between atoms: C_37  and  C_45 
DOCKED: REMARK   11  A    between atoms: C_41  and  C_44 
DOCKED: REMARK   12  A    between atoms: C_44  and  C_46 
DOCKED: REMARK   13  A    between atoms: C_47  and  C_48 
DOCKED: USER                              x       y       z     vdW  Elec       q    Type
DOCKED: USER                           _______ _______ _______ _____ _____    ______ ____
DOCKED: ROOT
DOCKED: ATOM      1  O   UNL d   1      10.829 -13.830   4.809 -0.05 +0.10    -0.289 OA
DOCKED: ATOM      2  O   UNL d   1       5.464 -12.744  -0.333 -0.16 -0.13    -0.289 OA
DOCKED: ATOM      3  N   UNL d   1      11.515 -12.887   1.563 -0.13 +0.07    -0.247 NA
DOCKED: ATOM      4  N   UNL d   1       8.857 -13.005   0.240 -0.18 +0.05    -0.247 NA
DOCKED: ATOM      5  N   UNL d   1      10.212 -12.833  -2.290 -0.10 +0.12    -0.354 N 
DOCKED: ATOM      6  N   UNL d   1      12.966 -12.730  -0.911 -0.05 +0.12    -0.354 N 
DOCKED: ATOM      7  C   UNL d   1      12.872 -13.533   3.499 -0.05 -0.02    +0.084 A 
DOCKED: ATOM      8  C   UNL d   1       6.889 -12.701   1.657 -0.21 -0.02    +0.084 A 
DOCKED: ATOM      9  C   UNL d   1       8.409 -12.859   1.534 -0.23 -0.02    +0.058 A 
DOCKED: ATOM     10  C   UNL d   1      12.801 -13.096   2.033 -0.10 -0.01    +0.058 A 
DOCKED: ATOM     11  C   UNL d   1      11.399 -13.516   3.780 -0.07 -0.07    +0.193 A 
DOCKED: ATOM     12  C   UNL d   1      10.687 -13.083   2.536 -0.14 -0.04    +0.109 A 
DOCKED: ATOM     13  C   UNL d   1       6.556 -12.822   0.197 -0.14 +0.02    +0.193 A 
DOCKED: ATOM     14  C   UNL d   1      13.387 -14.967   3.647 -0.02 -0.00    +0.026 C 
DOCKED: ATOM     15  C   UNL d   1       9.222 -12.903   2.600 -0.18 -0.03    +0.055 C 
DOCKED: ATOM     16  C   UNL d   1       6.501 -11.299   2.136 -0.39 -0.01    +0.026 C 
DOCKED: ATOM     17  C   UNL d   1       7.835 -13.010  -0.553 -0.21 -0.00    +0.109 A 
DOCKED: ATOM     18  C   UNL d   1      13.915 -12.857   1.317 -0.08 -0.01    +0.050 C 
DOCKED: ATOM     19  C   UNL d   1      13.948 -12.370  -0.015 -0.11 -0.01    +0.045 A 
DOCKED: ATOM     20  C   UNL d   1       8.944 -13.126  -2.721 -0.24 -0.01    +0.045 A 
DOCKED: ATOM     21  C   UNL d   1       7.814 -13.202  -2.011 -0.26 +0.00    +0.057 C 
DOCKED: ATOM     22  C   UNL d   1      10.363 -13.180  -4.510 -0.16 +0.00    -0.019 A 
DOCKED: ATOM     23  C   UNL d   1      11.137 -12.841  -3.299 -0.21 -0.01    +0.045 A 
DOCKED: ATOM     24  C   UNL d   1       9.065 -13.346  -4.162 -0.20 +0.00    -0.022 A 
DOCKED: ATOM     25  C   UNL d   1      13.242 -12.223  -2.159 -0.14 -0.02    +0.049 A 
DOCKED: ATOM     26  C   UNL d   1      14.864 -11.578  -0.689 -0.12 +0.00    -0.018 A 
DOCKED: ATOM     27  C   UNL d   1      14.403 -11.472  -2.038 -0.18 -0.00    +0.003 A 
DOCKED: ATOM     28  C   UNL d   1      12.455 -12.590  -3.285 -0.20 -0.02    +0.052 C 
DOCKED: ATOM     29  C   UNL d   1       7.901 -13.682  -5.031 -0.16 -0.00    +0.046 C 
DOCKED: ATOM     30  C   UNL d   1      16.092 -10.954  -0.118 -0.07 -0.01    +0.046 C 
DOCKED: ATOM     31  H   UNL d   1      10.391 -12.562  -1.329 -0.29 -0.09    +0.166 HD
DOCKED: ATOM     32  H   UNL d   1      12.180 -13.323  -0.672 -0.00 -0.05    +0.166 HD
DOCKED: ENDROOT
DOCKED: BRANCH   7  33
DOCKED: ATOM     33  C   UNL d   1      13.609 -12.571   4.437 -0.05 -0.04    +0.141 C 
DOCKED: BRANCH  33  34
DOCKED: ATOM     34  C   UNL d   1      12.973 -11.209   4.486 -0.05 -0.13    +0.306 C 
DOCKED: ATOM     35  O   UNL d   1      13.229 -10.267   3.754 -0.11 +0.08    -0.251 OA
DOCKED: BRANCH  34  36
DOCKED: ATOM     36  O   UNL d   1      12.044 -11.105   5.454 -0.05 +0.38    -0.481 OA
DOCKED: ATOM     37  H   UNL d   1      11.368 -11.776   5.220 +0.05 -0.25    +0.295 HD
DOCKED: ENDBRANCH  34  36
DOCKED: ENDBRANCH  33  34
DOCKED: ENDBRANCH   7  33
DOCKED: BRANCH  27  38
DOCKED: ATOM     38  C   UNL d   1      15.066 -10.752  -3.083 -0.15 -0.00    +0.017 C 
DOCKED: ATOM     39  C   UNL d   1      15.071 -11.097  -4.379 -0.17 -0.01    +0.092 C 
DOCKED: BRANCH  39  40
DOCKED: ATOM     40  C   UNL d   1      15.776 -10.262  -5.355 -0.02 +0.01    +0.330 C 
DOCKED: ATOM     41  O   UNL d   1      16.957  -9.974  -5.371 -0.51 -0.01    -0.246 OA
DOCKED: BRANCH  40  42
DOCKED: ATOM     42  O   UNL d   1      14.921  -9.828  -6.294 -0.57 +0.06    -0.477 OA
DOCKED: ATOM     43  H   UNL d   1      14.040 -10.067  -5.938 +0.09 -0.07    +0.295 HD
DOCKED: ENDBRANCH  40  42
DOCKED: ENDBRANCH  39  40
DOCKED: ENDBRANCH  27  38
DOCKED: BRANCH   8  44
DOCKED: ATOM     44  C   UNL d   1       6.177 -13.784   2.474 -0.09 -0.00    +0.141 C 
DOCKED: BRANCH  44  45
DOCKED: ATOM     45  C   UNL d   1       4.710 -13.511   2.671 -0.05 +0.07    +0.306 C 
DOCKED: ATOM     46  O   UNL d   1       4.203 -12.885   3.586 -0.12 -0.06    -0.251 OA
DOCKED: BRANCH  45  47
DOCKED: ATOM     47  O   UNL d   1       3.949 -14.068   1.711 -0.04 -0.18    -0.481 OA
DOCKED: ATOM     48  H   UNL d   1       4.267 -13.663   0.876 +0.11 +0.09    +0.295 HD
DOCKED: ENDBRANCH  45  47
DOCKED: ENDBRANCH  44  45
DOCKED: ENDBRANCH   8  44
DOCKED: BRANCH  22  49
DOCKED: ATOM     49  C   UNL d   1      10.960 -13.322  -5.880 -0.10 -0.01    +0.048 C 
DOCKED: BRANCH  49  50
DOCKED: ATOM     50  C   UNL d   1      10.818 -12.040  -6.699 -0.13 -0.04    +0.125 C 
DOCKED: BRANCH  50  51
DOCKED: ATOM     51  C   UNL d   1      11.924 -11.074  -6.380 -0.15 -0.12    +0.305 C 
DOCKED: ATOM     52  O   UNL d   1      12.148 -10.526  -5.315 -0.26 +0.11    -0.251 OA
DOCKED: BRANCH  51  53
DOCKED: ATOM     53  O   UNL d   1      12.706 -10.832  -7.451 -0.05 +0.18    -0.481 OA
DOCKED: ATOM     54  H   UNL d   1      13.015  -9.912  -7.317 +0.11 -0.15    +0.295 HD
DOCKED: ENDBRANCH  51  53
DOCKED: ENDBRANCH  50  51
DOCKED: ENDBRANCH  49  50
DOCKED: ENDBRANCH  22  49
DOCKED: TORSDOF 13
DOCKED: TER
DOCKED: ENDMDL
________________________________________________________________________________


	BEGINNING GENETIC ALGORITHM DOCKING 28 of 100
Run: 28 Seed: 1059485287 482000114 [ Run 28 of 100 GA/GALS ]
Beginning LAMARCKIAN GENETIC ALGORITHM (LGA), with a maximum of 25000000 energy evaluations.

Final-Value: -11.808


	FINAL GENETIC ALGORITHM DOCKED STATE
	_______________________________________________


Detailed state:  trans 11.482 -12.037 -0.719 quatxyzw 0.245900 -0.693258 0.677046 0.023133 center 0.153 0.018 -0.028 ntor 13 -98.4027 175.7378 -121.5961 -51.1072 45.7054 98.0606 121.6537 -97.5005 130.3312 -24.8847 -98.9656 -92.1238 -4.9743
State:	 11.482 -12.037  -0.719   0.246 -0.693  0.677 177.349    -98.40  175.74 -121.60  -51.11   45.71   98.06  121.65  -97.50  130.33  -24.88  -98.97  -92.12   -4.97

DOCKED: MODEL       28
DOCKED: USER    Run = 28
DOCKED: USER    DPF = D:/Protein_go_brrr/autodock/final/AncMH_nat/heme/dock.dpf
DOCKED: USER  
DOCKED: USER    Estimated Free Energy of Binding    =   -3.19 kcal/mol  [=(1)+(2)+(3)-(4)]
DOCKED: USER    Estimated Inhibition Constant, Ki   =    4.57 mM (millimolar)  [Temperature = 298.15 K]
DOCKED: USER    
DOCKED: USER    (1) Final Intermolecular Energy     =   -7.07 kcal/mol
DOCKED: USER        vdW + Hbond + desolv Energy     =   -7.04 kcal/mol
DOCKED: USER        Electrostatic Energy            =   -0.04 kcal/mol
DOCKED: USER    (2) Final Total Internal Energy     =   -4.74 kcal/mol
DOCKED: USER    (3) Torsional Free Energy           =   +3.88 kcal/mol
DOCKED: USER    (4) Unbound System's Energy  [=(2)] =   -4.74 kcal/mol
DOCKED: USER    
DOCKED: USER    
DOCKED: USER    NEWDPF move heme_opt.pdbqt
DOCKED: USER    NEWDPF about 0.153000 0.018000 -0.028000
DOCKED: USER    NEWDPF tran0 11.481507 -12.036681 -0.719124
DOCKED: USER    NEWDPF quaternion0 0.245900 -0.693258 0.677046 0.023133
DOCKED: USER    NEWDPF axisangle0 0.245966 -0.693444 0.677227 177.348974
DOCKED: USER    NEWDPF quat0 0.245966 -0.693444 0.677227 177.348974
DOCKED: USER    NEWDPF dihe0 -98.40 175.74 -121.60 -51.11 45.71 98.06 121.65 -97.50 130.33 -24.88 -98.97 -92.12 -4.97 
DOCKED: USER  keepresnum = 1 
DOCKED: USER  
DOCKED: REMARK  13 active torsions:
DOCKED: REMARK  status: ('A' for Active; 'I' for Inactive)
DOCKED: REMARK    1  A    between atoms: O_3  and  C_38 
DOCKED: REMARK    2  A    between atoms: O_4  and  C_40 
DOCKED: REMARK    3  A    between atoms: O_7  and  C_46 
DOCKED: REMARK    4  A    between atoms: O_9  and  C_48 
DOCKED: REMARK    5  A    between atoms: C_15  and  C_20 
DOCKED: REMARK    6  A    between atoms: C_16  and  C_23 
DOCKED: REMARK    7  A    between atoms: C_20  and  C_38 
DOCKED: REMARK    8  A    between atoms: C_23  and  C_40 
DOCKED: REMARK    9  A    between atoms: C_32  and  C_41 
DOCKED: REMARK   10  A    between atoms: C_37  and  C_45 
DOCKED: REMARK   11  A    between atoms: C_41  and  C_44 
DOCKED: REMARK   12  A    between atoms: C_44  and  C_46 
DOCKED: REMARK   13  A    between atoms: C_47  and  C_48 
DOCKED: USER                              x       y       z     vdW  Elec       q    Type
DOCKED: USER                           _______ _______ _______ _____ _____    ______ ____
DOCKED: ROOT
DOCKED: ATOM      1  O   UNL d   1      16.122 -10.613  -4.065 -0.19 +0.01    -0.289 OA
DOCKED: ATOM      2  O   UNL d   1      14.738  -9.400   3.215 -0.07 +0.06    -0.289 OA
DOCKED: ATOM      3  N   UNL d   1      13.160 -11.523  -2.550 -0.14 +0.09    -0.247 NA
DOCKED: ATOM      4  N   UNL d   1      13.653 -10.934   0.321 -0.16 +0.07    -0.247 NA
DOCKED: ATOM      5  N   UNL d   1      11.300 -12.465   0.943 -0.10 +0.12    -0.354 N 
DOCKED: ATOM      6  N   UNL d   1      10.807 -13.087  -2.035 -0.05 +0.13    -0.354 N 
DOCKED: ATOM      7  C   UNL d   1      14.141 -11.860  -4.770 -0.12 -0.02    +0.084 A 
DOCKED: ATOM      8  C   UNL d   1      15.300  -9.205   0.841 -0.15 -0.02    +0.084 A 
DOCKED: ATOM      9  C   UNL d   1      14.598 -10.080  -0.203 -0.22 -0.01    +0.058 A 
DOCKED: ATOM     10  C   UNL d   1      12.977 -12.087  -3.801 -0.20 -0.02    +0.058 A 
DOCKED: ATOM     11  C   UNL d   1      15.007 -11.052  -3.851 -0.11 -0.02    +0.193 A 
DOCKED: ATOM     12  C   UNL d   1      14.291 -10.895  -2.545 -0.16 -0.02    +0.109 A 
DOCKED: ATOM     13  C   UNL d   1      14.605  -9.747   2.058 -0.12 -0.04    +0.193 A 
DOCKED: ATOM     14  C   UNL d   1      14.866 -13.164  -5.114 -0.03 -0.00    +0.026 C 
DOCKED: ATOM     15  C   UNL d   1      14.915 -10.051  -1.506 -0.13 -0.01    +0.055 C 
DOCKED: ATOM     16  C   UNL d   1      14.933  -7.727   0.682 -0.26 -0.01    +0.026 C 
DOCKED: ATOM     17  C   UNL d   1      13.638 -10.793   1.607 -0.17 -0.02    +0.109 A 
DOCKED: ATOM     18  C   UNL d   1      11.848 -12.707  -4.192 -0.20 -0.01    +0.050 C 
DOCKED: ATOM     19  C   UNL d   1      10.690 -12.888  -3.392 -0.21 -0.01    +0.045 A 
DOCKED: ATOM     20  C   UNL d   1      11.807 -12.288   2.205 -0.12 -0.01    +0.045 A 
DOCKED: ATOM     21  C   UNL d   1      12.839 -11.535   2.595 -0.15 -0.02    +0.057 C 
DOCKED: ATOM     22  C   UNL d   1      10.031 -13.721   2.316 -0.14 +0.01    -0.019 A 
DOCKED: ATOM     23  C   UNL d   1      10.226 -13.314   0.910 -0.18 -0.01    +0.045 A 
DOCKED: ATOM     24  C   UNL d   1      10.969 -13.110   3.077 -0.14 +0.01    -0.022 A 
DOCKED: ATOM     25  C   UNL d   1       9.574 -13.329  -1.475 -0.21 -0.01    +0.049 A 
DOCKED: ATOM     26  C   UNL d   1       9.345 -12.965  -3.716 -0.22 +0.00    -0.018 A 
DOCKED: ATOM     27  C   UNL d   1       8.643 -13.224  -2.498 -0.28 -0.00    +0.003 A 
DOCKED: ATOM     28  C   UNL d   1       9.457 -13.718  -0.113 -0.19 -0.01    +0.052 C 
DOCKED: ATOM     29  C   UNL d   1      11.174 -13.195   4.552 -0.12 -0.02    +0.046 C 
DOCKED: ATOM     30  C   UNL d   1       8.744 -12.806  -5.072 -0.18 -0.01    +0.046 C 
DOCKED: ATOM     31  H   UNL d   1      11.660 -11.939   0.154 -0.43 -0.10    +0.166 HD
DOCKED: ATOM     32  H   UNL d   1      11.693 -13.092  -1.544 -0.10 -0.06    +0.166 HD
DOCKED: ENDROOT
DOCKED: BRANCH   7  33
DOCKED: ATOM     33  C   UNL d   1      13.800 -11.058  -6.031 -0.20 -0.03    +0.141 C 
DOCKED: BRANCH  33  34
DOCKED: ATOM     34  C   UNL d   1      14.996 -10.831  -6.915 -0.09 -0.06    +0.306 C 
DOCKED: ATOM     35  O   UNL d   1      15.280 -11.461  -7.919 -0.02 +0.06    -0.251 OA
DOCKED: BRANCH  34  36
DOCKED: ATOM     36  O   UNL d   1      15.772  -9.819  -6.487 -0.60 +0.01    -0.481 OA
DOCKED: ATOM     37  H   UNL d   1      16.297 -10.204  -5.753 +0.06 +0.01    +0.295 HD
DOCKED: ENDBRANCH  34  36
DOCKED: ENDBRANCH  33  34
DOCKED: ENDBRANCH   7  33
DOCKED: BRANCH  27  38
DOCKED: ATOM     38  C   UNL d   1       7.226 -13.393  -2.382 -0.21 +0.00    +0.017 C 
DOCKED: ATOM     39  C   UNL d   1       6.615 -14.458  -1.841 -0.14 +0.01    +0.092 C 
DOCKED: BRANCH  39  40
DOCKED: ATOM     40  C   UNL d   1       5.152 -14.501  -1.767 -0.10 +0.09    +0.330 C 
DOCKED: ATOM     41  O   UNL d   1       4.383 -15.032  -2.545 -0.15 +0.02    -0.246 OA
DOCKED: BRANCH  40  42
DOCKED: ATOM     42  O   UNL d   1       4.726 -13.855  -0.670 -0.12 -0.21    -0.477 OA
DOCKED: ATOM     43  H   UNL d   1       5.553 -13.607  -0.208 +0.11 +0.08    +0.295 HD
DOCKED: ENDBRANCH  40  42
DOCKED: ENDBRANCH  39  40
DOCKED: ENDBRANCH  27  38
DOCKED: BRANCH   8  44
DOCKED: ATOM     44  C   UNL d   1      16.817  -9.392   0.946 -0.04 -0.02    +0.141 C 
DOCKED: BRANCH  44  45
DOCKED: ATOM     45  C   UNL d   1      17.212 -10.669   1.639 -0.00 -0.04    +0.306 C 
DOCKED: ATOM     46  O   UNL d   1      17.201 -11.789   1.159 -0.00 +0.03    -0.251 OA
DOCKED: BRANCH  45  47
DOCKED: ATOM     47  O   UNL d   1      17.576 -10.469   2.918 +0.00 +0.06    -0.481 OA
DOCKED: ATOM     48  H   UNL d   1      16.798 -10.042   3.334 +0.02 -0.04    +0.295 HD
DOCKED: ENDBRANCH  45  47
DOCKED: ENDBRANCH  44  45
DOCKED: ENDBRANCH   8  44
DOCKED: BRANCH  22  49
DOCKED: ATOM     49  C   UNL d   1       8.966 -14.672   2.778 -0.06 -0.01    +0.048 C 
DOCKED: BRANCH  49  50
DOCKED: ATOM     50  C   UNL d   1       7.661 -13.947   3.109 -0.08 -0.03    +0.125 C 
DOCKED: BRANCH  50  51
DOCKED: ATOM     51  C   UNL d   1       6.863 -13.683   1.864 -0.05 -0.03    +0.305 C 
DOCKED: ATOM     52  O   UNL d   1       6.739 -12.625   1.272 -0.18 +0.03    -0.251 OA
DOCKED: BRANCH  51  53
DOCKED: ATOM     53  O   UNL d   1       6.236 -14.791   1.422 +0.02 -0.05    -0.481 OA
DOCKED: ATOM     54  H   UNL d   1       5.304 -14.508   1.310 +0.08 +0.06    +0.295 HD
DOCKED: ENDBRANCH  51  53
DOCKED: ENDBRANCH  50  51
DOCKED: ENDBRANCH  49  50
DOCKED: ENDBRANCH  22  49
DOCKED: TORSDOF 13
DOCKED: TER
DOCKED: ENDMDL
________________________________________________________________________________


	BEGINNING GENETIC ALGORITHM DOCKING 29 of 100
Run: 29 Seed: 242806124 1682205435 [ Run 29 of 100 GA/GALS ]
Beginning LAMARCKIAN GENETIC ALGORITHM (LGA), with a maximum of 25000000 energy evaluations.

Final-Value: -11.952


	FINAL GENETIC ALGORITHM DOCKED STATE
	_______________________________________________


Detailed state:  trans -9.633 12.223 15.644 quatxyzw -0.131753 0.033204 0.457803 0.878610 center 0.153 0.018 -0.028 ntor 13 -137.1151 -85.3991 -168.8918 -49.2990 32.7977 -4.2045 139.7451 89.4533 108.2683 -9.2303 -63.5480 -100.4950 -169.4743
State:	 -9.633  12.223  15.644  -0.276  0.070  0.959 57.050   -137.12  -85.40 -168.89  -49.30   32.80   -4.20  139.75   89.45  108.27   -9.23  -63.55 -100.49 -169.47

DOCKED: MODEL       29
DOCKED: USER    Run = 29
DOCKED: USER    DPF = D:/Protein_go_brrr/autodock/final/AncMH_nat/heme/dock.dpf
DOCKED: USER  
DOCKED: USER    Estimated Free Energy of Binding    =   -5.86 kcal/mol  [=(1)+(2)+(3)-(4)]
DOCKED: USER    Estimated Inhibition Constant, Ki   =   51.00 uM (micromolar)  [Temperature = 298.15 K]
DOCKED: USER    
DOCKED: USER    (1) Final Intermolecular Energy     =   -9.73 kcal/mol
DOCKED: USER        vdW + Hbond + desolv Energy     =   -9.01 kcal/mol
DOCKED: USER        Electrostatic Energy            =   -0.72 kcal/mol
DOCKED: USER    (2) Final Total Internal Energy     =   -2.22 kcal/mol
DOCKED: USER    (3) Torsional Free Energy           =   +3.88 kcal/mol
DOCKED: USER    (4) Unbound System's Energy  [=(2)] =   -2.22 kcal/mol
DOCKED: USER    
DOCKED: USER    
DOCKED: USER    NEWDPF move heme_opt.pdbqt
DOCKED: USER    NEWDPF about 0.153000 0.018000 -0.028000
DOCKED: USER    NEWDPF tran0 -9.633320 12.222568 15.644208
DOCKED: USER    NEWDPF quaternion0 -0.131753 0.033204 0.457803 0.878610
DOCKED: USER    NEWDPF axisangle0 -0.275899 0.069531 0.958669 57.049769
DOCKED: USER    NEWDPF quat0 -0.275899 0.069531 0.958669 57.049769
DOCKED: USER    NEWDPF dihe0 -137.12 -85.40 -168.89 -49.30 32.80 -4.20 139.75 89.45 108.27 -9.23 -63.55 -100.49 -169.47 
DOCKED: USER  keepresnum = 1 
DOCKED: USER  
DOCKED: REMARK  13 active torsions:
DOCKED: REMARK  status: ('A' for Active; 'I' for Inactive)
DOCKED: REMARK    1  A    between atoms: O_3  and  C_38 
DOCKED: REMARK    2  A    between atoms: O_4  and  C_40 
DOCKED: REMARK    3  A    between atoms: O_7  and  C_46 
DOCKED: REMARK    4  A    between atoms: O_9  and  C_48 
DOCKED: REMARK    5  A    between atoms: C_15  and  C_20 
DOCKED: REMARK    6  A    between atoms: C_16  and  C_23 
DOCKED: REMARK    7  A    between atoms: C_20  and  C_38 
DOCKED: REMARK    8  A    between atoms: C_23  and  C_40 
DOCKED: REMARK    9  A    between atoms: C_32  and  C_41 
DOCKED: REMARK   10  A    between atoms: C_37  and  C_45 
DOCKED: REMARK   11  A    between atoms: C_41  and  C_44 
DOCKED: REMARK   12  A    between atoms: C_44  and  C_46 
DOCKED: REMARK   13  A    between atoms: C_47  and  C_48 
DOCKED: USER                              x       y       z     vdW  Elec       q    Type
DOCKED: USER                           _______ _______ _______ _____ _____    ______ ____
DOCKED: ROOT
DOCKED: ATOM      1  O   UNL d   1     -11.652  17.578  17.060 -0.06 +0.17    -0.289 OA
DOCKED: ATOM      2  O   UNL d   1     -14.744  12.054  13.020 -0.15 +0.04    -0.289 OA
DOCKED: ATOM      3  N   UNL d   1     -10.012  14.622  16.373 +0.08 +0.14    -0.247 NA
DOCKED: ATOM      4  N   UNL d   1     -12.091  12.986  15.020 -0.13 +0.07    -0.247 NA
DOCKED: ATOM      5  N   UNL d   1     -10.393  10.695  15.385 -0.08 +0.06    -0.354 N 
DOCKED: ATOM      6  N   UNL d   1      -8.251  12.396  16.805 -0.06 +0.08    -0.354 N 
DOCKED: ATOM      7  C   UNL d   1      -9.530  16.586  17.758 -0.07 -0.03    +0.084 A 
DOCKED: ATOM      8  C   UNL d   1     -13.873  14.184  13.854 -0.12 -0.03    +0.084 A 
DOCKED: ATOM      9  C   UNL d   1     -12.636  14.223  14.757 -0.17 -0.02    +0.058 A 
DOCKED: ATOM     10  C   UNL d   1      -9.107  15.207  17.244 -0.11 -0.02    +0.058 A 
DOCKED: ATOM     11  C   UNL d   1     -10.825  16.686  17.010 -0.10 -0.11    +0.193 A 
DOCKED: ATOM     12  C   UNL d   1     -10.991  15.446  16.187 -0.07 -0.07    +0.109 A 
DOCKED: ATOM     13  C   UNL d   1     -13.951  12.694  13.683 -0.11 -0.04    +0.193 A 
DOCKED: ATOM     14  C   UNL d   1      -9.825  16.573  19.260 -0.02 -0.00    +0.026 C 
DOCKED: ATOM     15  C   UNL d   1     -12.159  15.360  15.287 -0.19 -0.04    +0.055 C 
DOCKED: ATOM     16  C   UNL d   1     -13.599  14.823  12.489 -0.29 -0.02    +0.026 C 
DOCKED: ATOM     17  C   UNL d   1     -12.819  12.084  14.445 -0.18 -0.02    +0.109 A 
DOCKED: ATOM     18  C   UNL d   1      -7.911  14.675  17.557 -0.09 -0.01    +0.050 C 
DOCKED: ATOM     19  C   UNL d   1      -7.401  13.448  17.063 -0.11 -0.01    +0.045 A 
DOCKED: ATOM     20  C   UNL d   1     -11.538  10.074  14.958 -0.21 -0.00    +0.045 A 
DOCKED: ATOM     21  C   UNL d   1     -12.666  10.622  14.495 -0.29 -0.00    +0.057 C 
DOCKED: ATOM     22  C   UNL d   1     -10.032   8.482  15.602 -0.36 +0.00    -0.019 A 
DOCKED: ATOM     23  C   UNL d   1      -9.427   9.815  15.795 -0.24 -0.01    +0.045 A 
DOCKED: ATOM     24  C   UNL d   1     -11.281   8.642  15.105 -0.34 +0.00    -0.022 A 
DOCKED: ATOM     25  C   UNL d   1      -7.539  11.282  16.423 -0.20 -0.01    +0.049 A 
DOCKED: ATOM     26  C   UNL d   1      -6.108  13.019  16.805 -0.10 +0.00    -0.018 A 
DOCKED: ATOM     27  C   UNL d   1      -6.203  11.657  16.383 -0.19 -0.00    +0.003 A 
DOCKED: ATOM     28  C   UNL d   1      -8.184  10.027  16.255 -0.27 -0.01    +0.052 C 
DOCKED: ATOM     29  C   UNL d   1     -12.279   7.597  14.736 -0.26 -0.00    +0.046 C 
DOCKED: ATOM     30  C   UNL d   1      -4.860  13.823  16.940 -0.07 -0.01    +0.046 C 
DOCKED: ATOM     31  H   UNL d   1     -10.282  11.700  15.314 +0.04 -0.04    +0.166 HD
DOCKED: ATOM     32  H   UNL d   1      -9.255  12.444  16.928 +0.04 -0.04    +0.166 HD
DOCKED: ENDROOT
DOCKED: BRANCH   7  33
DOCKED: ATOM     33  C   UNL d   1      -8.599  17.742  17.379 -0.10 -0.05    +0.141 C 
DOCKED: BRANCH  33  34
DOCKED: ATOM     34  C   UNL d   1      -9.298  19.074  17.383 -0.05 -0.13    +0.306 C 
DOCKED: ATOM     35  O   UNL d   1      -9.442  19.810  18.344 -0.01 +0.06    -0.251 OA
DOCKED: BRANCH  34  36
DOCKED: ATOM     36  O   UNL d   1      -9.779  19.411  16.172 -0.04 +0.46    -0.481 OA
DOCKED: ATOM     37  H   UNL d   1     -10.141  18.575  15.810 -0.53 -0.46    +0.295 HD
DOCKED: ENDBRANCH  34  36
DOCKED: ENDBRANCH  33  34
DOCKED: ENDBRANCH   7  33
DOCKED: BRANCH  27  38
DOCKED: ATOM     38  C   UNL d   1      -5.094  10.823  16.030 -0.22 -0.00    +0.017 C 
DOCKED: ATOM     39  C   UNL d   1      -4.722   9.711  16.684 -0.25 -0.05    +0.092 C 
DOCKED: BRANCH  39  40
DOCKED: ATOM     40  C   UNL d   1      -3.574   8.935  16.209 -0.22 -0.23    +0.330 C 
DOCKED: ATOM     41  O   UNL d   1      -2.930   9.106  15.192 -0.33 +0.11    -0.246 OA
DOCKED: BRANCH  40  42
DOCKED: ATOM     42  O   UNL d   1      -3.287   7.955  17.081 -0.16 +0.53    -0.477 OA
DOCKED: ATOM     43  H   UNL d   1      -3.767   7.178  16.726 -0.45 -0.78    +0.295 HD
DOCKED: ENDBRANCH  40  42
DOCKED: ENDBRANCH  39  40
DOCKED: ENDBRANCH  27  38
DOCKED: BRANCH   8  44
DOCKED: ATOM     44  C   UNL d   1     -15.162  14.734  14.475 -0.03 -0.03    +0.141 C 
DOCKED: BRANCH  44  45
DOCKED: ATOM     45  C   UNL d   1     -15.573  14.009  15.728 +0.01 -0.02    +0.306 C 
DOCKED: ATOM     46  O   UNL d   1     -15.325  14.341  16.874 +0.00 +0.02    -0.251 OA
DOCKED: BRANCH  45  47
DOCKED: ATOM     47  O   UNL d   1     -16.257  12.880  15.469 +0.01 -0.03    -0.481 OA
DOCKED: ATOM     48  H   UNL d   1     -16.159  12.747  14.503 +0.06 +0.01    +0.295 HD
DOCKED: ENDBRANCH  45  47
DOCKED: ENDBRANCH  44  45
DOCKED: ENDBRANCH   8  44
DOCKED: BRANCH  22  49
DOCKED: ATOM     49  C   UNL d   1      -9.345   7.189  15.932 -0.42 -0.02    +0.048 C 
DOCKED: BRANCH  49  50
DOCKED: ATOM     50  C   UNL d   1      -9.929   6.539  17.186 -0.26 -0.04    +0.125 C 
DOCKED: BRANCH  50  51
DOCKED: ATOM     51  C   UNL d   1     -10.542   5.206  16.863 -0.23 -0.08    +0.305 C 
DOCKED: ATOM     52  O   UNL d   1      -9.975   4.132  16.763 -0.80 +0.02    -0.251 OA
DOCKED: BRANCH  51  53
DOCKED: ATOM     53  O   UNL d   1     -11.872   5.297  16.664 -0.10 +0.10    -0.481 OA
DOCKED: ATOM     54  H   UNL d   1     -12.019   4.827  15.816 -0.40 -0.15    +0.295 HD
DOCKED: ENDBRANCH  51  53
DOCKED: ENDBRANCH  50  51
DOCKED: ENDBRANCH  49  50
DOCKED: ENDBRANCH  22  49
DOCKED: TORSDOF 13
DOCKED: TER
DOCKED: ENDMDL
________________________________________________________________________________


	BEGINNING GENETIC ALGORITHM DOCKING 30 of 100
Run: 30 Seed: 1253306846 1670250747 [ Run 30 of 100 GA/GALS ]
Beginning LAMARCKIAN GENETIC ALGORITHM (LGA), with a maximum of 25000000 energy evaluations.

Final-Value: -11.970


	FINAL GENETIC ALGORITHM DOCKED STATE
	_______________________________________________


Detailed state:  trans 10.440 -11.517 -5.525 quatxyzw -0.809789 -0.232857 -0.056309 0.535583 center 0.153 0.018 -0.028 ntor 13 -60.1674 -126.3817 -126.1584 -25.0768 34.7106 75.2793 129.3650 82.2105 -11.6217 -11.4349 -52.7158 -131.3002 21.1572
State:	 10.440 -11.517  -5.525  -0.959 -0.276 -0.067 115.233    -60.17 -126.38 -126.16  -25.08   34.71   75.28  129.37   82.21  -11.62  -11.43  -52.72 -131.30   21.16

DOCKED: MODEL       30
DOCKED: USER    Run = 30
DOCKED: USER    DPF = D:/Protein_go_brrr/autodock/final/AncMH_nat/heme/dock.dpf
DOCKED: USER  
DOCKED: USER    Estimated Free Energy of Binding    =   -4.61 kcal/mol  [=(1)+(2)+(3)-(4)]
DOCKED: USER    Estimated Inhibition Constant, Ki   =  417.03 uM (micromolar)  [Temperature = 298.15 K]
DOCKED: USER    
DOCKED: USER    (1) Final Intermolecular Energy     =   -8.49 kcal/mol
DOCKED: USER        vdW + Hbond + desolv Energy     =   -8.45 kcal/mol
DOCKED: USER        Electrostatic Energy            =   -0.04 kcal/mol
DOCKED: USER    (2) Final Total Internal Energy     =   -3.48 kcal/mol
DOCKED: USER    (3) Torsional Free Energy           =   +3.88 kcal/mol
DOCKED: USER    (4) Unbound System's Energy  [=(2)] =   -3.48 kcal/mol
DOCKED: USER    
DOCKED: USER    
DOCKED: USER    NEWDPF move heme_opt.pdbqt
DOCKED: USER    NEWDPF about 0.153000 0.018000 -0.028000
DOCKED: USER    NEWDPF tran0 10.440177 -11.516940 -5.524732
DOCKED: USER    NEWDPF quaternion0 -0.809789 -0.232857 -0.056309 0.535583
DOCKED: USER    NEWDPF axisangle0 -0.958917 -0.275740 -0.066679 115.233086
DOCKED: USER    NEWDPF quat0 -0.958917 -0.275740 -0.066679 115.233086
DOCKED: USER    NEWDPF dihe0 -60.17 -126.38 -126.16 -25.08 34.71 75.28 129.37 82.21 -11.62 -11.43 -52.72 -131.30 21.16 
DOCKED: USER  keepresnum = 1 
DOCKED: USER  
DOCKED: REMARK  13 active torsions:
DOCKED: REMARK  status: ('A' for Active; 'I' for Inactive)
DOCKED: REMARK    1  A    between atoms: O_3  and  C_38 
DOCKED: REMARK    2  A    between atoms: O_4  and  C_40 
DOCKED: REMARK    3  A    between atoms: O_7  and  C_46 
DOCKED: REMARK    4  A    between atoms: O_9  and  C_48 
DOCKED: REMARK    5  A    between atoms: C_15  and  C_20 
DOCKED: REMARK    6  A    between atoms: C_16  and  C_23 
DOCKED: REMARK    7  A    between atoms: C_20  and  C_38 
DOCKED: REMARK    8  A    between atoms: C_23  and  C_40 
DOCKED: REMARK    9  A    between atoms: C_32  and  C_41 
DOCKED: REMARK   10  A    between atoms: C_37  and  C_45 
DOCKED: REMARK   11  A    between atoms: C_41  and  C_44 
DOCKED: REMARK   12  A    between atoms: C_44  and  C_46 
DOCKED: REMARK   13  A    between atoms: C_47  and  C_48 
DOCKED: USER                              x       y       z     vdW  Elec       q    Type
DOCKED: USER                           _______ _______ _______ _____ _____    ______ ____
DOCKED: ROOT
DOCKED: ATOM      1  O   UNL d   1       6.229 -15.053  -3.400 -0.07 +0.00    -0.289 OA
DOCKED: ATOM      2  O   UNL d   1       6.015  -9.811  -8.772 -0.23 +0.02    -0.289 OA
DOCKED: ATOM      3  N   UNL d   1       8.956 -13.109  -4.222 -0.14 +0.04    -0.247 NA
DOCKED: ATOM      4  N   UNL d   1       8.020 -11.588  -6.596 -0.14 +0.06    -0.247 NA
DOCKED: ATOM      5  N   UNL d   1      10.754 -10.843  -7.083 -0.09 +0.16    -0.354 N 
DOCKED: ATOM      6  N   UNL d   1      11.719 -12.440  -4.629 -0.10 +0.11    -0.354 N 
DOCKED: ATOM      7  C   UNL d   1       8.580 -15.019  -2.733 -0.05 -0.01    +0.084 A 
DOCKED: ATOM      8  C   UNL d   1       5.614 -11.214  -6.807 -0.30 +0.01    +0.084 A 
DOCKED: ATOM      9  C   UNL d   1       6.782 -11.874  -6.066 -0.26 -0.00    +0.058 A 
DOCKED: ATOM     10  C   UNL d   1       9.543 -13.985  -3.324 -0.14 -0.01    +0.058 A 
DOCKED: ATOM     11  C   UNL d   1       7.342 -14.561  -3.442 -0.07 +0.00    +0.193 A 
DOCKED: ATOM     12  C   UNL d   1       7.694 -13.382  -4.295 -0.18 -0.00    +0.109 A 
DOCKED: ATOM     13  C   UNL d   1       6.416 -10.532  -7.879 -0.16 -0.01    +0.193 A 
DOCKED: ATOM     14  C   UNL d   1       8.915 -16.442  -3.188 -0.02 -0.00    +0.026 C 
DOCKED: ATOM     15  C   UNL d   1       6.606 -12.699  -5.022 -0.13 +0.01    +0.055 C 
DOCKED: ATOM     16  C   UNL d   1       4.928 -10.146  -5.950 -0.38 +0.01    +0.026 C 
DOCKED: ATOM     17  C   UNL d   1       7.858 -10.843  -7.643 -0.21 -0.02    +0.109 A 
DOCKED: ATOM     18  C   UNL d   1      10.823 -13.902  -2.916 -0.15 -0.01    +0.050 C 
DOCKED: ATOM     19  C   UNL d   1      11.761 -12.927  -3.342 -0.18 -0.01    +0.045 A 
DOCKED: ATOM     20  C   UNL d   1      10.178 -10.398  -8.244 -0.24 -0.02    +0.045 A 
DOCKED: ATOM     21  C   UNL d   1       8.883 -10.340  -8.569 -0.25 -0.01    +0.057 C 
DOCKED: ATOM     22  C   UNL d   1      12.447 -10.191  -8.418 -0.21 +0.01    -0.019 A 
DOCKED: ATOM     23  C   UNL d   1      12.120 -10.757  -7.093 -0.23 -0.02    +0.045 A 
DOCKED: ATOM     24  C   UNL d   1      11.293  -9.980  -9.094 -0.20 +0.01    -0.022 A 
DOCKED: ATOM     25  C   UNL d   1      12.769 -11.579  -4.854 -0.25 -0.01    +0.049 A 
DOCKED: ATOM     26  C   UNL d   1      12.843 -12.341  -2.704 -0.17 +0.01    -0.018 A 
DOCKED: ATOM     27  C   UNL d   1      13.464 -11.476  -3.657 -0.26 -0.00    +0.003 A 
DOCKED: ATOM     28  C   UNL d   1      13.028 -11.070  -6.155 -0.26 -0.02    +0.052 C 
DOCKED: ATOM     29  C   UNL d   1      11.102  -9.414 -10.460 -0.09 -0.04    +0.046 C 
DOCKED: ATOM     30  C   UNL d   1      13.274 -12.567  -1.294 -0.13 -0.01    +0.046 C 
DOCKED: ATOM     31  H   UNL d   1      10.188 -11.122  -6.289 -0.49 -0.11    +0.166 HD
DOCKED: ATOM     32  H   UNL d   1      11.027 -12.721  -5.313 +0.02 -0.05    +0.166 HD
DOCKED: ENDROOT
DOCKED: BRANCH   7  33
DOCKED: ATOM     33  C   UNL d   1       8.389 -14.946  -1.214 -0.06 -0.01    +0.141 C 
DOCKED: BRANCH  33  34
DOCKED: ATOM     34  C   UNL d   1       8.408 -13.533  -0.696 -0.15 -0.03    +0.306 C 
DOCKED: ATOM     35  O   UNL d   1       7.447 -12.791  -0.591 -0.22 -0.01    -0.251 OA
DOCKED: BRANCH  34  36
DOCKED: ATOM     36  O   UNL d   1       9.640 -13.131  -0.334 -0.11 +0.12    -0.481 OA
DOCKED: ATOM     37  H   UNL d   1       9.842 -12.384  -0.936 -0.15 -0.13    +0.295 HD
DOCKED: ENDBRANCH  34  36
DOCKED: ENDBRANCH  33  34
DOCKED: ENDBRANCH   7  33
DOCKED: BRANCH  27  38
DOCKED: ATOM     38  C   UNL d   1      14.632 -10.684  -3.415 -0.12 -0.00    +0.017 C 
DOCKED: ATOM     39  C   UNL d   1      15.897 -11.112  -3.540 -0.13 -0.01    +0.092 C 
DOCKED: BRANCH  39  40
DOCKED: ATOM     40  C   UNL d   1      17.008 -10.193  -3.278 -0.07 -0.02    +0.330 C 
DOCKED: ATOM     41  O   UNL d   1      17.392  -9.779  -2.200 -0.08 +0.02    -0.246 OA
DOCKED: BRANCH  40  42
DOCKED: ATOM     42  O   UNL d   1      17.599  -9.843  -4.430 -0.15 +0.01    -0.477 OA
DOCKED: ATOM     43  H   UNL d   1      16.861  -9.511  -4.981 +0.06 +0.06    +0.295 HD
DOCKED: ENDBRANCH  40  42
DOCKED: ENDBRANCH  39  40
DOCKED: ENDBRANCH  27  38
DOCKED: BRANCH   8  44
DOCKED: ATOM     44  C   UNL d   1       4.590 -12.178  -7.417 -0.19 -0.00    +0.141 C 
DOCKED: BRANCH  44  45
DOCKED: ATOM     45  C   UNL d   1       5.183 -13.098  -8.451 -0.06 -0.04    +0.306 C 
DOCKED: ATOM     46  O   UNL d   1       5.742 -14.161  -8.242 -0.03 +0.04    -0.251 OA
DOCKED: BRANCH  45  47
DOCKED: ATOM     47  O   UNL d   1       5.064 -12.613  -9.700 +0.01 +0.02    -0.481 OA
DOCKED: ATOM     48  H   UNL d   1       5.445 -11.711  -9.653 +0.10 -0.01    +0.295 HD
DOCKED: ENDBRANCH  45  47
DOCKED: ENDBRANCH  44  45
DOCKED: ENDBRANCH   8  44
DOCKED: BRANCH  22  49
DOCKED: ATOM     49  C   UNL d   1      13.843  -9.926  -8.900 -0.19 -0.03    +0.048 C 
DOCKED: BRANCH  49  50
DOCKED: ATOM     50  C   UNL d   1      14.558  -8.892  -8.030 -0.31 -0.08    +0.125 C 
DOCKED: BRANCH  50  51
DOCKED: ATOM     51  C   UNL d   1      15.893  -9.408  -7.573 -0.16 -0.07    +0.305 C 
DOCKED: ATOM     52  O   UNL d   1      16.918  -9.499  -8.226 -0.10 +0.06    -0.251 OA
DOCKED: BRANCH  51  53
DOCKED: ATOM     53  O   UNL d   1      15.866  -9.805  -6.285 -0.64 -0.01    -0.481 OA
DOCKED: ATOM     54  H   UNL d   1      16.585 -10.469  -6.225 +0.06 -0.02    +0.295 HD
DOCKED: ENDBRANCH  51  53
DOCKED: ENDBRANCH  50  51
DOCKED: ENDBRANCH  49  50
DOCKED: ENDBRANCH  22  49
DOCKED: TORSDOF 13
DOCKED: TER
DOCKED: ENDMDL
________________________________________________________________________________


	BEGINNING GENETIC ALGORITHM DOCKING 31 of 100
Run: 31 Seed: 721084949 1117768003 [ Run 31 of 100 GA/GALS ]
Beginning LAMARCKIAN GENETIC ALGORITHM (LGA), with a maximum of 25000000 energy evaluations.

Final-Value: -11.840


	FINAL GENETIC ALGORITHM DOCKED STATE
	_______________________________________________


Detailed state:  trans 0.360 18.296 -8.881 quatxyzw 0.458590 -0.502855 -0.461876 0.568774 center 0.153 0.018 -0.028 ntor 13 -176.6675 152.3872 -52.9798 55.6625 29.5082 -69.0244 -52.8510 57.7395 -172.6680 -180.0000 -86.2105 22.0843 -2.6252
State:	  0.360  18.296  -8.881   0.558 -0.611 -0.562 110.670   -176.67  152.39  -52.98   55.66   29.51  -69.02  -52.85   57.74 -172.67 -180.00  -86.21   22.08   -2.63

DOCKED: MODEL       31
DOCKED: USER    Run = 31
DOCKED: USER    DPF = D:/Protein_go_brrr/autodock/final/AncMH_nat/heme/dock.dpf
DOCKED: USER  
DOCKED: USER    Estimated Free Energy of Binding    =   -4.64 kcal/mol  [=(1)+(2)+(3)-(4)]
DOCKED: USER    Estimated Inhibition Constant, Ki   =  395.12 uM (micromolar)  [Temperature = 298.15 K]
DOCKED: USER    
DOCKED: USER    (1) Final Intermolecular Energy     =   -8.52 kcal/mol
DOCKED: USER        vdW + Hbond + desolv Energy     =   -8.39 kcal/mol
DOCKED: USER        Electrostatic Energy            =   -0.13 kcal/mol
DOCKED: USER    (2) Final Total Internal Energy     =   -3.32 kcal/mol
DOCKED: USER    (3) Torsional Free Energy           =   +3.88 kcal/mol
DOCKED: USER    (4) Unbound System's Energy  [=(2)] =   -3.32 kcal/mol
DOCKED: USER    
DOCKED: USER    
DOCKED: USER    NEWDPF move heme_opt.pdbqt
DOCKED: USER    NEWDPF about 0.153000 0.018000 -0.028000
DOCKED: USER    NEWDPF tran0 0.360442 18.295809 -8.880880
DOCKED: USER    NEWDPF quaternion0 0.458590 -0.502855 -0.461876 0.568774
DOCKED: USER    NEWDPF axisangle0 0.557560 -0.611378 -0.561555 110.670483
DOCKED: USER    NEWDPF quat0 0.557560 -0.611378 -0.561555 110.670483
DOCKED: USER    NEWDPF dihe0 -176.67 152.39 -52.98 55.66 29.51 -69.02 -52.85 57.74 -172.67 -180.00 -86.21 22.08 -2.63 
DOCKED: USER  keepresnum = 1 
DOCKED: USER  
DOCKED: REMARK  13 active torsions:
DOCKED: REMARK  status: ('A' for Active; 'I' for Inactive)
DOCKED: REMARK    1  A    between atoms: O_3  and  C_38 
DOCKED: REMARK    2  A    between atoms: O_4  and  C_40 
DOCKED: REMARK    3  A    between atoms: O_7  and  C_46 
DOCKED: REMARK    4  A    between atoms: O_9  and  C_48 
DOCKED: REMARK    5  A    between atoms: C_15  and  C_20 
DOCKED: REMARK    6  A    between atoms: C_16  and  C_23 
DOCKED: REMARK    7  A    between atoms: C_20  and  C_38 
DOCKED: REMARK    8  A    between atoms: C_23  and  C_40 
DOCKED: REMARK    9  A    between atoms: C_32  and  C_41 
DOCKED: REMARK   10  A    between atoms: C_37  and  C_45 
DOCKED: REMARK   11  A    between atoms: C_41  and  C_44 
DOCKED: REMARK   12  A    between atoms: C_44  and  C_46 
DOCKED: REMARK   13  A    between atoms: C_47  and  C_48 
DOCKED: USER                              x       y       z     vdW  Elec       q    Type
DOCKED: USER                           _______ _______ _______ _____ _____    ______ ____
DOCKED: ROOT
DOCKED: ATOM      1  O   UNL d   1      -1.589  18.833  -3.343 -0.12 -0.03    -0.289 OA
DOCKED: ATOM      2  O   UNL d   1       4.728  15.828  -6.075 -0.63 -0.05    -0.289 OA
DOCKED: ATOM      3  N   UNL d   1      -0.931  18.620  -6.722 -0.11 +0.05    -0.247 NA
DOCKED: ATOM      4  N   UNL d   1       1.857  17.597  -6.812 -0.13 +0.03    -0.247 NA
DOCKED: ATOM      5  N   UNL d   1       1.931  18.310  -9.596 -0.11 +0.10    -0.354 N 
DOCKED: ATOM      6  N   UNL d   1      -0.955  19.387  -9.489 +0.13 +0.11    -0.354 N 
DOCKED: ATOM      7  C   UNL d   1      -2.694  19.649  -5.365 -0.14 -0.00    +0.084 A 
DOCKED: ATOM      8  C   UNL d   1       2.626  16.279  -4.903 -0.26 -0.00    +0.084 A 
DOCKED: ATOM      9  C   UNL d   1       1.539  17.141  -5.552 -0.23 -0.00    +0.058 A 
DOCKED: ATOM     10  C   UNL d   1      -2.098  19.364  -6.747 -0.19 -0.01    +0.058 A 
DOCKED: ATOM     11  C   UNL d   1      -1.666  18.917  -4.555 -0.12 +0.01    +0.193 A 
DOCKED: ATOM     12  C   UNL d   1      -0.666  18.316  -5.493 -0.18 -0.00    +0.109 A 
DOCKED: ATOM     13  C   UNL d   1       3.637  16.361  -6.012 -0.25 +0.01    +0.193 A 
DOCKED: ATOM     14  C   UNL d   1      -2.637  21.137  -5.010 -0.05 -0.00    +0.026 C 
DOCKED: ATOM     15  C   UNL d   1       0.398  17.464  -4.924 -0.27 +0.00    +0.055 C 
DOCKED: ATOM     16  C   UNL d   1       2.180  14.821  -4.750 -0.21 -0.00    +0.026 C 
DOCKED: ATOM     17  C   UNL d   1       3.052  17.193  -7.106 -0.23 -0.00    +0.109 A 
DOCKED: ATOM     18  C   UNL d   1      -2.729  19.741  -7.876 -0.20 -0.01    +0.050 C 
DOCKED: ATOM     19  C   UNL d   1      -2.298  19.449  -9.195 -0.16 -0.01    +0.045 A 
DOCKED: ATOM     20  C   UNL d   1       3.254  18.012  -9.394 -0.21 -0.00    +0.045 A 
DOCKED: ATOM     21  C   UNL d   1       3.839  17.485  -8.313 -0.26 +0.01    +0.057 C 
DOCKED: ATOM     22  C   UNL d   1       3.006  18.887 -11.489 -0.12 +0.01    -0.019 A 
DOCKED: ATOM     23  C   UNL d   1       1.684  18.843 -10.833 -0.15 -0.01    +0.045 A 
DOCKED: ATOM     24  C   UNL d   1       3.931  18.392 -10.633 -0.15 +0.00    -0.022 A 
DOCKED: ATOM     25  C   UNL d   1      -0.764  19.183 -10.836 -0.10 -0.01    +0.049 A 
DOCKED: ATOM     26  C   UNL d   1      -2.998  19.244 -10.374 -0.18 +0.00    -0.018 A 
DOCKED: ATOM     27  C   UNL d   1      -2.025  19.057 -11.403 -0.16 -0.00    +0.003 A 
DOCKED: ATOM     28  C   UNL d   1       0.537  19.239 -11.405 -0.14 -0.01    +0.052 C 
DOCKED: ATOM     29  C   UNL d   1       5.397  18.221 -10.841 -0.16 +0.00    +0.046 C 
DOCKED: ATOM     30  C   UNL d   1      -4.480  19.221 -10.536 -0.12 -0.00    +0.046 C 
DOCKED: ATOM     31  H   UNL d   1       1.227  18.069  -8.907 -0.45 -0.07    +0.166 HD
DOCKED: ATOM     32  H   UNL d   1      -0.223  19.517  -8.801 -0.14 -0.05    +0.166 HD
DOCKED: ENDROOT
DOCKED: BRANCH   7  33
DOCKED: ATOM     33  C   UNL d   1      -4.089  19.064  -5.118 -0.18 +0.00    +0.141 C 
DOCKED: BRANCH  33  34
DOCKED: ATOM     34  C   UNL d   1      -5.086  20.107  -4.689 -0.07 +0.00    +0.306 C 
DOCKED: ATOM     35  O   UNL d   1      -5.720  20.843  -5.426 -0.05 -0.00    -0.251 OA
DOCKED: BRANCH  34  36
DOCKED: ATOM     36  O   UNL d   1      -5.233  20.165  -3.354 -0.01 +0.01    -0.481 OA
DOCKED: ATOM     37  H   UNL d   1      -4.613  19.489  -3.008 -0.46 -0.06    +0.295 HD
DOCKED: ENDBRANCH  34  36
DOCKED: ENDBRANCH  33  34
DOCKED: ENDBRANCH   7  33
DOCKED: BRANCH  27  38
DOCKED: ATOM     38  C   UNL d   1      -2.320  18.830 -12.786 -0.10 -0.00    +0.017 C 
DOCKED: ATOM     39  C   UNL d   1      -1.937  17.755 -13.493 -0.09 -0.01    +0.092 C 
DOCKED: BRANCH  39  40
DOCKED: ATOM     40  C   UNL d   1      -2.320  17.634 -14.902 +0.00 -0.04    +0.330 C 
DOCKED: ATOM     41  O   UNL d   1      -3.427  17.413 -15.355 -0.01 +0.02    -0.246 OA
DOCKED: BRANCH  40  42
DOCKED: ATOM     42  O   UNL d   1      -1.248  17.814 -15.689 +0.01 +0.07    -0.477 OA
DOCKED: ATOM     43  H   UNL d   1      -0.663  18.394 -15.160 +0.03 -0.05    +0.295 HD
DOCKED: ENDBRANCH  40  42
DOCKED: ENDBRANCH  39  40
DOCKED: ENDBRANCH  27  38
DOCKED: BRANCH   8  44
DOCKED: ATOM     44  C   UNL d   1       3.205  16.822  -3.592 -0.27 +0.01    +0.141 C 
DOCKED: BRANCH  44  45
DOCKED: ATOM     45  C   UNL d   1       3.235  15.800  -2.487 -0.30 +0.00    +0.306 C 
DOCKED: ATOM     46  O   UNL d   1       2.408  15.662  -1.602 -0.34 -0.00    -0.251 OA
DOCKED: BRANCH  45  47
DOCKED: ATOM     47  O   UNL d   1       4.327  15.016  -2.540 -0.26 +0.01    -0.481 OA
DOCKED: ATOM     48  H   UNL d   1       4.729  15.090  -1.648 -0.34 -0.14    +0.295 HD
DOCKED: ENDBRANCH  45  47
DOCKED: ENDBRANCH  44  45
DOCKED: ENDBRANCH   8  44
DOCKED: BRANCH  22  49
DOCKED: ATOM     49  C   UNL d   1       3.242  19.416 -12.874 -0.05 -0.01    +0.048 C 
DOCKED: BRANCH  49  50
DOCKED: ATOM     50  C   UNL d   1       3.017  18.343 -13.939 -0.06 -0.05    +0.125 C 
DOCKED: BRANCH  50  51
DOCKED: ATOM     51  C   UNL d   1       1.617  18.412 -14.482 -0.02 -0.09    +0.305 C 
DOCKED: ATOM     52  O   UNL d   1       1.037  19.390 -14.919 -0.01 +0.04    -0.251 OA
DOCKED: BRANCH  51  53
DOCKED: ATOM     53  O   UNL d   1       0.999  17.215 -14.434 -0.04 +0.18    -0.481 OA
DOCKED: ATOM     54  H   UNL d   1       0.714  17.057 -15.358 +0.03 -0.09    +0.295 HD
DOCKED: ENDBRANCH  51  53
DOCKED: ENDBRANCH  50  51
DOCKED: ENDBRANCH  49  50
DOCKED: ENDBRANCH  22  49
DOCKED: TORSDOF 13
DOCKED: TER
DOCKED: ENDMDL
________________________________________________________________________________


	BEGINNING GENETIC ALGORITHM DOCKING 32 of 100
Run: 32 Seed: 1437362810 1276351132 [ Run 32 of 100 GA/GALS ]
Beginning LAMARCKIAN GENETIC ALGORITHM (LGA), with a maximum of 25000000 energy evaluations.

Final-Value: -12.453


	FINAL GENETIC ALGORITHM DOCKED STATE
	_______________________________________________


Detailed state:  trans -10.036 13.341 15.892 quatxyzw -0.858242 0.476248 -0.174079 -0.079401 center 0.153 0.018 -0.028 ntor 13 125.5273 -180.0000 139.3159 -54.7958 -132.5739 53.8679 148.9794 -118.0726 25.2836 139.4073 -94.5776 -58.3676 -16.0103
State:	-10.036  13.341  15.892  -0.861  0.478 -0.175 -170.892    125.53 -180.00  139.32  -54.80 -132.57   53.87  148.98 -118.07   25.28  139.41  -94.58  -58.37  -16.01

DOCKED: MODEL       32
DOCKED: USER    Run = 32
DOCKED: USER    DPF = D:/Protein_go_brrr/autodock/final/AncMH_nat/heme/dock.dpf
DOCKED: USER  
DOCKED: USER    Estimated Free Energy of Binding    =   -4.57 kcal/mol  [=(1)+(2)+(3)-(4)]
DOCKED: USER    Estimated Inhibition Constant, Ki   =  447.56 uM (micromolar)  [Temperature = 298.15 K]
DOCKED: USER    
DOCKED: USER    (1) Final Intermolecular Energy     =   -8.45 kcal/mol
DOCKED: USER        vdW + Hbond + desolv Energy     =   -7.75 kcal/mol
DOCKED: USER        Electrostatic Energy            =   -0.70 kcal/mol
DOCKED: USER    (2) Final Total Internal Energy     =   -4.01 kcal/mol
DOCKED: USER    (3) Torsional Free Energy           =   +3.88 kcal/mol
DOCKED: USER    (4) Unbound System's Energy  [=(2)] =   -4.01 kcal/mol
DOCKED: USER    
DOCKED: USER    
DOCKED: USER    NEWDPF move heme_opt.pdbqt
DOCKED: USER    NEWDPF about 0.153000 0.018000 -0.028000
DOCKED: USER    NEWDPF tran0 -10.035761 13.341370 15.891895
DOCKED: USER    NEWDPF quaternion0 -0.858242 0.476248 -0.174079 -0.079401
DOCKED: USER    NEWDPF axisangle0 -0.860960 0.477756 -0.174631 -170.891771
DOCKED: USER    NEWDPF quat0 -0.860960 0.477756 -0.174631 -170.891771
DOCKED: USER    NEWDPF dihe0 125.53 -180.00 139.32 -54.80 -132.57 53.87 148.98 -118.07 25.28 139.41 -94.58 -58.37 -16.01 
DOCKED: USER  keepresnum = 1 
DOCKED: USER  
DOCKED: REMARK  13 active torsions:
DOCKED: REMARK  status: ('A' for Active; 'I' for Inactive)
DOCKED: REMARK    1  A    between atoms: O_3  and  C_38 
DOCKED: REMARK    2  A    between atoms: O_4  and  C_40 
DOCKED: REMARK    3  A    between atoms: O_7  and  C_46 
DOCKED: REMARK    4  A    between atoms: O_9  and  C_48 
DOCKED: REMARK    5  A    between atoms: C_15  and  C_20 
DOCKED: REMARK    6  A    between atoms: C_16  and  C_23 
DOCKED: REMARK    7  A    between atoms: C_20  and  C_38 
DOCKED: REMARK    8  A    between atoms: C_23  and  C_40 
DOCKED: REMARK    9  A    between atoms: C_32  and  C_41 
DOCKED: REMARK   10  A    between atoms: C_37  and  C_45 
DOCKED: REMARK   11  A    between atoms: C_41  and  C_44 
DOCKED: REMARK   12  A    between atoms: C_44  and  C_46 
DOCKED: REMARK   13  A    between atoms: C_47  and  C_48 
DOCKED: USER                              x       y       z     vdW  Elec       q    Type
DOCKED: USER                           _______ _______ _______ _____ _____    ______ ____
DOCKED: ROOT
DOCKED: ATOM      1  O   UNL d   1     -13.853  17.163  13.529 -0.11 +0.26    -0.289 OA
DOCKED: ATOM      2  O   UNL d   1      -8.090  18.220  18.226 -0.02 +0.06    -0.289 OA
DOCKED: ATOM      3  N   UNL d   1     -11.953  14.565  14.769 -0.10 +0.15    -0.247 NA
DOCKED: ATOM      4  N   UNL d   1      -9.783  15.953  16.251 -0.08 +0.18    -0.247 NA
DOCKED: ATOM      5  N   UNL d   1      -8.375  13.448  16.350 -0.08 +0.13    -0.354 N 
DOCKED: ATOM      6  N   UNL d   1     -10.622  12.020  14.795 -0.11 +0.09    -0.354 N 
DOCKED: ATOM      7  C   UNL d   1     -13.752  14.756  13.115 -0.18 -0.04    +0.084 A 
DOCKED: ATOM      8  C   UNL d   1     -10.269  18.188  17.111 -0.09 -0.05    +0.084 A 
DOCKED: ATOM      9  C   UNL d   1     -10.705  16.975  16.282 -0.15 -0.05    +0.058 A 
DOCKED: ATOM     10  C   UNL d   1     -12.747  13.877  13.867 -0.23 -0.02    +0.058 A 
DOCKED: ATOM     11  C   UNL d   1     -13.398  16.059  13.766 -0.14 -0.15    +0.193 A 
DOCKED: ATOM     12  C   UNL d   1     -12.313  15.807  14.767 -0.18 -0.09    +0.109 A 
DOCKED: ATOM     13  C   UNL d   1      -8.913  17.679  17.514 -0.07 -0.07    +0.193 A 
DOCKED: ATOM     14  C   UNL d   1     -13.432  14.845  11.621 -0.33 -0.02    +0.026 C 
DOCKED: ATOM     15  C   UNL d   1     -11.862  16.938  15.604 -0.05 -0.06    +0.055 C 
DOCKED: ATOM     16  C   UNL d   1     -11.127  18.354  18.369 -0.03 -0.01    +0.026 C 
DOCKED: ATOM     17  C   UNL d   1      -8.739  16.319  16.922 -0.13 -0.05    +0.109 A 
DOCKED: ATOM     18  C   UNL d   1     -12.725  12.541  13.708 -0.33 -0.01    +0.050 C 
DOCKED: ATOM     19  C   UNL d   1     -11.891  11.642  14.420 -0.27 -0.01    +0.045 A 
DOCKED: ATOM     20  C   UNL d   1      -7.394  14.288  16.808 -0.13 -0.01    +0.045 A 
DOCKED: ATOM     21  C   UNL d   1      -7.478  15.587  17.115 -0.12 -0.01    +0.057 C 
DOCKED: ATOM     22  C   UNL d   1      -6.503  12.206  16.511 -0.16 +0.00    -0.019 A 
DOCKED: ATOM     23  C   UNL d   1      -7.932  12.169  16.140 -0.22 -0.01    +0.045 A 
DOCKED: ATOM     24  C   UNL d   1      -6.191  13.462  16.906 -0.09 +0.00    -0.022 A 
DOCKED: ATOM     25  C   UNL d   1      -9.960  10.971  15.390 -0.13 -0.01    +0.049 A 
DOCKED: ATOM     26  C   UNL d   1     -12.071  10.324  14.813 -0.25 +0.00    -0.018 A 
DOCKED: ATOM     27  C   UNL d   1     -10.856   9.912  15.442 -0.22 -0.00    +0.003 A 
DOCKED: ATOM     28  C   UNL d   1      -8.581  11.072  15.721 -0.29 -0.01    +0.052 C 
DOCKED: ATOM     29  C   UNL d   1      -4.881  13.992  17.383 -0.05 -0.01    +0.046 C 
DOCKED: ATOM     30  C   UNL d   1     -13.297   9.498  14.619 -0.34 +0.00    +0.046 C 
DOCKED: ATOM     31  H   UNL d   1      -9.337  13.759  16.266 -0.19 -0.08    +0.166 HD
DOCKED: ATOM     32  H   UNL d   1     -10.234  12.938  14.612 -0.45 -0.09    +0.166 HD
DOCKED: ENDROOT
DOCKED: BRANCH   7  33
DOCKED: ATOM     33  C   UNL d   1     -15.227  14.418  13.355 -0.06 -0.04    +0.141 C 
DOCKED: BRANCH  33  34
DOCKED: ATOM     34  C   UNL d   1     -15.702  14.835  14.721 +0.01 -0.05    +0.306 C 
DOCKED: ATOM     35  O   UNL d   1     -15.495  14.244  15.767 -0.00 +0.02    -0.251 OA
DOCKED: BRANCH  34  36
DOCKED: ATOM     36  O   UNL d   1     -16.411  15.977  14.697 +0.01 +0.08    -0.481 OA
DOCKED: ATOM     37  H   UNL d   1     -15.809  16.633  14.286 +0.03 -0.08    +0.295 HD
DOCKED: ENDBRANCH  34  36
DOCKED: ENDBRANCH  33  34
DOCKED: ENDBRANCH   7  33
DOCKED: BRANCH  27  38
DOCKED: ATOM     38  C   UNL d   1     -10.607   8.610  15.983 -0.31 -0.00    +0.017 C 
DOCKED: ATOM     39  C   UNL d   1      -9.394   8.079  16.195 -0.36 -0.03    +0.092 C 
DOCKED: BRANCH  39  40
DOCKED: ATOM     40  C   UNL d   1      -9.275   6.737  16.773 -0.19 -0.14    +0.330 C 
DOCKED: ATOM     41  O   UNL d   1      -9.818   5.716  16.398 -0.34 +0.09    -0.246 OA
DOCKED: BRANCH  40  42
DOCKED: ATOM     42  O   UNL d   1      -8.440   6.760  17.823 -0.09 +0.40    -0.477 OA
DOCKED: ATOM     43  H   UNL d   1      -8.158   7.696  17.879 +0.09 -0.22    +0.295 HD
DOCKED: ENDBRANCH  40  42
DOCKED: ENDBRANCH  39  40
DOCKED: ENDBRANCH  27  38
DOCKED: BRANCH   8  44
DOCKED: ATOM     44  C   UNL d   1     -10.153  19.507  16.341 +0.03 -0.13    +0.141 C 
DOCKED: BRANCH  44  45
DOCKED: ATOM     45  C   UNL d   1     -11.434  20.298  16.321 -0.03 -0.23    +0.306 C 
DOCKED: ATOM     46  O   UNL d   1     -11.680  21.300  16.971 -0.02 +0.09    -0.251 OA
DOCKED: BRANCH  45  47
DOCKED: ATOM     47  O   UNL d   1     -12.355  19.766  15.498 +0.00 +0.54    -0.481 OA
DOCKED: ATOM     48  H   UNL d   1     -11.850  19.496  14.702 -0.51 -0.80    +0.295 HD
DOCKED: ENDBRANCH  45  47
DOCKED: ENDBRANCH  44  45
DOCKED: ENDBRANCH   8  44
DOCKED: BRANCH  22  49
DOCKED: ATOM     49  C   UNL d   1      -5.581  11.024  16.430 -0.20 -0.01    +0.048 C 
DOCKED: BRANCH  49  50
DOCKED: ATOM     50  C   UNL d   1      -5.387  10.360  17.792 -0.11 -0.05    +0.125 C 
DOCKED: BRANCH  50  51
DOCKED: ATOM     51  C   UNL d   1      -6.469   9.352  18.057 -0.10 -0.18    +0.305 C 
DOCKED: ATOM     52  O   UNL d   1      -7.226   9.307  19.011 -0.05 +0.11    -0.251 OA
DOCKED: BRANCH  51  53
DOCKED: ATOM     53  O   UNL d   1      -6.537   8.419  17.087 -0.14 +0.48    -0.481 OA
DOCKED: ATOM     54  H   UNL d   1      -6.450   7.569  17.567 -0.05 -0.57    +0.295 HD
DOCKED: ENDBRANCH  51  53
DOCKED: ENDBRANCH  50  51
DOCKED: ENDBRANCH  49  50
DOCKED: ENDBRANCH  22  49
DOCKED: TORSDOF 13
DOCKED: TER
DOCKED: ENDMDL
________________________________________________________________________________


	BEGINNING GENETIC ALGORITHM DOCKING 33 of 100
Run: 33 Seed: 1557920190 1408991874 [ Run 33 of 100 GA/GALS ]
Beginning LAMARCKIAN GENETIC ALGORITHM (LGA), with a maximum of 25000000 energy evaluations.

Final-Value: -11.293


	FINAL GENETIC ALGORITHM DOCKED STATE
	_______________________________________________


Detailed state:  trans -0.174 18.424 -8.974 quatxyzw 0.516196 0.425599 0.640192 0.377573 center 0.153 0.018 -0.028 ntor 13 -61.0897 -67.5960 -110.2547 -33.9123 -144.0444 161.7314 120.0390 125.8891 -163.8324 -32.4086 158.6779 -5.6604 20.8956
State:	 -0.174  18.424  -8.974   0.557  0.460  0.691 135.633    -61.09  -67.60 -110.25  -33.91 -144.04  161.73  120.04  125.89 -163.83  -32.41  158.68   -5.66   20.90

DOCKED: MODEL       33
DOCKED: USER    Run = 33
DOCKED: USER    DPF = D:/Protein_go_brrr/autodock/final/AncMH_nat/heme/dock.dpf
DOCKED: USER  
DOCKED: USER    Estimated Free Energy of Binding    =   -5.33 kcal/mol  [=(1)+(2)+(3)-(4)]
DOCKED: USER    Estimated Inhibition Constant, Ki   =  123.02 uM (micromolar)  [Temperature = 298.15 K]
DOCKED: USER    
DOCKED: USER    (1) Final Intermolecular Energy     =   -9.21 kcal/mol
DOCKED: USER        vdW + Hbond + desolv Energy     =   -8.78 kcal/mol
DOCKED: USER        Electrostatic Energy            =   -0.43 kcal/mol
DOCKED: USER    (2) Final Total Internal Energy     =   -2.08 kcal/mol
DOCKED: USER    (3) Torsional Free Energy           =   +3.88 kcal/mol
DOCKED: USER    (4) Unbound System's Energy  [=(2)] =   -2.08 kcal/mol
DOCKED: USER    
DOCKED: USER    
DOCKED: USER    NEWDPF move heme_opt.pdbqt
DOCKED: USER    NEWDPF about 0.153000 0.018000 -0.028000
DOCKED: USER    NEWDPF tran0 -0.173842 18.423632 -8.973782
DOCKED: USER    NEWDPF quaternion0 0.516196 0.425599 0.640192 0.377573
DOCKED: USER    NEWDPF axisangle0 0.557459 0.459620 0.691367 135.633193
DOCKED: USER    NEWDPF quat0 0.557459 0.459620 0.691367 135.633193
DOCKED: USER    NEWDPF dihe0 -61.09 -67.60 -110.25 -33.91 -144.04 161.73 120.04 125.89 -163.83 -32.41 158.68 -5.66 20.90 
DOCKED: USER  keepresnum = 1 
DOCKED: USER  
DOCKED: REMARK  13 active torsions:
DOCKED: REMARK  status: ('A' for Active; 'I' for Inactive)
DOCKED: REMARK    1  A    between atoms: O_3  and  C_38 
DOCKED: REMARK    2  A    between atoms: O_4  and  C_40 
DOCKED: REMARK    3  A    between atoms: O_7  and  C_46 
DOCKED: REMARK    4  A    between atoms: O_9  and  C_48 
DOCKED: REMARK    5  A    between atoms: C_15  and  C_20 
DOCKED: REMARK    6  A    between atoms: C_16  and  C_23 
DOCKED: REMARK    7  A    between atoms: C_20  and  C_38 
DOCKED: REMARK    8  A    between atoms: C_23  and  C_40 
DOCKED: REMARK    9  A    between atoms: C_32  and  C_41 
DOCKED: REMARK   10  A    between atoms: C_37  and  C_45 
DOCKED: REMARK   11  A    between atoms: C_41  and  C_44 
DOCKED: REMARK   12  A    between atoms: C_44  and  C_46 
DOCKED: REMARK   13  A    between atoms: C_47  and  C_48 
DOCKED: USER                              x       y       z     vdW  Elec       q    Type
DOCKED: USER                           _______ _______ _______ _____ _____    ______ ____
DOCKED: ROOT
DOCKED: ATOM      1  O   UNL d   1       2.626  18.681 -14.156 -0.02 +0.09    -0.289 OA
DOCKED: ATOM      2  O   UNL d   1      -4.699  18.773 -12.501 -0.06 +0.00    -0.289 OA
DOCKED: ATOM      3  N   UNL d   1       1.434  18.366 -10.934 -0.11 +0.09    -0.247 NA
DOCKED: ATOM      4  N   UNL d   1      -1.487  18.818 -11.239 -0.12 +0.05    -0.247 NA
DOCKED: ATOM      5  N   UNL d   1      -1.648  19.100  -8.383 +0.10 +0.11    -0.354 N 
DOCKED: ATOM      6  N   UNL d   1       1.387  18.651  -8.077 -0.04 +0.09    -0.354 N 
DOCKED: ATOM      7  C   UNL d   1       3.658  18.584 -11.942 -0.10 -0.03    +0.084 A 
DOCKED: ATOM      8  C   UNL d   1      -2.476  18.303 -13.414 -0.05 -0.01    +0.084 A 
DOCKED: ATOM      9  C   UNL d   1      -1.227  18.436 -12.537 -0.12 -0.01    +0.058 A 
DOCKED: ATOM     10  C   UNL d   1       2.794  18.442 -10.685 -0.16 -0.02    +0.058 A 
DOCKED: ATOM     11  C   UNL d   1       2.546  18.556 -12.947 -0.06 -0.07    +0.193 A 
DOCKED: ATOM     12  C   UNL d   1       1.251  18.395 -12.214 -0.09 -0.04    +0.109 A 
DOCKED: ATOM     13  C   UNL d   1      -3.490  18.715 -12.384 -0.07 -0.01    +0.193 A 
DOCKED: ATOM     14  C   UNL d   1       4.353  19.946 -12.011 -0.03 -0.00    +0.026 C 
DOCKED: ATOM     15  C   UNL d   1       0.015  18.248 -13.010 -0.13 -0.01    +0.055 C 
DOCKED: ATOM     16  C   UNL d   1      -2.740  16.847 -13.809 -0.10 -0.00    +0.026 C 
DOCKED: ATOM     17  C   UNL d   1      -2.761  19.007 -11.113 -0.15 -0.01    +0.109 A 
DOCKED: ATOM     18  C   UNL d   1       3.346  18.314  -9.464 -0.21 -0.00    +0.050 C 
DOCKED: ATOM     19  C   UNL d   1       2.633  18.094  -8.258 -0.20 -0.01    +0.045 A 
DOCKED: ATOM     20  C   UNL d   1      -2.909  19.510  -8.731 -0.19 -0.01    +0.045 A 
DOCKED: ATOM     21  C   UNL d   1      -3.498  19.479  -9.931 -0.18 -0.00    +0.057 C 
DOCKED: ATOM     22  C   UNL d   1      -2.608  19.868  -6.495 -0.15 +0.00    -0.019 A 
DOCKED: ATOM     23  C   UNL d   1      -1.374  19.278  -7.053 -0.15 -0.01    +0.045 A 
DOCKED: ATOM     24  C   UNL d   1      -3.513  20.001  -7.494 -0.15 +0.00    -0.022 A 
DOCKED: ATOM     25  C   UNL d   1       0.919  18.387  -6.810 -0.11 -0.01    +0.049 A 
DOCKED: ATOM     26  C   UNL d   1       2.967  17.421  -7.093 -0.24 +0.00    -0.018 A 
DOCKED: ATOM     27  C   UNL d   1       1.874  17.593  -6.190 -0.21 -0.00    +0.003 A 
DOCKED: ATOM     28  C   UNL d   1      -0.278  18.989  -6.335 -0.15 -0.01    +0.052 C 
DOCKED: ATOM     29  C   UNL d   1      -4.904  20.534  -7.427 -0.11 -0.00    +0.046 C 
DOCKED: ATOM     30  C   UNL d   1       4.225  16.663  -6.833 -0.37 +0.01    +0.046 C 
DOCKED: ATOM     31  H   UNL d   1      -1.039  18.643  -9.053 -0.49 -0.11    +0.166 HD
DOCKED: ATOM     32  H   UNL d   1       0.915  19.209  -8.779 -0.10 -0.05    +0.166 HD
DOCKED: ENDROOT
DOCKED: BRANCH   7  33
DOCKED: ATOM     33  C   UNL d   1       4.642  17.437 -12.196 -0.05 -0.07    +0.141 C 
DOCKED: BRANCH  33  34
DOCKED: ATOM     34  C   UNL d   1       6.078  17.881 -12.136 -0.03 -0.15    +0.306 C 
DOCKED: ATOM     35  O   UNL d   1       6.745  18.293 -13.070 -0.10 +0.14    -0.251 OA
DOCKED: BRANCH  34  36
DOCKED: ATOM     36  O   UNL d   1       6.598  17.787 -10.899 -0.11 +0.08    -0.481 OA
DOCKED: ATOM     37  H   UNL d   1       7.315  17.122 -10.983 -0.47 -0.31    +0.295 HD
DOCKED: ENDBRANCH  34  36
DOCKED: ENDBRANCH  33  34
DOCKED: ENDBRANCH   7  33
DOCKED: BRANCH  27  38
DOCKED: ATOM     38  C   UNL d   1       1.813  17.070  -4.858 -0.26 -0.00    +0.017 C 
DOCKED: ATOM     39  C   UNL d   1       0.692  16.695  -4.224 -0.30 +0.00    +0.092 C 
DOCKED: BRANCH  39  40
DOCKED: ATOM     40  C   UNL d   1       0.768  16.157  -2.863 -0.21 +0.03    +0.330 C 
DOCKED: ATOM     41  O   UNL d   1      -0.124  16.091  -2.039 -0.90 -0.06    -0.246 OA
DOCKED: BRANCH  40  42
DOCKED: ATOM     42  O   UNL d   1       2.007  15.707  -2.613 -0.11 -0.02    -0.477 OA
DOCKED: ATOM     43  H   UNL d   1       2.349  16.326  -1.936 +0.17 +0.01    +0.295 HD
DOCKED: ENDBRANCH  40  42
DOCKED: ENDBRANCH  39  40
DOCKED: ENDBRANCH  27  38
DOCKED: BRANCH   8  44
DOCKED: ATOM     44  C   UNL d   1      -2.528  19.227 -14.635 -0.01 -0.01    +0.141 C 
DOCKED: BRANCH  44  45
DOCKED: ATOM     45  C   UNL d   1      -3.008  20.616 -14.309 +0.00 -0.02    +0.306 C 
DOCKED: ATOM     46  O   UNL d   1      -2.369  21.495 -13.757 -0.00 +0.02    -0.251 OA
DOCKED: BRANCH  45  47
DOCKED: ATOM     47  O   UNL d   1      -4.287  20.818 -14.675 +0.00 +0.02    -0.481 OA
DOCKED: ATOM     48  H   UNL d   1      -4.810  20.255 -14.066 +0.01 -0.01    +0.295 HD
DOCKED: ENDBRANCH  45  47
DOCKED: ENDBRANCH  44  45
DOCKED: ENDBRANCH   8  44
DOCKED: BRANCH  22  49
DOCKED: ATOM     49  C   UNL d   1      -2.781  20.256  -5.056 -0.11 -0.00    +0.048 C 
DOCKED: BRANCH  49  50
DOCKED: ATOM     50  C   UNL d   1      -2.673  19.049  -4.125 -0.14 +0.01    +0.125 C 
DOCKED: BRANCH  50  51
DOCKED: ATOM     51  C   UNL d   1      -2.919  17.770  -4.873 -0.16 +0.08    +0.305 C 
DOCKED: ATOM     52  O   UNL d   1      -2.154  16.831  -5.011 -0.93 -0.08    -0.251 OA
DOCKED: BRANCH  51  53
DOCKED: ATOM     53  O   UNL d   1      -4.143  17.742  -5.436 -0.29 -0.04    -0.481 OA
DOCKED: ATOM     54  H   UNL d   1      -4.010  17.245  -6.270 -0.45 -0.07    +0.295 HD
DOCKED: ENDBRANCH  51  53
DOCKED: ENDBRANCH  50  51
DOCKED: ENDBRANCH  49  50
DOCKED: ENDBRANCH  22  49
DOCKED: TORSDOF 13
DOCKED: TER
DOCKED: ENDMDL
________________________________________________________________________________


	BEGINNING GENETIC ALGORITHM DOCKING 34 of 100
Run: 34 Seed: 820731723 412202913 [ Run 34 of 100 GA/GALS ]
Beginning LAMARCKIAN GENETIC ALGORITHM (LGA), with a maximum of 25000000 energy evaluations.

Final-Value: -11.038


	FINAL GENETIC ALGORITHM DOCKED STATE
	_______________________________________________


Detailed state:  trans -11.990 -1.113 18.905 quatxyzw -0.479025 0.257975 0.803176 0.242679 center 0.153 0.018 -0.028 ntor 13 -99.5993 107.2734 71.1040 -105.7269 38.1339 132.3328 -38.9495 132.4646 134.7646 173.0110 73.5173 81.1492 136.4096
State:	-11.990  -1.113  18.905  -0.494  0.266  0.828 151.911    -99.60  107.27   71.10 -105.73   38.13  132.33  -38.95  132.46  134.76  173.01   73.52   81.15  136.41

DOCKED: MODEL       34
DOCKED: USER    Run = 34
DOCKED: USER    DPF = D:/Protein_go_brrr/autodock/final/AncMH_nat/heme/dock.dpf
DOCKED: USER  
DOCKED: USER    Estimated Free Energy of Binding    =   -5.54 kcal/mol  [=(1)+(2)+(3)-(4)]
DOCKED: USER    Estimated Inhibition Constant, Ki   =   86.75 uM (micromolar)  [Temperature = 298.15 K]
DOCKED: USER    
DOCKED: USER    (1) Final Intermolecular Energy     =   -9.42 kcal/mol
DOCKED: USER        vdW + Hbond + desolv Energy     =   -8.55 kcal/mol
DOCKED: USER        Electrostatic Energy            =   -0.87 kcal/mol
DOCKED: USER    (2) Final Total Internal Energy     =   -1.62 kcal/mol
DOCKED: USER    (3) Torsional Free Energy           =   +3.88 kcal/mol
DOCKED: USER    (4) Unbound System's Energy  [=(2)] =   -1.62 kcal/mol
DOCKED: USER    
DOCKED: USER    
DOCKED: USER    NEWDPF move heme_opt.pdbqt
DOCKED: USER    NEWDPF about 0.153000 0.018000 -0.028000
DOCKED: USER    NEWDPF tran0 -11.989897 -1.113282 18.905346
DOCKED: USER    NEWDPF quaternion0 -0.479025 0.257975 0.803176 0.242679
DOCKED: USER    NEWDPF axisangle0 -0.493786 0.265924 0.827925 151.910636
DOCKED: USER    NEWDPF quat0 -0.493786 0.265924 0.827925 151.910636
DOCKED: USER    NEWDPF dihe0 -99.60 107.27 71.10 -105.73 38.13 132.33 -38.95 132.46 134.76 173.01 73.52 81.15 136.41 
DOCKED: USER  keepresnum = 1 
DOCKED: USER  
DOCKED: REMARK  13 active torsions:
DOCKED: REMARK  status: ('A' for Active; 'I' for Inactive)
DOCKED: REMARK    1  A    between atoms: O_3  and  C_38 
DOCKED: REMARK    2  A    between atoms: O_4  and  C_40 
DOCKED: REMARK    3  A    between atoms: O_7  and  C_46 
DOCKED: REMARK    4  A    between atoms: O_9  and  C_48 
DOCKED: REMARK    5  A    between atoms: C_15  and  C_20 
DOCKED: REMARK    6  A    between atoms: C_16  and  C_23 
DOCKED: REMARK    7  A    between atoms: C_20  and  C_38 
DOCKED: REMARK    8  A    between atoms: C_23  and  C_40 
DOCKED: REMARK    9  A    between atoms: C_32  and  C_41 
DOCKED: REMARK   10  A    between atoms: C_37  and  C_45 
DOCKED: REMARK   11  A    between atoms: C_41  and  C_44 
DOCKED: REMARK   12  A    between atoms: C_44  and  C_46 
DOCKED: REMARK   13  A    between atoms: C_47  and  C_48 
DOCKED: USER                              x       y       z     vdW  Elec       q    Type
DOCKED: USER                           _______ _______ _______ _____ _____    ______ ____
DOCKED: ROOT
DOCKED: ATOM      1  O   UNL d   1      -9.954   1.313  23.877 +0.00 +0.03    -0.289 OA
DOCKED: ATOM      2  O   UNL d   1     -10.144   3.922  16.838 -0.84 +0.01    -0.289 OA
DOCKED: ATOM      3  N   UNL d   1     -11.137  -0.548  21.226 -0.05 +0.06    -0.247 NA
DOCKED: ATOM      4  N   UNL d   1     -11.103   1.381  18.967 -0.10 +0.06    -0.247 NA
DOCKED: ATOM      5  N   UNL d   1     -12.725  -0.471  17.482 -0.08 +0.05    -0.354 N 
DOCKED: ATOM      6  N   UNL d   1     -12.772  -2.458  19.838 -0.06 +0.03    -0.354 N 
DOCKED: ATOM      7  C   UNL d   1     -11.047  -0.862  23.656 -0.01 -0.01    +0.084 A 
DOCKED: ATOM      8  C   UNL d   1      -9.502   3.223  19.094 -0.15 -0.02    +0.084 A 
DOCKED: ATOM      9  C   UNL d   1     -10.164   2.009  19.755 -0.12 -0.01    +0.058 A 
DOCKED: ATOM     10  C   UNL d   1     -11.454  -1.392  22.278 -0.05 -0.01    +0.058 A 
DOCKED: ATOM     11  C   UNL d   1     -10.427   0.423  23.195 -0.01 -0.02    +0.193 A 
DOCKED: ATOM     12  C   UNL d   1     -10.521   0.484  21.702 -0.05 -0.02    +0.109 A 
DOCKED: ATOM     13  C   UNL d   1     -10.265   3.190  17.801 -0.10 -0.02    +0.193 A 
DOCKED: ATOM     14  C   UNL d   1     -12.262  -0.540  24.530 -0.00 -0.00    +0.026 C 
DOCKED: ATOM     15  C   UNL d   1      -9.888   1.626  21.011 -0.07 -0.01    +0.055 C 
DOCKED: ATOM     16  C   UNL d   1      -8.020   2.971  18.799 -0.25 -0.01    +0.026 C 
DOCKED: ATOM     17  C   UNL d   1     -11.208   2.031  17.853 -0.23 -0.01    +0.109 A 
DOCKED: ATOM     18  C   UNL d   1     -11.990  -2.618  22.127 -0.06 -0.00    +0.050 C 
DOCKED: ATOM     19  C   UNL d   1     -12.320  -3.224  20.888 -0.10 -0.00    +0.045 A 
DOCKED: ATOM     20  C   UNL d   1     -12.791   0.618  16.652 -0.29 -0.00    +0.045 A 
DOCKED: ATOM     21  C   UNL d   1     -12.124   1.774  16.732 -0.12 -0.00    +0.057 C 
DOCKED: ATOM     22  C   UNL d   1     -14.220  -0.987  15.878 -0.30 -0.00    -0.019 A 
DOCKED: ATOM     23  C   UNL d   1     -13.553  -1.491  17.096 -0.27 +0.00    +0.045 A 
DOCKED: ATOM     24  C   UNL d   1     -13.763   0.261  15.620 -0.32 -0.00    -0.022 A 
DOCKED: ATOM     25  C   UNL d   1     -13.117  -3.255  18.771 -0.15 +0.01    +0.049 A 
DOCKED: ATOM     26  C   UNL d   1     -12.336  -4.549  20.481 -0.10 -0.00    -0.018 A 
DOCKED: ATOM     27  C   UNL d   1     -12.821  -4.561  19.137 -0.15 +0.00    +0.003 A 
DOCKED: ATOM     28  C   UNL d   1     -13.757  -2.706  17.627 -0.23 +0.01    +0.052 C 
DOCKED: ATOM     29  C   UNL d   1     -14.126   1.174  14.498 -0.38 -0.00    +0.046 C 
DOCKED: ATOM     30  C   UNL d   1     -11.923  -5.734  21.288 -0.05 +0.00    +0.046 C 
DOCKED: ATOM     31  H   UNL d   1     -12.059  -0.510  18.246 -0.46 -0.10    +0.166 HD
DOCKED: ATOM     32  H   UNL d   1     -12.870  -1.451  19.881 -0.09 -0.03    +0.166 HD
DOCKED: ENDROOT
DOCKED: BRANCH   7  33
DOCKED: ATOM     33  C   UNL d   1     -10.021  -1.714  24.411 -0.00 -0.01    +0.141 C 
DOCKED: BRANCH  33  34
DOCKED: ATOM     34  C   UNL d   1      -9.709  -1.168  25.778 +0.00 -0.02    +0.306 C 
DOCKED: ATOM     35  O   UNL d   1     -10.262  -1.477  26.820 +0.00 +0.01    -0.251 OA
DOCKED: BRANCH  34  36
DOCKED: ATOM     36  O   UNL d   1      -8.713  -0.264  25.761 +0.00 +0.04    -0.481 OA
DOCKED: ATOM     37  H   UNL d   1      -9.133   0.559  25.430 +0.00 -0.02    +0.295 HD
DOCKED: ENDBRANCH  34  36
DOCKED: ENDBRANCH  33  34
DOCKED: ENDBRANCH   7  33
DOCKED: BRANCH  27  38
DOCKED: ATOM     38  C   UNL d   1     -13.010  -5.734  18.338 -0.23 +0.01    +0.017 C 
DOCKED: ATOM     39  C   UNL d   1     -12.039  -6.582  17.964 -0.19 +0.04    +0.092 C 
DOCKED: BRANCH  39  40
DOCKED: ATOM     40  C   UNL d   1     -12.369  -7.760  17.158 -0.18 +0.17    +0.330 C 
DOCKED: ATOM     41  O   UNL d   1     -11.832  -8.133  16.133 -0.36 -0.10    -0.246 OA
DOCKED: BRANCH  40  42
DOCKED: ATOM     42  O   UNL d   1     -13.389  -8.430  17.715 -0.06 -0.34    -0.477 OA
DOCKED: ATOM     43  H   UNL d   1     -12.990  -8.853  18.503 +0.08 +0.12    +0.295 HD
DOCKED: ENDBRANCH  40  42
DOCKED: ENDBRANCH  39  40
DOCKED: ENDBRANCH  27  38
DOCKED: BRANCH   8  44
DOCKED: ATOM     44  C   UNL d   1      -9.704   4.559  19.816 -0.06 -0.04    +0.141 C 
DOCKED: BRANCH  44  45
DOCKED: ATOM     45  C   UNL d   1      -8.411   5.241  20.178 -0.04 -0.18    +0.306 C 
DOCKED: ATOM     46  O   UNL d   1      -7.722   5.019  21.159 -0.03 +0.12    -0.251 OA
DOCKED: BRANCH  45  47
DOCKED: ATOM     47  O   UNL d   1      -8.064   6.191  19.291 -0.03 +0.48    -0.481 OA
DOCKED: ATOM     48  H   UNL d   1      -7.284   5.823  18.824 -0.42 -0.73    +0.295 HD
DOCKED: ENDBRANCH  45  47
DOCKED: ENDBRANCH  44  45
DOCKED: ENDBRANCH   8  44
DOCKED: BRANCH  22  49
DOCKED: ATOM     49  C   UNL d   1     -15.242  -1.759  15.096 -0.24 +0.00    +0.048 C 
DOCKED: BRANCH  49  50
DOCKED: ATOM     50  C   UNL d   1     -16.381  -2.257  15.986 -0.11 +0.04    +0.125 C 
DOCKED: BRANCH  50  51
DOCKED: ATOM     51  C   UNL d   1     -16.263  -3.734  16.233 -0.10 +0.25    +0.305 C 
DOCKED: ATOM     52  O   UNL d   1     -16.245  -4.308  17.307 -0.66 -0.30    -0.251 OA
DOCKED: BRANCH  51  53
DOCKED: ATOM     53  O   UNL d   1     -16.159  -4.431  15.084 -0.28 -0.48    -0.481 OA
DOCKED: ATOM     54  H   UNL d   1     -15.245  -4.250  14.778 -0.41 +0.11    +0.295 HD
DOCKED: ENDBRANCH  51  53
DOCKED: ENDBRANCH  50  51
DOCKED: ENDBRANCH  49  50
DOCKED: ENDBRANCH  22  49
DOCKED: TORSDOF 13
DOCKED: TER
DOCKED: ENDMDL
________________________________________________________________________________


	BEGINNING GENETIC ALGORITHM DOCKING 35 of 100
Run: 35 Seed: 1383776729 38988567 [ Run 35 of 100 GA/GALS ]
Beginning LAMARCKIAN GENETIC ALGORITHM (LGA), with a maximum of 25000000 energy evaluations.

Final-Value: -10.899


	FINAL GENETIC ALGORITHM DOCKED STATE
	_______________________________________________


Detailed state:  trans -7.560 -15.048 16.988 quatxyzw 0.199440 -0.155549 0.215140 0.943262 center 0.153 0.018 -0.028 ntor 13 111.1426 -165.7146 -159.3957 -125.9262 -135.4418 74.5983 135.1098 -23.3904 42.5185 -10.0037 114.4408 -44.3765 42.3194
State:	 -7.560 -15.048  16.988   0.601 -0.468  0.648 38.787    111.14 -165.71 -159.40 -125.93 -135.44   74.60  135.11  -23.39   42.52  -10.00  114.44  -44.38   42.32

DOCKED: MODEL       35
DOCKED: USER    Run = 35
DOCKED: USER    DPF = D:/Protein_go_brrr/autodock/final/AncMH_nat/heme/dock.dpf
DOCKED: USER  
DOCKED: USER    Estimated Free Energy of Binding    =   -3.04 kcal/mol  [=(1)+(2)+(3)-(4)]
DOCKED: USER    Estimated Inhibition Constant, Ki   =    5.90 mM (millimolar)  [Temperature = 298.15 K]
DOCKED: USER    
DOCKED: USER    (1) Final Intermolecular Energy     =   -6.92 kcal/mol
DOCKED: USER        vdW + Hbond + desolv Energy     =   -6.63 kcal/mol
DOCKED: USER        Electrostatic Energy            =   -0.29 kcal/mol
DOCKED: USER    (2) Final Total Internal Energy     =   -3.98 kcal/mol
DOCKED: USER    (3) Torsional Free Energy           =   +3.88 kcal/mol
DOCKED: USER    (4) Unbound System's Energy  [=(2)] =   -3.98 kcal/mol
DOCKED: USER    
DOCKED: USER    
DOCKED: USER    NEWDPF move heme_opt.pdbqt
DOCKED: USER    NEWDPF about 0.153000 0.018000 -0.028000
DOCKED: USER    NEWDPF tran0 -7.559736 -15.048078 16.988253
DOCKED: USER    NEWDPF quaternion0 0.199440 -0.155549 0.215140 0.943262
DOCKED: USER    NEWDPF axisangle0 0.600633 -0.468451 0.647915 38.786535
DOCKED: USER    NEWDPF quat0 0.600633 -0.468451 0.647915 38.786535
DOCKED: USER    NEWDPF dihe0 111.14 -165.71 -159.40 -125.93 -135.44 74.60 135.11 -23.39 42.52 -10.00 114.44 -44.38 42.32 
DOCKED: USER  keepresnum = 1 
DOCKED: USER  
DOCKED: REMARK  13 active torsions:
DOCKED: REMARK  status: ('A' for Active; 'I' for Inactive)
DOCKED: REMARK    1  A    between atoms: O_3  and  C_38 
DOCKED: REMARK    2  A    between atoms: O_4  and  C_40 
DOCKED: REMARK    3  A    between atoms: O_7  and  C_46 
DOCKED: REMARK    4  A    between atoms: O_9  and  C_48 
DOCKED: REMARK    5  A    between atoms: C_15  and  C_20 
DOCKED: REMARK    6  A    between atoms: C_16  and  C_23 
DOCKED: REMARK    7  A    between atoms: C_20  and  C_38 
DOCKED: REMARK    8  A    between atoms: C_23  and  C_40 
DOCKED: REMARK    9  A    between atoms: C_32  and  C_41 
DOCKED: REMARK   10  A    between atoms: C_37  and  C_45 
DOCKED: REMARK   11  A    between atoms: C_41  and  C_44 
DOCKED: REMARK   12  A    between atoms: C_44  and  C_46 
DOCKED: REMARK   13  A    between atoms: C_47  and  C_48 
DOCKED: USER                              x       y       z     vdW  Elec       q    Type
DOCKED: USER                           _______ _______ _______ _____ _____    ______ ____
DOCKED: ROOT
DOCKED: ATOM      1  O   UNL d   1     -11.553 -10.824  17.970 -0.08 -0.05    -0.289 OA
DOCKED: ATOM      2  O   UNL d   1     -12.107 -18.305  18.311 -0.02 +0.05    -0.289 OA
DOCKED: ATOM      3  N   UNL d   1      -8.942 -12.929  17.167 -0.14 -0.08    -0.247 NA
DOCKED: ATOM      4  N   UNL d   1      -9.986 -15.617  17.884 -0.07 +0.03    -0.247 NA
DOCKED: ATOM      5  N   UNL d   1      -7.301 -16.619  17.655 -0.05 +0.03    -0.354 N 
DOCKED: ATOM      6  N   UNL d   1      -6.223 -13.823  16.931 -0.05 -0.05    -0.354 N 
DOCKED: ATOM      7  C   UNL d   1      -9.199 -10.502  17.396 -0.18 +0.02    +0.084 A 
DOCKED: ATOM      8  C   UNL d   1     -12.410 -15.921  17.848 -0.12 -0.02    +0.084 A 
DOCKED: ATOM      9  C   UNL d   1     -11.201 -14.988  17.726 -0.14 -0.01    +0.058 A 
DOCKED: ATOM     10  C   UNL d   1      -8.299 -11.704  17.094 -0.19 +0.02    +0.058 A 
DOCKED: ATOM     11  C   UNL d   1     -10.469 -11.263  17.634 -0.10 +0.04    +0.193 A 
DOCKED: ATOM     12  C   UNL d   1     -10.189 -12.721  17.440 -0.13 +0.02    +0.109 A 
DOCKED: ATOM     13  C   UNL d   1     -11.658 -17.188  18.141 -0.05 -0.04    +0.193 A 
DOCKED: ATOM     14  C   UNL d   1      -8.796  -9.794  18.692 -0.14 +0.00    +0.026 C 
DOCKED: ATOM     15  C   UNL d   1     -11.321 -13.665  17.534 -0.15 -0.01    +0.055 C 
DOCKED: ATOM     16  C   UNL d   1     -13.141 -16.080  16.511 -0.23 -0.01    +0.026 C 
DOCKED: ATOM     17  C   UNL d   1     -10.199 -16.867  18.143 -0.06 -0.02    +0.109 A 
DOCKED: ATOM     18  C   UNL d   1      -7.020 -11.545  16.705 -0.29 +0.02    +0.050 C 
DOCKED: ATOM     19  C   UNL d   1      -6.140 -12.590  16.325 -0.25 +0.02    +0.045 A 
DOCKED: ATOM     20  C   UNL d   1      -7.913 -17.711  18.215 -0.06 -0.01    +0.045 A 
DOCKED: ATOM     21  C   UNL d   1      -9.213 -17.915  18.447 -0.07 -0.01    +0.057 C 
DOCKED: ATOM     22  C   UNL d   1      -5.661 -18.085  18.138 -0.08 +0.00    -0.019 A 
DOCKED: ATOM     23  C   UNL d   1      -5.941 -16.752  17.567 -0.12 -0.00    +0.045 A 
DOCKED: ATOM     24  C   UNL d   1      -6.832 -18.648  18.518 -0.07 +0.00    -0.022 A 
DOCKED: ATOM     25  C   UNL d   1      -5.223 -14.652  16.478 -0.17 -0.00    +0.049 A 
DOCKED: ATOM     26  C   UNL d   1      -5.083 -12.631  15.429 -0.35 -0.00    -0.018 A 
DOCKED: ATOM     27  C   UNL d   1      -4.520 -13.941  15.516 -0.24 -0.00    +0.003 A 
DOCKED: ATOM     28  C   UNL d   1      -5.007 -15.926  17.072 -0.15 -0.00    +0.052 C 
DOCKED: ATOM     29  C   UNL d   1      -7.069 -19.985  19.133 -0.03 -0.00    +0.046 C 
DOCKED: ATOM     30  C   UNL d   1      -4.624 -11.522  14.543 -0.25 +0.00    +0.046 C 
DOCKED: ATOM     31  H   UNL d   1      -7.842 -15.846  17.283 -0.04 -0.01    +0.166 HD
DOCKED: ATOM     32  H   UNL d   1      -6.908 -14.054  17.641 +0.05 +0.02    +0.166 HD
DOCKED: ENDROOT
DOCKED: BRANCH   7  33
DOCKED: ATOM     33  C   UNL d   1      -9.376  -9.508  16.243 -0.30 +0.06    +0.141 C 
DOCKED: BRANCH  33  34
DOCKED: ATOM     34  C   UNL d   1     -10.550  -9.844  15.364 -0.32 +0.17    +0.306 C 
DOCKED: ATOM     35  O   UNL d   1     -10.566 -10.671  14.468 -0.31 -0.25    -0.251 OA
DOCKED: BRANCH  34  36
DOCKED: ATOM     36  O   UNL d   1     -11.645  -9.122  15.662 -0.17 -0.21    -0.481 OA
DOCKED: ATOM     37  H   UNL d   1     -11.950  -9.480  16.522 +0.15 +0.12    +0.295 HD
DOCKED: ENDBRANCH  34  36
DOCKED: ENDBRANCH  33  34
DOCKED: ENDBRANCH   7  33
DOCKED: BRANCH  27  38
DOCKED: ATOM     38  C   UNL d   1      -3.392 -14.406  14.766 -0.21 -0.00    +0.017 C 
DOCKED: ATOM     39  C   UNL d   1      -2.772 -15.582  14.949 -0.15 -0.02    +0.092 C 
DOCKED: BRANCH  39  40
DOCKED: ATOM     40  C   UNL d   1      -1.636 -15.948  14.100 -0.18 -0.03    +0.330 C 
DOCKED: ATOM     41  O   UNL d   1      -0.510 -15.487  14.125 -0.14 +0.02    -0.246 OA
DOCKED: BRANCH  40  42
DOCKED: ATOM     42  O   UNL d   1      -1.993 -16.915  13.242 -0.34 -0.03    -0.477 OA
DOCKED: ATOM     43  H   UNL d   1      -2.971 -16.922  13.289 -0.22 -0.01    +0.295 HD
DOCKED: ENDBRANCH  40  42
DOCKED: ENDBRANCH  39  40
DOCKED: ENDBRANCH  27  38
DOCKED: BRANCH   8  44
DOCKED: ATOM     44  C   UNL d   1     -13.389 -15.589  18.979 -0.04 -0.03    +0.141 C 
DOCKED: BRANCH  44  45
DOCKED: ATOM     45  C   UNL d   1     -12.753 -15.620  20.343 +0.00 -0.03    +0.306 C 
DOCKED: ATOM     46  O   UNL d   1     -12.235 -14.683  20.925 -0.00 +0.02    -0.251 OA
DOCKED: BRANCH  45  47
DOCKED: ATOM     47  O   UNL d   1     -12.779 -16.847  20.895 +0.01 +0.05    -0.481 OA
DOCKED: ATOM     48  H   UNL d   1     -12.915 -17.456  20.139 +0.02 -0.04    +0.295 HD
DOCKED: ENDBRANCH  45  47
DOCKED: ENDBRANCH  44  45
DOCKED: ENDBRANCH   8  44
DOCKED: BRANCH  22  49
DOCKED: ATOM     49  C   UNL d   1      -4.286 -18.673  18.270 -0.05 -0.00    +0.048 C 
DOCKED: BRANCH  49  50
DOCKED: ATOM     50  C   UNL d   1      -3.427 -18.395  17.037 -0.08 -0.01    +0.125 C 
DOCKED: BRANCH  50  51
DOCKED: ATOM     51  C   UNL d   1      -3.992 -19.079  15.824 -0.13 -0.02    +0.305 C 
DOCKED: ATOM     52  O   UNL d   1      -4.635 -20.114  15.786 -0.12 +0.02    -0.251 OA
DOCKED: BRANCH  51  53
DOCKED: ATOM     53  O   UNL d   1      -3.701 -18.414  14.689 -0.10 +0.02    -0.481 OA
DOCKED: ATOM     54  H   UNL d   1      -2.727 -18.313  14.715 +0.07 -0.01    +0.295 HD
DOCKED: ENDBRANCH  51  53
DOCKED: ENDBRANCH  50  51
DOCKED: ENDBRANCH  49  50
DOCKED: ENDBRANCH  22  49
DOCKED: TORSDOF 13
DOCKED: TER
DOCKED: ENDMDL
________________________________________________________________________________


	BEGINNING GENETIC ALGORITHM DOCKING 36 of 100
Run: 36 Seed: 152759034 825125533 [ Run 36 of 100 GA/GALS ]
Beginning LAMARCKIAN GENETIC ALGORITHM (LGA), with a maximum of 25000000 energy evaluations.

Final-Value: -11.326


	FINAL GENETIC ALGORITHM DOCKED STATE
	_______________________________________________


Detailed state:  trans -3.407 -10.731 18.712 quatxyzw 0.158812 -0.326869 0.403806 -0.839569 center 0.153 0.018 -0.028 ntor 13 -58.2318 179.8359 98.3626 32.4393 11.0020 -80.3256 -46.7047 25.7314 -178.9395 -120.4894 -80.2021 24.3285 -3.8338
State:	 -3.407 -10.731  18.712   0.292 -0.602  0.743 -65.811    -58.23  179.84   98.36   32.44   11.00  -80.33  -46.70   25.73 -178.94 -120.49  -80.20   24.33   -3.83

DOCKED: MODEL       36
DOCKED: USER    Run = 36
DOCKED: USER    DPF = D:/Protein_go_brrr/autodock/final/AncMH_nat/heme/dock.dpf
DOCKED: USER  
DOCKED: USER    Estimated Free Energy of Binding    =   -3.61 kcal/mol  [=(1)+(2)+(3)-(4)]
DOCKED: USER    Estimated Inhibition Constant, Ki   =    2.27 mM (millimolar)  [Temperature = 298.15 K]
DOCKED: USER    
DOCKED: USER    (1) Final Intermolecular Energy     =   -7.48 kcal/mol
DOCKED: USER        vdW + Hbond + desolv Energy     =   -7.11 kcal/mol
DOCKED: USER        Electrostatic Energy            =   -0.38 kcal/mol
DOCKED: USER    (2) Final Total Internal Energy     =   -3.84 kcal/mol
DOCKED: USER    (3) Torsional Free Energy           =   +3.88 kcal/mol
DOCKED: USER    (4) Unbound System's Energy  [=(2)] =   -3.84 kcal/mol
DOCKED: USER    
DOCKED: USER    
DOCKED: USER    NEWDPF move heme_opt.pdbqt
DOCKED: USER    NEWDPF about 0.153000 0.018000 -0.028000
DOCKED: USER    NEWDPF tran0 -3.406743 -10.731399 18.712203
DOCKED: USER    NEWDPF quaternion0 0.158812 -0.326869 0.403806 -0.839569
DOCKED: USER    NEWDPF axisangle0 0.292335 -0.601688 0.743312 -65.810721
DOCKED: USER    NEWDPF quat0 0.292335 -0.601688 0.743312 -65.810721
DOCKED: USER    NEWDPF dihe0 -58.23 179.84 98.36 32.44 11.00 -80.33 -46.70 25.73 -178.94 -120.49 -80.20 24.33 -3.83 
DOCKED: USER  keepresnum = 1 
DOCKED: USER  
DOCKED: REMARK  13 active torsions:
DOCKED: REMARK  status: ('A' for Active; 'I' for Inactive)
DOCKED: REMARK    1  A    between atoms: O_3  and  C_38 
DOCKED: REMARK    2  A    between atoms: O_4  and  C_40 
DOCKED: REMARK    3  A    between atoms: O_7  and  C_46 
DOCKED: REMARK    4  A    between atoms: O_9  and  C_48 
DOCKED: REMARK    5  A    between atoms: C_15  and  C_20 
DOCKED: REMARK    6  A    between atoms: C_16  and  C_23 
DOCKED: REMARK    7  A    between atoms: C_20  and  C_38 
DOCKED: REMARK    8  A    between atoms: C_23  and  C_40 
DOCKED: REMARK    9  A    between atoms: C_32  and  C_41 
DOCKED: REMARK   10  A    between atoms: C_37  and  C_45 
DOCKED: REMARK   11  A    between atoms: C_41  and  C_44 
DOCKED: REMARK   12  A    between atoms: C_44  and  C_46 
DOCKED: REMARK   13  A    between atoms: C_47  and  C_48 
DOCKED: USER                              x       y       z     vdW  Elec       q    Type
DOCKED: USER                           _______ _______ _______ _____ _____    ______ ____
DOCKED: ROOT
DOCKED: ATOM      1  O   UNL d   1      -7.582 -13.244  15.394 -0.39 -0.39    -0.289 OA
DOCKED: ATOM      2  O   UNL d   1      -0.176 -14.440  15.738 -0.09 +0.04    -0.289 OA
DOCKED: ATOM      3  N   UNL d   1      -5.485 -11.408  17.426 -0.04 -0.02    -0.247 NA
DOCKED: ATOM      4  N   UNL d   1      -2.866 -12.776  17.119 -0.10 +0.02    -0.247 NA
DOCKED: ATOM      5  N   UNL d   1      -1.933 -11.304  19.405 -0.01 +0.04    -0.354 N 
DOCKED: ATOM      6  N   UNL d   1      -4.660  -9.903  19.729 -0.07 +0.03    -0.354 N 
DOCKED: ATOM      7  C   UNL d   1      -7.913 -11.533  17.108 -0.18 +0.03    +0.084 A 
DOCKED: ATOM      8  C   UNL d   1      -2.480 -13.998  15.038 -0.25 -0.01    +0.084 A 
DOCKED: ATOM      9  C   UNL d   1      -3.432 -13.203  15.938 -0.23 -0.00    +0.058 A 
DOCKED: ATOM     10  C   UNL d   1      -6.714 -10.918  17.837 -0.20 +0.01    +0.058 A 
DOCKED: ATOM     11  C   UNL d   1      -7.143 -12.444  16.199 -0.16 +0.13    +0.193 A 
DOCKED: ATOM     12  C   UNL d   1      -5.682 -12.257  16.471 -0.21 +0.02    +0.109 A 
DOCKED: ATOM     13  C   UNL d   1      -1.280 -13.975  15.943 -0.12 -0.03    +0.193 A 
DOCKED: ATOM     14  C   UNL d   1      -8.779 -12.382  18.042 -0.11 +0.00    +0.026 C 
DOCKED: ATOM     15  C   UNL d   1      -4.718 -12.989  15.624 -0.33 +0.00    +0.055 C 
DOCKED: ATOM     16  C   UNL d   1      -2.143 -13.234  13.754 -0.38 -0.00    +0.026 C 
DOCKED: ATOM     17  C   UNL d   1      -1.648 -13.210  17.173 -0.13 -0.02    +0.109 A 
DOCKED: ATOM     18  C   UNL d   1      -6.869  -9.923  18.731 -0.21 +0.00    +0.050 C 
DOCKED: ATOM     19  C   UNL d   1      -5.817  -9.238  19.390 -0.20 -0.00    +0.045 A 
DOCKED: ATOM     20  C   UNL d   1      -0.894 -12.184  19.253 -0.09 -0.01    +0.045 A 
DOCKED: ATOM     21  C   UNL d   1      -0.675 -13.059  18.266 -0.11 -0.01    +0.057 C 
DOCKED: ATOM     22  C   UNL d   1      -0.587 -11.009  21.187 -0.05 +0.00    -0.019 A 
DOCKED: ATOM     23  C   UNL d   1      -1.835 -10.551  20.545 -0.08 -0.01    +0.045 A 
DOCKED: ATOM     24  C   UNL d   1      -0.034 -11.975  20.417 -0.04 +0.00    -0.022 A 
DOCKED: ATOM     25  C   UNL d   1      -3.818  -9.078  20.436 -0.08 -0.01    +0.049 A 
DOCKED: ATOM     26  C   UNL d   1      -5.708  -7.937  19.856 -0.26 +0.00    -0.018 A 
DOCKED: ATOM     27  C   UNL d   1      -4.435  -7.836  20.499 -0.24 -0.00    +0.003 A 
DOCKED: ATOM     28  C   UNL d   1      -2.630  -9.584  21.030 -0.11 -0.01    +0.052 C 
DOCKED: ATOM     29  C   UNL d   1       1.230 -12.734  20.637 -0.02 -0.01    +0.046 C 
DOCKED: ATOM     30  C   UNL d   1      -6.721  -6.853  19.713 -0.21 -0.01    +0.046 C 
DOCKED: ATOM     31  H   UNL d   1      -2.639 -11.193  18.686 +0.04 -0.01    +0.166 HD
DOCKED: ATOM     32  H   UNL d   1      -4.491 -10.879  19.514 +0.03 -0.01    +0.166 HD
DOCKED: ENDROOT
DOCKED: BRANCH   7  33
DOCKED: ATOM     33  C   UNL d   1      -8.760 -10.550  16.293 -0.28 +0.09    +0.141 C 
DOCKED: BRANCH  33  34
DOCKED: ATOM     34  C   UNL d   1     -10.233 -10.688  16.569 -0.21 +0.13    +0.306 C 
DOCKED: ATOM     35  O   UNL d   1     -10.792 -10.453  17.627 -0.10 -0.05    -0.251 OA
DOCKED: BRANCH  34  36
DOCKED: ATOM     36  O   UNL d   1     -10.925 -11.111  15.496 -0.14 -0.27    -0.481 OA
DOCKED: ATOM     37  H   UNL d   1     -11.326 -11.959  15.781 -0.43 +0.04    +0.295 HD
DOCKED: ENDBRANCH  34  36
DOCKED: ENDBRANCH  33  34
DOCKED: ENDBRANCH   7  33
DOCKED: BRANCH  27  38
DOCKED: ATOM     38  C   UNL d   1      -3.924  -6.660  21.136 -0.22 -0.01    +0.017 C 
DOCKED: ATOM     39  C   UNL d   1      -2.806  -6.010  20.779 -0.24 -0.05    +0.092 C 
DOCKED: BRANCH  39  40
DOCKED: ATOM     40  C   UNL d   1      -2.400  -4.803  21.505 -0.09 -0.16    +0.330 C 
DOCKED: ATOM     41  O   UNL d   1      -2.802  -3.667  21.342 -0.13 +0.12    -0.246 OA
DOCKED: BRANCH  40  42
DOCKED: ATOM     42  O   UNL d   1      -1.483  -5.111  22.435 +0.00 +0.16    -0.477 OA
DOCKED: ATOM     43  H   UNL d   1      -1.368  -6.079  22.340 +0.05 -0.09    +0.295 HD
DOCKED: ENDBRANCH  40  42
DOCKED: ENDBRANCH  39  40
DOCKED: ENDBRANCH  27  38
DOCKED: BRANCH   8  44
DOCKED: ATOM     44  C   UNL d   1      -2.908 -15.437  14.731 -0.05 -0.03    +0.141 C 
DOCKED: BRANCH  44  45
DOCKED: ATOM     45  C   UNL d   1      -1.837 -16.243  14.047 -0.19 -0.03    +0.306 C 
DOCKED: ATOM     46  O   UNL d   1      -1.669 -16.356  12.845 -0.50 -0.02    -0.251 OA
DOCKED: BRANCH  45  47
DOCKED: ATOM     47  O   UNL d   1      -1.043 -16.891  14.919 -0.02 +0.03    -0.481 OA
DOCKED: ATOM     48  H   UNL d   1      -0.386 -16.220  15.202 +0.07 -0.03    +0.295 HD
DOCKED: ENDBRANCH  45  47
DOCKED: ENDBRANCH  44  45
DOCKED: ENDBRANCH   8  44
DOCKED: BRANCH  22  49
DOCKED: ATOM     49  C   UNL d   1      -0.064 -10.476  22.489 -0.02 -0.01    +0.048 C 
DOCKED: BRANCH  49  50
DOCKED: ATOM     50  C   UNL d   1       0.808  -9.237  22.287 -0.02 -0.02    +0.125 C 
DOCKED: BRANCH  50  51
DOCKED: ATOM     51  C   UNL d   1       0.038  -7.984  22.590 -0.00 -0.06    +0.305 C 
DOCKED: ATOM     52  O   UNL d   1      -0.983  -7.879  23.247 -0.01 +0.05    -0.251 OA
DOCKED: BRANCH  51  53
DOCKED: ATOM     53  O   UNL d   1       0.601  -6.897  22.026 +0.01 +0.13    -0.481 OA
DOCKED: ATOM     54  H   UNL d   1       0.397  -6.171  22.652 +0.02 -0.08    +0.295 HD
DOCKED: ENDBRANCH  51  53
DOCKED: ENDBRANCH  50  51
DOCKED: ENDBRANCH  49  50
DOCKED: ENDBRANCH  22  49
DOCKED: TORSDOF 13
DOCKED: TER
DOCKED: ENDMDL
________________________________________________________________________________


	BEGINNING GENETIC ALGORITHM DOCKING 37 of 100
Run: 37 Seed: 2003400653 793359051 [ Run 37 of 100 GA/GALS ]
Beginning LAMARCKIAN GENETIC ALGORITHM (LGA), with a maximum of 25000000 energy evaluations.

Final-Value: -11.623


	FINAL GENETIC ALGORITHM DOCKED STATE
	_______________________________________________


Detailed state:  trans -17.926 -6.821 3.364 quatxyzw -0.092460 -0.292397 0.659025 0.686762 center 0.153 0.018 -0.028 ntor 13 -179.9316 117.1702 -127.1008 -74.2357 -161.2294 57.4451 124.6807 -12.1352 0.1621 -18.3444 -59.1143 -77.5742 7.8342
State:	-17.926  -6.821   3.364  -0.127 -0.402  0.907 93.251   -179.93  117.17 -127.10  -74.24 -161.23   57.45  124.68  -12.14    0.16  -18.34  -59.11  -77.57    7.83

DOCKED: MODEL       37
DOCKED: USER    Run = 37
DOCKED: USER    DPF = D:/Protein_go_brrr/autodock/final/AncMH_nat/heme/dock.dpf
DOCKED: USER  
DOCKED: USER    Estimated Free Energy of Binding    =   -3.05 kcal/mol  [=(1)+(2)+(3)-(4)]
DOCKED: USER    Estimated Inhibition Constant, Ki   =    5.80 mM (millimolar)  [Temperature = 298.15 K]
DOCKED: USER    
DOCKED: USER    (1) Final Intermolecular Energy     =   -6.93 kcal/mol
DOCKED: USER        vdW + Hbond + desolv Energy     =   -6.77 kcal/mol
DOCKED: USER        Electrostatic Energy            =   -0.16 kcal/mol
DOCKED: USER    (2) Final Total Internal Energy     =   -4.69 kcal/mol
DOCKED: USER    (3) Torsional Free Energy           =   +3.88 kcal/mol
DOCKED: USER    (4) Unbound System's Energy  [=(2)] =   -4.69 kcal/mol
DOCKED: USER    
DOCKED: USER    
DOCKED: USER    NEWDPF move heme_opt.pdbqt
DOCKED: USER    NEWDPF about 0.153000 0.018000 -0.028000
DOCKED: USER    NEWDPF tran0 -17.926349 -6.820991 3.364117
DOCKED: USER    NEWDPF quaternion0 -0.092460 -0.292397 0.659025 0.686762
DOCKED: USER    NEWDPF axisangle0 -0.127200 -0.402261 0.906645 93.251393
DOCKED: USER    NEWDPF quat0 -0.127200 -0.402261 0.906645 93.251393
DOCKED: USER    NEWDPF dihe0 -179.93 117.17 -127.10 -74.24 -161.23 57.45 124.68 -12.14 0.16 -18.34 -59.11 -77.57 7.83 
DOCKED: USER  keepresnum = 1 
DOCKED: USER  
DOCKED: REMARK  13 active torsions:
DOCKED: REMARK  status: ('A' for Active; 'I' for Inactive)
DOCKED: REMARK    1  A    between atoms: O_3  and  C_38 
DOCKED: REMARK    2  A    between atoms: O_4  and  C_40 
DOCKED: REMARK    3  A    between atoms: O_7  and  C_46 
DOCKED: REMARK    4  A    between atoms: O_9  and  C_48 
DOCKED: REMARK    5  A    between atoms: C_15  and  C_20 
DOCKED: REMARK    6  A    between atoms: C_16  and  C_23 
DOCKED: REMARK    7  A    between atoms: C_20  and  C_38 
DOCKED: REMARK    8  A    between atoms: C_23  and  C_40 
DOCKED: REMARK    9  A    between atoms: C_32  and  C_41 
DOCKED: REMARK   10  A    between atoms: C_37  and  C_45 
DOCKED: REMARK   11  A    between atoms: C_41  and  C_44 
DOCKED: REMARK   12  A    between atoms: C_44  and  C_46 
DOCKED: REMARK   13  A    between atoms: C_47  and  C_48 
DOCKED: USER                              x       y       z     vdW  Elec       q    Type
DOCKED: USER                           _______ _______ _______ _____ _____    ______ ____
DOCKED: ROOT
DOCKED: ATOM      1  O   UNL d   1     -15.903  -2.184   6.391 -0.09 -0.11    -0.289 OA
DOCKED: ATOM      2  O   UNL d   1     -22.911  -4.304   4.725 -0.00 -0.07    -0.289 OA
DOCKED: ATOM      3  N   UNL d   1     -16.607  -4.945   4.447 -0.07 -0.12    -0.247 NA
DOCKED: ATOM      4  N   UNL d   1     -19.568  -5.148   4.597 -0.30 -0.12    -0.247 NA
DOCKED: ATOM      5  N   UNL d   1     -19.350  -7.790   3.482 -0.08 -0.08    -0.354 N 
DOCKED: ATOM      6  N   UNL d   1     -16.278  -7.578   3.348 -0.11 -0.18    -0.354 N 
DOCKED: ATOM      7  C   UNL d   1     -14.568  -3.979   5.405 -0.24 +0.03    +0.084 A 
DOCKED: ATOM      8  C   UNL d   1     -20.809  -3.090   5.037 -0.02 +0.04    +0.084 A 
DOCKED: ATOM      9  C   UNL d   1     -19.463  -3.811   4.908 -0.06 +0.03    +0.058 A 
DOCKED: ATOM     10  C   UNL d   1     -15.235  -5.081   4.577 -0.23 +0.03    +0.058 A 
DOCKED: ATOM     11  C   UNL d   1     -15.804  -3.185   5.705 -0.08 +0.08    +0.193 A 
DOCKED: ATOM     12  C   UNL d   1     -16.969  -3.858   5.048 -0.08 +0.05    +0.109 A 
DOCKED: ATOM     13  C   UNL d   1     -21.697  -4.274   4.779 -0.03 +0.06    +0.193 A 
DOCKED: ATOM     14  C   UNL d   1     -13.993  -4.515   6.718 -0.23 +0.01    +0.026 C 
DOCKED: ATOM     15  C   UNL d   1     -18.289  -3.201   5.129 -0.08 +0.03    +0.055 C 
DOCKED: ATOM     16  C   UNL d   1     -21.015  -2.067   3.916 -0.03 +0.02    +0.026 C 
DOCKED: ATOM     17  C   UNL d   1     -20.822  -5.460   4.535 -0.03 +0.04    +0.109 A 
DOCKED: ATOM     18  C   UNL d   1     -14.511  -6.037   3.964 -0.41 +0.03    +0.050 C 
DOCKED: ATOM     19  C   UNL d   1     -15.031  -7.044   3.112 -0.33 +0.03    +0.045 A 
DOCKED: ATOM     20  C   UNL d   1     -20.674  -7.792   3.836 -0.07 +0.01    +0.045 A 
DOCKED: ATOM     21  C   UNL d   1     -21.421  -6.782   4.295 -0.08 +0.01    +0.057 C 
DOCKED: ATOM     22  C   UNL d   1     -20.093  -9.888   3.139 -0.10 -0.00    -0.019 A 
DOCKED: ATOM     23  C   UNL d   1     -18.908  -9.011   3.049 -0.14 +0.01    +0.045 A 
DOCKED: ATOM     24  C   UNL d   1     -21.136  -9.160   3.605 -0.08 -0.00    -0.022 A 
DOCKED: ATOM     25  C   UNL d   1     -16.543  -8.596   2.462 -0.23 +0.02    +0.049 A 
DOCKED: ATOM     26  C   UNL d   1     -14.488  -7.707   2.023 -0.44 -0.01    -0.018 A 
DOCKED: ATOM     27  C   UNL d   1     -15.455  -8.672   1.604 -0.34 +0.00    +0.003 A 
DOCKED: ATOM     28  C   UNL d   1     -17.704  -9.403   2.606 -0.20 +0.02    +0.052 C 
DOCKED: ATOM     29  C   UNL d   1     -22.540  -9.595   3.855 -0.04 +0.00    +0.046 C 
DOCKED: ATOM     30  C   UNL d   1     -13.153  -7.460   1.405 -0.26 +0.03    +0.046 C 
DOCKED: ATOM     31  H   UNL d   1     -18.808  -6.932   3.478 +0.02 +0.05    +0.166 HD
DOCKED: ATOM     32  H   UNL d   1     -16.883  -7.275   4.102 +0.06 +0.07    +0.166 HD
DOCKED: ENDROOT
DOCKED: BRANCH   7  33
DOCKED: ATOM     33  C   UNL d   1     -13.546  -3.120   4.652 -0.24 +0.06    +0.141 C 
DOCKED: BRANCH  33  34
DOCKED: ATOM     34  C   UNL d   1     -14.062  -2.636   3.324 -0.14 +0.23    +0.306 C 
DOCKED: ATOM     35  O   UNL d   1     -13.716  -3.039   2.227 -0.73 -0.33    -0.251 OA
DOCKED: BRANCH  34  36
DOCKED: ATOM     36  O   UNL d   1     -14.989  -1.670   3.450 -0.03 -0.37    -0.481 OA
DOCKED: ATOM     37  H   UNL d   1     -15.109  -1.567   4.418 +0.12 +0.18    +0.295 HD
DOCKED: ENDBRANCH  34  36
DOCKED: ENDBRANCH  33  34
DOCKED: ENDBRANCH   7  33
DOCKED: BRANCH  27  38
DOCKED: ATOM     38  C   UNL d   1     -15.290  -9.587   0.515 -0.36 +0.01    +0.017 C 
DOCKED: ATOM     39  C   UNL d   1     -15.667 -10.874   0.521 -0.29 +0.03    +0.092 C 
DOCKED: BRANCH  39  40
DOCKED: ATOM     40  C   UNL d   1     -15.457 -11.702  -0.670 -0.19 +0.07    +0.330 C 
DOCKED: ATOM     41  O   UNL d   1     -14.413 -11.903  -1.261 -0.21 -0.02    -0.246 OA
DOCKED: BRANCH  40  42
DOCKED: ATOM     42  O   UNL d   1     -16.616 -12.257  -1.057 -0.04 -0.09    -0.477 OA
DOCKED: ATOM     43  H   UNL d   1     -16.865 -12.830  -0.302 +0.08 +0.05    +0.295 HD
DOCKED: ENDBRANCH  40  42
DOCKED: ENDBRANCH  39  40
DOCKED: ENDBRANCH  27  38
DOCKED: BRANCH   8  44
DOCKED: ATOM     44  C   UNL d   1     -21.099  -2.474   6.410 -0.02 +0.06    +0.141 C 
DOCKED: BRANCH  44  45
DOCKED: ATOM     45  C   UNL d   1     -21.305  -3.502   7.490 -0.03 +0.09    +0.306 C 
DOCKED: ATOM     46  O   UNL d   1     -20.436  -4.102   8.098 -0.12 -0.07    -0.251 OA
DOCKED: BRANCH  45  47
DOCKED: ATOM     47  O   UNL d   1     -22.607  -3.743   7.730 +0.01 -0.11    -0.481 OA
DOCKED: ATOM     48  H   UNL d   1     -22.989  -3.942   6.849 +0.02 +0.07    +0.295 HD
DOCKED: ENDBRANCH  45  47
DOCKED: ENDBRANCH  44  45
DOCKED: ENDBRANCH   8  44
DOCKED: BRANCH  22  49
DOCKED: ATOM     49  C   UNL d   1     -20.093 -11.345   2.780 -0.06 +0.01    +0.048 C 
DOCKED: BRANCH  49  50
DOCKED: ATOM     50  C   UNL d   1     -20.086 -11.558   1.267 -0.02 +0.02    +0.125 C 
DOCKED: BRANCH  50  51
DOCKED: ATOM     51  C   UNL d   1     -18.891 -12.364   0.843 -0.03 +0.05    +0.305 C 
DOCKED: ATOM     52  O   UNL d   1     -17.865 -12.558   1.471 -0.12 -0.05    -0.251 OA
DOCKED: BRANCH  51  53
DOCKED: ATOM     53  O   UNL d   1     -19.048 -12.889  -0.388 +0.01 -0.06    -0.481 OA
DOCKED: ATOM     54  H   UNL d   1     -18.472 -12.337  -0.958 +0.04 +0.04    +0.295 HD
DOCKED: ENDBRANCH  51  53
DOCKED: ENDBRANCH  50  51
DOCKED: ENDBRANCH  49  50
DOCKED: ENDBRANCH  22  49
DOCKED: TORSDOF 13
DOCKED: TER
DOCKED: ENDMDL
________________________________________________________________________________


	BEGINNING GENETIC ALGORITHM DOCKING 38 of 100
Run: 38 Seed: 2065591744 13191107 [ Run 38 of 100 GA/GALS ]
Beginning LAMARCKIAN GENETIC ALGORITHM (LGA), with a maximum of 25000000 energy evaluations.

Final-Value: -10.564


	FINAL GENETIC ALGORITHM DOCKED STATE
	_______________________________________________


Detailed state:  trans -9.241 -6.274 19.971 quatxyzw -0.952153 -0.188053 -0.199842 -0.134549 center 0.153 0.018 -0.028 ntor 13 -118.0244 -135.8483 4.7181 -42.7741 -120.4980 -12.6798 13.7011 -174.0480 -115.1835 4.5938 -73.0422 -31.4711 -17.4839
State:	 -9.241  -6.274  19.971  -0.961 -0.190 -0.202 -164.535   -118.02 -135.85    4.72  -42.77 -120.50  -12.68   13.70 -174.05 -115.18    4.59  -73.04  -31.47  -17.48

DOCKED: MODEL       38
DOCKED: USER    Run = 38
DOCKED: USER    DPF = D:/Protein_go_brrr/autodock/final/AncMH_nat/heme/dock.dpf
DOCKED: USER  
DOCKED: USER    Estimated Free Energy of Binding    =   -3.49 kcal/mol  [=(1)+(2)+(3)-(4)]
DOCKED: USER    Estimated Inhibition Constant, Ki   =    2.79 mM (millimolar)  [Temperature = 298.15 K]
DOCKED: USER    
DOCKED: USER    (1) Final Intermolecular Energy     =   -7.36 kcal/mol
DOCKED: USER        vdW + Hbond + desolv Energy     =   -6.81 kcal/mol
DOCKED: USER        Electrostatic Energy            =   -0.56 kcal/mol
DOCKED: USER    (2) Final Total Internal Energy     =   -3.20 kcal/mol
DOCKED: USER    (3) Torsional Free Energy           =   +3.88 kcal/mol
DOCKED: USER    (4) Unbound System's Energy  [=(2)] =   -3.20 kcal/mol
DOCKED: USER    
DOCKED: USER    
DOCKED: USER    NEWDPF move heme_opt.pdbqt
DOCKED: USER    NEWDPF about 0.153000 0.018000 -0.028000
DOCKED: USER    NEWDPF tran0 -9.241479 -6.273547 19.970621
DOCKED: USER    NEWDPF quaternion0 -0.952153 -0.188053 -0.199842 -0.134549
DOCKED: USER    NEWDPF axisangle0 -0.960891 -0.189778 -0.201676 -164.534937
DOCKED: USER    NEWDPF quat0 -0.960891 -0.189778 -0.201676 -164.534937
DOCKED: USER    NEWDPF dihe0 -118.02 -135.85 4.72 -42.77 -120.50 -12.68 13.70 -174.05 -115.18 4.59 -73.04 -31.47 -17.48 
DOCKED: USER  keepresnum = 1 
DOCKED: USER  
DOCKED: REMARK  13 active torsions:
DOCKED: REMARK  status: ('A' for Active; 'I' for Inactive)
DOCKED: REMARK    1  A    between atoms: O_3  and  C_38 
DOCKED: REMARK    2  A    between atoms: O_4  and  C_40 
DOCKED: REMARK    3  A    between atoms: O_7  and  C_46 
DOCKED: REMARK    4  A    between atoms: O_9  and  C_48 
DOCKED: REMARK    5  A    between atoms: C_15  and  C_20 
DOCKED: REMARK    6  A    between atoms: C_16  and  C_23 
DOCKED: REMARK    7  A    between atoms: C_20  and  C_38 
DOCKED: REMARK    8  A    between atoms: C_23  and  C_40 
DOCKED: REMARK    9  A    between atoms: C_32  and  C_41 
DOCKED: REMARK   10  A    between atoms: C_37  and  C_45 
DOCKED: REMARK   11  A    between atoms: C_41  and  C_44 
DOCKED: REMARK   12  A    between atoms: C_44  and  C_46 
DOCKED: REMARK   13  A    between atoms: C_47  and  C_48 
DOCKED: USER                              x       y       z     vdW  Elec       q    Type
DOCKED: USER                           _______ _______ _______ _____ _____    ______ ____
DOCKED: ROOT
DOCKED: ATOM      1  O   UNL d   1     -13.098  -9.275  16.673 +0.19 -0.18    -0.289 OA
DOCKED: ATOM      2  O   UNL d   1     -14.015  -3.278  21.098 -0.01 -0.02    -0.289 OA
DOCKED: ATOM      3  N   UNL d   1     -10.535  -7.925  18.544 -0.08 -0.04    -0.247 NA
DOCKED: ATOM      4  N   UNL d   1     -11.749  -5.468  19.693 -0.09 -0.04    -0.247 NA
DOCKED: ATOM      5  N   UNL d   1      -9.103  -4.614  20.425 -0.11 +0.02    -0.354 N 
DOCKED: ATOM      6  N   UNL d   1      -7.850  -7.157  19.213 -0.13 +0.02    -0.354 N 
DOCKED: ATOM      7  C   UNL d   1     -10.697  -9.694  16.856 -0.26 +0.03    +0.084 A 
DOCKED: ATOM      8  C   UNL d   1     -14.176  -5.448  19.977 -0.06 +0.03    +0.084 A 
DOCKED: ATOM      9  C   UNL d   1     -12.919  -6.153  19.456 -0.11 +0.02    +0.058 A 
DOCKED: ATOM     10  C   UNL d   1      -9.834  -8.873  17.818 -0.20 +0.01    +0.058 A 
DOCKED: ATOM     11  C   UNL d   1     -12.013  -9.054  17.180 -0.18 +0.07    +0.193 A 
DOCKED: ATOM     12  C   UNL d   1     -11.787  -8.016  18.235 -0.16 +0.03    +0.109 A 
DOCKED: ATOM     13  C   UNL d   1     -13.505  -4.217  20.520 -0.04 +0.03    +0.193 A 
DOCKED: ATOM     14  C   UNL d   1     -10.355  -9.408  15.391 -0.36 +0.01    +0.026 C 
DOCKED: ATOM     15  C   UNL d   1     -12.965  -7.313  18.783 -0.17 +0.02    +0.055 C 
DOCKED: ATOM     16  C   UNL d   1     -14.816  -6.213  21.139 -0.03 +0.01    +0.026 C 
DOCKED: ATOM     17  C   UNL d   1     -12.037  -4.350  20.279 -0.11 +0.01    +0.109 A 
DOCKED: ATOM     18  C   UNL d   1      -8.524  -9.136  17.987 -0.26 +0.00    +0.050 C 
DOCKED: ATOM     19  C   UNL d   1      -7.668  -8.488  18.913 -0.22 -0.00    +0.045 A 
DOCKED: ATOM     20  C   UNL d   1      -9.802  -3.465  20.688 -0.14 -0.01    +0.045 A 
DOCKED: ATOM     21  C   UNL d   1     -11.124  -3.266  20.669 -0.09 -0.01    +0.057 C 
DOCKED: ATOM     22  C   UNL d   1      -7.569  -3.040  20.921 -0.19 +0.00    -0.019 A 
DOCKED: ATOM     23  C   UNL d   1      -7.747  -4.456  20.540 -0.22 -0.00    +0.045 A 
DOCKED: ATOM     24  C   UNL d   1      -8.790  -2.459  21.008 -0.13 +0.00    -0.022 A 
DOCKED: ATOM     25  C   UNL d   1      -6.859  -6.712  20.058 -0.20 -0.01    +0.049 A 
DOCKED: ATOM     26  C   UNL d   1      -6.553  -8.928  19.609 -0.21 +0.00    -0.018 A 
DOCKED: ATOM     27  C   UNL d   1      -6.057  -7.808  20.345 -0.22 -0.00    +0.003 A 
DOCKED: ATOM     28  C   UNL d   1      -6.744  -5.333  20.384 -0.02 -0.00    +0.052 C 
DOCKED: ATOM     29  C   UNL d   1      -9.130  -1.054  21.371 -0.12 -0.01    +0.046 C 
DOCKED: ATOM     30  C   UNL d   1      -5.981 -10.306  19.595 -0.15 -0.00    +0.046 C 
DOCKED: ATOM     31  H   UNL d   1      -9.580  -5.491  20.247 +0.05 -0.00    +0.166 HD
DOCKED: ATOM     32  H   UNL d   1      -8.593  -6.590  18.822 +0.07 -0.00    +0.166 HD
DOCKED: ENDROOT
DOCKED: BRANCH   7  33
DOCKED: ATOM     33  C   UNL d   1     -10.746 -11.199  17.138 -0.21 +0.03    +0.141 C 
DOCKED: BRANCH  33  34
DOCKED: ATOM     34  C   UNL d   1      -9.424 -11.877  16.899 -0.14 +0.14    +0.306 C 
DOCKED: ATOM     35  O   UNL d   1      -8.866 -12.008  15.823 -0.70 -0.38    -0.251 OA
DOCKED: BRANCH  34  36
DOCKED: ATOM     36  O   UNL d   1      -8.873 -12.352  18.030 +0.01 -0.09    -0.481 OA
DOCKED: ATOM     37  H   UNL d   1      -9.534 -12.987  18.379 +0.07 +0.02    +0.295 HD
DOCKED: ENDBRANCH  34  36
DOCKED: ENDBRANCH  33  34
DOCKED: ENDBRANCH   7  33
DOCKED: BRANCH  27  38
DOCKED: ATOM     38  C   UNL d   1      -4.902  -7.821  21.190 -0.17 -0.00    +0.017 C 
DOCKED: ATOM     39  C   UNL d   1      -4.492  -6.800  21.958 -0.10 -0.02    +0.092 C 
DOCKED: BRANCH  39  40
DOCKED: ATOM     40  C   UNL d   1      -3.297  -6.949  22.794 -0.02 -0.07    +0.330 C 
DOCKED: ATOM     41  O   UNL d   1      -2.722  -7.978  23.092 -0.01 +0.04    -0.246 OA
DOCKED: BRANCH  40  42
DOCKED: ATOM     42  O   UNL d   1      -2.876  -5.746  23.214 +0.01 +0.10    -0.477 OA
DOCKED: ATOM     43  H   UNL d   1      -3.698  -5.291  23.488 +0.03 -0.05    +0.295 HD
DOCKED: ENDBRANCH  40  42
DOCKED: ENDBRANCH  39  40
DOCKED: ENDBRANCH  27  38
DOCKED: BRANCH   8  44
DOCKED: ATOM     44  C   UNL d   1     -15.216  -5.082  18.913 -0.10 +0.11    +0.141 C 
DOCKED: BRANCH  44  45
DOCKED: ATOM     45  C   UNL d   1     -14.614  -4.459  17.682 -0.15 +0.21    +0.306 C 
DOCKED: ATOM     46  O   UNL d   1     -13.604  -3.778  17.632 -0.21 -0.08    -0.251 OA
DOCKED: BRANCH  45  47
DOCKED: ATOM     47  O   UNL d   1     -15.337  -4.705  16.575 -0.48 -0.66    -0.481 OA
DOCKED: ATOM     48  H   UNL d   1     -14.815  -4.308  15.845 -0.45 +0.15    +0.295 HD
DOCKED: ENDBRANCH  45  47
DOCKED: ENDBRANCH  44  45
DOCKED: ENDBRANCH   8  44
DOCKED: BRANCH  22  49
DOCKED: ATOM     49  C   UNL d   1      -6.236  -2.390  21.148 -0.15 -0.01    +0.048 C 
DOCKED: BRANCH  49  50
DOCKED: ATOM     50  C   UNL d   1      -5.910  -2.265  22.636 -0.05 -0.02    +0.125 C 
DOCKED: BRANCH  50  51
DOCKED: ATOM     51  C   UNL d   1      -4.832  -3.233  23.032 -0.02 -0.05    +0.305 C 
DOCKED: ATOM     52  O   UNL d   1      -4.340  -3.386  24.136 -0.00 +0.04    -0.251 OA
DOCKED: BRANCH  51  53
DOCKED: ATOM     53  O   UNL d   1      -4.408  -3.971  21.987 -0.03 +0.12    -0.481 OA
DOCKED: ATOM     54  H   UNL d   1      -3.433  -3.981  22.082 +0.05 -0.09    +0.295 HD
DOCKED: ENDBRANCH  51  53
DOCKED: ENDBRANCH  50  51
DOCKED: ENDBRANCH  49  50
DOCKED: ENDBRANCH  22  49
DOCKED: TORSDOF 13
DOCKED: TER
DOCKED: ENDMDL
________________________________________________________________________________


	BEGINNING GENETIC ALGORITHM DOCKING 39 of 100
Run: 39 Seed: 1573241379 181896331 [ Run 39 of 100 GA/GALS ]
Beginning LAMARCKIAN GENETIC ALGORITHM (LGA), with a maximum of 25000000 energy evaluations.

Final-Value: -11.354


	FINAL GENETIC ALGORITHM DOCKED STATE
	_______________________________________________


Detailed state:  trans -8.765 13.954 16.052 quatxyzw 0.985243 -0.154695 0.062490 -0.038211 center 0.153 0.018 -0.028 ntor 13 -132.2164 79.3955 178.3725 68.3938 35.8994 -38.3401 117.1830 21.0677 155.6241 85.3314 -61.5965 -100.9518 144.9494
State:	 -8.765  13.954  16.052   0.986 -0.155  0.063 -175.620   -132.22   79.40  178.37   68.39   35.90  -38.34  117.18   21.07  155.62   85.33  -61.60 -100.95  144.95

DOCKED: MODEL       39
DOCKED: USER    Run = 39
DOCKED: USER    DPF = D:/Protein_go_brrr/autodock/final/AncMH_nat/heme/dock.dpf
DOCKED: USER  
DOCKED: USER    Estimated Free Energy of Binding    =   -6.10 kcal/mol  [=(1)+(2)+(3)-(4)]
DOCKED: USER    Estimated Inhibition Constant, Ki   =   33.86 uM (micromolar)  [Temperature = 298.15 K]
DOCKED: USER    
DOCKED: USER    (1) Final Intermolecular Energy     =   -9.98 kcal/mol
DOCKED: USER        vdW + Hbond + desolv Energy     =   -8.80 kcal/mol
DOCKED: USER        Electrostatic Energy            =   -1.17 kcal/mol
DOCKED: USER    (2) Final Total Internal Energy     =   -1.38 kcal/mol
DOCKED: USER    (3) Torsional Free Energy           =   +3.88 kcal/mol
DOCKED: USER    (4) Unbound System's Energy  [=(2)] =   -1.38 kcal/mol
DOCKED: USER    
DOCKED: USER    
DOCKED: USER    NEWDPF move heme_opt.pdbqt
DOCKED: USER    NEWDPF about 0.153000 0.018000 -0.028000
DOCKED: USER    NEWDPF tran0 -8.765333 13.953708 16.052246
DOCKED: USER    NEWDPF quaternion0 0.985243 -0.154695 0.062490 -0.038211
DOCKED: USER    NEWDPF axisangle0 0.985963 -0.154808 0.062536 -175.620247
DOCKED: USER    NEWDPF quat0 0.985963 -0.154808 0.062536 -175.620247
DOCKED: USER    NEWDPF dihe0 -132.22 79.40 178.37 68.39 35.90 -38.34 117.18 21.07 155.62 85.33 -61.60 -100.95 144.95 
DOCKED: USER  keepresnum = 1 
DOCKED: USER  
DOCKED: REMARK  13 active torsions:
DOCKED: REMARK  status: ('A' for Active; 'I' for Inactive)
DOCKED: REMARK    1  A    between atoms: O_3  and  C_38 
DOCKED: REMARK    2  A    between atoms: O_4  and  C_40 
DOCKED: REMARK    3  A    between atoms: O_7  and  C_46 
DOCKED: REMARK    4  A    between atoms: O_9  and  C_48 
DOCKED: REMARK    5  A    between atoms: C_15  and  C_20 
DOCKED: REMARK    6  A    between atoms: C_16  and  C_23 
DOCKED: REMARK    7  A    between atoms: C_20  and  C_38 
DOCKED: REMARK    8  A    between atoms: C_23  and  C_40 
DOCKED: REMARK    9  A    between atoms: C_32  and  C_41 
DOCKED: REMARK   10  A    between atoms: C_37  and  C_45 
DOCKED: REMARK   11  A    between atoms: C_41  and  C_44 
DOCKED: REMARK   12  A    between atoms: C_44  and  C_46 
DOCKED: REMARK   13  A    between atoms: C_47  and  C_48 
DOCKED: USER                              x       y       z     vdW  Elec       q    Type
DOCKED: USER                           _______ _______ _______ _____ _____    ______ ____
DOCKED: ROOT
DOCKED: ATOM      1  O   UNL d   1     -14.515  13.973  14.748 -0.02 +0.06    -0.289 OA
DOCKED: ATOM      2  O   UNL d   1      -9.950  19.500  16.985 -0.06 +0.17    -0.289 OA
DOCKED: ATOM      3  N   UNL d   1     -11.198  13.452  15.536 -0.08 +0.11    -0.247 NA
DOCKED: ATOM      4  N   UNL d   1     -10.166  16.200  15.998 -0.05 +0.21    -0.247 NA
DOCKED: ATOM      5  N   UNL d   1      -7.504  15.120  15.887 -0.08 +0.14    -0.354 N 
DOCKED: ATOM      6  N   UNL d   1      -8.582  12.276  15.388 -0.12 +0.10    -0.354 N 
DOCKED: ATOM      7  C   UNL d   1     -12.992  12.066  14.605 -0.16 -0.01    +0.084 A 
DOCKED: ATOM      8  C   UNL d   1     -11.777  17.894  16.711 -0.08 -0.06    +0.084 A 
DOCKED: ATOM      9  C   UNL d   1     -11.497  16.466  16.231 -0.15 -0.04    +0.058 A 
DOCKED: ATOM     10  C   UNL d   1     -11.533  12.199  15.054 -0.23 -0.01    +0.058 A 
DOCKED: ATOM     11  C   UNL d   1     -13.426  13.462  14.937 -0.07 -0.05    +0.193 A 
DOCKED: ATOM     12  C   UNL d   1     -12.256  14.195  15.518 -0.13 -0.04    +0.109 A 
DOCKED: ATOM     13  C   UNL d   1     -10.362  18.401  16.671 -0.06 -0.16    +0.193 A 
DOCKED: ATOM     14  C   UNL d   1     -13.111  11.857  13.093 -0.42 -0.01    +0.026 C 
DOCKED: ATOM     15  C   UNL d   1     -12.472  15.571  16.009 -0.13 -0.03    +0.055 C 
DOCKED: ATOM     16  C   UNL d   1     -12.268  17.920  18.162 -0.03 -0.01    +0.026 C 
DOCKED: ATOM     17  C   UNL d   1      -9.486  17.280  16.216 -0.15 -0.09    +0.109 A 
DOCKED: ATOM     18  C   UNL d   1     -10.698  11.142  15.051 -0.09 -0.01    +0.050 C 
DOCKED: ATOM     19  C   UNL d   1      -9.362  11.150  15.526 -0.17 -0.01    +0.045 A 
DOCKED: ATOM     20  C   UNL d   1      -7.215  16.460  15.874 -0.21 -0.01    +0.045 A 
DOCKED: ATOM     21  C   UNL d   1      -8.042  17.497  16.039 -0.20 -0.03    +0.057 C 
DOCKED: ATOM     22  C   UNL d   1      -5.287  15.286  15.525 -0.17 +0.00    -0.019 A 
DOCKED: ATOM     23  C   UNL d   1      -6.403  14.332  15.684 -0.21 -0.01    +0.045 A 
DOCKED: ATOM     24  C   UNL d   1      -5.774  16.544  15.640 -0.18 +0.00    -0.022 A 
DOCKED: ATOM     25  C   UNL d   1      -7.302  12.034  15.830 -0.25 -0.01    +0.049 A 
DOCKED: ATOM     26  C   UNL d   1      -8.580  10.163  16.105 -0.26 +0.00    -0.018 A 
DOCKED: ATOM     27  C   UNL d   1      -7.286  10.733  16.314 -0.24 -0.00    +0.003 A 
DOCKED: ATOM     28  C   UNL d   1      -6.273  12.997  15.646 -0.25 -0.01    +0.052 C 
DOCKED: ATOM     29  C   UNL d   1      -5.039  17.839  15.565 -0.15 +0.01    +0.046 C 
DOCKED: ATOM     30  C   UNL d   1      -9.006   8.775  16.448 -0.31 -0.01    +0.046 C 
DOCKED: ATOM     31  H   UNL d   1      -8.435  14.785  16.108 -0.27 -0.09    +0.166 HD
DOCKED: ATOM     32  H   UNL d   1      -8.914  13.140  14.977 -0.50 -0.10    +0.166 HD
DOCKED: ENDROOT
DOCKED: BRANCH   7  33
DOCKED: ATOM     33  C   UNL d   1     -13.828  11.044  15.382 -0.10 +0.00    +0.141 C 
DOCKED: BRANCH  33  34
DOCKED: ATOM     34  C   UNL d   1     -15.013  10.549  14.597 -0.13 +0.06    +0.306 C 
DOCKED: ATOM     35  O   UNL d   1     -15.032   9.582  13.855 -0.26 -0.06    -0.251 OA
DOCKED: BRANCH  34  36
DOCKED: ATOM     36  O   UNL d   1     -16.113  11.297  14.793 -0.02 -0.12    -0.481 OA
DOCKED: ATOM     37  H   UNL d   1     -15.796  12.223  14.730 +0.07 +0.02    +0.295 HD
DOCKED: ENDBRANCH  34  36
DOCKED: ENDBRANCH  33  34
DOCKED: ENDBRANCH   7  33
DOCKED: BRANCH  27  38
DOCKED: ATOM     38  C   UNL d   1      -6.163  10.047  16.879 -0.23 -0.01    +0.017 C 
DOCKED: ATOM     39  C   UNL d   1      -5.018   9.775  16.236 -0.15 -0.04    +0.092 C 
DOCKED: BRANCH  39  40
DOCKED: ATOM     40  C   UNL d   1      -3.935   9.079  16.937 -0.18 -0.23    +0.330 C 
DOCKED: ATOM     41  O   UNL d   1      -3.563   9.247  18.083 -0.09 +0.13    -0.246 OA
DOCKED: BRANCH  40  42
DOCKED: ATOM     42  O   UNL d   1      -3.367   8.173  16.126 -0.25 +0.49    -0.477 OA
DOCKED: ATOM     43  H   UNL d   1      -3.763   7.323  16.411 -0.39 -0.73    +0.295 HD
DOCKED: ENDBRANCH  40  42
DOCKED: ENDBRANCH  39  40
DOCKED: ENDBRANCH  27  38
DOCKED: BRANCH   8  44
DOCKED: ATOM     44  C   UNL d   1     -12.685  18.730  15.803 -0.01 -0.14    +0.141 C 
DOCKED: BRANCH  44  45
DOCKED: ATOM     45  C   UNL d   1     -13.774  17.923  15.148 -0.05 -0.22    +0.306 C 
DOCKED: ATOM     46  O   UNL d   1     -14.770  17.473  15.688 -0.02 +0.09    -0.251 OA
DOCKED: BRANCH  45  47
DOCKED: ATOM     47  O   UNL d   1     -13.536  17.702  13.843 -0.07 +0.54    -0.481 OA
DOCKED: ATOM     48  H   UNL d   1     -12.700  18.180  13.658 -0.34 -0.67    +0.295 HD
DOCKED: ENDBRANCH  45  47
DOCKED: ENDBRANCH  44  45
DOCKED: ENDBRANCH   8  44
DOCKED: BRANCH  22  49
DOCKED: ATOM     49  C   UNL d   1      -3.865  14.884  15.263 -0.12 -0.00    +0.048 C 
DOCKED: BRANCH  49  50
DOCKED: ATOM     50  C   UNL d   1      -3.722  14.123  13.945 -0.23 -0.01    +0.125 C 
DOCKED: BRANCH  50  51
DOCKED: ATOM     51  C   UNL d   1      -2.807  14.852  13.002 -0.17 +0.02    +0.305 C 
DOCKED: ATOM     52  O   UNL d   1      -2.038  15.759  13.266 -0.11 -0.08    -0.251 OA
DOCKED: BRANCH  51  53
DOCKED: ATOM     53  O   UNL d   1      -2.920  14.397  11.738 -0.10 +0.07    -0.481 OA
DOCKED: ATOM     54  H   UNL d   1      -2.061  13.959  11.565 -0.34 -0.28    +0.295 HD
DOCKED: ENDBRANCH  51  53
DOCKED: ENDBRANCH  50  51
DOCKED: ENDBRANCH  49  50
DOCKED: ENDBRANCH  22  49
DOCKED: TORSDOF 13
DOCKED: TER
DOCKED: ENDMDL
________________________________________________________________________________


	BEGINNING GENETIC ALGORITHM DOCKING 40 of 100
Run: 40 Seed: 869453883 1015827878 [ Run 40 of 100 GA/GALS ]
Beginning LAMARCKIAN GENETIC ALGORITHM (LGA), with a maximum of 25000000 energy evaluations.

Final-Value: -12.071


	FINAL GENETIC ALGORITHM DOCKED STATE
	_______________________________________________


Detailed state:  trans 9.829 -12.035 -4.739 quatxyzw 0.685393 -0.323107 0.427987 -0.492611 center 0.153 0.018 -0.028 ntor 13 -75.3259 141.7824 149.7472 68.9098 -136.7936 76.6569 -56.0316 154.1337 160.3117 -160.2355 -68.0480 -91.8299 -3.3404
State:	  9.829 -12.035  -4.739   0.788 -0.371  0.492 -120.975    -75.33  141.78  149.75   68.91 -136.79   76.66  -56.03  154.13  160.31 -160.24  -68.05  -91.83   -3.34

DOCKED: MODEL       40
DOCKED: USER    Run = 40
DOCKED: USER    DPF = D:/Protein_go_brrr/autodock/final/AncMH_nat/heme/dock.dpf
DOCKED: USER  
DOCKED: USER    Estimated Free Energy of Binding    =   -4.88 kcal/mol  [=(1)+(2)+(3)-(4)]
DOCKED: USER    Estimated Inhibition Constant, Ki   =  264.47 uM (micromolar)  [Temperature = 298.15 K]
DOCKED: USER    
DOCKED: USER    (1) Final Intermolecular Energy     =   -8.76 kcal/mol
DOCKED: USER        vdW + Hbond + desolv Energy     =   -8.36 kcal/mol
DOCKED: USER        Electrostatic Energy            =   -0.40 kcal/mol
DOCKED: USER    (2) Final Total Internal Energy     =   -3.31 kcal/mol
DOCKED: USER    (3) Torsional Free Energy           =   +3.88 kcal/mol
DOCKED: USER    (4) Unbound System's Energy  [=(2)] =   -3.31 kcal/mol
DOCKED: USER    
DOCKED: USER    
DOCKED: USER    NEWDPF move heme_opt.pdbqt
DOCKED: USER    NEWDPF about 0.153000 0.018000 -0.028000
DOCKED: USER    NEWDPF tran0 9.829493 -12.035170 -4.739196
DOCKED: USER    NEWDPF quaternion0 0.685393 -0.323107 0.427987 -0.492611
DOCKED: USER    NEWDPF axisangle0 0.787582 -0.371280 0.491798 -120.975368
DOCKED: USER    NEWDPF quat0 0.787582 -0.371280 0.491798 -120.975368
DOCKED: USER    NEWDPF dihe0 -75.33 141.78 149.75 68.91 -136.79 76.66 -56.03 154.13 160.31 -160.24 -68.05 -91.83 -3.34 
DOCKED: USER  keepresnum = 1 
DOCKED: USER  
DOCKED: REMARK  13 active torsions:
DOCKED: REMARK  status: ('A' for Active; 'I' for Inactive)
DOCKED: REMARK    1  A    between atoms: O_3  and  C_38 
DOCKED: REMARK    2  A    between atoms: O_4  and  C_40 
DOCKED: REMARK    3  A    between atoms: O_7  and  C_46 
DOCKED: REMARK    4  A    between atoms: O_9  and  C_48 
DOCKED: REMARK    5  A    between atoms: C_15  and  C_20 
DOCKED: REMARK    6  A    between atoms: C_16  and  C_23 
DOCKED: REMARK    7  A    between atoms: C_20  and  C_38 
DOCKED: REMARK    8  A    between atoms: C_23  and  C_40 
DOCKED: REMARK    9  A    between atoms: C_32  and  C_41 
DOCKED: REMARK   10  A    between atoms: C_37  and  C_45 
DOCKED: REMARK   11  A    between atoms: C_41  and  C_44 
DOCKED: REMARK   12  A    between atoms: C_44  and  C_46 
DOCKED: REMARK   13  A    between atoms: C_47  and  C_48 
DOCKED: USER                              x       y       z     vdW  Elec       q    Type
DOCKED: USER                           _______ _______ _______ _____ _____    ______ ____
DOCKED: ROOT
DOCKED: ATOM      1  O   UNL d   1       6.159 -13.049  -9.240 -0.03 +0.03    -0.289 OA
DOCKED: ATOM      2  O   UNL d   1      12.467  -8.994  -8.842 +0.05 +0.37    -0.289 OA
DOCKED: ATOM      3  N   UNL d   1       7.928 -12.628  -6.309 -0.09 +0.04    -0.247 NA
DOCKED: ATOM      4  N   UNL d   1      10.365 -11.172  -7.185 -0.12 +0.10    -0.247 NA
DOCKED: ATOM      5  N   UNL d   1      11.532 -11.776  -4.628 -0.06 +0.15    -0.354 N 
DOCKED: ATOM      6  N   UNL d   1       9.007 -13.302  -3.734 -0.12 +0.05    -0.354 N 
DOCKED: ATOM      7  C   UNL d   1       5.987 -13.967  -6.981 -0.06 -0.01    +0.084 A 
DOCKED: ATOM      8  C   UNL d   1      10.188  -9.809  -9.205 -0.21 -0.04    +0.084 A 
DOCKED: ATOM      9  C   UNL d   1       9.553 -10.813  -8.237 -0.19 -0.02    +0.058 A 
DOCKED: ATOM     10  C   UNL d   1       6.980 -13.548  -5.892 -0.11 -0.00    +0.058 A 
DOCKED: ATOM     11  C   UNL d   1       6.531 -13.107  -8.082 -0.03 -0.02    +0.193 A 
DOCKED: ATOM     12  C   UNL d   1       7.688 -12.325  -7.543 -0.09 -0.02    +0.109 A 
DOCKED: ATOM     13  C   UNL d   1      11.524  -9.695  -8.528 -0.19 -0.13    +0.193 A 
DOCKED: ATOM     14  C   UNL d   1       6.152 -15.437  -7.373 -0.02 -0.00    +0.026 C 
DOCKED: ATOM     15  C   UNL d   1       8.331 -11.333  -8.429 -0.17 -0.01    +0.055 C 
DOCKED: ATOM     16  C   UNL d   1       9.489  -8.447  -9.150 -0.32 -0.01    +0.026 C 
DOCKED: ATOM     17  C   UNL d   1      11.505 -10.575  -7.321 -0.23 -0.05    +0.109 A 
DOCKED: ATOM     18  C   UNL d   1       6.858 -13.984  -4.624 -0.16 +0.00    +0.050 C 
DOCKED: ATOM     19  C   UNL d   1       7.675 -13.587  -3.536 -0.20 +0.00    +0.045 A 
DOCKED: ATOM     20  C   UNL d   1      12.632 -11.279  -5.277 -0.26 -0.01    +0.045 A 
DOCKED: ATOM     21  C   UNL d   1      12.704 -10.699  -6.480 -0.29 -0.02    +0.057 C 
DOCKED: ATOM     22  C   UNL d   1      13.285 -12.115  -3.254 -0.19 +0.01    -0.019 A 
DOCKED: ATOM     23  C   UNL d   1      11.828 -12.303  -3.398 -0.21 -0.02    +0.045 A 
DOCKED: ATOM     24  C   UNL d   1      13.755 -11.507  -4.369 -0.21 +0.00    -0.022 A 
DOCKED: ATOM     25  C   UNL d   1       9.627 -13.028  -2.537 -0.22 -0.01    +0.049 A 
DOCKED: ATOM     26  C   UNL d   1       7.414 -13.458  -2.180 -0.21 -0.00    -0.018 A 
DOCKED: ATOM     27  C   UNL d   1       8.645 -13.087  -1.557 -0.27 -0.00    +0.003 A 
DOCKED: ATOM     28  C   UNL d   1      11.036 -12.858  -2.468 -0.07 -0.02    +0.052 C 
DOCKED: ATOM     29  C   UNL d   1      15.153 -11.098  -4.689 -0.18 -0.00    +0.046 C 
DOCKED: ATOM     30  C   UNL d   1       6.102 -13.666  -1.503 -0.15 +0.02    +0.046 C 
DOCKED: ATOM     31  H   UNL d   1      10.601 -11.673  -5.015 -0.34 -0.11    +0.166 HD
DOCKED: ATOM     32  H   UNL d   1       9.458 -13.336  -4.641 +0.02 -0.03    +0.166 HD
DOCKED: ENDROOT
DOCKED: BRANCH   7  33
DOCKED: ATOM     33  C   UNL d   1       4.521 -13.620  -6.702 -0.20 -0.05    +0.141 C 
DOCKED: BRANCH  33  34
DOCKED: ATOM     34  C   UNL d   1       3.564 -14.568  -7.373 -0.11 -0.21    +0.306 C 
DOCKED: ATOM     35  O   UNL d   1       3.189 -14.512  -8.532 -0.14 +0.12    -0.251 OA
DOCKED: BRANCH  34  36
DOCKED: ATOM     36  O   UNL d   1       3.131 -15.538  -6.548 -0.03 +0.55    -0.481 OA
DOCKED: ATOM     37  H   UNL d   1       2.229 -15.255  -6.287 -0.44 -0.79    +0.295 HD
DOCKED: ENDBRANCH  34  36
DOCKED: ENDBRANCH  33  34
DOCKED: ENDBRANCH   7  33
DOCKED: BRANCH  27  38
DOCKED: ATOM     38  C   UNL d   1       8.827 -12.865  -0.154 -0.31 -0.00    +0.017 C 
DOCKED: ATOM     39  C   UNL d   1       9.735 -13.483   0.616 -0.19 -0.02    +0.092 C 
DOCKED: BRANCH  39  40
DOCKED: ATOM     40  C   UNL d   1       9.830 -13.152   2.040 -0.12 -0.13    +0.330 C 
DOCKED: ATOM     41  O   UNL d   1       9.071 -13.481   2.932 -0.12 +0.11    -0.246 OA
DOCKED: BRANCH  40  42
DOCKED: ATOM     42  O   UNL d   1      10.922 -12.407   2.270 -0.11 +0.19    -0.477 OA
DOCKED: ATOM     43  H   UNL d   1      11.599 -12.793   1.676 +0.07 -0.09    +0.295 HD
DOCKED: ENDBRANCH  40  42
DOCKED: ENDBRANCH  39  40
DOCKED: ENDBRANCH  27  38
DOCKED: BRANCH   8  44
DOCKED: ATOM     44  C   UNL d   1      10.344 -10.295 -10.650 -0.10 -0.05    +0.141 C 
DOCKED: BRANCH  44  45
DOCKED: ATOM     45  C   UNL d   1      10.273  -9.182 -11.662 -0.11 -0.11    +0.306 C 
DOCKED: ATOM     46  O   UNL d   1       9.307  -8.878 -12.341 -0.11 +0.04    -0.251 OA
DOCKED: BRANCH  45  47
DOCKED: ATOM     47  O   UNL d   1      11.439  -8.523 -11.785 -0.07 +0.35    -0.481 OA
DOCKED: ATOM     48  H   UNL d   1      11.849  -8.575 -10.896 -0.44 -0.47    +0.295 HD
DOCKED: ENDBRANCH  45  47
DOCKED: ENDBRANCH  44  45
DOCKED: ENDBRANCH   8  44
DOCKED: BRANCH  22  49
DOCKED: ATOM     49  C   UNL d   1      14.077 -12.556  -2.058 -0.12 -0.01    +0.048 C 
DOCKED: BRANCH  49  50
DOCKED: ATOM     50  C   UNL d   1      14.089 -11.493  -0.960 -0.17 -0.03    +0.125 C 
DOCKED: BRANCH  50  51
DOCKED: ATOM     51  C   UNL d   1      13.334 -11.963   0.250 -0.09 -0.09    +0.305 C 
DOCKED: ATOM     52  O   UNL d   1      13.556 -11.690   1.417 -0.14 +0.06    -0.251 OA
DOCKED: BRANCH  51  53
DOCKED: ATOM     53  O   UNL d   1      12.317 -12.785  -0.078 -0.06 +0.17    -0.481 OA
DOCKED: ATOM     54  H   UNL d   1      11.513 -12.265   0.135 -0.30 -0.15    +0.295 HD
DOCKED: ENDBRANCH  51  53
DOCKED: ENDBRANCH  50  51
DOCKED: ENDBRANCH  49  50
DOCKED: ENDBRANCH  22  49
DOCKED: TORSDOF 13
DOCKED: TER
DOCKED: ENDMDL
________________________________________________________________________________


	BEGINNING GENETIC ALGORITHM DOCKING 41 of 100
Run: 41 Seed: 421859583 1587005955 [ Run 41 of 100 GA/GALS ]
Beginning LAMARCKIAN GENETIC ALGORITHM (LGA), with a maximum of 25000000 energy evaluations.

Final-Value: -12.195


	FINAL GENETIC ALGORITHM DOCKED STATE
	_______________________________________________


Detailed state:  trans -8.585 13.931 16.157 quatxyzw 0.990098 -0.119957 0.038658 -0.061829 center 0.153 0.018 -0.028 ntor 13 -150.3213 103.4482 -180.0000 -6.6348 43.9154 -35.3585 -57.1907 41.1810 160.2299 -117.6169 -134.5654 -119.9921 124.1858
State:	 -8.585  13.931  16.157   0.992 -0.120  0.039 -172.910   -150.32  103.45 -180.00   -6.63   43.92  -35.36  -57.19   41.18  160.23 -117.62 -134.57 -119.99  124.19

DOCKED: MODEL       41
DOCKED: USER    Run = 41
DOCKED: USER    DPF = D:/Protein_go_brrr/autodock/final/AncMH_nat/heme/dock.dpf
DOCKED: USER  
DOCKED: USER    Estimated Free Energy of Binding    =   -6.35 kcal/mol  [=(1)+(2)+(3)-(4)]
DOCKED: USER    Estimated Inhibition Constant, Ki   =   22.08 uM (micromolar)  [Temperature = 298.15 K]
DOCKED: USER    
DOCKED: USER    (1) Final Intermolecular Energy     =  -10.23 kcal/mol
DOCKED: USER        vdW + Hbond + desolv Energy     =   -9.27 kcal/mol
DOCKED: USER        Electrostatic Energy            =   -0.96 kcal/mol
DOCKED: USER    (2) Final Total Internal Energy     =   -1.96 kcal/mol
DOCKED: USER    (3) Torsional Free Energy           =   +3.88 kcal/mol
DOCKED: USER    (4) Unbound System's Energy  [=(2)] =   -1.96 kcal/mol
DOCKED: USER    
DOCKED: USER    
DOCKED: USER    NEWDPF move heme_opt.pdbqt
DOCKED: USER    NEWDPF about 0.153000 0.018000 -0.028000
DOCKED: USER    NEWDPF tran0 -8.584635 13.931224 16.156797
DOCKED: USER    NEWDPF quaternion0 0.990098 -0.119957 0.038658 -0.061829
DOCKED: USER    NEWDPF axisangle0 0.991995 -0.120187 0.038732 -172.910355
DOCKED: USER    NEWDPF quat0 0.991995 -0.120187 0.038732 -172.910355
DOCKED: USER    NEWDPF dihe0 -150.32 103.45 -180.00 -6.63 43.92 -35.36 -57.19 41.18 160.23 -117.62 -134.57 -119.99 124.19 
DOCKED: USER  keepresnum = 1 
DOCKED: USER  
DOCKED: REMARK  13 active torsions:
DOCKED: REMARK  status: ('A' for Active; 'I' for Inactive)
DOCKED: REMARK    1  A    between atoms: O_3  and  C_38 
DOCKED: REMARK    2  A    between atoms: O_4  and  C_40 
DOCKED: REMARK    3  A    between atoms: O_7  and  C_46 
DOCKED: REMARK    4  A    between atoms: O_9  and  C_48 
DOCKED: REMARK    5  A    between atoms: C_15  and  C_20 
DOCKED: REMARK    6  A    between atoms: C_16  and  C_23 
DOCKED: REMARK    7  A    between atoms: C_20  and  C_38 
DOCKED: REMARK    8  A    between atoms: C_23  and  C_40 
DOCKED: REMARK    9  A    between atoms: C_32  and  C_41 
DOCKED: REMARK   10  A    between atoms: C_37  and  C_45 
DOCKED: REMARK   11  A    between atoms: C_41  and  C_44 
DOCKED: REMARK   12  A    between atoms: C_44  and  C_46 
DOCKED: REMARK   13  A    between atoms: C_47  and  C_48 
DOCKED: USER                              x       y       z     vdW  Elec       q    Type
DOCKED: USER                           _______ _______ _______ _____ _____    ______ ____
DOCKED: ROOT
DOCKED: ATOM      1  O   UNL d   1     -14.387  13.524  15.194 -0.02 +0.04    -0.289 OA
DOCKED: ATOM      2  O   UNL d   1     -10.080  19.427  16.928 -0.07 +0.18    -0.289 OA
DOCKED: ATOM      3  N   UNL d   1     -11.003  13.253  15.806 -0.12 +0.09    -0.247 NA
DOCKED: ATOM      4  N   UNL d   1     -10.132  16.079  16.093 -0.05 +0.20    -0.247 NA
DOCKED: ATOM      5  N   UNL d   1      -7.415  15.167  15.869 -0.09 +0.14    -0.354 N 
DOCKED: ATOM      6  N   UNL d   1      -8.328  12.240  15.553 -0.13 +0.09    -0.354 N 
DOCKED: ATOM      7  C   UNL d   1     -12.751  11.715  15.040 -0.15 -0.01    +0.084 A 
DOCKED: ATOM      8  C   UNL d   1     -11.809  17.697  16.829 -0.08 -0.05    +0.084 A 
DOCKED: ATOM      9  C   UNL d   1     -11.462  16.269  16.393 -0.14 -0.04    +0.058 A 
DOCKED: ATOM     10  C   UNL d   1     -11.282  11.960  15.396 -0.22 -0.01    +0.058 A 
DOCKED: ATOM     11  C   UNL d   1     -13.257  13.093  15.339 -0.06 -0.04    +0.193 A 
DOCKED: ATOM     12  C   UNL d   1     -12.108  13.925  15.820 -0.11 -0.04    +0.109 A 
DOCKED: ATOM     13  C   UNL d   1     -10.436  18.290  16.685 -0.07 -0.16    +0.193 A 
DOCKED: ATOM     14  C   UNL d   1     -12.941  11.430  13.548 -0.38 -0.00    +0.026 C 
DOCKED: ATOM     15  C   UNL d   1     -12.387  15.305  16.265 -0.12 -0.02    +0.055 C 
DOCKED: ATOM     16  C   UNL d   1     -12.219  17.756  18.304 -0.02 -0.01    +0.026 C 
DOCKED: ATOM     17  C   UNL d   1      -9.514  17.208  16.226 -0.15 -0.09    +0.109 A 
DOCKED: ATOM     18  C   UNL d   1     -10.380  10.960  15.388 -0.20 -0.01    +0.050 C 
DOCKED: ATOM     19  C   UNL d   1      -9.022  11.074  15.782 -0.25 -0.01    +0.045 A 
DOCKED: ATOM     20  C   UNL d   1      -7.216  16.521  15.784 -0.22 -0.01    +0.045 A 
DOCKED: ATOM     21  C   UNL d   1      -8.100  17.509  15.955 -0.19 -0.03    +0.057 C 
DOCKED: ATOM     22  C   UNL d   1      -5.237  15.458  15.371 -0.18 +0.00    -0.019 A 
DOCKED: ATOM     23  C   UNL d   1      -6.277  14.442  15.634 -0.21 -0.01    +0.045 A 
DOCKED: ATOM     24  C   UNL d   1      -5.799  16.686  15.462 -0.19 +0.00    -0.022 A 
DOCKED: ATOM     25  C   UNL d   1      -7.012  12.101  15.929 -0.23 -0.01    +0.049 A 
DOCKED: ATOM     26  C   UNL d   1      -8.145  10.166  16.355 -0.24 +0.00    -0.018 A 
DOCKED: ATOM     27  C   UNL d   1      -6.882  10.826  16.463 -0.22 -0.00    +0.003 A 
DOCKED: ATOM     28  C   UNL d   1      -6.061  13.118  15.644 -0.23 -0.01    +0.052 C 
DOCKED: ATOM     29  C   UNL d   1      -5.158  18.021  15.291 -0.14 +0.01    +0.046 C 
DOCKED: ATOM     30  C   UNL d   1      -8.459   8.771  16.779 -0.30 -0.02    +0.046 C 
DOCKED: ATOM     31  H   UNL d   1      -8.308  14.783  16.159 -0.20 -0.09    +0.166 HD
DOCKED: ATOM     32  H   UNL d   1      -8.739  13.062  15.127 -0.41 -0.08    +0.166 HD
DOCKED: ENDROOT
DOCKED: BRANCH   7  33
DOCKED: ATOM     33  C   UNL d   1     -13.473  10.677  15.906 -0.09 +0.00    +0.141 C 
DOCKED: BRANCH  33  34
DOCKED: ATOM     34  C   UNL d   1     -14.596   9.993  15.175 -0.12 +0.06    +0.306 C 
DOCKED: ATOM     35  O   UNL d   1     -14.543   8.903  14.631 -0.22 -0.08    -0.251 OA
DOCKED: BRANCH  34  36
DOCKED: ATOM     36  O   UNL d   1     -15.729  10.717  15.171 -0.04 -0.15    -0.481 OA
DOCKED: ATOM     37  H   UNL d   1     -15.427  11.648  15.245 +0.07 +0.03    +0.295 HD
DOCKED: ENDBRANCH  34  36
DOCKED: ENDBRANCH  33  34
DOCKED: ENDBRANCH   7  33
DOCKED: BRANCH  27  38
DOCKED: ATOM     38  C   UNL d   1      -5.687  10.240  16.990 -0.22 -0.01    +0.017 C 
DOCKED: ATOM     39  C   UNL d   1      -4.710   9.683  16.258 -0.22 -0.05    +0.092 C 
DOCKED: BRANCH  39  40
DOCKED: ATOM     40  C   UNL d   1      -3.525   9.131  16.920 -0.17 -0.20    +0.330 C 
DOCKED: ATOM     41  O   UNL d   1      -2.946   9.571  17.895 -0.06 +0.10    -0.246 OA
DOCKED: BRANCH  40  42
DOCKED: ATOM     42  O   UNL d   1      -3.129   8.009  16.299 -0.24 +0.48    -0.477 OA
DOCKED: ATOM     43  H   UNL d   1      -3.769   7.334  16.604 -0.43 -0.72    +0.295 HD
DOCKED: ENDBRANCH  40  42
DOCKED: ENDBRANCH  39  40
DOCKED: ENDBRANCH  27  38
DOCKED: BRANCH   8  44
DOCKED: ATOM     44  C   UNL d   1     -12.820  18.431  15.942 -0.05 -0.12    +0.141 C 
DOCKED: BRANCH  44  45
DOCKED: ATOM     45  C   UNL d   1     -12.897  19.908  16.226 -0.03 -0.18    +0.306 C 
DOCKED: ATOM     46  O   UNL d   1     -13.755  20.479  16.877 -0.01 +0.08    -0.251 OA
DOCKED: BRANCH  45  47
DOCKED: ATOM     47  O   UNL d   1     -11.896  20.596  15.648 -0.03 +0.42    -0.481 OA
DOCKED: ATOM     48  H   UNL d   1     -11.359  19.914  15.190 -0.51 -0.56    +0.295 HD
DOCKED: ENDBRANCH  45  47
DOCKED: ENDBRANCH  44  45
DOCKED: ENDBRANCH   8  44
DOCKED: BRANCH  22  49
DOCKED: ATOM     49  C   UNL d   1      -3.809  15.136  15.043 -0.14 +0.00    +0.048 C 
DOCKED: BRANCH  49  50
DOCKED: ATOM     50  C   UNL d   1      -3.698  13.945  14.091 -0.21 -0.01    +0.125 C 
DOCKED: BRANCH  50  51
DOCKED: ATOM     51  C   UNL d   1      -4.666  14.080  12.949 -0.28 -0.03    +0.305 C 
DOCKED: ATOM     52  O   UNL d   1      -5.018  15.104  12.390 -0.27 -0.02    -0.251 OA
DOCKED: BRANCH  51  53
DOCKED: ATOM     53  O   UNL d   1      -5.165  12.887  12.568 -0.23 +0.08    -0.481 OA
DOCKED: ATOM     54  H   UNL d   1      -5.856  13.117  11.912 -0.37 -0.11    +0.295 HD
DOCKED: ENDBRANCH  51  53
DOCKED: ENDBRANCH  50  51
DOCKED: ENDBRANCH  49  50
DOCKED: ENDBRANCH  22  49
DOCKED: TORSDOF 13
DOCKED: TER
DOCKED: ENDMDL
________________________________________________________________________________


	BEGINNING GENETIC ALGORITHM DOCKING 42 of 100
Run: 42 Seed: 1104047045 675788614 [ Run 42 of 100 GA/GALS ]
Beginning LAMARCKIAN GENETIC ALGORITHM (LGA), with a maximum of 25000000 energy evaluations.

Final-Value: -12.332


	FINAL GENETIC ALGORITHM DOCKED STATE
	_______________________________________________


Detailed state:  trans -12.419 0.086 1.009 quatxyzw -0.388764 -0.367508 -0.419416 -0.733411 center 0.153 0.018 -0.028 ntor 13 -120.0786 88.9232 -138.8415 57.9243 -128.8251 -50.3086 125.0406 165.2000 34.3328 -20.6044 51.9206 -95.1656 -44.8134
State:	-12.419   0.086   1.009  -0.572 -0.541 -0.617 -85.654   -120.08   88.92 -138.84   57.92 -128.83  -50.31  125.04  165.20   34.33  -20.60   51.92  -95.17  -44.81

DOCKED: MODEL       42
DOCKED: USER    Run = 42
DOCKED: USER    DPF = D:/Protein_go_brrr/autodock/final/AncMH_nat/heme/dock.dpf
DOCKED: USER  
DOCKED: USER    Estimated Free Energy of Binding    =   -6.53 kcal/mol  [=(1)+(2)+(3)-(4)]
DOCKED: USER    Estimated Inhibition Constant, Ki   =   16.46 uM (micromolar)  [Temperature = 298.15 K]
DOCKED: USER    
DOCKED: USER    (1) Final Intermolecular Energy     =  -10.40 kcal/mol
DOCKED: USER        vdW + Hbond + desolv Energy     =   -9.87 kcal/mol
DOCKED: USER        Electrostatic Energy            =   -0.53 kcal/mol
DOCKED: USER    (2) Final Total Internal Energy     =   -1.93 kcal/mol
DOCKED: USER    (3) Torsional Free Energy           =   +3.88 kcal/mol
DOCKED: USER    (4) Unbound System's Energy  [=(2)] =   -1.93 kcal/mol
DOCKED: USER    
DOCKED: USER    
DOCKED: USER    NEWDPF move heme_opt.pdbqt
DOCKED: USER    NEWDPF about 0.153000 0.018000 -0.028000
DOCKED: USER    NEWDPF tran0 -12.418902 0.086455 1.008993
DOCKED: USER    NEWDPF quaternion0 -0.388764 -0.367508 -0.419416 -0.733411
DOCKED: USER    NEWDPF axisangle0 -0.571891 -0.540623 -0.616982 -85.653820
DOCKED: USER    NEWDPF quat0 -0.571891 -0.540623 -0.616982 -85.653820
DOCKED: USER    NEWDPF dihe0 -120.08 88.92 -138.84 57.92 -128.83 -50.31 125.04 165.20 34.33 -20.60 51.92 -95.17 -44.81 
DOCKED: USER  keepresnum = 1 
DOCKED: USER  
DOCKED: REMARK  13 active torsions:
DOCKED: REMARK  status: ('A' for Active; 'I' for Inactive)
DOCKED: REMARK    1  A    between atoms: O_3  and  C_38 
DOCKED: REMARK    2  A    between atoms: O_4  and  C_40 
DOCKED: REMARK    3  A    between atoms: O_7  and  C_46 
DOCKED: REMARK    4  A    between atoms: O_9  and  C_48 
DOCKED: REMARK    5  A    between atoms: C_15  and  C_20 
DOCKED: REMARK    6  A    between atoms: C_16  and  C_23 
DOCKED: REMARK    7  A    between atoms: C_20  and  C_38 
DOCKED: REMARK    8  A    between atoms: C_23  and  C_40 
DOCKED: REMARK    9  A    between atoms: C_32  and  C_41 
DOCKED: REMARK   10  A    between atoms: C_37  and  C_45 
DOCKED: REMARK   11  A    between atoms: C_41  and  C_44 
DOCKED: REMARK   12  A    between atoms: C_44  and  C_46 
DOCKED: REMARK   13  A    between atoms: C_47  and  C_48 
DOCKED: USER                              x       y       z     vdW  Elec       q    Type
DOCKED: USER                           _______ _______ _______ _____ _____    ______ ____
DOCKED: ROOT
DOCKED: ATOM      1  O   UNL d   1     -13.156   3.089  -4.011 -0.02 -0.07    -0.289 OA
DOCKED: ATOM      2  O   UNL d   1     -17.453  -2.102  -0.695 -0.08 -0.28    -0.289 OA
DOCKED: ATOM      3  N   UNL d   1     -12.237   1.484  -1.100 -0.16 -0.22    -0.247 NA
DOCKED: ATOM      4  N   UNL d   1     -14.643  -0.119  -0.414 -0.18 -0.40    -0.247 NA
DOCKED: ATOM      5  N   UNL d   1     -13.508  -0.534   2.195 -0.12 -0.36    -0.354 N 
DOCKED: ATOM      6  N   UNL d   1     -11.024   1.146   1.482 -0.10 -0.21    -0.354 N 
DOCKED: ATOM      7  C   UNL d   1     -11.310   3.325  -2.426 -0.15 +0.02    +0.084 A 
DOCKED: ATOM      8  C   UNL d   1     -16.114  -0.770  -2.253 -0.09 +0.07    +0.084 A 
DOCKED: ATOM      9  C   UNL d   1     -14.894   0.016  -1.761 -0.13 +0.07    +0.058 A 
DOCKED: ATOM     10  C   UNL d   1     -11.216   2.415  -1.198 -0.21 +0.03    +0.058 A 
DOCKED: ATOM     11  C   UNL d   1     -12.554   2.731  -3.015 -0.05 +0.08    +0.193 A 
DOCKED: ATOM     12  C   UNL d   1     -13.004   1.607  -2.133 -0.11 +0.09    +0.109 A 
DOCKED: ATOM     13  C   UNL d   1     -16.530  -1.346  -0.929 -0.09 +0.21    +0.193 A 
DOCKED: ATOM     14  C   UNL d   1     -11.590   4.780  -2.043 -0.25 +0.01    +0.026 C 
DOCKED: ATOM     15  C   UNL d   1     -14.168   0.807  -2.565 -0.12 +0.05    +0.055 C 
DOCKED: ATOM     16  C   UNL d   1     -15.713  -1.917  -3.184 -0.11 +0.02    +0.026 C 
DOCKED: ATOM     17  C   UNL d   1     -15.562  -0.869   0.104 -0.14 +0.15    +0.109 A 
DOCKED: ATOM     18  C   UNL d   1     -10.170   2.480  -0.353 -0.17 +0.02    +0.050 C 
DOCKED: ATOM     19  C   UNL d   1      -9.956   1.625   0.758 -0.29 +0.02    +0.045 A 
DOCKED: ATOM     20  C   UNL d   1     -14.767  -1.034   2.404 -0.21 +0.05    +0.045 A 
DOCKED: ATOM     21  C   UNL d   1     -15.744  -1.241   1.515 -0.18 +0.07    +0.057 C 
DOCKED: ATOM     22  C   UNL d   1     -13.658  -0.973   4.400 -0.22 -0.01    -0.019 A 
DOCKED: ATOM     23  C   UNL d   1     -12.764  -0.459   3.342 -0.25 +0.03    +0.045 A 
DOCKED: ATOM     24  C   UNL d   1     -14.842  -1.313   3.837 -0.17 -0.02    -0.022 A 
DOCKED: ATOM     25  C   UNL d   1     -10.588   0.416   2.563 -0.29 +0.02    +0.049 A 
DOCKED: ATOM     26  C   UNL d   1      -8.797   1.165   1.362 -0.39 -0.00    -0.018 A 
DOCKED: ATOM     27  C   UNL d   1      -9.202   0.386   2.490 -0.36 +0.00    +0.003 A 
DOCKED: ATOM     28  C   UNL d   1     -11.503  -0.050   3.546 -0.24 +0.02    +0.052 C 
DOCKED: ATOM     29  C   UNL d   1     -16.054  -1.887   4.489 -0.13 +0.03    +0.046 C 
DOCKED: ATOM     30  C   UNL d   1      -7.397   1.429   0.921 -0.47 +0.01    +0.046 C 
DOCKED: ATOM     31  H   UNL d   1     -13.172  -0.329   1.261 +0.07 +0.19    +0.166 HD
DOCKED: ATOM     32  H   UNL d   1     -11.991   1.350   1.256 +0.08 +0.17    +0.166 HD
DOCKED: ENDROOT
DOCKED: BRANCH   7  33
DOCKED: ATOM     33  C   UNL d   1     -10.143   3.218  -3.414 -0.18 -0.02    +0.141 C 
DOCKED: BRANCH  33  34
DOCKED: ATOM     34  C   UNL d   1     -10.288   2.054  -4.357 -0.20 -0.08    +0.306 C 
DOCKED: ATOM     35  O   UNL d   1     -10.115   0.879  -4.082 -0.33 +0.02    -0.251 OA
DOCKED: BRANCH  34  36
DOCKED: ATOM     36  O   UNL d   1     -10.645   2.433  -5.597 -0.09 +0.32    -0.481 OA
DOCKED: ATOM     37  H   UNL d   1      -9.943   3.059  -5.875 -0.34 -0.49    +0.295 HD
DOCKED: ENDBRANCH  34  36
DOCKED: ENDBRANCH  33  34
DOCKED: ENDBRANCH   7  33
DOCKED: BRANCH  27  38
DOCKED: ATOM     38  C   UNL d   1      -8.314  -0.266   3.405 -0.32 +0.00    +0.017 C 
DOCKED: ATOM     39  C   UNL d   1      -8.271  -0.050   4.729 -0.35 +0.03    +0.092 C 
DOCKED: BRANCH  39  40
DOCKED: ATOM     40  C   UNL d   1      -7.323  -0.797   5.560 -0.25 +0.06    +0.330 C 
DOCKED: ATOM     41  O   UNL d   1      -7.169  -2.002   5.610 -0.84 -0.06    -0.246 OA
DOCKED: BRANCH  40  42
DOCKED: ATOM     42  O   UNL d   1      -6.592   0.049   6.301 -0.09 -0.04    -0.477 OA
DOCKED: ATOM     43  H   UNL d   1      -5.807   0.231   5.744 +0.18 +0.02    +0.295 HD
DOCKED: ENDBRANCH  40  42
DOCKED: ENDBRANCH  39  40
DOCKED: ENDBRANCH  27  38
DOCKED: BRANCH   8  44
DOCKED: ATOM     44  C   UNL d   1     -17.240   0.072  -2.863 -0.02 +0.09    +0.141 C 
DOCKED: BRANCH  44  45
DOCKED: ATOM     45  C   UNL d   1     -17.977   0.904  -1.848 -0.01 +0.26    +0.306 C 
DOCKED: ATOM     46  O   UNL d   1     -17.621   1.976  -1.390 -0.07 -0.32    -0.251 OA
DOCKED: BRANCH  45  47
DOCKED: ATOM     47  O   UNL d   1     -19.120   0.324  -1.440 +0.02 -0.33    -0.481 OA
DOCKED: ATOM     48  H   UNL d   1     -18.897  -0.627  -1.349 +0.03 +0.20    +0.295 HD
DOCKED: ENDBRANCH  45  47
DOCKED: ENDBRANCH  44  45
DOCKED: ENDBRANCH   8  44
DOCKED: BRANCH  22  49
DOCKED: ATOM     49  C   UNL d   1     -13.281  -1.069   5.849 -0.31 +0.01    +0.048 C 
DOCKED: BRANCH  49  50
DOCKED: ATOM     50  C   UNL d   1     -13.541  -2.466   6.413 -0.29 +0.03    +0.125 C 
DOCKED: BRANCH  50  51
DOCKED: ATOM     51  C   UNL d   1     -14.378  -2.394   7.658 -0.22 +0.04    +0.305 C 
DOCKED: ATOM     52  O   UNL d   1     -15.051  -3.280   8.153 -0.29 -0.03    -0.251 OA
DOCKED: BRANCH  51  53
DOCKED: ATOM     53  O   UNL d   1     -14.332  -1.172   8.227 -0.22 -0.06    -0.481 OA
DOCKED: ATOM     54  H   UNL d   1     -14.006  -1.344   9.135 -0.34 -0.06    +0.295 HD
DOCKED: ENDBRANCH  51  53
DOCKED: ENDBRANCH  50  51
DOCKED: ENDBRANCH  49  50
DOCKED: ENDBRANCH  22  49
DOCKED: TORSDOF 13
DOCKED: TER
DOCKED: ENDMDL
________________________________________________________________________________


	BEGINNING GENETIC ALGORITHM DOCKING 43 of 100
Run: 43 Seed: 1257051364 593492992 [ Run 43 of 100 GA/GALS ]
Beginning LAMARCKIAN GENETIC ALGORITHM (LGA), with a maximum of 25000000 energy evaluations.

Final-Value: -10.127


	FINAL GENETIC ALGORITHM DOCKED STATE
	_______________________________________________


Detailed state:  trans 9.905 14.138 4.010 quatxyzw -0.180180 0.545136 -0.166990 -0.801546 center 0.153 0.018 -0.028 ntor 13 110.2707 -34.5868 -167.0907 169.7104 -179.7896 178.0195 139.7242 -92.2986 -17.6205 -6.9927 -153.2003 171.9062 150.7737
State:	  9.905  14.138   4.010  -0.301  0.912 -0.279 -73.444    110.27  -34.59 -167.09  169.71 -179.79  178.02  139.72  -92.30  -17.62   -6.99 -153.20  171.91  150.77

DOCKED: MODEL       43
DOCKED: USER    Run = 43
DOCKED: USER    DPF = D:/Protein_go_brrr/autodock/final/AncMH_nat/heme/dock.dpf
DOCKED: USER  
DOCKED: USER    Estimated Free Energy of Binding    =   -3.84 kcal/mol  [=(1)+(2)+(3)-(4)]
DOCKED: USER    Estimated Inhibition Constant, Ki   =    1.53 mM (millimolar)  [Temperature = 298.15 K]
DOCKED: USER    
DOCKED: USER    (1) Final Intermolecular Energy     =   -7.72 kcal/mol
DOCKED: USER        vdW + Hbond + desolv Energy     =   -6.88 kcal/mol
DOCKED: USER        Electrostatic Energy            =   -0.84 kcal/mol
DOCKED: USER    (2) Final Total Internal Energy     =   -2.41 kcal/mol
DOCKED: USER    (3) Torsional Free Energy           =   +3.88 kcal/mol
DOCKED: USER    (4) Unbound System's Energy  [=(2)] =   -2.41 kcal/mol
DOCKED: USER    
DOCKED: USER    
DOCKED: USER    NEWDPF move heme_opt.pdbqt
DOCKED: USER    NEWDPF about 0.153000 0.018000 -0.028000
DOCKED: USER    NEWDPF tran0 9.904579 14.138452 4.009680
DOCKED: USER    NEWDPF quaternion0 -0.180180 0.545136 -0.166990 -0.801546
DOCKED: USER    NEWDPF axisangle0 -0.301338 0.911701 -0.279278 -73.444015
DOCKED: USER    NEWDPF quat0 -0.301338 0.911701 -0.279278 -73.444015
DOCKED: USER    NEWDPF dihe0 110.27 -34.59 -167.09 169.71 -179.79 178.02 139.72 -92.30 -17.62 -6.99 -153.20 171.91 150.77 
DOCKED: USER  keepresnum = 1 
DOCKED: USER  
DOCKED: REMARK  13 active torsions:
DOCKED: REMARK  status: ('A' for Active; 'I' for Inactive)
DOCKED: REMARK    1  A    between atoms: O_3  and  C_38 
DOCKED: REMARK    2  A    between atoms: O_4  and  C_40 
DOCKED: REMARK    3  A    between atoms: O_7  and  C_46 
DOCKED: REMARK    4  A    between atoms: O_9  and  C_48 
DOCKED: REMARK    5  A    between atoms: C_15  and  C_20 
DOCKED: REMARK    6  A    between atoms: C_16  and  C_23 
DOCKED: REMARK    7  A    between atoms: C_20  and  C_38 
DOCKED: REMARK    8  A    between atoms: C_23  and  C_40 
DOCKED: REMARK    9  A    between atoms: C_32  and  C_41 
DOCKED: REMARK   10  A    between atoms: C_37  and  C_45 
DOCKED: REMARK   11  A    between atoms: C_41  and  C_44 
DOCKED: REMARK   12  A    between atoms: C_44  and  C_46 
DOCKED: REMARK   13  A    between atoms: C_47  and  C_48 
DOCKED: USER                              x       y       z     vdW  Elec       q    Type
DOCKED: USER                           _______ _______ _______ _____ _____    ______ ____
DOCKED: ROOT
DOCKED: ATOM      1  O   UNL d   1       8.667  18.297   8.001 -0.00 -0.06    -0.289 OA
DOCKED: ATOM      2  O   UNL d   1       7.155  10.942   7.916 -0.22 -0.04    -0.289 OA
DOCKED: ATOM      3  N   UNL d   1       9.483  16.253   5.346 -0.05 -0.05    -0.247 NA
DOCKED: ATOM      4  N   UNL d   1       8.788  13.538   6.335 -0.05 -0.00    -0.247 NA
DOCKED: ATOM      5  N   UNL d   1      10.265  12.454   4.119 -0.09 -0.00    -0.354 N 
DOCKED: ATOM      6  N   UNL d   1      10.998  15.273   3.111 -0.07 -0.04    -0.354 N 
DOCKED: ATOM      7  C   UNL d   1       9.918  18.595   5.922 -0.03 +0.02    +0.084 A 
DOCKED: ATOM      8  C   UNL d   1       7.059  13.384   8.055 -0.07 +0.00    +0.084 A 
DOCKED: ATOM      9  C   UNL d   1       7.966  14.253   7.177 -0.08 +0.00    +0.058 A 
DOCKED: ATOM     10  C   UNL d   1      10.093  17.429   4.944 -0.10 +0.01    +0.058 A 
DOCKED: ATOM     11  C   UNL d   1       9.085  17.874   6.939 -0.02 +0.05    +0.193 A 
DOCKED: ATOM     12  C   UNL d   1       8.868  16.471   6.462 -0.07 +0.02    +0.109 A 
DOCKED: ATOM     13  C   UNL d   1       7.545  12.043   7.581 -0.00 +0.00    +0.193 A 
DOCKED: ATOM     14  C   UNL d   1      11.243  19.006   6.569 -0.01 +0.00    +0.026 C 
DOCKED: ATOM     15  C   UNL d   1       7.992  15.592   7.263 -0.08 +0.01    +0.055 C 
DOCKED: ATOM     16  C   UNL d   1       5.584  13.537   7.673 -0.18 -0.00    +0.026 C 
DOCKED: ATOM     17  C   UNL d   1       8.596  12.276   6.545 -0.11 -0.01    +0.109 A 
DOCKED: ATOM     18  C   UNL d   1      10.715  17.591   3.761 -0.13 +0.01    +0.050 C 
DOCKED: ATOM     19  C   UNL d   1      10.850  16.596   2.760 -0.17 +0.01    +0.045 A 
DOCKED: ATOM     20  C   UNL d   1      10.045  11.308   4.839 -0.20 -0.00    +0.045 A 
DOCKED: ATOM     21  C   UNL d   1       9.289  11.135   5.928 -0.18 -0.01    +0.057 C 
DOCKED: ATOM     22  C   UNL d   1      11.452  10.831   3.103 -0.25 +0.00    -0.019 A 
DOCKED: ATOM     23  C   UNL d   1      11.102  12.265   3.052 -0.24 +0.00    +0.045 A 
DOCKED: ATOM     24  C   UNL d   1      10.822  10.270   4.163 -0.26 +0.00    -0.022 A 
DOCKED: ATOM     25  C   UNL d   1      11.203  14.497   1.994 -0.01 +0.01    +0.049 A 
DOCKED: ATOM     26  C   UNL d   1      10.924  16.677   1.378 -0.23 -0.00    -0.018 A 
DOCKED: ATOM     27  C   UNL d   1      11.127  15.346   0.898 -0.16 +0.00    +0.003 A 
DOCKED: ATOM     28  C   UNL d   1      11.537  13.121   2.114 -0.23 +0.01    +0.052 C 
DOCKED: ATOM     29  C   UNL d   1      10.852   8.852   4.622 -0.30 -0.02    +0.046 C 
DOCKED: ATOM     30  C   UNL d   1      10.812  17.913   0.551 -0.24 +0.00    +0.046 C 
DOCKED: ATOM     31  H   UNL d   1       9.775  13.315   4.338 +0.06 +0.01    +0.166 HD
DOCKED: ATOM     32  H   UNL d   1      10.994  14.944   4.069 +0.03 +0.01    +0.166 HD
DOCKED: ENDROOT
DOCKED: BRANCH   7  33
DOCKED: ATOM     33  C   UNL d   1       9.162  19.808   5.370 -0.06 +0.05    +0.141 C 
DOCKED: BRANCH  33  34
DOCKED: ATOM     34  C   UNL d   1       8.147  19.431   4.325 -0.13 +0.25    +0.306 C 
DOCKED: ATOM     35  O   UNL d   1       8.070  19.888   3.197 -0.16 -0.16    -0.251 OA
DOCKED: BRANCH  34  36
DOCKED: ATOM     36  O   UNL d   1       7.282  18.496   4.756 -0.55 -0.71    -0.481 OA
DOCKED: ATOM     37  H   UNL d   1       7.809  17.669   4.790 +0.06 +0.22    +0.295 HD
DOCKED: ENDBRANCH  34  36
DOCKED: ENDBRANCH  33  34
DOCKED: ENDBRANCH   7  33
DOCKED: BRANCH  27  38
DOCKED: ATOM     38  C   UNL d   1      11.275  14.978  -0.477 -0.35 +0.00    +0.017 C 
DOCKED: ATOM     39  C   UNL d   1      11.776  15.767  -1.440 -0.29 +0.01    +0.092 C 
DOCKED: BRANCH  39  40
DOCKED: ATOM     40  C   UNL d   1      11.891  15.262  -2.811 -0.24 +0.02    +0.330 C 
DOCKED: ATOM     41  O   UNL d   1      12.258  15.870  -3.799 -0.24 +0.01    -0.246 OA
DOCKED: BRANCH  40  42
DOCKED: ATOM     42  O   UNL d   1      11.531  13.970  -2.859 -0.48 -0.22    -0.477 OA
DOCKED: ATOM     43  H   UNL d   1      11.098  13.879  -3.733 -0.36 -0.25    +0.295 HD
DOCKED: ENDBRANCH  40  42
DOCKED: ENDBRANCH  39  40
DOCKED: ENDBRANCH  27  38
DOCKED: BRANCH   8  44
DOCKED: ATOM     44  C   UNL d   1       7.259  13.537   9.566 -0.01 +0.01    +0.141 C 
DOCKED: BRANCH  44  45
DOCKED: ATOM     45  C   UNL d   1       8.673  13.267  10.009 +0.00 +0.00    +0.306 C 
DOCKED: ATOM     46  O   UNL d   1       9.548  14.096  10.189 -0.00 -0.00    -0.251 OA
DOCKED: BRANCH  45  47
DOCKED: ATOM     47  O   UNL d   1       8.918  11.955  10.177 +0.01 +0.00    -0.481 OA
DOCKED: ATOM     48  H   UNL d   1       8.147  11.505   9.771 +0.02 +0.00    +0.295 HD
DOCKED: ENDBRANCH  45  47
DOCKED: ENDBRANCH  44  45
DOCKED: ENDBRANCH   8  44
DOCKED: BRANCH  22  49
DOCKED: ATOM     49  C   UNL d   1      12.371  10.153   2.131 -0.25 -0.00    +0.048 C 
DOCKED: BRANCH  49  50
DOCKED: ATOM     50  C   UNL d   1      13.811  10.647   2.269 -0.16 -0.00    +0.125 C 
DOCKED: BRANCH  50  51
DOCKED: ATOM     51  C   UNL d   1      14.083  11.120   3.669 -0.03 -0.03    +0.305 C 
DOCKED: ATOM     52  O   UNL d   1      14.073  12.266   4.081 -0.02 +0.01    -0.251 OA
DOCKED: BRANCH  51  53
DOCKED: ATOM     53  O   UNL d   1      14.373  10.098   4.499 +0.01 +0.11    -0.481 OA
DOCKED: ATOM     54  H   UNL d   1      14.151   9.298   3.978 +0.07 -0.11    +0.295 HD
DOCKED: ENDBRANCH  51  53
DOCKED: ENDBRANCH  50  51
DOCKED: ENDBRANCH  49  50
DOCKED: ENDBRANCH  22  49
DOCKED: TORSDOF 13
DOCKED: TER
DOCKED: ENDMDL
________________________________________________________________________________


	BEGINNING GENETIC ALGORITHM DOCKING 44 of 100
Run: 44 Seed: 1823739587 1965643649 [ Run 44 of 100 GA/GALS ]
Beginning LAMARCKIAN GENETIC ALGORITHM (LGA), with a maximum of 25000000 energy evaluations.

Final-Value: -11.955


	FINAL GENETIC ALGORITHM DOCKED STATE
	_______________________________________________


Detailed state:  trans -14.112 9.628 -3.073 quatxyzw 0.827390 -0.093848 -0.376503 -0.406035 center 0.153 0.018 -0.028 ntor 13 -133.0632 109.1355 -111.8252 6.6535 43.2128 -67.0560 120.9102 109.4262 151.4734 -25.5955 -44.0951 10.7109 2.7807
State:	-14.112   9.628  -3.073   0.905 -0.103 -0.412 -132.088   -133.06  109.14 -111.83    6.65   43.21  -67.06  120.91  109.43  151.47  -25.60  -44.10   10.71    2.78

DOCKED: MODEL       44
DOCKED: USER    Run = 44
DOCKED: USER    DPF = D:/Protein_go_brrr/autodock/final/AncMH_nat/heme/dock.dpf
DOCKED: USER  
DOCKED: USER    Estimated Free Energy of Binding    =   -4.30 kcal/mol  [=(1)+(2)+(3)-(4)]
DOCKED: USER    Estimated Inhibition Constant, Ki   =  709.08 uM (micromolar)  [Temperature = 298.15 K]
DOCKED: USER    
DOCKED: USER    (1) Final Intermolecular Energy     =   -8.17 kcal/mol
DOCKED: USER        vdW + Hbond + desolv Energy     =   -7.75 kcal/mol
DOCKED: USER        Electrostatic Energy            =   -0.42 kcal/mol
DOCKED: USER    (2) Final Total Internal Energy     =   -3.78 kcal/mol
DOCKED: USER    (3) Torsional Free Energy           =   +3.88 kcal/mol
DOCKED: USER    (4) Unbound System's Energy  [=(2)] =   -3.78 kcal/mol
DOCKED: USER    
DOCKED: USER    
DOCKED: USER    NEWDPF move heme_opt.pdbqt
DOCKED: USER    NEWDPF about 0.153000 0.018000 -0.028000
DOCKED: USER    NEWDPF tran0 -14.111845 9.628332 -3.072860
DOCKED: USER    NEWDPF quaternion0 0.827390 -0.093848 -0.376503 -0.406035
DOCKED: USER    NEWDPF axisangle0 0.905381 -0.102695 -0.411994 -132.088022
DOCKED: USER    NEWDPF quat0 0.905381 -0.102695 -0.411994 -132.088022
DOCKED: USER    NEWDPF dihe0 -133.06 109.14 -111.83 6.65 43.21 -67.06 120.91 109.43 151.47 -25.60 -44.10 10.71 2.78 
DOCKED: USER  keepresnum = 1 
DOCKED: USER  
DOCKED: REMARK  13 active torsions:
DOCKED: REMARK  status: ('A' for Active; 'I' for Inactive)
DOCKED: REMARK    1  A    between atoms: O_3  and  C_38 
DOCKED: REMARK    2  A    between atoms: O_4  and  C_40 
DOCKED: REMARK    3  A    between atoms: O_7  and  C_46 
DOCKED: REMARK    4  A    between atoms: O_9  and  C_48 
DOCKED: REMARK    5  A    between atoms: C_15  and  C_20 
DOCKED: REMARK    6  A    between atoms: C_16  and  C_23 
DOCKED: REMARK    7  A    between atoms: C_20  and  C_38 
DOCKED: REMARK    8  A    between atoms: C_23  and  C_40 
DOCKED: REMARK    9  A    between atoms: C_32  and  C_41 
DOCKED: REMARK   10  A    between atoms: C_37  and  C_45 
DOCKED: REMARK   11  A    between atoms: C_41  and  C_44 
DOCKED: REMARK   12  A    between atoms: C_44  and  C_46 
DOCKED: REMARK   13  A    between atoms: C_47  and  C_48 
DOCKED: USER                              x       y       z     vdW  Elec       q    Type
DOCKED: USER                           _______ _______ _______ _____ _____    ______ ____
DOCKED: ROOT
DOCKED: ATOM      1  O   UNL d   1     -18.232  10.723   0.999 -0.05 +0.04    -0.289 OA
DOCKED: ATOM      2  O   UNL d   1     -15.594  14.965  -4.608 -0.02 -0.00    -0.289 OA
DOCKED: ATOM      3  N   UNL d   1     -15.681   9.694  -1.081 -0.01 -0.00    -0.247 NA
DOCKED: ATOM      4  N   UNL d   1     -15.548  11.852  -3.119 -0.02 +0.01    -0.247 NA
DOCKED: ATOM      5  N   UNL d   1     -13.902  10.118  -4.715 +0.06 -0.00    -0.354 N 
DOCKED: ATOM      6  N   UNL d   1     -14.061   7.877  -2.604 -0.07 -0.06    -0.354 N 
DOCKED: ATOM      7  C   UNL d   1     -16.985   8.642   0.708 -0.20 +0.01    +0.084 A 
DOCKED: ATOM      8  C   UNL d   1     -16.329  14.070  -2.452 -0.10 -0.02    +0.084 A 
DOCKED: ATOM      9  C   UNL d   1     -16.152  12.584  -2.121 -0.16 -0.01    +0.058 A 
DOCKED: ATOM     10  C   UNL d   1     -15.885   8.534  -0.353 -0.25 +0.01    +0.058 A 
DOCKED: ATOM     11  C   UNL d   1     -17.353  10.074   0.463 -0.11 -0.02    +0.193 A 
DOCKED: ATOM     12  C   UNL d   1     -16.475  10.608  -0.626 -0.18 -0.02    +0.109 A 
DOCKED: ATOM     13  C   UNL d   1     -15.749  14.038  -3.837 -0.05 -0.01    +0.193 A 
DOCKED: ATOM     14  C   UNL d   1     -18.190   7.757   0.378 -0.12 +0.01    +0.026 C 
DOCKED: ATOM     15  C   UNL d   1     -16.594  12.037  -0.978 -0.20 -0.02    +0.055 C 
DOCKED: ATOM     16  C   UNL d   1     -15.447  14.958  -1.569 -0.25 -0.01    +0.026 C 
DOCKED: ATOM     17  C   UNL d   1     -15.320  12.636  -4.124 -0.11 -0.00    +0.109 A 
DOCKED: ATOM     18  C   UNL d   1     -15.137   7.422  -0.480 -0.33 +0.02    +0.050 C 
DOCKED: ATOM     19  C   UNL d   1     -14.047   7.261  -1.373 -0.30 +0.01    +0.045 A 
DOCKED: ATOM     20  C   UNL d   1     -14.141  11.116  -5.623 -0.12 -0.00    +0.045 A 
DOCKED: ATOM     21  C   UNL d   1     -14.749  12.292  -5.435 -0.12 -0.00    +0.057 C 
DOCKED: ATOM     22  C   UNL d   1     -13.049   9.408  -6.675 -0.11 +0.00    -0.019 A 
DOCKED: ATOM     23  C   UNL d   1     -13.248   9.044  -5.258 -0.12 -0.00    +0.045 A 
DOCKED: ATOM     24  C   UNL d   1     -13.579  10.636  -6.885 -0.10 +0.00    -0.022 A 
DOCKED: ATOM     25  C   UNL d   1     -12.955   7.515  -3.338 -0.22 +0.00    +0.049 A 
DOCKED: ATOM     26  C   UNL d   1     -12.885   6.510  -1.289 -0.38 -0.01    -0.018 A 
DOCKED: ATOM     27  C   UNL d   1     -12.190   6.689  -2.525 -0.33 +0.00    +0.003 A 
DOCKED: ATOM     28  C   UNL d   1     -12.826   7.899  -4.700 -0.18 -0.00    +0.052 C 
DOCKED: ATOM     29  C   UNL d   1     -13.616  11.434  -8.144 -0.06 -0.00    +0.046 C 
DOCKED: ATOM     30  C   UNL d   1     -12.444   5.678  -0.134 -0.26 +0.03    +0.046 C 
DOCKED: ATOM     31  H   UNL d   1     -14.129  10.234  -3.733 +0.09 +0.01    +0.166 HD
DOCKED: ATOM     32  H   UNL d   1     -14.812   8.477  -2.922 +0.04 +0.02    +0.166 HD
DOCKED: ENDROOT
DOCKED: BRANCH   7  33
DOCKED: ATOM     33  C   UNL d   1     -16.522   8.445   2.155 -0.19 +0.03    +0.141 C 
DOCKED: BRANCH  33  34
DOCKED: ATOM     34  C   UNL d   1     -17.656   8.105   3.084 -0.19 +0.11    +0.306 C 
DOCKED: ATOM     35  O   UNL d   1     -17.976   6.988   3.452 -0.27 -0.16    -0.251 OA
DOCKED: BRANCH  34  36
DOCKED: ATOM     36  O   UNL d   1     -18.327   9.193   3.504 -0.03 -0.09    -0.481 OA
DOCKED: ATOM     37  H   UNL d   1     -18.447   9.736   2.695 +0.11 +0.02    +0.295 HD
DOCKED: ENDBRANCH  34  36
DOCKED: ENDBRANCH  33  34
DOCKED: ENDBRANCH   7  33
DOCKED: BRANCH  27  38
DOCKED: ATOM     38  C   UNL d   1     -10.942   6.074  -2.867 -0.36 -0.00    +0.017 C 
DOCKED: ATOM     39  C   UNL d   1      -9.886   6.709  -3.398 -0.43 -0.02    +0.092 C 
DOCKED: BRANCH  39  40
DOCKED: ATOM     40  C   UNL d   1      -8.657   5.965  -3.687 -0.28 -0.10    +0.330 C 
DOCKED: ATOM     41  O   UNL d   1      -7.875   5.483  -2.890 -0.39 +0.04    -0.246 OA
DOCKED: BRANCH  40  42
DOCKED: ATOM     42  O   UNL d   1      -8.483   5.859  -5.013 -0.14 +0.35    -0.477 OA
DOCKED: ATOM     43  H   UNL d   1      -9.180   5.230  -5.292 -0.29 -0.38    +0.295 HD
DOCKED: ENDBRANCH  40  42
DOCKED: ENDBRANCH  39  40
DOCKED: ENDBRANCH  27  38
DOCKED: BRANCH   8  44
DOCKED: ATOM     44  C   UNL d   1     -17.776  14.573  -2.474 -0.03 -0.02    +0.141 C 
DOCKED: BRANCH  44  45
DOCKED: ATOM     45  C   UNL d   1     -18.535  14.145  -3.702 +0.00 -0.01    +0.306 C 
DOCKED: ATOM     46  O   UNL d   1     -19.002  13.040  -3.920 -0.00 +0.00    -0.251 OA
DOCKED: BRANCH  45  47
DOCKED: ATOM     47  O   UNL d   1     -18.643  15.132  -4.610 +0.00 +0.00    -0.481 OA
DOCKED: ATOM     48  H   UNL d   1     -17.727  15.276  -4.929 +0.01 +0.00    +0.295 HD
DOCKED: ENDBRANCH  45  47
DOCKED: ENDBRANCH  44  45
DOCKED: ENDBRANCH   8  44
DOCKED: BRANCH  22  49
DOCKED: ATOM     49  C   UNL d   1     -12.381   8.523  -7.686 -0.08 -0.01    +0.048 C 
DOCKED: BRANCH  49  50
DOCKED: ATOM     50  C   UNL d   1     -10.857   8.599  -7.589 -0.19 -0.03    +0.125 C 
DOCKED: BRANCH  50  51
DOCKED: ATOM     51  C   UNL d   1     -10.244   7.232  -7.691 -0.15 -0.19    +0.305 C 
DOCKED: ATOM     52  O   UNL d   1      -9.685   6.738  -8.655 -0.19 +0.22    -0.251 OA
DOCKED: BRANCH  51  53
DOCKED: ATOM     53  O   UNL d   1     -10.380   6.531  -6.548 -0.07 +0.38    -0.481 OA
DOCKED: ATOM     54  H   UNL d   1      -9.860   5.715  -6.705 -0.27 -0.56    +0.295 HD
DOCKED: ENDBRANCH  51  53
DOCKED: ENDBRANCH  50  51
DOCKED: ENDBRANCH  49  50
DOCKED: ENDBRANCH  22  49
DOCKED: TORSDOF 13
DOCKED: TER
DOCKED: ENDMDL
________________________________________________________________________________


	BEGINNING GENETIC ALGORITHM DOCKING 45 of 100
Run: 45 Seed: 1917992853 290640092 [ Run 45 of 100 GA/GALS ]
Beginning LAMARCKIAN GENETIC ALGORITHM (LGA), with a maximum of 25000000 energy evaluations.

Final-Value: -10.508


	FINAL GENETIC ALGORITHM DOCKED STATE
	_______________________________________________


Detailed state:  trans -14.978 -18.310 5.267 quatxyzw -0.752620 0.270936 -0.097648 -0.592133 center 0.153 0.018 -0.028 ntor 13 122.2640 -118.7535 164.8106 152.0830 -132.4619 5.4684 152.2490 -38.9052 25.3033 -8.9400 -34.4450 -82.3662 0.9768
State:	-14.978 -18.310   5.267  -0.934  0.336 -0.121 -107.383    122.26 -118.75  164.81  152.08 -132.46    5.47  152.25  -38.91   25.30   -8.94  -34.45  -82.37    0.98

DOCKED: MODEL       45
DOCKED: USER    Run = 45
DOCKED: USER    DPF = D:/Protein_go_brrr/autodock/final/AncMH_nat/heme/dock.dpf
DOCKED: USER  
DOCKED: USER    Estimated Free Energy of Binding    =   -3.27 kcal/mol  [=(1)+(2)+(3)-(4)]
DOCKED: USER    Estimated Inhibition Constant, Ki   =    3.99 mM (millimolar)  [Temperature = 298.15 K]
DOCKED: USER    
DOCKED: USER    (1) Final Intermolecular Energy     =   -7.15 kcal/mol
DOCKED: USER        vdW + Hbond + desolv Energy     =   -6.60 kcal/mol
DOCKED: USER        Electrostatic Energy            =   -0.55 kcal/mol
DOCKED: USER    (2) Final Total Internal Energy     =   -3.36 kcal/mol
DOCKED: USER    (3) Torsional Free Energy           =   +3.88 kcal/mol
DOCKED: USER    (4) Unbound System's Energy  [=(2)] =   -3.36 kcal/mol
DOCKED: USER    
DOCKED: USER    
DOCKED: USER    NEWDPF move heme_opt.pdbqt
DOCKED: USER    NEWDPF about 0.153000 0.018000 -0.028000
DOCKED: USER    NEWDPF tran0 -14.977586 -18.310340 5.266563
DOCKED: USER    NEWDPF quaternion0 -0.752620 0.270936 -0.097648 -0.592133
DOCKED: USER    NEWDPF axisangle0 -0.933957 0.336216 -0.121175 -107.383028
DOCKED: USER    NEWDPF quat0 -0.933957 0.336216 -0.121175 -107.383028
DOCKED: USER    NEWDPF dihe0 122.26 -118.75 164.81 152.08 -132.46 5.47 152.25 -38.91 25.30 -8.94 -34.45 -82.37 0.98 
DOCKED: USER  keepresnum = 1 
DOCKED: USER  
DOCKED: REMARK  13 active torsions:
DOCKED: REMARK  status: ('A' for Active; 'I' for Inactive)
DOCKED: REMARK    1  A    between atoms: O_3  and  C_38 
DOCKED: REMARK    2  A    between atoms: O_4  and  C_40 
DOCKED: REMARK    3  A    between atoms: O_7  and  C_46 
DOCKED: REMARK    4  A    between atoms: O_9  and  C_48 
DOCKED: REMARK    5  A    between atoms: C_15  and  C_20 
DOCKED: REMARK    6  A    between atoms: C_16  and  C_23 
DOCKED: REMARK    7  A    between atoms: C_20  and  C_38 
DOCKED: REMARK    8  A    between atoms: C_23  and  C_40 
DOCKED: REMARK    9  A    between atoms: C_32  and  C_41 
DOCKED: REMARK   10  A    between atoms: C_37  and  C_45 
DOCKED: REMARK   11  A    between atoms: C_41  and  C_44 
DOCKED: REMARK   12  A    between atoms: C_44  and  C_46 
DOCKED: REMARK   13  A    between atoms: C_47  and  C_48 
DOCKED: USER                              x       y       z     vdW  Elec       q    Type
DOCKED: USER                           _______ _______ _______ _____ _____    ______ ____
DOCKED: ROOT
DOCKED: ATOM      1  O   UNL d   1     -19.848 -15.087   4.466 -0.04 -0.02    -0.289 OA
DOCKED: ATOM      2  O   UNL d   1     -16.517 -17.507  10.746 -0.11 +0.17    -0.289 OA
DOCKED: ATOM      3  N   UNL d   1     -17.042 -17.092   4.439 -0.21 -0.03    -0.247 NA
DOCKED: ATOM      4  N   UNL d   1     -16.299 -17.267   7.310 -0.07 +0.02    -0.247 NA
DOCKED: ATOM      5  N   UNL d   1     -13.763 -18.347   6.493 -0.03 +0.03    -0.354 N 
DOCKED: ATOM      6  N   UNL d   1     -14.535 -18.144   3.515 -0.12 -0.02    -0.354 N 
DOCKED: ATOM      7  C   UNL d   1     -18.346 -15.918   2.727 -0.09 +0.01    +0.084 A 
DOCKED: ATOM      8  C   UNL d   1     -18.088 -16.969   8.948 -0.03 -0.02    +0.084 A 
DOCKED: ATOM      9  C   UNL d   1     -17.627 -16.949   7.487 -0.05 -0.01    +0.058 A 
DOCKED: ATOM     10  C   UNL d   1     -17.156 -16.813   3.087 -0.09 +0.00    +0.058 A 
DOCKED: ATOM     11  C   UNL d   1     -18.895 -15.757   4.112 -0.04 +0.02    +0.193 A 
DOCKED: ATOM     12  C   UNL d   1     -18.033 -16.536   5.056 +0.04 +0.01    +0.109 A 
DOCKED: ATOM     13  C   UNL d   1     -16.767 -17.320   9.571 -0.07 -0.07    +0.193 A 
DOCKED: ATOM     14  C   UNL d   1     -17.899 -14.549   2.208 -0.14 +0.00    +0.026 C 
DOCKED: ATOM     15  C   UNL d   1     -18.437 -16.600   6.475 -0.06 -0.00    +0.055 C 
DOCKED: ATOM     16  C   UNL d   1     -19.077 -18.107   9.216 -0.01 -0.00    +0.026 C 
DOCKED: ATOM     17  C   UNL d   1     -15.765 -17.466   8.472 -0.09 -0.02    +0.109 A 
DOCKED: ATOM     18  C   UNL d   1     -16.360 -17.341   2.138 -0.21 +0.00    +0.050 C 
DOCKED: ATOM     19  C   UNL d   1     -15.291 -18.243   2.369 -0.14 +0.00    +0.045 A 
DOCKED: ATOM     20  C   UNL d   1     -13.513 -18.141   7.825 -0.17 -0.01    +0.045 A 
DOCKED: ATOM     21  C   UNL d   1     -14.361 -17.768   8.789 -0.21 -0.01    +0.057 C 
DOCKED: ATOM     22  C   UNL d   1     -11.571 -18.767   6.797 -0.31 +0.00    -0.019 A 
DOCKED: ATOM     23  C   UNL d   1     -12.651 -18.728   5.790 -0.20 -0.00    +0.045 A 
DOCKED: ATOM     24  C   UNL d   1     -12.088 -18.419   7.999 -0.28 +0.00    -0.022 A 
DOCKED: ATOM     25  C   UNL d   1     -13.502 -19.053   3.492 -0.17 +0.00    +0.049 A 
DOCKED: ATOM     26  C   UNL d   1     -14.759 -19.266   1.599 -0.08 -0.00    -0.018 A 
DOCKED: ATOM     27  C   UNL d   1     -13.642 -19.786   2.322 -0.13 +0.00    +0.003 A 
DOCKED: ATOM     28  C   UNL d   1     -12.494 -19.036   4.494 -0.27 -0.00    +0.052 C 
DOCKED: ATOM     29  C   UNL d   1     -11.400 -18.324   9.318 -0.37 -0.01    +0.046 C 
DOCKED: ATOM     30  C   UNL d   1     -15.257 -19.734   0.274 -0.09 +0.00    +0.046 C 
DOCKED: ATOM     31  H   UNL d   1     -14.705 -18.293   6.120 +0.05 -0.01    +0.166 HD
DOCKED: ATOM     32  H   UNL d   1     -14.707 -17.462   4.244 +0.00 +0.01    +0.166 HD
DOCKED: ENDROOT
DOCKED: BRANCH   7  33
DOCKED: ATOM     33  C   UNL d   1     -19.391 -16.555   1.804 -0.03 +0.01    +0.141 C 
DOCKED: BRANCH  33  34
DOCKED: ATOM     34  C   UNL d   1     -20.228 -17.590   2.505 +0.00 +0.01    +0.306 C 
DOCKED: ATOM     35  O   UNL d   1     -19.893 -18.735   2.762 -0.00 -0.00    -0.251 OA
DOCKED: BRANCH  34  36
DOCKED: ATOM     36  O   UNL d   1     -21.443 -17.128   2.849 +0.01 -0.01    -0.481 OA
DOCKED: ATOM     37  H   UNL d   1     -21.260 -16.376   3.451 +0.01 +0.01    +0.295 HD
DOCKED: ENDBRANCH  34  36
DOCKED: ENDBRANCH  33  34
DOCKED: ENDBRANCH   7  33
DOCKED: BRANCH  27  38
DOCKED: ATOM     38  C   UNL d   1     -12.793 -20.850   1.876 -0.13 -0.00    +0.017 C 
DOCKED: ATOM     39  C   UNL d   1     -11.452 -20.844   1.926 -0.16 -0.00    +0.092 C 
DOCKED: BRANCH  39  40
DOCKED: ATOM     40  C   UNL d   1     -10.699 -22.008   1.452 -0.04 -0.01    +0.330 C 
DOCKED: ATOM     41  O   UNL d   1     -11.138 -23.019   0.937 -0.01 +0.01    -0.246 OA
DOCKED: BRANCH  40  42
DOCKED: ATOM     42  O   UNL d   1      -9.385 -21.820   1.651 -0.04 +0.01    -0.477 OA
DOCKED: ATOM     43  H   UNL d   1      -9.307 -21.725   2.623 +0.09 -0.02    +0.295 HD
DOCKED: ENDBRANCH  40  42
DOCKED: ENDBRANCH  39  40
DOCKED: ENDBRANCH  27  38
DOCKED: BRANCH   8  44
DOCKED: ATOM     44  C   UNL d   1     -18.615 -15.637   9.493 -0.06 -0.05    +0.141 C 
DOCKED: BRANCH  44  45
DOCKED: ATOM     45  C   UNL d   1     -17.606 -14.522   9.412 -0.11 -0.13    +0.306 C 
DOCKED: ATOM     46  O   UNL d   1     -17.634 -13.570   8.652 -0.18 +0.05    -0.251 OA
DOCKED: BRANCH  45  47
DOCKED: ATOM     47  O   UNL d   1     -16.593 -14.680  10.283 -0.11 +0.41    -0.481 OA
DOCKED: ATOM     48  H   UNL d   1     -16.917 -15.351  10.922 -0.47 -0.51    +0.295 HD
DOCKED: ENDBRANCH  45  47
DOCKED: ENDBRANCH  44  45
DOCKED: ENDBRANCH   8  44
DOCKED: BRANCH  22  49
DOCKED: ATOM     49  C   UNL d   1     -10.146 -19.122   6.490 -0.29 -0.02    +0.048 C 
DOCKED: BRANCH  49  50
DOCKED: ATOM     50  C   UNL d   1      -9.933 -20.635   6.448 -0.21 -0.08    +0.125 C 
DOCKED: BRANCH  50  51
DOCKED: ATOM     51  C   UNL d   1      -8.891 -21.001   5.429 -0.19 -0.16    +0.305 C 
DOCKED: ATOM     52  O   UNL d   1      -8.784 -20.580   4.291 -0.28 +0.06    -0.251 OA
DOCKED: BRANCH  51  53
DOCKED: ATOM     53  O   UNL d   1      -8.021 -21.915   5.905 -0.12 +0.44    -0.481 OA
DOCKED: ATOM     54  H   UNL d   1      -8.010 -21.752   6.871 -0.47 -0.60    +0.295 HD
DOCKED: ENDBRANCH  51  53
DOCKED: ENDBRANCH  50  51
DOCKED: ENDBRANCH  49  50
DOCKED: ENDBRANCH  22  49
DOCKED: TORSDOF 13
DOCKED: TER
DOCKED: ENDMDL
________________________________________________________________________________


	BEGINNING GENETIC ALGORITHM DOCKING 46 of 100
Run: 46 Seed: 127863327 1559733497 [ Run 46 of 100 GA/GALS ]
Beginning LAMARCKIAN GENETIC ALGORITHM (LGA), with a maximum of 25000000 energy evaluations.

Final-Value: -11.911


	FINAL GENETIC ALGORITHM DOCKED STATE
	_______________________________________________


Detailed state:  trans -9.756 11.087 15.833 quatxyzw -0.012032 0.040411 0.408827 0.911637 center 0.153 0.018 -0.028 ntor 13 161.8920 -99.5460 -128.9163 142.8696 55.9367 54.6734 128.8261 -93.6013 151.5992 -40.7950 -46.7446 -126.3154 -139.8228
State:	 -9.756  11.087  15.833  -0.029  0.098  0.995 48.535    161.89  -99.55 -128.92  142.87   55.94   54.67  128.83  -93.60  151.60  -40.79  -46.74 -126.32 -139.82

DOCKED: MODEL       46
DOCKED: USER    Run = 46
DOCKED: USER    DPF = D:/Protein_go_brrr/autodock/final/AncMH_nat/heme/dock.dpf
DOCKED: USER  
DOCKED: USER    Estimated Free Energy of Binding    =   -5.89 kcal/mol  [=(1)+(2)+(3)-(4)]
DOCKED: USER    Estimated Inhibition Constant, Ki   =   47.75 uM (micromolar)  [Temperature = 298.15 K]
DOCKED: USER    
DOCKED: USER    (1) Final Intermolecular Energy     =   -9.77 kcal/mol
DOCKED: USER        vdW + Hbond + desolv Energy     =   -8.76 kcal/mol
DOCKED: USER        Electrostatic Energy            =   -1.02 kcal/mol
DOCKED: USER    (2) Final Total Internal Energy     =   -2.14 kcal/mol
DOCKED: USER    (3) Torsional Free Energy           =   +3.88 kcal/mol
DOCKED: USER    (4) Unbound System's Energy  [=(2)] =   -2.14 kcal/mol
DOCKED: USER    
DOCKED: USER    
DOCKED: USER    NEWDPF move heme_opt.pdbqt
DOCKED: USER    NEWDPF about 0.153000 0.018000 -0.028000
DOCKED: USER    NEWDPF tran0 -9.755796 11.086819 15.833027
DOCKED: USER    NEWDPF quaternion0 -0.012032 0.040411 0.408827 0.911637
DOCKED: USER    NEWDPF axisangle0 -0.029275 0.098323 0.994724 48.534825
DOCKED: USER    NEWDPF quat0 -0.029275 0.098323 0.994724 48.534825
DOCKED: USER    NEWDPF dihe0 161.89 -99.55 -128.92 142.87 55.94 54.67 128.83 -93.60 151.60 -40.79 -46.74 -126.32 -139.82 
DOCKED: USER  keepresnum = 1 
DOCKED: USER  
DOCKED: REMARK  13 active torsions:
DOCKED: REMARK  status: ('A' for Active; 'I' for Inactive)
DOCKED: REMARK    1  A    between atoms: O_3  and  C_38 
DOCKED: REMARK    2  A    between atoms: O_4  and  C_40 
DOCKED: REMARK    3  A    between atoms: O_7  and  C_46 
DOCKED: REMARK    4  A    between atoms: O_9  and  C_48 
DOCKED: REMARK    5  A    between atoms: C_15  and  C_20 
DOCKED: REMARK    6  A    between atoms: C_16  and  C_23 
DOCKED: REMARK    7  A    between atoms: C_20  and  C_38 
DOCKED: REMARK    8  A    between atoms: C_23  and  C_40 
DOCKED: REMARK    9  A    between atoms: C_32  and  C_41 
DOCKED: REMARK   10  A    between atoms: C_37  and  C_45 
DOCKED: REMARK   11  A    between atoms: C_41  and  C_44 
DOCKED: REMARK   12  A    between atoms: C_44  and  C_46 
DOCKED: REMARK   13  A    between atoms: C_47  and  C_48 
DOCKED: USER                              x       y       z     vdW  Elec       q    Type
DOCKED: USER                           _______ _______ _______ _____ _____    ______ ____
DOCKED: ROOT
DOCKED: ATOM      1  O   UNL d   1     -12.270  16.406  16.213 -0.09 +0.18    -0.289 OA
DOCKED: ATOM      2  O   UNL d   1     -14.992   9.828  13.824 -0.24 -0.05    -0.289 OA
DOCKED: ATOM      3  N   UNL d   1     -10.354  13.542  16.044 -0.00 +0.12    -0.247 NA
DOCKED: ATOM      4  N   UNL d   1     -12.324  11.446  15.298 -0.09 +0.03    -0.247 NA
DOCKED: ATOM      5  N   UNL d   1     -10.351   9.475  15.996 -0.08 +0.06    -0.354 N 
DOCKED: ATOM      6  N   UNL d   1      -8.321  11.655  16.786 -0.06 +0.08    -0.354 N 
DOCKED: ATOM      7  C   UNL d   1     -10.002  15.810  16.904 -0.12 -0.04    +0.084 A 
DOCKED: ATOM      8  C   UNL d   1     -14.313  12.166  14.074 -0.12 -0.01    +0.084 A 
DOCKED: ATOM      9  C   UNL d   1     -13.026  12.531  14.821 -0.15 -0.01    +0.058 A 
DOCKED: ATOM     10  C   UNL d   1      -9.462  14.396  16.670 -0.04 -0.03    +0.058 A 
DOCKED: ATOM     11  C   UNL d   1     -11.351  15.610  16.282 -0.11 -0.11    +0.193 A 
DOCKED: ATOM     12  C   UNL d   1     -11.433  14.203  15.775 -0.05 -0.05    +0.109 A 
DOCKED: ATOM     13  C   UNL d   1     -14.231  10.676  14.247 -0.16 +0.01    +0.193 A 
DOCKED: ATOM     14  C   UNL d   1     -10.183  16.117  18.393 -0.04 -0.01    +0.026 C 
DOCKED: ATOM     15  C   UNL d   1     -12.646  13.800  15.036 -0.17 -0.02    +0.055 C 
DOCKED: ATOM     16  C   UNL d   1     -14.216  12.495  12.581 -0.34 -0.01    +0.026 C 
DOCKED: ATOM     17  C   UNL d   1     -12.984  10.370  15.011 -0.17 -0.00    +0.109 A 
DOCKED: ATOM     18  C   UNL d   1      -8.192  14.069  16.976 -0.14 -0.02    +0.050 C 
DOCKED: ATOM     19  C   UNL d   1      -7.582  12.815  16.719 -0.15 -0.01    +0.045 A 
DOCKED: ATOM     20  C   UNL d   1     -11.445   8.665  15.831 -0.24 -0.00    +0.045 A 
DOCKED: ATOM     21  C   UNL d   1     -12.660   8.982  15.370 -0.29 +0.00    +0.057 C 
DOCKED: ATOM     22  C   UNL d   1      -9.722   7.417  16.663 -0.31 +0.01    -0.019 A 
DOCKED: ATOM     23  C   UNL d   1      -9.262   8.811  16.494 -0.25 -0.01    +0.045 A 
DOCKED: ATOM     24  C   UNL d   1     -11.015   7.338  16.267 -0.30 +0.00    -0.022 A 
DOCKED: ATOM     25  C   UNL d   1      -7.515  10.557  16.593 -0.20 -0.01    +0.049 A 
DOCKED: ATOM     26  C   UNL d   1      -6.270  12.464  16.438 -0.16 +0.00    -0.018 A 
DOCKED: ATOM     27  C   UNL d   1      -6.238  11.038  16.340 -0.21 -0.00    +0.003 A 
DOCKED: ATOM     28  C   UNL d   1      -8.022   9.241  16.772 -0.27 -0.02    +0.052 C 
DOCKED: ATOM     29  C   UNL d   1     -11.910   6.146  16.238 -0.22 -0.01    +0.046 C 
DOCKED: ATOM     30  C   UNL d   1      -5.117  13.393  16.268 -0.11 -0.01    +0.046 C 
DOCKED: ATOM     31  H   UNL d   1     -10.362  10.443  15.692 +0.07 -0.03    +0.166 HD
DOCKED: ATOM     32  H   UNL d   1      -9.313  11.634  16.992 +0.04 -0.03    +0.166 HD
DOCKED: ENDROOT
DOCKED: BRANCH   7  33
DOCKED: ATOM     33  C   UNL d   1      -9.241  16.931  16.187 -0.17 -0.10    +0.141 C 
DOCKED: BRANCH  33  34
DOCKED: ATOM     34  C   UNL d   1      -9.498  18.284  16.793 -0.09 -0.19    +0.306 C 
DOCKED: ATOM     35  O   UNL d   1      -8.699  18.954  17.426 -0.05 +0.09    -0.251 OA
DOCKED: BRANCH  34  36
DOCKED: ATOM     36  O   UNL d   1     -10.748  18.725  16.565 -0.04 +0.44    -0.481 OA
DOCKED: ATOM     37  H   UNL d   1     -11.055  18.207  15.790 -0.43 -0.49    +0.295 HD
DOCKED: ENDBRANCH  34  36
DOCKED: ENDBRANCH  33  34
DOCKED: ENDBRANCH   7  33
DOCKED: BRANCH  27  38
DOCKED: ATOM     38  C   UNL d   1      -5.069  10.255  16.076 -0.17 -0.01    +0.017 C 
DOCKED: ATOM     39  C   UNL d   1      -4.243   9.757  17.008 -0.21 -0.05    +0.092 C 
DOCKED: BRANCH  39  40
DOCKED: ATOM     40  C   UNL d   1      -3.086   8.954  16.605 -0.20 -0.20    +0.330 C 
DOCKED: ATOM     41  O   UNL d   1      -2.222   9.247  15.801 -0.23 +0.08    -0.246 OA
DOCKED: BRANCH  40  42
DOCKED: ATOM     42  O   UNL d   1      -3.079   7.788  17.270 -0.14 +0.51    -0.477 OA
DOCKED: ATOM     43  H   UNL d   1      -3.721   7.234  16.779 -0.45 -0.72    +0.295 HD
DOCKED: ENDBRANCH  40  42
DOCKED: ENDBRANCH  39  40
DOCKED: ENDBRANCH  27  38
DOCKED: BRANCH   8  44
DOCKED: ATOM     44  C   UNL d   1     -15.608  12.718  14.680 -0.05 -0.00    +0.141 C 
DOCKED: BRANCH  44  45
DOCKED: ATOM     45  C   UNL d   1     -16.240  11.787  15.680 -0.03 +0.06    +0.306 C 
DOCKED: ATOM     46  O   UNL d   1     -15.966  11.697  16.864 -0.01 -0.04    -0.251 OA
DOCKED: BRANCH  45  47
DOCKED: ATOM     47  O   UNL d   1     -17.174  10.993  15.124 -0.04 -0.25    -0.481 OA
DOCKED: ATOM     48  H   UNL d   1     -16.733  10.605  14.339 +0.08 +0.15    +0.295 HD
DOCKED: ENDBRANCH  45  47
DOCKED: ENDBRANCH  44  45
DOCKED: ENDBRANCH   8  44
DOCKED: BRANCH  22  49
DOCKED: ATOM     49  C   UNL d   1      -8.868   6.308  17.203 -0.16 -0.03    +0.048 C 
DOCKED: BRANCH  49  50
DOCKED: ATOM     50  C   UNL d   1      -9.632   5.437  18.200 -0.19 -0.05    +0.125 C 
DOCKED: BRANCH  50  51
DOCKED: ATOM     51  C   UNL d   1      -9.407   3.978  17.921 -0.16 -0.08    +0.305 C 
DOCKED: ATOM     52  O   UNL d   1     -10.146   3.212  17.328 -0.74 -0.01    -0.251 OA
DOCKED: BRANCH  51  53
DOCKED: ATOM     53  O   UNL d   1      -8.235   3.543  18.426 -0.10 +0.28    -0.481 OA
DOCKED: ATOM     54  H   UNL d   1      -7.621   4.293  18.283 -0.38 -0.39    +0.295 HD
DOCKED: ENDBRANCH  51  53
DOCKED: ENDBRANCH  50  51
DOCKED: ENDBRANCH  49  50
DOCKED: ENDBRANCH  22  49
DOCKED: TORSDOF 13
DOCKED: TER
DOCKED: ENDMDL
________________________________________________________________________________


	BEGINNING GENETIC ALGORITHM DOCKING 47 of 100
Run: 47 Seed: 1815602102 376435901 [ Run 47 of 100 GA/GALS ]
Beginning LAMARCKIAN GENETIC ALGORITHM (LGA), with a maximum of 25000000 energy evaluations.

Final-Value: -10.186


	FINAL GENETIC ALGORITHM DOCKED STATE
	_______________________________________________


Detailed state:  trans -17.231 -13.786 2.164 quatxyzw 0.780810 -0.314662 -0.449039 -0.299478 center 0.153 0.018 -0.028 ntor 13 163.2977 33.9291 141.0048 91.3825 -143.7178 157.8156 -43.4199 102.1262 35.3347 -111.3042 136.5142 48.0327 -179.6096
State:	-17.231 -13.786   2.164   0.818 -0.330 -0.471 -145.148    163.30   33.93  141.00   91.38 -143.72  157.82  -43.42  102.13   35.33 -111.30  136.51   48.03 -179.61

DOCKED: MODEL       47
DOCKED: USER    Run = 47
DOCKED: USER    DPF = D:/Protein_go_brrr/autodock/final/AncMH_nat/heme/dock.dpf
DOCKED: USER  
DOCKED: USER    Estimated Free Energy of Binding    =   -3.80 kcal/mol  [=(1)+(2)+(3)-(4)]
DOCKED: USER    Estimated Inhibition Constant, Ki   =    1.64 mM (millimolar)  [Temperature = 298.15 K]
DOCKED: USER    
DOCKED: USER    (1) Final Intermolecular Energy     =   -7.68 kcal/mol
DOCKED: USER        vdW + Hbond + desolv Energy     =   -7.31 kcal/mol
DOCKED: USER        Electrostatic Energy            =   -0.37 kcal/mol
DOCKED: USER    (2) Final Total Internal Energy     =   -2.51 kcal/mol
DOCKED: USER    (3) Torsional Free Energy           =   +3.88 kcal/mol
DOCKED: USER    (4) Unbound System's Energy  [=(2)] =   -2.51 kcal/mol
DOCKED: USER    
DOCKED: USER    
DOCKED: USER    NEWDPF move heme_opt.pdbqt
DOCKED: USER    NEWDPF about 0.153000 0.018000 -0.028000
DOCKED: USER    NEWDPF tran0 -17.230796 -13.785506 2.163924
DOCKED: USER    NEWDPF quaternion0 0.780810 -0.314662 -0.449039 -0.299478
DOCKED: USER    NEWDPF axisangle0 0.818371 -0.329799 -0.470640 -145.147511
DOCKED: USER    NEWDPF quat0 0.818371 -0.329799 -0.470640 -145.147511
DOCKED: USER    NEWDPF dihe0 163.30 33.93 141.00 91.38 -143.72 157.82 -43.42 102.13 35.33 -111.30 136.51 48.03 -179.61 
DOCKED: USER  keepresnum = 1 
DOCKED: USER  
DOCKED: REMARK  13 active torsions:
DOCKED: REMARK  status: ('A' for Active; 'I' for Inactive)
DOCKED: REMARK    1  A    between atoms: O_3  and  C_38 
DOCKED: REMARK    2  A    between atoms: O_4  and  C_40 
DOCKED: REMARK    3  A    between atoms: O_7  and  C_46 
DOCKED: REMARK    4  A    between atoms: O_9  and  C_48 
DOCKED: REMARK    5  A    between atoms: C_15  and  C_20 
DOCKED: REMARK    6  A    between atoms: C_16  and  C_23 
DOCKED: REMARK    7  A    between atoms: C_20  and  C_38 
DOCKED: REMARK    8  A    between atoms: C_23  and  C_40 
DOCKED: REMARK    9  A    between atoms: C_32  and  C_41 
DOCKED: REMARK   10  A    between atoms: C_37  and  C_45 
DOCKED: REMARK   11  A    between atoms: C_41  and  C_44 
DOCKED: REMARK   12  A    between atoms: C_44  and  C_46 
DOCKED: REMARK   13  A    between atoms: C_47  and  C_48 
DOCKED: USER                              x       y       z     vdW  Elec       q    Type
DOCKED: USER                           _______ _______ _______ _____ _____    ______ ____
DOCKED: ROOT
DOCKED: ATOM      1  O   UNL d   1     -20.420 -10.691   6.038 -0.06 -0.04    -0.289 OA
DOCKED: ATOM      2  O   UNL d   1     -15.807  -8.456   0.550 -0.21 -0.22    -0.289 OA
DOCKED: ATOM      3  N   UNL d   1     -18.637 -12.901   4.081 -0.44 -0.07    -0.247 NA
DOCKED: ATOM      4  N   UNL d   1     -17.371 -11.144   2.046 -0.07 -0.08    -0.247 NA
DOCKED: ATOM      5  N   UNL d   1     -16.742 -13.506   0.532 -0.15 -0.07    -0.354 N 
DOCKED: ATOM      6  N   UNL d   1     -18.074 -15.320   2.639 -0.06 -0.03    -0.354 N 
DOCKED: ATOM      7  C   UNL d   1     -20.360 -13.124   5.809 -0.06 +0.01    +0.084 A 
DOCKED: ATOM      8  C   UNL d   1     -16.974  -8.815   2.671 -0.20 +0.04    +0.084 A 
DOCKED: ATOM      9  C   UNL d   1     -17.570 -10.185   3.014 -0.18 +0.02    +0.058 A 
DOCKED: ATOM     10  C   UNL d   1     -19.418 -13.789   4.801 -0.08 +0.01    +0.058 A 
DOCKED: ATOM     11  C   UNL d   1     -19.959 -11.704   5.545 -0.11 +0.03    +0.193 A 
DOCKED: ATOM     12  C   UNL d   1     -18.890 -11.703   4.496 -0.19 +0.02    +0.109 A 
DOCKED: ATOM     13  C   UNL d   1     -16.432  -9.165   1.314 -0.14 +0.10    +0.193 A 
DOCKED: ATOM     14  C   UNL d   1     -21.831 -13.303   5.426 -0.02 +0.00    +0.026 C 
DOCKED: ATOM     15  C   UNL d   1     -18.270 -10.411   4.136 -0.25 +0.01    +0.055 C 
DOCKED: ATOM     16  C   UNL d   1     -15.803  -8.459   3.592 -0.39 +0.01    +0.026 C 
DOCKED: ATOM     17  C   UNL d   1     -16.745 -10.602   1.051 -0.15 +0.04    +0.109 A 
DOCKED: ATOM     18  C   UNL d   1     -19.317 -15.128   4.711 -0.08 +0.01    +0.050 C 
DOCKED: ATOM     19  C   UNL d   1     -18.415 -15.830   3.871 +0.04 +0.00    +0.045 A 
DOCKED: ATOM     20  C   UNL d   1     -16.418 -12.543  -0.388 -0.23 +0.01    +0.045 A 
DOCKED: ATOM     21  C   UNL d   1     -16.370 -11.216  -0.231 -0.23 +0.02    +0.057 C 
DOCKED: ATOM     22  C   UNL d   1     -16.278 -14.594  -1.385 -0.04 -0.00    -0.019 A 
DOCKED: ATOM     23  C   UNL d   1     -16.686 -14.776   0.023 -0.17 +0.01    +0.045 A 
DOCKED: ATOM     24  C   UNL d   1     -16.120 -13.270  -1.621 -0.18 -0.00    -0.022 A 
DOCKED: ATOM     25  C   UNL d   1     -17.266 -16.201   1.958 -0.18 +0.00    +0.049 A 
DOCKED: ATOM     26  C   UNL d   1     -17.784 -17.056   4.010 -0.09 -0.00    -0.018 A 
DOCKED: ATOM     27  C   UNL d   1     -17.043 -17.276   2.807 -0.15 +0.00    +0.003 A 
DOCKED: ATOM     28  C   UNL d   1     -16.910 -15.965   0.602 -0.20 +0.01    +0.052 C 
DOCKED: ATOM     29  C   UNL d   1     -15.707 -12.591  -2.883 -0.15 +0.01    +0.046 C 
DOCKED: ATOM     30  C   UNL d   1     -17.859 -17.969   5.187 -0.06 +0.00    +0.046 C 
DOCKED: ATOM     31  H   UNL d   1     -16.919 -13.268   1.502 +0.04 +0.04    +0.166 HD
DOCKED: ATOM     32  H   UNL d   1     -18.416 -14.434   2.285 +0.03 +0.02    +0.166 HD
DOCKED: ENDROOT
DOCKED: BRANCH   7  33
DOCKED: ATOM     33  C   UNL d   1     -20.113 -13.487   7.278 -0.06 +0.00    +0.141 C 
DOCKED: BRANCH  33  34
DOCKED: ATOM     34  C   UNL d   1     -19.019 -12.664   7.902 -0.13 +0.02    +0.306 C 
DOCKED: ATOM     35  O   UNL d   1     -17.831 -12.938   7.916 -0.24 +0.01    -0.251 OA
DOCKED: BRANCH  34  36
DOCKED: ATOM     36  O   UNL d   1     -19.480 -11.538   8.474 -0.68 -0.11    -0.481 OA
DOCKED: ATOM     37  H   UNL d   1     -20.360 -11.396   8.065 +0.06 +0.06    +0.295 HD
DOCKED: ENDBRANCH  34  36
DOCKED: ENDBRANCH  33  34
DOCKED: ENDBRANCH   7  33
DOCKED: BRANCH  27  38
DOCKED: ATOM     38  C   UNL d   1     -16.254 -18.437   2.525 -0.15 +0.00    +0.017 C 
DOCKED: ATOM     39  C   UNL d   1     -14.932 -18.542   2.729 -0.15 +0.01    +0.092 C 
DOCKED: BRANCH  39  40
DOCKED: ATOM     40  C   UNL d   1     -14.242 -19.796   2.413 -0.06 +0.01    +0.330 C 
DOCKED: ATOM     41  O   UNL d   1     -13.065 -19.951   2.149 -0.12 -0.01    -0.246 OA
DOCKED: BRANCH  40  42
DOCKED: ATOM     42  O   UNL d   1     -15.106 -20.822   2.459 +0.00 +0.00    -0.477 OA
DOCKED: ATOM     43  H   UNL d   1     -14.565 -21.569   2.789 +0.03 -0.01    +0.295 HD
DOCKED: ENDBRANCH  40  42
DOCKED: ENDBRANCH  39  40
DOCKED: ENDBRANCH  27  38
DOCKED: BRANCH   8  44
DOCKED: ATOM     44  C   UNL d   1     -17.979  -7.662   2.580 -0.14 +0.06    +0.141 C 
DOCKED: BRANCH  44  45
DOCKED: ATOM     45  C   UNL d   1     -17.452  -6.474   1.819 -0.07 +0.27    +0.306 C 
DOCKED: ATOM     46  O   UNL d   1     -16.807  -5.546   2.275 -0.50 -0.28    -0.251 OA
DOCKED: BRANCH  45  47
DOCKED: ATOM     47  O   UNL d   1     -17.794  -6.505   0.518 -0.56 -0.56    -0.481 OA
DOCKED: ATOM     48  H   UNL d   1     -17.699  -7.446   0.259 +0.06 +0.27    +0.295 HD
DOCKED: ENDBRANCH  45  47
DOCKED: ENDBRANCH  44  45
DOCKED: ENDBRANCH   8  44
DOCKED: BRANCH  22  49
DOCKED: ATOM     49  C   UNL d   1     -16.097 -15.718  -2.362 -0.11 +0.01    +0.048 C 
DOCKED: BRANCH  49  50
DOCKED: ATOM     50  C   UNL d   1     -17.338 -15.922  -3.230 -0.04 +0.01    +0.125 C 
DOCKED: BRANCH  50  51
DOCKED: ATOM     51  C   UNL d   1     -18.591 -15.827  -2.407 -0.01 +0.02    +0.305 C 
DOCKED: ATOM     52  O   UNL d   1     -19.304 -14.851  -2.248 -0.01 -0.02    -0.251 OA
DOCKED: BRANCH  51  53
DOCKED: ATOM     53  O   UNL d   1     -18.885 -16.994  -1.799 +0.00 -0.02    -0.481 OA
DOCKED: ATOM     54  H   UNL d   1     -19.440 -17.469  -2.452 +0.01 +0.01    +0.295 HD
DOCKED: ENDBRANCH  51  53
DOCKED: ENDBRANCH  50  51
DOCKED: ENDBRANCH  49  50
DOCKED: ENDBRANCH  22  49
DOCKED: TORSDOF 13
DOCKED: TER
DOCKED: ENDMDL
________________________________________________________________________________


	BEGINNING GENETIC ALGORITHM DOCKING 48 of 100
Run: 48 Seed: 260709944 919603018 [ Run 48 of 100 GA/GALS ]
Beginning LAMARCKIAN GENETIC ALGORITHM (LGA), with a maximum of 25000000 energy evaluations.

Final-Value: -11.414


	FINAL GENETIC ALGORITHM DOCKED STATE
	_______________________________________________


Detailed state:  trans -2.369 -9.873 -12.940 quatxyzw -0.021617 -0.385423 -0.651148 0.653444 center 0.153 0.018 -0.028 ntor 13 76.4427 45.3469 -106.5872 147.2644 178.4091 93.4100 128.1503 4.1245 107.6089 -38.3748 18.6879 16.9177 -164.8172
State:	 -2.369  -9.873 -12.940  -0.029 -0.509 -0.860 98.396     76.44   45.35 -106.59  147.26  178.41   93.41  128.15    4.12  107.61  -38.37   18.69   16.92 -164.82

DOCKED: MODEL       48
DOCKED: USER    Run = 48
DOCKED: USER    DPF = D:/Protein_go_brrr/autodock/final/AncMH_nat/heme/dock.dpf
DOCKED: USER  
DOCKED: USER    Estimated Free Energy of Binding    =   -5.25 kcal/mol  [=(1)+(2)+(3)-(4)]
DOCKED: USER    Estimated Inhibition Constant, Ki   =  140.92 uM (micromolar)  [Temperature = 298.15 K]
DOCKED: USER    
DOCKED: USER    (1) Final Intermolecular Energy     =   -9.13 kcal/mol
DOCKED: USER        vdW + Hbond + desolv Energy     =   -9.06 kcal/mol
DOCKED: USER        Electrostatic Energy            =   -0.07 kcal/mol
DOCKED: USER    (2) Final Total Internal Energy     =   -2.28 kcal/mol
DOCKED: USER    (3) Torsional Free Energy           =   +3.88 kcal/mol
DOCKED: USER    (4) Unbound System's Energy  [=(2)] =   -2.28 kcal/mol
DOCKED: USER    
DOCKED: USER    
DOCKED: USER    NEWDPF move heme_opt.pdbqt
DOCKED: USER    NEWDPF about 0.153000 0.018000 -0.028000
DOCKED: USER    NEWDPF tran0 -2.368702 -9.873138 -12.939690
DOCKED: USER    NEWDPF quaternion0 -0.021617 -0.385423 -0.651148 0.653444
DOCKED: USER    NEWDPF axisangle0 -0.028558 -0.509162 -0.860197 98.396489
DOCKED: USER    NEWDPF quat0 -0.028558 -0.509162 -0.860197 98.396489
DOCKED: USER    NEWDPF dihe0 76.44 45.35 -106.59 147.26 178.41 93.41 128.15 4.12 107.61 -38.37 18.69 16.92 -164.82 
DOCKED: USER  keepresnum = 1 
DOCKED: USER  
DOCKED: REMARK  13 active torsions:
DOCKED: REMARK  status: ('A' for Active; 'I' for Inactive)
DOCKED: REMARK    1  A    between atoms: O_3  and  C_38 
DOCKED: REMARK    2  A    between atoms: O_4  and  C_40 
DOCKED: REMARK    3  A    between atoms: O_7  and  C_46 
DOCKED: REMARK    4  A    between atoms: O_9  and  C_48 
DOCKED: REMARK    5  A    between atoms: C_15  and  C_20 
DOCKED: REMARK    6  A    between atoms: C_16  and  C_23 
DOCKED: REMARK    7  A    between atoms: C_20  and  C_38 
DOCKED: REMARK    8  A    between atoms: C_23  and  C_40 
DOCKED: REMARK    9  A    between atoms: C_32  and  C_41 
DOCKED: REMARK   10  A    between atoms: C_37  and  C_45 
DOCKED: REMARK   11  A    between atoms: C_41  and  C_44 
DOCKED: REMARK   12  A    between atoms: C_44  and  C_46 
DOCKED: REMARK   13  A    between atoms: C_47  and  C_48 
DOCKED: USER                              x       y       z     vdW  Elec       q    Type
DOCKED: USER                           _______ _______ _______ _____ _____    ______ ____
DOCKED: ROOT
DOCKED: ATOM      1  O   UNL d   1      -2.619 -14.179  -8.921 -0.10 +0.10    -0.289 OA
DOCKED: ATOM      2  O   UNL d   1       1.220 -13.659 -15.354 -0.01 +0.03    -0.289 OA
DOCKED: ATOM      3  N   UNL d   1      -2.896 -11.479 -11.048 -0.16 +0.08    -0.247 NA
DOCKED: ATOM      4  N   UNL d   1      -0.825 -12.018 -13.110 -0.11 +0.10    -0.247 NA
DOCKED: ATOM      5  N   UNL d   1      -1.127  -9.298 -13.992 -0.01 +0.09    -0.354 N 
DOCKED: ATOM      6  N   UNL d   1      -3.260  -8.741 -11.837 -0.15 +0.08    -0.354 N 
DOCKED: ATOM      7  C   UNL d   1      -3.756 -12.018  -8.817 -0.30 -0.01    +0.084 A 
DOCKED: ATOM      8  C   UNL d   1      -0.209 -14.352 -13.491 -0.05 -0.02    +0.084 A 
DOCKED: ATOM      9  C   UNL d   1      -0.995 -13.316 -12.681 -0.12 -0.02    +0.058 A 
DOCKED: ATOM     10  C   UNL d   1      -3.655 -11.028  -9.981 -0.29 -0.01    +0.058 A 
DOCKED: ATOM     11  C   UNL d   1      -2.935 -13.116  -9.423 -0.14 -0.05    +0.193 A 
DOCKED: ATOM     12  C   UNL d   1      -2.493 -12.679 -10.785 -0.12 -0.04    +0.109 A 
DOCKED: ATOM     13  C   UNL d   1       0.468 -13.398 -14.435 -0.04 -0.03    +0.193 A 
DOCKED: ATOM     14  C   UNL d   1      -3.046 -11.504  -7.562 -0.40 +0.00    +0.026 C 
DOCKED: ATOM     15  C   UNL d   1      -1.742 -13.643 -11.616 -0.07 -0.02    +0.055 C 
DOCKED: ATOM     16  C   UNL d   1      -1.137 -15.267 -14.297 -0.02 -0.00    +0.026 C 
DOCKED: ATOM     17  C   UNL d   1       0.016 -12.016 -14.094 -0.12 -0.03    +0.109 A 
DOCKED: ATOM     18  C   UNL d   1      -4.332  -9.864  -9.975 -0.37 +0.00    +0.050 C 
DOCKED: ATOM     19  C   UNL d   1      -4.366  -8.927 -11.039 -0.27 +0.00    +0.045 A 
DOCKED: ATOM     20  C   UNL d   1      -0.015  -9.657 -14.709 -0.13 -0.01    +0.045 A 
DOCKED: ATOM     21  C   UNL d   1       0.552 -10.861 -14.830 -0.14 -0.01    +0.057 C 
DOCKED: ATOM     22  C   UNL d   1      -0.382  -7.419 -14.985 -0.21 +0.00    -0.019 A 
DOCKED: ATOM     23  C   UNL d   1      -1.427  -7.966 -14.097 -0.19 -0.01    +0.045 A 
DOCKED: ATOM     24  C   UNL d   1       0.449  -8.425 -15.346 -0.15 +0.00    -0.022 A 
DOCKED: ATOM     25  C   UNL d   1      -3.481  -7.728 -12.741 -0.30 -0.01    +0.049 A 
DOCKED: ATOM     26  C   UNL d   1      -5.343  -8.038 -11.459 -0.20 -0.00    -0.018 A 
DOCKED: ATOM     27  C   UNL d   1      -4.785  -7.297 -12.547 -0.25 +0.00    +0.003 A 
DOCKED: ATOM     28  C   UNL d   1      -2.429  -7.247 -13.569 -0.35 -0.01    +0.052 C 
DOCKED: ATOM     29  C   UNL d   1       1.643  -8.374 -16.237 -0.09 -0.00    +0.046 C 
DOCKED: ATOM     30  C   UNL d   1      -6.712  -7.884 -10.888 -0.19 +0.02    +0.046 C 
DOCKED: ATOM     31  H   UNL d   1      -1.690  -9.993 -13.512 -0.36 -0.07    +0.166 HD
DOCKED: ATOM     32  H   UNL d   1      -2.397  -9.262 -11.729 -0.18 -0.10    +0.166 HD
DOCKED: ENDROOT
DOCKED: BRANCH   7  33
DOCKED: ATOM     33  C   UNL d   1      -5.170 -12.516  -8.500 -0.20 -0.03    +0.141 C 
DOCKED: BRANCH  33  34
DOCKED: ATOM     34  C   UNL d   1      -5.172 -13.854  -7.812 -0.10 -0.11    +0.306 C 
DOCKED: ATOM     35  O   UNL d   1      -5.800 -14.841  -8.158 -0.06 +0.08    -0.251 OA
DOCKED: BRANCH  34  36
DOCKED: ATOM     36  O   UNL d   1      -4.379 -13.881  -6.726 -0.11 +0.15    -0.481 OA
DOCKED: ATOM     37  H   UNL d   1      -3.597 -14.404  -7.004 +0.12 -0.08    +0.295 HD
DOCKED: ENDBRANCH  34  36
DOCKED: ENDBRANCH  33  34
DOCKED: ENDBRANCH   7  33
DOCKED: BRANCH  27  38
DOCKED: ATOM     38  C   UNL d   1      -5.456  -6.257 -13.267 -0.15 +0.00    +0.017 C 
DOCKED: ATOM     39  C   UNL d   1      -5.609  -6.212 -14.599 -0.13 +0.01    +0.092 C 
DOCKED: BRANCH  39  40
DOCKED: ATOM     40  C   UNL d   1      -6.334  -5.097 -15.214 -0.06 +0.04    +0.330 C 
DOCKED: ATOM     41  O   UNL d   1      -5.876  -4.048 -15.624 -0.63 -0.05    -0.246 OA
DOCKED: BRANCH  40  42
DOCKED: ATOM     42  O   UNL d   1      -7.643  -5.382 -15.287 -0.02 -0.03    -0.477 OA
DOCKED: ATOM     43  H   UNL d   1      -7.892  -5.113 -16.195 +0.02 +0.01    +0.295 HD
DOCKED: ENDBRANCH  40  42
DOCKED: ENDBRANCH  39  40
DOCKED: ENDBRANCH  27  38
DOCKED: BRANCH   8  44
DOCKED: ATOM     44  C   UNL d   1       0.821 -15.165 -12.700 -0.06 -0.03    +0.141 C 
DOCKED: BRANCH  44  45
DOCKED: ATOM     45  C   UNL d   1       2.173 -14.506 -12.633 -0.07 -0.05    +0.306 C 
DOCKED: ATOM     46  O   UNL d   1       2.527 -13.651 -11.840 -0.66 +0.02    -0.251 OA
DOCKED: BRANCH  45  47
DOCKED: ATOM     47  O   UNL d   1       3.007 -14.944 -13.594 +0.00 +0.06    -0.481 OA
DOCKED: ATOM     48  H   UNL d   1       2.665 -14.541 -14.421 +0.02 -0.03    +0.295 HD
DOCKED: ENDBRANCH  45  47
DOCKED: ENDBRANCH  44  45
DOCKED: ENDBRANCH   8  44
DOCKED: BRANCH  22  49
DOCKED: ATOM     49  C   UNL d   1      -0.287  -5.975 -15.384 -0.24 -0.00    +0.048 C 
DOCKED: BRANCH  49  50
DOCKED: ATOM     50  C   UNL d   1       0.941  -5.298 -14.775 -0.30 -0.02    +0.125 C 
DOCKED: BRANCH  50  51
DOCKED: ATOM     51  C   UNL d   1       0.783  -3.803 -14.775 -0.19 -0.03    +0.305 C 
DOCKED: ATOM     52  O   UNL d   1      -0.147  -3.154 -15.218 -0.15 +0.01    -0.251 OA
DOCKED: BRANCH  51  53
DOCKED: ATOM     53  O   UNL d   1       1.841  -3.185 -14.212 -0.09 +0.06    -0.481 OA
DOCKED: ATOM     54  H   UNL d   1       2.136  -3.807 -13.514 -0.41 -0.13    +0.295 HD
DOCKED: ENDBRANCH  51  53
DOCKED: ENDBRANCH  50  51
DOCKED: ENDBRANCH  49  50
DOCKED: ENDBRANCH  22  49
DOCKED: TORSDOF 13
DOCKED: TER
DOCKED: ENDMDL
________________________________________________________________________________


	BEGINNING GENETIC ALGORITHM DOCKING 49 of 100
Run: 49 Seed: 882410923 340232262 [ Run 49 of 100 GA/GALS ]
Beginning LAMARCKIAN GENETIC ALGORITHM (LGA), with a maximum of 25000000 energy evaluations.

Final-Value: -11.236


	FINAL GENETIC ALGORITHM DOCKED STATE
	_______________________________________________


Detailed state:  trans -14.366 9.754 -2.918 quatxyzw 0.808402 -0.097176 -0.399216 -0.421509 center 0.153 0.018 -0.028 ntor 13 -138.9185 76.8285 -121.4774 152.3691 42.5641 -14.7175 130.6235 33.5028 157.0035 -27.9785 110.1507 -23.6374 40.3962
State:	-14.366   9.754  -2.918   0.891 -0.107 -0.440 -130.140   -138.92   76.83 -121.48  152.37   42.56  -14.72  130.62   33.50  157.00  -27.98  110.15  -23.64   40.40

DOCKED: MODEL       49
DOCKED: USER    Run = 49
DOCKED: USER    DPF = D:/Protein_go_brrr/autodock/final/AncMH_nat/heme/dock.dpf
DOCKED: USER  
DOCKED: USER    Estimated Free Energy of Binding    =   -4.10 kcal/mol  [=(1)+(2)+(3)-(4)]
DOCKED: USER    Estimated Inhibition Constant, Ki   =  982.53 uM (micromolar)  [Temperature = 298.15 K]
DOCKED: USER    
DOCKED: USER    (1) Final Intermolecular Energy     =   -7.98 kcal/mol
DOCKED: USER        vdW + Hbond + desolv Energy     =   -7.46 kcal/mol
DOCKED: USER        Electrostatic Energy            =   -0.52 kcal/mol
DOCKED: USER    (2) Final Total Internal Energy     =   -3.26 kcal/mol
DOCKED: USER    (3) Torsional Free Energy           =   +3.88 kcal/mol
DOCKED: USER    (4) Unbound System's Energy  [=(2)] =   -3.26 kcal/mol
DOCKED: USER    
DOCKED: USER    
DOCKED: USER    NEWDPF move heme_opt.pdbqt
DOCKED: USER    NEWDPF about 0.153000 0.018000 -0.028000
DOCKED: USER    NEWDPF tran0 -14.366183 9.753910 -2.918438
DOCKED: USER    NEWDPF quaternion0 0.808402 -0.097176 -0.399216 -0.421509
DOCKED: USER    NEWDPF axisangle0 0.891465 -0.107161 -0.440235 -130.140252
DOCKED: USER    NEWDPF quat0 0.891465 -0.107161 -0.440235 -130.140252
DOCKED: USER    NEWDPF dihe0 -138.92 76.83 -121.48 152.37 42.56 -14.72 130.62 33.50 157.00 -27.98 110.15 -23.64 40.40 
DOCKED: USER  keepresnum = 1 
DOCKED: USER  
DOCKED: REMARK  13 active torsions:
DOCKED: REMARK  status: ('A' for Active; 'I' for Inactive)
DOCKED: REMARK    1  A    between atoms: O_3  and  C_38 
DOCKED: REMARK    2  A    between atoms: O_4  and  C_40 
DOCKED: REMARK    3  A    between atoms: O_7  and  C_46 
DOCKED: REMARK    4  A    between atoms: O_9  and  C_48 
DOCKED: REMARK    5  A    between atoms: C_15  and  C_20 
DOCKED: REMARK    6  A    between atoms: C_16  and  C_23 
DOCKED: REMARK    7  A    between atoms: C_20  and  C_38 
DOCKED: REMARK    8  A    between atoms: C_23  and  C_40 
DOCKED: REMARK    9  A    between atoms: C_32  and  C_41 
DOCKED: REMARK   10  A    between atoms: C_37  and  C_45 
DOCKED: REMARK   11  A    between atoms: C_41  and  C_44 
DOCKED: REMARK   12  A    between atoms: C_44  and  C_46 
DOCKED: REMARK   13  A    between atoms: C_47  and  C_48 
DOCKED: USER                              x       y       z     vdW  Elec       q    Type
DOCKED: USER                           _______ _______ _______ _____ _____    ______ ____
DOCKED: ROOT
DOCKED: ATOM      1  O   UNL d   1     -18.251  11.076   1.314 -0.06 +0.06    -0.289 OA
DOCKED: ATOM      2  O   UNL d   1     -15.847  15.052  -4.585 -0.01 -0.00    -0.289 OA
DOCKED: ATOM      3  N   UNL d   1     -15.827   9.924  -0.852 -0.05 +0.01    -0.247 NA
DOCKED: ATOM      4  N   UNL d   1     -15.770  11.999  -2.978 -0.08 +0.02    -0.247 NA
DOCKED: ATOM      5  N   UNL d   1     -14.235  10.175  -4.587 -0.00 -0.01    -0.354 N 
DOCKED: ATOM      6  N   UNL d   1     -14.316   8.021  -2.384 -0.07 -0.06    -0.354 N 
DOCKED: ATOM      7  C   UNL d   1     -17.051   8.963   1.042 -0.21 +0.01    +0.084 A 
DOCKED: ATOM      8  C   UNL d   1     -16.482  14.253  -2.360 -0.09 -0.02    +0.084 A 
DOCKED: ATOM      9  C   UNL d   1     -16.309  12.778  -1.980 -0.15 -0.02    +0.058 A 
DOCKED: ATOM     10  C   UNL d   1     -16.011   8.796  -0.069 -0.26 +0.00    +0.058 A 
DOCKED: ATOM     11  C   UNL d   1     -17.411  10.391   0.760 -0.12 -0.03    +0.193 A 
DOCKED: ATOM     12  C   UNL d   1     -16.583  10.868  -0.393 -0.19 -0.03    +0.109 A 
DOCKED: ATOM     13  C   UNL d   1     -15.975  14.158  -3.772 -0.04 -0.01    +0.193 A 
DOCKED: ATOM     14  C   UNL d   1     -18.285   8.087   0.810 -0.13 +0.01    +0.026 C 
DOCKED: ATOM     15  C   UNL d   1     -16.699  12.284  -0.795 -0.19 -0.03    +0.055 C 
DOCKED: ATOM     16  C   UNL d   1     -15.542  15.159  -1.560 -0.23 -0.01    +0.026 C 
DOCKED: ATOM     17  C   UNL d   1     -15.583  12.738  -4.024 -0.10 -0.00    +0.109 A 
DOCKED: ATOM     18  C   UNL d   1     -15.287   7.667  -0.191 -0.34 +0.01    +0.050 C 
DOCKED: ATOM     19  C   UNL d   1     -14.247   7.454  -1.131 -0.30 +0.01    +0.045 A 
DOCKED: ATOM     20  C   UNL d   1     -14.507  11.142  -5.520 -0.11 -0.00    +0.045 A 
DOCKED: ATOM     21  C   UNL d   1     -15.087  12.334  -5.348 -0.11 -0.00    +0.057 C 
DOCKED: ATOM     22  C   UNL d   1     -13.497   9.376  -6.559 -0.09 +0.00    -0.019 A 
DOCKED: ATOM     23  C   UNL d   1     -13.626   9.071  -5.120 -0.12 -0.00    +0.045 A 
DOCKED: ATOM     24  C   UNL d   1     -14.019  10.604  -6.790 -0.08 +0.00    -0.022 A 
DOCKED: ATOM     25  C   UNL d   1     -13.256   7.612  -3.159 -0.20 +0.00    +0.049 A 
DOCKED: ATOM     26  C   UNL d   1     -13.094   6.687  -1.079 -0.40 -0.01    -0.018 A 
DOCKED: ATOM     27  C   UNL d   1     -12.462   6.806  -2.355 -0.33 +0.00    +0.003 A 
DOCKED: ATOM     28  C   UNL d   1     -13.193   7.941  -4.540 -0.17 -0.00    +0.052 C 
DOCKED: ATOM     29  C   UNL d   1     -14.110  11.352  -8.076 -0.04 -0.00    +0.046 C 
DOCKED: ATOM     30  C   UNL d   1     -12.605   5.893   0.085 -0.29 +0.02    +0.046 C 
DOCKED: ATOM     31  H   UNL d   1     -14.409  10.334  -3.600 +0.09 +0.01    +0.166 HD
DOCKED: ATOM     32  H   UNL d   1     -15.075   8.621  -2.686 +0.04 +0.02    +0.166 HD
DOCKED: ENDROOT
DOCKED: BRANCH   7  33
DOCKED: ATOM     33  C   UNL d   1     -16.517   8.815   2.470 -0.23 +0.02    +0.141 C 
DOCKED: BRANCH  33  34
DOCKED: ATOM     34  C   UNL d   1     -17.583   8.401   3.448 -0.21 +0.09    +0.306 C 
DOCKED: ATOM     35  O   UNL d   1     -17.811   7.264   3.827 -0.30 -0.14    -0.251 OA
DOCKED: BRANCH  34  36
DOCKED: ATOM     36  O   UNL d   1     -18.306   9.441   3.898 -0.04 -0.08    -0.481 OA
DOCKED: ATOM     37  H   UNL d   1     -18.417  10.022   3.115 +0.11 +0.02    +0.295 HD
DOCKED: ENDBRANCH  34  36
DOCKED: ENDBRANCH  33  34
DOCKED: ENDBRANCH   7  33
DOCKED: BRANCH  27  38
DOCKED: ATOM     38  C   UNL d   1     -11.243   6.158  -2.736 -0.36 +0.00    +0.017 C 
DOCKED: ATOM     39  C   UNL d   1     -10.518   6.451  -3.826 -0.33 -0.02    +0.092 C 
DOCKED: BRANCH  39  40
DOCKED: ATOM     40  C   UNL d   1      -9.276   5.722  -4.095 -0.26 -0.14    +0.330 C 
DOCKED: ATOM     41  O   UNL d   1      -8.629   5.044  -3.319 -0.31 +0.05    -0.246 OA
DOCKED: BRANCH  40  42
DOCKED: ATOM     42  O   UNL d   1      -8.912   5.887  -5.376 -0.07 +0.45    -0.477 OA
DOCKED: ATOM     43  H   UNL d   1      -9.163   5.042  -5.802 -0.43 -0.67    +0.295 HD
DOCKED: ENDBRANCH  40  42
DOCKED: ENDBRANCH  39  40
DOCKED: ENDBRANCH  27  38
DOCKED: BRANCH   8  44
DOCKED: ATOM     44  C   UNL d   1     -17.921  14.779  -2.328 -0.02 -0.02    +0.141 C 
DOCKED: BRANCH  44  45
DOCKED: ATOM     45  C   UNL d   1     -18.732  14.364  -3.525 +0.00 -0.01    +0.306 C 
DOCKED: ATOM     46  O   UNL d   1     -19.361  13.328  -3.653 -0.00 +0.00    -0.251 OA
DOCKED: BRANCH  45  47
DOCKED: ATOM     47  O   UNL d   1     -18.686  15.271  -4.518 +0.00 +0.00    -0.481 OA
DOCKED: ATOM     48  H   UNL d   1     -17.732  15.362  -4.726 +0.01 +0.00    +0.295 HD
DOCKED: ENDBRANCH  45  47
DOCKED: ENDBRANCH  44  45
DOCKED: ENDBRANCH   8  44
DOCKED: BRANCH  22  49
DOCKED: ATOM     49  C   UNL d   1     -12.895   8.442  -7.568 -0.06 -0.01    +0.048 C 
DOCKED: BRANCH  49  50
DOCKED: ATOM     50  C   UNL d   1     -11.622   7.781  -7.042 -0.12 -0.04    +0.125 C 
DOCKED: BRANCH  50  51
DOCKED: ATOM     51  C   UNL d   1     -10.511   8.784  -6.911 -0.18 -0.08    +0.305 C 
DOCKED: ATOM     52  O   UNL d   1     -10.612   9.983  -6.719 -0.28 +0.06    -0.251 OA
DOCKED: BRANCH  51  53
DOCKED: ATOM     53  O   UNL d   1      -9.297   8.213  -7.044 -0.11 +0.18    -0.481 OA
DOCKED: ATOM     54  H   UNL d   1      -9.433   7.292  -6.739 +0.13 -0.18    +0.295 HD
DOCKED: ENDBRANCH  51  53
DOCKED: ENDBRANCH  50  51
DOCKED: ENDBRANCH  49  50
DOCKED: ENDBRANCH  22  49
DOCKED: TORSDOF 13
DOCKED: TER
DOCKED: ENDMDL
________________________________________________________________________________


	BEGINNING GENETIC ALGORITHM DOCKING 50 of 100
Run: 50 Seed: 486068032 1626718509 [ Run 50 of 100 GA/GALS ]
Beginning LAMARCKIAN GENETIC ALGORITHM (LGA), with a maximum of 25000000 energy evaluations.

Final-Value: -12.130


	FINAL GENETIC ALGORITHM DOCKED STATE
	_______________________________________________


Detailed state:  trans -0.063 18.714 -7.507 quatxyzw -0.382082 0.652048 -0.283424 0.590354 center 0.153 0.018 -0.028 ntor 13 179.0919 -143.6842 160.4123 2.1799 -152.8020 -120.5027 -51.4872 -124.7344 11.2802 -112.5270 59.9524 -61.2320 10.8020
State:	 -0.063  18.714  -7.507  -0.473  0.808 -0.351 107.636    179.09 -143.68  160.41    2.18 -152.80 -120.50  -51.49 -124.73   11.28 -112.53   59.95  -61.23   10.80

DOCKED: MODEL       50
DOCKED: USER    Run = 50
DOCKED: USER    DPF = D:/Protein_go_brrr/autodock/final/AncMH_nat/heme/dock.dpf
DOCKED: USER  
DOCKED: USER    Estimated Free Energy of Binding    =   -5.97 kcal/mol  [=(1)+(2)+(3)-(4)]
DOCKED: USER    Estimated Inhibition Constant, Ki   =   42.00 uM (micromolar)  [Temperature = 298.15 K]
DOCKED: USER    
DOCKED: USER    (1) Final Intermolecular Energy     =   -9.85 kcal/mol
DOCKED: USER        vdW + Hbond + desolv Energy     =   -9.45 kcal/mol
DOCKED: USER        Electrostatic Energy            =   -0.40 kcal/mol
DOCKED: USER    (2) Final Total Internal Energy     =   -2.28 kcal/mol
DOCKED: USER    (3) Torsional Free Energy           =   +3.88 kcal/mol
DOCKED: USER    (4) Unbound System's Energy  [=(2)] =   -2.28 kcal/mol
DOCKED: USER    
DOCKED: USER    
DOCKED: USER    NEWDPF move heme_opt.pdbqt
DOCKED: USER    NEWDPF about 0.153000 0.018000 -0.028000
DOCKED: USER    NEWDPF tran0 -0.063270 18.714234 -7.506767
DOCKED: USER    NEWDPF quaternion0 -0.382082 0.652048 -0.283424 0.590354
DOCKED: USER    NEWDPF axisangle0 -0.473375 0.807846 -0.351143 107.635792
DOCKED: USER    NEWDPF quat0 -0.473375 0.807846 -0.351143 107.635792
DOCKED: USER    NEWDPF dihe0 179.09 -143.68 160.41 2.18 -152.80 -120.50 -51.49 -124.73 11.28 -112.53 59.95 -61.23 10.80 
DOCKED: USER  keepresnum = 1 
DOCKED: USER  
DOCKED: REMARK  13 active torsions:
DOCKED: REMARK  status: ('A' for Active; 'I' for Inactive)
DOCKED: REMARK    1  A    between atoms: O_3  and  C_38 
DOCKED: REMARK    2  A    between atoms: O_4  and  C_40 
DOCKED: REMARK    3  A    between atoms: O_7  and  C_46 
DOCKED: REMARK    4  A    between atoms: O_9  and  C_48 
DOCKED: REMARK    5  A    between atoms: C_15  and  C_20 
DOCKED: REMARK    6  A    between atoms: C_16  and  C_23 
DOCKED: REMARK    7  A    between atoms: C_20  and  C_38 
DOCKED: REMARK    8  A    between atoms: C_23  and  C_40 
DOCKED: REMARK    9  A    between atoms: C_32  and  C_41 
DOCKED: REMARK   10  A    between atoms: C_37  and  C_45 
DOCKED: REMARK   11  A    between atoms: C_41  and  C_44 
DOCKED: REMARK   12  A    between atoms: C_44  and  C_46 
DOCKED: REMARK   13  A    between atoms: C_47  and  C_48 
DOCKED: USER                              x       y       z     vdW  Elec       q    Type
DOCKED: USER                           _______ _______ _______ _____ _____    ______ ____
DOCKED: ROOT
DOCKED: ATOM      1  O   UNL d   1      -1.767  20.025 -12.996 -0.01 +0.03    -0.289 OA
DOCKED: ATOM      2  O   UNL d   1       4.876  17.792 -10.298 -0.40 -0.11    -0.289 OA
DOCKED: ATOM      3  N   UNL d   1      -1.197  19.498  -9.636 -0.07 +0.06    -0.247 NA
DOCKED: ATOM      4  N   UNL d   1       1.551  18.369  -9.578 -0.05 +0.08    -0.247 NA
DOCKED: ATOM      5  N   UNL d   1       1.076  17.596  -6.849 -0.03 +0.07    -0.354 N 
DOCKED: ATOM      6  N   UNL d   1      -1.781  18.753  -6.924 -0.12 +0.05    -0.354 N 
DOCKED: ATOM      7  C   UNL d   1      -3.169  20.023 -10.994 -0.09 -0.01    +0.084 A 
DOCKED: ATOM      8  C   UNL d   1       3.040  18.958 -11.423 -0.10 -0.02    +0.084 A 
DOCKED: ATOM      9  C   UNL d   1       1.644  19.009 -10.793 -0.14 -0.02    +0.058 A 
DOCKED: ATOM     10  C   UNL d   1      -2.562  19.734  -9.618 -0.16 -0.01    +0.058 A 
DOCKED: ATOM     11  C   UNL d   1      -1.902  19.928 -11.790 -0.04 -0.02    +0.193 A 
DOCKED: ATOM     12  C   UNL d   1      -0.775  19.631 -10.851 -0.10 -0.02    +0.109 A 
DOCKED: ATOM     13  C   UNL d   1       3.712  18.139 -10.357 -0.11 -0.03    +0.193 A 
DOCKED: ATOM     14  C   UNL d   1      -4.123  18.915 -11.446 -0.15 -0.00    +0.026 C 
DOCKED: ATOM     15  C   UNL d   1       0.595  19.583 -11.401 -0.11 -0.01    +0.055 C 
DOCKED: ATOM     16  C   UNL d   1       3.695  20.342 -11.466 -0.02 -0.00    +0.026 C 
DOCKED: ATOM     17  C   UNL d   1       2.699  17.841  -9.300 -0.20 -0.02    +0.109 A 
DOCKED: ATOM     18  C   UNL d   1      -3.301  19.800  -8.495 -0.19 -0.01    +0.050 C 
DOCKED: ATOM     19  C   UNL d   1      -2.810  19.631  -7.175 -0.18 -0.00    +0.045 A 
DOCKED: ATOM     20  C   UNL d   1       2.257  16.939  -7.078 -0.28 -0.01    +0.045 A 
DOCKED: ATOM     21  C   UNL d   1       3.063  17.011  -8.142 -0.34 -0.00    +0.057 C 
DOCKED: ATOM     22  C   UNL d   1       1.447  16.313  -5.036 -0.34 +0.00    -0.019 A 
DOCKED: ATOM     23  C   UNL d   1       0.512  17.282  -5.642 -0.28 -0.00    +0.045 A 
DOCKED: ATOM     24  C   UNL d   1       2.479  16.116  -5.890 -0.34 +0.00    -0.022 A 
DOCKED: ATOM     25  C   UNL d   1      -1.527  18.679  -5.575 -0.23 -0.00    +0.049 A 
DOCKED: ATOM     26  C   UNL d   1      -3.211  20.170  -5.962 -0.12 +0.00    -0.018 A 
DOCKED: ATOM     27  C   UNL d   1      -2.384  19.579  -4.957 -0.15 +0.00    +0.003 A 
DOCKED: ATOM     28  C   UNL d   1      -0.613  17.722  -5.056 -0.32 +0.00    +0.052 C 
DOCKED: ATOM     29  C   UNL d   1       3.674  15.241  -5.723 -0.50 +0.00    +0.046 C 
DOCKED: ATOM     30  C   UNL d   1      -4.293  21.173  -5.747 -0.06 -0.00    +0.046 C 
DOCKED: ATOM     31  H   UNL d   1       0.729  18.296  -7.496 -0.22 -0.06    +0.166 HD
DOCKED: ATOM     32  H   UNL d   1      -1.316  18.213  -7.645 -0.50 -0.08    +0.166 HD
DOCKED: ENDROOT
DOCKED: BRANCH   7  33
DOCKED: ATOM     33  C   UNL d   1      -3.802  21.410 -11.154 -0.02 -0.01    +0.141 C 
DOCKED: BRANCH  33  34
DOCKED: ATOM     34  C   UNL d   1      -2.823  22.526 -10.907 +0.00 -0.02    +0.306 C 
DOCKED: ATOM     35  O   UNL d   1      -2.698  23.159  -9.873 -0.00 +0.01    -0.251 OA
DOCKED: BRANCH  34  36
DOCKED: ATOM     36  O   UNL d   1      -2.050  22.783 -11.977 +0.00 +0.03    -0.481 OA
DOCKED: ATOM     37  H   UNL d   1      -2.310  22.107 -12.638 +0.01 -0.02    +0.295 HD
DOCKED: ENDBRANCH  34  36
DOCKED: ENDBRANCH  33  34
DOCKED: ENDBRANCH   7  33
DOCKED: BRANCH  27  38
DOCKED: ATOM     38  C   UNL d   1      -2.473  19.847  -3.553 -0.13 +0.00    +0.017 C 
DOCKED: ATOM     39  C   UNL d   1      -2.071  19.016  -2.580 -0.12 +0.01    +0.092 C 
DOCKED: BRANCH  39  40
DOCKED: ATOM     40  C   UNL d   1      -2.201  19.418  -1.177 -0.11 -0.00    +0.330 C 
DOCKED: ATOM     41  O   UNL d   1      -1.321  19.499  -0.342 -0.14 -0.01    -0.246 OA
DOCKED: BRANCH  40  42
DOCKED: ATOM     42  O   UNL d   1      -3.480  19.713  -0.898 -0.05 +0.05    -0.477 OA
DOCKED: ATOM     43  H   UNL d   1      -3.991  19.068  -1.429 -0.45 -0.13    +0.295 HD
DOCKED: ENDBRANCH  40  42
DOCKED: ENDBRANCH  39  40
DOCKED: ENDBRANCH  27  38
DOCKED: BRANCH   8  44
DOCKED: ATOM     44  C   UNL d   1       3.126  18.262 -12.785 -0.10 -0.07    +0.141 C 
DOCKED: BRANCH  44  45
DOCKED: ATOM     45  C   UNL d   1       4.527  17.860 -13.160 -0.09 -0.16    +0.306 C 
DOCKED: ATOM     46  O   UNL d   1       5.303  18.492 -13.856 -0.04 +0.10    -0.251 OA
DOCKED: BRANCH  45  47
DOCKED: ATOM     47  O   UNL d   1       4.870  16.660 -12.658 -0.10 +0.36    -0.481 OA
DOCKED: ATOM     48  H   UNL d   1       4.247  16.515 -11.914 -0.32 -0.32    +0.295 HD
DOCKED: ENDBRANCH  45  47
DOCKED: ENDBRANCH  44  45
DOCKED: ENDBRANCH   8  44
DOCKED: BRANCH  22  49
DOCKED: ATOM     49  C   UNL d   1       1.241  15.666  -3.698 -0.32 +0.00    +0.048 C 
DOCKED: BRANCH  49  50
DOCKED: ATOM     50  C   UNL d   1       1.467  16.649  -2.549 -0.30 +0.01    +0.125 C 
DOCKED: BRANCH  50  51
DOCKED: ATOM     51  C   UNL d   1       2.589  16.189  -1.662 -0.29 +0.00    +0.305 C 
DOCKED: ATOM     52  O   UNL d   1       2.587  16.101  -0.447 -0.36 -0.00    -0.251 OA
DOCKED: BRANCH  51  53
DOCKED: ATOM     53  O   UNL d   1       3.690  15.864  -2.369 -0.18 +0.01    -0.481 OA
DOCKED: ATOM     54  H   UNL d   1       4.327  15.557  -1.690 -0.40 -0.12    +0.295 HD
DOCKED: ENDBRANCH  51  53
DOCKED: ENDBRANCH  50  51
DOCKED: ENDBRANCH  49  50
DOCKED: ENDBRANCH  22  49
DOCKED: TORSDOF 13
DOCKED: TER
DOCKED: ENDMDL
________________________________________________________________________________


	BEGINNING GENETIC ALGORITHM DOCKING 51 of 100
Run: 51 Seed: 1214978739 1115763280 [ Run 51 of 100 GA/GALS ]
Beginning LAMARCKIAN GENETIC ALGORITHM (LGA), with a maximum of 25000000 energy evaluations.

Final-Value: -12.229


	FINAL GENETIC ALGORITHM DOCKED STATE
	_______________________________________________


Detailed state:  trans -18.937 10.685 7.103 quatxyzw 0.088363 -0.734680 -0.328862 -0.586759 center 0.153 0.018 -0.028 ntor 13 79.4323 -170.4940 -121.8369 -175.4773 -139.4317 87.0758 115.3210 55.2612 38.7916 -180.0000 -80.8583 -131.3588 13.6647
State:	-18.937  10.685   7.103   0.109 -0.907 -0.406 -108.145     79.43 -170.49 -121.84 -175.48 -139.43   87.08  115.32   55.26   38.79 -180.00  -80.86 -131.36   13.66

DOCKED: MODEL       51
DOCKED: USER    Run = 51
DOCKED: USER    DPF = D:/Protein_go_brrr/autodock/final/AncMH_nat/heme/dock.dpf
DOCKED: USER  
DOCKED: USER    Estimated Free Energy of Binding    =   -5.03 kcal/mol  [=(1)+(2)+(3)-(4)]
DOCKED: USER    Estimated Inhibition Constant, Ki   =  205.88 uM (micromolar)  [Temperature = 298.15 K]
DOCKED: USER    
DOCKED: USER    (1) Final Intermolecular Energy     =   -8.91 kcal/mol
DOCKED: USER        vdW + Hbond + desolv Energy     =   -7.96 kcal/mol
DOCKED: USER        Electrostatic Energy            =   -0.95 kcal/mol
DOCKED: USER    (2) Final Total Internal Energy     =   -3.32 kcal/mol
DOCKED: USER    (3) Torsional Free Energy           =   +3.88 kcal/mol
DOCKED: USER    (4) Unbound System's Energy  [=(2)] =   -3.32 kcal/mol
DOCKED: USER    
DOCKED: USER    
DOCKED: USER    NEWDPF move heme_opt.pdbqt
DOCKED: USER    NEWDPF about 0.153000 0.018000 -0.028000
DOCKED: USER    NEWDPF tran0 -18.937251 10.684977 7.103107
DOCKED: USER    NEWDPF quaternion0 0.088363 -0.734680 -0.328862 -0.586759
DOCKED: USER    NEWDPF axisangle0 0.109122 -0.907280 -0.406122 -108.145238
DOCKED: USER    NEWDPF quat0 0.109122 -0.907280 -0.406122 -108.145238
DOCKED: USER    NEWDPF dihe0 79.43 -170.49 -121.84 -175.48 -139.43 87.08 115.32 55.26 38.79 -180.00 -80.86 -131.36 13.66 
DOCKED: USER  keepresnum = 1 
DOCKED: USER  
DOCKED: REMARK  13 active torsions:
DOCKED: REMARK  status: ('A' for Active; 'I' for Inactive)
DOCKED: REMARK    1  A    between atoms: O_3  and  C_38 
DOCKED: REMARK    2  A    between atoms: O_4  and  C_40 
DOCKED: REMARK    3  A    between atoms: O_7  and  C_46 
DOCKED: REMARK    4  A    between atoms: O_9  and  C_48 
DOCKED: REMARK    5  A    between atoms: C_15  and  C_20 
DOCKED: REMARK    6  A    between atoms: C_16  and  C_23 
DOCKED: REMARK    7  A    between atoms: C_20  and  C_38 
DOCKED: REMARK    8  A    between atoms: C_23  and  C_40 
DOCKED: REMARK    9  A    between atoms: C_32  and  C_41 
DOCKED: REMARK   10  A    between atoms: C_37  and  C_45 
DOCKED: REMARK   11  A    between atoms: C_41  and  C_44 
DOCKED: REMARK   12  A    between atoms: C_44  and  C_46 
DOCKED: REMARK   13  A    between atoms: C_47  and  C_48 
DOCKED: USER                              x       y       z     vdW  Elec       q    Type
DOCKED: USER                           _______ _______ _______ _____ _____    ______ ____
DOCKED: ROOT
DOCKED: ATOM      1  O   UNL d   1     -17.441  15.122   3.521 -0.12 +0.19    -0.289 OA
DOCKED: ATOM      2  O   UNL d   1     -17.939   7.734   2.273 -0.15 -0.12    -0.289 OA
DOCKED: ATOM      3  N   UNL d   1     -18.239  12.859   5.998 -0.08 +0.01    -0.247 NA
DOCKED: ATOM      4  N   UNL d   1     -18.490  10.292   4.523 -0.13 -0.03    -0.247 NA
DOCKED: ATOM      5  N   UNL d   1     -19.744   9.179   6.859 -0.13 -0.09    -0.354 N 
DOCKED: ATOM      6  N   UNL d   1     -19.496  11.851   8.375 -0.08 -0.05    -0.354 N 
DOCKED: ATOM      7  C   UNL d   1     -18.142  15.304   5.856 -0.08 -0.01    +0.084 A 
DOCKED: ATOM      8  C   UNL d   1     -17.231  10.071   2.441 -0.26 -0.01    +0.084 A 
DOCKED: ATOM      9  C   UNL d   1     -17.688  10.944   3.614 -0.26 -0.01    +0.058 A 
DOCKED: ATOM     10  C   UNL d   1     -18.427  14.047   6.684 -0.09 -0.01    +0.058 A 
DOCKED: ATOM     11  C   UNL d   1     -17.742  14.615   4.586 -0.12 -0.07    +0.193 A 
DOCKED: ATOM     12  C   UNL d   1     -17.817  13.135   4.808 -0.19 -0.02    +0.109 A 
DOCKED: ATOM     13  C   UNL d   1     -17.952   8.813   2.833 -0.15 +0.04    +0.193 A 
DOCKED: ATOM     14  C   UNL d   1     -19.411  16.121   5.597 -0.02 -0.00    +0.026 C 
DOCKED: ATOM     15  C   UNL d   1     -17.375  12.245   3.715 -0.26 -0.02    +0.055 C 
DOCKED: ATOM     16  C   UNL d   1     -15.722   9.808   2.483 -0.01 -0.00    +0.026 C 
DOCKED: ATOM     17  C   UNL d   1     -18.684   9.081   4.108 -0.18 +0.02    +0.109 A 
DOCKED: ATOM     18  C   UNL d   1     -18.743  14.122   7.991 -0.12 -0.00    +0.050 C 
DOCKED: ATOM     19  C   UNL d   1     -18.940  13.015   8.854 -0.00 +0.00    +0.045 A 
DOCKED: ATOM     20  C   UNL d   1     -19.979   8.169   5.962 -0.22 +0.02    +0.045 A 
DOCKED: ATOM     21  C   UNL d   1     -19.520   8.034   4.713 -0.23 +0.02    +0.057 C 
DOCKED: ATOM     22  C   UNL d   1     -21.097   7.710   7.900 -0.19 -0.01    -0.019 A 
DOCKED: ATOM     23  C   UNL d   1     -20.378   8.990   8.057 -0.21 +0.01    +0.045 A 
DOCKED: ATOM     24  C   UNL d   1     -20.856   7.228   6.657 -0.20 -0.01    -0.022 A 
DOCKED: ATOM     25  C   UNL d   1     -19.679  10.947   9.396 -0.09 +0.01    +0.049 A 
DOCKED: ATOM     26  C   UNL d   1     -18.721  12.850  10.213 -0.11 +0.00    -0.018 A 
DOCKED: ATOM     27  C   UNL d   1     -19.172  11.536  10.546 -0.17 +0.00    +0.003 A 
DOCKED: ATOM     28  C   UNL d   1     -20.382   9.731   9.176 -0.20 +0.01    +0.052 C 
DOCKED: ATOM     29  C   UNL d   1     -21.347   5.966   6.034 -0.13 +0.03    +0.046 C 
DOCKED: ATOM     30  C   UNL d   1     -18.128  13.850  11.147 -0.11 -0.01    +0.046 C 
DOCKED: ATOM     31  H   UNL d   1     -19.096   9.930   6.647 +0.06 +0.04    +0.166 HD
DOCKED: ATOM     32  H   UNL d   1     -19.765  11.715   7.408 +0.03 +0.02    +0.166 HD
DOCKED: ENDROOT
DOCKED: BRANCH   7  33
DOCKED: ATOM     33  C   UNL d   1     -17.001  16.186   6.372 -0.09 -0.03    +0.141 C 
DOCKED: BRANCH  33  34
DOCKED: ATOM     34  C   UNL d   1     -15.655  15.751   5.858 -0.13 -0.10    +0.306 C 
DOCKED: ATOM     35  O   UNL d   1     -14.941  14.892   6.346 -0.49 +0.03    -0.251 OA
DOCKED: BRANCH  34  36
DOCKED: ATOM     36  O   UNL d   1     -15.281  16.420   4.753 -0.06 +0.31    -0.481 OA
DOCKED: ATOM     37  H   UNL d   1     -15.437  15.790   4.018 +0.02 -0.39    +0.295 HD
DOCKED: ENDBRANCH  34  36
DOCKED: ENDBRANCH  33  34
DOCKED: ENDBRANCH   7  33
DOCKED: BRANCH  27  38
DOCKED: ATOM     38  C   UNL d   1     -19.142  10.960  11.857 -0.22 +0.00    +0.017 C 
DOCKED: ATOM     39  C   UNL d   1     -20.091  11.117  12.793 -0.09 +0.03    +0.092 C 
DOCKED: BRANCH  39  40
DOCKED: ATOM     40  C   UNL d   1     -19.949  10.458  14.094 -0.04 +0.26    +0.330 C 
DOCKED: ATOM     41  O   UNL d   1     -19.343  10.860  15.069 -0.09 -0.18    -0.246 OA
DOCKED: BRANCH  40  42
DOCKED: ATOM     42  O   UNL d   1     -20.611   9.290  14.095 -0.59 -0.65    -0.477 OA
DOCKED: ATOM     43  H   UNL d   1     -20.865   9.164  13.157 +0.04 +0.25    +0.295 HD
DOCKED: ENDBRANCH  40  42
DOCKED: ENDBRANCH  39  40
DOCKED: ENDBRANCH  27  38
DOCKED: BRANCH   8  44
DOCKED: ATOM     44  C   UNL d   1     -17.671  10.546   1.052 -0.14 -0.02    +0.141 C 
DOCKED: BRANCH  44  45
DOCKED: ATOM     45  C   UNL d   1     -16.542  10.605   0.058 -0.17 -0.08    +0.306 C 
DOCKED: ATOM     46  O   UNL d   1     -15.967   9.656  -0.446 -0.20 +0.01    -0.251 OA
DOCKED: BRANCH  45  47
DOCKED: ATOM     47  O   UNL d   1     -16.176  11.867  -0.230 -0.10 +0.35    -0.481 OA
DOCKED: ATOM     48  H   UNL d   1     -15.939  12.261   0.637 -0.42 -0.55    +0.295 HD
DOCKED: ENDBRANCH  45  47
DOCKED: ENDBRANCH  44  45
DOCKED: ENDBRANCH   8  44
DOCKED: BRANCH  22  49
DOCKED: ATOM     49  C   UNL d   1     -21.957   7.090   8.962 -0.12 +0.01    +0.048 C 
DOCKED: BRANCH  49  50
DOCKED: ATOM     50  C   UNL d   1     -21.127   6.577  10.138 -0.18 +0.03    +0.125 C 
DOCKED: BRANCH  50  51
DOCKED: ATOM     51  C   UNL d   1     -21.158   7.550  11.282 -0.10 +0.11    +0.305 C 
DOCKED: ATOM     52  O   UNL d   1     -22.136   8.081  11.779 -0.03 -0.09    -0.251 OA
DOCKED: BRANCH  51  53
DOCKED: ATOM     53  O   UNL d   1     -19.923   7.823  11.746 -0.09 -0.25    -0.481 OA
DOCKED: ATOM     54  H   UNL d   1     -19.327   7.338  11.137 -0.45 +0.02    +0.295 HD
DOCKED: ENDBRANCH  51  53
DOCKED: ENDBRANCH  50  51
DOCKED: ENDBRANCH  49  50
DOCKED: ENDBRANCH  22  49
DOCKED: TORSDOF 13
DOCKED: TER
DOCKED: ENDMDL
________________________________________________________________________________


	BEGINNING GENETIC ALGORITHM DOCKING 52 of 100
Run: 52 Seed: 1663361325 664262758 [ Run 52 of 100 GA/GALS ]
Beginning LAMARCKIAN GENETIC ALGORITHM (LGA), with a maximum of 25000000 energy evaluations.

Final-Value: -11.779


	FINAL GENETIC ALGORITHM DOCKED STATE
	_______________________________________________


Detailed state:  trans -5.590 -9.663 19.570 quatxyzw 0.525166 0.712454 0.461314 -0.061636 center 0.153 0.018 -0.028 ntor 13 -102.8586 -167.6449 173.6132 20.6401 34.7257 -68.3421 96.5342 61.5234 132.0481 -16.2136 -71.2332 1.0568 -10.3321
State:	 -5.590  -9.663  19.570   0.526  0.714  0.462 -172.933   -102.86 -167.64  173.61   20.64   34.73  -68.34   96.53   61.52  132.05  -16.21  -71.23    1.06  -10.33

DOCKED: MODEL       52
DOCKED: USER    Run = 52
DOCKED: USER    DPF = D:/Protein_go_brrr/autodock/final/AncMH_nat/heme/dock.dpf
DOCKED: USER  
DOCKED: USER    Estimated Free Energy of Binding    =   -3.89 kcal/mol  [=(1)+(2)+(3)-(4)]
DOCKED: USER    Estimated Inhibition Constant, Ki   =    1.42 mM (millimolar)  [Temperature = 298.15 K]
DOCKED: USER    
DOCKED: USER    (1) Final Intermolecular Energy     =   -7.76 kcal/mol
DOCKED: USER        vdW + Hbond + desolv Energy     =   -7.37 kcal/mol
DOCKED: USER        Electrostatic Energy            =   -0.40 kcal/mol
DOCKED: USER    (2) Final Total Internal Energy     =   -4.02 kcal/mol
DOCKED: USER    (3) Torsional Free Energy           =   +3.88 kcal/mol
DOCKED: USER    (4) Unbound System's Energy  [=(2)] =   -4.02 kcal/mol
DOCKED: USER    
DOCKED: USER    
DOCKED: USER    NEWDPF move heme_opt.pdbqt
DOCKED: USER    NEWDPF about 0.153000 0.018000 -0.028000
DOCKED: USER    NEWDPF tran0 -5.590455 -9.663229 19.570264
DOCKED: USER    NEWDPF quaternion0 0.525166 0.712454 0.461314 -0.061636
DOCKED: USER    NEWDPF axisangle0 0.526166 0.713811 0.462193 -172.932522
DOCKED: USER    NEWDPF quat0 0.526166 0.713811 0.462193 -172.932522
DOCKED: USER    NEWDPF dihe0 -102.86 -167.64 173.61 20.64 34.73 -68.34 96.53 61.52 132.05 -16.21 -71.23 1.06 -10.33 
DOCKED: USER  keepresnum = 1 
DOCKED: USER  
DOCKED: REMARK  13 active torsions:
DOCKED: REMARK  status: ('A' for Active; 'I' for Inactive)
DOCKED: REMARK    1  A    between atoms: O_3  and  C_38 
DOCKED: REMARK    2  A    between atoms: O_4  and  C_40 
DOCKED: REMARK    3  A    between atoms: O_7  and  C_46 
DOCKED: REMARK    4  A    between atoms: O_9  and  C_48 
DOCKED: REMARK    5  A    between atoms: C_15  and  C_20 
DOCKED: REMARK    6  A    between atoms: C_16  and  C_23 
DOCKED: REMARK    7  A    between atoms: C_20  and  C_38 
DOCKED: REMARK    8  A    between atoms: C_23  and  C_40 
DOCKED: REMARK    9  A    between atoms: C_32  and  C_41 
DOCKED: REMARK   10  A    between atoms: C_37  and  C_45 
DOCKED: REMARK   11  A    between atoms: C_41  and  C_44 
DOCKED: REMARK   12  A    between atoms: C_44  and  C_46 
DOCKED: REMARK   13  A    between atoms: C_47  and  C_48 
DOCKED: USER                              x       y       z     vdW  Elec       q    Type
DOCKED: USER                           _______ _______ _______ _____ _____    ______ ____
DOCKED: ROOT
DOCKED: ATOM      1  O   UNL d   1      -1.578 -13.759  18.197 -0.03 +0.03    -0.289 OA
DOCKED: ATOM      2  O   UNL d   1      -8.674 -12.849  15.912 -0.69 -0.37    -0.289 OA
DOCKED: ATOM      3  N   UNL d   1      -3.620 -11.250  19.395 -0.06 +0.02    -0.247 NA
DOCKED: ATOM      4  N   UNL d   1      -6.064 -11.502  17.725 -0.11 -0.03    -0.247 NA
DOCKED: ATOM      5  N   UNL d   1      -6.882  -8.923  18.697 -0.13 +0.02    -0.354 N 
DOCKED: ATOM      6  N   UNL d   1      -4.334  -8.661  20.412 -0.10 +0.06    -0.354 N 
DOCKED: ATOM      7  C   UNL d   1      -1.255 -11.834  19.668 -0.08 -0.01    +0.084 A 
DOCKED: ATOM      8  C   UNL d   1      -6.549 -13.702  16.778 -0.17 +0.02    +0.084 A 
DOCKED: ATOM      9  C   UNL d   1      -5.601 -12.788  17.561 -0.12 +0.00    +0.058 A 
DOCKED: ATOM     10  C   UNL d   1      -2.421 -10.895  19.991 -0.00 -0.01    +0.058 A 
DOCKED: ATOM     11  C   UNL d   1      -2.011 -12.793  18.799 -0.06 -0.02    +0.193 A 
DOCKED: ATOM     12  C   UNL d   1      -3.438 -12.346  18.732 -0.09 -0.01    +0.109 A 
DOCKED: ATOM     13  C   UNL d   1      -7.620 -12.686  16.496 -0.14 +0.12    +0.193 A 
DOCKED: ATOM     14  C   UNL d   1      -0.179 -11.145  18.825 -0.15 -0.01    +0.026 C 
DOCKED: ATOM     15  C   UNL d   1      -4.400 -13.196  18.002 -0.11 -0.00    +0.055 C 
DOCKED: ATOM     16  C   UNL d   1      -7.137 -14.804  17.665 -0.14 +0.00    +0.026 C 
DOCKED: ATOM     17  C   UNL d   1      -7.202 -11.393  17.117 -0.20 +0.03    +0.109 A 
DOCKED: ATOM     18  C   UNL d   1      -2.282  -9.873  20.856 -0.10 -0.01    +0.050 C 
DOCKED: ATOM     19  C   UNL d   1      -3.322  -9.006  21.278 -0.10 -0.01    +0.045 A 
DOCKED: ATOM     20  C   UNL d   1      -7.813  -9.108  17.708 -0.26 +0.00    +0.045 A 
DOCKED: ATOM     21  C   UNL d   1      -8.041 -10.196  16.965 -0.33 +0.02    +0.057 C 
DOCKED: ATOM     22  C   UNL d   1      -8.022  -6.987  18.531 -0.34 +0.00    -0.019 A 
DOCKED: ATOM     23  C   UNL d   1      -6.931  -7.673  19.253 -0.26 -0.01    +0.045 A 
DOCKED: ATOM     24  C   UNL d   1      -8.541  -7.843  17.619 -0.38 +0.00    -0.022 A 
DOCKED: ATOM     25  C   UNL d   1      -5.179  -7.746  20.995 -0.16 -0.01    +0.049 A 
DOCKED: ATOM     26  C   UNL d   1      -3.535  -8.326  22.468 -0.05 +0.00    -0.018 A 
DOCKED: ATOM     27  C   UNL d   1      -4.720  -7.547  22.290 -0.06 -0.00    +0.003 A 
DOCKED: ATOM     28  C   UNL d   1      -6.211  -7.122  20.242 -0.24 -0.01    +0.052 C 
DOCKED: ATOM     29  C   UNL d   1      -9.662  -7.619  16.662 -0.40 +0.01    +0.046 C 
DOCKED: ATOM     30  C   UNL d   1      -2.692  -8.395  23.696 -0.02 -0.01    +0.046 C 
DOCKED: ATOM     31  H   UNL d   1      -6.291  -9.685  19.012 +0.05 -0.01    +0.166 HD
DOCKED: ATOM     32  H   UNL d   1      -4.405  -9.013  19.464 +0.04 -0.02    +0.166 HD
DOCKED: ENDROOT
DOCKED: BRANCH   7  33
DOCKED: ATOM     33  C   UNL d   1      -0.646 -12.562  20.871 -0.03 -0.02    +0.141 C 
DOCKED: BRANCH  33  34
DOCKED: ATOM     34  C   UNL d   1       0.489 -13.472  20.483 -0.01 -0.04    +0.306 C 
DOCKED: ATOM     35  O   UNL d   1       1.666 -13.163  20.406 -0.01 +0.03    -0.251 OA
DOCKED: BRANCH  34  36
DOCKED: ATOM     36  O   UNL d   1       0.080 -14.725  20.216 +0.00 +0.05    -0.481 OA
DOCKED: ATOM     37  H   UNL d   1      -0.352 -14.662  19.337 +0.02 -0.03    +0.295 HD
DOCKED: ENDBRANCH  34  36
DOCKED: ENDBRANCH  33  34
DOCKED: ENDBRANCH   7  33
DOCKED: BRANCH  27  38
DOCKED: ATOM     38  C   UNL d   1      -5.291  -6.678  23.274 -0.04 -0.00    +0.017 C 
DOCKED: ATOM     39  C   UNL d   1      -6.605  -6.509  23.488 -0.02 -0.01    +0.092 C 
DOCKED: BRANCH  39  40
DOCKED: ATOM     40  C   UNL d   1      -7.062  -5.600  24.542 +0.00 -0.03    +0.330 C 
DOCKED: ATOM     41  O   UNL d   1      -6.977  -5.754  25.746 -0.00 +0.02    -0.246 OA
DOCKED: BRANCH  40  42
DOCKED: ATOM     42  O   UNL d   1      -7.611  -4.502  23.999 +0.01 +0.04    -0.477 OA
DOCKED: ATOM     43  H   UNL d   1      -7.719  -4.737  23.055 +0.03 -0.02    +0.295 HD
DOCKED: ENDBRANCH  40  42
DOCKED: ENDBRANCH  39  40
DOCKED: ENDBRANCH  27  38
DOCKED: BRANCH   8  44
DOCKED: ATOM     44  C   UNL d   1      -5.985 -14.281  15.477 -0.16 +0.03    +0.141 C 
DOCKED: BRANCH  44  45
DOCKED: ATOM     45  C   UNL d   1      -5.718 -13.234  14.428 -0.27 +0.16    +0.306 C 
DOCKED: ATOM     46  O   UNL d   1      -5.062 -12.216  14.568 -0.34 -0.07    -0.251 OA
DOCKED: BRANCH  45  47
DOCKED: ATOM     47  O   UNL d   1      -6.318 -13.514  13.257 -0.46 -0.54    -0.481 OA
DOCKED: ATOM     48  H   UNL d   1      -6.686 -14.415  13.376 -0.33 +0.20    +0.295 HD
DOCKED: ENDBRANCH  45  47
DOCKED: ENDBRANCH  44  45
DOCKED: ENDBRANCH   8  44
DOCKED: BRANCH  22  49
DOCKED: ATOM     49  C   UNL d   1      -8.442  -5.570  18.787 -0.39 -0.00    +0.048 C 
DOCKED: BRANCH  49  50
DOCKED: ATOM     50  C   UNL d   1      -9.593  -5.489  19.789 -0.22 +0.00    +0.125 C 
DOCKED: BRANCH  50  51
DOCKED: ATOM     51  C   UNL d   1      -9.127  -4.914  21.096 -0.08 -0.02    +0.305 C 
DOCKED: ATOM     52  O   UNL d   1      -8.563  -3.849  21.280 -0.10 +0.02    -0.251 OA
DOCKED: BRANCH  51  53
DOCKED: ATOM     53  O   UNL d   1      -9.392  -5.735  22.132 +0.01 +0.02    -0.481 OA
DOCKED: ATOM     54  H   UNL d   1      -9.362  -5.147  22.915 +0.03 -0.01    +0.295 HD
DOCKED: ENDBRANCH  51  53
DOCKED: ENDBRANCH  50  51
DOCKED: ENDBRANCH  49  50
DOCKED: ENDBRANCH  22  49
DOCKED: TORSDOF 13
DOCKED: TER
DOCKED: ENDMDL
________________________________________________________________________________


	BEGINNING GENETIC ALGORITHM DOCKING 53 of 100
Run: 53 Seed: 1226552312 854655920 [ Run 53 of 100 GA/GALS ]
Beginning LAMARCKIAN GENETIC ALGORITHM (LGA), with a maximum of 25000000 energy evaluations.

Final-Value: -11.621


	FINAL GENETIC ALGORITHM DOCKED STATE
	_______________________________________________


Detailed state:  trans -13.557 9.549 -3.763 quatxyzw -0.122816 -0.918424 0.200017 -0.318443 center 0.153 0.018 -0.028 ntor 13 -112.3194 107.2044 -117.0227 -67.1203 43.6618 92.7103 -34.5626 -56.3813 140.7512 -41.0982 153.2500 -1.7319 18.5851
State:	-13.557   9.549  -3.763  -0.130 -0.969  0.211 -142.862   -112.32  107.20 -117.02  -67.12   43.66   92.71  -34.56  -56.38  140.75  -41.10  153.25   -1.73   18.59

DOCKED: MODEL       53
DOCKED: USER    Run = 53
DOCKED: USER    DPF = D:/Protein_go_brrr/autodock/final/AncMH_nat/heme/dock.dpf
DOCKED: USER  
DOCKED: USER    Estimated Free Energy of Binding    =   -5.74 kcal/mol  [=(1)+(2)+(3)-(4)]
DOCKED: USER    Estimated Inhibition Constant, Ki   =   62.41 uM (micromolar)  [Temperature = 298.15 K]
DOCKED: USER    
DOCKED: USER    (1) Final Intermolecular Energy     =   -9.61 kcal/mol
DOCKED: USER        vdW + Hbond + desolv Energy     =   -8.64 kcal/mol
DOCKED: USER        Electrostatic Energy            =   -0.98 kcal/mol
DOCKED: USER    (2) Final Total Internal Energy     =   -2.01 kcal/mol
DOCKED: USER    (3) Torsional Free Energy           =   +3.88 kcal/mol
DOCKED: USER    (4) Unbound System's Energy  [=(2)] =   -2.01 kcal/mol
DOCKED: USER    
DOCKED: USER    
DOCKED: USER    NEWDPF move heme_opt.pdbqt
DOCKED: USER    NEWDPF about 0.153000 0.018000 -0.028000
DOCKED: USER    NEWDPF tran0 -13.556528 9.548956 -3.763398
DOCKED: USER    NEWDPF quaternion0 -0.122816 -0.918424 0.200017 -0.318443
DOCKED: USER    NEWDPF axisangle0 -0.129560 -0.968861 0.211001 -142.862418
DOCKED: USER    NEWDPF quat0 -0.129560 -0.968861 0.211001 -142.862418
DOCKED: USER    NEWDPF dihe0 -112.32 107.20 -117.02 -67.12 43.66 92.71 -34.56 -56.38 140.75 -41.10 153.25 -1.73 18.59 
DOCKED: USER  keepresnum = 1 
DOCKED: USER  
DOCKED: REMARK  13 active torsions:
DOCKED: REMARK  status: ('A' for Active; 'I' for Inactive)
DOCKED: REMARK    1  A    between atoms: O_3  and  C_38 
DOCKED: REMARK    2  A    between atoms: O_4  and  C_40 
DOCKED: REMARK    3  A    between atoms: O_7  and  C_46 
DOCKED: REMARK    4  A    between atoms: O_9  and  C_48 
DOCKED: REMARK    5  A    between atoms: C_15  and  C_20 
DOCKED: REMARK    6  A    between atoms: C_16  and  C_23 
DOCKED: REMARK    7  A    between atoms: C_20  and  C_38 
DOCKED: REMARK    8  A    between atoms: C_23  and  C_40 
DOCKED: REMARK    9  A    between atoms: C_32  and  C_41 
DOCKED: REMARK   10  A    between atoms: C_37  and  C_45 
DOCKED: REMARK   11  A    between atoms: C_41  and  C_44 
DOCKED: REMARK   12  A    between atoms: C_44  and  C_46 
DOCKED: REMARK   13  A    between atoms: C_47  and  C_48 
DOCKED: USER                              x       y       z     vdW  Elec       q    Type
DOCKED: USER                           _______ _______ _______ _____ _____    ______ ____
DOCKED: ROOT
DOCKED: ATOM      1  O   UNL d   1      -9.498   8.884  -7.987 -0.22 +0.09    -0.289 OA
DOCKED: ATOM      2  O   UNL d   1     -10.993   4.756  -1.895 -0.12 -0.06    -0.289 OA
DOCKED: ATOM      3  N   UNL d   1     -11.921   9.752  -5.691 -0.16 +0.04    -0.247 NA
DOCKED: ATOM      4  N   UNL d   1     -11.987   7.418  -3.853 -0.15 +0.01    -0.247 NA
DOCKED: ATOM      5  N   UNL d   1     -14.456   8.441  -2.792 +0.04 -0.05    -0.354 N 
DOCKED: ATOM      6  N   UNL d   1     -14.390  10.848  -4.716 -0.04 -0.00    -0.354 N 
DOCKED: ATOM      7  C   UNL d   1     -11.206  10.628  -7.866 -0.19 -0.02    +0.084 A 
DOCKED: ATOM      8  C   UNL d   1      -9.947   6.087  -3.663 -0.33 -0.02    +0.084 A 
DOCKED: ATOM      9  C   UNL d   1     -10.713   7.228  -4.339 -0.31 -0.01    +0.058 A 
DOCKED: ATOM     10  C   UNL d   1     -12.146  10.715  -6.660 -0.20 -0.01    +0.058 A 
DOCKED: ATOM     11  C   UNL d   1     -10.397   9.455  -7.399 -0.20 -0.05    +0.193 A 
DOCKED: ATOM     12  C   UNL d   1     -10.911   9.032  -6.057 -0.27 -0.02    +0.109 A 
DOCKED: ATOM     13  C   UNL d   1     -11.035   5.640  -2.728 -0.18 +0.00    +0.193 A 
DOCKED: ATOM     14  C   UNL d   1     -11.949  10.238  -9.146 -0.08 -0.00    +0.026 C 
DOCKED: ATOM     15  C   UNL d   1     -10.202   7.944  -5.353 -0.34 -0.02    +0.055 C 
DOCKED: ATOM     16  C   UNL d   1      -8.768   6.607  -2.834 -0.51 -0.00    +0.026 C 
DOCKED: ATOM     17  C   UNL d   1     -12.220   6.523  -2.948 -0.22 +0.01    +0.109 A 
DOCKED: ATOM     18  C   UNL d   1     -13.044  11.711  -6.539 -0.18 -0.01    +0.050 C 
DOCKED: ATOM     19  C   UNL d   1     -13.895  11.920  -5.424 -0.15 -0.00    +0.045 A 
DOCKED: ATOM     20  C   UNL d   1     -14.437   7.207  -2.197 -0.21 +0.01    +0.045 A 
DOCKED: ATOM     21  C   UNL d   1     -13.462   6.291  -2.196 -0.25 +0.02    +0.057 C 
DOCKED: ATOM     22  C   UNL d   1     -16.444   8.206  -1.761 -0.13 -0.00    -0.019 A 
DOCKED: ATOM     23  C   UNL d   1     -15.627   9.119  -2.585 -0.01 +0.00    +0.045 A 
DOCKED: ATOM     24  C   UNL d   1     -15.734   7.076  -1.533 -0.18 -0.01    -0.022 A 
DOCKED: ATOM     25  C   UNL d   1     -15.260  11.274  -3.740 +0.05 +0.00    +0.049 A 
DOCKED: ATOM     26  C   UNL d   1     -14.428  13.074  -4.870 -0.15 +0.00    -0.018 A 
DOCKED: ATOM     27  C   UNL d   1     -15.274  12.661  -3.794 -0.15 -0.00    +0.003 A 
DOCKED: ATOM     28  C   UNL d   1     -16.017  10.341  -2.981 -0.04 +0.00    +0.052 C 
DOCKED: ATOM     29  C   UNL d   1     -16.124   5.871  -0.748 -0.15 +0.04    +0.046 C 
DOCKED: ATOM     30  C   UNL d   1     -14.168  14.475  -5.309 -0.11 -0.00    +0.046 C 
DOCKED: ATOM     31  H   UNL d   1     -13.636   8.812  -3.261 +0.06 +0.02    +0.166 HD
DOCKED: ATOM     32  H   UNL d   1     -14.163   9.884  -4.929 +0.03 +0.00    +0.166 HD
DOCKED: ENDROOT
DOCKED: BRANCH   7  33
DOCKED: ATOM     33  C   UNL d   1     -10.306  11.848  -8.087 -0.23 -0.03    +0.141 C 
DOCKED: BRANCH  33  34
DOCKED: ATOM     34  C   UNL d   1      -9.559  11.788  -9.391 -0.21 -0.07    +0.306 C 
DOCKED: ATOM     35  O   UNL d   1      -9.878  12.339 -10.431 -0.13 +0.03    -0.251 OA
DOCKED: BRANCH  34  36
DOCKED: ATOM     36  O   UNL d   1      -8.445  11.037  -9.316 -0.17 +0.17    -0.481 OA
DOCKED: ATOM     37  H   UNL d   1      -8.771  10.128  -9.146 +0.14 -0.09    +0.295 HD
DOCKED: ENDBRANCH  34  36
DOCKED: ENDBRANCH  33  34
DOCKED: ENDBRANCH   7  33
DOCKED: BRANCH  27  38
DOCKED: ATOM     38  C   UNL d   1     -16.036  13.540  -2.959 -0.14 -0.00    +0.017 C 
DOCKED: ATOM     39  C   UNL d   1     -16.277  13.351  -1.653 -0.18 -0.04    +0.092 C 
DOCKED: BRANCH  39  40
DOCKED: ATOM     40  C   UNL d   1     -17.059  14.338  -0.905 -0.06 -0.17    +0.330 C 
DOCKED: ATOM     41  O   UNL d   1     -18.263  14.357  -0.733 -0.04 +0.07    -0.246 OA
DOCKED: BRANCH  40  42
DOCKED: ATOM     42  O   UNL d   1     -16.249  15.275  -0.388 -0.08 +0.38    -0.477 OA
DOCKED: ATOM     43  H   UNL d   1     -15.792  14.812   0.344 -0.46 -0.64    +0.295 HD
DOCKED: ENDBRANCH  40  42
DOCKED: ENDBRANCH  39  40
DOCKED: ENDBRANCH  27  38
DOCKED: BRANCH   8  44
DOCKED: ATOM     44  C   UNL d   1      -9.513   4.944  -4.586 -0.25 -0.10    +0.141 C 
DOCKED: BRANCH  44  45
DOCKED: ATOM     45  C   UNL d   1     -10.531   3.838  -4.682 -0.11 -0.17    +0.306 C 
DOCKED: ATOM     46  O   UNL d   1     -10.724   2.956  -3.864 -0.15 +0.04    -0.251 OA
DOCKED: BRANCH  45  47
DOCKED: ATOM     47  O   UNL d   1     -11.238   3.888  -5.825 -0.02 +0.39    -0.481 OA
DOCKED: ATOM     48  H   UNL d   1     -10.572   3.765  -6.534 -0.46 -0.60    +0.295 HD
DOCKED: ENDBRANCH  45  47
DOCKED: ENDBRANCH  44  45
DOCKED: ENDBRANCH   8  44
DOCKED: BRANCH  22  49
DOCKED: ATOM     49  C   UNL d   1     -17.835   8.514  -1.289 -0.07 +0.01    +0.048 C 
DOCKED: BRANCH  49  50
DOCKED: ATOM     50  C   UNL d   1     -17.859   9.697  -0.322 -0.08 +0.00    +0.125 C 
DOCKED: BRANCH  50  51
DOCKED: ATOM     51  C   UNL d   1     -16.540   9.841   0.382 -0.18 -0.03    +0.305 C 
DOCKED: ATOM     52  O   UNL d   1     -16.009   9.044   1.135 -0.30 +0.00    -0.251 OA
DOCKED: BRANCH  51  53
DOCKED: ATOM     53  O   UNL d   1     -15.947  11.019   0.106 -0.15 +0.23    -0.481 OA
DOCKED: ATOM     54  H   UNL d   1     -15.970  11.503   0.958 -0.24 -0.32    +0.295 HD
DOCKED: ENDBRANCH  51  53
DOCKED: ENDBRANCH  50  51
DOCKED: ENDBRANCH  49  50
DOCKED: ENDBRANCH  22  49
DOCKED: TORSDOF 13
DOCKED: TER
DOCKED: ENDMDL
________________________________________________________________________________


	BEGINNING GENETIC ALGORITHM DOCKING 54 of 100
Run: 54 Seed: 1662066947 487073331 [ Run 54 of 100 GA/GALS ]
Beginning LAMARCKIAN GENETIC ALGORITHM (LGA), with a maximum of 25000000 energy evaluations.

Final-Value: -10.815


	FINAL GENETIC ALGORITHM DOCKED STATE
	_______________________________________________


Detailed state:  trans -9.694 11.158 16.188 quatxyzw -0.044216 0.128146 0.392189 0.909842 center 0.153 0.018 -0.028 ntor 13 178.6813 94.7037 60.2845 -123.2366 46.6836 -27.2616 -70.9095 -155.0388 151.8081 -159.4313 -20.2675 36.3371 148.3957
State:	 -9.694  11.158  16.188  -0.107  0.309  0.945 49.033    178.68   94.70   60.28 -123.24   46.68  -27.26  -70.91 -155.04  151.81 -159.43  -20.27   36.34  148.40

DOCKED: MODEL       54
DOCKED: USER    Run = 54
DOCKED: USER    DPF = D:/Protein_go_brrr/autodock/final/AncMH_nat/heme/dock.dpf
DOCKED: USER  
DOCKED: USER    Estimated Free Energy of Binding    =   -5.52 kcal/mol  [=(1)+(2)+(3)-(4)]
DOCKED: USER    Estimated Inhibition Constant, Ki   =   89.28 uM (micromolar)  [Temperature = 298.15 K]
DOCKED: USER    
DOCKED: USER    (1) Final Intermolecular Energy     =   -9.40 kcal/mol
DOCKED: USER        vdW + Hbond + desolv Energy     =   -8.29 kcal/mol
DOCKED: USER        Electrostatic Energy            =   -1.12 kcal/mol
DOCKED: USER    (2) Final Total Internal Energy     =   -1.41 kcal/mol
DOCKED: USER    (3) Torsional Free Energy           =   +3.88 kcal/mol
DOCKED: USER    (4) Unbound System's Energy  [=(2)] =   -1.41 kcal/mol
DOCKED: USER    
DOCKED: USER    
DOCKED: USER    NEWDPF move heme_opt.pdbqt
DOCKED: USER    NEWDPF about 0.153000 0.018000 -0.028000
DOCKED: USER    NEWDPF tran0 -9.694305 11.157647 16.187764
DOCKED: USER    NEWDPF quaternion0 -0.044216 0.128146 0.392189 0.909842
DOCKED: USER    NEWDPF axisangle0 -0.106555 0.308819 0.945133 49.033075
DOCKED: USER    NEWDPF quat0 -0.106555 0.308819 0.945133 49.033075
DOCKED: USER    NEWDPF dihe0 178.68 94.70 60.28 -123.24 46.68 -27.26 -70.91 -155.04 151.81 -159.43 -20.27 36.34 148.40 
DOCKED: USER  keepresnum = 1 
DOCKED: USER  
DOCKED: REMARK  13 active torsions:
DOCKED: REMARK  status: ('A' for Active; 'I' for Inactive)
DOCKED: REMARK    1  A    between atoms: O_3  and  C_38 
DOCKED: REMARK    2  A    between atoms: O_4  and  C_40 
DOCKED: REMARK    3  A    between atoms: O_7  and  C_46 
DOCKED: REMARK    4  A    between atoms: O_9  and  C_48 
DOCKED: REMARK    5  A    between atoms: C_15  and  C_20 
DOCKED: REMARK    6  A    between atoms: C_16  and  C_23 
DOCKED: REMARK    7  A    between atoms: C_20  and  C_38 
DOCKED: REMARK    8  A    between atoms: C_23  and  C_40 
DOCKED: REMARK    9  A    between atoms: C_32  and  C_41 
DOCKED: REMARK   10  A    between atoms: C_37  and  C_45 
DOCKED: REMARK   11  A    between atoms: C_41  and  C_44 
DOCKED: REMARK   12  A    between atoms: C_44  and  C_46 
DOCKED: REMARK   13  A    between atoms: C_47  and  C_48 
DOCKED: USER                              x       y       z     vdW  Elec       q    Type
DOCKED: USER                           _______ _______ _______ _____ _____    ______ ____
DOCKED: ROOT
DOCKED: ATOM      1  O   UNL d   1     -12.382  16.401  16.004 -0.10 +0.19    -0.289 OA
DOCKED: ATOM      2  O   UNL d   1     -14.427   9.716  13.262 -0.25 +0.02    -0.289 OA
DOCKED: ATOM      3  N   UNL d   1     -10.390  13.596  16.241 -0.09 +0.11    -0.247 NA
DOCKED: ATOM      4  N   UNL d   1     -12.127  11.432  15.179 -0.11 +0.03    -0.247 NA
DOCKED: ATOM      5  N   UNL d   1     -10.265   9.530  16.264 -0.07 +0.06    -0.354 N 
DOCKED: ATOM      6  N   UNL d   1      -8.478  11.781  17.381 -0.02 +0.08    -0.354 N 
DOCKED: ATOM      7  C   UNL d   1     -10.267  15.883  17.114 -0.11 -0.04    +0.084 A 
DOCKED: ATOM      8  C   UNL d   1     -13.873  12.077  13.595 -0.20 -0.01    +0.084 A 
DOCKED: ATOM      9  C   UNL d   1     -12.758  12.490  14.562 -0.20 -0.01    +0.058 A 
DOCKED: ATOM     10  C   UNL d   1      -9.654  14.484  17.008 -0.09 -0.02    +0.058 A 
DOCKED: ATOM     11  C   UNL d   1     -11.471  15.635  16.256 -0.12 -0.11    +0.193 A 
DOCKED: ATOM     12  C   UNL d   1     -11.418  14.221  15.766 -0.04 -0.05    +0.109 A 
DOCKED: ATOM     13  C   UNL d   1     -13.783  10.592  13.805 -0.22 -0.01    +0.193 A 
DOCKED: ATOM     14  C   UNL d   1     -10.731  16.202  18.537 -0.03 -0.01    +0.026 C 
DOCKED: ATOM     15  C   UNL d   1     -12.460  13.772  14.821 -0.20 -0.02    +0.055 C 
DOCKED: ATOM     16  C   UNL d   1     -13.508  12.391  12.141 -0.46 -0.01    +0.026 C 
DOCKED: ATOM     17  C   UNL d   1     -12.692  10.333  14.793 -0.20 -0.01    +0.109 A 
DOCKED: ATOM     18  C   UNL d   1      -8.455  14.199  17.550 -0.10 -0.01    +0.050 C 
DOCKED: ATOM     19  C   UNL d   1      -7.772  12.961  17.432 -0.08 -0.01    +0.045 A 
DOCKED: ATOM     20  C   UNL d   1     -11.286   8.686  15.913 -0.23 -0.01    +0.045 A 
DOCKED: ATOM     21  C   UNL d   1     -12.401   8.960  15.229 -0.31 -0.00    +0.057 C 
DOCKED: ATOM     22  C   UNL d   1      -9.713   7.501  17.071 -0.25 +0.01    -0.019 A 
DOCKED: ATOM     23  C   UNL d   1      -9.269   8.905  16.967 -0.19 -0.01    +0.045 A 
DOCKED: ATOM     24  C   UNL d   1     -10.907   7.377  16.444 -0.28 +0.00    -0.022 A 
DOCKED: ATOM     25  C   UNL d   1      -7.621  10.705  17.359 -0.12 -0.01    +0.049 A 
DOCKED: ATOM     26  C   UNL d   1      -6.422  12.647  17.406 -0.07 +0.00    -0.018 A 
DOCKED: ATOM     27  C   UNL d   1      -6.333  11.222  17.340 -0.12 -0.00    +0.003 A 
DOCKED: ATOM     28  C   UNL d   1      -8.115   9.377  17.463 -0.19 -0.02    +0.052 C 
DOCKED: ATOM     29  C   UNL d   1     -11.747   6.158  16.270 -0.24 -0.01    +0.046 C 
DOCKED: ATOM     30  C   UNL d   1      -5.283  13.609  17.438 -0.05 -0.01    +0.046 C 
DOCKED: ATOM     31  H   UNL d   1     -10.246  10.494  15.948 +0.06 -0.03    +0.166 HD
DOCKED: ATOM     32  H   UNL d   1      -9.490  11.732  17.399 +0.04 -0.03    +0.166 HD
DOCKED: ENDROOT
DOCKED: BRANCH   7  33
DOCKED: ATOM     33  C   UNL d   1      -9.417  17.019  16.532 -0.17 -0.09    +0.141 C 
DOCKED: BRANCH  33  34
DOCKED: ATOM     34  C   UNL d   1      -9.817  18.370  17.060 -0.08 -0.18    +0.306 C 
DOCKED: ATOM     35  O   UNL d   1      -9.248  18.998  17.936 -0.03 +0.08    -0.251 OA
DOCKED: BRANCH  34  36
DOCKED: ATOM     36  O   UNL d   1     -10.912  18.860  16.453 -0.03 +0.48    -0.481 OA
DOCKED: ATOM     37  H   UNL d   1     -11.126  18.200  15.759 -0.41 -0.50    +0.295 HD
DOCKED: ENDBRANCH  34  36
DOCKED: ENDBRANCH  33  34
DOCKED: ENDBRANCH   7  33
DOCKED: BRANCH  27  38
DOCKED: ATOM     38  C   UNL d   1      -5.113  10.473  17.311 -0.17 -0.01    +0.017 C 
DOCKED: ATOM     39  C   UNL d   1      -4.617   9.843  16.235 -0.24 -0.04    +0.092 C 
DOCKED: BRANCH  39  40
DOCKED: ATOM     40  C   UNL d   1      -3.345   9.122  16.333 -0.21 -0.19    +0.330 C 
DOCKED: ATOM     41  O   UNL d   1      -2.408   9.364  17.069 -0.10 +0.09    -0.246 OA
DOCKED: BRANCH  40  42
DOCKED: ATOM     42  O   UNL d   1      -3.330   8.093  15.472 -0.11 +0.44    -0.477 OA
DOCKED: ATOM     43  H   UNL d   1      -3.769   7.369  15.964 -0.34 -0.69    +0.295 HD
DOCKED: ENDBRANCH  40  42
DOCKED: ENDBRANCH  39  40
DOCKED: ENDBRANCH  27  38
DOCKED: BRANCH   8  44
DOCKED: ATOM     44  C   UNL d   1     -15.272  12.596  13.940 -0.09 -0.01    +0.141 C 
DOCKED: BRANCH  44  45
DOCKED: ATOM     45  C   UNL d   1     -16.148  12.793  12.732 -0.09 -0.04    +0.306 C 
DOCKED: ATOM     46  O   UNL d   1     -16.588  13.851  12.317 -0.08 +0.05    -0.251 OA
DOCKED: BRANCH  45  47
DOCKED: ATOM     47  O   UNL d   1     -16.448  11.633  12.119 -0.13 +0.04    -0.481 OA
DOCKED: ATOM     48  H   UNL d   1     -16.098  11.735  11.209 -0.46 -0.14    +0.295 HD
DOCKED: ENDBRANCH  45  47
DOCKED: ENDBRANCH  44  45
DOCKED: ENDBRANCH   8  44
DOCKED: BRANCH  22  49
DOCKED: ATOM     49  C   UNL d   1      -8.945   6.424  17.780 -0.22 -0.03    +0.048 C 
DOCKED: BRANCH  49  50
DOCKED: ATOM     50  C   UNL d   1      -8.844   6.692  19.282 -0.09 -0.07    +0.125 C 
DOCKED: BRANCH  50  51
DOCKED: ATOM     51  C   UNL d   1      -8.509   5.432  20.029 -0.04 -0.18    +0.305 C 
DOCKED: ATOM     52  O   UNL d   1      -8.659   5.212  21.218 -0.02 +0.09    -0.251 OA
DOCKED: BRANCH  51  53
DOCKED: ATOM     53  O   UNL d   1      -7.977   4.493  19.222 -0.03 +0.44    -0.481 OA
DOCKED: ATOM     54  H   UNL d   1      -7.201   4.937  18.820 -0.50 -0.69    +0.295 HD
DOCKED: ENDBRANCH  51  53
DOCKED: ENDBRANCH  50  51
DOCKED: ENDBRANCH  49  50
DOCKED: ENDBRANCH  22  49
DOCKED: TORSDOF 13
DOCKED: TER
DOCKED: ENDMDL
________________________________________________________________________________


	BEGINNING GENETIC ALGORITHM DOCKING 55 of 100
Run: 55 Seed: 1728088060 1926064000 [ Run 55 of 100 GA/GALS ]
Beginning LAMARCKIAN GENETIC ALGORITHM (LGA), with a maximum of 25000000 energy evaluations.

Final-Value: -11.611


	FINAL GENETIC ALGORITHM DOCKED STATE
	_______________________________________________


Detailed state:  trans -8.800 13.805 16.053 quatxyzw 0.980172 -0.188697 -0.006630 -0.060101 center 0.153 0.018 -0.028 ntor 13 113.6037 -74.7990 164.8811 -46.6206 -131.4354 59.6383 -53.7596 -101.2892 29.6750 -109.4955 -36.3952 50.5333 179.3146
State:	 -8.800  13.805  16.053   0.982 -0.189 -0.007 -173.109    113.60  -74.80  164.88  -46.62 -131.44   59.64  -53.76 -101.29   29.68 -109.50  -36.40   50.53  179.31

DOCKED: MODEL       55
DOCKED: USER    Run = 55
DOCKED: USER    DPF = D:/Protein_go_brrr/autodock/final/AncMH_nat/heme/dock.dpf
DOCKED: USER  
DOCKED: USER    Estimated Free Energy of Binding    =   -5.52 kcal/mol  [=(1)+(2)+(3)-(4)]
DOCKED: USER    Estimated Inhibition Constant, Ki   =   89.32 uM (micromolar)  [Temperature = 298.15 K]
DOCKED: USER    
DOCKED: USER    (1) Final Intermolecular Energy     =   -9.40 kcal/mol
DOCKED: USER        vdW + Hbond + desolv Energy     =   -8.36 kcal/mol
DOCKED: USER        Electrostatic Energy            =   -1.04 kcal/mol
DOCKED: USER    (2) Final Total Internal Energy     =   -2.21 kcal/mol
DOCKED: USER    (3) Torsional Free Energy           =   +3.88 kcal/mol
DOCKED: USER    (4) Unbound System's Energy  [=(2)] =   -2.21 kcal/mol
DOCKED: USER    
DOCKED: USER    
DOCKED: USER    NEWDPF move heme_opt.pdbqt
DOCKED: USER    NEWDPF about 0.153000 0.018000 -0.028000
DOCKED: USER    NEWDPF tran0 -8.799910 13.805309 16.052742
DOCKED: USER    NEWDPF quaternion0 0.980172 -0.188697 -0.006630 -0.060101
DOCKED: USER    NEWDPF axisangle0 0.981947 -0.189039 -0.006642 -173.108735
DOCKED: USER    NEWDPF quat0 0.981947 -0.189039 -0.006642 -173.108735
DOCKED: USER    NEWDPF dihe0 113.60 -74.80 164.88 -46.62 -131.44 59.64 -53.76 -101.29 29.68 -109.50 -36.40 50.53 179.31 
DOCKED: USER  keepresnum = 1 
DOCKED: USER  
DOCKED: REMARK  13 active torsions:
DOCKED: REMARK  status: ('A' for Active; 'I' for Inactive)
DOCKED: REMARK    1  A    between atoms: O_3  and  C_38 
DOCKED: REMARK    2  A    between atoms: O_4  and  C_40 
DOCKED: REMARK    3  A    between atoms: O_7  and  C_46 
DOCKED: REMARK    4  A    between atoms: O_9  and  C_48 
DOCKED: REMARK    5  A    between atoms: C_15  and  C_20 
DOCKED: REMARK    6  A    between atoms: C_16  and  C_23 
DOCKED: REMARK    7  A    between atoms: C_20  and  C_38 
DOCKED: REMARK    8  A    between atoms: C_23  and  C_40 
DOCKED: REMARK    9  A    between atoms: C_32  and  C_41 
DOCKED: REMARK   10  A    between atoms: C_37  and  C_45 
DOCKED: REMARK   11  A    between atoms: C_41  and  C_44 
DOCKED: REMARK   12  A    between atoms: C_44  and  C_46 
DOCKED: REMARK   13  A    between atoms: C_47  and  C_48 
DOCKED: USER                              x       y       z     vdW  Elec       q    Type
DOCKED: USER                           _______ _______ _______ _____ _____    ______ ____
DOCKED: ROOT
DOCKED: ATOM      1  O   UNL d   1     -14.657  14.254  15.558 -0.01 +0.05    -0.289 OA
DOCKED: ATOM      2  O   UNL d   1      -9.422  19.438  17.011 -0.06 +0.15    -0.289 OA
DOCKED: ATOM      3  N   UNL d   1     -11.311  13.488  15.891 -0.10 +0.09    -0.247 NA
DOCKED: ATOM      4  N   UNL d   1     -10.022  16.153  16.141 -0.08 +0.19    -0.247 NA
DOCKED: ATOM      5  N   UNL d   1      -7.490  14.868  15.687 +0.02 +0.15    -0.354 N 
DOCKED: ATOM      6  N   UNL d   1      -8.838  12.110  15.409 -0.13 +0.09    -0.354 N 
DOCKED: ATOM      7  C   UNL d   1     -13.317  12.234  15.249 -0.09 -0.01    +0.084 A 
DOCKED: ATOM      8  C   UNL d   1     -11.385  17.975  17.031 -0.08 -0.05    +0.084 A 
DOCKED: ATOM      9  C   UNL d   1     -11.283  16.524  16.550 -0.14 -0.04    +0.058 A 
DOCKED: ATOM     10  C   UNL d   1     -11.804  12.258  15.488 -0.18 -0.01    +0.058 A 
DOCKED: ATOM     11  C   UNL d   1     -13.594  13.663  15.606 -0.03 -0.04    +0.193 A 
DOCKED: ATOM     12  C   UNL d   1     -12.303  14.310  16.002 -0.10 -0.04    +0.109 A 
DOCKED: ATOM     13  C   UNL d   1      -9.956  18.370  16.784 -0.08 -0.14    +0.193 A 
DOCKED: ATOM     14  C   UNL d   1     -13.662  12.015  13.774 -0.26 -0.00    +0.026 C 
DOCKED: ATOM     15  C   UNL d   1     -12.344  15.705  16.486 -0.11 -0.02    +0.055 C 
DOCKED: ATOM     16  C   UNL d   1     -11.665  18.057  18.535 -0.02 -0.01    +0.026 C 
DOCKED: ATOM     17  C   UNL d   1      -9.238  17.179  16.238 -0.17 -0.08    +0.109 A 
DOCKED: ATOM     18  C   UNL d   1     -11.060  11.140  15.395 -0.25 -0.01    +0.050 C 
DOCKED: ATOM     19  C   UNL d   1      -9.673  11.050  15.679 -0.20 -0.01    +0.045 A 
DOCKED: ATOM     20  C   UNL d   1      -7.106  16.181  15.603 -0.22 -0.01    +0.045 A 
DOCKED: ATOM     21  C   UNL d   1      -7.822  17.281  15.858 -0.21 -0.02    +0.057 C 
DOCKED: ATOM     22  C   UNL d   1      -5.339  14.857  15.017 -0.23 +0.00    -0.019 A 
DOCKED: ATOM     23  C   UNL d   1      -6.490  13.994  15.351 -0.24 -0.01    +0.045 A 
DOCKED: ATOM     24  C   UNL d   1      -5.710  16.150  15.170 -0.20 +0.00    -0.022 A 
DOCKED: ATOM     25  C   UNL d   1      -7.530  11.775  15.675 -0.26 -0.01    +0.049 A 
DOCKED: ATOM     26  C   UNL d   1      -8.894  10.012  16.167 -0.25 +0.00    -0.018 A 
DOCKED: ATOM     27  C   UNL d   1      -7.544  10.483  16.181 -0.25 -0.00    +0.003 A 
DOCKED: ATOM     28  C   UNL d   1      -6.468  12.653  15.327 -0.30 -0.01    +0.052 C 
DOCKED: ATOM     29  C   UNL d   1      -4.898  17.384  14.964 -0.12 +0.01    +0.046 C 
DOCKED: ATOM     30  C   UNL d   1      -9.371   8.667  16.598 -0.28 -0.01    +0.046 C 
DOCKED: ATOM     31  H   UNL d   1      -8.404  14.609  16.043 -0.29 -0.10    +0.166 HD
DOCKED: ATOM     32  H   UNL d   1      -9.158  12.992  15.028 -0.47 -0.09    +0.166 HD
DOCKED: ENDROOT
DOCKED: BRANCH   7  33
DOCKED: ATOM     33  C   UNL d   1     -14.110  11.289  16.158 -0.06 +0.01    +0.141 C 
DOCKED: BRANCH  33  34
DOCKED: ATOM     34  C   UNL d   1     -14.311  11.848  17.541 -0.00 +0.01    +0.306 C 
DOCKED: ATOM     35  O   UNL d   1     -13.479  11.882  18.432 -0.00 +0.01    -0.251 OA
DOCKED: BRANCH  34  36
DOCKED: ATOM     36  O   UNL d   1     -15.549  12.338  17.727 +0.01 -0.03    -0.481 OA
DOCKED: ATOM     37  H   UNL d   1     -15.587  13.137  17.160 +0.01 +0.00    +0.295 HD
DOCKED: ENDBRANCH  34  36
DOCKED: ENDBRANCH  33  34
DOCKED: ENDBRANCH   7  33
DOCKED: BRANCH  27  38
DOCKED: ATOM     38  C   UNL d   1      -6.408   9.719  16.602 -0.17 -0.01    +0.017 C 
DOCKED: ATOM     39  C   UNL d   1      -5.899   9.709  17.843 -0.16 -0.05    +0.092 C 
DOCKED: BRANCH  39  40
DOCKED: ATOM     40  C   UNL d   1      -4.739   8.867  18.149 -0.10 -0.27    +0.330 C 
DOCKED: ATOM     41  O   UNL d   1      -3.645   8.886  17.617 -0.16 +0.17    -0.246 OA
DOCKED: BRANCH  40  42
DOCKED: ATOM     42  O   UNL d   1      -5.032   8.025  19.151 -0.05 +0.50    -0.477 OA
DOCKED: ATOM     43  H   UNL d   1      -5.146   7.160  18.706 -0.45 -0.67    +0.295 HD
DOCKED: ENDBRANCH  40  42
DOCKED: ENDBRANCH  39  40
DOCKED: ENDBRANCH  27  38
DOCKED: BRANCH   8  44
DOCKED: ATOM     44  C   UNL d   1     -12.346  18.868  16.239 -0.05 -0.12    +0.141 C 
DOCKED: BRANCH  44  45
DOCKED: ATOM     45  C   UNL d   1     -12.059  20.337  16.397 -0.03 -0.19    +0.306 C 
DOCKED: ATOM     46  O   UNL d   1     -12.621  21.109  17.155 -0.01 +0.08    -0.251 OA
DOCKED: BRANCH  45  47
DOCKED: ATOM     47  O   UNL d   1     -11.092  20.765  15.567 -0.04 +0.45    -0.481 OA
DOCKED: ATOM     48  H   UNL d   1     -10.650  19.946  15.258 -0.49 -0.57    +0.295 HD
DOCKED: ENDBRANCH  45  47
DOCKED: ENDBRANCH  44  45
DOCKED: ENDBRANCH   8  44
DOCKED: BRANCH  22  49
DOCKED: ATOM     49  C   UNL d   1      -4.002  14.342  14.571 -0.19 -0.00    +0.048 C 
DOCKED: BRANCH  49  50
DOCKED: ATOM     50  C   UNL d   1      -3.876  14.334  13.048 -0.33 -0.00    +0.125 C 
DOCKED: BRANCH  50  51
DOCKED: ATOM     51  C   UNL d   1      -2.475  14.671  12.624 -0.17 -0.02    +0.305 C 
DOCKED: ATOM     52  O   UNL d   1      -2.081  15.705  12.112 -0.19 -0.12    -0.251 OA
DOCKED: BRANCH  51  53
DOCKED: ATOM     53  O   UNL d   1      -1.619  13.657  12.861 -0.01 +0.35    -0.481 OA
DOCKED: ATOM     54  H   UNL d   1      -1.111  13.573  12.027 -0.30 -0.59    +0.295 HD
DOCKED: ENDBRANCH  51  53
DOCKED: ENDBRANCH  50  51
DOCKED: ENDBRANCH  49  50
DOCKED: ENDBRANCH  22  49
DOCKED: TORSDOF 13
DOCKED: TER
DOCKED: ENDMDL
________________________________________________________________________________


	BEGINNING GENETIC ALGORITHM DOCKING 56 of 100
Run: 56 Seed: 1217543992 2131535246 [ Run 56 of 100 GA/GALS ]
Beginning LAMARCKIAN GENETIC ALGORITHM (LGA), with a maximum of 25000000 energy evaluations.

Final-Value: -11.357


	FINAL GENETIC ALGORITHM DOCKED STATE
	_______________________________________________


Detailed state:  trans -0.602 18.479 -8.430 quatxyzw -0.476557 -0.434013 -0.662011 -0.382449 center 0.153 0.018 -0.028 ntor 13 -72.4771 -157.2523 -114.5474 116.0360 -116.6084 -82.8444 126.8238 -180.0000 -171.5349 -27.5451 71.9146 -12.8005 123.1468
State:	 -0.602  18.479  -8.430  -0.516 -0.470 -0.716 -135.029    -72.48 -157.25 -114.55  116.04 -116.61  -82.84  126.82 -180.00 -171.53  -27.55   71.91  -12.80  123.15

DOCKED: MODEL       56
DOCKED: USER    Run = 56
DOCKED: USER    DPF = D:/Protein_go_brrr/autodock/final/AncMH_nat/heme/dock.dpf
DOCKED: USER  
DOCKED: USER    Estimated Free Energy of Binding    =   -4.44 kcal/mol  [=(1)+(2)+(3)-(4)]
DOCKED: USER    Estimated Inhibition Constant, Ki   =  561.17 uM (micromolar)  [Temperature = 298.15 K]
DOCKED: USER    
DOCKED: USER    (1) Final Intermolecular Energy     =   -8.31 kcal/mol
DOCKED: USER        vdW + Hbond + desolv Energy     =   -7.94 kcal/mol
DOCKED: USER        Electrostatic Energy            =   -0.37 kcal/mol
DOCKED: USER    (2) Final Total Internal Energy     =   -3.04 kcal/mol
DOCKED: USER    (3) Torsional Free Energy           =   +3.88 kcal/mol
DOCKED: USER    (4) Unbound System's Energy  [=(2)] =   -3.04 kcal/mol
DOCKED: USER    
DOCKED: USER    
DOCKED: USER    NEWDPF move heme_opt.pdbqt
DOCKED: USER    NEWDPF about 0.153000 0.018000 -0.028000
DOCKED: USER    NEWDPF tran0 -0.602430 18.478914 -8.429613
DOCKED: USER    NEWDPF quaternion0 -0.476557 -0.434013 -0.662011 -0.382449
DOCKED: USER    NEWDPF axisangle0 -0.515768 -0.469722 -0.716480 -135.029084
DOCKED: USER    NEWDPF quat0 -0.515768 -0.469722 -0.716480 -135.029084
DOCKED: USER    NEWDPF dihe0 -72.48 -157.25 -114.55 116.04 -116.61 -82.84 126.82 -180.00 -171.53 -27.55 71.91 -12.80 123.15 
DOCKED: USER  keepresnum = 1 
DOCKED: USER  
DOCKED: REMARK  13 active torsions:
DOCKED: REMARK  status: ('A' for Active; 'I' for Inactive)
DOCKED: REMARK    1  A    between atoms: O_3  and  C_38 
DOCKED: REMARK    2  A    between atoms: O_4  and  C_40 
DOCKED: REMARK    3  A    between atoms: O_7  and  C_46 
DOCKED: REMARK    4  A    between atoms: O_9  and  C_48 
DOCKED: REMARK    5  A    between atoms: C_15  and  C_20 
DOCKED: REMARK    6  A    between atoms: C_16  and  C_23 
DOCKED: REMARK    7  A    between atoms: C_20  and  C_38 
DOCKED: REMARK    8  A    between atoms: C_23  and  C_40 
DOCKED: REMARK    9  A    between atoms: C_32  and  C_41 
DOCKED: REMARK   10  A    between atoms: C_37  and  C_45 
DOCKED: REMARK   11  A    between atoms: C_41  and  C_44 
DOCKED: REMARK   12  A    between atoms: C_44  and  C_46 
DOCKED: REMARK   13  A    between atoms: C_47  and  C_48 
DOCKED: USER                              x       y       z     vdW  Elec       q    Type
DOCKED: USER                           _______ _______ _______ _____ _____    ______ ____
DOCKED: ROOT
DOCKED: ATOM      1  O   UNL d   1       2.566  19.049 -13.368 -0.03 +0.08    -0.289 OA
DOCKED: ATOM      2  O   UNL d   1      -4.860  18.845 -12.273 -0.06 +0.00    -0.289 OA
DOCKED: ATOM      3  N   UNL d   1       1.149  18.557 -10.263 -0.07 +0.08    -0.247 NA
DOCKED: ATOM      4  N   UNL d   1      -1.755  18.932 -10.770 -0.12 +0.05    -0.247 NA
DOCKED: ATOM      5  N   UNL d   1      -2.138  19.084  -7.925 -0.11 +0.07    -0.354 N 
DOCKED: ATOM      6  N   UNL d   1       0.878  18.714  -7.408 -0.02 +0.08    -0.354 N 
DOCKED: ATOM      7  C   UNL d   1       3.433  18.887 -11.088 -0.11 -0.02    +0.084 A 
DOCKED: ATOM      8  C   UNL d   1      -2.561  18.483 -13.033 -0.07 -0.01    +0.084 A 
DOCKED: ATOM      9  C   UNL d   1      -1.386  18.616 -12.059 -0.14 -0.01    +0.058 A 
DOCKED: ATOM     10  C   UNL d   1       2.483  18.664  -9.908 -0.16 -0.01    +0.058 A 
DOCKED: ATOM     11  C   UNL d   1       2.401  18.869 -12.176 -0.07 -0.06    +0.193 A 
DOCKED: ATOM     12  C   UNL d   1       1.060  18.636 -11.551 -0.12 -0.03    +0.109 A 
DOCKED: ATOM     13  C   UNL d   1      -3.663  18.818 -12.067 -0.08 -0.01    +0.193 A 
DOCKED: ATOM     14  C   UNL d   1       4.085  20.271 -11.047 -0.03 -0.00    +0.026 C 
DOCKED: ATOM     15  C   UNL d   1      -0.107  18.487 -12.443 -0.14 -0.01    +0.055 C 
DOCKED: ATOM     16  C   UNL d   1      -2.745  17.038 -13.507 -0.12 -0.00    +0.026 C 
DOCKED: ATOM     17  C   UNL d   1      -3.041  19.077 -10.733 -0.16 -0.01    +0.109 A 
DOCKED: ATOM     18  C   UNL d   1       2.946  18.498  -8.655 -0.19 -0.00    +0.050 C 
DOCKED: ATOM     19  C   UNL d   1       2.152  18.204  -7.517 -0.16 -0.01    +0.045 A 
DOCKED: ATOM     20  C   UNL d   1      -3.383  19.469  -8.351 -0.18 -0.01    +0.045 A 
DOCKED: ATOM     21  C   UNL d   1      -3.879  19.474  -9.592 -0.16 -0.00    +0.057 C 
DOCKED: ATOM     22  C   UNL d   1      -3.262  19.738  -6.086 -0.17 +0.00    -0.019 A 
DOCKED: ATOM     23  C   UNL d   1      -1.971  19.211  -6.572 -0.20 -0.00    +0.045 A 
DOCKED: ATOM     24  C   UNL d   1      -4.094  19.887  -7.144 -0.15 +0.00    -0.022 A 
DOCKED: ATOM     25  C   UNL d   1       0.326  18.381  -6.193 -0.16 -0.01    +0.049 A 
DOCKED: ATOM     26  C   UNL d   1       2.422  17.492  -6.359 -0.21 +0.00    -0.018 A 
DOCKED: ATOM     27  C   UNL d   1       1.258  17.590  -5.535 -0.21 -0.00    +0.003 A 
DOCKED: ATOM     28  C   UNL d   1      -0.922  18.925  -5.785 -0.19 -0.00    +0.052 C 
DOCKED: ATOM     29  C   UNL d   1      -5.503  20.374  -7.161 -0.12 -0.00    +0.046 C 
DOCKED: ATOM     30  C   UNL d   1       3.681  16.761  -6.035 -0.32 +0.00    +0.046 C 
DOCKED: ATOM     31  H   UNL d   1      -1.466  18.675  -8.565 -0.52 -0.08    +0.166 HD
DOCKED: ATOM     32  H   UNL d   1       0.441  19.288  -8.120 -0.11 -0.05    +0.166 HD
DOCKED: ENDROOT
DOCKED: BRANCH   7  33
DOCKED: ATOM     33  C   UNL d   1       4.471  17.782 -11.314 -0.06 -0.03    +0.141 C 
DOCKED: BRANCH  33  34
DOCKED: ATOM     34  C   UNL d   1       5.882  18.304 -11.309 -0.09 -0.05    +0.306 C 
DOCKED: ATOM     35  O   UNL d   1       6.356  19.108 -12.094 -0.05 +0.07    -0.251 OA
DOCKED: BRANCH  34  36
DOCKED: ATOM     36  O   UNL d   1       6.623  17.787 -10.313 -0.22 -0.05    -0.481 OA
DOCKED: ATOM     37  H   UNL d   1       7.208  17.135 -10.754 -0.44 -0.20    +0.295 HD
DOCKED: ENDBRANCH  34  36
DOCKED: ENDBRANCH  33  34
DOCKED: ENDBRANCH   7  33
DOCKED: BRANCH  27  38
DOCKED: ATOM     38  C   UNL d   1       1.116  17.007  -4.234 -0.28 +0.00    +0.017 C 
DOCKED: ATOM     39  C   UNL d   1      -0.051  16.695  -3.649 -0.36 +0.01    +0.092 C 
DOCKED: BRANCH  39  40
DOCKED: ATOM     40  C   UNL d   1      -0.059  16.084  -2.317 -0.20 +0.07    +0.330 C 
DOCKED: ATOM     41  O   UNL d   1       0.057  14.906  -2.039 -0.58 -0.05    -0.246 OA
DOCKED: BRANCH  40  42
DOCKED: ATOM     42  O   UNL d   1      -0.208  17.030  -1.377 -0.57 -0.10    -0.477 OA
DOCKED: ATOM     43  H   UNL d   1      -0.629  17.773  -1.857 +0.11 +0.04    +0.295 HD
DOCKED: ENDBRANCH  40  42
DOCKED: ENDBRANCH  39  40
DOCKED: ENDBRANCH  27  38
DOCKED: BRANCH   8  44
DOCKED: ATOM     44  C   UNL d   1      -2.553  19.458 -14.215 -0.01 -0.01    +0.141 C 
DOCKED: BRANCH  44  45
DOCKED: ATOM     45  C   UNL d   1      -2.993  20.848 -13.842 +0.00 -0.02    +0.306 C 
DOCKED: ATOM     46  O   UNL d   1      -2.302  21.720 -13.343 -0.00 +0.02    -0.251 OA
DOCKED: BRANCH  45  47
DOCKED: ATOM     47  O   UNL d   1      -4.297  21.061 -14.095 +0.01 +0.02    -0.481 OA
DOCKED: ATOM     48  H   UNL d   1      -4.769  20.446 -13.494 +0.02 -0.01    +0.295 HD
DOCKED: ENDBRANCH  45  47
DOCKED: ENDBRANCH  44  45
DOCKED: ENDBRANCH   8  44
DOCKED: BRANCH  22  49
DOCKED: ATOM     49  C   UNL d   1      -3.555  20.057  -4.649 -0.14 +0.00    +0.048 C 
DOCKED: BRANCH  49  50
DOCKED: ATOM     50  C   UNL d   1      -2.359  20.710  -3.956 -0.05 +0.00    +0.125 C 
DOCKED: BRANCH  50  51
DOCKED: ATOM     51  C   UNL d   1      -1.706  19.754  -2.999 -0.06 +0.01    +0.305 C 
DOCKED: ATOM     52  O   UNL d   1      -0.676  19.920  -2.370 -0.05 -0.01    -0.251 OA
DOCKED: BRANCH  51  53
DOCKED: ATOM     53  O   UNL d   1      -2.396  18.601  -2.888 +0.07 -0.09    -0.481 OA
DOCKED: ATOM     54  H   UNL d   1      -3.250  18.872  -2.492 -0.30 -0.04    +0.295 HD
DOCKED: ENDBRANCH  51  53
DOCKED: ENDBRANCH  50  51
DOCKED: ENDBRANCH  49  50
DOCKED: ENDBRANCH  22  49
DOCKED: TORSDOF 13
DOCKED: TER
DOCKED: ENDMDL
________________________________________________________________________________


	BEGINNING GENETIC ALGORITHM DOCKING 57 of 100
Run: 57 Seed: 704784256 955235001 [ Run 57 of 100 GA/GALS ]
Beginning LAMARCKIAN GENETIC ALGORITHM (LGA), with a maximum of 25000000 energy evaluations.

Final-Value: -10.038


	FINAL GENETIC ALGORITHM DOCKED STATE
	_______________________________________________


Detailed state:  trans -9.693 14.228 15.572 quatxyzw -0.021371 -0.100627 -0.029512 -0.994257 center 0.153 0.018 -0.028 ntor 13 -156.8738 48.0372 -55.1901 -128.7729 48.6612 -85.4323 144.9859 91.5126 153.9561 180.0000 133.6263 12.5479 14.0060
State:	 -9.693  14.228  15.572  -0.200 -0.940 -0.276 -12.287   -156.87   48.04  -55.19 -128.77   48.66  -85.43  144.99   91.51  153.96  180.00  133.63   12.55   14.01

DOCKED: MODEL       57
DOCKED: USER    Run = 57
DOCKED: USER    DPF = D:/Protein_go_brrr/autodock/final/AncMH_nat/heme/dock.dpf
DOCKED: USER  
DOCKED: USER    Estimated Free Energy of Binding    =   -4.30 kcal/mol  [=(1)+(2)+(3)-(4)]
DOCKED: USER    Estimated Inhibition Constant, Ki   =  709.41 uM (micromolar)  [Temperature = 298.15 K]
DOCKED: USER    
DOCKED: USER    (1) Final Intermolecular Energy     =   -8.17 kcal/mol
DOCKED: USER        vdW + Hbond + desolv Energy     =   -7.80 kcal/mol
DOCKED: USER        Electrostatic Energy            =   -0.38 kcal/mol
DOCKED: USER    (2) Final Total Internal Energy     =   -1.86 kcal/mol
DOCKED: USER    (3) Torsional Free Energy           =   +3.88 kcal/mol
DOCKED: USER    (4) Unbound System's Energy  [=(2)] =   -1.86 kcal/mol
DOCKED: USER    
DOCKED: USER    
DOCKED: USER    NEWDPF move heme_opt.pdbqt
DOCKED: USER    NEWDPF about 0.153000 0.018000 -0.028000
DOCKED: USER    NEWDPF tran0 -9.693134 14.228119 15.571662
DOCKED: USER    NEWDPF quaternion0 -0.021371 -0.100627 -0.029512 -0.994257
DOCKED: USER    NEWDPF axisangle0 -0.199691 -0.940255 -0.275762 -12.287267
DOCKED: USER    NEWDPF quat0 -0.199691 -0.940255 -0.275762 -12.287267
DOCKED: USER    NEWDPF dihe0 -156.87 48.04 -55.19 -128.77 48.66 -85.43 144.99 91.51 153.96 180.00 133.63 12.55 14.01 
DOCKED: USER  keepresnum = 1 
DOCKED: USER  
DOCKED: REMARK  13 active torsions:
DOCKED: REMARK  status: ('A' for Active; 'I' for Inactive)
DOCKED: REMARK    1  A    between atoms: O_3  and  C_38 
DOCKED: REMARK    2  A    between atoms: O_4  and  C_40 
DOCKED: REMARK    3  A    between atoms: O_7  and  C_46 
DOCKED: REMARK    4  A    between atoms: O_9  and  C_48 
DOCKED: REMARK    5  A    between atoms: C_15  and  C_20 
DOCKED: REMARK    6  A    between atoms: C_16  and  C_23 
DOCKED: REMARK    7  A    between atoms: C_20  and  C_38 
DOCKED: REMARK    8  A    between atoms: C_23  and  C_40 
DOCKED: REMARK    9  A    between atoms: C_32  and  C_41 
DOCKED: REMARK   10  A    between atoms: C_37  and  C_45 
DOCKED: REMARK   11  A    between atoms: C_41  and  C_44 
DOCKED: REMARK   12  A    between atoms: C_44  and  C_46 
DOCKED: REMARK   13  A    between atoms: C_47  and  C_48 
DOCKED: USER                              x       y       z     vdW  Elec       q    Type
DOCKED: USER                           _______ _______ _______ _____ _____    ______ ____
DOCKED: ROOT
DOCKED: ATOM      1  O   UNL d   1     -15.203  16.249  15.014 -0.01 +0.08    -0.289 OA
DOCKED: ATOM      2  O   UNL d   1     -12.283   9.463  13.668 -0.32 +0.03    -0.289 OA
DOCKED: ATOM      3  N   UNL d   1     -11.842  15.559  15.363 -0.15 +0.18    -0.247 NA
DOCKED: ATOM      4  N   UNL d   1     -11.698  12.624  14.922 -0.16 +0.07    -0.247 NA
DOCKED: ATOM      5  N   UNL d   1      -9.026  12.690  15.982 -0.11 +0.12    -0.354 N 
DOCKED: ATOM      6  N   UNL d   1      -9.191  15.732  16.453 -0.04 +0.21    -0.354 N 
DOCKED: ATOM      7  C   UNL d   1     -13.270  17.491  15.848 -0.07 -0.06    +0.084 A 
DOCKED: ATOM      8  C   UNL d   1     -13.448  11.613  13.549 -0.26 -0.01    +0.084 A 
DOCKED: ATOM      9  C   UNL d   1     -12.883  12.848  14.257 -0.21 -0.01    +0.058 A 
DOCKED: ATOM     10  C   UNL d   1     -11.879  16.850  15.862 -0.13 -0.05    +0.058 A 
DOCKED: ATOM     11  C   UNL d   1     -14.009  16.340  15.235 -0.05 -0.09    +0.193 A 
DOCKED: ATOM     12  C   UNL d   1     -13.030  15.241  14.963 -0.14 -0.06    +0.109 A 
DOCKED: ATOM     13  C   UNL d   1     -12.383  10.637  13.966 -0.21 -0.02    +0.193 A 
DOCKED: ATOM     14  C   UNL d   1     -13.808  17.728  17.262 -0.02 -0.01    +0.026 C 
DOCKED: ATOM     15  C   UNL d   1     -13.517  14.031  14.270 -0.16 -0.02    +0.055 C 
DOCKED: ATOM     16  C   UNL d   1     -13.408  11.764  12.025 -0.49 -0.01    +0.026 C 
DOCKED: ATOM     17  C   UNL d   1     -11.386  11.374  14.800 -0.17 -0.02    +0.109 A 
DOCKED: ATOM     18  C   UNL d   1     -10.790  17.542  16.248 -0.05 -0.05    +0.050 C 
DOCKED: ATOM     19  C   UNL d   1      -9.456  17.061  16.215 -0.17 -0.03    +0.045 A 
DOCKED: ATOM     20  C   UNL d   1      -9.223  11.335  15.925 -0.24 -0.01    +0.045 A 
DOCKED: ATOM     21  C   UNL d   1     -10.245  10.659  15.389 -0.15 -0.01    +0.057 C 
DOCKED: ATOM     22  C   UNL d   1      -7.246  11.748  16.991 -0.13 +0.00    -0.019 A 
DOCKED: ATOM     23  C   UNL d   1      -7.858  13.036  16.608 -0.16 -0.01    +0.045 A 
DOCKED: ATOM     24  C   UNL d   1      -8.058  10.745  16.583 -0.20 +0.01    -0.022 A 
DOCKED: ATOM     25  C   UNL d   1      -7.834  15.504  16.462 -0.14 -0.02    +0.049 A 
DOCKED: ATOM     26  C   UNL d   1      -8.244  17.707  16.028 -0.18 +0.01    -0.018 A 
DOCKED: ATOM     27  C   UNL d   1      -7.224  16.715  16.166 -0.20 -0.00    +0.003 A 
DOCKED: ATOM     28  C   UNL d   1      -7.310  14.238  16.842 -0.14 -0.01    +0.052 C 
DOCKED: ATOM     29  C   UNL d   1      -7.868   9.273  16.728 -0.27 -0.02    +0.046 C 
DOCKED: ATOM     30  C   UNL d   1      -8.042  19.155  15.737 -0.18 -0.02    +0.046 C 
DOCKED: ATOM     31  H   UNL d   1      -9.661  13.334  15.523 -0.48 -0.10    +0.166 HD
DOCKED: ATOM     32  H   UNL d   1      -9.909  15.041  16.636 -0.07 -0.09    +0.166 HD
DOCKED: ENDROOT
DOCKED: BRANCH   7  33
DOCKED: ATOM     33  C   UNL d   1     -13.407  18.744  14.977 -0.02 -0.14    +0.141 C 
DOCKED: BRANCH  33  34
DOCKED: ATOM     34  C   UNL d   1     -14.572  19.607  15.382 -0.02 -0.13    +0.306 C 
DOCKED: ATOM     35  O   UNL d   1     -14.512  20.644  16.021 -0.01 +0.08    -0.251 OA
DOCKED: BRANCH  34  36
DOCKED: ATOM     36  O   UNL d   1     -15.751  19.118  14.959 +0.01 +0.14    -0.481 OA
DOCKED: ATOM     37  H   UNL d   1     -15.578  18.168  14.788 +0.02 -0.09    +0.295 HD
DOCKED: ENDBRANCH  34  36
DOCKED: ENDBRANCH  33  34
DOCKED: ENDBRANCH   7  33
DOCKED: BRANCH  27  38
DOCKED: ATOM     38  C   UNL d   1      -5.817  16.958  16.062 -0.17 -0.00    +0.017 C 
DOCKED: ATOM     39  C   UNL d   1      -4.962  16.247  15.311 -0.17 +0.00    +0.092 C 
DOCKED: BRANCH  39  40
DOCKED: ATOM     40  C   UNL d   1      -3.543  16.611  15.278 -0.06 +0.06    +0.330 C 
DOCKED: ATOM     41  O   UNL d   1      -2.998  17.413  14.543 -0.10 -0.12    -0.246 OA
DOCKED: BRANCH  40  42
DOCKED: ATOM     42  O   UNL d   1      -2.868  15.925  16.213 +0.01 -0.02    -0.477 OA
DOCKED: ATOM     43  H   UNL d   1      -2.332  16.609  16.665 +0.02 +0.02    +0.295 HD
DOCKED: ENDBRANCH  40  42
DOCKED: ENDBRANCH  39  40
DOCKED: ENDBRANCH  27  38
DOCKED: BRANCH   8  44
DOCKED: ATOM     44  C   UNL d   1     -14.830  11.153  14.025 -0.19 +0.00    +0.141 C 
DOCKED: BRANCH  44  45
DOCKED: ATOM     45  C   UNL d   1     -15.800  10.924  12.897 -0.23 +0.02    +0.306 C 
DOCKED: ATOM     46  O   UNL d   1     -16.114   9.849  12.415 -0.37 -0.04    -0.251 OA
DOCKED: BRANCH  45  47
DOCKED: ATOM     47  O   UNL d   1     -16.308  12.072  12.413 -0.10 +0.05    -0.481 OA
DOCKED: ATOM     48  H   UNL d   1     -16.097  12.052  11.455 -0.48 -0.13    +0.295 HD
DOCKED: ENDBRANCH  45  47
DOCKED: ENDBRANCH  44  45
DOCKED: ENDBRANCH   8  44
DOCKED: BRANCH  22  49
DOCKED: ATOM     49  C   UNL d   1      -5.945  11.620  17.727 -0.08 -0.01    +0.048 C 
DOCKED: BRANCH  49  50
DOCKED: ATOM     50  C   UNL d   1      -4.757  12.031  16.857 -0.08 -0.02    +0.125 C 
DOCKED: BRANCH  50  51
DOCKED: ATOM     51  C   UNL d   1      -4.862  11.429  15.485 -0.11 -0.06    +0.305 C 
DOCKED: ATOM     52  O   UNL d   1      -5.471  11.868  14.526 -0.23 +0.04    -0.251 OA
DOCKED: BRANCH  51  53
DOCKED: ATOM     53  O   UNL d   1      -4.188  10.265  15.392 -0.08 +0.15    -0.481 OA
DOCKED: ATOM     54  H   UNL d   1      -4.506   9.744  16.158 +0.12 -0.14    +0.295 HD
DOCKED: ENDBRANCH  51  53
DOCKED: ENDBRANCH  50  51
DOCKED: ENDBRANCH  49  50
DOCKED: ENDBRANCH  22  49
DOCKED: TORSDOF 13
DOCKED: TER
DOCKED: ENDMDL
________________________________________________________________________________


	BEGINNING GENETIC ALGORITHM DOCKING 58 of 100
Run: 58 Seed: 1514122890 621960244 [ Run 58 of 100 GA/GALS ]
Beginning LAMARCKIAN GENETIC ALGORITHM (LGA), with a maximum of 25000000 energy evaluations.

Final-Value: -12.531


	FINAL GENETIC ALGORITHM DOCKED STATE
	_______________________________________________


Detailed state:  trans -10.080 13.368 15.986 quatxyzw 0.855525 -0.474026 0.179907 0.104927 center 0.153 0.018 -0.028 ntor 13 175.9743 -180.0000 -154.6721 -57.3878 -151.7155 47.4137 -56.0379 -122.6427 11.2966 -48.4236 -92.9582 -55.0956 -16.8350
State:	-10.080  13.368  15.986   0.860 -0.477  0.181 167.954    175.97 -180.00 -154.67  -57.39 -151.72   47.41  -56.04 -122.64   11.30  -48.42  -92.96  -55.10  -16.84

DOCKED: MODEL       58
DOCKED: USER    Run = 58
DOCKED: USER    DPF = D:/Protein_go_brrr/autodock/final/AncMH_nat/heme/dock.dpf
DOCKED: USER  
DOCKED: USER    Estimated Free Energy of Binding    =   -4.65 kcal/mol  [=(1)+(2)+(3)-(4)]
DOCKED: USER    Estimated Inhibition Constant, Ki   =  388.95 uM (micromolar)  [Temperature = 298.15 K]
DOCKED: USER    
DOCKED: USER    (1) Final Intermolecular Energy     =   -8.53 kcal/mol
DOCKED: USER        vdW + Hbond + desolv Energy     =   -7.88 kcal/mol
DOCKED: USER        Electrostatic Energy            =   -0.65 kcal/mol
DOCKED: USER    (2) Final Total Internal Energy     =   -4.00 kcal/mol
DOCKED: USER    (3) Torsional Free Energy           =   +3.88 kcal/mol
DOCKED: USER    (4) Unbound System's Energy  [=(2)] =   -4.00 kcal/mol
DOCKED: USER    
DOCKED: USER    
DOCKED: USER    NEWDPF move heme_opt.pdbqt
DOCKED: USER    NEWDPF about 0.153000 0.018000 -0.028000
DOCKED: USER    NEWDPF tran0 -10.080171 13.368169 15.985708
DOCKED: USER    NEWDPF quaternion0 0.855525 -0.474026 0.179907 0.104927
DOCKED: USER    NEWDPF axisangle0 0.860274 -0.476657 0.180906 167.954107
DOCKED: USER    NEWDPF quat0 0.860274 -0.476657 0.180906 167.954107
DOCKED: USER    NEWDPF dihe0 175.97 -180.00 -154.67 -57.39 -151.72 47.41 -56.04 -122.64 11.30 -48.42 -92.96 -55.10 -16.84 
DOCKED: USER  keepresnum = 1 
DOCKED: USER  
DOCKED: REMARK  13 active torsions:
DOCKED: REMARK  status: ('A' for Active; 'I' for Inactive)
DOCKED: REMARK    1  A    between atoms: O_3  and  C_38 
DOCKED: REMARK    2  A    between atoms: O_4  and  C_40 
DOCKED: REMARK    3  A    between atoms: O_7  and  C_46 
DOCKED: REMARK    4  A    between atoms: O_9  and  C_48 
DOCKED: REMARK    5  A    between atoms: C_15  and  C_20 
DOCKED: REMARK    6  A    between atoms: C_16  and  C_23 
DOCKED: REMARK    7  A    between atoms: C_20  and  C_38 
DOCKED: REMARK    8  A    between atoms: C_23  and  C_40 
DOCKED: REMARK    9  A    between atoms: C_32  and  C_41 
DOCKED: REMARK   10  A    between atoms: C_37  and  C_45 
DOCKED: REMARK   11  A    between atoms: C_41  and  C_44 
DOCKED: REMARK   12  A    between atoms: C_44  and  C_46 
DOCKED: REMARK   13  A    between atoms: C_47  and  C_48 
DOCKED: USER                              x       y       z     vdW  Elec       q    Type
DOCKED: USER                           _______ _______ _______ _____ _____    ______ ____
DOCKED: ROOT
DOCKED: ATOM      1  O   UNL d   1     -13.849  17.244  13.634 -0.11 +0.26    -0.289 OA
DOCKED: ATOM      2  O   UNL d   1      -8.267  18.171  18.571 -0.01 +0.06    -0.289 OA
DOCKED: ATOM      3  N   UNL d   1     -11.968  14.617  14.842 -0.11 +0.15    -0.247 NA
DOCKED: ATOM      4  N   UNL d   1      -9.866  15.966  16.452 -0.11 +0.16    -0.247 NA
DOCKED: ATOM      5  N   UNL d   1      -8.438  13.471  16.507 -0.08 +0.12    -0.354 N 
DOCKED: ATOM      6  N   UNL d   1     -10.614  12.085  14.820 -0.11 +0.09    -0.354 N 
DOCKED: ATOM      7  C   UNL d   1     -13.709  14.855  13.133 -0.18 -0.04    +0.084 A 
DOCKED: ATOM      8  C   UNL d   1     -10.404  18.163  17.378 -0.08 -0.04    +0.084 A 
DOCKED: ATOM      9  C   UNL d   1     -10.798  16.979  16.488 -0.14 -0.04    +0.058 A 
DOCKED: ATOM     10  C   UNL d   1     -12.723  13.958  13.886 -0.23 -0.02    +0.058 A 
DOCKED: ATOM     11  C   UNL d   1     -13.391  16.136  13.845 -0.14 -0.15    +0.193 A 
DOCKED: ATOM     12  C   UNL d   1     -12.340  15.856  14.874 -0.18 -0.09    +0.109 A 
DOCKED: ATOM     13  C   UNL d   1      -9.059  17.651  17.809 -0.05 -0.06    +0.193 A 
DOCKED: ATOM     14  C   UNL d   1     -13.338  15.005  11.656 -0.32 -0.02    +0.026 C 
DOCKED: ATOM     15  C   UNL d   1     -11.931  16.957  15.768 -0.12 -0.05    +0.055 C 
DOCKED: ATOM     16  C   UNL d   1     -11.307  18.273  18.609 -0.02 -0.01    +0.026 C 
DOCKED: ATOM     17  C   UNL d   1      -8.850  16.315  17.173 -0.11 -0.04    +0.109 A 
DOCKED: ATOM     18  C   UNL d   1     -12.682  12.628  13.678 -0.33 -0.01    +0.050 C 
DOCKED: ATOM     19  C   UNL d   1     -11.865  11.710  14.385 -0.27 -0.01    +0.045 A 
DOCKED: ATOM     20  C   UNL d   1      -7.482  14.302  17.031 -0.11 -0.01    +0.045 A 
DOCKED: ATOM     21  C   UNL d   1      -7.590  15.587  17.383 -0.10 -0.01    +0.057 C 
DOCKED: ATOM     22  C   UNL d   1      -6.560  12.240  16.687 -0.14 +0.00    -0.019 A 
DOCKED: ATOM     23  C   UNL d   1      -7.975  12.205  16.265 -0.21 -0.01    +0.045 A 
DOCKED: ATOM     24  C   UNL d   1      -6.275  13.483  17.141 -0.08 +0.00    -0.022 A 
DOCKED: ATOM     25  C   UNL d   1      -9.963  11.019  15.397 -0.14 -0.01    +0.049 A 
DOCKED: ATOM     26  C   UNL d   1     -12.046  10.377  14.721 -0.25 +0.00    -0.018 A 
DOCKED: ATOM     27  C   UNL d   1     -10.850   9.952  15.378 -0.21 -0.00    +0.003 A 
DOCKED: ATOM     28  C   UNL d   1      -8.598  11.120  15.781 -0.29 -0.01    +0.052 C 
DOCKED: ATOM     29  C   UNL d   1      -4.988  14.005  17.684 -0.04 -0.01    +0.046 C 
DOCKED: ATOM     30  C   UNL d   1     -13.256   9.548  14.453 -0.36 +0.00    +0.046 C 
DOCKED: ATOM     31  H   UNL d   1      -9.399  13.777  16.400 -0.14 -0.08    +0.166 HD
DOCKED: ATOM     32  H   UNL d   1     -10.228  13.012  14.685 -0.47 -0.09    +0.166 HD
DOCKED: ENDROOT
DOCKED: BRANCH   7  33
DOCKED: ATOM     33  C   UNL d   1     -15.189  14.497  13.308 -0.07 -0.04    +0.141 C 
DOCKED: BRANCH  33  34
DOCKED: ATOM     34  C   UNL d   1     -15.630  14.539  14.746 +0.00 -0.05    +0.306 C 
DOCKED: ATOM     35  O   UNL d   1     -15.720  13.585  15.500 -0.01 +0.01    -0.251 OA
DOCKED: BRANCH  34  36
DOCKED: ATOM     36  O   UNL d   1     -15.932  15.782  15.159 +0.01 +0.09    -0.481 OA
DOCKED: ATOM     37  H   UNL d   1     -15.673  16.361  14.411 +0.03 -0.08    +0.295 HD
DOCKED: ENDBRANCH  34  36
DOCKED: ENDBRANCH  33  34
DOCKED: ENDBRANCH   7  33
DOCKED: BRANCH  27  38
DOCKED: ATOM     38  C   UNL d   1     -10.608   8.632  15.878 -0.32 -0.00    +0.017 C 
DOCKED: ATOM     39  C   UNL d   1      -9.401   8.125  16.171 -0.36 -0.03    +0.092 C 
DOCKED: BRANCH  39  40
DOCKED: ATOM     40  C   UNL d   1      -9.290   6.761  16.694 -0.20 -0.14    +0.330 C 
DOCKED: ATOM     41  O   UNL d   1      -9.852   5.761  16.290 -0.35 +0.09    -0.246 OA
DOCKED: BRANCH  40  42
DOCKED: ATOM     42  O   UNL d   1      -8.439   6.732  17.731 -0.10 +0.40    -0.477 OA
DOCKED: ATOM     43  H   UNL d   1      -8.144   7.662  17.819 +0.09 -0.23    +0.295 HD
DOCKED: ENDBRANCH  40  42
DOCKED: ENDBRANCH  39  40
DOCKED: ENDBRANCH  27  38
DOCKED: BRANCH   8  44
DOCKED: ATOM     44  C   UNL d   1     -10.274  19.511  16.662 -0.08 -0.10    +0.141 C 
DOCKED: BRANCH  44  45
DOCKED: ATOM     45  C   UNL d   1      -8.854  19.862  16.309 -0.09 -0.17    +0.306 C 
DOCKED: ATOM     46  O   UNL d   1      -8.119  20.621  16.918 -0.03 +0.06    -0.251 OA
DOCKED: BRANCH  45  47
DOCKED: ATOM     47  O   UNL d   1      -8.439  19.256  15.182 -0.08 +0.38    -0.481 OA
DOCKED: ATOM     48  H   UNL d   1      -9.263  19.070  14.683 -0.44 -0.63    +0.295 HD
DOCKED: ENDBRANCH  45  47
DOCKED: ENDBRANCH  44  45
DOCKED: ENDBRANCH   8  44
DOCKED: BRANCH  22  49
DOCKED: ATOM     49  C   UNL d   1      -5.625  11.070  16.595 -0.19 -0.01    +0.048 C 
DOCKED: BRANCH  49  50
DOCKED: ATOM     50  C   UNL d   1      -5.457  10.369  17.942 -0.10 -0.05    +0.125 C 
DOCKED: BRANCH  50  51
DOCKED: ATOM     51  C   UNL d   1      -6.511   9.316  18.134 -0.10 -0.18    +0.305 C 
DOCKED: ATOM     52  O   UNL d   1      -7.249   9.169  19.092 -0.05 +0.12    -0.251 OA
DOCKED: BRANCH  51  53
DOCKED: ATOM     53  O   UNL d   1      -6.577   8.471  17.085 -0.15 +0.45    -0.481 OA
DOCKED: ATOM     54  H   UNL d   1      -6.419   7.588  17.481 -0.04 -0.56    +0.295 HD
DOCKED: ENDBRANCH  51  53
DOCKED: ENDBRANCH  50  51
DOCKED: ENDBRANCH  49  50
DOCKED: ENDBRANCH  22  49
DOCKED: TORSDOF 13
DOCKED: TER
DOCKED: ENDMDL
________________________________________________________________________________


	BEGINNING GENETIC ALGORITHM DOCKING 59 of 100
Run: 59 Seed: 1224126815 940440988 [ Run 59 of 100 GA/GALS ]
Beginning LAMARCKIAN GENETIC ALGORITHM (LGA), with a maximum of 25000000 energy evaluations.

Final-Value: -11.657


	FINAL GENETIC ALGORITHM DOCKED STATE
	_______________________________________________


Detailed state:  trans -7.980 -6.378 20.003 quatxyzw 0.220811 -0.926175 -0.247461 0.179459 center 0.153 0.018 -0.028 ntor 13 -96.7084 -169.9359 -7.6340 -32.2076 35.0733 94.6444 172.7538 -116.1495 128.8076 24.5031 -98.4455 -95.2226 -3.2618
State:	 -7.980  -6.378  20.003   0.224 -0.941 -0.252 159.323    -96.71 -169.94   -7.63  -32.21   35.07   94.64  172.75 -116.15  128.81   24.50  -98.45  -95.22   -3.26

DOCKED: MODEL       59
DOCKED: USER    Run = 59
DOCKED: USER    DPF = D:/Protein_go_brrr/autodock/final/AncMH_nat/heme/dock.dpf
DOCKED: USER  
DOCKED: USER    Estimated Free Energy of Binding    =   -3.82 kcal/mol  [=(1)+(2)+(3)-(4)]
DOCKED: USER    Estimated Inhibition Constant, Ki   =    1.57 mM (millimolar)  [Temperature = 298.15 K]
DOCKED: USER    
DOCKED: USER    (1) Final Intermolecular Energy     =   -7.70 kcal/mol
DOCKED: USER        vdW + Hbond + desolv Energy     =   -7.15 kcal/mol
DOCKED: USER        Electrostatic Energy            =   -0.55 kcal/mol
DOCKED: USER    (2) Final Total Internal Energy     =   -3.95 kcal/mol
DOCKED: USER    (3) Torsional Free Energy           =   +3.88 kcal/mol
DOCKED: USER    (4) Unbound System's Energy  [=(2)] =   -3.95 kcal/mol
DOCKED: USER    
DOCKED: USER    
DOCKED: USER    NEWDPF move heme_opt.pdbqt
DOCKED: USER    NEWDPF about 0.153000 0.018000 -0.028000
DOCKED: USER    NEWDPF tran0 -7.979760 -6.377811 20.003094
DOCKED: USER    NEWDPF quaternion0 0.220811 -0.926175 -0.247461 0.179459
DOCKED: USER    NEWDPF axisangle0 0.224455 -0.941459 -0.251544 159.323474
DOCKED: USER    NEWDPF quat0 0.224455 -0.941459 -0.251544 159.323474
DOCKED: USER    NEWDPF dihe0 -96.71 -169.94 -7.63 -32.21 35.07 94.64 172.75 -116.15 128.81 24.50 -98.45 -95.22 -3.26 
DOCKED: USER  keepresnum = 1 
DOCKED: USER  
DOCKED: REMARK  13 active torsions:
DOCKED: REMARK  status: ('A' for Active; 'I' for Inactive)
DOCKED: REMARK    1  A    between atoms: O_3  and  C_38 
DOCKED: REMARK    2  A    between atoms: O_4  and  C_40 
DOCKED: REMARK    3  A    between atoms: O_7  and  C_46 
DOCKED: REMARK    4  A    between atoms: O_9  and  C_48 
DOCKED: REMARK    5  A    between atoms: C_15  and  C_20 
DOCKED: REMARK    6  A    between atoms: C_16  and  C_23 
DOCKED: REMARK    7  A    between atoms: C_20  and  C_38 
DOCKED: REMARK    8  A    between atoms: C_23  and  C_40 
DOCKED: REMARK    9  A    between atoms: C_32  and  C_41 
DOCKED: REMARK   10  A    between atoms: C_37  and  C_45 
DOCKED: REMARK   11  A    between atoms: C_41  and  C_44 
DOCKED: REMARK   12  A    between atoms: C_44  and  C_46 
DOCKED: REMARK   13  A    between atoms: C_47  and  C_48 
DOCKED: USER                              x       y       z     vdW  Elec       q    Type
DOCKED: USER                           _______ _______ _______ _____ _____    ______ ____
DOCKED: ROOT
DOCKED: ATOM      1  O   UNL d   1      -3.974  -2.915  22.595 -0.03 +0.07    -0.289 OA
DOCKED: ATOM      2  O   UNL d   1      -3.693 -10.156  20.623 -0.08 +0.03    -0.289 OA
DOCKED: ATOM      3  N   UNL d   1      -6.656  -4.578  21.204 -0.09 +0.03    -0.247 NA
DOCKED: ATOM      4  N   UNL d   1      -5.523  -7.233  20.499 -0.15 +0.05    -0.247 NA
DOCKED: ATOM      5  N   UNL d   1      -7.873  -7.711  18.912 -0.12 +0.02    -0.354 N 
DOCKED: ATOM      6  N   UNL d   1      -9.031  -4.947  19.632 -0.17 +0.01    -0.354 N 
DOCKED: ATOM      7  C   UNL d   1      -6.195  -2.251  21.820 -0.08 -0.01    +0.084 A 
DOCKED: ATOM      8  C   UNL d   1      -3.604  -8.010  21.797 -0.08 -0.02    +0.084 A 
DOCKED: ATOM      9  C   UNL d   1      -4.606  -6.897  21.470 -0.14 -0.01    +0.058 A 
DOCKED: ATOM     10  C   UNL d   1      -7.157  -3.287  21.232 -0.15 -0.01    +0.058 A 
DOCKED: ATOM     11  C   UNL d   1      -5.068  -3.188  22.136 -0.05 -0.04    +0.193 A 
DOCKED: ATOM     12  C   UNL d   1      -5.479  -4.572  21.740 -0.09 -0.02    +0.109 A 
DOCKED: ATOM     13  C   UNL d   1      -4.100  -9.025  20.807 -0.10 -0.03    +0.193 A 
DOCKED: ATOM     14  C   UNL d   1      -5.722  -1.244  20.768 -0.16 -0.00    +0.026 C 
DOCKED: ATOM     15  C   UNL d   1      -4.558  -5.685  22.043 -0.11 -0.01    +0.055 C 
DOCKED: ATOM     16  C   UNL d   1      -3.810  -8.561  23.212 -0.03 -0.00    +0.026 C 
DOCKED: ATOM     17  C   UNL d   1      -5.260  -8.429  20.079 -0.20 -0.02    +0.109 A 
DOCKED: ATOM     18  C   UNL d   1      -8.410  -2.956  20.867 -0.18 -0.01    +0.050 C 
DOCKED: ATOM     19  C   UNL d   1      -9.395  -3.860  20.394 -0.18 -0.01    +0.045 A 
DOCKED: ATOM     20  C   UNL d   1      -7.103  -8.776  18.520 -0.24 -0.00    +0.045 A 
DOCKED: ATOM     21  C   UNL d   1      -5.927  -9.184  19.008 -0.21 -0.00    +0.057 C 
DOCKED: ATOM     22  C   UNL d   1      -8.983  -8.707  17.225 -0.35 -0.00    -0.019 A 
DOCKED: ATOM     23  C   UNL d   1      -9.028  -7.588  18.187 -0.32 +0.00    +0.045 A 
DOCKED: ATOM     24  C   UNL d   1      -7.842  -9.407  17.428 -0.30 -0.00    -0.022 A 
DOCKED: ATOM     25  C   UNL d   1     -10.145  -5.633  19.207 -0.16 +0.00    +0.049 A 
DOCKED: ATOM     26  C   UNL d   1     -10.777  -3.860  20.498 -0.15 +0.00    -0.018 A 
DOCKED: ATOM     27  C   UNL d   1     -11.245  -4.994  19.763 -0.15 +0.00    +0.003 A 
DOCKED: ATOM     28  C   UNL d   1     -10.032  -6.703  18.278 -0.28 +0.01    +0.052 C 
DOCKED: ATOM     29  C   UNL d   1      -7.354 -10.624  16.717 -0.34 +0.02    +0.046 C 
DOCKED: ATOM     30  C   UNL d   1     -11.615  -2.872  21.235 -0.11 -0.00    +0.046 C 
DOCKED: ATOM     31  H   UNL d   1      -7.618  -7.145  19.714 +0.06 -0.01    +0.166 HD
DOCKED: ATOM     32  H   UNL d   1      -8.072  -5.169  19.395 +0.04 -0.01    +0.166 HD
DOCKED: ENDROOT
DOCKED: BRANCH   7  33
DOCKED: ATOM     33  C   UNL d   1      -6.682  -1.548  23.091 -0.02 -0.02    +0.141 C 
DOCKED: BRANCH  33  34
DOCKED: ATOM     34  C   UNL d   1      -5.657  -0.607  23.662 +0.00 -0.05    +0.306 C 
DOCKED: ATOM     35  O   UNL d   1      -5.525   0.572  23.381 -0.00 +0.04    -0.251 OA
DOCKED: BRANCH  34  36
DOCKED: ATOM     36  O   UNL d   1      -4.851  -1.201  24.561 +0.00 +0.06    -0.481 OA
DOCKED: ATOM     37  H   UNL d   1      -4.183  -1.673  24.019 +0.01 -0.05    +0.295 HD
DOCKED: ENDBRANCH  34  36
DOCKED: ENDBRANCH  33  34
DOCKED: ENDBRANCH   7  33
DOCKED: BRANCH  27  38
DOCKED: ATOM     38  C   UNL d   1     -12.619  -5.361  19.598 -0.15 +0.00    +0.017 C 
DOCKED: ATOM     39  C   UNL d   1     -13.250  -5.489  18.421 -0.21 +0.04    +0.092 C 
DOCKED: BRANCH  39  40
DOCKED: ATOM     40  C   UNL d   1     -14.659  -5.890  18.388 -0.03 +0.35    +0.330 C 
DOCKED: ATOM     41  O   UNL d   1     -15.637  -5.167  18.368 -0.30 -0.29    -0.246 OA
DOCKED: BRANCH  40  42
DOCKED: ATOM     42  O   UNL d   1     -14.759  -7.228  18.373 -0.06 -0.67    -0.477 OA
DOCKED: ATOM     43  H   UNL d   1     -13.846  -7.533  18.553 +0.07 +0.23    +0.295 HD
DOCKED: ENDBRANCH  40  42
DOCKED: ENDBRANCH  39  40
DOCKED: ENDBRANCH  27  38
DOCKED: BRANCH   8  44
DOCKED: ATOM     44  C   UNL d   1      -2.132  -7.669  21.544 -0.10 -0.04    +0.141 C 
DOCKED: BRANCH  44  45
DOCKED: ATOM     45  C   UNL d   1      -1.941  -6.600  20.501 -0.17 -0.19    +0.306 C 
DOCKED: ATOM     46  O   UNL d   1      -1.274  -5.586  20.613 -0.16 +0.19    -0.251 OA
DOCKED: BRANCH  45  47
DOCKED: ATOM     47  O   UNL d   1      -2.628  -6.854  19.372 -0.04 +0.44    -0.481 OA
DOCKED: ATOM     48  H   UNL d   1      -2.537  -6.037  18.837 -0.37 -0.72    +0.295 HD
DOCKED: ENDBRANCH  45  47
DOCKED: ENDBRANCH  44  45
DOCKED: ENDBRANCH   8  44
DOCKED: BRANCH  22  49
DOCKED: ATOM     49  C   UNL d   1     -10.042  -8.977  16.196 -0.40 +0.02    +0.048 C 
DOCKED: BRANCH  49  50
DOCKED: ATOM     50  C   UNL d   1     -11.173  -9.838  16.757 -0.29 +0.04    +0.125 C 
DOCKED: BRANCH  50  51
DOCKED: ATOM     51  C   UNL d   1     -12.162  -8.998  17.515 -0.14 +0.11    +0.305 C 
DOCKED: ATOM     52  O   UNL d   1     -12.503  -9.121  18.678 -0.08 -0.08    -0.251 OA
DOCKED: BRANCH  51  53
DOCKED: ATOM     53  O   UNL d   1     -12.694  -8.028  16.745 -0.12 -0.30    -0.481 OA
DOCKED: ATOM     54  H   UNL d   1     -13.606  -7.924  17.089 +0.13 +0.31    +0.295 HD
DOCKED: ENDBRANCH  51  53
DOCKED: ENDBRANCH  50  51
DOCKED: ENDBRANCH  49  50
DOCKED: ENDBRANCH  22  49
DOCKED: TORSDOF 13
DOCKED: TER
DOCKED: ENDMDL
________________________________________________________________________________


	BEGINNING GENETIC ALGORITHM DOCKING 60 of 100
Run: 60 Seed: 916699469 1826659688 [ Run 60 of 100 GA/GALS ]
Beginning LAMARCKIAN GENETIC ALGORITHM (LGA), with a maximum of 25000000 energy evaluations.

Final-Value: -12.053


	FINAL GENETIC ALGORITHM DOCKED STATE
	_______________________________________________


Detailed state:  trans -0.499 18.785 -7.871 quatxyzw 0.290161 -0.722883 0.396456 -0.485870 center 0.153 0.018 -0.028 ntor 13 -180.0000 99.4264 -52.5238 94.4744 -155.1031 30.2152 -78.5191 34.2597 8.9699 -145.3665 79.0209 -47.4140 49.4882
State:	 -0.499  18.785  -7.871   0.332 -0.827  0.454 -121.861   -180.00   99.43  -52.52   94.47 -155.10   30.22  -78.52   34.26    8.97 -145.37   79.02  -47.41   49.49

DOCKED: MODEL       60
DOCKED: USER    Run = 60
DOCKED: USER    DPF = D:/Protein_go_brrr/autodock/final/AncMH_nat/heme/dock.dpf
DOCKED: USER  
DOCKED: USER    Estimated Free Energy of Binding    =   -5.33 kcal/mol  [=(1)+(2)+(3)-(4)]
DOCKED: USER    Estimated Inhibition Constant, Ki   =  124.68 uM (micromolar)  [Temperature = 298.15 K]
DOCKED: USER    
DOCKED: USER    (1) Final Intermolecular Energy     =   -9.20 kcal/mol
DOCKED: USER        vdW + Hbond + desolv Energy     =   -8.77 kcal/mol
DOCKED: USER        Electrostatic Energy            =   -0.44 kcal/mol
DOCKED: USER    (2) Final Total Internal Energy     =   -2.85 kcal/mol
DOCKED: USER    (3) Torsional Free Energy           =   +3.88 kcal/mol
DOCKED: USER    (4) Unbound System's Energy  [=(2)] =   -2.85 kcal/mol
DOCKED: USER    
DOCKED: USER    
DOCKED: USER    NEWDPF move heme_opt.pdbqt
DOCKED: USER    NEWDPF about 0.153000 0.018000 -0.028000
DOCKED: USER    NEWDPF tran0 -0.498750 18.784887 -7.870608
DOCKED: USER    NEWDPF quaternion0 0.290161 -0.722883 0.396456 -0.485870
DOCKED: USER    NEWDPF axisangle0 0.331980 -0.827068 0.453595 -121.861043
DOCKED: USER    NEWDPF quat0 0.331980 -0.827068 0.453595 -121.861043
DOCKED: USER    NEWDPF dihe0 -180.00 99.43 -52.52 94.47 -155.10 30.22 -78.52 34.26 8.97 -145.37 79.02 -47.41 49.49 
DOCKED: USER  keepresnum = 1 
DOCKED: USER  
DOCKED: REMARK  13 active torsions:
DOCKED: REMARK  status: ('A' for Active; 'I' for Inactive)
DOCKED: REMARK    1  A    between atoms: O_3  and  C_38 
DOCKED: REMARK    2  A    between atoms: O_4  and  C_40 
DOCKED: REMARK    3  A    between atoms: O_7  and  C_46 
DOCKED: REMARK    4  A    between atoms: O_9  and  C_48 
DOCKED: REMARK    5  A    between atoms: C_15  and  C_20 
DOCKED: REMARK    6  A    between atoms: C_16  and  C_23 
DOCKED: REMARK    7  A    between atoms: C_20  and  C_38 
DOCKED: REMARK    8  A    between atoms: C_23  and  C_40 
DOCKED: REMARK    9  A    between atoms: C_32  and  C_41 
DOCKED: REMARK   10  A    between atoms: C_37  and  C_45 
DOCKED: REMARK   11  A    between atoms: C_41  and  C_44 
DOCKED: REMARK   12  A    between atoms: C_44  and  C_46 
DOCKED: REMARK   13  A    between atoms: C_47  and  C_48 
DOCKED: USER                              x       y       z     vdW  Elec       q    Type
DOCKED: USER                           _______ _______ _______ _____ _____    ______ ____
DOCKED: ROOT
DOCKED: ATOM      1  O   UNL d   1      -0.147  19.297 -13.733 -0.02 +0.05    -0.289 OA
DOCKED: ATOM      2  O   UNL d   1       5.102  17.720  -8.600 -0.68 -0.14    -0.289 OA
DOCKED: ATOM      3  N   UNL d   1      -0.803  19.236 -10.348 -0.04 +0.07    -0.247 NA
DOCKED: ATOM      4  N   UNL d   1       1.740  18.243  -9.176 -0.10 +0.07    -0.247 NA
DOCKED: ATOM      5  N   UNL d   1       0.328  17.811  -6.709 +0.02 +0.08    -0.354 N 
DOCKED: ATOM      6  N   UNL d   1      -2.311  18.825  -7.938 -0.07 +0.07    -0.354 N 
DOCKED: ATOM      7  C   UNL d   1      -2.166  19.496 -12.369 -0.06 -0.01    +0.084 A 
DOCKED: ATOM      8  C   UNL d   1       3.789  18.649 -10.445 -0.13 -0.01    +0.084 A 
DOCKED: ATOM      9  C   UNL d   1       2.261  18.722 -10.358 -0.15 -0.02    +0.058 A 
DOCKED: ATOM     10  C   UNL d   1      -2.085  19.414 -10.842 -0.14 -0.01    +0.058 A 
DOCKED: ATOM     11  C   UNL d   1      -0.700  19.352 -12.650 -0.05 -0.03    +0.193 A 
DOCKED: ATOM     12  C   UNL d   1       0.021  19.228 -11.344 -0.11 -0.02    +0.109 A 
DOCKED: ATOM     13  C   UNL d   1       4.036  18.005  -9.110 -0.11 +0.03    +0.193 A 
DOCKED: ATOM     14  C   UNL d   1      -2.905  18.298 -12.970 -0.10 -0.00    +0.026 C 
DOCKED: ATOM     15  C   UNL d   1       1.497  19.167 -11.367 -0.14 -0.01    +0.055 C 
DOCKED: ATOM     16  C   UNL d   1       4.425  20.043 -10.444 -0.04 -0.00    +0.026 C 
DOCKED: ATOM     17  C   UNL d   1       2.714  17.805  -8.444 -0.21 -0.01    +0.109 A 
DOCKED: ATOM     18  C   UNL d   1      -3.173  19.594 -10.070 -0.18 -0.00    +0.050 C 
DOCKED: ATOM     19  C   UNL d   1      -3.180  19.619  -8.652 -0.18 -0.00    +0.045 A 
DOCKED: ATOM     20  C   UNL d   1       1.510  17.182  -6.417 -0.25 -0.01    +0.045 A 
DOCKED: ATOM     21  C   UNL d   1       2.640  17.149  -7.130 -0.29 -0.00    +0.057 C 
DOCKED: ATOM     22  C   UNL d   1       0.028  16.793  -4.723 -0.36 -0.00    -0.019 A 
DOCKED: ATOM     23  C   UNL d   1      -0.628  17.633  -5.745 -0.30 -0.00    +0.045 A 
DOCKED: ATOM     24  C   UNL d   1       1.293  16.530  -5.126 -0.33 +0.00    -0.022 A 
DOCKED: ATOM     25  C   UNL d   1      -2.550  18.938  -6.588 -0.25 -0.00    +0.049 A 
DOCKED: ATOM     26  C   UNL d   1      -3.980  20.293  -7.742 -0.13 +0.00    -0.018 A 
DOCKED: ATOM     27  C   UNL d   1      -3.564  19.874  -6.440 -0.16 -0.00    +0.003 A 
DOCKED: ATOM     28  C   UNL d   1      -1.884  18.097  -5.657 -0.38 +0.00    +0.052 C 
DOCKED: ATOM     29  C   UNL d   1       2.348  15.736  -4.433 -0.39 -0.00    +0.046 C 
DOCKED: ATOM     30  C   UNL d   1      -5.062  21.269  -8.059 -0.06 -0.00    +0.046 C 
DOCKED: ATOM     31  H   UNL d   1       0.237  18.406  -7.526 -0.31 -0.07    +0.166 HD
DOCKED: ATOM     32  H   UNL d   1      -1.625  18.217  -8.370 -0.54 -0.11    +0.166 HD
DOCKED: ENDROOT
DOCKED: BRANCH   7  33
DOCKED: ATOM     33  C   UNL d   1      -2.693  20.821 -12.929 -0.01 -0.01    +0.141 C 
DOCKED: BRANCH  33  34
DOCKED: ATOM     34  C   UNL d   1      -1.890  22.006 -12.465 +0.00 -0.02    +0.306 C 
DOCKED: ATOM     35  O   UNL d   1      -2.197  22.780 -11.573 -0.00 +0.01    -0.251 OA
DOCKED: BRANCH  34  36
DOCKED: ATOM     36  O   UNL d   1      -0.740  22.153 -13.147 +0.00 +0.04    -0.481 OA
DOCKED: ATOM     37  H   UNL d   1      -0.719  21.389 -13.762 +0.01 -0.03    +0.295 HD
DOCKED: ENDBRANCH  34  36
DOCKED: ENDBRANCH  33  34
DOCKED: ENDBRANCH   7  33
DOCKED: BRANCH  27  38
DOCKED: ATOM     38  C   UNL d   1      -4.142  20.318  -5.207 -0.14 -0.00    +0.017 C 
DOCKED: ATOM     39  C   UNL d   1      -3.899  19.782  -4.001 -0.03 -0.00    +0.092 C 
DOCKED: BRANCH  39  40
DOCKED: ATOM     40  C   UNL d   1      -4.543  20.343  -2.810 -0.00 -0.02    +0.330 C 
DOCKED: ATOM     41  O   UNL d   1      -5.611  20.920  -2.745 -0.06 -0.00    -0.246 OA
DOCKED: BRANCH  40  42
DOCKED: ATOM     42  O   UNL d   1      -3.779  20.128  -1.728 -0.02 +0.05    -0.477 OA
DOCKED: ATOM     43  H   UNL d   1      -3.979  19.202  -1.479 -0.43 -0.12    +0.295 HD
DOCKED: ENDBRANCH  40  42
DOCKED: ENDBRANCH  39  40
DOCKED: ENDBRANCH  27  38
DOCKED: BRANCH   8  44
DOCKED: ATOM     44  C   UNL d   1       4.345  17.786 -11.582 -0.09 -0.05    +0.141 C 
DOCKED: BRANCH  44  45
DOCKED: ATOM     45  C   UNL d   1       5.807  18.027 -11.850 -0.08 -0.10    +0.306 C 
DOCKED: ATOM     46  O   UNL d   1       6.305  18.371 -12.907 -0.09 +0.12    -0.251 OA
DOCKED: BRANCH  45  47
DOCKED: ATOM     47  O   UNL d   1       6.574  17.792 -10.769 -0.15 +0.04    -0.481 OA
DOCKED: ATOM     48  H   UNL d   1       7.256  17.161 -11.082 -0.45 -0.32    +0.295 HD
DOCKED: ENDBRANCH  45  47
DOCKED: ENDBRANCH  44  45
DOCKED: ENDBRANCH   8  44
DOCKED: BRANCH  22  49
DOCKED: ATOM     49  C   UNL d   1      -0.642  16.317  -3.467 -0.43 +0.01    +0.048 C 
DOCKED: BRANCH  49  50
DOCKED: ATOM     50  C   UNL d   1      -1.636  17.345  -2.928 -0.18 +0.04    +0.125 C 
DOCKED: BRANCH  50  51
DOCKED: ATOM     51  C   UNL d   1      -1.035  18.131  -1.798 -0.18 +0.03    +0.305 C 
DOCKED: ATOM     52  O   UNL d   1       0.142  18.383  -1.611 -0.16 -0.02    -0.251 OA
DOCKED: BRANCH  51  53
DOCKED: ATOM     53  O   UNL d   1      -1.972  18.561  -0.929 -0.12 -0.01    -0.481 OA
DOCKED: ATOM     54  H   UNL d   1      -2.284  19.407  -1.315 +0.06 -0.00    +0.295 HD
DOCKED: ENDBRANCH  51  53
DOCKED: ENDBRANCH  50  51
DOCKED: ENDBRANCH  49  50
DOCKED: ENDBRANCH  22  49
DOCKED: TORSDOF 13
DOCKED: TER
DOCKED: ENDMDL
________________________________________________________________________________


	BEGINNING GENETIC ALGORITHM DOCKING 61 of 100
Run: 61 Seed: 1033885034 1182354319 [ Run 61 of 100 GA/GALS ]
Beginning LAMARCKIAN GENETIC ALGORITHM (LGA), with a maximum of 25000000 energy evaluations.

Final-Value: -12.115


	FINAL GENETIC ALGORITHM DOCKED STATE
	_______________________________________________


Detailed state:  trans 10.330 -11.681 -5.096 quatxyzw 0.036717 -0.894174 0.439212 0.078723 center 0.153 0.018 -0.028 ntor 13 -105.9476 -98.4984 179.8998 -101.0608 50.7164 -9.4488 144.4737 -180.0000 138.2934 -10.8169 -46.1035 -15.8002 -139.8350
State:	 10.330 -11.681  -5.096   0.037 -0.897  0.441 170.970   -105.95  -98.50  179.90 -101.06   50.72   -9.45  144.47 -180.00  138.29  -10.82  -46.10  -15.80 -139.84

DOCKED: MODEL       61
DOCKED: USER    Run = 61
DOCKED: USER    DPF = D:/Protein_go_brrr/autodock/final/AncMH_nat/heme/dock.dpf
DOCKED: USER  
DOCKED: USER    Estimated Free Energy of Binding    =   -6.08 kcal/mol  [=(1)+(2)+(3)-(4)]
DOCKED: USER    Estimated Inhibition Constant, Ki   =   34.68 uM (micromolar)  [Temperature = 298.15 K]
DOCKED: USER    
DOCKED: USER    (1) Final Intermolecular Energy     =   -9.96 kcal/mol
DOCKED: USER        vdW + Hbond + desolv Energy     =   -9.68 kcal/mol
DOCKED: USER        Electrostatic Energy            =   -0.28 kcal/mol
DOCKED: USER    (2) Final Total Internal Energy     =   -2.15 kcal/mol
DOCKED: USER    (3) Torsional Free Energy           =   +3.88 kcal/mol
DOCKED: USER    (4) Unbound System's Energy  [=(2)] =   -2.15 kcal/mol
DOCKED: USER    
DOCKED: USER    
DOCKED: USER    NEWDPF move heme_opt.pdbqt
DOCKED: USER    NEWDPF about 0.153000 0.018000 -0.028000
DOCKED: USER    NEWDPF tran0 10.330301 -11.681048 -5.095722
DOCKED: USER    NEWDPF quaternion0 0.036717 -0.894174 0.439212 0.078723
DOCKED: USER    NEWDPF axisangle0 0.036831 -0.896958 0.440579 170.969624
DOCKED: USER    NEWDPF quat0 0.036831 -0.896958 0.440579 170.969624
DOCKED: USER    NEWDPF dihe0 -105.95 -98.50 179.90 -101.06 50.72 -9.45 144.47 -180.00 138.29 -10.82 -46.10 -15.80 -139.84 
DOCKED: USER  keepresnum = 1 
DOCKED: USER  
DOCKED: REMARK  13 active torsions:
DOCKED: REMARK  status: ('A' for Active; 'I' for Inactive)
DOCKED: REMARK    1  A    between atoms: O_3  and  C_38 
DOCKED: REMARK    2  A    between atoms: O_4  and  C_40 
DOCKED: REMARK    3  A    between atoms: O_7  and  C_46 
DOCKED: REMARK    4  A    between atoms: O_9  and  C_48 
DOCKED: REMARK    5  A    between atoms: C_15  and  C_20 
DOCKED: REMARK    6  A    between atoms: C_16  and  C_23 
DOCKED: REMARK    7  A    between atoms: C_20  and  C_38 
DOCKED: REMARK    8  A    between atoms: C_23  and  C_40 
DOCKED: REMARK    9  A    between atoms: C_32  and  C_41 
DOCKED: REMARK   10  A    between atoms: C_37  and  C_45 
DOCKED: REMARK   11  A    between atoms: C_41  and  C_44 
DOCKED: REMARK   12  A    between atoms: C_44  and  C_46 
DOCKED: REMARK   13  A    between atoms: C_47  and  C_48 
DOCKED: USER                              x       y       z     vdW  Elec       q    Type
DOCKED: USER                           _______ _______ _______ _____ _____    ______ ____
DOCKED: ROOT
DOCKED: ATOM      1  O   UNL d   1      15.975 -10.397  -6.213 -0.45 +0.02    -0.289 OA
DOCKED: ATOM      2  O   UNL d   1      12.657 -13.055  -0.023 -0.10 +0.08    -0.289 OA
DOCKED: ATOM      3  N   UNL d   1      12.567 -10.872  -5.977 -0.19 +0.09    -0.247 NA
DOCKED: ATOM      4  N   UNL d   1      12.244 -12.206  -3.342 -0.17 +0.09    -0.247 NA
DOCKED: ATOM      5  N   UNL d   1       9.552 -12.864  -4.109 -0.11 +0.09    -0.354 N 
DOCKED: ATOM      6  N   UNL d   1       9.902 -11.495  -6.849 +0.02 +0.15    -0.354 N 
DOCKED: ATOM      7  C   UNL d   1      14.103 -10.236  -7.778 -0.19 -0.03    +0.084 A 
DOCKED: ATOM      8  C   UNL d   1      13.963 -11.784  -1.657 -0.15 -0.02    +0.084 A 
DOCKED: ATOM      9  C   UNL d   1      13.460 -11.609  -3.094 -0.22 -0.02    +0.058 A 
DOCKED: ATOM     10  C   UNL d   1      12.674 -10.533  -7.316 -0.23 -0.02    +0.058 A 
DOCKED: ATOM     11  C   UNL d   1      14.783 -10.450  -6.459 -0.16 -0.04    +0.193 A 
DOCKED: ATOM     12  C   UNL d   1      13.742 -10.806  -5.443 -0.23 -0.03    +0.109 A 
DOCKED: ATOM     13  C   UNL d   1      12.825 -12.623  -1.146 +0.04 -0.07    +0.193 A 
DOCKED: ATOM     14  C   UNL d   1      14.614 -11.280  -8.773 -0.06 -0.01    +0.026 C 
DOCKED: ATOM     15  C   UNL d   1      14.169 -10.974  -4.039 -0.22 -0.01    +0.055 C 
DOCKED: ATOM     16  C   UNL d   1      13.977 -10.456  -0.895 -0.26 -0.01    +0.026 C 
DOCKED: ATOM     17  C   UNL d   1      11.855 -12.812  -2.266 +0.00 -0.04    +0.109 A 
DOCKED: ATOM     18  C   UNL d   1      11.622 -10.379  -8.142 -0.26 -0.02    +0.050 C 
DOCKED: ATOM     19  C   UNL d   1      10.261 -10.548  -7.780 -0.24 -0.02    +0.045 A 
DOCKED: ATOM     20  C   UNL d   1       9.662 -13.615  -2.968 -0.19 -0.01    +0.045 A 
DOCKED: ATOM     21  C   UNL d   1      10.652 -13.635  -2.070 -0.18 -0.01    +0.057 C 
DOCKED: ATOM     22  C   UNL d   1       7.686 -14.121  -3.996 -0.14 +0.00    -0.019 A 
DOCKED: ATOM     23  C   UNL d   1       8.392 -13.101  -4.797 -0.19 -0.01    +0.045 A 
DOCKED: ATOM     24  C   UNL d   1       8.442 -14.420  -2.914 -0.11 +0.00    -0.022 A 
DOCKED: ATOM     25  C   UNL d   1       8.534 -11.551  -6.718 -0.09 -0.02    +0.049 A 
DOCKED: ATOM     26  C   UNL d   1       9.099  -9.947  -8.240 -0.28 +0.01    -0.018 A 
DOCKED: ATOM     27  C   UNL d   1       8.013 -10.571  -7.551 -0.27 -0.00    +0.003 A 
DOCKED: ATOM     28  C   UNL d   1       7.917 -12.560  -5.930 -0.20 -0.01    +0.052 C 
DOCKED: ATOM     29  C   UNL d   1       8.152 -15.379  -1.810 -0.06 -0.00    +0.046 C 
DOCKED: ATOM     30  C   UNL d   1       9.001  -8.858  -9.255 -0.33 -0.01    +0.046 C 
DOCKED: ATOM     31  H   UNL d   1      10.241 -12.158  -4.342 -0.28 -0.08    +0.166 HD
DOCKED: ATOM     32  H   UNL d   1      10.568 -12.088  -6.367 -0.04 -0.06    +0.166 HD
DOCKED: ENDROOT
DOCKED: BRANCH   7  33
DOCKED: ATOM     33  C   UNL d   1      14.348  -8.810  -8.284 -0.22 -0.10    +0.141 C 
DOCKED: BRANCH  33  34
DOCKED: ATOM     34  C   UNL d   1      15.728  -8.626  -8.853 -0.19 -0.17    +0.306 C 
DOCKED: ATOM     35  O   UNL d   1      16.015  -8.546 -10.036 -0.13 +0.16    -0.251 OA
DOCKED: BRANCH  34  36
DOCKED: ATOM     36  O   UNL d   1      16.676  -8.551  -7.902 -0.11 +0.11    -0.481 OA
DOCKED: ATOM     37  H   UNL d   1      16.744  -9.463  -7.549 +0.07 -0.05    +0.295 HD
DOCKED: ENDBRANCH  34  36
DOCKED: ENDBRANCH  33  34
DOCKED: ENDBRANCH   7  33
DOCKED: BRANCH  27  38
DOCKED: ATOM     38  C   UNL d   1       6.629 -10.258  -7.739 -0.25 -0.00    +0.017 C 
DOCKED: ATOM     39  C   UNL d   1       5.649 -10.523  -6.862 -0.38 +0.01    +0.092 C 
DOCKED: BRANCH  39  40
DOCKED: ATOM     40  C   UNL d   1       4.269 -10.135  -7.168 -0.28 +0.06    +0.330 C 
DOCKED: ATOM     41  O   UNL d   1       3.883  -9.409  -8.065 -1.25 -0.03    -0.246 OA
DOCKED: BRANCH  40  42
DOCKED: ATOM     42  O   UNL d   1       3.424 -10.712  -6.301 -0.42 -0.11    -0.477 OA
DOCKED: ATOM     43  H   UNL d   1       3.467 -10.134  -5.511 -0.33 +0.06    +0.295 HD
DOCKED: ENDBRANCH  40  42
DOCKED: ENDBRANCH  39  40
DOCKED: ENDBRANCH  27  38
DOCKED: BRANCH   8  44
DOCKED: ATOM     44  C   UNL d   1      15.298 -12.522  -1.510 -0.04 -0.02    +0.141 C 
DOCKED: BRANCH  44  45
DOCKED: ATOM     45  C   UNL d   1      15.263 -13.927  -2.052 -0.00 -0.04    +0.306 C 
DOCKED: ATOM     46  O   UNL d   1      15.690 -14.300  -3.131 -0.00 +0.03    -0.251 OA
DOCKED: BRANCH  45  47
DOCKED: ATOM     47  O   UNL d   1      14.663 -14.788  -1.211 +0.01 +0.07    -0.481 OA
DOCKED: ATOM     48  H   UNL d   1      14.414 -14.244  -0.434 +0.03 -0.05    +0.295 HD
DOCKED: ENDBRANCH  45  47
DOCKED: ENDBRANCH  44  45
DOCKED: ENDBRANCH   8  44
DOCKED: BRANCH  22  49
DOCKED: ATOM     49  C   UNL d   1       6.358 -14.713  -4.367 -0.12 -0.00    +0.048 C 
DOCKED: BRANCH  49  50
DOCKED: ATOM     50  C   UNL d   1       6.331 -16.226  -4.156 -0.03 -0.02    +0.125 C 
DOCKED: BRANCH  50  51
DOCKED: ATOM     51  C   UNL d   1       5.065 -16.649  -3.466 -0.03 -0.06    +0.305 C 
DOCKED: ATOM     52  O   UNL d   1       4.683 -17.784  -3.244 -0.01 +0.04    -0.251 OA
DOCKED: BRANCH  51  53
DOCKED: ATOM     53  O   UNL d   1       4.318 -15.591  -3.091 -0.07 +0.16    -0.481 OA
DOCKED: ATOM     54  H   UNL d   1       3.875 -15.307  -3.918 -0.39 -0.29    +0.295 HD
DOCKED: ENDBRANCH  51  53
DOCKED: ENDBRANCH  50  51
DOCKED: ENDBRANCH  49  50
DOCKED: ENDBRANCH  22  49
DOCKED: TORSDOF 13
DOCKED: TER
DOCKED: ENDMDL
________________________________________________________________________________


	BEGINNING GENETIC ALGORITHM DOCKING 62 of 100
Run: 62 Seed: 28218965 743006868 [ Run 62 of 100 GA/GALS ]
Beginning LAMARCKIAN GENETIC ALGORITHM (LGA), with a maximum of 25000000 energy evaluations.

Final-Value: -12.968


	FINAL GENETIC ALGORITHM DOCKED STATE
	_______________________________________________


Detailed state:  trans 10.515 -11.402 -5.502 quatxyzw 0.808517 0.214460 0.050251 -0.545694 center 0.153 0.018 -0.028 ntor 13 -175.7370 173.7189 24.8302 34.4189 -154.3535 26.8003 129.5673 -166.0545 15.4568 131.5147 68.9137 -87.1723 130.2285
State:	 10.515 -11.402  -5.502   0.965  0.256  0.060 -113.856   -175.74  173.72   24.83   34.42 -154.35   26.80  129.57 -166.05   15.46  131.51   68.91  -87.17  130.23

DOCKED: MODEL       62
DOCKED: USER    Run = 62
DOCKED: USER    DPF = D:/Protein_go_brrr/autodock/final/AncMH_nat/heme/dock.dpf
DOCKED: USER  
DOCKED: USER    Estimated Free Energy of Binding    =   -5.37 kcal/mol  [=(1)+(2)+(3)-(4)]
DOCKED: USER    Estimated Inhibition Constant, Ki   =  115.19 uM (micromolar)  [Temperature = 298.15 K]
DOCKED: USER    
DOCKED: USER    (1) Final Intermolecular Energy     =   -9.25 kcal/mol
DOCKED: USER        vdW + Hbond + desolv Energy     =   -8.88 kcal/mol
DOCKED: USER        Electrostatic Energy            =   -0.37 kcal/mol
DOCKED: USER    (2) Final Total Internal Energy     =   -3.72 kcal/mol
DOCKED: USER    (3) Torsional Free Energy           =   +3.88 kcal/mol
DOCKED: USER    (4) Unbound System's Energy  [=(2)] =   -3.72 kcal/mol
DOCKED: USER    
DOCKED: USER    
DOCKED: USER    NEWDPF move heme_opt.pdbqt
DOCKED: USER    NEWDPF about 0.153000 0.018000 -0.028000
DOCKED: USER    NEWDPF tran0 10.515055 -11.401846 -5.502329
DOCKED: USER    NEWDPF quaternion0 0.808517 0.214460 0.050251 -0.545694
DOCKED: USER    NEWDPF axisangle0 0.964835 0.255923 0.059967 -113.855818
DOCKED: USER    NEWDPF quat0 0.964835 0.255923 0.059967 -113.855818
DOCKED: USER    NEWDPF dihe0 -175.74 173.72 24.83 34.42 -154.35 26.80 129.57 -166.05 15.46 131.51 68.91 -87.17 130.23 
DOCKED: USER  keepresnum = 1 
DOCKED: USER  
DOCKED: REMARK  13 active torsions:
DOCKED: REMARK  status: ('A' for Active; 'I' for Inactive)
DOCKED: REMARK    1  A    between atoms: O_3  and  C_38 
DOCKED: REMARK    2  A    between atoms: O_4  and  C_40 
DOCKED: REMARK    3  A    between atoms: O_7  and  C_46 
DOCKED: REMARK    4  A    between atoms: O_9  and  C_48 
DOCKED: REMARK    5  A    between atoms: C_15  and  C_20 
DOCKED: REMARK    6  A    between atoms: C_16  and  C_23 
DOCKED: REMARK    7  A    between atoms: C_20  and  C_38 
DOCKED: REMARK    8  A    between atoms: C_23  and  C_40 
DOCKED: REMARK    9  A    between atoms: C_32  and  C_41 
DOCKED: REMARK   10  A    between atoms: C_37  and  C_45 
DOCKED: REMARK   11  A    between atoms: C_41  and  C_44 
DOCKED: REMARK   12  A    between atoms: C_44  and  C_46 
DOCKED: REMARK   13  A    between atoms: C_47  and  C_48 
DOCKED: USER                              x       y       z     vdW  Elec       q    Type
DOCKED: USER                           _______ _______ _______ _____ _____    ______ ____
DOCKED: ROOT
DOCKED: ATOM      1  O   UNL d   1       6.146 -14.741  -3.377 -0.09 -0.01    -0.289 OA
DOCKED: ATOM      2  O   UNL d   1       6.203  -9.596  -8.846 -0.22 +0.03    -0.289 OA
DOCKED: ATOM      3  N   UNL d   1       8.955 -12.914  -4.194 -0.16 +0.05    -0.247 NA
DOCKED: ATOM      4  N   UNL d   1       8.109 -11.404  -6.609 -0.13 +0.07    -0.247 NA
DOCKED: ATOM      5  N   UNL d   1      10.876 -10.769  -7.067 -0.09 +0.16    -0.354 N 
DOCKED: ATOM      6  N   UNL d   1      11.746 -12.354  -4.571 -0.10 +0.12    -0.354 N 
DOCKED: ATOM      7  C   UNL d   1       8.487 -14.780  -2.675 -0.07 -0.01    +0.084 A 
DOCKED: ATOM      8  C   UNL d   1       5.722 -10.947  -6.862 -0.32 +0.00    +0.084 A 
DOCKED: ATOM      9  C   UNL d   1       6.854 -11.634  -6.092 -0.28 -0.00    +0.058 A 
DOCKED: ATOM     10  C   UNL d   1       9.496 -13.793  -3.271 -0.16 -0.01    +0.058 A 
DOCKED: ATOM     11  C   UNL d   1       7.277 -14.291  -3.412 -0.10 +0.01    +0.193 A 
DOCKED: ATOM     12  C   UNL d   1       7.685 -13.141  -4.280 -0.19 +0.00    +0.109 A 
DOCKED: ATOM     13  C   UNL d   1       6.564 -10.314  -7.935 -0.13 -0.02    +0.193 A 
DOCKED: ATOM     14  C   UNL d   1       8.776 -16.223  -3.100 -0.02 -0.00    +0.026 C 
DOCKED: ATOM     15  C   UNL d   1       6.633 -12.433  -5.036 -0.07 +0.01    +0.055 C 
DOCKED: ATOM     16  C   UNL d   1       5.064  -9.838  -6.035 -0.31 +0.01    +0.026 C 
DOCKED: ATOM     17  C   UNL d   1       7.990 -10.674  -7.671 -0.22 -0.02    +0.109 A 
DOCKED: ATOM     18  C   UNL d   1      10.772 -13.750  -2.845 -0.16 -0.01    +0.050 C 
DOCKED: ATOM     19  C   UNL d   1      11.751 -12.819  -3.275 -0.19 -0.01    +0.045 A 
DOCKED: ATOM     20  C   UNL d   1      10.334 -10.326  -8.246 -0.25 -0.02    +0.045 A 
DOCKED: ATOM     21  C   UNL d   1       9.046 -10.226  -8.591 -0.26 -0.02    +0.057 C 
DOCKED: ATOM     22  C   UNL d   1      12.611 -10.205  -8.388 -0.21 +0.01    -0.019 A 
DOCKED: ATOM     23  C   UNL d   1      12.245 -10.734  -7.059 -0.23 -0.02    +0.045 A 
DOCKED: ATOM     24  C   UNL d   1      11.475  -9.964  -9.085 -0.20 +0.01    -0.022 A 
DOCKED: ATOM     25  C   UNL d   1      12.830 -11.537  -4.796 -0.25 -0.01    +0.049 A 
DOCKED: ATOM     26  C   UNL d   1      12.845 -12.261  -2.631 -0.15 +0.01    -0.018 A 
DOCKED: ATOM     27  C   UNL d   1      13.511 -11.437  -3.590 -0.26 -0.00    +0.003 A 
DOCKED: ATOM     28  C   UNL d   1      13.126 -11.062  -6.102 -0.26 -0.02    +0.052 C 
DOCKED: ATOM     29  C   UNL d   1      11.325  -9.417 -10.464 -0.02 -0.04    +0.046 C 
DOCKED: ATOM     30  C   UNL d   1      13.247 -12.476  -1.211 -0.13 -0.02    +0.046 C 
DOCKED: ATOM     31  H   UNL d   1      10.288 -11.013  -6.277 -0.49 -0.11    +0.166 HD
DOCKED: ATOM     32  H   UNL d   1      11.054 -12.623  -5.260 +0.01 -0.05    +0.166 HD
DOCKED: ENDROOT
DOCKED: BRANCH   7  33
DOCKED: ATOM     33  C   UNL d   1       8.276 -14.671  -1.161 -0.09 -0.01    +0.141 C 
DOCKED: BRANCH  33  34
DOCKED: ATOM     34  C   UNL d   1       7.702 -13.342  -0.751 -0.16 +0.00    +0.306 C 
DOCKED: ATOM     35  O   UNL d   1       8.324 -12.401  -0.289 -0.29 +0.03    -0.251 OA
DOCKED: BRANCH  34  36
DOCKED: ATOM     36  O   UNL d   1       6.374 -13.269  -0.946 -0.08 -0.13    -0.481 OA
DOCKED: ATOM     37  H   UNL d   1       6.126 -14.152  -1.294 +0.08 +0.06    +0.295 HD
DOCKED: ENDBRANCH  34  36
DOCKED: ENDBRANCH  33  34
DOCKED: ENDBRANCH   7  33
DOCKED: BRANCH  27  38
DOCKED: ATOM     38  C   UNL d   1      14.704 -10.684  -3.345 -0.12 -0.00    +0.017 C 
DOCKED: ATOM     39  C   UNL d   1      15.805 -10.705  -4.112 -0.15 -0.00    +0.092 C 
DOCKED: BRANCH  39  40
DOCKED: ATOM     40  C   UNL d   1      16.956  -9.871  -3.759 -0.06 +0.00    +0.330 C 
DOCKED: ATOM     41  O   UNL d   1      17.258  -9.447  -2.660 -0.12 +0.01    -0.246 OA
DOCKED: BRANCH  40  42
DOCKED: ATOM     42  O   UNL d   1      17.694  -9.617  -4.851 -0.18 -0.00    -0.477 OA
DOCKED: ATOM     43  H   UNL d   1      17.280 -10.166  -5.547 +0.05 -0.00    +0.295 HD
DOCKED: ENDBRANCH  40  42
DOCKED: ENDBRANCH  39  40
DOCKED: ENDBRANCH  27  38
DOCKED: BRANCH   8  44
DOCKED: ATOM     44  C   UNL d   1       4.673 -11.883  -7.470 -0.20 +0.00    +0.141 C 
DOCKED: BRANCH  44  45
DOCKED: ATOM     45  C   UNL d   1       3.625 -12.322  -6.482 -0.23 -0.05    +0.306 C 
DOCKED: ATOM     46  O   UNL d   1       2.606 -11.723  -6.189 -0.44 +0.03    -0.251 OA
DOCKED: BRANCH  45  47
DOCKED: ATOM     47  O   UNL d   1       3.934 -13.491  -5.890 -0.20 +0.30    -0.481 OA
DOCKED: ATOM     48  H   UNL d   1       3.071 -13.859  -5.603 -0.31 -0.66    +0.295 HD
DOCKED: ENDBRANCH  45  47
DOCKED: ENDBRANCH  44  45
DOCKED: ENDBRANCH   8  44
DOCKED: BRANCH  22  49
DOCKED: ATOM     49  C   UNL d   1      14.022 -10.000  -8.854 -0.18 -0.03    +0.048 C 
DOCKED: BRANCH  49  50
DOCKED: ATOM     50  C   UNL d   1      14.901 -11.215  -8.556 -0.05 -0.03    +0.125 C 
DOCKED: BRANCH  50  51
DOCKED: ATOM     51  C   UNL d   1      15.902 -10.902  -7.481 -0.05 -0.06    +0.305 C 
DOCKED: ATOM     52  O   UNL d   1      16.827 -11.598  -7.101 -0.02 +0.04    -0.251 OA
DOCKED: BRANCH  51  53
DOCKED: ATOM     53  O   UNL d   1      15.674  -9.700  -6.914 -0.43 +0.06    -0.481 OA
DOCKED: ATOM     54  H   UNL d   1      16.569  -9.364  -6.699 +0.07 +0.00    +0.295 HD
DOCKED: ENDBRANCH  51  53
DOCKED: ENDBRANCH  50  51
DOCKED: ENDBRANCH  49  50
DOCKED: ENDBRANCH  22  49
DOCKED: TORSDOF 13
DOCKED: TER
DOCKED: ENDMDL
________________________________________________________________________________


	BEGINNING GENETIC ALGORITHM DOCKING 63 of 100
Run: 63 Seed: 1353144278 807523171 [ Run 63 of 100 GA/GALS ]
Beginning LAMARCKIAN GENETIC ALGORITHM (LGA), with a maximum of 25000000 energy evaluations.

Final-Value: -12.468


	FINAL GENETIC ALGORITHM DOCKED STATE
	_______________________________________________


Detailed state:  trans -9.076 13.903 16.050 quatxyzw -0.987735 0.134647 -0.074063 0.027633 center 0.153 0.018 -0.028 ntor 13 -46.7818 75.7051 138.2201 -44.1907 30.8216 -42.9852 -43.4102 -90.1387 -145.7165 -106.9711 106.8847 -97.1747 174.3435
State:	 -9.076  13.903  16.050  -0.988  0.135 -0.074 176.833    -46.78   75.71  138.22  -44.19   30.82  -42.99  -43.41  -90.14 -145.72 -106.97  106.88  -97.17  174.34

DOCKED: MODEL       63
DOCKED: USER    Run = 63
DOCKED: USER    DPF = D:/Protein_go_brrr/autodock/final/AncMH_nat/heme/dock.dpf
DOCKED: USER  
DOCKED: USER    Estimated Free Energy of Binding    =   -6.90 kcal/mol  [=(1)+(2)+(3)-(4)]
DOCKED: USER    Estimated Inhibition Constant, Ki   =    8.71 uM (micromolar)  [Temperature = 298.15 K]
DOCKED: USER    
DOCKED: USER    (1) Final Intermolecular Energy     =  -10.78 kcal/mol
DOCKED: USER        vdW + Hbond + desolv Energy     =  -10.03 kcal/mol
DOCKED: USER        Electrostatic Energy            =   -0.75 kcal/mol
DOCKED: USER    (2) Final Total Internal Energy     =   -1.69 kcal/mol
DOCKED: USER    (3) Torsional Free Energy           =   +3.88 kcal/mol
DOCKED: USER    (4) Unbound System's Energy  [=(2)] =   -1.69 kcal/mol
DOCKED: USER    
DOCKED: USER    
DOCKED: USER    NEWDPF move heme_opt.pdbqt
DOCKED: USER    NEWDPF about 0.153000 0.018000 -0.028000
DOCKED: USER    NEWDPF tran0 -9.075795 13.902750 16.050121
DOCKED: USER    NEWDPF quaternion0 -0.987735 0.134647 -0.074063 0.027633
DOCKED: USER    NEWDPF axisangle0 -0.988113 0.134698 -0.074091 176.833075
DOCKED: USER    NEWDPF quat0 -0.988113 0.134698 -0.074091 176.833075
DOCKED: USER    NEWDPF dihe0 -46.78 75.71 138.22 -44.19 30.82 -42.99 -43.41 -90.14 -145.72 -106.97 106.88 -97.17 174.34 
DOCKED: USER  keepresnum = 1 
DOCKED: USER  
DOCKED: REMARK  13 active torsions:
DOCKED: REMARK  status: ('A' for Active; 'I' for Inactive)
DOCKED: REMARK    1  A    between atoms: O_3  and  C_38 
DOCKED: REMARK    2  A    between atoms: O_4  and  C_40 
DOCKED: REMARK    3  A    between atoms: O_7  and  C_46 
DOCKED: REMARK    4  A    between atoms: O_9  and  C_48 
DOCKED: REMARK    5  A    between atoms: C_15  and  C_20 
DOCKED: REMARK    6  A    between atoms: C_16  and  C_23 
DOCKED: REMARK    7  A    between atoms: C_20  and  C_38 
DOCKED: REMARK    8  A    between atoms: C_23  and  C_40 
DOCKED: REMARK    9  A    between atoms: C_32  and  C_41 
DOCKED: REMARK   10  A    between atoms: C_37  and  C_45 
DOCKED: REMARK   11  A    between atoms: C_41  and  C_44 
DOCKED: REMARK   12  A    between atoms: C_44  and  C_46 
DOCKED: REMARK   13  A    between atoms: C_47  and  C_48 
DOCKED: USER                              x       y       z     vdW  Elec       q    Type
DOCKED: USER                           _______ _______ _______ _____ _____    ______ ____
DOCKED: ROOT
DOCKED: ATOM      1  O   UNL d   1     -14.788  13.699  14.606 -0.02 +0.05    -0.289 OA
DOCKED: ATOM      2  O   UNL d   1     -10.518  19.379  17.033 -0.06 +0.18    -0.289 OA
DOCKED: ATOM      3  N   UNL d   1     -11.471  13.307  15.468 -0.12 +0.09    -0.247 NA
DOCKED: ATOM      4  N   UNL d   1     -10.569  16.089  15.994 -0.10 +0.21    -0.247 NA
DOCKED: ATOM      5  N   UNL d   1      -7.862  15.124  15.932 +0.05 +0.17    -0.354 N 
DOCKED: ATOM      6  N   UNL d   1      -8.805  12.244  15.367 -0.11 +0.10    -0.354 N 
DOCKED: ATOM      7  C   UNL d   1     -13.182  11.861  14.472 -0.16 -0.01    +0.084 A 
DOCKED: ATOM      8  C   UNL d   1     -12.267  17.701  16.692 -0.07 -0.05    +0.084 A 
DOCKED: ATOM      9  C   UNL d   1     -11.915  16.294  16.198 -0.14 -0.04    +0.058 A 
DOCKED: ATOM     10  C   UNL d   1     -11.742  12.048  14.959 -0.23 -0.01    +0.058 A 
DOCKED: ATOM     11  C   UNL d   1     -13.683  13.232  14.814 -0.06 -0.04    +0.193 A 
DOCKED: ATOM     12  C   UNL d   1     -12.560  14.004  15.434 -0.12 -0.04    +0.109 A 
DOCKED: ATOM     13  C   UNL d   1     -10.876  18.268  16.694 -0.06 -0.16    +0.193 A 
DOCKED: ATOM     14  C   UNL d   1     -13.256  11.670  12.955 -0.43 -0.00    +0.026 C 
DOCKED: ATOM     15  C   UNL d   1     -12.846  15.362  15.939 -0.11 -0.02    +0.055 C 
DOCKED: ATOM     16  C   UNL d   1     -12.794  17.684  18.130 -0.02 -0.01    +0.026 C 
DOCKED: ATOM     17  C   UNL d   1      -9.941  17.192  16.244 -0.14 -0.09    +0.109 A 
DOCKED: ATOM     18  C   UNL d   1     -10.863  11.028  14.962 -0.09 -0.01    +0.050 C 
DOCKED: ATOM     19  C   UNL d   1      -9.539  11.084  15.469 -0.15 -0.01    +0.045 A 
DOCKED: ATOM     20  C   UNL d   1      -7.630  16.475  15.946 -0.21 -0.02    +0.045 A 
DOCKED: ATOM     21  C   UNL d   1      -8.504  17.473  16.106 -0.19 -0.03    +0.057 C 
DOCKED: ATOM     22  C   UNL d   1      -5.646  15.389  15.627 -0.19 +0.00    -0.019 A 
DOCKED: ATOM     23  C   UNL d   1      -6.723  14.386  15.745 -0.21 -0.01    +0.045 A 
DOCKED: ATOM     24  C   UNL d   1      -6.189  16.623  15.749 -0.20 +0.00    -0.022 A 
DOCKED: ATOM     25  C   UNL d   1      -7.527  12.050  15.837 -0.25 -0.01    +0.049 A 
DOCKED: ATOM     26  C   UNL d   1      -8.730  10.123  16.053 -0.26 +0.00    -0.018 A 
DOCKED: ATOM     27  C   UNL d   1      -7.467  10.744  16.301 -0.24 -0.00    +0.003 A 
DOCKED: ATOM     28  C   UNL d   1      -6.536  13.058  15.691 -0.25 -0.01    +0.052 C 
DOCKED: ATOM     29  C   UNL d   1      -5.508  17.949  15.711 -0.16 +0.00    +0.046 C 
DOCKED: ATOM     30  C   UNL d   1      -9.105   8.713  16.365 -0.33 -0.01    +0.046 C 
DOCKED: ATOM     31  H   UNL d   1      -8.783  14.746  16.126 -0.34 -0.11    +0.166 HD
DOCKED: ATOM     32  H   UNL d   1      -9.163  13.100  14.960 -0.52 -0.10    +0.166 HD
DOCKED: ENDROOT
DOCKED: BRANCH   7  33
DOCKED: ATOM     33  C   UNL d   1     -13.992  10.792  15.214 -0.13 +0.01    +0.141 C 
DOCKED: BRANCH  33  34
DOCKED: ATOM     34  C   UNL d   1     -14.025   9.478  14.481 -0.20 +0.04    +0.306 C 
DOCKED: ATOM     35  O   UNL d   1     -13.183   8.598  14.542 -0.29 -0.02    -0.251 OA
DOCKED: BRANCH  34  36
DOCKED: ATOM     36  O   UNL d   1     -15.119   9.341  13.711 -0.14 -0.13    -0.481 OA
DOCKED: ATOM     37  H   UNL d   1     -14.773   9.057  12.839 -0.32 -0.05    +0.295 HD
DOCKED: ENDBRANCH  34  36
DOCKED: ENDBRANCH  33  34
DOCKED: ENDBRANCH   7  33
DOCKED: BRANCH  27  38
DOCKED: ATOM     38  C   UNL d   1      -6.330  10.097  16.884 -0.23 -0.01    +0.017 C 
DOCKED: ATOM     39  C   UNL d   1      -5.136   9.947  16.292 -0.17 -0.04    +0.092 C 
DOCKED: BRANCH  39  40
DOCKED: ATOM     40  C   UNL d   1      -4.045   9.279  17.006 -0.16 -0.21    +0.330 C 
DOCKED: ATOM     41  O   UNL d   1      -3.697   9.449  18.159 -0.07 +0.12    -0.246 OA
DOCKED: BRANCH  40  42
DOCKED: ATOM     42  O   UNL d   1      -3.437   8.396  16.199 -0.25 +0.44    -0.477 OA
DOCKED: ATOM     43  H   UNL d   1      -3.766   7.528  16.512 -0.42 -0.61    +0.295 HD
DOCKED: ENDBRANCH  40  42
DOCKED: ENDBRANCH  39  40
DOCKED: ENDBRANCH  27  38
DOCKED: BRANCH   8  44
DOCKED: ATOM     44  C   UNL d   1     -13.188  18.512  15.774 -0.06 -0.11    +0.141 C 
DOCKED: BRANCH  44  45
DOCKED: ATOM     45  C   UNL d   1     -13.066  19.999  15.973 -0.03 -0.19    +0.306 C 
DOCKED: ATOM     46  O   UNL d   1     -13.681  20.679  16.776 -0.01 +0.08    -0.251 OA
DOCKED: BRANCH  45  47
DOCKED: ATOM     47  O   UNL d   1     -12.187  20.561  15.123 -0.02 +0.50    -0.481 OA
DOCKED: ATOM     48  H   UNL d   1     -11.425  19.943  15.110 -0.51 -0.58    +0.295 HD
DOCKED: ENDBRANCH  45  47
DOCKED: ENDBRANCH  44  45
DOCKED: ENDBRANCH   8  44
DOCKED: BRANCH  22  49
DOCKED: ATOM     49  C   UNL d   1      -4.202  15.051  15.395 -0.13 -0.00    +0.048 C 
DOCKED: BRANCH  49  50
DOCKED: ATOM     50  C   UNL d   1      -3.861  15.006  13.906 -0.21 +0.01    +0.125 C 
DOCKED: BRANCH  50  51
DOCKED: ATOM     51  C   UNL d   1      -4.455  13.789  13.256 -0.27 -0.03    +0.305 C 
DOCKED: ATOM     52  O   UNL d   1      -3.909  12.721  13.039 -0.32 +0.06    -0.251 OA
DOCKED: BRANCH  51  53
DOCKED: ATOM     53  O   UNL d   1      -5.738  13.986  12.893 -0.25 +0.08    -0.481 OA
DOCKED: ATOM     54  H   UNL d   1      -5.790  13.609  11.989 -0.36 -0.13    +0.295 HD
DOCKED: ENDBRANCH  51  53
DOCKED: ENDBRANCH  50  51
DOCKED: ENDBRANCH  49  50
DOCKED: ENDBRANCH  22  49
DOCKED: TORSDOF 13
DOCKED: TER
DOCKED: ENDMDL
________________________________________________________________________________


	BEGINNING GENETIC ALGORITHM DOCKING 64 of 100
Run: 64 Seed: 1616979947 1454729010 [ Run 64 of 100 GA/GALS ]
Beginning LAMARCKIAN GENETIC ALGORITHM (LGA), with a maximum of 25000000 energy evaluations.

Final-Value: -9.294


	FINAL GENETIC ALGORITHM DOCKED STATE
	_______________________________________________


Detailed state:  trans -10.212 15.935 -6.398 quatxyzw -0.232420 -0.682124 -0.287324 -0.630978 center 0.153 0.018 -0.028 ntor 13 61.9854 133.2242 -170.3402 -168.4579 36.1846 -63.9898 142.2863 60.8767 -121.5633 -6.2372 84.8119 178.4552 -177.2433
State:	-10.212  15.935  -6.398  -0.300 -0.879 -0.370 -101.755     61.99  133.22 -170.34 -168.46   36.18  -63.99  142.29   60.88 -121.56   -6.24   84.81  178.46 -177.24

DOCKED: MODEL       64
DOCKED: USER    Run = 64
DOCKED: USER    DPF = D:/Protein_go_brrr/autodock/final/AncMH_nat/heme/dock.dpf
DOCKED: USER  
DOCKED: USER    Estimated Free Energy of Binding    =   -3.61 kcal/mol  [=(1)+(2)+(3)-(4)]
DOCKED: USER    Estimated Inhibition Constant, Ki   =    2.24 mM (millimolar)  [Temperature = 298.15 K]
DOCKED: USER    
DOCKED: USER    (1) Final Intermolecular Energy     =   -7.49 kcal/mol
DOCKED: USER        vdW + Hbond + desolv Energy     =   -7.04 kcal/mol
DOCKED: USER        Electrostatic Energy            =   -0.46 kcal/mol
DOCKED: USER    (2) Final Total Internal Energy     =   -1.80 kcal/mol
DOCKED: USER    (3) Torsional Free Energy           =   +3.88 kcal/mol
DOCKED: USER    (4) Unbound System's Energy  [=(2)] =   -1.80 kcal/mol
DOCKED: USER    
DOCKED: USER    
DOCKED: USER    NEWDPF move heme_opt.pdbqt
DOCKED: USER    NEWDPF about 0.153000 0.018000 -0.028000
DOCKED: USER    NEWDPF tran0 -10.212325 15.934502 -6.397999
DOCKED: USER    NEWDPF quaternion0 -0.232420 -0.682124 -0.287324 -0.630978
DOCKED: USER    NEWDPF axisangle0 -0.299587 -0.879251 -0.370358 -101.755396
DOCKED: USER    NEWDPF quat0 -0.299587 -0.879251 -0.370358 -101.755396
DOCKED: USER    NEWDPF dihe0 61.99 133.22 -170.34 -168.46 36.18 -63.99 142.29 60.88 -121.56 -6.24 84.81 178.46 -177.24 
DOCKED: USER  keepresnum = 1 
DOCKED: USER  
DOCKED: REMARK  13 active torsions:
DOCKED: REMARK  status: ('A' for Active; 'I' for Inactive)
DOCKED: REMARK    1  A    between atoms: O_3  and  C_38 
DOCKED: REMARK    2  A    between atoms: O_4  and  C_40 
DOCKED: REMARK    3  A    between atoms: O_7  and  C_46 
DOCKED: REMARK    4  A    between atoms: O_9  and  C_48 
DOCKED: REMARK    5  A    between atoms: C_15  and  C_20 
DOCKED: REMARK    6  A    between atoms: C_16  and  C_23 
DOCKED: REMARK    7  A    between atoms: C_20  and  C_38 
DOCKED: REMARK    8  A    between atoms: C_23  and  C_40 
DOCKED: REMARK    9  A    between atoms: C_32  and  C_41 
DOCKED: REMARK   10  A    between atoms: C_37  and  C_45 
DOCKED: REMARK   11  A    between atoms: C_41  and  C_44 
DOCKED: REMARK   12  A    between atoms: C_44  and  C_46 
DOCKED: REMARK   13  A    between atoms: C_47  and  C_48 
DOCKED: USER                              x       y       z     vdW  Elec       q    Type
DOCKED: USER                           _______ _______ _______ _____ _____    ______ ____
DOCKED: ROOT
DOCKED: ATOM      1  O   UNL d   1      -8.999  17.862 -11.836 -0.03 -0.01    -0.289 OA
DOCKED: ATOM      2  O   UNL d   1     -12.103  11.451  -9.457 -0.03 +0.03    -0.289 OA
DOCKED: ATOM      3  N   UNL d   1      -9.393  17.104  -8.494 -0.27 -0.04    -0.247 NA
DOCKED: ATOM      4  N   UNL d   1     -10.948  14.573  -8.546 -0.07 -0.00    -0.247 NA
DOCKED: ATOM      5  N   UNL d   1     -11.456  14.935  -5.740 -0.08 +0.01    -0.354 N 
DOCKED: ATOM      6  N   UNL d   1      -9.858  17.570  -5.699 -0.09 -0.06    -0.354 N 
DOCKED: ATOM      7  C   UNL d   1      -8.643  19.075  -9.744 -0.07 +0.01    +0.084 A 
DOCKED: ATOM      8  C   UNL d   1     -10.730  13.168 -10.534 -0.08 -0.01    +0.084 A 
DOCKED: ATOM      9  C   UNL d   1     -10.412  14.481  -9.811 -0.10 -0.00    +0.058 A 
DOCKED: ATOM     10  C   UNL d   1      -8.938  18.409  -8.397 -0.12 +0.01    +0.058 A 
DOCKED: ATOM     11  C   UNL d   1      -8.994  17.910 -10.619 -0.05 +0.02    +0.193 A 
DOCKED: ATOM     12  C   UNL d   1      -9.409  16.769  -9.743 -0.10 +0.01    +0.109 A 
DOCKED: ATOM     13  C   UNL d   1     -11.577  12.547  -9.459 -0.06 -0.02    +0.193 A 
DOCKED: ATOM     14  C   UNL d   1      -9.608  20.225 -10.039 -0.02 +0.00    +0.026 C 
DOCKED: ATOM     15  C   UNL d   1      -9.715  15.474 -10.385 -0.14 +0.00    +0.055 C 
DOCKED: ATOM     16  C   UNL d   1      -9.476  12.310 -10.730 -0.22 -0.00    +0.026 C 
DOCKED: ATOM     17  C   UNL d   1     -11.637  13.502  -8.312 -0.13 -0.01    +0.109 A 
DOCKED: ATOM     18  C   UNL d   1      -8.680  19.033  -7.232 -0.15 +0.00    +0.050 C 
DOCKED: ATOM     19  C   UNL d   1      -8.841  18.466  -5.942 -0.20 +0.01    +0.045 A 
DOCKED: ATOM     20  C   UNL d   1     -12.310  13.895  -6.001 -0.13 -0.01    +0.045 A 
DOCKED: ATOM     21  C   UNL d   1     -12.438  13.178  -7.123 -0.17 -0.01    +0.057 C 
DOCKED: ATOM     22  C   UNL d   1     -12.663  14.620  -3.864 -0.31 -0.00    -0.019 A 
DOCKED: ATOM     23  C   UNL d   1     -11.596  15.439  -4.474 -0.31 +0.00    +0.045 A 
DOCKED: ATOM     24  C   UNL d   1     -13.080  13.707  -4.773 -0.23 +0.00    -0.022 A 
DOCKED: ATOM     25  C   UNL d   1      -9.885  17.220  -4.369 -0.27 +0.01    +0.049 A 
DOCKED: ATOM     26  C   UNL d   1      -8.168  18.674  -4.748 -0.22 -0.00    -0.018 A 
DOCKED: ATOM     27  C   UNL d   1      -8.819  17.870  -3.763 -0.26 +0.00    +0.003 A 
DOCKED: ATOM     28  C   UNL d   1     -10.942  16.427  -3.845 -0.37 +0.01    +0.052 C 
DOCKED: ATOM     29  C   UNL d   1     -14.125  12.654  -4.625 -0.17 -0.00    +0.046 C 
DOCKED: ATOM     30  C   UNL d   1      -6.990  19.564  -4.534 -0.13 +0.00    +0.046 C 
DOCKED: ATOM     31  H   UNL d   1     -10.752  15.219  -6.412 -0.01 +0.03    +0.166 HD
DOCKED: ATOM     32  H   UNL d   1     -10.511  17.258  -6.407 +0.05 +0.02    +0.166 HD
DOCKED: ENDROOT
DOCKED: BRANCH   7  33
DOCKED: ATOM     33  C   UNL d   1      -7.185  19.493  -9.964 -0.07 +0.00    +0.141 C 
DOCKED: BRANCH  33  34
DOCKED: ATOM     34  C   UNL d   1      -6.805  20.710  -9.166 -0.05 -0.00    +0.306 C 
DOCKED: ATOM     35  O   UNL d   1      -6.338  20.715  -8.039 -0.06 +0.01    -0.251 OA
DOCKED: BRANCH  34  36
DOCKED: ATOM     36  O   UNL d   1      -7.030  21.858  -9.830 +0.00 +0.01    -0.481 OA
DOCKED: ATOM     37  H   UNL d   1      -6.150  22.287  -9.886 +0.01 -0.01    +0.295 HD
DOCKED: ENDBRANCH  34  36
DOCKED: ENDBRANCH  33  34
DOCKED: ENDBRANCH   7  33
DOCKED: BRANCH  27  38
DOCKED: ATOM     38  C   UNL d   1      -8.450  17.799  -2.381 -0.23 +0.00    +0.017 C 
DOCKED: ATOM     39  C   UNL d   1      -7.982  18.822  -1.651 -0.19 +0.02    +0.092 C 
DOCKED: BRANCH  39  40
DOCKED: ATOM     40  C   UNL d   1      -7.657  18.621  -0.236 -0.13 +0.07    +0.330 C 
DOCKED: ATOM     41  O   UNL d   1      -8.422  18.364   0.673 -0.17 -0.08    -0.246 OA
DOCKED: BRANCH  40  42
DOCKED: ATOM     42  O   UNL d   1      -6.335  18.752  -0.043 -0.07 -0.01    -0.477 OA
DOCKED: ATOM     43  H   UNL d   1      -5.939  18.214  -0.759 -0.32 -0.06    +0.295 HD
DOCKED: ENDBRANCH  40  42
DOCKED: ENDBRANCH  39  40
DOCKED: ENDBRANCH  27  38
DOCKED: BRANCH   8  44
DOCKED: ATOM     44  C   UNL d   1     -11.517  13.306 -11.841 -0.01 -0.01    +0.141 C 
DOCKED: BRANCH  44  45
DOCKED: ATOM     45  C   UNL d   1     -12.817  14.048 -11.676 +0.01 -0.01    +0.306 C 
DOCKED: ATOM     46  O   UNL d   1     -13.016  15.226 -11.917 +0.00 +0.00    -0.251 OA
DOCKED: BRANCH  45  47
DOCKED: ATOM     47  O   UNL d   1     -13.797  13.267 -11.188 +0.00 +0.02    -0.481 OA
DOCKED: ATOM     48  H   UNL d   1     -13.346  12.434 -10.932 +0.02 -0.01    +0.295 HD
DOCKED: ENDBRANCH  45  47
DOCKED: ENDBRANCH  44  45
DOCKED: ENDBRANCH   8  44
DOCKED: BRANCH  22  49
DOCKED: ATOM     49  C   UNL d   1     -13.180  14.813  -2.469 -0.38 +0.00    +0.048 C 
DOCKED: BRANCH  49  50
DOCKED: ATOM     50  C   UNL d   1     -14.484  15.609  -2.451 -0.22 +0.01    +0.125 C 
DOCKED: BRANCH  50  51
DOCKED: ATOM     51  C   UNL d   1     -14.218  17.072  -2.235 -0.03 +0.20    +0.305 C 
DOCKED: ATOM     52  O   UNL d   1     -13.483  17.797  -2.882 -0.50 -0.21    -0.251 OA
DOCKED: BRANCH  51  53
DOCKED: ATOM     53  O   UNL d   1     -14.899  17.557  -1.177 -0.16 -0.45    -0.481 OA
DOCKED: ATOM     54  H   UNL d   1     -15.247  16.758  -0.731 +0.05 +0.04    +0.295 HD
DOCKED: ENDBRANCH  51  53
DOCKED: ENDBRANCH  50  51
DOCKED: ENDBRANCH  49  50
DOCKED: ENDBRANCH  22  49
DOCKED: TORSDOF 13
DOCKED: TER
DOCKED: ENDMDL
________________________________________________________________________________


	BEGINNING GENETIC ALGORITHM DOCKING 65 of 100
Run: 65 Seed: 1035313656 2058382848 [ Run 65 of 100 GA/GALS ]
Beginning LAMARCKIAN GENETIC ALGORITHM (LGA), with a maximum of 25000000 energy evaluations.

Final-Value: -10.903


	FINAL GENETIC ALGORITHM DOCKED STATE
	_______________________________________________


Detailed state:  trans -14.787 -1.166 1.737 quatxyzw 0.115667 0.560624 0.627462 0.527839 center 0.153 0.018 -0.028 ntor 13 145.8764 93.1305 -145.5732 156.7205 -138.1705 -55.8768 129.1118 -58.2080 18.0648 -14.6589 166.6292 -68.1200 180.0000
State:	-14.787  -1.166   1.737   0.136  0.660  0.739 116.281    145.88   93.13 -145.57  156.72 -138.17  -55.88  129.11  -58.21   18.06  -14.66  166.63  -68.12  180.00

DOCKED: MODEL       65
DOCKED: USER    Run = 65
DOCKED: USER    DPF = D:/Protein_go_brrr/autodock/final/AncMH_nat/heme/dock.dpf
DOCKED: USER  
DOCKED: USER    Estimated Free Energy of Binding    =   -4.29 kcal/mol  [=(1)+(2)+(3)-(4)]
DOCKED: USER    Estimated Inhibition Constant, Ki   =  719.05 uM (micromolar)  [Temperature = 298.15 K]
DOCKED: USER    
DOCKED: USER    (1) Final Intermolecular Energy     =   -8.17 kcal/mol
DOCKED: USER        vdW + Hbond + desolv Energy     =   -7.60 kcal/mol
DOCKED: USER        Electrostatic Energy            =   -0.57 kcal/mol
DOCKED: USER    (2) Final Total Internal Energy     =   -2.74 kcal/mol
DOCKED: USER    (3) Torsional Free Energy           =   +3.88 kcal/mol
DOCKED: USER    (4) Unbound System's Energy  [=(2)] =   -2.74 kcal/mol
DOCKED: USER    
DOCKED: USER    
DOCKED: USER    NEWDPF move heme_opt.pdbqt
DOCKED: USER    NEWDPF about 0.153000 0.018000 -0.028000
DOCKED: USER    NEWDPF tran0 -14.786566 -1.165604 1.736797
DOCKED: USER    NEWDPF quaternion0 0.115667 0.560624 0.627462 0.527839
DOCKED: USER    NEWDPF axisangle0 0.136184 0.660067 0.738760 116.280932
DOCKED: USER    NEWDPF quat0 0.136184 0.660067 0.738760 116.280932
DOCKED: USER    NEWDPF dihe0 145.88 93.13 -145.57 156.72 -138.17 -55.88 129.11 -58.21 18.06 -14.66 166.63 -68.12 180.00 
DOCKED: USER  keepresnum = 1 
DOCKED: USER  
DOCKED: REMARK  13 active torsions:
DOCKED: REMARK  status: ('A' for Active; 'I' for Inactive)
DOCKED: REMARK    1  A    between atoms: O_3  and  C_38 
DOCKED: REMARK    2  A    between atoms: O_4  and  C_40 
DOCKED: REMARK    3  A    between atoms: O_7  and  C_46 
DOCKED: REMARK    4  A    between atoms: O_9  and  C_48 
DOCKED: REMARK    5  A    between atoms: C_15  and  C_20 
DOCKED: REMARK    6  A    between atoms: C_16  and  C_23 
DOCKED: REMARK    7  A    between atoms: C_20  and  C_38 
DOCKED: REMARK    8  A    between atoms: C_23  and  C_40 
DOCKED: REMARK    9  A    between atoms: C_32  and  C_41 
DOCKED: REMARK   10  A    between atoms: C_37  and  C_45 
DOCKED: REMARK   11  A    between atoms: C_41  and  C_44 
DOCKED: REMARK   12  A    between atoms: C_44  and  C_46 
DOCKED: REMARK   13  A    between atoms: C_47  and  C_48 
DOCKED: USER                              x       y       z     vdW  Elec       q    Type
DOCKED: USER                           _______ _______ _______ _____ _____    ______ ____
DOCKED: ROOT
DOCKED: ATOM      1  O   UNL d   1     -11.404   2.672  -1.193 -0.13 -0.16    -0.289 OA
DOCKED: ATOM      2  O   UNL d   1     -16.814  -1.954  -3.583 -0.05 -0.19    -0.289 OA
DOCKED: ATOM      3  N   UNL d   1     -13.042   0.475   0.900 -0.27 -0.36    -0.247 NA
DOCKED: ATOM      4  N   UNL d   1     -15.160  -0.674  -0.838 -0.14 -0.32    -0.247 NA
DOCKED: ATOM      5  N   UNL d   1     -16.408  -1.722   1.531 -0.05 -0.38    -0.354 N 
DOCKED: ATOM      6  N   UNL d   1     -14.217  -0.510   3.329 -0.10 -0.30    -0.354 N 
DOCKED: ATOM      7  C   UNL d   1     -11.398   2.265   1.217 -0.27 +0.07    +0.084 A 
DOCKED: ATOM      8  C   UNL d   1     -14.736  -0.706  -3.245 -0.10 +0.06    +0.084 A 
DOCKED: ATOM      9  C   UNL d   1     -14.300  -0.281  -1.839 -0.14 +0.06    +0.058 A 
DOCKED: ATOM     10  C   UNL d   1     -12.286   1.175   1.825 -0.28 +0.06    +0.058 A 
DOCKED: ATOM     11  C   UNL d   1     -11.773   2.045  -0.218 -0.15 +0.18    +0.193 A 
DOCKED: ATOM     12  C   UNL d   1     -12.756   0.917  -0.281 -0.09 +0.15    +0.109 A 
DOCKED: ATOM     13  C   UNL d   1     -16.022  -1.382  -2.861 -0.08 +0.16    +0.193 A 
DOCKED: ATOM     14  C   UNL d   1     -11.844   3.669   1.635 -0.23 +0.02    +0.026 C 
DOCKED: ATOM     15  C   UNL d   1     -13.202   0.456  -1.612 -0.20 +0.05    +0.055 C 
DOCKED: ATOM     16  C   UNL d   1     -13.789  -1.752  -3.841 +0.04 +0.02    +0.026 C 
DOCKED: ATOM     17  C   UNL d   1     -16.166  -1.287  -1.376 -0.11 +0.12    +0.109 A 
DOCKED: ATOM     18  C   UNL d   1     -12.243   0.886   3.139 -0.38 +0.03    +0.050 C 
DOCKED: ATOM     19  C   UNL d   1     -12.963  -0.158   3.775 -0.24 +0.03    +0.045 A 
DOCKED: ATOM     20  C   UNL d   1     -17.395  -1.973   0.614 -0.08 +0.04    +0.045 A 
DOCKED: ATOM     21  C   UNL d   1     -17.362  -1.829  -0.714 -0.10 +0.05    +0.057 C 
DOCKED: ATOM     22  C   UNL d   1     -18.185  -2.459   2.702 -0.03 -0.01    -0.019 A 
DOCKED: ATOM     23  C   UNL d   1     -16.791  -1.985   2.819 -0.08 +0.04    +0.045 A 
DOCKED: ATOM     24  C   UNL d   1     -18.536  -2.451   1.394 -0.03 -0.02    -0.022 A 
DOCKED: ATOM     25  C   UNL d   1     -14.766  -1.475   4.141 -0.16 +0.03    +0.049 A 
DOCKED: ATOM     26  C   UNL d   1     -12.675  -0.940   4.883 -0.30 -0.01    -0.018 A 
DOCKED: ATOM     27  C   UNL d   1     -13.808  -1.784   5.097 -0.30 +0.00    +0.003 A 
DOCKED: ATOM     28  C   UNL d   1     -16.116  -1.886   3.974 -0.13 +0.04    +0.052 C 
DOCKED: ATOM     29  C   UNL d   1     -19.831  -2.852   0.774 -0.00 +0.03    +0.046 C 
DOCKED: ATOM     30  C   UNL d   1     -11.423  -0.910   5.693 -0.27 +0.01    +0.046 C 
DOCKED: ATOM     31  H   UNL d   1     -15.476  -1.448   1.239 +0.04 +0.20    +0.166 HD
DOCKED: ATOM     32  H   UNL d   1     -14.671  -0.075   2.535 +0.05 +0.21    +0.166 HD
DOCKED: ENDROOT
DOCKED: BRANCH   7  33
DOCKED: ATOM     33  C   UNL d   1      -9.891   2.071   1.415 -0.20 +0.05    +0.141 C 
DOCKED: BRANCH  33  34
DOCKED: ATOM     34  C   UNL d   1      -9.363   0.862   0.692 -0.26 +0.08    +0.306 C 
DOCKED: ATOM     35  O   UNL d   1      -9.379  -0.286   1.102 -0.35 -0.06    -0.251 OA
DOCKED: BRANCH  34  36
DOCKED: ATOM     36  O   UNL d   1      -8.843   1.164  -0.511 -0.13 -0.06    -0.481 OA
DOCKED: ATOM     37  H   UNL d   1      -9.423   1.874  -0.859 +0.17 +0.06    +0.295 HD
DOCKED: ENDBRANCH  34  36
DOCKED: ENDBRANCH  33  34
DOCKED: ENDBRANCH   7  33
DOCKED: BRANCH  27  38
DOCKED: ATOM     38  C   UNL d   1     -13.936  -2.742   6.154 -0.36 +0.00    +0.017 C 
DOCKED: ATOM     39  C   UNL d   1     -15.088  -3.094   6.745 -0.27 +0.03    +0.092 C 
DOCKED: BRANCH  39  40
DOCKED: ATOM     40  C   UNL d   1     -15.085  -4.104   7.807 -0.27 +0.07    +0.330 C 
DOCKED: ATOM     41  O   UNL d   1     -14.683  -5.250   7.741 -0.48 -0.09    -0.246 OA
DOCKED: BRANCH  40  42
DOCKED: ATOM     42  O   UNL d   1     -15.599  -3.589   8.935 -0.30 -0.06    -0.477 OA
DOCKED: ATOM     43  H   UNL d   1     -14.829  -3.173   9.375 -0.41 -0.09    +0.295 HD
DOCKED: ENDBRANCH  40  42
DOCKED: ENDBRANCH  39  40
DOCKED: ENDBRANCH  27  38
DOCKED: BRANCH   8  44
DOCKED: ATOM     44  C   UNL d   1     -14.991   0.438  -4.232 -0.03 +0.06    +0.141 C 
DOCKED: BRANCH  44  45
DOCKED: ATOM     45  C   UNL d   1     -16.141   1.323  -3.832 +0.00 +0.16    +0.306 C 
DOCKED: ATOM     46  O   UNL d   1     -16.097   2.271  -3.068 -0.04 -0.20    -0.251 OA
DOCKED: BRANCH  45  47
DOCKED: ATOM     47  O   UNL d   1     -17.301   0.946  -4.400 +0.01 -0.19    -0.481 OA
DOCKED: ATOM     48  H   UNL d   1     -17.242  -0.031  -4.460 +0.02 +0.12    +0.295 HD
DOCKED: ENDBRANCH  45  47
DOCKED: ENDBRANCH  44  45
DOCKED: ENDBRANCH   8  44
DOCKED: BRANCH  22  49
DOCKED: ATOM     49  C   UNL d   1     -19.040  -2.857   3.869 -0.03 +0.03    +0.048 C 
DOCKED: BRANCH  49  50
DOCKED: ATOM     50  C   UNL d   1     -19.946  -1.715   4.326 -0.04 +0.09    +0.125 C 
DOCKED: BRANCH  50  51
DOCKED: ATOM     51  C   UNL d   1     -19.532  -0.416   3.695 -0.02 +0.39    +0.305 C 
DOCKED: ATOM     52  O   UNL d   1     -18.485   0.186   3.853 -0.13 -0.37    -0.251 OA
DOCKED: BRANCH  51  53
DOCKED: ATOM     53  O   UNL d   1     -20.489   0.079   2.885 -0.14 -0.80    -0.481 OA
DOCKED: ATOM     54  H   UNL d   1     -21.015  -0.708   2.630 +0.02 +0.29    +0.295 HD
DOCKED: ENDBRANCH  51  53
DOCKED: ENDBRANCH  50  51
DOCKED: ENDBRANCH  49  50
DOCKED: ENDBRANCH  22  49
DOCKED: TORSDOF 13
DOCKED: TER
DOCKED: ENDMDL
________________________________________________________________________________


	BEGINNING GENETIC ALGORITHM DOCKING 66 of 100
Run: 66 Seed: 1133575425 2145403164 [ Run 66 of 100 GA/GALS ]
Beginning LAMARCKIAN GENETIC ALGORITHM (LGA), with a maximum of 25000000 energy evaluations.

Final-Value: -10.230


	FINAL GENETIC ALGORITHM DOCKED STATE
	_______________________________________________


Detailed state:  trans 16.601 -6.734 -0.161 quatxyzw 0.414138 -0.751373 -0.341624 -0.383695 center 0.153 0.018 -0.028 ntor 13 92.1594 -121.2365 12.1135 -150.3644 179.8451 -16.7850 105.0403 -3.6458 94.4223 -1.9599 118.0407 -6.8622 35.2792
State:	 16.601  -6.734  -0.161   0.448 -0.814 -0.370 -134.874     92.16 -121.24   12.11 -150.36  179.85  -16.79  105.04   -3.65   94.42   -1.96  118.04   -6.86   35.28

DOCKED: MODEL       66
DOCKED: USER    Run = 66
DOCKED: USER    DPF = D:/Protein_go_brrr/autodock/final/AncMH_nat/heme/dock.dpf
DOCKED: USER  
DOCKED: USER    Estimated Free Energy of Binding    =   -3.11 kcal/mol  [=(1)+(2)+(3)-(4)]
DOCKED: USER    Estimated Inhibition Constant, Ki   =    5.25 mM (millimolar)  [Temperature = 298.15 K]
DOCKED: USER    
DOCKED: USER    (1) Final Intermolecular Energy     =   -6.99 kcal/mol
DOCKED: USER        vdW + Hbond + desolv Energy     =   -6.95 kcal/mol
DOCKED: USER        Electrostatic Energy            =   -0.03 kcal/mol
DOCKED: USER    (2) Final Total Internal Energy     =   -3.24 kcal/mol
DOCKED: USER    (3) Torsional Free Energy           =   +3.88 kcal/mol
DOCKED: USER    (4) Unbound System's Energy  [=(2)] =   -3.24 kcal/mol
DOCKED: USER    
DOCKED: USER    
DOCKED: USER    NEWDPF move heme_opt.pdbqt
DOCKED: USER    NEWDPF about 0.153000 0.018000 -0.028000
DOCKED: USER    NEWDPF tran0 16.601454 -6.733692 -0.160932
DOCKED: USER    NEWDPF quaternion0 0.414138 -0.751373 -0.341624 -0.383695
DOCKED: USER    NEWDPF axisangle0 0.448463 -0.813650 -0.369939 -134.874497
DOCKED: USER    NEWDPF quat0 0.448463 -0.813650 -0.369939 -134.874497
DOCKED: USER    NEWDPF dihe0 92.16 -121.24 12.11 -150.36 179.85 -16.79 105.04 -3.65 94.42 -1.96 118.04 -6.86 35.28 
DOCKED: USER  keepresnum = 1 
DOCKED: USER  
DOCKED: REMARK  13 active torsions:
DOCKED: REMARK  status: ('A' for Active; 'I' for Inactive)
DOCKED: REMARK    1  A    between atoms: O_3  and  C_38 
DOCKED: REMARK    2  A    between atoms: O_4  and  C_40 
DOCKED: REMARK    3  A    between atoms: O_7  and  C_46 
DOCKED: REMARK    4  A    between atoms: O_9  and  C_48 
DOCKED: REMARK    5  A    between atoms: C_15  and  C_20 
DOCKED: REMARK    6  A    between atoms: C_16  and  C_23 
DOCKED: REMARK    7  A    between atoms: C_20  and  C_38 
DOCKED: REMARK    8  A    between atoms: C_23  and  C_40 
DOCKED: REMARK    9  A    between atoms: C_32  and  C_41 
DOCKED: REMARK   10  A    between atoms: C_37  and  C_45 
DOCKED: REMARK   11  A    between atoms: C_41  and  C_44 
DOCKED: REMARK   12  A    between atoms: C_44  and  C_46 
DOCKED: REMARK   13  A    between atoms: C_47  and  C_48 
DOCKED: USER                              x       y       z     vdW  Elec       q    Type
DOCKED: USER                           _______ _______ _______ _____ _____    ______ ____
DOCKED: ROOT
DOCKED: ATOM      1  O   UNL d   1      17.470  -0.929  -0.711 -0.23 +0.06    -0.289 OA
DOCKED: ATOM      2  O   UNL d   1      20.667  -6.745  -4.224 -0.04 +0.04    -0.289 OA
DOCKED: ATOM      3  N   UNL d   1      16.726  -4.209   0.050 -0.08 +0.04    -0.247 NA
DOCKED: ATOM      4  N   UNL d   1      18.212  -5.744  -2.015 -0.11 +0.05    -0.247 NA
DOCKED: ATOM      5  N   UNL d   1      16.681  -8.058  -1.265 -0.08 +0.04    -0.354 N 
DOCKED: ATOM      6  N   UNL d   1      15.130  -6.454   0.863 -0.10 +0.06    -0.354 N 
DOCKED: ATOM      7  C   UNL d   1      15.847  -2.030   0.747 -0.31 -0.00    +0.084 A 
DOCKED: ATOM      8  C   UNL d   1      20.196  -4.691  -2.978 -0.08 -0.01    +0.084 A 
DOCKED: ATOM      9  C   UNL d   1      18.970  -4.595  -2.064 -0.14 -0.01    +0.058 A 
DOCKED: ATOM     10  C   UNL d   1      15.791  -3.558   0.838 -0.22 -0.00    +0.058 A 
DOCKED: ATOM     11  C   UNL d   1      16.990  -1.933  -0.217 -0.25 -0.04    +0.193 A 
DOCKED: ATOM     12  C   UNL d   1      17.452  -3.319  -0.543 -0.19 -0.02    +0.109 A 
DOCKED: ATOM     13  C   UNL d   1      19.972  -6.094  -3.468 -0.06 -0.03    +0.193 A 
DOCKED: ATOM     14  C   UNL d   1      14.593  -1.448   0.089 -0.52 -0.00    +0.026 C 
DOCKED: ATOM     15  C   UNL d   1      18.638  -3.471  -1.410 -0.21 -0.01    +0.055 C 
DOCKED: ATOM     16  C   UNL d   1      21.503  -4.650  -2.181 -0.04 -0.00    +0.026 C 
DOCKED: ATOM     17  C   UNL d   1      18.734  -6.617  -2.815 -0.13 -0.02    +0.109 A 
DOCKED: ATOM     18  C   UNL d   1      14.955  -4.182   1.688 -0.18 +0.00    +0.050 C 
DOCKED: ATOM     19  C   UNL d   1      14.893  -5.583   1.901 -0.12 -0.00    +0.045 A 
DOCKED: ATOM     20  C   UNL d   1      17.289  -8.536  -2.396 -0.09 -0.00    +0.045 A 
DOCKED: ATOM     21  C   UNL d   1      18.240  -7.963  -3.141 -0.11 -0.01    +0.057 C 
DOCKED: ATOM     22  C   UNL d   1      15.762 -10.074  -1.675 -0.13 +0.00    -0.019 A 
DOCKED: ATOM     23  C   UNL d   1      15.743  -8.918  -0.757 -0.17 -0.01    +0.045 A 
DOCKED: ATOM     24  C   UNL d   1      16.680  -9.842  -2.643 -0.12 +0.00    -0.022 A 
DOCKED: ATOM     25  C   UNL d   1      14.929  -7.754   1.267 -0.22 -0.01    +0.049 A 
DOCKED: ATOM     26  C   UNL d   1      14.565  -6.336   3.018 -0.17 +0.00    -0.018 A 
DOCKED: ATOM     27  C   UNL d   1      14.609  -7.707   2.617 -0.20 -0.00    +0.003 A 
DOCKED: ATOM     28  C   UNL d   1      14.961  -8.822   0.330 -0.26 -0.01    +0.052 C 
DOCKED: ATOM     29  C   UNL d   1      17.071 -10.715  -3.786 -0.12 -0.00    +0.046 C 
DOCKED: ATOM     30  C   UNL d   1      14.234  -5.817   4.376 -0.13 -0.00    +0.046 C 
DOCKED: ATOM     31  H   UNL d   1      16.979  -7.191  -0.833 +0.05 -0.02    +0.166 HD
DOCKED: ATOM     32  H   UNL d   1      15.377  -6.157  -0.074 +0.06 -0.04    +0.166 HD
DOCKED: ENDROOT
DOCKED: BRANCH   7  33
DOCKED: ATOM     33  C   UNL d   1      16.183  -1.306   2.055 -0.18 +0.02    +0.141 C 
DOCKED: BRANCH  33  34
DOCKED: ATOM     34  C   UNL d   1      17.070  -0.110   1.844 -0.16 +0.01    +0.306 C 
DOCKED: ATOM     35  O   UNL d   1      18.133   0.106   2.401 -0.10 +0.01    -0.251 OA
DOCKED: BRANCH  34  36
DOCKED: ATOM     36  O   UNL d   1      16.572   0.751   0.939 -0.17 -0.01    -0.481 OA
DOCKED: ATOM     37  H   UNL d   1      16.944   0.451   0.082 +0.16 -0.02    +0.295 HD
DOCKED: ENDBRANCH  34  36
DOCKED: ENDBRANCH  33  34
DOCKED: ENDBRANCH   7  33
DOCKED: BRANCH  27  38
DOCKED: ATOM     38  C   UNL d   1      14.320  -8.825   3.464 -0.17 -0.00    +0.017 C 
DOCKED: ATOM     39  C   UNL d   1      14.858 -10.048   3.343 -0.09 -0.02    +0.092 C 
DOCKED: BRANCH  39  40
DOCKED: ATOM     40  C   UNL d   1      14.490 -11.104   4.290 -0.03 -0.08    +0.330 C 
DOCKED: ATOM     41  O   UNL d   1      13.984 -10.975   5.388 -0.05 +0.07    -0.246 OA
DOCKED: BRANCH  40  42
DOCKED: ATOM     42  O   UNL d   1      14.784 -12.308   3.775 +0.00 +0.09    -0.477 OA
DOCKED: ATOM     43  H   UNL d   1      15.748 -12.263   3.607 +0.02 -0.05    +0.295 HD
DOCKED: ENDBRANCH  40  42
DOCKED: ENDBRANCH  39  40
DOCKED: ENDBRANCH  27  38
DOCKED: BRANCH   8  44
DOCKED: ATOM     44  C   UNL d   1      20.228  -3.700  -4.146 -0.14 -0.03    +0.141 C 
DOCKED: BRANCH  44  45
DOCKED: ATOM     45  C   UNL d   1      18.966  -3.709  -4.968 -0.18 -0.08    +0.306 C 
DOCKED: ATOM     46  O   UNL d   1      17.843  -3.444  -4.577 -0.42 +0.08    -0.251 OA
DOCKED: BRANCH  45  47
DOCKED: ATOM     47  O   UNL d   1      19.184  -4.081  -6.242 -0.07 +0.16    -0.481 OA
DOCKED: ATOM     48  H   UNL d   1      18.347  -3.872  -6.708 -0.48 -0.22    +0.295 HD
DOCKED: ENDBRANCH  45  47
DOCKED: ENDBRANCH  44  45
DOCKED: ENDBRANCH   8  44
DOCKED: BRANCH  22  49
DOCKED: ATOM     49  C   UNL d   1      14.880 -11.279  -1.531 -0.16 -0.01    +0.048 C 
DOCKED: BRANCH  49  50
DOCKED: ATOM     50  C   UNL d   1      14.888 -11.822  -0.103 -0.09 -0.02    +0.125 C 
DOCKED: BRANCH  50  51
DOCKED: ATOM     51  C   UNL d   1      16.270 -12.252   0.300 -0.00 -0.04    +0.305 C 
DOCKED: ATOM     52  O   UNL d   1      17.252 -12.358  -0.412 -0.00 +0.03    -0.251 OA
DOCKED: BRANCH  51  53
DOCKED: ATOM     53  O   UNL d   1      16.344 -12.545   1.614 +0.01 +0.07    -0.481 OA
DOCKED: ATOM     54  H   UNL d   1      15.442 -12.855   1.840 +0.03 -0.05    +0.295 HD
DOCKED: ENDBRANCH  51  53
DOCKED: ENDBRANCH  50  51
DOCKED: ENDBRANCH  49  50
DOCKED: ENDBRANCH  22  49
DOCKED: TORSDOF 13
DOCKED: TER
DOCKED: ENDMDL
________________________________________________________________________________


	BEGINNING GENETIC ALGORITHM DOCKING 67 of 100
Run: 67 Seed: 603216706 286868059 [ Run 67 of 100 GA/GALS ]
Beginning LAMARCKIAN GENETIC ALGORITHM (LGA), with a maximum of 25000000 energy evaluations.

Final-Value: -11.113


	FINAL GENETIC ALGORITHM DOCKED STATE
	_______________________________________________


Detailed state:  trans -18.849 12.075 6.374 quatxyzw 0.011295 0.610473 0.035112 -0.791178 center 0.153 0.018 -0.028 ntor 13 87.7384 139.1518 121.0207 -161.6790 -172.4860 95.7157 -43.7082 38.6927 101.1266 -97.0057 0.0978 -124.4094 38.9122
State:	-18.849  12.075   6.374   0.018  0.998  0.057 -75.409     87.74  139.15  121.02 -161.68 -172.49   95.72  -43.71   38.69  101.13  -97.01    0.10 -124.41   38.91

DOCKED: MODEL       67
DOCKED: USER    Run = 67
DOCKED: USER    DPF = D:/Protein_go_brrr/autodock/final/AncMH_nat/heme/dock.dpf
DOCKED: USER  
DOCKED: USER    Estimated Free Energy of Binding    =   -4.44 kcal/mol  [=(1)+(2)+(3)-(4)]
DOCKED: USER    Estimated Inhibition Constant, Ki   =  553.73 uM (micromolar)  [Temperature = 298.15 K]
DOCKED: USER    
DOCKED: USER    (1) Final Intermolecular Energy     =   -8.32 kcal/mol
DOCKED: USER        vdW + Hbond + desolv Energy     =   -7.50 kcal/mol
DOCKED: USER        Electrostatic Energy            =   -0.82 kcal/mol
DOCKED: USER    (2) Final Total Internal Energy     =   -2.79 kcal/mol
DOCKED: USER    (3) Torsional Free Energy           =   +3.88 kcal/mol
DOCKED: USER    (4) Unbound System's Energy  [=(2)] =   -2.79 kcal/mol
DOCKED: USER    
DOCKED: USER    
DOCKED: USER    NEWDPF move heme_opt.pdbqt
DOCKED: USER    NEWDPF about 0.153000 0.018000 -0.028000
DOCKED: USER    NEWDPF tran0 -18.849088 12.074888 6.374020
DOCKED: USER    NEWDPF quaternion0 0.011295 0.610473 0.035112 -0.791178
DOCKED: USER    NEWDPF axisangle0 0.018469 0.998180 0.057412 -75.408523
DOCKED: USER    NEWDPF quat0 0.018469 0.998180 0.057412 -75.408523
DOCKED: USER    NEWDPF dihe0 87.74 139.15 121.02 -161.68 -172.49 95.72 -43.71 38.69 101.13 -97.01 0.10 -124.41 38.91 
DOCKED: USER  keepresnum = 1 
DOCKED: USER  
DOCKED: REMARK  13 active torsions:
DOCKED: REMARK  status: ('A' for Active; 'I' for Inactive)
DOCKED: REMARK    1  A    between atoms: O_3  and  C_38 
DOCKED: REMARK    2  A    between atoms: O_4  and  C_40 
DOCKED: REMARK    3  A    between atoms: O_7  and  C_46 
DOCKED: REMARK    4  A    between atoms: O_9  and  C_48 
DOCKED: REMARK    5  A    between atoms: C_15  and  C_20 
DOCKED: REMARK    6  A    between atoms: C_16  and  C_23 
DOCKED: REMARK    7  A    between atoms: C_20  and  C_38 
DOCKED: REMARK    8  A    between atoms: C_23  and  C_40 
DOCKED: REMARK    9  A    between atoms: C_32  and  C_41 
DOCKED: REMARK   10  A    between atoms: C_37  and  C_45 
DOCKED: REMARK   11  A    between atoms: C_41  and  C_44 
DOCKED: REMARK   12  A    between atoms: C_44  and  C_46 
DOCKED: REMARK   13  A    between atoms: C_47  and  C_48 
DOCKED: USER                              x       y       z     vdW  Elec       q    Type
DOCKED: USER                           _______ _______ _______ _____ _____    ______ ____
DOCKED: ROOT
DOCKED: ATOM      1  O   UNL d   1     -19.708  13.386  12.057 -0.02 -0.02    -0.289 OA
DOCKED: ATOM      2  O   UNL d   1     -20.843   7.018   8.242 -0.18 -0.09    -0.289 OA
DOCKED: ATOM      3  N   UNL d   1     -19.181  13.125   8.659 -0.10 -0.00    -0.247 NA
DOCKED: ATOM      4  N   UNL d   1     -19.588  10.231   8.125 -0.05 -0.06    -0.247 NA
DOCKED: ATOM      5  N   UNL d   1     -18.392  10.634   5.541 -0.13 -0.06    -0.354 N 
DOCKED: ATOM      6  N   UNL d   1     -17.955  13.631   6.111 +0.01 +0.04    -0.354 N 
DOCKED: ATOM      7  C   UNL d   1     -18.786  14.863  10.341 -0.06 -0.01    +0.084 A 
DOCKED: ATOM      8  C   UNL d   1     -21.041   9.004   9.660 -0.13 +0.02    +0.084 A 
DOCKED: ATOM      9  C   UNL d   1     -20.315  10.303   9.292 -0.16 +0.01    +0.058 A 
DOCKED: ATOM     10  C   UNL d   1     -18.695  14.402   8.884 -0.11 -0.00    +0.058 A 
DOCKED: ATOM     11  C   UNL d   1     -19.427  13.627  10.897 -0.05 +0.00    +0.193 A 
DOCKED: ATOM     12  C   UNL d   1     -19.638  12.659   9.775 -0.11 +0.01    +0.109 A 
DOCKED: ATOM     13  C   UNL d   1     -20.561   8.171   8.505 -0.17 +0.04    +0.193 A 
DOCKED: ATOM     14  C   UNL d   1     -17.404  15.034  10.978 -0.09 -0.00    +0.026 C 
DOCKED: ATOM     15  C   UNL d   1     -20.345  11.396  10.069 -0.14 +0.01    +0.055 C 
DOCKED: ATOM     16  C   UNL d   1     -22.562   9.156   9.559 -0.05 +0.00    +0.026 C 
DOCKED: ATOM     17  C   UNL d   1     -19.683   9.029   7.653 -0.19 +0.03    +0.109 A 
DOCKED: ATOM     18  C   UNL d   1     -18.258  15.226   7.912 -0.11 -0.01    +0.050 C 
DOCKED: ATOM     19  C   UNL d   1     -18.218  14.917   6.529 -0.10 -0.01    +0.045 A 
DOCKED: ATOM     20  C   UNL d   1     -18.447   9.264   5.564 -0.35 +0.01    +0.045 A 
DOCKED: ATOM     21  C   UNL d   1     -19.030   8.464   6.463 -0.32 +0.02    +0.057 C 
DOCKED: ATOM     22  C   UNL d   1     -17.283   9.925   3.713 -0.35 -0.00    -0.019 A 
DOCKED: ATOM     23  C   UNL d   1     -17.709  11.125   4.461 -0.30 -0.00    +0.045 A 
DOCKED: ATOM     24  C   UNL d   1     -17.725   8.827   4.371 -0.39 -0.01    -0.022 A 
DOCKED: ATOM     25  C   UNL d   1     -17.874  13.576   4.739 -0.19 -0.01    +0.049 A 
DOCKED: ATOM     26  C   UNL d   1     -18.348  15.709   5.398 -0.06 +0.00    -0.018 A 
DOCKED: ATOM     27  C   UNL d   1     -18.149  14.853   4.271 -0.12 -0.00    +0.003 A 
DOCKED: ATOM     28  C   UNL d   1     -17.457  12.387   4.081 -0.27 -0.01    +0.052 C 
DOCKED: ATOM     29  C   UNL d   1     -17.558   7.391   4.005 -0.33 +0.02    +0.046 C 
DOCKED: ATOM     30  C   UNL d   1     -18.641  17.171   5.365 -0.02 -0.01    +0.046 C 
DOCKED: ATOM     31  H   UNL d   1     -18.888  11.192   6.228 +0.05 +0.03    +0.166 HD
DOCKED: ATOM     32  H   UNL d   1     -17.804  12.856   6.746 +0.06 -0.01    +0.166 HD
DOCKED: ENDROOT
DOCKED: BRANCH   7  33
DOCKED: ATOM     33  C   UNL d   1     -19.674  16.087  10.589 -0.01 -0.01    +0.141 C 
DOCKED: BRANCH  33  34
DOCKED: ATOM     34  C   UNL d   1     -20.328  16.064  11.944 +0.00 -0.01    +0.306 C 
DOCKED: ATOM     35  O   UNL d   1     -21.527  16.035  12.164 -0.00 -0.00    -0.251 OA
DOCKED: BRANCH  34  36
DOCKED: ATOM     36  O   UNL d   1     -19.436  16.075  12.950 +0.00 +0.02    -0.481 OA
DOCKED: ATOM     37  H   UNL d   1     -19.313  15.129  13.181 +0.01 -0.00    +0.295 HD
DOCKED: ENDBRANCH  34  36
DOCKED: ENDBRANCH  33  34
DOCKED: ENDBRANCH   7  33
DOCKED: BRANCH  27  38
DOCKED: ATOM     38  C   UNL d   1     -18.183  15.271   2.902 -0.11 -0.01    +0.017 C 
DOCKED: ATOM     39  C   UNL d   1     -17.117  15.660   2.185 +0.10 -0.09    +0.092 C 
DOCKED: BRANCH  39  40
DOCKED: ATOM     40  C   UNL d   1     -17.284  16.048   0.782 -0.06 -0.19    +0.330 C 
DOCKED: ATOM     41  O   UNL d   1     -17.458  17.166   0.336 -0.05 +0.04    -0.246 OA
DOCKED: BRANCH  40  42
DOCKED: ATOM     42  O   UNL d   1     -17.210  14.966  -0.009 -0.05 +0.34    -0.477 OA
DOCKED: ATOM     43  H   UNL d   1     -16.480  14.442   0.379 -0.46 -0.52    +0.295 HD
DOCKED: ENDBRANCH  40  42
DOCKED: ENDBRANCH  39  40
DOCKED: ENDBRANCH  27  38
DOCKED: BRANCH   8  44
DOCKED: ATOM     44  C   UNL d   1     -20.634   8.376  10.996 -0.14 +0.04    +0.141 C 
DOCKED: BRANCH  44  45
DOCKED: ATOM     45  C   UNL d   1     -20.690   6.871  10.987 -0.15 +0.10    +0.306 C 
DOCKED: ATOM     46  O   UNL d   1     -21.658   6.178  11.246 -0.06 -0.09    -0.251 OA
DOCKED: BRANCH  45  47
DOCKED: ATOM     47  O   UNL d   1     -19.505   6.314  10.675 -0.12 -0.09    -0.481 OA
DOCKED: ATOM     48  H   UNL d   1     -19.297   6.658   9.781 -0.33 +0.02    +0.295 HD
DOCKED: ENDBRANCH  45  47
DOCKED: ENDBRANCH  44  45
DOCKED: ENDBRANCH   8  44
DOCKED: BRANCH  22  49
DOCKED: ATOM     49  C   UNL d   1     -16.480   9.963   2.446 -0.40 -0.01    +0.048 C 
DOCKED: BRANCH  49  50
DOCKED: ATOM     50  C   UNL d   1     -17.002  11.020   1.473 -0.24 -0.06    +0.125 C 
DOCKED: BRANCH  50  51
DOCKED: ATOM     51  C   UNL d   1     -16.198  11.024   0.204 -0.19 -0.14    +0.305 C 
DOCKED: ATOM     52  O   UNL d   1     -15.659  10.075  -0.337 -0.21 +0.03    -0.251 OA
DOCKED: BRANCH  51  53
DOCKED: ATOM     53  O   UNL d   1     -16.100  12.259  -0.327 -0.08 +0.42    -0.481 OA
DOCKED: ATOM     54  H   UNL d   1     -16.335  12.856   0.414 -0.43 -0.56    +0.295 HD
DOCKED: ENDBRANCH  51  53
DOCKED: ENDBRANCH  50  51
DOCKED: ENDBRANCH  49  50
DOCKED: ENDBRANCH  22  49
DOCKED: TORSDOF 13
DOCKED: TER
DOCKED: ENDMDL
________________________________________________________________________________


	BEGINNING GENETIC ALGORITHM DOCKING 68 of 100
Run: 68 Seed: 1886829114 248860320 [ Run 68 of 100 GA/GALS ]
Beginning LAMARCKIAN GENETIC ALGORITHM (LGA), with a maximum of 25000000 energy evaluations.

Final-Value: -11.922


	FINAL GENETIC ALGORITHM DOCKED STATE
	_______________________________________________


Detailed state:  trans 10.956 -12.395 -1.592 quatxyzw 0.520747 0.536644 -0.302995 -0.590787 center 0.153 0.018 -0.028 ntor 13 112.1990 -180.0000 -173.0523 -148.2559 -137.2183 31.3035 142.8257 55.3063 20.6622 -7.7265 -81.0639 -37.7401 -12.7209
State:	 10.956 -12.395  -1.592   0.645  0.665 -0.376 -107.574    112.20 -180.00 -173.05 -148.26 -137.22   31.30  142.83   55.31   20.66   -7.73  -81.06  -37.74  -12.72

DOCKED: MODEL       68
DOCKED: USER    Run = 68
DOCKED: USER    DPF = D:/Protein_go_brrr/autodock/final/AncMH_nat/heme/dock.dpf
DOCKED: USER  
DOCKED: USER    Estimated Free Energy of Binding    =   -3.91 kcal/mol  [=(1)+(2)+(3)-(4)]
DOCKED: USER    Estimated Inhibition Constant, Ki   =    1.36 mM (millimolar)  [Temperature = 298.15 K]
DOCKED: USER    
DOCKED: USER    (1) Final Intermolecular Energy     =   -7.79 kcal/mol
DOCKED: USER        vdW + Hbond + desolv Energy     =   -7.68 kcal/mol
DOCKED: USER        Electrostatic Energy            =   -0.10 kcal/mol
DOCKED: USER    (2) Final Total Internal Energy     =   -4.14 kcal/mol
DOCKED: USER    (3) Torsional Free Energy           =   +3.88 kcal/mol
DOCKED: USER    (4) Unbound System's Energy  [=(2)] =   -4.14 kcal/mol
DOCKED: USER    
DOCKED: USER    
DOCKED: USER    NEWDPF move heme_opt.pdbqt
DOCKED: USER    NEWDPF about 0.153000 0.018000 -0.028000
DOCKED: USER    NEWDPF tran0 10.955802 -12.395097 -1.592002
DOCKED: USER    NEWDPF quaternion0 0.520747 0.536644 -0.302995 -0.590787
DOCKED: USER    NEWDPF axisangle0 0.645426 0.665128 -0.375539 -107.574190
DOCKED: USER    NEWDPF quat0 0.645426 0.665128 -0.375539 -107.574190
DOCKED: USER    NEWDPF dihe0 112.20 -180.00 -173.05 -148.26 -137.22 31.30 142.83 55.31 20.66 -7.73 -81.06 -37.74 -12.72 
DOCKED: USER  keepresnum = 1 
DOCKED: USER  
DOCKED: REMARK  13 active torsions:
DOCKED: REMARK  status: ('A' for Active; 'I' for Inactive)
DOCKED: REMARK    1  A    between atoms: O_3  and  C_38 
DOCKED: REMARK    2  A    between atoms: O_4  and  C_40 
DOCKED: REMARK    3  A    between atoms: O_7  and  C_46 
DOCKED: REMARK    4  A    between atoms: O_9  and  C_48 
DOCKED: REMARK    5  A    between atoms: C_15  and  C_20 
DOCKED: REMARK    6  A    between atoms: C_16  and  C_23 
DOCKED: REMARK    7  A    between atoms: C_20  and  C_38 
DOCKED: REMARK    8  A    between atoms: C_23  and  C_40 
DOCKED: REMARK    9  A    between atoms: C_32  and  C_41 
DOCKED: REMARK   10  A    between atoms: C_37  and  C_45 
DOCKED: REMARK   11  A    between atoms: C_41  and  C_44 
DOCKED: REMARK   12  A    between atoms: C_44  and  C_46 
DOCKED: REMARK   13  A    between atoms: C_47  and  C_48 
DOCKED: USER                              x       y       z     vdW  Elec       q    Type
DOCKED: USER                           _______ _______ _______ _____ _____    ______ ____
DOCKED: ROOT
DOCKED: ATOM      1  O   UNL d   1      11.362 -13.669   4.150 -0.05 +0.10    -0.289 OA
DOCKED: ATOM      2  O   UNL d   1       5.371 -12.772  -0.288 -0.18 -0.13    -0.289 OA
DOCKED: ATOM      3  N   UNL d   1      11.615 -12.781   0.827 -0.13 +0.08    -0.247 NA
DOCKED: ATOM      4  N   UNL d   1       8.813 -12.968  -0.145 -0.19 +0.05    -0.247 NA
DOCKED: ATOM      5  N   UNL d   1       9.833 -12.826  -2.830 -0.15 +0.09    -0.354 N 
DOCKED: ATOM      6  N   UNL d   1      12.738 -12.653  -1.814 -0.04 +0.13    -0.354 N 
DOCKED: ATOM      7  C   UNL d   1      13.217 -13.367   2.587 -0.05 -0.02    +0.084 A 
DOCKED: ATOM      8  C   UNL d   1       7.035 -12.666   1.504 -0.22 -0.02    +0.084 A 
DOCKED: ATOM      9  C   UNL d   1       8.529 -12.803   1.192 -0.25 -0.02    +0.058 A 
DOCKED: ATOM     10  C   UNL d   1      12.953 -12.961   1.134 -0.12 -0.01    +0.058 A 
DOCKED: ATOM     11  C   UNL d   1      11.792 -13.367   3.051 -0.08 -0.06    +0.193 A 
DOCKED: ATOM     12  C   UNL d   1      10.920 -12.971   1.900 -0.16 -0.04    +0.109 A 
DOCKED: ATOM     13  C   UNL d   1       6.521 -12.822   0.100 -0.13 +0.02    +0.193 A 
DOCKED: ATOM     14  C   UNL d   1      13.773 -14.790   2.694 -0.02 -0.00    +0.026 C 
DOCKED: ATOM     15  C   UNL d   1       9.472 -12.812   2.147 -0.21 -0.03    +0.055 C 
DOCKED: ATOM     16  C   UNL d   1       6.685 -11.261   2.003 -0.36 -0.01    +0.026 C 
DOCKED: ATOM     17  C   UNL d   1       7.698 -13.005  -0.802 -0.19 +0.00    +0.109 A 
DOCKED: ATOM     18  C   UNL d   1      13.963 -12.719   0.277 -0.10 -0.01    +0.050 C 
DOCKED: ATOM     19  C   UNL d   1      13.818 -12.259  -1.057 -0.13 -0.01    +0.045 A 
DOCKED: ATOM     20  C   UNL d   1       8.526 -13.148  -3.091 -0.24 -0.00    +0.045 A 
DOCKED: ATOM     21  C   UNL d   1       7.497 -13.227  -2.241 -0.24 +0.01    +0.057 C 
DOCKED: ATOM     22  C   UNL d   1       9.708 -13.216  -5.045 -0.15 +0.00    -0.019 A 
DOCKED: ATOM     23  C   UNL d   1      10.623 -12.841  -3.948 -0.20 -0.01    +0.045 A 
DOCKED: ATOM     24  C   UNL d   1       8.468 -13.395  -4.531 -0.19 +0.00    -0.022 A 
DOCKED: ATOM     25  C   UNL d   1      12.843 -12.166  -3.096 -0.20 -0.02    +0.049 A 
DOCKED: ATOM     26  C   UNL d   1      14.627 -11.466  -1.856 -0.16 +0.00    -0.018 A 
DOCKED: ATOM     27  C   UNL d   1      13.997 -11.395  -3.137 -0.22 -0.00    +0.003 A 
DOCKED: ATOM     28  C   UNL d   1      11.927 -12.569  -4.106 -0.22 -0.02    +0.052 C 
DOCKED: ATOM     29  C   UNL d   1       7.210 -13.767  -5.239 -0.15 -0.00    +0.046 C 
DOCKED: ATOM     30  C   UNL d   1      15.906 -10.812  -1.457 -0.12 -0.01    +0.046 C 
DOCKED: ATOM     31  H   UNL d   1      10.128 -12.533  -1.905 -0.29 -0.07    +0.166 HD
DOCKED: ATOM     32  H   UNL d   1      11.999 -13.253  -1.466 -0.02 -0.06    +0.166 HD
DOCKED: ENDROOT
DOCKED: BRANCH   7  33
DOCKED: ATOM     33  C   UNL d   1      14.050 -12.375   3.405 -0.05 -0.03    +0.141 C 
DOCKED: BRANCH  33  34
DOCKED: ATOM     34  C   UNL d   1      13.319 -11.087   3.671 -0.06 -0.09    +0.306 C 
DOCKED: ATOM     35  O   UNL d   1      13.237 -10.135   2.914 -0.12 +0.06    -0.251 OA
DOCKED: BRANCH  34  36
DOCKED: ATOM     36  O   UNL d   1      12.726 -11.067   4.879 -0.06 +0.25    -0.481 OA
DOCKED: ATOM     37  H   UNL d   1      11.985 -11.704   4.800 +0.06 -0.18    +0.295 HD
DOCKED: ENDBRANCH  34  36
DOCKED: ENDBRANCH  33  34
DOCKED: ENDBRANCH   7  33
DOCKED: BRANCH  27  38
DOCKED: ATOM     38  C   UNL d   1      14.509 -10.686  -4.270 -0.18 -0.00    +0.017 C 
DOCKED: ATOM     39  C   UNL d   1      13.928 -10.635  -5.479 -0.26 -0.02    +0.092 C 
DOCKED: BRANCH  39  40
DOCKED: ATOM     40  C   UNL d   1      14.548  -9.856  -6.554 -0.17 -0.08    +0.330 C 
DOCKED: ATOM     41  O   UNL d   1      15.730  -9.620  -6.715 -0.61 +0.01    -0.246 OA
DOCKED: BRANCH  40  42
DOCKED: ATOM     42  O   UNL d   1      13.608  -9.410  -7.402 -0.18 +0.28    -0.477 OA
DOCKED: ATOM     43  H   UNL d   1      12.771  -9.756  -7.028 +0.09 -0.16    +0.295 HD
DOCKED: ENDBRANCH  40  42
DOCKED: ENDBRANCH  39  40
DOCKED: ENDBRANCH  27  38
DOCKED: BRANCH   8  44
DOCKED: ATOM     44  C   UNL d   1       6.452 -13.743   2.425 -0.09 -0.01    +0.141 C 
DOCKED: BRANCH  44  45
DOCKED: ATOM     45  C   UNL d   1       6.642 -15.141   1.899 +0.00 +0.02    +0.306 C 
DOCKED: ATOM     46  O   UNL d   1       7.510 -15.930   2.230 -0.00 -0.00    -0.251 OA
DOCKED: BRANCH  45  47
DOCKED: ATOM     47  O   UNL d   1       5.738 -15.464   0.957 +0.02 -0.08    -0.481 OA
DOCKED: ATOM     48  H   UNL d   1       5.241 -14.634   0.795 +0.08 +0.06    +0.295 HD
DOCKED: ENDBRANCH  45  47
DOCKED: ENDBRANCH  44  45
DOCKED: ENDBRANCH   8  44
DOCKED: BRANCH  22  49
DOCKED: ATOM     49  C   UNL d   1      10.129 -13.377  -6.476 -0.09 -0.01    +0.048 C 
DOCKED: BRANCH  49  50
DOCKED: ATOM     50  C   UNL d   1       9.867 -12.111  -7.292 -0.12 -0.04    +0.125 C 
DOCKED: BRANCH  50  51
DOCKED: ATOM     51  C   UNL d   1      11.126 -11.307  -7.453 -0.11 -0.11    +0.305 C 
DOCKED: ATOM     52  O   UNL d   1      12.221 -11.704  -7.811 -0.06 +0.08    -0.251 OA
DOCKED: BRANCH  51  53
DOCKED: ATOM     53  O   UNL d   1      10.940 -10.010  -7.135 -0.17 +0.24    -0.481 OA
DOCKED: ATOM     54  H   UNL d   1      10.251 -10.032  -6.439 -0.45 -0.23    +0.295 HD
DOCKED: ENDBRANCH  51  53
DOCKED: ENDBRANCH  50  51
DOCKED: ENDBRANCH  49  50
DOCKED: ENDBRANCH  22  49
DOCKED: TORSDOF 13
DOCKED: TER
DOCKED: ENDMDL
________________________________________________________________________________


	BEGINNING GENETIC ALGORITHM DOCKING 69 of 100
Run: 69 Seed: 760743136 374373355 [ Run 69 of 100 GA/GALS ]
Beginning LAMARCKIAN GENETIC ALGORITHM (LGA), with a maximum of 25000000 energy evaluations.

Final-Value: -12.814


	FINAL GENETIC ALGORITHM DOCKED STATE
	_______________________________________________


Detailed state:  trans 10.063 -11.754 -5.049 quatxyzw -0.031445 0.883203 -0.467347 -0.023454 center 0.153 0.018 -0.028 ntor 13 -112.6048 146.6724 -156.5458 54.8390 -155.7135 19.1416 135.1362 -169.4600 -155.3331 -8.8572 56.0429 -58.2678 144.0437
State:	 10.063 -11.754  -5.049  -0.031  0.883 -0.467 -177.312   -112.60  146.67 -156.55   54.84 -155.71   19.14  135.14 -169.46 -155.33   -8.86   56.04  -58.27  144.04

DOCKED: MODEL       69
DOCKED: USER    Run = 69
DOCKED: USER    DPF = D:/Protein_go_brrr/autodock/final/AncMH_nat/heme/dock.dpf
DOCKED: USER  
DOCKED: USER    Estimated Free Energy of Binding    =   -6.16 kcal/mol  [=(1)+(2)+(3)-(4)]
DOCKED: USER    Estimated Inhibition Constant, Ki   =   30.34 uM (micromolar)  [Temperature = 298.15 K]
DOCKED: USER    
DOCKED: USER    (1) Final Intermolecular Energy     =  -10.04 kcal/mol
DOCKED: USER        vdW + Hbond + desolv Energy     =   -9.17 kcal/mol
DOCKED: USER        Electrostatic Energy            =   -0.87 kcal/mol
DOCKED: USER    (2) Final Total Internal Energy     =   -2.77 kcal/mol
DOCKED: USER    (3) Torsional Free Energy           =   +3.88 kcal/mol
DOCKED: USER    (4) Unbound System's Energy  [=(2)] =   -2.77 kcal/mol
DOCKED: USER    
DOCKED: USER    
DOCKED: USER    NEWDPF move heme_opt.pdbqt
DOCKED: USER    NEWDPF about 0.153000 0.018000 -0.028000
DOCKED: USER    NEWDPF tran0 10.062636 -11.754094 -5.048528
DOCKED: USER    NEWDPF quaternion0 -0.031445 0.883203 -0.467347 -0.023454
DOCKED: USER    NEWDPF axisangle0 -0.031453 0.883446 -0.467476 -177.312173
DOCKED: USER    NEWDPF quat0 -0.031453 0.883446 -0.467476 -177.312173
DOCKED: USER    NEWDPF dihe0 -112.60 146.67 -156.55 54.84 -155.71 19.14 135.14 -169.46 -155.33 -8.86 56.04 -58.27 144.04 
DOCKED: USER  keepresnum = 1 
DOCKED: USER  
DOCKED: REMARK  13 active torsions:
DOCKED: REMARK  status: ('A' for Active; 'I' for Inactive)
DOCKED: REMARK    1  A    between atoms: O_3  and  C_38 
DOCKED: REMARK    2  A    between atoms: O_4  and  C_40 
DOCKED: REMARK    3  A    between atoms: O_7  and  C_46 
DOCKED: REMARK    4  A    between atoms: O_9  and  C_48 
DOCKED: REMARK    5  A    between atoms: C_15  and  C_20 
DOCKED: REMARK    6  A    between atoms: C_16  and  C_23 
DOCKED: REMARK    7  A    between atoms: C_20  and  C_38 
DOCKED: REMARK    8  A    between atoms: C_23  and  C_40 
DOCKED: REMARK    9  A    between atoms: C_32  and  C_41 
DOCKED: REMARK   10  A    between atoms: C_37  and  C_45 
DOCKED: REMARK   11  A    between atoms: C_41  and  C_44 
DOCKED: REMARK   12  A    between atoms: C_44  and  C_46 
DOCKED: REMARK   13  A    between atoms: C_47  and  C_48 
DOCKED: USER                              x       y       z     vdW  Elec       q    Type
DOCKED: USER                           _______ _______ _______ _____ _____    ______ ____
DOCKED: ROOT
DOCKED: ATOM      1  O   UNL d   1      15.645 -10.906  -6.742 -0.11 +0.04    -0.289 OA
DOCKED: ATOM      2  O   UNL d   1      12.763 -12.967  -0.121 -0.10 +0.09    -0.289 OA
DOCKED: ATOM      3  N   UNL d   1      12.252 -11.145  -6.176 -0.17 +0.09    -0.247 NA
DOCKED: ATOM      4  N   UNL d   1      12.095 -12.294  -3.440 -0.16 +0.09    -0.247 NA
DOCKED: ATOM      5  N   UNL d   1       9.311 -12.823  -3.921 -0.13 +0.08    -0.354 N 
DOCKED: ATOM      6  N   UNL d   1       9.486 -11.647  -6.765 +0.01 +0.14    -0.354 N 
DOCKED: ATOM      7  C   UNL d   1      13.651 -10.719  -8.142 -0.12 -0.03    +0.084 A 
DOCKED: ATOM      8  C   UNL d   1      13.984 -11.883  -1.945 -0.14 -0.02    +0.084 A 
DOCKED: ATOM      9  C   UNL d   1      13.362 -11.763  -3.340 -0.22 -0.02    +0.058 A 
DOCKED: ATOM     10  C   UNL d   1      12.255 -10.895  -7.538 -0.19 -0.02    +0.058 A 
DOCKED: ATOM     11  C   UNL d   1      14.436 -10.896  -6.878 -0.11 -0.05    +0.193 A 
DOCKED: ATOM     12  C   UNL d   1      13.474 -11.123  -5.753 -0.20 -0.03    +0.109 A 
DOCKED: ATOM     13  C   UNL d   1      12.852 -12.614  -1.281 +0.03 -0.07    +0.193 A 
DOCKED: ATOM     14  C   UNL d   1      14.005 -11.852  -9.108 -0.03 -0.01    +0.026 C 
DOCKED: ATOM     15  C   UNL d   1      14.017 -11.233  -4.384 -0.24 -0.01    +0.055 C 
DOCKED: ATOM     16  C   UNL d   1      14.147 -10.515  -1.276 -0.29 -0.01    +0.026 C 
DOCKED: ATOM     17  C   UNL d   1      11.772 -12.808  -2.297 +0.01 -0.04    +0.109 A 
DOCKED: ATOM     18  C   UNL d   1      11.142 -10.723  -8.276 -0.21 -0.02    +0.050 C 
DOCKED: ATOM     19  C   UNL d   1       9.813 -10.783  -7.785 -0.22 -0.02    +0.045 A 
DOCKED: ATOM     20  C   UNL d   1       9.481 -13.510  -2.747 -0.21 -0.01    +0.045 A 
DOCKED: ATOM     21  C   UNL d   1      10.547 -13.539  -1.941 -0.18 -0.02    +0.057 C 
DOCKED: ATOM     22  C   UNL d   1       7.392 -13.948  -3.562 -0.17 -0.00    -0.019 A 
DOCKED: ATOM     23  C   UNL d   1       8.080 -13.026  -4.487 -0.21 -0.00    +0.045 A 
DOCKED: ATOM     24  C   UNL d   1       8.226 -14.230  -2.533 -0.14 +0.00    -0.022 A 
DOCKED: ATOM     25  C   UNL d   1       8.135 -11.607  -6.511 -0.11 -0.01    +0.049 A 
DOCKED: ATOM     26  C   UNL d   1       8.651 -10.137  -8.179 -0.26 +0.00    -0.018 A 
DOCKED: ATOM     27  C   UNL d   1       7.598 -10.647  -7.358 -0.29 -0.00    +0.003 A 
DOCKED: ATOM     28  C   UNL d   1       7.535 -12.525  -5.607 -0.24 -0.00    +0.052 C 
DOCKED: ATOM     29  C   UNL d   1       7.984 -15.100  -1.347 -0.07 -0.00    +0.046 C 
DOCKED: ATOM     30  C   UNL d   1       8.523  -9.108  -9.251 -0.30 -0.01    +0.046 C 
DOCKED: ATOM     31  H   UNL d   1      10.016 -12.178  -4.260 -0.31 -0.08    +0.166 HD
DOCKED: ATOM     32  H   UNL d   1      10.158 -12.252  -6.307 -0.05 -0.06    +0.166 HD
DOCKED: ENDROOT
DOCKED: BRANCH   7  33
DOCKED: ATOM     33  C   UNL d   1      13.931  -9.345  -8.761 -0.20 -0.11    +0.141 C 
DOCKED: BRANCH  33  34
DOCKED: ATOM     34  C   UNL d   1      13.974  -9.384 -10.264 -0.04 -0.26    +0.306 C 
DOCKED: ATOM     35  O   UNL d   1      14.978  -9.388 -10.956 -0.08 +0.15    -0.251 OA
DOCKED: BRANCH  34  36
DOCKED: ATOM     36  O   UNL d   1      12.749  -9.419 -10.818 -0.04 +0.44    -0.481 OA
DOCKED: ATOM     37  H   UNL d   1      12.344  -8.559 -10.575 -0.36 -0.62    +0.295 HD
DOCKED: ENDBRANCH  34  36
DOCKED: ENDBRANCH  33  34
DOCKED: ENDBRANCH   7  33
DOCKED: BRANCH  27  38
DOCKED: ATOM     38  C   UNL d   1       6.223 -10.258  -7.443 -0.27 -0.00    +0.017 C 
DOCKED: ATOM     39  C   UNL d   1       5.184 -10.982  -6.998 -0.39 +0.01    +0.092 C 
DOCKED: BRANCH  39  40
DOCKED: ATOM     40  C   UNL d   1       3.821 -10.461  -7.130 -0.20 +0.07    +0.330 C 
DOCKED: ATOM     41  O   UNL d   1       3.436  -9.560  -7.851 -1.21 -0.06    -0.246 OA
DOCKED: BRANCH  40  42
DOCKED: ATOM     42  O   UNL d   1       2.988 -11.136  -6.323 -0.31 -0.07    -0.477 OA
DOCKED: ATOM     43  H   UNL d   1       3.355 -12.044  -6.315 +0.14 -0.03    +0.295 HD
DOCKED: ENDBRANCH  40  42
DOCKED: ENDBRANCH  39  40
DOCKED: ENDBRANCH  27  38
DOCKED: BRANCH   8  44
DOCKED: ATOM     44  C   UNL d   1      15.281 -12.696  -1.868 -0.04 -0.02    +0.141 C 
DOCKED: BRANCH  44  45
DOCKED: ATOM     45  C   UNL d   1      15.126 -14.112  -2.356 +0.00 -0.04    +0.306 C 
DOCKED: ATOM     46  O   UNL d   1      15.300 -14.512  -3.493 -0.00 +0.03    -0.251 OA
DOCKED: BRANCH  45  47
DOCKED: ATOM     47  O   UNL d   1      14.728 -14.950  -1.381 +0.00 +0.06    -0.481 OA
DOCKED: ATOM     48  H   UNL d   1      14.298 -14.372  -0.716 +0.02 -0.05    +0.295 HD
DOCKED: ENDBRANCH  45  47
DOCKED: ENDBRANCH  44  45
DOCKED: ENDBRANCH   8  44
DOCKED: BRANCH  22  49
DOCKED: ATOM     49  C   UNL d   1       6.004 -14.474  -3.774 -0.16 +0.00    +0.048 C 
DOCKED: BRANCH  49  50
DOCKED: ATOM     50  C   UNL d   1       5.892 -15.278  -5.069 -0.08 -0.02    +0.125 C 
DOCKED: BRANCH  50  51
DOCKED: ATOM     51  C   UNL d   1       4.829 -14.709  -5.965 -0.09 -0.13    +0.305 C 
DOCKED: ATOM     52  O   UNL d   1       4.439 -15.152  -7.031 -0.08 +0.12    -0.251 OA
DOCKED: BRANCH  51  53
DOCKED: ATOM     53  O   UNL d   1       4.304 -13.572  -5.465 -0.29 +0.18    -0.481 OA
DOCKED: ATOM     54  H   UNL d   1       3.340 -13.745  -5.440 -0.37 -0.52    +0.295 HD
DOCKED: ENDBRANCH  51  53
DOCKED: ENDBRANCH  50  51
DOCKED: ENDBRANCH  49  50
DOCKED: ENDBRANCH  22  49
DOCKED: TORSDOF 13
DOCKED: TER
DOCKED: ENDMDL
________________________________________________________________________________


	BEGINNING GENETIC ALGORITHM DOCKING 70 of 100
Run: 70 Seed: 618207573 1160558276 [ Run 70 of 100 GA/GALS ]
Beginning LAMARCKIAN GENETIC ALGORITHM (LGA), with a maximum of 25000000 energy evaluations.

Final-Value: -11.273


	FINAL GENETIC ALGORITHM DOCKED STATE
	_______________________________________________


Detailed state:  trans 11.292 -12.061 -0.735 quatxyzw -0.288727 0.690775 -0.660475 0.056921 center 0.153 0.018 -0.028 ntor 13 -166.8396 -180.0000 -104.5940 -20.6585 -133.8694 44.4558 130.4246 -61.5895 -115.5992 -32.8013 -87.9503 -77.8213 -11.1843
State:	 11.292 -12.061  -0.735  -0.289  0.692 -0.662 173.474   -166.84 -180.00 -104.59  -20.66 -133.87   44.46  130.42  -61.59 -115.60  -32.80  -87.95  -77.82  -11.18

DOCKED: MODEL       70
DOCKED: USER    Run = 70
DOCKED: USER    DPF = D:/Protein_go_brrr/autodock/final/AncMH_nat/heme/dock.dpf
DOCKED: USER  
DOCKED: USER    Estimated Free Energy of Binding    =   -3.43 kcal/mol  [=(1)+(2)+(3)-(4)]
DOCKED: USER    Estimated Inhibition Constant, Ki   =    3.06 mM (millimolar)  [Temperature = 298.15 K]
DOCKED: USER    
DOCKED: USER    (1) Final Intermolecular Energy     =   -7.31 kcal/mol
DOCKED: USER        vdW + Hbond + desolv Energy     =   -7.08 kcal/mol
DOCKED: USER        Electrostatic Energy            =   -0.22 kcal/mol
DOCKED: USER    (2) Final Total Internal Energy     =   -3.96 kcal/mol
DOCKED: USER    (3) Torsional Free Energy           =   +3.88 kcal/mol
DOCKED: USER    (4) Unbound System's Energy  [=(2)] =   -3.96 kcal/mol
DOCKED: USER    
DOCKED: USER    
DOCKED: USER    NEWDPF move heme_opt.pdbqt
DOCKED: USER    NEWDPF about 0.153000 0.018000 -0.028000
DOCKED: USER    NEWDPF tran0 11.291810 -12.061112 -0.735238
DOCKED: USER    NEWDPF quaternion0 -0.288727 0.690775 -0.660475 0.056921
DOCKED: USER    NEWDPF axisangle0 -0.289196 0.691897 -0.661547 173.473834
DOCKED: USER    NEWDPF quat0 -0.289196 0.691897 -0.661547 173.473834
DOCKED: USER    NEWDPF dihe0 -166.84 -180.00 -104.59 -20.66 -133.87 44.46 130.42 -61.59 -115.60 -32.80 -87.95 -77.82 -11.18 
DOCKED: USER  keepresnum = 1 
DOCKED: USER  
DOCKED: REMARK  13 active torsions:
DOCKED: REMARK  status: ('A' for Active; 'I' for Inactive)
DOCKED: REMARK    1  A    between atoms: O_3  and  C_38 
DOCKED: REMARK    2  A    between atoms: O_4  and  C_40 
DOCKED: REMARK    3  A    between atoms: O_7  and  C_46 
DOCKED: REMARK    4  A    between atoms: O_9  and  C_48 
DOCKED: REMARK    5  A    between atoms: C_15  and  C_20 
DOCKED: REMARK    6  A    between atoms: C_16  and  C_23 
DOCKED: REMARK    7  A    between atoms: C_20  and  C_38 
DOCKED: REMARK    8  A    between atoms: C_23  and  C_40 
DOCKED: REMARK    9  A    between atoms: C_32  and  C_41 
DOCKED: REMARK   10  A    between atoms: C_37  and  C_45 
DOCKED: REMARK   11  A    between atoms: C_41  and  C_44 
DOCKED: REMARK   12  A    between atoms: C_44  and  C_46 
DOCKED: REMARK   13  A    between atoms: C_47  and  C_48 
DOCKED: USER                              x       y       z     vdW  Elec       q    Type
DOCKED: USER                           _______ _______ _______ _____ _____    ______ ____
DOCKED: ROOT
DOCKED: ATOM      1  O   UNL d   1      15.326 -10.924  -4.881 -0.20 +0.02    -0.289 OA
DOCKED: ATOM      2  O   UNL d   1      15.308  -9.518   2.496 -0.05 +0.05    -0.289 OA
DOCKED: ATOM      3  N   UNL d   1      12.642 -11.662  -2.845 -0.10 +0.11    -0.247 NA
DOCKED: ATOM      4  N   UNL d   1      13.660 -11.048  -0.122 -0.15 +0.08    -0.247 NA
DOCKED: ATOM      5  N   UNL d   1      11.388 -12.451   0.944 -0.10 +0.12    -0.354 N 
DOCKED: ATOM      6  N   UNL d   1      10.349 -13.100  -1.885 -0.07 +0.12    -0.354 N 
DOCKED: ATOM      7  C   UNL d   1      13.199 -12.085  -5.194 -0.13 -0.02    +0.084 A 
DOCKED: ATOM      8  C   UNL d   1      15.449  -9.392   0.056 -0.16 -0.02    +0.084 A 
DOCKED: ATOM      9  C   UNL d   1      14.535 -10.250  -0.826 -0.23 -0.01    +0.058 A 
DOCKED: ATOM     10  C   UNL d   1      12.216 -12.238  -4.030 -0.21 -0.02    +0.058 A 
DOCKED: ATOM     11  C   UNL d   1      14.248 -11.304  -4.462 -0.14 -0.03    +0.193 A 
DOCKED: ATOM     12  C   UNL d   1      13.783 -11.090  -3.055 -0.22 -0.03    +0.109 A 
DOCKED: ATOM     13  C   UNL d   1      14.957  -9.879   1.390 -0.11 -0.04    +0.193 A 
DOCKED: ATOM     14  C   UNL d   1      13.792 -13.429  -5.626 -0.04 -0.00    +0.026 C 
DOCKED: ATOM     15  C   UNL d   1      14.618 -10.260  -2.165 +0.04 -0.01    +0.055 C 
DOCKED: ATOM     16  C   UNL d   1      15.126  -7.901  -0.075 -0.22 -0.01    +0.026 C 
DOCKED: ATOM     17  C   UNL d   1      13.879 -10.884   1.143 -0.17 -0.03    +0.109 A 
DOCKED: ATOM     18  C   UNL d   1      11.008 -12.809  -4.200 -0.21 -0.02    +0.050 C 
DOCKED: ATOM     19  C   UNL d   1      10.003 -12.919  -3.205 -0.23 -0.01    +0.045 A 
DOCKED: ATOM     20  C   UNL d   1      12.117 -12.277   2.091 -0.16 -0.01    +0.045 A 
DOCKED: ATOM     21  C   UNL d   1      13.235 -11.568   2.274 -0.18 -0.01    +0.057 C 
DOCKED: ATOM     22  C   UNL d   1      10.326 -13.619   2.550 -0.14 +0.01    -0.019 A 
DOCKED: ATOM     23  C   UNL d   1      10.288 -13.247   1.122 -0.19 -0.01    +0.045 A 
DOCKED: ATOM     24  C   UNL d   1      11.411 -13.041   3.119 -0.14 +0.01    -0.022 A 
DOCKED: ATOM     25  C   UNL d   1       9.225 -13.272  -1.110 -0.23 -0.01    +0.049 A 
DOCKED: ATOM     26  C   UNL d   1       8.619 -12.936  -3.285 -0.25 +0.00    -0.018 A 
DOCKED: ATOM     27  C   UNL d   1       8.133 -13.140  -1.956 -0.27 +0.00    +0.003 A 
DOCKED: ATOM     28  C   UNL d   1       9.333 -13.631   0.261 -0.20 -0.01    +0.052 C 
DOCKED: ATOM     29  C   UNL d   1      11.869 -13.111   4.536 -0.10 -0.02    +0.046 C 
DOCKED: ATOM     30  C   UNL d   1       7.797 -12.772  -4.518 -0.26 -0.00    +0.046 C 
DOCKED: ATOM     31  H   UNL d   1      11.626 -11.957   0.090 -0.44 -0.10    +0.166 HD
DOCKED: ATOM     32  H   UNL d   1      11.307 -13.140  -1.557 -0.10 -0.06    +0.166 HD
DOCKED: ENDROOT
DOCKED: BRANCH   7  33
DOCKED: ATOM     33  C   UNL d   1      12.676 -11.290  -6.395 -0.20 -0.05    +0.141 C 
DOCKED: BRANCH  33  34
DOCKED: ATOM     34  C   UNL d   1      11.573 -12.004  -7.127 -0.07 -0.09    +0.306 C 
DOCKED: ATOM     35  O   UNL d   1      11.711 -12.909  -7.933 -0.02 +0.06    -0.251 OA
DOCKED: BRANCH  34  36
DOCKED: ATOM     36  O   UNL d   1      10.352 -11.542  -6.804 -0.05 +0.20    -0.481 OA
DOCKED: ATOM     37  H   UNL d   1      10.526 -10.726  -6.288 -0.43 -0.21    +0.295 HD
DOCKED: ENDBRANCH  34  36
DOCKED: ENDBRANCH  33  34
DOCKED: ENDBRANCH   7  33
DOCKED: BRANCH  27  38
DOCKED: ATOM     38  C   UNL d   1       6.753 -13.237  -1.589 -0.13 +0.00    +0.017 C 
DOCKED: ATOM     39  C   UNL d   1       6.247 -14.108  -0.702 -0.16 +0.02    +0.092 C 
DOCKED: BRANCH  39  40
DOCKED: ATOM     40  C   UNL d   1       4.813 -14.093  -0.400 -0.13 +0.11    +0.330 C 
DOCKED: ATOM     41  O   UNL d   1       3.890 -13.977  -1.183 -0.35 -0.15    -0.246 OA
DOCKED: BRANCH  40  42
DOCKED: ATOM     42  O   UNL d   1       4.617 -14.241   0.919 -0.03 -0.13    -0.477 OA
DOCKED: ATOM     43  H   UNL d   1       5.523 -14.316   1.284 +0.09 +0.05    +0.295 HD
DOCKED: ENDBRANCH  40  42
DOCKED: ENDBRANCH  39  40
DOCKED: ENDBRANCH  27  38
DOCKED: BRANCH   8  44
DOCKED: ATOM     44  C   UNL d   1      16.951  -9.651  -0.102 -0.06 -0.02    +0.141 C 
DOCKED: BRANCH  44  45
DOCKED: ATOM     45  C   UNL d   1      17.439 -10.828   0.698 -0.00 -0.04    +0.306 C 
DOCKED: ATOM     46  O   UNL d   1      17.435 -11.996   0.350 -0.00 +0.03    -0.251 OA
DOCKED: BRANCH  45  47
DOCKED: ATOM     47  O   UNL d   1      17.884 -10.473   1.917 +0.01 +0.06    -0.481 OA
DOCKED: ATOM     48  H   UNL d   1      17.072 -10.282   2.432 +0.02 -0.04    +0.295 HD
DOCKED: ENDBRANCH  45  47
DOCKED: ENDBRANCH  44  45
DOCKED: ENDBRANCH   8  44
DOCKED: BRANCH  22  49
DOCKED: ATOM     49  C   UNL d   1       9.318 -14.509   3.216 -0.06 -0.01    +0.048 C 
DOCKED: BRANCH  49  50
DOCKED: ATOM     50  C   UNL d   1       8.204 -13.704   3.885 -0.09 -0.05    +0.125 C 
DOCKED: BRANCH  50  51
DOCKED: ATOM     51  C   UNL d   1       7.038 -13.527   2.955 -0.05 -0.07    +0.305 C 
DOCKED: ATOM     52  O   UNL d   1       6.999 -12.870   1.929 -0.14 +0.06    -0.251 OA
DOCKED: BRANCH  51  53
DOCKED: ATOM     53  O   UNL d   1       5.946 -14.193   3.381 +0.02 -0.04    -0.481 OA
DOCKED: ATOM     54  H   UNL d   1       5.202 -13.745   2.928 +0.11 +0.05    +0.295 HD
DOCKED: ENDBRANCH  51  53
DOCKED: ENDBRANCH  50  51
DOCKED: ENDBRANCH  49  50
DOCKED: ENDBRANCH  22  49
DOCKED: TORSDOF 13
DOCKED: TER
DOCKED: ENDMDL
________________________________________________________________________________


	BEGINNING GENETIC ALGORITHM DOCKING 71 of 100
Run: 71 Seed: 383844034 855474085 [ Run 71 of 100 GA/GALS ]
Beginning LAMARCKIAN GENETIC ALGORITHM (LGA), with a maximum of 25000000 energy evaluations.

Final-Value: -10.602


	FINAL GENETIC ALGORITHM DOCKED STATE
	_______________________________________________


Detailed state:  trans 10.336 5.707 6.692 quatxyzw 0.073602 0.148932 0.916031 0.365087 center 0.153 0.018 -0.028 ntor 13 151.4513 64.6291 125.7279 -180.0000 -141.3026 -19.5062 -49.0825 51.0254 13.5504 -137.0395 -122.0834 91.6804 147.3308
State:	 10.336   5.707   6.692   0.079  0.160  0.984 137.174    151.45   64.63  125.73 -180.00 -141.30  -19.51  -49.08   51.03   13.55 -137.04 -122.08   91.68  147.33

DOCKED: MODEL       71
DOCKED: USER    Run = 71
DOCKED: USER    DPF = D:/Protein_go_brrr/autodock/final/AncMH_nat/heme/dock.dpf
DOCKED: USER  
DOCKED: USER    Estimated Free Energy of Binding    =   -4.20 kcal/mol  [=(1)+(2)+(3)-(4)]
DOCKED: USER    Estimated Inhibition Constant, Ki   =  835.11 uM (micromolar)  [Temperature = 298.15 K]
DOCKED: USER    
DOCKED: USER    (1) Final Intermolecular Energy     =   -8.08 kcal/mol
DOCKED: USER        vdW + Hbond + desolv Energy     =   -7.71 kcal/mol
DOCKED: USER        Electrostatic Energy            =   -0.37 kcal/mol
DOCKED: USER    (2) Final Total Internal Energy     =   -2.52 kcal/mol
DOCKED: USER    (3) Torsional Free Energy           =   +3.88 kcal/mol
DOCKED: USER    (4) Unbound System's Energy  [=(2)] =   -2.52 kcal/mol
DOCKED: USER    
DOCKED: USER    
DOCKED: USER    NEWDPF move heme_opt.pdbqt
DOCKED: USER    NEWDPF about 0.153000 0.018000 -0.028000
DOCKED: USER    NEWDPF tran0 10.335521 5.706516 6.691882
DOCKED: USER    NEWDPF quaternion0 0.073602 0.148932 0.916031 0.365087
DOCKED: USER    NEWDPF axisangle0 0.079059 0.159975 0.983950 137.174074
DOCKED: USER    NEWDPF quat0 0.079059 0.159975 0.983950 137.174074
DOCKED: USER    NEWDPF dihe0 151.45 64.63 125.73 -180.00 -141.30 -19.51 -49.08 51.03 13.55 -137.04 -122.08 91.68 147.33 
DOCKED: USER  keepresnum = 1 
DOCKED: USER  
DOCKED: REMARK  13 active torsions:
DOCKED: REMARK  status: ('A' for Active; 'I' for Inactive)
DOCKED: REMARK    1  A    between atoms: O_3  and  C_38 
DOCKED: REMARK    2  A    between atoms: O_4  and  C_40 
DOCKED: REMARK    3  A    between atoms: O_7  and  C_46 
DOCKED: REMARK    4  A    between atoms: O_9  and  C_48 
DOCKED: REMARK    5  A    between atoms: C_15  and  C_20 
DOCKED: REMARK    6  A    between atoms: C_16  and  C_23 
DOCKED: REMARK    7  A    between atoms: C_20  and  C_38 
DOCKED: REMARK    8  A    between atoms: C_23  and  C_40 
DOCKED: REMARK    9  A    between atoms: C_32  and  C_41 
DOCKED: REMARK   10  A    between atoms: C_37  and  C_45 
DOCKED: REMARK   11  A    between atoms: C_41  and  C_44 
DOCKED: REMARK   12  A    between atoms: C_44  and  C_46 
DOCKED: REMARK   13  A    between atoms: C_47  and  C_48 
DOCKED: USER                              x       y       z     vdW  Elec       q    Type
DOCKED: USER                           _______ _______ _______ _____ _____    ______ ____
DOCKED: ROOT
DOCKED: ATOM      1  O   UNL d   1      15.574   8.384   6.307 -0.01 +0.09    -0.289 OA
DOCKED: ATOM      2  O   UNL d   1       8.867  10.249   3.491 -0.34 +0.04    -0.289 OA
DOCKED: ATOM      3  N   UNL d   1      12.773   6.407   6.686 -0.08 +0.21    -0.247 NA
DOCKED: ATOM      4  N   UNL d   1      10.600   8.073   5.533 -0.15 +0.12    -0.247 NA
DOCKED: ATOM      5  N   UNL d   1       8.708   6.278   6.744 -0.07 +0.17    -0.354 N 
DOCKED: ATOM      6  N   UNL d   1      10.969   4.567   7.953 -0.04 +0.22    -0.354 N 
DOCKED: ATOM      7  C   UNL d   1      15.067   6.340   7.549 -0.02 -0.03    +0.084 A 
DOCKED: ATOM      8  C   UNL d   1      11.231   9.719   3.841 -0.26 -0.02    +0.084 A 
DOCKED: ATOM      9  C   UNL d   1      11.652   8.666   4.872 -0.19 -0.03    +0.058 A 
DOCKED: ATOM     10  C   UNL d   1      13.667   5.720   7.490 -0.07 -0.03    +0.058 A 
DOCKED: ATOM     11  C   UNL d   1      14.810   7.489   6.620 -0.02 -0.08    +0.193 A 
DOCKED: ATOM     12  C   UNL d   1      13.393   7.404   6.144 -0.07 -0.08    +0.109 A 
DOCKED: ATOM     13  C   UNL d   1       9.747   9.640   4.067 -0.26 -0.04    +0.193 A 
DOCKED: ATOM     14  C   UNL d   1      15.394   6.891   8.939 +0.00 -0.01    +0.026 C 
DOCKED: ATOM     15  C   UNL d   1      12.936   8.386   5.140 -0.14 -0.04    +0.055 C 
DOCKED: ATOM     16  C   UNL d   1      11.536   9.266   2.410 -0.39 -0.01    +0.026 C 
DOCKED: ATOM     17  C   UNL d   1       9.497   8.611   5.121 -0.25 -0.03    +0.109 A 
DOCKED: ATOM     18  C   UNL d   1      13.388   4.557   8.107 -0.07 -0.02    +0.050 C 
DOCKED: ATOM     19  C   UNL d   1      12.151   3.867   8.040 -0.10 -0.02    +0.045 A 
DOCKED: ATOM     20  C   UNL d   1       7.859   7.275   6.337 -0.26 -0.01    +0.045 A 
DOCKED: ATOM     21  C   UNL d   1       8.127   8.347   5.584 -0.32 -0.01    +0.057 C 
DOCKED: ATOM     22  C   UNL d   1       6.685   5.776   7.598 -0.25 +0.01    -0.019 A 
DOCKED: ATOM     23  C   UNL d   1       8.089   5.328   7.512 -0.19 -0.03    +0.045 A 
DOCKED: ATOM     24  C   UNL d   1       6.555   6.928   6.899 -0.28 +0.01    -0.022 A 
DOCKED: ATOM     25  C   UNL d   1       9.894   3.708   7.992 -0.17 -0.04    +0.049 A 
DOCKED: ATOM     26  C   UNL d   1      11.838   2.517   8.099 -0.13 +0.01    -0.018 A 
DOCKED: ATOM     27  C   UNL d   1      10.413   2.422   8.048 -0.21 -0.00    +0.003 A 
DOCKED: ATOM     28  C   UNL d   1       8.566   4.206   8.074 -0.06 -0.06    +0.052 C 
DOCKED: ATOM     29  C   UNL d   1       5.333   7.755   6.682 -0.31 -0.00    +0.046 C 
DOCKED: ATOM     30  C   UNL d   1      12.802   1.384   8.194 -0.09 -0.00    +0.046 C 
DOCKED: ATOM     31  H   UNL d   1       9.669   6.241   6.423 +0.06 -0.09    +0.166 HD
DOCKED: ATOM     32  H   UNL d   1      10.918   5.578   7.910 +0.04 -0.09    +0.166 HD
DOCKED: ENDROOT
DOCKED: BRANCH   7  33
DOCKED: ATOM     33  C   UNL d   1      16.199   5.458   7.013 -0.01 -0.05    +0.141 C 
DOCKED: BRANCH  33  34
DOCKED: ATOM     34  C   UNL d   1      16.024   5.110   5.559 -0.04 -0.15    +0.306 C 
DOCKED: ATOM     35  O   UNL d   1      15.392   4.167   5.115 -0.14 +0.17    -0.251 OA
DOCKED: BRANCH  34  36
DOCKED: ATOM     36  O   UNL d   1      16.653   5.972   4.741 +0.00 +0.20    -0.481 OA
DOCKED: ATOM     37  H   UNL d   1      16.626   6.829   5.217 +0.03 -0.11    +0.295 HD
DOCKED: ENDBRANCH  34  36
DOCKED: ENDBRANCH  33  34
DOCKED: ENDBRANCH   7  33
DOCKED: BRANCH  27  38
DOCKED: ATOM     38  C   UNL d   1       9.665   1.202   8.099 -0.29 -0.01    +0.017 C 
DOCKED: ATOM     39  C   UNL d   1       9.874   0.133   7.316 -0.28 -0.01    +0.092 C 
DOCKED: BRANCH  39  40
DOCKED: ATOM     40  C   UNL d   1       9.047  -1.065   7.481 -0.22 -0.08    +0.330 C 
DOCKED: ATOM     41  O   UNL d   1       8.407  -1.398   8.461 -0.20 +0.10    -0.246 OA
DOCKED: BRANCH  40  42
DOCKED: ATOM     42  O   UNL d   1       9.067  -1.798   6.357 -0.22 +0.04    -0.477 OA
DOCKED: ATOM     43  H   UNL d   1       8.140  -1.770   6.042 -0.38 -0.16    +0.295 HD
DOCKED: ENDBRANCH  40  42
DOCKED: ENDBRANCH  39  40
DOCKED: ENDBRANCH  27  38
DOCKED: BRANCH   8  44
DOCKED: ATOM     44  C   UNL d   1      11.750  11.138   4.096 -0.14 -0.01    +0.141 C 
DOCKED: BRANCH  44  45
DOCKED: ATOM     45  C   UNL d   1      11.442  12.094   2.974 -0.14 +0.02    +0.306 C 
DOCKED: ATOM     46  O   UNL d   1      12.165  12.363   2.030 -0.15 -0.06    -0.251 OA
DOCKED: BRANCH  45  47
DOCKED: ATOM     47  O   UNL d   1      10.243  12.685   3.117 -0.08 -0.04    -0.481 OA
DOCKED: ATOM     48  H   UNL d   1       9.608  11.942   3.203 +0.14 +0.01    +0.295 HD
DOCKED: ENDBRANCH  45  47
DOCKED: ENDBRANCH  44  45
DOCKED: ENDBRANCH   8  44
DOCKED: BRANCH  22  49
DOCKED: ATOM     49  C   UNL d   1       5.614   5.051   8.359 -0.41 -0.04    +0.048 C 
DOCKED: BRANCH  49  50
DOCKED: ATOM     50  C   UNL d   1       5.905   5.020   9.860 -0.26 -0.13    +0.125 C 
DOCKED: BRANCH  50  51
DOCKED: ATOM     51  C   UNL d   1       6.022   6.413  10.412 -0.11 -0.10    +0.305 C 
DOCKED: ATOM     52  O   UNL d   1       5.293   7.364  10.190 -0.15 +0.00    -0.251 OA
DOCKED: BRANCH  51  53
DOCKED: ATOM     53  O   UNL d   1       7.088   6.544  11.227 -0.01 +0.15    -0.481 OA
DOCKED: ATOM     54  H   UNL d   1       7.495   5.653  11.232 +0.06 -0.16    +0.295 HD
DOCKED: ENDBRANCH  51  53
DOCKED: ENDBRANCH  50  51
DOCKED: ENDBRANCH  49  50
DOCKED: ENDBRANCH  22  49
DOCKED: TORSDOF 13
DOCKED: TER
DOCKED: ENDMDL
________________________________________________________________________________


	BEGINNING GENETIC ALGORITHM DOCKING 72 of 100
Run: 72 Seed: 762185705 499179246 [ Run 72 of 100 GA/GALS ]
Beginning LAMARCKIAN GENETIC ALGORITHM (LGA), with a maximum of 25000000 energy evaluations.

Final-Value: -11.190


	FINAL GENETIC ALGORITHM DOCKED STATE
	_______________________________________________


Detailed state:  trans -10.516 -0.622 20.876 quatxyzw 0.521352 -0.792233 0.191255 -0.252945 center 0.153 0.018 -0.028 ntor 13 -95.9928 -154.5041 -171.4244 13.2196 53.9509 54.4269 138.3471 179.9297 146.1705 -14.3883 68.8833 -88.1067 144.2359
State:	-10.516  -0.622  20.876   0.539 -0.819  0.198 -150.696    -95.99 -154.50 -171.42   13.22   53.95   54.43  138.35  179.93  146.17  -14.39   68.88  -88.11  144.24

DOCKED: MODEL       72
DOCKED: USER    Run = 72
DOCKED: USER    DPF = D:/Protein_go_brrr/autodock/final/AncMH_nat/heme/dock.dpf
DOCKED: USER  
DOCKED: USER    Estimated Free Energy of Binding    =   -3.48 kcal/mol  [=(1)+(2)+(3)-(4)]
DOCKED: USER    Estimated Inhibition Constant, Ki   =    2.81 mM (millimolar)  [Temperature = 298.15 K]
DOCKED: USER    
DOCKED: USER    (1) Final Intermolecular Energy     =   -7.36 kcal/mol
DOCKED: USER        vdW + Hbond + desolv Energy     =   -7.13 kcal/mol
DOCKED: USER        Electrostatic Energy            =   -0.23 kcal/mol
DOCKED: USER    (2) Final Total Internal Energy     =   -3.83 kcal/mol
DOCKED: USER    (3) Torsional Free Energy           =   +3.88 kcal/mol
DOCKED: USER    (4) Unbound System's Energy  [=(2)] =   -3.83 kcal/mol
DOCKED: USER    
DOCKED: USER    
DOCKED: USER    NEWDPF move heme_opt.pdbqt
DOCKED: USER    NEWDPF about 0.153000 0.018000 -0.028000
DOCKED: USER    NEWDPF tran0 -10.516377 -0.621662 20.875513
DOCKED: USER    NEWDPF quaternion0 0.521352 -0.792233 0.191255 -0.252945
DOCKED: USER    NEWDPF axisangle0 0.538876 -0.818861 0.197684 -150.696293
DOCKED: USER    NEWDPF quat0 0.538876 -0.818861 0.197684 -150.696293
DOCKED: USER    NEWDPF dihe0 -95.99 -154.50 -171.42 13.22 53.95 54.43 138.35 179.93 146.17 -14.39 68.88 -88.11 144.24 
DOCKED: USER  keepresnum = 1 
DOCKED: USER  
DOCKED: REMARK  13 active torsions:
DOCKED: REMARK  status: ('A' for Active; 'I' for Inactive)
DOCKED: REMARK    1  A    between atoms: O_3  and  C_38 
DOCKED: REMARK    2  A    between atoms: O_4  and  C_40 
DOCKED: REMARK    3  A    between atoms: O_7  and  C_46 
DOCKED: REMARK    4  A    between atoms: O_9  and  C_48 
DOCKED: REMARK    5  A    between atoms: C_15  and  C_20 
DOCKED: REMARK    6  A    between atoms: C_16  and  C_23 
DOCKED: REMARK    7  A    between atoms: C_20  and  C_38 
DOCKED: REMARK    8  A    between atoms: C_23  and  C_40 
DOCKED: REMARK    9  A    between atoms: C_32  and  C_41 
DOCKED: REMARK   10  A    between atoms: C_37  and  C_45 
DOCKED: REMARK   11  A    between atoms: C_41  and  C_44 
DOCKED: REMARK   12  A    between atoms: C_44  and  C_46 
DOCKED: REMARK   13  A    between atoms: C_47  and  C_48 
DOCKED: USER                              x       y       z     vdW  Elec       q    Type
DOCKED: USER                           _______ _______ _______ _____ _____    ______ ____
DOCKED: ROOT
DOCKED: ATOM      1  O   UNL d   1     -10.363   3.750  16.924 -0.83 +0.01    -0.289 OA
DOCKED: ATOM      2  O   UNL d   1      -4.854   0.354  20.733 -0.03 +0.09    -0.289 OA
DOCKED: ATOM      3  N   UNL d   1     -10.954   1.292  19.269 -0.08 +0.07    -0.247 NA
DOCKED: ATOM      4  N   UNL d   1      -8.224   0.366  19.991 -0.51 +0.04    -0.247 NA
DOCKED: ATOM      5  N   UNL d   1      -9.434  -1.906  21.271 -0.07 +0.07    -0.354 N 
DOCKED: ATOM      6  N   UNL d   1     -12.261  -0.949  20.501 -0.03 +0.08    -0.354 N 
DOCKED: ATOM      7  C   UNL d   1     -12.343   2.529  17.673 -0.19 -0.01    +0.084 A 
DOCKED: ATOM      8  C   UNL d   1      -6.392   1.959  19.708 -0.12 -0.04    +0.084 A 
DOCKED: ATOM      9  C   UNL d   1      -7.874   1.613  19.524 -0.18 -0.02    +0.058 A 
DOCKED: ATOM     10  C   UNL d   1     -12.234   1.465  18.769 -0.14 -0.01    +0.058 A 
DOCKED: ATOM     11  C   UNL d   1     -10.902   2.940  17.656 -0.18 -0.01    +0.193 A 
DOCKED: ATOM     12  C   UNL d   1     -10.168   2.137  18.684 -0.19 -0.02    +0.109 A 
DOCKED: ATOM     13  C   UNL d   1      -5.959   0.662  20.332 -0.05 -0.05    +0.193 A 
DOCKED: ATOM     14  C   UNL d   1     -12.701   1.921  16.315 -0.26 -0.00    +0.026 C 
DOCKED: ATOM     15  C   UNL d   1      -8.740   2.436  18.913 -0.25 -0.02    +0.055 C 
DOCKED: ATOM     16  C   UNL d   1      -6.194   3.086  20.726 -0.08 -0.01    +0.026 C 
DOCKED: ATOM     17  C   UNL d   1      -7.161  -0.219  20.441 -0.02 -0.01    +0.109 A 
DOCKED: ATOM     18  C   UNL d   1     -13.322   0.833  19.247 -0.10 -0.00    +0.050 C 
DOCKED: ATOM     19  C   UNL d   1     -13.329  -0.101  20.314 -0.06 -0.00    +0.045 A 
DOCKED: ATOM     20  C   UNL d   1      -8.117  -2.286  21.312 -0.14 -0.01    +0.045 A 
DOCKED: ATOM     21  C   UNL d   1      -7.031  -1.581  20.981 -0.16 -0.01    +0.057 C 
DOCKED: ATOM     22  C   UNL d   1      -9.410  -4.026  22.032 -0.07 +0.00    -0.019 A 
DOCKED: ATOM     23  C   UNL d   1     -10.290  -2.891  21.687 -0.10 -0.01    +0.045 A 
DOCKED: ATOM     24  C   UNL d   1      -8.126  -3.662  21.809 -0.11 +0.00    -0.022 A 
DOCKED: ATOM     25  C   UNL d   1     -12.515  -1.827  21.529 -0.06 -0.00    +0.049 A 
DOCKED: ATOM     26  C   UNL d   1     -14.286  -0.412  21.267 -0.02 +0.00    -0.018 A 
DOCKED: ATOM     27  C   UNL d   1     -13.759  -1.489  22.044 -0.02 -0.00    +0.003 A 
DOCKED: ATOM     28  C   UNL d   1     -11.626  -2.900  21.808 -0.08 -0.00    +0.052 C 
DOCKED: ATOM     29  C   UNL d   1      -6.881  -4.455  22.017 -0.10 -0.01    +0.046 C 
DOCKED: ATOM     30  C   UNL d   1     -15.609   0.252  21.449 -0.01 +0.00    +0.046 C 
DOCKED: ATOM     31  H   UNL d   1      -9.700  -0.958  21.030 -0.13 -0.04    +0.166 HD
DOCKED: ATOM     32  H   UNL d   1     -11.429  -0.938  19.923 -0.50 -0.12    +0.166 HD
DOCKED: ENDROOT
DOCKED: BRANCH   7  33
DOCKED: ATOM     33  C   UNL d   1     -13.240   3.726  18.008 -0.10 -0.00    +0.141 C 
DOCKED: BRANCH  33  34
DOCKED: ATOM     34  C   UNL d   1     -13.572   4.557  16.798 -0.13 +0.00    +0.306 C 
DOCKED: ATOM     35  O   UNL d   1     -14.655   4.618  16.241 -0.16 -0.06    -0.251 OA
DOCKED: BRANCH  34  36
DOCKED: ATOM     36  O   UNL d   1     -12.521   5.269  16.354 -0.06 +0.08    -0.481 OA
DOCKED: ATOM     37  H   UNL d   1     -12.001   4.634  15.818 -0.41 -0.16    +0.295 HD
DOCKED: ENDBRANCH  34  36
DOCKED: ENDBRANCH  33  34
DOCKED: ENDBRANCH   7  33
DOCKED: BRANCH  27  38
DOCKED: ATOM     38  C   UNL d   1     -14.434  -2.130  23.132 -0.01 +0.00    +0.017 C 
DOCKED: ATOM     39  C   UNL d   1     -14.610  -3.454  23.263 -0.00 +0.00    +0.092 C 
DOCKED: BRANCH  39  40
DOCKED: ATOM     40  C   UNL d   1     -15.306  -3.985  24.437 +0.00 +0.01    +0.330 C 
DOCKED: ATOM     41  O   UNL d   1     -16.396  -3.658  24.867 +0.00 -0.01    -0.246 OA
DOCKED: BRANCH  40  42
DOCKED: ATOM     42  O   UNL d   1     -14.566  -4.941  25.019 +0.00 -0.01    -0.477 OA
DOCKED: ATOM     43  H   UNL d   1     -13.649  -4.719  24.759 +0.00 +0.00    +0.295 HD
DOCKED: ENDBRANCH  40  42
DOCKED: ENDBRANCH  39  40
DOCKED: ENDBRANCH  27  38
DOCKED: BRANCH   8  44
DOCKED: ATOM     44  C   UNL d   1      -5.613   2.234  18.418 -0.23 -0.10    +0.141 C 
DOCKED: BRANCH  44  45
DOCKED: ATOM     45  C   UNL d   1      -5.521   1.035  17.512 -0.27 -0.14    +0.306 C 
DOCKED: ATOM     46  O   UNL d   1      -6.266   0.765  16.585 -0.89 +0.11    -0.251 OA
DOCKED: BRANCH  45  47
DOCKED: ATOM     47  O   UNL d   1      -4.504   0.218  17.841 -0.09 +0.24    -0.481 OA
DOCKED: ATOM     48  H   UNL d   1      -4.162   0.576  18.687 +0.14 -0.14    +0.295 HD
DOCKED: ENDBRANCH  45  47
DOCKED: ENDBRANCH  44  45
DOCKED: ENDBRANCH   8  44
DOCKED: BRANCH  22  49
DOCKED: ATOM     49  C   UNL d   1      -9.903  -5.354  22.529 -0.03 -0.00    +0.048 C 
DOCKED: BRANCH  49  50
DOCKED: ATOM     50  C   UNL d   1     -10.816  -6.038  21.511 -0.04 +0.00    +0.125 C 
DOCKED: BRANCH  50  51
DOCKED: ATOM     51  C   UNL d   1     -12.237  -6.064  21.997 +0.00 +0.02    +0.305 C 
DOCKED: ATOM     52  O   UNL d   1     -13.224  -6.438  21.388 -0.01 -0.04    -0.251 OA
DOCKED: BRANCH  51  53
DOCKED: ATOM     53  O   UNL d   1     -12.348  -5.595  23.256 +0.00 -0.01    -0.481 OA
DOCKED: ATOM     54  H   UNL d   1     -13.254  -5.854  23.527 +0.00 +0.01    +0.295 HD
DOCKED: ENDBRANCH  51  53
DOCKED: ENDBRANCH  50  51
DOCKED: ENDBRANCH  49  50
DOCKED: ENDBRANCH  22  49
DOCKED: TORSDOF 13
DOCKED: TER
DOCKED: ENDMDL
________________________________________________________________________________


	BEGINNING GENETIC ALGORITHM DOCKING 73 of 100
Run: 73 Seed: 1941395965 1430192183 [ Run 73 of 100 GA/GALS ]
Beginning LAMARCKIAN GENETIC ALGORITHM (LGA), with a maximum of 25000000 energy evaluations.

Final-Value: -11.982


	FINAL GENETIC ALGORITHM DOCKED STATE
	_______________________________________________


Detailed state:  trans -10.619 13.297 15.672 quatxyzw -0.831760 0.496361 -0.205127 -0.140441 center 0.153 0.018 -0.028 ntor 13 141.6721 -178.7443 110.0699 42.3081 -138.7020 -67.6679 -48.9170 8.9827 16.0204 -131.5956 -82.9664 8.9208 -3.7240
State:	-10.619  13.297  15.672  -0.840  0.501 -0.207 -163.853    141.67 -178.74  110.07   42.31 -138.70  -67.67  -48.92    8.98   16.02 -131.60  -82.97    8.92   -3.72

DOCKED: MODEL       73
DOCKED: USER    Run = 73
DOCKED: USER    DPF = D:/Protein_go_brrr/autodock/final/AncMH_nat/heme/dock.dpf
DOCKED: USER  
DOCKED: USER    Estimated Free Energy of Binding    =   -3.44 kcal/mol  [=(1)+(2)+(3)-(4)]
DOCKED: USER    Estimated Inhibition Constant, Ki   =    3.01 mM (millimolar)  [Temperature = 298.15 K]
DOCKED: USER    
DOCKED: USER    (1) Final Intermolecular Energy     =   -7.32 kcal/mol
DOCKED: USER        vdW + Hbond + desolv Energy     =   -6.99 kcal/mol
DOCKED: USER        Electrostatic Energy            =   -0.32 kcal/mol
DOCKED: USER    (2) Final Total Internal Energy     =   -4.66 kcal/mol
DOCKED: USER    (3) Torsional Free Energy           =   +3.88 kcal/mol
DOCKED: USER    (4) Unbound System's Energy  [=(2)] =   -4.66 kcal/mol
DOCKED: USER    
DOCKED: USER    
DOCKED: USER    NEWDPF move heme_opt.pdbqt
DOCKED: USER    NEWDPF about 0.153000 0.018000 -0.028000
DOCKED: USER    NEWDPF tran0 -10.619416 13.297302 15.672183
DOCKED: USER    NEWDPF quaternion0 -0.831760 0.496361 -0.205127 -0.140441
DOCKED: USER    NEWDPF axisangle0 -0.840086 0.501329 -0.207181 -163.853273
DOCKED: USER    NEWDPF quat0 -0.840086 0.501329 -0.207181 -163.853273
DOCKED: USER    NEWDPF dihe0 141.67 -178.74 110.07 42.31 -138.70 -67.67 -48.92 8.98 16.02 -131.60 -82.97 8.92 -3.72 
DOCKED: USER  keepresnum = 1 
DOCKED: USER  
DOCKED: REMARK  13 active torsions:
DOCKED: REMARK  status: ('A' for Active; 'I' for Inactive)
DOCKED: REMARK    1  A    between atoms: O_3  and  C_38 
DOCKED: REMARK    2  A    between atoms: O_4  and  C_40 
DOCKED: REMARK    3  A    between atoms: O_7  and  C_46 
DOCKED: REMARK    4  A    between atoms: O_9  and  C_48 
DOCKED: REMARK    5  A    between atoms: C_15  and  C_20 
DOCKED: REMARK    6  A    between atoms: C_16  and  C_23 
DOCKED: REMARK    7  A    between atoms: C_20  and  C_38 
DOCKED: REMARK    8  A    between atoms: C_23  and  C_40 
DOCKED: REMARK    9  A    between atoms: C_32  and  C_41 
DOCKED: REMARK   10  A    between atoms: C_37  and  C_45 
DOCKED: REMARK   11  A    between atoms: C_41  and  C_44 
DOCKED: REMARK   12  A    between atoms: C_44  and  C_46 
DOCKED: REMARK   13  A    between atoms: C_47  and  C_48 
DOCKED: USER                              x       y       z     vdW  Elec       q    Type
DOCKED: USER                           _______ _______ _______ _____ _____    ______ ____
DOCKED: ROOT
DOCKED: ATOM      1  O   UNL d   1     -13.979  17.483  13.233 -0.10 +0.26    -0.289 OA
DOCKED: ATOM      2  O   UNL d   1      -8.780  17.864  18.639 -0.01 +0.06    -0.289 OA
DOCKED: ATOM      3  N   UNL d   1     -12.341  14.702  14.449 -0.16 +0.15    -0.247 NA
DOCKED: ATOM      4  N   UNL d   1     -10.311  15.854  16.288 -0.11 +0.17    -0.247 NA
DOCKED: ATOM      5  N   UNL d   1      -9.022  13.285  16.326 -0.07 +0.13    -0.354 N 
DOCKED: ATOM      6  N   UNL d   1     -11.121  12.103  14.403 -0.12 +0.08    -0.354 N 
DOCKED: ATOM      7  C   UNL d   1     -13.922  15.117  12.622 -0.18 -0.05    +0.084 A 
DOCKED: ATOM      8  C   UNL d   1     -10.810  18.030  17.281 -0.08 -0.05    +0.084 A 
DOCKED: ATOM      9  C   UNL d   1     -11.191  16.914  16.303 -0.14 -0.05    +0.058 A 
DOCKED: ATOM     10  C   UNL d   1     -13.048  14.131  13.404 -0.25 -0.03    +0.058 A 
DOCKED: ATOM     11  C   UNL d   1     -13.598  16.342  13.423 -0.13 -0.16    +0.193 A 
DOCKED: ATOM     12  C   UNL d   1     -12.650  15.956  14.516 -0.18 -0.09    +0.109 A 
DOCKED: ATOM     13  C   UNL d   1      -9.533  17.425  17.791 -0.05 -0.07    +0.193 A 
DOCKED: ATOM     14  C   UNL d   1     -13.423  15.316  11.189 -0.30 -0.02    +0.026 C 
DOCKED: ATOM     15  C   UNL d   1     -12.260  16.989  15.496 -0.10 -0.06    +0.055 C 
DOCKED: ATOM     16  C   UNL d   1     -11.805  18.132  18.442 -0.02 -0.01    +0.026 C 
DOCKED: ATOM     17  C   UNL d   1      -9.341  16.112  17.105 -0.12 -0.05    +0.109 A 
DOCKED: ATOM     18  C   UNL d   1     -13.058  12.813  13.130 -0.36 -0.01    +0.050 C 
DOCKED: ATOM     19  C   UNL d   1     -12.349  11.818  13.851 -0.32 -0.01    +0.045 A 
DOCKED: ATOM     20  C   UNL d   1      -8.071  14.035  16.967 -0.12 -0.01    +0.045 A 
DOCKED: ATOM     21  C   UNL d   1      -8.141  15.306  17.376 -0.11 -0.02    +0.057 C 
DOCKED: ATOM     22  C   UNL d   1      -7.231  11.944  16.591 -0.18 +0.00    -0.019 A 
DOCKED: ATOM     23  C   UNL d   1      -8.607  12.008  16.057 -0.23 -0.01    +0.045 A 
DOCKED: ATOM     24  C   UNL d   1      -6.921  13.147  17.130 -0.10 +0.00    -0.022 A 
DOCKED: ATOM     25  C   UNL d   1     -10.575  10.976  14.974 +0.11 -0.01    +0.049 A 
DOCKED: ATOM     26  C   UNL d   1     -12.626  10.483  14.102 -0.32 +0.00    -0.018 A 
DOCKED: ATOM     27  C   UNL d   1     -11.511   9.962  14.828 -0.18 -0.00    +0.003 A 
DOCKED: ATOM     28  C   UNL d   1      -9.243  10.983  15.469 -0.18 -0.01    +0.052 C 
DOCKED: ATOM     29  C   UNL d   1      -5.658  13.571  17.799 -0.04 -0.01    +0.046 C 
DOCKED: ATOM     30  C   UNL d   1     -13.851   9.736  13.696 -0.37 -0.00    +0.046 C 
DOCKED: ATOM     31  H   UNL d   1      -9.954  13.648  16.160 -0.19 -0.08    +0.166 HD
DOCKED: ATOM     32  H   UNL d   1     -10.679  13.013  14.347 -0.37 -0.08    +0.166 HD
DOCKED: ENDROOT
DOCKED: BRANCH   7  33
DOCKED: ATOM     33  C   UNL d   1     -15.427  14.832  12.660 -0.08 -0.04    +0.141 C 
DOCKED: BRANCH  33  34
DOCKED: ATOM     34  C   UNL d   1     -16.003  14.942  14.046 +0.00 -0.05    +0.306 C 
DOCKED: ATOM     35  O   UNL d   1     -16.010  14.066  14.894 -0.01 +0.02    -0.251 OA
DOCKED: BRANCH  34  36
DOCKED: ATOM     36  O   UNL d   1     -16.538  16.151  14.291 +0.01 +0.08    -0.481 OA
DOCKED: ATOM     37  H   UNL d   1     -15.909  16.786  13.886 +0.03 -0.08    +0.295 HD
DOCKED: ENDBRANCH  34  36
DOCKED: ENDBRANCH  33  34
DOCKED: ENDBRANCH   7  33
DOCKED: BRANCH  27  38
DOCKED: ATOM     38  C   UNL d   1     -11.378   8.608  15.277 -0.38 -0.00    +0.017 C 
DOCKED: ATOM     39  C   UNL d   1     -10.975   8.234  16.501 -0.21 -0.01    +0.092 C 
DOCKED: BRANCH  39  40
DOCKED: ATOM     40  C   UNL d   1     -10.898   6.811  16.841 -0.15 -0.07    +0.330 C 
DOCKED: ATOM     41  O   UNL d   1     -11.820   6.033  16.995 -0.15 +0.04    -0.246 OA
DOCKED: BRANCH  40  42
DOCKED: ATOM     42  O   UNL d   1      -9.616   6.434  16.962 -0.13 +0.19    -0.477 OA
DOCKED: ATOM     43  H   UNL d   1      -9.112   7.258  16.799 +0.13 -0.13    +0.295 HD
DOCKED: ENDBRANCH  40  42
DOCKED: ENDBRANCH  39  40
DOCKED: ENDBRANCH  27  38
DOCKED: BRANCH   8  44
DOCKED: ATOM     44  C   UNL d   1     -10.554  19.403  16.650 -0.06 -0.11    +0.141 C 
DOCKED: BRANCH  44  45
DOCKED: ATOM     45  C   UNL d   1     -10.214  20.467  17.659 -0.02 -0.10    +0.306 C 
DOCKED: ATOM     46  O   UNL d   1     -10.993  21.234  18.197 -0.00 +0.06    -0.251 OA
DOCKED: BRANCH  45  47
DOCKED: ATOM     47  O   UNL d   1      -8.895  20.527  17.918 +0.00 +0.11    -0.481 OA
DOCKED: ATOM     48  H   UNL d   1      -8.705  19.711  18.427 +0.02 -0.06    +0.295 HD
DOCKED: ENDBRANCH  45  47
DOCKED: ENDBRANCH  44  45
DOCKED: ENDBRANCH   8  44
DOCKED: BRANCH  22  49
DOCKED: ATOM     49  C   UNL d   1      -6.352  10.731  16.512 -0.22 -0.01    +0.048 C 
DOCKED: BRANCH  49  50
DOCKED: ATOM     50  C   UNL d   1      -6.574   9.790  17.696 -0.16 -0.06    +0.125 C 
DOCKED: BRANCH  50  51
DOCKED: ATOM     51  C   UNL d   1      -7.506   8.672  17.326 -0.16 -0.19    +0.305 C 
DOCKED: ATOM     52  O   UNL d   1      -8.010   8.454  16.238 -0.25 +0.11    -0.251 OA
DOCKED: BRANCH  51  53
DOCKED: ATOM     53  O   UNL d   1      -7.774   7.869  18.375 -0.06 +0.40    -0.481 OA
DOCKED: ATOM     54  H   UNL d   1      -7.741   6.965  17.998 -0.07 -0.40    +0.295 HD
DOCKED: ENDBRANCH  51  53
DOCKED: ENDBRANCH  50  51
DOCKED: ENDBRANCH  49  50
DOCKED: ENDBRANCH  22  49
DOCKED: TORSDOF 13
DOCKED: TER
DOCKED: ENDMDL
________________________________________________________________________________


	BEGINNING GENETIC ALGORITHM DOCKING 74 of 100
Run: 74 Seed: 1516821263 1775066161 [ Run 74 of 100 GA/GALS ]
Beginning LAMARCKIAN GENETIC ALGORITHM (LGA), with a maximum of 25000000 energy evaluations.

Final-Value: -11.135


	FINAL GENETIC ALGORITHM DOCKED STATE
	_______________________________________________


Detailed state:  trans -18.372 1.727 9.971 quatxyzw -0.480748 -0.117616 0.594008 0.634194 center 0.153 0.018 -0.028 ntor 13 -97.8796 -150.3606 -179.9712 -2.2456 52.2373 -6.7052 144.2676 14.4637 145.9686 -10.1268 -50.0730 -66.0622 6.4347
State:	-18.372   1.727   9.971  -0.622 -0.152  0.768 101.280    -97.88 -150.36 -179.97   -2.25   52.24   -6.71  144.27   14.46  145.97  -10.13  -50.07  -66.06    6.43

DOCKED: MODEL       74
DOCKED: USER    Run = 74
DOCKED: USER    DPF = D:/Protein_go_brrr/autodock/final/AncMH_nat/heme/dock.dpf
DOCKED: USER  
DOCKED: USER    Estimated Free Energy of Binding    =   -2.86 kcal/mol  [=(1)+(2)+(3)-(4)]
DOCKED: USER    Estimated Inhibition Constant, Ki   =    7.97 mM (millimolar)  [Temperature = 298.15 K]
DOCKED: USER    
DOCKED: USER    (1) Final Intermolecular Energy     =   -6.74 kcal/mol
DOCKED: USER        vdW + Hbond + desolv Energy     =   -6.61 kcal/mol
DOCKED: USER        Electrostatic Energy            =   -0.13 kcal/mol
DOCKED: USER    (2) Final Total Internal Energy     =   -4.39 kcal/mol
DOCKED: USER    (3) Torsional Free Energy           =   +3.88 kcal/mol
DOCKED: USER    (4) Unbound System's Energy  [=(2)] =   -4.39 kcal/mol
DOCKED: USER    
DOCKED: USER    
DOCKED: USER    NEWDPF move heme_opt.pdbqt
DOCKED: USER    NEWDPF about 0.153000 0.018000 -0.028000
DOCKED: USER    NEWDPF tran0 -18.371825 1.726960 9.970531
DOCKED: USER    NEWDPF quaternion0 -0.480748 -0.117616 0.594008 0.634194
DOCKED: USER    NEWDPF axisangle0 -0.621785 -0.152122 0.768272 101.279537
DOCKED: USER    NEWDPF quat0 -0.621785 -0.152122 0.768272 101.279537
DOCKED: USER    NEWDPF dihe0 -97.88 -150.36 -179.97 -2.25 52.24 -6.71 144.27 14.46 145.97 -10.13 -50.07 -66.06 6.43 
DOCKED: USER  keepresnum = 1 
DOCKED: USER  
DOCKED: REMARK  13 active torsions:
DOCKED: REMARK  status: ('A' for Active; 'I' for Inactive)
DOCKED: REMARK    1  A    between atoms: O_3  and  C_38 
DOCKED: REMARK    2  A    between atoms: O_4  and  C_40 
DOCKED: REMARK    3  A    between atoms: O_7  and  C_46 
DOCKED: REMARK    4  A    between atoms: O_9  and  C_48 
DOCKED: REMARK    5  A    between atoms: C_15  and  C_20 
DOCKED: REMARK    6  A    between atoms: C_16  and  C_23 
DOCKED: REMARK    7  A    between atoms: C_20  and  C_38 
DOCKED: REMARK    8  A    between atoms: C_23  and  C_40 
DOCKED: REMARK    9  A    between atoms: C_32  and  C_41 
DOCKED: REMARK   10  A    between atoms: C_37  and  C_45 
DOCKED: REMARK   11  A    between atoms: C_41  and  C_44 
DOCKED: REMARK   12  A    between atoms: C_44  and  C_46 
DOCKED: REMARK   13  A    between atoms: C_47  and  C_48 
DOCKED: USER                              x       y       z     vdW  Elec       q    Type
DOCKED: USER                           _______ _______ _______ _____ _____    ______ ____
DOCKED: ROOT
DOCKED: ATOM      1  O   UNL d   1     -18.678   4.551  15.137 -0.39 -0.38    -0.289 OA
DOCKED: ATOM      2  O   UNL d   1     -22.613   5.426   8.801 -0.04 -0.09    -0.289 OA
DOCKED: ATOM      3  N   UNL d   1     -18.044   2.729  12.277 -0.16 -0.03    -0.247 NA
DOCKED: ATOM      4  N   UNL d   1     -20.248   3.532  10.453 -0.12 -0.06    -0.247 NA
DOCKED: ATOM      5  N   UNL d   1     -19.541   1.310   8.771 -0.10 -0.15    -0.354 N 
DOCKED: ATOM      6  N   UNL d   1     -17.269   0.473  10.679 -0.09 -0.05    -0.354 N 
DOCKED: ATOM      7  C   UNL d   1     -17.202   2.684  14.579 -0.17 +0.02    +0.084 A 
DOCKED: ATOM      8  C   UNL d   1     -21.249   5.733  10.810 -0.14 +0.03    +0.084 A 
DOCKED: ATOM      9  C   UNL d   1     -20.276   4.642  11.269 -0.21 +0.02    +0.058 A 
DOCKED: ATOM     10  C   UNL d   1     -17.184   2.101  13.162 -0.24 +0.01    +0.058 A 
DOCKED: ATOM     11  C   UNL d   1     -18.212   3.764  14.333 -0.06 +0.12    +0.193 A 
DOCKED: ATOM     12  C   UNL d   1     -18.626   3.705  12.895 -0.22 +0.04    +0.109 A 
DOCKED: ATOM     13  C   UNL d   1     -21.796   5.021   9.605 -0.09 +0.06    +0.193 A 
DOCKED: ATOM     14  C   UNL d   1     -17.773   1.695  15.599 -0.07 +0.01    +0.026 C 
DOCKED: ATOM     15  C   UNL d   1     -19.553   4.740  12.395 -0.26 +0.03    +0.055 C 
DOCKED: ATOM     16  C   UNL d   1     -20.512   6.993  10.346 -0.23 +0.01    +0.026 C 
DOCKED: ATOM     17  C   UNL d   1     -21.113   3.696   9.504 -0.15 +0.04    +0.109 A 
DOCKED: ATOM     18  C   UNL d   1     -16.327   1.123  12.815 -0.27 +0.00    +0.050 C 
DOCKED: ATOM     19  C   UNL d   1     -16.179   0.582  11.513 -0.29 +0.00    +0.045 A 
DOCKED: ATOM     20  C   UNL d   1     -20.722   1.684   8.184 -0.11 +0.03    +0.045 A 
DOCKED: ATOM     21  C   UNL d   1     -21.481   2.755   8.436 -0.14 +0.03    +0.057 C 
DOCKED: ATOM     22  C   UNL d   1     -20.006  -0.264   7.228 -0.10 -0.01    -0.019 A 
DOCKED: ATOM     23  C   UNL d   1     -19.033   0.146   8.261 -0.15 +0.02    +0.045 A 
DOCKED: ATOM     24  C   UNL d   1     -21.003   0.652   7.187 -0.03 -0.02    -0.022 A 
DOCKED: ATOM     25  C   UNL d   1     -16.920  -0.158   9.507 -0.24 +0.01    +0.049 A 
DOCKED: ATOM     26  C   UNL d   1     -15.087   0.041  10.852 -0.41 -0.00    -0.018 A 
DOCKED: ATOM     27  C   UNL d   1     -15.556  -0.406   9.579 -0.32 +0.00    +0.003 A 
DOCKED: ATOM     28  C   UNL d   1     -17.908  -0.525   8.554 -0.18 +0.02    +0.052 C 
DOCKED: ATOM     29  C   UNL d   1     -22.204   0.684   6.304 -0.07 +0.04    +0.046 C 
DOCKED: ATOM     30  C   UNL d   1     -13.691  -0.052  11.369 -0.21 -0.00    +0.046 C 
DOCKED: ATOM     31  H   UNL d   1     -19.082   1.904   9.453 +0.01 +0.04    +0.166 HD
DOCKED: ATOM     32  H   UNL d   1     -18.200   0.783  10.930 +0.05 +0.03    +0.166 HD
DOCKED: ENDROOT
DOCKED: BRANCH   7  33
DOCKED: ATOM     33  C   UNL d   1     -15.877   3.285  15.059 -0.13 +0.04    +0.141 C 
DOCKED: BRANCH  33  34
DOCKED: ATOM     34  C   UNL d   1     -15.860   3.538  16.542 -0.10 +0.08    +0.306 C 
DOCKED: ATOM     35  O   UNL d   1     -15.250   2.890  17.376 -0.05 -0.03    -0.251 OA
DOCKED: BRANCH  34  36
DOCKED: ATOM     36  O   UNL d   1     -16.610   4.596  16.897 -0.07 -0.27    -0.481 OA
DOCKED: ATOM     37  H   UNL d   1     -17.530   4.256  16.901 +0.04 +0.19    +0.295 HD
DOCKED: ENDBRANCH  34  36
DOCKED: ENDBRANCH  33  34
DOCKED: ENDBRANCH   7  33
DOCKED: BRANCH  27  38
DOCKED: ATOM     38  C   UNL d   1     -14.752  -1.045   8.581 -0.30 +0.00    +0.017 C 
DOCKED: ATOM     39  C   UNL d   1     -15.196  -1.936   7.682 -0.29 +0.02    +0.092 C 
DOCKED: BRANCH  39  40
DOCKED: ATOM     40  C   UNL d   1     -14.271  -2.505   6.698 -0.18 +0.08    +0.330 C 
DOCKED: ATOM     41  O   UNL d   1     -13.123  -2.168   6.476 -0.27 -0.05    -0.246 OA
DOCKED: BRANCH  40  42
DOCKED: ATOM     42  O   UNL d   1     -14.863  -3.509   6.034 -0.03 -0.16    -0.477 OA
DOCKED: ATOM     43  H   UNL d   1     -15.811  -3.265   6.037 +0.15 +0.11    +0.295 HD
DOCKED: ENDBRANCH  40  42
DOCKED: ENDBRANCH  39  40
DOCKED: ENDBRANCH  27  38
DOCKED: BRANCH   8  44
DOCKED: ATOM     44  C   UNL d   1     -22.368   6.077  11.799 -0.05 +0.05    +0.141 C 
DOCKED: BRANCH  44  45
DOCKED: ATOM     45  C   UNL d   1     -23.252   4.904  12.128 +0.00 +0.08    +0.306 C 
DOCKED: ATOM     46  O   UNL d   1     -23.194   4.208  13.126 -0.00 -0.07    -0.251 OA
DOCKED: BRANCH  45  47
DOCKED: ATOM     47  O   UNL d   1     -24.153   4.651  11.161 +0.01 -0.10    -0.481 OA
DOCKED: ATOM     48  H   UNL d   1     -23.987   5.339  10.481 +0.02 +0.06    +0.295 HD
DOCKED: ENDBRANCH  45  47
DOCKED: ENDBRANCH  44  45
DOCKED: ENDBRANCH   8  44
DOCKED: BRANCH  22  49
DOCKED: ATOM     49  C   UNL d   1     -19.881  -1.507   6.398 -0.07 +0.03    +0.048 C 
DOCKED: BRANCH  49  50
DOCKED: ATOM     50  C   UNL d   1     -18.851  -1.343   5.280 -0.08 +0.09    +0.125 C 
DOCKED: BRANCH  50  51
DOCKED: ATOM     51  C   UNL d   1     -17.893  -2.500   5.260 -0.02 +0.16    +0.305 C 
DOCKED: ATOM     52  O   UNL d   1     -17.959  -3.531   5.905 -0.12 -0.10    -0.251 OA
DOCKED: BRANCH  51  53
DOCKED: ATOM     53  O   UNL d   1     -16.865  -2.289   4.413 +0.02 -0.29    -0.481 OA
DOCKED: ATOM     54  H   UNL d   1     -16.300  -3.081   4.523 +0.11 +0.16    +0.295 HD
DOCKED: ENDBRANCH  51  53
DOCKED: ENDBRANCH  50  51
DOCKED: ENDBRANCH  49  50
DOCKED: ENDBRANCH  22  49
DOCKED: TORSDOF 13
DOCKED: TER
DOCKED: ENDMDL
________________________________________________________________________________


	BEGINNING GENETIC ALGORITHM DOCKING 75 of 100
Run: 75 Seed: 1658561136 962684207 [ Run 75 of 100 GA/GALS ]
Beginning LAMARCKIAN GENETIC ALGORITHM (LGA), with a maximum of 25000000 energy evaluations.

Final-Value: -11.044


	FINAL GENETIC ALGORITHM DOCKED STATE
	_______________________________________________


Detailed state:  trans 6.627 11.605 7.811 quatxyzw 0.513947 0.826129 0.070897 0.219870 center 0.153 0.018 -0.028 ntor 13 179.3172 134.5262 -148.2235 78.2181 -152.6785 -31.9980 -64.6635 58.6632 12.6705 117.7471 -12.2916 -15.0149 26.2416
State:	  6.627  11.605   7.811   0.527  0.847  0.073 154.597    179.32  134.53 -148.22   78.22 -152.68  -32.00  -64.66   58.66   12.67  117.75  -12.29  -15.01   26.24

DOCKED: MODEL       75
DOCKED: USER    Run = 75
DOCKED: USER    DPF = D:/Protein_go_brrr/autodock/final/AncMH_nat/heme/dock.dpf
DOCKED: USER  
DOCKED: USER    Estimated Free Energy of Binding    =   -4.05 kcal/mol  [=(1)+(2)+(3)-(4)]
DOCKED: USER    Estimated Inhibition Constant, Ki   =    1.07 mM (millimolar)  [Temperature = 298.15 K]
DOCKED: USER    
DOCKED: USER    (1) Final Intermolecular Energy     =   -7.93 kcal/mol
DOCKED: USER        vdW + Hbond + desolv Energy     =   -7.60 kcal/mol
DOCKED: USER        Electrostatic Energy            =   -0.33 kcal/mol
DOCKED: USER    (2) Final Total Internal Energy     =   -3.11 kcal/mol
DOCKED: USER    (3) Torsional Free Energy           =   +3.88 kcal/mol
DOCKED: USER    (4) Unbound System's Energy  [=(2)] =   -3.11 kcal/mol
DOCKED: USER    
DOCKED: USER    
DOCKED: USER    NEWDPF move heme_opt.pdbqt
DOCKED: USER    NEWDPF about 0.153000 0.018000 -0.028000
DOCKED: USER    NEWDPF tran0 6.627305 11.604871 7.810639
DOCKED: USER    NEWDPF quaternion0 0.513947 0.826129 0.070897 0.219870
DOCKED: USER    NEWDPF axisangle0 0.526839 0.846852 0.072675 154.597179
DOCKED: USER    NEWDPF quat0 0.526839 0.846852 0.072675 154.597179
DOCKED: USER    NEWDPF dihe0 179.32 134.53 -148.22 78.22 -152.68 -32.00 -64.66 58.66 12.67 117.75 -12.29 -15.01 26.24 
DOCKED: USER  keepresnum = 1 
DOCKED: USER  
DOCKED: REMARK  13 active torsions:
DOCKED: REMARK  status: ('A' for Active; 'I' for Inactive)
DOCKED: REMARK    1  A    between atoms: O_3  and  C_38 
DOCKED: REMARK    2  A    between atoms: O_4  and  C_40 
DOCKED: REMARK    3  A    between atoms: O_7  and  C_46 
DOCKED: REMARK    4  A    between atoms: O_9  and  C_48 
DOCKED: REMARK    5  A    between atoms: C_15  and  C_20 
DOCKED: REMARK    6  A    between atoms: C_16  and  C_23 
DOCKED: REMARK    7  A    between atoms: C_20  and  C_38 
DOCKED: REMARK    8  A    between atoms: C_23  and  C_40 
DOCKED: REMARK    9  A    between atoms: C_32  and  C_41 
DOCKED: REMARK   10  A    between atoms: C_37  and  C_45 
DOCKED: REMARK   11  A    between atoms: C_41  and  C_44 
DOCKED: REMARK   12  A    between atoms: C_44  and  C_46 
DOCKED: REMARK   13  A    between atoms: C_47  and  C_48 
DOCKED: USER                              x       y       z     vdW  Elec       q    Type
DOCKED: USER                           _______ _______ _______ _____ _____    ______ ____
DOCKED: ROOT
DOCKED: ATOM      1  O   UNL d   1      10.030   8.017   4.601 -0.09 +0.13    -0.289 OA
DOCKED: ATOM      2  O   UNL d   1       3.816   6.652   8.590 -0.24 +0.05    -0.289 OA
DOCKED: ATOM      3  N   UNL d   1       8.431  10.445   6.457 -0.08 +0.02    -0.247 NA
DOCKED: ATOM      4  N   UNL d   1       5.972   9.072   7.403 -0.36 -0.04    -0.247 NA
DOCKED: ATOM      5  N   UNL d   1       4.937  11.646   8.159 -0.06 -0.04    -0.354 N 
DOCKED: ATOM      6  N   UNL d   1       7.484  13.064   7.157 -0.05 +0.01    -0.354 N 
DOCKED: ATOM      7  C   UNL d   1      10.312  10.429   4.885 -0.19 -0.01    +0.084 A 
DOCKED: ATOM      8  C   UNL d   1       6.059   6.638   7.610 -0.22 -0.03    +0.084 A 
DOCKED: ATOM      9  C   UNL d   1       6.731   7.946   7.176 -0.20 -0.01    +0.058 A 
DOCKED: ATOM     10  C   UNL d   1       9.387  11.217   5.817 -0.16 -0.01    +0.058 A 
DOCKED: ATOM     11  C   UNL d   1       9.722   9.072   5.125 -0.20 -0.05    +0.193 A 
DOCKED: ATOM     12  C   UNL d   1       8.607   9.210   6.116 -0.18 -0.02    +0.109 A 
DOCKED: ATOM     13  C   UNL d   1       4.763   7.228   8.091 -0.24 -0.03    +0.193 A 
DOCKED: ATOM     14  C   UNL d   1      10.104  10.806   3.416 -0.38 -0.00    +0.026 C 
DOCKED: ATOM     15  C   UNL d   1       7.933   7.981   6.580 -0.25 -0.01    +0.055 C 
DOCKED: ATOM     16  C   UNL d   1       6.780   5.997   8.800 -0.21 -0.02    +0.026 C 
DOCKED: ATOM     17  C   UNL d   1       4.835   8.709   7.904 -0.26 +0.01    +0.109 A 
DOCKED: ATOM     18  C   UNL d   1       9.571  12.531   6.044 -0.14 -0.00    +0.050 C 
DOCKED: ATOM     19  C   UNL d   1       8.821  13.322   6.951 -0.09 -0.00    +0.045 A 
DOCKED: ATOM     20  C   UNL d   1       3.811  10.882   8.323 -0.33 +0.00    +0.045 A 
DOCKED: ATOM     21  C   UNL d   1       3.682   9.553   8.251 -0.41 +0.00    +0.057 C 
DOCKED: ATOM     22  C   UNL d   1       3.257  13.081   8.597 -0.21 +0.00    -0.019 A 
DOCKED: ATOM     23  C   UNL d   1       4.702  12.987   8.305 -0.16 -0.00    +0.045 A 
DOCKED: ATOM     24  C   UNL d   1       2.736  11.831   8.607 -0.40 +0.00    -0.022 A 
DOCKED: ATOM     25  C   UNL d   1       6.935  14.002   8.000 -0.07 +0.00    +0.049 A 
DOCKED: ATOM     26  C   UNL d   1       9.157  14.433   7.708 -0.04 -0.00    -0.018 A 
DOCKED: ATOM     27  C   UNL d   1       7.968  14.846   8.384 -0.03 +0.00    +0.003 A 
DOCKED: ATOM     28  C   UNL d   1       5.534  14.037   8.238 -0.11 +0.00    +0.052 C 
DOCKED: ATOM     29  C   UNL d   1       1.330  11.409   8.866 -0.33 -0.04    +0.046 C 
DOCKED: ATOM     30  C   UNL d   1      10.501  15.072   7.803 -0.02 +0.00    +0.046 C 
DOCKED: ATOM     31  H   UNL d   1       5.847  11.219   8.024 +0.05 +0.05    +0.166 HD
DOCKED: ATOM     32  H   UNL d   1       6.984  12.307   6.706 -0.29 -0.02    +0.166 HD
DOCKED: ENDROOT
DOCKED: BRANCH   7  33
DOCKED: ATOM     33  C   UNL d   1      11.796  10.445   5.265 -0.08 -0.03    +0.141 C 
DOCKED: BRANCH  33  34
DOCKED: ATOM     34  C   UNL d   1      12.052   9.858   6.626 -0.01 -0.07    +0.306 C 
DOCKED: ATOM     35  O   UNL d   1      12.205  10.482   7.663 -0.00 +0.04    -0.251 OA
DOCKED: BRANCH  34  36
DOCKED: ATOM     36  O   UNL d   1      12.099   8.514   6.611 -0.01 +0.20    -0.481 OA
DOCKED: ATOM     37  H   UNL d   1      11.895   8.270   5.683 +0.07 -0.18    +0.295 HD
DOCKED: ENDBRANCH  34  36
DOCKED: ENDBRANCH  33  34
DOCKED: ENDBRANCH   7  33
DOCKED: BRANCH  27  38
DOCKED: ATOM     38  C   UNL d   1       7.867  15.972   9.263 -0.01 +0.00    +0.017 C 
DOCKED: ATOM     39  C   UNL d   1       6.921  16.140  10.200 +0.00 +0.01    +0.092 C 
DOCKED: BRANCH  39  40
DOCKED: ATOM     40  C   UNL d   1       6.940  17.333  11.051 +0.00 +0.03    +0.330 C 
DOCKED: ATOM     41  O   UNL d   1       7.912  17.937  11.463 +0.00 -0.02    -0.246 OA
DOCKED: BRANCH  40  42
DOCKED: ATOM     42  O   UNL d   1       5.686  17.717  11.336 +0.00 -0.05    -0.477 OA
DOCKED: ATOM     43  H   UNL d   1       5.225  17.671  10.473 +0.01 +0.04    +0.295 HD
DOCKED: ENDBRANCH  40  42
DOCKED: ENDBRANCH  39  40
DOCKED: ENDBRANCH  27  38
DOCKED: BRANCH   8  44
DOCKED: ATOM     44  C   UNL d   1       5.817   5.618   6.493 -0.40 -0.06    +0.141 C 
DOCKED: BRANCH  44  45
DOCKED: ATOM     45  C   UNL d   1       7.087   5.028   5.942 -0.26 -0.17    +0.306 C 
DOCKED: ATOM     46  O   UNL d   1       7.574   5.246   4.846 -0.33 +0.09    -0.251 OA
DOCKED: BRANCH  45  47
DOCKED: ATOM     47  O   UNL d   1       7.667   4.165   6.796 -0.09 +0.49    -0.481 OA
DOCKED: ATOM     48  H   UNL d   1       6.921   3.770   7.294 -0.31 -0.53    +0.295 HD
DOCKED: ENDBRANCH  45  47
DOCKED: ENDBRANCH  44  45
DOCKED: ENDBRANCH   8  44
DOCKED: BRANCH  22  49
DOCKED: ATOM     49  C   UNL d   1       2.525  14.371   8.821 -0.14 -0.01    +0.048 C 
DOCKED: BRANCH  49  50
DOCKED: ATOM     50  C   UNL d   1       3.132  15.177   9.969 -0.06 +0.00    +0.125 C 
DOCKED: BRANCH  50  51
DOCKED: ATOM     51  C   UNL d   1       2.574  16.572  10.000 -0.01 +0.04    +0.305 C 
DOCKED: ATOM     52  O   UNL d   1       1.401  16.903  10.009 -0.05 -0.06    -0.251 OA
DOCKED: BRANCH  51  53
DOCKED: ATOM     53  O   UNL d   1       3.547  17.505  10.005 +0.02 -0.09    -0.481 OA
DOCKED: ATOM     54  H   UNL d   1       3.590  17.798  10.939 +0.02 +0.05    +0.295 HD
DOCKED: ENDBRANCH  51  53
DOCKED: ENDBRANCH  50  51
DOCKED: ENDBRANCH  49  50
DOCKED: ENDBRANCH  22  49
DOCKED: TORSDOF 13
DOCKED: TER
DOCKED: ENDMDL
________________________________________________________________________________


	BEGINNING GENETIC ALGORITHM DOCKING 76 of 100
Run: 76 Seed: 329418116 865528403 [ Run 76 of 100 GA/GALS ]
Beginning LAMARCKIAN GENETIC ALGORITHM (LGA), with a maximum of 25000000 energy evaluations.

Final-Value: -9.853


	FINAL GENETIC ALGORITHM DOCKED STATE
	_______________________________________________


Detailed state:  trans 11.750 -12.540 -0.341 quatxyzw -0.081435 -0.608247 -0.676365 -0.407350 center 0.153 0.018 -0.028 ntor 13 -103.9338 -41.6948 -91.8018 48.8445 35.2434 -150.7648 142.5991 -144.5428 130.5438 -68.6761 95.5978 -102.2599 -164.0852
State:	 11.750 -12.540  -0.341  -0.089 -0.666 -0.741 -131.923   -103.93  -41.69  -91.80   48.84   35.24 -150.76  142.60 -144.54  130.54  -68.68   95.60 -102.26 -164.09

DOCKED: MODEL       76
DOCKED: USER    Run = 76
DOCKED: USER    DPF = D:/Protein_go_brrr/autodock/final/AncMH_nat/heme/dock.dpf
DOCKED: USER  
DOCKED: USER    Estimated Free Energy of Binding    =   -3.74 kcal/mol  [=(1)+(2)+(3)-(4)]
DOCKED: USER    Estimated Inhibition Constant, Ki   =    1.82 mM (millimolar)  [Temperature = 298.15 K]
DOCKED: USER    
DOCKED: USER    (1) Final Intermolecular Energy     =   -7.62 kcal/mol
DOCKED: USER        vdW + Hbond + desolv Energy     =   -7.40 kcal/mol
DOCKED: USER        Electrostatic Energy            =   -0.22 kcal/mol
DOCKED: USER    (2) Final Total Internal Energy     =   -2.24 kcal/mol
DOCKED: USER    (3) Torsional Free Energy           =   +3.88 kcal/mol
DOCKED: USER    (4) Unbound System's Energy  [=(2)] =   -2.24 kcal/mol
DOCKED: USER    
DOCKED: USER    
DOCKED: USER    NEWDPF move heme_opt.pdbqt
DOCKED: USER    NEWDPF about 0.153000 0.018000 -0.028000
DOCKED: USER    NEWDPF tran0 11.749769 -12.540180 -0.340527
DOCKED: USER    NEWDPF quaternion0 -0.081435 -0.608247 -0.676365 -0.407350
DOCKED: USER    NEWDPF axisangle0 -0.089168 -0.666009 -0.740595 -131.923009
DOCKED: USER    NEWDPF quat0 -0.089168 -0.666009 -0.740595 -131.923009
DOCKED: USER    NEWDPF dihe0 -103.93 -41.69 -91.80 48.84 35.24 -150.76 142.60 -144.54 130.54 -68.68 95.60 -102.26 -164.09 
DOCKED: USER  keepresnum = 1 
DOCKED: USER  
DOCKED: REMARK  13 active torsions:
DOCKED: REMARK  status: ('A' for Active; 'I' for Inactive)
DOCKED: REMARK    1  A    between atoms: O_3  and  C_38 
DOCKED: REMARK    2  A    between atoms: O_4  and  C_40 
DOCKED: REMARK    3  A    between atoms: O_7  and  C_46 
DOCKED: REMARK    4  A    between atoms: O_9  and  C_48 
DOCKED: REMARK    5  A    between atoms: C_15  and  C_20 
DOCKED: REMARK    6  A    between atoms: C_16  and  C_23 
DOCKED: REMARK    7  A    between atoms: C_20  and  C_38 
DOCKED: REMARK    8  A    between atoms: C_23  and  C_40 
DOCKED: REMARK    9  A    between atoms: C_32  and  C_41 
DOCKED: REMARK   10  A    between atoms: C_37  and  C_45 
DOCKED: REMARK   11  A    between atoms: C_41  and  C_44 
DOCKED: REMARK   12  A    between atoms: C_44  and  C_46 
DOCKED: REMARK   13  A    between atoms: C_47  and  C_48 
DOCKED: USER                              x       y       z     vdW  Elec       q    Type
DOCKED: USER                           _______ _______ _______ _____ _____    ______ ____
DOCKED: ROOT
DOCKED: ATOM      1  O   UNL d   1      16.273  -9.307  -2.302 -0.04 +0.00    -0.289 OA
DOCKED: ATOM      2  O   UNL d   1      10.948 -13.091  -6.005 -0.06 +0.07    -0.289 OA
DOCKED: ATOM      3  N   UNL d   1      13.870 -11.197  -0.704 -0.13 +0.08    -0.247 NA
DOCKED: ATOM      4  N   UNL d   1      12.077 -12.037  -2.920 -0.08 +0.11    -0.247 NA
DOCKED: ATOM      5  N   UNL d   1      10.159 -12.846  -0.937 +0.07 +0.14    -0.354 N 
DOCKED: ATOM      6  N   UNL d   1      12.018 -11.955   1.355 -0.10 +0.11    -0.354 N 
DOCKED: ATOM      7  C   UNL d   1      15.644  -9.674   0.032 -0.13 -0.01    +0.084 A 
DOCKED: ATOM      8  C   UNL d   1      13.051 -12.169  -5.157 -0.13 -0.02    +0.084 A 
DOCKED: ATOM      9  C   UNL d   1      13.200 -11.794  -3.679 -0.22 -0.02    +0.058 A 
DOCKED: ATOM     10  C   UNL d   1      14.483 -10.607   0.389 -0.19 -0.01    +0.058 A 
DOCKED: ATOM     11  C   UNL d   1      15.591  -9.856  -1.455 -0.07 -0.02    +0.193 A 
DOCKED: ATOM     12  C   UNL d   1      14.492 -10.822  -1.774 -0.18 -0.02    +0.109 A 
DOCKED: ATOM     13  C   UNL d   1      11.623 -12.635  -5.103 -0.11 -0.06    +0.193 A 
DOCKED: ATOM     14  C   UNL d   1      15.329  -8.213   0.363 -0.25 -0.01    +0.026 C 
DOCKED: ATOM     15  C   UNL d   1      14.311 -11.229  -3.182 -0.22 -0.01    +0.055 C 
DOCKED: ATOM     16  C   UNL d   1      13.942 -13.356  -5.534 -0.04 -0.00    +0.026 C 
DOCKED: ATOM     17  C   UNL d   1      11.147 -12.497  -3.694 -0.19 -0.04    +0.109 A 
DOCKED: ATOM     18  C   UNL d   1      14.168 -10.879   1.669 -0.18 -0.01    +0.050 C 
DOCKED: ATOM     19  C   UNL d   1      13.168 -11.791   2.093 -0.16 -0.01    +0.045 A 
DOCKED: ATOM     20  C   UNL d   1       9.391 -12.958  -2.066 -0.22 -0.01    +0.045 A 
DOCKED: ATOM     21  C   UNL d   1       9.761 -12.840  -3.346 -0.25 -0.01    +0.057 C 
DOCKED: ATOM     22  C   UNL d   1       8.064 -13.286  -0.236 -0.24 +0.00    -0.019 A 
DOCKED: ATOM     23  C   UNL d   1       9.445 -13.028   0.218 -0.23 -0.01    +0.045 A 
DOCKED: ATOM     24  C   UNL d   1       8.039 -13.244  -1.590 -0.26 -0.00    -0.022 A 
DOCKED: ATOM     25  C   UNL d   1      11.152 -12.813   1.993 -0.18 -0.02    +0.049 A 
DOCKED: ATOM     26  C   UNL d   1      13.063 -12.592   3.221 -0.10 +0.00    -0.018 A 
DOCKED: ATOM     27  C   UNL d   1      11.797 -13.249   3.142 -0.12 -0.00    +0.003 A 
DOCKED: ATOM     28  C   UNL d   1       9.834 -13.016   1.502 -0.22 -0.02    +0.052 C 
DOCKED: ATOM     29  C   UNL d   1       6.883 -13.453  -2.508 -0.11 +0.01    +0.046 C 
DOCKED: ATOM     30  C   UNL d   1      14.077 -12.740   4.304 -0.04 -0.01    +0.046 C 
DOCKED: ATOM     31  H   UNL d   1      11.164 -12.722  -0.994 -0.32 -0.09    +0.166 HD
DOCKED: ATOM     32  H   UNL d   1      11.836 -11.468   0.485 -0.46 -0.08    +0.166 HD
DOCKED: ENDROOT
DOCKED: BRANCH   7  33
DOCKED: ATOM     33  C   UNL d   1      17.014 -10.092   0.577 -0.03 -0.02    +0.141 C 
DOCKED: BRANCH  33  34
DOCKED: ATOM     34  C   UNL d   1      18.115  -9.157   0.155 -0.01 -0.04    +0.306 C 
DOCKED: ATOM     35  O   UNL d   1      18.481  -8.159   0.753 -0.01 +0.03    -0.251 OA
DOCKED: BRANCH  34  36
DOCKED: ATOM     36  O   UNL d   1      18.698  -9.530  -0.998 +0.01 +0.05    -0.481 OA
DOCKED: ATOM     37  H   UNL d   1      18.038  -9.313  -1.690 +0.04 -0.03    +0.295 HD
DOCKED: ENDBRANCH  34  36
DOCKED: ENDBRANCH  33  34
DOCKED: ENDBRANCH   7  33
DOCKED: BRANCH  27  38
DOCKED: ATOM     38  C   UNL d   1      11.278 -14.161   4.117 -0.06 -0.00    +0.017 C 
DOCKED: ATOM     39  C   UNL d   1      10.197 -13.944   4.882 -0.07 -0.03    +0.092 C 
DOCKED: BRANCH  39  40
DOCKED: ATOM     40  C   UNL d   1       9.759 -14.969   5.833 +0.01 -0.06    +0.330 C 
DOCKED: ATOM     41  O   UNL d   1       8.633 -15.165   6.248 -0.00 +0.03    -0.246 OA
DOCKED: BRANCH  40  42
DOCKED: ATOM     42  O   UNL d   1      10.802 -15.723   6.213 +0.01 +0.07    -0.477 OA
DOCKED: ATOM     43  H   UNL d   1      10.669 -15.839   7.176 +0.01 -0.04    +0.295 HD
DOCKED: ENDBRANCH  40  42
DOCKED: ENDBRANCH  39  40
DOCKED: ENDBRANCH  27  38
DOCKED: BRANCH   8  44
DOCKED: ATOM     44  C   UNL d   1      13.214 -11.015  -6.151 -0.22 -0.04    +0.141 C 
DOCKED: BRANCH  44  45
DOCKED: ATOM     45  C   UNL d   1      11.978 -10.757  -6.971 -0.17 -0.13    +0.306 C 
DOCKED: ATOM     46  O   UNL d   1      11.134  -9.903  -6.765 -0.26 +0.13    -0.251 OA
DOCKED: BRANCH  45  47
DOCKED: ATOM     47  O   UNL d   1      11.856 -11.614  -8.001 -0.00 +0.15    -0.481 OA
DOCKED: ATOM     48  H   UNL d   1      11.381 -12.386  -7.626 +0.06 -0.08    +0.295 HD
DOCKED: ENDBRANCH  45  47
DOCKED: ENDBRANCH  44  45
DOCKED: ENDBRANCH   8  44
DOCKED: BRANCH  22  49
DOCKED: ATOM     49  C   UNL d   1       6.906 -13.532   0.686 -0.18 -0.00    +0.048 C 
DOCKED: BRANCH  49  50
DOCKED: ATOM     50  C   UNL d   1       5.889 -12.392   0.638 -0.22 +0.02    +0.125 C 
DOCKED: BRANCH  50  51
DOCKED: ATOM     51  C   UNL d   1       6.301 -11.267   1.544 -0.25 -0.07    +0.305 C 
DOCKED: ATOM     52  O   UNL d   1       5.578 -10.477   2.124 -0.37 +0.04    -0.251 OA
DOCKED: BRANCH  51  53
DOCKED: ATOM     53  O   UNL d   1       7.641 -11.183   1.666 -0.08 +0.33    -0.481 OA
DOCKED: ATOM     54  H   UNL d   1       7.788 -11.115   2.633 -0.43 -0.57    +0.295 HD
DOCKED: ENDBRANCH  51  53
DOCKED: ENDBRANCH  50  51
DOCKED: ENDBRANCH  49  50
DOCKED: ENDBRANCH  22  49
DOCKED: TORSDOF 13
DOCKED: TER
DOCKED: ENDMDL
________________________________________________________________________________


	BEGINNING GENETIC ALGORITHM DOCKING 77 of 100
Run: 77 Seed: 1018160029 1424408328 [ Run 77 of 100 GA/GALS ]
Beginning LAMARCKIAN GENETIC ALGORITHM (LGA), with a maximum of 25000000 energy evaluations.

Final-Value: -11.532


	FINAL GENETIC ALGORITHM DOCKED STATE
	_______________________________________________


Detailed state:  trans 8.905 -12.237 -5.908 quatxyzw 0.288390 -0.368173 -0.870631 0.152582 center 0.153 0.018 -0.028 ntor 13 -102.8062 -106.6833 117.7106 119.0076 35.4468 174.4425 -51.7172 178.2555 131.8096 -137.4468 39.3410 -4.1033 11.9294
State:	  8.905 -12.237  -5.908   0.292 -0.373 -0.881 162.447   -102.81 -106.68  117.71  119.01   35.45  174.44  -51.72  178.26  131.81 -137.45   39.34   -4.10   11.93

DOCKED: MODEL       77
DOCKED: USER    Run = 77
DOCKED: USER    DPF = D:/Protein_go_brrr/autodock/final/AncMH_nat/heme/dock.dpf
DOCKED: USER  
DOCKED: USER    Estimated Free Energy of Binding    =   -5.34 kcal/mol  [=(1)+(2)+(3)-(4)]
DOCKED: USER    Estimated Inhibition Constant, Ki   =  121.63 uM (micromolar)  [Temperature = 298.15 K]
DOCKED: USER    
DOCKED: USER    (1) Final Intermolecular Energy     =   -9.22 kcal/mol
DOCKED: USER        vdW + Hbond + desolv Energy     =   -8.93 kcal/mol
DOCKED: USER        Electrostatic Energy            =   -0.29 kcal/mol
DOCKED: USER    (2) Final Total Internal Energy     =   -2.31 kcal/mol
DOCKED: USER    (3) Torsional Free Energy           =   +3.88 kcal/mol
DOCKED: USER    (4) Unbound System's Energy  [=(2)] =   -2.31 kcal/mol
DOCKED: USER    
DOCKED: USER    
DOCKED: USER    NEWDPF move heme_opt.pdbqt
DOCKED: USER    NEWDPF about 0.153000 0.018000 -0.028000
DOCKED: USER    NEWDPF tran0 8.905060 -12.236512 -5.907981
DOCKED: USER    NEWDPF quaternion0 0.288390 -0.368173 -0.870631 0.152582
DOCKED: USER    NEWDPF axisangle0 0.291807 -0.372535 -0.880946 162.446872
DOCKED: USER    NEWDPF quat0 0.291807 -0.372535 -0.880946 162.446872
DOCKED: USER    NEWDPF dihe0 -102.81 -106.68 117.71 119.01 35.45 174.44 -51.72 178.26 131.81 -137.45 39.34 -4.10 11.93 
DOCKED: USER  keepresnum = 1 
DOCKED: USER  
DOCKED: REMARK  13 active torsions:
DOCKED: REMARK  status: ('A' for Active; 'I' for Inactive)
DOCKED: REMARK    1  A    between atoms: O_3  and  C_38 
DOCKED: REMARK    2  A    between atoms: O_4  and  C_40 
DOCKED: REMARK    3  A    between atoms: O_7  and  C_46 
DOCKED: REMARK    4  A    between atoms: O_9  and  C_48 
DOCKED: REMARK    5  A    between atoms: C_15  and  C_20 
DOCKED: REMARK    6  A    between atoms: C_16  and  C_23 
DOCKED: REMARK    7  A    between atoms: C_20  and  C_38 
DOCKED: REMARK    8  A    between atoms: C_23  and  C_40 
DOCKED: REMARK    9  A    between atoms: C_32  and  C_41 
DOCKED: REMARK   10  A    between atoms: C_37  and  C_45 
DOCKED: REMARK   11  A    between atoms: C_41  and  C_44 
DOCKED: REMARK   12  A    between atoms: C_44  and  C_46 
DOCKED: REMARK   13  A    between atoms: C_47  and  C_48 
DOCKED: USER                              x       y       z     vdW  Elec       q    Type
DOCKED: USER                           _______ _______ _______ _____ _____    ______ ____
DOCKED: ROOT
DOCKED: ATOM      1  O   UNL d   1      12.261 -13.216  -1.161 -0.09 +0.09    -0.289 OA
DOCKED: ATOM      2  O   UNL d   1      13.928 -10.223  -7.844 -0.13 +0.12    -0.289 OA
DOCKED: ATOM      3  N   UNL d   1       9.964 -12.964  -3.721 -0.16 +0.06    -0.247 NA
DOCKED: ATOM      4  N   UNL d   1      11.419 -11.412  -5.795 +0.03 +0.12    -0.247 NA
DOCKED: ATOM      5  N   UNL d   1       8.905 -11.023  -7.136 -0.08 +0.13    -0.354 N 
DOCKED: ATOM      6  N   UNL d   1       7.401 -12.619  -4.969 -0.13 -0.00    -0.354 N 
DOCKED: ATOM      7  C   UNL d   1       9.867 -13.658  -1.372 -0.17 -0.02    +0.084 A 
DOCKED: ATOM      8  C   UNL d   1      13.859 -11.547  -5.786 -0.14 -0.02    +0.084 A 
DOCKED: ATOM      9  C   UNL d   1      12.521 -11.894  -5.125 -0.20 -0.02    +0.058 A 
DOCKED: ATOM     10  C   UNL d   1       9.145 -13.422  -2.702 -0.22 -0.01    +0.058 A 
DOCKED: ATOM     11  C   UNL d   1      11.243 -13.272  -1.825 -0.06 -0.07    +0.193 A 
DOCKED: ATOM     12  C   UNL d   1      11.175 -12.896  -3.273 -0.18 -0.04    +0.109 A 
DOCKED: ATOM     13  C   UNL d   1      13.314 -10.747  -6.936 -0.15 -0.07    +0.193 A 
DOCKED: ATOM     14  C   UNL d   1       9.409 -12.680  -0.288 -0.13 -0.01    +0.026 C 
DOCKED: ATOM     15  C   UNL d   1      12.437 -12.565  -3.965 -0.20 -0.02    +0.055 C 
DOCKED: ATOM     16  C   UNL d   1      14.558 -12.792  -6.340 -0.04 -0.00    +0.026 C 
DOCKED: ATOM     17  C   UNL d   1      11.824 -10.735  -6.821 -0.22 -0.05    +0.109 A 
DOCKED: ATOM     18  C   UNL d   1       7.843 -13.728  -2.860 -0.22 +0.00    +0.050 C 
DOCKED: ATOM     19  C   UNL d   1       7.115 -13.623  -4.072 -0.18 +0.00    +0.045 A 
DOCKED: ATOM     20  C   UNL d   1       9.691 -10.161  -7.855 -0.27 -0.02    +0.045 A 
DOCKED: ATOM     21  C   UNL d   1      11.015  -9.985  -7.794 -0.35 -0.03    +0.057 C 
DOCKED: ATOM     22  C   UNL d   1       7.518  -9.898  -8.508 -0.18 +0.00    -0.019 A 
DOCKED: ATOM     23  C   UNL d   1       7.578 -10.937  -7.460 -0.24 -0.01    +0.045 A 
DOCKED: ATOM     24  C   UNL d   1       8.773  -9.443  -8.738 -0.24 +0.01    -0.022 A 
DOCKED: ATOM     25  C   UNL d   1       6.519 -12.648  -6.025 -0.19 +0.00    +0.049 A 
DOCKED: ATOM     26  C   UNL d   1       6.044 -14.346  -4.575 -0.14 +0.00    -0.018 A 
DOCKED: ATOM     27  C   UNL d   1       5.685 -13.738  -5.818 -0.16 -0.00    +0.003 A 
DOCKED: ATOM     28  C   UNL d   1       6.515 -11.615  -7.001 -0.27 -0.00    +0.052 C 
DOCKED: ATOM     29  C   UNL d   1       9.226  -8.407  -9.709 -0.34 -0.02    +0.046 C 
DOCKED: ATOM     30  C   UNL d   1       5.395 -15.530  -3.943 -0.12 -0.01    +0.046 C 
DOCKED: ATOM     31  H   UNL d   1       9.312 -11.698  -6.497 -0.24 -0.07    +0.166 HD
DOCKED: ATOM     32  H   UNL d   1       8.137 -11.936  -4.831 -0.30 -0.03    +0.166 HD
DOCKED: ENDROOT
DOCKED: BRANCH   7  33
DOCKED: ATOM     33  C   UNL d   1       9.854 -15.105  -0.866 -0.05 -0.02    +0.141 C 
DOCKED: BRANCH  33  34
DOCKED: ATOM     34  C   UNL d   1      10.590 -15.270   0.436 -0.02 -0.04    +0.306 C 
DOCKED: ATOM     35  O   UNL d   1      10.112 -15.162   1.552 -0.02 +0.04    -0.251 OA
DOCKED: BRANCH  34  36
DOCKED: ATOM     36  O   UNL d   1      11.891 -15.563   0.262 +0.01 +0.07    -0.481 OA
DOCKED: ATOM     37  H   UNL d   1      12.299 -14.717  -0.020 +0.04 -0.05    +0.295 HD
DOCKED: ENDBRANCH  34  36
DOCKED: ENDBRANCH  33  34
DOCKED: ENDBRANCH   7  33
DOCKED: BRANCH  27  38
DOCKED: ATOM     38  C   UNL d   1       4.613 -14.165  -6.665 -0.19 -0.01    +0.017 C 
DOCKED: ATOM     39  C   UNL d   1       4.605 -14.084  -8.005 -0.13 -0.03    +0.092 C 
DOCKED: BRANCH  39  40
DOCKED: ATOM     40  C   UNL d   1       3.448 -14.574  -8.759 -0.05 -0.13    +0.330 C 
DOCKED: ATOM     41  O   UNL d   1       3.234 -14.458  -9.951 -0.23 +0.05    -0.246 OA
DOCKED: BRANCH  40  42
DOCKED: ATOM     42  O   UNL d   1       2.600 -15.215  -7.940 -0.09 +0.40    -0.477 OA
DOCKED: ATOM     43  H   UNL d   1       2.183 -14.494  -7.424 -0.40 -0.46    +0.295 HD
DOCKED: ENDBRANCH  40  42
DOCKED: ENDBRANCH  39  40
DOCKED: ENDBRANCH  27  38
DOCKED: BRANCH   8  44
DOCKED: ATOM     44  C   UNL d   1      14.817 -10.705  -4.937 -0.19 -0.01    +0.141 C 
DOCKED: BRANCH  44  45
DOCKED: ATOM     45  C   UNL d   1      16.175 -10.538  -5.564 -0.07 -0.01    +0.306 C 
DOCKED: ATOM     46  O   UNL d   1      17.168 -11.207  -5.337 -0.06 +0.02    -0.251 OA
DOCKED: BRANCH  45  47
DOCKED: ATOM     47  O   UNL d   1      16.219  -9.509  -6.431 -0.50 -0.04    -0.481 OA
DOCKED: ATOM     48  H   UNL d   1      15.588  -9.756  -7.140 +0.08 -0.05    +0.295 HD
DOCKED: ENDBRANCH  45  47
DOCKED: ENDBRANCH  44  45
DOCKED: ENDBRANCH   8  44
DOCKED: BRANCH  22  49
DOCKED: ATOM     49  C   UNL d   1       6.252  -9.440  -9.170 -0.29 -0.00    +0.048 C 
DOCKED: BRANCH  49  50
DOCKED: ATOM     50  C   UNL d   1       5.689 -10.500 -10.116 -0.22 -0.01    +0.125 C 
DOCKED: BRANCH  50  51
DOCKED: ATOM     51  C   UNL d   1       5.158  -9.871 -11.373 -0.16 -0.02    +0.305 C 
DOCKED: ATOM     52  O   UNL d   1       4.768 -10.435 -12.379 -0.12 +0.02    -0.251 OA
DOCKED: BRANCH  51  53
DOCKED: ATOM     53  O   UNL d   1       5.156  -8.525 -11.300 -0.13 +0.05    -0.481 OA
DOCKED: ATOM     54  H   UNL d   1       4.556  -8.328 -10.550 -0.39 -0.10    +0.295 HD
DOCKED: ENDBRANCH  51  53
DOCKED: ENDBRANCH  50  51
DOCKED: ENDBRANCH  49  50
DOCKED: ENDBRANCH  22  49
DOCKED: TORSDOF 13
DOCKED: TER
DOCKED: ENDMDL
________________________________________________________________________________


	BEGINNING GENETIC ALGORITHM DOCKING 78 of 100
Run: 78 Seed: 2105166735 280065197 [ Run 78 of 100 GA/GALS ]
Beginning LAMARCKIAN GENETIC ALGORITHM (LGA), with a maximum of 25000000 energy evaluations.

Final-Value: -10.916


	FINAL GENETIC ALGORITHM DOCKED STATE
	_______________________________________________


Detailed state:  trans 3.950 -14.702 -0.738 quatxyzw -0.394585 -0.297226 0.191929 0.848011 center 0.153 0.018 -0.028 ntor 13 179.9983 -121.2443 -95.2987 -154.5842 44.5479 14.7912 129.5144 -69.4692 129.1972 -47.2823 -157.6635 -30.2559 -5.8652
State:	  3.950 -14.702  -0.738  -0.745 -0.561  0.362 64.008    180.00 -121.24  -95.30 -154.58   44.55   14.79  129.51  -69.47  129.20  -47.28 -157.66  -30.26   -5.87

DOCKED: MODEL       78
DOCKED: USER    Run = 78
DOCKED: USER    DPF = D:/Protein_go_brrr/autodock/final/AncMH_nat/heme/dock.dpf
DOCKED: USER  
DOCKED: USER    Estimated Free Energy of Binding    =   -3.34 kcal/mol  [=(1)+(2)+(3)-(4)]
DOCKED: USER    Estimated Inhibition Constant, Ki   =    3.56 mM (millimolar)  [Temperature = 298.15 K]
DOCKED: USER    
DOCKED: USER    (1) Final Intermolecular Energy     =   -7.22 kcal/mol
DOCKED: USER        vdW + Hbond + desolv Energy     =   -7.28 kcal/mol
DOCKED: USER        Electrostatic Energy            =   +0.07 kcal/mol
DOCKED: USER    (2) Final Total Internal Energy     =   -3.70 kcal/mol
DOCKED: USER    (3) Torsional Free Energy           =   +3.88 kcal/mol
DOCKED: USER    (4) Unbound System's Energy  [=(2)] =   -3.70 kcal/mol
DOCKED: USER    
DOCKED: USER    
DOCKED: USER    NEWDPF move heme_opt.pdbqt
DOCKED: USER    NEWDPF about 0.153000 0.018000 -0.028000
DOCKED: USER    NEWDPF tran0 3.950310 -14.701680 -0.738224
DOCKED: USER    NEWDPF quaternion0 -0.394585 -0.297226 0.191929 0.848011
DOCKED: USER    NEWDPF axisangle0 -0.744530 -0.560826 0.362145 64.008001
DOCKED: USER    NEWDPF quat0 -0.744530 -0.560826 0.362145 64.008001
DOCKED: USER    NEWDPF dihe0 180.00 -121.24 -95.30 -154.58 44.55 14.79 129.51 -69.47 129.20 -47.28 -157.66 -30.26 -5.87 
DOCKED: USER  keepresnum = 1 
DOCKED: USER  
DOCKED: REMARK  13 active torsions:
DOCKED: REMARK  status: ('A' for Active; 'I' for Inactive)
DOCKED: REMARK    1  A    between atoms: O_3  and  C_38 
DOCKED: REMARK    2  A    between atoms: O_4  and  C_40 
DOCKED: REMARK    3  A    between atoms: O_7  and  C_46 
DOCKED: REMARK    4  A    between atoms: O_9  and  C_48 
DOCKED: REMARK    5  A    between atoms: C_15  and  C_20 
DOCKED: REMARK    6  A    between atoms: C_16  and  C_23 
DOCKED: REMARK    7  A    between atoms: C_20  and  C_38 
DOCKED: REMARK    8  A    between atoms: C_23  and  C_40 
DOCKED: REMARK    9  A    between atoms: C_32  and  C_41 
DOCKED: REMARK   10  A    between atoms: C_37  and  C_45 
DOCKED: REMARK   11  A    between atoms: C_41  and  C_44 
DOCKED: REMARK   12  A    between atoms: C_44  and  C_46 
DOCKED: REMARK   13  A    between atoms: C_47  and  C_48 
DOCKED: USER                              x       y       z     vdW  Elec       q    Type
DOCKED: USER                           _______ _______ _______ _____ _____    ______ ____
DOCKED: ROOT
DOCKED: ATOM      1  O   UNL d   1       0.919 -13.660   4.210 -0.17 -0.21    -0.289 OA
DOCKED: ATOM      2  O   UNL d   1      -1.312 -16.203  -2.495 -0.12 +0.01    -0.289 OA
DOCKED: ATOM      3  N   UNL d   1       3.062 -13.987   1.528 -0.11 -0.10    -0.247 NA
DOCKED: ATOM      4  N   UNL d   1       1.384 -15.319  -0.531 -0.15 -0.03    -0.247 NA
DOCKED: ATOM      5  N   UNL d   1       3.789 -15.855  -2.012 -0.06 +0.05    -0.354 N 
DOCKED: ATOM      6  N   UNL d   1       5.525 -14.488   0.137 -0.03 -0.07    -0.354 N 
DOCKED: ATOM      7  C   UNL d   1       3.329 -13.409   3.894 -0.19 +0.04    +0.084 A 
DOCKED: ATOM      8  C   UNL d   1      -1.033 -14.982  -0.392 -0.36 +0.02    +0.084 A 
DOCKED: ATOM      9  C   UNL d   1       0.360 -14.778   0.214 -0.34 +0.01    +0.058 A 
DOCKED: ATOM     10  C   UNL d   1       3.965 -13.645   2.521 -0.11 +0.02    +0.058 A 
DOCKED: ATOM     11  C   UNL d   1       1.906 -13.660   3.497 -0.11 +0.14    +0.193 A 
DOCKED: ATOM     12  C   UNL d   1       1.872 -13.975   2.034 -0.13 +0.06    +0.109 A 
DOCKED: ATOM     13  C   UNL d   1      -0.613 -15.772  -1.599 -0.09 +0.00    +0.193 A 
DOCKED: ATOM     14  C   UNL d   1       3.753 -14.470   4.914 -0.16 +0.02    +0.026 C 
DOCKED: ATOM     15  C   UNL d   1       0.556 -14.169   1.394 -0.37 +0.02    +0.055 C 
DOCKED: ATOM     16  C   UNL d   1      -1.649 -13.660  -0.859 -0.43 +0.00    +0.026 C 
DOCKED: ATOM     17  C   UNL d   1       0.874 -15.913  -1.562 -0.13 -0.01    +0.109 A 
DOCKED: ATOM     18  C   UNL d   1       5.278 -13.441   2.309 -0.16 +0.01    +0.050 C 
DOCKED: ATOM     19  C   UNL d   1       5.937 -13.552   1.058 -0.15 +0.00    +0.045 A 
DOCKED: ATOM     20  C   UNL d   1       2.899 -16.616  -2.725 -0.09 -0.02    +0.045 A 
DOCKED: ATOM     21  C   UNL d   1       1.569 -16.684  -2.603 -0.10 -0.02    +0.057 C 
DOCKED: ATOM     22  C   UNL d   1       5.008 -17.029  -3.498 -0.04 +0.00    -0.019 A 
DOCKED: ATOM     23  C   UNL d   1       5.087 -16.037  -2.408 -0.08 -0.00    +0.045 A 
DOCKED: ATOM     24  C   UNL d   1       3.710 -17.367  -3.682 -0.06 +0.01    -0.022 A 
DOCKED: ATOM     25  C   UNL d   1       6.355 -14.484  -0.960 -0.12 +0.01    +0.049 A 
DOCKED: ATOM     26  C   UNL d   1       7.040 -12.899   0.531 -0.25 +0.00    -0.018 A 
DOCKED: ATOM     27  C   UNL d   1       7.287 -13.478  -0.752 -0.21 +0.00    +0.003 A 
DOCKED: ATOM     28  C   UNL d   1       6.224 -15.470  -1.976 -0.08 +0.00    +0.052 C 
DOCKED: ATOM     29  C   UNL d   1       3.124 -18.318  -4.670 -0.04 -0.01    +0.046 C 
DOCKED: ATOM     30  C   UNL d   1       7.817 -11.802   1.176 -0.28 -0.02    +0.046 C 
DOCKED: ATOM     31  H   UNL d   1       3.471 -15.178  -1.327 +0.03 +0.01    +0.166 HD
DOCKED: ATOM     32  H   UNL d   1       4.740 -15.112   0.285 +0.04 +0.04    +0.166 HD
DOCKED: ENDROOT
DOCKED: BRANCH   7  33
DOCKED: ATOM     33  C   UNL d   1       3.489 -11.993   4.457 -0.13 +0.03    +0.141 C 
DOCKED: BRANCH  33  34
DOCKED: ATOM     34  C   UNL d   1       2.780 -11.808   5.771 -0.23 +0.05    +0.306 C 
DOCKED: ATOM     35  O   UNL d   1       3.289 -11.856   6.878 -0.28 -0.03    -0.251 OA
DOCKED: BRANCH  34  36
DOCKED: ATOM     36  O   UNL d   1       1.465 -11.570   5.621 -0.15 -0.03    -0.481 OA
DOCKED: ATOM     37  H   UNL d   1       1.328 -11.541   4.650 -0.35 +0.01    +0.295 HD
DOCKED: ENDBRANCH  34  36
DOCKED: ENDBRANCH  33  34
DOCKED: ENDBRANCH   7  33
DOCKED: BRANCH  27  38
DOCKED: ATOM     38  C   UNL d   1       8.350 -13.104  -1.635 -0.29 -0.00    +0.017 C 
DOCKED: ATOM     39  C   UNL d   1       8.513 -13.558  -2.887 -0.23 -0.01    +0.092 C 
DOCKED: BRANCH  39  40
DOCKED: ATOM     40  C   UNL d   1       9.638 -13.082  -3.696 -0.14 -0.07    +0.330 C 
DOCKED: ATOM     41  O   UNL d   1      10.612 -12.457  -3.321 -0.24 +0.09    -0.246 OA
DOCKED: BRANCH  40  42
DOCKED: ATOM     42  O   UNL d   1       9.469 -13.441  -4.978 -0.05 +0.10    -0.477 OA
DOCKED: ATOM     43  H   UNL d   1       8.616 -13.030  -5.227 +0.05 -0.05    +0.295 HD
DOCKED: ENDBRANCH  40  42
DOCKED: ENDBRANCH  39  40
DOCKED: ENDBRANCH  27  38
DOCKED: BRANCH   8  44
DOCKED: ATOM     44  C   UNL d   1      -2.018 -15.779   0.470 -0.20 +0.04    +0.141 C 
DOCKED: BRANCH  44  45
DOCKED: ATOM     45  C   UNL d   1      -2.089 -17.236   0.098 -0.12 +0.09    +0.306 C 
DOCKED: ATOM     46  O   UNL d   1      -1.356 -18.125   0.496 -0.16 -0.08    -0.251 OA
DOCKED: BRANCH  45  47
DOCKED: ATOM     47  O   UNL d   1      -3.072 -17.494  -0.784 -0.10 -0.16    -0.481 OA
DOCKED: ATOM     48  H   UNL d   1      -2.679 -17.291  -1.659 +0.11 +0.08    +0.295 HD
DOCKED: ENDBRANCH  45  47
DOCKED: ENDBRANCH  44  45
DOCKED: ENDBRANCH   8  44
DOCKED: BRANCH  22  49
DOCKED: ATOM     49  C   UNL d   1       6.198 -17.560  -4.242 -0.01 -0.01    +0.048 C 
DOCKED: BRANCH  49  50
DOCKED: ATOM     50  C   UNL d   1       6.536 -16.703  -5.461 -0.01 -0.02    +0.125 C 
DOCKED: BRANCH  50  51
DOCKED: ATOM     51  C   UNL d   1       6.000 -15.308  -5.302 -0.04 -0.05    +0.305 C 
DOCKED: ATOM     52  O   UNL d   1       4.845 -14.939  -5.415 -0.13 +0.11    -0.251 OA
DOCKED: BRANCH  51  53
DOCKED: ATOM     53  O   UNL d   1       6.975 -14.424  -5.011 -0.01 +0.03    -0.481 OA
DOCKED: ATOM     54  H   UNL d   1       7.786 -14.835  -5.375 +0.05 -0.03    +0.295 HD
DOCKED: ENDBRANCH  51  53
DOCKED: ENDBRANCH  50  51
DOCKED: ENDBRANCH  49  50
DOCKED: ENDBRANCH  22  49
DOCKED: TORSDOF 13
DOCKED: TER
DOCKED: ENDMDL
________________________________________________________________________________


	BEGINNING GENETIC ALGORITHM DOCKING 79 of 100
Run: 79 Seed: 433783104 841328514 [ Run 79 of 100 GA/GALS ]
Beginning LAMARCKIAN GENETIC ALGORITHM (LGA), with a maximum of 25000000 energy evaluations.

Final-Value: -10.386


	FINAL GENETIC ALGORITHM DOCKED STATE
	_______________________________________________


Detailed state:  trans 5.213 -15.370 -2.299 quatxyzw -0.779285 0.365665 0.446805 -0.243657 center 0.153 0.018 -0.028 ntor 13 106.2394 -127.9029 -170.6128 -155.1976 -179.8648 -57.6340 96.4510 -2.4454 -20.3699 -6.4448 119.1964 21.3577 40.3664
State:	  5.213 -15.370  -2.299  -0.804  0.377  0.461 -151.795    106.24 -127.90 -170.61 -155.20 -179.86  -57.63   96.45   -2.45  -20.37   -6.44  119.20   21.36   40.37

DOCKED: MODEL       79
DOCKED: USER    Run = 79
DOCKED: USER    DPF = D:/Protein_go_brrr/autodock/final/AncMH_nat/heme/dock.dpf
DOCKED: USER  
DOCKED: USER    Estimated Free Energy of Binding    =   -3.22 kcal/mol  [=(1)+(2)+(3)-(4)]
DOCKED: USER    Estimated Inhibition Constant, Ki   =    4.38 mM (millimolar)  [Temperature = 298.15 K]
DOCKED: USER    
DOCKED: USER    (1) Final Intermolecular Energy     =   -7.10 kcal/mol
DOCKED: USER        vdW + Hbond + desolv Energy     =   -6.42 kcal/mol
DOCKED: USER        Electrostatic Energy            =   -0.67 kcal/mol
DOCKED: USER    (2) Final Total Internal Energy     =   -3.29 kcal/mol
DOCKED: USER    (3) Torsional Free Energy           =   +3.88 kcal/mol
DOCKED: USER    (4) Unbound System's Energy  [=(2)] =   -3.29 kcal/mol
DOCKED: USER    
DOCKED: USER    
DOCKED: USER    NEWDPF move heme_opt.pdbqt
DOCKED: USER    NEWDPF about 0.153000 0.018000 -0.028000
DOCKED: USER    NEWDPF tran0 5.213417 -15.369543 -2.298609
DOCKED: USER    NEWDPF quaternion0 -0.779285 0.365665 0.446805 -0.243657
DOCKED: USER    NEWDPF axisangle0 -0.803502 0.377028 0.460689 -151.795086
DOCKED: USER    NEWDPF quat0 -0.803502 0.377028 0.460689 -151.795086
DOCKED: USER    NEWDPF dihe0 106.24 -127.90 -170.61 -155.20 -179.86 -57.63 96.45 -2.45 -20.37 -6.44 119.20 21.36 40.37 
DOCKED: USER  keepresnum = 1 
DOCKED: USER  
DOCKED: REMARK  13 active torsions:
DOCKED: REMARK  status: ('A' for Active; 'I' for Inactive)
DOCKED: REMARK    1  A    between atoms: O_3  and  C_38 
DOCKED: REMARK    2  A    between atoms: O_4  and  C_40 
DOCKED: REMARK    3  A    between atoms: O_7  and  C_46 
DOCKED: REMARK    4  A    between atoms: O_9  and  C_48 
DOCKED: REMARK    5  A    between atoms: C_15  and  C_20 
DOCKED: REMARK    6  A    between atoms: C_16  and  C_23 
DOCKED: REMARK    7  A    between atoms: C_20  and  C_38 
DOCKED: REMARK    8  A    between atoms: C_23  and  C_40 
DOCKED: REMARK    9  A    between atoms: C_32  and  C_41 
DOCKED: REMARK   10  A    between atoms: C_37  and  C_45 
DOCKED: REMARK   11  A    between atoms: C_41  and  C_44 
DOCKED: REMARK   12  A    between atoms: C_44  and  C_46 
DOCKED: REMARK   13  A    between atoms: C_47  and  C_48 
DOCKED: USER                              x       y       z     vdW  Elec       q    Type
DOCKED: USER                           _______ _______ _______ _____ _____    ______ ____
DOCKED: ROOT
DOCKED: ATOM      1  O   UNL d   1       1.677 -13.972   2.207 -0.25 -0.17    -0.289 OA
DOCKED: ATOM      2  O   UNL d   1       8.963 -12.575   1.043 -0.23 +0.10    -0.289 OA
DOCKED: ATOM      3  N   UNL d   1       3.381 -15.123  -0.562 -0.11 -0.05    -0.247 NA
DOCKED: ATOM      4  N   UNL d   1       6.049 -13.842  -0.304 -0.10 -0.05    -0.247 NA
DOCKED: ATOM      5  N   UNL d   1       6.573 -14.596  -3.029 -0.06 -0.03    -0.354 N 
DOCKED: ATOM      6  N   UNL d   1       3.795 -15.906  -3.294 +0.00 +0.21    -0.354 N 
DOCKED: ATOM      7  C   UNL d   1       1.038 -15.142   0.158 -0.26 +0.02    +0.084 A 
DOCKED: ATOM      8  C   UNL d   1       6.788 -13.243   1.947 -0.14 -0.01    +0.084 A 
DOCKED: ATOM      9  C   UNL d   1       5.687 -13.774   1.023 -0.14 +0.01    +0.058 A 
DOCKED: ATOM     10  C   UNL d   1       2.091 -15.504  -0.894 -0.19 +0.00    +0.058 A 
DOCKED: ATOM     11  C   UNL d   1       1.964 -14.506   1.151 -0.19 +0.08    +0.193 A 
DOCKED: ATOM     12  C   UNL d   1       3.358 -14.580   0.611 -0.17 +0.04    +0.109 A 
DOCKED: ATOM     13  C   UNL d   1       7.829 -12.987   0.894 -0.17 -0.03    +0.193 A 
DOCKED: ATOM     14  C   UNL d   1       0.056 -14.084  -0.352 -0.36 +0.00    +0.026 C 
DOCKED: ATOM     15  C   UNL d   1       4.461 -14.094   1.465 -0.17 +0.02    +0.055 C 
DOCKED: ATOM     16  C   UNL d   1       7.305 -14.328   2.896 -0.08 -0.00    +0.026 C 
DOCKED: ATOM     17  C   UNL d   1       7.254 -13.384  -0.427 -0.18 +0.01    +0.109 A 
DOCKED: ATOM     18  C   UNL d   1       1.773 -16.212  -1.994 -0.14 -0.02    +0.050 C 
DOCKED: ATOM     19  C   UNL d   1       2.691 -16.663  -2.976 -0.07 -0.02    +0.045 A 
DOCKED: ATOM     20  C   UNL d   1       7.644 -13.772  -2.802 -0.19 +0.00    +0.045 A 
DOCKED: ATOM     21  C   UNL d   1       8.038 -13.204  -1.658 -0.27 +0.00    +0.057 C 
DOCKED: ATOM     22  C   UNL d   1       7.613 -14.352  -5.011 -0.08 +0.00    -0.019 A 
DOCKED: ATOM     23  C   UNL d   1       6.471 -14.998  -4.334 -0.08 -0.00    +0.045 A 
DOCKED: ATOM     24  C   UNL d   1       8.305 -13.629  -4.099 -0.19 +0.00    -0.022 A 
DOCKED: ATOM     25  C   UNL d   1       4.495 -16.483  -4.329 -0.07 -0.02    +0.049 A 
DOCKED: ATOM     26  C   UNL d   1       2.693 -17.779  -3.798 -0.07 +0.01    -0.018 A 
DOCKED: ATOM     27  C   UNL d   1       3.845 -17.670  -4.637 -0.05 -0.00    +0.003 A 
DOCKED: ATOM     28  C   UNL d   1       5.587 -15.806  -4.937 -0.08 -0.01    +0.052 C 
DOCKED: ATOM     29  C   UNL d   1       9.537 -12.812  -4.296 -0.17 -0.01    +0.046 C 
DOCKED: ATOM     30  C   UNL d   1       1.688 -18.881  -3.806 -0.03 -0.01    +0.046 C 
DOCKED: ATOM     31  H   UNL d   1       5.986 -14.918  -2.266 +0.03 +0.02    +0.166 HD
DOCKED: ATOM     32  H   UNL d   1       4.020 -15.026  -2.845 -0.20 -0.06    +0.166 HD
DOCKED: ENDROOT
DOCKED: BRANCH   7  33
DOCKED: ATOM     33  C   UNL d   1       0.306 -16.331   0.790 -0.07 +0.08    +0.141 C 
DOCKED: BRANCH  33  34
DOCKED: ATOM     34  C   UNL d   1       1.133 -17.588   0.787 -0.06 +0.22    +0.306 C 
DOCKED: ATOM     35  O   UNL d   1       0.801 -18.668   0.328 -0.09 -0.10    -0.251 OA
DOCKED: BRANCH  34  36
DOCKED: ATOM     36  O   UNL d   1       2.337 -17.418   1.362 -0.52 -0.57    -0.481 OA
DOCKED: ATOM     37  H   UNL d   1       2.864 -16.935   0.691 +0.05 +0.18    +0.295 HD
DOCKED: ENDBRANCH  34  36
DOCKED: ENDBRANCH  33  34
DOCKED: ENDBRANCH   7  33
DOCKED: BRANCH  27  38
DOCKED: ATOM     38  C   UNL d   1       4.220 -18.610  -5.650 -0.01 -0.00    +0.017 C 
DOCKED: ATOM     39  C   UNL d   1       5.387 -19.269  -5.700 +0.00 -0.01    +0.092 C 
DOCKED: BRANCH  39  40
DOCKED: ATOM     40  C   UNL d   1       5.642 -20.221  -6.785 +0.00 -0.04    +0.330 C 
DOCKED: ATOM     41  O   UNL d   1       5.007 -21.220  -7.062 +0.00 +0.02    -0.246 OA
DOCKED: BRANCH  40  42
DOCKED: ATOM     42  O   UNL d   1       6.717 -19.839  -7.491 +0.00 +0.05    -0.477 OA
DOCKED: ATOM     43  H   UNL d   1       7.410 -19.707  -6.811 +0.00 -0.03    +0.295 HD
DOCKED: ENDBRANCH  40  42
DOCKED: ENDBRANCH  39  40
DOCKED: ENDBRANCH  27  38
DOCKED: BRANCH   8  44
DOCKED: ATOM     44  C   UNL d   1       6.450 -11.957   2.707 -0.22 -0.07    +0.141 C 
DOCKED: BRANCH  44  45
DOCKED: ATOM     45  C   UNL d   1       6.048 -10.821   1.804 -0.30 -0.07    +0.306 C 
DOCKED: ATOM     46  O   UNL d   1       5.189 -10.849   0.940 -0.12 -0.05    -0.251 OA
DOCKED: BRANCH  45  47
DOCKED: ATOM     47  O   UNL d   1       6.773  -9.709   2.021 -0.28 +0.29    -0.481 OA
DOCKED: ATOM     48  H   UNL d   1       7.482  -9.992   2.638 -0.31 -0.58    +0.295 HD
DOCKED: ENDBRANCH  45  47
DOCKED: ENDBRANCH  44  45
DOCKED: ENDBRANCH   8  44
DOCKED: BRANCH  22  49
DOCKED: ATOM     49  C   UNL d   1       7.911 -14.489  -6.476 -0.04 -0.01    +0.048 C 
DOCKED: BRANCH  49  50
DOCKED: ATOM     50  C   UNL d   1       7.744 -15.929  -6.958 +0.00 -0.02    +0.125 C 
DOCKED: BRANCH  50  51
DOCKED: ATOM     51  C   UNL d   1       8.672 -16.853  -6.220 +0.00 -0.03    +0.305 C 
DOCKED: ATOM     52  O   UNL d   1       9.569 -16.548  -5.454 -0.00 +0.03    -0.251 OA
DOCKED: BRANCH  51  53
DOCKED: ATOM     53  O   UNL d   1       8.423 -18.147  -6.500 +0.00 +0.05    -0.481 OA
DOCKED: ATOM     54  H   UNL d   1       7.992 -18.122  -7.380 +0.00 -0.03    +0.295 HD
DOCKED: ENDBRANCH  51  53
DOCKED: ENDBRANCH  50  51
DOCKED: ENDBRANCH  49  50
DOCKED: ENDBRANCH  22  49
DOCKED: TORSDOF 13
DOCKED: TER
DOCKED: ENDMDL
________________________________________________________________________________


	BEGINNING GENETIC ALGORITHM DOCKING 80 of 100
Run: 80 Seed: 1614925046 1675476353 [ Run 80 of 100 GA/GALS ]
Beginning LAMARCKIAN GENETIC ALGORITHM (LGA), with a maximum of 25000000 energy evaluations.

Final-Value: -10.433


	FINAL GENETIC ALGORITHM DOCKED STATE
	_______________________________________________


Detailed state:  trans -12.050 2.587 18.470 quatxyzw 0.381099 0.873778 -0.165803 -0.252559 center 0.153 0.018 -0.028 ntor 13 161.1483 -74.2937 174.4465 129.2792 32.8055 8.8737 152.6099 114.1313 -10.5009 -2.0895 157.8242 -144.6541 178.7415
State:	-12.050   2.587  18.470   0.394  0.903 -0.171 -150.742    161.15  -74.29  174.45  129.28   32.81    8.87  152.61  114.13  -10.50   -2.09  157.82 -144.65  178.74

DOCKED: MODEL       80
DOCKED: USER    Run = 80
DOCKED: USER    DPF = D:/Protein_go_brrr/autodock/final/AncMH_nat/heme/dock.dpf
DOCKED: USER  
DOCKED: USER    Estimated Free Energy of Binding    =   -4.62 kcal/mol  [=(1)+(2)+(3)-(4)]
DOCKED: USER    Estimated Inhibition Constant, Ki   =  408.86 uM (micromolar)  [Temperature = 298.15 K]
DOCKED: USER    
DOCKED: USER    (1) Final Intermolecular Energy     =   -8.50 kcal/mol
DOCKED: USER        vdW + Hbond + desolv Energy     =   -7.93 kcal/mol
DOCKED: USER        Electrostatic Energy            =   -0.57 kcal/mol
DOCKED: USER    (2) Final Total Internal Energy     =   -1.93 kcal/mol
DOCKED: USER    (3) Torsional Free Energy           =   +3.88 kcal/mol
DOCKED: USER    (4) Unbound System's Energy  [=(2)] =   -1.93 kcal/mol
DOCKED: USER    
DOCKED: USER    
DOCKED: USER    NEWDPF move heme_opt.pdbqt
DOCKED: USER    NEWDPF about 0.153000 0.018000 -0.028000
DOCKED: USER    NEWDPF tran0 -12.050179 2.586690 18.469556
DOCKED: USER    NEWDPF quaternion0 0.381099 0.873778 -0.165803 -0.252559
DOCKED: USER    NEWDPF axisangle0 0.393868 0.903053 -0.171358 -150.742072
DOCKED: USER    NEWDPF quat0 0.393868 0.903053 -0.171358 -150.742072
DOCKED: USER    NEWDPF dihe0 161.15 -74.29 174.45 129.28 32.81 8.87 152.61 114.13 -10.50 -2.09 157.82 -144.65 178.74 
DOCKED: USER  keepresnum = 1 
DOCKED: USER  
DOCKED: REMARK  13 active torsions:
DOCKED: REMARK  status: ('A' for Active; 'I' for Inactive)
DOCKED: REMARK    1  A    between atoms: O_3  and  C_38 
DOCKED: REMARK    2  A    between atoms: O_4  and  C_40 
DOCKED: REMARK    3  A    between atoms: O_7  and  C_46 
DOCKED: REMARK    4  A    between atoms: O_9  and  C_48 
DOCKED: REMARK    5  A    between atoms: C_15  and  C_20 
DOCKED: REMARK    6  A    between atoms: C_16  and  C_23 
DOCKED: REMARK    7  A    between atoms: C_20  and  C_38 
DOCKED: REMARK    8  A    between atoms: C_23  and  C_40 
DOCKED: REMARK    9  A    between atoms: C_32  and  C_41 
DOCKED: REMARK   10  A    between atoms: C_37  and  C_45 
DOCKED: REMARK   11  A    between atoms: C_41  and  C_44 
DOCKED: REMARK   12  A    between atoms: C_44  and  C_46 
DOCKED: REMARK   13  A    between atoms: C_47  and  C_48 
DOCKED: USER                              x       y       z     vdW  Elec       q    Type
DOCKED: USER                           _______ _______ _______ _____ _____    ______ ____
DOCKED: ROOT
DOCKED: ATOM      1  O   UNL d   1      -7.314   0.113  20.961 -0.20 +0.05    -0.289 OA
DOCKED: ATOM      2  O   UNL d   1     -14.635  -1.371  21.740 -0.00 -0.01    -0.289 OA
DOCKED: ATOM      3  N   UNL d   1      -9.770   1.943  19.376 -0.11 +0.06    -0.247 NA
DOCKED: ATOM      4  N   UNL d   1     -12.259   0.458  20.030 -0.06 +0.05    -0.247 NA
DOCKED: ATOM      5  N   UNL d   1     -13.596   1.984  17.993 -0.02 +0.01    -0.354 N 
DOCKED: ATOM      6  N   UNL d   1     -11.005   3.506  17.307 -0.15 +0.04    -0.354 N 
DOCKED: ATOM      7  C   UNL d   1      -7.321   1.905  19.299 -0.18 -0.04    +0.084 A 
DOCKED: ATOM      8  C   UNL d   1     -12.265  -0.863  22.086 -0.04 -0.01    +0.084 A 
DOCKED: ATOM      9  C   UNL d   1     -11.497   0.006  21.085 -0.06 -0.01    +0.058 A 
DOCKED: ATOM     10  C   UNL d   1      -8.641   2.500  18.800 -0.23 -0.02    +0.058 A 
DOCKED: ATOM     11  C   UNL d   1      -7.904   0.927  20.274 -0.09 -0.04    +0.193 A 
DOCKED: ATOM     12  C   UNL d   1      -9.395   1.065  20.248 -0.10 -0.03    +0.109 A 
DOCKED: ATOM     13  C   UNL d   1     -13.594  -0.852  21.385 -0.02 -0.01    +0.193 A 
DOCKED: ATOM     14  C   UNL d   1      -6.587   1.132  18.201 -0.37 -0.01    +0.026 C 
DOCKED: ATOM     15  C   UNL d   1     -10.185   0.260  21.201 -0.09 -0.01    +0.055 C 
DOCKED: ATOM     16  C   UNL d   1     -12.418  -0.168  23.442 -0.01 -0.00    +0.026 C 
DOCKED: ATOM     17  C   UNL d   1     -13.455  -0.023  20.149 -0.06 -0.01    +0.109 A 
DOCKED: ATOM     18  C   UNL d   1      -8.665   3.536  17.940 -0.04 -0.02    +0.050 C 
DOCKED: ATOM     19  C   UNL d   1      -9.832   4.204  17.490 -0.29 -0.01    +0.045 A 
DOCKED: ATOM     20  C   UNL d   1     -14.566   1.055  18.266 -0.06 +0.00    +0.045 A 
DOCKED: ATOM     21  C   UNL d   1     -14.594   0.132  19.233 -0.06 +0.00    +0.057 C 
DOCKED: ATOM     22  C   UNL d   1     -15.219   2.296  16.462 -0.15 -0.00    -0.019 A 
DOCKED: ATOM     23  C   UNL d   1     -13.900   2.778  16.920 -0.18 +0.00    +0.045 A 
DOCKED: ATOM     24  C   UNL d   1     -15.608   1.277  17.265 -0.06 -0.00    -0.022 A 
DOCKED: ATOM     25  C   UNL d   1     -11.977   4.325  16.782 -0.17 -0.01    +0.049 A 
DOCKED: ATOM     26  C   UNL d   1     -10.058   5.517  17.108 -0.32 +0.01    -0.018 A 
DOCKED: ATOM     27  C   UNL d   1     -11.420   5.593  16.681 -0.27 -0.00    +0.003 A 
DOCKED: ATOM     28  C   UNL d   1     -13.227   3.796  16.361 -0.23 -0.01    +0.052 C 
DOCKED: ATOM     29  C   UNL d   1     -16.865   0.476  17.212 -0.03 +0.01    +0.046 C 
DOCKED: ATOM     30  C   UNL d   1      -9.073   6.636  17.140 -0.28 -0.02    +0.046 C 
DOCKED: ATOM     31  H   UNL d   1     -12.787   2.093  18.595 +0.05 -0.01    +0.166 HD
DOCKED: ATOM     32  H   UNL d   1     -11.104   2.517  17.500 +0.07 -0.01    +0.166 HD
DOCKED: ENDROOT
DOCKED: BRANCH   7  33
DOCKED: ATOM     33  C   UNL d   1      -6.388   2.887  20.015 -0.09 -0.09    +0.141 C 
DOCKED: BRANCH  33  34
DOCKED: ATOM     34  C   UNL d   1      -7.133   3.881  20.864 -0.03 -0.16    +0.306 C 
DOCKED: ATOM     35  O   UNL d   1      -7.479   3.723  22.023 -0.01 +0.08    -0.251 OA
DOCKED: BRANCH  34  36
DOCKED: ATOM     36  O   UNL d   1      -7.403   5.024  20.209 -0.02 +0.43    -0.481 OA
DOCKED: ATOM     37  H   UNL d   1      -6.751   5.048  19.476 -0.51 -0.61    +0.295 HD
DOCKED: ENDBRANCH  34  36
DOCKED: ENDBRANCH  33  34
DOCKED: ENDBRANCH   7  33
DOCKED: BRANCH  27  38
DOCKED: ATOM     38  C   UNL d   1     -12.066   6.772  16.189 -0.31 -0.00    +0.017 C 
DOCKED: ATOM     39  C   UNL d   1     -11.838   7.339  14.994 -0.31 -0.01    +0.092 C 
DOCKED: BRANCH  39  40
DOCKED: ATOM     40  C   UNL d   1     -12.582   8.539  14.602 -0.24 +0.00    +0.330 C 
DOCKED: ATOM     41  O   UNL d   1     -13.344   9.198  15.284 -0.17 -0.02    -0.246 OA
DOCKED: BRANCH  40  42
DOCKED: ATOM     42  O   UNL d   1     -12.305   8.857  13.328 -0.23 +0.05    -0.477 OA
DOCKED: ATOM     43  H   UNL d   1     -13.111   8.590  12.839 -0.37 -0.08    +0.295 HD
DOCKED: ENDBRANCH  40  42
DOCKED: ENDBRANCH  39  40
DOCKED: ENDBRANCH  27  38
DOCKED: BRANCH   8  44
DOCKED: ATOM     44  C   UNL d   1     -11.744  -2.295  22.253 -0.05 -0.01    +0.141 C 
DOCKED: BRANCH  44  45
DOCKED: ATOM     45  C   UNL d   1     -11.589  -3.027  20.946 -0.08 -0.03    +0.306 C 
DOCKED: ATOM     46  O   UNL d   1     -10.540  -3.321  20.399 -0.12 +0.04    -0.251 OA
DOCKED: BRANCH  45  47
DOCKED: ATOM     47  O   UNL d   1     -12.772  -3.327  20.380 -0.05 -0.01    -0.481 OA
DOCKED: ATOM     48  H   UNL d   1     -13.440  -3.065  21.049 +0.03 +0.01    +0.295 HD
DOCKED: ENDBRANCH  45  47
DOCKED: ENDBRANCH  44  45
DOCKED: ENDBRANCH   8  44
DOCKED: BRANCH  22  49
DOCKED: ATOM     49  C   UNL d   1     -15.961   2.860  15.287 -0.24 +0.01    +0.048 C 
DOCKED: BRANCH  49  50
DOCKED: ATOM     50  C   UNL d   1     -15.703   2.056  14.012 -0.29 +0.00    +0.125 C 
DOCKED: BRANCH  50  51
DOCKED: ATOM     51  C   UNL d   1     -14.429   1.269  14.123 -0.25 -0.02    +0.305 C 
DOCKED: ATOM     52  O   UNL d   1     -14.309   0.064  14.257 -0.27 -0.00    -0.251 OA
DOCKED: BRANCH  51  53
DOCKED: ATOM     53  O   UNL d   1     -13.340   2.062  14.071 -0.11 +0.12    -0.481 OA
DOCKED: ATOM     54  H   UNL d   1     -13.480   2.607  13.269 -0.40 -0.20    +0.295 HD
DOCKED: ENDBRANCH  51  53
DOCKED: ENDBRANCH  50  51
DOCKED: ENDBRANCH  49  50
DOCKED: ENDBRANCH  22  49
DOCKED: TORSDOF 13
DOCKED: TER
DOCKED: ENDMDL
________________________________________________________________________________


	BEGINNING GENETIC ALGORITHM DOCKING 81 of 100
Run: 81 Seed: 317932142 1315213254 [ Run 81 of 100 GA/GALS ]
Beginning LAMARCKIAN GENETIC ALGORITHM (LGA), with a maximum of 25000000 energy evaluations.

Final-Value: -10.201


	FINAL GENETIC ALGORITHM DOCKED STATE
	_______________________________________________


Detailed state:  trans -1.975 -11.146 -12.716 quatxyzw -0.379700 0.045936 -0.866289 -0.321342 center 0.153 0.018 -0.028 ntor 13 -180.0000 125.0766 153.0067 65.9950 -154.1688 -16.9651 -64.3884 -90.3786 10.8877 -162.4594 34.4472 -45.9483 136.1415
State:	 -1.975 -11.146 -12.716  -0.401  0.049 -0.915 -142.512   -180.00  125.08  153.01   66.00 -154.17  -16.97  -64.39  -90.38   10.89 -162.46   34.45  -45.95  136.14

DOCKED: MODEL       81
DOCKED: USER    Run = 81
DOCKED: USER    DPF = D:/Protein_go_brrr/autodock/final/AncMH_nat/heme/dock.dpf
DOCKED: USER  
DOCKED: USER    Estimated Free Energy of Binding    =   -2.65 kcal/mol  [=(1)+(2)+(3)-(4)]
DOCKED: USER    Estimated Inhibition Constant, Ki   =   11.33 mM (millimolar)  [Temperature = 298.15 K]
DOCKED: USER    
DOCKED: USER    (1) Final Intermolecular Energy     =   -6.53 kcal/mol
DOCKED: USER        vdW + Hbond + desolv Energy     =   -6.61 kcal/mol
DOCKED: USER        Electrostatic Energy            =   +0.08 kcal/mol
DOCKED: USER    (2) Final Total Internal Energy     =   -3.67 kcal/mol
DOCKED: USER    (3) Torsional Free Energy           =   +3.88 kcal/mol
DOCKED: USER    (4) Unbound System's Energy  [=(2)] =   -3.67 kcal/mol
DOCKED: USER    
DOCKED: USER    
DOCKED: USER    NEWDPF move heme_opt.pdbqt
DOCKED: USER    NEWDPF about 0.153000 0.018000 -0.028000
DOCKED: USER    NEWDPF tran0 -1.975301 -11.145877 -12.715689
DOCKED: USER    NEWDPF quaternion0 -0.379700 0.045936 -0.866289 -0.321342
DOCKED: USER    NEWDPF axisangle0 -0.400966 0.048509 -0.914808 -142.511812
DOCKED: USER    NEWDPF quat0 -0.400966 0.048509 -0.914808 -142.511812
DOCKED: USER    NEWDPF dihe0 -180.00 125.08 153.01 66.00 -154.17 -16.97 -64.39 -90.38 10.89 -162.46 34.45 -45.95 136.14 
DOCKED: USER  keepresnum = 1 
DOCKED: USER  
DOCKED: REMARK  13 active torsions:
DOCKED: REMARK  status: ('A' for Active; 'I' for Inactive)
DOCKED: REMARK    1  A    between atoms: O_3  and  C_38 
DOCKED: REMARK    2  A    between atoms: O_4  and  C_40 
DOCKED: REMARK    3  A    between atoms: O_7  and  C_46 
DOCKED: REMARK    4  A    between atoms: O_9  and  C_48 
DOCKED: REMARK    5  A    between atoms: C_15  and  C_20 
DOCKED: REMARK    6  A    between atoms: C_16  and  C_23 
DOCKED: REMARK    7  A    between atoms: C_20  and  C_38 
DOCKED: REMARK    8  A    between atoms: C_23  and  C_40 
DOCKED: REMARK    9  A    between atoms: C_32  and  C_41 
DOCKED: REMARK   10  A    between atoms: C_37  and  C_45 
DOCKED: REMARK   11  A    between atoms: C_41  and  C_44 
DOCKED: REMARK   12  A    between atoms: C_44  and  C_46 
DOCKED: REMARK   13  A    between atoms: C_47  and  C_48 
DOCKED: USER                              x       y       z     vdW  Elec       q    Type
DOCKED: USER                           _______ _______ _______ _____ _____    ______ ____
DOCKED: ROOT
DOCKED: ATOM      1  O   UNL d   1       2.186  -9.053 -16.329 -0.04 +0.02    -0.289 OA
DOCKED: ATOM      2  O   UNL d   1      -4.247  -6.009 -13.934 -0.10 -0.00    -0.289 OA
DOCKED: ATOM      3  N   UNL d   1      -0.032 -10.735 -14.293 -0.11 +0.06    -0.247 NA
DOCKED: ATOM      4  N   UNL d   1      -2.068  -8.669 -13.647 -0.15 +0.06    -0.247 NA
DOCKED: ATOM      5  N   UNL d   1      -3.042 -10.409 -11.576 +0.00 +0.11    -0.354 N 
DOCKED: ATOM      6  N   UNL d   1      -0.915 -12.539 -12.241 -0.01 +0.19    -0.354 N 
DOCKED: ATOM      7  C   UNL d   1       2.212 -11.199 -15.161 -0.07 -0.01    +0.084 A 
DOCKED: ATOM      8  C   UNL d   1      -2.368  -6.853 -15.255 -0.15 -0.00    +0.084 A 
DOCKED: ATOM      9  C   UNL d   1      -1.596  -8.100 -14.809 -0.19 -0.01    +0.058 A 
DOCKED: ATOM     10  C   UNL d   1       1.016 -11.639 -14.312 -0.14 -0.01    +0.058 A 
DOCKED: ATOM     11  C   UNL d   1       1.647  -9.894 -15.634 -0.06 -0.02    +0.193 A 
DOCKED: ATOM     12  C   UNL d   1       0.272  -9.740 -15.061 -0.12 -0.01    +0.109 A 
DOCKED: ATOM     13  C   UNL d   1      -3.341  -6.799 -14.111 -0.17 -0.01    +0.193 A 
DOCKED: ATOM     14  C   UNL d   1       3.452 -10.921 -14.307 -0.11 -0.00    +0.026 C 
DOCKED: ATOM     15  C   UNL d   1      -0.522  -8.563 -15.467 -0.15 -0.01    +0.055 C 
DOCKED: ATOM     16  C   UNL d   1      -3.145  -7.100 -16.551 -0.07 -0.00    +0.026 C 
DOCKED: ATOM     17  C   UNL d   1      -3.048  -7.949 -13.204 -0.25 -0.02    +0.109 A 
DOCKED: ATOM     18  C   UNL d   1       0.980 -12.848 -13.720 -0.14 -0.01    +0.050 C 
DOCKED: ATOM     19  C   UNL d   1      -0.115 -13.373 -12.988 -0.12 -0.01    +0.045 A 
DOCKED: ATOM     20  C   UNL d   1      -3.743  -9.270 -11.276 -0.29 -0.01    +0.045 A 
DOCKED: ATOM     21  C   UNL d   1      -3.821  -8.128 -11.966 -0.34 -0.01    +0.057 C 
DOCKED: ATOM     22  C   UNL d   1      -4.096 -10.811  -9.626 -0.33 +0.00    -0.019 A 
DOCKED: ATOM     23  C   UNL d   1      -3.193 -11.395 -10.638 -0.23 -0.01    +0.045 A 
DOCKED: ATOM     24  C   UNL d   1      -4.419  -9.553 -10.010 -0.35 -0.00    -0.022 A 
DOCKED: ATOM     25  C   UNL d   1      -1.853 -13.265 -11.544 +0.01 -0.02    +0.049 A 
DOCKED: ATOM     26  C   UNL d   1      -0.568 -14.670 -12.802 -0.07 +0.00    -0.018 A 
DOCKED: ATOM     27  C   UNL d   1      -1.678 -14.594 -11.905 -0.08 -0.00    +0.003 A 
DOCKED: ATOM     28  C   UNL d   1      -2.693 -12.639 -10.583 -0.18 -0.02    +0.052 C 
DOCKED: ATOM     29  C   UNL d   1      -5.308  -8.569  -9.329 -0.41 +0.01    +0.046 C 
DOCKED: ATOM     30  C   UNL d   1      -0.007 -15.906 -13.420 -0.02 -0.01    +0.046 C 
DOCKED: ATOM     31  H   UNL d   1      -2.541 -10.502 -12.453 -0.29 -0.07    +0.166 HD
DOCKED: ATOM     32  H   UNL d   1      -0.786 -11.535 -12.192 -0.44 -0.14    +0.166 HD
DOCKED: ENDROOT
DOCKED: BRANCH   7  33
DOCKED: ATOM     33  C   UNL d   1       2.542 -12.106 -16.351 -0.01 -0.01    +0.141 C 
DOCKED: BRANCH  33  34
DOCKED: ATOM     34  C   UNL d   1       1.391 -12.243 -17.311 -0.00 -0.02    +0.306 C 
DOCKED: ATOM     35  O   UNL d   1       0.612 -13.179 -17.373 -0.00 +0.02    -0.251 OA
DOCKED: BRANCH  34  36
DOCKED: ATOM     36  O   UNL d   1       1.280 -11.191 -18.141 +0.00 +0.03    -0.481 OA
DOCKED: ATOM     37  H   UNL d   1       1.989 -10.575 -17.855 +0.01 -0.02    +0.295 HD
DOCKED: ENDBRANCH  34  36
DOCKED: ENDBRANCH  33  34
DOCKED: ENDBRANCH   7  33
DOCKED: BRANCH  27  38
DOCKED: ATOM     38  C   UNL d   1      -2.435 -15.713 -11.432 -0.04 -0.00    +0.017 C 
DOCKED: ATOM     39  C   UNL d   1      -3.359 -15.667 -10.460 -0.03 -0.02    +0.092 C 
DOCKED: BRANCH  39  40
DOCKED: ATOM     40  C   UNL d   1      -4.079 -16.886 -10.080 +0.01 -0.04    +0.330 C 
DOCKED: ATOM     41  O   UNL d   1      -4.199 -17.910 -10.724 +0.00 +0.02    -0.246 OA
DOCKED: BRANCH  40  42
DOCKED: ATOM     42  O   UNL d   1      -4.619 -16.741  -8.860 +0.02 +0.05    -0.477 OA
DOCKED: ATOM     43  H   UNL d   1      -3.859 -16.495  -8.294 +0.05 -0.05    +0.295 HD
DOCKED: ENDBRANCH  40  42
DOCKED: ENDBRANCH  39  40
DOCKED: ENDBRANCH  27  38
DOCKED: BRANCH   8  44
DOCKED: ATOM     44  C   UNL d   1      -1.546  -5.562 -15.338 -0.14 -0.01    +0.141 C 
DOCKED: BRANCH  44  45
DOCKED: ATOM     45  C   UNL d   1      -2.018  -4.627 -16.419 -0.07 -0.01    +0.306 C 
DOCKED: ATOM     46  O   UNL d   1      -1.446  -4.379 -17.466 -0.04 +0.01    -0.251 OA
DOCKED: BRANCH  45  47
DOCKED: ATOM     47  O   UNL d   1      -3.181  -4.027 -16.109 -0.05 -0.01    -0.481 OA
DOCKED: ATOM     48  H   UNL d   1      -3.634  -4.658 -15.510 +0.06 +0.02    +0.295 HD
DOCKED: ENDBRANCH  45  47
DOCKED: ENDBRANCH  44  45
DOCKED: ENDBRANCH   8  44
DOCKED: BRANCH  22  49
DOCKED: ATOM     49  C   UNL d   1      -4.543 -11.523  -8.384 -0.31 -0.00    +0.048 C 
DOCKED: BRANCH  49  50
DOCKED: ATOM     50  C   UNL d   1      -3.359 -12.070  -7.585 -0.42 -0.00    +0.125 C 
DOCKED: BRANCH  50  51
DOCKED: ATOM     51  C   UNL d   1      -3.709 -13.379  -6.937 -0.22 -0.07    +0.305 C 
DOCKED: ATOM     52  O   UNL d   1      -4.089 -13.564  -5.794 -0.31 +0.07    -0.251 OA
DOCKED: BRANCH  51  53
DOCKED: ATOM     53  O   UNL d   1      -3.547 -14.419  -7.779 -0.01 +0.13    -0.481 OA
DOCKED: ATOM     54  H   UNL d   1      -4.455 -14.762  -7.911 +0.09 -0.07    +0.295 HD
DOCKED: ENDBRANCH  51  53
DOCKED: ENDBRANCH  50  51
DOCKED: ENDBRANCH  49  50
DOCKED: ENDBRANCH  22  49
DOCKED: TORSDOF 13
DOCKED: TER
DOCKED: ENDMDL
________________________________________________________________________________


	BEGINNING GENETIC ALGORITHM DOCKING 82 of 100
Run: 82 Seed: 923405248 152093272 [ Run 82 of 100 GA/GALS ]
Beginning LAMARCKIAN GENETIC ALGORITHM (LGA), with a maximum of 25000000 energy evaluations.

Final-Value: -10.340


	FINAL GENETIC ALGORITHM DOCKED STATE
	_______________________________________________


Detailed state:  trans -6.858 -9.740 19.351 quatxyzw 0.068793 0.951027 0.166238 -0.251357 center 0.153 0.018 -0.028 ntor 13 114.2931 -178.1589 113.4111 55.3838 179.8233 -104.6393 -46.9226 41.8056 -21.2508 -131.3446 -85.0537 24.2536 6.2921
State:	 -6.858  -9.740  19.351   0.071  0.983  0.172 -150.884    114.29 -178.16  113.41   55.38  179.82 -104.64  -46.92   41.81  -21.25 -131.34  -85.05   24.25    6.29

DOCKED: MODEL       82
DOCKED: USER    Run = 82
DOCKED: USER    DPF = D:/Protein_go_brrr/autodock/final/AncMH_nat/heme/dock.dpf
DOCKED: USER  
DOCKED: USER    Estimated Free Energy of Binding    =   -1.96 kcal/mol  [=(1)+(2)+(3)-(4)]
DOCKED: USER    Estimated Inhibition Constant, Ki   =   36.77 mM (millimolar)  [Temperature = 298.15 K]
DOCKED: USER    
DOCKED: USER    (1) Final Intermolecular Energy     =   -5.83 kcal/mol
DOCKED: USER        vdW + Hbond + desolv Energy     =   -5.82 kcal/mol
DOCKED: USER        Electrostatic Energy            =   -0.01 kcal/mol
DOCKED: USER    (2) Final Total Internal Energy     =   -4.51 kcal/mol
DOCKED: USER    (3) Torsional Free Energy           =   +3.88 kcal/mol
DOCKED: USER    (4) Unbound System's Energy  [=(2)] =   -4.51 kcal/mol
DOCKED: USER    
DOCKED: USER    
DOCKED: USER    NEWDPF move heme_opt.pdbqt
DOCKED: USER    NEWDPF about 0.153000 0.018000 -0.028000
DOCKED: USER    NEWDPF tran0 -6.858117 -9.739654 19.350630
DOCKED: USER    NEWDPF quaternion0 0.068793 0.951027 0.166238 -0.251357
DOCKED: USER    NEWDPF axisangle0 0.071075 0.982573 0.171752 -150.884383
DOCKED: USER    NEWDPF quat0 0.071075 0.982573 0.171752 -150.884383
DOCKED: USER    NEWDPF dihe0 114.29 -178.16 113.41 55.38 179.82 -104.64 -46.92 41.81 -21.25 -131.34 -85.05 24.25 6.29 
DOCKED: USER  keepresnum = 1 
DOCKED: USER  
DOCKED: REMARK  13 active torsions:
DOCKED: REMARK  status: ('A' for Active; 'I' for Inactive)
DOCKED: REMARK    1  A    between atoms: O_3  and  C_38 
DOCKED: REMARK    2  A    between atoms: O_4  and  C_40 
DOCKED: REMARK    3  A    between atoms: O_7  and  C_46 
DOCKED: REMARK    4  A    between atoms: O_9  and  C_48 
DOCKED: REMARK    5  A    between atoms: C_15  and  C_20 
DOCKED: REMARK    6  A    between atoms: C_16  and  C_23 
DOCKED: REMARK    7  A    between atoms: C_20  and  C_38 
DOCKED: REMARK    8  A    between atoms: C_23  and  C_40 
DOCKED: REMARK    9  A    between atoms: C_32  and  C_41 
DOCKED: REMARK   10  A    between atoms: C_37  and  C_45 
DOCKED: REMARK   11  A    between atoms: C_41  and  C_44 
DOCKED: REMARK   12  A    between atoms: C_44  and  C_46 
DOCKED: REMARK   13  A    between atoms: C_47  and  C_48 
DOCKED: USER                              x       y       z     vdW  Elec       q    Type
DOCKED: USER                           _______ _______ _______ _____ _____    ______ ____
DOCKED: ROOT
DOCKED: ATOM      1  O   UNL d   1      -1.605  -9.181  21.967 -0.03 +0.05    -0.289 OA
DOCKED: ATOM      2  O   UNL d   1      -5.582 -15.286  20.152 -0.00 +0.01    -0.289 OA
DOCKED: ATOM      3  N   UNL d   1      -4.743  -9.012  20.545 -0.10 +0.03    -0.247 NA
DOCKED: ATOM      4  N   UNL d   1      -5.365 -11.850  19.924 -0.04 +0.01    -0.247 NA
DOCKED: ATOM      5  N   UNL d   1      -7.540 -10.919  18.290 -0.04 -0.04    -0.354 N 
DOCKED: ATOM      6  N   UNL d   1      -6.876  -7.976  18.925 -0.15 +0.04    -0.354 N 
DOCKED: ATOM      7  C   UNL d   1      -3.016  -7.371  21.125 -0.16 -0.03    +0.084 A 
DOCKED: ATOM      8  C   UNL d   1      -4.268 -13.558  21.284 -0.01 -0.01    +0.084 A 
DOCKED: ATOM      9  C   UNL d   1      -4.431 -12.082  20.909 -0.04 -0.00    +0.058 A 
DOCKED: ATOM     10  C   UNL d   1      -4.397  -7.671  20.535 -0.23 -0.01    +0.058 A 
DOCKED: ATOM     11  C   UNL d   1      -2.649  -8.779  21.487 -0.06 -0.04    +0.193 A 
DOCKED: ATOM     12  C   UNL d   1      -3.787  -9.676  21.110 -0.09 -0.01    +0.109 A 
DOCKED: ATOM     13  C   UNL d   1      -5.255 -14.125  20.303 -0.00 -0.01    +0.193 A 
DOCKED: ATOM     14  C   UNL d   1      -2.037  -6.862  20.064 -0.26 -0.02    +0.026 C 
DOCKED: ATOM     15  C   UNL d   1      -3.690 -11.107  21.459 -0.06 -0.01    +0.055 C 
DOCKED: ATOM     16  C   UNL d   1      -4.767 -13.842  22.704 -0.00 -0.00    +0.026 C 
DOCKED: ATOM     17  C   UNL d   1      -5.844 -12.987  19.534 -0.03 -0.00    +0.109 A 
DOCKED: ATOM     18  C   UNL d   1      -5.220  -6.683  20.134 -0.15 -0.01    +0.050 C 
DOCKED: ATOM     19  C   UNL d   1      -6.543  -6.858  19.655 -0.13 -0.01    +0.045 A 
DOCKED: ATOM     20  C   UNL d   1      -7.532 -12.244  17.939 -0.10 +0.01    +0.045 A 
DOCKED: ATOM     21  C   UNL d   1      -6.819 -13.245  18.464 -0.07 +0.00    +0.057 C 
DOCKED: ATOM     22  C   UNL d   1      -9.010 -11.133  16.597 -0.27 -0.01    -0.019 A 
DOCKED: ATOM     23  C   UNL d   1      -8.401 -10.169  17.535 -0.22 +0.01    +0.045 A 
DOCKED: ATOM     24  C   UNL d   1      -8.492 -12.360  16.842 -0.20 -0.01    -0.022 A 
DOCKED: ATOM     25  C   UNL d   1      -8.178  -7.898  18.487 -0.28 -0.00    +0.049 A 
DOCKED: ATOM     26  C   UNL d   1      -7.667  -6.050  19.725 -0.23 +0.00    -0.018 A 
DOCKED: ATOM     27  C   UNL d   1      -8.702  -6.721  19.003 -0.31 -0.00    +0.003 A 
DOCKED: ATOM     28  C   UNL d   1      -8.702  -8.862  17.583 -0.33 +0.00    +0.052 C 
DOCKED: ATOM     29  C   UNL d   1      -8.800 -13.654  16.169 -0.31 +0.03    +0.046 C 
DOCKED: ATOM     30  C   UNL d   1      -7.778  -4.736  20.422 -0.25 -0.00    +0.046 C 
DOCKED: ATOM     31  H   UNL d   1      -7.009 -10.582  19.087 +0.04 +0.00    +0.166 HD
DOCKED: ATOM     32  H   UNL d   1      -6.224  -8.723  18.715 +0.05 -0.02    +0.166 HD
DOCKED: ENDROOT
DOCKED: BRANCH   7  33
DOCKED: ATOM     33  C   UNL d   1      -3.012  -6.477  22.369 -0.06 -0.04    +0.141 C 
DOCKED: BRANCH  33  34
DOCKED: ATOM     34  C   UNL d   1      -4.296  -6.564  23.149 -0.01 -0.05    +0.306 C 
DOCKED: ATOM     35  O   UNL d   1      -5.005  -5.628  23.476 -0.01 +0.04    -0.251 OA
DOCKED: BRANCH  34  36
DOCKED: ATOM     36  O   UNL d   1      -4.622  -7.829  23.472 +0.01 +0.06    -0.481 OA
DOCKED: ATOM     37  H   UNL d   1      -4.843  -8.253  22.617 +0.04 -0.04    +0.295 HD
DOCKED: ENDBRANCH  34  36
DOCKED: ENDBRANCH  33  34
DOCKED: ENDBRANCH   7  33
DOCKED: BRANCH  27  38
DOCKED: ATOM     38  C   UNL d   1     -10.031  -6.224  18.812 -0.26 +0.00    +0.017 C 
DOCKED: ATOM     39  C   UNL d   1     -11.152  -6.829  19.235 -0.15 +0.02    +0.092 C 
DOCKED: BRANCH  39  40
DOCKED: ATOM     40  C   UNL d   1     -12.455  -6.205  18.990 -0.09 +0.10    +0.330 C 
DOCKED: ATOM     41  O   UNL d   1     -13.178  -5.653  19.798 -0.06 -0.07    -0.246 OA
DOCKED: BRANCH  40  42
DOCKED: ATOM     42  O   UNL d   1     -12.780  -6.307  17.692 -0.12 -0.26    -0.477 OA
DOCKED: ATOM     43  H   UNL d   1     -12.034  -6.808  17.303 +0.14 +0.13    +0.295 HD
DOCKED: ENDBRANCH  40  42
DOCKED: ENDBRANCH  39  40
DOCKED: ENDBRANCH  27  38
DOCKED: BRANCH   8  44
DOCKED: ATOM     44  C   UNL d   1      -2.871 -14.147  21.059 -0.01 -0.01    +0.141 C 
DOCKED: BRANCH  44  45
DOCKED: ATOM     45  C   UNL d   1      -2.763 -15.592  21.466 -0.00 -0.02    +0.306 C 
DOCKED: ATOM     46  O   UNL d   1      -2.433 -16.016  22.560 +0.00 +0.02    -0.251 OA
DOCKED: BRANCH  45  47
DOCKED: ATOM     47  O   UNL d   1      -3.052 -16.434  20.457 +0.00 +0.03    -0.481 OA
DOCKED: ATOM     48  H   UNL d   1      -4.009 -16.301  20.290 +0.01 -0.02    +0.295 HD
DOCKED: ENDBRANCH  45  47
DOCKED: ENDBRANCH  44  45
DOCKED: ENDBRANCH   8  44
DOCKED: BRANCH  22  49
DOCKED: ATOM     49  C   UNL d   1     -10.019 -10.767  15.549 -0.34 +0.04    +0.048 C 
DOCKED: BRANCH  49  50
DOCKED: ATOM     50  C   UNL d   1     -11.411 -10.562  16.147 -0.27 +0.05    +0.125 C 
DOCKED: BRANCH  50  51
DOCKED: ATOM     51  C   UNL d   1     -11.665  -9.107  16.426 -0.22 +0.12    +0.305 C 
DOCKED: ATOM     52  O   UNL d   1     -11.289  -8.149  15.775 -0.39 -0.09    -0.251 OA
DOCKED: BRANCH  51  53
DOCKED: ATOM     53  O   UNL d   1     -12.390  -8.929  17.549 -0.07 -0.20    -0.481 OA
DOCKED: ATOM     54  H   UNL d   1     -13.155  -8.391  17.255 +0.11 +0.21    +0.295 HD
DOCKED: ENDBRANCH  51  53
DOCKED: ENDBRANCH  50  51
DOCKED: ENDBRANCH  49  50
DOCKED: ENDBRANCH  22  49
DOCKED: TORSDOF 13
DOCKED: TER
DOCKED: ENDMDL
________________________________________________________________________________


	BEGINNING GENETIC ALGORITHM DOCKING 83 of 100
Run: 83 Seed: 199368049 797950968 [ Run 83 of 100 GA/GALS ]
Beginning LAMARCKIAN GENETIC ALGORITHM (LGA), with a maximum of 25000000 energy evaluations.

Final-Value: -10.812


	FINAL GENETIC ALGORITHM DOCKED STATE
	_______________________________________________


Detailed state:  trans 8.240 10.188 7.274 quatxyzw 0.986167 0.081401 -0.143437 -0.016554 center 0.153 0.018 -0.028 ntor 13 -109.2941 -167.6838 65.5836 -60.7980 -67.4151 38.7324 148.5956 -170.0473 4.6541 -162.4093 -69.1339 170.2729 -180.0000
State:	  8.240  10.188   7.274   0.986  0.081 -0.143 -178.103   -109.29 -167.68   65.58  -60.80  -67.42   38.73  148.60 -170.05    4.65 -162.41  -69.13  170.27 -180.00

DOCKED: MODEL       83
DOCKED: USER    Run = 83
DOCKED: USER    DPF = D:/Protein_go_brrr/autodock/final/AncMH_nat/heme/dock.dpf
DOCKED: USER  
DOCKED: USER    Estimated Free Energy of Binding    =   -6.09 kcal/mol  [=(1)+(2)+(3)-(4)]
DOCKED: USER    Estimated Inhibition Constant, Ki   =   34.50 uM (micromolar)  [Temperature = 298.15 K]
DOCKED: USER    
DOCKED: USER    (1) Final Intermolecular Energy     =   -9.97 kcal/mol
DOCKED: USER        vdW + Hbond + desolv Energy     =   -8.43 kcal/mol
DOCKED: USER        Electrostatic Energy            =   -1.54 kcal/mol
DOCKED: USER    (2) Final Total Internal Energy     =   -0.85 kcal/mol
DOCKED: USER    (3) Torsional Free Energy           =   +3.88 kcal/mol
DOCKED: USER    (4) Unbound System's Energy  [=(2)] =   -0.85 kcal/mol
DOCKED: USER    
DOCKED: USER    
DOCKED: USER    NEWDPF move heme_opt.pdbqt
DOCKED: USER    NEWDPF about 0.153000 0.018000 -0.028000
DOCKED: USER    NEWDPF tran0 8.240446 10.188252 7.274244
DOCKED: USER    NEWDPF quaternion0 0.986167 0.081401 -0.143437 -0.016554
DOCKED: USER    NEWDPF axisangle0 0.986302 0.081412 -0.143457 -178.102984
DOCKED: USER    NEWDPF quat0 0.986302 0.081412 -0.143457 -178.102984
DOCKED: USER    NEWDPF dihe0 -109.29 -167.68 65.58 -60.80 -67.42 38.73 148.60 -170.05 4.65 -162.41 -69.13 170.27 -180.00 
DOCKED: USER  keepresnum = 1 
DOCKED: USER  
DOCKED: REMARK  13 active torsions:
DOCKED: REMARK  status: ('A' for Active; 'I' for Inactive)
DOCKED: REMARK    1  A    between atoms: O_3  and  C_38 
DOCKED: REMARK    2  A    between atoms: O_4  and  C_40 
DOCKED: REMARK    3  A    between atoms: O_7  and  C_46 
DOCKED: REMARK    4  A    between atoms: O_9  and  C_48 
DOCKED: REMARK    5  A    between atoms: C_15  and  C_20 
DOCKED: REMARK    6  A    between atoms: C_16  and  C_23 
DOCKED: REMARK    7  A    between atoms: C_20  and  C_38 
DOCKED: REMARK    8  A    between atoms: C_23  and  C_40 
DOCKED: REMARK    9  A    between atoms: C_32  and  C_41 
DOCKED: REMARK   10  A    between atoms: C_37  and  C_45 
DOCKED: REMARK   11  A    between atoms: C_41  and  C_44 
DOCKED: REMARK   12  A    between atoms: C_44  and  C_46 
DOCKED: REMARK   13  A    between atoms: C_47  and  C_48 
DOCKED: USER                              x       y       z     vdW  Elec       q    Type
DOCKED: USER                           _______ _______ _______ _____ _____    ______ ____
DOCKED: ROOT
DOCKED: ATOM      1  O   UNL d   1       3.032   7.612   8.271 -0.15 +0.02    -0.289 OA
DOCKED: ATOM      2  O   UNL d   1       5.369  14.642   9.501 -0.00 -0.02    -0.289 OA
DOCKED: ATOM      3  N   UNL d   1       6.263   8.643   7.643 -0.19 -0.00    -0.247 NA
DOCKED: ATOM      4  N   UNL d   1       6.152  11.572   8.133 -0.18 -0.04    -0.247 NA
DOCKED: ATOM      5  N   UNL d   1       8.711  11.791   6.840 -0.06 +0.02    -0.354 N 
DOCKED: ATOM      6  N   UNL d   1       8.809   8.755   6.319 -0.08 +0.08    -0.354 N 
DOCKED: ATOM      7  C   UNL d   1       4.997   6.583   7.244 -0.37 -0.02    +0.084 A 
DOCKED: ATOM      8  C   UNL d   1       4.441  12.384   9.676 -0.11 +0.01    +0.084 A 
DOCKED: ATOM      9  C   UNL d   1       5.060  11.221   8.894 -0.15 +0.01    +0.058 A 
DOCKED: ATOM     10  C   UNL d   1       6.310   7.362   7.121 -0.24 -0.01    +0.058 A 
DOCKED: ATOM     11  C   UNL d   1       4.205   7.645   7.945 -0.27 -0.02    +0.193 A 
DOCKED: ATOM     12  C   UNL d   1       5.090   8.835   8.153 -0.22 +0.01    +0.109 A 
DOCKED: ATOM     13  C   UNL d   1       5.361  13.467   9.188 -0.03 +0.01    +0.193 A 
DOCKED: ATOM     14  C   UNL d   1       4.361   6.310   5.878 -0.46 -0.01    +0.026 C 
DOCKED: ATOM     15  C   UNL d   1       4.549   9.980   8.912 -0.27 +0.01    +0.055 C 
DOCKED: ATOM     16  C   UNL d   1       4.632  12.218  11.187 -0.10 +0.01    +0.026 C 
DOCKED: ATOM     17  C   UNL d   1       6.347  12.846   8.254 -0.07 +0.00    +0.109 A 
DOCKED: ATOM     18  C   UNL d   1       7.423   6.789   6.626 -0.30 -0.02    +0.050 C 
DOCKED: ATOM     19  C   UNL d   1       8.700   7.402   6.551 -0.20 -0.02    +0.045 A 
DOCKED: ATOM     20  C   UNL d   1       8.385  13.119   6.944 -0.11 -0.00    +0.045 A 
DOCKED: ATOM     21  C   UNL d   1       7.354  13.681   7.582 -0.11 +0.00    +0.057 C 
DOCKED: ATOM     22  C   UNL d   1      10.290  12.921   5.698 -0.10 +0.00    -0.019 A 
DOCKED: ATOM     23  C   UNL d   1       9.846  11.573   6.106 -0.11 -0.00    +0.045 A 
DOCKED: ATOM     24  C   UNL d   1       9.422  13.832   6.198 -0.06 -0.00    -0.022 A 
DOCKED: ATOM     25  C   UNL d   1      10.130   9.119   6.196 -0.13 -0.01    +0.049 A 
DOCKED: ATOM     26  C   UNL d   1       9.983   6.881   6.617 -0.17 +0.01    -0.018 A 
DOCKED: ATOM     27  C   UNL d   1      10.882   7.972   6.411 -0.14 -0.00    +0.003 A 
DOCKED: ATOM     28  C   UNL d   1      10.489  10.436   5.799 -0.13 -0.01    +0.052 C 
DOCKED: ATOM     29  C   UNL d   1       9.450  15.317   6.069 -0.06 +0.01    +0.046 C 
DOCKED: ATOM     30  C   UNL d   1      10.354   5.456   6.858 -0.20 -0.03    +0.046 C 
DOCKED: ATOM     31  H   UNL d   1       8.187  11.080   7.339 +0.04 -0.00    +0.166 HD
DOCKED: ATOM     32  H   UNL d   1       8.012   9.371   6.216 +0.06 -0.02    +0.166 HD
DOCKED: ENDROOT
DOCKED: BRANCH   7  33
DOCKED: ATOM     33  C   UNL d   1       5.064   5.312   8.097 -0.41 -0.09    +0.141 C 
DOCKED: BRANCH  33  34
DOCKED: ATOM     34  C   UNL d   1       5.650   5.559   9.460 -0.20 -0.21    +0.306 C 
DOCKED: ATOM     35  O   UNL d   1       6.245   6.562   9.817 -0.12 +0.09    -0.251 OA
DOCKED: BRANCH  34  36
DOCKED: ATOM     36  O   UNL d   1       5.451   4.531  10.304 -0.16 +0.62    -0.481 OA
DOCKED: ATOM     37  H   UNL d   1       6.005   3.806   9.944 -0.30 -0.80    +0.295 HD
DOCKED: ENDBRANCH  34  36
DOCKED: ENDBRANCH  33  34
DOCKED: ENDBRANCH   7  33
DOCKED: BRANCH  27  38
DOCKED: ATOM     38  C   UNL d   1      12.310   7.872   6.386 -0.12 -0.01    +0.017 C 
DOCKED: ATOM     39  C   UNL d   1      13.003   6.775   6.042 +0.02 -0.10    +0.092 C 
DOCKED: BRANCH  39  40
DOCKED: ATOM     40  C   UNL d   1      14.468   6.809   6.040 -0.04 -0.24    +0.330 C 
DOCKED: ATOM     41  O   UNL d   1      15.199   7.393   6.816 -0.02 +0.09    -0.246 OA
DOCKED: BRANCH  40  42
DOCKED: ATOM     42  O   UNL d   1      14.945   6.068   5.028 -0.04 +0.47    -0.477 OA
DOCKED: ATOM     43  H   UNL d   1      14.157   5.890   4.475 -0.48 -0.67    +0.295 HD
DOCKED: ENDBRANCH  40  42
DOCKED: ENDBRANCH  39  40
DOCKED: ENDBRANCH  27  38
DOCKED: BRANCH   8  44
DOCKED: ATOM     44  C   UNL d   1       2.982  12.707   9.334 -0.24 -0.02    +0.141 C 
DOCKED: BRANCH  44  45
DOCKED: ATOM     45  C   UNL d   1       2.199  13.232  10.508 -0.11 -0.10    +0.306 C 
DOCKED: ATOM     46  O   UNL d   1       1.872  14.389  10.705 -0.10 +0.07    -0.251 OA
DOCKED: BRANCH  45  47
DOCKED: ATOM     47  O   UNL d   1       1.890  12.267  11.393 -0.46 -0.01    -0.481 OA
DOCKED: ATOM     48  H   UNL d   1       0.911  12.211  11.367 -0.45 -0.58    +0.295 HD
DOCKED: ENDBRANCH  45  47
DOCKED: ENDBRANCH  44  45
DOCKED: ENDBRANCH   8  44
DOCKED: BRANCH  22  49
DOCKED: ATOM     49  C   UNL d   1      11.501  13.190   4.854 -0.11 -0.00    +0.048 C 
DOCKED: BRANCH  49  50
DOCKED: ATOM     50  C   UNL d   1      11.139  13.358   3.378 -0.18 +0.01    +0.125 C 
DOCKED: BRANCH  50  51
DOCKED: ATOM     51  C   UNL d   1      11.356  14.776   2.931 -0.09 +0.03    +0.305 C 
DOCKED: ATOM     52  O   UNL d   1      11.108  15.257   1.839 -0.17 -0.04    -0.251 OA
DOCKED: BRANCH  51  53
DOCKED: ATOM     53  O   UNL d   1      11.902  15.533   3.903 -0.02 -0.03    -0.481 OA
DOCKED: ATOM     54  H   UNL d   1      12.757  15.827   3.524 +0.04 +0.02    +0.295 HD
DOCKED: ENDBRANCH  51  53
DOCKED: ENDBRANCH  50  51
DOCKED: ENDBRANCH  49  50
DOCKED: ENDBRANCH  22  49
DOCKED: TORSDOF 13
DOCKED: TER
DOCKED: ENDMDL
________________________________________________________________________________


	BEGINNING GENETIC ALGORITHM DOCKING 84 of 100
Run: 84 Seed: 1106041352 1773638902 [ Run 84 of 100 GA/GALS ]
Beginning LAMARCKIAN GENETIC ALGORITHM (LGA), with a maximum of 25000000 energy evaluations.

Final-Value: -12.456


	FINAL GENETIC ALGORITHM DOCKED STATE
	_______________________________________________


Detailed state:  trans 2.839 -3.429 -14.706 quatxyzw -0.154962 -0.981576 -0.110952 -0.013581 center 0.153 0.018 -0.028 ntor 13 -136.1621 -171.3043 -116.2040 -1.0977 30.9469 -55.7695 121.6090 -35.8562 110.4779 -26.6467 60.9156 -13.0798 118.2998
State:	  2.839  -3.429 -14.706  -0.155 -0.982 -0.111 -178.444   -136.16 -171.30 -116.20   -1.10   30.95  -55.77  121.61  -35.86  110.48  -26.65   60.92  -13.08  118.30

DOCKED: MODEL       84
DOCKED: USER    Run = 84
DOCKED: USER    DPF = D:/Protein_go_brrr/autodock/final/AncMH_nat/heme/dock.dpf
DOCKED: USER  
DOCKED: USER    Estimated Free Energy of Binding    =   -4.47 kcal/mol  [=(1)+(2)+(3)-(4)]
DOCKED: USER    Estimated Inhibition Constant, Ki   =  529.55 uM (micromolar)  [Temperature = 298.15 K]
DOCKED: USER    
DOCKED: USER    (1) Final Intermolecular Energy     =   -8.35 kcal/mol
DOCKED: USER        vdW + Hbond + desolv Energy     =   -8.25 kcal/mol
DOCKED: USER        Electrostatic Energy            =   -0.10 kcal/mol
DOCKED: USER    (2) Final Total Internal Energy     =   -4.11 kcal/mol
DOCKED: USER    (3) Torsional Free Energy           =   +3.88 kcal/mol
DOCKED: USER    (4) Unbound System's Energy  [=(2)] =   -4.11 kcal/mol
DOCKED: USER    
DOCKED: USER    
DOCKED: USER    NEWDPF move heme_opt.pdbqt
DOCKED: USER    NEWDPF about 0.153000 0.018000 -0.028000
DOCKED: USER    NEWDPF tran0 2.838548 -3.429325 -14.706075
DOCKED: USER    NEWDPF quaternion0 -0.154962 -0.981576 -0.110952 -0.013581
DOCKED: USER    NEWDPF axisangle0 -0.154976 -0.981667 -0.110962 -178.443671
DOCKED: USER    NEWDPF quat0 -0.154976 -0.981667 -0.110962 -178.443671
DOCKED: USER    NEWDPF dihe0 -136.16 -171.30 -116.20 -1.10 30.95 -55.77 121.61 -35.86 110.48 -26.65 60.92 -13.08 118.30 
DOCKED: USER  keepresnum = 1 
DOCKED: USER  
DOCKED: REMARK  13 active torsions:
DOCKED: REMARK  status: ('A' for Active; 'I' for Inactive)
DOCKED: REMARK    1  A    between atoms: O_3  and  C_38 
DOCKED: REMARK    2  A    between atoms: O_4  and  C_40 
DOCKED: REMARK    3  A    between atoms: O_7  and  C_46 
DOCKED: REMARK    4  A    between atoms: O_9  and  C_48 
DOCKED: REMARK    5  A    between atoms: C_15  and  C_20 
DOCKED: REMARK    6  A    between atoms: C_16  and  C_23 
DOCKED: REMARK    7  A    between atoms: C_20  and  C_38 
DOCKED: REMARK    8  A    between atoms: C_23  and  C_40 
DOCKED: REMARK    9  A    between atoms: C_32  and  C_41 
DOCKED: REMARK   10  A    between atoms: C_37  and  C_45 
DOCKED: REMARK   11  A    between atoms: C_41  and  C_44 
DOCKED: REMARK   12  A    between atoms: C_44  and  C_46 
DOCKED: REMARK   13  A    between atoms: C_47  and  C_48 
DOCKED: USER                              x       y       z     vdW  Elec       q    Type
DOCKED: USER                           _______ _______ _______ _____ _____    ______ ____
DOCKED: ROOT
DOCKED: ATOM      1  O   UNL d   1       8.702  -3.409 -15.320 -0.08 +0.02    -0.289 OA
DOCKED: ATOM      2  O   UNL d   1       3.866  -9.074 -14.364 -0.02 +0.02    -0.289 OA
DOCKED: ATOM      3  N   UNL d   1       5.318  -2.920 -14.865 -0.06 +0.02    -0.247 NA
DOCKED: ATOM      4  N   UNL d   1       4.220  -5.681 -14.885 -0.14 +0.04    -0.247 NA
DOCKED: ATOM      5  N   UNL d   1       1.598  -4.537 -15.167 -0.12 +0.05    -0.354 N 
DOCKED: ATOM      6  N   UNL d   1       2.747  -1.677 -15.165 -0.04 +0.02    -0.354 N 
DOCKED: ATOM      7  C   UNL d   1       7.220  -1.467 -15.394 -0.17 -0.03    +0.084 A 
DOCKED: ATOM      8  C   UNL d   1       5.723  -7.487 -14.212 -0.17 -0.01    +0.084 A 
DOCKED: ATOM      9  C   UNL d   1       5.512  -6.004 -14.534 -0.22 -0.01    +0.058 A 
DOCKED: ATOM     10  C   UNL d   1       5.717  -1.623 -15.140 -0.17 -0.01    +0.058 A 
DOCKED: ATOM     11  C   UNL d   1       7.602  -2.903 -15.196 -0.12 -0.03    +0.193 A 
DOCKED: ATOM     12  C   UNL d   1       6.366  -3.677 -14.855 -0.20 -0.01    +0.109 A 
DOCKED: ATOM     13  C   UNL d   1       4.320  -7.953 -14.482 -0.01 -0.01    +0.193 A 
DOCKED: ATOM     14  C   UNL d   1       7.519  -1.070 -16.841 -0.07 -0.01    +0.026 C 
DOCKED: ATOM     15  C   UNL d   1       6.513  -5.109 -14.523 -0.26 -0.00    +0.055 C 
DOCKED: ATOM     16  C   UNL d   1       6.039  -7.707 -12.730 -0.30 -0.00    +0.026 C 
DOCKED: ATOM     17  C   UNL d   1       3.511  -6.764 -14.889 -0.14 -0.01    +0.109 A 
DOCKED: ATOM     18  C   UNL d   1       4.896  -0.557 -15.103 -0.21 -0.01    +0.050 C 
DOCKED: ATOM     19  C   UNL d   1       3.513  -0.595 -14.794 -0.04 -0.00    +0.045 A 
DOCKED: ATOM     20  C   UNL d   1       1.303  -5.858 -15.386 -0.21 -0.00    +0.045 A 
DOCKED: ATOM     21  C   UNL d   1       2.098  -6.925 -15.260 -0.17 -0.01    +0.057 C 
DOCKED: ATOM     22  C   UNL d   1      -0.562  -4.607 -15.804 -0.15 +0.00    -0.019 A 
DOCKED: ATOM     23  C   UNL d   1       0.534  -3.705 -15.394 -0.20 -0.00    +0.045 A 
DOCKED: ATOM     24  C   UNL d   1      -0.100  -5.880 -15.796 -0.17 +0.00    -0.022 A 
DOCKED: ATOM     25  C   UNL d   1       1.425  -1.465 -14.848 -0.21 -0.00    +0.049 A 
DOCKED: ATOM     26  C   UNL d   1       2.674   0.327 -14.187 -0.26 +0.00    -0.018 A 
DOCKED: ATOM     27  C   UNL d   1       1.360  -0.236 -14.207 -0.27 -0.00    +0.003 A 
DOCKED: ATOM     28  C   UNL d   1       0.419  -2.374 -15.275 -0.21 -0.00    +0.052 C 
DOCKED: ATOM     29  C   UNL d   1      -0.830  -7.138 -16.122 -0.12 -0.00    +0.046 C 
DOCKED: ATOM     30  C   UNL d   1       3.066   1.650 -13.621 -0.40 -0.01    +0.046 C 
DOCKED: ATOM     31  H   UNL d   1       2.498  -4.253 -14.797 -0.07 -0.03    +0.166 HD
DOCKED: ATOM     32  H   UNL d   1       3.119  -2.489 -15.643 +0.05 -0.01    +0.166 HD
DOCKED: ENDROOT
DOCKED: BRANCH   7  33
DOCKED: ATOM     33  C   UNL d   1       7.965  -0.570 -14.399 -0.15 -0.09    +0.141 C 
DOCKED: BRANCH  33  34
DOCKED: ATOM     34  C   UNL d   1       9.442  -0.854 -14.357 -0.07 -0.21    +0.306 C 
DOCKED: ATOM     35  O   UNL d   1      10.287  -0.387 -15.102 -0.15 +0.24    -0.251 OA
DOCKED: BRANCH  34  36
DOCKED: ATOM     36  O   UNL d   1       9.777  -1.710 -13.375 -0.16 +0.10    -0.481 OA
DOCKED: ATOM     37  H   UNL d   1       9.073  -2.393 -13.392 +0.01 -0.02    +0.295 HD
DOCKED: ENDBRANCH  34  36
DOCKED: ENDBRANCH  33  34
DOCKED: ENDBRANCH   7  33
DOCKED: BRANCH  27  38
DOCKED: ATOM     38  C   UNL d   1       0.183   0.397 -13.693 -0.34 -0.00    +0.017 C 
DOCKED: ATOM     39  C   UNL d   1      -0.928  -0.241 -13.294 -0.35 -0.00    +0.092 C 
DOCKED: BRANCH  39  40
DOCKED: ATOM     40  C   UNL d   1      -2.061   0.525 -12.769 -0.27 +0.02    +0.330 C 
DOCKED: ATOM     41  O   UNL d   1      -2.068   1.286 -11.820 -1.40 -0.06    -0.246 OA
DOCKED: BRANCH  40  42
DOCKED: ATOM     42  O   UNL d   1      -3.159   0.286 -13.502 -0.19 -0.00    -0.477 OA
DOCKED: ATOM     43  H   UNL d   1      -2.893  -0.449 -14.092 +0.09 -0.00    +0.295 HD
DOCKED: ENDBRANCH  40  42
DOCKED: ENDBRANCH  39  40
DOCKED: ENDBRANCH  27  38
DOCKED: BRANCH   8  44
DOCKED: ATOM     44  C   UNL d   1       6.727  -8.220 -15.108 -0.06 -0.01    +0.141 C 
DOCKED: BRANCH  44  45
DOCKED: ATOM     45  C   UNL d   1       6.177  -8.553 -16.469 -0.01 -0.02    +0.306 C 
DOCKED: ATOM     46  O   UNL d   1       6.043  -7.785 -17.406 -0.01 +0.02    -0.251 OA
DOCKED: BRANCH  45  47
DOCKED: ATOM     47  O   UNL d   1       5.796  -9.839 -16.570 +0.00 +0.04    -0.481 OA
DOCKED: ATOM     48  H   UNL d   1       5.071  -9.935 -15.918 +0.03 -0.02    +0.295 HD
DOCKED: ENDBRANCH  45  47
DOCKED: ENDBRANCH  44  45
DOCKED: ENDBRANCH   8  44
DOCKED: BRANCH  22  49
DOCKED: ATOM     49  C   UNL d   1      -1.939  -4.143 -16.176 -0.10 -0.00    +0.048 C 
DOCKED: BRANCH  49  50
DOCKED: ATOM     50  C   UNL d   1      -1.911  -2.795 -16.895 -0.09 -0.00    +0.125 C 
DOCKED: BRANCH  50  51
DOCKED: ATOM     51  C   UNL d   1      -2.661  -1.754 -16.113 -0.08 -0.01    +0.305 C 
DOCKED: ATOM     52  O   UNL d   1      -3.727  -1.882 -15.537 -0.08 -0.01    -0.251 OA
DOCKED: BRANCH  51  53
DOCKED: ATOM     53  O   UNL d   1      -2.019  -0.569 -16.106 -0.02 +0.02    -0.481 OA
DOCKED: ATOM     54  H   UNL d   1      -2.612   0.020 -15.595 +0.06 -0.01    +0.295 HD
DOCKED: ENDBRANCH  51  53
DOCKED: ENDBRANCH  50  51
DOCKED: ENDBRANCH  49  50
DOCKED: ENDBRANCH  22  49
DOCKED: TORSDOF 13
DOCKED: TER
DOCKED: ENDMDL
________________________________________________________________________________


	BEGINNING GENETIC ALGORITHM DOCKING 85 of 100
Run: 85 Seed: 2103343658 2087138557 [ Run 85 of 100 GA/GALS ]
Beginning LAMARCKIAN GENETIC ALGORITHM (LGA), with a maximum of 25000000 energy evaluations.

Final-Value: -10.601


	FINAL GENETIC ALGORITHM DOCKED STATE
	_______________________________________________


Detailed state:  trans -12.205 10.666 -5.712 quatxyzw 0.857278 -0.315514 -0.238599 -0.329539 center 0.153 0.018 -0.028 ntor 13 28.6971 -109.0130 -142.0644 47.0406 30.5461 -165.9622 128.3871 -19.7904 57.8021 -14.1031 4.8134 35.9667 143.7274
State:	-12.205  10.666  -5.712   0.908 -0.334 -0.253 -141.518     28.70 -109.01 -142.06   47.04   30.55 -165.96  128.39  -19.79   57.80  -14.10    4.81   35.97  143.73

DOCKED: MODEL       85
DOCKED: USER    Run = 85
DOCKED: USER    DPF = D:/Protein_go_brrr/autodock/final/AncMH_nat/heme/dock.dpf
DOCKED: USER  
DOCKED: USER    Estimated Free Energy of Binding    =   -5.01 kcal/mol  [=(1)+(2)+(3)-(4)]
DOCKED: USER    Estimated Inhibition Constant, Ki   =  213.08 uM (micromolar)  [Temperature = 298.15 K]
DOCKED: USER    
DOCKED: USER    (1) Final Intermolecular Energy     =   -8.89 kcal/mol
DOCKED: USER        vdW + Hbond + desolv Energy     =   -8.17 kcal/mol
DOCKED: USER        Electrostatic Energy            =   -0.71 kcal/mol
DOCKED: USER    (2) Final Total Internal Energy     =   -1.71 kcal/mol
DOCKED: USER    (3) Torsional Free Energy           =   +3.88 kcal/mol
DOCKED: USER    (4) Unbound System's Energy  [=(2)] =   -1.71 kcal/mol
DOCKED: USER    
DOCKED: USER    
DOCKED: USER    NEWDPF move heme_opt.pdbqt
DOCKED: USER    NEWDPF about 0.153000 0.018000 -0.028000
DOCKED: USER    NEWDPF tran0 -12.204733 10.665779 -5.711900
DOCKED: USER    NEWDPF quaternion0 0.857278 -0.315514 -0.238599 -0.329539
DOCKED: USER    NEWDPF axisangle0 0.907997 -0.334181 -0.252716 -141.518382
DOCKED: USER    NEWDPF quat0 0.907997 -0.334181 -0.252716 -141.518382
DOCKED: USER    NEWDPF dihe0 28.70 -109.01 -142.06 47.04 30.55 -165.96 128.39 -19.79 57.80 -14.10 4.81 35.97 143.73 
DOCKED: USER  keepresnum = 1 
DOCKED: USER  
DOCKED: REMARK  13 active torsions:
DOCKED: REMARK  status: ('A' for Active; 'I' for Inactive)
DOCKED: REMARK    1  A    between atoms: O_3  and  C_38 
DOCKED: REMARK    2  A    between atoms: O_4  and  C_40 
DOCKED: REMARK    3  A    between atoms: O_7  and  C_46 
DOCKED: REMARK    4  A    between atoms: O_9  and  C_48 
DOCKED: REMARK    5  A    between atoms: C_15  and  C_20 
DOCKED: REMARK    6  A    between atoms: C_16  and  C_23 
DOCKED: REMARK    7  A    between atoms: C_20  and  C_38 
DOCKED: REMARK    8  A    between atoms: C_23  and  C_40 
DOCKED: REMARK    9  A    between atoms: C_32  and  C_41 
DOCKED: REMARK   10  A    between atoms: C_37  and  C_45 
DOCKED: REMARK   11  A    between atoms: C_41  and  C_44 
DOCKED: REMARK   12  A    between atoms: C_44  and  C_46 
DOCKED: REMARK   13  A    between atoms: C_47  and  C_48 
DOCKED: USER                              x       y       z     vdW  Elec       q    Type
DOCKED: USER                           _______ _______ _______ _____ _____    ______ ____
DOCKED: ROOT
DOCKED: ATOM      1  O   UNL d   1     -17.108  13.329  -3.808 -0.02 +0.01    -0.289 OA
DOCKED: ATOM      2  O   UNL d   1     -11.196  16.004  -7.589 -0.10 -0.03    -0.289 OA
DOCKED: ATOM      3  N   UNL d   1     -14.365  11.394  -4.599 -0.07 +0.00    -0.247 NA
DOCKED: ATOM      4  N   UNL d   1     -12.734  13.189  -6.316 -0.12 +0.03    -0.247 NA
DOCKED: ATOM      5  N   UNL d   1     -11.183  10.893  -7.085 -0.13 +0.08    -0.354 N 
DOCKED: ATOM      6  N   UNL d   1     -12.892   9.034  -5.317 -0.06 +0.02    -0.354 N 
DOCKED: ATOM      7  C   UNL d   1     -16.554  10.959  -3.586 -0.07 -0.00    +0.084 A 
DOCKED: ATOM      8  C   UNL d   1     -13.007  15.596  -5.993 -0.09 +0.00    +0.084 A 
DOCKED: ATOM      9  C   UNL d   1     -13.448  14.167  -5.659 -0.14 -0.00    +0.058 A 
DOCKED: ATOM     10  C   UNL d   1     -15.200  10.427  -4.066 -0.01 +0.00    +0.058 A 
DOCKED: ATOM     11  C   UNL d   1     -16.329  12.401  -3.927 -0.06 -0.01    +0.193 A 
DOCKED: ATOM     12  C   UNL d   1     -14.956  12.540  -4.510 -0.11 -0.00    +0.109 A 
DOCKED: ATOM     13  C   UNL d   1     -11.936  15.249  -6.989 -0.10 +0.01    +0.193 A 
DOCKED: ATOM     14  C   UNL d   1     -17.713  10.425  -4.432 -0.03 +0.00    +0.026 C 
DOCKED: ATOM     15  C   UNL d   1     -14.474  13.897  -4.838 -0.14 -0.00    +0.055 C 
DOCKED: ATOM     16  C   UNL d   1     -12.356  16.285  -4.790 -0.20 +0.00    +0.026 C 
DOCKED: ATOM     17  C   UNL d   1     -11.876  13.760  -7.099 -0.12 -0.01    +0.109 A 
DOCKED: ATOM     18  C   UNL d   1     -14.847   9.140  -3.886 -0.06 +0.00    +0.050 C 
DOCKED: ATOM     19  C   UNL d   1     -13.588   8.579  -4.219 -0.07 +0.00    +0.045 A 
DOCKED: ATOM     20  C   UNL d   1     -10.700  11.814  -7.978 -0.23 -0.01    +0.045 A 
DOCKED: ATOM     21  C   UNL d   1     -10.941  13.127  -8.041 -0.16 -0.01    +0.057 C 
DOCKED: ATOM     22  C   UNL d   1      -9.845   9.760  -8.498 -0.28 +0.00    -0.019 A 
DOCKED: ATOM     23  C   UNL d   1     -10.723   9.625  -7.319 -0.26 -0.01    +0.045 A 
DOCKED: ATOM     24  C   UNL d   1      -9.835  11.059  -8.883 -0.31 +0.00    -0.022 A 
DOCKED: ATOM     25  C   UNL d   1     -11.749   8.294  -5.506 -0.22 -0.01    +0.049 A 
DOCKED: ATOM     26  C   UNL d   1     -12.859   7.540  -3.660 -0.21 -0.00    -0.018 A 
DOCKED: ATOM     27  C   UNL d   1     -11.690   7.377  -4.465 -0.25 -0.00    +0.003 A 
DOCKED: ATOM     28  C   UNL d   1     -10.947   8.475  -6.666 -0.26 -0.01    +0.052 C 
DOCKED: ATOM     29  C   UNL d   1      -9.092  11.692 -10.010 -0.27 -0.01    +0.046 C 
DOCKED: ATOM     30  C   UNL d   1     -13.224   6.747  -2.451 -0.28 +0.01    +0.046 C 
DOCKED: ATOM     31  H   UNL d   1     -11.756  11.175  -6.297 -0.07 -0.04    +0.166 HD
DOCKED: ATOM     32  H   UNL d   1     -13.217   9.786  -5.913 +0.04 -0.01    +0.166 HD
DOCKED: ENDROOT
DOCKED: BRANCH   7  33
DOCKED: ATOM     33  C   UNL d   1     -16.830  10.797  -2.087 -0.11 -0.01    +0.141 C 
DOCKED: BRANCH  33  34
DOCKED: ATOM     34  C   UNL d   1     -16.712  12.093  -1.333 -0.11 -0.10    +0.306 C 
DOCKED: ATOM     35  O   UNL d   1     -17.587  12.934  -1.205 -0.06 +0.08    -0.251 OA
DOCKED: BRANCH  34  36
DOCKED: ATOM     36  O   UNL d   1     -15.499  12.262  -0.778 -0.10 +0.32    -0.481 OA
DOCKED: ATOM     37  H   UNL d   1     -15.659  12.854  -0.012 -0.39 -0.54    +0.295 HD
DOCKED: ENDBRANCH  34  36
DOCKED: ENDBRANCH  33  34
DOCKED: ENDBRANCH   7  33
DOCKED: BRANCH  27  38
DOCKED: ATOM     38  C   UNL d   1     -10.668   6.398  -4.248 -0.32 -0.00    +0.017 C 
DOCKED: ATOM     39  C   UNL d   1      -9.437   6.654  -3.778 -0.40 -0.03    +0.092 C 
DOCKED: BRANCH  39  40
DOCKED: ATOM     40  C   UNL d   1      -8.487   5.556  -3.584 -0.28 -0.10    +0.330 C 
DOCKED: ATOM     41  O   UNL d   1      -7.426   5.587  -2.990 -0.41 +0.05    -0.246 OA
DOCKED: BRANCH  40  42
DOCKED: ATOM     42  O   UNL d   1      -8.949   4.437  -4.164 -0.11 +0.25    -0.477 OA
DOCKED: ATOM     43  H   UNL d   1      -8.869   4.619  -5.123 -0.34 -0.41    +0.295 HD
DOCKED: ENDBRANCH  40  42
DOCKED: ENDBRANCH  39  40
DOCKED: ENDBRANCH  27  38
DOCKED: BRANCH   8  44
DOCKED: ATOM     44  C   UNL d   1     -14.080  16.486  -6.629 -0.02 +0.01    +0.141 C 
DOCKED: BRANCH  44  45
DOCKED: ATOM     45  C   UNL d   1     -14.538  15.996  -7.976 -0.00 +0.00    +0.306 C 
DOCKED: ATOM     46  O   UNL d   1     -15.391  15.153  -8.191 -0.00 -0.00    -0.251 OA
DOCKED: BRANCH  45  47
DOCKED: ATOM     47  O   UNL d   1     -13.871  16.578  -8.990 +0.01 -0.01    -0.481 OA
DOCKED: ATOM     48  H   UNL d   1     -12.952  16.671  -8.660 +0.02 +0.01    +0.295 HD
DOCKED: ENDBRANCH  45  47
DOCKED: ENDBRANCH  44  45
DOCKED: ENDBRANCH   8  44
DOCKED: BRANCH  22  49
DOCKED: ATOM     49  C   UNL d   1      -9.116   8.617  -9.142 -0.30 -0.02    +0.048 C 
DOCKED: BRANCH  49  50
DOCKED: ATOM     50  C   UNL d   1     -10.079   7.545  -9.652 -0.18 -0.06    +0.125 C 
DOCKED: BRANCH  50  51
DOCKED: ATOM     51  C   UNL d   1      -9.327   6.351 -10.167 -0.12 -0.26    +0.305 C 
DOCKED: ATOM     52  O   UNL d   1      -8.193   6.322 -10.613 -0.29 +0.23    -0.251 OA
DOCKED: BRANCH  51  53
DOCKED: ATOM     53  O   UNL d   1     -10.065   5.225 -10.106 -0.06 +0.54    -0.481 OA
DOCKED: ATOM     54  H   UNL d   1      -9.458   4.563  -9.713 -0.15 -0.68    +0.295 HD
DOCKED: ENDBRANCH  51  53
DOCKED: ENDBRANCH  50  51
DOCKED: ENDBRANCH  49  50
DOCKED: ENDBRANCH  22  49
DOCKED: TORSDOF 13
DOCKED: TER
DOCKED: ENDMDL
________________________________________________________________________________


	BEGINNING GENETIC ALGORITHM DOCKING 86 of 100
Run: 86 Seed: 1515236650 752333320 [ Run 86 of 100 GA/GALS ]
Beginning LAMARCKIAN GENETIC ALGORITHM (LGA), with a maximum of 25000000 energy evaluations.

Final-Value: -12.288


	FINAL GENETIC ALGORITHM DOCKED STATE
	_______________________________________________


Detailed state:  trans -8.949 14.863 15.515 quatxyzw -0.013892 -0.038269 0.842677 -0.536878 center 0.153 0.018 -0.028 ntor 13 -69.1022 -177.2640 107.0821 39.6760 35.6116 46.7476 -61.6449 -126.4013 119.0205 -147.8965 -94.9839 -48.9034 -37.6373
State:	 -8.949  14.863  15.515  -0.016 -0.045  0.999 -115.057    -69.10 -177.26  107.08   39.68   35.61   46.75  -61.64 -126.40  119.02 -147.90  -94.98  -48.90  -37.64

DOCKED: MODEL       86
DOCKED: USER    Run = 86
DOCKED: USER    DPF = D:/Protein_go_brrr/autodock/final/AncMH_nat/heme/dock.dpf
DOCKED: USER  
DOCKED: USER    Estimated Free Energy of Binding    =   -5.11 kcal/mol  [=(1)+(2)+(3)-(4)]
DOCKED: USER    Estimated Inhibition Constant, Ki   =  178.93 uM (micromolar)  [Temperature = 298.15 K]
DOCKED: USER    
DOCKED: USER    (1) Final Intermolecular Energy     =   -8.99 kcal/mol
DOCKED: USER        vdW + Hbond + desolv Energy     =   -8.54 kcal/mol
DOCKED: USER        Electrostatic Energy            =   -0.46 kcal/mol
DOCKED: USER    (2) Final Total Internal Energy     =   -3.30 kcal/mol
DOCKED: USER    (3) Torsional Free Energy           =   +3.88 kcal/mol
DOCKED: USER    (4) Unbound System's Energy  [=(2)] =   -3.30 kcal/mol
DOCKED: USER    
DOCKED: USER    
DOCKED: USER    NEWDPF move heme_opt.pdbqt
DOCKED: USER    NEWDPF about 0.153000 0.018000 -0.028000
DOCKED: USER    NEWDPF tran0 -8.949361 14.863408 15.514764
DOCKED: USER    NEWDPF quaternion0 -0.013892 -0.038269 0.842677 -0.536878
DOCKED: USER    NEWDPF axisangle0 -0.016466 -0.045361 0.998835 -115.057229
DOCKED: USER    NEWDPF quat0 -0.016466 -0.045361 0.998835 -115.057229
DOCKED: USER    NEWDPF dihe0 -69.10 -177.26 107.08 39.68 35.61 46.75 -61.64 -126.40 119.02 -147.90 -94.98 -48.90 -37.64 
DOCKED: USER  keepresnum = 1 
DOCKED: USER  
DOCKED: REMARK  13 active torsions:
DOCKED: REMARK  status: ('A' for Active; 'I' for Inactive)
DOCKED: REMARK    1  A    between atoms: O_3  and  C_38 
DOCKED: REMARK    2  A    between atoms: O_4  and  C_40 
DOCKED: REMARK    3  A    between atoms: O_7  and  C_46 
DOCKED: REMARK    4  A    between atoms: O_9  and  C_48 
DOCKED: REMARK    5  A    between atoms: C_15  and  C_20 
DOCKED: REMARK    6  A    between atoms: C_16  and  C_23 
DOCKED: REMARK    7  A    between atoms: C_20  and  C_38 
DOCKED: REMARK    8  A    between atoms: C_23  and  C_40 
DOCKED: REMARK    9  A    between atoms: C_32  and  C_41 
DOCKED: REMARK   10  A    between atoms: C_37  and  C_45 
DOCKED: REMARK   11  A    between atoms: C_41  and  C_44 
DOCKED: REMARK   12  A    between atoms: C_44  and  C_46 
DOCKED: REMARK   13  A    between atoms: C_47  and  C_48 
DOCKED: USER                              x       y       z     vdW  Elec       q    Type
DOCKED: USER                           _______ _______ _______ _____ _____    ______ ____
DOCKED: ROOT
DOCKED: ATOM      1  O   UNL d   1      -8.143   9.038  15.927 -0.17 +0.09    -0.289 OA
DOCKED: ATOM      2  O   UNL d   1      -3.344  14.573  14.279 -0.09 +0.00    -0.289 OA
DOCKED: ATOM      3  N   UNL d   1      -9.115  12.337  15.666 -0.16 +0.07    -0.247 NA
DOCKED: ATOM      4  N   UNL d   1      -6.543  13.779  15.301 -0.16 +0.06    -0.247 NA
DOCKED: ATOM      5  N   UNL d   1      -7.946  16.230  15.842 -0.13 +0.17    -0.354 N 
DOCKED: ATOM      6  N   UNL d   1     -10.606  14.723  16.239 -0.01 +0.21    -0.354 N 
DOCKED: ATOM      7  C   UNL d   1     -10.220  10.258  16.347 -0.16 -0.01    +0.084 A 
DOCKED: ATOM      8  C   UNL d   1      -4.691  12.530  14.310 -0.27 -0.01    +0.084 A 
DOCKED: ATOM      9  C   UNL d   1      -6.121  12.545  14.861 -0.28 -0.01    +0.058 A 
DOCKED: ATOM     10  C   UNL d   1     -10.293  11.771  16.123 -0.19 -0.01    +0.058 A 
DOCKED: ATOM     11  C   UNL d   1      -8.796  10.066  15.919 -0.18 -0.04    +0.193 A 
DOCKED: ATOM     12  C   UNL d   1      -8.244  11.395  15.505 -0.23 -0.02    +0.109 A 
DOCKED: ATOM     13  C   UNL d   1      -4.367  13.977  14.552 -0.13 -0.02    +0.193 A 
DOCKED: ATOM     14  C   UNL d   1     -10.345   9.890  17.828 -0.08 -0.00    +0.026 C 
DOCKED: ATOM     15  C   UNL d   1      -6.874  11.438  14.954 -0.21 -0.01    +0.055 C 
DOCKED: ATOM     16  C   UNL d   1      -4.667  12.266  12.801 -0.46 -0.00    +0.026 C 
DOCKED: ATOM     17  C   UNL d   1      -5.569  14.621  15.163 -0.19 -0.01    +0.109 A 
DOCKED: ATOM     18  C   UNL d   1     -11.446  12.449  16.278 -0.15 -0.01    +0.050 C 
DOCKED: ATOM     19  C   UNL d   1     -11.629  13.830  16.012 -0.13 -0.02    +0.045 A 
DOCKED: ATOM     20  C   UNL d   1      -6.655  16.688  15.866 -0.20 -0.01    +0.045 A 
DOCKED: ATOM     21  C   UNL d   1      -5.529  16.038  15.552 -0.20 -0.00    +0.057 C 
DOCKED: ATOM     22  C   UNL d   1      -8.048  18.371  16.533 -0.16 +0.01    -0.019 A 
DOCKED: ATOM     23  C   UNL d   1      -8.859  17.175  16.230 -0.19 -0.03    +0.045 A 
DOCKED: ATOM     24  C   UNL d   1      -6.744  18.077  16.315 -0.15 +0.00    -0.022 A 
DOCKED: ATOM     25  C   UNL d   1     -11.028  16.011  16.003 -0.12 -0.04    +0.049 A 
DOCKED: ATOM     26  C   UNL d   1     -12.732  14.552  15.583 -0.12 +0.01    -0.018 A 
DOCKED: ATOM     27  C   UNL d   1     -12.341  15.927  15.560 -0.17 -0.00    +0.003 A 
DOCKED: ATOM     28  C   UNL d   1     -10.196  17.120  16.319 -0.17 -0.04    +0.052 C 
DOCKED: ATOM     29  C   UNL d   1      -5.551  18.957  16.469 -0.09 -0.00    +0.046 C 
DOCKED: ATOM     30  C   UNL d   1     -14.068  14.002  15.213 -0.07 -0.01    +0.046 C 
DOCKED: ATOM     31  H   UNL d   1      -8.170  15.305  15.490 -0.41 -0.12    +0.166 HD
DOCKED: ATOM     32  H   UNL d   1      -9.690  14.452  16.574 -0.12 -0.08    +0.166 HD
DOCKED: ENDROOT
DOCKED: BRANCH   7  33
DOCKED: ATOM     33  C   UNL d   1     -11.161   9.418  15.477 -0.23 -0.02    +0.141 C 
DOCKED: BRANCH  33  34
DOCKED: ATOM     34  C   UNL d   1     -10.824   7.952  15.507 -0.27 -0.05    +0.306 C 
DOCKED: ATOM     35  O   UNL d   1     -11.261   7.128  16.293 -0.20 +0.04    -0.251 OA
DOCKED: BRANCH  34  36
DOCKED: ATOM     36  O   UNL d   1      -9.954   7.600  14.544 -0.25 +0.14    -0.481 OA
DOCKED: ATOM     37  H   UNL d   1      -9.116   7.422  15.021 +0.13 -0.10    +0.295 HD
DOCKED: ENDBRANCH  34  36
DOCKED: ENDBRANCH  33  34
DOCKED: ENDBRANCH   7  33
DOCKED: BRANCH  27  38
DOCKED: ATOM     38  C   UNL d   1     -13.187  17.020  15.188 -0.13 -0.01    +0.017 C 
DOCKED: ATOM     39  C   UNL d   1     -12.907  18.318  15.384 +0.06 -0.10    +0.092 C 
DOCKED: BRANCH  39  40
DOCKED: ATOM     40  C   UNL d   1     -13.854  19.344  14.939 -0.04 -0.23    +0.330 C 
DOCKED: ATOM     41  O   UNL d   1     -15.062  19.353  15.082 -0.01 +0.09    -0.246 OA
DOCKED: BRANCH  40  42
DOCKED: ATOM     42  O   UNL d   1     -13.200  20.341  14.325 -0.05 +0.43    -0.477 OA
DOCKED: ATOM     43  H   UNL d   1     -12.266  20.046  14.327 -0.51 -0.53    +0.295 HD
DOCKED: ENDBRANCH  40  42
DOCKED: ENDBRANCH  39  40
DOCKED: ENDBRANCH  27  38
DOCKED: BRANCH   8  44
DOCKED: ATOM     44  C   UNL d   1      -3.708  11.616  15.048 -0.19 -0.03    +0.141 C 
DOCKED: BRANCH  44  45
DOCKED: ATOM     45  C   UNL d   1      -2.469  11.309  14.251 -0.17 -0.10    +0.306 C 
DOCKED: ATOM     46  O   UNL d   1      -2.203  10.256  13.697 -0.31 +0.11    -0.251 OA
DOCKED: BRANCH  45  47
DOCKED: ATOM     47  O   UNL d   1      -1.609  12.343  14.216 -0.06 +0.17    -0.481 OA
DOCKED: ATOM     48  H   UNL d   1      -2.024  12.990  13.606 +0.10 -0.14    +0.295 HD
DOCKED: ENDBRANCH  45  47
DOCKED: ENDBRANCH  44  45
DOCKED: ENDBRANCH   8  44
DOCKED: BRANCH  22  49
DOCKED: ATOM     49  C   UNL d   1      -8.615  19.673  17.018 -0.09 -0.02    +0.048 C 
DOCKED: BRANCH  49  50
DOCKED: ATOM     50  C   UNL d   1      -8.278  20.827  16.074 -0.09 -0.04    +0.125 C 
DOCKED: BRANCH  50  51
DOCKED: ATOM     51  C   UNL d   1      -9.284  20.923  14.963 -0.04 -0.24    +0.305 C 
DOCKED: ATOM     52  O   UNL d   1      -9.065  21.045  13.770 -0.14 +0.20    -0.251 OA
DOCKED: BRANCH  51  53
DOCKED: ATOM     53  O   UNL d   1     -10.550  20.873  15.423 -0.04 +0.46    -0.481 OA
DOCKED: ATOM     54  H   UNL d   1     -11.023  20.327  14.760 -0.46 -0.59    +0.295 HD
DOCKED: ENDBRANCH  51  53
DOCKED: ENDBRANCH  50  51
DOCKED: ENDBRANCH  49  50
DOCKED: ENDBRANCH  22  49
DOCKED: TORSDOF 13
DOCKED: TER
DOCKED: ENDMDL
________________________________________________________________________________


	BEGINNING GENETIC ALGORITHM DOCKING 87 of 100
Run: 87 Seed: 782852499 73296948 [ Run 87 of 100 GA/GALS ]
Beginning LAMARCKIAN GENETIC ALGORITHM (LGA), with a maximum of 25000000 energy evaluations.

Final-Value: -10.175


	FINAL GENETIC ALGORITHM DOCKED STATE
	_______________________________________________


Detailed state:  trans -15.205 10.573 -1.961 quatxyzw 0.246591 0.765580 -0.235118 0.545710 center 0.153 0.018 -0.028 ntor 13 161.0752 114.6045 -180.0000 -87.7870 -150.6143 174.0653 141.7153 -88.0406 2.1938 -19.5265 -142.8799 -88.0059 148.3896
State:	-15.205  10.573  -1.961   0.294  0.914 -0.281 113.854    161.08  114.60 -180.00  -87.79 -150.61  174.07  141.72  -88.04    2.19  -19.53 -142.88  -88.01  148.39

DOCKED: MODEL       87
DOCKED: USER    Run = 87
DOCKED: USER    DPF = D:/Protein_go_brrr/autodock/final/AncMH_nat/heme/dock.dpf
DOCKED: USER  
DOCKED: USER    Estimated Free Energy of Binding    =   -3.62 kcal/mol  [=(1)+(2)+(3)-(4)]
DOCKED: USER    Estimated Inhibition Constant, Ki   =    2.22 mM (millimolar)  [Temperature = 298.15 K]
DOCKED: USER    
DOCKED: USER    (1) Final Intermolecular Energy     =   -7.50 kcal/mol
DOCKED: USER        vdW + Hbond + desolv Energy     =   -6.66 kcal/mol
DOCKED: USER        Electrostatic Energy            =   -0.83 kcal/mol
DOCKED: USER    (2) Final Total Internal Energy     =   -2.68 kcal/mol
DOCKED: USER    (3) Torsional Free Energy           =   +3.88 kcal/mol
DOCKED: USER    (4) Unbound System's Energy  [=(2)] =   -2.68 kcal/mol
DOCKED: USER    
DOCKED: USER    
DOCKED: USER    NEWDPF move heme_opt.pdbqt
DOCKED: USER    NEWDPF about 0.153000 0.018000 -0.028000
DOCKED: USER    NEWDPF tran0 -15.204605 10.572707 -1.960903
DOCKED: USER    NEWDPF quaternion0 0.246591 0.765580 -0.235118 0.545710
DOCKED: USER    NEWDPF axisangle0 0.294270 0.913608 -0.280580 113.853603
DOCKED: USER    NEWDPF quat0 0.294270 0.913608 -0.280580 113.853603
DOCKED: USER    NEWDPF dihe0 161.08 114.60 -180.00 -87.79 -150.61 174.07 141.72 -88.04 2.19 -19.53 -142.88 -88.01 148.39 
DOCKED: USER  keepresnum = 1 
DOCKED: USER  
DOCKED: REMARK  13 active torsions:
DOCKED: REMARK  status: ('A' for Active; 'I' for Inactive)
DOCKED: REMARK    1  A    between atoms: O_3  and  C_38 
DOCKED: REMARK    2  A    between atoms: O_4  and  C_40 
DOCKED: REMARK    3  A    between atoms: O_7  and  C_46 
DOCKED: REMARK    4  A    between atoms: O_9  and  C_48 
DOCKED: REMARK    5  A    between atoms: C_15  and  C_20 
DOCKED: REMARK    6  A    between atoms: C_16  and  C_23 
DOCKED: REMARK    7  A    between atoms: C_20  and  C_38 
DOCKED: REMARK    8  A    between atoms: C_23  and  C_40 
DOCKED: REMARK    9  A    between atoms: C_32  and  C_41 
DOCKED: REMARK   10  A    between atoms: C_37  and  C_45 
DOCKED: REMARK   11  A    between atoms: C_41  and  C_44 
DOCKED: REMARK   12  A    between atoms: C_44  and  C_46 
DOCKED: REMARK   13  A    between atoms: C_47  and  C_48 
DOCKED: USER                              x       y       z     vdW  Elec       q    Type
DOCKED: USER                           _______ _______ _______ _____ _____    ______ ____
DOCKED: ROOT
DOCKED: ATOM      1  O   UNL d   1     -14.030   8.252  -7.252 -0.01 +0.02    -0.289 OA
DOCKED: ATOM      2  O   UNL d   1     -13.537   5.310  -0.360 -0.04 -0.29    -0.289 OA
DOCKED: ATOM      3  N   UNL d   1     -14.706  10.063  -4.395 -0.05 -0.01    -0.247 NA
DOCKED: ATOM      4  N   UNL d   1     -14.544   8.024  -2.240 -0.12 -0.04    -0.247 NA
DOCKED: ATOM      5  N   UNL d   1     -15.803   9.917  -0.480 -0.08 +0.03    -0.354 N 
DOCKED: ATOM      6  N   UNL d   1     -15.985  12.020  -2.727 -0.05 +0.04    -0.354 N 
DOCKED: ATOM      7  C   UNL d   1     -14.900  10.491  -6.800 -0.04 -0.00    +0.084 A 
DOCKED: ATOM      8  C   UNL d   1     -13.132   6.072  -2.651 -0.17 +0.02    +0.084 A 
DOCKED: ATOM      9  C   UNL d   1     -13.770   7.366  -3.169 -0.17 +0.01    +0.058 A 
DOCKED: ATOM     10  C   UNL d   1     -15.083  10.981  -5.361 -0.09 -0.00    +0.058 A 
DOCKED: ATOM     11  C   UNL d   1     -14.336   9.141  -6.478 -0.04 -0.01    +0.193 A 
DOCKED: ATOM     12  C   UNL d   1     -14.243   9.011  -4.989 -0.09 +0.00    +0.109 A 
DOCKED: ATOM     13  C   UNL d   1     -13.719   6.098  -1.268 -0.23 +0.10    +0.193 A 
DOCKED: ATOM     14  C   UNL d   1     -16.240  10.310  -7.519 -0.01 -0.00    +0.026 C 
DOCKED: ATOM     15  C   UNL d   1     -13.626   7.790  -4.434 -0.15 +0.00    +0.055 C 
DOCKED: ATOM     16  C   UNL d   1     -11.609   6.193  -2.543 -0.35 +0.00    +0.026 C 
DOCKED: ATOM     17  C   UNL d   1     -14.560   7.327  -1.149 -0.26 +0.03    +0.109 A 
DOCKED: ATOM     18  C   UNL d   1     -15.491  12.235  -5.091 -0.10 -0.00    +0.050 C 
DOCKED: ATOM     19  C   UNL d   1     -15.608  12.802  -3.796 -0.12 -0.00    +0.045 A 
DOCKED: ATOM     20  C   UNL d   1     -15.853   8.796   0.306 -0.29 +0.00    +0.045 A 
DOCKED: ATOM     21  C   UNL d   1     -15.300   7.597   0.093 -0.33 +0.02    +0.057 C 
DOCKED: ATOM     22  C   UNL d   1     -17.032  10.466   1.326 -0.26 +0.00    -0.019 A 
DOCKED: ATOM     23  C   UNL d   1     -16.487  10.977   0.052 -0.25 -0.02    +0.045 A 
DOCKED: ATOM     24  C   UNL d   1     -16.652   9.174   1.471 -0.32 -0.00    -0.022 A 
DOCKED: ATOM     25  C   UNL d   1     -16.122  12.786  -1.593 -0.19 -0.02    +0.049 A 
DOCKED: ATOM     26  C   UNL d   1     -15.460  14.101  -3.337 -0.13 +0.00    -0.018 A 
DOCKED: ATOM     27  C   UNL d   1     -15.768  14.082  -1.941 -0.20 -0.00    +0.003 A 
DOCKED: ATOM     28  C   UNL d   1     -16.655  12.230  -0.398 -0.16 -0.03    +0.052 C 
DOCKED: ATOM     29  C   UNL d   1     -16.944   8.236   2.593 -0.27 +0.01    +0.046 C 
DOCKED: ATOM     30  C   UNL d   1     -15.057  15.290  -4.142 -0.08 +0.00    +0.046 C 
DOCKED: ATOM     31  H   UNL d   1     -15.240   9.944  -1.323 +0.09 +0.01    +0.166 HD
DOCKED: ATOM     32  H   UNL d   1     -16.171  11.027  -2.798 +0.03 -0.01    +0.166 HD
DOCKED: ENDROOT
DOCKED: BRANCH   7  33
DOCKED: ATOM     33  C   UNL d   1     -13.912  11.299  -7.648 -0.05 -0.01    +0.141 C 
DOCKED: BRANCH  33  34
DOCKED: ATOM     34  C   UNL d   1     -12.592  11.509  -6.956 -0.11 -0.04    +0.306 C 
DOCKED: ATOM     35  O   UNL d   1     -12.262  12.494  -6.318 -0.16 +0.06    -0.251 OA
DOCKED: BRANCH  34  36
DOCKED: ATOM     36  O   UNL d   1     -11.758  10.464  -7.103 -0.07 +0.09    -0.481 OA
DOCKED: ATOM     37  H   UNL d   1     -12.344   9.709  -7.321 +0.08 -0.04    +0.295 HD
DOCKED: ENDBRANCH  34  36
DOCKED: ENDBRANCH  33  34
DOCKED: ENDBRANCH   7  33
DOCKED: BRANCH  27  38
DOCKED: ATOM     38  C   UNL d   1     -15.755  15.224  -1.077 -0.22 -0.01    +0.017 C 
DOCKED: ATOM     39  C   UNL d   1     -16.756  15.590  -0.263 -0.13 -0.05    +0.092 C 
DOCKED: BRANCH  39  40
DOCKED: ATOM     40  C   UNL d   1     -16.609  16.775   0.587 -0.09 -0.14    +0.330 C 
DOCKED: ATOM     41  O   UNL d   1     -17.462  17.310   1.271 -0.06 +0.06    -0.246 OA
DOCKED: BRANCH  40  42
DOCKED: ATOM     42  O   UNL d   1     -15.348  17.230   0.531 -0.05 +0.02    -0.477 OA
DOCKED: ATOM     43  H   UNL d   1     -14.822  16.513   0.940 -0.52 -0.46    +0.295 HD
DOCKED: ENDBRANCH  40  42
DOCKED: ENDBRANCH  39  40
DOCKED: ENDBRANCH  27  38
DOCKED: BRANCH   8  44
DOCKED: ATOM     44  C   UNL d   1     -13.536   4.794  -3.394 -0.07 +0.04    +0.141 C 
DOCKED: BRANCH  44  45
DOCKED: ATOM     45  C   UNL d   1     -14.971   4.401  -3.164 -0.04 +0.17    +0.306 C 
DOCKED: ATOM     46  O   UNL d   1     -15.915   4.638  -3.897 -0.01 -0.09    -0.251 OA
DOCKED: BRANCH  45  47
DOCKED: ATOM     47  O   UNL d   1     -15.146   3.748  -2.001 -0.49 -0.72    -0.481 OA
DOCKED: ATOM     48  H   UNL d   1     -14.248   3.693  -1.610 +0.06 +0.49    +0.295 HD
DOCKED: ENDBRANCH  45  47
DOCKED: ENDBRANCH  44  45
DOCKED: ENDBRANCH   8  44
DOCKED: BRANCH  22  49
DOCKED: ATOM     49  C   UNL d   1     -17.878  11.274   2.266 -0.19 -0.01    +0.048 C 
DOCKED: BRANCH  49  50
DOCKED: ATOM     50  C   UNL d   1     -19.218  11.657   1.638 -0.05 -0.02    +0.125 C 
DOCKED: BRANCH  50  51
DOCKED: ATOM     51  C   UNL d   1     -19.757  10.534   0.798 -0.00 +0.01    +0.305 C 
DOCKED: ATOM     52  O   UNL d   1     -19.621  10.373  -0.402 -0.01 -0.01    -0.251 OA
DOCKED: BRANCH  51  53
DOCKED: ATOM     53  O   UNL d   1     -20.470   9.654   1.528 +0.01 -0.06    -0.481 OA
DOCKED: ATOM     54  H   UNL d   1     -21.391   9.986   1.469 +0.01 +0.03    +0.295 HD
DOCKED: ENDBRANCH  51  53
DOCKED: ENDBRANCH  50  51
DOCKED: ENDBRANCH  49  50
DOCKED: ENDBRANCH  22  49
DOCKED: TORSDOF 13
DOCKED: TER
DOCKED: ENDMDL
________________________________________________________________________________


	BEGINNING GENETIC ALGORITHM DOCKING 88 of 100
Run: 88 Seed: 1456086045 314428870 [ Run 88 of 100 GA/GALS ]
Beginning LAMARCKIAN GENETIC ALGORITHM (LGA), with a maximum of 25000000 energy evaluations.

Final-Value: -11.784


	FINAL GENETIC ALGORITHM DOCKED STATE
	_______________________________________________


Detailed state:  trans -12.617 8.346 16.497 quatxyzw 0.782466 0.539850 -0.147607 -0.272985 center 0.153 0.018 -0.028 ntor 13 33.0535 97.2107 -152.7936 84.5231 -114.5946 -51.0371 130.0611 165.3798 -120.1555 -37.1911 47.8852 67.5118 15.9367
State:	-12.617   8.346  16.497   0.813  0.561 -0.153 -148.316     33.05   97.21 -152.79   84.52 -114.59  -51.04  130.06  165.38 -120.16  -37.19   47.89   67.51   15.94

DOCKED: MODEL       88
DOCKED: USER    Run = 88
DOCKED: USER    DPF = D:/Protein_go_brrr/autodock/final/AncMH_nat/heme/dock.dpf
DOCKED: USER  
DOCKED: USER    Estimated Free Energy of Binding    =   -6.23 kcal/mol  [=(1)+(2)+(3)-(4)]
DOCKED: USER    Estimated Inhibition Constant, Ki   =   27.20 uM (micromolar)  [Temperature = 298.15 K]
DOCKED: USER    
DOCKED: USER    (1) Final Intermolecular Energy     =  -10.11 kcal/mol
DOCKED: USER        vdW + Hbond + desolv Energy     =   -9.35 kcal/mol
DOCKED: USER        Electrostatic Energy            =   -0.75 kcal/mol
DOCKED: USER    (2) Final Total Internal Energy     =   -1.68 kcal/mol
DOCKED: USER    (3) Torsional Free Energy           =   +3.88 kcal/mol
DOCKED: USER    (4) Unbound System's Energy  [=(2)] =   -1.68 kcal/mol
DOCKED: USER    
DOCKED: USER    
DOCKED: USER    NEWDPF move heme_opt.pdbqt
DOCKED: USER    NEWDPF about 0.153000 0.018000 -0.028000
DOCKED: USER    NEWDPF tran0 -12.617109 8.346440 16.497463
DOCKED: USER    NEWDPF quaternion0 0.782466 0.539850 -0.147607 -0.272985
DOCKED: USER    NEWDPF axisangle0 0.813359 0.561164 -0.153435 -148.316093
DOCKED: USER    NEWDPF quat0 0.813359 0.561164 -0.153435 -148.316093
DOCKED: USER    NEWDPF dihe0 33.05 97.21 -152.79 84.52 -114.59 -51.04 130.06 165.38 -120.16 -37.19 47.89 67.51 15.94 
DOCKED: USER  keepresnum = 1 
DOCKED: USER  
DOCKED: REMARK  13 active torsions:
DOCKED: REMARK  status: ('A' for Active; 'I' for Inactive)
DOCKED: REMARK    1  A    between atoms: O_3  and  C_38 
DOCKED: REMARK    2  A    between atoms: O_4  and  C_40 
DOCKED: REMARK    3  A    between atoms: O_7  and  C_46 
DOCKED: REMARK    4  A    between atoms: O_9  and  C_48 
DOCKED: REMARK    5  A    between atoms: C_15  and  C_20 
DOCKED: REMARK    6  A    between atoms: C_16  and  C_23 
DOCKED: REMARK    7  A    between atoms: C_20  and  C_38 
DOCKED: REMARK    8  A    between atoms: C_23  and  C_40 
DOCKED: REMARK    9  A    between atoms: C_32  and  C_41 
DOCKED: REMARK   10  A    between atoms: C_37  and  C_45 
DOCKED: REMARK   11  A    between atoms: C_41  and  C_44 
DOCKED: REMARK   12  A    between atoms: C_44  and  C_46 
DOCKED: REMARK   13  A    between atoms: C_47  and  C_48 
DOCKED: USER                              x       y       z     vdW  Elec       q    Type
DOCKED: USER                           _______ _______ _______ _____ _____    ______ ____
DOCKED: ROOT
DOCKED: ATOM      1  O   UNL d   1     -13.109   3.225  19.377 -0.01 +0.01    -0.289 OA
DOCKED: ATOM      2  O   UNL d   1     -18.195   8.541  17.871 -0.44 -0.34    -0.289 OA
DOCKED: ATOM      3  N   UNL d   1     -12.316   6.163  17.752 -0.06 +0.02    -0.247 NA
DOCKED: ATOM      4  N   UNL d   1     -14.961   7.456  17.350 -0.10 -0.10    -0.247 NA
DOCKED: ATOM      5  N   UNL d   1     -13.693   9.263  15.507 -0.09 -0.05    -0.354 N 
DOCKED: ATOM      6  N   UNL d   1     -10.957   7.903  15.915 -0.13 +0.06    -0.354 N 
DOCKED: ATOM      7  C   UNL d   1     -11.103   4.102  18.289 -0.13 -0.01    +0.084 A 
DOCKED: ATOM      8  C   UNL d   1     -16.739   6.878  18.923 -0.06 +0.04    +0.084 A 
DOCKED: ATOM      9  C   UNL d   1     -15.314   6.649  18.408 -0.08 +0.02    +0.058 A 
DOCKED: ATOM     10  C   UNL d   1     -11.110   5.491  17.643 -0.17 -0.01    +0.058 A 
DOCKED: ATOM     11  C   UNL d   1     -12.513   4.115  18.798 -0.03 -0.01    +0.193 A 
DOCKED: ATOM     12  C   UNL d   1     -13.134   5.428  18.432 -0.05 +0.00    +0.109 A 
DOCKED: ATOM     13  C   UNL d   1     -17.142   7.938  17.937 -0.04 +0.19    +0.193 A 
DOCKED: ATOM     14  C   UNL d   1     -10.962   2.986  17.250 -0.29 -0.00    +0.026 C 
DOCKED: ATOM     15  C   UNL d   1     -14.502   5.708  18.913 -0.05 +0.01    +0.055 C 
DOCKED: ATOM     16  C   UNL d   1     -16.744   7.486  20.329 -0.01 +0.01    +0.026 C 
DOCKED: ATOM     17  C   UNL d   1     -15.978   8.192  17.034 -0.06 +0.09    +0.109 A 
DOCKED: ATOM     18  C   UNL d   1      -9.996   6.021  17.104 -0.33 -0.02    +0.050 C 
DOCKED: ATOM     19  C   UNL d   1      -9.887   7.327  16.562 -0.31 -0.01    +0.045 A 
DOCKED: ATOM     20  C   UNL d   1     -15.008   9.576  15.277 -0.19 +0.02    +0.045 A 
DOCKED: ATOM     21  C   UNL d   1     -16.096   9.158  15.933 +0.01 +0.05    +0.057 C 
DOCKED: ATOM     22  C   UNL d   1     -13.710  10.673  13.751 -0.31 +0.00    -0.019 A 
DOCKED: ATOM     23  C   UNL d   1     -12.835   9.877  14.635 -0.28 -0.00    +0.045 A 
DOCKED: ATOM     24  C   UNL d   1     -14.995  10.491  14.137 -0.25 -0.00    -0.022 A 
DOCKED: ATOM     25  C   UNL d   1     -10.605   9.125  15.392 -0.25 -0.01    +0.049 A 
DOCKED: ATOM     26  C   UNL d   1      -8.823   8.213  16.489 -0.33 +0.01    -0.018 A 
DOCKED: ATOM     27  C   UNL d   1      -9.288   9.355  15.766 -0.29 -0.00    +0.003 A 
DOCKED: ATOM     28  C   UNL d   1     -11.497   9.841  14.547 -0.08 -0.01    +0.052 C 
DOCKED: ATOM     29  C   UNL d   1     -16.235  11.089  13.564 -0.26 +0.01    +0.046 C 
DOCKED: ATOM     30  C   UNL d   1      -7.459   8.015  17.056 -0.17 -0.04    +0.046 C 
DOCKED: ATOM     31  H   UNL d   1     -13.419   8.695  16.301 +0.05 +0.02    +0.166 HD
DOCKED: ATOM     32  H   UNL d   1     -11.859   7.453  15.815 +0.08 -0.02    +0.166 HD
DOCKED: ENDROOT
DOCKED: BRANCH   7  33
DOCKED: ATOM     33  C   UNL d   1     -10.115   3.920  19.446 -0.08 -0.03    +0.141 C 
DOCKED: BRANCH  33  34
DOCKED: ATOM     34  C   UNL d   1      -8.685   3.855  18.982 -0.11 -0.15    +0.306 C 
DOCKED: ATOM     35  O   UNL d   1      -8.212   3.027  18.221 -0.21 +0.12    -0.251 OA
DOCKED: BRANCH  34  36
DOCKED: ATOM     36  O   UNL d   1      -7.926   4.838  19.499 -0.01 +0.45    -0.481 OA
DOCKED: ATOM     37  H   UNL d   1      -7.247   5.011  18.814 -0.50 -0.69    +0.295 HD
DOCKED: ENDBRANCH  34  36
DOCKED: ENDBRANCH  33  34
DOCKED: ENDBRANCH   7  33
DOCKED: BRANCH  27  38
DOCKED: ATOM     38  C   UNL d   1      -8.501  10.508  15.449 -0.24 -0.00    +0.017 C 
DOCKED: ATOM     39  C   UNL d   1      -8.163  11.477  16.314 -0.23 -0.02    +0.092 C 
DOCKED: BRANCH  39  40
DOCKED: ATOM     40  C   UNL d   1      -7.335  12.599  15.865 -0.16 -0.08    +0.330 C 
DOCKED: ATOM     41  O   UNL d   1      -6.260  12.550  15.297 -0.20 +0.05    -0.246 OA
DOCKED: BRANCH  40  42
DOCKED: ATOM     42  O   UNL d   1      -7.934  13.763  16.161 -0.07 +0.17    -0.477 OA
DOCKED: ATOM     43  H   UNL d   1      -8.566  13.896  15.424 -0.38 -0.22    +0.295 HD
DOCKED: ENDBRANCH  40  42
DOCKED: ENDBRANCH  39  40
DOCKED: ENDBRANCH  27  38
DOCKED: BRANCH   8  44
DOCKED: ATOM     44  C   UNL d   1     -17.674   5.667  18.840 -0.06 +0.07    +0.141 C 
DOCKED: BRANCH  44  45
DOCKED: ATOM     45  C   UNL d   1     -18.374   5.548  17.513 -0.02 +0.33    +0.306 C 
DOCKED: ATOM     46  O   UNL d   1     -17.945   5.003  16.511 -0.28 -0.32    -0.251 OA
DOCKED: BRANCH  45  47
DOCKED: ATOM     47  O   UNL d   1     -19.577   6.150  17.510 -0.20 -0.61    -0.481 OA
DOCKED: ATOM     48  H   UNL d   1     -19.506   6.850  18.192 +0.01 +0.27    +0.295 HD
DOCKED: ENDBRANCH  45  47
DOCKED: ENDBRANCH  44  45
DOCKED: ENDBRANCH   8  44
DOCKED: BRANCH  22  49
DOCKED: ATOM     49  C   UNL d   1     -13.215  11.517  12.613 -0.46 -0.01    +0.048 C 
DOCKED: BRANCH  49  50
DOCKED: ATOM     50  C   UNL d   1     -12.405  12.716  13.105 -0.35 -0.04    +0.125 C 
DOCKED: BRANCH  50  51
DOCKED: ATOM     51  C   UNL d   1     -12.869  13.984  12.447 -0.24 -0.16    +0.305 C 
DOCKED: ATOM     52  O   UNL d   1     -12.706  15.127  12.838 -0.29 +0.20    -0.251 OA
DOCKED: BRANCH  51  53
DOCKED: ATOM     53  O   UNL d   1     -13.545  13.742  11.306 -0.15 +0.29    -0.481 OA
DOCKED: ATOM     54  H   UNL d   1     -12.868  13.839  10.604 -0.38 -0.29    +0.295 HD
DOCKED: ENDBRANCH  51  53
DOCKED: ENDBRANCH  50  51
DOCKED: ENDBRANCH  49  50
DOCKED: ENDBRANCH  22  49
DOCKED: TORSDOF 13
DOCKED: TER
DOCKED: ENDMDL
________________________________________________________________________________


	BEGINNING GENETIC ALGORITHM DOCKING 89 of 100
Run: 89 Seed: 1281318813 1752950719 [ Run 89 of 100 GA/GALS ]
Beginning LAMARCKIAN GENETIC ALGORITHM (LGA), with a maximum of 25000000 energy evaluations.

Final-Value: -11.859


	FINAL GENETIC ALGORITHM DOCKED STATE
	_______________________________________________


Detailed state:  trans 11.011 -12.220 -1.796 quatxyzw -0.509085 -0.565819 0.292446 0.578927 center 0.153 0.018 -0.028 ntor 13 164.1672 -164.5431 111.6057 38.3987 -145.1659 67.6604 -36.7761 34.2296 14.9244 -125.0387 -77.7541 -75.5065 -5.7122
State:	 11.011 -12.220  -1.796  -0.624 -0.694  0.359 109.250    164.17 -164.54  111.61   38.40 -145.17   67.66  -36.78   34.23   14.92 -125.04  -77.75  -75.51   -5.71

DOCKED: MODEL       89
DOCKED: USER    Run = 89
DOCKED: USER    DPF = D:/Protein_go_brrr/autodock/final/AncMH_nat/heme/dock.dpf
DOCKED: USER  
DOCKED: USER    Estimated Free Energy of Binding    =   -3.37 kcal/mol  [=(1)+(2)+(3)-(4)]
DOCKED: USER    Estimated Inhibition Constant, Ki   =    3.38 mM (millimolar)  [Temperature = 298.15 K]
DOCKED: USER    
DOCKED: USER    (1) Final Intermolecular Energy     =   -7.25 kcal/mol
DOCKED: USER        vdW + Hbond + desolv Energy     =   -7.14 kcal/mol
DOCKED: USER        Electrostatic Energy            =   -0.11 kcal/mol
DOCKED: USER    (2) Final Total Internal Energy     =   -4.61 kcal/mol
DOCKED: USER    (3) Torsional Free Energy           =   +3.88 kcal/mol
DOCKED: USER    (4) Unbound System's Energy  [=(2)] =   -4.61 kcal/mol
DOCKED: USER    
DOCKED: USER    
DOCKED: USER    NEWDPF move heme_opt.pdbqt
DOCKED: USER    NEWDPF about 0.153000 0.018000 -0.028000
DOCKED: USER    NEWDPF tran0 11.011170 -12.220014 -1.795899
DOCKED: USER    NEWDPF quaternion0 -0.509085 -0.565819 0.292446 0.578927
DOCKED: USER    NEWDPF axisangle0 -0.624353 -0.693934 0.358662 109.249746
DOCKED: USER    NEWDPF quat0 -0.624353 -0.693934 0.358662 109.249746
DOCKED: USER    NEWDPF dihe0 164.17 -164.54 111.61 38.40 -145.17 67.66 -36.78 34.23 14.92 -125.04 -77.75 -75.51 -5.71 
DOCKED: USER  keepresnum = 1 
DOCKED: USER  
DOCKED: REMARK  13 active torsions:
DOCKED: REMARK  status: ('A' for Active; 'I' for Inactive)
DOCKED: REMARK    1  A    between atoms: O_3  and  C_38 
DOCKED: REMARK    2  A    between atoms: O_4  and  C_40 
DOCKED: REMARK    3  A    between atoms: O_7  and  C_46 
DOCKED: REMARK    4  A    between atoms: O_9  and  C_48 
DOCKED: REMARK    5  A    between atoms: C_15  and  C_20 
DOCKED: REMARK    6  A    between atoms: C_16  and  C_23 
DOCKED: REMARK    7  A    between atoms: C_20  and  C_38 
DOCKED: REMARK    8  A    between atoms: C_23  and  C_40 
DOCKED: REMARK    9  A    between atoms: C_32  and  C_41 
DOCKED: REMARK   10  A    between atoms: C_37  and  C_45 
DOCKED: REMARK   11  A    between atoms: C_41  and  C_44 
DOCKED: REMARK   12  A    between atoms: C_44  and  C_46 
DOCKED: REMARK   13  A    between atoms: C_47  and  C_48 
DOCKED: USER                              x       y       z     vdW  Elec       q    Type
DOCKED: USER                           _______ _______ _______ _____ _____    ______ ____
DOCKED: ROOT
DOCKED: ATOM      1  O   UNL d   1      11.729 -13.624   3.885 -0.05 +0.09    -0.289 OA
DOCKED: ATOM      2  O   UNL d   1       5.513 -12.903  -0.266 -0.18 -0.11    -0.289 OA
DOCKED: ATOM      3  N   UNL d   1      11.793 -12.638   0.580 -0.10 +0.09    -0.247 NA
DOCKED: ATOM      4  N   UNL d   1       8.964 -12.935  -0.276 -0.19 +0.05    -0.247 NA
DOCKED: ATOM      5  N   UNL d   1       9.857 -12.672  -2.997 -0.13 +0.10    -0.354 N 
DOCKED: ATOM      6  N   UNL d   1      12.792 -12.384  -2.100 -0.06 +0.14    -0.354 N 
DOCKED: ATOM      7  C   UNL d   1      13.497 -13.191   2.253 -0.06 -0.02    +0.084 A 
DOCKED: ATOM      8  C   UNL d   1       7.248 -12.764   1.455 -0.21 -0.02    +0.084 A 
DOCKED: ATOM      9  C   UNL d   1       8.731 -12.819   1.076 -0.25 -0.02    +0.058 A 
DOCKED: ATOM     10  C   UNL d   1      13.151 -12.760   0.825 -0.12 -0.01    +0.058 A 
DOCKED: ATOM     11  C   UNL d   1      12.095 -13.273   2.778 -0.08 -0.05    +0.193 A 
DOCKED: ATOM     12  C   UNL d   1      11.156 -12.890   1.677 -0.16 -0.03    +0.109 A 
DOCKED: ATOM     13  C   UNL d   1       6.681 -12.907   0.071 -0.13 +0.02    +0.193 A 
DOCKED: ATOM     14  C   UNL d   1      14.124 -14.587   2.296 -0.02 -0.00    +0.026 C 
DOCKED: ATOM     15  C   UNL d   1       9.715 -12.808   1.989 -0.21 -0.02    +0.055 C 
DOCKED: ATOM     16  C   UNL d   1       6.854 -11.391   2.009 -0.33 -0.01    +0.026 C 
DOCKED: ATOM     17  C   UNL d   1       7.824 -13.009  -0.886 -0.19 +0.00    +0.109 A 
DOCKED: ATOM     18  C   UNL d   1      14.110 -12.446  -0.067 -0.11 -0.01    +0.050 C 
DOCKED: ATOM     19  C   UNL d   1      13.884 -11.959  -1.379 -0.14 -0.01    +0.045 A 
DOCKED: ATOM     20  C   UNL d   1       8.557 -13.051  -3.211 -0.24 -0.00    +0.045 A 
DOCKED: ATOM     21  C   UNL d   1       7.571 -13.202  -2.321 -0.24 +0.01    +0.057 C 
DOCKED: ATOM     22  C   UNL d   1       9.653 -13.009  -5.214 -0.13 +0.01    -0.019 A 
DOCKED: ATOM     23  C   UNL d   1      10.597 -12.619  -4.148 -0.10 -0.02    +0.045 A 
DOCKED: ATOM     24  C   UNL d   1       8.447 -13.262  -4.654 -0.19 +0.00    -0.022 A 
DOCKED: ATOM     25  C   UNL d   1      12.818 -11.860  -3.372 -0.24 -0.02    +0.049 A 
DOCKED: ATOM     26  C   UNL d   1      14.619 -11.107  -2.189 -0.19 +0.00    -0.018 A 
DOCKED: ATOM     27  C   UNL d   1      13.930 -11.033  -3.440 -0.23 -0.00    +0.003 A 
DOCKED: ATOM     28  C   UNL d   1      11.878 -12.279  -4.353 -0.24 -0.02    +0.052 C 
DOCKED: ATOM     29  C   UNL d   1       7.178 -13.676  -5.318 -0.15 -0.00    +0.046 C 
DOCKED: ATOM     30  C   UNL d   1      15.882 -10.402  -1.827 -0.14 -0.01    +0.046 C 
DOCKED: ATOM     31  H   UNL d   1      10.177 -12.390  -2.077 -0.39 -0.08    +0.166 HD
DOCKED: ATOM     32  H   UNL d   1      12.098 -13.029  -1.739 -0.06 -0.06    +0.166 HD
DOCKED: ENDROOT
DOCKED: BRANCH   7  33
DOCKED: ATOM     33  C   UNL d   1      14.317 -12.181   3.064 -0.05 -0.03    +0.141 C 
DOCKED: BRANCH  33  34
DOCKED: ATOM     34  C   UNL d   1      13.587 -10.883   3.279 -0.08 -0.08    +0.306 C 
DOCKED: ATOM     35  O   UNL d   1      13.637  -9.901   2.559 -0.18 +0.06    -0.251 OA
DOCKED: BRANCH  34  36
DOCKED: ATOM     36  O   UNL d   1      12.831 -10.892   4.391 -0.05 +0.22    -0.481 OA
DOCKED: ATOM     37  H   UNL d   1      12.722 -11.843   4.608 +0.05 -0.12    +0.295 HD
DOCKED: ENDBRANCH  34  36
DOCKED: ENDBRANCH  33  34
DOCKED: ENDBRANCH   7  33
DOCKED: BRANCH  27  38
DOCKED: ATOM     38  C   UNL d   1      14.358 -10.269  -4.573 +0.14 -0.00    +0.017 C 
DOCKED: ATOM     39  C   UNL d   1      14.263 -10.663  -5.852 -0.24 -0.02    +0.092 C 
DOCKED: BRANCH  39  40
DOCKED: ATOM     40  C   UNL d   1      14.723  -9.777  -6.925 -0.18 -0.09    +0.330 C 
DOCKED: ATOM     41  O   UNL d   1      15.861  -9.410  -7.149 -0.48 +0.03    -0.246 OA
DOCKED: BRANCH  40  42
DOCKED: ATOM     42  O   UNL d   1      13.686  -9.399  -7.687 -0.18 +0.29    -0.477 OA
DOCKED: ATOM     43  H   UNL d   1      12.902  -9.628  -7.148 +0.06 -0.17    +0.295 HD
DOCKED: ENDBRANCH  40  42
DOCKED: ENDBRANCH  39  40
DOCKED: ENDBRANCH  27  38
DOCKED: BRANCH   8  44
DOCKED: ATOM     44  C   UNL d   1       6.757 -13.892   2.369 -0.08 -0.01    +0.141 C 
DOCKED: BRANCH  44  45
DOCKED: ATOM     45  C   UNL d   1       5.271 -13.861   2.605 -0.04 +0.05    +0.306 C 
DOCKED: ATOM     46  O   UNL d   1       4.676 -13.155   3.401 -0.10 -0.04    -0.251 OA
DOCKED: BRANCH  45  47
DOCKED: ATOM     47  O   UNL d   1       4.609 -14.748   1.841 -0.01 -0.17    -0.481 OA
DOCKED: ATOM     48  H   UNL d   1       4.690 -14.398   0.928 +0.09 +0.08    +0.295 HD
DOCKED: ENDBRANCH  45  47
DOCKED: ENDBRANCH  44  45
DOCKED: ENDBRANCH   8  44
DOCKED: BRANCH  22  49
DOCKED: ATOM     49  C   UNL d   1      10.018 -13.111  -6.666 -0.10 -0.01    +0.048 C 
DOCKED: BRANCH  49  50
DOCKED: ATOM     50  C   UNL d   1       9.821 -11.783  -7.397 -0.14 -0.04    +0.125 C 
DOCKED: BRANCH  50  51
DOCKED: ATOM     51  C   UNL d   1      11.138 -11.096  -7.626 -0.12 -0.12    +0.305 C 
DOCKED: ATOM     52  O   UNL d   1      12.234 -11.613  -7.750 -0.06 +0.08    -0.251 OA
DOCKED: BRANCH  51  53
DOCKED: ATOM     53  O   UNL d   1      11.005  -9.756  -7.676 -0.18 +0.25    -0.481 OA
DOCKED: ATOM     54  H   UNL d   1      11.635  -9.480  -8.374 +0.10 -0.22    +0.295 HD
DOCKED: ENDBRANCH  51  53
DOCKED: ENDBRANCH  50  51
DOCKED: ENDBRANCH  49  50
DOCKED: ENDBRANCH  22  49
DOCKED: TORSDOF 13
DOCKED: TER
DOCKED: ENDMDL
________________________________________________________________________________


	BEGINNING GENETIC ALGORITHM DOCKING 90 of 100
Run: 90 Seed: 1915042542 860219872 [ Run 90 of 100 GA/GALS ]
Beginning LAMARCKIAN GENETIC ALGORITHM (LGA), with a maximum of 25000000 energy evaluations.

Final-Value: -11.596


	FINAL GENETIC ALGORITHM DOCKED STATE
	_______________________________________________


Detailed state:  trans -12.616 8.350 16.507 quatxyzw -0.781327 -0.538482 0.150904 0.277116 center 0.153 0.018 -0.028 ntor 13 17.1771 105.9014 -160.0821 -117.1815 -125.2244 -74.4254 133.4457 58.7926 -117.4916 -37.1255 65.1625 85.7929 10.1457
State:	-12.616   8.350  16.507  -0.813 -0.560  0.157 147.824     17.18  105.90 -160.08 -117.18 -125.22  -74.43  133.45   58.79 -117.49  -37.13   65.16   85.79   10.15

DOCKED: MODEL       90
DOCKED: USER    Run = 90
DOCKED: USER    DPF = D:/Protein_go_brrr/autodock/final/AncMH_nat/heme/dock.dpf
DOCKED: USER  
DOCKED: USER    Estimated Free Energy of Binding    =   -6.03 kcal/mol  [=(1)+(2)+(3)-(4)]
DOCKED: USER    Estimated Inhibition Constant, Ki   =   37.75 uM (micromolar)  [Temperature = 298.15 K]
DOCKED: USER    
DOCKED: USER    (1) Final Intermolecular Energy     =   -9.91 kcal/mol
DOCKED: USER        vdW + Hbond + desolv Energy     =   -9.18 kcal/mol
DOCKED: USER        Electrostatic Energy            =   -0.73 kcal/mol
DOCKED: USER    (2) Final Total Internal Energy     =   -1.68 kcal/mol
DOCKED: USER    (3) Torsional Free Energy           =   +3.88 kcal/mol
DOCKED: USER    (4) Unbound System's Energy  [=(2)] =   -1.68 kcal/mol
DOCKED: USER    
DOCKED: USER    
DOCKED: USER    NEWDPF move heme_opt.pdbqt
DOCKED: USER    NEWDPF about 0.153000 0.018000 -0.028000
DOCKED: USER    NEWDPF tran0 -12.616049 8.349720 16.506678
DOCKED: USER    NEWDPF quaternion0 -0.781327 -0.538482 0.150904 0.277116
DOCKED: USER    NEWDPF axisangle0 -0.813174 -0.560430 0.157055 147.823710
DOCKED: USER    NEWDPF quat0 -0.813174 -0.560430 0.157055 147.823710
DOCKED: USER    NEWDPF dihe0 17.18 105.90 -160.08 -117.18 -125.22 -74.43 133.45 58.79 -117.49 -37.13 65.16 85.79 10.15 
DOCKED: USER  keepresnum = 1 
DOCKED: USER  
DOCKED: REMARK  13 active torsions:
DOCKED: REMARK  status: ('A' for Active; 'I' for Inactive)
DOCKED: REMARK    1  A    between atoms: O_3  and  C_38 
DOCKED: REMARK    2  A    between atoms: O_4  and  C_40 
DOCKED: REMARK    3  A    between atoms: O_7  and  C_46 
DOCKED: REMARK    4  A    between atoms: O_9  and  C_48 
DOCKED: REMARK    5  A    between atoms: C_15  and  C_20 
DOCKED: REMARK    6  A    between atoms: C_16  and  C_23 
DOCKED: REMARK    7  A    between atoms: C_20  and  C_38 
DOCKED: REMARK    8  A    between atoms: C_23  and  C_40 
DOCKED: REMARK    9  A    between atoms: C_32  and  C_41 
DOCKED: REMARK   10  A    between atoms: C_37  and  C_45 
DOCKED: REMARK   11  A    between atoms: C_41  and  C_44 
DOCKED: REMARK   12  A    between atoms: C_44  and  C_46 
DOCKED: REMARK   13  A    between atoms: C_47  and  C_48 
DOCKED: USER                              x       y       z     vdW  Elec       q    Type
DOCKED: USER                           _______ _______ _______ _____ _____    ______ ____
DOCKED: ROOT
DOCKED: ATOM      1  O   UNL d   1     -13.114   3.262  19.442 -0.01 +0.01    -0.289 OA
DOCKED: ATOM      2  O   UNL d   1     -18.193   8.568  17.880 -0.43 -0.34    -0.289 OA
DOCKED: ATOM      3  N   UNL d   1     -12.318   6.180  17.785 -0.06 +0.02    -0.247 NA
DOCKED: ATOM      4  N   UNL d   1     -14.961   7.472  17.369 -0.10 -0.10    -0.247 NA
DOCKED: ATOM      5  N   UNL d   1     -13.691   9.256  15.506 -0.09 -0.05    -0.354 N 
DOCKED: ATOM      6  N   UNL d   1     -10.957   7.897  15.929 -0.13 +0.06    -0.354 N 
DOCKED: ATOM      7  C   UNL d   1     -11.108   4.123  18.344 -0.13 -0.01    +0.084 A 
DOCKED: ATOM      8  C   UNL d   1     -16.739   6.915  18.950 -0.06 +0.04    +0.084 A 
DOCKED: ATOM      9  C   UNL d   1     -15.315   6.678  18.437 -0.07 +0.02    +0.058 A 
DOCKED: ATOM     10  C   UNL d   1     -11.113   5.505  17.684 -0.17 -0.01    +0.058 A 
DOCKED: ATOM     11  C   UNL d   1     -12.517   4.144  18.854 -0.03 -0.01    +0.193 A 
DOCKED: ATOM     12  C   UNL d   1     -13.137   5.453  18.474 -0.05 +0.00    +0.109 A 
DOCKED: ATOM     13  C   UNL d   1     -17.141   7.964  17.952 -0.04 +0.19    +0.193 A 
DOCKED: ATOM     14  C   UNL d   1     -10.969   2.996  17.318 -0.30 -0.00    +0.026 C 
DOCKED: ATOM     15  C   UNL d   1     -14.504   5.741  18.952 -0.05 +0.01    +0.055 C 
DOCKED: ATOM     16  C   UNL d   1     -16.743   7.538  20.349 -0.01 +0.01    +0.026 C 
DOCKED: ATOM     17  C   UNL d   1     -15.977   8.206  17.046 -0.07 +0.09    +0.109 A 
DOCKED: ATOM     18  C   UNL d   1      -9.999   6.028  17.138 -0.32 -0.02    +0.050 C 
DOCKED: ATOM     19  C   UNL d   1      -9.887   7.327  16.582 -0.31 -0.01    +0.045 A 
DOCKED: ATOM     20  C   UNL d   1     -15.005   9.569  15.273 -0.19 +0.02    +0.045 A 
DOCKED: ATOM     21  C   UNL d   1     -16.094   9.161  15.934 +0.00 +0.05    +0.057 C 
DOCKED: ATOM     22  C   UNL d   1     -13.706  10.648  13.735 -0.31 +0.00    -0.019 A 
DOCKED: ATOM     23  C   UNL d   1     -12.832   9.860  14.627 -0.28 -0.00    +0.045 A 
DOCKED: ATOM     24  C   UNL d   1     -14.992  10.472  14.123 -0.25 -0.00    -0.022 A 
DOCKED: ATOM     25  C   UNL d   1     -10.603   9.113  15.392 -0.26 -0.01    +0.049 A 
DOCKED: ATOM     26  C   UNL d   1      -8.823   8.211  16.498 -0.33 +0.01    -0.018 A 
DOCKED: ATOM     27  C   UNL d   1      -9.286   9.345  15.763 -0.29 -0.00    +0.003 A 
DOCKED: ATOM     28  C   UNL d   1     -11.494   9.820  14.539 -0.08 -0.01    +0.052 C 
DOCKED: ATOM     29  C   UNL d   1     -16.231  11.065  13.544 -0.26 +0.01    +0.046 C 
DOCKED: ATOM     30  C   UNL d   1      -7.458   8.017  17.068 -0.18 -0.04    +0.046 C 
DOCKED: ATOM     31  H   UNL d   1     -13.417   8.697  16.307 +0.05 +0.02    +0.166 HD
DOCKED: ATOM     32  H   UNL d   1     -11.860   7.447  15.833 +0.07 -0.02    +0.166 HD
DOCKED: ENDROOT
DOCKED: BRANCH   7  33
DOCKED: ATOM     33  C   UNL d   1     -10.119   3.953  19.503 -0.07 -0.03    +0.141 C 
DOCKED: BRANCH  33  34
DOCKED: ATOM     34  C   UNL d   1      -8.686   3.944  19.046 -0.10 -0.16    +0.306 C 
DOCKED: ATOM     35  O   UNL d   1      -8.135   3.054  18.421 -0.21 +0.13    -0.251 OA
DOCKED: BRANCH  34  36
DOCKED: ATOM     36  O   UNL d   1      -8.023   5.060  19.397 -0.02 +0.46    -0.481 OA
DOCKED: ATOM     37  H   UNL d   1      -7.207   5.044  18.852 -0.51 -0.70    +0.295 HD
DOCKED: ENDBRANCH  34  36
DOCKED: ENDBRANCH  33  34
DOCKED: ENDBRANCH   7  33
DOCKED: BRANCH  27  38
DOCKED: ATOM     38  C   UNL d   1      -8.497  10.494  15.433 -0.24 -0.00    +0.017 C 
DOCKED: ATOM     39  C   UNL d   1      -7.867  11.281  16.319 -0.23 -0.02    +0.092 C 
DOCKED: BRANCH  39  40
DOCKED: ATOM     40  C   UNL d   1      -7.074  12.420  15.848 -0.16 -0.07    +0.330 C 
DOCKED: ATOM     41  O   UNL d   1      -5.966  12.397  15.346 -0.18 +0.04    -0.246 OA
DOCKED: BRANCH  40  42
DOCKED: ATOM     42  O   UNL d   1      -7.751  13.563  16.036 -0.08 +0.16    -0.477 OA
DOCKED: ATOM     43  H   UNL d   1      -8.439  13.546  15.340 -0.38 -0.17    +0.295 HD
DOCKED: ENDBRANCH  40  42
DOCKED: ENDBRANCH  39  40
DOCKED: ENDBRANCH  27  38
DOCKED: BRANCH   8  44
DOCKED: ATOM     44  C   UNL d   1     -17.676   5.704  18.880 -0.06 +0.07    +0.141 C 
DOCKED: BRANCH  44  45
DOCKED: ATOM     45  C   UNL d   1     -18.376   5.570  17.554 -0.02 +0.33    +0.306 C 
DOCKED: ATOM     46  O   UNL d   1     -17.972   4.964  16.577 -0.30 -0.30    -0.251 OA
DOCKED: BRANCH  45  47
DOCKED: ATOM     47  O   UNL d   1     -19.545   6.235  17.519 -0.19 -0.62    -0.481 OA
DOCKED: ATOM     48  H   UNL d   1     -19.485   6.880  18.255 +0.01 +0.26    +0.295 HD
DOCKED: ENDBRANCH  45  47
DOCKED: ENDBRANCH  44  45
DOCKED: ENDBRANCH   8  44
DOCKED: BRANCH  22  49
DOCKED: ATOM     49  C   UNL d   1     -13.211  11.478  12.588 -0.47 -0.01    +0.048 C 
DOCKED: BRANCH  49  50
DOCKED: ATOM     50  C   UNL d   1     -12.521  12.755  13.067 -0.36 -0.04    +0.125 C 
DOCKED: BRANCH  50  51
DOCKED: ATOM     51  C   UNL d   1     -13.300  13.973  12.657 -0.21 -0.14    +0.305 C 
DOCKED: ATOM     52  O   UNL d   1     -14.482  14.199  12.852 -0.09 +0.09    -0.251 OA
DOCKED: BRANCH  51  53
DOCKED: ATOM     53  O   UNL d   1     -12.535  14.862  11.993 -0.20 +0.40    -0.481 OA
DOCKED: ATOM     54  H   UNL d   1     -12.251  14.378  11.189 -0.39 -0.31    +0.295 HD
DOCKED: ENDBRANCH  51  53
DOCKED: ENDBRANCH  50  51
DOCKED: ENDBRANCH  49  50
DOCKED: ENDBRANCH  22  49
DOCKED: TORSDOF 13
DOCKED: TER
DOCKED: ENDMDL
________________________________________________________________________________


	BEGINNING GENETIC ALGORITHM DOCKING 91 of 100
Run: 91 Seed: 198310102 886452610 [ Run 91 of 100 GA/GALS ]
Beginning LAMARCKIAN GENETIC ALGORITHM (LGA), with a maximum of 25000000 energy evaluations.

Final-Value: -11.270


	FINAL GENETIC ALGORITHM DOCKED STATE
	_______________________________________________


Detailed state:  trans 4.058 -1.150 -14.722 quatxyzw -0.182852 0.970397 0.073854 0.139427 center 0.153 0.018 -0.028 ntor 13 -86.3920 67.3865 -165.3323 -105.1135 29.0683 120.8433 138.6615 -14.9493 104.1600 -8.5948 82.5586 177.9556 171.0386
State:	  4.058  -1.150 -14.722  -0.185  0.980  0.075 163.971    -86.39   67.39 -165.33 -105.11   29.07  120.84  138.66  -14.95  104.16   -8.59   82.56  177.96  171.04

DOCKED: MODEL       91
DOCKED: USER    Run = 91
DOCKED: USER    DPF = D:/Protein_go_brrr/autodock/final/AncMH_nat/heme/dock.dpf
DOCKED: USER  
DOCKED: USER    Estimated Free Energy of Binding    =   -5.00 kcal/mol  [=(1)+(2)+(3)-(4)]
DOCKED: USER    Estimated Inhibition Constant, Ki   =  217.31 uM (micromolar)  [Temperature = 298.15 K]
DOCKED: USER    
DOCKED: USER    (1) Final Intermolecular Energy     =   -8.88 kcal/mol
DOCKED: USER        vdW + Hbond + desolv Energy     =   -8.72 kcal/mol
DOCKED: USER        Electrostatic Energy            =   -0.15 kcal/mol
DOCKED: USER    (2) Final Total Internal Energy     =   -2.40 kcal/mol
DOCKED: USER    (3) Torsional Free Energy           =   +3.88 kcal/mol
DOCKED: USER    (4) Unbound System's Energy  [=(2)] =   -2.40 kcal/mol
DOCKED: USER    
DOCKED: USER    
DOCKED: USER    NEWDPF move heme_opt.pdbqt
DOCKED: USER    NEWDPF about 0.153000 0.018000 -0.028000
DOCKED: USER    NEWDPF tran0 4.057687 -1.150398 -14.721811
DOCKED: USER    NEWDPF quaternion0 -0.182852 0.970397 0.073854 0.139427
DOCKED: USER    NEWDPF axisangle0 -0.184656 0.979969 0.074583 163.970655
DOCKED: USER    NEWDPF quat0 -0.184656 0.979969 0.074583 163.970655
DOCKED: USER    NEWDPF dihe0 -86.39 67.39 -165.33 -105.11 29.07 120.84 138.66 -14.95 104.16 -8.59 82.56 177.96 171.04 
DOCKED: USER  keepresnum = 1 
DOCKED: USER  
DOCKED: REMARK  13 active torsions:
DOCKED: REMARK  status: ('A' for Active; 'I' for Inactive)
DOCKED: REMARK    1  A    between atoms: O_3  and  C_38 
DOCKED: REMARK    2  A    between atoms: O_4  and  C_40 
DOCKED: REMARK    3  A    between atoms: O_7  and  C_46 
DOCKED: REMARK    4  A    between atoms: O_9  and  C_48 
DOCKED: REMARK    5  A    between atoms: C_15  and  C_20 
DOCKED: REMARK    6  A    between atoms: C_16  and  C_23 
DOCKED: REMARK    7  A    between atoms: C_20  and  C_38 
DOCKED: REMARK    8  A    between atoms: C_23  and  C_40 
DOCKED: REMARK    9  A    between atoms: C_32  and  C_41 
DOCKED: REMARK   10  A    between atoms: C_37  and  C_45 
DOCKED: REMARK   11  A    between atoms: C_41  and  C_44 
DOCKED: REMARK   12  A    between atoms: C_44  and  C_46 
DOCKED: REMARK   13  A    between atoms: C_47  and  C_48 
DOCKED: USER                              x       y       z     vdW  Elec       q    Type
DOCKED: USER                           _______ _______ _______ _____ _____    ______ ____
DOCKED: ROOT
DOCKED: ATOM      1  O   UNL d   1       8.318   2.574 -16.376 -0.07 +0.34    -0.289 OA
DOCKED: ATOM      2  O   UNL d   1       8.524  -4.768 -14.810 -0.11 -0.02    -0.289 OA
DOCKED: ATOM      3  N   UNL d   1       5.553   0.815 -15.301 -0.14 +0.10    -0.247 NA
DOCKED: ATOM      4  N   UNL d   1       6.512  -1.997 -15.241 -0.11 +0.05    -0.247 NA
DOCKED: ATOM      5  N   UNL d   1       3.771  -2.830 -15.000 +0.21 +0.02    -0.354 N 
DOCKED: ATOM      6  N   UNL d   1       2.783   0.089 -15.082 -0.05 +0.04    -0.354 N 
DOCKED: ATOM      7  C   UNL d   1       5.946   3.098 -16.100 -0.14 -0.03    +0.084 A 
DOCKED: ATOM      8  C   UNL d   1       8.909  -2.353 -14.927 -0.17 -0.02    +0.084 A 
DOCKED: ATOM      9  C   UNL d   1       7.742  -1.384 -15.142 -0.21 -0.02    +0.058 A 
DOCKED: ATOM     10  C   UNL d   1       4.968   2.037 -15.588 -0.17 -0.02    +0.058 A 
DOCKED: ATOM     11  C   UNL d   1       7.191   2.265 -16.035 -0.12 -0.16    +0.193 A 
DOCKED: ATOM     12  C   UNL d   1       6.825   0.910 -15.511 -0.20 -0.07    +0.109 A 
DOCKED: ATOM     13  C   UNL d   1       8.120  -3.631 -14.961 -0.12 -0.01    +0.193 A 
DOCKED: ATOM     14  C   UNL d   1       5.676   3.472 -17.560 -0.05 -0.01    +0.026 C 
DOCKED: ATOM     15  C   UNL d   1       7.913  -0.060 -15.273 -0.25 -0.04    +0.055 C 
DOCKED: ATOM     16  C   UNL d   1       9.530  -2.195 -13.536 -0.25 -0.00    +0.026 C 
DOCKED: ATOM     17  C   UNL d   1       6.682  -3.278 -15.164 -0.16 -0.01    +0.109 A 
DOCKED: ATOM     18  C   UNL d   1       3.673   2.326 -15.359 -0.18 -0.01    +0.050 C 
DOCKED: ATOM     19  C   UNL d   1       2.717   1.436 -14.808 -0.18 -0.01    +0.045 A 
DOCKED: ATOM     20  C   UNL d   1       4.368  -4.044 -15.218 -0.15 -0.01    +0.045 A 
DOCKED: ATOM     21  C   UNL d   1       5.671  -4.338 -15.282 -0.20 -0.01    +0.057 C 
DOCKED: ATOM     22  C   UNL d   1       2.101  -4.321 -15.241 -0.22 +0.00    -0.019 A 
DOCKED: ATOM     23  C   UNL d   1       2.404  -2.897 -14.996 -0.13 -0.00    +0.045 A 
DOCKED: ATOM     24  C   UNL d   1       3.268  -4.995 -15.370 -0.17 +0.00    -0.022 A 
DOCKED: ATOM     25  C   UNL d   1       1.712  -0.571 -14.524 -0.21 -0.00    +0.049 A 
DOCKED: ATOM     26  C   UNL d   1       1.595   1.653 -14.022 -0.24 +0.00    -0.018 A 
DOCKED: ATOM     27  C   UNL d   1       0.976   0.379 -13.830 -0.29 -0.00    +0.003 A 
DOCKED: ATOM     28  C   UNL d   1       1.478  -1.945 -14.801 -0.26 -0.00    +0.052 C 
DOCKED: ATOM     29  C   UNL d   1       3.483  -6.451 -15.614 -0.17 -0.01    +0.046 C 
DOCKED: ATOM     30  C   UNL d   1       1.127   2.960 -13.480 -0.33 -0.00    +0.046 C 
DOCKED: ATOM     31  H   UNL d   1       4.321  -2.005 -14.785 +0.07 -0.00    +0.166 HD
DOCKED: ATOM     32  H   UNL d   1       3.506  -0.332 -15.653 +0.05 -0.02    +0.166 HD
DOCKED: ENDROOT
DOCKED: BRANCH   7  33
DOCKED: ATOM     33  C   UNL d   1       6.087   4.344 -15.218 -0.09 -0.04    +0.141 C 
DOCKED: BRANCH  33  34
DOCKED: ATOM     34  C   UNL d   1       7.439   4.992 -15.342 -0.21 -0.18    +0.306 C 
DOCKED: ATOM     35  O   UNL d   1       7.784   5.777 -16.208 -0.13 +0.12    -0.251 OA
DOCKED: BRANCH  34  36
DOCKED: ATOM     36  O   UNL d   1       8.284   4.619 -14.365 -0.26 +0.60    -0.481 OA
DOCKED: ATOM     37  H   UNL d   1       8.750   3.836 -14.728 -0.29 -0.69    +0.295 HD
DOCKED: ENDBRANCH  34  36
DOCKED: ENDBRANCH  33  34
DOCKED: ENDBRANCH   7  33
DOCKED: BRANCH  27  38
DOCKED: ATOM     38  C   UNL d   1      -0.226   0.150 -13.086 -0.42 -0.00    +0.017 C 
DOCKED: ATOM     39  C   UNL d   1      -1.268   0.993 -13.019 -0.37 +0.00    +0.092 C 
DOCKED: BRANCH  39  40
DOCKED: ATOM     40  C   UNL d   1      -2.451   0.631 -12.234 -0.24 +0.05    +0.330 C 
DOCKED: ATOM     41  O   UNL d   1      -2.912   1.214 -11.272 -1.45 -0.05    -0.246 OA
DOCKED: BRANCH  40  42
DOCKED: ATOM     42  O   UNL d   1      -3.011  -0.483 -12.731 -0.18 -0.01    -0.477 OA
DOCKED: ATOM     43  H   UNL d   1      -3.870  -0.175 -13.088 +0.10 -0.01    +0.295 HD
DOCKED: ENDBRANCH  40  42
DOCKED: ENDBRANCH  39  40
DOCKED: ENDBRANCH  27  38
DOCKED: BRANCH   8  44
DOCKED: ATOM     44  C   UNL d   1       9.985  -2.344 -16.019 -0.06 -0.03    +0.141 C 
DOCKED: BRANCH  44  45
DOCKED: ATOM     45  C   UNL d   1       9.445  -2.664 -17.387 +0.00 -0.06    +0.306 C 
DOCKED: ATOM     46  O   UNL d   1       9.089  -1.862 -18.233 -0.00 +0.06    -0.251 OA
DOCKED: BRANCH  45  47
DOCKED: ATOM     47  O   UNL d   1       9.356  -3.988 -17.609 +0.01 +0.06    -0.481 OA
DOCKED: ATOM     48  H   UNL d   1       9.461  -4.395 -16.723 +0.04 -0.02    +0.295 HD
DOCKED: ENDBRANCH  45  47
DOCKED: ENDBRANCH  44  45
DOCKED: ENDBRANCH   8  44
DOCKED: BRANCH  22  49
DOCKED: ATOM     49  C   UNL d   1       0.713  -4.883 -15.340 -0.26 -0.00    +0.048 C 
DOCKED: BRANCH  49  50
DOCKED: ATOM     50  C   UNL d   1       0.166  -4.801 -16.765 -0.08 -0.01    +0.125 C 
DOCKED: BRANCH  50  51
DOCKED: ATOM     51  C   UNL d   1      -0.693  -3.581 -16.940 -0.05 -0.02    +0.305 C 
DOCKED: ATOM     52  O   UNL d   1      -1.250  -2.933 -16.072 -0.10 +0.01    -0.251 OA
DOCKED: BRANCH  51  53
DOCKED: ATOM     53  O   UNL d   1      -0.820  -3.236 -18.237 +0.00 +0.03    -0.481 OA
DOCKED: ATOM     54  H   UNL d   1      -1.437  -3.904 -18.602 +0.01 -0.02    +0.295 HD
DOCKED: ENDBRANCH  51  53
DOCKED: ENDBRANCH  50  51
DOCKED: ENDBRANCH  49  50
DOCKED: ENDBRANCH  22  49
DOCKED: TORSDOF 13
DOCKED: TER
DOCKED: ENDMDL
________________________________________________________________________________


	BEGINNING GENETIC ALGORITHM DOCKING 92 of 100
Run: 92 Seed: 971204082 615328428 [ Run 92 of 100 GA/GALS ]
Beginning LAMARCKIAN GENETIC ALGORITHM (LGA), with a maximum of 25000000 energy evaluations.

Final-Value: -10.876


	FINAL GENETIC ALGORITHM DOCKED STATE
	_______________________________________________


Detailed state:  trans -10.458 14.327 15.452 quatxyzw 0.299168 0.193322 -0.901759 0.244858 center 0.153 0.018 -0.028 ntor 13 -179.8746 -94.4947 -108.0168 96.2081 58.4947 95.2945 126.7733 93.5663 163.9578 -37.2291 -51.3842 23.5290 10.5695
State:	-10.458  14.327  15.452   0.309  0.199 -0.930 151.653   -179.87  -94.49 -108.02   96.21   58.49   95.29  126.77   93.57  163.96  -37.23  -51.38   23.53   10.57

DOCKED: MODEL       92
DOCKED: USER    Run = 92
DOCKED: USER    DPF = D:/Protein_go_brrr/autodock/final/AncMH_nat/heme/dock.dpf
DOCKED: USER  
DOCKED: USER    Estimated Free Energy of Binding    =   -3.73 kcal/mol  [=(1)+(2)+(3)-(4)]
DOCKED: USER    Estimated Inhibition Constant, Ki   =    1.85 mM (millimolar)  [Temperature = 298.15 K]
DOCKED: USER    
DOCKED: USER    (1) Final Intermolecular Energy     =   -7.61 kcal/mol
DOCKED: USER        vdW + Hbond + desolv Energy     =   -7.43 kcal/mol
DOCKED: USER        Electrostatic Energy            =   -0.18 kcal/mol
DOCKED: USER    (2) Final Total Internal Energy     =   -3.27 kcal/mol
DOCKED: USER    (3) Torsional Free Energy           =   +3.88 kcal/mol
DOCKED: USER    (4) Unbound System's Energy  [=(2)] =   -3.27 kcal/mol
DOCKED: USER    
DOCKED: USER    
DOCKED: USER    NEWDPF move heme_opt.pdbqt
DOCKED: USER    NEWDPF about 0.153000 0.018000 -0.028000
DOCKED: USER    NEWDPF tran0 -10.458489 14.326914 15.451748
DOCKED: USER    NEWDPF quaternion0 0.299168 0.193322 -0.901759 0.244858
DOCKED: USER    NEWDPF axisangle0 0.308561 0.199391 -0.930072 151.653161
DOCKED: USER    NEWDPF quat0 0.308561 0.199391 -0.930072 151.653161
DOCKED: USER    NEWDPF dihe0 -179.87 -94.49 -108.02 96.21 58.49 95.29 126.77 93.57 163.96 -37.23 -51.38 23.53 10.57 
DOCKED: USER  keepresnum = 1 
DOCKED: USER  
DOCKED: REMARK  13 active torsions:
DOCKED: REMARK  status: ('A' for Active; 'I' for Inactive)
DOCKED: REMARK    1  A    between atoms: O_3  and  C_38 
DOCKED: REMARK    2  A    between atoms: O_4  and  C_40 
DOCKED: REMARK    3  A    between atoms: O_7  and  C_46 
DOCKED: REMARK    4  A    between atoms: O_9  and  C_48 
DOCKED: REMARK    5  A    between atoms: C_15  and  C_20 
DOCKED: REMARK    6  A    between atoms: C_16  and  C_23 
DOCKED: REMARK    7  A    between atoms: C_20  and  C_38 
DOCKED: REMARK    8  A    between atoms: C_23  and  C_40 
DOCKED: REMARK    9  A    between atoms: C_32  and  C_41 
DOCKED: REMARK   10  A    between atoms: C_37  and  C_45 
DOCKED: REMARK   11  A    between atoms: C_41  and  C_44 
DOCKED: REMARK   12  A    between atoms: C_44  and  C_46 
DOCKED: REMARK   13  A    between atoms: C_47  and  C_48 
DOCKED: USER                              x       y       z     vdW  Elec       q    Type
DOCKED: USER                           _______ _______ _______ _____ _____    ______ ____
DOCKED: ROOT
DOCKED: ATOM      1  O   UNL d   1      -7.486   9.709  17.595 -0.09 +0.11    -0.289 OA
DOCKED: ATOM      2  O   UNL d   1      -6.015  17.068  17.855 -0.02 +0.03    -0.289 OA
DOCKED: ATOM      3  N   UNL d   1      -9.478  12.068  16.058 -0.15 +0.06    -0.247 NA
DOCKED: ATOM      4  N   UNL d   1      -8.299  14.645  16.951 -0.08 +0.08    -0.247 NA
DOCKED: ATOM      5  N   UNL d   1     -10.665  15.958  15.978 -0.05 +0.29    -0.354 N 
DOCKED: ATOM      6  N   UNL d   1     -11.889  13.278  15.072 -0.10 +0.12    -0.354 N 
DOCKED: ATOM      7  C   UNL d   1      -9.628   9.648  16.418 -0.19 -0.02    +0.084 A 
DOCKED: ATOM      8  C   UNL d   1      -5.933  14.639  17.560 -0.04 -0.01    +0.084 A 
DOCKED: ATOM      9  C   UNL d   1      -7.184  13.860  17.144 -0.10 -0.01    +0.058 A 
DOCKED: ATOM     10  C   UNL d   1     -10.241  10.931  15.850 -0.21 -0.01    +0.058 A 
DOCKED: ATOM     11  C   UNL d   1      -8.373  10.258  16.967 -0.11 -0.05    +0.193 A 
DOCKED: ATOM     12  C   UNL d   1      -8.388  11.724  16.663 -0.15 -0.02    +0.109 A 
DOCKED: ATOM     13  C   UNL d   1      -6.553  16.008  17.604 -0.03 -0.03    +0.193 A 
DOCKED: ATOM     14  C   UNL d   1     -10.451   9.081  17.577 -0.11 -0.00    +0.026 C 
DOCKED: ATOM     15  C   UNL d   1      -7.202  12.523  17.030 -0.13 -0.01    +0.055 C 
DOCKED: ATOM     16  C   UNL d   1      -4.861  14.619  16.466 -0.09 -0.00    +0.026 C 
DOCKED: ATOM     17  C   UNL d   1      -7.991  15.872  17.221 -0.10 -0.03    +0.109 A 
DOCKED: ATOM     18  C   UNL d   1     -11.382  10.908  15.136 -0.24 -0.01    +0.050 C 
DOCKED: ATOM     19  C   UNL d   1     -11.978  12.028  14.502 -0.26 -0.01    +0.045 A 
DOCKED: ATOM     20  C   UNL d   1     -10.077  16.998  16.650 -0.16 -0.03    +0.045 A 
DOCKED: ATOM     21  C   UNL d   1      -8.868  17.053  17.218 -0.14 -0.02    +0.057 C 
DOCKED: ATOM     22  C   UNL d   1     -12.155  17.646  15.958 -0.01 +0.02    -0.019 A 
DOCKED: ATOM     23  C   UNL d   1     -11.922  16.254  15.524 -0.16 -0.04    +0.045 A 
DOCKED: ATOM     24  C   UNL d   1     -11.059  18.081  16.623 -0.07 +0.02    -0.022 A 
DOCKED: ATOM     25  C   UNL d   1     -12.610  14.194  14.343 -0.20 -0.02    +0.049 A 
DOCKED: ATOM     26  C   UNL d   1     -12.746  12.142  13.354 -0.36 +0.00    -0.018 A 
DOCKED: ATOM     27  C   UNL d   1     -13.126  13.516  13.248 -0.29 -0.00    +0.003 A 
DOCKED: ATOM     28  C   UNL d   1     -12.797  15.521  14.819 -0.20 -0.03    +0.052 C 
DOCKED: ATOM     29  C   UNL d   1     -10.810  19.416  17.240 -0.07 -0.03    +0.046 C 
DOCKED: ATOM     30  C   UNL d   1     -13.105  11.045  12.410 -0.42 -0.01    +0.046 C 
DOCKED: ATOM     31  H   UNL d   1     -10.157  15.101  15.788 -0.49 -0.15    +0.166 HD
DOCKED: ATOM     32  H   UNL d   1     -11.390  13.466  15.933 +0.01 -0.06    +0.166 HD
DOCKED: ENDROOT
DOCKED: BRANCH   7  33
DOCKED: ATOM     33  C   UNL d   1      -9.292   8.567  15.385 -0.34 -0.04    +0.141 C 
DOCKED: BRANCH  33  34
DOCKED: ATOM     34  C   UNL d   1      -9.430   7.174  15.938 -0.26 -0.11    +0.306 C 
DOCKED: ATOM     35  O   UNL d   1     -10.260   6.345  15.606 -0.39 +0.09    -0.251 OA
DOCKED: BRANCH  34  36
DOCKED: ATOM     36  O   UNL d   1      -8.512   6.898  16.881 -0.12 +0.32    -0.481 OA
DOCKED: ATOM     37  H   UNL d   1      -7.954   7.704  16.926 +0.12 -0.22    +0.295 HD
DOCKED: ENDBRANCH  34  36
DOCKED: ENDBRANCH  33  34
DOCKED: ENDBRANCH   7  33
DOCKED: BRANCH  27  38
DOCKED: ATOM     38  C   UNL d   1     -13.942  14.069  12.209 -0.29 -0.01    +0.017 C 
DOCKED: ATOM     39  C   UNL d   1     -13.563  15.035  11.358 -0.29 -0.06    +0.092 C 
DOCKED: BRANCH  39  40
DOCKED: ATOM     40  C   UNL d   1     -14.490  15.503  10.324 -0.12 -0.18    +0.330 C 
DOCKED: ATOM     41  O   UNL d   1     -15.262  16.441  10.387 -0.06 +0.10    -0.246 OA
DOCKED: BRANCH  40  42
DOCKED: ATOM     42  O   UNL d   1     -14.381  14.739   9.227 -0.29 +0.22    -0.477 OA
DOCKED: ATOM     43  H   UNL d   1     -14.977  13.983   9.406 -0.45 -0.22    +0.295 HD
DOCKED: ENDBRANCH  40  42
DOCKED: ENDBRANCH  39  40
DOCKED: ENDBRANCH  27  38
DOCKED: BRANCH   8  44
DOCKED: ATOM     44  C   UNL d   1      -5.341  14.262  18.923 -0.01 -0.02    +0.141 C 
DOCKED: BRANCH  44  45
DOCKED: ATOM     45  C   UNL d   1      -5.962  15.015  20.069 +0.00 -0.03    +0.306 C 
DOCKED: ATOM     46  O   UNL d   1      -7.004  14.742  20.639 -0.00 +0.03    -0.251 OA
DOCKED: BRANCH  45  47
DOCKED: ATOM     47  O   UNL d   1      -5.244  16.097  20.422 +0.00 +0.04    -0.481 OA
DOCKED: ATOM     48  H   UNL d   1      -5.375  16.732  19.686 +0.00 -0.02    +0.295 HD
DOCKED: ENDBRANCH  45  47
DOCKED: ENDBRANCH  44  45
DOCKED: ENDBRANCH   8  44
DOCKED: BRANCH  22  49
DOCKED: ATOM     49  C   UNL d   1     -13.421  18.409  15.699 -0.07 -0.03    +0.048 C 
DOCKED: BRANCH  49  50
DOCKED: ATOM     50  C   UNL d   1     -13.547  18.819  14.232 -0.03 -0.14    +0.125 C 
DOCKED: BRANCH  50  51
DOCKED: ATOM     51  C   UNL d   1     -14.888  18.427  13.678 -0.04 -0.17    +0.305 C 
DOCKED: ATOM     52  O   UNL d   1     -15.923  19.068  13.714 -0.01 +0.08    -0.251 OA
DOCKED: BRANCH  51  53
DOCKED: ATOM     53  O   UNL d   1     -14.859  17.208  13.103 -0.01 +0.26    -0.481 OA
DOCKED: ATOM     54  H   UNL d   1     -14.535  17.381  12.195 +0.05 -0.21    +0.295 HD
DOCKED: ENDBRANCH  51  53
DOCKED: ENDBRANCH  50  51
DOCKED: ENDBRANCH  49  50
DOCKED: ENDBRANCH  22  49
DOCKED: TORSDOF 13
DOCKED: TER
DOCKED: ENDMDL
________________________________________________________________________________


	BEGINNING GENETIC ALGORITHM DOCKING 93 of 100
Run: 93 Seed: 140984498 24014419 [ Run 93 of 100 GA/GALS ]
Beginning LAMARCKIAN GENETIC ALGORITHM (LGA), with a maximum of 25000000 energy evaluations.

Final-Value: -11.965


	FINAL GENETIC ALGORITHM DOCKED STATE
	_______________________________________________


Detailed state:  trans 9.563 -12.272 -4.816 quatxyzw 0.678506 -0.364017 0.448988 -0.453355 center 0.153 0.018 -0.028 ntor 13 151.5418 51.3489 153.9173 -137.7131 21.2925 134.4283 -46.1907 -118.6309 -3.4299 175.6281 85.7627 -23.4956 23.8700
State:	  9.563 -12.272  -4.816   0.761 -0.408  0.504 -126.082    151.54   51.35  153.92 -137.71   21.29  134.43  -46.19 -118.63   -3.43  175.63   85.76  -23.50   23.87

DOCKED: MODEL       93
DOCKED: USER    Run = 93
DOCKED: USER    DPF = D:/Protein_go_brrr/autodock/final/AncMH_nat/heme/dock.dpf
DOCKED: USER  
DOCKED: USER    Estimated Free Energy of Binding    =   -6.72 kcal/mol  [=(1)+(2)+(3)-(4)]
DOCKED: USER    Estimated Inhibition Constant, Ki   =   11.78 uM (micromolar)  [Temperature = 298.15 K]
DOCKED: USER    
DOCKED: USER    (1) Final Intermolecular Energy     =  -10.60 kcal/mol
DOCKED: USER        vdW + Hbond + desolv Energy     =   -9.43 kcal/mol
DOCKED: USER        Electrostatic Energy            =   -1.17 kcal/mol
DOCKED: USER    (2) Final Total Internal Energy     =   -1.36 kcal/mol
DOCKED: USER    (3) Torsional Free Energy           =   +3.88 kcal/mol
DOCKED: USER    (4) Unbound System's Energy  [=(2)] =   -1.36 kcal/mol
DOCKED: USER    
DOCKED: USER    
DOCKED: USER    NEWDPF move heme_opt.pdbqt
DOCKED: USER    NEWDPF about 0.153000 0.018000 -0.028000
DOCKED: USER    NEWDPF tran0 9.562770 -12.271916 -4.816222
DOCKED: USER    NEWDPF quaternion0 0.678506 -0.364017 0.448988 -0.453355
DOCKED: USER    NEWDPF axisangle0 0.761229 -0.408397 0.503728 -126.081717
DOCKED: USER    NEWDPF quat0 0.761229 -0.408397 0.503728 -126.081717
DOCKED: USER    NEWDPF dihe0 151.54 51.35 153.92 -137.71 21.29 134.43 -46.19 -118.63 -3.43 175.63 85.76 -23.50 23.87 
DOCKED: USER  keepresnum = 1 
DOCKED: USER  
DOCKED: REMARK  13 active torsions:
DOCKED: REMARK  status: ('A' for Active; 'I' for Inactive)
DOCKED: REMARK    1  A    between atoms: O_3  and  C_38 
DOCKED: REMARK    2  A    between atoms: O_4  and  C_40 
DOCKED: REMARK    3  A    between atoms: O_7  and  C_46 
DOCKED: REMARK    4  A    between atoms: O_9  and  C_48 
DOCKED: REMARK    5  A    between atoms: C_15  and  C_20 
DOCKED: REMARK    6  A    between atoms: C_16  and  C_23 
DOCKED: REMARK    7  A    between atoms: C_20  and  C_38 
DOCKED: REMARK    8  A    between atoms: C_23  and  C_40 
DOCKED: REMARK    9  A    between atoms: C_32  and  C_41 
DOCKED: REMARK   10  A    between atoms: C_37  and  C_45 
DOCKED: REMARK   11  A    between atoms: C_41  and  C_44 
DOCKED: REMARK   12  A    between atoms: C_44  and  C_46 
DOCKED: REMARK   13  A    between atoms: C_47  and  C_48 
DOCKED: USER                              x       y       z     vdW  Elec       q    Type
DOCKED: USER                           _______ _______ _______ _____ _____    ______ ____
DOCKED: ROOT
DOCKED: ATOM      1  O   UNL d   1       6.360 -12.942  -9.720 -0.02 +0.03    -0.289 OA
DOCKED: ATOM      2  O   UNL d   1      12.607  -8.984  -8.416 -0.21 +0.31    -0.289 OA
DOCKED: ATOM      3  N   UNL d   1       7.826 -12.738  -6.605 -0.07 +0.04    -0.247 NA
DOCKED: ATOM      4  N   UNL d   1      10.344 -11.250  -7.131 -0.12 +0.10    -0.247 NA
DOCKED: ATOM      5  N   UNL d   1      11.247 -12.038  -4.517 -0.03 +0.15    -0.354 N 
DOCKED: ATOM      6  N   UNL d   1       8.640 -13.596  -3.988 -0.09 +0.04    -0.354 N 
DOCKED: ATOM      7  C   UNL d   1       5.960 -14.009  -7.558 -0.05 -0.01    +0.084 A 
DOCKED: ATOM      8  C   UNL d   1      10.374  -9.751  -9.061 -0.23 -0.04    +0.084 A 
DOCKED: ATOM      9  C   UNL d   1       9.642 -10.812  -8.232 -0.19 -0.02    +0.058 A 
DOCKED: ATOM     10  C   UNL d   1       6.839 -13.675  -6.349 -0.08 -0.01    +0.058 A 
DOCKED: ATOM     11  C   UNL d   1       6.613 -13.082  -8.538 -0.02 -0.02    +0.193 A 
DOCKED: ATOM     12  C   UNL d   1       7.713 -12.349  -7.833 -0.08 -0.02    +0.109 A 
DOCKED: ATOM     13  C   UNL d   1      11.636  -9.695  -8.247 -0.22 -0.13    +0.193 A 
DOCKED: ATOM     14  C   UNL d   1       6.159 -15.451  -8.032 -0.01 -0.00    +0.026 C 
DOCKED: ATOM     15  C   UNL d   1       8.444 -11.306  -8.580 -0.16 -0.01    +0.055 C 
DOCKED: ATOM     16  C   UNL d   1       9.677  -8.389  -8.983 -0.28 -0.01    +0.026 C 
DOCKED: ATOM     17  C   UNL d   1      11.493 -10.656  -7.112 -0.22 -0.05    +0.109 A 
DOCKED: ATOM     18  C   UNL d   1       6.589 -14.196  -5.133 -0.13 -0.00    +0.050 C 
DOCKED: ATOM     19  C   UNL d   1       7.294 -13.881  -3.943 -0.16 +0.00    +0.045 A 
DOCKED: ATOM     20  C   UNL d   1      12.408 -11.508  -5.018 -0.26 -0.02    +0.045 A 
DOCKED: ATOM     21  C   UNL d   1      12.602 -10.849  -6.165 -0.29 -0.02    +0.057 C 
DOCKED: ATOM     22  C   UNL d   1      12.852 -12.486  -3.002 -0.18 +0.01    -0.019 A 
DOCKED: ATOM     23  C   UNL d   1      11.415 -12.649  -3.304 -0.20 -0.02    +0.045 A 
DOCKED: ATOM     24  C   UNL d   1      13.433 -11.808  -4.020 -0.21 +0.01    -0.022 A 
DOCKED: ATOM     25  C   UNL d   1       9.137 -13.410  -2.719 -0.23 -0.01    +0.049 A 
DOCKED: ATOM     26  C   UNL d   1       6.899 -13.843  -2.615 -0.17 -0.00    -0.018 A 
DOCKED: ATOM     27  C   UNL d   1       8.062 -13.526  -1.848 -0.23 +0.00    +0.003 A 
DOCKED: ATOM     28  C   UNL d   1      10.533 -13.259  -2.497 -0.22 -0.01    +0.052 C 
DOCKED: ATOM     29  C   UNL d   1      14.857 -11.392  -4.170 -0.17 -0.01    +0.046 C 
DOCKED: ATOM     30  C   UNL d   1       5.525 -14.083  -2.088 -0.10 +0.02    +0.046 C 
DOCKED: ATOM     31  H   UNL d   1      10.359 -11.899  -4.988 -0.40 -0.10    +0.166 HD
DOCKED: ATOM     32  H   UNL d   1       9.180 -13.573  -4.845 +0.03 -0.03    +0.166 HD
DOCKED: ENDROOT
DOCKED: BRANCH   7  33
DOCKED: ATOM     33  C   UNL d   1       4.474 -13.668  -7.404 -0.17 -0.04    +0.141 C 
DOCKED: BRANCH  33  34
DOCKED: ATOM     34  C   UNL d   1       4.251 -12.311  -6.793 -0.21 -0.02    +0.306 C 
DOCKED: ATOM     35  O   UNL d   1       4.388 -11.237  -7.354 -0.65 -0.03    -0.251 OA
DOCKED: BRANCH  34  36
DOCKED: ATOM     36  O   UNL d   1       3.865 -12.379  -5.507 -0.07 -0.13    -0.481 OA
DOCKED: ATOM     37  H   UNL d   1       3.359 -13.217  -5.445 -0.32 -0.31    +0.295 HD
DOCKED: ENDBRANCH  34  36
DOCKED: ENDBRANCH  33  34
DOCKED: ENDBRANCH   7  33
DOCKED: BRANCH  27  38
DOCKED: ATOM     38  C   UNL d   1       8.102 -13.402  -0.422 -0.26 -0.00    +0.017 C 
DOCKED: ATOM     39  C   UNL d   1       9.113 -12.868   0.281 -0.27 -0.02    +0.092 C 
DOCKED: BRANCH  39  40
DOCKED: ATOM     40  C   UNL d   1       9.022 -12.785   1.741 -0.13 -0.14    +0.330 C 
DOCKED: ATOM     41  O   UNL d   1       9.864 -13.107   2.557 -0.16 +0.11    -0.246 OA
DOCKED: BRANCH  40  42
DOCKED: ATOM     42  O   UNL d   1       7.836 -12.272   2.101 -0.10 +0.30    -0.477 OA
DOCKED: ATOM     43  H   UNL d   1       8.070 -11.547   2.716 -0.39 -0.51    +0.295 HD
DOCKED: ENDBRANCH  40  42
DOCKED: ENDBRANCH  39  40
DOCKED: ENDBRANCH  27  38
DOCKED: BRANCH   8  44
DOCKED: ATOM     44  C   UNL d   1      10.673 -10.138 -10.513 -0.11 -0.06    +0.141 C 
DOCKED: BRANCH  44  45
DOCKED: ATOM     45  C   UNL d   1      10.160  -9.136 -11.513 -0.11 -0.11    +0.306 C 
DOCKED: ATOM     46  O   UNL d   1       9.064  -9.138 -12.046 -0.10 +0.04    -0.251 OA
DOCKED: BRANCH  45  47
DOCKED: ATOM     47  O   UNL d   1      11.072  -8.193 -11.811 -0.10 +0.30    -0.481 OA
DOCKED: ATOM     48  H   UNL d   1      11.642  -8.139 -11.014 -0.49 -0.56    +0.295 HD
DOCKED: ENDBRANCH  45  47
DOCKED: ENDBRANCH  44  45
DOCKED: ENDBRANCH   8  44
DOCKED: BRANCH  22  49
DOCKED: ATOM     49  C   UNL d   1      13.518 -13.015  -1.766 -0.11 -0.01    +0.048 C 
DOCKED: BRANCH  49  50
DOCKED: ATOM     50  C   UNL d   1      12.903 -12.433  -0.494 -0.02 -0.05    +0.125 C 
DOCKED: BRANCH  50  51
DOCKED: ATOM     51  C   UNL d   1      13.656 -11.214  -0.043 -0.11 -0.10    +0.305 C 
DOCKED: ATOM     52  O   UNL d   1      14.161 -11.014   1.048 -0.14 +0.06    -0.251 OA
DOCKED: BRANCH  51  53
DOCKED: ATOM     53  O   UNL d   1      13.728 -10.278  -1.010 -0.15 +0.17    -0.481 OA
DOCKED: ATOM     54  H   UNL d   1      12.832 -10.277  -1.407 -0.26 -0.21    +0.295 HD
DOCKED: ENDBRANCH  51  53
DOCKED: ENDBRANCH  50  51
DOCKED: ENDBRANCH  49  50
DOCKED: ENDBRANCH  22  49
DOCKED: TORSDOF 13
DOCKED: TER
DOCKED: ENDMDL
________________________________________________________________________________


	BEGINNING GENETIC ALGORITHM DOCKING 94 of 100
Run: 94 Seed: 654889780 595311154 [ Run 94 of 100 GA/GALS ]
Beginning LAMARCKIAN GENETIC ALGORITHM (LGA), with a maximum of 25000000 energy evaluations.

Final-Value: -11.601


	FINAL GENETIC ALGORITHM DOCKED STATE
	_______________________________________________


Detailed state:  trans -8.586 13.914 16.126 quatxyzw -0.990582 0.120604 -0.024355 0.060066 center 0.153 0.018 -0.028 ntor 13 -147.2051 62.5868 -179.9649 -124.4876 41.9946 126.9156 -57.2047 -3.4455 159.7279 -118.0231 -65.7722 -107.4047 29.0497
State:	 -8.586  13.914  16.126  -0.992  0.121 -0.024 173.113   -147.21   62.59 -179.96 -124.49   41.99  126.92  -57.20   -3.45  159.73 -118.02  -65.77 -107.40   29.05

DOCKED: MODEL       94
DOCKED: USER    Run = 94
DOCKED: USER    DPF = D:/Protein_go_brrr/autodock/final/AncMH_nat/heme/dock.dpf
DOCKED: USER  
DOCKED: USER    Estimated Free Energy of Binding    =   -4.11 kcal/mol  [=(1)+(2)+(3)-(4)]
DOCKED: USER    Estimated Inhibition Constant, Ki   =  971.83 uM (micromolar)  [Temperature = 298.15 K]
DOCKED: USER    
DOCKED: USER    (1) Final Intermolecular Energy     =   -7.99 kcal/mol
DOCKED: USER        vdW + Hbond + desolv Energy     =   -7.62 kcal/mol
DOCKED: USER        Electrostatic Energy            =   -0.37 kcal/mol
DOCKED: USER    (2) Final Total Internal Energy     =   -3.61 kcal/mol
DOCKED: USER    (3) Torsional Free Energy           =   +3.88 kcal/mol
DOCKED: USER    (4) Unbound System's Energy  [=(2)] =   -3.61 kcal/mol
DOCKED: USER    
DOCKED: USER    
DOCKED: USER    NEWDPF move heme_opt.pdbqt
DOCKED: USER    NEWDPF about 0.153000 0.018000 -0.028000
DOCKED: USER    NEWDPF tran0 -8.585708 13.914228 16.126004
DOCKED: USER    NEWDPF quaternion0 -0.990582 0.120604 -0.024355 0.060066
DOCKED: USER    NEWDPF axisangle0 -0.992374 0.120822 -0.024399 173.112741
DOCKED: USER    NEWDPF quat0 -0.992374 0.120822 -0.024399 173.112741
DOCKED: USER    NEWDPF dihe0 -147.21 62.59 -179.96 -124.49 41.99 126.92 -57.20 -3.45 159.73 -118.02 -65.77 -107.40 29.05 
DOCKED: USER  keepresnum = 1 
DOCKED: USER  
DOCKED: REMARK  13 active torsions:
DOCKED: REMARK  status: ('A' for Active; 'I' for Inactive)
DOCKED: REMARK    1  A    between atoms: O_3  and  C_38 
DOCKED: REMARK    2  A    between atoms: O_4  and  C_40 
DOCKED: REMARK    3  A    between atoms: O_7  and  C_46 
DOCKED: REMARK    4  A    between atoms: O_9  and  C_48 
DOCKED: REMARK    5  A    between atoms: C_15  and  C_20 
DOCKED: REMARK    6  A    between atoms: C_16  and  C_23 
DOCKED: REMARK    7  A    between atoms: C_20  and  C_38 
DOCKED: REMARK    8  A    between atoms: C_23  and  C_40 
DOCKED: REMARK    9  A    between atoms: C_32  and  C_41 
DOCKED: REMARK   10  A    between atoms: C_37  and  C_45 
DOCKED: REMARK   11  A    between atoms: C_41  and  C_44 
DOCKED: REMARK   12  A    between atoms: C_44  and  C_46 
DOCKED: REMARK   13  A    between atoms: C_47  and  C_48 
DOCKED: USER                              x       y       z     vdW  Elec       q    Type
DOCKED: USER                           _______ _______ _______ _____ _____    ______ ____
DOCKED: ROOT
DOCKED: ATOM      1  O   UNL d   1     -14.413  13.530  15.322 -0.02 +0.04    -0.289 OA
DOCKED: ATOM      2  O   UNL d   1     -10.044  19.409  16.977 -0.07 +0.17    -0.289 OA
DOCKED: ATOM      3  N   UNL d   1     -11.015  13.245  15.838 -0.12 +0.09    -0.247 NA
DOCKED: ATOM      4  N   UNL d   1     -10.128  16.067  16.120 -0.06 +0.19    -0.247 NA
DOCKED: ATOM      5  N   UNL d   1      -7.420  15.149  15.815 -0.09 +0.14    -0.354 N 
DOCKED: ATOM      6  N   UNL d   1      -8.351  12.227  15.503 -0.13 +0.09    -0.354 N 
DOCKED: ATOM      7  C   UNL d   1     -12.788  11.717  15.110 -0.14 -0.01    +0.084 A 
DOCKED: ATOM      8  C   UNL d   1     -11.779  17.684  16.914 -0.08 -0.05    +0.084 A 
DOCKED: ATOM      9  C   UNL d   1     -11.449  16.258  16.458 -0.14 -0.04    +0.058 A 
DOCKED: ATOM     10  C   UNL d   1     -11.309  11.956  15.427 -0.21 -0.01    +0.058 A 
DOCKED: ATOM     11  C   UNL d   1     -13.282  13.095  15.433 -0.05 -0.04    +0.193 A 
DOCKED: ATOM     12  C   UNL d   1     -12.117  13.920  15.887 -0.11 -0.04    +0.109 A 
DOCKED: ATOM     13  C   UNL d   1     -10.409  18.275  16.736 -0.07 -0.15    +0.193 A 
DOCKED: ATOM     14  C   UNL d   1     -13.020  11.444  13.622 -0.37 -0.00    +0.026 C 
DOCKED: ATOM     15  C   UNL d   1     -12.379  15.297  16.350 -0.11 -0.02    +0.055 C 
DOCKED: ATOM     16  C   UNL d   1     -12.148  17.734  18.400 -0.02 -0.01    +0.026 C 
DOCKED: ATOM     17  C   UNL d   1      -9.503  17.193  16.244 -0.16 -0.08    +0.109 A 
DOCKED: ATOM     18  C   UNL d   1     -10.410  10.953  15.387 -0.20 -0.01    +0.050 C 
DOCKED: ATOM     19  C   UNL d   1      -9.042  11.061  15.744 -0.24 -0.01    +0.045 A 
DOCKED: ATOM     20  C   UNL d   1      -7.221  16.503  15.734 -0.21 -0.01    +0.045 A 
DOCKED: ATOM     21  C   UNL d   1      -8.097  17.492  15.936 -0.19 -0.03    +0.057 C 
DOCKED: ATOM     22  C   UNL d   1      -5.257  15.437  15.258 -0.20 +0.00    -0.019 A 
DOCKED: ATOM     23  C   UNL d   1      -6.292  14.423  15.543 -0.22 -0.01    +0.045 A 
DOCKED: ATOM     24  C   UNL d   1      -5.813  16.666  15.374 -0.19 +0.00    -0.022 A 
DOCKED: ATOM     25  C   UNL d   1      -7.025  12.081  15.841 -0.24 -0.01    +0.049 A 
DOCKED: ATOM     26  C   UNL d   1      -8.152  10.147  16.285 -0.25 +0.00    -0.018 A 
DOCKED: ATOM     27  C   UNL d   1      -6.884  10.803  16.363 -0.22 -0.00    +0.003 A 
DOCKED: ATOM     28  C   UNL d   1      -6.080  13.098  15.538 -0.25 -0.01    +0.052 C 
DOCKED: ATOM     29  C   UNL d   1      -5.172  18.001  15.194 -0.12 +0.01    +0.046 C 
DOCKED: ATOM     30  C   UNL d   1      -8.457   8.750  16.708 -0.31 -0.02    +0.046 C 
DOCKED: ATOM     31  H   UNL d   1      -8.306  14.766  16.126 -0.22 -0.09    +0.166 HD
DOCKED: ATOM     32  H   UNL d   1      -8.771  13.053  15.095 -0.42 -0.08    +0.166 HD
DOCKED: ENDROOT
DOCKED: BRANCH   7  33
DOCKED: ATOM     33  C   UNL d   1     -13.488  10.675  15.989 -0.09 +0.00    +0.141 C 
DOCKED: BRANCH  33  34
DOCKED: ATOM     34  C   UNL d   1     -14.641  10.007  15.289 -0.12 +0.07    +0.306 C 
DOCKED: ATOM     35  O   UNL d   1     -14.607   8.939  14.703 -0.21 -0.08    -0.251 OA
DOCKED: BRANCH  34  36
DOCKED: ATOM     36  O   UNL d   1     -15.778  10.722  15.367 -0.03 -0.16    -0.481 OA
DOCKED: ATOM     37  H   UNL d   1     -15.480  11.655  15.409 +0.06 +0.04    +0.295 HD
DOCKED: ENDBRANCH  34  36
DOCKED: ENDBRANCH  33  34
DOCKED: ENDBRANCH   7  33
DOCKED: BRANCH  27  38
DOCKED: ATOM     38  C   UNL d   1      -5.677  10.209  16.852 -0.23 -0.01    +0.017 C 
DOCKED: ATOM     39  C   UNL d   1      -4.619   9.872  16.098 -0.18 -0.04    +0.092 C 
DOCKED: BRANCH  39  40
DOCKED: ATOM     40  C   UNL d   1      -3.432   9.285  16.726 -0.17 -0.18    +0.330 C 
DOCKED: ATOM     41  O   UNL d   1      -2.889   8.233  16.451 -0.32 +0.20    -0.246 OA
DOCKED: BRANCH  40  42
DOCKED: ATOM     42  O   UNL d   1      -2.976  10.094  17.695 +0.01 +0.15    -0.477 OA
DOCKED: ATOM     43  H   UNL d   1      -2.080  10.346  17.388 +0.07 -0.06    +0.295 HD
DOCKED: ENDBRANCH  40  42
DOCKED: ENDBRANCH  39  40
DOCKED: ENDBRANCH  27  38
DOCKED: BRANCH   8  44
DOCKED: ATOM     44  C   UNL d   1     -12.813  18.427  16.061 -0.06 -0.11    +0.141 C 
DOCKED: BRANCH  44  45
DOCKED: ATOM     45  C   UNL d   1     -12.884  19.900  16.364 -0.03 -0.17    +0.306 C 
DOCKED: ATOM     46  O   UNL d   1     -13.726  20.463  17.042 -0.01 +0.07    -0.251 OA
DOCKED: BRANCH  45  47
DOCKED: ATOM     47  O   UNL d   1     -11.898  20.596  15.770 -0.04 +0.39    -0.481 OA
DOCKED: ATOM     48  H   UNL d   1     -11.372  19.921  15.291 -0.51 -0.52    +0.295 HD
DOCKED: ENDBRANCH  45  47
DOCKED: ENDBRANCH  44  45
DOCKED: ENDBRANCH   8  44
DOCKED: BRANCH  22  49
DOCKED: ATOM     49  C   UNL d   1      -3.839  15.114  14.888 -0.15 +0.00    +0.048 C 
DOCKED: BRANCH  49  50
DOCKED: ATOM     50  C   UNL d   1      -3.177  14.199  15.918 -0.05 -0.01    +0.125 C 
DOCKED: BRANCH  50  51
DOCKED: ATOM     51  C   UNL d   1      -2.844  12.864  15.315 -0.04 -0.05    +0.305 C 
DOCKED: ATOM     52  O   UNL d   1      -3.185  12.434  14.228 -0.17 +0.06    -0.251 OA
DOCKED: BRANCH  51  53
DOCKED: ATOM     53  O   UNL d   1      -2.086  12.113  16.140 +0.02 +0.06    -0.481 OA
DOCKED: ATOM     54  H   UNL d   1      -2.604  12.076  16.971 +0.05 -0.04    +0.295 HD
DOCKED: ENDBRANCH  51  53
DOCKED: ENDBRANCH  50  51
DOCKED: ENDBRANCH  49  50
DOCKED: ENDBRANCH  22  49
DOCKED: TORSDOF 13
DOCKED: TER
DOCKED: ENDMDL
________________________________________________________________________________


	BEGINNING GENETIC ALGORITHM DOCKING 95 of 100
Run: 95 Seed: 926778065 1179117399 [ Run 95 of 100 GA/GALS ]
Beginning LAMARCKIAN GENETIC ALGORITHM (LGA), with a maximum of 25000000 energy evaluations.

Final-Value: -12.291


	FINAL GENETIC ALGORITHM DOCKED STATE
	_______________________________________________


Detailed state:  trans -13.794 10.177 -3.998 quatxyzw 0.849221 -0.294772 -0.351446 -0.261568 center 0.153 0.018 -0.028 ntor 13 93.0113 114.3089 116.8891 46.5441 -144.7770 117.1313 -35.8411 34.7176 23.3266 -136.8465 -83.4238 -111.9662 5.5270
State:	-13.794  10.177  -3.998   0.880 -0.305 -0.364 -149.674     93.01  114.31  116.89   46.54 -144.78  117.13  -35.84   34.72   23.33 -136.85  -83.42 -111.97    5.53

DOCKED: MODEL       95
DOCKED: USER    Run = 95
DOCKED: USER    DPF = D:/Protein_go_brrr/autodock/final/AncMH_nat/heme/dock.dpf
DOCKED: USER  
DOCKED: USER    Estimated Free Energy of Binding    =   -3.89 kcal/mol  [=(1)+(2)+(3)-(4)]
DOCKED: USER    Estimated Inhibition Constant, Ki   =    1.41 mM (millimolar)  [Temperature = 298.15 K]
DOCKED: USER    
DOCKED: USER    (1) Final Intermolecular Energy     =   -7.77 kcal/mol
DOCKED: USER        vdW + Hbond + desolv Energy     =   -7.13 kcal/mol
DOCKED: USER        Electrostatic Energy            =   -0.63 kcal/mol
DOCKED: USER    (2) Final Total Internal Energy     =   -4.52 kcal/mol
DOCKED: USER    (3) Torsional Free Energy           =   +3.88 kcal/mol
DOCKED: USER    (4) Unbound System's Energy  [=(2)] =   -4.52 kcal/mol
DOCKED: USER    
DOCKED: USER    
DOCKED: USER    NEWDPF move heme_opt.pdbqt
DOCKED: USER    NEWDPF about 0.153000 0.018000 -0.028000
DOCKED: USER    NEWDPF tran0 -13.794003 10.177318 -3.998391
DOCKED: USER    NEWDPF quaternion0 0.849221 -0.294772 -0.351446 -0.261568
DOCKED: USER    NEWDPF axisangle0 0.879854 -0.305405 -0.364123 -149.673725
DOCKED: USER    NEWDPF quat0 0.879854 -0.305405 -0.364123 -149.673725
DOCKED: USER    NEWDPF dihe0 93.01 114.31 116.89 46.54 -144.78 117.13 -35.84 34.72 23.33 -136.85 -83.42 -111.97 5.53 
DOCKED: USER  keepresnum = 1 
DOCKED: USER  
DOCKED: REMARK  13 active torsions:
DOCKED: REMARK  status: ('A' for Active; 'I' for Inactive)
DOCKED: REMARK    1  A    between atoms: O_3  and  C_38 
DOCKED: REMARK    2  A    between atoms: O_4  and  C_40 
DOCKED: REMARK    3  A    between atoms: O_7  and  C_46 
DOCKED: REMARK    4  A    between atoms: O_9  and  C_48 
DOCKED: REMARK    5  A    between atoms: C_15  and  C_20 
DOCKED: REMARK    6  A    between atoms: C_16  and  C_23 
DOCKED: REMARK    7  A    between atoms: C_20  and  C_38 
DOCKED: REMARK    8  A    between atoms: C_23  and  C_40 
DOCKED: REMARK    9  A    between atoms: C_32  and  C_41 
DOCKED: REMARK   10  A    between atoms: C_37  and  C_45 
DOCKED: REMARK   11  A    between atoms: C_41  and  C_44 
DOCKED: REMARK   12  A    between atoms: C_44  and  C_46 
DOCKED: REMARK   13  A    between atoms: C_47  and  C_48 
DOCKED: USER                              x       y       z     vdW  Elec       q    Type
DOCKED: USER                           _______ _______ _______ _____ _____    ______ ____
DOCKED: ROOT
DOCKED: ATOM      1  O   UNL d   1     -18.066  12.700  -0.813 -0.04 +0.08    -0.289 OA
DOCKED: ATOM      2  O   UNL d   1     -12.612  15.711  -5.006 -0.10 -0.02    -0.289 OA
DOCKED: ATOM      3  N   UNL d   1     -15.673  10.799  -2.412 +0.27 +0.00    -0.247 NA
DOCKED: ATOM      4  N   UNL d   1     -14.179  12.797  -4.026 -0.09 +0.01    -0.247 NA
DOCKED: ATOM      5  N   UNL d   1     -12.988  10.610  -5.462 -0.05 +0.03    -0.354 N 
DOCKED: ATOM      6  N   UNL d   1     -14.557   8.544  -3.797 -0.05 -0.03    -0.354 N 
DOCKED: ATOM      7  C   UNL d   1     -17.703  10.304  -1.131 -0.07 -0.00    +0.084 A 
DOCKED: ATOM      8  C   UNL d   1     -14.175  15.105  -3.223 -0.19 +0.00    +0.084 A 
DOCKED: ATOM      9  C   UNL d   1     -14.686  13.667  -3.087 -0.19 -0.01    +0.058 A 
DOCKED: ATOM     10  C   UNL d   1     -16.498   9.797  -1.929 -0.12 +0.00    +0.058 A 
DOCKED: ATOM     11  C   UNL d   1     -17.404  11.769  -1.234 -0.07 -0.04    +0.193 A 
DOCKED: ATOM     12  C   UNL d   1     -16.135  11.938  -2.012 -0.11 -0.02    +0.109 A 
DOCKED: ATOM     13  C   UNL d   1     -13.313  14.898  -4.436 -0.14 +0.01    +0.193 A 
DOCKED: ATOM     14  C   UNL d   1     -19.026  10.017  -1.846 -0.02 +0.00    +0.026 C 
DOCKED: ATOM     15  C   UNL d   1     -15.589  13.302  -2.163 -0.22 -0.01    +0.055 C 
DOCKED: ATOM     16  C   UNL d   1     -13.280  15.503  -2.045 -0.13 +0.00    +0.026 C 
DOCKED: ATOM     17  C   UNL d   1     -13.408  13.459  -4.828 -0.18 -0.01    +0.109 A 
DOCKED: ATOM     18  C   UNL d   1     -16.240   8.482  -2.053 -0.15 +0.01    +0.050 C 
DOCKED: ATOM     19  C   UNL d   1     -15.107   7.923  -2.699 -0.14 +0.01    +0.045 A 
DOCKED: ATOM     20  C   UNL d   1     -12.571  11.658  -6.241 -0.18 -0.01    +0.045 A 
DOCKED: ATOM     21  C   UNL d   1     -12.697  12.970  -6.018 -0.20 -0.01    +0.057 C 
DOCKED: ATOM     22  C   UNL d   1     -12.001   9.700  -7.271 -0.15 +0.00    -0.019 A 
DOCKED: ATOM     23  C   UNL d   1     -12.689   9.387  -6.002 -0.16 -0.00    +0.045 A 
DOCKED: ATOM     24  C   UNL d   1     -11.933  11.046  -7.406 -0.18 +0.00    -0.022 A 
DOCKED: ATOM     25  C   UNL d   1     -13.531   7.788  -4.315 -0.13 +0.00    +0.049 A 
DOCKED: ATOM     26  C   UNL d   1     -14.398   6.753  -2.475 -0.17 -0.01    -0.018 A 
DOCKED: ATOM     27  C   UNL d   1     -13.391   6.683  -3.488 -0.16 +0.00    +0.003 A 
DOCKED: ATOM     28  C   UNL d   1     -12.911   8.146  -5.543 -0.14 -0.00    +0.052 C 
DOCKED: ATOM     29  C   UNL d   1     -11.324  11.843  -8.509 -0.19 -0.01    +0.046 C 
DOCKED: ATOM     30  C   UNL d   1     -14.637   5.760  -1.389 -0.22 +0.03    +0.046 C 
DOCKED: ATOM     31  H   UNL d   1     -13.399  10.765  -4.548 +0.08 +0.00    +0.166 HD
DOCKED: ATOM     32  H   UNL d   1     -14.902   9.416  -4.179 +0.03 +0.01    +0.166 HD
DOCKED: ENDROOT
DOCKED: BRANCH   7  33
DOCKED: ATOM     33  C   UNL d   1     -17.751   9.866   0.337 -0.11 -0.00    +0.141 C 
DOCKED: BRANCH  33  34
DOCKED: ATOM     34  C   UNL d   1     -16.705  10.546   1.178 -0.21 -0.10    +0.306 C 
DOCKED: ATOM     35  O   UNL d   1     -15.576  10.139   1.392 -0.38 +0.09    -0.251 OA
DOCKED: BRANCH  34  36
DOCKED: ATOM     36  O   UNL d   1     -17.136  11.707   1.703 -0.06 +0.35    -0.481 OA
DOCKED: ATOM     37  H   UNL d   1     -16.908  12.382   1.030 -0.32 -0.37    +0.295 HD
DOCKED: ENDBRANCH  34  36
DOCKED: ENDBRANCH  33  34
DOCKED: ENDBRANCH   7  33
DOCKED: BRANCH  27  38
DOCKED: ATOM     38  C   UNL d   1     -12.442   5.621  -3.635 -0.15 +0.00    +0.017 C 
DOCKED: ATOM     39  C   UNL d   1     -12.494   4.661  -4.572 -0.07 -0.01    +0.092 C 
DOCKED: BRANCH  39  40
DOCKED: ATOM     40  C   UNL d   1     -11.446   3.638  -4.626 -0.06 -0.09    +0.330 C 
DOCKED: ATOM     41  O   UNL d   1     -11.564   2.443  -4.433 -0.09 +0.02    -0.246 OA
DOCKED: BRANCH  40  42
DOCKED: ATOM     42  O   UNL d   1     -10.269   4.199  -4.942 -0.06 +0.40    -0.477 OA
DOCKED: ATOM     43  H   UNL d   1     -10.401   4.521  -5.857 -0.42 -0.46    +0.295 HD
DOCKED: ENDBRANCH  40  42
DOCKED: ENDBRANCH  39  40
DOCKED: ENDBRANCH  27  38
DOCKED: BRANCH   8  44
DOCKED: ATOM     44  C   UNL d   1     -15.249  16.165  -3.487 -0.07 +0.01    +0.141 C 
DOCKED: BRANCH  44  45
DOCKED: ATOM     45  C   UNL d   1     -14.714  17.573  -3.457 -0.05 +0.11    +0.306 C 
DOCKED: ATOM     46  O   UNL d   1     -14.484  18.242  -2.465 -0.60 -0.23    -0.251 OA
DOCKED: BRANCH  45  47
DOCKED: ATOM     47  O   UNL d   1     -14.523  18.076  -4.690 +0.01 -0.10    -0.481 OA
DOCKED: ATOM     48  H   UNL d   1     -13.826  17.510  -5.084 +0.04 +0.05    +0.295 HD
DOCKED: ENDBRANCH  45  47
DOCKED: ENDBRANCH  44  45
DOCKED: ENDBRANCH   8  44
DOCKED: BRANCH  22  49
DOCKED: ATOM     49  C   UNL d   1     -11.493   8.665  -8.231 -0.12 -0.01    +0.048 C 
DOCKED: BRANCH  49  50
DOCKED: ATOM     50  C   UNL d   1     -10.177   8.047  -7.757 -0.25 -0.05    +0.125 C 
DOCKED: BRANCH  50  51
DOCKED: ATOM     51  C   UNL d   1     -10.421   6.742  -7.054 -0.11 -0.23    +0.305 C 
DOCKED: ATOM     52  O   UNL d   1     -11.336   5.959  -7.237 -0.10 +0.18    -0.251 OA
DOCKED: BRANCH  51  53
DOCKED: ATOM     53  O   UNL d   1      -9.480   6.488  -6.122 -0.05 +0.44    -0.481 OA
DOCKED: ATOM     54  H   UNL d   1      -9.236   5.552  -6.279 -0.35 -0.66    +0.295 HD
DOCKED: ENDBRANCH  51  53
DOCKED: ENDBRANCH  50  51
DOCKED: ENDBRANCH  49  50
DOCKED: ENDBRANCH  22  49
DOCKED: TORSDOF 13
DOCKED: TER
DOCKED: ENDMDL
________________________________________________________________________________


	BEGINNING GENETIC ALGORITHM DOCKING 96 of 100
Run: 96 Seed: 1922187776 2141858883 [ Run 96 of 100 GA/GALS ]
Beginning LAMARCKIAN GENETIC ALGORITHM (LGA), with a maximum of 25000000 energy evaluations.

Final-Value: -11.195


	FINAL GENETIC ALGORITHM DOCKED STATE
	_______________________________________________


Detailed state:  trans -12.621 -0.331 6.607 quatxyzw 0.563519 -0.286860 0.511620 -0.581724 center 0.153 0.018 -0.028 ntor 13 148.4821 73.7448 50.2970 150.0678 -141.0124 -127.9734 155.3847 6.8342 11.4217 179.2651 -62.9823 -143.3248 179.8187
State:	-12.621  -0.331   6.607   0.693 -0.353  0.629 -108.856    148.48   73.74   50.30  150.07 -141.01 -127.97  155.38    6.83   11.42  179.27  -62.98 -143.32  179.82

DOCKED: MODEL       96
DOCKED: USER    Run = 96
DOCKED: USER    DPF = D:/Protein_go_brrr/autodock/final/AncMH_nat/heme/dock.dpf
DOCKED: USER  
DOCKED: USER    Estimated Free Energy of Binding    =   -5.66 kcal/mol  [=(1)+(2)+(3)-(4)]
DOCKED: USER    Estimated Inhibition Constant, Ki   =   71.17 uM (micromolar)  [Temperature = 298.15 K]
DOCKED: USER    
DOCKED: USER    (1) Final Intermolecular Energy     =   -9.54 kcal/mol
DOCKED: USER        vdW + Hbond + desolv Energy     =   -9.27 kcal/mol
DOCKED: USER        Electrostatic Energy            =   -0.27 kcal/mol
DOCKED: USER    (2) Final Total Internal Energy     =   -1.66 kcal/mol
DOCKED: USER    (3) Torsional Free Energy           =   +3.88 kcal/mol
DOCKED: USER    (4) Unbound System's Energy  [=(2)] =   -1.66 kcal/mol
DOCKED: USER    
DOCKED: USER    
DOCKED: USER    NEWDPF move heme_opt.pdbqt
DOCKED: USER    NEWDPF about 0.153000 0.018000 -0.028000
DOCKED: USER    NEWDPF tran0 -12.620799 -0.331100 6.606655
DOCKED: USER    NEWDPF quaternion0 0.563519 -0.286860 0.511620 -0.581724
DOCKED: USER    NEWDPF axisangle0 0.692806 -0.352674 0.629000 -108.856239
DOCKED: USER    NEWDPF quat0 0.692806 -0.352674 0.629000 -108.856239
DOCKED: USER    NEWDPF dihe0 148.48 73.74 50.30 150.07 -141.01 -127.97 155.38 6.83 11.42 179.27 -62.98 -143.32 179.82 
DOCKED: USER  keepresnum = 1 
DOCKED: USER  
DOCKED: REMARK  13 active torsions:
DOCKED: REMARK  status: ('A' for Active; 'I' for Inactive)
DOCKED: REMARK    1  A    between atoms: O_3  and  C_38 
DOCKED: REMARK    2  A    between atoms: O_4  and  C_40 
DOCKED: REMARK    3  A    between atoms: O_7  and  C_46 
DOCKED: REMARK    4  A    between atoms: O_9  and  C_48 
DOCKED: REMARK    5  A    between atoms: C_15  and  C_20 
DOCKED: REMARK    6  A    between atoms: C_16  and  C_23 
DOCKED: REMARK    7  A    between atoms: C_20  and  C_38 
DOCKED: REMARK    8  A    between atoms: C_23  and  C_40 
DOCKED: REMARK    9  A    between atoms: C_32  and  C_41 
DOCKED: REMARK   10  A    between atoms: C_37  and  C_45 
DOCKED: REMARK   11  A    between atoms: C_41  and  C_44 
DOCKED: REMARK   12  A    between atoms: C_44  and  C_46 
DOCKED: REMARK   13  A    between atoms: C_47  and  C_48 
DOCKED: USER                              x       y       z     vdW  Elec       q    Type
DOCKED: USER                           _______ _______ _______ _____ _____    ______ ____
DOCKED: ROOT
DOCKED: ATOM      1  O   UNL d   1     -15.765  -2.740   2.240 -0.08 -0.30    -0.289 OA
DOCKED: ATOM      2  O   UNL d   1      -9.382   1.214   2.117 -0.21 -0.08    -0.289 OA
DOCKED: ATOM      3  N   UNL d   1     -14.345  -1.396   5.081 -0.11 -0.11    -0.247 NA
DOCKED: ATOM      4  N   UNL d   1     -11.759  -0.307   4.103 -0.12 -0.10    -0.247 NA
DOCKED: ATOM      5  N   UNL d   1     -10.934  -0.053   6.845 -0.24 -0.06    -0.354 N 
DOCKED: ATOM      6  N   UNL d   1     -13.612  -1.203   7.851 -0.22 -0.04    -0.354 N 
DOCKED: ATOM      7  C   UNL d   1     -16.246  -2.876   4.633 -0.08 +0.05    +0.084 A 
DOCKED: ATOM      8  C   UNL d   1     -11.634   0.329   1.747 -0.25 +0.06    +0.084 A 
DOCKED: ATOM      9  C   UNL d   1     -12.423  -0.306   2.897 -0.22 +0.04    +0.058 A 
DOCKED: ATOM     10  C   UNL d   1     -15.374  -2.130   5.647 -0.15 +0.02    +0.058 A 
DOCKED: ATOM     11  C   UNL d   1     -15.538  -2.421   3.393 -0.08 +0.15    +0.193 A 
DOCKED: ATOM     12  C   UNL d   1     -14.421  -1.508   3.795 -0.18 +0.07    +0.109 A 
DOCKED: ATOM     13  C   UNL d   1     -10.384   0.654   2.516 -0.21 +0.08    +0.193 A 
DOCKED: ATOM     14  C   UNL d   1     -16.099  -4.395   4.757 -0.19 +0.01    +0.026 C 
DOCKED: ATOM     15  C   UNL d   1     -13.634  -0.858   2.727 -0.29 +0.05    +0.055 C 
DOCKED: ATOM     16  C   UNL d   1     -12.274   1.637   1.272 -0.24 +0.03    +0.026 C 
DOCKED: ATOM     17  C   UNL d   1     -10.586   0.211   3.928 -0.19 +0.04    +0.109 A 
DOCKED: ATOM     18  C   UNL d   1     -15.666  -2.132   6.961 -0.24 +0.02    +0.050 C 
DOCKED: ATOM     19  C   UNL d   1     -14.969  -1.405   7.959 -0.27 +0.01    +0.045 A 
DOCKED: ATOM     20  C   UNL d   1      -9.744   0.205   6.217 -0.38 +0.01    +0.045 A 
DOCKED: ATOM     21  C   UNL d   1      -9.503   0.364   4.911 +0.08 +0.02    +0.057 C 
DOCKED: ATOM     22  C   UNL d   1      -9.375   0.067   8.467 -0.23 -0.00    -0.019 A 
DOCKED: ATOM     23  C   UNL d   1     -10.811  -0.154   8.206 -0.44 +0.01    +0.045 A 
DOCKED: ATOM     24  C   UNL d   1      -8.749   0.280   7.285 -0.40 -0.00    -0.022 A 
DOCKED: ATOM     25  C   UNL d   1     -13.129  -0.557   8.966 -0.33 +0.00    +0.049 A 
DOCKED: ATOM     26  C   UNL d   1     -15.385  -0.845   9.157 -0.27 -0.00    -0.018 A 
DOCKED: ATOM     27  C   UNL d   1     -14.222  -0.294   9.779 -0.23 +0.00    +0.003 A 
DOCKED: ATOM     28  C   UNL d   1     -11.732  -0.377   9.156 -0.30 +0.01    +0.052 C 
DOCKED: ATOM     29  C   UNL d   1      -7.307   0.561   7.032 -0.45 +0.00    +0.046 C 
DOCKED: ATOM     30  C   UNL d   1     -16.777  -0.819   9.692 -0.24 +0.01    +0.046 C 
DOCKED: ATOM     31  H   UNL d   1     -11.807  -0.079   6.329 +0.09 +0.03    +0.166 HD
DOCKED: ATOM     32  H   UNL d   1     -13.057  -1.529   7.069 +0.08 +0.03    +0.166 HD
DOCKED: ENDROOT
DOCKED: BRANCH   7  33
DOCKED: ATOM     33  C   UNL d   1     -17.719  -2.455   4.596 -0.04 +0.08    +0.141 C 
DOCKED: BRANCH  33  34
DOCKED: ATOM     34  C   UNL d   1     -17.896  -0.996   4.273 -0.06 +0.26    +0.306 C 
DOCKED: ATOM     35  O   UNL d   1     -17.889  -0.075   5.072 -0.16 -0.25    -0.251 OA
DOCKED: BRANCH  34  36
DOCKED: ATOM     36  O   UNL d   1     -18.072  -0.774   2.958 -0.01 -0.50    -0.481 OA
DOCKED: ATOM     37  H   UNL d   1     -17.521  -1.456   2.517 +0.07 +0.27    +0.295 HD
DOCKED: ENDBRANCH  34  36
DOCKED: ENDBRANCH  33  34
DOCKED: ENDBRANCH   7  33
DOCKED: BRANCH  27  38
DOCKED: ATOM     38  C   UNL d   1     -14.201   0.369  11.048 -0.35 -0.00    +0.017 C 
DOCKED: ATOM     39  C   UNL d   1     -14.319  -0.236  12.240 -0.33 -0.00    +0.092 C 
DOCKED: BRANCH  39  40
DOCKED: ATOM     40  C   UNL d   1     -14.264   0.558  13.470 -0.17 -0.02    +0.330 C 
DOCKED: ATOM     41  O   UNL d   1     -13.581   0.356  14.456 -0.21 +0.00    -0.246 OA
DOCKED: BRANCH  40  42
DOCKED: ATOM     42  O   UNL d   1     -15.097   1.607  13.381 -0.08 +0.07    -0.477 OA
DOCKED: ATOM     43  H   UNL d   1     -14.499   2.372  13.256 -0.28 -0.13    +0.295 HD
DOCKED: ENDBRANCH  40  42
DOCKED: ENDBRANCH  39  40
DOCKED: ENDBRANCH  27  38
DOCKED: BRANCH   8  44
DOCKED: ATOM     44  C   UNL d   1     -11.326  -0.598   0.566 -0.26 +0.09    +0.141 C 
DOCKED: BRANCH  44  45
DOCKED: ATOM     45  C   UNL d   1     -11.701  -0.007  -0.767 -0.09 +0.21    +0.306 C 
DOCKED: ATOM     46  O   UNL d   1     -10.935   0.352  -1.644 -0.25 -0.10    -0.251 OA
DOCKED: BRANCH  45  47
DOCKED: ATOM     47  O   UNL d   1     -13.031   0.127  -0.914 -0.08 -0.52    -0.481 OA
DOCKED: ATOM     48  H   UNL d   1     -13.226  -0.273  -1.788 +0.09 +0.26    +0.295 HD
DOCKED: ENDBRANCH  45  47
DOCKED: ENDBRANCH  44  45
DOCKED: ENDBRANCH   8  44
DOCKED: BRANCH  22  49
DOCKED: ATOM     49  C   UNL d   1      -8.752   0.035   9.831 -0.04 +0.00    +0.048 C 
DOCKED: BRANCH  49  50
DOCKED: ATOM     50  C   UNL d   1      -8.137  -1.329  10.144 +0.42 +0.00    +0.125 C 
DOCKED: BRANCH  50  51
DOCKED: ATOM     51  C   UNL d   1      -6.655  -1.213  10.359 -0.43 -0.00    +0.305 C 
DOCKED: ATOM     52  O   UNL d   1      -5.975  -0.203  10.316 -0.42 -0.01    -0.251 OA
DOCKED: BRANCH  51  53
DOCKED: ATOM     53  O   UNL d   1      -6.087  -2.409  10.612 +0.03 +0.04    -0.481 OA
DOCKED: ATOM     54  H   UNL d   1      -6.793  -2.917  11.062 -0.02 -0.06    +0.295 HD
DOCKED: ENDBRANCH  51  53
DOCKED: ENDBRANCH  50  51
DOCKED: ENDBRANCH  49  50
DOCKED: ENDBRANCH  22  49
DOCKED: TORSDOF 13
DOCKED: TER
DOCKED: ENDMDL
________________________________________________________________________________


	BEGINNING GENETIC ALGORITHM DOCKING 97 of 100
Run: 97 Seed: 940522259 1254497132 [ Run 97 of 100 GA/GALS ]
Beginning LAMARCKIAN GENETIC ALGORITHM (LGA), with a maximum of 25000000 energy evaluations.

Final-Value: -11.848


	FINAL GENETIC ALGORITHM DOCKED STATE
	_______________________________________________


Detailed state:  trans 2.972 7.366 -15.333 quatxyzw 0.577066 0.810387 -0.065954 0.076927 center 0.153 0.018 -0.028 ntor 13 -126.8447 101.0843 133.5234 26.3726 -148.2803 -58.0008 -51.0109 -44.9979 -8.8149 -137.3088 -120.4499 90.1746 -30.4898
State:	  2.972   7.366 -15.333   0.579  0.813 -0.066 171.176   -126.84  101.08  133.52   26.37 -148.28  -58.00  -51.01  -45.00   -8.81 -137.31 -120.45   90.17  -30.49

DOCKED: MODEL       97
DOCKED: USER    Run = 97
DOCKED: USER    DPF = D:/Protein_go_brrr/autodock/final/AncMH_nat/heme/dock.dpf
DOCKED: USER  
DOCKED: USER    Estimated Free Energy of Binding    =   -6.03 kcal/mol  [=(1)+(2)+(3)-(4)]
DOCKED: USER    Estimated Inhibition Constant, Ki   =   38.02 uM (micromolar)  [Temperature = 298.15 K]
DOCKED: USER    
DOCKED: USER    (1) Final Intermolecular Energy     =   -9.91 kcal/mol
DOCKED: USER        vdW + Hbond + desolv Energy     =   -8.91 kcal/mol
DOCKED: USER        Electrostatic Energy            =   -0.99 kcal/mol
DOCKED: USER    (2) Final Total Internal Energy     =   -1.94 kcal/mol
DOCKED: USER    (3) Torsional Free Energy           =   +3.88 kcal/mol
DOCKED: USER    (4) Unbound System's Energy  [=(2)] =   -1.94 kcal/mol
DOCKED: USER    
DOCKED: USER    
DOCKED: USER    NEWDPF move heme_opt.pdbqt
DOCKED: USER    NEWDPF about 0.153000 0.018000 -0.028000
DOCKED: USER    NEWDPF tran0 2.972453 7.366106 -15.332501
DOCKED: USER    NEWDPF quaternion0 0.577066 0.810387 -0.065954 0.076927
DOCKED: USER    NEWDPF axisangle0 0.578781 0.812796 -0.066150 171.176132
DOCKED: USER    NEWDPF quat0 0.578781 0.812796 -0.066150 171.176132
DOCKED: USER    NEWDPF dihe0 -126.84 101.08 133.52 26.37 -148.28 -58.00 -51.01 -45.00 -8.81 -137.31 -120.45 90.17 -30.49 
DOCKED: USER  keepresnum = 1 
DOCKED: USER  
DOCKED: REMARK  13 active torsions:
DOCKED: REMARK  status: ('A' for Active; 'I' for Inactive)
DOCKED: REMARK    1  A    between atoms: O_3  and  C_38 
DOCKED: REMARK    2  A    between atoms: O_4  and  C_40 
DOCKED: REMARK    3  A    between atoms: O_7  and  C_46 
DOCKED: REMARK    4  A    between atoms: O_9  and  C_48 
DOCKED: REMARK    5  A    between atoms: C_15  and  C_20 
DOCKED: REMARK    6  A    between atoms: C_16  and  C_23 
DOCKED: REMARK    7  A    between atoms: C_20  and  C_38 
DOCKED: REMARK    8  A    between atoms: C_23  and  C_40 
DOCKED: REMARK    9  A    between atoms: C_32  and  C_41 
DOCKED: REMARK   10  A    between atoms: C_37  and  C_45 
DOCKED: REMARK   11  A    between atoms: C_41  and  C_44 
DOCKED: REMARK   12  A    between atoms: C_44  and  C_46 
DOCKED: REMARK   13  A    between atoms: C_47  and  C_48 
DOCKED: USER                              x       y       z     vdW  Elec       q    Type
DOCKED: USER                           _______ _______ _______ _____ _____    ______ ____
DOCKED: ROOT
DOCKED: ATOM      1  O   UNL d   1       6.213   2.599 -16.570 -0.06 +0.13    -0.289 OA
DOCKED: ATOM      2  O   UNL d   1      -0.338   3.306 -12.967 -0.26 -0.01    -0.289 OA
DOCKED: ATOM      3  N   UNL d   1       4.739   5.656 -15.956 -0.04 -0.01    -0.247 NA
DOCKED: ATOM      4  N   UNL d   1       2.107   4.924 -14.788 -0.12 -0.03    -0.247 NA
DOCKED: ATOM      5  N   UNL d   1       1.275   7.647 -15.188 -0.10 -0.10    -0.354 N 
DOCKED: ATOM      6  N   UNL d   1       4.002   8.394 -16.416 -0.08 -0.09    -0.354 N 
DOCKED: ATOM      7  C   UNL d   1       6.703   4.905 -17.216 -0.06 -0.03    +0.084 A 
DOCKED: ATOM      8  C   UNL d   1       1.950   2.767 -13.649 -0.27 -0.00    +0.084 A 
DOCKED: ATOM      9  C   UNL d   1       2.768   3.753 -14.490 -0.20 +0.00    +0.058 A 
DOCKED: ATOM     10  C   UNL d   1       5.801   6.053 -16.752 -0.10 -0.01    +0.058 A 
DOCKED: ATOM     11  C   UNL d   1       5.973   3.792 -16.526 -0.07 -0.06    +0.193 A 
DOCKED: ATOM     12  C   UNL d   1       4.818   4.378 -15.775 -0.12 -0.01    +0.109 A 
DOCKED: ATOM     13  C   UNL d   1       0.689   3.579 -13.558 -0.20 +0.00    +0.193 A 
DOCKED: ATOM     14  C   UNL d   1       6.623   4.687 -18.729 -0.02 -0.01    +0.026 C 
DOCKED: ATOM     15  C   UNL d   1       4.002   3.475 -14.938 -0.19 -0.00    +0.055 C 
DOCKED: ATOM     16  C   UNL d   1       2.532   2.601 -12.242 -0.48 -0.00    +0.026 C 
DOCKED: ATOM     17  C   UNL d   1       0.912   4.859 -14.295 -0.21 +0.01    +0.109 A 
DOCKED: ATOM     18  C   UNL d   1       6.094   7.336 -17.035 -0.11 -0.00    +0.050 C 
DOCKED: ATOM     19  C   UNL d   1       5.367   8.465 -16.579 -0.12 +0.01    +0.045 A 
DOCKED: ATOM     20  C   UNL d   1       0.074   7.081 -14.847 -0.24 +0.00    +0.045 A 
DOCKED: ATOM     21  C   UNL d   1      -0.175   5.842 -14.412 -0.29 +0.00    +0.057 C 
DOCKED: ATOM     22  C   UNL d   1      -0.285   9.241 -15.499 -0.14 +0.00    -0.019 A 
DOCKED: ATOM     23  C   UNL d   1       1.160   8.949 -15.595 -0.15 +0.01    +0.045 A 
DOCKED: ATOM     24  C   UNL d   1      -0.922   8.132 -15.055 -0.19 +0.00    -0.022 A 
DOCKED: ATOM     25  C   UNL d   1       3.494   9.620 -16.057 -0.08 +0.02    +0.049 A 
DOCKED: ATOM     26  C   UNL d   1       5.760   9.761 -16.282 -0.10 -0.00    -0.018 A 
DOCKED: ATOM     27  C   UNL d   1       4.576  10.481 -15.934 -0.01 +0.00    +0.003 A 
DOCKED: ATOM     28  C   UNL d   1       2.090   9.834 -15.983 -0.13 +0.01    +0.052 C 
DOCKED: ATOM     29  C   UNL d   1      -2.375   7.935 -14.787 -0.19 -0.01    +0.046 C 
DOCKED: ATOM     30  C   UNL d   1       7.150  10.300 -16.317 -0.13 -0.01    +0.046 C 
DOCKED: ATOM     31  H   UNL d   1       2.148   7.145 -15.060 +0.04 +0.07    +0.166 HD
DOCKED: ATOM     32  H   UNL d   1       3.461   7.554 -16.584 +0.02 +0.03    +0.166 HD
DOCKED: ENDROOT
DOCKED: BRANCH   7  33
DOCKED: ATOM     33  C   UNL d   1       8.156   4.976 -16.734 -0.12 -0.09    +0.141 C 
DOCKED: BRANCH  33  34
DOCKED: ATOM     34  C   UNL d   1       8.273   5.467 -15.317 -0.22 -0.23    +0.306 C 
DOCKED: ATOM     35  O   UNL d   1       8.462   6.620 -14.967 -0.26 +0.13    -0.251 OA
DOCKED: BRANCH  34  36
DOCKED: ATOM     36  O   UNL d   1       8.143   4.480 -14.413 -0.22 +0.60    -0.481 OA
DOCKED: ATOM     37  H   UNL d   1       8.769   3.787 -14.713 -0.30 -0.72    +0.295 HD
DOCKED: ENDBRANCH  34  36
DOCKED: ENDBRANCH  33  34
DOCKED: ENDBRANCH   7  33
DOCKED: BRANCH  27  38
DOCKED: ATOM     38  C   UNL d   1       4.527  11.865 -15.572 -0.17 -0.00    +0.017 C 
DOCKED: ATOM     39  C   UNL d   1       5.268  12.441 -14.613 -0.18 -0.03    +0.092 C 
DOCKED: BRANCH  39  40
DOCKED: ATOM     40  C   UNL d   1       5.136  13.877 -14.352 -0.13 -0.33    +0.330 C 
DOCKED: ATOM     41  O   UNL d   1       5.338  14.795 -15.124 -0.12 +0.22    -0.246 OA
DOCKED: BRANCH  40  42
DOCKED: ATOM     42  O   UNL d   1       4.733  14.081 -13.088 -0.29 +0.55    -0.477 OA
DOCKED: ATOM     43  H   UNL d   1       3.770  13.906 -13.117 -0.34 -0.62    +0.295 HD
DOCKED: ENDBRANCH  40  42
DOCKED: ENDBRANCH  39  40
DOCKED: ENDBRANCH  27  38
DOCKED: BRANCH   8  44
DOCKED: ATOM     44  C   UNL d   1       1.682   1.407 -14.302 -0.19 -0.01    +0.141 C 
DOCKED: BRANCH  44  45
DOCKED: ATOM     45  C   UNL d   1       1.022   0.423 -13.374 -0.19 -0.02    +0.306 C 
DOCKED: ATOM     46  O   UNL d   1       1.578  -0.426 -12.699 -0.37 +0.02    -0.251 OA
DOCKED: BRANCH  45  47
DOCKED: ATOM     47  O   UNL d   1      -0.318   0.541 -13.367 -0.09 +0.01    -0.481 OA
DOCKED: ATOM     48  H   UNL d   1      -0.482   1.504 -13.272 +0.17 -0.00    +0.295 HD
DOCKED: ENDBRANCH  45  47
DOCKED: ENDBRANCH  44  45
DOCKED: ENDBRANCH   8  44
DOCKED: BRANCH  22  49
DOCKED: ATOM     49  C   UNL d   1      -0.904  10.559 -15.861 -0.09 -0.01    +0.048 C 
DOCKED: BRANCH  49  50
DOCKED: ATOM     50  C   UNL d   1      -1.495  11.264 -14.640 -0.12 -0.04    +0.125 C 
DOCKED: BRANCH  50  51
DOCKED: ATOM     51  C   UNL d   1      -0.433  11.540 -13.613 -0.18 -0.12    +0.305 C 
DOCKED: ATOM     52  O   UNL d   1       0.369  10.751 -13.145 -0.54 +0.02    -0.251 OA
DOCKED: BRANCH  51  53
DOCKED: ATOM     53  O   UNL d   1      -0.444  12.825 -13.209 -0.13 +0.32    -0.481 OA
DOCKED: ATOM     54  H   UNL d   1       0.476  12.990 -12.914 -0.43 -0.55    +0.295 HD
DOCKED: ENDBRANCH  51  53
DOCKED: ENDBRANCH  50  51
DOCKED: ENDBRANCH  49  50
DOCKED: ENDBRANCH  22  49
DOCKED: TORSDOF 13
DOCKED: TER
DOCKED: ENDMDL
________________________________________________________________________________


	BEGINNING GENETIC ALGORITHM DOCKING 98 of 100
Run: 98 Seed: 2142063489 1204833869 [ Run 98 of 100 GA/GALS ]
Beginning LAMARCKIAN GENETIC ALGORITHM (LGA), with a maximum of 25000000 energy evaluations.

Final-Value: -11.990


	FINAL GENETIC ALGORITHM DOCKED STATE
	_______________________________________________


Detailed state:  trans 10.460 -11.645 -5.321 quatxyzw -0.040274 0.897559 -0.426013 -0.106200 center 0.153 0.018 -0.028 ntor 13 -123.1610 48.4548 -121.4803 -83.5520 48.2489 -169.2581 123.2324 -91.6774 147.6200 -21.6915 -147.8328 -12.3461 151.1443
State:	 10.460 -11.645  -5.321  -0.041  0.903 -0.428 -167.807   -123.16   48.45 -121.48  -83.55   48.25 -169.26  123.23  -91.68  147.62  -21.69 -147.83  -12.35  151.14

DOCKED: MODEL       98
DOCKED: USER    Run = 98
DOCKED: USER    DPF = D:/Protein_go_brrr/autodock/final/AncMH_nat/heme/dock.dpf
DOCKED: USER  
DOCKED: USER    Estimated Free Energy of Binding    =   -5.44 kcal/mol  [=(1)+(2)+(3)-(4)]
DOCKED: USER    Estimated Inhibition Constant, Ki   =  102.51 uM (micromolar)  [Temperature = 298.15 K]
DOCKED: USER    
DOCKED: USER    (1) Final Intermolecular Energy     =   -9.32 kcal/mol
DOCKED: USER        vdW + Hbond + desolv Energy     =   -9.11 kcal/mol
DOCKED: USER        Electrostatic Energy            =   -0.21 kcal/mol
DOCKED: USER    (2) Final Total Internal Energy     =   -2.67 kcal/mol
DOCKED: USER    (3) Torsional Free Energy           =   +3.88 kcal/mol
DOCKED: USER    (4) Unbound System's Energy  [=(2)] =   -2.67 kcal/mol
DOCKED: USER    
DOCKED: USER    
DOCKED: USER    NEWDPF move heme_opt.pdbqt
DOCKED: USER    NEWDPF about 0.153000 0.018000 -0.028000
DOCKED: USER    NEWDPF tran0 10.460263 -11.645494 -5.321287
DOCKED: USER    NEWDPF quaternion0 -0.040274 0.897559 -0.426013 -0.106200
DOCKED: USER    NEWDPF axisangle0 -0.040503 0.902664 -0.428436 -167.807375
DOCKED: USER    NEWDPF quat0 -0.040503 0.902664 -0.428436 -167.807375
DOCKED: USER    NEWDPF dihe0 -123.16 48.45 -121.48 -83.55 48.25 -169.26 123.23 -91.68 147.62 -21.69 -147.83 -12.35 151.14 
DOCKED: USER  keepresnum = 1 
DOCKED: USER  
DOCKED: REMARK  13 active torsions:
DOCKED: REMARK  status: ('A' for Active; 'I' for Inactive)
DOCKED: REMARK    1  A    between atoms: O_3  and  C_38 
DOCKED: REMARK    2  A    between atoms: O_4  and  C_40 
DOCKED: REMARK    3  A    between atoms: O_7  and  C_46 
DOCKED: REMARK    4  A    between atoms: O_9  and  C_48 
DOCKED: REMARK    5  A    between atoms: C_15  and  C_20 
DOCKED: REMARK    6  A    between atoms: C_16  and  C_23 
DOCKED: REMARK    7  A    between atoms: C_20  and  C_38 
DOCKED: REMARK    8  A    between atoms: C_23  and  C_40 
DOCKED: REMARK    9  A    between atoms: C_32  and  C_41 
DOCKED: REMARK   10  A    between atoms: C_37  and  C_45 
DOCKED: REMARK   11  A    between atoms: C_41  and  C_44 
DOCKED: REMARK   12  A    between atoms: C_44  and  C_46 
DOCKED: REMARK   13  A    between atoms: C_47  and  C_48 
DOCKED: USER                              x       y       z     vdW  Elec       q    Type
DOCKED: USER                           _______ _______ _______ _____ _____    ______ ____
DOCKED: ROOT
DOCKED: ATOM      1  O   UNL d   1      16.103 -10.152  -6.148 -0.61 +0.00    -0.289 OA
DOCKED: ATOM      2  O   UNL d   1      12.605 -13.090  -0.188 -0.09 +0.09    -0.289 OA
DOCKED: ATOM      3  N   UNL d   1      12.705 -10.741  -6.079 -0.20 +0.09    -0.247 NA
DOCKED: ATOM      4  N   UNL d   1      12.311 -12.160  -3.498 -0.17 +0.09    -0.247 NA
DOCKED: ATOM      5  N   UNL d   1       9.679 -12.881  -4.403 -0.09 +0.10    -0.354 N 
DOCKED: ATOM      6  N   UNL d   1      10.104 -11.423  -7.086 -0.06 +0.14    -0.354 N 
DOCKED: ATOM      7  C   UNL d   1      14.298 -10.005  -7.790 -0.21 -0.03    +0.084 A 
DOCKED: ATOM      8  C   UNL d   1      13.939 -11.732  -1.727 -0.15 -0.02    +0.084 A 
DOCKED: ATOM      9  C   UNL d   1      13.494 -11.532  -3.180 -0.23 -0.02    +0.058 A 
DOCKED: ATOM     10  C   UNL d   1      12.860 -10.360  -7.401 -0.24 -0.03    +0.058 A 
DOCKED: ATOM     11  C   UNL d   1      14.926 -10.235  -6.449 -0.17 -0.03    +0.193 A 
DOCKED: ATOM     12  C   UNL d   1      13.854 -10.653  -5.491 -0.23 -0.02    +0.109 A 
DOCKED: ATOM     13  C   UNL d   1      12.809 -12.621  -1.291 +0.04 -0.07    +0.193 A 
DOCKED: ATOM     14  C   UNL d   1      14.886 -11.004  -8.790 -0.07 -0.01    +0.026 C 
DOCKED: ATOM     15  C   UNL d   1      14.224 -10.848  -4.074 -0.19 -0.01    +0.055 C 
DOCKED: ATOM     16  C   UNL d   1      13.876 -10.427  -0.929 -0.23 -0.01    +0.026 C 
DOCKED: ATOM     17  C   UNL d   1      11.895 -12.809  -2.458 -0.08 -0.04    +0.109 A 
DOCKED: ATOM     18  C   UNL d   1      11.841 -10.216  -8.269 -0.26 -0.03    +0.050 C 
DOCKED: ATOM     19  C   UNL d   1      10.472 -10.438  -7.974 -0.25 -0.02    +0.045 A 
DOCKED: ATOM     20  C   UNL d   1       9.763 -13.660  -3.279 -0.18 -0.01    +0.045 A 
DOCKED: ATOM     21  C   UNL d   1      10.713 -13.674  -2.338 -0.17 -0.01    +0.057 C 
DOCKED: ATOM     22  C   UNL d   1       7.852 -14.198  -4.409 -0.11 +0.00    -0.019 A 
DOCKED: ATOM     23  C   UNL d   1       8.559 -13.134  -5.149 -0.16 -0.01    +0.045 A 
DOCKED: ATOM     24  C   UNL d   1       8.569 -14.505  -3.302 -0.10 +0.00    -0.022 A 
DOCKED: ATOM     25  C   UNL d   1       8.734 -11.526  -7.019 -0.12 -0.01    +0.049 A 
DOCKED: ATOM     26  C   UNL d   1       9.312  -9.862  -8.469 -0.29 +0.01    -0.018 A 
DOCKED: ATOM     27  C   UNL d   1       8.218 -10.539  -7.847 -0.26 -0.00    +0.003 A 
DOCKED: ATOM     28  C   UNL d   1       8.116 -12.576  -6.287 -0.18 -0.01    +0.052 C 
DOCKED: ATOM     29  C   UNL d   1       8.263 -15.504  -2.239 -0.05 -0.00    +0.046 C 
DOCKED: ATOM     30  C   UNL d   1       9.223  -8.748  -9.457 -0.35 -0.02    +0.046 C 
DOCKED: ATOM     31  H   UNL d   1      10.354 -12.146  -4.586 -0.29 -0.08    +0.166 HD
DOCKED: ATOM     32  H   UNL d   1      10.767 -12.008  -6.592 -0.00 -0.06    +0.166 HD
DOCKED: ENDROOT
DOCKED: BRANCH   7  33
DOCKED: ATOM     33  C   UNL d   1      14.518  -8.558  -8.246 -0.21 -0.11    +0.141 C 
DOCKED: BRANCH  33  34
DOCKED: ATOM     34  C   UNL d   1      15.833  -8.366  -8.951 -0.18 -0.18    +0.306 C 
DOCKED: ATOM     35  O   UNL d   1      15.996  -8.269 -10.156 -0.14 +0.18    -0.251 OA
DOCKED: BRANCH  34  36
DOCKED: ATOM     36  O   UNL d   1      16.873  -8.304  -8.101 -0.08 +0.12    -0.481 OA
DOCKED: ATOM     37  H   UNL d   1      16.804  -9.123  -7.566 +0.07 -0.04    +0.295 HD
DOCKED: ENDBRANCH  34  36
DOCKED: ENDBRANCH  33  34
DOCKED: ENDBRANCH   7  33
DOCKED: BRANCH  27  38
DOCKED: ATOM     38  C   UNL d   1       6.834 -10.265  -8.089 -0.27 -0.00    +0.017 C 
DOCKED: ATOM     39  C   UNL d   1       5.832 -10.527  -7.235 -0.33 +0.00    +0.092 C 
DOCKED: BRANCH  39  40
DOCKED: ATOM     40  C   UNL d   1       4.455 -10.181  -7.597 -0.26 +0.05    +0.330 C 
DOCKED: ATOM     41  O   UNL d   1       3.468 -10.217  -6.887 -0.96 -0.07    -0.246 OA
DOCKED: BRANCH  40  42
DOCKED: ATOM     42  O   UNL d   1       4.400  -9.785  -8.878 -0.63 -0.02    -0.477 OA
DOCKED: ATOM     43  H   UNL d   1       3.883  -8.954  -8.845 -0.24 -0.06    +0.295 HD
DOCKED: ENDBRANCH  40  42
DOCKED: ENDBRANCH  39  40
DOCKED: ENDBRANCH  27  38
DOCKED: BRANCH   8  44
DOCKED: ATOM     44  C   UNL d   1      15.290 -12.432  -1.541 -0.05 -0.02    +0.141 C 
DOCKED: BRANCH  44  45
DOCKED: ATOM     45  C   UNL d   1      15.252 -13.898  -1.882 -0.00 -0.04    +0.306 C 
DOCKED: ATOM     46  O   UNL d   1      15.287 -14.385  -2.999 -0.00 +0.03    -0.251 OA
DOCKED: BRANCH  45  47
DOCKED: ATOM     47  O   UNL d   1      15.144 -14.678  -0.792 +0.00 +0.06    -0.481 OA
DOCKED: ATOM     48  H   UNL d   1      14.322 -14.375  -0.351 +0.02 -0.05    +0.295 HD
DOCKED: ENDBRANCH  45  47
DOCKED: ENDBRANCH  44  45
DOCKED: ENDBRANCH   8  44
DOCKED: BRANCH  22  49
DOCKED: ATOM     49  C   UNL d   1       6.562 -14.821  -4.855 -0.10 -0.00    +0.048 C 
DOCKED: BRANCH  49  50
DOCKED: ATOM     50  C   UNL d   1       6.740 -15.648  -6.128 -0.02 -0.02    +0.125 C 
DOCKED: BRANCH  50  51
DOCKED: ATOM     51  C   UNL d   1       8.100 -16.286  -6.167 +0.01 -0.04    +0.305 C 
DOCKED: ATOM     52  O   UNL d   1       9.090 -15.889  -6.755 -0.00 +0.03    -0.251 OA
DOCKED: BRANCH  51  53
DOCKED: ATOM     53  O   UNL d   1       8.141 -17.430  -5.455 +0.01 +0.05    -0.481 OA
DOCKED: ATOM     54  H   UNL d   1       7.993 -18.132  -6.123 +0.00 -0.03    +0.295 HD
DOCKED: ENDBRANCH  51  53
DOCKED: ENDBRANCH  50  51
DOCKED: ENDBRANCH  49  50
DOCKED: ENDBRANCH  22  49
DOCKED: TORSDOF 13
DOCKED: TER
DOCKED: ENDMDL
________________________________________________________________________________


	BEGINNING GENETIC ALGORITHM DOCKING 99 of 100
Run: 99 Seed: 1210597875 547388211 [ Run 99 of 100 GA/GALS ]
Beginning LAMARCKIAN GENETIC ALGORITHM (LGA), with a maximum of 25000000 energy evaluations.

Final-Value: -12.145


	FINAL GENETIC ALGORITHM DOCKED STATE
	_______________________________________________


Detailed state:  trans -8.437 -6.897 19.285 quatxyzw 0.137740 -0.150626 0.153756 -0.966798 center 0.153 0.018 -0.028 ntor 13 -137.0069 -179.1766 -177.7680 -20.8467 31.8271 41.0347 138.3030 -66.9506 113.8253 -19.5564 -85.9231 -75.9206 -12.0871
State:	 -8.437  -6.897  19.285   0.539 -0.589  0.602 -29.611   -137.01 -179.18 -177.77  -20.85   31.83   41.03  138.30  -66.95  113.83  -19.56  -85.92  -75.92  -12.09

DOCKED: MODEL       99
DOCKED: USER    Run = 99
DOCKED: USER    DPF = D:/Protein_go_brrr/autodock/final/AncMH_nat/heme/dock.dpf
DOCKED: USER  
DOCKED: USER    Estimated Free Energy of Binding    =   -3.78 kcal/mol  [=(1)+(2)+(3)-(4)]
DOCKED: USER    Estimated Inhibition Constant, Ki   =    1.69 mM (millimolar)  [Temperature = 298.15 K]
DOCKED: USER    
DOCKED: USER    (1) Final Intermolecular Energy     =   -7.66 kcal/mol
DOCKED: USER        vdW + Hbond + desolv Energy     =   -7.32 kcal/mol
DOCKED: USER        Electrostatic Energy            =   -0.34 kcal/mol
DOCKED: USER    (2) Final Total Internal Energy     =   -4.48 kcal/mol
DOCKED: USER    (3) Torsional Free Energy           =   +3.88 kcal/mol
DOCKED: USER    (4) Unbound System's Energy  [=(2)] =   -4.48 kcal/mol
DOCKED: USER    
DOCKED: USER    
DOCKED: USER    NEWDPF move heme_opt.pdbqt
DOCKED: USER    NEWDPF about 0.153000 0.018000 -0.028000
DOCKED: USER    NEWDPF tran0 -8.436676 -6.897318 19.284664
DOCKED: USER    NEWDPF quaternion0 0.137740 -0.150626 0.153756 -0.966798
DOCKED: USER    NEWDPF axisangle0 0.539013 -0.589437 0.601688 -29.611314
DOCKED: USER    NEWDPF quat0 0.539013 -0.589437 0.601688 -29.611314
DOCKED: USER    NEWDPF dihe0 -137.01 -179.18 -177.77 -20.85 31.83 41.03 138.30 -66.95 113.83 -19.56 -85.92 -75.92 -12.09 
DOCKED: USER  keepresnum = 1 
DOCKED: USER  
DOCKED: REMARK  13 active torsions:
DOCKED: REMARK  status: ('A' for Active; 'I' for Inactive)
DOCKED: REMARK    1  A    between atoms: O_3  and  C_38 
DOCKED: REMARK    2  A    between atoms: O_4  and  C_40 
DOCKED: REMARK    3  A    between atoms: O_7  and  C_46 
DOCKED: REMARK    4  A    between atoms: O_9  and  C_48 
DOCKED: REMARK    5  A    between atoms: C_15  and  C_20 
DOCKED: REMARK    6  A    between atoms: C_16  and  C_23 
DOCKED: REMARK    7  A    between atoms: C_20  and  C_38 
DOCKED: REMARK    8  A    between atoms: C_23  and  C_40 
DOCKED: REMARK    9  A    between atoms: C_32  and  C_41 
DOCKED: REMARK   10  A    between atoms: C_37  and  C_45 
DOCKED: REMARK   11  A    between atoms: C_41  and  C_44 
DOCKED: REMARK   12  A    between atoms: C_44  and  C_46 
DOCKED: REMARK   13  A    between atoms: C_47  and  C_48 
DOCKED: USER                              x       y       z     vdW  Elec       q    Type
DOCKED: USER                           _______ _______ _______ _____ _____    ______ ____
DOCKED: ROOT
DOCKED: ATOM      1  O   UNL d   1     -14.261  -6.990  18.378 -0.13 -0.30    -0.289 OA
DOCKED: ATOM      2  O   UNL d   1      -8.813 -11.516  15.885 -0.66 -0.36    -0.289 OA
DOCKED: ATOM      3  N   UNL d   1     -10.925  -6.456  19.072 -0.10 -0.04    -0.247 NA
DOCKED: ATOM      4  N   UNL d   1      -9.600  -8.868  17.953 -0.10 -0.03    -0.247 NA
DOCKED: ATOM      5  N   UNL d   1      -7.231  -8.127  19.404 -0.11 +0.03    -0.354 N 
DOCKED: ATOM      6  N   UNL d   1      -8.620  -5.637  20.577 -0.06 +0.02    -0.354 N 
DOCKED: ATOM      7  C   UNL d   1     -13.028  -5.418  19.786 -0.09 +0.02    +0.084 A 
DOCKED: ATOM      8  C   UNL d   1     -10.732 -10.014  16.115 -0.36 +0.04    +0.084 A 
DOCKED: ATOM      9  C   UNL d   1     -10.742  -8.918  17.185 -0.26 +0.02    +0.058 A 
DOCKED: ATOM     10  C   UNL d   1     -11.499  -5.473  19.862 -0.13 +0.01    +0.058 A 
DOCKED: ATOM     11  C   UNL d   1     -13.215  -6.532  18.800 -0.12 +0.09    +0.193 A 
DOCKED: ATOM     12  C   UNL d   1     -11.866  -7.062  18.425 -0.17 +0.03    +0.109 A 
DOCKED: ATOM     13  C   UNL d   1      -9.388 -10.602  16.442 -0.21 +0.10    +0.193 A 
DOCKED: ATOM     14  C   UNL d   1     -13.683  -5.815  21.112 -0.03 +0.00    +0.026 C 
DOCKED: ATOM     15  C   UNL d   1     -11.796  -8.111  17.388 -0.31 +0.02    +0.055 C 
DOCKED: ATOM     16  C   UNL d   1     -10.681  -9.427  14.701 -0.27 +0.01    +0.026 C 
DOCKED: ATOM     17  C   UNL d   1      -8.810  -9.823  17.578 -0.19 +0.02    +0.109 A 
DOCKED: ATOM     18  C   UNL d   1     -10.797  -4.571  20.573 -0.16 -0.00    +0.050 C 
DOCKED: ATOM     19  C   UNL d   1      -9.382  -4.493  20.634 -0.18 -0.00    +0.045 A 
DOCKED: ATOM     20  C   UNL d   1      -6.868  -9.381  18.986 -0.20 -0.00    +0.045 A 
DOCKED: ATOM     21  C   UNL d   1      -7.507 -10.202  18.146 -0.22 +0.00    +0.057 C 
DOCKED: ATOM     22  C   UNL d   1      -5.275  -8.591  20.420 -0.19 +0.00    -0.019 A 
DOCKED: ATOM     23  C   UNL d   1      -6.331  -7.570  20.273 -0.20 -0.01    +0.045 A 
DOCKED: ATOM     24  C   UNL d   1      -5.598  -9.660  19.654 -0.18 +0.00    -0.022 A 
DOCKED: ATOM     25  C   UNL d   1      -7.287  -5.339  20.743 -0.17 -0.00    +0.049 A 
DOCKED: ATOM     26  C   UNL d   1      -8.521  -3.420  20.805 -0.19 +0.00    -0.018 A 
DOCKED: ATOM     27  C   UNL d   1      -7.198  -3.958  20.854 -0.19 -0.00    +0.003 A 
DOCKED: ATOM     28  C   UNL d   1      -6.321  -6.372  20.878 -0.18 -0.01    +0.052 C 
DOCKED: ATOM     29  C   UNL d   1      -4.844 -10.932  19.461 -0.12 -0.00    +0.046 C 
DOCKED: ATOM     30  C   UNL d   1      -8.901  -1.982  20.914 -0.08 -0.01    +0.046 C 
DOCKED: ATOM     31  H   UNL d   1      -8.048  -7.661  19.024 +0.07 -0.01    +0.166 HD
DOCKED: ATOM     32  H   UNL d   1      -9.010  -6.566  20.468 +0.05 -0.00    +0.166 HD
DOCKED: ENDROOT
DOCKED: BRANCH   7  33
DOCKED: ATOM     33  C   UNL d   1     -13.612  -4.111  19.239 -0.14 +0.03    +0.141 C 
DOCKED: BRANCH  33  34
DOCKED: ATOM     34  C   UNL d   1     -15.035  -4.262  18.775 -0.08 +0.16    +0.306 C 
DOCKED: ATOM     35  O   UNL d   1     -16.033  -4.166  19.469 -0.03 -0.11    -0.251 OA
DOCKED: BRANCH  34  36
DOCKED: ATOM     36  O   UNL d   1     -15.126  -4.524  17.459 -0.37 -0.47    -0.481 OA
DOCKED: ATOM     37  H   UNL d   1     -14.397  -5.156  17.282 +0.07 +0.29    +0.295 HD
DOCKED: ENDBRANCH  34  36
DOCKED: ENDBRANCH  33  34
DOCKED: ENDBRANCH   7  33
DOCKED: BRANCH  27  38
DOCKED: ATOM     38  C   UNL d   1      -6.002  -3.193  21.036 -0.02 -0.00    +0.017 C 
DOCKED: ATOM     39  C   UNL d   1      -4.950  -3.566  21.781 -0.11 -0.02    +0.092 C 
DOCKED: BRANCH  39  40
DOCKED: ATOM     40  C   UNL d   1      -3.775  -2.695  21.871 -0.05 -0.09    +0.330 C 
DOCKED: ATOM     41  O   UNL d   1      -3.752  -1.482  21.946 -0.04 +0.07    -0.246 OA
DOCKED: BRANCH  40  42
DOCKED: ATOM     42  O   UNL d   1      -2.653  -3.433  21.872 -0.04 +0.18    -0.477 OA
DOCKED: ATOM     43  H   UNL d   1      -2.978  -4.354  21.797 +0.06 -0.11    +0.295 HD
DOCKED: ENDBRANCH  40  42
DOCKED: ENDBRANCH  39  40
DOCKED: ENDBRANCH  27  38
DOCKED: BRANCH   8  44
DOCKED: ATOM     44  C   UNL d   1     -11.836 -11.068  16.239 +0.04 +0.04    +0.141 C 
DOCKED: BRANCH  44  45
DOCKED: ATOM     45  C   UNL d   1     -11.666 -11.970  17.432 -0.11 +0.02    +0.306 C 
DOCKED: ATOM     46  O   UNL d   1     -12.171 -11.824  18.531 -0.07 -0.02    -0.251 OA
DOCKED: BRANCH  45  47
DOCKED: ATOM     47  O   UNL d   1     -10.840 -13.003  17.183 -0.05 -0.01    -0.481 OA
DOCKED: ATOM     48  H   UNL d   1     -10.545 -12.867  16.258 -0.42 +0.04    +0.295 HD
DOCKED: ENDBRANCH  45  47
DOCKED: ENDBRANCH  44  45
DOCKED: ENDBRANCH   8  44
DOCKED: BRANCH  22  49
DOCKED: ATOM     49  C   UNL d   1      -4.068  -8.435  21.297 -0.14 -0.01    +0.048 C 
DOCKED: BRANCH  49  50
DOCKED: ATOM     50  C   UNL d   1      -2.858  -7.924  20.515 -0.11 -0.04    +0.125 C 
DOCKED: BRANCH  50  51
DOCKED: ATOM     51  C   UNL d   1      -2.743  -6.430  20.622 -0.19 -0.18    +0.305 C 
DOCKED: ATOM     52  O   UNL d   1      -3.441  -5.590  20.082 -0.10 +0.20    -0.251 OA
DOCKED: BRANCH  51  53
DOCKED: ATOM     53  O   UNL d   1      -1.718  -6.059  21.415 -0.03 +0.22    -0.481 OA
DOCKED: ATOM     54  H   UNL d   1      -1.525  -5.138  21.139 +0.07 -0.18    +0.295 HD
DOCKED: ENDBRANCH  51  53
DOCKED: ENDBRANCH  50  51
DOCKED: ENDBRANCH  49  50
DOCKED: ENDBRANCH  22  49
DOCKED: TORSDOF 13
DOCKED: TER
DOCKED: ENDMDL
________________________________________________________________________________


	BEGINNING GENETIC ALGORITHM DOCKING 100 of 100
Run: 100 Seed: 885118066 501328168 [ Run 100 of 100 GA/GALS ]
Beginning LAMARCKIAN GENETIC ALGORITHM (LGA), with a maximum of 25000000 energy evaluations.

Final-Value: -10.048


	FINAL GENETIC ALGORITHM DOCKED STATE
	_______________________________________________


Detailed state:  trans 12.538 -12.146 -1.527 quatxyzw 0.757882 0.133168 -0.208470 0.603673 center 0.153 0.018 -0.028 ntor 13 161.5914 -123.6995 94.7539 -135.9262 -148.2462 3.6591 166.8564 -13.8491 8.4471 26.8993 128.5932 -18.9177 31.3020
State:	 12.538 -12.146  -1.527   0.951  0.167 -0.261 105.733    161.59 -123.70   94.75 -135.93 -148.25    3.66  166.86  -13.85    8.45   26.90  128.59  -18.92   31.30

DOCKED: MODEL      100
DOCKED: USER    Run = 100
DOCKED: USER    DPF = D:/Protein_go_brrr/autodock/final/AncMH_nat/heme/dock.dpf
DOCKED: USER  
DOCKED: USER    Estimated Free Energy of Binding    =   -2.73 kcal/mol  [=(1)+(2)+(3)-(4)]
DOCKED: USER    Estimated Inhibition Constant, Ki   =   10.03 mM (millimolar)  [Temperature = 298.15 K]
DOCKED: USER    
DOCKED: USER    (1) Final Intermolecular Energy     =   -6.60 kcal/mol
DOCKED: USER        vdW + Hbond + desolv Energy     =   -6.29 kcal/mol
DOCKED: USER        Electrostatic Energy            =   -0.31 kcal/mol
DOCKED: USER    (2) Final Total Internal Energy     =   -3.44 kcal/mol
DOCKED: USER    (3) Torsional Free Energy           =   +3.88 kcal/mol
DOCKED: USER    (4) Unbound System's Energy  [=(2)] =   -3.44 kcal/mol
DOCKED: USER    
DOCKED: USER    
DOCKED: USER    NEWDPF move heme_opt.pdbqt
DOCKED: USER    NEWDPF about 0.153000 0.018000 -0.028000
DOCKED: USER    NEWDPF tran0 12.537868 -12.146024 -1.526940
DOCKED: USER    NEWDPF quaternion0 0.757882 0.133168 -0.208470 0.603673
DOCKED: USER    NEWDPF axisangle0 0.950642 0.167038 -0.261492 105.733110
DOCKED: USER    NEWDPF quat0 0.950642 0.167038 -0.261492 105.733110
DOCKED: USER    NEWDPF dihe0 161.59 -123.70 94.75 -135.93 -148.25 3.66 166.86 -13.85 8.45 26.90 128.59 -18.92 31.30 
DOCKED: USER  keepresnum = 1 
DOCKED: USER  
DOCKED: REMARK  13 active torsions:
DOCKED: REMARK  status: ('A' for Active; 'I' for Inactive)
DOCKED: REMARK    1  A    between atoms: O_3  and  C_38 
DOCKED: REMARK    2  A    between atoms: O_4  and  C_40 
DOCKED: REMARK    3  A    between atoms: O_7  and  C_46 
DOCKED: REMARK    4  A    between atoms: O_9  and  C_48 
DOCKED: REMARK    5  A    between atoms: C_15  and  C_20 
DOCKED: REMARK    6  A    between atoms: C_16  and  C_23 
DOCKED: REMARK    7  A    between atoms: C_20  and  C_38 
DOCKED: REMARK    8  A    between atoms: C_23  and  C_40 
DOCKED: REMARK    9  A    between atoms: C_32  and  C_41 
DOCKED: REMARK   10  A    between atoms: C_37  and  C_45 
DOCKED: REMARK   11  A    between atoms: C_41  and  C_44 
DOCKED: REMARK   12  A    between atoms: C_44  and  C_46 
DOCKED: REMARK   13  A    between atoms: C_47  and  C_48 
DOCKED: USER                              x       y       z     vdW  Elec       q    Type
DOCKED: USER                           _______ _______ _______ _____ _____    ______ ____
DOCKED: ROOT
DOCKED: ATOM      1  O   UNL d   1       7.220 -14.532  -2.415 -0.07 -0.01    -0.289 OA
DOCKED: ATOM      2  O   UNL d   1      11.200 -13.566   3.880 -0.07 +0.10    -0.289 OA
DOCKED: ATOM      3  N   UNL d   1      10.396 -13.187  -2.401 -0.15 +0.07    -0.247 NA
DOCKED: ATOM      4  N   UNL d   1      11.014 -12.925   0.494 -0.13 +0.08    -0.247 NA
DOCKED: ATOM      5  N   UNL d   1      13.239 -11.253  -0.227 +0.04 +0.14    -0.354 N 
DOCKED: ATOM      6  N   UNL d   1      12.580 -11.515  -3.227 -0.15 +0.14    -0.354 N 
DOCKED: ATOM      7  C   UNL d   1       8.667 -13.520  -4.105 -0.17 -0.01    +0.084 A 
DOCKED: ATOM      8  C   UNL d   1       9.869 -14.447   2.024 -0.06 -0.02    +0.084 A 
DOCKED: ATOM      9  C   UNL d   1      10.053 -13.904   0.603 -0.13 -0.01    +0.058 A 
DOCKED: ATOM     10  C   UNL d   1      10.061 -13.008  -3.732 -0.20 -0.02    +0.058 A 
DOCKED: ATOM     11  C   UNL d   1       8.280 -14.036  -2.752 -0.12 -0.01    +0.193 A 
DOCKED: ATOM     12  C   UNL d   1       9.421 -13.800  -1.812 -0.16 -0.02    +0.109 A 
DOCKED: ATOM     13  C   UNL d   1      10.878 -13.568   2.708 -0.09 -0.06    +0.193 A 
DOCKED: ATOM     14  C   UNL d   1       7.720 -12.379  -4.489 -0.26 -0.00    +0.026 C 
DOCKED: ATOM     15  C   UNL d   1       9.304 -14.314  -0.433 -0.13 -0.01    +0.055 C 
DOCKED: ATOM     16  C   UNL d   1      10.328 -15.904   2.139 -0.02 -0.00    +0.026 C 
DOCKED: ATOM     17  C   UNL d   1      11.496 -12.686   1.672 -0.15 -0.03    +0.109 A 
DOCKED: ATOM     18  C   UNL d   1      10.901 -12.515  -4.662 -0.11 -0.02    +0.050 C 
DOCKED: ATOM     19  C   UNL d   1      12.236 -12.097  -4.426 -0.22 -0.01    +0.045 A 
DOCKED: ATOM     20  C   UNL d   1      13.231 -11.062   1.130 -0.17 -0.01    +0.045 A 
DOCKED: ATOM     21  C   UNL d   1      12.497 -11.682   2.059 -0.13 -0.02    +0.057 C 
DOCKED: ATOM     22  C   UNL d   1      14.752  -9.638   0.193 -0.24 +0.00    -0.019 A 
DOCKED: ATOM     23  C   UNL d   1      14.126 -10.437  -0.879 -0.25 -0.01    +0.045 A 
DOCKED: ATOM     24  C   UNL d   1      14.219 -10.013   1.380 -0.22 +0.00    -0.022 A 
DOCKED: ATOM     25  C   UNL d   1      13.893 -11.107  -3.247 -0.24 -0.01    +0.049 A 
DOCKED: ATOM     26  C   UNL d   1      13.364 -12.102  -5.232 -0.14 +0.00    -0.018 A 
DOCKED: ATOM     27  C   UNL d   1      14.412 -11.493  -4.475 -0.17 -0.00    +0.003 A 
DOCKED: ATOM     28  C   UNL d   1      14.435 -10.338  -2.181 +0.01 -0.01    +0.052 C 
DOCKED: ATOM     29  C   UNL d   1      14.535  -9.507   2.746 -0.16 -0.01    +0.046 C 
DOCKED: ATOM     30  C   UNL d   1      13.465 -12.640  -6.619 -0.06 -0.01    +0.046 C 
DOCKED: ATOM     31  H   UNL d   1      12.690 -11.988  -0.658 -0.41 -0.08    +0.166 HD
DOCKED: ATOM     32  H   UNL d   1      11.928 -11.377  -2.463 -0.47 -0.13    +0.166 HD
DOCKED: ENDROOT
DOCKED: BRANCH   7  33
DOCKED: ATOM     33  C   UNL d   1       8.636 -14.649  -5.141 -0.05 -0.02    +0.141 C 
DOCKED: BRANCH  33  34
DOCKED: ATOM     34  C   UNL d   1       9.457 -15.839  -4.725 -0.00 -0.03    +0.306 C 
DOCKED: ATOM     35  O   UNL d   1      10.618 -16.055  -5.028 -0.00 +0.03    -0.251 OA
DOCKED: BRANCH  34  36
DOCKED: ATOM     36  O   UNL d   1       8.772 -16.694  -3.945 +0.01 +0.04    -0.481 OA
DOCKED: ATOM     37  H   UNL d   1       8.038 -16.158  -3.577 +0.03 -0.02    +0.295 HD
DOCKED: ENDBRANCH  34  36
DOCKED: ENDBRANCH  33  34
DOCKED: ENDBRANCH   7  33
DOCKED: BRANCH  27  38
DOCKED: ATOM     38  C   UNL d   1      15.750 -11.281  -4.940 -0.14 -0.00    +0.017 C 
DOCKED: ATOM     39  C   UNL d   1      16.811 -11.031  -4.159 -0.10 -0.01    +0.092 C 
DOCKED: BRANCH  39  40
DOCKED: ATOM     40  C   UNL d   1      18.135 -10.850  -4.761 -0.04 -0.03    +0.330 C 
DOCKED: ATOM     41  O   UNL d   1      18.423 -10.869  -5.942 -0.03 +0.02    -0.246 OA
DOCKED: BRANCH  40  42
DOCKED: ATOM     42  O   UNL d   1      19.052 -10.637  -3.804 +0.00 +0.04    -0.477 OA
DOCKED: ATOM     43  H   UNL d   1      18.965 -11.417  -3.218 +0.02 -0.03    +0.295 HD
DOCKED: ENDBRANCH  40  42
DOCKED: ENDBRANCH  39  40
DOCKED: ENDBRANCH  27  38
DOCKED: BRANCH   8  44
DOCKED: ATOM     44  C   UNL d   1       8.475 -14.256   2.629 -0.07 -0.03    +0.141 C 
DOCKED: BRANCH  44  45
DOCKED: ATOM     45  C   UNL d   1       7.700 -13.132   1.994 -0.11 -0.10    +0.306 C 
DOCKED: ATOM     46  O   UNL d   1       6.608 -13.214   1.459 -0.11 +0.02    -0.251 OA
DOCKED: BRANCH  45  47
DOCKED: ATOM     47  O   UNL d   1       8.360 -11.961   2.041 -0.04 +0.38    -0.481 OA
DOCKED: ATOM     48  H   UNL d   1       8.127 -11.580   2.915 -0.37 -0.60    +0.295 HD
DOCKED: ENDBRANCH  45  47
DOCKED: ENDBRANCH  44  45
DOCKED: ENDBRANCH   8  44
DOCKED: BRANCH  22  49
DOCKED: ATOM     49  C   UNL d   1      15.792  -8.582  -0.041 -0.20 -0.01    +0.048 C 
DOCKED: BRANCH  49  50
DOCKED: ATOM     50  C   UNL d   1      16.956  -9.107  -0.882 -0.10 -0.01    +0.125 C 
DOCKED: BRANCH  50  51
DOCKED: ATOM     51  C   UNL d   1      17.486 -10.395  -0.319 -0.01 -0.04    +0.305 C 
DOCKED: ATOM     52  O   UNL d   1      17.344 -10.827   0.812 -0.01 +0.03    -0.251 OA
DOCKED: BRANCH  51  53
DOCKED: ATOM     53  O   UNL d   1      18.197 -11.089  -1.230 +0.01 +0.05    -0.481 OA
DOCKED: ATOM     54  H   UNL d   1      18.754 -10.409  -1.664 +0.02 -0.03    +0.295 HD
DOCKED: ENDBRANCH  51  53
DOCKED: ENDBRANCH  50  51
DOCKED: ENDBRANCH  49  50
DOCKED: ENDBRANCH  22  49
DOCKED: TORSDOF 13
DOCKED: TER
DOCKED: ENDMDL
________________________________________________________________________________

DPF> analysis                             # perform a ranked cluster analysis


		CLUSTER ANALYSIS OF CONFORMATIONS
		_________________________________

Number of conformations = 100

RMSD cluster analysis will be performed using the ligand atoms only (54 / 54 total atoms).

Outputting structurally similar clusters, ranked in order of increasing energy.


________________________________________________________________________________

Number of distinct conformational clusters found = 64,  out of 100 runs,
Using an rmsd-tolerance of 2.0 A


	CLUSTERING HISTOGRAM
	____________________

________________________________________________________________________________
     |           |     |           |     |                                    
Clus | Lowest    | Run | Mean      | Num | Histogram                          
-ter | Binding   |     | Binding   | in  |                                    
Rank | Energy    |     | Energy    | Clus|    5    10   15   20   25   30   35
_____|___________|_____|___________|_____|____:____|____:____|____:____|____:___
   1 |     -6.90 |  63 |     -5.80 |   5 |#####
   2 |     -6.72 |  93 |     -5.80 |   2 |##
   3 |     -6.53 |  42 |     -6.32 |   2 |##
   4 |     -6.23 |  88 |     -5.67 |   3 |###
   5 |     -6.16 |  69 |     -5.81 |   5 |#####
   6 |     -6.09 |  83 |     -6.09 |   1 |#
   7 |     -6.03 |  97 |     -6.03 |   1 |#
   8 |     -5.97 |  50 |     -5.24 |   3 |###
   9 |     -5.97 |  21 |     -5.62 |   3 |###
  10 |     -5.89 |  46 |     -5.76 |   3 |###
  11 |     -5.69 |  19 |     -5.08 |   2 |##
  12 |     -5.66 |  96 |     -5.66 |   1 |#
  13 |     -5.57 |  26 |     -5.57 |   1 |#
  14 |     -5.54 |  34 |     -5.54 |   1 |#
  15 |     -5.37 |  62 |     -4.28 |   3 |###
  16 |     -5.34 |  77 |     -5.34 |   1 |#
  17 |     -5.33 |  33 |     -5.33 |   1 |#
  18 |     -5.25 |  48 |     -4.96 |   3 |###
  19 |     -5.21 |  11 |     -4.47 |   4 |####
  20 |     -5.17 |  15 |     -5.17 |   1 |#
  21 |     -5.11 |  86 |     -4.96 |   2 |##
  22 |     -5.03 |  51 |     -5.03 |   1 |#
  23 |     -5.01 |  85 |     -5.01 |   1 |#
  24 |     -5.00 |  91 |     -5.00 |   1 |#
  25 |     -4.64 |  31 |     -4.64 |   1 |#
  26 |     -4.64 |   1 |     -4.64 |   1 |#
  27 |     -4.62 |  80 |     -4.62 |   1 |#
  28 |     -4.55 |   4 |     -4.42 |   2 |##
  29 |     -4.51 |  12 |     -4.51 |   1 |#
  30 |     -4.44 |  67 |     -4.44 |   1 |#
  31 |     -4.32 |   6 |     -4.32 |   1 |#
  32 |     -4.30 |  44 |     -4.20 |   2 |##
  33 |     -4.29 |  65 |     -4.29 |   1 |#
  34 |     -4.20 |  71 |     -4.20 |   1 |#
  35 |     -4.05 |  75 |     -4.05 |   1 |#
  36 |     -3.91 |  68 |     -3.57 |   3 |###
  37 |     -3.89 |  95 |     -3.89 |   1 |#
  38 |     -3.89 |  52 |     -3.89 |   1 |#
  39 |     -3.84 |  43 |     -3.84 |   1 |#
  40 |     -3.82 |  59 |     -3.48 |   2 |##
  41 |     -3.80 |  47 |     -3.80 |   1 |#
  42 |     -3.78 |  99 |     -3.63 |   2 |##
  43 |     -3.74 |  76 |     -3.74 |   1 |#
  44 |     -3.74 |   2 |     -3.74 |   1 |#
  45 |     -3.73 |  92 |     -3.73 |   1 |#
  46 |     -3.69 |  18 |     -3.69 |   1 |#
  47 |     -3.69 |   9 |     -3.67 |   2 |##
  48 |     -3.65 |  13 |     -3.65 |   1 |#
  49 |     -3.62 |  87 |     -3.62 |   1 |#
  50 |     -3.61 |  64 |     -3.61 |   1 |#
  51 |     -3.61 |  36 |     -3.61 |   1 |#
  52 |     -3.48 |  72 |     -3.48 |   1 |#
  53 |     -3.43 |  70 |     -3.31 |   2 |##
  54 |     -3.34 |  78 |     -3.34 |   1 |#
  55 |     -3.27 |  45 |     -3.27 |   1 |#
  56 |     -3.22 |  79 |     -3.22 |   1 |#
  57 |     -3.13 |  20 |     -3.03 |   2 |##
  58 |     -3.11 |  66 |     -3.11 |   1 |#
  59 |     -3.05 |  37 |     -3.05 |   1 |#
  60 |     -3.04 |  35 |     -3.04 |   1 |#
  61 |     -2.86 |  74 |     -2.86 |   1 |#
  62 |     -2.73 | 100 |     -2.73 |   1 |#
  63 |     -2.65 |  81 |     -2.65 |   1 |#
  64 |     -1.96 |  82 |     -1.96 |   1 |#
_____|___________|_____|___________|_____|______________________________________


Number of multi-member conformational clusters found = 21, out of 100 runs.

	RMSD TABLE
	__________

_____________________________________________________________________
     |      |      |           |         |                 |
Rank | Sub- | Run  | Binding   | Cluster | Reference       | Grep
     | Rank |      | Energy    | RMSD    | RMSD            | Pattern
_____|______|______|___________|_________|_________________|___________
   1      1     63       -6.90      0.00     19.63           RANKING
   1      2     41       -6.35      0.85     19.71           RANKING
   1      3     39       -6.10      1.33     19.55           RANKING
   1      4     55       -5.52      1.72     20.05           RANKING
   1      5     94       -4.11      1.33     19.89           RANKING
   2      1     93       -6.72      0.00     12.69           RANKING
   2      2     40       -4.88      1.23     12.93           RANKING
   3      1     42       -6.53      0.00      9.78           RANKING
   3      2     17       -6.12      1.13      9.78           RANKING
   4      1     88       -6.23      0.00     19.19           RANKING
   4      2     90       -6.03      0.34     19.22           RANKING
   4      3     23       -4.73      1.20     19.30           RANKING
   5      1     69       -6.16      0.00     13.26           RANKING
   5      2     14       -6.13      1.35     13.22           RANKING
   5      3     61       -6.08      1.38     13.32           RANKING
   5      4     98       -5.44      1.83     13.60           RANKING
   5      5     16       -5.22      1.54     13.32           RANKING
   6      1     83       -6.09      0.00     12.29           RANKING
   7      1     97       -6.03      0.00     15.47           RANKING
   8      1     50       -5.97      0.00     17.04           RANKING
   8      2     60       -5.33      1.51     17.30           RANKING
   8      3     56       -4.44      1.92     17.36           RANKING
   9      1     21       -5.97      0.00     12.94           RANKING
   9      2     53       -5.74      0.85     13.04           RANKING
   9      3      8       -5.15      1.48     13.79           RANKING
  10      1     46       -5.89      0.00     19.12           RANKING
  10      2     29       -5.86      1.54     19.48           RANKING
  10      3     54       -5.52      1.22     19.25           RANKING
  11      1     19       -5.69      0.00     14.65           RANKING
  11      2     84       -4.47      1.95     14.69           RANKING
  12      1     96       -5.66      0.00     11.23           RANKING
  13      1     26       -5.57      0.00     16.10           RANKING
  14      1     34       -5.54      0.00     20.24           RANKING
  15      1     62       -5.37      0.00     12.91           RANKING
  15      2     30       -4.61      1.25     13.02           RANKING
  15      3     22       -2.87      1.69     13.43           RANKING
  16      1     77       -5.34      0.00     13.14           RANKING
  17      1     33       -5.33      0.00     17.42           RANKING
  18      1     48       -5.25      0.00     14.11           RANKING
  18      2      3       -4.93      1.61     13.74           RANKING
  18      3     24       -4.69      1.38     14.13           RANKING
  19      1     11       -5.21      0.00     20.13           RANKING
  19      2     58       -4.65      1.09     20.05           RANKING
  19      3     32       -4.57      0.85     20.11           RANKING
  19      4     73       -3.44      1.31     20.21           RANKING
  20      1     15       -5.17      0.00     19.26           RANKING
  21      1     86       -5.11      0.00     19.84           RANKING
  21      2     10       -4.82      0.42     19.84           RANKING
  22      1     51       -5.03      0.00     18.76           RANKING
  23      1     85       -5.01      0.00     13.83           RANKING
  24      1     91       -5.00      0.00     14.88           RANKING
  25      1     31       -4.64      0.00     16.96           RANKING
  26      1      1       -4.64      0.00     14.06           RANKING
  27      1     80       -4.62      0.00     19.03           RANKING
  28      1      4       -4.55      0.00     20.15           RANKING
  28      2     57       -4.30      1.38     20.07           RANKING
  29      1     12       -4.51      0.00     16.06           RANKING
  30      1     67       -4.44      0.00     19.20           RANKING
  31      1      6       -4.32      0.00     14.26           RANKING
  32      1     44       -4.30      0.00     13.79           RANKING
  32      2     49       -4.10      0.75     14.01           RANKING
  33      1     65       -4.29      0.00     11.59           RANKING
  34      1     71       -4.20      0.00     11.24           RANKING
  35      1     75       -4.05      0.00     13.05           RANKING
  36      1     68       -3.91      0.00     12.62           RANKING
  36      2     27       -3.44      1.16     12.59           RANKING
  36      3     89       -3.37      0.71     12.56           RANKING
  37      1     95       -3.89      0.00     13.94           RANKING
  38      1     52       -3.89      0.00     20.62           RANKING
  39      1     43       -3.84      0.00     14.56           RANKING
  40      1     59       -3.82      0.00     20.41           RANKING
  40      2     25       -3.13      1.44     20.58           RANKING
  41      1     47       -3.80      0.00     17.70           RANKING
  42      1     99       -3.78      0.00     20.28           RANKING
  42      2     38       -3.49      1.54     20.59           RANKING
  43      1     76       -3.74      0.00     12.83           RANKING
  44      1      2       -3.74      0.00     11.17           RANKING
  45      1     92       -3.73      0.00     20.23           RANKING
  46      1     18       -3.69      0.00     19.24           RANKING
  47      1      9       -3.69      0.00     17.32           RANKING
  47      2      7       -3.65      0.59     17.42           RANKING
  48      1     13       -3.65      0.00     13.27           RANKING
  49      1     87       -3.62      0.00     14.74           RANKING
  50      1     64       -3.61      0.00     16.70           RANKING
  51      1     36       -3.61      0.00     20.03           RANKING
  52      1     72       -3.48      0.00     20.58           RANKING
  53      1     70       -3.43      0.00     12.76           RANKING
  53      2     28       -3.19      1.31     12.90           RANKING
  54      1     78       -3.34      0.00     12.11           RANKING
  55      1     45       -3.27      0.00     19.78           RANKING
  56      1     79       -3.22      0.00     13.31           RANKING
  57      1     20       -3.13      0.00     12.47           RANKING
  57      2      5       -2.93      1.89     12.51           RANKING
  58      1     66       -3.11      0.00     13.29           RANKING
  59      1     37       -3.05      0.00     15.25           RANKING
  60      1     35       -3.04      0.00     21.22           RANKING
  61      1     74       -2.86      0.00     17.56           RANKING
  62      1    100       -2.73      0.00     13.27           RANKING
  63      1     81       -2.65      0.00     14.83           RANKING
  64      1     82       -1.96      0.00     20.90           RANKING
_______________________________________________________________________



	INFORMATION ENTROPY ANALYSIS FOR THIS CLUSTERING
	________________________________________________


Information entropy for this clustering = 0.87  (rmstol = 2.00 Angstrom)

_______________________________________________________________________


	STATISTICAL MECHANICAL ANALYSIS
	_______________________________


Partition function, Q =   100.77            at Temperature, T = 298.15 K
Free energy,        A ~ -2733.02 kcal/mol   at Temperature, T = 298.15 K
Internal energy,    U =    -4.54 kcal/mol   at Temperature, T = 298.15 K
Entropy,            S =     9.15 kcal/mol/K at Temperature, T = 298.15 K

_______________________________________________________________________


	LOWEST ENERGY DOCKED CONFORMATION from EACH CLUSTER
	___________________________________________________



Keeping original residue number (specified in the input PDBQ file) for outputting.

MODEL       63
USER    Run = 63
USER    Cluster Rank = 1
USER    Number of conformations in this cluster = 5
USER  
USER    RMSD from reference structure       = 19.627 A
USER  
USER    Estimated Free Energy of Binding    =   -6.90 kcal/mol  [=(1)+(2)+(3)-(4)]
USER    Estimated Inhibition Constant, Ki   =    8.71 uM (micromolar)  [Temperature = 298.15 K]
USER    
USER    (1) Final Intermolecular Energy     =  -10.78 kcal/mol
USER        vdW + Hbond + desolv Energy     =  -10.03 kcal/mol
USER        Electrostatic Energy            =   -0.75 kcal/mol
USER    (2) Final Total Internal Energy     =   -1.69 kcal/mol
USER    (3) Torsional Free Energy           =   +3.88 kcal/mol
USER    (4) Unbound System's Energy  [=(2)] =   -1.69 kcal/mol
USER    
USER    
USER  
USER    DPF = D:/Protein_go_brrr/autodock/final/AncMH_nat/heme/dock.dpf
USER    NEWDPF move	heme_opt.pdbqt
USER    NEWDPF about	0.153000 0.018000 -0.028000
USER    NEWDPF tran0	-9.075795 13.902750 16.050121
USER    NEWDPF axisangle0	-0.988113 0.134698 -0.074091 176.833075
USER    NEWDPF quaternion0	-0.987735 0.134647 -0.074063 0.027633
USER    NEWDPF dihe0	-46.78 75.71 138.22 -44.19 30.82 -42.99 -43.41 -90.14 -145.72 -106.97 106.88 -97.17 174.34 
USER  
USER                              x       y       z    vdW   Elec        q     RMS 
ATOM      1  O   UNL d   1     -14.788  13.699  14.606 -0.02 +0.05    -0.289    19.627
ATOM      2  O   UNL d   1     -10.518  19.379  17.033 -0.06 +0.18    -0.289    19.627
ATOM      3  N   UNL d   1     -11.471  13.307  15.468 -0.12 +0.09    -0.247    19.627
ATOM      4  N   UNL d   1     -10.569  16.089  15.994 -0.10 +0.21    -0.247    19.627
ATOM      5  N   UNL d   1      -7.862  15.124  15.932 +0.05 +0.17    -0.354    19.627
ATOM      6  N   UNL d   1      -8.805  12.244  15.367 -0.11 +0.10    -0.354    19.627
ATOM      7  C   UNL d   1     -13.182  11.861  14.472 -0.16 -0.01    +0.084    19.627
ATOM      8  C   UNL d   1     -12.267  17.701  16.692 -0.07 -0.05    +0.084    19.627
ATOM      9  C   UNL d   1     -11.915  16.294  16.198 -0.14 -0.04    +0.058    19.627
ATOM     10  C   UNL d   1     -11.742  12.048  14.959 -0.23 -0.01    +0.058    19.627
ATOM     11  C   UNL d   1     -13.683  13.232  14.814 -0.06 -0.04    +0.193    19.627
ATOM     12  C   UNL d   1     -12.560  14.004  15.434 -0.12 -0.04    +0.109    19.627
ATOM     13  C   UNL d   1     -10.876  18.268  16.694 -0.06 -0.16    +0.193    19.627
ATOM     14  C   UNL d   1     -13.256  11.670  12.955 -0.43 -0.00    +0.026    19.627
ATOM     15  C   UNL d   1     -12.846  15.362  15.939 -0.11 -0.02    +0.055    19.627
ATOM     16  C   UNL d   1     -12.794  17.684  18.130 -0.02 -0.01    +0.026    19.627
ATOM     17  C   UNL d   1      -9.941  17.192  16.244 -0.14 -0.09    +0.109    19.627
ATOM     18  C   UNL d   1     -10.863  11.028  14.962 -0.09 -0.01    +0.050    19.627
ATOM     19  C   UNL d   1      -9.539  11.084  15.469 -0.15 -0.01    +0.045    19.627
ATOM     20  C   UNL d   1      -7.630  16.475  15.946 -0.21 -0.02    +0.045    19.627
ATOM     21  C   UNL d   1      -8.504  17.473  16.106 -0.19 -0.03    +0.057    19.627
ATOM     22  C   UNL d   1      -5.646  15.389  15.627 -0.19 +0.00    -0.019    19.627
ATOM     23  C   UNL d   1      -6.723  14.386  15.745 -0.21 -0.01    +0.045    19.627
ATOM     24  C   UNL d   1      -6.189  16.623  15.749 -0.20 +0.00    -0.022    19.627
ATOM     25  C   UNL d   1      -7.527  12.050  15.837 -0.25 -0.01    +0.049    19.627
ATOM     26  C   UNL d   1      -8.730  10.123  16.053 -0.26 +0.00    -0.018    19.627
ATOM     27  C   UNL d   1      -7.467  10.744  16.301 -0.24 -0.00    +0.003    19.627
ATOM     28  C   UNL d   1      -6.536  13.058  15.691 -0.25 -0.01    +0.052    19.627
ATOM     29  C   UNL d   1      -5.508  17.949  15.711 -0.16 +0.00    +0.046    19.627
ATOM     30  C   UNL d   1      -9.105   8.713  16.365 -0.33 -0.01    +0.046    19.627
ATOM     31  H   UNL d   1      -8.783  14.746  16.126 -0.34 -0.11    +0.166    19.627
ATOM     32  H   UNL d   1      -9.163  13.100  14.960 -0.52 -0.10    +0.166    19.627
ATOM     33  C   UNL d   1     -13.992  10.792  15.214 -0.13 +0.01    +0.141    19.627
ATOM     34  C   UNL d   1     -14.025   9.478  14.481 -0.20 +0.04    +0.306    19.627
ATOM     35  O   UNL d   1     -13.183   8.598  14.542 -0.29 -0.02    -0.251    19.627
ATOM     36  O   UNL d   1     -15.119   9.341  13.711 -0.14 -0.13    -0.481    19.627
ATOM     37  H   UNL d   1     -14.773   9.057  12.839 -0.32 -0.05    +0.295    19.627
ATOM     38  C   UNL d   1      -6.330  10.097  16.884 -0.23 -0.01    +0.017    19.627
ATOM     39  C   UNL d   1      -5.136   9.947  16.292 -0.17 -0.04    +0.092    19.627
ATOM     40  C   UNL d   1      -4.045   9.279  17.006 -0.16 -0.21    +0.330    19.627
ATOM     41  O   UNL d   1      -3.697   9.449  18.159 -0.07 +0.12    -0.246    19.627
ATOM     42  O   UNL d   1      -3.437   8.396  16.199 -0.25 +0.44    -0.477    19.627
ATOM     43  H   UNL d   1      -3.766   7.528  16.512 -0.42 -0.61    +0.295    19.627
ATOM     44  C   UNL d   1     -13.188  18.512  15.774 -0.06 -0.11    +0.141    19.627
ATOM     45  C   UNL d   1     -13.066  19.999  15.973 -0.03 -0.19    +0.306    19.627
ATOM     46  O   UNL d   1     -13.681  20.679  16.776 -0.01 +0.08    -0.251    19.627
ATOM     47  O   UNL d   1     -12.187  20.561  15.123 -0.02 +0.50    -0.481    19.627
ATOM     48  H   UNL d   1     -11.425  19.943  15.110 -0.51 -0.58    +0.295    19.627
ATOM     49  C   UNL d   1      -4.202  15.051  15.395 -0.13 -0.00    +0.048    19.627
ATOM     50  C   UNL d   1      -3.861  15.006  13.906 -0.21 +0.01    +0.125    19.627
ATOM     51  C   UNL d   1      -4.455  13.789  13.256 -0.27 -0.03    +0.305    19.627
ATOM     52  O   UNL d   1      -3.909  12.721  13.039 -0.32 +0.06    -0.251    19.627
ATOM     53  O   UNL d   1      -5.738  13.986  12.893 -0.25 +0.08    -0.481    19.627
ATOM     54  H   UNL d   1      -5.790  13.609  11.989 -0.36 -0.13    +0.295    19.627
TER
ENDMDL
MODEL       93
USER    Run = 93
USER    Cluster Rank = 2
USER    Number of conformations in this cluster = 2
USER  
USER    RMSD from reference structure       = 12.689 A
USER  
USER    Estimated Free Energy of Binding    =   -6.72 kcal/mol  [=(1)+(2)+(3)-(4)]
USER    Estimated Inhibition Constant, Ki   =   11.78 uM (micromolar)  [Temperature = 298.15 K]
USER    
USER    (1) Final Intermolecular Energy     =  -10.60 kcal/mol
USER        vdW + Hbond + desolv Energy     =   -9.43 kcal/mol
USER        Electrostatic Energy            =   -1.17 kcal/mol
USER    (2) Final Total Internal Energy     =   -1.36 kcal/mol
USER    (3) Torsional Free Energy           =   +3.88 kcal/mol
USER    (4) Unbound System's Energy  [=(2)] =   -1.36 kcal/mol
USER    
USER    
USER  
USER    DPF = D:/Protein_go_brrr/autodock/final/AncMH_nat/heme/dock.dpf
USER    NEWDPF move	heme_opt.pdbqt
USER    NEWDPF about	0.153000 0.018000 -0.028000
USER    NEWDPF tran0	9.562770 -12.271916 -4.816222
USER    NEWDPF axisangle0	0.761229 -0.408397 0.503728 -126.081717
USER    NEWDPF quaternion0	0.678506 -0.364017 0.448988 -0.453355
USER    NEWDPF dihe0	151.54 51.35 153.92 -137.71 21.29 134.43 -46.19 -118.63 -3.43 175.63 85.76 -23.50 23.87 
USER  
USER                              x       y       z    vdW   Elec        q     RMS 
ATOM      1  O   UNL d   1       6.360 -12.942  -9.720 -0.02 +0.03    -0.289    12.689
ATOM      2  O   UNL d   1      12.607  -8.984  -8.416 -0.21 +0.31    -0.289    12.689
ATOM      3  N   UNL d   1       7.826 -12.738  -6.605 -0.07 +0.04    -0.247    12.689
ATOM      4  N   UNL d   1      10.344 -11.250  -7.131 -0.12 +0.10    -0.247    12.689
ATOM      5  N   UNL d   1      11.247 -12.038  -4.517 -0.03 +0.15    -0.354    12.689
ATOM      6  N   UNL d   1       8.640 -13.596  -3.988 -0.09 +0.04    -0.354    12.689
ATOM      7  C   UNL d   1       5.960 -14.009  -7.558 -0.05 -0.01    +0.084    12.689
ATOM      8  C   UNL d   1      10.374  -9.751  -9.061 -0.23 -0.04    +0.084    12.689
ATOM      9  C   UNL d   1       9.642 -10.812  -8.232 -0.19 -0.02    +0.058    12.689
ATOM     10  C   UNL d   1       6.839 -13.675  -6.349 -0.08 -0.01    +0.058    12.689
ATOM     11  C   UNL d   1       6.613 -13.082  -8.538 -0.02 -0.02    +0.193    12.689
ATOM     12  C   UNL d   1       7.713 -12.349  -7.833 -0.08 -0.02    +0.109    12.689
ATOM     13  C   UNL d   1      11.636  -9.695  -8.247 -0.22 -0.13    +0.193    12.689
ATOM     14  C   UNL d   1       6.159 -15.451  -8.032 -0.01 -0.00    +0.026    12.689
ATOM     15  C   UNL d   1       8.444 -11.306  -8.580 -0.16 -0.01    +0.055    12.689
ATOM     16  C   UNL d   1       9.677  -8.389  -8.983 -0.28 -0.01    +0.026    12.689
ATOM     17  C   UNL d   1      11.493 -10.656  -7.112 -0.22 -0.05    +0.109    12.689
ATOM     18  C   UNL d   1       6.589 -14.196  -5.133 -0.13 -0.00    +0.050    12.689
ATOM     19  C   UNL d   1       7.294 -13.881  -3.943 -0.16 +0.00    +0.045    12.689
ATOM     20  C   UNL d   1      12.408 -11.508  -5.018 -0.26 -0.02    +0.045    12.689
ATOM     21  C   UNL d   1      12.602 -10.849  -6.165 -0.29 -0.02    +0.057    12.689
ATOM     22  C   UNL d   1      12.852 -12.486  -3.002 -0.18 +0.01    -0.019    12.689
ATOM     23  C   UNL d   1      11.415 -12.649  -3.304 -0.20 -0.02    +0.045    12.689
ATOM     24  C   UNL d   1      13.433 -11.808  -4.020 -0.21 +0.01    -0.022    12.689
ATOM     25  C   UNL d   1       9.137 -13.410  -2.719 -0.23 -0.01    +0.049    12.689
ATOM     26  C   UNL d   1       6.899 -13.843  -2.615 -0.17 -0.00    -0.018    12.689
ATOM     27  C   UNL d   1       8.062 -13.526  -1.848 -0.23 +0.00    +0.003    12.689
ATOM     28  C   UNL d   1      10.533 -13.259  -2.497 -0.22 -0.01    +0.052    12.689
ATOM     29  C   UNL d   1      14.857 -11.392  -4.170 -0.17 -0.01    +0.046    12.689
ATOM     30  C   UNL d   1       5.525 -14.083  -2.088 -0.10 +0.02    +0.046    12.689
ATOM     31  H   UNL d   1      10.359 -11.899  -4.988 -0.40 -0.10    +0.166    12.689
ATOM     32  H   UNL d   1       9.180 -13.573  -4.845 +0.03 -0.03    +0.166    12.689
ATOM     33  C   UNL d   1       4.474 -13.668  -7.404 -0.17 -0.04    +0.141    12.689
ATOM     34  C   UNL d   1       4.251 -12.311  -6.793 -0.21 -0.02    +0.306    12.689
ATOM     35  O   UNL d   1       4.388 -11.237  -7.354 -0.65 -0.03    -0.251    12.689
ATOM     36  O   UNL d   1       3.865 -12.379  -5.507 -0.07 -0.13    -0.481    12.689
ATOM     37  H   UNL d   1       3.359 -13.217  -5.445 -0.32 -0.31    +0.295    12.689
ATOM     38  C   UNL d   1       8.102 -13.402  -0.422 -0.26 -0.00    +0.017    12.689
ATOM     39  C   UNL d   1       9.113 -12.868   0.281 -0.27 -0.02    +0.092    12.689
ATOM     40  C   UNL d   1       9.022 -12.785   1.741 -0.13 -0.14    +0.330    12.689
ATOM     41  O   UNL d   1       9.864 -13.107   2.557 -0.16 +0.11    -0.246    12.689
ATOM     42  O   UNL d   1       7.836 -12.272   2.101 -0.10 +0.30    -0.477    12.689
ATOM     43  H   UNL d   1       8.070 -11.547   2.716 -0.39 -0.51    +0.295    12.689
ATOM     44  C   UNL d   1      10.673 -10.138 -10.513 -0.11 -0.06    +0.141    12.689
ATOM     45  C   UNL d   1      10.160  -9.136 -11.513 -0.11 -0.11    +0.306    12.689
ATOM     46  O   UNL d   1       9.064  -9.138 -12.046 -0.10 +0.04    -0.251    12.689
ATOM     47  O   UNL d   1      11.072  -8.193 -11.811 -0.10 +0.30    -0.481    12.689
ATOM     48  H   UNL d   1      11.642  -8.139 -11.014 -0.49 -0.56    +0.295    12.689
ATOM     49  C   UNL d   1      13.518 -13.015  -1.766 -0.11 -0.01    +0.048    12.689
ATOM     50  C   UNL d   1      12.903 -12.433  -0.494 -0.02 -0.05    +0.125    12.689
ATOM     51  C   UNL d   1      13.656 -11.214  -0.043 -0.11 -0.10    +0.305    12.689
ATOM     52  O   UNL d   1      14.161 -11.014   1.048 -0.14 +0.06    -0.251    12.689
ATOM     53  O   UNL d   1      13.728 -10.278  -1.010 -0.15 +0.17    -0.481    12.689
ATOM     54  H   UNL d   1      12.832 -10.277  -1.407 -0.26 -0.21    +0.295    12.689
TER
ENDMDL
MODEL       42
USER    Run = 42
USER    Cluster Rank = 3
USER    Number of conformations in this cluster = 2
USER  
USER    RMSD from reference structure       = 9.784 A
USER  
USER    Estimated Free Energy of Binding    =   -6.53 kcal/mol  [=(1)+(2)+(3)-(4)]
USER    Estimated Inhibition Constant, Ki   =   16.46 uM (micromolar)  [Temperature = 298.15 K]
USER    
USER    (1) Final Intermolecular Energy     =  -10.40 kcal/mol
USER        vdW + Hbond + desolv Energy     =   -9.87 kcal/mol
USER        Electrostatic Energy            =   -0.53 kcal/mol
USER    (2) Final Total Internal Energy     =   -1.93 kcal/mol
USER    (3) Torsional Free Energy           =   +3.88 kcal/mol
USER    (4) Unbound System's Energy  [=(2)] =   -1.93 kcal/mol
USER    
USER    
USER  
USER    DPF = D:/Protein_go_brrr/autodock/final/AncMH_nat/heme/dock.dpf
USER    NEWDPF move	heme_opt.pdbqt
USER    NEWDPF about	0.153000 0.018000 -0.028000
USER    NEWDPF tran0	-12.418902 0.086455 1.008993
USER    NEWDPF axisangle0	-0.571891 -0.540623 -0.616982 -85.653820
USER    NEWDPF quaternion0	-0.388764 -0.367508 -0.419416 -0.733411
USER    NEWDPF dihe0	-120.08 88.92 -138.84 57.92 -128.83 -50.31 125.04 165.20 34.33 -20.60 51.92 -95.17 -44.81 
USER  
USER                              x       y       z    vdW   Elec        q     RMS 
ATOM      1  O   UNL d   1     -13.156   3.089  -4.011 -0.02 -0.07    -0.289     9.784
ATOM      2  O   UNL d   1     -17.453  -2.102  -0.695 -0.08 -0.28    -0.289     9.784
ATOM      3  N   UNL d   1     -12.237   1.484  -1.100 -0.16 -0.22    -0.247     9.784
ATOM      4  N   UNL d   1     -14.643  -0.119  -0.414 -0.18 -0.40    -0.247     9.784
ATOM      5  N   UNL d   1     -13.508  -0.534   2.195 -0.12 -0.36    -0.354     9.784
ATOM      6  N   UNL d   1     -11.024   1.146   1.482 -0.10 -0.21    -0.354     9.784
ATOM      7  C   UNL d   1     -11.310   3.325  -2.426 -0.15 +0.02    +0.084     9.784
ATOM      8  C   UNL d   1     -16.114  -0.770  -2.253 -0.09 +0.07    +0.084     9.784
ATOM      9  C   UNL d   1     -14.894   0.016  -1.761 -0.13 +0.07    +0.058     9.784
ATOM     10  C   UNL d   1     -11.216   2.415  -1.198 -0.21 +0.03    +0.058     9.784
ATOM     11  C   UNL d   1     -12.554   2.731  -3.015 -0.05 +0.08    +0.193     9.784
ATOM     12  C   UNL d   1     -13.004   1.607  -2.133 -0.11 +0.09    +0.109     9.784
ATOM     13  C   UNL d   1     -16.530  -1.346  -0.929 -0.09 +0.21    +0.193     9.784
ATOM     14  C   UNL d   1     -11.590   4.780  -2.043 -0.25 +0.01    +0.026     9.784
ATOM     15  C   UNL d   1     -14.168   0.807  -2.565 -0.12 +0.05    +0.055     9.784
ATOM     16  C   UNL d   1     -15.713  -1.917  -3.184 -0.11 +0.02    +0.026     9.784
ATOM     17  C   UNL d   1     -15.562  -0.869   0.104 -0.14 +0.15    +0.109     9.784
ATOM     18  C   UNL d   1     -10.170   2.480  -0.353 -0.17 +0.02    +0.050     9.784
ATOM     19  C   UNL d   1      -9.956   1.625   0.758 -0.29 +0.02    +0.045     9.784
ATOM     20  C   UNL d   1     -14.767  -1.034   2.404 -0.21 +0.05    +0.045     9.784
ATOM     21  C   UNL d   1     -15.744  -1.241   1.515 -0.18 +0.07    +0.057     9.784
ATOM     22  C   UNL d   1     -13.658  -0.973   4.400 -0.22 -0.01    -0.019     9.784
ATOM     23  C   UNL d   1     -12.764  -0.459   3.342 -0.25 +0.03    +0.045     9.784
ATOM     24  C   UNL d   1     -14.842  -1.313   3.837 -0.17 -0.02    -0.022     9.784
ATOM     25  C   UNL d   1     -10.588   0.416   2.563 -0.29 +0.02    +0.049     9.784
ATOM     26  C   UNL d   1      -8.797   1.165   1.362 -0.39 -0.00    -0.018     9.784
ATOM     27  C   UNL d   1      -9.202   0.386   2.490 -0.36 +0.00    +0.003     9.784
ATOM     28  C   UNL d   1     -11.503  -0.050   3.546 -0.24 +0.02    +0.052     9.784
ATOM     29  C   UNL d   1     -16.054  -1.887   4.489 -0.13 +0.03    +0.046     9.784
ATOM     30  C   UNL d   1      -7.397   1.429   0.921 -0.47 +0.01    +0.046     9.784
ATOM     31  H   UNL d   1     -13.172  -0.329   1.261 +0.07 +0.19    +0.166     9.784
ATOM     32  H   UNL d   1     -11.991   1.350   1.256 +0.08 +0.17    +0.166     9.784
ATOM     33  C   UNL d   1     -10.143   3.218  -3.414 -0.18 -0.02    +0.141     9.784
ATOM     34  C   UNL d   1     -10.288   2.054  -4.357 -0.20 -0.08    +0.306     9.784
ATOM     35  O   UNL d   1     -10.115   0.879  -4.082 -0.33 +0.02    -0.251     9.784
ATOM     36  O   UNL d   1     -10.645   2.433  -5.597 -0.09 +0.32    -0.481     9.784
ATOM     37  H   UNL d   1      -9.943   3.059  -5.875 -0.34 -0.49    +0.295     9.784
ATOM     38  C   UNL d   1      -8.314  -0.266   3.405 -0.32 +0.00    +0.017     9.784
ATOM     39  C   UNL d   1      -8.271  -0.050   4.729 -0.35 +0.03    +0.092     9.784
ATOM     40  C   UNL d   1      -7.323  -0.797   5.560 -0.25 +0.06    +0.330     9.784
ATOM     41  O   UNL d   1      -7.169  -2.002   5.610 -0.84 -0.06    -0.246     9.784
ATOM     42  O   UNL d   1      -6.592   0.049   6.301 -0.09 -0.04    -0.477     9.784
ATOM     43  H   UNL d   1      -5.807   0.231   5.744 +0.18 +0.02    +0.295     9.784
ATOM     44  C   UNL d   1     -17.240   0.072  -2.863 -0.02 +0.09    +0.141     9.784
ATOM     45  C   UNL d   1     -17.977   0.904  -1.848 -0.01 +0.26    +0.306     9.784
ATOM     46  O   UNL d   1     -17.621   1.976  -1.390 -0.07 -0.32    -0.251     9.784
ATOM     47  O   UNL d   1     -19.120   0.324  -1.440 +0.02 -0.33    -0.481     9.784
ATOM     48  H   UNL d   1     -18.897  -0.627  -1.349 +0.03 +0.20    +0.295     9.784
ATOM     49  C   UNL d   1     -13.281  -1.069   5.849 -0.31 +0.01    +0.048     9.784
ATOM     50  C   UNL d   1     -13.541  -2.466   6.413 -0.29 +0.03    +0.125     9.784
ATOM     51  C   UNL d   1     -14.378  -2.394   7.658 -0.22 +0.04    +0.305     9.784
ATOM     52  O   UNL d   1     -15.051  -3.280   8.153 -0.29 -0.03    -0.251     9.784
ATOM     53  O   UNL d   1     -14.332  -1.172   8.227 -0.22 -0.06    -0.481     9.784
ATOM     54  H   UNL d   1     -14.006  -1.344   9.135 -0.34 -0.06    +0.295     9.784
TER
ENDMDL
MODEL       88
USER    Run = 88
USER    Cluster Rank = 4
USER    Number of conformations in this cluster = 3
USER  
USER    RMSD from reference structure       = 19.186 A
USER  
USER    Estimated Free Energy of Binding    =   -6.23 kcal/mol  [=(1)+(2)+(3)-(4)]
USER    Estimated Inhibition Constant, Ki   =   27.20 uM (micromolar)  [Temperature = 298.15 K]
USER    
USER    (1) Final Intermolecular Energy     =  -10.11 kcal/mol
USER        vdW + Hbond + desolv Energy     =   -9.35 kcal/mol
USER        Electrostatic Energy            =   -0.75 kcal/mol
USER    (2) Final Total Internal Energy     =   -1.68 kcal/mol
USER    (3) Torsional Free Energy           =   +3.88 kcal/mol
USER    (4) Unbound System's Energy  [=(2)] =   -1.68 kcal/mol
USER    
USER    
USER  
USER    DPF = D:/Protein_go_brrr/autodock/final/AncMH_nat/heme/dock.dpf
USER    NEWDPF move	heme_opt.pdbqt
USER    NEWDPF about	0.153000 0.018000 -0.028000
USER    NEWDPF tran0	-12.617109 8.346440 16.497463
USER    NEWDPF axisangle0	0.813359 0.561164 -0.153435 -148.316093
USER    NEWDPF quaternion0	0.782466 0.539850 -0.147607 -0.272985
USER    NEWDPF dihe0	33.05 97.21 -152.79 84.52 -114.59 -51.04 130.06 165.38 -120.16 -37.19 47.89 67.51 15.94 
USER  
USER                              x       y       z    vdW   Elec        q     RMS 
ATOM      1  O   UNL d   1     -13.109   3.225  19.377 -0.01 +0.01    -0.289    19.186
ATOM      2  O   UNL d   1     -18.195   8.541  17.871 -0.44 -0.34    -0.289    19.186
ATOM      3  N   UNL d   1     -12.316   6.163  17.752 -0.06 +0.02    -0.247    19.186
ATOM      4  N   UNL d   1     -14.961   7.456  17.350 -0.10 -0.10    -0.247    19.186
ATOM      5  N   UNL d   1     -13.693   9.263  15.507 -0.09 -0.05    -0.354    19.186
ATOM      6  N   UNL d   1     -10.957   7.903  15.915 -0.13 +0.06    -0.354    19.186
ATOM      7  C   UNL d   1     -11.103   4.102  18.289 -0.13 -0.01    +0.084    19.186
ATOM      8  C   UNL d   1     -16.739   6.878  18.923 -0.06 +0.04    +0.084    19.186
ATOM      9  C   UNL d   1     -15.314   6.649  18.408 -0.08 +0.02    +0.058    19.186
ATOM     10  C   UNL d   1     -11.110   5.491  17.643 -0.17 -0.01    +0.058    19.186
ATOM     11  C   UNL d   1     -12.513   4.115  18.798 -0.03 -0.01    +0.193    19.186
ATOM     12  C   UNL d   1     -13.134   5.428  18.432 -0.05 +0.00    +0.109    19.186
ATOM     13  C   UNL d   1     -17.142   7.938  17.937 -0.04 +0.19    +0.193    19.186
ATOM     14  C   UNL d   1     -10.962   2.986  17.250 -0.29 -0.00    +0.026    19.186
ATOM     15  C   UNL d   1     -14.502   5.708  18.913 -0.05 +0.01    +0.055    19.186
ATOM     16  C   UNL d   1     -16.744   7.486  20.329 -0.01 +0.01    +0.026    19.186
ATOM     17  C   UNL d   1     -15.978   8.192  17.034 -0.06 +0.09    +0.109    19.186
ATOM     18  C   UNL d   1      -9.996   6.021  17.104 -0.33 -0.02    +0.050    19.186
ATOM     19  C   UNL d   1      -9.887   7.327  16.562 -0.31 -0.01    +0.045    19.186
ATOM     20  C   UNL d   1     -15.008   9.576  15.277 -0.19 +0.02    +0.045    19.186
ATOM     21  C   UNL d   1     -16.096   9.158  15.933 +0.01 +0.05    +0.057    19.186
ATOM     22  C   UNL d   1     -13.710  10.673  13.751 -0.31 +0.00    -0.019    19.186
ATOM     23  C   UNL d   1     -12.835   9.877  14.635 -0.28 -0.00    +0.045    19.186
ATOM     24  C   UNL d   1     -14.995  10.491  14.137 -0.25 -0.00    -0.022    19.186
ATOM     25  C   UNL d   1     -10.605   9.125  15.392 -0.25 -0.01    +0.049    19.186
ATOM     26  C   UNL d   1      -8.823   8.213  16.489 -0.33 +0.01    -0.018    19.186
ATOM     27  C   UNL d   1      -9.288   9.355  15.766 -0.29 -0.00    +0.003    19.186
ATOM     28  C   UNL d   1     -11.497   9.841  14.547 -0.08 -0.01    +0.052    19.186
ATOM     29  C   UNL d   1     -16.235  11.089  13.564 -0.26 +0.01    +0.046    19.186
ATOM     30  C   UNL d   1      -7.459   8.015  17.056 -0.17 -0.04    +0.046    19.186
ATOM     31  H   UNL d   1     -13.419   8.695  16.301 +0.05 +0.02    +0.166    19.186
ATOM     32  H   UNL d   1     -11.859   7.453  15.815 +0.08 -0.02    +0.166    19.186
ATOM     33  C   UNL d   1     -10.115   3.920  19.446 -0.08 -0.03    +0.141    19.186
ATOM     34  C   UNL d   1      -8.685   3.855  18.982 -0.11 -0.15    +0.306    19.186
ATOM     35  O   UNL d   1      -8.212   3.027  18.221 -0.21 +0.12    -0.251    19.186
ATOM     36  O   UNL d   1      -7.926   4.838  19.499 -0.01 +0.45    -0.481    19.186
ATOM     37  H   UNL d   1      -7.247   5.011  18.814 -0.50 -0.69    +0.295    19.186
ATOM     38  C   UNL d   1      -8.501  10.508  15.449 -0.24 -0.00    +0.017    19.186
ATOM     39  C   UNL d   1      -8.163  11.477  16.314 -0.23 -0.02    +0.092    19.186
ATOM     40  C   UNL d   1      -7.335  12.599  15.865 -0.16 -0.08    +0.330    19.186
ATOM     41  O   UNL d   1      -6.260  12.550  15.297 -0.20 +0.05    -0.246    19.186
ATOM     42  O   UNL d   1      -7.934  13.763  16.161 -0.07 +0.17    -0.477    19.186
ATOM     43  H   UNL d   1      -8.566  13.896  15.424 -0.38 -0.22    +0.295    19.186
ATOM     44  C   UNL d   1     -17.674   5.667  18.840 -0.06 +0.07    +0.141    19.186
ATOM     45  C   UNL d   1     -18.374   5.548  17.513 -0.02 +0.33    +0.306    19.186
ATOM     46  O   UNL d   1     -17.945   5.003  16.511 -0.28 -0.32    -0.251    19.186
ATOM     47  O   UNL d   1     -19.577   6.150  17.510 -0.20 -0.61    -0.481    19.186
ATOM     48  H   UNL d   1     -19.506   6.850  18.192 +0.01 +0.27    +0.295    19.186
ATOM     49  C   UNL d   1     -13.215  11.517  12.613 -0.46 -0.01    +0.048    19.186
ATOM     50  C   UNL d   1     -12.405  12.716  13.105 -0.35 -0.04    +0.125    19.186
ATOM     51  C   UNL d   1     -12.869  13.984  12.447 -0.24 -0.16    +0.305    19.186
ATOM     52  O   UNL d   1     -12.706  15.127  12.838 -0.29 +0.20    -0.251    19.186
ATOM     53  O   UNL d   1     -13.545  13.742  11.306 -0.15 +0.29    -0.481    19.186
ATOM     54  H   UNL d   1     -12.868  13.839  10.604 -0.38 -0.29    +0.295    19.186
TER
ENDMDL
MODEL       69
USER    Run = 69
USER    Cluster Rank = 5
USER    Number of conformations in this cluster = 5
USER  
USER    RMSD from reference structure       = 13.260 A
USER  
USER    Estimated Free Energy of Binding    =   -6.16 kcal/mol  [=(1)+(2)+(3)-(4)]
USER    Estimated Inhibition Constant, Ki   =   30.34 uM (micromolar)  [Temperature = 298.15 K]
USER    
USER    (1) Final Intermolecular Energy     =  -10.04 kcal/mol
USER        vdW + Hbond + desolv Energy     =   -9.17 kcal/mol
USER        Electrostatic Energy            =   -0.87 kcal/mol
USER    (2) Final Total Internal Energy     =   -2.77 kcal/mol
USER    (3) Torsional Free Energy           =   +3.88 kcal/mol
USER    (4) Unbound System's Energy  [=(2)] =   -2.77 kcal/mol
USER    
USER    
USER  
USER    DPF = D:/Protein_go_brrr/autodock/final/AncMH_nat/heme/dock.dpf
USER    NEWDPF move	heme_opt.pdbqt
USER    NEWDPF about	0.153000 0.018000 -0.028000
USER    NEWDPF tran0	10.062636 -11.754094 -5.048528
USER    NEWDPF axisangle0	-0.031453 0.883446 -0.467476 -177.312173
USER    NEWDPF quaternion0	-0.031445 0.883203 -0.467347 -0.023454
USER    NEWDPF dihe0	-112.60 146.67 -156.55 54.84 -155.71 19.14 135.14 -169.46 -155.33 -8.86 56.04 -58.27 144.04 
USER  
USER                              x       y       z    vdW   Elec        q     RMS 
ATOM      1  O   UNL d   1      15.645 -10.906  -6.742 -0.11 +0.04    -0.289    13.260
ATOM      2  O   UNL d   1      12.763 -12.967  -0.121 -0.10 +0.09    -0.289    13.260
ATOM      3  N   UNL d   1      12.252 -11.145  -6.176 -0.17 +0.09    -0.247    13.260
ATOM      4  N   UNL d   1      12.095 -12.294  -3.440 -0.16 +0.09    -0.247    13.260
ATOM      5  N   UNL d   1       9.311 -12.823  -3.921 -0.13 +0.08    -0.354    13.260
ATOM      6  N   UNL d   1       9.486 -11.647  -6.765 +0.01 +0.14    -0.354    13.260
ATOM      7  C   UNL d   1      13.651 -10.719  -8.142 -0.12 -0.03    +0.084    13.260
ATOM      8  C   UNL d   1      13.984 -11.883  -1.945 -0.14 -0.02    +0.084    13.260
ATOM      9  C   UNL d   1      13.362 -11.763  -3.340 -0.22 -0.02    +0.058    13.260
ATOM     10  C   UNL d   1      12.255 -10.895  -7.538 -0.19 -0.02    +0.058    13.260
ATOM     11  C   UNL d   1      14.436 -10.896  -6.878 -0.11 -0.05    +0.193    13.260
ATOM     12  C   UNL d   1      13.474 -11.123  -5.753 -0.20 -0.03    +0.109    13.260
ATOM     13  C   UNL d   1      12.852 -12.614  -1.281 +0.03 -0.07    +0.193    13.260
ATOM     14  C   UNL d   1      14.005 -11.852  -9.108 -0.03 -0.01    +0.026    13.260
ATOM     15  C   UNL d   1      14.017 -11.233  -4.384 -0.24 -0.01    +0.055    13.260
ATOM     16  C   UNL d   1      14.147 -10.515  -1.276 -0.29 -0.01    +0.026    13.260
ATOM     17  C   UNL d   1      11.772 -12.808  -2.297 +0.01 -0.04    +0.109    13.260
ATOM     18  C   UNL d   1      11.142 -10.723  -8.276 -0.21 -0.02    +0.050    13.260
ATOM     19  C   UNL d   1       9.813 -10.783  -7.785 -0.22 -0.02    +0.045    13.260
ATOM     20  C   UNL d   1       9.481 -13.510  -2.747 -0.21 -0.01    +0.045    13.260
ATOM     21  C   UNL d   1      10.547 -13.539  -1.941 -0.18 -0.02    +0.057    13.260
ATOM     22  C   UNL d   1       7.392 -13.948  -3.562 -0.17 -0.00    -0.019    13.260
ATOM     23  C   UNL d   1       8.080 -13.026  -4.487 -0.21 -0.00    +0.045    13.260
ATOM     24  C   UNL d   1       8.226 -14.230  -2.533 -0.14 +0.00    -0.022    13.260
ATOM     25  C   UNL d   1       8.135 -11.607  -6.511 -0.11 -0.01    +0.049    13.260
ATOM     26  C   UNL d   1       8.651 -10.137  -8.179 -0.26 +0.00    -0.018    13.260
ATOM     27  C   UNL d   1       7.598 -10.647  -7.358 -0.29 -0.00    +0.003    13.260
ATOM     28  C   UNL d   1       7.535 -12.525  -5.607 -0.24 -0.00    +0.052    13.260
ATOM     29  C   UNL d   1       7.984 -15.100  -1.347 -0.07 -0.00    +0.046    13.260
ATOM     30  C   UNL d   1       8.523  -9.108  -9.251 -0.30 -0.01    +0.046    13.260
ATOM     31  H   UNL d   1      10.016 -12.178  -4.260 -0.31 -0.08    +0.166    13.260
ATOM     32  H   UNL d   1      10.158 -12.252  -6.307 -0.05 -0.06    +0.166    13.260
ATOM     33  C   UNL d   1      13.931  -9.345  -8.761 -0.20 -0.11    +0.141    13.260
ATOM     34  C   UNL d   1      13.974  -9.384 -10.264 -0.04 -0.26    +0.306    13.260
ATOM     35  O   UNL d   1      14.978  -9.388 -10.956 -0.08 +0.15    -0.251    13.260
ATOM     36  O   UNL d   1      12.749  -9.419 -10.818 -0.04 +0.44    -0.481    13.260
ATOM     37  H   UNL d   1      12.344  -8.559 -10.575 -0.36 -0.62    +0.295    13.260
ATOM     38  C   UNL d   1       6.223 -10.258  -7.443 -0.27 -0.00    +0.017    13.260
ATOM     39  C   UNL d   1       5.184 -10.982  -6.998 -0.39 +0.01    +0.092    13.260
ATOM     40  C   UNL d   1       3.821 -10.461  -7.130 -0.20 +0.07    +0.330    13.260
ATOM     41  O   UNL d   1       3.436  -9.560  -7.851 -1.21 -0.06    -0.246    13.260
ATOM     42  O   UNL d   1       2.988 -11.136  -6.323 -0.31 -0.07    -0.477    13.260
ATOM     43  H   UNL d   1       3.355 -12.044  -6.315 +0.14 -0.03    +0.295    13.260
ATOM     44  C   UNL d   1      15.281 -12.696  -1.868 -0.04 -0.02    +0.141    13.260
ATOM     45  C   UNL d   1      15.126 -14.112  -2.356 +0.00 -0.04    +0.306    13.260
ATOM     46  O   UNL d   1      15.300 -14.512  -3.493 -0.00 +0.03    -0.251    13.260
ATOM     47  O   UNL d   1      14.728 -14.950  -1.381 +0.00 +0.06    -0.481    13.260
ATOM     48  H   UNL d   1      14.298 -14.372  -0.716 +0.02 -0.05    +0.295    13.260
ATOM     49  C   UNL d   1       6.004 -14.474  -3.774 -0.16 +0.00    +0.048    13.260
ATOM     50  C   UNL d   1       5.892 -15.278  -5.069 -0.08 -0.02    +0.125    13.260
ATOM     51  C   UNL d   1       4.829 -14.709  -5.965 -0.09 -0.13    +0.305    13.260
ATOM     52  O   UNL d   1       4.439 -15.152  -7.031 -0.08 +0.12    -0.251    13.260
ATOM     53  O   UNL d   1       4.304 -13.572  -5.465 -0.29 +0.18    -0.481    13.260
ATOM     54  H   UNL d   1       3.340 -13.745  -5.440 -0.37 -0.52    +0.295    13.260
TER
ENDMDL
MODEL       83
USER    Run = 83
USER    Cluster Rank = 6
USER    Number of conformations in this cluster = 1
USER  
USER    RMSD from reference structure       = 12.289 A
USER  
USER    Estimated Free Energy of Binding    =   -6.09 kcal/mol  [=(1)+(2)+(3)-(4)]
USER    Estimated Inhibition Constant, Ki   =   34.50 uM (micromolar)  [Temperature = 298.15 K]
USER    
USER    (1) Final Intermolecular Energy     =   -9.97 kcal/mol
USER        vdW + Hbond + desolv Energy     =   -8.43 kcal/mol
USER        Electrostatic Energy            =   -1.54 kcal/mol
USER    (2) Final Total Internal Energy     =   -0.85 kcal/mol
USER    (3) Torsional Free Energy           =   +3.88 kcal/mol
USER    (4) Unbound System's Energy  [=(2)] =   -0.85 kcal/mol
USER    
USER    
USER  
USER    DPF = D:/Protein_go_brrr/autodock/final/AncMH_nat/heme/dock.dpf
USER    NEWDPF move	heme_opt.pdbqt
USER    NEWDPF about	0.153000 0.018000 -0.028000
USER    NEWDPF tran0	8.240446 10.188252 7.274244
USER    NEWDPF axisangle0	0.986302 0.081412 -0.143457 -178.102984
USER    NEWDPF quaternion0	0.986167 0.081401 -0.143437 -0.016554
USER    NEWDPF dihe0	-109.29 -167.68 65.58 -60.80 -67.42 38.73 148.60 -170.05 4.65 -162.41 -69.13 170.27 -180.00 
USER  
USER                              x       y       z    vdW   Elec        q     RMS 
ATOM      1  O   UNL d   1       3.032   7.612   8.271 -0.15 +0.02    -0.289    12.289
ATOM      2  O   UNL d   1       5.369  14.642   9.501 -0.00 -0.02    -0.289    12.289
ATOM      3  N   UNL d   1       6.263   8.643   7.643 -0.19 -0.00    -0.247    12.289
ATOM      4  N   UNL d   1       6.152  11.572   8.133 -0.18 -0.04    -0.247    12.289
ATOM      5  N   UNL d   1       8.711  11.791   6.840 -0.06 +0.02    -0.354    12.289
ATOM      6  N   UNL d   1       8.809   8.755   6.319 -0.08 +0.08    -0.354    12.289
ATOM      7  C   UNL d   1       4.997   6.583   7.244 -0.37 -0.02    +0.084    12.289
ATOM      8  C   UNL d   1       4.441  12.384   9.676 -0.11 +0.01    +0.084    12.289
ATOM      9  C   UNL d   1       5.060  11.221   8.894 -0.15 +0.01    +0.058    12.289
ATOM     10  C   UNL d   1       6.310   7.362   7.121 -0.24 -0.01    +0.058    12.289
ATOM     11  C   UNL d   1       4.205   7.645   7.945 -0.27 -0.02    +0.193    12.289
ATOM     12  C   UNL d   1       5.090   8.835   8.153 -0.22 +0.01    +0.109    12.289
ATOM     13  C   UNL d   1       5.361  13.467   9.188 -0.03 +0.01    +0.193    12.289
ATOM     14  C   UNL d   1       4.361   6.310   5.878 -0.46 -0.01    +0.026    12.289
ATOM     15  C   UNL d   1       4.549   9.980   8.912 -0.27 +0.01    +0.055    12.289
ATOM     16  C   UNL d   1       4.632  12.218  11.187 -0.10 +0.01    +0.026    12.289
ATOM     17  C   UNL d   1       6.347  12.846   8.254 -0.07 +0.00    +0.109    12.289
ATOM     18  C   UNL d   1       7.423   6.789   6.626 -0.30 -0.02    +0.050    12.289
ATOM     19  C   UNL d   1       8.700   7.402   6.551 -0.20 -0.02    +0.045    12.289
ATOM     20  C   UNL d   1       8.385  13.119   6.944 -0.11 -0.00    +0.045    12.289
ATOM     21  C   UNL d   1       7.354  13.681   7.582 -0.11 +0.00    +0.057    12.289
ATOM     22  C   UNL d   1      10.290  12.921   5.698 -0.10 +0.00    -0.019    12.289
ATOM     23  C   UNL d   1       9.846  11.573   6.106 -0.11 -0.00    +0.045    12.289
ATOM     24  C   UNL d   1       9.422  13.832   6.198 -0.06 -0.00    -0.022    12.289
ATOM     25  C   UNL d   1      10.130   9.119   6.196 -0.13 -0.01    +0.049    12.289
ATOM     26  C   UNL d   1       9.983   6.881   6.617 -0.17 +0.01    -0.018    12.289
ATOM     27  C   UNL d   1      10.882   7.972   6.411 -0.14 -0.00    +0.003    12.289
ATOM     28  C   UNL d   1      10.489  10.436   5.799 -0.13 -0.01    +0.052    12.289
ATOM     29  C   UNL d   1       9.450  15.317   6.069 -0.06 +0.01    +0.046    12.289
ATOM     30  C   UNL d   1      10.354   5.456   6.858 -0.20 -0.03    +0.046    12.289
ATOM     31  H   UNL d   1       8.187  11.080   7.339 +0.04 -0.00    +0.166    12.289
ATOM     32  H   UNL d   1       8.012   9.371   6.216 +0.06 -0.02    +0.166    12.289
ATOM     33  C   UNL d   1       5.064   5.312   8.097 -0.41 -0.09    +0.141    12.289
ATOM     34  C   UNL d   1       5.650   5.559   9.460 -0.20 -0.21    +0.306    12.289
ATOM     35  O   UNL d   1       6.245   6.562   9.817 -0.12 +0.09    -0.251    12.289
ATOM     36  O   UNL d   1       5.451   4.531  10.304 -0.16 +0.62    -0.481    12.289
ATOM     37  H   UNL d   1       6.005   3.806   9.944 -0.30 -0.80    +0.295    12.289
ATOM     38  C   UNL d   1      12.310   7.872   6.386 -0.12 -0.01    +0.017    12.289
ATOM     39  C   UNL d   1      13.003   6.775   6.042 +0.02 -0.10    +0.092    12.289
ATOM     40  C   UNL d   1      14.468   6.809   6.040 -0.04 -0.24    +0.330    12.289
ATOM     41  O   UNL d   1      15.199   7.393   6.816 -0.02 +0.09    -0.246    12.289
ATOM     42  O   UNL d   1      14.945   6.068   5.028 -0.04 +0.47    -0.477    12.289
ATOM     43  H   UNL d   1      14.157   5.890   4.475 -0.48 -0.67    +0.295    12.289
ATOM     44  C   UNL d   1       2.982  12.707   9.334 -0.24 -0.02    +0.141    12.289
ATOM     45  C   UNL d   1       2.199  13.232  10.508 -0.11 -0.10    +0.306    12.289
ATOM     46  O   UNL d   1       1.872  14.389  10.705 -0.10 +0.07    -0.251    12.289
ATOM     47  O   UNL d   1       1.890  12.267  11.393 -0.46 -0.01    -0.481    12.289
ATOM     48  H   UNL d   1       0.911  12.211  11.367 -0.45 -0.58    +0.295    12.289
ATOM     49  C   UNL d   1      11.501  13.190   4.854 -0.11 -0.00    +0.048    12.289
ATOM     50  C   UNL d   1      11.139  13.358   3.378 -0.18 +0.01    +0.125    12.289
ATOM     51  C   UNL d   1      11.356  14.776   2.931 -0.09 +0.03    +0.305    12.289
ATOM     52  O   UNL d   1      11.108  15.257   1.839 -0.17 -0.04    -0.251    12.289
ATOM     53  O   UNL d   1      11.902  15.533   3.903 -0.02 -0.03    -0.481    12.289
ATOM     54  H   UNL d   1      12.757  15.827   3.524 +0.04 +0.02    +0.295    12.289
TER
ENDMDL
MODEL       97
USER    Run = 97
USER    Cluster Rank = 7
USER    Number of conformations in this cluster = 1
USER  
USER    RMSD from reference structure       = 15.470 A
USER  
USER    Estimated Free Energy of Binding    =   -6.03 kcal/mol  [=(1)+(2)+(3)-(4)]
USER    Estimated Inhibition Constant, Ki   =   38.02 uM (micromolar)  [Temperature = 298.15 K]
USER    
USER    (1) Final Intermolecular Energy     =   -9.91 kcal/mol
USER        vdW + Hbond + desolv Energy     =   -8.91 kcal/mol
USER        Electrostatic Energy            =   -0.99 kcal/mol
USER    (2) Final Total Internal Energy     =   -1.94 kcal/mol
USER    (3) Torsional Free Energy           =   +3.88 kcal/mol
USER    (4) Unbound System's Energy  [=(2)] =   -1.94 kcal/mol
USER    
USER    
USER  
USER    DPF = D:/Protein_go_brrr/autodock/final/AncMH_nat/heme/dock.dpf
USER    NEWDPF move	heme_opt.pdbqt
USER    NEWDPF about	0.153000 0.018000 -0.028000
USER    NEWDPF tran0	2.972453 7.366106 -15.332501
USER    NEWDPF axisangle0	0.578781 0.812796 -0.066150 171.176132
USER    NEWDPF quaternion0	0.577066 0.810387 -0.065954 0.076927
USER    NEWDPF dihe0	-126.84 101.08 133.52 26.37 -148.28 -58.00 -51.01 -45.00 -8.81 -137.31 -120.45 90.17 -30.49 
USER  
USER                              x       y       z    vdW   Elec        q     RMS 
ATOM      1  O   UNL d   1       6.213   2.599 -16.570 -0.06 +0.13    -0.289    15.470
ATOM      2  O   UNL d   1      -0.338   3.306 -12.967 -0.26 -0.01    -0.289    15.470
ATOM      3  N   UNL d   1       4.739   5.656 -15.956 -0.04 -0.01    -0.247    15.470
ATOM      4  N   UNL d   1       2.107   4.924 -14.788 -0.12 -0.03    -0.247    15.470
ATOM      5  N   UNL d   1       1.275   7.647 -15.188 -0.10 -0.10    -0.354    15.470
ATOM      6  N   UNL d   1       4.002   8.394 -16.416 -0.08 -0.09    -0.354    15.470
ATOM      7  C   UNL d   1       6.703   4.905 -17.216 -0.06 -0.03    +0.084    15.470
ATOM      8  C   UNL d   1       1.950   2.767 -13.649 -0.27 -0.00    +0.084    15.470
ATOM      9  C   UNL d   1       2.768   3.753 -14.490 -0.20 +0.00    +0.058    15.470
ATOM     10  C   UNL d   1       5.801   6.053 -16.752 -0.10 -0.01    +0.058    15.470
ATOM     11  C   UNL d   1       5.973   3.792 -16.526 -0.07 -0.06    +0.193    15.470
ATOM     12  C   UNL d   1       4.818   4.378 -15.775 -0.12 -0.01    +0.109    15.470
ATOM     13  C   UNL d   1       0.689   3.579 -13.558 -0.20 +0.00    +0.193    15.470
ATOM     14  C   UNL d   1       6.623   4.687 -18.729 -0.02 -0.01    +0.026    15.470
ATOM     15  C   UNL d   1       4.002   3.475 -14.938 -0.19 -0.00    +0.055    15.470
ATOM     16  C   UNL d   1       2.532   2.601 -12.242 -0.48 -0.00    +0.026    15.470
ATOM     17  C   UNL d   1       0.912   4.859 -14.295 -0.21 +0.01    +0.109    15.470
ATOM     18  C   UNL d   1       6.094   7.336 -17.035 -0.11 -0.00    +0.050    15.470
ATOM     19  C   UNL d   1       5.367   8.465 -16.579 -0.12 +0.01    +0.045    15.470
ATOM     20  C   UNL d   1       0.074   7.081 -14.847 -0.24 +0.00    +0.045    15.470
ATOM     21  C   UNL d   1      -0.175   5.842 -14.412 -0.29 +0.00    +0.057    15.470
ATOM     22  C   UNL d   1      -0.285   9.241 -15.499 -0.14 +0.00    -0.019    15.470
ATOM     23  C   UNL d   1       1.160   8.949 -15.595 -0.15 +0.01    +0.045    15.470
ATOM     24  C   UNL d   1      -0.922   8.132 -15.055 -0.19 +0.00    -0.022    15.470
ATOM     25  C   UNL d   1       3.494   9.620 -16.057 -0.08 +0.02    +0.049    15.470
ATOM     26  C   UNL d   1       5.760   9.761 -16.282 -0.10 -0.00    -0.018    15.470
ATOM     27  C   UNL d   1       4.576  10.481 -15.934 -0.01 +0.00    +0.003    15.470
ATOM     28  C   UNL d   1       2.090   9.834 -15.983 -0.13 +0.01    +0.052    15.470
ATOM     29  C   UNL d   1      -2.375   7.935 -14.787 -0.19 -0.01    +0.046    15.470
ATOM     30  C   UNL d   1       7.150  10.300 -16.317 -0.13 -0.01    +0.046    15.470
ATOM     31  H   UNL d   1       2.148   7.145 -15.060 +0.04 +0.07    +0.166    15.470
ATOM     32  H   UNL d   1       3.461   7.554 -16.584 +0.02 +0.03    +0.166    15.470
ATOM     33  C   UNL d   1       8.156   4.976 -16.734 -0.12 -0.09    +0.141    15.470
ATOM     34  C   UNL d   1       8.273   5.467 -15.317 -0.22 -0.23    +0.306    15.470
ATOM     35  O   UNL d   1       8.462   6.620 -14.967 -0.26 +0.13    -0.251    15.470
ATOM     36  O   UNL d   1       8.143   4.480 -14.413 -0.22 +0.60    -0.481    15.470
ATOM     37  H   UNL d   1       8.769   3.787 -14.713 -0.30 -0.72    +0.295    15.470
ATOM     38  C   UNL d   1       4.527  11.865 -15.572 -0.17 -0.00    +0.017    15.470
ATOM     39  C   UNL d   1       5.268  12.441 -14.613 -0.18 -0.03    +0.092    15.470
ATOM     40  C   UNL d   1       5.136  13.877 -14.352 -0.13 -0.33    +0.330    15.470
ATOM     41  O   UNL d   1       5.338  14.795 -15.124 -0.12 +0.22    -0.246    15.470
ATOM     42  O   UNL d   1       4.733  14.081 -13.088 -0.29 +0.55    -0.477    15.470
ATOM     43  H   UNL d   1       3.770  13.906 -13.117 -0.34 -0.62    +0.295    15.470
ATOM     44  C   UNL d   1       1.682   1.407 -14.302 -0.19 -0.01    +0.141    15.470
ATOM     45  C   UNL d   1       1.022   0.423 -13.374 -0.19 -0.02    +0.306    15.470
ATOM     46  O   UNL d   1       1.578  -0.426 -12.699 -0.37 +0.02    -0.251    15.470
ATOM     47  O   UNL d   1      -0.318   0.541 -13.367 -0.09 +0.01    -0.481    15.470
ATOM     48  H   UNL d   1      -0.482   1.504 -13.272 +0.17 -0.00    +0.295    15.470
ATOM     49  C   UNL d   1      -0.904  10.559 -15.861 -0.09 -0.01    +0.048    15.470
ATOM     50  C   UNL d   1      -1.495  11.264 -14.640 -0.12 -0.04    +0.125    15.470
ATOM     51  C   UNL d   1      -0.433  11.540 -13.613 -0.18 -0.12    +0.305    15.470
ATOM     52  O   UNL d   1       0.369  10.751 -13.145 -0.54 +0.02    -0.251    15.470
ATOM     53  O   UNL d   1      -0.444  12.825 -13.209 -0.13 +0.32    -0.481    15.470
ATOM     54  H   UNL d   1       0.476  12.990 -12.914 -0.43 -0.55    +0.295    15.470
TER
ENDMDL
MODEL       50
USER    Run = 50
USER    Cluster Rank = 8
USER    Number of conformations in this cluster = 3
USER  
USER    RMSD from reference structure       = 17.035 A
USER  
USER    Estimated Free Energy of Binding    =   -5.97 kcal/mol  [=(1)+(2)+(3)-(4)]
USER    Estimated Inhibition Constant, Ki   =   42.00 uM (micromolar)  [Temperature = 298.15 K]
USER    
USER    (1) Final Intermolecular Energy     =   -9.85 kcal/mol
USER        vdW + Hbond + desolv Energy     =   -9.45 kcal/mol
USER        Electrostatic Energy            =   -0.40 kcal/mol
USER    (2) Final Total Internal Energy     =   -2.28 kcal/mol
USER    (3) Torsional Free Energy           =   +3.88 kcal/mol
USER    (4) Unbound System's Energy  [=(2)] =   -2.28 kcal/mol
USER    
USER    
USER  
USER    DPF = D:/Protein_go_brrr/autodock/final/AncMH_nat/heme/dock.dpf
USER    NEWDPF move	heme_opt.pdbqt
USER    NEWDPF about	0.153000 0.018000 -0.028000
USER    NEWDPF tran0	-0.063270 18.714234 -7.506767
USER    NEWDPF axisangle0	-0.473375 0.807846 -0.351143 107.635792
USER    NEWDPF quaternion0	-0.382082 0.652048 -0.283424 0.590354
USER    NEWDPF dihe0	179.09 -143.68 160.41 2.18 -152.80 -120.50 -51.49 -124.73 11.28 -112.53 59.95 -61.23 10.80 
USER  
USER                              x       y       z    vdW   Elec        q     RMS 
ATOM      1  O   UNL d   1      -1.767  20.025 -12.996 -0.01 +0.03    -0.289    17.035
ATOM      2  O   UNL d   1       4.876  17.792 -10.298 -0.40 -0.11    -0.289    17.035
ATOM      3  N   UNL d   1      -1.197  19.498  -9.636 -0.07 +0.06    -0.247    17.035
ATOM      4  N   UNL d   1       1.551  18.369  -9.578 -0.05 +0.08    -0.247    17.035
ATOM      5  N   UNL d   1       1.076  17.596  -6.849 -0.03 +0.07    -0.354    17.035
ATOM      6  N   UNL d   1      -1.781  18.753  -6.924 -0.12 +0.05    -0.354    17.035
ATOM      7  C   UNL d   1      -3.169  20.023 -10.994 -0.09 -0.01    +0.084    17.035
ATOM      8  C   UNL d   1       3.040  18.958 -11.423 -0.10 -0.02    +0.084    17.035
ATOM      9  C   UNL d   1       1.644  19.009 -10.793 -0.14 -0.02    +0.058    17.035
ATOM     10  C   UNL d   1      -2.562  19.734  -9.618 -0.16 -0.01    +0.058    17.035
ATOM     11  C   UNL d   1      -1.902  19.928 -11.790 -0.04 -0.02    +0.193    17.035
ATOM     12  C   UNL d   1      -0.775  19.631 -10.851 -0.10 -0.02    +0.109    17.035
ATOM     13  C   UNL d   1       3.712  18.139 -10.357 -0.11 -0.03    +0.193    17.035
ATOM     14  C   UNL d   1      -4.123  18.915 -11.446 -0.15 -0.00    +0.026    17.035
ATOM     15  C   UNL d   1       0.595  19.583 -11.401 -0.11 -0.01    +0.055    17.035
ATOM     16  C   UNL d   1       3.695  20.342 -11.466 -0.02 -0.00    +0.026    17.035
ATOM     17  C   UNL d   1       2.699  17.841  -9.300 -0.20 -0.02    +0.109    17.035
ATOM     18  C   UNL d   1      -3.301  19.800  -8.495 -0.19 -0.01    +0.050    17.035
ATOM     19  C   UNL d   1      -2.810  19.631  -7.175 -0.18 -0.00    +0.045    17.035
ATOM     20  C   UNL d   1       2.257  16.939  -7.078 -0.28 -0.01    +0.045    17.035
ATOM     21  C   UNL d   1       3.063  17.011  -8.142 -0.34 -0.00    +0.057    17.035
ATOM     22  C   UNL d   1       1.447  16.313  -5.036 -0.34 +0.00    -0.019    17.035
ATOM     23  C   UNL d   1       0.512  17.282  -5.642 -0.28 -0.00    +0.045    17.035
ATOM     24  C   UNL d   1       2.479  16.116  -5.890 -0.34 +0.00    -0.022    17.035
ATOM     25  C   UNL d   1      -1.527  18.679  -5.575 -0.23 -0.00    +0.049    17.035
ATOM     26  C   UNL d   1      -3.211  20.170  -5.962 -0.12 +0.00    -0.018    17.035
ATOM     27  C   UNL d   1      -2.384  19.579  -4.957 -0.15 +0.00    +0.003    17.035
ATOM     28  C   UNL d   1      -0.613  17.722  -5.056 -0.32 +0.00    +0.052    17.035
ATOM     29  C   UNL d   1       3.674  15.241  -5.723 -0.50 +0.00    +0.046    17.035
ATOM     30  C   UNL d   1      -4.293  21.173  -5.747 -0.06 -0.00    +0.046    17.035
ATOM     31  H   UNL d   1       0.729  18.296  -7.496 -0.22 -0.06    +0.166    17.035
ATOM     32  H   UNL d   1      -1.316  18.213  -7.645 -0.50 -0.08    +0.166    17.035
ATOM     33  C   UNL d   1      -3.802  21.410 -11.154 -0.02 -0.01    +0.141    17.035
ATOM     34  C   UNL d   1      -2.823  22.526 -10.907 +0.00 -0.02    +0.306    17.035
ATOM     35  O   UNL d   1      -2.698  23.159  -9.873 -0.00 +0.01    -0.251    17.035
ATOM     36  O   UNL d   1      -2.050  22.783 -11.977 +0.00 +0.03    -0.481    17.035
ATOM     37  H   UNL d   1      -2.310  22.107 -12.638 +0.01 -0.02    +0.295    17.035
ATOM     38  C   UNL d   1      -2.473  19.847  -3.553 -0.13 +0.00    +0.017    17.035
ATOM     39  C   UNL d   1      -2.071  19.016  -2.580 -0.12 +0.01    +0.092    17.035
ATOM     40  C   UNL d   1      -2.201  19.418  -1.177 -0.11 -0.00    +0.330    17.035
ATOM     41  O   UNL d   1      -1.321  19.499  -0.342 -0.14 -0.01    -0.246    17.035
ATOM     42  O   UNL d   1      -3.480  19.713  -0.898 -0.05 +0.05    -0.477    17.035
ATOM     43  H   UNL d   1      -3.991  19.068  -1.429 -0.45 -0.13    +0.295    17.035
ATOM     44  C   UNL d   1       3.126  18.262 -12.785 -0.10 -0.07    +0.141    17.035
ATOM     45  C   UNL d   1       4.527  17.860 -13.160 -0.09 -0.16    +0.306    17.035
ATOM     46  O   UNL d   1       5.303  18.492 -13.856 -0.04 +0.10    -0.251    17.035
ATOM     47  O   UNL d   1       4.870  16.660 -12.658 -0.10 +0.36    -0.481    17.035
ATOM     48  H   UNL d   1       4.247  16.515 -11.914 -0.32 -0.32    +0.295    17.035
ATOM     49  C   UNL d   1       1.241  15.666  -3.698 -0.32 +0.00    +0.048    17.035
ATOM     50  C   UNL d   1       1.467  16.649  -2.549 -0.30 +0.01    +0.125    17.035
ATOM     51  C   UNL d   1       2.589  16.189  -1.662 -0.29 +0.00    +0.305    17.035
ATOM     52  O   UNL d   1       2.587  16.101  -0.447 -0.36 -0.00    -0.251    17.035
ATOM     53  O   UNL d   1       3.690  15.864  -2.369 -0.18 +0.01    -0.481    17.035
ATOM     54  H   UNL d   1       4.327  15.557  -1.690 -0.40 -0.12    +0.295    17.035
TER
ENDMDL
MODEL       21
USER    Run = 21
USER    Cluster Rank = 9
USER    Number of conformations in this cluster = 3
USER  
USER    RMSD from reference structure       = 12.945 A
USER  
USER    Estimated Free Energy of Binding    =   -5.97 kcal/mol  [=(1)+(2)+(3)-(4)]
USER    Estimated Inhibition Constant, Ki   =   42.40 uM (micromolar)  [Temperature = 298.15 K]
USER    
USER    (1) Final Intermolecular Energy     =   -9.84 kcal/mol
USER        vdW + Hbond + desolv Energy     =   -8.94 kcal/mol
USER        Electrostatic Energy            =   -0.90 kcal/mol
USER    (2) Final Total Internal Energy     =   -1.46 kcal/mol
USER    (3) Torsional Free Energy           =   +3.88 kcal/mol
USER    (4) Unbound System's Energy  [=(2)] =   -1.46 kcal/mol
USER    
USER    
USER  
USER    DPF = D:/Protein_go_brrr/autodock/final/AncMH_nat/heme/dock.dpf
USER    NEWDPF move	heme_opt.pdbqt
USER    NEWDPF about	0.153000 0.018000 -0.028000
USER    NEWDPF tran0	-13.358208 9.402327 -3.999476
USER    NEWDPF axisangle0	0.183399 0.958947 -0.216299 145.403734
USER    NEWDPF quaternion0	0.175104 0.915574 -0.206516 0.297344
USER    NEWDPF dihe0	171.86 -123.86 -126.36 -1.67 -35.16 -33.37 -44.86 118.56 -133.44 -25.17 166.01 15.90 12.77 
USER  
USER                              x       y       z    vdW   Elec        q     RMS 
ATOM      1  O   UNL d   1      -9.149   8.178  -7.941 -0.26 +0.12    -0.289    12.945
ATOM      2  O   UNL d   1     -11.319   4.521  -1.752 -0.13 -0.08    -0.289    12.945
ATOM      3  N   UNL d   1     -11.610   9.365  -5.836 -0.18 +0.04    -0.247    12.945
ATOM      4  N   UNL d   1     -11.974   7.148  -3.892 -0.13 +0.01    -0.247    12.945
ATOM      5  N   UNL d   1     -14.400   8.426  -3.029 -0.00 -0.04    -0.354    12.945
ATOM      6  N   UNL d   1     -14.025  10.713  -5.062 -0.05 +0.01    -0.354    12.945
ATOM      7  C   UNL d   1     -10.706  10.061  -8.006 -0.21 -0.02    +0.084    12.945
ATOM      8  C   UNL d   1     -10.068   5.664  -3.518 -0.30 -0.02    +0.084    12.945
ATOM      9  C   UNL d   1     -10.696   6.827  -4.294 -0.28 -0.01    +0.058    12.945
ATOM     10  C   UNL d   1     -11.699  10.290  -6.863 -0.21 -0.01    +0.058    12.945
ATOM     11  C   UNL d   1     -10.027   8.853  -7.435 -0.19 -0.06    +0.193    12.945
ATOM     12  C   UNL d   1     -10.646   8.546  -6.107 -0.27 -0.03    +0.109    12.945
ATOM     13  C   UNL d   1     -11.240   5.360  -2.628 -0.16 +0.02    +0.193    12.945
ATOM     14  C   UNL d   1     -11.409   9.666  -9.307 -0.11 -0.00    +0.026    12.945
ATOM     15  C   UNL d   1     -10.072   7.443  -5.310 -0.31 -0.02    +0.055    12.945
ATOM     16  C   UNL d   1      -8.896   6.129  -2.649 -0.46 -0.00    +0.026    12.945
ATOM     17  C   UNL d   1     -12.332   6.324  -2.960 -0.20 +0.01    +0.109    12.945
ATOM     18  C   UNL d   1     -12.514  11.362  -6.844 -0.19 -0.01    +0.050    12.945
ATOM     19  C   UNL d   1     -13.403  11.701  -5.792 -0.16 -0.00    +0.045    12.945
ATOM     20  C   UNL d   1     -14.519   7.228  -2.374 -0.19 +0.01    +0.045    12.945
ATOM     21  C   UNL d   1     -13.628   6.237  -2.271 -0.23 +0.02    +0.057    12.945
ATOM     22  C   UNL d   1     -16.454   8.412  -2.105 -0.11 -0.00    -0.019    12.945
ATOM     23  C   UNL d   1     -15.519   9.209  -2.924 +0.02 +0.00    +0.045    12.945
ATOM     24  C   UNL d   1     -15.856   7.241  -1.781 -0.15 -0.01    -0.022    12.945
ATOM     25  C   UNL d   1     -14.906  11.261  -4.160 +0.02 +0.00    +0.049    12.945
ATOM     26  C   UNL d   1     -13.864  12.922  -5.327 -0.17 +0.00    -0.018    12.945
ATOM     27  C   UNL d   1     -14.799  12.639  -4.283 -0.15 -0.00    +0.003    12.945
ATOM     28  C   UNL d   1     -15.781  10.435  -3.402 -0.04 +0.00    +0.052    12.945
ATOM     29  C   UNL d   1     -16.390   6.116  -0.962 -0.17 +0.03    +0.046    12.945
ATOM     30  C   UNL d   1     -13.462  14.272  -5.818 -0.15 -0.00    +0.046    12.945
ATOM     31  H   UNL d   1     -13.527   8.702  -3.467 +0.06 +0.01    +0.166    12.945
ATOM     32  H   UNL d   1     -13.870   9.723  -5.214 +0.04 -0.00    +0.166    12.945
ATOM     33  C   UNL d   1      -9.695  11.189  -8.234 -0.30 -0.03    +0.141    12.945
ATOM     34  C   UNL d   1     -10.230  12.276  -9.126 -0.16 -0.05    +0.306    12.945
ATOM     35  O   UNL d   1     -11.405  12.489  -9.376 -0.07 +0.02    -0.251    12.945
ATOM     36  O   UNL d   1      -9.258  13.040  -9.654 -0.09 +0.10    -0.481    12.945
ATOM     37  H   UNL d   1      -8.447  12.780  -9.167 -0.37 -0.14    +0.295    12.945
ATOM     38  C   UNL d   1     -15.527  13.621  -3.538 -0.15 -0.00    +0.017    12.945
ATOM     39  C   UNL d   1     -15.571  13.702  -2.199 -0.21 -0.02    +0.092    12.945
ATOM     40  C   UNL d   1     -16.342  14.770  -1.558 -0.09 -0.12    +0.330    12.945
ATOM     41  O   UNL d   1     -16.490  15.914  -1.942 -0.05 +0.02    -0.246    12.945
ATOM     42  O   UNL d   1     -16.912  14.315  -0.431 -0.05 +0.37    -0.477    12.945
ATOM     43  H   UNL d   1     -16.158  13.972   0.092 -0.50 -0.57    +0.295    12.945
ATOM     44  C   UNL d   1      -9.685   4.441  -4.358 -0.25 -0.08    +0.141    12.945
ATOM     45  C   UNL d   1     -10.870   3.614  -4.778 -0.10 -0.15    +0.306    12.945
ATOM     46  O   UNL d   1     -11.369   2.692  -4.158 -0.10 +0.02    -0.251    12.945
ATOM     47  O   UNL d   1     -11.350   3.977  -5.981 -0.02 +0.39    -0.481    12.945
ATOM     48  H   UNL d   1     -10.571   3.955  -6.576 -0.45 -0.62    +0.295    12.945
ATOM     49  C   UNL d   1     -17.837   8.859  -1.731 -0.06 +0.01    +0.048    12.945
ATOM     50  C   UNL d   1     -17.811  10.000  -0.715 -0.08 -0.00    +0.125    12.945
ATOM     51  C   UNL d   1     -16.440  10.159  -0.122 -0.16 -0.04    +0.305    12.945
ATOM     52  O   UNL d   1     -15.669  11.090  -0.273 -0.23 +0.10    -0.251    12.945
ATOM     53  O   UNL d   1     -16.095   9.103   0.642 -0.14 -0.00    -0.481    12.945
ATOM     54  H   UNL d   1     -15.183   9.310   0.936 -0.27 -0.07    +0.295    12.945
TER
ENDMDL
MODEL       46
USER    Run = 46
USER    Cluster Rank = 10
USER    Number of conformations in this cluster = 3
USER  
USER    RMSD from reference structure       = 19.124 A
USER  
USER    Estimated Free Energy of Binding    =   -5.89 kcal/mol  [=(1)+(2)+(3)-(4)]
USER    Estimated Inhibition Constant, Ki   =   47.75 uM (micromolar)  [Temperature = 298.15 K]
USER    
USER    (1) Final Intermolecular Energy     =   -9.77 kcal/mol
USER        vdW + Hbond + desolv Energy     =   -8.76 kcal/mol
USER        Electrostatic Energy            =   -1.02 kcal/mol
USER    (2) Final Total Internal Energy     =   -2.14 kcal/mol
USER    (3) Torsional Free Energy           =   +3.88 kcal/mol
USER    (4) Unbound System's Energy  [=(2)] =   -2.14 kcal/mol
USER    
USER    
USER  
USER    DPF = D:/Protein_go_brrr/autodock/final/AncMH_nat/heme/dock.dpf
USER    NEWDPF move	heme_opt.pdbqt
USER    NEWDPF about	0.153000 0.018000 -0.028000
USER    NEWDPF tran0	-9.755796 11.086819 15.833027
USER    NEWDPF axisangle0	-0.029275 0.098323 0.994724 48.534825
USER    NEWDPF quaternion0	-0.012032 0.040411 0.408827 0.911637
USER    NEWDPF dihe0	161.89 -99.55 -128.92 142.87 55.94 54.67 128.83 -93.60 151.60 -40.79 -46.74 -126.32 -139.82 
USER  
USER                              x       y       z    vdW   Elec        q     RMS 
ATOM      1  O   UNL d   1     -12.270  16.406  16.213 -0.09 +0.18    -0.289    19.124
ATOM      2  O   UNL d   1     -14.992   9.828  13.824 -0.24 -0.05    -0.289    19.124
ATOM      3  N   UNL d   1     -10.354  13.542  16.044 -0.00 +0.12    -0.247    19.124
ATOM      4  N   UNL d   1     -12.324  11.446  15.298 -0.09 +0.03    -0.247    19.124
ATOM      5  N   UNL d   1     -10.351   9.475  15.996 -0.08 +0.06    -0.354    19.124
ATOM      6  N   UNL d   1      -8.321  11.655  16.786 -0.06 +0.08    -0.354    19.124
ATOM      7  C   UNL d   1     -10.002  15.810  16.904 -0.12 -0.04    +0.084    19.124
ATOM      8  C   UNL d   1     -14.313  12.166  14.074 -0.12 -0.01    +0.084    19.124
ATOM      9  C   UNL d   1     -13.026  12.531  14.821 -0.15 -0.01    +0.058    19.124
ATOM     10  C   UNL d   1      -9.462  14.396  16.670 -0.04 -0.03    +0.058    19.124
ATOM     11  C   UNL d   1     -11.351  15.610  16.282 -0.11 -0.11    +0.193    19.124
ATOM     12  C   UNL d   1     -11.433  14.203  15.775 -0.05 -0.05    +0.109    19.124
ATOM     13  C   UNL d   1     -14.231  10.676  14.247 -0.16 +0.01    +0.193    19.124
ATOM     14  C   UNL d   1     -10.183  16.117  18.393 -0.04 -0.01    +0.026    19.124
ATOM     15  C   UNL d   1     -12.646  13.800  15.036 -0.17 -0.02    +0.055    19.124
ATOM     16  C   UNL d   1     -14.216  12.495  12.581 -0.34 -0.01    +0.026    19.124
ATOM     17  C   UNL d   1     -12.984  10.370  15.011 -0.17 -0.00    +0.109    19.124
ATOM     18  C   UNL d   1      -8.192  14.069  16.976 -0.14 -0.02    +0.050    19.124
ATOM     19  C   UNL d   1      -7.582  12.815  16.719 -0.15 -0.01    +0.045    19.124
ATOM     20  C   UNL d   1     -11.445   8.665  15.831 -0.24 -0.00    +0.045    19.124
ATOM     21  C   UNL d   1     -12.660   8.982  15.370 -0.29 +0.00    +0.057    19.124
ATOM     22  C   UNL d   1      -9.722   7.417  16.663 -0.31 +0.01    -0.019    19.124
ATOM     23  C   UNL d   1      -9.262   8.811  16.494 -0.25 -0.01    +0.045    19.124
ATOM     24  C   UNL d   1     -11.015   7.338  16.267 -0.30 +0.00    -0.022    19.124
ATOM     25  C   UNL d   1      -7.515  10.557  16.593 -0.20 -0.01    +0.049    19.124
ATOM     26  C   UNL d   1      -6.270  12.464  16.438 -0.16 +0.00    -0.018    19.124
ATOM     27  C   UNL d   1      -6.238  11.038  16.340 -0.21 -0.00    +0.003    19.124
ATOM     28  C   UNL d   1      -8.022   9.241  16.772 -0.27 -0.02    +0.052    19.124
ATOM     29  C   UNL d   1     -11.910   6.146  16.238 -0.22 -0.01    +0.046    19.124
ATOM     30  C   UNL d   1      -5.117  13.393  16.268 -0.11 -0.01    +0.046    19.124
ATOM     31  H   UNL d   1     -10.362  10.443  15.692 +0.07 -0.03    +0.166    19.124
ATOM     32  H   UNL d   1      -9.313  11.634  16.992 +0.04 -0.03    +0.166    19.124
ATOM     33  C   UNL d   1      -9.241  16.931  16.187 -0.17 -0.10    +0.141    19.124
ATOM     34  C   UNL d   1      -9.498  18.284  16.793 -0.09 -0.19    +0.306    19.124
ATOM     35  O   UNL d   1      -8.699  18.954  17.426 -0.05 +0.09    -0.251    19.124
ATOM     36  O   UNL d   1     -10.748  18.725  16.565 -0.04 +0.44    -0.481    19.124
ATOM     37  H   UNL d   1     -11.055  18.207  15.790 -0.43 -0.49    +0.295    19.124
ATOM     38  C   UNL d   1      -5.069  10.255  16.076 -0.17 -0.01    +0.017    19.124
ATOM     39  C   UNL d   1      -4.243   9.757  17.008 -0.21 -0.05    +0.092    19.124
ATOM     40  C   UNL d   1      -3.086   8.954  16.605 -0.20 -0.20    +0.330    19.124
ATOM     41  O   UNL d   1      -2.222   9.247  15.801 -0.23 +0.08    -0.246    19.124
ATOM     42  O   UNL d   1      -3.079   7.788  17.270 -0.14 +0.51    -0.477    19.124
ATOM     43  H   UNL d   1      -3.721   7.234  16.779 -0.45 -0.72    +0.295    19.124
ATOM     44  C   UNL d   1     -15.608  12.718  14.680 -0.05 -0.00    +0.141    19.124
ATOM     45  C   UNL d   1     -16.240  11.787  15.680 -0.03 +0.06    +0.306    19.124
ATOM     46  O   UNL d   1     -15.966  11.697  16.864 -0.01 -0.04    -0.251    19.124
ATOM     47  O   UNL d   1     -17.174  10.993  15.124 -0.04 -0.25    -0.481    19.124
ATOM     48  H   UNL d   1     -16.733  10.605  14.339 +0.08 +0.15    +0.295    19.124
ATOM     49  C   UNL d   1      -8.868   6.308  17.203 -0.16 -0.03    +0.048    19.124
ATOM     50  C   UNL d   1      -9.632   5.437  18.200 -0.19 -0.05    +0.125    19.124
ATOM     51  C   UNL d   1      -9.407   3.978  17.921 -0.16 -0.08    +0.305    19.124
ATOM     52  O   UNL d   1     -10.146   3.212  17.328 -0.74 -0.01    -0.251    19.124
ATOM     53  O   UNL d   1      -8.235   3.543  18.426 -0.10 +0.28    -0.481    19.124
ATOM     54  H   UNL d   1      -7.621   4.293  18.283 -0.38 -0.39    +0.295    19.124
TER
ENDMDL
MODEL       19
USER    Run = 19
USER    Cluster Rank = 11
USER    Number of conformations in this cluster = 2
USER  
USER    RMSD from reference structure       = 14.649 A
USER  
USER    Estimated Free Energy of Binding    =   -5.69 kcal/mol  [=(1)+(2)+(3)-(4)]
USER    Estimated Inhibition Constant, Ki   =   67.69 uM (micromolar)  [Temperature = 298.15 K]
USER    
USER    (1) Final Intermolecular Energy     =   -9.57 kcal/mol
USER        vdW + Hbond + desolv Energy     =   -9.01 kcal/mol
USER        Electrostatic Energy            =   -0.55 kcal/mol
USER    (2) Final Total Internal Energy     =   -1.46 kcal/mol
USER    (3) Torsional Free Energy           =   +3.88 kcal/mol
USER    (4) Unbound System's Energy  [=(2)] =   -1.46 kcal/mol
USER    
USER    
USER  
USER    DPF = D:/Protein_go_brrr/autodock/final/AncMH_nat/heme/dock.dpf
USER    NEWDPF move	heme_opt.pdbqt
USER    NEWDPF about	0.153000 0.018000 -0.028000
USER    NEWDPF tran0	3.152987 -3.422724 -14.595984
USER    NEWDPF axisangle0	-0.011477 -0.993879 -0.109880 -165.392305
USER    NEWDPF quaternion0	-0.011384 -0.985814 -0.108989 -0.127131
USER    NEWDPF dihe0	170.12 -24.22 110.78 -4.36 -17.38 57.10 -46.43 -100.52 -124.78 -129.17 22.45 -128.15 -35.05 
USER  
USER                              x       y       z    vdW   Elec        q     RMS 
ATOM      1  O   UNL d   1       8.505  -1.604 -16.270 -0.04 +0.10    -0.289    14.649
ATOM      2  O   UNL d   1       5.872  -8.482 -14.805 -0.04 +0.02    -0.289    14.649
ATOM      3  N   UNL d   1       5.286  -2.177 -15.173 -0.09 +0.03    -0.247    14.649
ATOM      4  N   UNL d   1       5.084  -5.142 -15.167 -0.13 +0.03    -0.247    14.649
ATOM      5  N   UNL d   1       2.237  -4.856 -14.891 -0.12 +0.07    -0.354    14.649
ATOM      6  N   UNL d   1       2.453  -1.781 -14.919 -0.03 +0.02    -0.354    14.649
ATOM      7  C   UNL d   1       6.524  -0.209 -15.948 -0.13 -0.03    +0.084    14.649
ATOM      8  C   UNL d   1       7.160  -6.403 -14.896 -0.13 -0.00    +0.084    14.649
ATOM      9  C   UNL d   1       6.456  -5.054 -15.079 -0.18 -0.00    +0.058    14.649
ATOM     10  C   UNL d   1       5.216  -0.819 -15.434 -0.16 -0.01    +0.058    14.649
ATOM     11  C   UNL d   1       7.350  -1.459 -15.915 -0.07 -0.06    +0.193    14.649
ATOM     12  C   UNL d   1       6.494  -2.577 -15.403 -0.14 -0.02    +0.109    14.649
ATOM     13  C   UNL d   1       5.937  -7.275 -14.934 -0.09 -0.01    +0.193    14.649
ATOM     14  C   UNL d   1       6.404   0.267 -17.398 -0.05 -0.01    +0.026    14.649
ATOM     15  C   UNL d   1       7.124  -3.896 -15.195 -0.20 -0.00    +0.055    14.649
ATOM     16  C   UNL d   1       7.808  -6.522 -13.514 +0.19 +0.00    +0.026    14.649
ATOM     17  C   UNL d   1       4.747  -6.390 -15.109 -0.15 -0.01    +0.109    14.649
ATOM     18  C   UNL d   1       4.136  -0.056 -15.181 -0.21 -0.01    +0.050    14.649
ATOM     19  C   UNL d   1       2.915  -0.518 -14.626 -0.06 -0.00    +0.045    14.649
ATOM     20  C   UNL d   1       2.316  -6.202 -15.136 -0.20 -0.01    +0.045    14.649
ATOM     21  C   UNL d   1       3.403  -6.975 -15.225 -0.17 -0.01    +0.057    14.649
ATOM     22  C   UNL d   1       0.117  -5.581 -15.125 -0.26 +0.00    -0.019    14.649
ATOM     23  C   UNL d   1       0.950  -4.389 -14.867 -0.29 -0.01    +0.045    14.649
ATOM     24  C   UNL d   1       0.932  -6.651 -15.282 -0.20 +0.00    -0.022    14.649
ATOM     25  C   UNL d   1       1.216  -1.986 -14.353 -0.28 -0.00    +0.049    14.649
ATOM     26  C   UNL d   1       1.973   0.100 -13.819 -0.30 +0.00    -0.018    14.649
ATOM     27  C   UNL d   1       0.911  -0.838 -13.634 -0.39 -0.00    +0.003    14.649
ATOM     28  C   UNL d   1       0.466  -3.157 -14.644 -0.19 -0.00    +0.052    14.649
ATOM     29  C   UNL d   1       0.565  -8.072 -15.549 -0.15 -0.00    +0.046    14.649
ATOM     30  C   UNL d   1       2.051   1.477 -13.252 -0.41 -0.00    +0.046    14.649
ATOM     31  H   UNL d   1       3.065  -4.311 -14.675 -0.18 -0.04    +0.166    14.649
ATOM     32  H   UNL d   1       2.952  -2.438 -15.507 +0.05 -0.01    +0.166    14.649
ATOM     33  C   UNL d   1       7.143   0.869 -15.052 -0.21 -0.12    +0.141    14.649
ATOM     34  C   UNL d   1       6.441   2.194 -15.171 -0.19 -0.21    +0.306    14.649
ATOM     35  O   UNL d   1       5.242   2.364 -15.315 -0.17 +0.08    -0.251    14.649
ATOM     36  O   UNL d   1       7.286   3.237 -15.098 -0.13 +0.52    -0.481    14.649
ATOM     37  H   UNL d   1       8.130   2.849 -14.782 -0.39 -0.77    +0.295    14.649
ATOM     38  C   UNL d   1      -0.279  -0.599 -12.874 -0.40 -0.00    +0.017    14.649
ATOM     39  C   UNL d   1      -1.409  -0.059 -13.354 -0.36 +0.00    +0.092    14.649
ATOM     40  C   UNL d   1      -2.566   0.117 -12.473 -0.26 +0.02    +0.330    14.649
ATOM     41  O   UNL d   1      -2.609   0.708 -11.411 -1.32 -0.06    -0.246    14.649
ATOM     42  O   UNL d   1      -3.647  -0.476 -13.005 -0.12 +0.01    -0.477    14.649
ATOM     43  H   UNL d   1      -4.218  -0.660 -12.231 +0.08 -0.02    +0.295    14.649
ATOM     44  C   UNL d   1       8.145  -6.789 -16.005 -0.04 -0.01    +0.141    14.649
ATOM     45  C   UNL d   1       8.785  -8.134 -15.788 -0.01 -0.02    +0.306    14.649
ATOM     46  O   UNL d   1       9.827  -8.356 -15.195 -0.02 +0.02    -0.251    14.649
ATOM     47  O   UNL d   1       8.089  -9.134 -16.359 +0.01 +0.04    -0.481    14.649
ATOM     48  H   UNL d   1       7.273  -9.207 -15.819 +0.03 -0.02    +0.295    14.649
ATOM     49  C   UNL d   1      -1.381  -5.561 -15.209 -0.19 -0.00    +0.048    14.649
ATOM     50  C   UNL d   1      -2.022  -6.437 -14.133 -0.24 -0.01    +0.125    14.649
ATOM     51  C   UNL d   1      -3.404  -6.863 -14.542 -0.14 -0.01    +0.305    14.649
ATOM     52  O   UNL d   1      -4.466  -6.461 -14.101 -0.16 -0.00    -0.251    14.649
ATOM     53  O   UNL d   1      -3.376  -7.809 -15.502 -0.00 +0.02    -0.481    14.649
ATOM     54  H   UNL d   1      -4.317  -8.054 -15.621 +0.04 -0.01    +0.295    14.649
TER
ENDMDL
MODEL       96
USER    Run = 96
USER    Cluster Rank = 12
USER    Number of conformations in this cluster = 1
USER  
USER    RMSD from reference structure       = 11.226 A
USER  
USER    Estimated Free Energy of Binding    =   -5.66 kcal/mol  [=(1)+(2)+(3)-(4)]
USER    Estimated Inhibition Constant, Ki   =   71.17 uM (micromolar)  [Temperature = 298.15 K]
USER    
USER    (1) Final Intermolecular Energy     =   -9.54 kcal/mol
USER        vdW + Hbond + desolv Energy     =   -9.27 kcal/mol
USER        Electrostatic Energy            =   -0.27 kcal/mol
USER    (2) Final Total Internal Energy     =   -1.66 kcal/mol
USER    (3) Torsional Free Energy           =   +3.88 kcal/mol
USER    (4) Unbound System's Energy  [=(2)] =   -1.66 kcal/mol
USER    
USER    
USER  
USER    DPF = D:/Protein_go_brrr/autodock/final/AncMH_nat/heme/dock.dpf
USER    NEWDPF move	heme_opt.pdbqt
USER    NEWDPF about	0.153000 0.018000 -0.028000
USER    NEWDPF tran0	-12.620799 -0.331100 6.606655
USER    NEWDPF axisangle0	0.692806 -0.352674 0.629000 -108.856239
USER    NEWDPF quaternion0	0.563519 -0.286860 0.511620 -0.581724
USER    NEWDPF dihe0	148.48 73.74 50.30 150.07 -141.01 -127.97 155.38 6.83 11.42 179.27 -62.98 -143.32 179.82 
USER  
USER                              x       y       z    vdW   Elec        q     RMS 
ATOM      1  O   UNL d   1     -15.765  -2.740   2.240 -0.08 -0.30    -0.289    11.226
ATOM      2  O   UNL d   1      -9.382   1.214   2.117 -0.21 -0.08    -0.289    11.226
ATOM      3  N   UNL d   1     -14.345  -1.396   5.081 -0.11 -0.11    -0.247    11.226
ATOM      4  N   UNL d   1     -11.759  -0.307   4.103 -0.12 -0.10    -0.247    11.226
ATOM      5  N   UNL d   1     -10.934  -0.053   6.845 -0.24 -0.06    -0.354    11.226
ATOM      6  N   UNL d   1     -13.612  -1.203   7.851 -0.22 -0.04    -0.354    11.226
ATOM      7  C   UNL d   1     -16.246  -2.876   4.633 -0.08 +0.05    +0.084    11.226
ATOM      8  C   UNL d   1     -11.634   0.329   1.747 -0.25 +0.06    +0.084    11.226
ATOM      9  C   UNL d   1     -12.423  -0.306   2.897 -0.22 +0.04    +0.058    11.226
ATOM     10  C   UNL d   1     -15.374  -2.130   5.647 -0.15 +0.02    +0.058    11.226
ATOM     11  C   UNL d   1     -15.538  -2.421   3.393 -0.08 +0.15    +0.193    11.226
ATOM     12  C   UNL d   1     -14.421  -1.508   3.795 -0.18 +0.07    +0.109    11.226
ATOM     13  C   UNL d   1     -10.384   0.654   2.516 -0.21 +0.08    +0.193    11.226
ATOM     14  C   UNL d   1     -16.099  -4.395   4.757 -0.19 +0.01    +0.026    11.226
ATOM     15  C   UNL d   1     -13.634  -0.858   2.727 -0.29 +0.05    +0.055    11.226
ATOM     16  C   UNL d   1     -12.274   1.637   1.272 -0.24 +0.03    +0.026    11.226
ATOM     17  C   UNL d   1     -10.586   0.211   3.928 -0.19 +0.04    +0.109    11.226
ATOM     18  C   UNL d   1     -15.666  -2.132   6.961 -0.24 +0.02    +0.050    11.226
ATOM     19  C   UNL d   1     -14.969  -1.405   7.959 -0.27 +0.01    +0.045    11.226
ATOM     20  C   UNL d   1      -9.744   0.205   6.217 -0.38 +0.01    +0.045    11.226
ATOM     21  C   UNL d   1      -9.503   0.364   4.911 +0.08 +0.02    +0.057    11.226
ATOM     22  C   UNL d   1      -9.375   0.067   8.467 -0.23 -0.00    -0.019    11.226
ATOM     23  C   UNL d   1     -10.811  -0.154   8.206 -0.44 +0.01    +0.045    11.226
ATOM     24  C   UNL d   1      -8.749   0.280   7.285 -0.40 -0.00    -0.022    11.226
ATOM     25  C   UNL d   1     -13.129  -0.557   8.966 -0.33 +0.00    +0.049    11.226
ATOM     26  C   UNL d   1     -15.385  -0.845   9.157 -0.27 -0.00    -0.018    11.226
ATOM     27  C   UNL d   1     -14.222  -0.294   9.779 -0.23 +0.00    +0.003    11.226
ATOM     28  C   UNL d   1     -11.732  -0.377   9.156 -0.30 +0.01    +0.052    11.226
ATOM     29  C   UNL d   1      -7.307   0.561   7.032 -0.45 +0.00    +0.046    11.226
ATOM     30  C   UNL d   1     -16.777  -0.819   9.692 -0.24 +0.01    +0.046    11.226
ATOM     31  H   UNL d   1     -11.807  -0.079   6.329 +0.09 +0.03    +0.166    11.226
ATOM     32  H   UNL d   1     -13.057  -1.529   7.069 +0.08 +0.03    +0.166    11.226
ATOM     33  C   UNL d   1     -17.719  -2.455   4.596 -0.04 +0.08    +0.141    11.226
ATOM     34  C   UNL d   1     -17.896  -0.996   4.273 -0.06 +0.26    +0.306    11.226
ATOM     35  O   UNL d   1     -17.889  -0.075   5.072 -0.16 -0.25    -0.251    11.226
ATOM     36  O   UNL d   1     -18.072  -0.774   2.958 -0.01 -0.50    -0.481    11.226
ATOM     37  H   UNL d   1     -17.521  -1.456   2.517 +0.07 +0.27    +0.295    11.226
ATOM     38  C   UNL d   1     -14.201   0.369  11.048 -0.35 -0.00    +0.017    11.226
ATOM     39  C   UNL d   1     -14.319  -0.236  12.240 -0.33 -0.00    +0.092    11.226
ATOM     40  C   UNL d   1     -14.264   0.558  13.470 -0.17 -0.02    +0.330    11.226
ATOM     41  O   UNL d   1     -13.581   0.356  14.456 -0.21 +0.00    -0.246    11.226
ATOM     42  O   UNL d   1     -15.097   1.607  13.381 -0.08 +0.07    -0.477    11.226
ATOM     43  H   UNL d   1     -14.499   2.372  13.256 -0.28 -0.13    +0.295    11.226
ATOM     44  C   UNL d   1     -11.326  -0.598   0.566 -0.26 +0.09    +0.141    11.226
ATOM     45  C   UNL d   1     -11.701  -0.007  -0.767 -0.09 +0.21    +0.306    11.226
ATOM     46  O   UNL d   1     -10.935   0.352  -1.644 -0.25 -0.10    -0.251    11.226
ATOM     47  O   UNL d   1     -13.031   0.127  -0.914 -0.08 -0.52    -0.481    11.226
ATOM     48  H   UNL d   1     -13.226  -0.273  -1.788 +0.09 +0.26    +0.295    11.226
ATOM     49  C   UNL d   1      -8.752   0.035   9.831 -0.04 +0.00    +0.048    11.226
ATOM     50  C   UNL d   1      -8.137  -1.329  10.144 +0.42 +0.00    +0.125    11.226
ATOM     51  C   UNL d   1      -6.655  -1.213  10.359 -0.43 -0.00    +0.305    11.226
ATOM     52  O   UNL d   1      -5.975  -0.203  10.316 -0.42 -0.01    -0.251    11.226
ATOM     53  O   UNL d   1      -6.087  -2.409  10.612 +0.03 +0.04    -0.481    11.226
ATOM     54  H   UNL d   1      -6.793  -2.917  11.062 -0.02 -0.06    +0.295    11.226
TER
ENDMDL
MODEL       26
USER    Run = 26
USER    Cluster Rank = 13
USER    Number of conformations in this cluster = 1
USER  
USER    RMSD from reference structure       = 16.095 A
USER  
USER    Estimated Free Energy of Binding    =   -5.57 kcal/mol  [=(1)+(2)+(3)-(4)]
USER    Estimated Inhibition Constant, Ki   =   83.22 uM (micromolar)  [Temperature = 298.15 K]
USER    
USER    (1) Final Intermolecular Energy     =   -9.44 kcal/mol
USER        vdW + Hbond + desolv Energy     =   -8.70 kcal/mol
USER        Electrostatic Energy            =   -0.75 kcal/mol
USER    (2) Final Total Internal Energy     =   -2.41 kcal/mol
USER    (3) Torsional Free Energy           =   +3.88 kcal/mol
USER    (4) Unbound System's Energy  [=(2)] =   -2.41 kcal/mol
USER    
USER    
USER  
USER    DPF = D:/Protein_go_brrr/autodock/final/AncMH_nat/heme/dock.dpf
USER    NEWDPF move	heme_opt.pdbqt
USER    NEWDPF about	0.153000 0.018000 -0.028000
USER    NEWDPF tran0	-18.010729 0.135334 8.253842
USER    NEWDPF axisangle0	-0.153365 0.564895 -0.810785 97.584788
USER    NEWDPF quaternion0	-0.115381 0.424986 -0.609976 0.658789
USER    NEWDPF dihe0	122.74 -93.65 -91.50 133.21 -177.46 -64.33 120.08 85.21 -27.30 132.20 -57.60 30.45 14.95 
USER  
USER                              x       y       z    vdW   Elec        q     RMS 
ATOM      1  O   UNL d   1     -19.214  -3.871   4.100 -0.06 -0.14    -0.289    16.095
ATOM      2  O   UNL d   1     -12.699  -1.792   7.201 -0.23 -0.04    -0.289    16.095
ATOM      3  N   UNL d   1     -18.980  -1.346   6.437 -0.04 -0.14    -0.247    16.095
ATOM      4  N   UNL d   1     -16.133  -1.458   7.280 -0.14 -0.09    -0.247    16.095
ATOM      5  N   UNL d   1     -16.819   0.238   9.499 -0.14 -0.10    -0.354    16.095
ATOM      6  N   UNL d   1     -19.775   0.333   8.628 -0.04 -0.15    -0.354    16.095
ATOM      7  C   UNL d   1     -20.830  -2.491   5.309 -0.02 +0.04    +0.084    16.095
ATOM      8  C   UNL d   1     -14.527  -2.366   5.678 -0.21 +0.03    +0.084    16.095
ATOM      9  C   UNL d   1     -15.982  -2.068   6.055 -0.13 +0.02    +0.058    16.095
ATOM     10  C   UNL d   1     -20.356  -1.434   6.311 -0.05 +0.03    +0.058    16.095
ATOM     11  C   UNL d   1     -19.477  -2.972   4.877 -0.02 +0.10    +0.193    16.095
ATOM     12  C   UNL d   1     -18.438  -2.183   5.613 -0.04 +0.06    +0.109    16.095
ATOM     13  C   UNL d   1     -13.883  -1.846   6.932 -0.25 +0.04    +0.193    16.095
ATOM     14  C   UNL d   1     -21.569  -3.643   5.995 -0.05 +0.01    +0.026    16.095
ATOM     15  C   UNL d   1     -17.019  -2.420   5.280 -0.10 +0.03    +0.055    16.095
ATOM     16  C   UNL d   1     -14.061  -1.513   4.495 -0.27 +0.01    +0.026    16.095
ATOM     17  C   UNL d   1     -14.965  -1.330   7.824 -0.22 +0.02    +0.109    16.095
ATOM     18  C   UNL d   1     -21.225  -0.615   6.932 -0.06 +0.03    +0.050    16.095
ATOM     19  C   UNL d   1     -20.875   0.444   7.807 -0.09 +0.03    +0.045    16.095
ATOM     20  C   UNL d   1     -15.543  -0.112   9.856 -0.35 +0.01    +0.045    16.095
ATOM     21  C   UNL d   1     -14.634  -0.794   9.153 -0.13 +0.00    +0.057    16.095
ATOM     22  C   UNL d   1     -16.497   1.052  11.574 -0.30 -0.00    -0.019    16.095
ATOM     23  C   UNL d   1     -17.475   0.943  10.472 -0.25 +0.01    +0.045    16.095
ATOM     24  C   UNL d   1     -15.355   0.427  11.202 -0.36 +0.00    -0.022    16.095
ATOM     25  C   UNL d   1     -19.674   1.429   9.453 -0.17 +0.02    +0.049    16.095
ATOM     26  C   UNL d   1     -21.483   1.660   8.080 -0.10 -0.01    -0.018    16.095
ATOM     27  C   UNL d   1     -20.709   2.286   9.106 -0.17 +0.00    +0.003    16.095
ATOM     28  C   UNL d   1     -18.709   1.470  10.495 -0.19 +0.01    +0.052    16.095
ATOM     29  C   UNL d   1     -14.083   0.278  11.964 -0.28 -0.00    +0.046    16.095
ATOM     30  C   UNL d   1     -22.706   2.210   7.428 -0.09 +0.03    +0.046    16.095
ATOM     31  H   UNL d   1     -17.177   0.046   8.569 +0.06 +0.07    +0.166    16.095
ATOM     32  H   UNL d   1     -19.161  -0.473   8.635 +0.04 +0.06    +0.166    16.095
ATOM     33  C   UNL d   1     -21.617  -1.953   4.109 -0.01 +0.08    +0.141    16.095
ATOM     34  C   UNL d   1     -21.374  -0.488   3.867 -0.02 +0.35    +0.306    16.095
ATOM     35  O   UNL d   1     -22.224   0.386   3.826 -0.63 -0.37    -0.251    16.095
ATOM     36  O   UNL d   1     -20.072  -0.200   3.692 -0.12 -0.74    -0.481    16.095
ATOM     37  H   UNL d   1     -19.642  -0.489   4.525 +0.05 +0.35    +0.295    16.095
ATOM     38  C   UNL d   1     -20.998   3.558   9.697 -0.19 +0.01    +0.017    16.095
ATOM     39  C   UNL d   1     -20.247   4.662   9.564 -0.19 +0.03    +0.092    16.095
ATOM     40  C   UNL d   1     -20.663   5.910  10.209 -0.16 +0.09    +0.330    16.095
ATOM     41  O   UNL d   1     -21.641   6.588   9.954 -0.08 -0.07    -0.246    16.095
ATOM     42  O   UNL d   1     -19.797   6.240  11.179 -0.16 -0.16    -0.477    16.095
ATOM     43  H   UNL d   1     -19.099   6.742  10.709 -0.47 -0.01    +0.295    16.095
ATOM     44  C   UNL d   1     -14.191  -3.845   5.461 -0.28 +0.05    +0.141    16.095
ATOM     45  C   UNL d   1     -14.549  -4.341   4.086 -0.16 +0.19    +0.306    16.095
ATOM     46  O   UNL d   1     -13.941  -4.122   3.053 -0.48 -0.26    -0.251    16.095
ATOM     47  O   UNL d   1     -15.681  -5.069   4.080 -0.04 -0.29    -0.481    16.095
ATOM     48  H   UNL d   1     -16.399  -4.411   3.966 +0.10 +0.18    +0.295    16.095
ATOM     49  C   UNL d   1     -16.773   1.738  12.880 -0.29 +0.00    +0.048    16.095
ATOM     50  C   UNL d   1     -16.916   3.250  12.709 -0.28 +0.01    +0.125    16.095
ATOM     51  C   UNL d   1     -18.243   3.726  13.229 -0.16 +0.13    +0.305    16.095
ATOM     52  O   UNL d   1     -18.559   3.921  14.390 -0.18 -0.19    -0.251    16.095
ATOM     53  O   UNL d   1     -19.132   3.926  12.236 -0.11 -0.14    -0.481    16.095
ATOM     54  H   UNL d   1     -18.631   4.441  11.569 -0.36 +0.02    +0.295    16.095
TER
ENDMDL
MODEL       34
USER    Run = 34
USER    Cluster Rank = 14
USER    Number of conformations in this cluster = 1
USER  
USER    RMSD from reference structure       = 20.238 A
USER  
USER    Estimated Free Energy of Binding    =   -5.54 kcal/mol  [=(1)+(2)+(3)-(4)]
USER    Estimated Inhibition Constant, Ki   =   86.75 uM (micromolar)  [Temperature = 298.15 K]
USER    
USER    (1) Final Intermolecular Energy     =   -9.42 kcal/mol
USER        vdW + Hbond + desolv Energy     =   -8.55 kcal/mol
USER        Electrostatic Energy            =   -0.87 kcal/mol
USER    (2) Final Total Internal Energy     =   -1.62 kcal/mol
USER    (3) Torsional Free Energy           =   +3.88 kcal/mol
USER    (4) Unbound System's Energy  [=(2)] =   -1.62 kcal/mol
USER    
USER    
USER  
USER    DPF = D:/Protein_go_brrr/autodock/final/AncMH_nat/heme/dock.dpf
USER    NEWDPF move	heme_opt.pdbqt
USER    NEWDPF about	0.153000 0.018000 -0.028000
USER    NEWDPF tran0	-11.989897 -1.113282 18.905346
USER    NEWDPF axisangle0	-0.493786 0.265924 0.827925 151.910636
USER    NEWDPF quaternion0	-0.479025 0.257975 0.803176 0.242679
USER    NEWDPF dihe0	-99.60 107.27 71.10 -105.73 38.13 132.33 -38.95 132.46 134.76 173.01 73.52 81.15 136.41 
USER  
USER                              x       y       z    vdW   Elec        q     RMS 
ATOM      1  O   UNL d   1      -9.954   1.313  23.877 +0.00 +0.03    -0.289    20.238
ATOM      2  O   UNL d   1     -10.144   3.922  16.838 -0.84 +0.01    -0.289    20.238
ATOM      3  N   UNL d   1     -11.137  -0.548  21.226 -0.05 +0.06    -0.247    20.238
ATOM      4  N   UNL d   1     -11.103   1.381  18.967 -0.10 +0.06    -0.247    20.238
ATOM      5  N   UNL d   1     -12.725  -0.471  17.482 -0.08 +0.05    -0.354    20.238
ATOM      6  N   UNL d   1     -12.772  -2.458  19.838 -0.06 +0.03    -0.354    20.238
ATOM      7  C   UNL d   1     -11.047  -0.862  23.656 -0.01 -0.01    +0.084    20.238
ATOM      8  C   UNL d   1      -9.502   3.223  19.094 -0.15 -0.02    +0.084    20.238
ATOM      9  C   UNL d   1     -10.164   2.009  19.755 -0.12 -0.01    +0.058    20.238
ATOM     10  C   UNL d   1     -11.454  -1.392  22.278 -0.05 -0.01    +0.058    20.238
ATOM     11  C   UNL d   1     -10.427   0.423  23.195 -0.01 -0.02    +0.193    20.238
ATOM     12  C   UNL d   1     -10.521   0.484  21.702 -0.05 -0.02    +0.109    20.238
ATOM     13  C   UNL d   1     -10.265   3.190  17.801 -0.10 -0.02    +0.193    20.238
ATOM     14  C   UNL d   1     -12.262  -0.540  24.530 -0.00 -0.00    +0.026    20.238
ATOM     15  C   UNL d   1      -9.888   1.626  21.011 -0.07 -0.01    +0.055    20.238
ATOM     16  C   UNL d   1      -8.020   2.971  18.799 -0.25 -0.01    +0.026    20.238
ATOM     17  C   UNL d   1     -11.208   2.031  17.853 -0.23 -0.01    +0.109    20.238
ATOM     18  C   UNL d   1     -11.990  -2.618  22.127 -0.06 -0.00    +0.050    20.238
ATOM     19  C   UNL d   1     -12.320  -3.224  20.888 -0.10 -0.00    +0.045    20.238
ATOM     20  C   UNL d   1     -12.791   0.618  16.652 -0.29 -0.00    +0.045    20.238
ATOM     21  C   UNL d   1     -12.124   1.774  16.732 -0.12 -0.00    +0.057    20.238
ATOM     22  C   UNL d   1     -14.220  -0.987  15.878 -0.30 -0.00    -0.019    20.238
ATOM     23  C   UNL d   1     -13.553  -1.491  17.096 -0.27 +0.00    +0.045    20.238
ATOM     24  C   UNL d   1     -13.763   0.261  15.620 -0.32 -0.00    -0.022    20.238
ATOM     25  C   UNL d   1     -13.117  -3.255  18.771 -0.15 +0.01    +0.049    20.238
ATOM     26  C   UNL d   1     -12.336  -4.549  20.481 -0.10 -0.00    -0.018    20.238
ATOM     27  C   UNL d   1     -12.821  -4.561  19.137 -0.15 +0.00    +0.003    20.238
ATOM     28  C   UNL d   1     -13.757  -2.706  17.627 -0.23 +0.01    +0.052    20.238
ATOM     29  C   UNL d   1     -14.126   1.174  14.498 -0.38 -0.00    +0.046    20.238
ATOM     30  C   UNL d   1     -11.923  -5.734  21.288 -0.05 +0.00    +0.046    20.238
ATOM     31  H   UNL d   1     -12.059  -0.510  18.246 -0.46 -0.10    +0.166    20.238
ATOM     32  H   UNL d   1     -12.870  -1.451  19.881 -0.09 -0.03    +0.166    20.238
ATOM     33  C   UNL d   1     -10.021  -1.714  24.411 -0.00 -0.01    +0.141    20.238
ATOM     34  C   UNL d   1      -9.709  -1.168  25.778 +0.00 -0.02    +0.306    20.238
ATOM     35  O   UNL d   1     -10.262  -1.477  26.820 +0.00 +0.01    -0.251    20.238
ATOM     36  O   UNL d   1      -8.713  -0.264  25.761 +0.00 +0.04    -0.481    20.238
ATOM     37  H   UNL d   1      -9.133   0.559  25.430 +0.00 -0.02    +0.295    20.238
ATOM     38  C   UNL d   1     -13.010  -5.734  18.338 -0.23 +0.01    +0.017    20.238
ATOM     39  C   UNL d   1     -12.039  -6.582  17.964 -0.19 +0.04    +0.092    20.238
ATOM     40  C   UNL d   1     -12.369  -7.760  17.158 -0.18 +0.17    +0.330    20.238
ATOM     41  O   UNL d   1     -11.832  -8.133  16.133 -0.36 -0.10    -0.246    20.238
ATOM     42  O   UNL d   1     -13.389  -8.430  17.715 -0.06 -0.34    -0.477    20.238
ATOM     43  H   UNL d   1     -12.990  -8.853  18.503 +0.08 +0.12    +0.295    20.238
ATOM     44  C   UNL d   1      -9.704   4.559  19.816 -0.06 -0.04    +0.141    20.238
ATOM     45  C   UNL d   1      -8.411   5.241  20.178 -0.04 -0.18    +0.306    20.238
ATOM     46  O   UNL d   1      -7.722   5.019  21.159 -0.03 +0.12    -0.251    20.238
ATOM     47  O   UNL d   1      -8.064   6.191  19.291 -0.03 +0.48    -0.481    20.238
ATOM     48  H   UNL d   1      -7.284   5.823  18.824 -0.42 -0.73    +0.295    20.238
ATOM     49  C   UNL d   1     -15.242  -1.759  15.096 -0.24 +0.00    +0.048    20.238
ATOM     50  C   UNL d   1     -16.381  -2.257  15.986 -0.11 +0.04    +0.125    20.238
ATOM     51  C   UNL d   1     -16.263  -3.734  16.233 -0.10 +0.25    +0.305    20.238
ATOM     52  O   UNL d   1     -16.245  -4.308  17.307 -0.66 -0.30    -0.251    20.238
ATOM     53  O   UNL d   1     -16.159  -4.431  15.084 -0.28 -0.48    -0.481    20.238
ATOM     54  H   UNL d   1     -15.245  -4.250  14.778 -0.41 +0.11    +0.295    20.238
TER
ENDMDL
MODEL       62
USER    Run = 62
USER    Cluster Rank = 15
USER    Number of conformations in this cluster = 3
USER  
USER    RMSD from reference structure       = 12.912 A
USER  
USER    Estimated Free Energy of Binding    =   -5.37 kcal/mol  [=(1)+(2)+(3)-(4)]
USER    Estimated Inhibition Constant, Ki   =  115.19 uM (micromolar)  [Temperature = 298.15 K]
USER    
USER    (1) Final Intermolecular Energy     =   -9.25 kcal/mol
USER        vdW + Hbond + desolv Energy     =   -8.88 kcal/mol
USER        Electrostatic Energy            =   -0.37 kcal/mol
USER    (2) Final Total Internal Energy     =   -3.72 kcal/mol
USER    (3) Torsional Free Energy           =   +3.88 kcal/mol
USER    (4) Unbound System's Energy  [=(2)] =   -3.72 kcal/mol
USER    
USER    
USER  
USER    DPF = D:/Protein_go_brrr/autodock/final/AncMH_nat/heme/dock.dpf
USER    NEWDPF move	heme_opt.pdbqt
USER    NEWDPF about	0.153000 0.018000 -0.028000
USER    NEWDPF tran0	10.515055 -11.401846 -5.502329
USER    NEWDPF axisangle0	0.964835 0.255923 0.059967 -113.855818
USER    NEWDPF quaternion0	0.808517 0.214460 0.050251 -0.545694
USER    NEWDPF dihe0	-175.74 173.72 24.83 34.42 -154.35 26.80 129.57 -166.05 15.46 131.51 68.91 -87.17 130.23 
USER  
USER                              x       y       z    vdW   Elec        q     RMS 
ATOM      1  O   UNL d   1       6.146 -14.741  -3.377 -0.09 -0.01    -0.289    12.912
ATOM      2  O   UNL d   1       6.203  -9.596  -8.846 -0.22 +0.03    -0.289    12.912
ATOM      3  N   UNL d   1       8.955 -12.914  -4.194 -0.16 +0.05    -0.247    12.912
ATOM      4  N   UNL d   1       8.109 -11.404  -6.609 -0.13 +0.07    -0.247    12.912
ATOM      5  N   UNL d   1      10.876 -10.769  -7.067 -0.09 +0.16    -0.354    12.912
ATOM      6  N   UNL d   1      11.746 -12.354  -4.571 -0.10 +0.12    -0.354    12.912
ATOM      7  C   UNL d   1       8.487 -14.780  -2.675 -0.07 -0.01    +0.084    12.912
ATOM      8  C   UNL d   1       5.722 -10.947  -6.862 -0.32 +0.00    +0.084    12.912
ATOM      9  C   UNL d   1       6.854 -11.634  -6.092 -0.28 -0.00    +0.058    12.912
ATOM     10  C   UNL d   1       9.496 -13.793  -3.271 -0.16 -0.01    +0.058    12.912
ATOM     11  C   UNL d   1       7.277 -14.291  -3.412 -0.10 +0.01    +0.193    12.912
ATOM     12  C   UNL d   1       7.685 -13.141  -4.280 -0.19 +0.00    +0.109    12.912
ATOM     13  C   UNL d   1       6.564 -10.314  -7.935 -0.13 -0.02    +0.193    12.912
ATOM     14  C   UNL d   1       8.776 -16.223  -3.100 -0.02 -0.00    +0.026    12.912
ATOM     15  C   UNL d   1       6.633 -12.433  -5.036 -0.07 +0.01    +0.055    12.912
ATOM     16  C   UNL d   1       5.064  -9.838  -6.035 -0.31 +0.01    +0.026    12.912
ATOM     17  C   UNL d   1       7.990 -10.674  -7.671 -0.22 -0.02    +0.109    12.912
ATOM     18  C   UNL d   1      10.772 -13.750  -2.845 -0.16 -0.01    +0.050    12.912
ATOM     19  C   UNL d   1      11.751 -12.819  -3.275 -0.19 -0.01    +0.045    12.912
ATOM     20  C   UNL d   1      10.334 -10.326  -8.246 -0.25 -0.02    +0.045    12.912
ATOM     21  C   UNL d   1       9.046 -10.226  -8.591 -0.26 -0.02    +0.057    12.912
ATOM     22  C   UNL d   1      12.611 -10.205  -8.388 -0.21 +0.01    -0.019    12.912
ATOM     23  C   UNL d   1      12.245 -10.734  -7.059 -0.23 -0.02    +0.045    12.912
ATOM     24  C   UNL d   1      11.475  -9.964  -9.085 -0.20 +0.01    -0.022    12.912
ATOM     25  C   UNL d   1      12.830 -11.537  -4.796 -0.25 -0.01    +0.049    12.912
ATOM     26  C   UNL d   1      12.845 -12.261  -2.631 -0.15 +0.01    -0.018    12.912
ATOM     27  C   UNL d   1      13.511 -11.437  -3.590 -0.26 -0.00    +0.003    12.912
ATOM     28  C   UNL d   1      13.126 -11.062  -6.102 -0.26 -0.02    +0.052    12.912
ATOM     29  C   UNL d   1      11.325  -9.417 -10.464 -0.02 -0.04    +0.046    12.912
ATOM     30  C   UNL d   1      13.247 -12.476  -1.211 -0.13 -0.02    +0.046    12.912
ATOM     31  H   UNL d   1      10.288 -11.013  -6.277 -0.49 -0.11    +0.166    12.912
ATOM     32  H   UNL d   1      11.054 -12.623  -5.260 +0.01 -0.05    +0.166    12.912
ATOM     33  C   UNL d   1       8.276 -14.671  -1.161 -0.09 -0.01    +0.141    12.912
ATOM     34  C   UNL d   1       7.702 -13.342  -0.751 -0.16 +0.00    +0.306    12.912
ATOM     35  O   UNL d   1       8.324 -12.401  -0.289 -0.29 +0.03    -0.251    12.912
ATOM     36  O   UNL d   1       6.374 -13.269  -0.946 -0.08 -0.13    -0.481    12.912
ATOM     37  H   UNL d   1       6.126 -14.152  -1.294 +0.08 +0.06    +0.295    12.912
ATOM     38  C   UNL d   1      14.704 -10.684  -3.345 -0.12 -0.00    +0.017    12.912
ATOM     39  C   UNL d   1      15.805 -10.705  -4.112 -0.15 -0.00    +0.092    12.912
ATOM     40  C   UNL d   1      16.956  -9.871  -3.759 -0.06 +0.00    +0.330    12.912
ATOM     41  O   UNL d   1      17.258  -9.447  -2.660 -0.12 +0.01    -0.246    12.912
ATOM     42  O   UNL d   1      17.694  -9.617  -4.851 -0.18 -0.00    -0.477    12.912
ATOM     43  H   UNL d   1      17.280 -10.166  -5.547 +0.05 -0.00    +0.295    12.912
ATOM     44  C   UNL d   1       4.673 -11.883  -7.470 -0.20 +0.00    +0.141    12.912
ATOM     45  C   UNL d   1       3.625 -12.322  -6.482 -0.23 -0.05    +0.306    12.912
ATOM     46  O   UNL d   1       2.606 -11.723  -6.189 -0.44 +0.03    -0.251    12.912
ATOM     47  O   UNL d   1       3.934 -13.491  -5.890 -0.20 +0.30    -0.481    12.912
ATOM     48  H   UNL d   1       3.071 -13.859  -5.603 -0.31 -0.66    +0.295    12.912
ATOM     49  C   UNL d   1      14.022 -10.000  -8.854 -0.18 -0.03    +0.048    12.912
ATOM     50  C   UNL d   1      14.901 -11.215  -8.556 -0.05 -0.03    +0.125    12.912
ATOM     51  C   UNL d   1      15.902 -10.902  -7.481 -0.05 -0.06    +0.305    12.912
ATOM     52  O   UNL d   1      16.827 -11.598  -7.101 -0.02 +0.04    -0.251    12.912
ATOM     53  O   UNL d   1      15.674  -9.700  -6.914 -0.43 +0.06    -0.481    12.912
ATOM     54  H   UNL d   1      16.569  -9.364  -6.699 +0.07 +0.00    +0.295    12.912
TER
ENDMDL
MODEL       77
USER    Run = 77
USER    Cluster Rank = 16
USER    Number of conformations in this cluster = 1
USER  
USER    RMSD from reference structure       = 13.144 A
USER  
USER    Estimated Free Energy of Binding    =   -5.34 kcal/mol  [=(1)+(2)+(3)-(4)]
USER    Estimated Inhibition Constant, Ki   =  121.63 uM (micromolar)  [Temperature = 298.15 K]
USER    
USER    (1) Final Intermolecular Energy     =   -9.22 kcal/mol
USER        vdW + Hbond + desolv Energy     =   -8.93 kcal/mol
USER        Electrostatic Energy            =   -0.29 kcal/mol
USER    (2) Final Total Internal Energy     =   -2.31 kcal/mol
USER    (3) Torsional Free Energy           =   +3.88 kcal/mol
USER    (4) Unbound System's Energy  [=(2)] =   -2.31 kcal/mol
USER    
USER    
USER  
USER    DPF = D:/Protein_go_brrr/autodock/final/AncMH_nat/heme/dock.dpf
USER    NEWDPF move	heme_opt.pdbqt
USER    NEWDPF about	0.153000 0.018000 -0.028000
USER    NEWDPF tran0	8.905060 -12.236512 -5.907981
USER    NEWDPF axisangle0	0.291807 -0.372535 -0.880946 162.446872
USER    NEWDPF quaternion0	0.288390 -0.368173 -0.870631 0.152582
USER    NEWDPF dihe0	-102.81 -106.68 117.71 119.01 35.45 174.44 -51.72 178.26 131.81 -137.45 39.34 -4.10 11.93 
USER  
USER                              x       y       z    vdW   Elec        q     RMS 
ATOM      1  O   UNL d   1      12.261 -13.216  -1.161 -0.09 +0.09    -0.289    13.144
ATOM      2  O   UNL d   1      13.928 -10.223  -7.844 -0.13 +0.12    -0.289    13.144
ATOM      3  N   UNL d   1       9.964 -12.964  -3.721 -0.16 +0.06    -0.247    13.144
ATOM      4  N   UNL d   1      11.419 -11.412  -5.795 +0.03 +0.12    -0.247    13.144
ATOM      5  N   UNL d   1       8.905 -11.023  -7.136 -0.08 +0.13    -0.354    13.144
ATOM      6  N   UNL d   1       7.401 -12.619  -4.969 -0.13 -0.00    -0.354    13.144
ATOM      7  C   UNL d   1       9.867 -13.658  -1.372 -0.17 -0.02    +0.084    13.144
ATOM      8  C   UNL d   1      13.859 -11.547  -5.786 -0.14 -0.02    +0.084    13.144
ATOM      9  C   UNL d   1      12.521 -11.894  -5.125 -0.20 -0.02    +0.058    13.144
ATOM     10  C   UNL d   1       9.145 -13.422  -2.702 -0.22 -0.01    +0.058    13.144
ATOM     11  C   UNL d   1      11.243 -13.272  -1.825 -0.06 -0.07    +0.193    13.144
ATOM     12  C   UNL d   1      11.175 -12.896  -3.273 -0.18 -0.04    +0.109    13.144
ATOM     13  C   UNL d   1      13.314 -10.747  -6.936 -0.15 -0.07    +0.193    13.144
ATOM     14  C   UNL d   1       9.409 -12.680  -0.288 -0.13 -0.01    +0.026    13.144
ATOM     15  C   UNL d   1      12.437 -12.565  -3.965 -0.20 -0.02    +0.055    13.144
ATOM     16  C   UNL d   1      14.558 -12.792  -6.340 -0.04 -0.00    +0.026    13.144
ATOM     17  C   UNL d   1      11.824 -10.735  -6.821 -0.22 -0.05    +0.109    13.144
ATOM     18  C   UNL d   1       7.843 -13.728  -2.860 -0.22 +0.00    +0.050    13.144
ATOM     19  C   UNL d   1       7.115 -13.623  -4.072 -0.18 +0.00    +0.045    13.144
ATOM     20  C   UNL d   1       9.691 -10.161  -7.855 -0.27 -0.02    +0.045    13.144
ATOM     21  C   UNL d   1      11.015  -9.985  -7.794 -0.35 -0.03    +0.057    13.144
ATOM     22  C   UNL d   1       7.518  -9.898  -8.508 -0.18 +0.00    -0.019    13.144
ATOM     23  C   UNL d   1       7.578 -10.937  -7.460 -0.24 -0.01    +0.045    13.144
ATOM     24  C   UNL d   1       8.773  -9.443  -8.738 -0.24 +0.01    -0.022    13.144
ATOM     25  C   UNL d   1       6.519 -12.648  -6.025 -0.19 +0.00    +0.049    13.144
ATOM     26  C   UNL d   1       6.044 -14.346  -4.575 -0.14 +0.00    -0.018    13.144
ATOM     27  C   UNL d   1       5.685 -13.738  -5.818 -0.16 -0.00    +0.003    13.144
ATOM     28  C   UNL d   1       6.515 -11.615  -7.001 -0.27 -0.00    +0.052    13.144
ATOM     29  C   UNL d   1       9.226  -8.407  -9.709 -0.34 -0.02    +0.046    13.144
ATOM     30  C   UNL d   1       5.395 -15.530  -3.943 -0.12 -0.01    +0.046    13.144
ATOM     31  H   UNL d   1       9.312 -11.698  -6.497 -0.24 -0.07    +0.166    13.144
ATOM     32  H   UNL d   1       8.137 -11.936  -4.831 -0.30 -0.03    +0.166    13.144
ATOM     33  C   UNL d   1       9.854 -15.105  -0.866 -0.05 -0.02    +0.141    13.144
ATOM     34  C   UNL d   1      10.590 -15.270   0.436 -0.02 -0.04    +0.306    13.144
ATOM     35  O   UNL d   1      10.112 -15.162   1.552 -0.02 +0.04    -0.251    13.144
ATOM     36  O   UNL d   1      11.891 -15.563   0.262 +0.01 +0.07    -0.481    13.144
ATOM     37  H   UNL d   1      12.299 -14.717  -0.020 +0.04 -0.05    +0.295    13.144
ATOM     38  C   UNL d   1       4.613 -14.165  -6.665 -0.19 -0.01    +0.017    13.144
ATOM     39  C   UNL d   1       4.605 -14.084  -8.005 -0.13 -0.03    +0.092    13.144
ATOM     40  C   UNL d   1       3.448 -14.574  -8.759 -0.05 -0.13    +0.330    13.144
ATOM     41  O   UNL d   1       3.234 -14.458  -9.951 -0.23 +0.05    -0.246    13.144
ATOM     42  O   UNL d   1       2.600 -15.215  -7.940 -0.09 +0.40    -0.477    13.144
ATOM     43  H   UNL d   1       2.183 -14.494  -7.424 -0.40 -0.46    +0.295    13.144
ATOM     44  C   UNL d   1      14.817 -10.705  -4.937 -0.19 -0.01    +0.141    13.144
ATOM     45  C   UNL d   1      16.175 -10.538  -5.564 -0.07 -0.01    +0.306    13.144
ATOM     46  O   UNL d   1      17.168 -11.207  -5.337 -0.06 +0.02    -0.251    13.144
ATOM     47  O   UNL d   1      16.219  -9.509  -6.431 -0.50 -0.04    -0.481    13.144
ATOM     48  H   UNL d   1      15.588  -9.756  -7.140 +0.08 -0.05    +0.295    13.144
ATOM     49  C   UNL d   1       6.252  -9.440  -9.170 -0.29 -0.00    +0.048    13.144
ATOM     50  C   UNL d   1       5.689 -10.500 -10.116 -0.22 -0.01    +0.125    13.144
ATOM     51  C   UNL d   1       5.158  -9.871 -11.373 -0.16 -0.02    +0.305    13.144
ATOM     52  O   UNL d   1       4.768 -10.435 -12.379 -0.12 +0.02    -0.251    13.144
ATOM     53  O   UNL d   1       5.156  -8.525 -11.300 -0.13 +0.05    -0.481    13.144
ATOM     54  H   UNL d   1       4.556  -8.328 -10.550 -0.39 -0.10    +0.295    13.144
TER
ENDMDL
MODEL       33
USER    Run = 33
USER    Cluster Rank = 17
USER    Number of conformations in this cluster = 1
USER  
USER    RMSD from reference structure       = 17.423 A
USER  
USER    Estimated Free Energy of Binding    =   -5.33 kcal/mol  [=(1)+(2)+(3)-(4)]
USER    Estimated Inhibition Constant, Ki   =  123.02 uM (micromolar)  [Temperature = 298.15 K]
USER    
USER    (1) Final Intermolecular Energy     =   -9.21 kcal/mol
USER        vdW + Hbond + desolv Energy     =   -8.78 kcal/mol
USER        Electrostatic Energy            =   -0.43 kcal/mol
USER    (2) Final Total Internal Energy     =   -2.08 kcal/mol
USER    (3) Torsional Free Energy           =   +3.88 kcal/mol
USER    (4) Unbound System's Energy  [=(2)] =   -2.08 kcal/mol
USER    
USER    
USER  
USER    DPF = D:/Protein_go_brrr/autodock/final/AncMH_nat/heme/dock.dpf
USER    NEWDPF move	heme_opt.pdbqt
USER    NEWDPF about	0.153000 0.018000 -0.028000
USER    NEWDPF tran0	-0.173842 18.423632 -8.973782
USER    NEWDPF axisangle0	0.557459 0.459620 0.691367 135.633193
USER    NEWDPF quaternion0	0.516196 0.425599 0.640192 0.377573
USER    NEWDPF dihe0	-61.09 -67.60 -110.25 -33.91 -144.04 161.73 120.04 125.89 -163.83 -32.41 158.68 -5.66 20.90 
USER  
USER                              x       y       z    vdW   Elec        q     RMS 
ATOM      1  O   UNL d   1       2.626  18.681 -14.156 -0.02 +0.09    -0.289    17.423
ATOM      2  O   UNL d   1      -4.699  18.773 -12.501 -0.06 +0.00    -0.289    17.423
ATOM      3  N   UNL d   1       1.434  18.366 -10.934 -0.11 +0.09    -0.247    17.423
ATOM      4  N   UNL d   1      -1.487  18.818 -11.239 -0.12 +0.05    -0.247    17.423
ATOM      5  N   UNL d   1      -1.648  19.100  -8.383 +0.10 +0.11    -0.354    17.423
ATOM      6  N   UNL d   1       1.387  18.651  -8.077 -0.04 +0.09    -0.354    17.423
ATOM      7  C   UNL d   1       3.658  18.584 -11.942 -0.10 -0.03    +0.084    17.423
ATOM      8  C   UNL d   1      -2.476  18.303 -13.414 -0.05 -0.01    +0.084    17.423
ATOM      9  C   UNL d   1      -1.227  18.436 -12.537 -0.12 -0.01    +0.058    17.423
ATOM     10  C   UNL d   1       2.794  18.442 -10.685 -0.16 -0.02    +0.058    17.423
ATOM     11  C   UNL d   1       2.546  18.556 -12.947 -0.06 -0.07    +0.193    17.423
ATOM     12  C   UNL d   1       1.251  18.395 -12.214 -0.09 -0.04    +0.109    17.423
ATOM     13  C   UNL d   1      -3.490  18.715 -12.384 -0.07 -0.01    +0.193    17.423
ATOM     14  C   UNL d   1       4.353  19.946 -12.011 -0.03 -0.00    +0.026    17.423
ATOM     15  C   UNL d   1       0.015  18.248 -13.010 -0.13 -0.01    +0.055    17.423
ATOM     16  C   UNL d   1      -2.740  16.847 -13.809 -0.10 -0.00    +0.026    17.423
ATOM     17  C   UNL d   1      -2.761  19.007 -11.113 -0.15 -0.01    +0.109    17.423
ATOM     18  C   UNL d   1       3.346  18.314  -9.464 -0.21 -0.00    +0.050    17.423
ATOM     19  C   UNL d   1       2.633  18.094  -8.258 -0.20 -0.01    +0.045    17.423
ATOM     20  C   UNL d   1      -2.909  19.510  -8.731 -0.19 -0.01    +0.045    17.423
ATOM     21  C   UNL d   1      -3.498  19.479  -9.931 -0.18 -0.00    +0.057    17.423
ATOM     22  C   UNL d   1      -2.608  19.868  -6.495 -0.15 +0.00    -0.019    17.423
ATOM     23  C   UNL d   1      -1.374  19.278  -7.053 -0.15 -0.01    +0.045    17.423
ATOM     24  C   UNL d   1      -3.513  20.001  -7.494 -0.15 +0.00    -0.022    17.423
ATOM     25  C   UNL d   1       0.919  18.387  -6.810 -0.11 -0.01    +0.049    17.423
ATOM     26  C   UNL d   1       2.967  17.421  -7.093 -0.24 +0.00    -0.018    17.423
ATOM     27  C   UNL d   1       1.874  17.593  -6.190 -0.21 -0.00    +0.003    17.423
ATOM     28  C   UNL d   1      -0.278  18.989  -6.335 -0.15 -0.01    +0.052    17.423
ATOM     29  C   UNL d   1      -4.904  20.534  -7.427 -0.11 -0.00    +0.046    17.423
ATOM     30  C   UNL d   1       4.225  16.663  -6.833 -0.37 +0.01    +0.046    17.423
ATOM     31  H   UNL d   1      -1.039  18.643  -9.053 -0.49 -0.11    +0.166    17.423
ATOM     32  H   UNL d   1       0.915  19.209  -8.779 -0.10 -0.05    +0.166    17.423
ATOM     33  C   UNL d   1       4.642  17.437 -12.196 -0.05 -0.07    +0.141    17.423
ATOM     34  C   UNL d   1       6.078  17.881 -12.136 -0.03 -0.15    +0.306    17.423
ATOM     35  O   UNL d   1       6.745  18.293 -13.070 -0.10 +0.14    -0.251    17.423
ATOM     36  O   UNL d   1       6.598  17.787 -10.899 -0.11 +0.08    -0.481    17.423
ATOM     37  H   UNL d   1       7.315  17.122 -10.983 -0.47 -0.31    +0.295    17.423
ATOM     38  C   UNL d   1       1.813  17.070  -4.858 -0.26 -0.00    +0.017    17.423
ATOM     39  C   UNL d   1       0.692  16.695  -4.224 -0.30 +0.00    +0.092    17.423
ATOM     40  C   UNL d   1       0.768  16.157  -2.863 -0.21 +0.03    +0.330    17.423
ATOM     41  O   UNL d   1      -0.124  16.091  -2.039 -0.90 -0.06    -0.246    17.423
ATOM     42  O   UNL d   1       2.007  15.707  -2.613 -0.11 -0.02    -0.477    17.423
ATOM     43  H   UNL d   1       2.349  16.326  -1.936 +0.17 +0.01    +0.295    17.423
ATOM     44  C   UNL d   1      -2.528  19.227 -14.635 -0.01 -0.01    +0.141    17.423
ATOM     45  C   UNL d   1      -3.008  20.616 -14.309 +0.00 -0.02    +0.306    17.423
ATOM     46  O   UNL d   1      -2.369  21.495 -13.757 -0.00 +0.02    -0.251    17.423
ATOM     47  O   UNL d   1      -4.287  20.818 -14.675 +0.00 +0.02    -0.481    17.423
ATOM     48  H   UNL d   1      -4.810  20.255 -14.066 +0.01 -0.01    +0.295    17.423
ATOM     49  C   UNL d   1      -2.781  20.256  -5.056 -0.11 -0.00    +0.048    17.423
ATOM     50  C   UNL d   1      -2.673  19.049  -4.125 -0.14 +0.01    +0.125    17.423
ATOM     51  C   UNL d   1      -2.919  17.770  -4.873 -0.16 +0.08    +0.305    17.423
ATOM     52  O   UNL d   1      -2.154  16.831  -5.011 -0.93 -0.08    -0.251    17.423
ATOM     53  O   UNL d   1      -4.143  17.742  -5.436 -0.29 -0.04    -0.481    17.423
ATOM     54  H   UNL d   1      -4.010  17.245  -6.270 -0.45 -0.07    +0.295    17.423
TER
ENDMDL
MODEL       48
USER    Run = 48
USER    Cluster Rank = 18
USER    Number of conformations in this cluster = 3
USER  
USER    RMSD from reference structure       = 14.113 A
USER  
USER    Estimated Free Energy of Binding    =   -5.25 kcal/mol  [=(1)+(2)+(3)-(4)]
USER    Estimated Inhibition Constant, Ki   =  140.92 uM (micromolar)  [Temperature = 298.15 K]
USER    
USER    (1) Final Intermolecular Energy     =   -9.13 kcal/mol
USER        vdW + Hbond + desolv Energy     =   -9.06 kcal/mol
USER        Electrostatic Energy            =   -0.07 kcal/mol
USER    (2) Final Total Internal Energy     =   -2.28 kcal/mol
USER    (3) Torsional Free Energy           =   +3.88 kcal/mol
USER    (4) Unbound System's Energy  [=(2)] =   -2.28 kcal/mol
USER    
USER    
USER  
USER    DPF = D:/Protein_go_brrr/autodock/final/AncMH_nat/heme/dock.dpf
USER    NEWDPF move	heme_opt.pdbqt
USER    NEWDPF about	0.153000 0.018000 -0.028000
USER    NEWDPF tran0	-2.368702 -9.873138 -12.939690
USER    NEWDPF axisangle0	-0.028558 -0.509162 -0.860197 98.396489
USER    NEWDPF quaternion0	-0.021617 -0.385423 -0.651148 0.653444
USER    NEWDPF dihe0	76.44 45.35 -106.59 147.26 178.41 93.41 128.15 4.12 107.61 -38.37 18.69 16.92 -164.82 
USER  
USER                              x       y       z    vdW   Elec        q     RMS 
ATOM      1  O   UNL d   1      -2.619 -14.179  -8.921 -0.10 +0.10    -0.289    14.113
ATOM      2  O   UNL d   1       1.220 -13.659 -15.354 -0.01 +0.03    -0.289    14.113
ATOM      3  N   UNL d   1      -2.896 -11.479 -11.048 -0.16 +0.08    -0.247    14.113
ATOM      4  N   UNL d   1      -0.825 -12.018 -13.110 -0.11 +0.10    -0.247    14.113
ATOM      5  N   UNL d   1      -1.127  -9.298 -13.992 -0.01 +0.09    -0.354    14.113
ATOM      6  N   UNL d   1      -3.260  -8.741 -11.837 -0.15 +0.08    -0.354    14.113
ATOM      7  C   UNL d   1      -3.756 -12.018  -8.817 -0.30 -0.01    +0.084    14.113
ATOM      8  C   UNL d   1      -0.209 -14.352 -13.491 -0.05 -0.02    +0.084    14.113
ATOM      9  C   UNL d   1      -0.995 -13.316 -12.681 -0.12 -0.02    +0.058    14.113
ATOM     10  C   UNL d   1      -3.655 -11.028  -9.981 -0.29 -0.01    +0.058    14.113
ATOM     11  C   UNL d   1      -2.935 -13.116  -9.423 -0.14 -0.05    +0.193    14.113
ATOM     12  C   UNL d   1      -2.493 -12.679 -10.785 -0.12 -0.04    +0.109    14.113
ATOM     13  C   UNL d   1       0.468 -13.398 -14.435 -0.04 -0.03    +0.193    14.113
ATOM     14  C   UNL d   1      -3.046 -11.504  -7.562 -0.40 +0.00    +0.026    14.113
ATOM     15  C   UNL d   1      -1.742 -13.643 -11.616 -0.07 -0.02    +0.055    14.113
ATOM     16  C   UNL d   1      -1.137 -15.267 -14.297 -0.02 -0.00    +0.026    14.113
ATOM     17  C   UNL d   1       0.016 -12.016 -14.094 -0.12 -0.03    +0.109    14.113
ATOM     18  C   UNL d   1      -4.332  -9.864  -9.975 -0.37 +0.00    +0.050    14.113
ATOM     19  C   UNL d   1      -4.366  -8.927 -11.039 -0.27 +0.00    +0.045    14.113
ATOM     20  C   UNL d   1      -0.015  -9.657 -14.709 -0.13 -0.01    +0.045    14.113
ATOM     21  C   UNL d   1       0.552 -10.861 -14.830 -0.14 -0.01    +0.057    14.113
ATOM     22  C   UNL d   1      -0.382  -7.419 -14.985 -0.21 +0.00    -0.019    14.113
ATOM     23  C   UNL d   1      -1.427  -7.966 -14.097 -0.19 -0.01    +0.045    14.113
ATOM     24  C   UNL d   1       0.449  -8.425 -15.346 -0.15 +0.00    -0.022    14.113
ATOM     25  C   UNL d   1      -3.481  -7.728 -12.741 -0.30 -0.01    +0.049    14.113
ATOM     26  C   UNL d   1      -5.343  -8.038 -11.459 -0.20 -0.00    -0.018    14.113
ATOM     27  C   UNL d   1      -4.785  -7.297 -12.547 -0.25 +0.00    +0.003    14.113
ATOM     28  C   UNL d   1      -2.429  -7.247 -13.569 -0.35 -0.01    +0.052    14.113
ATOM     29  C   UNL d   1       1.643  -8.374 -16.237 -0.09 -0.00    +0.046    14.113
ATOM     30  C   UNL d   1      -6.712  -7.884 -10.888 -0.19 +0.02    +0.046    14.113
ATOM     31  H   UNL d   1      -1.690  -9.993 -13.512 -0.36 -0.07    +0.166    14.113
ATOM     32  H   UNL d   1      -2.397  -9.262 -11.729 -0.18 -0.10    +0.166    14.113
ATOM     33  C   UNL d   1      -5.170 -12.516  -8.500 -0.20 -0.03    +0.141    14.113
ATOM     34  C   UNL d   1      -5.172 -13.854  -7.812 -0.10 -0.11    +0.306    14.113
ATOM     35  O   UNL d   1      -5.800 -14.841  -8.158 -0.06 +0.08    -0.251    14.113
ATOM     36  O   UNL d   1      -4.379 -13.881  -6.726 -0.11 +0.15    -0.481    14.113
ATOM     37  H   UNL d   1      -3.597 -14.404  -7.004 +0.12 -0.08    +0.295    14.113
ATOM     38  C   UNL d   1      -5.456  -6.257 -13.267 -0.15 +0.00    +0.017    14.113
ATOM     39  C   UNL d   1      -5.609  -6.212 -14.599 -0.13 +0.01    +0.092    14.113
ATOM     40  C   UNL d   1      -6.334  -5.097 -15.214 -0.06 +0.04    +0.330    14.113
ATOM     41  O   UNL d   1      -5.876  -4.048 -15.624 -0.63 -0.05    -0.246    14.113
ATOM     42  O   UNL d   1      -7.643  -5.382 -15.287 -0.02 -0.03    -0.477    14.113
ATOM     43  H   UNL d   1      -7.892  -5.113 -16.195 +0.02 +0.01    +0.295    14.113
ATOM     44  C   UNL d   1       0.821 -15.165 -12.700 -0.06 -0.03    +0.141    14.113
ATOM     45  C   UNL d   1       2.173 -14.506 -12.633 -0.07 -0.05    +0.306    14.113
ATOM     46  O   UNL d   1       2.527 -13.651 -11.840 -0.66 +0.02    -0.251    14.113
ATOM     47  O   UNL d   1       3.007 -14.944 -13.594 +0.00 +0.06    -0.481    14.113
ATOM     48  H   UNL d   1       2.665 -14.541 -14.421 +0.02 -0.03    +0.295    14.113
ATOM     49  C   UNL d   1      -0.287  -5.975 -15.384 -0.24 -0.00    +0.048    14.113
ATOM     50  C   UNL d   1       0.941  -5.298 -14.775 -0.30 -0.02    +0.125    14.113
ATOM     51  C   UNL d   1       0.783  -3.803 -14.775 -0.19 -0.03    +0.305    14.113
ATOM     52  O   UNL d   1      -0.147  -3.154 -15.218 -0.15 +0.01    -0.251    14.113
ATOM     53  O   UNL d   1       1.841  -3.185 -14.212 -0.09 +0.06    -0.481    14.113
ATOM     54  H   UNL d   1       2.136  -3.807 -13.514 -0.41 -0.13    +0.295    14.113
TER
ENDMDL
MODEL       11
USER    Run = 11
USER    Cluster Rank = 19
USER    Number of conformations in this cluster = 4
USER  
USER    RMSD from reference structure       = 20.131 A
USER  
USER    Estimated Free Energy of Binding    =   -5.21 kcal/mol  [=(1)+(2)+(3)-(4)]
USER    Estimated Inhibition Constant, Ki   =  152.90 uM (micromolar)  [Temperature = 298.15 K]
USER    
USER    (1) Final Intermolecular Energy     =   -9.08 kcal/mol
USER        vdW + Hbond + desolv Energy     =   -8.23 kcal/mol
USER        Electrostatic Energy            =   -0.86 kcal/mol
USER    (2) Final Total Internal Energy     =   -1.90 kcal/mol
USER    (3) Torsional Free Energy           =   +3.88 kcal/mol
USER    (4) Unbound System's Energy  [=(2)] =   -1.90 kcal/mol
USER    
USER    
USER  
USER    DPF = D:/Protein_go_brrr/autodock/final/AncMH_nat/heme/dock.dpf
USER    NEWDPF move	heme_opt.pdbqt
USER    NEWDPF about	0.153000 0.018000 -0.028000
USER    NEWDPF tran0	-10.133152 13.605301 15.886474
USER    NEWDPF axisangle0	-0.878883 0.442232 -0.178875 -169.560161
USER    NEWDPF quaternion0	-0.875238 0.440398 -0.178134 -0.090979
USER    NEWDPF dihe0	170.18 30.63 -178.83 -157.13 -148.97 46.24 126.68 -69.85 12.98 133.77 151.93 -49.88 -167.99 
USER  
USER                              x       y       z    vdW   Elec        q     RMS 
ATOM      1  O   UNL d   1     -14.205  17.108  13.456 -0.08 +0.21    -0.289    20.131
ATOM      2  O   UNL d   1      -8.631  18.622  18.256 -0.01 +0.07    -0.289    20.131
ATOM      3  N   UNL d   1     -12.123  14.671  14.730 -0.13 +0.15    -0.247    20.131
ATOM      4  N   UNL d   1     -10.099  16.228  16.250 -0.13 +0.18    -0.247    20.131
ATOM      5  N   UNL d   1      -8.495  13.845  16.374 -0.04 +0.15    -0.354    20.131
ATOM      6  N   UNL d   1     -10.590  12.243  14.779 -0.12 +0.10    -0.354    20.131
ATOM      7  C   UNL d   1     -13.902  14.718  13.045 -0.17 -0.04    +0.084    20.131
ATOM      8  C   UNL d   1     -10.780  18.415  17.102 -0.08 -0.05    +0.084    20.131
ATOM      9  C   UNL d   1     -11.101  17.172  16.265 -0.11 -0.05    +0.058    20.131
ATOM     10  C   UNL d   1     -12.842  13.923  13.813 -0.23 -0.02    +0.058    20.131
ATOM     11  C   UNL d   1     -13.666  16.045  13.702 -0.12 -0.14    +0.193    20.131
ATOM     12  C   UNL d   1     -12.582  15.880  14.722 -0.17 -0.09    +0.109    20.131
ATOM     13  C   UNL d   1      -9.395  18.018  17.529 -0.06 -0.08    +0.193    20.131
ATOM     14  C   UNL d   1     -13.564  14.836  11.556 -0.33 -0.02    +0.026    20.131
ATOM     15  C   UNL d   1     -12.240  17.042  15.566 -0.08 -0.06    +0.055    20.131
ATOM     16  C   UNL d   1     -11.670  18.509  18.344 -0.03 -0.01    +0.026    20.131
ATOM     17  C   UNL d   1      -9.100  16.676  16.940 -0.14 -0.05    +0.109    20.131
ATOM     18  C   UNL d   1     -12.709  12.593  13.655 -0.34 -0.01    +0.050    20.131
ATOM     19  C   UNL d   1     -11.818  11.763  14.381 -0.27 -0.01    +0.045    20.131
ATOM     20  C   UNL d   1      -7.593  14.762  16.850 -0.13 -0.01    +0.045    20.131
ATOM     21  C   UNL d   1      -7.788  16.048  17.155 -0.13 -0.02    +0.057    20.131
ATOM     22  C   UNL d   1      -6.531  12.759  16.568 -0.15 +0.00    -0.019    20.131
ATOM     23  C   UNL d   1      -7.946  12.607  16.172 -0.21 -0.01    +0.045    20.131
ATOM     24  C   UNL d   1      -6.329  14.036  16.969 -0.09 +0.00    -0.022    20.131
ATOM     25  C   UNL d   1      -9.856  11.250  15.385 -0.16 -0.01    +0.049    20.131
ATOM     26  C   UNL d   1     -11.898  10.435  14.771 -0.25 +0.00    -0.018    20.131
ATOM     27  C   UNL d   1     -10.665  10.122  15.422 -0.19 -0.00    +0.003    20.131
ATOM     28  C   UNL d   1      -8.497  11.462  15.741 -0.30 -0.01    +0.052    20.131
ATOM     29  C   UNL d   1      -5.075  14.669  17.469 -0.04 -0.00    +0.046    20.131
ATOM     30  C   UNL d   1     -13.049   9.512  14.555 -0.36 +0.00    +0.046    20.131
ATOM     31  H   UNL d   1      -9.477  14.078  16.273 -0.26 -0.09    +0.166    20.131
ATOM     32  H   UNL d   1     -10.275  13.189  14.603 -0.49 -0.11    +0.166    20.131
ATOM     33  C   UNL d   1     -15.349  14.262  13.258 -0.07 -0.03    +0.141    20.131
ATOM     34  C   UNL d   1     -15.783  14.367  14.695 +0.00 -0.04    +0.306    20.131
ATOM     35  O   UNL d   1     -15.753  13.473  15.524 -0.01 +0.01    -0.251    20.131
ATOM     36  O   UNL d   1     -16.231  15.594  15.013 +0.01 +0.07    -0.481    20.131
ATOM     37  H   UNL d   1     -15.964  16.158  14.256 +0.03 -0.07    +0.295    20.131
ATOM     38  C   UNL d   1     -10.321   8.843  15.967 -0.31 -0.00    +0.017    20.131
ATOM     39  C   UNL d   1      -9.090   8.470  16.350 -0.32 -0.03    +0.092    20.131
ATOM     40  C   UNL d   1      -8.874   7.134  16.911 -0.18 -0.17    +0.330    20.131
ATOM     41  O   UNL d   1      -9.316   6.077  16.505 -0.29 +0.10    -0.246    20.131
ATOM     42  O   UNL d   1      -8.074   7.209  17.986 -0.08 +0.46    -0.477    20.131
ATOM     43  H   UNL d   1      -7.598   6.354  17.984 -0.22 -0.58    +0.295    20.131
ATOM     44  C   UNL d   1     -10.758  19.741  16.334 +0.03 -0.13    +0.141    20.131
ATOM     45  C   UNL d   1     -12.122  20.358  16.176 -0.03 -0.21    +0.306    20.131
ATOM     46  O   UNL d   1     -12.711  21.040  16.997 -0.01 +0.08    -0.251    20.131
ATOM     47  O   UNL d   1     -12.688  20.059  14.993 -0.03 +0.52    -0.481    20.131
ATOM     48  H   UNL d   1     -12.030  19.491  14.539 -0.51 -0.78    +0.295    20.131
ATOM     49  C   UNL d   1      -5.516  11.656  16.503 -0.17 -0.01    +0.048    20.131
ATOM     50  C   UNL d   1      -4.503  11.880  15.380 -0.19 -0.02    +0.125    20.131
ATOM     51  C   UNL d   1      -5.105  12.696  14.271 -0.22 -0.05    +0.305    20.131
ATOM     52  O   UNL d   1      -5.894  12.326  13.420 -0.32 +0.03    -0.251    20.131
ATOM     53  O   UNL d   1      -4.660  13.969  14.283 -0.05 +0.04    -0.481    20.131
ATOM     54  H   UNL d   1      -3.811  13.920  14.770 +0.11 -0.03    +0.295    20.131
TER
ENDMDL
MODEL       15
USER    Run = 15
USER    Cluster Rank = 20
USER    Number of conformations in this cluster = 1
USER  
USER    RMSD from reference structure       = 19.262 A
USER  
USER    Estimated Free Energy of Binding    =   -5.17 kcal/mol  [=(1)+(2)+(3)-(4)]
USER    Estimated Inhibition Constant, Ki   =  161.37 uM (micromolar)  [Temperature = 298.15 K]
USER    
USER    (1) Final Intermolecular Energy     =   -9.05 kcal/mol
USER        vdW + Hbond + desolv Energy     =   -7.95 kcal/mol
USER        Electrostatic Energy            =   -1.10 kcal/mol
USER    (2) Final Total Internal Energy     =   -1.51 kcal/mol
USER    (3) Torsional Free Energy           =   +3.88 kcal/mol
USER    (4) Unbound System's Energy  [=(2)] =   -1.51 kcal/mol
USER    
USER    
USER  
USER    DPF = D:/Protein_go_brrr/autodock/final/AncMH_nat/heme/dock.dpf
USER    NEWDPF move	heme_opt.pdbqt
USER    NEWDPF about	0.153000 0.018000 -0.028000
USER    NEWDPF tran0	-11.739961 10.563158 16.715273
USER    NEWDPF axisangle0	0.809884 0.568828 -0.143256 -161.109663
USER    NEWDPF quaternion0	0.798905 0.561117 -0.141314 -0.164104
USER    NEWDPF dihe0	179.46 130.39 -109.38 -110.08 -86.83 169.87 177.25 -73.88 141.75 12.32 162.98 -155.00 -180.00 
USER  
USER                              x       y       z    vdW   Elec        q     RMS 
ATOM      1  O   UNL d   1     -12.028   4.986  18.603 -0.03 +0.03    -0.289    19.262
ATOM      2  O   UNL d   1     -17.121  10.502  18.733 -0.01 -0.08    -0.289    19.262
ATOM      3  N   UNL d   1     -11.352   8.179  17.488 -0.03 +0.03    -0.247    19.262
ATOM      4  N   UNL d   1     -13.994   9.531  17.646 -0.02 -0.03    -0.247    19.262
ATOM      5  N   UNL d   1     -12.898  11.655  16.048 -0.01 +0.03    -0.354    19.262
ATOM      6  N   UNL d   1     -10.167  10.236  15.872 -0.09 +0.06    -0.354    19.262
ATOM      7  C   UNL d   1     -10.137   6.050  17.479 -0.22 -0.03    +0.084    19.262
ATOM      8  C   UNL d   1     -15.597   8.665  19.275 -0.02 +0.02    +0.084    19.262
ATOM      9  C   UNL d   1     -14.245   8.536  18.565 -0.03 +0.01    +0.058    19.262
ATOM     10  C   UNL d   1     -10.183   7.537  17.115 -0.19 -0.02    +0.058    19.262
ATOM     11  C   UNL d   1     -11.480   5.969  18.140 -0.06 -0.03    +0.193    19.262
ATOM     12  C   UNL d   1     -12.106   7.328  18.105 -0.05 -0.01    +0.109    19.262
ATOM     13  C   UNL d   1     -16.082   9.895  18.561 -0.02 +0.05    +0.193    19.262
ATOM     14  C   UNL d   1     -10.141   5.155  16.238 -0.40 -0.01    +0.026    19.262
ATOM     15  C   UNL d   1     -13.404   7.514  18.785 -0.04 +0.00    +0.055    19.262
ATOM     16  C   UNL d   1     -15.429   8.992  20.761 -0.00 +0.00    +0.026    19.262
ATOM     17  C   UNL d   1     -15.022  10.315  17.596 -0.03 +0.02    +0.109    19.262
ATOM     18  C   UNL d   1      -9.125   8.159  16.563 -0.34 -0.02    +0.050    19.262
ATOM     19  C   UNL d   1      -9.045   9.545  16.270 -0.25 -0.01    +0.045    19.262
ATOM     20  C   UNL d   1     -14.223  12.009  16.034 -0.05 -0.00    +0.045    19.262
ATOM     21  C   UNL d   1     -15.239  11.476  16.719 -0.04 +0.01    +0.057    19.262
ATOM     22  C   UNL d   1     -13.079  13.376  14.606 -0.17 +0.01    -0.019    19.262
ATOM     23  C   UNL d   1     -12.129  12.424  15.216 -0.19 -0.01    +0.045    19.262
ATOM     24  C   UNL d   1     -14.316  13.126  15.096 -0.06 +0.00    -0.022    19.262
ATOM     25  C   UNL d   1      -9.847  11.536  15.554 -0.21 -0.01    +0.049    19.262
ATOM     26  C   UNL d   1      -7.976  10.426  16.245 -0.25 +0.00    -0.018    19.262
ATOM     27  C   UNL d   1      -8.491  11.687  15.811 -0.28 -0.00    +0.003    19.262
ATOM     28  C   UNL d   1     -10.810  12.402  14.969 -0.21 -0.02    +0.052    19.262
ATOM     29  C   UNL d   1     -15.598  13.826  14.794 -0.04 -0.00    +0.046    19.262
ATOM     30  C   UNL d   1      -6.561  10.120  16.604 -0.22 -0.02    +0.046    19.262
ATOM     31  H   UNL d   1     -12.550  10.944  16.682 +0.04 -0.01    +0.166    19.262
ATOM     32  H   UNL d   1     -11.086   9.815  15.792 +0.07 -0.02    +0.166    19.262
ATOM     33  C   UNL d   1      -9.029   5.648  18.459 -0.14 -0.09    +0.141    19.262
ATOM     34  C   UNL d   1      -8.894   4.156  18.600 -0.12 -0.15    +0.306    19.262
ATOM     35  O   UNL d   1      -9.797   3.341  18.523 -0.22 +0.05    -0.251    19.262
ATOM     36  O   UNL d   1      -7.626   3.770  18.827 -0.05 +0.44    -0.481    19.262
ATOM     37  H   UNL d   1      -7.105   4.600  18.789 -0.48 -0.63    +0.295    19.262
ATOM     38  C   UNL d   1      -7.717  12.877  15.631 -0.24 -0.00    +0.017    19.262
ATOM     39  C   UNL d   1      -6.703  13.018  14.764 -0.18 -0.02    +0.092    19.262
ATOM     40  C   UNL d   1      -6.000  14.299  14.664 -0.20 -0.06    +0.330    19.262
ATOM     41  O   UNL d   1      -4.952  14.530  14.091 -0.22 +0.01    -0.246    19.262
ATOM     42  O   UNL d   1      -6.687  15.255  15.308 -0.13 +0.13    -0.477    19.262
ATOM     43  H   UNL d   1      -7.599  15.161  14.963 -0.23 -0.18    +0.295    19.262
ATOM     44  C   UNL d   1     -16.564   7.495  19.070 -0.05 +0.06    +0.141    19.262
ATOM     45  C   UNL d   1     -16.514   6.918  17.680 -0.06 +0.26    +0.306    19.262
ATOM     46  O   UNL d   1     -16.451   5.737  17.385 -0.10 -0.18    -0.251    19.262
ATOM     47  O   UNL d   1     -16.519   7.869  16.728 -0.29 -0.72    -0.481    19.262
ATOM     48  H   UNL d   1     -15.643   8.302  16.806 +0.04 +0.21    +0.295    19.262
ATOM     49  C   UNL d   1     -12.695  14.422  13.601 -0.30 -0.03    +0.048    19.262
ATOM     50  C   UNL d   1     -12.948  13.954  12.168 -0.31 -0.07    +0.125    19.262
ATOM     51  C   UNL d   1     -13.137  12.464  12.116 -0.32 -0.10    +0.305    19.262
ATOM     52  O   UNL d   1     -12.272  11.605  12.126 -0.45 +0.05    -0.251    19.262
ATOM     53  O   UNL d   1     -14.438  12.123  12.040 -0.15 +0.15    -0.481    19.262
ATOM     54  H   UNL d   1     -14.707  12.410  11.142 -0.35 -0.20    +0.295    19.262
TER
ENDMDL
MODEL       86
USER    Run = 86
USER    Cluster Rank = 21
USER    Number of conformations in this cluster = 2
USER  
USER    RMSD from reference structure       = 19.844 A
USER  
USER    Estimated Free Energy of Binding    =   -5.11 kcal/mol  [=(1)+(2)+(3)-(4)]
USER    Estimated Inhibition Constant, Ki   =  178.93 uM (micromolar)  [Temperature = 298.15 K]
USER    
USER    (1) Final Intermolecular Energy     =   -8.99 kcal/mol
USER        vdW + Hbond + desolv Energy     =   -8.54 kcal/mol
USER        Electrostatic Energy            =   -0.46 kcal/mol
USER    (2) Final Total Internal Energy     =   -3.30 kcal/mol
USER    (3) Torsional Free Energy           =   +3.88 kcal/mol
USER    (4) Unbound System's Energy  [=(2)] =   -3.30 kcal/mol
USER    
USER    
USER  
USER    DPF = D:/Protein_go_brrr/autodock/final/AncMH_nat/heme/dock.dpf
USER    NEWDPF move	heme_opt.pdbqt
USER    NEWDPF about	0.153000 0.018000 -0.028000
USER    NEWDPF tran0	-8.949361 14.863408 15.514764
USER    NEWDPF axisangle0	-0.016466 -0.045361 0.998835 -115.057229
USER    NEWDPF quaternion0	-0.013892 -0.038269 0.842677 -0.536878
USER    NEWDPF dihe0	-69.10 -177.26 107.08 39.68 35.61 46.75 -61.64 -126.40 119.02 -147.90 -94.98 -48.90 -37.64 
USER  
USER                              x       y       z    vdW   Elec        q     RMS 
ATOM      1  O   UNL d   1      -8.143   9.038  15.927 -0.17 +0.09    -0.289    19.844
ATOM      2  O   UNL d   1      -3.344  14.573  14.279 -0.09 +0.00    -0.289    19.844
ATOM      3  N   UNL d   1      -9.115  12.337  15.666 -0.16 +0.07    -0.247    19.844
ATOM      4  N   UNL d   1      -6.543  13.779  15.301 -0.16 +0.06    -0.247    19.844
ATOM      5  N   UNL d   1      -7.946  16.230  15.842 -0.13 +0.17    -0.354    19.844
ATOM      6  N   UNL d   1     -10.606  14.723  16.239 -0.01 +0.21    -0.354    19.844
ATOM      7  C   UNL d   1     -10.220  10.258  16.347 -0.16 -0.01    +0.084    19.844
ATOM      8  C   UNL d   1      -4.691  12.530  14.310 -0.27 -0.01    +0.084    19.844
ATOM      9  C   UNL d   1      -6.121  12.545  14.861 -0.28 -0.01    +0.058    19.844
ATOM     10  C   UNL d   1     -10.293  11.771  16.123 -0.19 -0.01    +0.058    19.844
ATOM     11  C   UNL d   1      -8.796  10.066  15.919 -0.18 -0.04    +0.193    19.844
ATOM     12  C   UNL d   1      -8.244  11.395  15.505 -0.23 -0.02    +0.109    19.844
ATOM     13  C   UNL d   1      -4.367  13.977  14.552 -0.13 -0.02    +0.193    19.844
ATOM     14  C   UNL d   1     -10.345   9.890  17.828 -0.08 -0.00    +0.026    19.844
ATOM     15  C   UNL d   1      -6.874  11.438  14.954 -0.21 -0.01    +0.055    19.844
ATOM     16  C   UNL d   1      -4.667  12.266  12.801 -0.46 -0.00    +0.026    19.844
ATOM     17  C   UNL d   1      -5.569  14.621  15.163 -0.19 -0.01    +0.109    19.844
ATOM     18  C   UNL d   1     -11.446  12.449  16.278 -0.15 -0.01    +0.050    19.844
ATOM     19  C   UNL d   1     -11.629  13.830  16.012 -0.13 -0.02    +0.045    19.844
ATOM     20  C   UNL d   1      -6.655  16.688  15.866 -0.20 -0.01    +0.045    19.844
ATOM     21  C   UNL d   1      -5.529  16.038  15.552 -0.20 -0.00    +0.057    19.844
ATOM     22  C   UNL d   1      -8.048  18.371  16.533 -0.16 +0.01    -0.019    19.844
ATOM     23  C   UNL d   1      -8.859  17.175  16.230 -0.19 -0.03    +0.045    19.844
ATOM     24  C   UNL d   1      -6.744  18.077  16.315 -0.15 +0.00    -0.022    19.844
ATOM     25  C   UNL d   1     -11.028  16.011  16.003 -0.12 -0.04    +0.049    19.844
ATOM     26  C   UNL d   1     -12.732  14.552  15.583 -0.12 +0.01    -0.018    19.844
ATOM     27  C   UNL d   1     -12.341  15.927  15.560 -0.17 -0.00    +0.003    19.844
ATOM     28  C   UNL d   1     -10.196  17.120  16.319 -0.17 -0.04    +0.052    19.844
ATOM     29  C   UNL d   1      -5.551  18.957  16.469 -0.09 -0.00    +0.046    19.844
ATOM     30  C   UNL d   1     -14.068  14.002  15.213 -0.07 -0.01    +0.046    19.844
ATOM     31  H   UNL d   1      -8.170  15.305  15.490 -0.41 -0.12    +0.166    19.844
ATOM     32  H   UNL d   1      -9.690  14.452  16.574 -0.12 -0.08    +0.166    19.844
ATOM     33  C   UNL d   1     -11.161   9.418  15.477 -0.23 -0.02    +0.141    19.844
ATOM     34  C   UNL d   1     -10.824   7.952  15.507 -0.27 -0.05    +0.306    19.844
ATOM     35  O   UNL d   1     -11.261   7.128  16.293 -0.20 +0.04    -0.251    19.844
ATOM     36  O   UNL d   1      -9.954   7.600  14.544 -0.25 +0.14    -0.481    19.844
ATOM     37  H   UNL d   1      -9.116   7.422  15.021 +0.13 -0.10    +0.295    19.844
ATOM     38  C   UNL d   1     -13.187  17.020  15.188 -0.13 -0.01    +0.017    19.844
ATOM     39  C   UNL d   1     -12.907  18.318  15.384 +0.06 -0.10    +0.092    19.844
ATOM     40  C   UNL d   1     -13.854  19.344  14.939 -0.04 -0.23    +0.330    19.844
ATOM     41  O   UNL d   1     -15.062  19.353  15.082 -0.01 +0.09    -0.246    19.844
ATOM     42  O   UNL d   1     -13.200  20.341  14.325 -0.05 +0.43    -0.477    19.844
ATOM     43  H   UNL d   1     -12.266  20.046  14.327 -0.51 -0.53    +0.295    19.844
ATOM     44  C   UNL d   1      -3.708  11.616  15.048 -0.19 -0.03    +0.141    19.844
ATOM     45  C   UNL d   1      -2.469  11.309  14.251 -0.17 -0.10    +0.306    19.844
ATOM     46  O   UNL d   1      -2.203  10.256  13.697 -0.31 +0.11    -0.251    19.844
ATOM     47  O   UNL d   1      -1.609  12.343  14.216 -0.06 +0.17    -0.481    19.844
ATOM     48  H   UNL d   1      -2.024  12.990  13.606 +0.10 -0.14    +0.295    19.844
ATOM     49  C   UNL d   1      -8.615  19.673  17.018 -0.09 -0.02    +0.048    19.844
ATOM     50  C   UNL d   1      -8.278  20.827  16.074 -0.09 -0.04    +0.125    19.844
ATOM     51  C   UNL d   1      -9.284  20.923  14.963 -0.04 -0.24    +0.305    19.844
ATOM     52  O   UNL d   1      -9.065  21.045  13.770 -0.14 +0.20    -0.251    19.844
ATOM     53  O   UNL d   1     -10.550  20.873  15.423 -0.04 +0.46    -0.481    19.844
ATOM     54  H   UNL d   1     -11.023  20.327  14.760 -0.46 -0.59    +0.295    19.844
TER
ENDMDL
MODEL       51
USER    Run = 51
USER    Cluster Rank = 22
USER    Number of conformations in this cluster = 1
USER  
USER    RMSD from reference structure       = 18.759 A
USER  
USER    Estimated Free Energy of Binding    =   -5.03 kcal/mol  [=(1)+(2)+(3)-(4)]
USER    Estimated Inhibition Constant, Ki   =  205.88 uM (micromolar)  [Temperature = 298.15 K]
USER    
USER    (1) Final Intermolecular Energy     =   -8.91 kcal/mol
USER        vdW + Hbond + desolv Energy     =   -7.96 kcal/mol
USER        Electrostatic Energy            =   -0.95 kcal/mol
USER    (2) Final Total Internal Energy     =   -3.32 kcal/mol
USER    (3) Torsional Free Energy           =   +3.88 kcal/mol
USER    (4) Unbound System's Energy  [=(2)] =   -3.32 kcal/mol
USER    
USER    
USER  
USER    DPF = D:/Protein_go_brrr/autodock/final/AncMH_nat/heme/dock.dpf
USER    NEWDPF move	heme_opt.pdbqt
USER    NEWDPF about	0.153000 0.018000 -0.028000
USER    NEWDPF tran0	-18.937251 10.684977 7.103107
USER    NEWDPF axisangle0	0.109122 -0.907280 -0.406122 -108.145238
USER    NEWDPF quaternion0	0.088363 -0.734680 -0.328862 -0.586759
USER    NEWDPF dihe0	79.43 -170.49 -121.84 -175.48 -139.43 87.08 115.32 55.26 38.79 -180.00 -80.86 -131.36 13.66 
USER  
USER                              x       y       z    vdW   Elec        q     RMS 
ATOM      1  O   UNL d   1     -17.441  15.122   3.521 -0.12 +0.19    -0.289    18.759
ATOM      2  O   UNL d   1     -17.939   7.734   2.273 -0.15 -0.12    -0.289    18.759
ATOM      3  N   UNL d   1     -18.239  12.859   5.998 -0.08 +0.01    -0.247    18.759
ATOM      4  N   UNL d   1     -18.490  10.292   4.523 -0.13 -0.03    -0.247    18.759
ATOM      5  N   UNL d   1     -19.744   9.179   6.859 -0.13 -0.09    -0.354    18.759
ATOM      6  N   UNL d   1     -19.496  11.851   8.375 -0.08 -0.05    -0.354    18.759
ATOM      7  C   UNL d   1     -18.142  15.304   5.856 -0.08 -0.01    +0.084    18.759
ATOM      8  C   UNL d   1     -17.231  10.071   2.441 -0.26 -0.01    +0.084    18.759
ATOM      9  C   UNL d   1     -17.688  10.944   3.614 -0.26 -0.01    +0.058    18.759
ATOM     10  C   UNL d   1     -18.427  14.047   6.684 -0.09 -0.01    +0.058    18.759
ATOM     11  C   UNL d   1     -17.742  14.615   4.586 -0.12 -0.07    +0.193    18.759
ATOM     12  C   UNL d   1     -17.817  13.135   4.808 -0.19 -0.02    +0.109    18.759
ATOM     13  C   UNL d   1     -17.952   8.813   2.833 -0.15 +0.04    +0.193    18.759
ATOM     14  C   UNL d   1     -19.411  16.121   5.597 -0.02 -0.00    +0.026    18.759
ATOM     15  C   UNL d   1     -17.375  12.245   3.715 -0.26 -0.02    +0.055    18.759
ATOM     16  C   UNL d   1     -15.722   9.808   2.483 -0.01 -0.00    +0.026    18.759
ATOM     17  C   UNL d   1     -18.684   9.081   4.108 -0.18 +0.02    +0.109    18.759
ATOM     18  C   UNL d   1     -18.743  14.122   7.991 -0.12 -0.00    +0.050    18.759
ATOM     19  C   UNL d   1     -18.940  13.015   8.854 -0.00 +0.00    +0.045    18.759
ATOM     20  C   UNL d   1     -19.979   8.169   5.962 -0.22 +0.02    +0.045    18.759
ATOM     21  C   UNL d   1     -19.520   8.034   4.713 -0.23 +0.02    +0.057    18.759
ATOM     22  C   UNL d   1     -21.097   7.710   7.900 -0.19 -0.01    -0.019    18.759
ATOM     23  C   UNL d   1     -20.378   8.990   8.057 -0.21 +0.01    +0.045    18.759
ATOM     24  C   UNL d   1     -20.856   7.228   6.657 -0.20 -0.01    -0.022    18.759
ATOM     25  C   UNL d   1     -19.679  10.947   9.396 -0.09 +0.01    +0.049    18.759
ATOM     26  C   UNL d   1     -18.721  12.850  10.213 -0.11 +0.00    -0.018    18.759
ATOM     27  C   UNL d   1     -19.172  11.536  10.546 -0.17 +0.00    +0.003    18.759
ATOM     28  C   UNL d   1     -20.382   9.731   9.176 -0.20 +0.01    +0.052    18.759
ATOM     29  C   UNL d   1     -21.347   5.966   6.034 -0.13 +0.03    +0.046    18.759
ATOM     30  C   UNL d   1     -18.128  13.850  11.147 -0.11 -0.01    +0.046    18.759
ATOM     31  H   UNL d   1     -19.096   9.930   6.647 +0.06 +0.04    +0.166    18.759
ATOM     32  H   UNL d   1     -19.765  11.715   7.408 +0.03 +0.02    +0.166    18.759
ATOM     33  C   UNL d   1     -17.001  16.186   6.372 -0.09 -0.03    +0.141    18.759
ATOM     34  C   UNL d   1     -15.655  15.751   5.858 -0.13 -0.10    +0.306    18.759
ATOM     35  O   UNL d   1     -14.941  14.892   6.346 -0.49 +0.03    -0.251    18.759
ATOM     36  O   UNL d   1     -15.281  16.420   4.753 -0.06 +0.31    -0.481    18.759
ATOM     37  H   UNL d   1     -15.437  15.790   4.018 +0.02 -0.39    +0.295    18.759
ATOM     38  C   UNL d   1     -19.142  10.960  11.857 -0.22 +0.00    +0.017    18.759
ATOM     39  C   UNL d   1     -20.091  11.117  12.793 -0.09 +0.03    +0.092    18.759
ATOM     40  C   UNL d   1     -19.949  10.458  14.094 -0.04 +0.26    +0.330    18.759
ATOM     41  O   UNL d   1     -19.343  10.860  15.069 -0.09 -0.18    -0.246    18.759
ATOM     42  O   UNL d   1     -20.611   9.290  14.095 -0.59 -0.65    -0.477    18.759
ATOM     43  H   UNL d   1     -20.865   9.164  13.157 +0.04 +0.25    +0.295    18.759
ATOM     44  C   UNL d   1     -17.671  10.546   1.052 -0.14 -0.02    +0.141    18.759
ATOM     45  C   UNL d   1     -16.542  10.605   0.058 -0.17 -0.08    +0.306    18.759
ATOM     46  O   UNL d   1     -15.967   9.656  -0.446 -0.20 +0.01    -0.251    18.759
ATOM     47  O   UNL d   1     -16.176  11.867  -0.230 -0.10 +0.35    -0.481    18.759
ATOM     48  H   UNL d   1     -15.939  12.261   0.637 -0.42 -0.55    +0.295    18.759
ATOM     49  C   UNL d   1     -21.957   7.090   8.962 -0.12 +0.01    +0.048    18.759
ATOM     50  C   UNL d   1     -21.127   6.577  10.138 -0.18 +0.03    +0.125    18.759
ATOM     51  C   UNL d   1     -21.158   7.550  11.282 -0.10 +0.11    +0.305    18.759
ATOM     52  O   UNL d   1     -22.136   8.081  11.779 -0.03 -0.09    -0.251    18.759
ATOM     53  O   UNL d   1     -19.923   7.823  11.746 -0.09 -0.25    -0.481    18.759
ATOM     54  H   UNL d   1     -19.327   7.338  11.137 -0.45 +0.02    +0.295    18.759
TER
ENDMDL
MODEL       85
USER    Run = 85
USER    Cluster Rank = 23
USER    Number of conformations in this cluster = 1
USER  
USER    RMSD from reference structure       = 13.828 A
USER  
USER    Estimated Free Energy of Binding    =   -5.01 kcal/mol  [=(1)+(2)+(3)-(4)]
USER    Estimated Inhibition Constant, Ki   =  213.08 uM (micromolar)  [Temperature = 298.15 K]
USER    
USER    (1) Final Intermolecular Energy     =   -8.89 kcal/mol
USER        vdW + Hbond + desolv Energy     =   -8.17 kcal/mol
USER        Electrostatic Energy            =   -0.71 kcal/mol
USER    (2) Final Total Internal Energy     =   -1.71 kcal/mol
USER    (3) Torsional Free Energy           =   +3.88 kcal/mol
USER    (4) Unbound System's Energy  [=(2)] =   -1.71 kcal/mol
USER    
USER    
USER  
USER    DPF = D:/Protein_go_brrr/autodock/final/AncMH_nat/heme/dock.dpf
USER    NEWDPF move	heme_opt.pdbqt
USER    NEWDPF about	0.153000 0.018000 -0.028000
USER    NEWDPF tran0	-12.204733 10.665779 -5.711900
USER    NEWDPF axisangle0	0.907997 -0.334181 -0.252716 -141.518382
USER    NEWDPF quaternion0	0.857278 -0.315514 -0.238599 -0.329539
USER    NEWDPF dihe0	28.70 -109.01 -142.06 47.04 30.55 -165.96 128.39 -19.79 57.80 -14.10 4.81 35.97 143.73 
USER  
USER                              x       y       z    vdW   Elec        q     RMS 
ATOM      1  O   UNL d   1     -17.108  13.329  -3.808 -0.02 +0.01    -0.289    13.828
ATOM      2  O   UNL d   1     -11.196  16.004  -7.589 -0.10 -0.03    -0.289    13.828
ATOM      3  N   UNL d   1     -14.365  11.394  -4.599 -0.07 +0.00    -0.247    13.828
ATOM      4  N   UNL d   1     -12.734  13.189  -6.316 -0.12 +0.03    -0.247    13.828
ATOM      5  N   UNL d   1     -11.183  10.893  -7.085 -0.13 +0.08    -0.354    13.828
ATOM      6  N   UNL d   1     -12.892   9.034  -5.317 -0.06 +0.02    -0.354    13.828
ATOM      7  C   UNL d   1     -16.554  10.959  -3.586 -0.07 -0.00    +0.084    13.828
ATOM      8  C   UNL d   1     -13.007  15.596  -5.993 -0.09 +0.00    +0.084    13.828
ATOM      9  C   UNL d   1     -13.448  14.167  -5.659 -0.14 -0.00    +0.058    13.828
ATOM     10  C   UNL d   1     -15.200  10.427  -4.066 -0.01 +0.00    +0.058    13.828
ATOM     11  C   UNL d   1     -16.329  12.401  -3.927 -0.06 -0.01    +0.193    13.828
ATOM     12  C   UNL d   1     -14.956  12.540  -4.510 -0.11 -0.00    +0.109    13.828
ATOM     13  C   UNL d   1     -11.936  15.249  -6.989 -0.10 +0.01    +0.193    13.828
ATOM     14  C   UNL d   1     -17.713  10.425  -4.432 -0.03 +0.00    +0.026    13.828
ATOM     15  C   UNL d   1     -14.474  13.897  -4.838 -0.14 -0.00    +0.055    13.828
ATOM     16  C   UNL d   1     -12.356  16.285  -4.790 -0.20 +0.00    +0.026    13.828
ATOM     17  C   UNL d   1     -11.876  13.760  -7.099 -0.12 -0.01    +0.109    13.828
ATOM     18  C   UNL d   1     -14.847   9.140  -3.886 -0.06 +0.00    +0.050    13.828
ATOM     19  C   UNL d   1     -13.588   8.579  -4.219 -0.07 +0.00    +0.045    13.828
ATOM     20  C   UNL d   1     -10.700  11.814  -7.978 -0.23 -0.01    +0.045    13.828
ATOM     21  C   UNL d   1     -10.941  13.127  -8.041 -0.16 -0.01    +0.057    13.828
ATOM     22  C   UNL d   1      -9.845   9.760  -8.498 -0.28 +0.00    -0.019    13.828
ATOM     23  C   UNL d   1     -10.723   9.625  -7.319 -0.26 -0.01    +0.045    13.828
ATOM     24  C   UNL d   1      -9.835  11.059  -8.883 -0.31 +0.00    -0.022    13.828
ATOM     25  C   UNL d   1     -11.749   8.294  -5.506 -0.22 -0.01    +0.049    13.828
ATOM     26  C   UNL d   1     -12.859   7.540  -3.660 -0.21 -0.00    -0.018    13.828
ATOM     27  C   UNL d   1     -11.690   7.377  -4.465 -0.25 -0.00    +0.003    13.828
ATOM     28  C   UNL d   1     -10.947   8.475  -6.666 -0.26 -0.01    +0.052    13.828
ATOM     29  C   UNL d   1      -9.092  11.692 -10.010 -0.27 -0.01    +0.046    13.828
ATOM     30  C   UNL d   1     -13.224   6.747  -2.451 -0.28 +0.01    +0.046    13.828
ATOM     31  H   UNL d   1     -11.756  11.175  -6.297 -0.07 -0.04    +0.166    13.828
ATOM     32  H   UNL d   1     -13.217   9.786  -5.913 +0.04 -0.01    +0.166    13.828
ATOM     33  C   UNL d   1     -16.830  10.797  -2.087 -0.11 -0.01    +0.141    13.828
ATOM     34  C   UNL d   1     -16.712  12.093  -1.333 -0.11 -0.10    +0.306    13.828
ATOM     35  O   UNL d   1     -17.587  12.934  -1.205 -0.06 +0.08    -0.251    13.828
ATOM     36  O   UNL d   1     -15.499  12.262  -0.778 -0.10 +0.32    -0.481    13.828
ATOM     37  H   UNL d   1     -15.659  12.854  -0.012 -0.39 -0.54    +0.295    13.828
ATOM     38  C   UNL d   1     -10.668   6.398  -4.248 -0.32 -0.00    +0.017    13.828
ATOM     39  C   UNL d   1      -9.437   6.654  -3.778 -0.40 -0.03    +0.092    13.828
ATOM     40  C   UNL d   1      -8.487   5.556  -3.584 -0.28 -0.10    +0.330    13.828
ATOM     41  O   UNL d   1      -7.426   5.587  -2.990 -0.41 +0.05    -0.246    13.828
ATOM     42  O   UNL d   1      -8.949   4.437  -4.164 -0.11 +0.25    -0.477    13.828
ATOM     43  H   UNL d   1      -8.869   4.619  -5.123 -0.34 -0.41    +0.295    13.828
ATOM     44  C   UNL d   1     -14.080  16.486  -6.629 -0.02 +0.01    +0.141    13.828
ATOM     45  C   UNL d   1     -14.538  15.996  -7.976 -0.00 +0.00    +0.306    13.828
ATOM     46  O   UNL d   1     -15.391  15.153  -8.191 -0.00 -0.00    -0.251    13.828
ATOM     47  O   UNL d   1     -13.871  16.578  -8.990 +0.01 -0.01    -0.481    13.828
ATOM     48  H   UNL d   1     -12.952  16.671  -8.660 +0.02 +0.01    +0.295    13.828
ATOM     49  C   UNL d   1      -9.116   8.617  -9.142 -0.30 -0.02    +0.048    13.828
ATOM     50  C   UNL d   1     -10.079   7.545  -9.652 -0.18 -0.06    +0.125    13.828
ATOM     51  C   UNL d   1      -9.327   6.351 -10.167 -0.12 -0.26    +0.305    13.828
ATOM     52  O   UNL d   1      -8.193   6.322 -10.613 -0.29 +0.23    -0.251    13.828
ATOM     53  O   UNL d   1     -10.065   5.225 -10.106 -0.06 +0.54    -0.481    13.828
ATOM     54  H   UNL d   1      -9.458   4.563  -9.713 -0.15 -0.68    +0.295    13.828
TER
ENDMDL
MODEL       91
USER    Run = 91
USER    Cluster Rank = 24
USER    Number of conformations in this cluster = 1
USER  
USER    RMSD from reference structure       = 14.883 A
USER  
USER    Estimated Free Energy of Binding    =   -5.00 kcal/mol  [=(1)+(2)+(3)-(4)]
USER    Estimated Inhibition Constant, Ki   =  217.31 uM (micromolar)  [Temperature = 298.15 K]
USER    
USER    (1) Final Intermolecular Energy     =   -8.88 kcal/mol
USER        vdW + Hbond + desolv Energy     =   -8.72 kcal/mol
USER        Electrostatic Energy            =   -0.15 kcal/mol
USER    (2) Final Total Internal Energy     =   -2.40 kcal/mol
USER    (3) Torsional Free Energy           =   +3.88 kcal/mol
USER    (4) Unbound System's Energy  [=(2)] =   -2.40 kcal/mol
USER    
USER    
USER  
USER    DPF = D:/Protein_go_brrr/autodock/final/AncMH_nat/heme/dock.dpf
USER    NEWDPF move	heme_opt.pdbqt
USER    NEWDPF about	0.153000 0.018000 -0.028000
USER    NEWDPF tran0	4.057687 -1.150398 -14.721811
USER    NEWDPF axisangle0	-0.184656 0.979969 0.074583 163.970655
USER    NEWDPF quaternion0	-0.182852 0.970397 0.073854 0.139427
USER    NEWDPF dihe0	-86.39 67.39 -165.33 -105.11 29.07 120.84 138.66 -14.95 104.16 -8.59 82.56 177.96 171.04 
USER  
USER                              x       y       z    vdW   Elec        q     RMS 
ATOM      1  O   UNL d   1       8.318   2.574 -16.376 -0.07 +0.34    -0.289    14.883
ATOM      2  O   UNL d   1       8.524  -4.768 -14.810 -0.11 -0.02    -0.289    14.883
ATOM      3  N   UNL d   1       5.553   0.815 -15.301 -0.14 +0.10    -0.247    14.883
ATOM      4  N   UNL d   1       6.512  -1.997 -15.241 -0.11 +0.05    -0.247    14.883
ATOM      5  N   UNL d   1       3.771  -2.830 -15.000 +0.21 +0.02    -0.354    14.883
ATOM      6  N   UNL d   1       2.783   0.089 -15.082 -0.05 +0.04    -0.354    14.883
ATOM      7  C   UNL d   1       5.946   3.098 -16.100 -0.14 -0.03    +0.084    14.883
ATOM      8  C   UNL d   1       8.909  -2.353 -14.927 -0.17 -0.02    +0.084    14.883
ATOM      9  C   UNL d   1       7.742  -1.384 -15.142 -0.21 -0.02    +0.058    14.883
ATOM     10  C   UNL d   1       4.968   2.037 -15.588 -0.17 -0.02    +0.058    14.883
ATOM     11  C   UNL d   1       7.191   2.265 -16.035 -0.12 -0.16    +0.193    14.883
ATOM     12  C   UNL d   1       6.825   0.910 -15.511 -0.20 -0.07    +0.109    14.883
ATOM     13  C   UNL d   1       8.120  -3.631 -14.961 -0.12 -0.01    +0.193    14.883
ATOM     14  C   UNL d   1       5.676   3.472 -17.560 -0.05 -0.01    +0.026    14.883
ATOM     15  C   UNL d   1       7.913  -0.060 -15.273 -0.25 -0.04    +0.055    14.883
ATOM     16  C   UNL d   1       9.530  -2.195 -13.536 -0.25 -0.00    +0.026    14.883
ATOM     17  C   UNL d   1       6.682  -3.278 -15.164 -0.16 -0.01    +0.109    14.883
ATOM     18  C   UNL d   1       3.673   2.326 -15.359 -0.18 -0.01    +0.050    14.883
ATOM     19  C   UNL d   1       2.717   1.436 -14.808 -0.18 -0.01    +0.045    14.883
ATOM     20  C   UNL d   1       4.368  -4.044 -15.218 -0.15 -0.01    +0.045    14.883
ATOM     21  C   UNL d   1       5.671  -4.338 -15.282 -0.20 -0.01    +0.057    14.883
ATOM     22  C   UNL d   1       2.101  -4.321 -15.241 -0.22 +0.00    -0.019    14.883
ATOM     23  C   UNL d   1       2.404  -2.897 -14.996 -0.13 -0.00    +0.045    14.883
ATOM     24  C   UNL d   1       3.268  -4.995 -15.370 -0.17 +0.00    -0.022    14.883
ATOM     25  C   UNL d   1       1.712  -0.571 -14.524 -0.21 -0.00    +0.049    14.883
ATOM     26  C   UNL d   1       1.595   1.653 -14.022 -0.24 +0.00    -0.018    14.883
ATOM     27  C   UNL d   1       0.976   0.379 -13.830 -0.29 -0.00    +0.003    14.883
ATOM     28  C   UNL d   1       1.478  -1.945 -14.801 -0.26 -0.00    +0.052    14.883
ATOM     29  C   UNL d   1       3.483  -6.451 -15.614 -0.17 -0.01    +0.046    14.883
ATOM     30  C   UNL d   1       1.127   2.960 -13.480 -0.33 -0.00    +0.046    14.883
ATOM     31  H   UNL d   1       4.321  -2.005 -14.785 +0.07 -0.00    +0.166    14.883
ATOM     32  H   UNL d   1       3.506  -0.332 -15.653 +0.05 -0.02    +0.166    14.883
ATOM     33  C   UNL d   1       6.087   4.344 -15.218 -0.09 -0.04    +0.141    14.883
ATOM     34  C   UNL d   1       7.439   4.992 -15.342 -0.21 -0.18    +0.306    14.883
ATOM     35  O   UNL d   1       7.784   5.777 -16.208 -0.13 +0.12    -0.251    14.883
ATOM     36  O   UNL d   1       8.284   4.619 -14.365 -0.26 +0.60    -0.481    14.883
ATOM     37  H   UNL d   1       8.750   3.836 -14.728 -0.29 -0.69    +0.295    14.883
ATOM     38  C   UNL d   1      -0.226   0.150 -13.086 -0.42 -0.00    +0.017    14.883
ATOM     39  C   UNL d   1      -1.268   0.993 -13.019 -0.37 +0.00    +0.092    14.883
ATOM     40  C   UNL d   1      -2.451   0.631 -12.234 -0.24 +0.05    +0.330    14.883
ATOM     41  O   UNL d   1      -2.912   1.214 -11.272 -1.45 -0.05    -0.246    14.883
ATOM     42  O   UNL d   1      -3.011  -0.483 -12.731 -0.18 -0.01    -0.477    14.883
ATOM     43  H   UNL d   1      -3.870  -0.175 -13.088 +0.10 -0.01    +0.295    14.883
ATOM     44  C   UNL d   1       9.985  -2.344 -16.019 -0.06 -0.03    +0.141    14.883
ATOM     45  C   UNL d   1       9.445  -2.664 -17.387 +0.00 -0.06    +0.306    14.883
ATOM     46  O   UNL d   1       9.089  -1.862 -18.233 -0.00 +0.06    -0.251    14.883
ATOM     47  O   UNL d   1       9.356  -3.988 -17.609 +0.01 +0.06    -0.481    14.883
ATOM     48  H   UNL d   1       9.461  -4.395 -16.723 +0.04 -0.02    +0.295    14.883
ATOM     49  C   UNL d   1       0.713  -4.883 -15.340 -0.26 -0.00    +0.048    14.883
ATOM     50  C   UNL d   1       0.166  -4.801 -16.765 -0.08 -0.01    +0.125    14.883
ATOM     51  C   UNL d   1      -0.693  -3.581 -16.940 -0.05 -0.02    +0.305    14.883
ATOM     52  O   UNL d   1      -1.250  -2.933 -16.072 -0.10 +0.01    -0.251    14.883
ATOM     53  O   UNL d   1      -0.820  -3.236 -18.237 +0.00 +0.03    -0.481    14.883
ATOM     54  H   UNL d   1      -1.437  -3.904 -18.602 +0.01 -0.02    +0.295    14.883
TER
ENDMDL
MODEL       31
USER    Run = 31
USER    Cluster Rank = 25
USER    Number of conformations in this cluster = 1
USER  
USER    RMSD from reference structure       = 16.956 A
USER  
USER    Estimated Free Energy of Binding    =   -4.64 kcal/mol  [=(1)+(2)+(3)-(4)]
USER    Estimated Inhibition Constant, Ki   =  395.12 uM (micromolar)  [Temperature = 298.15 K]
USER    
USER    (1) Final Intermolecular Energy     =   -8.52 kcal/mol
USER        vdW + Hbond + desolv Energy     =   -8.39 kcal/mol
USER        Electrostatic Energy            =   -0.13 kcal/mol
USER    (2) Final Total Internal Energy     =   -3.32 kcal/mol
USER    (3) Torsional Free Energy           =   +3.88 kcal/mol
USER    (4) Unbound System's Energy  [=(2)] =   -3.32 kcal/mol
USER    
USER    
USER  
USER    DPF = D:/Protein_go_brrr/autodock/final/AncMH_nat/heme/dock.dpf
USER    NEWDPF move	heme_opt.pdbqt
USER    NEWDPF about	0.153000 0.018000 -0.028000
USER    NEWDPF tran0	0.360442 18.295809 -8.880880
USER    NEWDPF axisangle0	0.557560 -0.611378 -0.561555 110.670483
USER    NEWDPF quaternion0	0.458590 -0.502855 -0.461876 0.568774
USER    NEWDPF dihe0	-176.67 152.39 -52.98 55.66 29.51 -69.02 -52.85 57.74 -172.67 -180.00 -86.21 22.08 -2.63 
USER  
USER                              x       y       z    vdW   Elec        q     RMS 
ATOM      1  O   UNL d   1      -1.589  18.833  -3.343 -0.12 -0.03    -0.289    16.956
ATOM      2  O   UNL d   1       4.728  15.828  -6.075 -0.63 -0.05    -0.289    16.956
ATOM      3  N   UNL d   1      -0.931  18.620  -6.722 -0.11 +0.05    -0.247    16.956
ATOM      4  N   UNL d   1       1.857  17.597  -6.812 -0.13 +0.03    -0.247    16.956
ATOM      5  N   UNL d   1       1.931  18.310  -9.596 -0.11 +0.10    -0.354    16.956
ATOM      6  N   UNL d   1      -0.955  19.387  -9.489 +0.13 +0.11    -0.354    16.956
ATOM      7  C   UNL d   1      -2.694  19.649  -5.365 -0.14 -0.00    +0.084    16.956
ATOM      8  C   UNL d   1       2.626  16.279  -4.903 -0.26 -0.00    +0.084    16.956
ATOM      9  C   UNL d   1       1.539  17.141  -5.552 -0.23 -0.00    +0.058    16.956
ATOM     10  C   UNL d   1      -2.098  19.364  -6.747 -0.19 -0.01    +0.058    16.956
ATOM     11  C   UNL d   1      -1.666  18.917  -4.555 -0.12 +0.01    +0.193    16.956
ATOM     12  C   UNL d   1      -0.666  18.316  -5.493 -0.18 -0.00    +0.109    16.956
ATOM     13  C   UNL d   1       3.637  16.361  -6.012 -0.25 +0.01    +0.193    16.956
ATOM     14  C   UNL d   1      -2.637  21.137  -5.010 -0.05 -0.00    +0.026    16.956
ATOM     15  C   UNL d   1       0.398  17.464  -4.924 -0.27 +0.00    +0.055    16.956
ATOM     16  C   UNL d   1       2.180  14.821  -4.750 -0.21 -0.00    +0.026    16.956
ATOM     17  C   UNL d   1       3.052  17.193  -7.106 -0.23 -0.00    +0.109    16.956
ATOM     18  C   UNL d   1      -2.729  19.741  -7.876 -0.20 -0.01    +0.050    16.956
ATOM     19  C   UNL d   1      -2.298  19.449  -9.195 -0.16 -0.01    +0.045    16.956
ATOM     20  C   UNL d   1       3.254  18.012  -9.394 -0.21 -0.00    +0.045    16.956
ATOM     21  C   UNL d   1       3.839  17.485  -8.313 -0.26 +0.01    +0.057    16.956
ATOM     22  C   UNL d   1       3.006  18.887 -11.489 -0.12 +0.01    -0.019    16.956
ATOM     23  C   UNL d   1       1.684  18.843 -10.833 -0.15 -0.01    +0.045    16.956
ATOM     24  C   UNL d   1       3.931  18.392 -10.633 -0.15 +0.00    -0.022    16.956
ATOM     25  C   UNL d   1      -0.764  19.183 -10.836 -0.10 -0.01    +0.049    16.956
ATOM     26  C   UNL d   1      -2.998  19.244 -10.374 -0.18 +0.00    -0.018    16.956
ATOM     27  C   UNL d   1      -2.025  19.057 -11.403 -0.16 -0.00    +0.003    16.956
ATOM     28  C   UNL d   1       0.537  19.239 -11.405 -0.14 -0.01    +0.052    16.956
ATOM     29  C   UNL d   1       5.397  18.221 -10.841 -0.16 +0.00    +0.046    16.956
ATOM     30  C   UNL d   1      -4.480  19.221 -10.536 -0.12 -0.00    +0.046    16.956
ATOM     31  H   UNL d   1       1.227  18.069  -8.907 -0.45 -0.07    +0.166    16.956
ATOM     32  H   UNL d   1      -0.223  19.517  -8.801 -0.14 -0.05    +0.166    16.956
ATOM     33  C   UNL d   1      -4.089  19.064  -5.118 -0.18 +0.00    +0.141    16.956
ATOM     34  C   UNL d   1      -5.086  20.107  -4.689 -0.07 +0.00    +0.306    16.956
ATOM     35  O   UNL d   1      -5.720  20.843  -5.426 -0.05 -0.00    -0.251    16.956
ATOM     36  O   UNL d   1      -5.233  20.165  -3.354 -0.01 +0.01    -0.481    16.956
ATOM     37  H   UNL d   1      -4.613  19.489  -3.008 -0.46 -0.06    +0.295    16.956
ATOM     38  C   UNL d   1      -2.320  18.830 -12.786 -0.10 -0.00    +0.017    16.956
ATOM     39  C   UNL d   1      -1.937  17.755 -13.493 -0.09 -0.01    +0.092    16.956
ATOM     40  C   UNL d   1      -2.320  17.634 -14.902 +0.00 -0.04    +0.330    16.956
ATOM     41  O   UNL d   1      -3.427  17.413 -15.355 -0.01 +0.02    -0.246    16.956
ATOM     42  O   UNL d   1      -1.248  17.814 -15.689 +0.01 +0.07    -0.477    16.956
ATOM     43  H   UNL d   1      -0.663  18.394 -15.160 +0.03 -0.05    +0.295    16.956
ATOM     44  C   UNL d   1       3.205  16.822  -3.592 -0.27 +0.01    +0.141    16.956
ATOM     45  C   UNL d   1       3.235  15.800  -2.487 -0.30 +0.00    +0.306    16.956
ATOM     46  O   UNL d   1       2.408  15.662  -1.602 -0.34 -0.00    -0.251    16.956
ATOM     47  O   UNL d   1       4.327  15.016  -2.540 -0.26 +0.01    -0.481    16.956
ATOM     48  H   UNL d   1       4.729  15.090  -1.648 -0.34 -0.14    +0.295    16.956
ATOM     49  C   UNL d   1       3.242  19.416 -12.874 -0.05 -0.01    +0.048    16.956
ATOM     50  C   UNL d   1       3.017  18.343 -13.939 -0.06 -0.05    +0.125    16.956
ATOM     51  C   UNL d   1       1.617  18.412 -14.482 -0.02 -0.09    +0.305    16.956
ATOM     52  O   UNL d   1       1.037  19.390 -14.919 -0.01 +0.04    -0.251    16.956
ATOM     53  O   UNL d   1       0.999  17.215 -14.434 -0.04 +0.18    -0.481    16.956
ATOM     54  H   UNL d   1       0.714  17.057 -15.358 +0.03 -0.09    +0.295    16.956
TER
ENDMDL
MODEL        1
USER    Run = 1
USER    Cluster Rank = 26
USER    Number of conformations in this cluster = 1
USER  
USER    RMSD from reference structure       = 14.062 A
USER  
USER    Estimated Free Energy of Binding    =   -4.64 kcal/mol  [=(1)+(2)+(3)-(4)]
USER    Estimated Inhibition Constant, Ki   =  396.77 uM (micromolar)  [Temperature = 298.15 K]
USER    
USER    (1) Final Intermolecular Energy     =   -8.52 kcal/mol
USER        vdW + Hbond + desolv Energy     =   -8.18 kcal/mol
USER        Electrostatic Energy            =   -0.34 kcal/mol
USER    (2) Final Total Internal Energy     =   -2.44 kcal/mol
USER    (3) Torsional Free Energy           =   +3.88 kcal/mol
USER    (4) Unbound System's Energy  [=(2)] =   -2.44 kcal/mol
USER    
USER    
USER  
USER    DPF = D:/Protein_go_brrr/autodock/final/AncMH_nat/heme/dock.dpf
USER    NEWDPF move	heme_opt.pdbqt
USER    NEWDPF about	0.153000 0.018000 -0.028000
USER    NEWDPF tran0	-7.682427 -13.910511 -7.081044
USER    NEWDPF axisangle0	0.735220 -0.635143 0.236739 -143.569185
USER    NEWDPF quaternion0	0.698376 -0.603315 0.224876 -0.312590
USER    NEWDPF dihe0	161.50 -0.61 81.15 174.27 -143.76 -180.00 -36.67 -59.88 38.34 -110.11 136.21 178.49 -177.28 
USER  
USER                              x       y       z    vdW   Elec        q     RMS 
ATOM      1  O   UNL d   1     -10.343 -10.559 -11.136 -0.04 -0.25    -0.289    14.062
ATOM      2  O   UNL d   1      -3.272 -10.556  -8.608 -0.62 -0.05    -0.289    14.062
ATOM      3  N   UNL d   1      -9.259 -12.650  -8.616 -0.10 +0.09    -0.247    14.062
ATOM      4  N   UNL d   1      -6.331 -12.150  -8.526 -0.13 +0.08    -0.247    14.062
ATOM      5  N   UNL d   1      -6.073 -14.507  -6.900 +0.00 +0.27    -0.354    14.062
ATOM      6  N   UNL d   1      -9.109 -15.029  -7.016 -0.04 +0.22    -0.354    14.062
ATOM      7  C   UNL d   1     -11.341 -12.407  -9.886 -0.03 +0.02    +0.084    14.062
ATOM      8  C   UNL d   1      -5.545  -9.971  -9.304 -0.27 +0.02    +0.084    14.062
ATOM      9  C   UNL d   1      -6.699 -10.961  -9.115 -0.22 +0.01    +0.058    14.062
ATOM     10  C   UNL d   1     -10.541 -13.138  -8.804 -0.07 -0.01    +0.058    14.062
ATOM     11  C   UNL d   1     -10.291 -11.407 -10.264 -0.05 +0.12    +0.193    14.062
ATOM     12  C   UNL d   1      -9.086 -11.640  -9.406 -0.12 +0.03    +0.109    14.062
ATOM     13  C   UNL d   1      -4.447 -10.833  -8.747 -0.23 +0.02    +0.193    14.062
ATOM     14  C   UNL d   1     -11.628 -13.304 -11.094 +0.00 +0.00    +0.026    14.062
ATOM     15  C   UNL d   1      -7.948 -10.708  -9.536 -0.13 +0.03    +0.055    14.062
ATOM     16  C   UNL d   1      -5.703  -8.737  -8.411 -0.29 +0.01    +0.026    14.062
ATOM     17  C   UNL d   1      -5.054 -12.129  -8.317 -0.17 -0.02    +0.109    14.062
ATOM     18  C   UNL d   1     -11.096 -14.109  -8.055 -0.05 -0.01    +0.050    14.062
ATOM     19  C   UNL d   1     -10.462 -14.781  -6.979 -0.08 -0.02    +0.045    14.062
ATOM     20  C   UNL d   1      -4.751 -14.253  -7.158 -0.19 -0.02    +0.045    14.062
ATOM     21  C   UNL d   1      -4.204 -13.196  -7.768 -0.29 -0.01    +0.057    14.062
ATOM     22  C   UNL d   1      -4.920 -16.259  -6.078 -0.11 +0.00    -0.019    14.062
ATOM     23  C   UNL d   1      -6.274 -15.696  -6.252 -0.12 -0.01    +0.045    14.062
ATOM     24  C   UNL d   1      -4.022 -15.399  -6.616 -0.13 +0.00    -0.022    14.062
ATOM     25  C   UNL d   1      -8.723 -15.767  -5.921 -0.09 -0.02    +0.049    14.062
ATOM     26  C   UNL d   1     -10.962 -15.340  -5.813 -0.11 +0.00    -0.018    14.062
ATOM     27  C   UNL d   1      -9.856 -15.944  -5.139 -0.18 -0.00    +0.003    14.062
ATOM     28  C   UNL d   1      -7.401 -16.280  -5.816 -0.16 +0.00    +0.052    14.062
ATOM     29  C   UNL d   1      -2.537 -15.518  -6.677 -0.17 -0.02    +0.046    14.062
ATOM     30  C   UNL d   1     -12.379 -15.314  -5.349 -0.08 -0.00    +0.046    14.062
ATOM     31  H   UNL d   1      -6.791 -13.823  -7.111 -0.10 -0.22    +0.166    14.062
ATOM     32  H   UNL d   1      -8.506 -14.736  -7.775 -0.00 -0.10    +0.166    14.062
ATOM     33  C   UNL d   1     -12.609 -11.698  -9.399 -0.03 +0.04    +0.141    14.062
ATOM     34  C   UNL d   1     -12.336 -10.308  -8.890 -0.01 +0.27    +0.306    14.062
ATOM     35  O   UNL d   1     -12.052 -10.004  -7.744 -0.40 -0.23    -0.251    14.062
ATOM     36  O   UNL d   1     -12.433  -9.375  -9.854 -0.21 -0.60    -0.481    14.062
ATOM     37  H   UNL d   1     -12.321  -9.873 -10.691 +0.01 +0.24    +0.295    14.062
ATOM     38  C   UNL d   1      -9.933 -16.650  -3.896 -0.21 +0.01    +0.017    14.062
ATOM     39  C   UNL d   1     -10.961 -17.419  -3.504 -0.21 +0.04    +0.092    14.062
ATOM     40  C   UNL d   1     -10.908 -18.104  -2.209 -0.19 +0.16    +0.330    14.062
ATOM     41  O   UNL d   1     -11.765 -18.801  -1.702 -0.17 -0.06    -0.246    14.062
ATOM     42  O   UNL d   1      -9.730 -17.869  -1.611 -0.70 -0.59    -0.477    14.062
ATOM     43  H   UNL d   1      -9.797 -18.353  -0.762 -0.44 +0.13    +0.295    14.062
ATOM     44  C   UNL d   1      -5.247  -9.572 -10.753 -0.16 +0.02    +0.141    14.062
ATOM     45  C   UNL d   1      -3.861  -9.015 -10.943 -0.24 -0.02    +0.306    14.062
ATOM     46  O   UNL d   1      -3.497  -7.876 -10.706 -0.47 +0.03    -0.251    14.062
ATOM     47  O   UNL d   1      -3.007  -9.922 -11.452 -0.01 +0.16    -0.481    14.062
ATOM     48  H   UNL d   1      -2.505 -10.251 -10.677 -0.32 -0.12    +0.295    14.062
ATOM     49  C   UNL d   1      -4.633 -17.578  -5.423 -0.08 +0.01    +0.048    14.062
ATOM     50  C   UNL d   1      -4.408 -18.687  -6.451 -0.01 +0.01    +0.125    14.062
ATOM     51  C   UNL d   1      -5.416 -18.600  -7.562 +0.01 +0.01    +0.305    14.062
ATOM     52  O   UNL d   1      -6.620 -18.774  -7.489 +0.00 -0.02    -0.251    14.062
ATOM     53  O   UNL d   1      -4.840 -18.303  -8.744 +0.01 +0.02    -0.481    14.062
ATOM     54  H   UNL d   1      -3.904 -18.125  -8.514 +0.01 -0.02    +0.295    14.062
TER
ENDMDL
MODEL       80
USER    Run = 80
USER    Cluster Rank = 27
USER    Number of conformations in this cluster = 1
USER  
USER    RMSD from reference structure       = 19.033 A
USER  
USER    Estimated Free Energy of Binding    =   -4.62 kcal/mol  [=(1)+(2)+(3)-(4)]
USER    Estimated Inhibition Constant, Ki   =  408.86 uM (micromolar)  [Temperature = 298.15 K]
USER    
USER    (1) Final Intermolecular Energy     =   -8.50 kcal/mol
USER        vdW + Hbond + desolv Energy     =   -7.93 kcal/mol
USER        Electrostatic Energy            =   -0.57 kcal/mol
USER    (2) Final Total Internal Energy     =   -1.93 kcal/mol
USER    (3) Torsional Free Energy           =   +3.88 kcal/mol
USER    (4) Unbound System's Energy  [=(2)] =   -1.93 kcal/mol
USER    
USER    
USER  
USER    DPF = D:/Protein_go_brrr/autodock/final/AncMH_nat/heme/dock.dpf
USER    NEWDPF move	heme_opt.pdbqt
USER    NEWDPF about	0.153000 0.018000 -0.028000
USER    NEWDPF tran0	-12.050179 2.586690 18.469556
USER    NEWDPF axisangle0	0.393868 0.903053 -0.171358 -150.742072
USER    NEWDPF quaternion0	0.381099 0.873778 -0.165803 -0.252559
USER    NEWDPF dihe0	161.15 -74.29 174.45 129.28 32.81 8.87 152.61 114.13 -10.50 -2.09 157.82 -144.65 178.74 
USER  
USER                              x       y       z    vdW   Elec        q     RMS 
ATOM      1  O   UNL d   1      -7.314   0.113  20.961 -0.20 +0.05    -0.289    19.033
ATOM      2  O   UNL d   1     -14.635  -1.371  21.740 -0.00 -0.01    -0.289    19.033
ATOM      3  N   UNL d   1      -9.770   1.943  19.376 -0.11 +0.06    -0.247    19.033
ATOM      4  N   UNL d   1     -12.259   0.458  20.030 -0.06 +0.05    -0.247    19.033
ATOM      5  N   UNL d   1     -13.596   1.984  17.993 -0.02 +0.01    -0.354    19.033
ATOM      6  N   UNL d   1     -11.005   3.506  17.307 -0.15 +0.04    -0.354    19.033
ATOM      7  C   UNL d   1      -7.321   1.905  19.299 -0.18 -0.04    +0.084    19.033
ATOM      8  C   UNL d   1     -12.265  -0.863  22.086 -0.04 -0.01    +0.084    19.033
ATOM      9  C   UNL d   1     -11.497   0.006  21.085 -0.06 -0.01    +0.058    19.033
ATOM     10  C   UNL d   1      -8.641   2.500  18.800 -0.23 -0.02    +0.058    19.033
ATOM     11  C   UNL d   1      -7.904   0.927  20.274 -0.09 -0.04    +0.193    19.033
ATOM     12  C   UNL d   1      -9.395   1.065  20.248 -0.10 -0.03    +0.109    19.033
ATOM     13  C   UNL d   1     -13.594  -0.852  21.385 -0.02 -0.01    +0.193    19.033
ATOM     14  C   UNL d   1      -6.587   1.132  18.201 -0.37 -0.01    +0.026    19.033
ATOM     15  C   UNL d   1     -10.185   0.260  21.201 -0.09 -0.01    +0.055    19.033
ATOM     16  C   UNL d   1     -12.418  -0.168  23.442 -0.01 -0.00    +0.026    19.033
ATOM     17  C   UNL d   1     -13.455  -0.023  20.149 -0.06 -0.01    +0.109    19.033
ATOM     18  C   UNL d   1      -8.665   3.536  17.940 -0.04 -0.02    +0.050    19.033
ATOM     19  C   UNL d   1      -9.832   4.204  17.490 -0.29 -0.01    +0.045    19.033
ATOM     20  C   UNL d   1     -14.566   1.055  18.266 -0.06 +0.00    +0.045    19.033
ATOM     21  C   UNL d   1     -14.594   0.132  19.233 -0.06 +0.00    +0.057    19.033
ATOM     22  C   UNL d   1     -15.219   2.296  16.462 -0.15 -0.00    -0.019    19.033
ATOM     23  C   UNL d   1     -13.900   2.778  16.920 -0.18 +0.00    +0.045    19.033
ATOM     24  C   UNL d   1     -15.608   1.277  17.265 -0.06 -0.00    -0.022    19.033
ATOM     25  C   UNL d   1     -11.977   4.325  16.782 -0.17 -0.01    +0.049    19.033
ATOM     26  C   UNL d   1     -10.058   5.517  17.108 -0.32 +0.01    -0.018    19.033
ATOM     27  C   UNL d   1     -11.420   5.593  16.681 -0.27 -0.00    +0.003    19.033
ATOM     28  C   UNL d   1     -13.227   3.796  16.361 -0.23 -0.01    +0.052    19.033
ATOM     29  C   UNL d   1     -16.865   0.476  17.212 -0.03 +0.01    +0.046    19.033
ATOM     30  C   UNL d   1      -9.073   6.636  17.140 -0.28 -0.02    +0.046    19.033
ATOM     31  H   UNL d   1     -12.787   2.093  18.595 +0.05 -0.01    +0.166    19.033
ATOM     32  H   UNL d   1     -11.104   2.517  17.500 +0.07 -0.01    +0.166    19.033
ATOM     33  C   UNL d   1      -6.388   2.887  20.015 -0.09 -0.09    +0.141    19.033
ATOM     34  C   UNL d   1      -7.133   3.881  20.864 -0.03 -0.16    +0.306    19.033
ATOM     35  O   UNL d   1      -7.479   3.723  22.023 -0.01 +0.08    -0.251    19.033
ATOM     36  O   UNL d   1      -7.403   5.024  20.209 -0.02 +0.43    -0.481    19.033
ATOM     37  H   UNL d   1      -6.751   5.048  19.476 -0.51 -0.61    +0.295    19.033
ATOM     38  C   UNL d   1     -12.066   6.772  16.189 -0.31 -0.00    +0.017    19.033
ATOM     39  C   UNL d   1     -11.838   7.339  14.994 -0.31 -0.01    +0.092    19.033
ATOM     40  C   UNL d   1     -12.582   8.539  14.602 -0.24 +0.00    +0.330    19.033
ATOM     41  O   UNL d   1     -13.344   9.198  15.284 -0.17 -0.02    -0.246    19.033
ATOM     42  O   UNL d   1     -12.305   8.857  13.328 -0.23 +0.05    -0.477    19.033
ATOM     43  H   UNL d   1     -13.111   8.590  12.839 -0.37 -0.08    +0.295    19.033
ATOM     44  C   UNL d   1     -11.744  -2.295  22.253 -0.05 -0.01    +0.141    19.033
ATOM     45  C   UNL d   1     -11.589  -3.027  20.946 -0.08 -0.03    +0.306    19.033
ATOM     46  O   UNL d   1     -10.540  -3.321  20.399 -0.12 +0.04    -0.251    19.033
ATOM     47  O   UNL d   1     -12.772  -3.327  20.380 -0.05 -0.01    -0.481    19.033
ATOM     48  H   UNL d   1     -13.440  -3.065  21.049 +0.03 +0.01    +0.295    19.033
ATOM     49  C   UNL d   1     -15.961   2.860  15.287 -0.24 +0.01    +0.048    19.033
ATOM     50  C   UNL d   1     -15.703   2.056  14.012 -0.29 +0.00    +0.125    19.033
ATOM     51  C   UNL d   1     -14.429   1.269  14.123 -0.25 -0.02    +0.305    19.033
ATOM     52  O   UNL d   1     -14.309   0.064  14.257 -0.27 -0.00    -0.251    19.033
ATOM     53  O   UNL d   1     -13.340   2.062  14.071 -0.11 +0.12    -0.481    19.033
ATOM     54  H   UNL d   1     -13.480   2.607  13.269 -0.40 -0.20    +0.295    19.033
TER
ENDMDL
MODEL        4
USER    Run = 4
USER    Cluster Rank = 28
USER    Number of conformations in this cluster = 2
USER  
USER    RMSD from reference structure       = 20.152 A
USER  
USER    Estimated Free Energy of Binding    =   -4.55 kcal/mol  [=(1)+(2)+(3)-(4)]
USER    Estimated Inhibition Constant, Ki   =  463.62 uM (micromolar)  [Temperature = 298.15 K]
USER    
USER    (1) Final Intermolecular Energy     =   -8.43 kcal/mol
USER        vdW + Hbond + desolv Energy     =   -7.69 kcal/mol
USER        Electrostatic Energy            =   -0.74 kcal/mol
USER    (2) Final Total Internal Energy     =   -3.80 kcal/mol
USER    (3) Torsional Free Energy           =   +3.88 kcal/mol
USER    (4) Unbound System's Energy  [=(2)] =   -3.80 kcal/mol
USER    
USER    
USER  
USER    DPF = D:/Protein_go_brrr/autodock/final/AncMH_nat/heme/dock.dpf
USER    NEWDPF move	heme_opt.pdbqt
USER    NEWDPF about	0.153000 0.018000 -0.028000
USER    NEWDPF tran0	-9.820278 14.041673 15.482274
USER    NEWDPF axisangle0	0.006201 0.776272 0.630367 13.860782
USER    NEWDPF quaternion0	0.000748 0.093668 0.076062 0.992693
USER    NEWDPF dihe0	-157.77 -179.76 99.38 -51.48 -139.48 108.81 -51.59 -105.06 -136.83 -142.53 -97.67 -117.78 5.22 
USER  
USER                              x       y       z    vdW   Elec        q     RMS 
ATOM      1  O   UNL d   1     -15.133  16.568  15.096 -0.01 +0.09    -0.289    20.152
ATOM      2  O   UNL d   1     -12.839   9.628  13.375 -0.33 +0.04    -0.289    20.152
ATOM      3  N   UNL d   1     -11.844  15.567  15.367 -0.15 +0.18    -0.247    20.152
ATOM      4  N   UNL d   1     -11.965  12.657  14.778 -0.16 +0.06    -0.247    20.152
ATOM      5  N   UNL d   1      -9.289  12.432  15.806 -0.12 +0.11    -0.354    20.152
ATOM      6  N   UNL d   1      -9.179  15.448  16.432 +0.04 +0.21    -0.354    20.152
ATOM      7  C   UNL d   1     -13.090  17.590  15.967 -0.07 -0.06    +0.084    20.152
ATOM      8  C   UNL d   1     -13.809  11.875  13.378 -0.24 -0.01    +0.084    20.152
ATOM      9  C   UNL d   1     -13.130  13.018  14.141 -0.19 -0.01    +0.058    20.152
ATOM     10  C   UNL d   1     -11.762  16.829  15.931 -0.13 -0.05    +0.058    20.152
ATOM     11  C   UNL d   1     -13.934  16.542  15.306 -0.05 -0.10    +0.193    20.152
ATOM     12  C   UNL d   1     -13.059  15.375  14.967 -0.14 -0.06    +0.109    20.152
ATOM     13  C   UNL d   1     -12.832  10.790  13.732 -0.25 -0.02    +0.193    20.152
ATOM     14  C   UNL d   1     -13.593  17.801  17.397 -0.02 -0.01    +0.026    20.152
ATOM     15  C   UNL d   1     -13.657  14.250  14.221 -0.15 -0.02    +0.055    20.152
ATOM     16  C   UNL d   1     -13.768  12.100  11.864 -0.43 -0.01    +0.026    20.152
ATOM     17  C   UNL d   1     -11.767  11.392  14.590 -0.21 -0.02    +0.109    20.152
ATOM     18  C   UNL d   1     -10.613  17.400  16.338 -0.11 -0.05    +0.050    20.152
ATOM     19  C   UNL d   1      -9.327  16.806  16.264 -0.18 -0.03    +0.045    20.152
ATOM     20  C   UNL d   1      -9.607  11.104  15.684 -0.20 -0.01    +0.045    20.152
ATOM     21  C   UNL d   1     -10.689  10.549  15.128 +0.04 -0.01    +0.057    20.152
ATOM     22  C   UNL d   1      -7.592  11.286  16.745 -0.17 +0.00    -0.019    20.152
ATOM     23  C   UNL d   1      -8.090  12.641  16.435 -0.18 -0.01    +0.045    20.152
ATOM     24  C   UNL d   1      -8.494  10.380  16.297 -0.24 +0.01    -0.022    20.152
ATOM     25  C   UNL d   1      -7.848  15.101  16.412 -0.11 -0.02    +0.049    20.152
ATOM     26  C   UNL d   1      -8.064  17.351  16.094 -0.20 +0.01    -0.018    20.152
ATOM     27  C   UNL d   1      -7.135  16.267  16.169 -0.20 -0.00    +0.003    20.152
ATOM     28  C   UNL d   1      -7.435  13.776  16.721 -0.16 -0.01    +0.052    20.152
ATOM     29  C   UNL d   1      -8.434   8.892  16.365 -0.31 -0.02    +0.046    20.152
ATOM     30  C   UNL d   1      -7.736  18.789  15.874 -0.19 -0.02    +0.046    20.152
ATOM     31  H   UNL d   1      -9.869  13.152  15.389 -0.48 -0.09    +0.166    20.152
ATOM     32  H   UNL d   1      -9.954  14.815  16.589 -0.10 -0.09    +0.166    20.152
ATOM     33  C   UNL d   1     -13.123  18.893  15.162 +0.02 -0.15    +0.141    20.152
ATOM     34  C   UNL d   1     -12.684  20.084  15.969 -0.03 -0.21    +0.306    20.152
ATOM     35  O   UNL d   1     -13.389  20.758  16.701 -0.01 +0.09    -0.251    20.152
ATOM     36  O   UNL d   1     -11.377  20.363  15.814 -0.04 +0.47    -0.481    20.152
ATOM     37  H   UNL d   1     -11.128  19.917  14.976 -0.49 -0.69    +0.295    20.152
ATOM     38  C   UNL d   1      -5.713  16.390  16.060 -0.17 -0.00    +0.017    20.152
ATOM     39  C   UNL d   1      -4.857  16.424  17.092 -0.05 -0.00    +0.092    20.152
ATOM     40  C   UNL d   1      -3.417  16.535  16.844 -0.01 +0.01    +0.330    20.152
ATOM     41  O   UNL d   1      -2.706  17.506  17.016 -0.01 -0.02    -0.246    20.152
ATOM     42  O   UNL d   1      -2.937  15.370  16.383 +0.01 -0.00    -0.477    20.152
ATOM     43  H   UNL d   1      -3.723  14.787  16.352 +0.05 -0.01    +0.295    20.152
ATOM     44  C   UNL d   1     -15.222  11.516  13.847 -0.17 +0.00    +0.141    20.152
ATOM     45  C   UNL d   1     -15.950  10.602  12.897 -0.25 +0.04    +0.306    20.152
ATOM     46  O   UNL d   1     -16.732  10.936  12.024 -0.30 -0.02    -0.251    20.152
ATOM     47  O   UNL d   1     -15.671   9.305  13.116 -0.15 -0.14    -0.481    20.152
ATOM     48  H   UNL d   1     -14.815   9.154  12.661 -0.31 -0.08    +0.295    20.152
ATOM     49  C   UNL d   1      -6.301  11.005  17.457 -0.12 -0.01    +0.048    20.152
ATOM     50  C   UNL d   1      -5.097  11.147  16.527 -0.15 -0.03    +0.125    20.152
ATOM     51  C   UNL d   1      -4.671  12.584  16.416 -0.04 -0.05    +0.305    20.152
ATOM     52  O   UNL d   1      -4.756  13.311  15.441 -0.08 +0.03    -0.251    20.152
ATOM     53  O   UNL d   1      -4.134  13.041  17.564 +0.01 +0.06    -0.481    20.152
ATOM     54  H   UNL d   1      -3.276  13.428  17.289 +0.03 -0.03    +0.295    20.152
TER
ENDMDL
MODEL       12
USER    Run = 12
USER    Cluster Rank = 29
USER    Number of conformations in this cluster = 1
USER  
USER    RMSD from reference structure       = 16.063 A
USER  
USER    Estimated Free Energy of Binding    =   -4.51 kcal/mol  [=(1)+(2)+(3)-(4)]
USER    Estimated Inhibition Constant, Ki   =  493.02 uM (micromolar)  [Temperature = 298.15 K]
USER    
USER    (1) Final Intermolecular Energy     =   -8.39 kcal/mol
USER        vdW + Hbond + desolv Energy     =   -8.16 kcal/mol
USER        Electrostatic Energy            =   -0.23 kcal/mol
USER    (2) Final Total Internal Energy     =   -2.23 kcal/mol
USER    (3) Torsional Free Energy           =   +3.88 kcal/mol
USER    (4) Unbound System's Energy  [=(2)] =   -2.23 kcal/mol
USER    
USER    
USER  
USER    DPF = D:/Protein_go_brrr/autodock/final/AncMH_nat/heme/dock.dpf
USER    NEWDPF move	heme_opt.pdbqt
USER    NEWDPF about	0.153000 0.018000 -0.028000
USER    NEWDPF tran0	10.953835 -9.397431 -11.934409
USER    NEWDPF axisangle0	0.014193 0.600533 0.799474 -165.311936
USER    NEWDPF quaternion0	0.014077 0.595606 0.792916 -0.127827
USER    NEWDPF dihe0	145.62 123.34 116.82 -0.56 41.73 175.51 -49.54 -84.33 -158.89 -131.68 -64.59 166.96 10.88 
USER  
USER                              x       y       z    vdW   Elec        q     RMS 
ATOM      1  O   UNL d   1      16.178 -10.455  -9.416 -0.02 +0.08    -0.289    16.063
ATOM      2  O   UNL d   1      14.148 -10.217 -16.642 +0.00 +0.04    -0.289    16.063
ATOM      3  N   UNL d   1      12.924  -9.923 -10.425 -0.07 +0.17    -0.247    16.063
ATOM      4  N   UNL d   1      13.153  -9.695 -13.379 -0.01 +0.07    -0.247    16.063
ATOM      5  N   UNL d   1      10.476  -8.647 -13.413 -0.05 +0.05    -0.354    16.063
ATOM      6  N   UNL d   1      10.253  -8.868 -10.347 -0.09 +0.23    -0.354    16.063
ATOM      7  C   UNL d   1      14.092  -9.898  -8.271 -0.20 -0.04    +0.084    16.063
ATOM      8  C   UNL d   1      15.038 -10.827 -14.445 +0.01 -0.01    +0.084    16.063
ATOM      9  C   UNL d   1      14.312 -10.406 -13.163 -0.00 -0.02    +0.058    16.063
ATOM     10  C   UNL d   1      12.791  -9.725  -9.061 -0.13 -0.05    +0.058    16.063
ATOM     11  C   UNL d   1      14.979 -10.246  -9.428 -0.05 -0.08    +0.193    16.063
ATOM     12  C   UNL d   1      14.149 -10.255 -10.674 -0.06 -0.05    +0.109    16.063
ATOM     13  C   UNL d   1      14.097 -10.191 -15.428 +0.01 -0.03    +0.193    16.063
ATOM     14  C   UNL d   1      14.572  -8.579  -7.659 -0.23 -0.01    +0.026    16.063
ATOM     15  C   UNL d   1      14.794 -10.665 -11.937 -0.02 -0.02    +0.055    16.063
ATOM     16  C   UNL d   1      15.006 -12.345 -14.643 +0.00 -0.00    +0.026    16.063
ATOM     17  C   UNL d   1      13.002  -9.531 -14.654 -0.00 -0.02    +0.109    16.063
ATOM     18  C   UNL d   1      11.619  -9.491  -8.443 -0.30 -0.04    +0.050    16.063
ATOM     19  C   UNL d   1      10.356  -9.401  -9.082 -0.28 -0.03    +0.045    16.063
ATOM     20  C   UNL d   1      10.842  -8.401 -14.712 -0.04 -0.00    +0.045    16.063
ATOM     21  C   UNL d   1      11.948  -8.784 -15.357 -0.01 -0.01    +0.057    16.063
ATOM     22  C   UNL d   1       8.810  -7.432 -14.321 -0.12 -0.00    -0.019    16.063
ATOM     23  C   UNL d   1       9.264  -8.100 -13.085 -0.15 -0.00    +0.045    16.063
ATOM     24  C   UNL d   1       9.748  -7.615 -15.281 -0.05 +0.00    -0.022    16.063
ATOM     25  C   UNL d   1       8.936  -8.793 -10.735 -0.24 -0.01    +0.049    16.063
ATOM     26  C   UNL d   1       9.076  -9.714  -8.651 -0.27 +0.01    -0.018    16.063
ATOM     27  C   UNL d   1       8.185  -9.346  -9.707 -0.27 -0.00    +0.003    16.063
ATOM     28  C   UNL d   1       8.567  -8.135 -11.939 -0.18 -0.00    +0.052    16.063
ATOM     29  C   UNL d   1       9.740  -7.142 -16.695 -0.02 -0.00    +0.046    16.063
ATOM     30  C   UNL d   1       8.700 -10.319  -7.341 -0.18 -0.02    +0.046    16.063
ATOM     31  H   UNL d   1      11.034  -9.244 -12.814 +0.02 -0.05    +0.166    16.063
ATOM     32  H   UNL d   1      11.049  -8.544 -10.884 -0.45 -0.19    +0.166    16.063
ATOM     33  C   UNL d   1      14.087 -11.029  -7.237 -0.13 -0.04    +0.141    16.063
ATOM     34  C   UNL d   1      14.122 -10.519  -5.821 -0.17 -0.07    +0.306    16.063
ATOM     35  O   UNL d   1      13.159 -10.351  -5.092 -0.29 +0.08    -0.251    16.063
ATOM     36  O   UNL d   1      15.369 -10.251  -5.397 -0.66 +0.00    -0.481    16.063
ATOM     37  H   UNL d   1      15.924 -10.951  -5.802 +0.07 -0.03    +0.295    16.063
ATOM     38  C   UNL d   1       6.760  -9.486  -9.671 -0.34 -0.00    +0.017    16.063
ATOM     39  C   UNL d   1       6.016  -9.544  -8.556 +0.08 -0.01    +0.092    16.063
ATOM     40  C   UNL d   1       4.560  -9.671  -8.657 -0.20 +0.00    +0.330    16.063
ATOM     41  O   UNL d   1       3.764  -9.844  -7.753 -1.27 -0.06    -0.246    16.063
ATOM     42  O   UNL d   1       4.174  -9.560  -9.937 -0.30 +0.04    -0.477    16.063
ATOM     43  H   UNL d   1       4.528  -8.690 -10.214 -0.32 -0.09    +0.295    16.063
ATOM     44  C   UNL d   1      16.459 -10.276 -14.610 +0.01 -0.02    +0.141    16.063
ATOM     45  C   UNL d   1      17.135 -10.747 -15.870 +0.00 -0.04    +0.306    16.063
ATOM     46  O   UNL d   1      17.868 -11.714 -15.984 +0.00 +0.03    -0.251    16.063
ATOM     47  O   UNL d   1      16.873  -9.952 -16.923 +0.00 +0.06    -0.481    16.063
ATOM     48  H   UNL d   1      15.906 -10.039 -17.064 +0.00 -0.04    +0.295    16.063
ATOM     49  C   UNL d   1       7.523  -6.671 -14.444 -0.18 -0.00    +0.048    16.063
ATOM     50  C   UNL d   1       6.312  -7.604 -14.466 -0.14 -0.01    +0.125    16.063
ATOM     51  C   UNL d   1       5.432  -7.369 -13.270 -0.17 -0.02    +0.305    16.063
ATOM     52  O   UNL d   1       5.491  -7.920 -12.185 -0.26 +0.01    -0.251    16.063
ATOM     53  O   UNL d   1       4.491  -6.435 -13.513 -0.13 +0.10    -0.481    16.063
ATOM     54  H   UNL d   1       3.982  -6.388 -12.676 -0.33 -0.10    +0.295    16.063
TER
ENDMDL
MODEL       67
USER    Run = 67
USER    Cluster Rank = 30
USER    Number of conformations in this cluster = 1
USER  
USER    RMSD from reference structure       = 19.199 A
USER  
USER    Estimated Free Energy of Binding    =   -4.44 kcal/mol  [=(1)+(2)+(3)-(4)]
USER    Estimated Inhibition Constant, Ki   =  553.73 uM (micromolar)  [Temperature = 298.15 K]
USER    
USER    (1) Final Intermolecular Energy     =   -8.32 kcal/mol
USER        vdW + Hbond + desolv Energy     =   -7.50 kcal/mol
USER        Electrostatic Energy            =   -0.82 kcal/mol
USER    (2) Final Total Internal Energy     =   -2.79 kcal/mol
USER    (3) Torsional Free Energy           =   +3.88 kcal/mol
USER    (4) Unbound System's Energy  [=(2)] =   -2.79 kcal/mol
USER    
USER    
USER  
USER    DPF = D:/Protein_go_brrr/autodock/final/AncMH_nat/heme/dock.dpf
USER    NEWDPF move	heme_opt.pdbqt
USER    NEWDPF about	0.153000 0.018000 -0.028000
USER    NEWDPF tran0	-18.849088 12.074888 6.374020
USER    NEWDPF axisangle0	0.018469 0.998180 0.057412 -75.408523
USER    NEWDPF quaternion0	0.011295 0.610473 0.035112 -0.791178
USER    NEWDPF dihe0	87.74 139.15 121.02 -161.68 -172.49 95.72 -43.71 38.69 101.13 -97.01 0.10 -124.41 38.91 
USER  
USER                              x       y       z    vdW   Elec        q     RMS 
ATOM      1  O   UNL d   1     -19.708  13.386  12.057 -0.02 -0.02    -0.289    19.199
ATOM      2  O   UNL d   1     -20.843   7.018   8.242 -0.18 -0.09    -0.289    19.199
ATOM      3  N   UNL d   1     -19.181  13.125   8.659 -0.10 -0.00    -0.247    19.199
ATOM      4  N   UNL d   1     -19.588  10.231   8.125 -0.05 -0.06    -0.247    19.199
ATOM      5  N   UNL d   1     -18.392  10.634   5.541 -0.13 -0.06    -0.354    19.199
ATOM      6  N   UNL d   1     -17.955  13.631   6.111 +0.01 +0.04    -0.354    19.199
ATOM      7  C   UNL d   1     -18.786  14.863  10.341 -0.06 -0.01    +0.084    19.199
ATOM      8  C   UNL d   1     -21.041   9.004   9.660 -0.13 +0.02    +0.084    19.199
ATOM      9  C   UNL d   1     -20.315  10.303   9.292 -0.16 +0.01    +0.058    19.199
ATOM     10  C   UNL d   1     -18.695  14.402   8.884 -0.11 -0.00    +0.058    19.199
ATOM     11  C   UNL d   1     -19.427  13.627  10.897 -0.05 +0.00    +0.193    19.199
ATOM     12  C   UNL d   1     -19.638  12.659   9.775 -0.11 +0.01    +0.109    19.199
ATOM     13  C   UNL d   1     -20.561   8.171   8.505 -0.17 +0.04    +0.193    19.199
ATOM     14  C   UNL d   1     -17.404  15.034  10.978 -0.09 -0.00    +0.026    19.199
ATOM     15  C   UNL d   1     -20.345  11.396  10.069 -0.14 +0.01    +0.055    19.199
ATOM     16  C   UNL d   1     -22.562   9.156   9.559 -0.05 +0.00    +0.026    19.199
ATOM     17  C   UNL d   1     -19.683   9.029   7.653 -0.19 +0.03    +0.109    19.199
ATOM     18  C   UNL d   1     -18.258  15.226   7.912 -0.11 -0.01    +0.050    19.199
ATOM     19  C   UNL d   1     -18.218  14.917   6.529 -0.10 -0.01    +0.045    19.199
ATOM     20  C   UNL d   1     -18.447   9.264   5.564 -0.35 +0.01    +0.045    19.199
ATOM     21  C   UNL d   1     -19.030   8.464   6.463 -0.32 +0.02    +0.057    19.199
ATOM     22  C   UNL d   1     -17.283   9.925   3.713 -0.35 -0.00    -0.019    19.199
ATOM     23  C   UNL d   1     -17.709  11.125   4.461 -0.30 -0.00    +0.045    19.199
ATOM     24  C   UNL d   1     -17.725   8.827   4.371 -0.39 -0.01    -0.022    19.199
ATOM     25  C   UNL d   1     -17.874  13.576   4.739 -0.19 -0.01    +0.049    19.199
ATOM     26  C   UNL d   1     -18.348  15.709   5.398 -0.06 +0.00    -0.018    19.199
ATOM     27  C   UNL d   1     -18.149  14.853   4.271 -0.12 -0.00    +0.003    19.199
ATOM     28  C   UNL d   1     -17.457  12.387   4.081 -0.27 -0.01    +0.052    19.199
ATOM     29  C   UNL d   1     -17.558   7.391   4.005 -0.33 +0.02    +0.046    19.199
ATOM     30  C   UNL d   1     -18.641  17.171   5.365 -0.02 -0.01    +0.046    19.199
ATOM     31  H   UNL d   1     -18.888  11.192   6.228 +0.05 +0.03    +0.166    19.199
ATOM     32  H   UNL d   1     -17.804  12.856   6.746 +0.06 -0.01    +0.166    19.199
ATOM     33  C   UNL d   1     -19.674  16.087  10.589 -0.01 -0.01    +0.141    19.199
ATOM     34  C   UNL d   1     -20.328  16.064  11.944 +0.00 -0.01    +0.306    19.199
ATOM     35  O   UNL d   1     -21.527  16.035  12.164 -0.00 -0.00    -0.251    19.199
ATOM     36  O   UNL d   1     -19.436  16.075  12.950 +0.00 +0.02    -0.481    19.199
ATOM     37  H   UNL d   1     -19.313  15.129  13.181 +0.01 -0.00    +0.295    19.199
ATOM     38  C   UNL d   1     -18.183  15.271   2.902 -0.11 -0.01    +0.017    19.199
ATOM     39  C   UNL d   1     -17.117  15.660   2.185 +0.10 -0.09    +0.092    19.199
ATOM     40  C   UNL d   1     -17.284  16.048   0.782 -0.06 -0.19    +0.330    19.199
ATOM     41  O   UNL d   1     -17.458  17.166   0.336 -0.05 +0.04    -0.246    19.199
ATOM     42  O   UNL d   1     -17.210  14.966  -0.009 -0.05 +0.34    -0.477    19.199
ATOM     43  H   UNL d   1     -16.480  14.442   0.379 -0.46 -0.52    +0.295    19.199
ATOM     44  C   UNL d   1     -20.634   8.376  10.996 -0.14 +0.04    +0.141    19.199
ATOM     45  C   UNL d   1     -20.690   6.871  10.987 -0.15 +0.10    +0.306    19.199
ATOM     46  O   UNL d   1     -21.658   6.178  11.246 -0.06 -0.09    -0.251    19.199
ATOM     47  O   UNL d   1     -19.505   6.314  10.675 -0.12 -0.09    -0.481    19.199
ATOM     48  H   UNL d   1     -19.297   6.658   9.781 -0.33 +0.02    +0.295    19.199
ATOM     49  C   UNL d   1     -16.480   9.963   2.446 -0.40 -0.01    +0.048    19.199
ATOM     50  C   UNL d   1     -17.002  11.020   1.473 -0.24 -0.06    +0.125    19.199
ATOM     51  C   UNL d   1     -16.198  11.024   0.204 -0.19 -0.14    +0.305    19.199
ATOM     52  O   UNL d   1     -15.659  10.075  -0.337 -0.21 +0.03    -0.251    19.199
ATOM     53  O   UNL d   1     -16.100  12.259  -0.327 -0.08 +0.42    -0.481    19.199
ATOM     54  H   UNL d   1     -16.335  12.856   0.414 -0.43 -0.56    +0.295    19.199
TER
ENDMDL
MODEL        6
USER    Run = 6
USER    Cluster Rank = 31
USER    Number of conformations in this cluster = 1
USER  
USER    RMSD from reference structure       = 14.263 A
USER  
USER    Estimated Free Energy of Binding    =   -4.32 kcal/mol  [=(1)+(2)+(3)-(4)]
USER    Estimated Inhibition Constant, Ki   =  683.34 uM (micromolar)  [Temperature = 298.15 K]
USER    
USER    (1) Final Intermolecular Energy     =   -8.20 kcal/mol
USER        vdW + Hbond + desolv Energy     =   -7.96 kcal/mol
USER        Electrostatic Energy            =   -0.24 kcal/mol
USER    (2) Final Total Internal Energy     =   -4.63 kcal/mol
USER    (3) Torsional Free Energy           =   +3.88 kcal/mol
USER    (4) Unbound System's Energy  [=(2)] =   -4.63 kcal/mol
USER    
USER    
USER  
USER    DPF = D:/Protein_go_brrr/autodock/final/AncMH_nat/heme/dock.dpf
USER    NEWDPF move	heme_opt.pdbqt
USER    NEWDPF about	0.153000 0.018000 -0.028000
USER    NEWDPF tran0	-2.610347 -10.595957 -12.450237
USER    NEWDPF axisangle0	0.324419 0.014364 0.945804 172.044527
USER    NEWDPF quaternion0	0.323637 0.014330 0.943526 0.069369
USER    NEWDPF dihe0	135.80 161.06 -107.67 36.01 -133.98 84.51 128.70 -6.62 24.30 -47.58 -77.16 -102.17 4.01 
USER  
USER                              x       y       z    vdW   Elec        q     RMS 
ATOM      1  O   UNL d   1       2.402 -11.539 -15.406 -0.03 +0.03    -0.289    14.263
ATOM      2  O   UNL d   1      -2.176  -5.589 -15.239 -0.13 +0.01    -0.289    14.263
ATOM      3  N   UNL d   1      -0.537 -11.494 -13.603 -0.09 +0.09    -0.247    14.263
ATOM      4  N   UNL d   1      -1.476  -8.690 -13.897 -0.12 +0.05    -0.247    14.263
ATOM      5  N   UNL d   1      -3.343  -9.190 -11.768 -0.14 +0.08    -0.354    14.263
ATOM      6  N   UNL d   1      -2.350 -12.091 -11.457 -0.10 +0.15    -0.354    14.263
ATOM      7  C   UNL d   1       1.334 -13.062 -13.821 -0.10 -0.01    +0.084    14.263
ATOM      8  C   UNL d   1      -0.752  -7.472 -15.888 -0.11 -0.01    +0.084    14.263
ATOM      9  C   UNL d   1      -0.678  -8.732 -15.018 -0.15 -0.01    +0.058    14.263
ATOM     10  C   UNL d   1      -0.014 -12.707 -13.187 -0.15 -0.02    +0.058    14.263
ATOM     11  C   UNL d   1       1.472 -11.843 -14.683 -0.08 -0.03    +0.193    14.263
ATOM     12  C   UNL d   1       0.263 -10.983 -14.481 -0.13 -0.02    +0.109    14.263
ATOM     13  C   UNL d   1      -1.711  -6.693 -15.032 -0.17 -0.01    +0.193    14.263
ATOM     14  C   UNL d   1       2.467 -13.073 -12.793 -0.14 -0.00    +0.026    14.263
ATOM     15  C   UNL d   1       0.133  -9.762 -15.302 -0.14 -0.01    +0.055    14.263
ATOM     16  C   UNL d   1      -1.416  -7.752 -17.239 -0.04 -0.00    +0.026    14.263
ATOM     17  C   UNL d   1      -2.066  -7.539 -13.853 -0.27 -0.02    +0.109    14.263
ATOM     18  C   UNL d   1      -0.654 -13.564 -12.369 -0.06 -0.02    +0.050    14.263
ATOM     19  C   UNL d   1      -1.939 -13.358 -11.805 -0.10 -0.02    +0.045    14.263
ATOM     20  C   UNL d   1      -3.482  -7.831 -11.889 -0.29 -0.01    +0.045    14.263
ATOM     21  C   UNL d   1      -2.962  -7.015 -12.811 -0.28 -0.01    +0.057    14.263
ATOM     22  C   UNL d   1      -4.664  -8.535 -10.065 -0.37 -0.00    -0.019    14.263
ATOM     23  C   UNL d   1      -4.021  -9.705 -10.696 -0.29 -0.00    +0.045    14.263
ATOM     24  C   UNL d   1      -4.342  -7.429 -10.777 -0.40 -0.00    -0.022    14.263
ATOM     25  C   UNL d   1      -3.582 -12.133 -10.848 -0.15 -0.01    +0.049    14.263
ATOM     26  C   UNL d   1      -2.945 -14.241 -11.446 -0.06 +0.00    -0.018    14.263
ATOM     27  C   UNL d   1      -3.989 -13.460 -10.860 -0.06 -0.00    +0.003    14.263
ATOM     28  C   UNL d   1      -4.145 -10.968 -10.259 -0.26 -0.00    +0.052    14.263
ATOM     29  C   UNL d   1      -4.757  -6.016 -10.544 -0.33 +0.00    +0.046    14.263
ATOM     30  C   UNL d   1      -2.942 -15.720 -11.637 -0.02 -0.01    +0.046    14.263
ATOM     31  H   UNL d   1      -2.849  -9.732 -12.468 -0.12 -0.06    +0.166    14.263
ATOM     32  H   UNL d   1      -1.788 -11.261 -11.601 -0.52 -0.13    +0.166    14.263
ATOM     33  C   UNL d   1       1.342 -14.332 -14.680 -0.02 -0.02    +0.141    14.263
ATOM     34  C   UNL d   1       0.615 -14.152 -15.986 +0.00 -0.03    +0.306    14.263
ATOM     35  O   UNL d   1      -0.592 -14.189 -16.150 -0.00 +0.02    -0.251    14.263
ATOM     36  O   UNL d   1       1.450 -13.932 -17.017 +0.00 +0.04    -0.481    14.263
ATOM     37  H   UNL d   1       2.075 -13.251 -16.688 +0.01 -0.03    +0.295    14.263
ATOM     38  C   UNL d   1      -5.215 -13.982 -10.336 -0.04 -0.00    +0.017    14.263
ATOM     39  C   UNL d   1      -5.584 -13.946  -9.047 -0.08 -0.02    +0.092    14.263
ATOM     40  C   UNL d   1      -6.878 -14.501  -8.641 -0.04 -0.11    +0.330    14.263
ATOM     41  O   UNL d   1      -7.149 -15.665  -8.415 -0.03 +0.06    -0.246    14.263
ATOM     42  O   UNL d   1      -7.787 -13.520  -8.532 -0.06 +0.25    -0.477    14.263
ATOM     43  H   UNL d   1      -7.247 -12.707  -8.453 +0.08 -0.16    +0.295    14.263
ATOM     44  C   UNL d   1       0.567  -6.713 -16.064 -0.12 -0.01    +0.141    14.263
ATOM     45  C   UNL d   1       0.715  -5.550 -15.120 -0.19 -0.03    +0.306    14.263
ATOM     46  O   UNL d   1       1.128  -5.593 -13.974 -0.34 +0.04    -0.251    14.263
ATOM     47  O   UNL d   1       0.307  -4.390 -15.664 -0.05 +0.04    -0.481    14.263
ATOM     48  H   UNL d   1      -0.670  -4.467 -15.709 +0.08 -0.02    +0.295    14.263
ATOM     49  C   UNL d   1      -5.512  -8.603  -8.829 -0.42 +0.02    +0.048    14.263
ATOM     50  C   UNL d   1      -6.930  -9.083  -9.139 -0.12 +0.10    +0.125    14.263
ATOM     51  C   UNL d   1      -7.113 -10.516  -8.728 -0.15 +0.07    +0.305    14.263
ATOM     52  O   UNL d   1      -6.248 -11.316  -8.417 -0.20 +0.04    -0.251    14.263
ATOM     53  O   UNL d   1      -8.410 -10.883  -8.741 -0.68 -0.22    -0.481    14.263
ATOM     54  H   UNL d   1      -8.491 -11.501  -7.985 -0.19 -0.27    +0.295    14.263
TER
ENDMDL
MODEL       44
USER    Run = 44
USER    Cluster Rank = 32
USER    Number of conformations in this cluster = 2
USER  
USER    RMSD from reference structure       = 13.786 A
USER  
USER    Estimated Free Energy of Binding    =   -4.30 kcal/mol  [=(1)+(2)+(3)-(4)]
USER    Estimated Inhibition Constant, Ki   =  709.08 uM (micromolar)  [Temperature = 298.15 K]
USER    
USER    (1) Final Intermolecular Energy     =   -8.17 kcal/mol
USER        vdW + Hbond + desolv Energy     =   -7.75 kcal/mol
USER        Electrostatic Energy            =   -0.42 kcal/mol
USER    (2) Final Total Internal Energy     =   -3.78 kcal/mol
USER    (3) Torsional Free Energy           =   +3.88 kcal/mol
USER    (4) Unbound System's Energy  [=(2)] =   -3.78 kcal/mol
USER    
USER    
USER  
USER    DPF = D:/Protein_go_brrr/autodock/final/AncMH_nat/heme/dock.dpf
USER    NEWDPF move	heme_opt.pdbqt
USER    NEWDPF about	0.153000 0.018000 -0.028000
USER    NEWDPF tran0	-14.111845 9.628332 -3.072860
USER    NEWDPF axisangle0	0.905381 -0.102695 -0.411994 -132.088022
USER    NEWDPF quaternion0	0.827390 -0.093848 -0.376503 -0.406035
USER    NEWDPF dihe0	-133.06 109.14 -111.83 6.65 43.21 -67.06 120.91 109.43 151.47 -25.60 -44.10 10.71 2.78 
USER  
USER                              x       y       z    vdW   Elec        q     RMS 
ATOM      1  O   UNL d   1     -18.232  10.723   0.999 -0.05 +0.04    -0.289    13.786
ATOM      2  O   UNL d   1     -15.594  14.965  -4.608 -0.02 -0.00    -0.289    13.786
ATOM      3  N   UNL d   1     -15.681   9.694  -1.081 -0.01 -0.00    -0.247    13.786
ATOM      4  N   UNL d   1     -15.548  11.852  -3.119 -0.02 +0.01    -0.247    13.786
ATOM      5  N   UNL d   1     -13.902  10.118  -4.715 +0.06 -0.00    -0.354    13.786
ATOM      6  N   UNL d   1     -14.061   7.877  -2.604 -0.07 -0.06    -0.354    13.786
ATOM      7  C   UNL d   1     -16.985   8.642   0.708 -0.20 +0.01    +0.084    13.786
ATOM      8  C   UNL d   1     -16.329  14.070  -2.452 -0.10 -0.02    +0.084    13.786
ATOM      9  C   UNL d   1     -16.152  12.584  -2.121 -0.16 -0.01    +0.058    13.786
ATOM     10  C   UNL d   1     -15.885   8.534  -0.353 -0.25 +0.01    +0.058    13.786
ATOM     11  C   UNL d   1     -17.353  10.074   0.463 -0.11 -0.02    +0.193    13.786
ATOM     12  C   UNL d   1     -16.475  10.608  -0.626 -0.18 -0.02    +0.109    13.786
ATOM     13  C   UNL d   1     -15.749  14.038  -3.837 -0.05 -0.01    +0.193    13.786
ATOM     14  C   UNL d   1     -18.190   7.757   0.378 -0.12 +0.01    +0.026    13.786
ATOM     15  C   UNL d   1     -16.594  12.037  -0.978 -0.20 -0.02    +0.055    13.786
ATOM     16  C   UNL d   1     -15.447  14.958  -1.569 -0.25 -0.01    +0.026    13.786
ATOM     17  C   UNL d   1     -15.320  12.636  -4.124 -0.11 -0.00    +0.109    13.786
ATOM     18  C   UNL d   1     -15.137   7.422  -0.480 -0.33 +0.02    +0.050    13.786
ATOM     19  C   UNL d   1     -14.047   7.261  -1.373 -0.30 +0.01    +0.045    13.786
ATOM     20  C   UNL d   1     -14.141  11.116  -5.623 -0.12 -0.00    +0.045    13.786
ATOM     21  C   UNL d   1     -14.749  12.292  -5.435 -0.12 -0.00    +0.057    13.786
ATOM     22  C   UNL d   1     -13.049   9.408  -6.675 -0.11 +0.00    -0.019    13.786
ATOM     23  C   UNL d   1     -13.248   9.044  -5.258 -0.12 -0.00    +0.045    13.786
ATOM     24  C   UNL d   1     -13.579  10.636  -6.885 -0.10 +0.00    -0.022    13.786
ATOM     25  C   UNL d   1     -12.955   7.515  -3.338 -0.22 +0.00    +0.049    13.786
ATOM     26  C   UNL d   1     -12.885   6.510  -1.289 -0.38 -0.01    -0.018    13.786
ATOM     27  C   UNL d   1     -12.190   6.689  -2.525 -0.33 +0.00    +0.003    13.786
ATOM     28  C   UNL d   1     -12.826   7.899  -4.700 -0.18 -0.00    +0.052    13.786
ATOM     29  C   UNL d   1     -13.616  11.434  -8.144 -0.06 -0.00    +0.046    13.786
ATOM     30  C   UNL d   1     -12.444   5.678  -0.134 -0.26 +0.03    +0.046    13.786
ATOM     31  H   UNL d   1     -14.129  10.234  -3.733 +0.09 +0.01    +0.166    13.786
ATOM     32  H   UNL d   1     -14.812   8.477  -2.922 +0.04 +0.02    +0.166    13.786
ATOM     33  C   UNL d   1     -16.522   8.445   2.155 -0.19 +0.03    +0.141    13.786
ATOM     34  C   UNL d   1     -17.656   8.105   3.084 -0.19 +0.11    +0.306    13.786
ATOM     35  O   UNL d   1     -17.976   6.988   3.452 -0.27 -0.16    -0.251    13.786
ATOM     36  O   UNL d   1     -18.327   9.193   3.504 -0.03 -0.09    -0.481    13.786
ATOM     37  H   UNL d   1     -18.447   9.736   2.695 +0.11 +0.02    +0.295    13.786
ATOM     38  C   UNL d   1     -10.942   6.074  -2.867 -0.36 -0.00    +0.017    13.786
ATOM     39  C   UNL d   1      -9.886   6.709  -3.398 -0.43 -0.02    +0.092    13.786
ATOM     40  C   UNL d   1      -8.657   5.965  -3.687 -0.28 -0.10    +0.330    13.786
ATOM     41  O   UNL d   1      -7.875   5.483  -2.890 -0.39 +0.04    -0.246    13.786
ATOM     42  O   UNL d   1      -8.483   5.859  -5.013 -0.14 +0.35    -0.477    13.786
ATOM     43  H   UNL d   1      -9.180   5.230  -5.292 -0.29 -0.38    +0.295    13.786
ATOM     44  C   UNL d   1     -17.776  14.573  -2.474 -0.03 -0.02    +0.141    13.786
ATOM     45  C   UNL d   1     -18.535  14.145  -3.702 +0.00 -0.01    +0.306    13.786
ATOM     46  O   UNL d   1     -19.002  13.040  -3.920 -0.00 +0.00    -0.251    13.786
ATOM     47  O   UNL d   1     -18.643  15.132  -4.610 +0.00 +0.00    -0.481    13.786
ATOM     48  H   UNL d   1     -17.727  15.276  -4.929 +0.01 +0.00    +0.295    13.786
ATOM     49  C   UNL d   1     -12.381   8.523  -7.686 -0.08 -0.01    +0.048    13.786
ATOM     50  C   UNL d   1     -10.857   8.599  -7.589 -0.19 -0.03    +0.125    13.786
ATOM     51  C   UNL d   1     -10.244   7.232  -7.691 -0.15 -0.19    +0.305    13.786
ATOM     52  O   UNL d   1      -9.685   6.738  -8.655 -0.19 +0.22    -0.251    13.786
ATOM     53  O   UNL d   1     -10.380   6.531  -6.548 -0.07 +0.38    -0.481    13.786
ATOM     54  H   UNL d   1      -9.860   5.715  -6.705 -0.27 -0.56    +0.295    13.786
TER
ENDMDL
MODEL       65
USER    Run = 65
USER    Cluster Rank = 33
USER    Number of conformations in this cluster = 1
USER  
USER    RMSD from reference structure       = 11.588 A
USER  
USER    Estimated Free Energy of Binding    =   -4.29 kcal/mol  [=(1)+(2)+(3)-(4)]
USER    Estimated Inhibition Constant, Ki   =  719.05 uM (micromolar)  [Temperature = 298.15 K]
USER    
USER    (1) Final Intermolecular Energy     =   -8.17 kcal/mol
USER        vdW + Hbond + desolv Energy     =   -7.60 kcal/mol
USER        Electrostatic Energy            =   -0.57 kcal/mol
USER    (2) Final Total Internal Energy     =   -2.74 kcal/mol
USER    (3) Torsional Free Energy           =   +3.88 kcal/mol
USER    (4) Unbound System's Energy  [=(2)] =   -2.74 kcal/mol
USER    
USER    
USER  
USER    DPF = D:/Protein_go_brrr/autodock/final/AncMH_nat/heme/dock.dpf
USER    NEWDPF move	heme_opt.pdbqt
USER    NEWDPF about	0.153000 0.018000 -0.028000
USER    NEWDPF tran0	-14.786566 -1.165604 1.736797
USER    NEWDPF axisangle0	0.136184 0.660067 0.738760 116.280932
USER    NEWDPF quaternion0	0.115667 0.560624 0.627462 0.527839
USER    NEWDPF dihe0	145.88 93.13 -145.57 156.72 -138.17 -55.88 129.11 -58.21 18.06 -14.66 166.63 -68.12 180.00 
USER  
USER                              x       y       z    vdW   Elec        q     RMS 
ATOM      1  O   UNL d   1     -11.404   2.672  -1.193 -0.13 -0.16    -0.289    11.588
ATOM      2  O   UNL d   1     -16.814  -1.954  -3.583 -0.05 -0.19    -0.289    11.588
ATOM      3  N   UNL d   1     -13.042   0.475   0.900 -0.27 -0.36    -0.247    11.588
ATOM      4  N   UNL d   1     -15.160  -0.674  -0.838 -0.14 -0.32    -0.247    11.588
ATOM      5  N   UNL d   1     -16.408  -1.722   1.531 -0.05 -0.38    -0.354    11.588
ATOM      6  N   UNL d   1     -14.217  -0.510   3.329 -0.10 -0.30    -0.354    11.588
ATOM      7  C   UNL d   1     -11.398   2.265   1.217 -0.27 +0.07    +0.084    11.588
ATOM      8  C   UNL d   1     -14.736  -0.706  -3.245 -0.10 +0.06    +0.084    11.588
ATOM      9  C   UNL d   1     -14.300  -0.281  -1.839 -0.14 +0.06    +0.058    11.588
ATOM     10  C   UNL d   1     -12.286   1.175   1.825 -0.28 +0.06    +0.058    11.588
ATOM     11  C   UNL d   1     -11.773   2.045  -0.218 -0.15 +0.18    +0.193    11.588
ATOM     12  C   UNL d   1     -12.756   0.917  -0.281 -0.09 +0.15    +0.109    11.588
ATOM     13  C   UNL d   1     -16.022  -1.382  -2.861 -0.08 +0.16    +0.193    11.588
ATOM     14  C   UNL d   1     -11.844   3.669   1.635 -0.23 +0.02    +0.026    11.588
ATOM     15  C   UNL d   1     -13.202   0.456  -1.612 -0.20 +0.05    +0.055    11.588
ATOM     16  C   UNL d   1     -13.789  -1.752  -3.841 +0.04 +0.02    +0.026    11.588
ATOM     17  C   UNL d   1     -16.166  -1.287  -1.376 -0.11 +0.12    +0.109    11.588
ATOM     18  C   UNL d   1     -12.243   0.886   3.139 -0.38 +0.03    +0.050    11.588
ATOM     19  C   UNL d   1     -12.963  -0.158   3.775 -0.24 +0.03    +0.045    11.588
ATOM     20  C   UNL d   1     -17.395  -1.973   0.614 -0.08 +0.04    +0.045    11.588
ATOM     21  C   UNL d   1     -17.362  -1.829  -0.714 -0.10 +0.05    +0.057    11.588
ATOM     22  C   UNL d   1     -18.185  -2.459   2.702 -0.03 -0.01    -0.019    11.588
ATOM     23  C   UNL d   1     -16.791  -1.985   2.819 -0.08 +0.04    +0.045    11.588
ATOM     24  C   UNL d   1     -18.536  -2.451   1.394 -0.03 -0.02    -0.022    11.588
ATOM     25  C   UNL d   1     -14.766  -1.475   4.141 -0.16 +0.03    +0.049    11.588
ATOM     26  C   UNL d   1     -12.675  -0.940   4.883 -0.30 -0.01    -0.018    11.588
ATOM     27  C   UNL d   1     -13.808  -1.784   5.097 -0.30 +0.00    +0.003    11.588
ATOM     28  C   UNL d   1     -16.116  -1.886   3.974 -0.13 +0.04    +0.052    11.588
ATOM     29  C   UNL d   1     -19.831  -2.852   0.774 -0.00 +0.03    +0.046    11.588
ATOM     30  C   UNL d   1     -11.423  -0.910   5.693 -0.27 +0.01    +0.046    11.588
ATOM     31  H   UNL d   1     -15.476  -1.448   1.239 +0.04 +0.20    +0.166    11.588
ATOM     32  H   UNL d   1     -14.671  -0.075   2.535 +0.05 +0.21    +0.166    11.588
ATOM     33  C   UNL d   1      -9.891   2.071   1.415 -0.20 +0.05    +0.141    11.588
ATOM     34  C   UNL d   1      -9.363   0.862   0.692 -0.26 +0.08    +0.306    11.588
ATOM     35  O   UNL d   1      -9.379  -0.286   1.102 -0.35 -0.06    -0.251    11.588
ATOM     36  O   UNL d   1      -8.843   1.164  -0.511 -0.13 -0.06    -0.481    11.588
ATOM     37  H   UNL d   1      -9.423   1.874  -0.859 +0.17 +0.06    +0.295    11.588
ATOM     38  C   UNL d   1     -13.936  -2.742   6.154 -0.36 +0.00    +0.017    11.588
ATOM     39  C   UNL d   1     -15.088  -3.094   6.745 -0.27 +0.03    +0.092    11.588
ATOM     40  C   UNL d   1     -15.085  -4.104   7.807 -0.27 +0.07    +0.330    11.588
ATOM     41  O   UNL d   1     -14.683  -5.250   7.741 -0.48 -0.09    -0.246    11.588
ATOM     42  O   UNL d   1     -15.599  -3.589   8.935 -0.30 -0.06    -0.477    11.588
ATOM     43  H   UNL d   1     -14.829  -3.173   9.375 -0.41 -0.09    +0.295    11.588
ATOM     44  C   UNL d   1     -14.991   0.438  -4.232 -0.03 +0.06    +0.141    11.588
ATOM     45  C   UNL d   1     -16.141   1.323  -3.832 +0.00 +0.16    +0.306    11.588
ATOM     46  O   UNL d   1     -16.097   2.271  -3.068 -0.04 -0.20    -0.251    11.588
ATOM     47  O   UNL d   1     -17.301   0.946  -4.400 +0.01 -0.19    -0.481    11.588
ATOM     48  H   UNL d   1     -17.242  -0.031  -4.460 +0.02 +0.12    +0.295    11.588
ATOM     49  C   UNL d   1     -19.040  -2.857   3.869 -0.03 +0.03    +0.048    11.588
ATOM     50  C   UNL d   1     -19.946  -1.715   4.326 -0.04 +0.09    +0.125    11.588
ATOM     51  C   UNL d   1     -19.532  -0.416   3.695 -0.02 +0.39    +0.305    11.588
ATOM     52  O   UNL d   1     -18.485   0.186   3.853 -0.13 -0.37    -0.251    11.588
ATOM     53  O   UNL d   1     -20.489   0.079   2.885 -0.14 -0.80    -0.481    11.588
ATOM     54  H   UNL d   1     -21.015  -0.708   2.630 +0.02 +0.29    +0.295    11.588
TER
ENDMDL
MODEL       71
USER    Run = 71
USER    Cluster Rank = 34
USER    Number of conformations in this cluster = 1
USER  
USER    RMSD from reference structure       = 11.238 A
USER  
USER    Estimated Free Energy of Binding    =   -4.20 kcal/mol  [=(1)+(2)+(3)-(4)]
USER    Estimated Inhibition Constant, Ki   =  835.11 uM (micromolar)  [Temperature = 298.15 K]
USER    
USER    (1) Final Intermolecular Energy     =   -8.08 kcal/mol
USER        vdW + Hbond + desolv Energy     =   -7.71 kcal/mol
USER        Electrostatic Energy            =   -0.37 kcal/mol
USER    (2) Final Total Internal Energy     =   -2.52 kcal/mol
USER    (3) Torsional Free Energy           =   +3.88 kcal/mol
USER    (4) Unbound System's Energy  [=(2)] =   -2.52 kcal/mol
USER    
USER    
USER  
USER    DPF = D:/Protein_go_brrr/autodock/final/AncMH_nat/heme/dock.dpf
USER    NEWDPF move	heme_opt.pdbqt
USER    NEWDPF about	0.153000 0.018000 -0.028000
USER    NEWDPF tran0	10.335521 5.706516 6.691882
USER    NEWDPF axisangle0	0.079059 0.159975 0.983950 137.174074
USER    NEWDPF quaternion0	0.073602 0.148932 0.916031 0.365087
USER    NEWDPF dihe0	151.45 64.63 125.73 -180.00 -141.30 -19.51 -49.08 51.03 13.55 -137.04 -122.08 91.68 147.33 
USER  
USER                              x       y       z    vdW   Elec        q     RMS 
ATOM      1  O   UNL d   1      15.574   8.384   6.307 -0.01 +0.09    -0.289    11.238
ATOM      2  O   UNL d   1       8.867  10.249   3.491 -0.34 +0.04    -0.289    11.238
ATOM      3  N   UNL d   1      12.773   6.407   6.686 -0.08 +0.21    -0.247    11.238
ATOM      4  N   UNL d   1      10.600   8.073   5.533 -0.15 +0.12    -0.247    11.238
ATOM      5  N   UNL d   1       8.708   6.278   6.744 -0.07 +0.17    -0.354    11.238
ATOM      6  N   UNL d   1      10.969   4.567   7.953 -0.04 +0.22    -0.354    11.238
ATOM      7  C   UNL d   1      15.067   6.340   7.549 -0.02 -0.03    +0.084    11.238
ATOM      8  C   UNL d   1      11.231   9.719   3.841 -0.26 -0.02    +0.084    11.238
ATOM      9  C   UNL d   1      11.652   8.666   4.872 -0.19 -0.03    +0.058    11.238
ATOM     10  C   UNL d   1      13.667   5.720   7.490 -0.07 -0.03    +0.058    11.238
ATOM     11  C   UNL d   1      14.810   7.489   6.620 -0.02 -0.08    +0.193    11.238
ATOM     12  C   UNL d   1      13.393   7.404   6.144 -0.07 -0.08    +0.109    11.238
ATOM     13  C   UNL d   1       9.747   9.640   4.067 -0.26 -0.04    +0.193    11.238
ATOM     14  C   UNL d   1      15.394   6.891   8.939 +0.00 -0.01    +0.026    11.238
ATOM     15  C   UNL d   1      12.936   8.386   5.140 -0.14 -0.04    +0.055    11.238
ATOM     16  C   UNL d   1      11.536   9.266   2.410 -0.39 -0.01    +0.026    11.238
ATOM     17  C   UNL d   1       9.497   8.611   5.121 -0.25 -0.03    +0.109    11.238
ATOM     18  C   UNL d   1      13.388   4.557   8.107 -0.07 -0.02    +0.050    11.238
ATOM     19  C   UNL d   1      12.151   3.867   8.040 -0.10 -0.02    +0.045    11.238
ATOM     20  C   UNL d   1       7.859   7.275   6.337 -0.26 -0.01    +0.045    11.238
ATOM     21  C   UNL d   1       8.127   8.347   5.584 -0.32 -0.01    +0.057    11.238
ATOM     22  C   UNL d   1       6.685   5.776   7.598 -0.25 +0.01    -0.019    11.238
ATOM     23  C   UNL d   1       8.089   5.328   7.512 -0.19 -0.03    +0.045    11.238
ATOM     24  C   UNL d   1       6.555   6.928   6.899 -0.28 +0.01    -0.022    11.238
ATOM     25  C   UNL d   1       9.894   3.708   7.992 -0.17 -0.04    +0.049    11.238
ATOM     26  C   UNL d   1      11.838   2.517   8.099 -0.13 +0.01    -0.018    11.238
ATOM     27  C   UNL d   1      10.413   2.422   8.048 -0.21 -0.00    +0.003    11.238
ATOM     28  C   UNL d   1       8.566   4.206   8.074 -0.06 -0.06    +0.052    11.238
ATOM     29  C   UNL d   1       5.333   7.755   6.682 -0.31 -0.00    +0.046    11.238
ATOM     30  C   UNL d   1      12.802   1.384   8.194 -0.09 -0.00    +0.046    11.238
ATOM     31  H   UNL d   1       9.669   6.241   6.423 +0.06 -0.09    +0.166    11.238
ATOM     32  H   UNL d   1      10.918   5.578   7.910 +0.04 -0.09    +0.166    11.238
ATOM     33  C   UNL d   1      16.199   5.458   7.013 -0.01 -0.05    +0.141    11.238
ATOM     34  C   UNL d   1      16.024   5.110   5.559 -0.04 -0.15    +0.306    11.238
ATOM     35  O   UNL d   1      15.392   4.167   5.115 -0.14 +0.17    -0.251    11.238
ATOM     36  O   UNL d   1      16.653   5.972   4.741 +0.00 +0.20    -0.481    11.238
ATOM     37  H   UNL d   1      16.626   6.829   5.217 +0.03 -0.11    +0.295    11.238
ATOM     38  C   UNL d   1       9.665   1.202   8.099 -0.29 -0.01    +0.017    11.238
ATOM     39  C   UNL d   1       9.874   0.133   7.316 -0.28 -0.01    +0.092    11.238
ATOM     40  C   UNL d   1       9.047  -1.065   7.481 -0.22 -0.08    +0.330    11.238
ATOM     41  O   UNL d   1       8.407  -1.398   8.461 -0.20 +0.10    -0.246    11.238
ATOM     42  O   UNL d   1       9.067  -1.798   6.357 -0.22 +0.04    -0.477    11.238
ATOM     43  H   UNL d   1       8.140  -1.770   6.042 -0.38 -0.16    +0.295    11.238
ATOM     44  C   UNL d   1      11.750  11.138   4.096 -0.14 -0.01    +0.141    11.238
ATOM     45  C   UNL d   1      11.442  12.094   2.974 -0.14 +0.02    +0.306    11.238
ATOM     46  O   UNL d   1      12.165  12.363   2.030 -0.15 -0.06    -0.251    11.238
ATOM     47  O   UNL d   1      10.243  12.685   3.117 -0.08 -0.04    -0.481    11.238
ATOM     48  H   UNL d   1       9.608  11.942   3.203 +0.14 +0.01    +0.295    11.238
ATOM     49  C   UNL d   1       5.614   5.051   8.359 -0.41 -0.04    +0.048    11.238
ATOM     50  C   UNL d   1       5.905   5.020   9.860 -0.26 -0.13    +0.125    11.238
ATOM     51  C   UNL d   1       6.022   6.413  10.412 -0.11 -0.10    +0.305    11.238
ATOM     52  O   UNL d   1       5.293   7.364  10.190 -0.15 +0.00    -0.251    11.238
ATOM     53  O   UNL d   1       7.088   6.544  11.227 -0.01 +0.15    -0.481    11.238
ATOM     54  H   UNL d   1       7.495   5.653  11.232 +0.06 -0.16    +0.295    11.238
TER
ENDMDL
MODEL       75
USER    Run = 75
USER    Cluster Rank = 35
USER    Number of conformations in this cluster = 1
USER  
USER    RMSD from reference structure       = 13.046 A
USER  
USER    Estimated Free Energy of Binding    =   -4.05 kcal/mol  [=(1)+(2)+(3)-(4)]
USER    Estimated Inhibition Constant, Ki   =    1.07 mM (millimolar)  [Temperature = 298.15 K]
USER    
USER    (1) Final Intermolecular Energy     =   -7.93 kcal/mol
USER        vdW + Hbond + desolv Energy     =   -7.60 kcal/mol
USER        Electrostatic Energy            =   -0.33 kcal/mol
USER    (2) Final Total Internal Energy     =   -3.11 kcal/mol
USER    (3) Torsional Free Energy           =   +3.88 kcal/mol
USER    (4) Unbound System's Energy  [=(2)] =   -3.11 kcal/mol
USER    
USER    
USER  
USER    DPF = D:/Protein_go_brrr/autodock/final/AncMH_nat/heme/dock.dpf
USER    NEWDPF move	heme_opt.pdbqt
USER    NEWDPF about	0.153000 0.018000 -0.028000
USER    NEWDPF tran0	6.627305 11.604871 7.810639
USER    NEWDPF axisangle0	0.526839 0.846852 0.072675 154.597179
USER    NEWDPF quaternion0	0.513947 0.826129 0.070897 0.219870
USER    NEWDPF dihe0	179.32 134.53 -148.22 78.22 -152.68 -32.00 -64.66 58.66 12.67 117.75 -12.29 -15.01 26.24 
USER  
USER                              x       y       z    vdW   Elec        q     RMS 
ATOM      1  O   UNL d   1      10.030   8.017   4.601 -0.09 +0.13    -0.289    13.046
ATOM      2  O   UNL d   1       3.816   6.652   8.590 -0.24 +0.05    -0.289    13.046
ATOM      3  N   UNL d   1       8.431  10.445   6.457 -0.08 +0.02    -0.247    13.046
ATOM      4  N   UNL d   1       5.972   9.072   7.403 -0.36 -0.04    -0.247    13.046
ATOM      5  N   UNL d   1       4.937  11.646   8.159 -0.06 -0.04    -0.354    13.046
ATOM      6  N   UNL d   1       7.484  13.064   7.157 -0.05 +0.01    -0.354    13.046
ATOM      7  C   UNL d   1      10.312  10.429   4.885 -0.19 -0.01    +0.084    13.046
ATOM      8  C   UNL d   1       6.059   6.638   7.610 -0.22 -0.03    +0.084    13.046
ATOM      9  C   UNL d   1       6.731   7.946   7.176 -0.20 -0.01    +0.058    13.046
ATOM     10  C   UNL d   1       9.387  11.217   5.817 -0.16 -0.01    +0.058    13.046
ATOM     11  C   UNL d   1       9.722   9.072   5.125 -0.20 -0.05    +0.193    13.046
ATOM     12  C   UNL d   1       8.607   9.210   6.116 -0.18 -0.02    +0.109    13.046
ATOM     13  C   UNL d   1       4.763   7.228   8.091 -0.24 -0.03    +0.193    13.046
ATOM     14  C   UNL d   1      10.104  10.806   3.416 -0.38 -0.00    +0.026    13.046
ATOM     15  C   UNL d   1       7.933   7.981   6.580 -0.25 -0.01    +0.055    13.046
ATOM     16  C   UNL d   1       6.780   5.997   8.800 -0.21 -0.02    +0.026    13.046
ATOM     17  C   UNL d   1       4.835   8.709   7.904 -0.26 +0.01    +0.109    13.046
ATOM     18  C   UNL d   1       9.571  12.531   6.044 -0.14 -0.00    +0.050    13.046
ATOM     19  C   UNL d   1       8.821  13.322   6.951 -0.09 -0.00    +0.045    13.046
ATOM     20  C   UNL d   1       3.811  10.882   8.323 -0.33 +0.00    +0.045    13.046
ATOM     21  C   UNL d   1       3.682   9.553   8.251 -0.41 +0.00    +0.057    13.046
ATOM     22  C   UNL d   1       3.257  13.081   8.597 -0.21 +0.00    -0.019    13.046
ATOM     23  C   UNL d   1       4.702  12.987   8.305 -0.16 -0.00    +0.045    13.046
ATOM     24  C   UNL d   1       2.736  11.831   8.607 -0.40 +0.00    -0.022    13.046
ATOM     25  C   UNL d   1       6.935  14.002   8.000 -0.07 +0.00    +0.049    13.046
ATOM     26  C   UNL d   1       9.157  14.433   7.708 -0.04 -0.00    -0.018    13.046
ATOM     27  C   UNL d   1       7.968  14.846   8.384 -0.03 +0.00    +0.003    13.046
ATOM     28  C   UNL d   1       5.534  14.037   8.238 -0.11 +0.00    +0.052    13.046
ATOM     29  C   UNL d   1       1.330  11.409   8.866 -0.33 -0.04    +0.046    13.046
ATOM     30  C   UNL d   1      10.501  15.072   7.803 -0.02 +0.00    +0.046    13.046
ATOM     31  H   UNL d   1       5.847  11.219   8.024 +0.05 +0.05    +0.166    13.046
ATOM     32  H   UNL d   1       6.984  12.307   6.706 -0.29 -0.02    +0.166    13.046
ATOM     33  C   UNL d   1      11.796  10.445   5.265 -0.08 -0.03    +0.141    13.046
ATOM     34  C   UNL d   1      12.052   9.858   6.626 -0.01 -0.07    +0.306    13.046
ATOM     35  O   UNL d   1      12.205  10.482   7.663 -0.00 +0.04    -0.251    13.046
ATOM     36  O   UNL d   1      12.099   8.514   6.611 -0.01 +0.20    -0.481    13.046
ATOM     37  H   UNL d   1      11.895   8.270   5.683 +0.07 -0.18    +0.295    13.046
ATOM     38  C   UNL d   1       7.867  15.972   9.263 -0.01 +0.00    +0.017    13.046
ATOM     39  C   UNL d   1       6.921  16.140  10.200 +0.00 +0.01    +0.092    13.046
ATOM     40  C   UNL d   1       6.940  17.333  11.051 +0.00 +0.03    +0.330    13.046
ATOM     41  O   UNL d   1       7.912  17.937  11.463 +0.00 -0.02    -0.246    13.046
ATOM     42  O   UNL d   1       5.686  17.717  11.336 +0.00 -0.05    -0.477    13.046
ATOM     43  H   UNL d   1       5.225  17.671  10.473 +0.01 +0.04    +0.295    13.046
ATOM     44  C   UNL d   1       5.817   5.618   6.493 -0.40 -0.06    +0.141    13.046
ATOM     45  C   UNL d   1       7.087   5.028   5.942 -0.26 -0.17    +0.306    13.046
ATOM     46  O   UNL d   1       7.574   5.246   4.846 -0.33 +0.09    -0.251    13.046
ATOM     47  O   UNL d   1       7.667   4.165   6.796 -0.09 +0.49    -0.481    13.046
ATOM     48  H   UNL d   1       6.921   3.770   7.294 -0.31 -0.53    +0.295    13.046
ATOM     49  C   UNL d   1       2.525  14.371   8.821 -0.14 -0.01    +0.048    13.046
ATOM     50  C   UNL d   1       3.132  15.177   9.969 -0.06 +0.00    +0.125    13.046
ATOM     51  C   UNL d   1       2.574  16.572  10.000 -0.01 +0.04    +0.305    13.046
ATOM     52  O   UNL d   1       1.401  16.903  10.009 -0.05 -0.06    -0.251    13.046
ATOM     53  O   UNL d   1       3.547  17.505  10.005 +0.02 -0.09    -0.481    13.046
ATOM     54  H   UNL d   1       3.590  17.798  10.939 +0.02 +0.05    +0.295    13.046
TER
ENDMDL
MODEL       68
USER    Run = 68
USER    Cluster Rank = 36
USER    Number of conformations in this cluster = 3
USER  
USER    RMSD from reference structure       = 12.616 A
USER  
USER    Estimated Free Energy of Binding    =   -3.91 kcal/mol  [=(1)+(2)+(3)-(4)]
USER    Estimated Inhibition Constant, Ki   =    1.36 mM (millimolar)  [Temperature = 298.15 K]
USER    
USER    (1) Final Intermolecular Energy     =   -7.79 kcal/mol
USER        vdW + Hbond + desolv Energy     =   -7.68 kcal/mol
USER        Electrostatic Energy            =   -0.10 kcal/mol
USER    (2) Final Total Internal Energy     =   -4.14 kcal/mol
USER    (3) Torsional Free Energy           =   +3.88 kcal/mol
USER    (4) Unbound System's Energy  [=(2)] =   -4.14 kcal/mol
USER    
USER    
USER  
USER    DPF = D:/Protein_go_brrr/autodock/final/AncMH_nat/heme/dock.dpf
USER    NEWDPF move	heme_opt.pdbqt
USER    NEWDPF about	0.153000 0.018000 -0.028000
USER    NEWDPF tran0	10.955802 -12.395097 -1.592002
USER    NEWDPF axisangle0	0.645426 0.665128 -0.375539 -107.574190
USER    NEWDPF quaternion0	0.520747 0.536644 -0.302995 -0.590787
USER    NEWDPF dihe0	112.20 -180.00 -173.05 -148.26 -137.22 31.30 142.83 55.31 20.66 -7.73 -81.06 -37.74 -12.72 
USER  
USER                              x       y       z    vdW   Elec        q     RMS 
ATOM      1  O   UNL d   1      11.362 -13.669   4.150 -0.05 +0.10    -0.289    12.616
ATOM      2  O   UNL d   1       5.371 -12.772  -0.288 -0.18 -0.13    -0.289    12.616
ATOM      3  N   UNL d   1      11.615 -12.781   0.827 -0.13 +0.08    -0.247    12.616
ATOM      4  N   UNL d   1       8.813 -12.968  -0.145 -0.19 +0.05    -0.247    12.616
ATOM      5  N   UNL d   1       9.833 -12.826  -2.830 -0.15 +0.09    -0.354    12.616
ATOM      6  N   UNL d   1      12.738 -12.653  -1.814 -0.04 +0.13    -0.354    12.616
ATOM      7  C   UNL d   1      13.217 -13.367   2.587 -0.05 -0.02    +0.084    12.616
ATOM      8  C   UNL d   1       7.035 -12.666   1.504 -0.22 -0.02    +0.084    12.616
ATOM      9  C   UNL d   1       8.529 -12.803   1.192 -0.25 -0.02    +0.058    12.616
ATOM     10  C   UNL d   1      12.953 -12.961   1.134 -0.12 -0.01    +0.058    12.616
ATOM     11  C   UNL d   1      11.792 -13.367   3.051 -0.08 -0.06    +0.193    12.616
ATOM     12  C   UNL d   1      10.920 -12.971   1.900 -0.16 -0.04    +0.109    12.616
ATOM     13  C   UNL d   1       6.521 -12.822   0.100 -0.13 +0.02    +0.193    12.616
ATOM     14  C   UNL d   1      13.773 -14.790   2.694 -0.02 -0.00    +0.026    12.616
ATOM     15  C   UNL d   1       9.472 -12.812   2.147 -0.21 -0.03    +0.055    12.616
ATOM     16  C   UNL d   1       6.685 -11.261   2.003 -0.36 -0.01    +0.026    12.616
ATOM     17  C   UNL d   1       7.698 -13.005  -0.802 -0.19 +0.00    +0.109    12.616
ATOM     18  C   UNL d   1      13.963 -12.719   0.277 -0.10 -0.01    +0.050    12.616
ATOM     19  C   UNL d   1      13.818 -12.259  -1.057 -0.13 -0.01    +0.045    12.616
ATOM     20  C   UNL d   1       8.526 -13.148  -3.091 -0.24 -0.00    +0.045    12.616
ATOM     21  C   UNL d   1       7.497 -13.227  -2.241 -0.24 +0.01    +0.057    12.616
ATOM     22  C   UNL d   1       9.708 -13.216  -5.045 -0.15 +0.00    -0.019    12.616
ATOM     23  C   UNL d   1      10.623 -12.841  -3.948 -0.20 -0.01    +0.045    12.616
ATOM     24  C   UNL d   1       8.468 -13.395  -4.531 -0.19 +0.00    -0.022    12.616
ATOM     25  C   UNL d   1      12.843 -12.166  -3.096 -0.20 -0.02    +0.049    12.616
ATOM     26  C   UNL d   1      14.627 -11.466  -1.856 -0.16 +0.00    -0.018    12.616
ATOM     27  C   UNL d   1      13.997 -11.395  -3.137 -0.22 -0.00    +0.003    12.616
ATOM     28  C   UNL d   1      11.927 -12.569  -4.106 -0.22 -0.02    +0.052    12.616
ATOM     29  C   UNL d   1       7.210 -13.767  -5.239 -0.15 -0.00    +0.046    12.616
ATOM     30  C   UNL d   1      15.906 -10.812  -1.457 -0.12 -0.01    +0.046    12.616
ATOM     31  H   UNL d   1      10.128 -12.533  -1.905 -0.29 -0.07    +0.166    12.616
ATOM     32  H   UNL d   1      11.999 -13.253  -1.466 -0.02 -0.06    +0.166    12.616
ATOM     33  C   UNL d   1      14.050 -12.375   3.405 -0.05 -0.03    +0.141    12.616
ATOM     34  C   UNL d   1      13.319 -11.087   3.671 -0.06 -0.09    +0.306    12.616
ATOM     35  O   UNL d   1      13.237 -10.135   2.914 -0.12 +0.06    -0.251    12.616
ATOM     36  O   UNL d   1      12.726 -11.067   4.879 -0.06 +0.25    -0.481    12.616
ATOM     37  H   UNL d   1      11.985 -11.704   4.800 +0.06 -0.18    +0.295    12.616
ATOM     38  C   UNL d   1      14.509 -10.686  -4.270 -0.18 -0.00    +0.017    12.616
ATOM     39  C   UNL d   1      13.928 -10.635  -5.479 -0.26 -0.02    +0.092    12.616
ATOM     40  C   UNL d   1      14.548  -9.856  -6.554 -0.17 -0.08    +0.330    12.616
ATOM     41  O   UNL d   1      15.730  -9.620  -6.715 -0.61 +0.01    -0.246    12.616
ATOM     42  O   UNL d   1      13.608  -9.410  -7.402 -0.18 +0.28    -0.477    12.616
ATOM     43  H   UNL d   1      12.771  -9.756  -7.028 +0.09 -0.16    +0.295    12.616
ATOM     44  C   UNL d   1       6.452 -13.743   2.425 -0.09 -0.01    +0.141    12.616
ATOM     45  C   UNL d   1       6.642 -15.141   1.899 +0.00 +0.02    +0.306    12.616
ATOM     46  O   UNL d   1       7.510 -15.930   2.230 -0.00 -0.00    -0.251    12.616
ATOM     47  O   UNL d   1       5.738 -15.464   0.957 +0.02 -0.08    -0.481    12.616
ATOM     48  H   UNL d   1       5.241 -14.634   0.795 +0.08 +0.06    +0.295    12.616
ATOM     49  C   UNL d   1      10.129 -13.377  -6.476 -0.09 -0.01    +0.048    12.616
ATOM     50  C   UNL d   1       9.867 -12.111  -7.292 -0.12 -0.04    +0.125    12.616
ATOM     51  C   UNL d   1      11.126 -11.307  -7.453 -0.11 -0.11    +0.305    12.616
ATOM     52  O   UNL d   1      12.221 -11.704  -7.811 -0.06 +0.08    -0.251    12.616
ATOM     53  O   UNL d   1      10.940 -10.010  -7.135 -0.17 +0.24    -0.481    12.616
ATOM     54  H   UNL d   1      10.251 -10.032  -6.439 -0.45 -0.23    +0.295    12.616
TER
ENDMDL
MODEL       95
USER    Run = 95
USER    Cluster Rank = 37
USER    Number of conformations in this cluster = 1
USER  
USER    RMSD from reference structure       = 13.941 A
USER  
USER    Estimated Free Energy of Binding    =   -3.89 kcal/mol  [=(1)+(2)+(3)-(4)]
USER    Estimated Inhibition Constant, Ki   =    1.41 mM (millimolar)  [Temperature = 298.15 K]
USER    
USER    (1) Final Intermolecular Energy     =   -7.77 kcal/mol
USER        vdW + Hbond + desolv Energy     =   -7.13 kcal/mol
USER        Electrostatic Energy            =   -0.63 kcal/mol
USER    (2) Final Total Internal Energy     =   -4.52 kcal/mol
USER    (3) Torsional Free Energy           =   +3.88 kcal/mol
USER    (4) Unbound System's Energy  [=(2)] =   -4.52 kcal/mol
USER    
USER    
USER  
USER    DPF = D:/Protein_go_brrr/autodock/final/AncMH_nat/heme/dock.dpf
USER    NEWDPF move	heme_opt.pdbqt
USER    NEWDPF about	0.153000 0.018000 -0.028000
USER    NEWDPF tran0	-13.794003 10.177318 -3.998391
USER    NEWDPF axisangle0	0.879854 -0.305405 -0.364123 -149.673725
USER    NEWDPF quaternion0	0.849221 -0.294772 -0.351446 -0.261568
USER    NEWDPF dihe0	93.01 114.31 116.89 46.54 -144.78 117.13 -35.84 34.72 23.33 -136.85 -83.42 -111.97 5.53 
USER  
USER                              x       y       z    vdW   Elec        q     RMS 
ATOM      1  O   UNL d   1     -18.066  12.700  -0.813 -0.04 +0.08    -0.289    13.941
ATOM      2  O   UNL d   1     -12.612  15.711  -5.006 -0.10 -0.02    -0.289    13.941
ATOM      3  N   UNL d   1     -15.673  10.799  -2.412 +0.27 +0.00    -0.247    13.941
ATOM      4  N   UNL d   1     -14.179  12.797  -4.026 -0.09 +0.01    -0.247    13.941
ATOM      5  N   UNL d   1     -12.988  10.610  -5.462 -0.05 +0.03    -0.354    13.941
ATOM      6  N   UNL d   1     -14.557   8.544  -3.797 -0.05 -0.03    -0.354    13.941
ATOM      7  C   UNL d   1     -17.703  10.304  -1.131 -0.07 -0.00    +0.084    13.941
ATOM      8  C   UNL d   1     -14.175  15.105  -3.223 -0.19 +0.00    +0.084    13.941
ATOM      9  C   UNL d   1     -14.686  13.667  -3.087 -0.19 -0.01    +0.058    13.941
ATOM     10  C   UNL d   1     -16.498   9.797  -1.929 -0.12 +0.00    +0.058    13.941
ATOM     11  C   UNL d   1     -17.404  11.769  -1.234 -0.07 -0.04    +0.193    13.941
ATOM     12  C   UNL d   1     -16.135  11.938  -2.012 -0.11 -0.02    +0.109    13.941
ATOM     13  C   UNL d   1     -13.313  14.898  -4.436 -0.14 +0.01    +0.193    13.941
ATOM     14  C   UNL d   1     -19.026  10.017  -1.846 -0.02 +0.00    +0.026    13.941
ATOM     15  C   UNL d   1     -15.589  13.302  -2.163 -0.22 -0.01    +0.055    13.941
ATOM     16  C   UNL d   1     -13.280  15.503  -2.045 -0.13 +0.00    +0.026    13.941
ATOM     17  C   UNL d   1     -13.408  13.459  -4.828 -0.18 -0.01    +0.109    13.941
ATOM     18  C   UNL d   1     -16.240   8.482  -2.053 -0.15 +0.01    +0.050    13.941
ATOM     19  C   UNL d   1     -15.107   7.923  -2.699 -0.14 +0.01    +0.045    13.941
ATOM     20  C   UNL d   1     -12.571  11.658  -6.241 -0.18 -0.01    +0.045    13.941
ATOM     21  C   UNL d   1     -12.697  12.970  -6.018 -0.20 -0.01    +0.057    13.941
ATOM     22  C   UNL d   1     -12.001   9.700  -7.271 -0.15 +0.00    -0.019    13.941
ATOM     23  C   UNL d   1     -12.689   9.387  -6.002 -0.16 -0.00    +0.045    13.941
ATOM     24  C   UNL d   1     -11.933  11.046  -7.406 -0.18 +0.00    -0.022    13.941
ATOM     25  C   UNL d   1     -13.531   7.788  -4.315 -0.13 +0.00    +0.049    13.941
ATOM     26  C   UNL d   1     -14.398   6.753  -2.475 -0.17 -0.01    -0.018    13.941
ATOM     27  C   UNL d   1     -13.391   6.683  -3.488 -0.16 +0.00    +0.003    13.941
ATOM     28  C   UNL d   1     -12.911   8.146  -5.543 -0.14 -0.00    +0.052    13.941
ATOM     29  C   UNL d   1     -11.324  11.843  -8.509 -0.19 -0.01    +0.046    13.941
ATOM     30  C   UNL d   1     -14.637   5.760  -1.389 -0.22 +0.03    +0.046    13.941
ATOM     31  H   UNL d   1     -13.399  10.765  -4.548 +0.08 +0.00    +0.166    13.941
ATOM     32  H   UNL d   1     -14.902   9.416  -4.179 +0.03 +0.01    +0.166    13.941
ATOM     33  C   UNL d   1     -17.751   9.866   0.337 -0.11 -0.00    +0.141    13.941
ATOM     34  C   UNL d   1     -16.705  10.546   1.178 -0.21 -0.10    +0.306    13.941
ATOM     35  O   UNL d   1     -15.576  10.139   1.392 -0.38 +0.09    -0.251    13.941
ATOM     36  O   UNL d   1     -17.136  11.707   1.703 -0.06 +0.35    -0.481    13.941
ATOM     37  H   UNL d   1     -16.908  12.382   1.030 -0.32 -0.37    +0.295    13.941
ATOM     38  C   UNL d   1     -12.442   5.621  -3.635 -0.15 +0.00    +0.017    13.941
ATOM     39  C   UNL d   1     -12.494   4.661  -4.572 -0.07 -0.01    +0.092    13.941
ATOM     40  C   UNL d   1     -11.446   3.638  -4.626 -0.06 -0.09    +0.330    13.941
ATOM     41  O   UNL d   1     -11.564   2.443  -4.433 -0.09 +0.02    -0.246    13.941
ATOM     42  O   UNL d   1     -10.269   4.199  -4.942 -0.06 +0.40    -0.477    13.941
ATOM     43  H   UNL d   1     -10.401   4.521  -5.857 -0.42 -0.46    +0.295    13.941
ATOM     44  C   UNL d   1     -15.249  16.165  -3.487 -0.07 +0.01    +0.141    13.941
ATOM     45  C   UNL d   1     -14.714  17.573  -3.457 -0.05 +0.11    +0.306    13.941
ATOM     46  O   UNL d   1     -14.484  18.242  -2.465 -0.60 -0.23    -0.251    13.941
ATOM     47  O   UNL d   1     -14.523  18.076  -4.690 +0.01 -0.10    -0.481    13.941
ATOM     48  H   UNL d   1     -13.826  17.510  -5.084 +0.04 +0.05    +0.295    13.941
ATOM     49  C   UNL d   1     -11.493   8.665  -8.231 -0.12 -0.01    +0.048    13.941
ATOM     50  C   UNL d   1     -10.177   8.047  -7.757 -0.25 -0.05    +0.125    13.941
ATOM     51  C   UNL d   1     -10.421   6.742  -7.054 -0.11 -0.23    +0.305    13.941
ATOM     52  O   UNL d   1     -11.336   5.959  -7.237 -0.10 +0.18    -0.251    13.941
ATOM     53  O   UNL d   1      -9.480   6.488  -6.122 -0.05 +0.44    -0.481    13.941
ATOM     54  H   UNL d   1      -9.236   5.552  -6.279 -0.35 -0.66    +0.295    13.941
TER
ENDMDL
MODEL       52
USER    Run = 52
USER    Cluster Rank = 38
USER    Number of conformations in this cluster = 1
USER  
USER    RMSD from reference structure       = 20.615 A
USER  
USER    Estimated Free Energy of Binding    =   -3.89 kcal/mol  [=(1)+(2)+(3)-(4)]
USER    Estimated Inhibition Constant, Ki   =    1.42 mM (millimolar)  [Temperature = 298.15 K]
USER    
USER    (1) Final Intermolecular Energy     =   -7.76 kcal/mol
USER        vdW + Hbond + desolv Energy     =   -7.37 kcal/mol
USER        Electrostatic Energy            =   -0.40 kcal/mol
USER    (2) Final Total Internal Energy     =   -4.02 kcal/mol
USER    (3) Torsional Free Energy           =   +3.88 kcal/mol
USER    (4) Unbound System's Energy  [=(2)] =   -4.02 kcal/mol
USER    
USER    
USER  
USER    DPF = D:/Protein_go_brrr/autodock/final/AncMH_nat/heme/dock.dpf
USER    NEWDPF move	heme_opt.pdbqt
USER    NEWDPF about	0.153000 0.018000 -0.028000
USER    NEWDPF tran0	-5.590455 -9.663229 19.570264
USER    NEWDPF axisangle0	0.526166 0.713811 0.462193 -172.932522
USER    NEWDPF quaternion0	0.525166 0.712454 0.461314 -0.061636
USER    NEWDPF dihe0	-102.86 -167.64 173.61 20.64 34.73 -68.34 96.53 61.52 132.05 -16.21 -71.23 1.06 -10.33 
USER  
USER                              x       y       z    vdW   Elec        q     RMS 
ATOM      1  O   UNL d   1      -1.578 -13.759  18.197 -0.03 +0.03    -0.289    20.615
ATOM      2  O   UNL d   1      -8.674 -12.849  15.912 -0.69 -0.37    -0.289    20.615
ATOM      3  N   UNL d   1      -3.620 -11.250  19.395 -0.06 +0.02    -0.247    20.615
ATOM      4  N   UNL d   1      -6.064 -11.502  17.725 -0.11 -0.03    -0.247    20.615
ATOM      5  N   UNL d   1      -6.882  -8.923  18.697 -0.13 +0.02    -0.354    20.615
ATOM      6  N   UNL d   1      -4.334  -8.661  20.412 -0.10 +0.06    -0.354    20.615
ATOM      7  C   UNL d   1      -1.255 -11.834  19.668 -0.08 -0.01    +0.084    20.615
ATOM      8  C   UNL d   1      -6.549 -13.702  16.778 -0.17 +0.02    +0.084    20.615
ATOM      9  C   UNL d   1      -5.601 -12.788  17.561 -0.12 +0.00    +0.058    20.615
ATOM     10  C   UNL d   1      -2.421 -10.895  19.991 -0.00 -0.01    +0.058    20.615
ATOM     11  C   UNL d   1      -2.011 -12.793  18.799 -0.06 -0.02    +0.193    20.615
ATOM     12  C   UNL d   1      -3.438 -12.346  18.732 -0.09 -0.01    +0.109    20.615
ATOM     13  C   UNL d   1      -7.620 -12.686  16.496 -0.14 +0.12    +0.193    20.615
ATOM     14  C   UNL d   1      -0.179 -11.145  18.825 -0.15 -0.01    +0.026    20.615
ATOM     15  C   UNL d   1      -4.400 -13.196  18.002 -0.11 -0.00    +0.055    20.615
ATOM     16  C   UNL d   1      -7.137 -14.804  17.665 -0.14 +0.00    +0.026    20.615
ATOM     17  C   UNL d   1      -7.202 -11.393  17.117 -0.20 +0.03    +0.109    20.615
ATOM     18  C   UNL d   1      -2.282  -9.873  20.856 -0.10 -0.01    +0.050    20.615
ATOM     19  C   UNL d   1      -3.322  -9.006  21.278 -0.10 -0.01    +0.045    20.615
ATOM     20  C   UNL d   1      -7.813  -9.108  17.708 -0.26 +0.00    +0.045    20.615
ATOM     21  C   UNL d   1      -8.041 -10.196  16.965 -0.33 +0.02    +0.057    20.615
ATOM     22  C   UNL d   1      -8.022  -6.987  18.531 -0.34 +0.00    -0.019    20.615
ATOM     23  C   UNL d   1      -6.931  -7.673  19.253 -0.26 -0.01    +0.045    20.615
ATOM     24  C   UNL d   1      -8.541  -7.843  17.619 -0.38 +0.00    -0.022    20.615
ATOM     25  C   UNL d   1      -5.179  -7.746  20.995 -0.16 -0.01    +0.049    20.615
ATOM     26  C   UNL d   1      -3.535  -8.326  22.468 -0.05 +0.00    -0.018    20.615
ATOM     27  C   UNL d   1      -4.720  -7.547  22.290 -0.06 -0.00    +0.003    20.615
ATOM     28  C   UNL d   1      -6.211  -7.122  20.242 -0.24 -0.01    +0.052    20.615
ATOM     29  C   UNL d   1      -9.662  -7.619  16.662 -0.40 +0.01    +0.046    20.615
ATOM     30  C   UNL d   1      -2.692  -8.395  23.696 -0.02 -0.01    +0.046    20.615
ATOM     31  H   UNL d   1      -6.291  -9.685  19.012 +0.05 -0.01    +0.166    20.615
ATOM     32  H   UNL d   1      -4.405  -9.013  19.464 +0.04 -0.02    +0.166    20.615
ATOM     33  C   UNL d   1      -0.646 -12.562  20.871 -0.03 -0.02    +0.141    20.615
ATOM     34  C   UNL d   1       0.489 -13.472  20.483 -0.01 -0.04    +0.306    20.615
ATOM     35  O   UNL d   1       1.666 -13.163  20.406 -0.01 +0.03    -0.251    20.615
ATOM     36  O   UNL d   1       0.080 -14.725  20.216 +0.00 +0.05    -0.481    20.615
ATOM     37  H   UNL d   1      -0.352 -14.662  19.337 +0.02 -0.03    +0.295    20.615
ATOM     38  C   UNL d   1      -5.291  -6.678  23.274 -0.04 -0.00    +0.017    20.615
ATOM     39  C   UNL d   1      -6.605  -6.509  23.488 -0.02 -0.01    +0.092    20.615
ATOM     40  C   UNL d   1      -7.062  -5.600  24.542 +0.00 -0.03    +0.330    20.615
ATOM     41  O   UNL d   1      -6.977  -5.754  25.746 -0.00 +0.02    -0.246    20.615
ATOM     42  O   UNL d   1      -7.611  -4.502  23.999 +0.01 +0.04    -0.477    20.615
ATOM     43  H   UNL d   1      -7.719  -4.737  23.055 +0.03 -0.02    +0.295    20.615
ATOM     44  C   UNL d   1      -5.985 -14.281  15.477 -0.16 +0.03    +0.141    20.615
ATOM     45  C   UNL d   1      -5.718 -13.234  14.428 -0.27 +0.16    +0.306    20.615
ATOM     46  O   UNL d   1      -5.062 -12.216  14.568 -0.34 -0.07    -0.251    20.615
ATOM     47  O   UNL d   1      -6.318 -13.514  13.257 -0.46 -0.54    -0.481    20.615
ATOM     48  H   UNL d   1      -6.686 -14.415  13.376 -0.33 +0.20    +0.295    20.615
ATOM     49  C   UNL d   1      -8.442  -5.570  18.787 -0.39 -0.00    +0.048    20.615
ATOM     50  C   UNL d   1      -9.593  -5.489  19.789 -0.22 +0.00    +0.125    20.615
ATOM     51  C   UNL d   1      -9.127  -4.914  21.096 -0.08 -0.02    +0.305    20.615
ATOM     52  O   UNL d   1      -8.563  -3.849  21.280 -0.10 +0.02    -0.251    20.615
ATOM     53  O   UNL d   1      -9.392  -5.735  22.132 +0.01 +0.02    -0.481    20.615
ATOM     54  H   UNL d   1      -9.362  -5.147  22.915 +0.03 -0.01    +0.295    20.615
TER
ENDMDL
MODEL       43
USER    Run = 43
USER    Cluster Rank = 39
USER    Number of conformations in this cluster = 1
USER  
USER    RMSD from reference structure       = 14.562 A
USER  
USER    Estimated Free Energy of Binding    =   -3.84 kcal/mol  [=(1)+(2)+(3)-(4)]
USER    Estimated Inhibition Constant, Ki   =    1.53 mM (millimolar)  [Temperature = 298.15 K]
USER    
USER    (1) Final Intermolecular Energy     =   -7.72 kcal/mol
USER        vdW + Hbond + desolv Energy     =   -6.88 kcal/mol
USER        Electrostatic Energy            =   -0.84 kcal/mol
USER    (2) Final Total Internal Energy     =   -2.41 kcal/mol
USER    (3) Torsional Free Energy           =   +3.88 kcal/mol
USER    (4) Unbound System's Energy  [=(2)] =   -2.41 kcal/mol
USER    
USER    
USER  
USER    DPF = D:/Protein_go_brrr/autodock/final/AncMH_nat/heme/dock.dpf
USER    NEWDPF move	heme_opt.pdbqt
USER    NEWDPF about	0.153000 0.018000 -0.028000
USER    NEWDPF tran0	9.904579 14.138452 4.009680
USER    NEWDPF axisangle0	-0.301338 0.911701 -0.279278 -73.444015
USER    NEWDPF quaternion0	-0.180180 0.545136 -0.166990 -0.801546
USER    NEWDPF dihe0	110.27 -34.59 -167.09 169.71 -179.79 178.02 139.72 -92.30 -17.62 -6.99 -153.20 171.91 150.77 
USER  
USER                              x       y       z    vdW   Elec        q     RMS 
ATOM      1  O   UNL d   1       8.667  18.297   8.001 -0.00 -0.06    -0.289    14.562
ATOM      2  O   UNL d   1       7.155  10.942   7.916 -0.22 -0.04    -0.289    14.562
ATOM      3  N   UNL d   1       9.483  16.253   5.346 -0.05 -0.05    -0.247    14.562
ATOM      4  N   UNL d   1       8.788  13.538   6.335 -0.05 -0.00    -0.247    14.562
ATOM      5  N   UNL d   1      10.265  12.454   4.119 -0.09 -0.00    -0.354    14.562
ATOM      6  N   UNL d   1      10.998  15.273   3.111 -0.07 -0.04    -0.354    14.562
ATOM      7  C   UNL d   1       9.918  18.595   5.922 -0.03 +0.02    +0.084    14.562
ATOM      8  C   UNL d   1       7.059  13.384   8.055 -0.07 +0.00    +0.084    14.562
ATOM      9  C   UNL d   1       7.966  14.253   7.177 -0.08 +0.00    +0.058    14.562
ATOM     10  C   UNL d   1      10.093  17.429   4.944 -0.10 +0.01    +0.058    14.562
ATOM     11  C   UNL d   1       9.085  17.874   6.939 -0.02 +0.05    +0.193    14.562
ATOM     12  C   UNL d   1       8.868  16.471   6.462 -0.07 +0.02    +0.109    14.562
ATOM     13  C   UNL d   1       7.545  12.043   7.581 -0.00 +0.00    +0.193    14.562
ATOM     14  C   UNL d   1      11.243  19.006   6.569 -0.01 +0.00    +0.026    14.562
ATOM     15  C   UNL d   1       7.992  15.592   7.263 -0.08 +0.01    +0.055    14.562
ATOM     16  C   UNL d   1       5.584  13.537   7.673 -0.18 -0.00    +0.026    14.562
ATOM     17  C   UNL d   1       8.596  12.276   6.545 -0.11 -0.01    +0.109    14.562
ATOM     18  C   UNL d   1      10.715  17.591   3.761 -0.13 +0.01    +0.050    14.562
ATOM     19  C   UNL d   1      10.850  16.596   2.760 -0.17 +0.01    +0.045    14.562
ATOM     20  C   UNL d   1      10.045  11.308   4.839 -0.20 -0.00    +0.045    14.562
ATOM     21  C   UNL d   1       9.289  11.135   5.928 -0.18 -0.01    +0.057    14.562
ATOM     22  C   UNL d   1      11.452  10.831   3.103 -0.25 +0.00    -0.019    14.562
ATOM     23  C   UNL d   1      11.102  12.265   3.052 -0.24 +0.00    +0.045    14.562
ATOM     24  C   UNL d   1      10.822  10.270   4.163 -0.26 +0.00    -0.022    14.562
ATOM     25  C   UNL d   1      11.203  14.497   1.994 -0.01 +0.01    +0.049    14.562
ATOM     26  C   UNL d   1      10.924  16.677   1.378 -0.23 -0.00    -0.018    14.562
ATOM     27  C   UNL d   1      11.127  15.346   0.898 -0.16 +0.00    +0.003    14.562
ATOM     28  C   UNL d   1      11.537  13.121   2.114 -0.23 +0.01    +0.052    14.562
ATOM     29  C   UNL d   1      10.852   8.852   4.622 -0.30 -0.02    +0.046    14.562
ATOM     30  C   UNL d   1      10.812  17.913   0.551 -0.24 +0.00    +0.046    14.562
ATOM     31  H   UNL d   1       9.775  13.315   4.338 +0.06 +0.01    +0.166    14.562
ATOM     32  H   UNL d   1      10.994  14.944   4.069 +0.03 +0.01    +0.166    14.562
ATOM     33  C   UNL d   1       9.162  19.808   5.370 -0.06 +0.05    +0.141    14.562
ATOM     34  C   UNL d   1       8.147  19.431   4.325 -0.13 +0.25    +0.306    14.562
ATOM     35  O   UNL d   1       8.070  19.888   3.197 -0.16 -0.16    -0.251    14.562
ATOM     36  O   UNL d   1       7.282  18.496   4.756 -0.55 -0.71    -0.481    14.562
ATOM     37  H   UNL d   1       7.809  17.669   4.790 +0.06 +0.22    +0.295    14.562
ATOM     38  C   UNL d   1      11.275  14.978  -0.477 -0.35 +0.00    +0.017    14.562
ATOM     39  C   UNL d   1      11.776  15.767  -1.440 -0.29 +0.01    +0.092    14.562
ATOM     40  C   UNL d   1      11.891  15.262  -2.811 -0.24 +0.02    +0.330    14.562
ATOM     41  O   UNL d   1      12.258  15.870  -3.799 -0.24 +0.01    -0.246    14.562
ATOM     42  O   UNL d   1      11.531  13.970  -2.859 -0.48 -0.22    -0.477    14.562
ATOM     43  H   UNL d   1      11.098  13.879  -3.733 -0.36 -0.25    +0.295    14.562
ATOM     44  C   UNL d   1       7.259  13.537   9.566 -0.01 +0.01    +0.141    14.562
ATOM     45  C   UNL d   1       8.673  13.267  10.009 +0.00 +0.00    +0.306    14.562
ATOM     46  O   UNL d   1       9.548  14.096  10.189 -0.00 -0.00    -0.251    14.562
ATOM     47  O   UNL d   1       8.918  11.955  10.177 +0.01 +0.00    -0.481    14.562
ATOM     48  H   UNL d   1       8.147  11.505   9.771 +0.02 +0.00    +0.295    14.562
ATOM     49  C   UNL d   1      12.371  10.153   2.131 -0.25 -0.00    +0.048    14.562
ATOM     50  C   UNL d   1      13.811  10.647   2.269 -0.16 -0.00    +0.125    14.562
ATOM     51  C   UNL d   1      14.083  11.120   3.669 -0.03 -0.03    +0.305    14.562
ATOM     52  O   UNL d   1      14.073  12.266   4.081 -0.02 +0.01    -0.251    14.562
ATOM     53  O   UNL d   1      14.373  10.098   4.499 +0.01 +0.11    -0.481    14.562
ATOM     54  H   UNL d   1      14.151   9.298   3.978 +0.07 -0.11    +0.295    14.562
TER
ENDMDL
MODEL       59
USER    Run = 59
USER    Cluster Rank = 40
USER    Number of conformations in this cluster = 2
USER  
USER    RMSD from reference structure       = 20.408 A
USER  
USER    Estimated Free Energy of Binding    =   -3.82 kcal/mol  [=(1)+(2)+(3)-(4)]
USER    Estimated Inhibition Constant, Ki   =    1.57 mM (millimolar)  [Temperature = 298.15 K]
USER    
USER    (1) Final Intermolecular Energy     =   -7.70 kcal/mol
USER        vdW + Hbond + desolv Energy     =   -7.15 kcal/mol
USER        Electrostatic Energy            =   -0.55 kcal/mol
USER    (2) Final Total Internal Energy     =   -3.95 kcal/mol
USER    (3) Torsional Free Energy           =   +3.88 kcal/mol
USER    (4) Unbound System's Energy  [=(2)] =   -3.95 kcal/mol
USER    
USER    
USER  
USER    DPF = D:/Protein_go_brrr/autodock/final/AncMH_nat/heme/dock.dpf
USER    NEWDPF move	heme_opt.pdbqt
USER    NEWDPF about	0.153000 0.018000 -0.028000
USER    NEWDPF tran0	-7.979760 -6.377811 20.003094
USER    NEWDPF axisangle0	0.224455 -0.941459 -0.251544 159.323474
USER    NEWDPF quaternion0	0.220811 -0.926175 -0.247461 0.179459
USER    NEWDPF dihe0	-96.71 -169.94 -7.63 -32.21 35.07 94.64 172.75 -116.15 128.81 24.50 -98.45 -95.22 -3.26 
USER  
USER                              x       y       z    vdW   Elec        q     RMS 
ATOM      1  O   UNL d   1      -3.974  -2.915  22.595 -0.03 +0.07    -0.289    20.408
ATOM      2  O   UNL d   1      -3.693 -10.156  20.623 -0.08 +0.03    -0.289    20.408
ATOM      3  N   UNL d   1      -6.656  -4.578  21.204 -0.09 +0.03    -0.247    20.408
ATOM      4  N   UNL d   1      -5.523  -7.233  20.499 -0.15 +0.05    -0.247    20.408
ATOM      5  N   UNL d   1      -7.873  -7.711  18.912 -0.12 +0.02    -0.354    20.408
ATOM      6  N   UNL d   1      -9.031  -4.947  19.632 -0.17 +0.01    -0.354    20.408
ATOM      7  C   UNL d   1      -6.195  -2.251  21.820 -0.08 -0.01    +0.084    20.408
ATOM      8  C   UNL d   1      -3.604  -8.010  21.797 -0.08 -0.02    +0.084    20.408
ATOM      9  C   UNL d   1      -4.606  -6.897  21.470 -0.14 -0.01    +0.058    20.408
ATOM     10  C   UNL d   1      -7.157  -3.287  21.232 -0.15 -0.01    +0.058    20.408
ATOM     11  C   UNL d   1      -5.068  -3.188  22.136 -0.05 -0.04    +0.193    20.408
ATOM     12  C   UNL d   1      -5.479  -4.572  21.740 -0.09 -0.02    +0.109    20.408
ATOM     13  C   UNL d   1      -4.100  -9.025  20.807 -0.10 -0.03    +0.193    20.408
ATOM     14  C   UNL d   1      -5.722  -1.244  20.768 -0.16 -0.00    +0.026    20.408
ATOM     15  C   UNL d   1      -4.558  -5.685  22.043 -0.11 -0.01    +0.055    20.408
ATOM     16  C   UNL d   1      -3.810  -8.561  23.212 -0.03 -0.00    +0.026    20.408
ATOM     17  C   UNL d   1      -5.260  -8.429  20.079 -0.20 -0.02    +0.109    20.408
ATOM     18  C   UNL d   1      -8.410  -2.956  20.867 -0.18 -0.01    +0.050    20.408
ATOM     19  C   UNL d   1      -9.395  -3.860  20.394 -0.18 -0.01    +0.045    20.408
ATOM     20  C   UNL d   1      -7.103  -8.776  18.520 -0.24 -0.00    +0.045    20.408
ATOM     21  C   UNL d   1      -5.927  -9.184  19.008 -0.21 -0.00    +0.057    20.408
ATOM     22  C   UNL d   1      -8.983  -8.707  17.225 -0.35 -0.00    -0.019    20.408
ATOM     23  C   UNL d   1      -9.028  -7.588  18.187 -0.32 +0.00    +0.045    20.408
ATOM     24  C   UNL d   1      -7.842  -9.407  17.428 -0.30 -0.00    -0.022    20.408
ATOM     25  C   UNL d   1     -10.145  -5.633  19.207 -0.16 +0.00    +0.049    20.408
ATOM     26  C   UNL d   1     -10.777  -3.860  20.498 -0.15 +0.00    -0.018    20.408
ATOM     27  C   UNL d   1     -11.245  -4.994  19.763 -0.15 +0.00    +0.003    20.408
ATOM     28  C   UNL d   1     -10.032  -6.703  18.278 -0.28 +0.01    +0.052    20.408
ATOM     29  C   UNL d   1      -7.354 -10.624  16.717 -0.34 +0.02    +0.046    20.408
ATOM     30  C   UNL d   1     -11.615  -2.872  21.235 -0.11 -0.00    +0.046    20.408
ATOM     31  H   UNL d   1      -7.618  -7.145  19.714 +0.06 -0.01    +0.166    20.408
ATOM     32  H   UNL d   1      -8.072  -5.169  19.395 +0.04 -0.01    +0.166    20.408
ATOM     33  C   UNL d   1      -6.682  -1.548  23.091 -0.02 -0.02    +0.141    20.408
ATOM     34  C   UNL d   1      -5.657  -0.607  23.662 +0.00 -0.05    +0.306    20.408
ATOM     35  O   UNL d   1      -5.525   0.572  23.381 -0.00 +0.04    -0.251    20.408
ATOM     36  O   UNL d   1      -4.851  -1.201  24.561 +0.00 +0.06    -0.481    20.408
ATOM     37  H   UNL d   1      -4.183  -1.673  24.019 +0.01 -0.05    +0.295    20.408
ATOM     38  C   UNL d   1     -12.619  -5.361  19.598 -0.15 +0.00    +0.017    20.408
ATOM     39  C   UNL d   1     -13.250  -5.489  18.421 -0.21 +0.04    +0.092    20.408
ATOM     40  C   UNL d   1     -14.659  -5.890  18.388 -0.03 +0.35    +0.330    20.408
ATOM     41  O   UNL d   1     -15.637  -5.167  18.368 -0.30 -0.29    -0.246    20.408
ATOM     42  O   UNL d   1     -14.759  -7.228  18.373 -0.06 -0.67    -0.477    20.408
ATOM     43  H   UNL d   1     -13.846  -7.533  18.553 +0.07 +0.23    +0.295    20.408
ATOM     44  C   UNL d   1      -2.132  -7.669  21.544 -0.10 -0.04    +0.141    20.408
ATOM     45  C   UNL d   1      -1.941  -6.600  20.501 -0.17 -0.19    +0.306    20.408
ATOM     46  O   UNL d   1      -1.274  -5.586  20.613 -0.16 +0.19    -0.251    20.408
ATOM     47  O   UNL d   1      -2.628  -6.854  19.372 -0.04 +0.44    -0.481    20.408
ATOM     48  H   UNL d   1      -2.537  -6.037  18.837 -0.37 -0.72    +0.295    20.408
ATOM     49  C   UNL d   1     -10.042  -8.977  16.196 -0.40 +0.02    +0.048    20.408
ATOM     50  C   UNL d   1     -11.173  -9.838  16.757 -0.29 +0.04    +0.125    20.408
ATOM     51  C   UNL d   1     -12.162  -8.998  17.515 -0.14 +0.11    +0.305    20.408
ATOM     52  O   UNL d   1     -12.503  -9.121  18.678 -0.08 -0.08    -0.251    20.408
ATOM     53  O   UNL d   1     -12.694  -8.028  16.745 -0.12 -0.30    -0.481    20.408
ATOM     54  H   UNL d   1     -13.606  -7.924  17.089 +0.13 +0.31    +0.295    20.408
TER
ENDMDL
MODEL       47
USER    Run = 47
USER    Cluster Rank = 41
USER    Number of conformations in this cluster = 1
USER  
USER    RMSD from reference structure       = 17.701 A
USER  
USER    Estimated Free Energy of Binding    =   -3.80 kcal/mol  [=(1)+(2)+(3)-(4)]
USER    Estimated Inhibition Constant, Ki   =    1.64 mM (millimolar)  [Temperature = 298.15 K]
USER    
USER    (1) Final Intermolecular Energy     =   -7.68 kcal/mol
USER        vdW + Hbond + desolv Energy     =   -7.31 kcal/mol
USER        Electrostatic Energy            =   -0.37 kcal/mol
USER    (2) Final Total Internal Energy     =   -2.51 kcal/mol
USER    (3) Torsional Free Energy           =   +3.88 kcal/mol
USER    (4) Unbound System's Energy  [=(2)] =   -2.51 kcal/mol
USER    
USER    
USER  
USER    DPF = D:/Protein_go_brrr/autodock/final/AncMH_nat/heme/dock.dpf
USER    NEWDPF move	heme_opt.pdbqt
USER    NEWDPF about	0.153000 0.018000 -0.028000
USER    NEWDPF tran0	-17.230796 -13.785506 2.163924
USER    NEWDPF axisangle0	0.818371 -0.329799 -0.470640 -145.147511
USER    NEWDPF quaternion0	0.780810 -0.314662 -0.449039 -0.299478
USER    NEWDPF dihe0	163.30 33.93 141.00 91.38 -143.72 157.82 -43.42 102.13 35.33 -111.30 136.51 48.03 -179.61 
USER  
USER                              x       y       z    vdW   Elec        q     RMS 
ATOM      1  O   UNL d   1     -20.420 -10.691   6.038 -0.06 -0.04    -0.289    17.701
ATOM      2  O   UNL d   1     -15.807  -8.456   0.550 -0.21 -0.22    -0.289    17.701
ATOM      3  N   UNL d   1     -18.637 -12.901   4.081 -0.44 -0.07    -0.247    17.701
ATOM      4  N   UNL d   1     -17.371 -11.144   2.046 -0.07 -0.08    -0.247    17.701
ATOM      5  N   UNL d   1     -16.742 -13.506   0.532 -0.15 -0.07    -0.354    17.701
ATOM      6  N   UNL d   1     -18.074 -15.320   2.639 -0.06 -0.03    -0.354    17.701
ATOM      7  C   UNL d   1     -20.360 -13.124   5.809 -0.06 +0.01    +0.084    17.701
ATOM      8  C   UNL d   1     -16.974  -8.815   2.671 -0.20 +0.04    +0.084    17.701
ATOM      9  C   UNL d   1     -17.570 -10.185   3.014 -0.18 +0.02    +0.058    17.701
ATOM     10  C   UNL d   1     -19.418 -13.789   4.801 -0.08 +0.01    +0.058    17.701
ATOM     11  C   UNL d   1     -19.959 -11.704   5.545 -0.11 +0.03    +0.193    17.701
ATOM     12  C   UNL d   1     -18.890 -11.703   4.496 -0.19 +0.02    +0.109    17.701
ATOM     13  C   UNL d   1     -16.432  -9.165   1.314 -0.14 +0.10    +0.193    17.701
ATOM     14  C   UNL d   1     -21.831 -13.303   5.426 -0.02 +0.00    +0.026    17.701
ATOM     15  C   UNL d   1     -18.270 -10.411   4.136 -0.25 +0.01    +0.055    17.701
ATOM     16  C   UNL d   1     -15.803  -8.459   3.592 -0.39 +0.01    +0.026    17.701
ATOM     17  C   UNL d   1     -16.745 -10.602   1.051 -0.15 +0.04    +0.109    17.701
ATOM     18  C   UNL d   1     -19.317 -15.128   4.711 -0.08 +0.01    +0.050    17.701
ATOM     19  C   UNL d   1     -18.415 -15.830   3.871 +0.04 +0.00    +0.045    17.701
ATOM     20  C   UNL d   1     -16.418 -12.543  -0.388 -0.23 +0.01    +0.045    17.701
ATOM     21  C   UNL d   1     -16.370 -11.216  -0.231 -0.23 +0.02    +0.057    17.701
ATOM     22  C   UNL d   1     -16.278 -14.594  -1.385 -0.04 -0.00    -0.019    17.701
ATOM     23  C   UNL d   1     -16.686 -14.776   0.023 -0.17 +0.01    +0.045    17.701
ATOM     24  C   UNL d   1     -16.120 -13.270  -1.621 -0.18 -0.00    -0.022    17.701
ATOM     25  C   UNL d   1     -17.266 -16.201   1.958 -0.18 +0.00    +0.049    17.701
ATOM     26  C   UNL d   1     -17.784 -17.056   4.010 -0.09 -0.00    -0.018    17.701
ATOM     27  C   UNL d   1     -17.043 -17.276   2.807 -0.15 +0.00    +0.003    17.701
ATOM     28  C   UNL d   1     -16.910 -15.965   0.602 -0.20 +0.01    +0.052    17.701
ATOM     29  C   UNL d   1     -15.707 -12.591  -2.883 -0.15 +0.01    +0.046    17.701
ATOM     30  C   UNL d   1     -17.859 -17.969   5.187 -0.06 +0.00    +0.046    17.701
ATOM     31  H   UNL d   1     -16.919 -13.268   1.502 +0.04 +0.04    +0.166    17.701
ATOM     32  H   UNL d   1     -18.416 -14.434   2.285 +0.03 +0.02    +0.166    17.701
ATOM     33  C   UNL d   1     -20.113 -13.487   7.278 -0.06 +0.00    +0.141    17.701
ATOM     34  C   UNL d   1     -19.019 -12.664   7.902 -0.13 +0.02    +0.306    17.701
ATOM     35  O   UNL d   1     -17.831 -12.938   7.916 -0.24 +0.01    -0.251    17.701
ATOM     36  O   UNL d   1     -19.480 -11.538   8.474 -0.68 -0.11    -0.481    17.701
ATOM     37  H   UNL d   1     -20.360 -11.396   8.065 +0.06 +0.06    +0.295    17.701
ATOM     38  C   UNL d   1     -16.254 -18.437   2.525 -0.15 +0.00    +0.017    17.701
ATOM     39  C   UNL d   1     -14.932 -18.542   2.729 -0.15 +0.01    +0.092    17.701
ATOM     40  C   UNL d   1     -14.242 -19.796   2.413 -0.06 +0.01    +0.330    17.701
ATOM     41  O   UNL d   1     -13.065 -19.951   2.149 -0.12 -0.01    -0.246    17.701
ATOM     42  O   UNL d   1     -15.106 -20.822   2.459 +0.00 +0.00    -0.477    17.701
ATOM     43  H   UNL d   1     -14.565 -21.569   2.789 +0.03 -0.01    +0.295    17.701
ATOM     44  C   UNL d   1     -17.979  -7.662   2.580 -0.14 +0.06    +0.141    17.701
ATOM     45  C   UNL d   1     -17.452  -6.474   1.819 -0.07 +0.27    +0.306    17.701
ATOM     46  O   UNL d   1     -16.807  -5.546   2.275 -0.50 -0.28    -0.251    17.701
ATOM     47  O   UNL d   1     -17.794  -6.505   0.518 -0.56 -0.56    -0.481    17.701
ATOM     48  H   UNL d   1     -17.699  -7.446   0.259 +0.06 +0.27    +0.295    17.701
ATOM     49  C   UNL d   1     -16.097 -15.718  -2.362 -0.11 +0.01    +0.048    17.701
ATOM     50  C   UNL d   1     -17.338 -15.922  -3.230 -0.04 +0.01    +0.125    17.701
ATOM     51  C   UNL d   1     -18.591 -15.827  -2.407 -0.01 +0.02    +0.305    17.701
ATOM     52  O   UNL d   1     -19.304 -14.851  -2.248 -0.01 -0.02    -0.251    17.701
ATOM     53  O   UNL d   1     -18.885 -16.994  -1.799 +0.00 -0.02    -0.481    17.701
ATOM     54  H   UNL d   1     -19.440 -17.469  -2.452 +0.01 +0.01    +0.295    17.701
TER
ENDMDL
MODEL       99
USER    Run = 99
USER    Cluster Rank = 42
USER    Number of conformations in this cluster = 2
USER  
USER    RMSD from reference structure       = 20.275 A
USER  
USER    Estimated Free Energy of Binding    =   -3.78 kcal/mol  [=(1)+(2)+(3)-(4)]
USER    Estimated Inhibition Constant, Ki   =    1.69 mM (millimolar)  [Temperature = 298.15 K]
USER    
USER    (1) Final Intermolecular Energy     =   -7.66 kcal/mol
USER        vdW + Hbond + desolv Energy     =   -7.32 kcal/mol
USER        Electrostatic Energy            =   -0.34 kcal/mol
USER    (2) Final Total Internal Energy     =   -4.48 kcal/mol
USER    (3) Torsional Free Energy           =   +3.88 kcal/mol
USER    (4) Unbound System's Energy  [=(2)] =   -4.48 kcal/mol
USER    
USER    
USER  
USER    DPF = D:/Protein_go_brrr/autodock/final/AncMH_nat/heme/dock.dpf
USER    NEWDPF move	heme_opt.pdbqt
USER    NEWDPF about	0.153000 0.018000 -0.028000
USER    NEWDPF tran0	-8.436676 -6.897318 19.284664
USER    NEWDPF axisangle0	0.539013 -0.589437 0.601688 -29.611314
USER    NEWDPF quaternion0	0.137740 -0.150626 0.153756 -0.966798
USER    NEWDPF dihe0	-137.01 -179.18 -177.77 -20.85 31.83 41.03 138.30 -66.95 113.83 -19.56 -85.92 -75.92 -12.09 
USER  
USER                              x       y       z    vdW   Elec        q     RMS 
ATOM      1  O   UNL d   1     -14.261  -6.990  18.378 -0.13 -0.30    -0.289    20.275
ATOM      2  O   UNL d   1      -8.813 -11.516  15.885 -0.66 -0.36    -0.289    20.275
ATOM      3  N   UNL d   1     -10.925  -6.456  19.072 -0.10 -0.04    -0.247    20.275
ATOM      4  N   UNL d   1      -9.600  -8.868  17.953 -0.10 -0.03    -0.247    20.275
ATOM      5  N   UNL d   1      -7.231  -8.127  19.404 -0.11 +0.03    -0.354    20.275
ATOM      6  N   UNL d   1      -8.620  -5.637  20.577 -0.06 +0.02    -0.354    20.275
ATOM      7  C   UNL d   1     -13.028  -5.418  19.786 -0.09 +0.02    +0.084    20.275
ATOM      8  C   UNL d   1     -10.732 -10.014  16.115 -0.36 +0.04    +0.084    20.275
ATOM      9  C   UNL d   1     -10.742  -8.918  17.185 -0.26 +0.02    +0.058    20.275
ATOM     10  C   UNL d   1     -11.499  -5.473  19.862 -0.13 +0.01    +0.058    20.275
ATOM     11  C   UNL d   1     -13.215  -6.532  18.800 -0.12 +0.09    +0.193    20.275
ATOM     12  C   UNL d   1     -11.866  -7.062  18.425 -0.17 +0.03    +0.109    20.275
ATOM     13  C   UNL d   1      -9.388 -10.602  16.442 -0.21 +0.10    +0.193    20.275
ATOM     14  C   UNL d   1     -13.683  -5.815  21.112 -0.03 +0.00    +0.026    20.275
ATOM     15  C   UNL d   1     -11.796  -8.111  17.388 -0.31 +0.02    +0.055    20.275
ATOM     16  C   UNL d   1     -10.681  -9.427  14.701 -0.27 +0.01    +0.026    20.275
ATOM     17  C   UNL d   1      -8.810  -9.823  17.578 -0.19 +0.02    +0.109    20.275
ATOM     18  C   UNL d   1     -10.797  -4.571  20.573 -0.16 -0.00    +0.050    20.275
ATOM     19  C   UNL d   1      -9.382  -4.493  20.634 -0.18 -0.00    +0.045    20.275
ATOM     20  C   UNL d   1      -6.868  -9.381  18.986 -0.20 -0.00    +0.045    20.275
ATOM     21  C   UNL d   1      -7.507 -10.202  18.146 -0.22 +0.00    +0.057    20.275
ATOM     22  C   UNL d   1      -5.275  -8.591  20.420 -0.19 +0.00    -0.019    20.275
ATOM     23  C   UNL d   1      -6.331  -7.570  20.273 -0.20 -0.01    +0.045    20.275
ATOM     24  C   UNL d   1      -5.598  -9.660  19.654 -0.18 +0.00    -0.022    20.275
ATOM     25  C   UNL d   1      -7.287  -5.339  20.743 -0.17 -0.00    +0.049    20.275
ATOM     26  C   UNL d   1      -8.521  -3.420  20.805 -0.19 +0.00    -0.018    20.275
ATOM     27  C   UNL d   1      -7.198  -3.958  20.854 -0.19 -0.00    +0.003    20.275
ATOM     28  C   UNL d   1      -6.321  -6.372  20.878 -0.18 -0.01    +0.052    20.275
ATOM     29  C   UNL d   1      -4.844 -10.932  19.461 -0.12 -0.00    +0.046    20.275
ATOM     30  C   UNL d   1      -8.901  -1.982  20.914 -0.08 -0.01    +0.046    20.275
ATOM     31  H   UNL d   1      -8.048  -7.661  19.024 +0.07 -0.01    +0.166    20.275
ATOM     32  H   UNL d   1      -9.010  -6.566  20.468 +0.05 -0.00    +0.166    20.275
ATOM     33  C   UNL d   1     -13.612  -4.111  19.239 -0.14 +0.03    +0.141    20.275
ATOM     34  C   UNL d   1     -15.035  -4.262  18.775 -0.08 +0.16    +0.306    20.275
ATOM     35  O   UNL d   1     -16.033  -4.166  19.469 -0.03 -0.11    -0.251    20.275
ATOM     36  O   UNL d   1     -15.126  -4.524  17.459 -0.37 -0.47    -0.481    20.275
ATOM     37  H   UNL d   1     -14.397  -5.156  17.282 +0.07 +0.29    +0.295    20.275
ATOM     38  C   UNL d   1      -6.002  -3.193  21.036 -0.02 -0.00    +0.017    20.275
ATOM     39  C   UNL d   1      -4.950  -3.566  21.781 -0.11 -0.02    +0.092    20.275
ATOM     40  C   UNL d   1      -3.775  -2.695  21.871 -0.05 -0.09    +0.330    20.275
ATOM     41  O   UNL d   1      -3.752  -1.482  21.946 -0.04 +0.07    -0.246    20.275
ATOM     42  O   UNL d   1      -2.653  -3.433  21.872 -0.04 +0.18    -0.477    20.275
ATOM     43  H   UNL d   1      -2.978  -4.354  21.797 +0.06 -0.11    +0.295    20.275
ATOM     44  C   UNL d   1     -11.836 -11.068  16.239 +0.04 +0.04    +0.141    20.275
ATOM     45  C   UNL d   1     -11.666 -11.970  17.432 -0.11 +0.02    +0.306    20.275
ATOM     46  O   UNL d   1     -12.171 -11.824  18.531 -0.07 -0.02    -0.251    20.275
ATOM     47  O   UNL d   1     -10.840 -13.003  17.183 -0.05 -0.01    -0.481    20.275
ATOM     48  H   UNL d   1     -10.545 -12.867  16.258 -0.42 +0.04    +0.295    20.275
ATOM     49  C   UNL d   1      -4.068  -8.435  21.297 -0.14 -0.01    +0.048    20.275
ATOM     50  C   UNL d   1      -2.858  -7.924  20.515 -0.11 -0.04    +0.125    20.275
ATOM     51  C   UNL d   1      -2.743  -6.430  20.622 -0.19 -0.18    +0.305    20.275
ATOM     52  O   UNL d   1      -3.441  -5.590  20.082 -0.10 +0.20    -0.251    20.275
ATOM     53  O   UNL d   1      -1.718  -6.059  21.415 -0.03 +0.22    -0.481    20.275
ATOM     54  H   UNL d   1      -1.525  -5.138  21.139 +0.07 -0.18    +0.295    20.275
TER
ENDMDL
MODEL       76
USER    Run = 76
USER    Cluster Rank = 43
USER    Number of conformations in this cluster = 1
USER  
USER    RMSD from reference structure       = 12.830 A
USER  
USER    Estimated Free Energy of Binding    =   -3.74 kcal/mol  [=(1)+(2)+(3)-(4)]
USER    Estimated Inhibition Constant, Ki   =    1.82 mM (millimolar)  [Temperature = 298.15 K]
USER    
USER    (1) Final Intermolecular Energy     =   -7.62 kcal/mol
USER        vdW + Hbond + desolv Energy     =   -7.40 kcal/mol
USER        Electrostatic Energy            =   -0.22 kcal/mol
USER    (2) Final Total Internal Energy     =   -2.24 kcal/mol
USER    (3) Torsional Free Energy           =   +3.88 kcal/mol
USER    (4) Unbound System's Energy  [=(2)] =   -2.24 kcal/mol
USER    
USER    
USER  
USER    DPF = D:/Protein_go_brrr/autodock/final/AncMH_nat/heme/dock.dpf
USER    NEWDPF move	heme_opt.pdbqt
USER    NEWDPF about	0.153000 0.018000 -0.028000
USER    NEWDPF tran0	11.749769 -12.540180 -0.340527
USER    NEWDPF axisangle0	-0.089168 -0.666009 -0.740595 -131.923009
USER    NEWDPF quaternion0	-0.081435 -0.608247 -0.676365 -0.407350
USER    NEWDPF dihe0	-103.93 -41.69 -91.80 48.84 35.24 -150.76 142.60 -144.54 130.54 -68.68 95.60 -102.26 -164.09 
USER  
USER                              x       y       z    vdW   Elec        q     RMS 
ATOM      1  O   UNL d   1      16.273  -9.307  -2.302 -0.04 +0.00    -0.289    12.830
ATOM      2  O   UNL d   1      10.948 -13.091  -6.005 -0.06 +0.07    -0.289    12.830
ATOM      3  N   UNL d   1      13.870 -11.197  -0.704 -0.13 +0.08    -0.247    12.830
ATOM      4  N   UNL d   1      12.077 -12.037  -2.920 -0.08 +0.11    -0.247    12.830
ATOM      5  N   UNL d   1      10.159 -12.846  -0.937 +0.07 +0.14    -0.354    12.830
ATOM      6  N   UNL d   1      12.018 -11.955   1.355 -0.10 +0.11    -0.354    12.830
ATOM      7  C   UNL d   1      15.644  -9.674   0.032 -0.13 -0.01    +0.084    12.830
ATOM      8  C   UNL d   1      13.051 -12.169  -5.157 -0.13 -0.02    +0.084    12.830
ATOM      9  C   UNL d   1      13.200 -11.794  -3.679 -0.22 -0.02    +0.058    12.830
ATOM     10  C   UNL d   1      14.483 -10.607   0.389 -0.19 -0.01    +0.058    12.830
ATOM     11  C   UNL d   1      15.591  -9.856  -1.455 -0.07 -0.02    +0.193    12.830
ATOM     12  C   UNL d   1      14.492 -10.822  -1.774 -0.18 -0.02    +0.109    12.830
ATOM     13  C   UNL d   1      11.623 -12.635  -5.103 -0.11 -0.06    +0.193    12.830
ATOM     14  C   UNL d   1      15.329  -8.213   0.363 -0.25 -0.01    +0.026    12.830
ATOM     15  C   UNL d   1      14.311 -11.229  -3.182 -0.22 -0.01    +0.055    12.830
ATOM     16  C   UNL d   1      13.942 -13.356  -5.534 -0.04 -0.00    +0.026    12.830
ATOM     17  C   UNL d   1      11.147 -12.497  -3.694 -0.19 -0.04    +0.109    12.830
ATOM     18  C   UNL d   1      14.168 -10.879   1.669 -0.18 -0.01    +0.050    12.830
ATOM     19  C   UNL d   1      13.168 -11.791   2.093 -0.16 -0.01    +0.045    12.830
ATOM     20  C   UNL d   1       9.391 -12.958  -2.066 -0.22 -0.01    +0.045    12.830
ATOM     21  C   UNL d   1       9.761 -12.840  -3.346 -0.25 -0.01    +0.057    12.830
ATOM     22  C   UNL d   1       8.064 -13.286  -0.236 -0.24 +0.00    -0.019    12.830
ATOM     23  C   UNL d   1       9.445 -13.028   0.218 -0.23 -0.01    +0.045    12.830
ATOM     24  C   UNL d   1       8.039 -13.244  -1.590 -0.26 -0.00    -0.022    12.830
ATOM     25  C   UNL d   1      11.152 -12.813   1.993 -0.18 -0.02    +0.049    12.830
ATOM     26  C   UNL d   1      13.063 -12.592   3.221 -0.10 +0.00    -0.018    12.830
ATOM     27  C   UNL d   1      11.797 -13.249   3.142 -0.12 -0.00    +0.003    12.830
ATOM     28  C   UNL d   1       9.834 -13.016   1.502 -0.22 -0.02    +0.052    12.830
ATOM     29  C   UNL d   1       6.883 -13.453  -2.508 -0.11 +0.01    +0.046    12.830
ATOM     30  C   UNL d   1      14.077 -12.740   4.304 -0.04 -0.01    +0.046    12.830
ATOM     31  H   UNL d   1      11.164 -12.722  -0.994 -0.32 -0.09    +0.166    12.830
ATOM     32  H   UNL d   1      11.836 -11.468   0.485 -0.46 -0.08    +0.166    12.830
ATOM     33  C   UNL d   1      17.014 -10.092   0.577 -0.03 -0.02    +0.141    12.830
ATOM     34  C   UNL d   1      18.115  -9.157   0.155 -0.01 -0.04    +0.306    12.830
ATOM     35  O   UNL d   1      18.481  -8.159   0.753 -0.01 +0.03    -0.251    12.830
ATOM     36  O   UNL d   1      18.698  -9.530  -0.998 +0.01 +0.05    -0.481    12.830
ATOM     37  H   UNL d   1      18.038  -9.313  -1.690 +0.04 -0.03    +0.295    12.830
ATOM     38  C   UNL d   1      11.278 -14.161   4.117 -0.06 -0.00    +0.017    12.830
ATOM     39  C   UNL d   1      10.197 -13.944   4.882 -0.07 -0.03    +0.092    12.830
ATOM     40  C   UNL d   1       9.759 -14.969   5.833 +0.01 -0.06    +0.330    12.830
ATOM     41  O   UNL d   1       8.633 -15.165   6.248 -0.00 +0.03    -0.246    12.830
ATOM     42  O   UNL d   1      10.802 -15.723   6.213 +0.01 +0.07    -0.477    12.830
ATOM     43  H   UNL d   1      10.669 -15.839   7.176 +0.01 -0.04    +0.295    12.830
ATOM     44  C   UNL d   1      13.214 -11.015  -6.151 -0.22 -0.04    +0.141    12.830
ATOM     45  C   UNL d   1      11.978 -10.757  -6.971 -0.17 -0.13    +0.306    12.830
ATOM     46  O   UNL d   1      11.134  -9.903  -6.765 -0.26 +0.13    -0.251    12.830
ATOM     47  O   UNL d   1      11.856 -11.614  -8.001 -0.00 +0.15    -0.481    12.830
ATOM     48  H   UNL d   1      11.381 -12.386  -7.626 +0.06 -0.08    +0.295    12.830
ATOM     49  C   UNL d   1       6.906 -13.532   0.686 -0.18 -0.00    +0.048    12.830
ATOM     50  C   UNL d   1       5.889 -12.392   0.638 -0.22 +0.02    +0.125    12.830
ATOM     51  C   UNL d   1       6.301 -11.267   1.544 -0.25 -0.07    +0.305    12.830
ATOM     52  O   UNL d   1       5.578 -10.477   2.124 -0.37 +0.04    -0.251    12.830
ATOM     53  O   UNL d   1       7.641 -11.183   1.666 -0.08 +0.33    -0.481    12.830
ATOM     54  H   UNL d   1       7.788 -11.115   2.633 -0.43 -0.57    +0.295    12.830
TER
ENDMDL
MODEL        2
USER    Run = 2
USER    Cluster Rank = 44
USER    Number of conformations in this cluster = 1
USER  
USER    RMSD from reference structure       = 11.173 A
USER  
USER    Estimated Free Energy of Binding    =   -3.74 kcal/mol  [=(1)+(2)+(3)-(4)]
USER    Estimated Inhibition Constant, Ki   =    1.82 mM (millimolar)  [Temperature = 298.15 K]
USER    
USER    (1) Final Intermolecular Energy     =   -7.62 kcal/mol
USER        vdW + Hbond + desolv Energy     =   -6.89 kcal/mol
USER        Electrostatic Energy            =   -0.72 kcal/mol
USER    (2) Final Total Internal Energy     =   -3.08 kcal/mol
USER    (3) Torsional Free Energy           =   +3.88 kcal/mol
USER    (4) Unbound System's Energy  [=(2)] =   -3.08 kcal/mol
USER    
USER    
USER  
USER    DPF = D:/Protein_go_brrr/autodock/final/AncMH_nat/heme/dock.dpf
USER    NEWDPF move	heme_opt.pdbqt
USER    NEWDPF about	0.153000 0.018000 -0.028000
USER    NEWDPF tran0	-11.290959 -1.467416 -8.222675
USER    NEWDPF axisangle0	-0.479047 0.153419 -0.864278 178.071486
USER    NEWDPF quaternion0	-0.478979 0.153397 -0.864156 0.016829
USER    NEWDPF dihe0	-124.76 160.18 162.81 15.12 -133.37 9.31 146.25 105.30 -121.56 39.80 -79.95 -29.84 -22.21 
USER  
USER                              x       y       z    vdW   Elec        q     RMS 
ATOM      1  O   UNL d   1      -8.022  -2.597 -12.997 -0.04 +0.05    -0.289    11.173
ATOM      2  O   UNL d   1     -10.301   3.905 -10.009 -0.08 +0.38    -0.289    11.173
ATOM      3  N   UNL d   1     -10.068  -2.430 -10.226 -0.05 -0.01    -0.247    11.173
ATOM      4  N   UNL d   1     -10.167   0.478  -9.624 -0.07 +0.10    -0.247    11.173
ATOM      5  N   UNL d   1     -11.309  -0.183  -7.069 -0.05 +0.04    -0.354    11.173
ATOM      6  N   UNL d   1     -11.184  -3.199  -7.694 -0.08 -0.05    -0.354    11.173
ATOM      7  C   UNL d   1      -8.928  -4.237 -11.427 -0.11 +0.02    +0.084    11.173
ATOM      8  C   UNL d   1      -9.794   2.018 -11.484 -0.06 -0.05    +0.084    11.173
ATOM      9  C   UNL d   1      -9.824   0.581 -10.954 -0.06 -0.02    +0.058    11.173
ATOM     10  C   UNL d   1      -9.828  -3.793 -10.270 -0.12 +0.02    +0.058    11.173
ATOM     11  C   UNL d   1      -8.716  -2.885 -12.039 -0.06 -0.01    +0.193    11.173
ATOM     12  C   UNL d   1      -9.479  -1.878 -11.236 -0.06 -0.00    +0.109    11.173
ATOM     13  C   UNL d   1     -10.146   2.715 -10.200 -0.01 -0.21    +0.193    11.173
ATOM     14  C   UNL d   1      -7.581  -4.773 -10.934 -0.23 +0.00    +0.026    11.173
ATOM     15  C   UNL d   1      -9.495  -0.479 -11.708 -0.05 -0.01    +0.055    11.173
ATOM     16  C   UNL d   1     -10.909   2.271 -12.503 -0.02 -0.01    +0.026    11.173
ATOM     17  C   UNL d   1     -10.339   1.670  -9.149 -0.12 -0.09    +0.109    11.173
ATOM     18  C   UNL d   1     -10.396  -4.687  -9.438 +0.04 +0.03    +0.050    11.173
ATOM     19  C   UNL d   1     -11.306  -4.377  -8.396 -0.14 +0.02    +0.045    11.173
ATOM     20  C   UNL d   1     -11.066   1.152  -6.880 -0.17 -0.02    +0.045    11.173
ATOM     21  C   UNL d   1     -10.652   2.063  -7.767 -0.09 -0.06    +0.057    11.173
ATOM     22  C   UNL d   1     -11.751   0.239  -4.901 -0.20 -0.00    -0.019    11.173
ATOM     23  C   UNL d   1     -11.726  -0.820  -5.931 -0.18 +0.00    +0.045    11.173
ATOM     24  C   UNL d   1     -11.360   1.404  -5.470 -0.18 +0.00    -0.022    11.173
ATOM     25  C   UNL d   1     -12.108  -3.146  -6.676 -0.18 +0.01    +0.049    11.173
ATOM     26  C   UNL d   1     -12.359  -5.090  -7.844 -0.14 -0.01    -0.018    11.173
ATOM     27  C   UNL d   1     -12.874  -4.299  -6.771 -0.14 +0.00    +0.003    11.173
ATOM     28  C   UNL d   1     -12.076  -2.097  -5.716 -0.25 +0.01    +0.052    11.173
ATOM     29  C   UNL d   1     -11.235   2.751  -4.844 -0.19 -0.01    +0.046    11.173
ATOM     30  C   UNL d   1     -12.860  -6.424  -8.286 -0.11 +0.04    +0.046    11.173
ATOM     31  H   UNL d   1     -11.252  -0.603  -7.991 +0.04 -0.02    +0.166    11.173
ATOM     32  H   UNL d   1     -10.478  -2.501  -7.890 -0.25 -0.01    +0.166    11.173
ATOM     33  C   UNL d   1      -9.577  -5.189 -12.436 -0.06 +0.04    +0.141    11.173
ATOM     34  C   UNL d   1      -9.739  -6.584 -11.895 -0.02 +0.26    +0.306    11.173
ATOM     35  O   UNL d   1      -8.866  -7.432 -11.818 -0.50 -0.26    -0.251    11.173
ATOM     36  O   UNL d   1     -10.992  -6.836 -11.478 -0.33 -0.52    -0.481    11.173
ATOM     37  H   UNL d   1     -11.559  -6.596 -12.241 +0.02 +0.16    +0.295    11.173
ATOM     38  C   UNL d   1     -13.963  -4.672  -5.919 -0.15 +0.01    +0.017    11.173
ATOM     39  C   UNL d   1     -14.532  -3.880  -4.998 -0.15 +0.07    +0.092    11.173
ATOM     40  C   UNL d   1     -15.655  -4.379  -4.200 +0.10 +0.38    +0.330    11.173
ATOM     41  O   UNL d   1     -16.101  -5.510  -4.169 -0.68 -0.27    -0.246    11.173
ATOM     42  O   UNL d   1     -16.166  -3.388  -3.452 -0.18 -0.56    -0.477    11.173
ATOM     43  H   UNL d   1     -15.446  -2.725  -3.417 +0.04 +0.33    +0.295    11.173
ATOM     44  C   UNL d   1      -8.438   2.497 -12.015 -0.14 -0.10    +0.141    11.173
ATOM     45  C   UNL d   1      -7.311   1.549 -11.707 -0.11 -0.16    +0.306    11.173
ATOM     46  O   UNL d   1      -6.795   0.758 -12.478 -0.33 +0.06    -0.251    11.173
ATOM     47  O   UNL d   1      -6.907   1.628 -10.426 -0.13 +0.49    -0.481    11.173
ATOM     48  H   UNL d   1      -7.257   2.487 -10.108 -0.34 -0.76    +0.295    11.173
ATOM     49  C   UNL d   1     -12.135   0.012  -3.469 -0.23 +0.02    +0.048    11.173
ATOM     50  C   UNL d   1     -13.525   0.567  -3.159 -0.11 +0.07    +0.125    11.173
ATOM     51  C   UNL d   1     -14.550  -0.531  -3.141 -0.07 +0.22    +0.305    11.173
ATOM     52  O   UNL d   1     -15.009  -1.103  -2.168 -0.12 -0.25    -0.251    11.173
ATOM     53  O   UNL d   1     -14.946  -0.871  -4.384 -0.01 -0.24    -0.481    11.173
ATOM     54  H   UNL d   1     -15.760  -1.399  -4.238 +0.04 +0.17    +0.295    11.173
TER
ENDMDL
MODEL       92
USER    Run = 92
USER    Cluster Rank = 45
USER    Number of conformations in this cluster = 1
USER  
USER    RMSD from reference structure       = 20.231 A
USER  
USER    Estimated Free Energy of Binding    =   -3.73 kcal/mol  [=(1)+(2)+(3)-(4)]
USER    Estimated Inhibition Constant, Ki   =    1.85 mM (millimolar)  [Temperature = 298.15 K]
USER    
USER    (1) Final Intermolecular Energy     =   -7.61 kcal/mol
USER        vdW + Hbond + desolv Energy     =   -7.43 kcal/mol
USER        Electrostatic Energy            =   -0.18 kcal/mol
USER    (2) Final Total Internal Energy     =   -3.27 kcal/mol
USER    (3) Torsional Free Energy           =   +3.88 kcal/mol
USER    (4) Unbound System's Energy  [=(2)] =   -3.27 kcal/mol
USER    
USER    
USER  
USER    DPF = D:/Protein_go_brrr/autodock/final/AncMH_nat/heme/dock.dpf
USER    NEWDPF move	heme_opt.pdbqt
USER    NEWDPF about	0.153000 0.018000 -0.028000
USER    NEWDPF tran0	-10.458489 14.326914 15.451748
USER    NEWDPF axisangle0	0.308561 0.199391 -0.930072 151.653161
USER    NEWDPF quaternion0	0.299168 0.193322 -0.901759 0.244858
USER    NEWDPF dihe0	-179.87 -94.49 -108.02 96.21 58.49 95.29 126.77 93.57 163.96 -37.23 -51.38 23.53 10.57 
USER  
USER                              x       y       z    vdW   Elec        q     RMS 
ATOM      1  O   UNL d   1      -7.486   9.709  17.595 -0.09 +0.11    -0.289    20.231
ATOM      2  O   UNL d   1      -6.015  17.068  17.855 -0.02 +0.03    -0.289    20.231
ATOM      3  N   UNL d   1      -9.478  12.068  16.058 -0.15 +0.06    -0.247    20.231
ATOM      4  N   UNL d   1      -8.299  14.645  16.951 -0.08 +0.08    -0.247    20.231
ATOM      5  N   UNL d   1     -10.665  15.958  15.978 -0.05 +0.29    -0.354    20.231
ATOM      6  N   UNL d   1     -11.889  13.278  15.072 -0.10 +0.12    -0.354    20.231
ATOM      7  C   UNL d   1      -9.628   9.648  16.418 -0.19 -0.02    +0.084    20.231
ATOM      8  C   UNL d   1      -5.933  14.639  17.560 -0.04 -0.01    +0.084    20.231
ATOM      9  C   UNL d   1      -7.184  13.860  17.144 -0.10 -0.01    +0.058    20.231
ATOM     10  C   UNL d   1     -10.241  10.931  15.850 -0.21 -0.01    +0.058    20.231
ATOM     11  C   UNL d   1      -8.373  10.258  16.967 -0.11 -0.05    +0.193    20.231
ATOM     12  C   UNL d   1      -8.388  11.724  16.663 -0.15 -0.02    +0.109    20.231
ATOM     13  C   UNL d   1      -6.553  16.008  17.604 -0.03 -0.03    +0.193    20.231
ATOM     14  C   UNL d   1     -10.451   9.081  17.577 -0.11 -0.00    +0.026    20.231
ATOM     15  C   UNL d   1      -7.202  12.523  17.030 -0.13 -0.01    +0.055    20.231
ATOM     16  C   UNL d   1      -4.861  14.619  16.466 -0.09 -0.00    +0.026    20.231
ATOM     17  C   UNL d   1      -7.991  15.872  17.221 -0.10 -0.03    +0.109    20.231
ATOM     18  C   UNL d   1     -11.382  10.908  15.136 -0.24 -0.01    +0.050    20.231
ATOM     19  C   UNL d   1     -11.978  12.028  14.502 -0.26 -0.01    +0.045    20.231
ATOM     20  C   UNL d   1     -10.077  16.998  16.650 -0.16 -0.03    +0.045    20.231
ATOM     21  C   UNL d   1      -8.868  17.053  17.218 -0.14 -0.02    +0.057    20.231
ATOM     22  C   UNL d   1     -12.155  17.646  15.958 -0.01 +0.02    -0.019    20.231
ATOM     23  C   UNL d   1     -11.922  16.254  15.524 -0.16 -0.04    +0.045    20.231
ATOM     24  C   UNL d   1     -11.059  18.081  16.623 -0.07 +0.02    -0.022    20.231
ATOM     25  C   UNL d   1     -12.610  14.194  14.343 -0.20 -0.02    +0.049    20.231
ATOM     26  C   UNL d   1     -12.746  12.142  13.354 -0.36 +0.00    -0.018    20.231
ATOM     27  C   UNL d   1     -13.126  13.516  13.248 -0.29 -0.00    +0.003    20.231
ATOM     28  C   UNL d   1     -12.797  15.521  14.819 -0.20 -0.03    +0.052    20.231
ATOM     29  C   UNL d   1     -10.810  19.416  17.240 -0.07 -0.03    +0.046    20.231
ATOM     30  C   UNL d   1     -13.105  11.045  12.410 -0.42 -0.01    +0.046    20.231
ATOM     31  H   UNL d   1     -10.157  15.101  15.788 -0.49 -0.15    +0.166    20.231
ATOM     32  H   UNL d   1     -11.390  13.466  15.933 +0.01 -0.06    +0.166    20.231
ATOM     33  C   UNL d   1      -9.292   8.567  15.385 -0.34 -0.04    +0.141    20.231
ATOM     34  C   UNL d   1      -9.430   7.174  15.938 -0.26 -0.11    +0.306    20.231
ATOM     35  O   UNL d   1     -10.260   6.345  15.606 -0.39 +0.09    -0.251    20.231
ATOM     36  O   UNL d   1      -8.512   6.898  16.881 -0.12 +0.32    -0.481    20.231
ATOM     37  H   UNL d   1      -7.954   7.704  16.926 +0.12 -0.22    +0.295    20.231
ATOM     38  C   UNL d   1     -13.942  14.069  12.209 -0.29 -0.01    +0.017    20.231
ATOM     39  C   UNL d   1     -13.563  15.035  11.358 -0.29 -0.06    +0.092    20.231
ATOM     40  C   UNL d   1     -14.490  15.503  10.324 -0.12 -0.18    +0.330    20.231
ATOM     41  O   UNL d   1     -15.262  16.441  10.387 -0.06 +0.10    -0.246    20.231
ATOM     42  O   UNL d   1     -14.381  14.739   9.227 -0.29 +0.22    -0.477    20.231
ATOM     43  H   UNL d   1     -14.977  13.983   9.406 -0.45 -0.22    +0.295    20.231
ATOM     44  C   UNL d   1      -5.341  14.262  18.923 -0.01 -0.02    +0.141    20.231
ATOM     45  C   UNL d   1      -5.962  15.015  20.069 +0.00 -0.03    +0.306    20.231
ATOM     46  O   UNL d   1      -7.004  14.742  20.639 -0.00 +0.03    -0.251    20.231
ATOM     47  O   UNL d   1      -5.244  16.097  20.422 +0.00 +0.04    -0.481    20.231
ATOM     48  H   UNL d   1      -5.375  16.732  19.686 +0.00 -0.02    +0.295    20.231
ATOM     49  C   UNL d   1     -13.421  18.409  15.699 -0.07 -0.03    +0.048    20.231
ATOM     50  C   UNL d   1     -13.547  18.819  14.232 -0.03 -0.14    +0.125    20.231
ATOM     51  C   UNL d   1     -14.888  18.427  13.678 -0.04 -0.17    +0.305    20.231
ATOM     52  O   UNL d   1     -15.923  19.068  13.714 -0.01 +0.08    -0.251    20.231
ATOM     53  O   UNL d   1     -14.859  17.208  13.103 -0.01 +0.26    -0.481    20.231
ATOM     54  H   UNL d   1     -14.535  17.381  12.195 +0.05 -0.21    +0.295    20.231
TER
ENDMDL
MODEL       18
USER    Run = 18
USER    Cluster Rank = 46
USER    Number of conformations in this cluster = 1
USER  
USER    RMSD from reference structure       = 19.238 A
USER  
USER    Estimated Free Energy of Binding    =   -3.69 kcal/mol  [=(1)+(2)+(3)-(4)]
USER    Estimated Inhibition Constant, Ki   =    1.97 mM (millimolar)  [Temperature = 298.15 K]
USER    
USER    (1) Final Intermolecular Energy     =   -7.57 kcal/mol
USER        vdW + Hbond + desolv Energy     =   -7.16 kcal/mol
USER        Electrostatic Energy            =   -0.41 kcal/mol
USER    (2) Final Total Internal Energy     =   -2.65 kcal/mol
USER    (3) Torsional Free Energy           =   +3.88 kcal/mol
USER    (4) Unbound System's Energy  [=(2)] =   -2.65 kcal/mol
USER    
USER    
USER  
USER    DPF = D:/Protein_go_brrr/autodock/final/AncMH_nat/heme/dock.dpf
USER    NEWDPF move	heme_opt.pdbqt
USER    NEWDPF about	0.153000 0.018000 -0.028000
USER    NEWDPF tran0	-12.486874 -19.689592 2.764015
USER    NEWDPF axisangle0	0.862606 0.171421 0.475948 132.188726
USER    NEWDPF quaternion0	0.788606 0.156715 0.435118 0.405232
USER    NEWDPF dihe0	-100.23 -79.29 -113.63 -110.12 34.01 99.95 120.35 -91.30 129.22 -35.69 -143.33 -161.88 -6.17 
USER  
USER                              x       y       z    vdW   Elec        q     RMS 
ATOM      1  O   UNL d   1     -14.322 -19.647  -2.838 -0.04 -0.02    -0.289    19.238
ATOM      2  O   UNL d   1     -17.797 -17.617   3.502 -0.05 -0.01    -0.289    19.238
ATOM      3  N   UNL d   1     -12.875 -19.980   0.274 -0.09 -0.02    -0.247    19.238
ATOM      4  N   UNL d   1     -14.831 -18.663   2.082 -0.06 -0.02    -0.247    19.238
ATOM      5  N   UNL d   1     -12.814 -18.687   4.131 -0.13 -0.01    -0.354    19.238
ATOM      6  N   UNL d   1     -10.784 -20.036   2.243 -0.05 +0.03    -0.354    19.238
ATOM      7  C   UNL d   1     -12.110 -20.303  -2.032 -0.08 +0.01    +0.084    19.238
ATOM      8  C   UNL d   1     -17.162 -18.604   1.354 -0.06 +0.00    +0.084    19.238
ATOM      9  C   UNL d   1     -15.700 -18.946   1.052 -0.09 +0.00    +0.058    19.238
ATOM     10  C   UNL d   1     -11.805 -20.335  -0.531 -0.14 +0.00    +0.058    19.238
ATOM     11  C   UNL d   1     -13.546 -19.885  -1.931 -0.06 +0.02    +0.193    19.238
ATOM     12  C   UNL d   1     -13.897 -19.748  -0.482 +0.01 +0.01    +0.109    19.238
ATOM     13  C   UNL d   1     -16.957 -18.040   2.731 -0.08 +0.01    +0.193    19.238
ATOM     14  C   UNL d   1     -11.325 -19.205  -2.754 -0.15 +0.01    +0.026    19.238
ATOM     15  C   UNL d   1     -15.297 -19.431  -0.133 -0.08 +0.00    +0.055    19.238
ATOM     16  C   UNL d   1     -18.029 -19.862   1.461 -0.02 +0.00    +0.026    19.238
ATOM     17  C   UNL d   1     -15.500 -18.126   3.051 -0.16 +0.01    +0.109    19.238
ATOM     18  C   UNL d   1     -10.618 -20.763  -0.064 -0.16 +0.00    +0.050    19.238
ATOM     19  C   UNL d   1     -10.276 -20.907   1.305 -0.14 -0.00    +0.045    19.238
ATOM     20  C   UNL d   1     -13.751 -17.889   4.733 -0.28 +0.00    +0.045    19.238
ATOM     21  C   UNL d   1     -14.993 -17.604   4.328 -0.21 +0.00    +0.057    19.238
ATOM     22  C   UNL d   1     -11.861 -17.903   6.015 -0.39 +0.00    -0.019    19.238
ATOM     23  C   UNL d   1     -11.639 -18.757   4.831 -0.32 -0.00    +0.045    19.238
ATOM     24  C   UNL d   1     -13.114 -17.394   5.952 -0.34 +0.00    -0.022    19.238
ATOM     25  C   UNL d   1     -10.254 -20.300   3.485 -0.20 -0.00    +0.049    19.238
ATOM     26  C   UNL d   1      -9.423 -21.781   1.960 -0.12 +0.00    -0.018    19.238
ATOM     27  C   UNL d   1      -9.428 -21.406   3.339 -0.18 -0.00    +0.003    19.238
ATOM     28  C   UNL d   1     -10.508 -19.436   4.584 -0.37 -0.01    +0.052    19.238
ATOM     29  C   UNL d   1     -13.803 -16.490   6.917 -0.34 -0.00    +0.046    19.238
ATOM     30  C   UNL d   1      -8.651 -22.899   1.345 -0.06 -0.00    +0.046    19.238
ATOM     31  H   UNL d   1     -13.034 -19.219   3.296 +0.05 +0.00    +0.166    19.238
ATOM     32  H   UNL d   1     -11.427 -19.285   2.020 -0.05 -0.01    +0.166    19.238
ATOM     33  C   UNL d   1     -11.990 -21.649  -2.755 -0.02 +0.01    +0.141    19.238
ATOM     34  C   UNL d   1     -12.374 -21.562  -4.207 +0.00 +0.02    +0.306    19.238
ATOM     35  O   UNL d   1     -11.632 -21.281  -5.133 +0.00 -0.02    -0.251    19.238
ATOM     36  O   UNL d   1     -13.674 -21.835  -4.417 +0.00 -0.02    -0.481    19.238
ATOM     37  H   UNL d   1     -14.146 -21.020  -4.142 +0.01 +0.01    +0.295    19.238
ATOM     38  C   UNL d   1      -8.666 -22.043   4.370 -0.21 -0.01    +0.017    19.238
ATOM     39  C   UNL d   1      -7.337 -22.223   4.352 -0.25 -0.04    +0.092    19.238
ATOM     40  C   UNL d   1      -6.673 -22.877   5.483 -0.18 -0.26    +0.330    19.238
ATOM     41  O   UNL d   1      -6.340 -24.043   5.577 -0.14 +0.20    -0.246    19.238
ATOM     42  O   UNL d   1      -6.450 -21.989   6.464 -0.16 +0.58    -0.477    19.238
ATOM     43  H   UNL d   1      -7.170 -22.161   7.105 -0.41 -0.67    +0.295    19.238
ATOM     44  C   UNL d   1     -17.803 -17.567   0.425 -0.06 +0.01    +0.141    19.238
ATOM     45  C   UNL d   1     -17.545 -16.147   0.853 -0.10 +0.03    +0.306    19.238
ATOM     46  O   UNL d   1     -16.507 -15.523   0.713 -0.20 -0.03    -0.251    19.238
ATOM     47  O   UNL d   1     -18.607 -15.592   1.463 -0.02 -0.04    -0.481    19.238
ATOM     48  H   UNL d   1     -18.714 -16.106   2.291 +0.04 +0.02    +0.295    19.238
ATOM     49  C   UNL d   1     -10.833 -17.656   7.080 -0.37 -0.01    +0.048    19.238
ATOM     50  C   UNL d   1     -10.915 -18.691   8.201 -0.30 -0.04    +0.125    19.238
ATOM     51  C   UNL d   1     -11.234 -20.053   7.652 -0.13 -0.13    +0.305    19.238
ATOM     52  O   UNL d   1     -12.325 -20.594   7.596 -0.05 +0.07    -0.251    19.238
ATOM     53  O   UNL d   1     -10.133 -20.685   7.200 -0.08 +0.37    -0.481    19.238
ATOM     54  H   UNL d   1      -9.626 -20.890   8.013 -0.12 -0.49    +0.295    19.238
TER
ENDMDL
MODEL        9
USER    Run = 9
USER    Cluster Rank = 47
USER    Number of conformations in this cluster = 2
USER  
USER    RMSD from reference structure       = 17.322 A
USER  
USER    Estimated Free Energy of Binding    =   -3.69 kcal/mol  [=(1)+(2)+(3)-(4)]
USER    Estimated Inhibition Constant, Ki   =    1.98 mM (millimolar)  [Temperature = 298.15 K]
USER    
USER    (1) Final Intermolecular Energy     =   -7.57 kcal/mol
USER        vdW + Hbond + desolv Energy     =   -7.08 kcal/mol
USER        Electrostatic Energy            =   -0.49 kcal/mol
USER    (2) Final Total Internal Energy     =   -4.07 kcal/mol
USER    (3) Torsional Free Energy           =   +3.88 kcal/mol
USER    (4) Unbound System's Energy  [=(2)] =   -4.07 kcal/mol
USER    
USER    
USER  
USER    DPF = D:/Protein_go_brrr/autodock/final/AncMH_nat/heme/dock.dpf
USER    NEWDPF move	heme_opt.pdbqt
USER    NEWDPF about	0.153000 0.018000 -0.028000
USER    NEWDPF tran0	-17.196028 12.987789 0.797410
USER    NEWDPF axisangle0	0.492083 -0.459471 0.739419 129.480250
USER    NEWDPF quaternion0	0.445031 -0.415537 0.668717 0.426725
USER    NEWDPF dihe0	71.43 131.29 -95.04 -92.33 180.00 13.68 177.84 19.47 101.94 20.36 -56.14 -34.13 -8.71 
USER  
USER                              x       y       z    vdW   Elec        q     RMS 
ATOM      1  O   UNL d   1     -14.896  17.661  -1.965 -0.36 -0.22    -0.289    17.322
ATOM      2  O   UNL d   1     -19.032  17.172   4.284 -0.00 +0.04    -0.289    17.322
ATOM      3  N   UNL d   1     -16.151  14.673  -0.784 -0.11 +0.19    -0.247    17.322
ATOM      4  N   UNL d   1     -17.357  15.422   1.826 -0.06 +0.23    -0.247    17.322
ATOM      5  N   UNL d   1     -17.511  12.621   2.454 -0.01 +0.29    -0.354    17.322
ATOM      6  N   UNL d   1     -16.242  11.853  -0.248 -0.11 +0.24    -0.354    17.322
ATOM      7  C   UNL d   1     -14.639  15.315  -2.603 -0.19 -0.00    +0.084    17.322
ATOM      8  C   UNL d   1     -18.101  17.735   2.091 -0.03 -0.01    +0.084    17.322
ATOM      9  C   UNL d   1     -17.393  16.671   1.246 -0.09 -0.02    +0.058    17.322
ATOM     10  C   UNL d   1     -15.364  14.212  -1.826 -0.23 -0.02    +0.058    17.322
ATOM     11  C   UNL d   1     -15.170  16.483  -1.827 -0.13 +0.03    +0.193    17.322
ATOM     12  C   UNL d   1     -16.095  15.965  -0.769 -0.15 -0.04    +0.109    17.322
ATOM     13  C   UNL d   1     -18.427  16.868   3.275 -0.02 -0.04    +0.193    17.322
ATOM     14  C   UNL d   1     -13.121  15.246  -2.417 -0.34 +0.00    +0.026    17.322
ATOM     15  C   UNL d   1     -16.814  16.947   0.067 -0.13 -0.01    +0.055    17.322
ATOM     16  C   UNL d   1     -19.410  18.196   1.443 -0.00 -0.00    +0.026    17.322
ATOM     17  C   UNL d   1     -17.916  15.493   2.992 -0.09 -0.06    +0.109    17.322
ATOM     18  C   UNL d   1     -15.295  12.923  -2.206 -0.14 -0.01    +0.050    17.322
ATOM     19  C   UNL d   1     -15.996  11.848  -1.602 -0.04 -0.01    +0.045    17.322
ATOM     20  C   UNL d   1     -17.831  13.154   3.676 -0.18 -0.02    +0.045    17.322
ATOM     21  C   UNL d   1     -18.055  14.432   4.000 -0.15 -0.02    +0.057    17.322
ATOM     22  C   UNL d   1     -17.603  10.892   3.895 -0.31 +0.00    -0.019    17.322
ATOM     23  C   UNL d   1     -17.353  11.261   2.487 -0.23 -0.02    +0.045    17.322
ATOM     24  C   UNL d   1     -17.887  12.017   4.593 -0.25 +0.00    -0.022    17.322
ATOM     25  C   UNL d   1     -16.850  10.681   0.137 -0.21 -0.01    +0.049    17.322
ATOM     26  C   UNL d   1     -16.490  10.659  -2.116 -0.12 +0.00    -0.018    17.322
ATOM     27  C   UNL d   1     -17.046   9.935  -1.016 -0.14 -0.00    +0.003    17.322
ATOM     28  C   UNL d   1     -17.062  10.387   1.512 -0.29 -0.01    +0.052    17.322
ATOM     29  C   UNL d   1     -18.220  12.158   6.040 +0.00 +0.00    +0.046    17.322
ATOM     30  C   UNL d   1     -16.452  10.221  -3.541 -0.09 +0.00    +0.046    17.322
ATOM     31  H   UNL d   1     -17.483  13.197   1.620 -0.21 -0.19    +0.166    17.322
ATOM     32  H   UNL d   1     -15.966  12.608   0.369 -0.46 -0.33    +0.166    17.322
ATOM     33  C   UNL d   1     -15.019  15.436  -4.083 -0.07 +0.01    +0.141    17.322
ATOM     34  C   UNL d   1     -14.904  16.845  -4.598 -0.01 +0.04    +0.306    17.322
ATOM     35  O   UNL d   1     -15.780  17.481  -5.158 -0.00 -0.02    -0.251    17.322
ATOM     36  O   UNL d   1     -13.690  17.379  -4.377 -0.00 -0.12    -0.481    17.322
ATOM     37  H   UNL d   1     -13.846  18.076  -3.704 +0.05 +0.13    +0.295    17.322
ATOM     38  C   UNL d   1     -17.651   8.640  -1.103 -0.09 +0.00    +0.017    17.322
ATOM     39  C   UNL d   1     -18.216   7.980  -0.080 -0.08 +0.03    +0.092    17.322
ATOM     40  C   UNL d   1     -18.820   6.664  -0.306 -0.02 +0.15    +0.330    17.322
ATOM     41  O   UNL d   1     -18.721   5.960  -1.292 -0.02 -0.12    -0.246    17.322
ATOM     42  O   UNL d   1     -19.532   6.293   0.769 -0.01 -0.29    -0.477    17.322
ATOM     43  H   UNL d   1     -18.923   6.450   1.520 +0.08 +0.20    +0.295    17.322
ATOM     44  C   UNL d   1     -17.237  18.930   2.507 -0.03 +0.00    +0.141    17.322
ATOM     45  C   UNL d   1     -15.778  18.587   2.652 -0.08 +0.02    +0.306    17.322
ATOM     46  O   UNL d   1     -14.835  19.222   2.213 -0.60 -0.22    -0.251    17.322
ATOM     47  O   UNL d   1     -15.584  17.438   3.323 -0.04 +0.31    -0.481    17.322
ATOM     48  H   UNL d   1     -15.677  16.735   2.645 -0.24 -0.44    +0.295    17.322
ATOM     49  C   UNL d   1     -17.528   9.490   4.424 -0.43 +0.01    +0.048    17.322
ATOM     50  C   UNL d   1     -18.887   8.792   4.382 -0.22 +0.03    +0.125    17.322
ATOM     51  C   UNL d   1     -18.804   7.501   3.618 -0.16 +0.16    +0.305    17.322
ATOM     52  O   UNL d   1     -17.798   6.906   3.273 -0.28 -0.16    -0.251    17.322
ATOM     53  O   UNL d   1     -20.024   7.018   3.309 -0.05 -0.31    -0.481    17.322
ATOM     54  H   UNL d   1     -20.243   7.453   2.459 +0.06 +0.14    +0.295    17.322
TER
ENDMDL
MODEL       13
USER    Run = 13
USER    Cluster Rank = 48
USER    Number of conformations in this cluster = 1
USER  
USER    RMSD from reference structure       = 13.270 A
USER  
USER    Estimated Free Energy of Binding    =   -3.65 kcal/mol  [=(1)+(2)+(3)-(4)]
USER    Estimated Inhibition Constant, Ki   =    2.12 mM (millimolar)  [Temperature = 298.15 K]
USER    
USER    (1) Final Intermolecular Energy     =   -7.53 kcal/mol
USER        vdW + Hbond + desolv Energy     =   -7.38 kcal/mol
USER        Electrostatic Energy            =   -0.15 kcal/mol
USER    (2) Final Total Internal Energy     =   -4.06 kcal/mol
USER    (3) Torsional Free Energy           =   +3.88 kcal/mol
USER    (4) Unbound System's Energy  [=(2)] =   -4.06 kcal/mol
USER    
USER    
USER  
USER    DPF = D:/Protein_go_brrr/autodock/final/AncMH_nat/heme/dock.dpf
USER    NEWDPF move	heme_opt.pdbqt
USER    NEWDPF about	0.153000 0.018000 -0.028000
USER    NEWDPF tran0	10.140150 -12.106362 -6.126398
USER    NEWDPF axisangle0	-0.896894 0.092217 0.432523 -81.385056
USER    NEWDPF quaternion0	-0.584775 0.060125 0.282005 -0.758219
USER    NEWDPF dihe0	90.59 151.84 -120.40 57.69 -133.91 114.86 120.70 35.42 55.01 -26.63 -75.98 -156.54 24.35 
USER  
USER                              x       y       z    vdW   Elec        q     RMS 
ATOM      1  O   UNL d   1       4.466 -13.249  -5.005 -0.19 -0.03    -0.289    13.270
ATOM      2  O   UNL d   1      10.715 -15.270  -1.363 -0.02 +0.04    -0.289    13.270
ATOM      3  N   UNL d   1       7.627 -12.446  -6.128 -0.12 +0.03    -0.247    13.270
ATOM      4  N   UNL d   1       9.392 -13.380  -3.928 -0.13 +0.04    -0.247    13.270
ATOM      5  N   UNL d   1      11.527 -11.872  -5.126 -0.08 +0.14    -0.354    13.270
ATOM      6  N   UNL d   1       9.684 -10.892  -7.394 -0.08 +0.14    -0.354    13.270
ATOM      7  C   UNL d   1       5.347 -11.876  -6.825 -0.25 +0.00    +0.084    13.270
ATOM      8  C   UNL d   1       8.562 -15.200  -2.526 -0.05 -0.01    +0.084    13.270
ATOM      9  C   UNL d   1       8.314 -14.191  -3.651 -0.12 -0.00    +0.058    13.270
ATOM     10  C   UNL d   1       6.857 -11.734  -7.034 -0.21 -0.00    +0.058    13.270
ATOM     11  C   UNL d   1       5.398 -12.809  -5.653 -0.04 +0.02    +0.193    13.270
ATOM     12  C   UNL d   1       6.834 -13.099  -5.343 -0.16 +0.00    +0.109    13.270
ATOM     13  C   UNL d   1       9.967 -14.787  -2.190 -0.05 -0.03    +0.193    13.270
ATOM     14  C   UNL d   1       4.701 -10.560  -6.383 -0.51 +0.01    +0.026    13.270
ATOM     15  C   UNL d   1       7.132 -14.075  -4.275 -0.15 +0.00    +0.055    13.270
ATOM     16  C   UNL d   1       8.584 -16.640  -3.049 -0.02 -0.00    +0.026    13.270
ATOM     17  C   UNL d   1      10.349 -13.670  -3.107 -0.15 -0.02    +0.109    13.270
ATOM     18  C   UNL d   1       7.362 -11.043  -8.073 -0.22 -0.01    +0.050    13.270
ATOM     19  C   UNL d   1       8.738 -10.927  -8.394 -0.18 -0.01    +0.045    13.270
ATOM     20  C   UNL d   1      12.116 -12.208  -3.935 -0.23 -0.02    +0.045    13.270
ATOM     21  C   UNL d   1      11.666 -13.029  -2.980 -0.19 -0.02    +0.057    13.270
ATOM     22  C   UNL d   1      13.480 -10.752  -5.047 -0.29 +0.00    -0.019    13.270
ATOM     23  C   UNL d   1      12.276 -10.997  -5.867 -0.25 -0.02    +0.045    13.270
ATOM     24  C   UNL d   1      13.380 -11.473  -3.905 -0.26 +0.01    -0.022    13.270
ATOM     25  C   UNL d   1      10.937 -10.685  -7.921 -0.22 -0.02    +0.049    13.270
ATOM     26  C   UNL d   1       9.398 -10.777  -9.604 -0.12 +0.00    -0.018    13.270
ATOM     27  C   UNL d   1      10.788 -10.644  -9.301 -0.14 -0.00    +0.003    13.270
ATOM     28  C   UNL d   1      12.056 -10.455  -7.075 -0.30 -0.02    +0.052    13.270
ATOM     29  C   UNL d   1      14.345 -11.567  -2.773 -0.19 -0.01    +0.046    13.270
ATOM     30  C   UNL d   1       8.778 -10.760 -10.960 -0.08 -0.01    +0.046    13.270
ATOM     31  H   UNL d   1      10.664 -12.310  -5.428 -0.10 -0.07    +0.166    13.270
ATOM     32  H   UNL d   1       9.460 -10.967  -6.408 -0.46 -0.11    +0.166    13.270
ATOM     33  C   UNL d   1       4.580 -12.516  -7.988 +0.09 -0.01    +0.141    13.270
ATOM     34  C   UNL d   1       4.221 -13.953  -7.724 -0.11 -0.11    +0.306    13.270
ATOM     35  O   UNL d   1       4.963 -14.914  -7.837 -0.04 +0.07    -0.251    13.270
ATOM     36  O   UNL d   1       2.944 -14.104  -7.329 -0.09 +0.48    -0.481    13.270
ATOM     37  H   UNL d   1       2.983 -14.065  -6.349 -0.26 -0.48    +0.295    13.270
ATOM     38  C   UNL d   1      11.829 -10.453 -10.266 -0.11 -0.01    +0.017    13.270
ATOM     39  C   UNL d   1      11.915  -9.419 -11.116 -0.04 -0.07    +0.092    13.270
ATOM     40  C   UNL d   1      13.044  -9.331 -12.046 -0.05 -0.19    +0.330    13.270
ATOM     41  O   UNL d   1      13.018  -9.424 -13.258 -0.03 +0.08    -0.246    13.270
ATOM     42  O   UNL d   1      14.183  -9.113 -11.370 -0.05 +0.36    -0.477    13.270
ATOM     43  H   UNL d   1      13.892  -8.634 -10.567 -0.06 -0.40    +0.295    13.270
ATOM     44  C   UNL d   1       7.645 -15.068  -1.306 -0.06 -0.00    +0.141    13.270
ATOM     45  C   UNL d   1       8.013 -13.916  -0.408 -0.10 -0.01    +0.306    13.270
ATOM     46  O   UNL d   1       7.785 -12.736  -0.610 -0.24 +0.00    -0.251    13.270
ATOM     47  O   UNL d   1       8.678 -14.313   0.692 -0.00 +0.06    -0.481    13.270
ATOM     48  H   UNL d   1       9.475 -14.770   0.348 +0.05 -0.04    +0.295    13.270
ATOM     49  C   UNL d   1      14.598  -9.835  -5.446 +0.09 -0.00    +0.048    13.270
ATOM     50  C   UNL d   1      15.238 -10.258  -6.768 -0.20 -0.02    +0.125    13.270
ATOM     51  C   UNL d   1      14.810  -9.349  -7.885 -0.22 -0.14    +0.305    13.270
ATOM     52  O   UNL d   1      14.497  -8.174  -7.809 -0.44 +0.18    -0.251    13.270
ATOM     53  O   UNL d   1      14.786  -9.987  -9.073 -0.03 +0.23    -0.481    13.270
ATOM     54  H   UNL d   1      15.391  -9.461  -9.637 +0.07 -0.15    +0.295    13.270
TER
ENDMDL
MODEL       87
USER    Run = 87
USER    Cluster Rank = 49
USER    Number of conformations in this cluster = 1
USER  
USER    RMSD from reference structure       = 14.739 A
USER  
USER    Estimated Free Energy of Binding    =   -3.62 kcal/mol  [=(1)+(2)+(3)-(4)]
USER    Estimated Inhibition Constant, Ki   =    2.22 mM (millimolar)  [Temperature = 298.15 K]
USER    
USER    (1) Final Intermolecular Energy     =   -7.50 kcal/mol
USER        vdW + Hbond + desolv Energy     =   -6.66 kcal/mol
USER        Electrostatic Energy            =   -0.83 kcal/mol
USER    (2) Final Total Internal Energy     =   -2.68 kcal/mol
USER    (3) Torsional Free Energy           =   +3.88 kcal/mol
USER    (4) Unbound System's Energy  [=(2)] =   -2.68 kcal/mol
USER    
USER    
USER  
USER    DPF = D:/Protein_go_brrr/autodock/final/AncMH_nat/heme/dock.dpf
USER    NEWDPF move	heme_opt.pdbqt
USER    NEWDPF about	0.153000 0.018000 -0.028000
USER    NEWDPF tran0	-15.204605 10.572707 -1.960903
USER    NEWDPF axisangle0	0.294270 0.913608 -0.280580 113.853603
USER    NEWDPF quaternion0	0.246591 0.765580 -0.235118 0.545710
USER    NEWDPF dihe0	161.08 114.60 -180.00 -87.79 -150.61 174.07 141.72 -88.04 2.19 -19.53 -142.88 -88.01 148.39 
USER  
USER                              x       y       z    vdW   Elec        q     RMS 
ATOM      1  O   UNL d   1     -14.030   8.252  -7.252 -0.01 +0.02    -0.289    14.739
ATOM      2  O   UNL d   1     -13.537   5.310  -0.360 -0.04 -0.29    -0.289    14.739
ATOM      3  N   UNL d   1     -14.706  10.063  -4.395 -0.05 -0.01    -0.247    14.739
ATOM      4  N   UNL d   1     -14.544   8.024  -2.240 -0.12 -0.04    -0.247    14.739
ATOM      5  N   UNL d   1     -15.803   9.917  -0.480 -0.08 +0.03    -0.354    14.739
ATOM      6  N   UNL d   1     -15.985  12.020  -2.727 -0.05 +0.04    -0.354    14.739
ATOM      7  C   UNL d   1     -14.900  10.491  -6.800 -0.04 -0.00    +0.084    14.739
ATOM      8  C   UNL d   1     -13.132   6.072  -2.651 -0.17 +0.02    +0.084    14.739
ATOM      9  C   UNL d   1     -13.770   7.366  -3.169 -0.17 +0.01    +0.058    14.739
ATOM     10  C   UNL d   1     -15.083  10.981  -5.361 -0.09 -0.00    +0.058    14.739
ATOM     11  C   UNL d   1     -14.336   9.141  -6.478 -0.04 -0.01    +0.193    14.739
ATOM     12  C   UNL d   1     -14.243   9.011  -4.989 -0.09 +0.00    +0.109    14.739
ATOM     13  C   UNL d   1     -13.719   6.098  -1.268 -0.23 +0.10    +0.193    14.739
ATOM     14  C   UNL d   1     -16.240  10.310  -7.519 -0.01 -0.00    +0.026    14.739
ATOM     15  C   UNL d   1     -13.626   7.790  -4.434 -0.15 +0.00    +0.055    14.739
ATOM     16  C   UNL d   1     -11.609   6.193  -2.543 -0.35 +0.00    +0.026    14.739
ATOM     17  C   UNL d   1     -14.560   7.327  -1.149 -0.26 +0.03    +0.109    14.739
ATOM     18  C   UNL d   1     -15.491  12.235  -5.091 -0.10 -0.00    +0.050    14.739
ATOM     19  C   UNL d   1     -15.608  12.802  -3.796 -0.12 -0.00    +0.045    14.739
ATOM     20  C   UNL d   1     -15.853   8.796   0.306 -0.29 +0.00    +0.045    14.739
ATOM     21  C   UNL d   1     -15.300   7.597   0.093 -0.33 +0.02    +0.057    14.739
ATOM     22  C   UNL d   1     -17.032  10.466   1.326 -0.26 +0.00    -0.019    14.739
ATOM     23  C   UNL d   1     -16.487  10.977   0.052 -0.25 -0.02    +0.045    14.739
ATOM     24  C   UNL d   1     -16.652   9.174   1.471 -0.32 -0.00    -0.022    14.739
ATOM     25  C   UNL d   1     -16.122  12.786  -1.593 -0.19 -0.02    +0.049    14.739
ATOM     26  C   UNL d   1     -15.460  14.101  -3.337 -0.13 +0.00    -0.018    14.739
ATOM     27  C   UNL d   1     -15.768  14.082  -1.941 -0.20 -0.00    +0.003    14.739
ATOM     28  C   UNL d   1     -16.655  12.230  -0.398 -0.16 -0.03    +0.052    14.739
ATOM     29  C   UNL d   1     -16.944   8.236   2.593 -0.27 +0.01    +0.046    14.739
ATOM     30  C   UNL d   1     -15.057  15.290  -4.142 -0.08 +0.00    +0.046    14.739
ATOM     31  H   UNL d   1     -15.240   9.944  -1.323 +0.09 +0.01    +0.166    14.739
ATOM     32  H   UNL d   1     -16.171  11.027  -2.798 +0.03 -0.01    +0.166    14.739
ATOM     33  C   UNL d   1     -13.912  11.299  -7.648 -0.05 -0.01    +0.141    14.739
ATOM     34  C   UNL d   1     -12.592  11.509  -6.956 -0.11 -0.04    +0.306    14.739
ATOM     35  O   UNL d   1     -12.262  12.494  -6.318 -0.16 +0.06    -0.251    14.739
ATOM     36  O   UNL d   1     -11.758  10.464  -7.103 -0.07 +0.09    -0.481    14.739
ATOM     37  H   UNL d   1     -12.344   9.709  -7.321 +0.08 -0.04    +0.295    14.739
ATOM     38  C   UNL d   1     -15.755  15.224  -1.077 -0.22 -0.01    +0.017    14.739
ATOM     39  C   UNL d   1     -16.756  15.590  -0.263 -0.13 -0.05    +0.092    14.739
ATOM     40  C   UNL d   1     -16.609  16.775   0.587 -0.09 -0.14    +0.330    14.739
ATOM     41  O   UNL d   1     -17.462  17.310   1.271 -0.06 +0.06    -0.246    14.739
ATOM     42  O   UNL d   1     -15.348  17.230   0.531 -0.05 +0.02    -0.477    14.739
ATOM     43  H   UNL d   1     -14.822  16.513   0.940 -0.52 -0.46    +0.295    14.739
ATOM     44  C   UNL d   1     -13.536   4.794  -3.394 -0.07 +0.04    +0.141    14.739
ATOM     45  C   UNL d   1     -14.971   4.401  -3.164 -0.04 +0.17    +0.306    14.739
ATOM     46  O   UNL d   1     -15.915   4.638  -3.897 -0.01 -0.09    -0.251    14.739
ATOM     47  O   UNL d   1     -15.146   3.748  -2.001 -0.49 -0.72    -0.481    14.739
ATOM     48  H   UNL d   1     -14.248   3.693  -1.610 +0.06 +0.49    +0.295    14.739
ATOM     49  C   UNL d   1     -17.878  11.274   2.266 -0.19 -0.01    +0.048    14.739
ATOM     50  C   UNL d   1     -19.218  11.657   1.638 -0.05 -0.02    +0.125    14.739
ATOM     51  C   UNL d   1     -19.757  10.534   0.798 -0.00 +0.01    +0.305    14.739
ATOM     52  O   UNL d   1     -19.621  10.373  -0.402 -0.01 -0.01    -0.251    14.739
ATOM     53  O   UNL d   1     -20.470   9.654   1.528 +0.01 -0.06    -0.481    14.739
ATOM     54  H   UNL d   1     -21.391   9.986   1.469 +0.01 +0.03    +0.295    14.739
TER
ENDMDL
MODEL       64
USER    Run = 64
USER    Cluster Rank = 50
USER    Number of conformations in this cluster = 1
USER  
USER    RMSD from reference structure       = 16.705 A
USER  
USER    Estimated Free Energy of Binding    =   -3.61 kcal/mol  [=(1)+(2)+(3)-(4)]
USER    Estimated Inhibition Constant, Ki   =    2.24 mM (millimolar)  [Temperature = 298.15 K]
USER    
USER    (1) Final Intermolecular Energy     =   -7.49 kcal/mol
USER        vdW + Hbond + desolv Energy     =   -7.04 kcal/mol
USER        Electrostatic Energy            =   -0.46 kcal/mol
USER    (2) Final Total Internal Energy     =   -1.80 kcal/mol
USER    (3) Torsional Free Energy           =   +3.88 kcal/mol
USER    (4) Unbound System's Energy  [=(2)] =   -1.80 kcal/mol
USER    
USER    
USER  
USER    DPF = D:/Protein_go_brrr/autodock/final/AncMH_nat/heme/dock.dpf
USER    NEWDPF move	heme_opt.pdbqt
USER    NEWDPF about	0.153000 0.018000 -0.028000
USER    NEWDPF tran0	-10.212325 15.934502 -6.397999
USER    NEWDPF axisangle0	-0.299587 -0.879251 -0.370358 -101.755396
USER    NEWDPF quaternion0	-0.232420 -0.682124 -0.287324 -0.630978
USER    NEWDPF dihe0	61.99 133.22 -170.34 -168.46 36.18 -63.99 142.29 60.88 -121.56 -6.24 84.81 178.46 -177.24 
USER  
USER                              x       y       z    vdW   Elec        q     RMS 
ATOM      1  O   UNL d   1      -8.999  17.862 -11.836 -0.03 -0.01    -0.289    16.705
ATOM      2  O   UNL d   1     -12.103  11.451  -9.457 -0.03 +0.03    -0.289    16.705
ATOM      3  N   UNL d   1      -9.393  17.104  -8.494 -0.27 -0.04    -0.247    16.705
ATOM      4  N   UNL d   1     -10.948  14.573  -8.546 -0.07 -0.00    -0.247    16.705
ATOM      5  N   UNL d   1     -11.456  14.935  -5.740 -0.08 +0.01    -0.354    16.705
ATOM      6  N   UNL d   1      -9.858  17.570  -5.699 -0.09 -0.06    -0.354    16.705
ATOM      7  C   UNL d   1      -8.643  19.075  -9.744 -0.07 +0.01    +0.084    16.705
ATOM      8  C   UNL d   1     -10.730  13.168 -10.534 -0.08 -0.01    +0.084    16.705
ATOM      9  C   UNL d   1     -10.412  14.481  -9.811 -0.10 -0.00    +0.058    16.705
ATOM     10  C   UNL d   1      -8.938  18.409  -8.397 -0.12 +0.01    +0.058    16.705
ATOM     11  C   UNL d   1      -8.994  17.910 -10.619 -0.05 +0.02    +0.193    16.705
ATOM     12  C   UNL d   1      -9.409  16.769  -9.743 -0.10 +0.01    +0.109    16.705
ATOM     13  C   UNL d   1     -11.577  12.547  -9.459 -0.06 -0.02    +0.193    16.705
ATOM     14  C   UNL d   1      -9.608  20.225 -10.039 -0.02 +0.00    +0.026    16.705
ATOM     15  C   UNL d   1      -9.715  15.474 -10.385 -0.14 +0.00    +0.055    16.705
ATOM     16  C   UNL d   1      -9.476  12.310 -10.730 -0.22 -0.00    +0.026    16.705
ATOM     17  C   UNL d   1     -11.637  13.502  -8.312 -0.13 -0.01    +0.109    16.705
ATOM     18  C   UNL d   1      -8.680  19.033  -7.232 -0.15 +0.00    +0.050    16.705
ATOM     19  C   UNL d   1      -8.841  18.466  -5.942 -0.20 +0.01    +0.045    16.705
ATOM     20  C   UNL d   1     -12.310  13.895  -6.001 -0.13 -0.01    +0.045    16.705
ATOM     21  C   UNL d   1     -12.438  13.178  -7.123 -0.17 -0.01    +0.057    16.705
ATOM     22  C   UNL d   1     -12.663  14.620  -3.864 -0.31 -0.00    -0.019    16.705
ATOM     23  C   UNL d   1     -11.596  15.439  -4.474 -0.31 +0.00    +0.045    16.705
ATOM     24  C   UNL d   1     -13.080  13.707  -4.773 -0.23 +0.00    -0.022    16.705
ATOM     25  C   UNL d   1      -9.885  17.220  -4.369 -0.27 +0.01    +0.049    16.705
ATOM     26  C   UNL d   1      -8.168  18.674  -4.748 -0.22 -0.00    -0.018    16.705
ATOM     27  C   UNL d   1      -8.819  17.870  -3.763 -0.26 +0.00    +0.003    16.705
ATOM     28  C   UNL d   1     -10.942  16.427  -3.845 -0.37 +0.01    +0.052    16.705
ATOM     29  C   UNL d   1     -14.125  12.654  -4.625 -0.17 -0.00    +0.046    16.705
ATOM     30  C   UNL d   1      -6.990  19.564  -4.534 -0.13 +0.00    +0.046    16.705
ATOM     31  H   UNL d   1     -10.752  15.219  -6.412 -0.01 +0.03    +0.166    16.705
ATOM     32  H   UNL d   1     -10.511  17.258  -6.407 +0.05 +0.02    +0.166    16.705
ATOM     33  C   UNL d   1      -7.185  19.493  -9.964 -0.07 +0.00    +0.141    16.705
ATOM     34  C   UNL d   1      -6.805  20.710  -9.166 -0.05 -0.00    +0.306    16.705
ATOM     35  O   UNL d   1      -6.338  20.715  -8.039 -0.06 +0.01    -0.251    16.705
ATOM     36  O   UNL d   1      -7.030  21.858  -9.830 +0.00 +0.01    -0.481    16.705
ATOM     37  H   UNL d   1      -6.150  22.287  -9.886 +0.01 -0.01    +0.295    16.705
ATOM     38  C   UNL d   1      -8.450  17.799  -2.381 -0.23 +0.00    +0.017    16.705
ATOM     39  C   UNL d   1      -7.982  18.822  -1.651 -0.19 +0.02    +0.092    16.705
ATOM     40  C   UNL d   1      -7.657  18.621  -0.236 -0.13 +0.07    +0.330    16.705
ATOM     41  O   UNL d   1      -8.422  18.364   0.673 -0.17 -0.08    -0.246    16.705
ATOM     42  O   UNL d   1      -6.335  18.752  -0.043 -0.07 -0.01    -0.477    16.705
ATOM     43  H   UNL d   1      -5.939  18.214  -0.759 -0.32 -0.06    +0.295    16.705
ATOM     44  C   UNL d   1     -11.517  13.306 -11.841 -0.01 -0.01    +0.141    16.705
ATOM     45  C   UNL d   1     -12.817  14.048 -11.676 +0.01 -0.01    +0.306    16.705
ATOM     46  O   UNL d   1     -13.016  15.226 -11.917 +0.00 +0.00    -0.251    16.705
ATOM     47  O   UNL d   1     -13.797  13.267 -11.188 +0.00 +0.02    -0.481    16.705
ATOM     48  H   UNL d   1     -13.346  12.434 -10.932 +0.02 -0.01    +0.295    16.705
ATOM     49  C   UNL d   1     -13.180  14.813  -2.469 -0.38 +0.00    +0.048    16.705
ATOM     50  C   UNL d   1     -14.484  15.609  -2.451 -0.22 +0.01    +0.125    16.705
ATOM     51  C   UNL d   1     -14.218  17.072  -2.235 -0.03 +0.20    +0.305    16.705
ATOM     52  O   UNL d   1     -13.483  17.797  -2.882 -0.50 -0.21    -0.251    16.705
ATOM     53  O   UNL d   1     -14.899  17.557  -1.177 -0.16 -0.45    -0.481    16.705
ATOM     54  H   UNL d   1     -15.247  16.758  -0.731 +0.05 +0.04    +0.295    16.705
TER
ENDMDL
MODEL       36
USER    Run = 36
USER    Cluster Rank = 51
USER    Number of conformations in this cluster = 1
USER  
USER    RMSD from reference structure       = 20.031 A
USER  
USER    Estimated Free Energy of Binding    =   -3.61 kcal/mol  [=(1)+(2)+(3)-(4)]
USER    Estimated Inhibition Constant, Ki   =    2.27 mM (millimolar)  [Temperature = 298.15 K]
USER    
USER    (1) Final Intermolecular Energy     =   -7.48 kcal/mol
USER        vdW + Hbond + desolv Energy     =   -7.11 kcal/mol
USER        Electrostatic Energy            =   -0.38 kcal/mol
USER    (2) Final Total Internal Energy     =   -3.84 kcal/mol
USER    (3) Torsional Free Energy           =   +3.88 kcal/mol
USER    (4) Unbound System's Energy  [=(2)] =   -3.84 kcal/mol
USER    
USER    
USER  
USER    DPF = D:/Protein_go_brrr/autodock/final/AncMH_nat/heme/dock.dpf
USER    NEWDPF move	heme_opt.pdbqt
USER    NEWDPF about	0.153000 0.018000 -0.028000
USER    NEWDPF tran0	-3.406743 -10.731399 18.712203
USER    NEWDPF axisangle0	0.292335 -0.601688 0.743312 -65.810721
USER    NEWDPF quaternion0	0.158812 -0.326869 0.403806 -0.839569
USER    NEWDPF dihe0	-58.23 179.84 98.36 32.44 11.00 -80.33 -46.70 25.73 -178.94 -120.49 -80.20 24.33 -3.83 
USER  
USER                              x       y       z    vdW   Elec        q     RMS 
ATOM      1  O   UNL d   1      -7.582 -13.244  15.394 -0.39 -0.39    -0.289    20.031
ATOM      2  O   UNL d   1      -0.176 -14.440  15.738 -0.09 +0.04    -0.289    20.031
ATOM      3  N   UNL d   1      -5.485 -11.408  17.426 -0.04 -0.02    -0.247    20.031
ATOM      4  N   UNL d   1      -2.866 -12.776  17.119 -0.10 +0.02    -0.247    20.031
ATOM      5  N   UNL d   1      -1.933 -11.304  19.405 -0.01 +0.04    -0.354    20.031
ATOM      6  N   UNL d   1      -4.660  -9.903  19.729 -0.07 +0.03    -0.354    20.031
ATOM      7  C   UNL d   1      -7.913 -11.533  17.108 -0.18 +0.03    +0.084    20.031
ATOM      8  C   UNL d   1      -2.480 -13.998  15.038 -0.25 -0.01    +0.084    20.031
ATOM      9  C   UNL d   1      -3.432 -13.203  15.938 -0.23 -0.00    +0.058    20.031
ATOM     10  C   UNL d   1      -6.714 -10.918  17.837 -0.20 +0.01    +0.058    20.031
ATOM     11  C   UNL d   1      -7.143 -12.444  16.199 -0.16 +0.13    +0.193    20.031
ATOM     12  C   UNL d   1      -5.682 -12.257  16.471 -0.21 +0.02    +0.109    20.031
ATOM     13  C   UNL d   1      -1.280 -13.975  15.943 -0.12 -0.03    +0.193    20.031
ATOM     14  C   UNL d   1      -8.779 -12.382  18.042 -0.11 +0.00    +0.026    20.031
ATOM     15  C   UNL d   1      -4.718 -12.989  15.624 -0.33 +0.00    +0.055    20.031
ATOM     16  C   UNL d   1      -2.143 -13.234  13.754 -0.38 -0.00    +0.026    20.031
ATOM     17  C   UNL d   1      -1.648 -13.210  17.173 -0.13 -0.02    +0.109    20.031
ATOM     18  C   UNL d   1      -6.869  -9.923  18.731 -0.21 +0.00    +0.050    20.031
ATOM     19  C   UNL d   1      -5.817  -9.238  19.390 -0.20 -0.00    +0.045    20.031
ATOM     20  C   UNL d   1      -0.894 -12.184  19.253 -0.09 -0.01    +0.045    20.031
ATOM     21  C   UNL d   1      -0.675 -13.059  18.266 -0.11 -0.01    +0.057    20.031
ATOM     22  C   UNL d   1      -0.587 -11.009  21.187 -0.05 +0.00    -0.019    20.031
ATOM     23  C   UNL d   1      -1.835 -10.551  20.545 -0.08 -0.01    +0.045    20.031
ATOM     24  C   UNL d   1      -0.034 -11.975  20.417 -0.04 +0.00    -0.022    20.031
ATOM     25  C   UNL d   1      -3.818  -9.078  20.436 -0.08 -0.01    +0.049    20.031
ATOM     26  C   UNL d   1      -5.708  -7.937  19.856 -0.26 +0.00    -0.018    20.031
ATOM     27  C   UNL d   1      -4.435  -7.836  20.499 -0.24 -0.00    +0.003    20.031
ATOM     28  C   UNL d   1      -2.630  -9.584  21.030 -0.11 -0.01    +0.052    20.031
ATOM     29  C   UNL d   1       1.230 -12.734  20.637 -0.02 -0.01    +0.046    20.031
ATOM     30  C   UNL d   1      -6.721  -6.853  19.713 -0.21 -0.01    +0.046    20.031
ATOM     31  H   UNL d   1      -2.639 -11.193  18.686 +0.04 -0.01    +0.166    20.031
ATOM     32  H   UNL d   1      -4.491 -10.879  19.514 +0.03 -0.01    +0.166    20.031
ATOM     33  C   UNL d   1      -8.760 -10.550  16.293 -0.28 +0.09    +0.141    20.031
ATOM     34  C   UNL d   1     -10.233 -10.688  16.569 -0.21 +0.13    +0.306    20.031
ATOM     35  O   UNL d   1     -10.792 -10.453  17.627 -0.10 -0.05    -0.251    20.031
ATOM     36  O   UNL d   1     -10.925 -11.111  15.496 -0.14 -0.27    -0.481    20.031
ATOM     37  H   UNL d   1     -11.326 -11.959  15.781 -0.43 +0.04    +0.295    20.031
ATOM     38  C   UNL d   1      -3.924  -6.660  21.136 -0.22 -0.01    +0.017    20.031
ATOM     39  C   UNL d   1      -2.806  -6.010  20.779 -0.24 -0.05    +0.092    20.031
ATOM     40  C   UNL d   1      -2.400  -4.803  21.505 -0.09 -0.16    +0.330    20.031
ATOM     41  O   UNL d   1      -2.802  -3.667  21.342 -0.13 +0.12    -0.246    20.031
ATOM     42  O   UNL d   1      -1.483  -5.111  22.435 +0.00 +0.16    -0.477    20.031
ATOM     43  H   UNL d   1      -1.368  -6.079  22.340 +0.05 -0.09    +0.295    20.031
ATOM     44  C   UNL d   1      -2.908 -15.437  14.731 -0.05 -0.03    +0.141    20.031
ATOM     45  C   UNL d   1      -1.837 -16.243  14.047 -0.19 -0.03    +0.306    20.031
ATOM     46  O   UNL d   1      -1.669 -16.356  12.845 -0.50 -0.02    -0.251    20.031
ATOM     47  O   UNL d   1      -1.043 -16.891  14.919 -0.02 +0.03    -0.481    20.031
ATOM     48  H   UNL d   1      -0.386 -16.220  15.202 +0.07 -0.03    +0.295    20.031
ATOM     49  C   UNL d   1      -0.064 -10.476  22.489 -0.02 -0.01    +0.048    20.031
ATOM     50  C   UNL d   1       0.808  -9.237  22.287 -0.02 -0.02    +0.125    20.031
ATOM     51  C   UNL d   1       0.038  -7.984  22.590 -0.00 -0.06    +0.305    20.031
ATOM     52  O   UNL d   1      -0.983  -7.879  23.247 -0.01 +0.05    -0.251    20.031
ATOM     53  O   UNL d   1       0.601  -6.897  22.026 +0.01 +0.13    -0.481    20.031
ATOM     54  H   UNL d   1       0.397  -6.171  22.652 +0.02 -0.08    +0.295    20.031
TER
ENDMDL
MODEL       72
USER    Run = 72
USER    Cluster Rank = 52
USER    Number of conformations in this cluster = 1
USER  
USER    RMSD from reference structure       = 20.583 A
USER  
USER    Estimated Free Energy of Binding    =   -3.48 kcal/mol  [=(1)+(2)+(3)-(4)]
USER    Estimated Inhibition Constant, Ki   =    2.81 mM (millimolar)  [Temperature = 298.15 K]
USER    
USER    (1) Final Intermolecular Energy     =   -7.36 kcal/mol
USER        vdW + Hbond + desolv Energy     =   -7.13 kcal/mol
USER        Electrostatic Energy            =   -0.23 kcal/mol
USER    (2) Final Total Internal Energy     =   -3.83 kcal/mol
USER    (3) Torsional Free Energy           =   +3.88 kcal/mol
USER    (4) Unbound System's Energy  [=(2)] =   -3.83 kcal/mol
USER    
USER    
USER  
USER    DPF = D:/Protein_go_brrr/autodock/final/AncMH_nat/heme/dock.dpf
USER    NEWDPF move	heme_opt.pdbqt
USER    NEWDPF about	0.153000 0.018000 -0.028000
USER    NEWDPF tran0	-10.516377 -0.621662 20.875513
USER    NEWDPF axisangle0	0.538876 -0.818861 0.197684 -150.696293
USER    NEWDPF quaternion0	0.521352 -0.792233 0.191255 -0.252945
USER    NEWDPF dihe0	-95.99 -154.50 -171.42 13.22 53.95 54.43 138.35 179.93 146.17 -14.39 68.88 -88.11 144.24 
USER  
USER                              x       y       z    vdW   Elec        q     RMS 
ATOM      1  O   UNL d   1     -10.363   3.750  16.924 -0.83 +0.01    -0.289    20.583
ATOM      2  O   UNL d   1      -4.854   0.354  20.733 -0.03 +0.09    -0.289    20.583
ATOM      3  N   UNL d   1     -10.954   1.292  19.269 -0.08 +0.07    -0.247    20.583
ATOM      4  N   UNL d   1      -8.224   0.366  19.991 -0.51 +0.04    -0.247    20.583
ATOM      5  N   UNL d   1      -9.434  -1.906  21.271 -0.07 +0.07    -0.354    20.583
ATOM      6  N   UNL d   1     -12.261  -0.949  20.501 -0.03 +0.08    -0.354    20.583
ATOM      7  C   UNL d   1     -12.343   2.529  17.673 -0.19 -0.01    +0.084    20.583
ATOM      8  C   UNL d   1      -6.392   1.959  19.708 -0.12 -0.04    +0.084    20.583
ATOM      9  C   UNL d   1      -7.874   1.613  19.524 -0.18 -0.02    +0.058    20.583
ATOM     10  C   UNL d   1     -12.234   1.465  18.769 -0.14 -0.01    +0.058    20.583
ATOM     11  C   UNL d   1     -10.902   2.940  17.656 -0.18 -0.01    +0.193    20.583
ATOM     12  C   UNL d   1     -10.168   2.137  18.684 -0.19 -0.02    +0.109    20.583
ATOM     13  C   UNL d   1      -5.959   0.662  20.332 -0.05 -0.05    +0.193    20.583
ATOM     14  C   UNL d   1     -12.701   1.921  16.315 -0.26 -0.00    +0.026    20.583
ATOM     15  C   UNL d   1      -8.740   2.436  18.913 -0.25 -0.02    +0.055    20.583
ATOM     16  C   UNL d   1      -6.194   3.086  20.726 -0.08 -0.01    +0.026    20.583
ATOM     17  C   UNL d   1      -7.161  -0.219  20.441 -0.02 -0.01    +0.109    20.583
ATOM     18  C   UNL d   1     -13.322   0.833  19.247 -0.10 -0.00    +0.050    20.583
ATOM     19  C   UNL d   1     -13.329  -0.101  20.314 -0.06 -0.00    +0.045    20.583
ATOM     20  C   UNL d   1      -8.117  -2.286  21.312 -0.14 -0.01    +0.045    20.583
ATOM     21  C   UNL d   1      -7.031  -1.581  20.981 -0.16 -0.01    +0.057    20.583
ATOM     22  C   UNL d   1      -9.410  -4.026  22.032 -0.07 +0.00    -0.019    20.583
ATOM     23  C   UNL d   1     -10.290  -2.891  21.687 -0.10 -0.01    +0.045    20.583
ATOM     24  C   UNL d   1      -8.126  -3.662  21.809 -0.11 +0.00    -0.022    20.583
ATOM     25  C   UNL d   1     -12.515  -1.827  21.529 -0.06 -0.00    +0.049    20.583
ATOM     26  C   UNL d   1     -14.286  -0.412  21.267 -0.02 +0.00    -0.018    20.583
ATOM     27  C   UNL d   1     -13.759  -1.489  22.044 -0.02 -0.00    +0.003    20.583
ATOM     28  C   UNL d   1     -11.626  -2.900  21.808 -0.08 -0.00    +0.052    20.583
ATOM     29  C   UNL d   1      -6.881  -4.455  22.017 -0.10 -0.01    +0.046    20.583
ATOM     30  C   UNL d   1     -15.609   0.252  21.449 -0.01 +0.00    +0.046    20.583
ATOM     31  H   UNL d   1      -9.700  -0.958  21.030 -0.13 -0.04    +0.166    20.583
ATOM     32  H   UNL d   1     -11.429  -0.938  19.923 -0.50 -0.12    +0.166    20.583
ATOM     33  C   UNL d   1     -13.240   3.726  18.008 -0.10 -0.00    +0.141    20.583
ATOM     34  C   UNL d   1     -13.572   4.557  16.798 -0.13 +0.00    +0.306    20.583
ATOM     35  O   UNL d   1     -14.655   4.618  16.241 -0.16 -0.06    -0.251    20.583
ATOM     36  O   UNL d   1     -12.521   5.269  16.354 -0.06 +0.08    -0.481    20.583
ATOM     37  H   UNL d   1     -12.001   4.634  15.818 -0.41 -0.16    +0.295    20.583
ATOM     38  C   UNL d   1     -14.434  -2.130  23.132 -0.01 +0.00    +0.017    20.583
ATOM     39  C   UNL d   1     -14.610  -3.454  23.263 -0.00 +0.00    +0.092    20.583
ATOM     40  C   UNL d   1     -15.306  -3.985  24.437 +0.00 +0.01    +0.330    20.583
ATOM     41  O   UNL d   1     -16.396  -3.658  24.867 +0.00 -0.01    -0.246    20.583
ATOM     42  O   UNL d   1     -14.566  -4.941  25.019 +0.00 -0.01    -0.477    20.583
ATOM     43  H   UNL d   1     -13.649  -4.719  24.759 +0.00 +0.00    +0.295    20.583
ATOM     44  C   UNL d   1      -5.613   2.234  18.418 -0.23 -0.10    +0.141    20.583
ATOM     45  C   UNL d   1      -5.521   1.035  17.512 -0.27 -0.14    +0.306    20.583
ATOM     46  O   UNL d   1      -6.266   0.765  16.585 -0.89 +0.11    -0.251    20.583
ATOM     47  O   UNL d   1      -4.504   0.218  17.841 -0.09 +0.24    -0.481    20.583
ATOM     48  H   UNL d   1      -4.162   0.576  18.687 +0.14 -0.14    +0.295    20.583
ATOM     49  C   UNL d   1      -9.903  -5.354  22.529 -0.03 -0.00    +0.048    20.583
ATOM     50  C   UNL d   1     -10.816  -6.038  21.511 -0.04 +0.00    +0.125    20.583
ATOM     51  C   UNL d   1     -12.237  -6.064  21.997 +0.00 +0.02    +0.305    20.583
ATOM     52  O   UNL d   1     -13.224  -6.438  21.388 -0.01 -0.04    -0.251    20.583
ATOM     53  O   UNL d   1     -12.348  -5.595  23.256 +0.00 -0.01    -0.481    20.583
ATOM     54  H   UNL d   1     -13.254  -5.854  23.527 +0.00 +0.01    +0.295    20.583
TER
ENDMDL
MODEL       70
USER    Run = 70
USER    Cluster Rank = 53
USER    Number of conformations in this cluster = 2
USER  
USER    RMSD from reference structure       = 12.762 A
USER  
USER    Estimated Free Energy of Binding    =   -3.43 kcal/mol  [=(1)+(2)+(3)-(4)]
USER    Estimated Inhibition Constant, Ki   =    3.06 mM (millimolar)  [Temperature = 298.15 K]
USER    
USER    (1) Final Intermolecular Energy     =   -7.31 kcal/mol
USER        vdW + Hbond + desolv Energy     =   -7.08 kcal/mol
USER        Electrostatic Energy            =   -0.22 kcal/mol
USER    (2) Final Total Internal Energy     =   -3.96 kcal/mol
USER    (3) Torsional Free Energy           =   +3.88 kcal/mol
USER    (4) Unbound System's Energy  [=(2)] =   -3.96 kcal/mol
USER    
USER    
USER  
USER    DPF = D:/Protein_go_brrr/autodock/final/AncMH_nat/heme/dock.dpf
USER    NEWDPF move	heme_opt.pdbqt
USER    NEWDPF about	0.153000 0.018000 -0.028000
USER    NEWDPF tran0	11.291810 -12.061112 -0.735238
USER    NEWDPF axisangle0	-0.289196 0.691897 -0.661547 173.473834
USER    NEWDPF quaternion0	-0.288727 0.690775 -0.660475 0.056921
USER    NEWDPF dihe0	-166.84 -180.00 -104.59 -20.66 -133.87 44.46 130.42 -61.59 -115.60 -32.80 -87.95 -77.82 -11.18 
USER  
USER                              x       y       z    vdW   Elec        q     RMS 
ATOM      1  O   UNL d   1      15.326 -10.924  -4.881 -0.20 +0.02    -0.289    12.762
ATOM      2  O   UNL d   1      15.308  -9.518   2.496 -0.05 +0.05    -0.289    12.762
ATOM      3  N   UNL d   1      12.642 -11.662  -2.845 -0.10 +0.11    -0.247    12.762
ATOM      4  N   UNL d   1      13.660 -11.048  -0.122 -0.15 +0.08    -0.247    12.762
ATOM      5  N   UNL d   1      11.388 -12.451   0.944 -0.10 +0.12    -0.354    12.762
ATOM      6  N   UNL d   1      10.349 -13.100  -1.885 -0.07 +0.12    -0.354    12.762
ATOM      7  C   UNL d   1      13.199 -12.085  -5.194 -0.13 -0.02    +0.084    12.762
ATOM      8  C   UNL d   1      15.449  -9.392   0.056 -0.16 -0.02    +0.084    12.762
ATOM      9  C   UNL d   1      14.535 -10.250  -0.826 -0.23 -0.01    +0.058    12.762
ATOM     10  C   UNL d   1      12.216 -12.238  -4.030 -0.21 -0.02    +0.058    12.762
ATOM     11  C   UNL d   1      14.248 -11.304  -4.462 -0.14 -0.03    +0.193    12.762
ATOM     12  C   UNL d   1      13.783 -11.090  -3.055 -0.22 -0.03    +0.109    12.762
ATOM     13  C   UNL d   1      14.957  -9.879   1.390 -0.11 -0.04    +0.193    12.762
ATOM     14  C   UNL d   1      13.792 -13.429  -5.626 -0.04 -0.00    +0.026    12.762
ATOM     15  C   UNL d   1      14.618 -10.260  -2.165 +0.04 -0.01    +0.055    12.762
ATOM     16  C   UNL d   1      15.126  -7.901  -0.075 -0.22 -0.01    +0.026    12.762
ATOM     17  C   UNL d   1      13.879 -10.884   1.143 -0.17 -0.03    +0.109    12.762
ATOM     18  C   UNL d   1      11.008 -12.809  -4.200 -0.21 -0.02    +0.050    12.762
ATOM     19  C   UNL d   1      10.003 -12.919  -3.205 -0.23 -0.01    +0.045    12.762
ATOM     20  C   UNL d   1      12.117 -12.277   2.091 -0.16 -0.01    +0.045    12.762
ATOM     21  C   UNL d   1      13.235 -11.568   2.274 -0.18 -0.01    +0.057    12.762
ATOM     22  C   UNL d   1      10.326 -13.619   2.550 -0.14 +0.01    -0.019    12.762
ATOM     23  C   UNL d   1      10.288 -13.247   1.122 -0.19 -0.01    +0.045    12.762
ATOM     24  C   UNL d   1      11.411 -13.041   3.119 -0.14 +0.01    -0.022    12.762
ATOM     25  C   UNL d   1       9.225 -13.272  -1.110 -0.23 -0.01    +0.049    12.762
ATOM     26  C   UNL d   1       8.619 -12.936  -3.285 -0.25 +0.00    -0.018    12.762
ATOM     27  C   UNL d   1       8.133 -13.140  -1.956 -0.27 +0.00    +0.003    12.762
ATOM     28  C   UNL d   1       9.333 -13.631   0.261 -0.20 -0.01    +0.052    12.762
ATOM     29  C   UNL d   1      11.869 -13.111   4.536 -0.10 -0.02    +0.046    12.762
ATOM     30  C   UNL d   1       7.797 -12.772  -4.518 -0.26 -0.00    +0.046    12.762
ATOM     31  H   UNL d   1      11.626 -11.957   0.090 -0.44 -0.10    +0.166    12.762
ATOM     32  H   UNL d   1      11.307 -13.140  -1.557 -0.10 -0.06    +0.166    12.762
ATOM     33  C   UNL d   1      12.676 -11.290  -6.395 -0.20 -0.05    +0.141    12.762
ATOM     34  C   UNL d   1      11.573 -12.004  -7.127 -0.07 -0.09    +0.306    12.762
ATOM     35  O   UNL d   1      11.711 -12.909  -7.933 -0.02 +0.06    -0.251    12.762
ATOM     36  O   UNL d   1      10.352 -11.542  -6.804 -0.05 +0.20    -0.481    12.762
ATOM     37  H   UNL d   1      10.526 -10.726  -6.288 -0.43 -0.21    +0.295    12.762
ATOM     38  C   UNL d   1       6.753 -13.237  -1.589 -0.13 +0.00    +0.017    12.762
ATOM     39  C   UNL d   1       6.247 -14.108  -0.702 -0.16 +0.02    +0.092    12.762
ATOM     40  C   UNL d   1       4.813 -14.093  -0.400 -0.13 +0.11    +0.330    12.762
ATOM     41  O   UNL d   1       3.890 -13.977  -1.183 -0.35 -0.15    -0.246    12.762
ATOM     42  O   UNL d   1       4.617 -14.241   0.919 -0.03 -0.13    -0.477    12.762
ATOM     43  H   UNL d   1       5.523 -14.316   1.284 +0.09 +0.05    +0.295    12.762
ATOM     44  C   UNL d   1      16.951  -9.651  -0.102 -0.06 -0.02    +0.141    12.762
ATOM     45  C   UNL d   1      17.439 -10.828   0.698 -0.00 -0.04    +0.306    12.762
ATOM     46  O   UNL d   1      17.435 -11.996   0.350 -0.00 +0.03    -0.251    12.762
ATOM     47  O   UNL d   1      17.884 -10.473   1.917 +0.01 +0.06    -0.481    12.762
ATOM     48  H   UNL d   1      17.072 -10.282   2.432 +0.02 -0.04    +0.295    12.762
ATOM     49  C   UNL d   1       9.318 -14.509   3.216 -0.06 -0.01    +0.048    12.762
ATOM     50  C   UNL d   1       8.204 -13.704   3.885 -0.09 -0.05    +0.125    12.762
ATOM     51  C   UNL d   1       7.038 -13.527   2.955 -0.05 -0.07    +0.305    12.762
ATOM     52  O   UNL d   1       6.999 -12.870   1.929 -0.14 +0.06    -0.251    12.762
ATOM     53  O   UNL d   1       5.946 -14.193   3.381 +0.02 -0.04    -0.481    12.762
ATOM     54  H   UNL d   1       5.202 -13.745   2.928 +0.11 +0.05    +0.295    12.762
TER
ENDMDL
MODEL       78
USER    Run = 78
USER    Cluster Rank = 54
USER    Number of conformations in this cluster = 1
USER  
USER    RMSD from reference structure       = 12.106 A
USER  
USER    Estimated Free Energy of Binding    =   -3.34 kcal/mol  [=(1)+(2)+(3)-(4)]
USER    Estimated Inhibition Constant, Ki   =    3.56 mM (millimolar)  [Temperature = 298.15 K]
USER    
USER    (1) Final Intermolecular Energy     =   -7.22 kcal/mol
USER        vdW + Hbond + desolv Energy     =   -7.28 kcal/mol
USER        Electrostatic Energy            =   +0.07 kcal/mol
USER    (2) Final Total Internal Energy     =   -3.70 kcal/mol
USER    (3) Torsional Free Energy           =   +3.88 kcal/mol
USER    (4) Unbound System's Energy  [=(2)] =   -3.70 kcal/mol
USER    
USER    
USER  
USER    DPF = D:/Protein_go_brrr/autodock/final/AncMH_nat/heme/dock.dpf
USER    NEWDPF move	heme_opt.pdbqt
USER    NEWDPF about	0.153000 0.018000 -0.028000
USER    NEWDPF tran0	3.950310 -14.701680 -0.738224
USER    NEWDPF axisangle0	-0.744530 -0.560826 0.362145 64.008001
USER    NEWDPF quaternion0	-0.394585 -0.297226 0.191929 0.848011
USER    NEWDPF dihe0	180.00 -121.24 -95.30 -154.58 44.55 14.79 129.51 -69.47 129.20 -47.28 -157.66 -30.26 -5.87 
USER  
USER                              x       y       z    vdW   Elec        q     RMS 
ATOM      1  O   UNL d   1       0.919 -13.660   4.210 -0.17 -0.21    -0.289    12.106
ATOM      2  O   UNL d   1      -1.312 -16.203  -2.495 -0.12 +0.01    -0.289    12.106
ATOM      3  N   UNL d   1       3.062 -13.987   1.528 -0.11 -0.10    -0.247    12.106
ATOM      4  N   UNL d   1       1.384 -15.319  -0.531 -0.15 -0.03    -0.247    12.106
ATOM      5  N   UNL d   1       3.789 -15.855  -2.012 -0.06 +0.05    -0.354    12.106
ATOM      6  N   UNL d   1       5.525 -14.488   0.137 -0.03 -0.07    -0.354    12.106
ATOM      7  C   UNL d   1       3.329 -13.409   3.894 -0.19 +0.04    +0.084    12.106
ATOM      8  C   UNL d   1      -1.033 -14.982  -0.392 -0.36 +0.02    +0.084    12.106
ATOM      9  C   UNL d   1       0.360 -14.778   0.214 -0.34 +0.01    +0.058    12.106
ATOM     10  C   UNL d   1       3.965 -13.645   2.521 -0.11 +0.02    +0.058    12.106
ATOM     11  C   UNL d   1       1.906 -13.660   3.497 -0.11 +0.14    +0.193    12.106
ATOM     12  C   UNL d   1       1.872 -13.975   2.034 -0.13 +0.06    +0.109    12.106
ATOM     13  C   UNL d   1      -0.613 -15.772  -1.599 -0.09 +0.00    +0.193    12.106
ATOM     14  C   UNL d   1       3.753 -14.470   4.914 -0.16 +0.02    +0.026    12.106
ATOM     15  C   UNL d   1       0.556 -14.169   1.394 -0.37 +0.02    +0.055    12.106
ATOM     16  C   UNL d   1      -1.649 -13.660  -0.859 -0.43 +0.00    +0.026    12.106
ATOM     17  C   UNL d   1       0.874 -15.913  -1.562 -0.13 -0.01    +0.109    12.106
ATOM     18  C   UNL d   1       5.278 -13.441   2.309 -0.16 +0.01    +0.050    12.106
ATOM     19  C   UNL d   1       5.937 -13.552   1.058 -0.15 +0.00    +0.045    12.106
ATOM     20  C   UNL d   1       2.899 -16.616  -2.725 -0.09 -0.02    +0.045    12.106
ATOM     21  C   UNL d   1       1.569 -16.684  -2.603 -0.10 -0.02    +0.057    12.106
ATOM     22  C   UNL d   1       5.008 -17.029  -3.498 -0.04 +0.00    -0.019    12.106
ATOM     23  C   UNL d   1       5.087 -16.037  -2.408 -0.08 -0.00    +0.045    12.106
ATOM     24  C   UNL d   1       3.710 -17.367  -3.682 -0.06 +0.01    -0.022    12.106
ATOM     25  C   UNL d   1       6.355 -14.484  -0.960 -0.12 +0.01    +0.049    12.106
ATOM     26  C   UNL d   1       7.040 -12.899   0.531 -0.25 +0.00    -0.018    12.106
ATOM     27  C   UNL d   1       7.287 -13.478  -0.752 -0.21 +0.00    +0.003    12.106
ATOM     28  C   UNL d   1       6.224 -15.470  -1.976 -0.08 +0.00    +0.052    12.106
ATOM     29  C   UNL d   1       3.124 -18.318  -4.670 -0.04 -0.01    +0.046    12.106
ATOM     30  C   UNL d   1       7.817 -11.802   1.176 -0.28 -0.02    +0.046    12.106
ATOM     31  H   UNL d   1       3.471 -15.178  -1.327 +0.03 +0.01    +0.166    12.106
ATOM     32  H   UNL d   1       4.740 -15.112   0.285 +0.04 +0.04    +0.166    12.106
ATOM     33  C   UNL d   1       3.489 -11.993   4.457 -0.13 +0.03    +0.141    12.106
ATOM     34  C   UNL d   1       2.780 -11.808   5.771 -0.23 +0.05    +0.306    12.106
ATOM     35  O   UNL d   1       3.289 -11.856   6.878 -0.28 -0.03    -0.251    12.106
ATOM     36  O   UNL d   1       1.465 -11.570   5.621 -0.15 -0.03    -0.481    12.106
ATOM     37  H   UNL d   1       1.328 -11.541   4.650 -0.35 +0.01    +0.295    12.106
ATOM     38  C   UNL d   1       8.350 -13.104  -1.635 -0.29 -0.00    +0.017    12.106
ATOM     39  C   UNL d   1       8.513 -13.558  -2.887 -0.23 -0.01    +0.092    12.106
ATOM     40  C   UNL d   1       9.638 -13.082  -3.696 -0.14 -0.07    +0.330    12.106
ATOM     41  O   UNL d   1      10.612 -12.457  -3.321 -0.24 +0.09    -0.246    12.106
ATOM     42  O   UNL d   1       9.469 -13.441  -4.978 -0.05 +0.10    -0.477    12.106
ATOM     43  H   UNL d   1       8.616 -13.030  -5.227 +0.05 -0.05    +0.295    12.106
ATOM     44  C   UNL d   1      -2.018 -15.779   0.470 -0.20 +0.04    +0.141    12.106
ATOM     45  C   UNL d   1      -2.089 -17.236   0.098 -0.12 +0.09    +0.306    12.106
ATOM     46  O   UNL d   1      -1.356 -18.125   0.496 -0.16 -0.08    -0.251    12.106
ATOM     47  O   UNL d   1      -3.072 -17.494  -0.784 -0.10 -0.16    -0.481    12.106
ATOM     48  H   UNL d   1      -2.679 -17.291  -1.659 +0.11 +0.08    +0.295    12.106
ATOM     49  C   UNL d   1       6.198 -17.560  -4.242 -0.01 -0.01    +0.048    12.106
ATOM     50  C   UNL d   1       6.536 -16.703  -5.461 -0.01 -0.02    +0.125    12.106
ATOM     51  C   UNL d   1       6.000 -15.308  -5.302 -0.04 -0.05    +0.305    12.106
ATOM     52  O   UNL d   1       4.845 -14.939  -5.415 -0.13 +0.11    -0.251    12.106
ATOM     53  O   UNL d   1       6.975 -14.424  -5.011 -0.01 +0.03    -0.481    12.106
ATOM     54  H   UNL d   1       7.786 -14.835  -5.375 +0.05 -0.03    +0.295    12.106
TER
ENDMDL
MODEL       45
USER    Run = 45
USER    Cluster Rank = 55
USER    Number of conformations in this cluster = 1
USER  
USER    RMSD from reference structure       = 19.782 A
USER  
USER    Estimated Free Energy of Binding    =   -3.27 kcal/mol  [=(1)+(2)+(3)-(4)]
USER    Estimated Inhibition Constant, Ki   =    3.99 mM (millimolar)  [Temperature = 298.15 K]
USER    
USER    (1) Final Intermolecular Energy     =   -7.15 kcal/mol
USER        vdW + Hbond + desolv Energy     =   -6.60 kcal/mol
USER        Electrostatic Energy            =   -0.55 kcal/mol
USER    (2) Final Total Internal Energy     =   -3.36 kcal/mol
USER    (3) Torsional Free Energy           =   +3.88 kcal/mol
USER    (4) Unbound System's Energy  [=(2)] =   -3.36 kcal/mol
USER    
USER    
USER  
USER    DPF = D:/Protein_go_brrr/autodock/final/AncMH_nat/heme/dock.dpf
USER    NEWDPF move	heme_opt.pdbqt
USER    NEWDPF about	0.153000 0.018000 -0.028000
USER    NEWDPF tran0	-14.977586 -18.310340 5.266563
USER    NEWDPF axisangle0	-0.933957 0.336216 -0.121175 -107.383028
USER    NEWDPF quaternion0	-0.752620 0.270936 -0.097648 -0.592133
USER    NEWDPF dihe0	122.26 -118.75 164.81 152.08 -132.46 5.47 152.25 -38.91 25.30 -8.94 -34.45 -82.37 0.98 
USER  
USER                              x       y       z    vdW   Elec        q     RMS 
ATOM      1  O   UNL d   1     -19.848 -15.087   4.466 -0.04 -0.02    -0.289    19.782
ATOM      2  O   UNL d   1     -16.517 -17.507  10.746 -0.11 +0.17    -0.289    19.782
ATOM      3  N   UNL d   1     -17.042 -17.092   4.439 -0.21 -0.03    -0.247    19.782
ATOM      4  N   UNL d   1     -16.299 -17.267   7.310 -0.07 +0.02    -0.247    19.782
ATOM      5  N   UNL d   1     -13.763 -18.347   6.493 -0.03 +0.03    -0.354    19.782
ATOM      6  N   UNL d   1     -14.535 -18.144   3.515 -0.12 -0.02    -0.354    19.782
ATOM      7  C   UNL d   1     -18.346 -15.918   2.727 -0.09 +0.01    +0.084    19.782
ATOM      8  C   UNL d   1     -18.088 -16.969   8.948 -0.03 -0.02    +0.084    19.782
ATOM      9  C   UNL d   1     -17.627 -16.949   7.487 -0.05 -0.01    +0.058    19.782
ATOM     10  C   UNL d   1     -17.156 -16.813   3.087 -0.09 +0.00    +0.058    19.782
ATOM     11  C   UNL d   1     -18.895 -15.757   4.112 -0.04 +0.02    +0.193    19.782
ATOM     12  C   UNL d   1     -18.033 -16.536   5.056 +0.04 +0.01    +0.109    19.782
ATOM     13  C   UNL d   1     -16.767 -17.320   9.571 -0.07 -0.07    +0.193    19.782
ATOM     14  C   UNL d   1     -17.899 -14.549   2.208 -0.14 +0.00    +0.026    19.782
ATOM     15  C   UNL d   1     -18.437 -16.600   6.475 -0.06 -0.00    +0.055    19.782
ATOM     16  C   UNL d   1     -19.077 -18.107   9.216 -0.01 -0.00    +0.026    19.782
ATOM     17  C   UNL d   1     -15.765 -17.466   8.472 -0.09 -0.02    +0.109    19.782
ATOM     18  C   UNL d   1     -16.360 -17.341   2.138 -0.21 +0.00    +0.050    19.782
ATOM     19  C   UNL d   1     -15.291 -18.243   2.369 -0.14 +0.00    +0.045    19.782
ATOM     20  C   UNL d   1     -13.513 -18.141   7.825 -0.17 -0.01    +0.045    19.782
ATOM     21  C   UNL d   1     -14.361 -17.768   8.789 -0.21 -0.01    +0.057    19.782
ATOM     22  C   UNL d   1     -11.571 -18.767   6.797 -0.31 +0.00    -0.019    19.782
ATOM     23  C   UNL d   1     -12.651 -18.728   5.790 -0.20 -0.00    +0.045    19.782
ATOM     24  C   UNL d   1     -12.088 -18.419   7.999 -0.28 +0.00    -0.022    19.782
ATOM     25  C   UNL d   1     -13.502 -19.053   3.492 -0.17 +0.00    +0.049    19.782
ATOM     26  C   UNL d   1     -14.759 -19.266   1.599 -0.08 -0.00    -0.018    19.782
ATOM     27  C   UNL d   1     -13.642 -19.786   2.322 -0.13 +0.00    +0.003    19.782
ATOM     28  C   UNL d   1     -12.494 -19.036   4.494 -0.27 -0.00    +0.052    19.782
ATOM     29  C   UNL d   1     -11.400 -18.324   9.318 -0.37 -0.01    +0.046    19.782
ATOM     30  C   UNL d   1     -15.257 -19.734   0.274 -0.09 +0.00    +0.046    19.782
ATOM     31  H   UNL d   1     -14.705 -18.293   6.120 +0.05 -0.01    +0.166    19.782
ATOM     32  H   UNL d   1     -14.707 -17.462   4.244 +0.00 +0.01    +0.166    19.782
ATOM     33  C   UNL d   1     -19.391 -16.555   1.804 -0.03 +0.01    +0.141    19.782
ATOM     34  C   UNL d   1     -20.228 -17.590   2.505 +0.00 +0.01    +0.306    19.782
ATOM     35  O   UNL d   1     -19.893 -18.735   2.762 -0.00 -0.00    -0.251    19.782
ATOM     36  O   UNL d   1     -21.443 -17.128   2.849 +0.01 -0.01    -0.481    19.782
ATOM     37  H   UNL d   1     -21.260 -16.376   3.451 +0.01 +0.01    +0.295    19.782
ATOM     38  C   UNL d   1     -12.793 -20.850   1.876 -0.13 -0.00    +0.017    19.782
ATOM     39  C   UNL d   1     -11.452 -20.844   1.926 -0.16 -0.00    +0.092    19.782
ATOM     40  C   UNL d   1     -10.699 -22.008   1.452 -0.04 -0.01    +0.330    19.782
ATOM     41  O   UNL d   1     -11.138 -23.019   0.937 -0.01 +0.01    -0.246    19.782
ATOM     42  O   UNL d   1      -9.385 -21.820   1.651 -0.04 +0.01    -0.477    19.782
ATOM     43  H   UNL d   1      -9.307 -21.725   2.623 +0.09 -0.02    +0.295    19.782
ATOM     44  C   UNL d   1     -18.615 -15.637   9.493 -0.06 -0.05    +0.141    19.782
ATOM     45  C   UNL d   1     -17.606 -14.522   9.412 -0.11 -0.13    +0.306    19.782
ATOM     46  O   UNL d   1     -17.634 -13.570   8.652 -0.18 +0.05    -0.251    19.782
ATOM     47  O   UNL d   1     -16.593 -14.680  10.283 -0.11 +0.41    -0.481    19.782
ATOM     48  H   UNL d   1     -16.917 -15.351  10.922 -0.47 -0.51    +0.295    19.782
ATOM     49  C   UNL d   1     -10.146 -19.122   6.490 -0.29 -0.02    +0.048    19.782
ATOM     50  C   UNL d   1      -9.933 -20.635   6.448 -0.21 -0.08    +0.125    19.782
ATOM     51  C   UNL d   1      -8.891 -21.001   5.429 -0.19 -0.16    +0.305    19.782
ATOM     52  O   UNL d   1      -8.784 -20.580   4.291 -0.28 +0.06    -0.251    19.782
ATOM     53  O   UNL d   1      -8.021 -21.915   5.905 -0.12 +0.44    -0.481    19.782
ATOM     54  H   UNL d   1      -8.010 -21.752   6.871 -0.47 -0.60    +0.295    19.782
TER
ENDMDL
MODEL       79
USER    Run = 79
USER    Cluster Rank = 56
USER    Number of conformations in this cluster = 1
USER  
USER    RMSD from reference structure       = 13.306 A
USER  
USER    Estimated Free Energy of Binding    =   -3.22 kcal/mol  [=(1)+(2)+(3)-(4)]
USER    Estimated Inhibition Constant, Ki   =    4.38 mM (millimolar)  [Temperature = 298.15 K]
USER    
USER    (1) Final Intermolecular Energy     =   -7.10 kcal/mol
USER        vdW + Hbond + desolv Energy     =   -6.42 kcal/mol
USER        Electrostatic Energy            =   -0.67 kcal/mol
USER    (2) Final Total Internal Energy     =   -3.29 kcal/mol
USER    (3) Torsional Free Energy           =   +3.88 kcal/mol
USER    (4) Unbound System's Energy  [=(2)] =   -3.29 kcal/mol
USER    
USER    
USER  
USER    DPF = D:/Protein_go_brrr/autodock/final/AncMH_nat/heme/dock.dpf
USER    NEWDPF move	heme_opt.pdbqt
USER    NEWDPF about	0.153000 0.018000 -0.028000
USER    NEWDPF tran0	5.213417 -15.369543 -2.298609
USER    NEWDPF axisangle0	-0.803502 0.377028 0.460689 -151.795086
USER    NEWDPF quaternion0	-0.779285 0.365665 0.446805 -0.243657
USER    NEWDPF dihe0	106.24 -127.90 -170.61 -155.20 -179.86 -57.63 96.45 -2.45 -20.37 -6.44 119.20 21.36 40.37 
USER  
USER                              x       y       z    vdW   Elec        q     RMS 
ATOM      1  O   UNL d   1       1.677 -13.972   2.207 -0.25 -0.17    -0.289    13.306
ATOM      2  O   UNL d   1       8.963 -12.575   1.043 -0.23 +0.10    -0.289    13.306
ATOM      3  N   UNL d   1       3.381 -15.123  -0.562 -0.11 -0.05    -0.247    13.306
ATOM      4  N   UNL d   1       6.049 -13.842  -0.304 -0.10 -0.05    -0.247    13.306
ATOM      5  N   UNL d   1       6.573 -14.596  -3.029 -0.06 -0.03    -0.354    13.306
ATOM      6  N   UNL d   1       3.795 -15.906  -3.294 +0.00 +0.21    -0.354    13.306
ATOM      7  C   UNL d   1       1.038 -15.142   0.158 -0.26 +0.02    +0.084    13.306
ATOM      8  C   UNL d   1       6.788 -13.243   1.947 -0.14 -0.01    +0.084    13.306
ATOM      9  C   UNL d   1       5.687 -13.774   1.023 -0.14 +0.01    +0.058    13.306
ATOM     10  C   UNL d   1       2.091 -15.504  -0.894 -0.19 +0.00    +0.058    13.306
ATOM     11  C   UNL d   1       1.964 -14.506   1.151 -0.19 +0.08    +0.193    13.306
ATOM     12  C   UNL d   1       3.358 -14.580   0.611 -0.17 +0.04    +0.109    13.306
ATOM     13  C   UNL d   1       7.829 -12.987   0.894 -0.17 -0.03    +0.193    13.306
ATOM     14  C   UNL d   1       0.056 -14.084  -0.352 -0.36 +0.00    +0.026    13.306
ATOM     15  C   UNL d   1       4.461 -14.094   1.465 -0.17 +0.02    +0.055    13.306
ATOM     16  C   UNL d   1       7.305 -14.328   2.896 -0.08 -0.00    +0.026    13.306
ATOM     17  C   UNL d   1       7.254 -13.384  -0.427 -0.18 +0.01    +0.109    13.306
ATOM     18  C   UNL d   1       1.773 -16.212  -1.994 -0.14 -0.02    +0.050    13.306
ATOM     19  C   UNL d   1       2.691 -16.663  -2.976 -0.07 -0.02    +0.045    13.306
ATOM     20  C   UNL d   1       7.644 -13.772  -2.802 -0.19 +0.00    +0.045    13.306
ATOM     21  C   UNL d   1       8.038 -13.204  -1.658 -0.27 +0.00    +0.057    13.306
ATOM     22  C   UNL d   1       7.613 -14.352  -5.011 -0.08 +0.00    -0.019    13.306
ATOM     23  C   UNL d   1       6.471 -14.998  -4.334 -0.08 -0.00    +0.045    13.306
ATOM     24  C   UNL d   1       8.305 -13.629  -4.099 -0.19 +0.00    -0.022    13.306
ATOM     25  C   UNL d   1       4.495 -16.483  -4.329 -0.07 -0.02    +0.049    13.306
ATOM     26  C   UNL d   1       2.693 -17.779  -3.798 -0.07 +0.01    -0.018    13.306
ATOM     27  C   UNL d   1       3.845 -17.670  -4.637 -0.05 -0.00    +0.003    13.306
ATOM     28  C   UNL d   1       5.587 -15.806  -4.937 -0.08 -0.01    +0.052    13.306
ATOM     29  C   UNL d   1       9.537 -12.812  -4.296 -0.17 -0.01    +0.046    13.306
ATOM     30  C   UNL d   1       1.688 -18.881  -3.806 -0.03 -0.01    +0.046    13.306
ATOM     31  H   UNL d   1       5.986 -14.918  -2.266 +0.03 +0.02    +0.166    13.306
ATOM     32  H   UNL d   1       4.020 -15.026  -2.845 -0.20 -0.06    +0.166    13.306
ATOM     33  C   UNL d   1       0.306 -16.331   0.790 -0.07 +0.08    +0.141    13.306
ATOM     34  C   UNL d   1       1.133 -17.588   0.787 -0.06 +0.22    +0.306    13.306
ATOM     35  O   UNL d   1       0.801 -18.668   0.328 -0.09 -0.10    -0.251    13.306
ATOM     36  O   UNL d   1       2.337 -17.418   1.362 -0.52 -0.57    -0.481    13.306
ATOM     37  H   UNL d   1       2.864 -16.935   0.691 +0.05 +0.18    +0.295    13.306
ATOM     38  C   UNL d   1       4.220 -18.610  -5.650 -0.01 -0.00    +0.017    13.306
ATOM     39  C   UNL d   1       5.387 -19.269  -5.700 +0.00 -0.01    +0.092    13.306
ATOM     40  C   UNL d   1       5.642 -20.221  -6.785 +0.00 -0.04    +0.330    13.306
ATOM     41  O   UNL d   1       5.007 -21.220  -7.062 +0.00 +0.02    -0.246    13.306
ATOM     42  O   UNL d   1       6.717 -19.839  -7.491 +0.00 +0.05    -0.477    13.306
ATOM     43  H   UNL d   1       7.410 -19.707  -6.811 +0.00 -0.03    +0.295    13.306
ATOM     44  C   UNL d   1       6.450 -11.957   2.707 -0.22 -0.07    +0.141    13.306
ATOM     45  C   UNL d   1       6.048 -10.821   1.804 -0.30 -0.07    +0.306    13.306
ATOM     46  O   UNL d   1       5.189 -10.849   0.940 -0.12 -0.05    -0.251    13.306
ATOM     47  O   UNL d   1       6.773  -9.709   2.021 -0.28 +0.29    -0.481    13.306
ATOM     48  H   UNL d   1       7.482  -9.992   2.638 -0.31 -0.58    +0.295    13.306
ATOM     49  C   UNL d   1       7.911 -14.489  -6.476 -0.04 -0.01    +0.048    13.306
ATOM     50  C   UNL d   1       7.744 -15.929  -6.958 +0.00 -0.02    +0.125    13.306
ATOM     51  C   UNL d   1       8.672 -16.853  -6.220 +0.00 -0.03    +0.305    13.306
ATOM     52  O   UNL d   1       9.569 -16.548  -5.454 -0.00 +0.03    -0.251    13.306
ATOM     53  O   UNL d   1       8.423 -18.147  -6.500 +0.00 +0.05    -0.481    13.306
ATOM     54  H   UNL d   1       7.992 -18.122  -7.380 +0.00 -0.03    +0.295    13.306
TER
ENDMDL
MODEL       20
USER    Run = 20
USER    Cluster Rank = 57
USER    Number of conformations in this cluster = 2
USER  
USER    RMSD from reference structure       = 12.473 A
USER  
USER    Estimated Free Energy of Binding    =   -3.13 kcal/mol  [=(1)+(2)+(3)-(4)]
USER    Estimated Inhibition Constant, Ki   =    5.10 mM (millimolar)  [Temperature = 298.15 K]
USER    
USER    (1) Final Intermolecular Energy     =   -7.00 kcal/mol
USER        vdW + Hbond + desolv Energy     =   -6.87 kcal/mol
USER        Electrostatic Energy            =   -0.13 kcal/mol
USER    (2) Final Total Internal Energy     =   -4.42 kcal/mol
USER    (3) Torsional Free Energy           =   +3.88 kcal/mol
USER    (4) Unbound System's Energy  [=(2)] =   -4.42 kcal/mol
USER    
USER    
USER  
USER    DPF = D:/Protein_go_brrr/autodock/final/AncMH_nat/heme/dock.dpf
USER    NEWDPF move	heme_opt.pdbqt
USER    NEWDPF about	0.153000 0.018000 -0.028000
USER    NEWDPF tran0	13.522224 7.368513 4.430106
USER    NEWDPF axisangle0	-0.572369 -0.746834 0.338575 -174.597402
USER    NEWDPF quaternion0	-0.571733 -0.746004 0.338199 -0.047129
USER    NEWDPF dihe0	-173.30 -179.68 132.49 -44.71 -157.02 -70.26 -72.08 -100.32 11.10 -27.53 -100.73 29.36 -7.08 
USER  
USER                              x       y       z    vdW   Elec        q     RMS 
ATOM      1  O   UNL d   1      16.531   2.310   4.765 -0.09 +0.04    -0.289    12.473
ATOM      2  O   UNL d   1      11.173   5.160   9.188 -0.01 +0.13    -0.289    12.473
ATOM      3  N   UNL d   1      15.134   5.419   4.241 -0.03 +0.28    -0.247    12.473
ATOM      4  N   UNL d   1      12.954   5.537   6.256 +0.16 +0.33    -0.247    12.473
ATOM      5  N   UNL d   1      11.916   7.829   4.864 +0.02 +0.36    -0.354    12.473
ATOM      6  N   UNL d   1      14.170   7.687   2.766 -0.10 +0.29    -0.354    12.473
ATOM      7  C   UNL d   1      16.718   4.006   3.015 -0.18 -0.03    +0.084    12.473
ATOM      8  C   UNL d   1      13.214   4.172   8.266 -0.05 -0.04    +0.084    12.473
ATOM      9  C   UNL d   1      13.726   4.585   6.882 -0.11 -0.05    +0.058    12.473
ATOM     10  C   UNL d   1      15.921   5.311   3.107 -0.20 -0.04    +0.058    12.473
ATOM     11  C   UNL d   1      16.256   3.404   4.308 -0.12 -0.07    +0.193    12.473
ATOM     12  C   UNL d   1      15.320   4.367   4.970 -0.14 -0.09    +0.109    12.473
ATOM     13  C   UNL d   1      11.987   5.039   8.294 -0.04 -0.10    +0.193    12.473
ATOM     14  C   UNL d   1      16.242   3.122   1.860 -0.39 -0.01    +0.026    12.473
ATOM     15  C   UNL d   1      14.805   4.027   6.312 -0.14 -0.03    +0.055    12.473
ATOM     16  C   UNL d   1      14.162   4.625   9.381 -0.00 -0.01    +0.026    12.473
ATOM     17  C   UNL d   1      11.941   5.811   7.015 -0.10 -0.09    +0.109    12.473
ATOM     18  C   UNL d   1      16.065   6.288   2.192 -0.21 -0.02    +0.050    12.473
ATOM     19  C   UNL d   1      15.436   7.558   2.239 -0.08 -0.02    +0.045    12.473
ATOM     20  C   UNL d   1      10.880   7.590   5.729 -0.18 -0.03    +0.045    12.473
ATOM     21  C   UNL d   1      10.817   6.718   6.740 -0.16 -0.04    +0.057    12.473
ATOM     22  C   UNL d   1      10.256   9.227   4.264 -0.33 +0.01    -0.019    12.473
ATOM     23  C   UNL d   1      11.633   8.801   3.942 -0.27 -0.02    +0.045    12.473
ATOM     24  C   UNL d   1       9.816   8.507   5.323 -0.27 +0.01    -0.022    12.473
ATOM     25  C   UNL d   1      13.720   8.980   2.630 -0.23 -0.02    +0.049    12.473
ATOM     26  C   UNL d   1      15.832   8.806   1.782 -0.10 +0.00    -0.018    12.473
ATOM     27  C   UNL d   1      14.752   9.703   2.049 -0.15 -0.00    +0.003    12.473
ATOM     28  C   UNL d   1      12.380   9.323   2.958 -0.35 -0.02    +0.052    12.473
ATOM     29  C   UNL d   1       8.501   8.582   6.020 -0.28 -0.01    +0.046    12.473
ATOM     30  C   UNL d   1      17.133   9.146   1.139 -0.07 -0.01    +0.046    12.473
ATOM     31  H   UNL d   1      12.813   7.370   4.978 -0.24 -0.24    +0.166    12.473
ATOM     32  H   UNL d   1      13.645   6.915   3.158 -0.46 -0.35    +0.166    12.473
ATOM     33  C   UNL d   1      18.242   4.166   3.011 -0.08 -0.03    +0.141    12.473
ATOM     34  C   UNL d   1      18.755   4.865   4.240 +0.00 -0.06    +0.306    12.473
ATOM     35  O   UNL d   1      19.114   6.028   4.310 -0.00 +0.05    -0.251    12.473
ATOM     36  O   UNL d   1      18.785   4.062   5.319 +0.01 +0.09    -0.481    12.473
ATOM     37  H   UNL d   1      18.514   3.183   4.979 +0.03 -0.05    +0.295    12.473
ATOM     38  C   UNL d   1      14.738  11.097   1.721 -0.13 +0.00    +0.017    12.473
ATOM     39  C   UNL d   1      14.721  12.102   2.611 -0.06 +0.00    +0.092    12.473
ATOM     40  C   UNL d   1      14.725  13.490   2.143 -0.03 +0.03    +0.330    12.473
ATOM     41  O   UNL d   1      15.649  14.104   1.644 -0.01 -0.02    -0.246    12.473
ATOM     42  O   UNL d   1      13.517  14.044   2.331 -0.01 -0.05    -0.477    12.473
ATOM     43  H   UNL d   1      12.991  13.327   2.739 +0.06 +0.03    +0.295    12.473
ATOM     44  C   UNL d   1      12.844   2.693   8.420 -0.08 -0.04    +0.141    12.473
ATOM     45  C   UNL d   1      11.516   2.345   7.801 -0.10 -0.10    +0.306    12.473
ATOM     46  O   UNL d   1      10.525   1.945   8.386 -0.13 +0.13    -0.251    12.473
ATOM     47  O   UNL d   1      11.516   2.495   6.464 -0.49 +0.20    -0.481    12.473
ATOM     48  H   UNL d   1      11.907   3.382   6.314 -0.09 -0.41    +0.295    12.473
ATOM     49  C   UNL d   1       9.500  10.277   3.504 -0.41 -0.01    +0.048    12.473
ATOM     50  C   UNL d   1       9.713  11.671   4.094 -0.27 -0.01    +0.125    12.473
ATOM     51  C   UNL d   1      11.023  12.251   3.640 -0.14 +0.00    +0.305    12.473
ATOM     52  O   UNL d   1      12.041  12.390   4.295 -0.06 +0.01    -0.251    12.473
ATOM     53  O   UNL d   1      10.979  12.647   2.352 -0.10 -0.07    -0.481    12.473
ATOM     54  H   UNL d   1      11.408  13.529   2.360 +0.10 +0.04    +0.295    12.473
TER
ENDMDL
MODEL       66
USER    Run = 66
USER    Cluster Rank = 58
USER    Number of conformations in this cluster = 1
USER  
USER    RMSD from reference structure       = 13.286 A
USER  
USER    Estimated Free Energy of Binding    =   -3.11 kcal/mol  [=(1)+(2)+(3)-(4)]
USER    Estimated Inhibition Constant, Ki   =    5.25 mM (millimolar)  [Temperature = 298.15 K]
USER    
USER    (1) Final Intermolecular Energy     =   -6.99 kcal/mol
USER        vdW + Hbond + desolv Energy     =   -6.95 kcal/mol
USER        Electrostatic Energy            =   -0.03 kcal/mol
USER    (2) Final Total Internal Energy     =   -3.24 kcal/mol
USER    (3) Torsional Free Energy           =   +3.88 kcal/mol
USER    (4) Unbound System's Energy  [=(2)] =   -3.24 kcal/mol
USER    
USER    
USER  
USER    DPF = D:/Protein_go_brrr/autodock/final/AncMH_nat/heme/dock.dpf
USER    NEWDPF move	heme_opt.pdbqt
USER    NEWDPF about	0.153000 0.018000 -0.028000
USER    NEWDPF tran0	16.601454 -6.733692 -0.160932
USER    NEWDPF axisangle0	0.448463 -0.813650 -0.369939 -134.874497
USER    NEWDPF quaternion0	0.414138 -0.751373 -0.341624 -0.383695
USER    NEWDPF dihe0	92.16 -121.24 12.11 -150.36 179.85 -16.79 105.04 -3.65 94.42 -1.96 118.04 -6.86 35.28 
USER  
USER                              x       y       z    vdW   Elec        q     RMS 
ATOM      1  O   UNL d   1      17.470  -0.929  -0.711 -0.23 +0.06    -0.289    13.286
ATOM      2  O   UNL d   1      20.667  -6.745  -4.224 -0.04 +0.04    -0.289    13.286
ATOM      3  N   UNL d   1      16.726  -4.209   0.050 -0.08 +0.04    -0.247    13.286
ATOM      4  N   UNL d   1      18.212  -5.744  -2.015 -0.11 +0.05    -0.247    13.286
ATOM      5  N   UNL d   1      16.681  -8.058  -1.265 -0.08 +0.04    -0.354    13.286
ATOM      6  N   UNL d   1      15.130  -6.454   0.863 -0.10 +0.06    -0.354    13.286
ATOM      7  C   UNL d   1      15.847  -2.030   0.747 -0.31 -0.00    +0.084    13.286
ATOM      8  C   UNL d   1      20.196  -4.691  -2.978 -0.08 -0.01    +0.084    13.286
ATOM      9  C   UNL d   1      18.970  -4.595  -2.064 -0.14 -0.01    +0.058    13.286
ATOM     10  C   UNL d   1      15.791  -3.558   0.838 -0.22 -0.00    +0.058    13.286
ATOM     11  C   UNL d   1      16.990  -1.933  -0.217 -0.25 -0.04    +0.193    13.286
ATOM     12  C   UNL d   1      17.452  -3.319  -0.543 -0.19 -0.02    +0.109    13.286
ATOM     13  C   UNL d   1      19.972  -6.094  -3.468 -0.06 -0.03    +0.193    13.286
ATOM     14  C   UNL d   1      14.593  -1.448   0.089 -0.52 -0.00    +0.026    13.286
ATOM     15  C   UNL d   1      18.638  -3.471  -1.410 -0.21 -0.01    +0.055    13.286
ATOM     16  C   UNL d   1      21.503  -4.650  -2.181 -0.04 -0.00    +0.026    13.286
ATOM     17  C   UNL d   1      18.734  -6.617  -2.815 -0.13 -0.02    +0.109    13.286
ATOM     18  C   UNL d   1      14.955  -4.182   1.688 -0.18 +0.00    +0.050    13.286
ATOM     19  C   UNL d   1      14.893  -5.583   1.901 -0.12 -0.00    +0.045    13.286
ATOM     20  C   UNL d   1      17.289  -8.536  -2.396 -0.09 -0.00    +0.045    13.286
ATOM     21  C   UNL d   1      18.240  -7.963  -3.141 -0.11 -0.01    +0.057    13.286
ATOM     22  C   UNL d   1      15.762 -10.074  -1.675 -0.13 +0.00    -0.019    13.286
ATOM     23  C   UNL d   1      15.743  -8.918  -0.757 -0.17 -0.01    +0.045    13.286
ATOM     24  C   UNL d   1      16.680  -9.842  -2.643 -0.12 +0.00    -0.022    13.286
ATOM     25  C   UNL d   1      14.929  -7.754   1.267 -0.22 -0.01    +0.049    13.286
ATOM     26  C   UNL d   1      14.565  -6.336   3.018 -0.17 +0.00    -0.018    13.286
ATOM     27  C   UNL d   1      14.609  -7.707   2.617 -0.20 -0.00    +0.003    13.286
ATOM     28  C   UNL d   1      14.961  -8.822   0.330 -0.26 -0.01    +0.052    13.286
ATOM     29  C   UNL d   1      17.071 -10.715  -3.786 -0.12 -0.00    +0.046    13.286
ATOM     30  C   UNL d   1      14.234  -5.817   4.376 -0.13 -0.00    +0.046    13.286
ATOM     31  H   UNL d   1      16.979  -7.191  -0.833 +0.05 -0.02    +0.166    13.286
ATOM     32  H   UNL d   1      15.377  -6.157  -0.074 +0.06 -0.04    +0.166    13.286
ATOM     33  C   UNL d   1      16.183  -1.306   2.055 -0.18 +0.02    +0.141    13.286
ATOM     34  C   UNL d   1      17.070  -0.110   1.844 -0.16 +0.01    +0.306    13.286
ATOM     35  O   UNL d   1      18.133   0.106   2.401 -0.10 +0.01    -0.251    13.286
ATOM     36  O   UNL d   1      16.572   0.751   0.939 -0.17 -0.01    -0.481    13.286
ATOM     37  H   UNL d   1      16.944   0.451   0.082 +0.16 -0.02    +0.295    13.286
ATOM     38  C   UNL d   1      14.320  -8.825   3.464 -0.17 -0.00    +0.017    13.286
ATOM     39  C   UNL d   1      14.858 -10.048   3.343 -0.09 -0.02    +0.092    13.286
ATOM     40  C   UNL d   1      14.490 -11.104   4.290 -0.03 -0.08    +0.330    13.286
ATOM     41  O   UNL d   1      13.984 -10.975   5.388 -0.05 +0.07    -0.246    13.286
ATOM     42  O   UNL d   1      14.784 -12.308   3.775 +0.00 +0.09    -0.477    13.286
ATOM     43  H   UNL d   1      15.748 -12.263   3.607 +0.02 -0.05    +0.295    13.286
ATOM     44  C   UNL d   1      20.228  -3.700  -4.146 -0.14 -0.03    +0.141    13.286
ATOM     45  C   UNL d   1      18.966  -3.709  -4.968 -0.18 -0.08    +0.306    13.286
ATOM     46  O   UNL d   1      17.843  -3.444  -4.577 -0.42 +0.08    -0.251    13.286
ATOM     47  O   UNL d   1      19.184  -4.081  -6.242 -0.07 +0.16    -0.481    13.286
ATOM     48  H   UNL d   1      18.347  -3.872  -6.708 -0.48 -0.22    +0.295    13.286
ATOM     49  C   UNL d   1      14.880 -11.279  -1.531 -0.16 -0.01    +0.048    13.286
ATOM     50  C   UNL d   1      14.888 -11.822  -0.103 -0.09 -0.02    +0.125    13.286
ATOM     51  C   UNL d   1      16.270 -12.252   0.300 -0.00 -0.04    +0.305    13.286
ATOM     52  O   UNL d   1      17.252 -12.358  -0.412 -0.00 +0.03    -0.251    13.286
ATOM     53  O   UNL d   1      16.344 -12.545   1.614 +0.01 +0.07    -0.481    13.286
ATOM     54  H   UNL d   1      15.442 -12.855   1.840 +0.03 -0.05    +0.295    13.286
TER
ENDMDL
MODEL       37
USER    Run = 37
USER    Cluster Rank = 59
USER    Number of conformations in this cluster = 1
USER  
USER    RMSD from reference structure       = 15.254 A
USER  
USER    Estimated Free Energy of Binding    =   -3.05 kcal/mol  [=(1)+(2)+(3)-(4)]
USER    Estimated Inhibition Constant, Ki   =    5.80 mM (millimolar)  [Temperature = 298.15 K]
USER    
USER    (1) Final Intermolecular Energy     =   -6.93 kcal/mol
USER        vdW + Hbond + desolv Energy     =   -6.77 kcal/mol
USER        Electrostatic Energy            =   -0.16 kcal/mol
USER    (2) Final Total Internal Energy     =   -4.69 kcal/mol
USER    (3) Torsional Free Energy           =   +3.88 kcal/mol
USER    (4) Unbound System's Energy  [=(2)] =   -4.69 kcal/mol
USER    
USER    
USER  
USER    DPF = D:/Protein_go_brrr/autodock/final/AncMH_nat/heme/dock.dpf
USER    NEWDPF move	heme_opt.pdbqt
USER    NEWDPF about	0.153000 0.018000 -0.028000
USER    NEWDPF tran0	-17.926349 -6.820991 3.364117
USER    NEWDPF axisangle0	-0.127200 -0.402261 0.906645 93.251393
USER    NEWDPF quaternion0	-0.092460 -0.292397 0.659025 0.686762
USER    NEWDPF dihe0	-179.93 117.17 -127.10 -74.24 -161.23 57.45 124.68 -12.14 0.16 -18.34 -59.11 -77.57 7.83 
USER  
USER                              x       y       z    vdW   Elec        q     RMS 
ATOM      1  O   UNL d   1     -15.903  -2.184   6.391 -0.09 -0.11    -0.289    15.254
ATOM      2  O   UNL d   1     -22.911  -4.304   4.725 -0.00 -0.07    -0.289    15.254
ATOM      3  N   UNL d   1     -16.607  -4.945   4.447 -0.07 -0.12    -0.247    15.254
ATOM      4  N   UNL d   1     -19.568  -5.148   4.597 -0.30 -0.12    -0.247    15.254
ATOM      5  N   UNL d   1     -19.350  -7.790   3.482 -0.08 -0.08    -0.354    15.254
ATOM      6  N   UNL d   1     -16.278  -7.578   3.348 -0.11 -0.18    -0.354    15.254
ATOM      7  C   UNL d   1     -14.568  -3.979   5.405 -0.24 +0.03    +0.084    15.254
ATOM      8  C   UNL d   1     -20.809  -3.090   5.037 -0.02 +0.04    +0.084    15.254
ATOM      9  C   UNL d   1     -19.463  -3.811   4.908 -0.06 +0.03    +0.058    15.254
ATOM     10  C   UNL d   1     -15.235  -5.081   4.577 -0.23 +0.03    +0.058    15.254
ATOM     11  C   UNL d   1     -15.804  -3.185   5.705 -0.08 +0.08    +0.193    15.254
ATOM     12  C   UNL d   1     -16.969  -3.858   5.048 -0.08 +0.05    +0.109    15.254
ATOM     13  C   UNL d   1     -21.697  -4.274   4.779 -0.03 +0.06    +0.193    15.254
ATOM     14  C   UNL d   1     -13.993  -4.515   6.718 -0.23 +0.01    +0.026    15.254
ATOM     15  C   UNL d   1     -18.289  -3.201   5.129 -0.08 +0.03    +0.055    15.254
ATOM     16  C   UNL d   1     -21.015  -2.067   3.916 -0.03 +0.02    +0.026    15.254
ATOM     17  C   UNL d   1     -20.822  -5.460   4.535 -0.03 +0.04    +0.109    15.254
ATOM     18  C   UNL d   1     -14.511  -6.037   3.964 -0.41 +0.03    +0.050    15.254
ATOM     19  C   UNL d   1     -15.031  -7.044   3.112 -0.33 +0.03    +0.045    15.254
ATOM     20  C   UNL d   1     -20.674  -7.792   3.836 -0.07 +0.01    +0.045    15.254
ATOM     21  C   UNL d   1     -21.421  -6.782   4.295 -0.08 +0.01    +0.057    15.254
ATOM     22  C   UNL d   1     -20.093  -9.888   3.139 -0.10 -0.00    -0.019    15.254
ATOM     23  C   UNL d   1     -18.908  -9.011   3.049 -0.14 +0.01    +0.045    15.254
ATOM     24  C   UNL d   1     -21.136  -9.160   3.605 -0.08 -0.00    -0.022    15.254
ATOM     25  C   UNL d   1     -16.543  -8.596   2.462 -0.23 +0.02    +0.049    15.254
ATOM     26  C   UNL d   1     -14.488  -7.707   2.023 -0.44 -0.01    -0.018    15.254
ATOM     27  C   UNL d   1     -15.455  -8.672   1.604 -0.34 +0.00    +0.003    15.254
ATOM     28  C   UNL d   1     -17.704  -9.403   2.606 -0.20 +0.02    +0.052    15.254
ATOM     29  C   UNL d   1     -22.540  -9.595   3.855 -0.04 +0.00    +0.046    15.254
ATOM     30  C   UNL d   1     -13.153  -7.460   1.405 -0.26 +0.03    +0.046    15.254
ATOM     31  H   UNL d   1     -18.808  -6.932   3.478 +0.02 +0.05    +0.166    15.254
ATOM     32  H   UNL d   1     -16.883  -7.275   4.102 +0.06 +0.07    +0.166    15.254
ATOM     33  C   UNL d   1     -13.546  -3.120   4.652 -0.24 +0.06    +0.141    15.254
ATOM     34  C   UNL d   1     -14.062  -2.636   3.324 -0.14 +0.23    +0.306    15.254
ATOM     35  O   UNL d   1     -13.716  -3.039   2.227 -0.73 -0.33    -0.251    15.254
ATOM     36  O   UNL d   1     -14.989  -1.670   3.450 -0.03 -0.37    -0.481    15.254
ATOM     37  H   UNL d   1     -15.109  -1.567   4.418 +0.12 +0.18    +0.295    15.254
ATOM     38  C   UNL d   1     -15.290  -9.587   0.515 -0.36 +0.01    +0.017    15.254
ATOM     39  C   UNL d   1     -15.667 -10.874   0.521 -0.29 +0.03    +0.092    15.254
ATOM     40  C   UNL d   1     -15.457 -11.702  -0.670 -0.19 +0.07    +0.330    15.254
ATOM     41  O   UNL d   1     -14.413 -11.903  -1.261 -0.21 -0.02    -0.246    15.254
ATOM     42  O   UNL d   1     -16.616 -12.257  -1.057 -0.04 -0.09    -0.477    15.254
ATOM     43  H   UNL d   1     -16.865 -12.830  -0.302 +0.08 +0.05    +0.295    15.254
ATOM     44  C   UNL d   1     -21.099  -2.474   6.410 -0.02 +0.06    +0.141    15.254
ATOM     45  C   UNL d   1     -21.305  -3.502   7.490 -0.03 +0.09    +0.306    15.254
ATOM     46  O   UNL d   1     -20.436  -4.102   8.098 -0.12 -0.07    -0.251    15.254
ATOM     47  O   UNL d   1     -22.607  -3.743   7.730 +0.01 -0.11    -0.481    15.254
ATOM     48  H   UNL d   1     -22.989  -3.942   6.849 +0.02 +0.07    +0.295    15.254
ATOM     49  C   UNL d   1     -20.093 -11.345   2.780 -0.06 +0.01    +0.048    15.254
ATOM     50  C   UNL d   1     -20.086 -11.558   1.267 -0.02 +0.02    +0.125    15.254
ATOM     51  C   UNL d   1     -18.891 -12.364   0.843 -0.03 +0.05    +0.305    15.254
ATOM     52  O   UNL d   1     -17.865 -12.558   1.471 -0.12 -0.05    -0.251    15.254
ATOM     53  O   UNL d   1     -19.048 -12.889  -0.388 +0.01 -0.06    -0.481    15.254
ATOM     54  H   UNL d   1     -18.472 -12.337  -0.958 +0.04 +0.04    +0.295    15.254
TER
ENDMDL
MODEL       35
USER    Run = 35
USER    Cluster Rank = 60
USER    Number of conformations in this cluster = 1
USER  
USER    RMSD from reference structure       = 21.221 A
USER  
USER    Estimated Free Energy of Binding    =   -3.04 kcal/mol  [=(1)+(2)+(3)-(4)]
USER    Estimated Inhibition Constant, Ki   =    5.90 mM (millimolar)  [Temperature = 298.15 K]
USER    
USER    (1) Final Intermolecular Energy     =   -6.92 kcal/mol
USER        vdW + Hbond + desolv Energy     =   -6.63 kcal/mol
USER        Electrostatic Energy            =   -0.29 kcal/mol
USER    (2) Final Total Internal Energy     =   -3.98 kcal/mol
USER    (3) Torsional Free Energy           =   +3.88 kcal/mol
USER    (4) Unbound System's Energy  [=(2)] =   -3.98 kcal/mol
USER    
USER    
USER  
USER    DPF = D:/Protein_go_brrr/autodock/final/AncMH_nat/heme/dock.dpf
USER    NEWDPF move	heme_opt.pdbqt
USER    NEWDPF about	0.153000 0.018000 -0.028000
USER    NEWDPF tran0	-7.559736 -15.048078 16.988253
USER    NEWDPF axisangle0	0.600633 -0.468451 0.647915 38.786535
USER    NEWDPF quaternion0	0.199440 -0.155549 0.215140 0.943262
USER    NEWDPF dihe0	111.14 -165.71 -159.40 -125.93 -135.44 74.60 135.11 -23.39 42.52 -10.00 114.44 -44.38 42.32 
USER  
USER                              x       y       z    vdW   Elec        q     RMS 
ATOM      1  O   UNL d   1     -11.553 -10.824  17.970 -0.08 -0.05    -0.289    21.221
ATOM      2  O   UNL d   1     -12.107 -18.305  18.311 -0.02 +0.05    -0.289    21.221
ATOM      3  N   UNL d   1      -8.942 -12.929  17.167 -0.14 -0.08    -0.247    21.221
ATOM      4  N   UNL d   1      -9.986 -15.617  17.884 -0.07 +0.03    -0.247    21.221
ATOM      5  N   UNL d   1      -7.301 -16.619  17.655 -0.05 +0.03    -0.354    21.221
ATOM      6  N   UNL d   1      -6.223 -13.823  16.931 -0.05 -0.05    -0.354    21.221
ATOM      7  C   UNL d   1      -9.199 -10.502  17.396 -0.18 +0.02    +0.084    21.221
ATOM      8  C   UNL d   1     -12.410 -15.921  17.848 -0.12 -0.02    +0.084    21.221
ATOM      9  C   UNL d   1     -11.201 -14.988  17.726 -0.14 -0.01    +0.058    21.221
ATOM     10  C   UNL d   1      -8.299 -11.704  17.094 -0.19 +0.02    +0.058    21.221
ATOM     11  C   UNL d   1     -10.469 -11.263  17.634 -0.10 +0.04    +0.193    21.221
ATOM     12  C   UNL d   1     -10.189 -12.721  17.440 -0.13 +0.02    +0.109    21.221
ATOM     13  C   UNL d   1     -11.658 -17.188  18.141 -0.05 -0.04    +0.193    21.221
ATOM     14  C   UNL d   1      -8.796  -9.794  18.692 -0.14 +0.00    +0.026    21.221
ATOM     15  C   UNL d   1     -11.321 -13.665  17.534 -0.15 -0.01    +0.055    21.221
ATOM     16  C   UNL d   1     -13.141 -16.080  16.511 -0.23 -0.01    +0.026    21.221
ATOM     17  C   UNL d   1     -10.199 -16.867  18.143 -0.06 -0.02    +0.109    21.221
ATOM     18  C   UNL d   1      -7.020 -11.545  16.705 -0.29 +0.02    +0.050    21.221
ATOM     19  C   UNL d   1      -6.140 -12.590  16.325 -0.25 +0.02    +0.045    21.221
ATOM     20  C   UNL d   1      -7.913 -17.711  18.215 -0.06 -0.01    +0.045    21.221
ATOM     21  C   UNL d   1      -9.213 -17.915  18.447 -0.07 -0.01    +0.057    21.221
ATOM     22  C   UNL d   1      -5.661 -18.085  18.138 -0.08 +0.00    -0.019    21.221
ATOM     23  C   UNL d   1      -5.941 -16.752  17.567 -0.12 -0.00    +0.045    21.221
ATOM     24  C   UNL d   1      -6.832 -18.648  18.518 -0.07 +0.00    -0.022    21.221
ATOM     25  C   UNL d   1      -5.223 -14.652  16.478 -0.17 -0.00    +0.049    21.221
ATOM     26  C   UNL d   1      -5.083 -12.631  15.429 -0.35 -0.00    -0.018    21.221
ATOM     27  C   UNL d   1      -4.520 -13.941  15.516 -0.24 -0.00    +0.003    21.221
ATOM     28  C   UNL d   1      -5.007 -15.926  17.072 -0.15 -0.00    +0.052    21.221
ATOM     29  C   UNL d   1      -7.069 -19.985  19.133 -0.03 -0.00    +0.046    21.221
ATOM     30  C   UNL d   1      -4.624 -11.522  14.543 -0.25 +0.00    +0.046    21.221
ATOM     31  H   UNL d   1      -7.842 -15.846  17.283 -0.04 -0.01    +0.166    21.221
ATOM     32  H   UNL d   1      -6.908 -14.054  17.641 +0.05 +0.02    +0.166    21.221
ATOM     33  C   UNL d   1      -9.376  -9.508  16.243 -0.30 +0.06    +0.141    21.221
ATOM     34  C   UNL d   1     -10.550  -9.844  15.364 -0.32 +0.17    +0.306    21.221
ATOM     35  O   UNL d   1     -10.566 -10.671  14.468 -0.31 -0.25    -0.251    21.221
ATOM     36  O   UNL d   1     -11.645  -9.122  15.662 -0.17 -0.21    -0.481    21.221
ATOM     37  H   UNL d   1     -11.950  -9.480  16.522 +0.15 +0.12    +0.295    21.221
ATOM     38  C   UNL d   1      -3.392 -14.406  14.766 -0.21 -0.00    +0.017    21.221
ATOM     39  C   UNL d   1      -2.772 -15.582  14.949 -0.15 -0.02    +0.092    21.221
ATOM     40  C   UNL d   1      -1.636 -15.948  14.100 -0.18 -0.03    +0.330    21.221
ATOM     41  O   UNL d   1      -0.510 -15.487  14.125 -0.14 +0.02    -0.246    21.221
ATOM     42  O   UNL d   1      -1.993 -16.915  13.242 -0.34 -0.03    -0.477    21.221
ATOM     43  H   UNL d   1      -2.971 -16.922  13.289 -0.22 -0.01    +0.295    21.221
ATOM     44  C   UNL d   1     -13.389 -15.589  18.979 -0.04 -0.03    +0.141    21.221
ATOM     45  C   UNL d   1     -12.753 -15.620  20.343 +0.00 -0.03    +0.306    21.221
ATOM     46  O   UNL d   1     -12.235 -14.683  20.925 -0.00 +0.02    -0.251    21.221
ATOM     47  O   UNL d   1     -12.779 -16.847  20.895 +0.01 +0.05    -0.481    21.221
ATOM     48  H   UNL d   1     -12.915 -17.456  20.139 +0.02 -0.04    +0.295    21.221
ATOM     49  C   UNL d   1      -4.286 -18.673  18.270 -0.05 -0.00    +0.048    21.221
ATOM     50  C   UNL d   1      -3.427 -18.395  17.037 -0.08 -0.01    +0.125    21.221
ATOM     51  C   UNL d   1      -3.992 -19.079  15.824 -0.13 -0.02    +0.305    21.221
ATOM     52  O   UNL d   1      -4.635 -20.114  15.786 -0.12 +0.02    -0.251    21.221
ATOM     53  O   UNL d   1      -3.701 -18.414  14.689 -0.10 +0.02    -0.481    21.221
ATOM     54  H   UNL d   1      -2.727 -18.313  14.715 +0.07 -0.01    +0.295    21.221
TER
ENDMDL
MODEL       74
USER    Run = 74
USER    Cluster Rank = 61
USER    Number of conformations in this cluster = 1
USER  
USER    RMSD from reference structure       = 17.556 A
USER  
USER    Estimated Free Energy of Binding    =   -2.86 kcal/mol  [=(1)+(2)+(3)-(4)]
USER    Estimated Inhibition Constant, Ki   =    7.97 mM (millimolar)  [Temperature = 298.15 K]
USER    
USER    (1) Final Intermolecular Energy     =   -6.74 kcal/mol
USER        vdW + Hbond + desolv Energy     =   -6.61 kcal/mol
USER        Electrostatic Energy            =   -0.13 kcal/mol
USER    (2) Final Total Internal Energy     =   -4.39 kcal/mol
USER    (3) Torsional Free Energy           =   +3.88 kcal/mol
USER    (4) Unbound System's Energy  [=(2)] =   -4.39 kcal/mol
USER    
USER    
USER  
USER    DPF = D:/Protein_go_brrr/autodock/final/AncMH_nat/heme/dock.dpf
USER    NEWDPF move	heme_opt.pdbqt
USER    NEWDPF about	0.153000 0.018000 -0.028000
USER    NEWDPF tran0	-18.371825 1.726960 9.970531
USER    NEWDPF axisangle0	-0.621785 -0.152122 0.768272 101.279537
USER    NEWDPF quaternion0	-0.480748 -0.117616 0.594008 0.634194
USER    NEWDPF dihe0	-97.88 -150.36 -179.97 -2.25 52.24 -6.71 144.27 14.46 145.97 -10.13 -50.07 -66.06 6.43 
USER  
USER                              x       y       z    vdW   Elec        q     RMS 
ATOM      1  O   UNL d   1     -18.678   4.551  15.137 -0.39 -0.38    -0.289    17.556
ATOM      2  O   UNL d   1     -22.613   5.426   8.801 -0.04 -0.09    -0.289    17.556
ATOM      3  N   UNL d   1     -18.044   2.729  12.277 -0.16 -0.03    -0.247    17.556
ATOM      4  N   UNL d   1     -20.248   3.532  10.453 -0.12 -0.06    -0.247    17.556
ATOM      5  N   UNL d   1     -19.541   1.310   8.771 -0.10 -0.15    -0.354    17.556
ATOM      6  N   UNL d   1     -17.269   0.473  10.679 -0.09 -0.05    -0.354    17.556
ATOM      7  C   UNL d   1     -17.202   2.684  14.579 -0.17 +0.02    +0.084    17.556
ATOM      8  C   UNL d   1     -21.249   5.733  10.810 -0.14 +0.03    +0.084    17.556
ATOM      9  C   UNL d   1     -20.276   4.642  11.269 -0.21 +0.02    +0.058    17.556
ATOM     10  C   UNL d   1     -17.184   2.101  13.162 -0.24 +0.01    +0.058    17.556
ATOM     11  C   UNL d   1     -18.212   3.764  14.333 -0.06 +0.12    +0.193    17.556
ATOM     12  C   UNL d   1     -18.626   3.705  12.895 -0.22 +0.04    +0.109    17.556
ATOM     13  C   UNL d   1     -21.796   5.021   9.605 -0.09 +0.06    +0.193    17.556
ATOM     14  C   UNL d   1     -17.773   1.695  15.599 -0.07 +0.01    +0.026    17.556
ATOM     15  C   UNL d   1     -19.553   4.740  12.395 -0.26 +0.03    +0.055    17.556
ATOM     16  C   UNL d   1     -20.512   6.993  10.346 -0.23 +0.01    +0.026    17.556
ATOM     17  C   UNL d   1     -21.113   3.696   9.504 -0.15 +0.04    +0.109    17.556
ATOM     18  C   UNL d   1     -16.327   1.123  12.815 -0.27 +0.00    +0.050    17.556
ATOM     19  C   UNL d   1     -16.179   0.582  11.513 -0.29 +0.00    +0.045    17.556
ATOM     20  C   UNL d   1     -20.722   1.684   8.184 -0.11 +0.03    +0.045    17.556
ATOM     21  C   UNL d   1     -21.481   2.755   8.436 -0.14 +0.03    +0.057    17.556
ATOM     22  C   UNL d   1     -20.006  -0.264   7.228 -0.10 -0.01    -0.019    17.556
ATOM     23  C   UNL d   1     -19.033   0.146   8.261 -0.15 +0.02    +0.045    17.556
ATOM     24  C   UNL d   1     -21.003   0.652   7.187 -0.03 -0.02    -0.022    17.556
ATOM     25  C   UNL d   1     -16.920  -0.158   9.507 -0.24 +0.01    +0.049    17.556
ATOM     26  C   UNL d   1     -15.087   0.041  10.852 -0.41 -0.00    -0.018    17.556
ATOM     27  C   UNL d   1     -15.556  -0.406   9.579 -0.32 +0.00    +0.003    17.556
ATOM     28  C   UNL d   1     -17.908  -0.525   8.554 -0.18 +0.02    +0.052    17.556
ATOM     29  C   UNL d   1     -22.204   0.684   6.304 -0.07 +0.04    +0.046    17.556
ATOM     30  C   UNL d   1     -13.691  -0.052  11.369 -0.21 -0.00    +0.046    17.556
ATOM     31  H   UNL d   1     -19.082   1.904   9.453 +0.01 +0.04    +0.166    17.556
ATOM     32  H   UNL d   1     -18.200   0.783  10.930 +0.05 +0.03    +0.166    17.556
ATOM     33  C   UNL d   1     -15.877   3.285  15.059 -0.13 +0.04    +0.141    17.556
ATOM     34  C   UNL d   1     -15.860   3.538  16.542 -0.10 +0.08    +0.306    17.556
ATOM     35  O   UNL d   1     -15.250   2.890  17.376 -0.05 -0.03    -0.251    17.556
ATOM     36  O   UNL d   1     -16.610   4.596  16.897 -0.07 -0.27    -0.481    17.556
ATOM     37  H   UNL d   1     -17.530   4.256  16.901 +0.04 +0.19    +0.295    17.556
ATOM     38  C   UNL d   1     -14.752  -1.045   8.581 -0.30 +0.00    +0.017    17.556
ATOM     39  C   UNL d   1     -15.196  -1.936   7.682 -0.29 +0.02    +0.092    17.556
ATOM     40  C   UNL d   1     -14.271  -2.505   6.698 -0.18 +0.08    +0.330    17.556
ATOM     41  O   UNL d   1     -13.123  -2.168   6.476 -0.27 -0.05    -0.246    17.556
ATOM     42  O   UNL d   1     -14.863  -3.509   6.034 -0.03 -0.16    -0.477    17.556
ATOM     43  H   UNL d   1     -15.811  -3.265   6.037 +0.15 +0.11    +0.295    17.556
ATOM     44  C   UNL d   1     -22.368   6.077  11.799 -0.05 +0.05    +0.141    17.556
ATOM     45  C   UNL d   1     -23.252   4.904  12.128 +0.00 +0.08    +0.306    17.556
ATOM     46  O   UNL d   1     -23.194   4.208  13.126 -0.00 -0.07    -0.251    17.556
ATOM     47  O   UNL d   1     -24.153   4.651  11.161 +0.01 -0.10    -0.481    17.556
ATOM     48  H   UNL d   1     -23.987   5.339  10.481 +0.02 +0.06    +0.295    17.556
ATOM     49  C   UNL d   1     -19.881  -1.507   6.398 -0.07 +0.03    +0.048    17.556
ATOM     50  C   UNL d   1     -18.851  -1.343   5.280 -0.08 +0.09    +0.125    17.556
ATOM     51  C   UNL d   1     -17.893  -2.500   5.260 -0.02 +0.16    +0.305    17.556
ATOM     52  O   UNL d   1     -17.959  -3.531   5.905 -0.12 -0.10    -0.251    17.556
ATOM     53  O   UNL d   1     -16.865  -2.289   4.413 +0.02 -0.29    -0.481    17.556
ATOM     54  H   UNL d   1     -16.300  -3.081   4.523 +0.11 +0.16    +0.295    17.556
TER
ENDMDL
MODEL      100
USER    Run = 100
USER    Cluster Rank = 62
USER    Number of conformations in this cluster = 1
USER  
USER    RMSD from reference structure       = 13.274 A
USER  
USER    Estimated Free Energy of Binding    =   -2.73 kcal/mol  [=(1)+(2)+(3)-(4)]
USER    Estimated Inhibition Constant, Ki   =   10.03 mM (millimolar)  [Temperature = 298.15 K]
USER    
USER    (1) Final Intermolecular Energy     =   -6.60 kcal/mol
USER        vdW + Hbond + desolv Energy     =   -6.29 kcal/mol
USER        Electrostatic Energy            =   -0.31 kcal/mol
USER    (2) Final Total Internal Energy     =   -3.44 kcal/mol
USER    (3) Torsional Free Energy           =   +3.88 kcal/mol
USER    (4) Unbound System's Energy  [=(2)] =   -3.44 kcal/mol
USER    
USER    
USER  
USER    DPF = D:/Protein_go_brrr/autodock/final/AncMH_nat/heme/dock.dpf
USER    NEWDPF move	heme_opt.pdbqt
USER    NEWDPF about	0.153000 0.018000 -0.028000
USER    NEWDPF tran0	12.537868 -12.146024 -1.526940
USER    NEWDPF axisangle0	0.950642 0.167038 -0.261492 105.733110
USER    NEWDPF quaternion0	0.757882 0.133168 -0.208470 0.603673
USER    NEWDPF dihe0	161.59 -123.70 94.75 -135.93 -148.25 3.66 166.86 -13.85 8.45 26.90 128.59 -18.92 31.30 
USER  
USER                              x       y       z    vdW   Elec        q     RMS 
ATOM      1  O   UNL d   1       7.220 -14.532  -2.415 -0.07 -0.01    -0.289    13.274
ATOM      2  O   UNL d   1      11.200 -13.566   3.880 -0.07 +0.10    -0.289    13.274
ATOM      3  N   UNL d   1      10.396 -13.187  -2.401 -0.15 +0.07    -0.247    13.274
ATOM      4  N   UNL d   1      11.014 -12.925   0.494 -0.13 +0.08    -0.247    13.274
ATOM      5  N   UNL d   1      13.239 -11.253  -0.227 +0.04 +0.14    -0.354    13.274
ATOM      6  N   UNL d   1      12.580 -11.515  -3.227 -0.15 +0.14    -0.354    13.274
ATOM      7  C   UNL d   1       8.667 -13.520  -4.105 -0.17 -0.01    +0.084    13.274
ATOM      8  C   UNL d   1       9.869 -14.447   2.024 -0.06 -0.02    +0.084    13.274
ATOM      9  C   UNL d   1      10.053 -13.904   0.603 -0.13 -0.01    +0.058    13.274
ATOM     10  C   UNL d   1      10.061 -13.008  -3.732 -0.20 -0.02    +0.058    13.274
ATOM     11  C   UNL d   1       8.280 -14.036  -2.752 -0.12 -0.01    +0.193    13.274
ATOM     12  C   UNL d   1       9.421 -13.800  -1.812 -0.16 -0.02    +0.109    13.274
ATOM     13  C   UNL d   1      10.878 -13.568   2.708 -0.09 -0.06    +0.193    13.274
ATOM     14  C   UNL d   1       7.720 -12.379  -4.489 -0.26 -0.00    +0.026    13.274
ATOM     15  C   UNL d   1       9.304 -14.314  -0.433 -0.13 -0.01    +0.055    13.274
ATOM     16  C   UNL d   1      10.328 -15.904   2.139 -0.02 -0.00    +0.026    13.274
ATOM     17  C   UNL d   1      11.496 -12.686   1.672 -0.15 -0.03    +0.109    13.274
ATOM     18  C   UNL d   1      10.901 -12.515  -4.662 -0.11 -0.02    +0.050    13.274
ATOM     19  C   UNL d   1      12.236 -12.097  -4.426 -0.22 -0.01    +0.045    13.274
ATOM     20  C   UNL d   1      13.231 -11.062   1.130 -0.17 -0.01    +0.045    13.274
ATOM     21  C   UNL d   1      12.497 -11.682   2.059 -0.13 -0.02    +0.057    13.274
ATOM     22  C   UNL d   1      14.752  -9.638   0.193 -0.24 +0.00    -0.019    13.274
ATOM     23  C   UNL d   1      14.126 -10.437  -0.879 -0.25 -0.01    +0.045    13.274
ATOM     24  C   UNL d   1      14.219 -10.013   1.380 -0.22 +0.00    -0.022    13.274
ATOM     25  C   UNL d   1      13.893 -11.107  -3.247 -0.24 -0.01    +0.049    13.274
ATOM     26  C   UNL d   1      13.364 -12.102  -5.232 -0.14 +0.00    -0.018    13.274
ATOM     27  C   UNL d   1      14.412 -11.493  -4.475 -0.17 -0.00    +0.003    13.274
ATOM     28  C   UNL d   1      14.435 -10.338  -2.181 +0.01 -0.01    +0.052    13.274
ATOM     29  C   UNL d   1      14.535  -9.507   2.746 -0.16 -0.01    +0.046    13.274
ATOM     30  C   UNL d   1      13.465 -12.640  -6.619 -0.06 -0.01    +0.046    13.274
ATOM     31  H   UNL d   1      12.690 -11.988  -0.658 -0.41 -0.08    +0.166    13.274
ATOM     32  H   UNL d   1      11.928 -11.377  -2.463 -0.47 -0.13    +0.166    13.274
ATOM     33  C   UNL d   1       8.636 -14.649  -5.141 -0.05 -0.02    +0.141    13.274
ATOM     34  C   UNL d   1       9.457 -15.839  -4.725 -0.00 -0.03    +0.306    13.274
ATOM     35  O   UNL d   1      10.618 -16.055  -5.028 -0.00 +0.03    -0.251    13.274
ATOM     36  O   UNL d   1       8.772 -16.694  -3.945 +0.01 +0.04    -0.481    13.274
ATOM     37  H   UNL d   1       8.038 -16.158  -3.577 +0.03 -0.02    +0.295    13.274
ATOM     38  C   UNL d   1      15.750 -11.281  -4.940 -0.14 -0.00    +0.017    13.274
ATOM     39  C   UNL d   1      16.811 -11.031  -4.159 -0.10 -0.01    +0.092    13.274
ATOM     40  C   UNL d   1      18.135 -10.850  -4.761 -0.04 -0.03    +0.330    13.274
ATOM     41  O   UNL d   1      18.423 -10.869  -5.942 -0.03 +0.02    -0.246    13.274
ATOM     42  O   UNL d   1      19.052 -10.637  -3.804 +0.00 +0.04    -0.477    13.274
ATOM     43  H   UNL d   1      18.965 -11.417  -3.218 +0.02 -0.03    +0.295    13.274
ATOM     44  C   UNL d   1       8.475 -14.256   2.629 -0.07 -0.03    +0.141    13.274
ATOM     45  C   UNL d   1       7.700 -13.132   1.994 -0.11 -0.10    +0.306    13.274
ATOM     46  O   UNL d   1       6.608 -13.214   1.459 -0.11 +0.02    -0.251    13.274
ATOM     47  O   UNL d   1       8.360 -11.961   2.041 -0.04 +0.38    -0.481    13.274
ATOM     48  H   UNL d   1       8.127 -11.580   2.915 -0.37 -0.60    +0.295    13.274
ATOM     49  C   UNL d   1      15.792  -8.582  -0.041 -0.20 -0.01    +0.048    13.274
ATOM     50  C   UNL d   1      16.956  -9.107  -0.882 -0.10 -0.01    +0.125    13.274
ATOM     51  C   UNL d   1      17.486 -10.395  -0.319 -0.01 -0.04    +0.305    13.274
ATOM     52  O   UNL d   1      17.344 -10.827   0.812 -0.01 +0.03    -0.251    13.274
ATOM     53  O   UNL d   1      18.197 -11.089  -1.230 +0.01 +0.05    -0.481    13.274
ATOM     54  H   UNL d   1      18.754 -10.409  -1.664 +0.02 -0.03    +0.295    13.274
TER
ENDMDL
MODEL       81
USER    Run = 81
USER    Cluster Rank = 63
USER    Number of conformations in this cluster = 1
USER  
USER    RMSD from reference structure       = 14.826 A
USER  
USER    Estimated Free Energy of Binding    =   -2.65 kcal/mol  [=(1)+(2)+(3)-(4)]
USER    Estimated Inhibition Constant, Ki   =   11.33 mM (millimolar)  [Temperature = 298.15 K]
USER    
USER    (1) Final Intermolecular Energy     =   -6.53 kcal/mol
USER        vdW + Hbond + desolv Energy     =   -6.61 kcal/mol
USER        Electrostatic Energy            =   +0.08 kcal/mol
USER    (2) Final Total Internal Energy     =   -3.67 kcal/mol
USER    (3) Torsional Free Energy           =   +3.88 kcal/mol
USER    (4) Unbound System's Energy  [=(2)] =   -3.67 kcal/mol
USER    
USER    
USER  
USER    DPF = D:/Protein_go_brrr/autodock/final/AncMH_nat/heme/dock.dpf
USER    NEWDPF move	heme_opt.pdbqt
USER    NEWDPF about	0.153000 0.018000 -0.028000
USER    NEWDPF tran0	-1.975301 -11.145877 -12.715689
USER    NEWDPF axisangle0	-0.400966 0.048509 -0.914808 -142.511812
USER    NEWDPF quaternion0	-0.379700 0.045936 -0.866289 -0.321342
USER    NEWDPF dihe0	-180.00 125.08 153.01 66.00 -154.17 -16.97 -64.39 -90.38 10.89 -162.46 34.45 -45.95 136.14 
USER  
USER                              x       y       z    vdW   Elec        q     RMS 
ATOM      1  O   UNL d   1       2.186  -9.053 -16.329 -0.04 +0.02    -0.289    14.826
ATOM      2  O   UNL d   1      -4.247  -6.009 -13.934 -0.10 -0.00    -0.289    14.826
ATOM      3  N   UNL d   1      -0.032 -10.735 -14.293 -0.11 +0.06    -0.247    14.826
ATOM      4  N   UNL d   1      -2.068  -8.669 -13.647 -0.15 +0.06    -0.247    14.826
ATOM      5  N   UNL d   1      -3.042 -10.409 -11.576 +0.00 +0.11    -0.354    14.826
ATOM      6  N   UNL d   1      -0.915 -12.539 -12.241 -0.01 +0.19    -0.354    14.826
ATOM      7  C   UNL d   1       2.212 -11.199 -15.161 -0.07 -0.01    +0.084    14.826
ATOM      8  C   UNL d   1      -2.368  -6.853 -15.255 -0.15 -0.00    +0.084    14.826
ATOM      9  C   UNL d   1      -1.596  -8.100 -14.809 -0.19 -0.01    +0.058    14.826
ATOM     10  C   UNL d   1       1.016 -11.639 -14.312 -0.14 -0.01    +0.058    14.826
ATOM     11  C   UNL d   1       1.647  -9.894 -15.634 -0.06 -0.02    +0.193    14.826
ATOM     12  C   UNL d   1       0.272  -9.740 -15.061 -0.12 -0.01    +0.109    14.826
ATOM     13  C   UNL d   1      -3.341  -6.799 -14.111 -0.17 -0.01    +0.193    14.826
ATOM     14  C   UNL d   1       3.452 -10.921 -14.307 -0.11 -0.00    +0.026    14.826
ATOM     15  C   UNL d   1      -0.522  -8.563 -15.467 -0.15 -0.01    +0.055    14.826
ATOM     16  C   UNL d   1      -3.145  -7.100 -16.551 -0.07 -0.00    +0.026    14.826
ATOM     17  C   UNL d   1      -3.048  -7.949 -13.204 -0.25 -0.02    +0.109    14.826
ATOM     18  C   UNL d   1       0.980 -12.848 -13.720 -0.14 -0.01    +0.050    14.826
ATOM     19  C   UNL d   1      -0.115 -13.373 -12.988 -0.12 -0.01    +0.045    14.826
ATOM     20  C   UNL d   1      -3.743  -9.270 -11.276 -0.29 -0.01    +0.045    14.826
ATOM     21  C   UNL d   1      -3.821  -8.128 -11.966 -0.34 -0.01    +0.057    14.826
ATOM     22  C   UNL d   1      -4.096 -10.811  -9.626 -0.33 +0.00    -0.019    14.826
ATOM     23  C   UNL d   1      -3.193 -11.395 -10.638 -0.23 -0.01    +0.045    14.826
ATOM     24  C   UNL d   1      -4.419  -9.553 -10.010 -0.35 -0.00    -0.022    14.826
ATOM     25  C   UNL d   1      -1.853 -13.265 -11.544 +0.01 -0.02    +0.049    14.826
ATOM     26  C   UNL d   1      -0.568 -14.670 -12.802 -0.07 +0.00    -0.018    14.826
ATOM     27  C   UNL d   1      -1.678 -14.594 -11.905 -0.08 -0.00    +0.003    14.826
ATOM     28  C   UNL d   1      -2.693 -12.639 -10.583 -0.18 -0.02    +0.052    14.826
ATOM     29  C   UNL d   1      -5.308  -8.569  -9.329 -0.41 +0.01    +0.046    14.826
ATOM     30  C   UNL d   1      -0.007 -15.906 -13.420 -0.02 -0.01    +0.046    14.826
ATOM     31  H   UNL d   1      -2.541 -10.502 -12.453 -0.29 -0.07    +0.166    14.826
ATOM     32  H   UNL d   1      -0.786 -11.535 -12.192 -0.44 -0.14    +0.166    14.826
ATOM     33  C   UNL d   1       2.542 -12.106 -16.351 -0.01 -0.01    +0.141    14.826
ATOM     34  C   UNL d   1       1.391 -12.243 -17.311 -0.00 -0.02    +0.306    14.826
ATOM     35  O   UNL d   1       0.612 -13.179 -17.373 -0.00 +0.02    -0.251    14.826
ATOM     36  O   UNL d   1       1.280 -11.191 -18.141 +0.00 +0.03    -0.481    14.826
ATOM     37  H   UNL d   1       1.989 -10.575 -17.855 +0.01 -0.02    +0.295    14.826
ATOM     38  C   UNL d   1      -2.435 -15.713 -11.432 -0.04 -0.00    +0.017    14.826
ATOM     39  C   UNL d   1      -3.359 -15.667 -10.460 -0.03 -0.02    +0.092    14.826
ATOM     40  C   UNL d   1      -4.079 -16.886 -10.080 +0.01 -0.04    +0.330    14.826
ATOM     41  O   UNL d   1      -4.199 -17.910 -10.724 +0.00 +0.02    -0.246    14.826
ATOM     42  O   UNL d   1      -4.619 -16.741  -8.860 +0.02 +0.05    -0.477    14.826
ATOM     43  H   UNL d   1      -3.859 -16.495  -8.294 +0.05 -0.05    +0.295    14.826
ATOM     44  C   UNL d   1      -1.546  -5.562 -15.338 -0.14 -0.01    +0.141    14.826
ATOM     45  C   UNL d   1      -2.018  -4.627 -16.419 -0.07 -0.01    +0.306    14.826
ATOM     46  O   UNL d   1      -1.446  -4.379 -17.466 -0.04 +0.01    -0.251    14.826
ATOM     47  O   UNL d   1      -3.181  -4.027 -16.109 -0.05 -0.01    -0.481    14.826
ATOM     48  H   UNL d   1      -3.634  -4.658 -15.510 +0.06 +0.02    +0.295    14.826
ATOM     49  C   UNL d   1      -4.543 -11.523  -8.384 -0.31 -0.00    +0.048    14.826
ATOM     50  C   UNL d   1      -3.359 -12.070  -7.585 -0.42 -0.00    +0.125    14.826
ATOM     51  C   UNL d   1      -3.709 -13.379  -6.937 -0.22 -0.07    +0.305    14.826
ATOM     52  O   UNL d   1      -4.089 -13.564  -5.794 -0.31 +0.07    -0.251    14.826
ATOM     53  O   UNL d   1      -3.547 -14.419  -7.779 -0.01 +0.13    -0.481    14.826
ATOM     54  H   UNL d   1      -4.455 -14.762  -7.911 +0.09 -0.07    +0.295    14.826
TER
ENDMDL
MODEL       82
USER    Run = 82
USER    Cluster Rank = 64
USER    Number of conformations in this cluster = 1
USER  
USER    RMSD from reference structure       = 20.897 A
USER  
USER    Estimated Free Energy of Binding    =   -1.96 kcal/mol  [=(1)+(2)+(3)-(4)]
USER    Estimated Inhibition Constant, Ki   =   36.77 mM (millimolar)  [Temperature = 298.15 K]
USER    
USER    (1) Final Intermolecular Energy     =   -5.83 kcal/mol
USER        vdW + Hbond + desolv Energy     =   -5.82 kcal/mol
USER        Electrostatic Energy            =   -0.01 kcal/mol
USER    (2) Final Total Internal Energy     =   -4.51 kcal/mol
USER    (3) Torsional Free Energy           =   +3.88 kcal/mol
USER    (4) Unbound System's Energy  [=(2)] =   -4.51 kcal/mol
USER    
USER    
USER  
USER    DPF = D:/Protein_go_brrr/autodock/final/AncMH_nat/heme/dock.dpf
USER    NEWDPF move	heme_opt.pdbqt
USER    NEWDPF about	0.153000 0.018000 -0.028000
USER    NEWDPF tran0	-6.858117 -9.739654 19.350630
USER    NEWDPF axisangle0	0.071075 0.982573 0.171752 -150.884383
USER    NEWDPF quaternion0	0.068793 0.951027 0.166238 -0.251357
USER    NEWDPF dihe0	114.29 -178.16 113.41 55.38 179.82 -104.64 -46.92 41.81 -21.25 -131.34 -85.05 24.25 6.29 
USER  
USER                              x       y       z    vdW   Elec        q     RMS 
ATOM      1  O   UNL d   1      -1.605  -9.181  21.967 -0.03 +0.05    -0.289    20.897
ATOM      2  O   UNL d   1      -5.582 -15.286  20.152 -0.00 +0.01    -0.289    20.897
ATOM      3  N   UNL d   1      -4.743  -9.012  20.545 -0.10 +0.03    -0.247    20.897
ATOM      4  N   UNL d   1      -5.365 -11.850  19.924 -0.04 +0.01    -0.247    20.897
ATOM      5  N   UNL d   1      -7.540 -10.919  18.290 -0.04 -0.04    -0.354    20.897
ATOM      6  N   UNL d   1      -6.876  -7.976  18.925 -0.15 +0.04    -0.354    20.897
ATOM      7  C   UNL d   1      -3.016  -7.371  21.125 -0.16 -0.03    +0.084    20.897
ATOM      8  C   UNL d   1      -4.268 -13.558  21.284 -0.01 -0.01    +0.084    20.897
ATOM      9  C   UNL d   1      -4.431 -12.082  20.909 -0.04 -0.00    +0.058    20.897
ATOM     10  C   UNL d   1      -4.397  -7.671  20.535 -0.23 -0.01    +0.058    20.897
ATOM     11  C   UNL d   1      -2.649  -8.779  21.487 -0.06 -0.04    +0.193    20.897
ATOM     12  C   UNL d   1      -3.787  -9.676  21.110 -0.09 -0.01    +0.109    20.897
ATOM     13  C   UNL d   1      -5.255 -14.125  20.303 -0.00 -0.01    +0.193    20.897
ATOM     14  C   UNL d   1      -2.037  -6.862  20.064 -0.26 -0.02    +0.026    20.897
ATOM     15  C   UNL d   1      -3.690 -11.107  21.459 -0.06 -0.01    +0.055    20.897
ATOM     16  C   UNL d   1      -4.767 -13.842  22.704 -0.00 -0.00    +0.026    20.897
ATOM     17  C   UNL d   1      -5.844 -12.987  19.534 -0.03 -0.00    +0.109    20.897
ATOM     18  C   UNL d   1      -5.220  -6.683  20.134 -0.15 -0.01    +0.050    20.897
ATOM     19  C   UNL d   1      -6.543  -6.858  19.655 -0.13 -0.01    +0.045    20.897
ATOM     20  C   UNL d   1      -7.532 -12.244  17.939 -0.10 +0.01    +0.045    20.897
ATOM     21  C   UNL d   1      -6.819 -13.245  18.464 -0.07 +0.00    +0.057    20.897
ATOM     22  C   UNL d   1      -9.010 -11.133  16.597 -0.27 -0.01    -0.019    20.897
ATOM     23  C   UNL d   1      -8.401 -10.169  17.535 -0.22 +0.01    +0.045    20.897
ATOM     24  C   UNL d   1      -8.492 -12.360  16.842 -0.20 -0.01    -0.022    20.897
ATOM     25  C   UNL d   1      -8.178  -7.898  18.487 -0.28 -0.00    +0.049    20.897
ATOM     26  C   UNL d   1      -7.667  -6.050  19.725 -0.23 +0.00    -0.018    20.897
ATOM     27  C   UNL d   1      -8.702  -6.721  19.003 -0.31 -0.00    +0.003    20.897
ATOM     28  C   UNL d   1      -8.702  -8.862  17.583 -0.33 +0.00    +0.052    20.897
ATOM     29  C   UNL d   1      -8.800 -13.654  16.169 -0.31 +0.03    +0.046    20.897
ATOM     30  C   UNL d   1      -7.778  -4.736  20.422 -0.25 -0.00    +0.046    20.897
ATOM     31  H   UNL d   1      -7.009 -10.582  19.087 +0.04 +0.00    +0.166    20.897
ATOM     32  H   UNL d   1      -6.224  -8.723  18.715 +0.05 -0.02    +0.166    20.897
ATOM     33  C   UNL d   1      -3.012  -6.477  22.369 -0.06 -0.04    +0.141    20.897
ATOM     34  C   UNL d   1      -4.296  -6.564  23.149 -0.01 -0.05    +0.306    20.897
ATOM     35  O   UNL d   1      -5.005  -5.628  23.476 -0.01 +0.04    -0.251    20.897
ATOM     36  O   UNL d   1      -4.622  -7.829  23.472 +0.01 +0.06    -0.481    20.897
ATOM     37  H   UNL d   1      -4.843  -8.253  22.617 +0.04 -0.04    +0.295    20.897
ATOM     38  C   UNL d   1     -10.031  -6.224  18.812 -0.26 +0.00    +0.017    20.897
ATOM     39  C   UNL d   1     -11.152  -6.829  19.235 -0.15 +0.02    +0.092    20.897
ATOM     40  C   UNL d   1     -12.455  -6.205  18.990 -0.09 +0.10    +0.330    20.897
ATOM     41  O   UNL d   1     -13.178  -5.653  19.798 -0.06 -0.07    -0.246    20.897
ATOM     42  O   UNL d   1     -12.780  -6.307  17.692 -0.12 -0.26    -0.477    20.897
ATOM     43  H   UNL d   1     -12.034  -6.808  17.303 +0.14 +0.13    +0.295    20.897
ATOM     44  C   UNL d   1      -2.871 -14.147  21.059 -0.01 -0.01    +0.141    20.897
ATOM     45  C   UNL d   1      -2.763 -15.592  21.466 -0.00 -0.02    +0.306    20.897
ATOM     46  O   UNL d   1      -2.433 -16.016  22.560 +0.00 +0.02    -0.251    20.897
ATOM     47  O   UNL d   1      -3.052 -16.434  20.457 +0.00 +0.03    -0.481    20.897
ATOM     48  H   UNL d   1      -4.009 -16.301  20.290 +0.01 -0.02    +0.295    20.897
ATOM     49  C   UNL d   1     -10.019 -10.767  15.549 -0.34 +0.04    +0.048    20.897
ATOM     50  C   UNL d   1     -11.411 -10.562  16.147 -0.27 +0.05    +0.125    20.897
ATOM     51  C   UNL d   1     -11.665  -9.107  16.426 -0.22 +0.12    +0.305    20.897
ATOM     52  O   UNL d   1     -11.289  -8.149  15.775 -0.39 -0.09    -0.251    20.897
ATOM     53  O   UNL d   1     -12.390  -8.929  17.549 -0.07 -0.20    -0.481    20.897
ATOM     54  H   UNL d   1     -13.155  -8.391  17.255 +0.11 +0.21    +0.295    20.897
TER
ENDMDL


AVSFLD: # AVS field file
AVSFLD: #
AVSFLD: # Created by AutoDock
AVSFLD: #
AVSFLD: ndim=2           # number of dimensions in the field
AVSFLD: nspace=1         # number of physical coordinates
AVSFLD: veclen=7         # vector size
AVSFLD: dim1=54          # atoms
AVSFLD: dim2=64          # conformations
AVSFLD: data=Real       # data type (byte,integer,Real,double)
AVSFLD: field=uniform    # field coordinate layout
AVSFLD: label= x y z vdW Elec q RMS
AVSFLD: variable 1 file = D:/Protein_go_brrr/autodock/final/AncMH_nat/heme/dock.dlg.pdb filetype = ascii offset = 5 stride = 12
AVSFLD: variable 2 file = D:/Protein_go_brrr/autodock/final/AncMH_nat/heme/dock.dlg.pdb filetype = ascii offset = 6 stride = 12
AVSFLD: variable 3 file = D:/Protein_go_brrr/autodock/final/AncMH_nat/heme/dock.dlg.pdb filetype = ascii offset = 7 stride = 12
AVSFLD: variable 4 file = D:/Protein_go_brrr/autodock/final/AncMH_nat/heme/dock.dlg.pdb filetype = ascii offset = 8 stride = 12
AVSFLD: variable 5 file = D:/Protein_go_brrr/autodock/final/AncMH_nat/heme/dock.dlg.pdb filetype = ascii offset = 9 stride = 12
AVSFLD: variable 6 file = D:/Protein_go_brrr/autodock/final/AncMH_nat/heme/dock.dlg.pdb filetype = ascii offset = 10 stride = 12
AVSFLD: variable 7 file = D:/Protein_go_brrr/autodock/final/AncMH_nat/heme/dock.dlg.pdb filetype = ascii offset = 11 stride = 12
AVSFLD: # end of file

>>> Closing the docking parameter file (DPF)...
This docking finished at:			7:51 45" a.m., 10/02/2025


________________________________________________________________________________

D:/autodockScripts/autodock4.exe: Successful Completion on "ACER"

Real= 13h 39m 28.13s,  CPU= 5m 59.69s,  System= 1m 06.38s
________________________________________________________________________________

