          AutoDock 4.2 Release 4.2.6   
         (C) 1989-2012 The Scripps Research Institute
        AutoDock comes with ABSOLUTELY NO WARRANTY.
        AutoDock is free software, and you are welcome
        to redistribute it under certain conditions;
        for details type 'autodock4 -C'

                     main.cc  $Revision: 1.213 $

                   Compiled on Jul 18 2014 at 15:34:58


This file was created at:			6:00 56" p.m., 09/26/2025
                   on host:		"ACER"
Current Working Directory = "D:\Protein_go_brrr\autodock\final\2DN3\2_3_BPG"

      ________________________________________________________________

                   SETTING UP DEFAULT PARAMETER LIBRARY
      ________________________________________________________________


Random number generator was seeded with values 62576, 1758902456.
Docking parameter file (DPF) used for this docking:		D:/Protein_go_brrr/autodock/final/2DN3/2_3_BPG/dock.dpf
DPF> autodock_parameter_version 4.2       # used by autodock to validate parameter set

	Autodock parameter version 4.2.
DPF> outlev 1                             # diagnostic output level

Output Level = 1  ADT-COMPATIBLE OUTPUT DURING DOCKING.
DPF> intelec                              # calculate internal electrostatics

Electrostatic energies will be calculated for all non-bonds between moving atoms.
DPF> seed pid time                        # seeds for random generator

Random number generator was seeded with values 62576, 1758902456.
DPF> ligand_types P C OA                  # atoms types in ligand

DPF> fld opt_2DN3.maps.fld                # grid_data_file

Opening Grid Map Dimensions file:		opt_2DN3.maps.fld
Grid Point Spacing =				0.675 Angstroms

Even Number of User-specified Grid Points =	126 x-points
						126 y-points
						126 z-points

Coordinates of Central Grid Point of Maps =	(23.741, 34.005, 11.372)
Macromolecule file used to create Grid Maps =	opt_2DN3.pdbqt
Grid Parameter file used to create Grid Maps =	D:/Protein_go_brrr/autodock/final/2DN3/2_3_BPG/grid.gpf
Minimum coordinates in grid = (-18.784, -8.520, -31.153)
Maximum coordinates in grid = (66.266, 76.530, 53.897)

DPF> map opt_2DN3.P.map                   # atom-specific affinity map

DPF> map opt_2DN3.C.map                   # atom-specific affinity map

DPF> map opt_2DN3.OA.map                  # atom-specific affinity map

DPF> elecmap opt_2DN3.e.map               # electrostatics map

DPF> desolvmap opt_2DN3.d.map             # desolvation map

DPF> move 2_3_BPG_opt.pdbqt               # small molecule

1,4-interactions will be _ignored_ in the non-bonded internal energy calculation.

Ligand PDBQT file = "2_3_BPG_opt.pdbqt"

INPUT LIGAND PDBQT FILE:
________________________

INPUT-LIGAND-PDBQT: REMARK  6 active torsions:
INPUT-LIGAND-PDBQT: REMARK  status: ('A' for Active; 'I' for Inactive)
INPUT-LIGAND-PDBQT: REMARK    1  A    between atoms: P_1  and  O_3 
INPUT-LIGAND-PDBQT: REMARK    2  A    between atoms: P_2  and  O_4 
INPUT-LIGAND-PDBQT: REMARK    3  A    between atoms: O_3  and  C_13 
INPUT-LIGAND-PDBQT: REMARK    4  A    between atoms: O_4  and  C_14 
INPUT-LIGAND-PDBQT: REMARK    5  A    between atoms: C_13  and  C_14 
INPUT-LIGAND-PDBQT: REMARK    6  A    between atoms: C_13  and  C_15 
INPUT-LIGAND-PDBQT: ROOT
INPUT-LIGAND-PDBQT: ATOM      1  C   UNL d   1      -0.571  -0.229   0.124  0.00  0.00     0.193 C 
INPUT-LIGAND-PDBQT: ENDROOT
INPUT-LIGAND-PDBQT: BRANCH   1   2
INPUT-LIGAND-PDBQT: ATOM      2  O   UNL d   1      -1.621   0.569  -0.519  0.00  0.00    -0.356 OA
INPUT-LIGAND-PDBQT: BRANCH   2   3
INPUT-LIGAND-PDBQT: ATOM      3  P   UNL d   1      -3.039   0.957   0.218  0.00  0.00    -0.014 P 
INPUT-LIGAND-PDBQT: ATOM      4  O   UNL d   1      -3.756   1.871  -0.788  0.00  0.00    -0.577 OA
INPUT-LIGAND-PDBQT: ATOM      5  O   UNL d   1      -2.691   1.702   1.505  0.00  0.00    -0.577 OA
INPUT-LIGAND-PDBQT: ATOM      6  O   UNL d   1      -3.816  -0.334   0.454  0.00  0.00    -0.638 OA
INPUT-LIGAND-PDBQT: ENDBRANCH   2   3
INPUT-LIGAND-PDBQT: ENDBRANCH   1   2
INPUT-LIGAND-PDBQT: BRANCH   1   7
INPUT-LIGAND-PDBQT: ATOM      7  C   UNL d   1       0.831   0.324  -0.327  0.00  0.00     0.201 C 
INPUT-LIGAND-PDBQT: BRANCH   7   8
INPUT-LIGAND-PDBQT: ATOM      8  O   UNL d   1       1.946  -0.012   0.528  0.00  0.00    -0.364 OA
INPUT-LIGAND-PDBQT: BRANCH   8   9
INPUT-LIGAND-PDBQT: ATOM      9  P   UNL d   1       3.455   0.578   0.194  0.00  0.00    -0.015 P 
INPUT-LIGAND-PDBQT: ATOM     10  O   UNL d   1       4.367  -0.029   1.267  0.00  0.00    -0.577 OA
INPUT-LIGAND-PDBQT: ATOM     11  O   UNL d   1       3.374   2.100   0.308  0.00  0.00    -0.577 OA
INPUT-LIGAND-PDBQT: ATOM     12  O   UNL d   1       3.825   0.102  -1.210  0.00  0.00    -0.638 OA
INPUT-LIGAND-PDBQT: ENDBRANCH   8   9
INPUT-LIGAND-PDBQT: ENDBRANCH   7   8
INPUT-LIGAND-PDBQT: ENDBRANCH   1   7
INPUT-LIGAND-PDBQT: BRANCH   1  13
INPUT-LIGAND-PDBQT: ATOM     13  C   UNL d   1      -0.687  -1.734  -0.323  0.00  0.00     0.073 C 
INPUT-LIGAND-PDBQT: ATOM     14  O   UNL d   1      -0.704  -2.000  -1.576  0.00  0.00    -0.547 OA
INPUT-LIGAND-PDBQT: ATOM     15  O   UNL d   1      -0.694  -2.619   0.607  0.00  0.00    -0.547 OA
INPUT-LIGAND-PDBQT: ENDBRANCH   1  13
INPUT-LIGAND-PDBQT: TORSDOF 6
________________________________________________________________________________

Total charge on ligand                               =	-4.960 e
REMARK  6 active torsions:
REMARK  status: ('A' for Active; 'I' for Inactive)
REMARK    1  A    between atoms: P_1  and  O_3 
REMARK    2  A    between atoms: P_2  and  O_4 
REMARK    3  A    between atoms: O_3  and  C_13 
REMARK    4  A    between atoms: O_4  and  C_14 
REMARK    5  A    between atoms: C_13  and  C_14 
REMARK    6  A    between atoms: C_13  and  C_15 


Number of Rotatable Bonds in Small Molecule =	6 torsions
Number of atoms in ligand:  15

Number of non-hydrogen atoms in ligand:  15

Number of vibrational degrees of freedom of ligand:  39


Number of torsional degrees of freedom = 6
Estimated loss of torsional free energy upon binding = +1.7898 kcal/mol


DPF> about 0.015 0.083 0.031            # small molecule center

Small molecule center of rotation =	(+0.015, +0.083, +0.031)

DPF> tran0 random                         # initial coordinates/A or random

Initial translation =			(3.866, 7.642, 13.555) Angstroms
DPF> quaternion0 random                   # initial orientation

Each run will begin with a new, random initial orientation.
Initial quaternion,  (x,y,z,w) =	( 0.435, -0.504, 0.513, -0.542 ),
DPF> dihe0 random                         # initial dihedrals (relative) or random

DPF> torsdof 6                            # torsional degrees of freedom

Number of torsional degrees of freedom = 6
Free energy coefficient for torsional degrees of freedom = 0.2983, the factory default value.

Estimated loss of torsional free energy upon binding = +1.7898 kcal/mol

DPF> rmstol 2.0                           # cluster_tolerance/A

Maximum RMS tolerance for conformational cluster analysis = 2.00 Angstroms
DPF> extnrg 1000.0                        # external grid energy

External grid energy (beyond grid map walls) = 1000.00

DPF> e0max 0.0 10000                      # max initial energy; max number of retries

Using user-specified maximum number of retries for simanneal initialization, 10000 retries.
If the simanneal initial energy is greater than e0max, 0.000,
then a new, random initial state will be created.

DPF> ga_pop_size 150                      # number of individuals in population

A population of 150 individuals will be used
DPF> ga_num_evals 25000000                # maximum number of energy evaluations

There will be at most 25000000 function evaluations used.
DPF> ga_num_generations 27000             # maximum number of generations

The GA will run for at most 27000 generations.
DPF> ga_elitism 1                         # number of top individuals to survive to next generation

The 1 best will be preserved each GA generation.
DPF> ga_mutation_rate 0.02                # rate of gene mutation

The mutation rate is 0.020000.
DPF> ga_crossover_rate 0.8                # rate of crossover

The crossover rate is 0.800000.
DPF> ga_window_size 10                    # 

The GA's selection window is 10 generations.
DPF> ga_cauchy_alpha 0.0                  # Alpha parameter of Cauchy distribution

The alpha parameter (for the Cauchy distribution) is being set to 0.000000.
DPF> ga_cauchy_beta 1.0                   # Beta parameter Cauchy distribution

The beta parameter (for the Cauchy distribution) is being set to 1.000000.
DPF> set_ga                               # set the above parameters for GA or LGA

DPF> sw_max_its 300                       # iterations of Solis & Wets local search

Solis & Wets algorithms will perform at most 300 iterations.
DPF> sw_max_succ 4                        # consecutive successes before changing rho

Solis & Wets algorithms expand rho every 4 in a row successes.
DPF> sw_max_fail 4                        # consecutive failures before changing rho

Solis & Wets algorithms contract rho every 4 in a row failures.
DPF> sw_rho 1.0                           # size of local search space to sample

rho is set to 1.000000.
DPF> sw_lb_rho 0.01                       # lower bound on rho

rho will never get smaller than 0.010000.
DPF> ls_search_freq 0.06                  # probability of performing local search on individual

Local search will be performed with frequency 0.060000.
DPF> set_psw1                             # set the above pseudo-Solis & Wets parameters

Creating a new Local Search object using the pseudo-Solis-Wets algorithm (pSW1) with the current settings.

DPF> unbound_model bound                  # state of unbound ligand

DPF> ga_run 100                           # do this many hybrid GA-LS runs

centering ligand on specified point: 0.015 0.083 0.031
Furthest true ligand atom from "about" center is 4.525 Angstroms (maxrad).
Number of requested GA dockings = 100 runs
Unbound model to be used is 'same as bound' [AutoDock 4.2 default].

	BEGINNING GENETIC ALGORITHM DOCKING 1 of 100
Run: 1 Seed: 762123849 1896202135 [ Run 1 of 100 GA/GALS ]
Beginning LAMARCKIAN GENETIC ALGORITHM (LGA), with a maximum of 25000000 energy evaluations.

Final-Value: -6.051


	FINAL GENETIC ALGORITHM DOCKED STATE
	_______________________________________________


Detailed state:  trans 3.213 42.524 -1.773 quatxyzw 0.768013 0.211926 -0.490313 0.353323 center 0.015 0.083 0.031 ntor 6 161.4459 5.4075 -90.3264 77.0862 56.5381 36.3552
State:	  3.213  42.524  -1.773   0.821  0.227 -0.524 138.619    161.45    5.41  -90.33   77.09   56.54   36.36

DOCKED: MODEL        1
DOCKED: USER    Run = 1
DOCKED: USER    DPF = D:/Protein_go_brrr/autodock/final/2DN3/2_3_BPG/dock.dpf
DOCKED: USER  
DOCKED: USER    Estimated Free Energy of Binding    =   -6.34 kcal/mol  [=(1)+(2)+(3)-(4)]
DOCKED: USER    Estimated Inhibition Constant, Ki   =   22.67 uM (micromolar)  [Temperature = 298.15 K]
DOCKED: USER    
DOCKED: USER    (1) Final Intermolecular Energy     =   -8.13 kcal/mol
DOCKED: USER        vdW + Hbond + desolv Energy     =   -3.59 kcal/mol
DOCKED: USER        Electrostatic Energy            =   -4.54 kcal/mol
DOCKED: USER    (2) Final Total Internal Energy     =   +2.07 kcal/mol
DOCKED: USER    (3) Torsional Free Energy           =   +1.79 kcal/mol
DOCKED: USER    (4) Unbound System's Energy  [=(2)] =   +2.07 kcal/mol
DOCKED: USER    
DOCKED: USER    
DOCKED: USER    NEWDPF move 2_3_BPG_opt.pdbqt
DOCKED: USER    NEWDPF about 0.015000 0.083000 0.031000
DOCKED: USER    NEWDPF tran0 3.213391 42.524275 -1.772827
DOCKED: USER    NEWDPF quaternion0 0.768013 0.211926 -0.490313 0.353323
DOCKED: USER    NEWDPF axisangle0 0.820964 0.226538 -0.524118 138.618572
DOCKED: USER    NEWDPF quat0 0.820964 0.226538 -0.524118 138.618572
DOCKED: USER    NEWDPF dihe0 161.45 5.41 -90.33 77.09 56.54 36.36 
DOCKED: USER  keepresnum = 1 
DOCKED: USER  
DOCKED: REMARK  6 active torsions:
DOCKED: REMARK  status: ('A' for Active; 'I' for Inactive)
DOCKED: REMARK    1  A    between atoms: P_1  and  O_3 
DOCKED: REMARK    2  A    between atoms: P_2  and  O_4 
DOCKED: REMARK    3  A    between atoms: O_3  and  C_13 
DOCKED: REMARK    4  A    between atoms: O_4  and  C_14 
DOCKED: REMARK    5  A    between atoms: C_13  and  C_14 
DOCKED: REMARK    6  A    between atoms: C_13  and  C_15 
DOCKED: USER                              x       y       z     vdW  Elec       q    Type
DOCKED: USER                           _______ _______ _______ _____ _____    ______ ____
DOCKED: ROOT
DOCKED: ATOM      1  C   UNL d   1       2.884  42.368  -1.210 -0.21 +0.15    +0.193 C 
DOCKED: ENDROOT
DOCKED: BRANCH   1   2
DOCKED: ATOM      2  O   UNL d   1       2.997  40.920  -1.002 -0.82 -0.50    -0.356 OA
DOCKED: BRANCH   2   3
DOCKED: ATOM      3  P   UNL d   1       2.546  39.808  -2.127 -0.09 -0.02    -0.014 P 
DOCKED: ATOM      4  O   UNL d   1       2.813  38.452  -1.455 -0.27 -0.86    -0.577 OA
DOCKED: ATOM      5  O   UNL d   1       3.437  40.014  -3.350 -0.00 -0.30    -0.577 OA
DOCKED: ATOM      6  O   UNL d   1       1.062  40.006  -2.416 +0.01 -0.87    -0.638 OA
DOCKED: ENDBRANCH   2   3
DOCKED: ENDBRANCH   1   2
DOCKED: BRANCH   1   7
DOCKED: ATOM      7  C   UNL d   1       3.882  42.794  -2.350 -0.15 +0.10    +0.201 C 
DOCKED: BRANCH   7   8
DOCKED: ATOM      8  O   UNL d   1       4.165  44.207  -2.444 -0.18 -0.19    -0.364 OA
DOCKED: BRANCH   8   9
DOCKED: ATOM      9  P   UNL d   1       3.821  45.031  -3.837 -0.39 -0.01    -0.015 P 
DOCKED: ATOM     10  O   UNL d   1       2.401  45.575  -3.639 -0.04 -0.43    -0.577 OA
DOCKED: ATOM     11  O   UNL d   1       3.890  44.020  -4.981 -0.04 -0.26    -0.577 OA
DOCKED: ATOM     12  O   UNL d   1       4.852  46.151  -3.965 -0.59 -0.78    -0.638 OA
DOCKED: ENDBRANCH   8   9
DOCKED: ENDBRANCH   7   8
DOCKED: ENDBRANCH   1   7
DOCKED: BRANCH   1  13
DOCKED: ATOM     13  C   UNL d   1       3.270  43.134   0.110 -0.45 +0.05    +0.073 C 
DOCKED: ATOM     14  O   UNL d   1       2.643  44.215   0.394 -0.08 -0.30    -0.547 OA
DOCKED: ATOM     15  O   UNL d   1       4.156  42.589   0.862 -0.29 -0.31    -0.547 OA
DOCKED: ENDBRANCH   1  13
DOCKED: TORSDOF 6
DOCKED: TER
DOCKED: ENDMDL
________________________________________________________________________________


	BEGINNING GENETIC ALGORITHM DOCKING 2 of 100
Run: 2 Seed: 571898383 408072562 [ Run 2 of 100 GA/GALS ]
Beginning LAMARCKIAN GENETIC ALGORITHM (LGA), with a maximum of 25000000 energy evaluations.

Final-Value: -6.545


	FINAL GENETIC ALGORITHM DOCKED STATE
	_______________________________________________


Detailed state:  trans 2.100 43.254 -1.316 quatxyzw -0.362166 0.184601 0.492601 -0.769482 center 0.015 0.083 0.031 ntor 6 157.2826 -107.9315 -125.6726 25.1848 6.6253 27.8113
State:	  2.100  43.254  -1.316  -0.567  0.289  0.771 -79.385    157.28 -107.93 -125.67   25.18    6.63   27.81

DOCKED: MODEL        2
DOCKED: USER    Run = 2
DOCKED: USER    DPF = D:/Protein_go_brrr/autodock/final/2DN3/2_3_BPG/dock.dpf
DOCKED: USER  
DOCKED: USER    Estimated Free Energy of Binding    =   -6.70 kcal/mol  [=(1)+(2)+(3)-(4)]
DOCKED: USER    Estimated Inhibition Constant, Ki   =   12.29 uM (micromolar)  [Temperature = 298.15 K]
DOCKED: USER    
DOCKED: USER    (1) Final Intermolecular Energy     =   -8.49 kcal/mol
DOCKED: USER        vdW + Hbond + desolv Energy     =   -3.29 kcal/mol
DOCKED: USER        Electrostatic Energy            =   -5.20 kcal/mol
DOCKED: USER    (2) Final Total Internal Energy     =   +1.94 kcal/mol
DOCKED: USER    (3) Torsional Free Energy           =   +1.79 kcal/mol
DOCKED: USER    (4) Unbound System's Energy  [=(2)] =   +1.94 kcal/mol
DOCKED: USER    
DOCKED: USER    
DOCKED: USER    NEWDPF move 2_3_BPG_opt.pdbqt
DOCKED: USER    NEWDPF about 0.015000 0.083000 0.031000
DOCKED: USER    NEWDPF tran0 2.100492 43.253677 -1.316218
DOCKED: USER    NEWDPF quaternion0 -0.362166 0.184601 0.492601 -0.769482
DOCKED: USER    NEWDPF axisangle0 -0.567064 0.289040 0.771294 -79.385294
DOCKED: USER    NEWDPF quat0 -0.567064 0.289040 0.771294 -79.385294
DOCKED: USER    NEWDPF dihe0 157.28 -107.93 -125.67 25.18 6.63 27.81 
DOCKED: USER  keepresnum = 1 
DOCKED: USER  
DOCKED: REMARK  6 active torsions:
DOCKED: REMARK  status: ('A' for Active; 'I' for Inactive)
DOCKED: REMARK    1  A    between atoms: P_1  and  O_3 
DOCKED: REMARK    2  A    between atoms: P_2  and  O_4 
DOCKED: REMARK    3  A    between atoms: O_3  and  C_13 
DOCKED: REMARK    4  A    between atoms: O_4  and  C_14 
DOCKED: REMARK    5  A    between atoms: C_13  and  C_14 
DOCKED: REMARK    6  A    between atoms: C_13  and  C_15 
DOCKED: USER                              x       y       z     vdW  Elec       q    Type
DOCKED: USER                           _______ _______ _______ _____ _____    ______ ____
DOCKED: ROOT
DOCKED: ATOM      1  C   UNL d   1       2.110  42.878  -0.761 -0.16 +0.15    +0.193 C 
DOCKED: ENDROOT
DOCKED: BRANCH   1   2
DOCKED: ATOM      2  O   UNL d   1       0.977  41.948  -0.818 -0.07 -0.48    -0.356 OA
DOCKED: BRANCH   2   3
DOCKED: ATOM      3  P   UNL d   1      -0.367  42.105   0.117 -0.00 -0.02    -0.014 P 
DOCKED: ATOM      4  O   UNL d   1      -1.053  43.376  -0.408 +0.01 -0.33    -0.577 OA
DOCKED: ATOM      5  O   UNL d   1       0.103  42.274   1.560 -0.08 -0.60    -0.577 OA
DOCKED: ATOM      6  O   UNL d   1      -1.237  40.870  -0.098 -0.40 -1.22    -0.638 OA
DOCKED: ENDBRANCH   2   3
DOCKED: ENDBRANCH   1   2
DOCKED: BRANCH   1   7
DOCKED: ATOM      7  C   UNL d   1       2.276  43.559  -2.169 -0.10 +0.11    +0.201 C 
DOCKED: BRANCH   7   8
DOCKED: ATOM      8  O   UNL d   1       3.450  44.384  -2.336 -0.15 -0.21    -0.364 OA
DOCKED: BRANCH   8   9
DOCKED: ATOM      9  P   UNL d   1       3.610  45.338  -3.679 -0.36 -0.01    -0.015 P 
DOCKED: ATOM     10  O   UNL d   1       2.361  46.227  -3.687 -0.03 -0.56    -0.577 OA
DOCKED: ATOM     11  O   UNL d   1       3.654  44.403  -4.887 -0.03 -0.29    -0.577 OA
DOCKED: ATOM     12  O   UNL d   1       4.892  46.151  -3.504 -0.39 -0.81    -0.638 OA
DOCKED: ENDBRANCH   8   9
DOCKED: ENDBRANCH   7   8
DOCKED: ENDBRANCH   1   7
DOCKED: BRANCH   1  13
DOCKED: ATOM     13  C   UNL d   1       3.433  42.095  -0.421 -0.40 +0.06    +0.073 C 
DOCKED: ATOM     14  O   UNL d   1       4.348  42.700   0.240 -0.23 -0.30    -0.547 OA
DOCKED: ATOM     15  O   UNL d   1       3.489  40.863  -0.777 -0.88 -0.70    -0.547 OA
DOCKED: ENDBRANCH   1  13
DOCKED: TORSDOF 6
DOCKED: TER
DOCKED: ENDMDL
________________________________________________________________________________


	BEGINNING GENETIC ALGORITHM DOCKING 3 of 100
Run: 3 Seed: 1128860669 830354513 [ Run 3 of 100 GA/GALS ]
Beginning LAMARCKIAN GENETIC ALGORITHM (LGA), with a maximum of 25000000 energy evaluations.

Final-Value: -6.877


	FINAL GENETIC ALGORITHM DOCKED STATE
	_______________________________________________


Detailed state:  trans 46.246 26.843 19.508 quatxyzw -0.803221 0.096960 0.582517 -0.078160 center 0.015 0.083 0.031 ntor 6 93.7227 147.0497 -85.7718 14.2998 2.2105 -108.0921
State:	 46.246  26.843  19.508  -0.806  0.097  0.584 -171.034     93.72  147.05  -85.77   14.30    2.21 -108.09

DOCKED: MODEL        3
DOCKED: USER    Run = 3
DOCKED: USER    DPF = D:/Protein_go_brrr/autodock/final/2DN3/2_3_BPG/dock.dpf
DOCKED: USER  
DOCKED: USER    Estimated Free Energy of Binding    =   -7.27 kcal/mol  [=(1)+(2)+(3)-(4)]
DOCKED: USER    Estimated Inhibition Constant, Ki   =    4.70 uM (micromolar)  [Temperature = 298.15 K]
DOCKED: USER    
DOCKED: USER    (1) Final Intermolecular Energy     =   -9.06 kcal/mol
DOCKED: USER        vdW + Hbond + desolv Energy     =   -3.07 kcal/mol
DOCKED: USER        Electrostatic Energy            =   -5.99 kcal/mol
DOCKED: USER    (2) Final Total Internal Energy     =   +2.18 kcal/mol
DOCKED: USER    (3) Torsional Free Energy           =   +1.79 kcal/mol
DOCKED: USER    (4) Unbound System's Energy  [=(2)] =   +2.18 kcal/mol
DOCKED: USER    
DOCKED: USER    
DOCKED: USER    NEWDPF move 2_3_BPG_opt.pdbqt
DOCKED: USER    NEWDPF about 0.015000 0.083000 0.031000
DOCKED: USER    NEWDPF tran0 46.246161 26.843430 19.507795
DOCKED: USER    NEWDPF quaternion0 -0.803221 0.096960 0.582517 -0.078160
DOCKED: USER    NEWDPF axisangle0 -0.805685 0.097258 0.584305 -171.034424
DOCKED: USER    NEWDPF quat0 -0.805685 0.097258 0.584305 -171.034424
DOCKED: USER    NEWDPF dihe0 93.72 147.05 -85.77 14.30 2.21 -108.09 
DOCKED: USER  keepresnum = 1 
DOCKED: USER  
DOCKED: REMARK  6 active torsions:
DOCKED: REMARK  status: ('A' for Active; 'I' for Inactive)
DOCKED: REMARK    1  A    between atoms: P_1  and  O_3 
DOCKED: REMARK    2  A    between atoms: P_2  and  O_4 
DOCKED: REMARK    3  A    between atoms: O_3  and  C_13 
DOCKED: REMARK    4  A    between atoms: O_4  and  C_14 
DOCKED: REMARK    5  A    between atoms: C_13  and  C_14 
DOCKED: REMARK    6  A    between atoms: C_13  and  C_15 
DOCKED: USER                              x       y       z     vdW  Elec       q    Type
DOCKED: USER                           _______ _______ _______ _____ _____    ______ ____
DOCKED: ROOT
DOCKED: ATOM      1  C   UNL d   1      46.060  27.206  20.040 -0.12 +0.15    +0.193 C 
DOCKED: ENDROOT
DOCKED: BRANCH   1   2
DOCKED: ATOM      2  O   UNL d   1      46.138  26.347  21.227 -0.06 -0.34    -0.356 OA
DOCKED: BRANCH   2   3
DOCKED: ATOM      3  P   UNL d   1      44.833  25.971  22.156 -0.32 -0.02    -0.014 P 
DOCKED: ATOM      4  O   UNL d   1      43.991  27.256  22.172 -0.70 -1.03    -0.577 OA
DOCKED: ATOM      5  O   UNL d   1      45.355  25.623  23.549 -0.05 -0.65    -0.577 OA
DOCKED: ATOM      6  O   UNL d   1      44.090  24.823  21.481 -0.35 -0.40    -0.638 OA
DOCKED: ENDBRANCH   2   3
DOCKED: ENDBRANCH   1   2
DOCKED: BRANCH   1   7
DOCKED: ATOM      7  C   UNL d   1      46.763  26.472  18.839 -0.09 +0.11    +0.201 C 
DOCKED: BRANCH   7   8
DOCKED: ATOM      8  O   UNL d   1      46.329  25.117  18.587 -0.05 -0.23    -0.364 OA
DOCKED: BRANCH   8   9
DOCKED: ATOM      9  P   UNL d   1      47.087  24.203  17.436 -0.21 -0.02    -0.015 P 
DOCKED: ATOM     10  O   UNL d   1      48.115  23.364  18.205 -0.03 -0.62    -0.577 OA
DOCKED: ATOM     11  O   UNL d   1      47.756  25.175  16.465 -0.05 -0.60    -0.577 OA
DOCKED: ATOM     12  O   UNL d   1      46.019  23.335  16.773 -0.42 -1.03    -0.638 OA
DOCKED: ENDBRANCH   8   9
DOCKED: ENDBRANCH   7   8
DOCKED: ENDBRANCH   1   7
DOCKED: BRANCH   1  13
DOCKED: ATOM     13  C   UNL d   1      46.808  28.565  20.308 -0.13 +0.07    +0.073 C 
DOCKED: ATOM     14  O   UNL d   1      47.396  29.143  19.327 -0.01 -0.31    -0.547 OA
DOCKED: ATOM     15  O   UNL d   1      46.729  29.050  21.494 -0.48 -1.09    -0.547 OA
DOCKED: ENDBRANCH   1  13
DOCKED: TORSDOF 6
DOCKED: TER
DOCKED: ENDMDL
________________________________________________________________________________


	BEGINNING GENETIC ALGORITHM DOCKING 4 of 100
Run: 4 Seed: 1195065749 814779841 [ Run 4 of 100 GA/GALS ]
Beginning LAMARCKIAN GENETIC ALGORITHM (LGA), with a maximum of 25000000 energy evaluations.

Final-Value: -6.232


	FINAL GENETIC ALGORITHM DOCKED STATE
	_______________________________________________


Detailed state:  trans 2.131 43.494 -1.532 quatxyzw -0.017716 0.473392 0.259030 -0.841718 center 0.015 0.083 0.031 ntor 6 -147.4366 -54.8779 -128.6765 -22.3817 -10.1731 -12.9972
State:	  2.131  43.494  -1.532  -0.033  0.877  0.480 -65.356   -147.44  -54.88 -128.68  -22.38  -10.17  -13.00

DOCKED: MODEL        4
DOCKED: USER    Run = 4
DOCKED: USER    DPF = D:/Protein_go_brrr/autodock/final/2DN3/2_3_BPG/dock.dpf
DOCKED: USER  
DOCKED: USER    Estimated Free Energy of Binding    =   -6.57 kcal/mol  [=(1)+(2)+(3)-(4)]
DOCKED: USER    Estimated Inhibition Constant, Ki   =   15.20 uM (micromolar)  [Temperature = 298.15 K]
DOCKED: USER    
DOCKED: USER    (1) Final Intermolecular Energy     =   -8.36 kcal/mol
DOCKED: USER        vdW + Hbond + desolv Energy     =   -3.11 kcal/mol
DOCKED: USER        Electrostatic Energy            =   -5.25 kcal/mol
DOCKED: USER    (2) Final Total Internal Energy     =   +2.13 kcal/mol
DOCKED: USER    (3) Torsional Free Energy           =   +1.79 kcal/mol
DOCKED: USER    (4) Unbound System's Energy  [=(2)] =   +2.13 kcal/mol
DOCKED: USER    
DOCKED: USER    
DOCKED: USER    NEWDPF move 2_3_BPG_opt.pdbqt
DOCKED: USER    NEWDPF about 0.015000 0.083000 0.031000
DOCKED: USER    NEWDPF tran0 2.130651 43.493587 -1.532426
DOCKED: USER    NEWDPF quaternion0 -0.017716 0.473392 0.259030 -0.841718
DOCKED: USER    NEWDPF axisangle0 -0.032812 0.876786 0.479759 -65.355936
DOCKED: USER    NEWDPF quat0 -0.032812 0.876786 0.479759 -65.355936
DOCKED: USER    NEWDPF dihe0 -147.44 -54.88 -128.68 -22.38 -10.17 -13.00 
DOCKED: USER  keepresnum = 1 
DOCKED: USER  
DOCKED: REMARK  6 active torsions:
DOCKED: REMARK  status: ('A' for Active; 'I' for Inactive)
DOCKED: REMARK    1  A    between atoms: P_1  and  O_3 
DOCKED: REMARK    2  A    between atoms: P_2  and  O_4 
DOCKED: REMARK    3  A    between atoms: O_3  and  C_13 
DOCKED: REMARK    4  A    between atoms: O_4  and  C_14 
DOCKED: REMARK    5  A    between atoms: C_13  and  C_14 
DOCKED: REMARK    6  A    between atoms: C_13  and  C_15 
DOCKED: USER                              x       y       z     vdW  Elec       q    Type
DOCKED: USER                           _______ _______ _______ _____ _____    ______ ____
DOCKED: ROOT
DOCKED: ATOM      1  C   UNL d   1       2.100  43.004  -1.076 -0.14 +0.14    +0.193 C 
DOCKED: ENDROOT
DOCKED: BRANCH   1   2
DOCKED: ATOM      2  O   UNL d   1       0.794  43.077  -0.412 -0.05 -0.29    -0.356 OA
DOCKED: BRANCH   2   3
DOCKED: ATOM      3  P   UNL d   1       0.520  42.507   1.106 -0.17 -0.01    -0.014 P 
DOCKED: ATOM      4  O   UNL d   1       0.031  43.733   1.893 +0.01 -0.32    -0.577 OA
DOCKED: ATOM      5  O   UNL d   1       1.852  41.990   1.643 -0.07 -0.63    -0.577 OA
DOCKED: ATOM      6  O   UNL d   1      -0.559  41.432   1.018 -0.28 -1.10    -0.638 OA
DOCKED: ENDBRANCH   2   3
DOCKED: ENDBRANCH   1   2
DOCKED: BRANCH   1   7
DOCKED: ATOM      7  C   UNL d   1       2.080  43.946  -2.336 -0.09 +0.11    +0.201 C 
DOCKED: BRANCH   7   8
DOCKED: ATOM      8  O   UNL d   1       3.331  44.591  -2.661 -0.14 -0.22    -0.364 OA
DOCKED: BRANCH   8   9
DOCKED: ATOM      9  P   UNL d   1       3.477  45.462  -4.059 -0.36 -0.01    -0.015 P 
DOCKED: ATOM     10  O   UNL d   1       2.319  46.467  -4.026 -0.03 -0.60    -0.577 OA
DOCKED: ATOM     11  O   UNL d   1       3.342  44.473  -5.217 -0.02 -0.28    -0.577 OA
DOCKED: ATOM     12  O   UNL d   1       4.839  46.154  -4.020 -0.62 -0.78    -0.638 OA
DOCKED: ENDBRANCH   8   9
DOCKED: ENDBRANCH   7   8
DOCKED: ENDBRANCH   1   7
DOCKED: BRANCH   1  13
DOCKED: ATOM     13  C   UNL d   1       2.381  41.530  -1.553 -0.19 +0.08    +0.073 C 
DOCKED: ATOM     14  O   UNL d   1       3.044  40.753  -0.780 -0.94 -0.89    -0.547 OA
DOCKED: ATOM     15  O   UNL d   1       1.869  41.173  -2.675 -0.01 -0.45    -0.547 OA
DOCKED: ENDBRANCH   1  13
DOCKED: TORSDOF 6
DOCKED: TER
DOCKED: ENDMDL
________________________________________________________________________________


	BEGINNING GENETIC ALGORITHM DOCKING 5 of 100
Run: 5 Seed: 1349342433 83699053 [ Run 5 of 100 GA/GALS ]
Beginning LAMARCKIAN GENETIC ALGORITHM (LGA), with a maximum of 25000000 energy evaluations.

Final-Value: -6.487


	FINAL GENETIC ALGORITHM DOCKED STATE
	_______________________________________________


Detailed state:  trans 44.178 24.948 19.225 quatxyzw 0.563659 0.654268 0.498802 0.073614 center 0.015 0.083 0.031 ntor 6 -16.5496 -38.7912 -7.1664 -3.3834 -41.5953 -105.6478
State:	 44.178  24.948  19.225   0.565  0.656  0.500 171.557    -16.55  -38.79   -7.17   -3.38  -41.60 -105.65

DOCKED: MODEL        5
DOCKED: USER    Run = 5
DOCKED: USER    DPF = D:/Protein_go_brrr/autodock/final/2DN3/2_3_BPG/dock.dpf
DOCKED: USER  
DOCKED: USER    Estimated Free Energy of Binding    =   -6.72 kcal/mol  [=(1)+(2)+(3)-(4)]
DOCKED: USER    Estimated Inhibition Constant, Ki   =   11.84 uM (micromolar)  [Temperature = 298.15 K]
DOCKED: USER    
DOCKED: USER    (1) Final Intermolecular Energy     =   -8.51 kcal/mol
DOCKED: USER        vdW + Hbond + desolv Energy     =   -3.07 kcal/mol
DOCKED: USER        Electrostatic Energy            =   -5.45 kcal/mol
DOCKED: USER    (2) Final Total Internal Energy     =   +2.02 kcal/mol
DOCKED: USER    (3) Torsional Free Energy           =   +1.79 kcal/mol
DOCKED: USER    (4) Unbound System's Energy  [=(2)] =   +2.02 kcal/mol
DOCKED: USER    
DOCKED: USER    
DOCKED: USER    NEWDPF move 2_3_BPG_opt.pdbqt
DOCKED: USER    NEWDPF about 0.015000 0.083000 0.031000
DOCKED: USER    NEWDPF tran0 44.178080 24.948433 19.225195
DOCKED: USER    NEWDPF quaternion0 0.563659 0.654268 0.498802 0.073614
DOCKED: USER    NEWDPF axisangle0 0.565193 0.656048 0.500159 171.556765
DOCKED: USER    NEWDPF quat0 0.565193 0.656048 0.500159 171.556765
DOCKED: USER    NEWDPF dihe0 -16.55 -38.79 -7.17 -3.38 -41.60 -105.65 
DOCKED: USER  keepresnum = 1 
DOCKED: USER  
DOCKED: REMARK  6 active torsions:
DOCKED: REMARK  status: ('A' for Active; 'I' for Inactive)
DOCKED: REMARK    1  A    between atoms: P_1  and  O_3 
DOCKED: REMARK    2  A    between atoms: P_2  and  O_4 
DOCKED: REMARK    3  A    between atoms: O_3  and  C_13 
DOCKED: REMARK    4  A    between atoms: O_4  and  C_14 
DOCKED: REMARK    5  A    between atoms: C_13  and  C_14 
DOCKED: REMARK    6  A    between atoms: C_13  and  C_15 
DOCKED: USER                              x       y       z     vdW  Elec       q    Type
DOCKED: USER                           _______ _______ _______ _____ _____    ______ ____
DOCKED: ROOT
DOCKED: ATOM      1  C   UNL d   1      44.176  24.669  18.616 -0.22 +0.10    +0.193 C 
DOCKED: ENDROOT
DOCKED: BRANCH   1   2
DOCKED: ATOM      2  O   UNL d   1      44.895  23.393  18.695 -0.18 -0.21    -0.356 OA
DOCKED: BRANCH   2   3
DOCKED: ATOM      3  P   UNL d   1      45.996  22.906  17.575 -0.22 -0.02    -0.014 P 
DOCKED: ATOM      4  O   UNL d   1      47.149  22.316  18.403 -0.04 -0.63    -0.577 OA
DOCKED: ATOM      5  O   UNL d   1      46.437  24.149  16.804 -0.35 -0.77    -0.577 OA
DOCKED: ATOM      6  O   UNL d   1      45.339  21.847  16.697 -0.15 -0.83    -0.638 OA
DOCKED: ENDBRANCH   2   3
DOCKED: ENDBRANCH   1   2
DOCKED: BRANCH   1   7
DOCKED: ATOM      7  C   UNL d   1      43.918  25.195  20.076 -0.25 +0.11    +0.201 C 
DOCKED: BRANCH   7   8
DOCKED: ATOM      8  O   UNL d   1      45.084  25.302  20.922 -0.13 -0.25    -0.364 OA
DOCKED: BRANCH   8   9
DOCKED: ATOM      9  P   UNL d   1      45.238  26.576  21.966 -0.09 -0.02    -0.015 P 
DOCKED: ATOM     10  O   UNL d   1      46.511  26.283  22.768 +0.01 -0.77    -0.577 OA
DOCKED: ATOM     11  O   UNL d   1      43.993  26.580  22.852 -0.78 -0.89    -0.577 OA
DOCKED: ATOM     12  O   UNL d   1      45.372  27.840  21.118 -0.06 -0.98    -0.638 OA
DOCKED: ENDBRANCH   8   9
DOCKED: ENDBRANCH   7   8
DOCKED: ENDBRANCH   1   7
DOCKED: BRANCH   1  13
DOCKED: ATOM     13  C   UNL d   1      42.788  24.463  17.902 -0.40 +0.03    +0.073 C 
DOCKED: ATOM     14  O   UNL d   1      42.138  23.383  18.129 -0.14 -0.13    -0.547 OA
DOCKED: ATOM     15  O   UNL d   1      42.357  25.431  17.175 -0.07 -0.17    -0.547 OA
DOCKED: ENDBRANCH   1  13
DOCKED: TORSDOF 6
DOCKED: TER
DOCKED: ENDMDL
________________________________________________________________________________


	BEGINNING GENETIC ALGORITHM DOCKING 6 of 100
Run: 6 Seed: 1891088396 1874442510 [ Run 6 of 100 GA/GALS ]
Beginning LAMARCKIAN GENETIC ALGORITHM (LGA), with a maximum of 25000000 energy evaluations.

Final-Value: -6.864


	FINAL GENETIC ALGORITHM DOCKED STATE
	_______________________________________________


Detailed state:  trans 46.138 26.291 20.084 quatxyzw -0.797209 0.000721 0.593736 0.109245 center 0.015 0.083 0.031 ntor 6 140.8107 45.8911 -129.2943 -2.3305 4.4533 -47.0052
State:	 46.138  26.291  20.084  -0.802  0.001  0.597 167.456    140.81   45.89 -129.29   -2.33    4.45  -47.01

DOCKED: MODEL        6
DOCKED: USER    Run = 6
DOCKED: USER    DPF = D:/Protein_go_brrr/autodock/final/2DN3/2_3_BPG/dock.dpf
DOCKED: USER  
DOCKED: USER    Estimated Free Energy of Binding    =   -7.10 kcal/mol  [=(1)+(2)+(3)-(4)]
DOCKED: USER    Estimated Inhibition Constant, Ki   =    6.28 uM (micromolar)  [Temperature = 298.15 K]
DOCKED: USER    
DOCKED: USER    (1) Final Intermolecular Energy     =   -8.89 kcal/mol
DOCKED: USER        vdW + Hbond + desolv Energy     =   -2.57 kcal/mol
DOCKED: USER        Electrostatic Energy            =   -6.32 kcal/mol
DOCKED: USER    (2) Final Total Internal Energy     =   +2.02 kcal/mol
DOCKED: USER    (3) Torsional Free Energy           =   +1.79 kcal/mol
DOCKED: USER    (4) Unbound System's Energy  [=(2)] =   +2.02 kcal/mol
DOCKED: USER    
DOCKED: USER    
DOCKED: USER    NEWDPF move 2_3_BPG_opt.pdbqt
DOCKED: USER    NEWDPF about 0.015000 0.083000 0.031000
DOCKED: USER    NEWDPF tran0 46.137915 26.291325 20.084182
DOCKED: USER    NEWDPF quaternion0 -0.797209 0.000721 0.593736 0.109245
DOCKED: USER    NEWDPF axisangle0 -0.802009 0.000725 0.597311 167.456464
DOCKED: USER    NEWDPF quat0 -0.802009 0.000725 0.597311 167.456464
DOCKED: USER    NEWDPF dihe0 140.81 45.89 -129.29 -2.33 4.45 -47.01 
DOCKED: USER  keepresnum = 1 
DOCKED: USER  
DOCKED: REMARK  6 active torsions:
DOCKED: REMARK  status: ('A' for Active; 'I' for Inactive)
DOCKED: REMARK    1  A    between atoms: P_1  and  O_3 
DOCKED: REMARK    2  A    between atoms: P_2  and  O_4 
DOCKED: REMARK    3  A    between atoms: O_3  and  C_13 
DOCKED: REMARK    4  A    between atoms: O_4  and  C_14 
DOCKED: REMARK    5  A    between atoms: C_13  and  C_14 
DOCKED: REMARK    6  A    between atoms: C_13  and  C_15 
DOCKED: USER                              x       y       z     vdW  Elec       q    Type
DOCKED: USER                           _______ _______ _______ _____ _____    ______ ____
DOCKED: ROOT
DOCKED: ATOM      1  C   UNL d   1      45.837  26.656  20.559 -0.12 +0.16    +0.193 C 
DOCKED: ENDROOT
DOCKED: BRANCH   1   2
DOCKED: ATOM      2  O   UNL d   1      46.239  26.126  21.867 -0.06 -0.37    -0.356 OA
DOCKED: BRANCH   2   3
DOCKED: ATOM      3  P   UNL d   1      45.180  25.858  23.096 -0.25 -0.02    -0.014 P 
DOCKED: ATOM      4  O   UNL d   1      45.913  26.360  24.350 +0.11 -0.97    -0.577 OA
DOCKED: ATOM      5  O   UNL d   1      44.929  24.352  23.157 -0.04 -0.35    -0.577 OA
DOCKED: ATOM      6  O   UNL d   1      43.920  26.673  22.820 -0.64 -1.03    -0.638 OA
DOCKED: ENDBRANCH   2   3
DOCKED: ENDBRANCH   1   2
DOCKED: BRANCH   1   7
DOCKED: ATOM      7  C   UNL d   1      46.749  26.011  19.451 -0.06 +0.12    +0.201 C 
DOCKED: BRANCH   7   8
DOCKED: ATOM      8  O   UNL d   1      46.086  25.112  18.535 -0.06 -0.23    -0.364 OA
DOCKED: BRANCH   8   9
DOCKED: ATOM      9  P   UNL d   1      46.972  24.234  17.448 -0.25 -0.02    -0.015 P 
DOCKED: ATOM     10  O   UNL d   1      48.035  23.515  18.289 -0.02 -0.59    -0.577 OA
DOCKED: ATOM     11  O   UNL d   1      47.595  25.230  16.471 -0.11 -0.57    -0.577 OA
DOCKED: ATOM     12  O   UNL d   1      46.015  23.253  16.773 -0.42 -1.05    -0.638 OA
DOCKED: ENDBRANCH   8   9
DOCKED: ENDBRANCH   7   8
DOCKED: ENDBRANCH   1   7
DOCKED: BRANCH   1  13
DOCKED: ATOM     13  C   UNL d   1      46.032  28.218  20.527 -0.16 +0.08    +0.073 C 
DOCKED: ATOM     14  O   UNL d   1      45.478  28.884  19.583 -0.04 -0.39    -0.547 OA
DOCKED: ATOM     15  O   UNL d   1      46.691  28.743  21.495 -0.45 -1.10    -0.547 OA
DOCKED: ENDBRANCH   1  13
DOCKED: TORSDOF 6
DOCKED: TER
DOCKED: ENDMDL
________________________________________________________________________________


	BEGINNING GENETIC ALGORITHM DOCKING 7 of 100
Run: 7 Seed: 686658952 1013405276 [ Run 7 of 100 GA/GALS ]
Beginning LAMARCKIAN GENETIC ALGORITHM (LGA), with a maximum of 25000000 energy evaluations.

Final-Value: -6.804


	FINAL GENETIC ALGORITHM DOCKED STATE
	_______________________________________________


Detailed state:  trans 46.130 26.120 20.195 quatxyzw -0.784581 -0.002749 0.598114 0.163356 center 0.015 0.083 0.031 ntor 6 149.9911 161.3589 -134.9046 0.2456 0.8642 -34.3286
State:	 46.130  26.120  20.195  -0.795 -0.003  0.606 161.196    149.99  161.36 -134.90    0.25    0.86  -34.33

DOCKED: MODEL        7
DOCKED: USER    Run = 7
DOCKED: USER    DPF = D:/Protein_go_brrr/autodock/final/2DN3/2_3_BPG/dock.dpf
DOCKED: USER  
DOCKED: USER    Estimated Free Energy of Binding    =   -6.99 kcal/mol  [=(1)+(2)+(3)-(4)]
DOCKED: USER    Estimated Inhibition Constant, Ki   =    7.49 uM (micromolar)  [Temperature = 298.15 K]
DOCKED: USER    
DOCKED: USER    (1) Final Intermolecular Energy     =   -8.78 kcal/mol
DOCKED: USER        vdW + Hbond + desolv Energy     =   -2.67 kcal/mol
DOCKED: USER        Electrostatic Energy            =   -6.11 kcal/mol
DOCKED: USER    (2) Final Total Internal Energy     =   +1.98 kcal/mol
DOCKED: USER    (3) Torsional Free Energy           =   +1.79 kcal/mol
DOCKED: USER    (4) Unbound System's Energy  [=(2)] =   +1.98 kcal/mol
DOCKED: USER    
DOCKED: USER    
DOCKED: USER    NEWDPF move 2_3_BPG_opt.pdbqt
DOCKED: USER    NEWDPF about 0.015000 0.083000 0.031000
DOCKED: USER    NEWDPF tran0 46.129633 26.120311 20.195436
DOCKED: USER    NEWDPF quaternion0 -0.784581 -0.002749 0.598114 0.163356
DOCKED: USER    NEWDPF axisangle0 -0.795264 -0.002787 0.606257 161.196460
DOCKED: USER    NEWDPF quat0 -0.795264 -0.002787 0.606257 161.196460
DOCKED: USER    NEWDPF dihe0 149.99 161.36 -134.90 0.25 0.86 -34.33 
DOCKED: USER  keepresnum = 1 
DOCKED: USER  
DOCKED: REMARK  6 active torsions:
DOCKED: REMARK  status: ('A' for Active; 'I' for Inactive)
DOCKED: REMARK    1  A    between atoms: P_1  and  O_3 
DOCKED: REMARK    2  A    between atoms: P_2  and  O_4 
DOCKED: REMARK    3  A    between atoms: O_3  and  C_13 
DOCKED: REMARK    4  A    between atoms: O_4  and  C_14 
DOCKED: REMARK    5  A    between atoms: C_13  and  C_14 
DOCKED: REMARK    6  A    between atoms: C_13  and  C_15 
DOCKED: USER                              x       y       z     vdW  Elec       q    Type
DOCKED: USER                           _______ _______ _______ _____ _____    ______ ____
DOCKED: ROOT
DOCKED: ATOM      1  C   UNL d   1      45.813  26.503  20.645 -0.12 +0.16    +0.193 C 
DOCKED: ENDROOT
DOCKED: BRANCH   1   2
DOCKED: ATOM      2  O   UNL d   1      46.277  26.116  21.982 -0.06 -0.38    -0.356 OA
DOCKED: BRANCH   2   3
DOCKED: ATOM      3  P   UNL d   1      45.260  25.822  23.241 -0.23 -0.02    -0.014 P 
DOCKED: ATOM      4  O   UNL d   1      43.973  26.580  22.878 -0.77 -0.89    -0.577 OA
DOCKED: ATOM      5  O   UNL d   1      45.915  26.396  24.496 +0.07 -0.97    -0.577 OA
DOCKED: ATOM      6  O   UNL d   1      45.021  24.318  23.313 -0.01 -0.38    -0.638 OA
DOCKED: ENDBRANCH   2   3
DOCKED: ENDBRANCH   1   2
DOCKED: BRANCH   1   7
DOCKED: ATOM      7  C   UNL d   1      46.746  25.829  19.573 -0.06 +0.12    +0.201 C 
DOCKED: BRANCH   7   8
DOCKED: ATOM      8  O   UNL d   1      46.079  25.029  18.572 -0.05 -0.23    -0.364 OA
DOCKED: BRANCH   8   9
DOCKED: ATOM      9  P   UNL d   1      46.964  24.194  17.451 -0.24 -0.02    -0.015 P 
DOCKED: ATOM     10  O   UNL d   1      48.058  23.482  18.258 -0.03 -0.60    -0.577 OA
DOCKED: ATOM     11  O   UNL d   1      47.547  25.225  16.485 -0.12 -0.57    -0.577 OA
DOCKED: ATOM     12  O   UNL d   1      46.017  23.206  16.772 -0.42 -1.07    -0.638 OA
DOCKED: ENDBRANCH   8   9
DOCKED: ENDBRANCH   7   8
DOCKED: ENDBRANCH   1   7
DOCKED: BRANCH   1  13
DOCKED: ATOM     13  C   UNL d   1      45.899  28.066  20.477 -0.17 +0.08    +0.073 C 
DOCKED: ATOM     14  O   UNL d   1      45.143  28.630  19.610 -0.04 -0.39    -0.547 OA
DOCKED: ATOM     15  O   UNL d   1      46.685  28.696  21.273 -0.44 -0.97    -0.547 OA
DOCKED: ENDBRANCH   1  13
DOCKED: TORSDOF 6
DOCKED: TER
DOCKED: ENDMDL
________________________________________________________________________________


	BEGINNING GENETIC ALGORITHM DOCKING 8 of 100
Run: 8 Seed: 178347936 2140722013 [ Run 8 of 100 GA/GALS ]
Beginning LAMARCKIAN GENETIC ALGORITHM (LGA), with a maximum of 25000000 energy evaluations.

Final-Value: -6.557


	FINAL GENETIC ALGORITHM DOCKED STATE
	_______________________________________________


Detailed state:  trans 45.599 26.147 20.028 quatxyzw -0.205324 0.486510 -0.430389 -0.732063 center 0.015 0.083 0.031 ntor 6 83.7450 -121.1471 -116.0824 46.5206 27.2184 -5.4943
State:	 45.599  26.147  20.028  -0.301  0.714 -0.632 -85.881     83.75 -121.15 -116.08   46.52   27.22   -5.49

DOCKED: MODEL        8
DOCKED: USER    Run = 8
DOCKED: USER    DPF = D:/Protein_go_brrr/autodock/final/2DN3/2_3_BPG/dock.dpf
DOCKED: USER  
DOCKED: USER    Estimated Free Energy of Binding    =   -6.89 kcal/mol  [=(1)+(2)+(3)-(4)]
DOCKED: USER    Estimated Inhibition Constant, Ki   =    8.96 uM (micromolar)  [Temperature = 298.15 K]
DOCKED: USER    
DOCKED: USER    (1) Final Intermolecular Energy     =   -8.68 kcal/mol
DOCKED: USER        vdW + Hbond + desolv Energy     =   -3.49 kcal/mol
DOCKED: USER        Electrostatic Energy            =   -5.19 kcal/mol
DOCKED: USER    (2) Final Total Internal Energy     =   +2.12 kcal/mol
DOCKED: USER    (3) Torsional Free Energy           =   +1.79 kcal/mol
DOCKED: USER    (4) Unbound System's Energy  [=(2)] =   +2.12 kcal/mol
DOCKED: USER    
DOCKED: USER    
DOCKED: USER    NEWDPF move 2_3_BPG_opt.pdbqt
DOCKED: USER    NEWDPF about 0.015000 0.083000 0.031000
DOCKED: USER    NEWDPF tran0 45.598600 26.146958 20.027502
DOCKED: USER    NEWDPF quaternion0 -0.205324 0.486510 -0.430389 -0.732063
DOCKED: USER    NEWDPF axisangle0 -0.301399 0.714156 -0.631775 -85.880805
DOCKED: USER    NEWDPF quat0 -0.301399 0.714156 -0.631775 -85.880805
DOCKED: USER    NEWDPF dihe0 83.75 -121.15 -116.08 46.52 27.22 -5.49 
DOCKED: USER  keepresnum = 1 
DOCKED: USER  
DOCKED: REMARK  6 active torsions:
DOCKED: REMARK  status: ('A' for Active; 'I' for Inactive)
DOCKED: REMARK    1  A    between atoms: P_1  and  O_3 
DOCKED: REMARK    2  A    between atoms: P_2  and  O_4 
DOCKED: REMARK    3  A    between atoms: O_3  and  C_13 
DOCKED: REMARK    4  A    between atoms: O_4  and  C_14 
DOCKED: REMARK    5  A    between atoms: C_13  and  C_14 
DOCKED: REMARK    6  A    between atoms: C_13  and  C_15 
DOCKED: USER                              x       y       z     vdW  Elec       q    Type
DOCKED: USER                           _______ _______ _______ _____ _____    ______ ____
DOCKED: ROOT
DOCKED: ATOM      1  C   UNL d   1      45.456  26.452  20.607 -0.14 +0.16    +0.193 C 
DOCKED: ENDROOT
DOCKED: BRANCH   1   2
DOCKED: ATOM      2  O   UNL d   1      45.063  27.835  20.311 -0.12 -0.34    -0.356 OA
DOCKED: BRANCH   2   3
DOCKED: ATOM      3  P   UNL d   1      46.143  29.064  20.146 -0.24 -0.01    -0.014 P 
DOCKED: ATOM      4  O   UNL d   1      47.121  28.572  19.067 +0.00 -0.32    -0.577 OA
DOCKED: ATOM      5  O   UNL d   1      46.838  29.240  21.494 -0.52 -1.10    -0.577 OA
DOCKED: ATOM      6  O   UNL d   1      45.381  30.303  19.688 -0.02 -0.41    -0.638 OA
DOCKED: ENDBRANCH   2   3
DOCKED: ENDBRANCH   1   2
DOCKED: BRANCH   1   7
DOCKED: ATOM      7  C   UNL d   1      45.511  25.643  19.259 -0.11 +0.12    +0.201 C 
DOCKED: BRANCH   7   8
DOCKED: ATOM      8  O   UNL d   1      46.398  24.503  19.244 -0.04 -0.23    -0.364 OA
DOCKED: BRANCH   8   9
DOCKED: ATOM      9  P   UNL d   1      47.126  24.036  17.834 -0.21 -0.02    -0.015 P 
DOCKED: ATOM     10  O   UNL d   1      48.078  25.184  17.478 -0.07 -0.47    -0.577 OA
DOCKED: ATOM     11  O   UNL d   1      46.019  23.869  16.794 -0.48 -0.75    -0.577 OA
DOCKED: ATOM     12  O   UNL d   1      47.877  22.737  18.123 -0.01 -0.81    -0.638 OA
DOCKED: ENDBRANCH   8   9
DOCKED: ENDBRANCH   7   8
DOCKED: ENDBRANCH   1   7
DOCKED: BRANCH   1  13
DOCKED: ATOM     13  C   UNL d   1      44.392  25.781  21.554 -0.30 +0.06    +0.073 C 
DOCKED: ATOM     14  O   UNL d   1      44.030  24.577  21.310 -0.57 -0.34    -0.547 OA
DOCKED: ATOM     15  O   UNL d   1      43.995  26.468  22.563 -0.64 -0.74    -0.547 OA
DOCKED: ENDBRANCH   1  13
DOCKED: TORSDOF 6
DOCKED: TER
DOCKED: ENDMDL
________________________________________________________________________________


	BEGINNING GENETIC ALGORITHM DOCKING 9 of 100
Run: 9 Seed: 1490634189 1997614439 [ Run 9 of 100 GA/GALS ]
Beginning LAMARCKIAN GENETIC ALGORITHM (LGA), with a maximum of 25000000 energy evaluations.

Final-Value: -6.856


	FINAL GENETIC ALGORITHM DOCKED STATE
	_______________________________________________


Detailed state:  trans 45.793 25.612 20.050 quatxyzw -0.114410 0.462483 -0.552640 -0.683819 center 0.015 0.083 0.031 ntor 6 91.9933 32.9173 96.6111 19.8159 0.7785 -15.4394
State:	 45.793  25.612  20.050  -0.157  0.634 -0.757 -93.714     91.99   32.92   96.61   19.82    0.78  -15.44

DOCKED: MODEL        9
DOCKED: USER    Run = 9
DOCKED: USER    DPF = D:/Protein_go_brrr/autodock/final/2DN3/2_3_BPG/dock.dpf
DOCKED: USER  
DOCKED: USER    Estimated Free Energy of Binding    =   -7.12 kcal/mol  [=(1)+(2)+(3)-(4)]
DOCKED: USER    Estimated Inhibition Constant, Ki   =    6.06 uM (micromolar)  [Temperature = 298.15 K]
DOCKED: USER    
DOCKED: USER    (1) Final Intermolecular Energy     =   -8.91 kcal/mol
DOCKED: USER        vdW + Hbond + desolv Energy     =   -3.17 kcal/mol
DOCKED: USER        Electrostatic Energy            =   -5.73 kcal/mol
DOCKED: USER    (2) Final Total Internal Energy     =   +2.05 kcal/mol
DOCKED: USER    (3) Torsional Free Energy           =   +1.79 kcal/mol
DOCKED: USER    (4) Unbound System's Energy  [=(2)] =   +2.05 kcal/mol
DOCKED: USER    
DOCKED: USER    
DOCKED: USER    NEWDPF move 2_3_BPG_opt.pdbqt
DOCKED: USER    NEWDPF about 0.015000 0.083000 0.031000
DOCKED: USER    NEWDPF tran0 45.792799 25.612366 20.050029
DOCKED: USER    NEWDPF quaternion0 -0.114410 0.462483 -0.552640 -0.683819
DOCKED: USER    NEWDPF axisangle0 -0.156800 0.633841 -0.757403 -93.714433
DOCKED: USER    NEWDPF quat0 -0.156800 0.633841 -0.757403 -93.714433
DOCKED: USER    NEWDPF dihe0 91.99 32.92 96.61 19.82 0.78 -15.44 
DOCKED: USER  keepresnum = 1 
DOCKED: USER  
DOCKED: REMARK  6 active torsions:
DOCKED: REMARK  status: ('A' for Active; 'I' for Inactive)
DOCKED: REMARK    1  A    between atoms: P_1  and  O_3 
DOCKED: REMARK    2  A    between atoms: P_2  and  O_4 
DOCKED: REMARK    3  A    between atoms: O_3  and  C_13 
DOCKED: REMARK    4  A    between atoms: O_4  and  C_14 
DOCKED: REMARK    5  A    between atoms: C_13  and  C_14 
DOCKED: REMARK    6  A    between atoms: C_13  and  C_15 
DOCKED: USER                              x       y       z     vdW  Elec       q    Type
DOCKED: USER                           _______ _______ _______ _____ _____    ______ ____
DOCKED: ROOT
DOCKED: ATOM      1  C   UNL d   1      45.683  25.971  20.606 -0.12 +0.14    +0.193 C 
DOCKED: ENDROOT
DOCKED: BRANCH   1   2
DOCKED: ATOM      2  O   UNL d   1      45.754  27.394  20.253 -0.09 -0.31    -0.356 OA
DOCKED: BRANCH   2   3
DOCKED: ATOM      3  P   UNL d   1      46.945  28.397  20.784 -0.13 -0.02    -0.014 P 
DOCKED: ATOM      4  O   UNL d   1      46.283  29.783  20.834 -0.30 -0.70    -0.577 OA
DOCKED: ATOM      5  O   UNL d   1      48.070  28.349  19.752 +0.01 -0.34    -0.577 OA
DOCKED: ATOM      6  O   UNL d   1      47.371  27.929  22.171 -0.25 -1.16    -0.638 OA
DOCKED: ENDBRANCH   2   3
DOCKED: ENDBRANCH   1   2
DOCKED: BRANCH   1   7
DOCKED: ATOM      7  C   UNL d   1      45.646  25.124  19.281 -0.11 +0.12    +0.201 C 
DOCKED: BRANCH   7   8
DOCKED: ATOM      8  O   UNL d   1      46.348  23.862  19.320 -0.06 -0.23    -0.364 OA
DOCKED: BRANCH   8   9
DOCKED: ATOM      9  P   UNL d   1      46.457  22.930  17.957 -0.14 -0.02    -0.015 P 
DOCKED: ATOM     10  O   UNL d   1      45.122  22.181  17.878 -0.05 -0.45    -0.577 OA
DOCKED: ATOM     11  O   UNL d   1      47.635  21.978  18.160 -0.08 -0.77    -0.577 OA
DOCKED: ATOM     12  O   UNL d   1      46.653  23.880  16.776 -0.38 -1.03    -0.638 OA
DOCKED: ENDBRANCH   8   9
DOCKED: ENDBRANCH   7   8
DOCKED: ENDBRANCH   1   7
DOCKED: BRANCH   1  13
DOCKED: ATOM     13  C   UNL d   1      44.370  25.683  21.425 -0.30 +0.06    +0.073 C 
DOCKED: ATOM     14  O   UNL d   1      43.784  24.556  21.264 -0.54 -0.32    -0.547 OA
DOCKED: ATOM     15  O   UNL d   1      43.997  26.582  22.262 -0.64 -0.71    -0.547 OA
DOCKED: ENDBRANCH   1  13
DOCKED: TORSDOF 6
DOCKED: TER
DOCKED: ENDMDL
________________________________________________________________________________


	BEGINNING GENETIC ALGORITHM DOCKING 10 of 100
Run: 10 Seed: 536307998 1656535235 [ Run 10 of 100 GA/GALS ]
Beginning LAMARCKIAN GENETIC ALGORITHM (LGA), with a maximum of 25000000 energy evaluations.

Final-Value: -6.837


	FINAL GENETIC ALGORITHM DOCKED STATE
	_______________________________________________


Detailed state:  trans 46.029 25.461 20.167 quatxyzw -0.012283 -0.441343 0.572916 0.690531 center 0.015 0.083 0.031 ntor 6 92.6970 27.8888 -4.8941 21.0700 26.3364 14.9071
State:	 46.029  25.461  20.167  -0.017 -0.610  0.792 92.656     92.70   27.89   -4.89   21.07   26.34   14.91

DOCKED: MODEL       10
DOCKED: USER    Run = 10
DOCKED: USER    DPF = D:/Protein_go_brrr/autodock/final/2DN3/2_3_BPG/dock.dpf
DOCKED: USER  
DOCKED: USER    Estimated Free Energy of Binding    =   -7.18 kcal/mol  [=(1)+(2)+(3)-(4)]
DOCKED: USER    Estimated Inhibition Constant, Ki   =    5.46 uM (micromolar)  [Temperature = 298.15 K]
DOCKED: USER    
DOCKED: USER    (1) Final Intermolecular Energy     =   -8.97 kcal/mol
DOCKED: USER        vdW + Hbond + desolv Energy     =   -3.05 kcal/mol
DOCKED: USER        Electrostatic Energy            =   -5.92 kcal/mol
DOCKED: USER    (2) Final Total Internal Energy     =   +2.13 kcal/mol
DOCKED: USER    (3) Torsional Free Energy           =   +1.79 kcal/mol
DOCKED: USER    (4) Unbound System's Energy  [=(2)] =   +2.13 kcal/mol
DOCKED: USER    
DOCKED: USER    
DOCKED: USER    NEWDPF move 2_3_BPG_opt.pdbqt
DOCKED: USER    NEWDPF about 0.015000 0.083000 0.031000
DOCKED: USER    NEWDPF tran0 46.029344 25.461022 20.167009
DOCKED: USER    NEWDPF quaternion0 -0.012283 -0.441343 0.572916 0.690531
DOCKED: USER    NEWDPF axisangle0 -0.016982 -0.610178 0.792083 92.655700
DOCKED: USER    NEWDPF quat0 -0.016982 -0.610178 0.792083 92.655700
DOCKED: USER    NEWDPF dihe0 92.70 27.89 -4.89 21.07 26.34 14.91 
DOCKED: USER  keepresnum = 1 
DOCKED: USER  
DOCKED: REMARK  6 active torsions:
DOCKED: REMARK  status: ('A' for Active; 'I' for Inactive)
DOCKED: REMARK    1  A    between atoms: P_1  and  O_3 
DOCKED: REMARK    2  A    between atoms: P_2  and  O_4 
DOCKED: REMARK    3  A    between atoms: O_3  and  C_13 
DOCKED: REMARK    4  A    between atoms: O_4  and  C_14 
DOCKED: REMARK    5  A    between atoms: C_13  and  C_14 
DOCKED: REMARK    6  A    between atoms: C_13  and  C_15 
DOCKED: USER                              x       y       z     vdW  Elec       q    Type
DOCKED: USER                           _______ _______ _______ _____ _____    ______ ____
DOCKED: ROOT
DOCKED: ATOM      1  C   UNL d   1      45.861  25.763  20.742 -0.11 +0.14    +0.193 C 
DOCKED: ENDROOT
DOCKED: BRANCH   1   2
DOCKED: ATOM      2  O   UNL d   1      46.167  27.192  20.614 -0.08 -0.34    -0.356 OA
DOCKED: BRANCH   2   3
DOCKED: ATOM      3  P   UNL d   1      47.368  27.937  21.455 -0.00 -0.02    -0.014 P 
DOCKED: ATOM      4  O   UNL d   1      46.947  29.414  21.496 -0.53 -1.02    -0.577 OA
DOCKED: ATOM      5  O   UNL d   1      48.661  27.743  20.666 +0.01 -0.36    -0.577 OA
DOCKED: ATOM      6  O   UNL d   1      47.412  27.328  22.853 +0.03 -1.09    -0.638 OA
DOCKED: ENDBRANCH   2   3
DOCKED: ENDBRANCH   1   2
DOCKED: BRANCH   1   7
DOCKED: ATOM      7  C   UNL d   1      45.972  25.094  19.322 -0.10 +0.12    +0.201 C 
DOCKED: BRANCH   7   8
DOCKED: ATOM      8  O   UNL d   1      45.824  23.657  19.288 -0.12 -0.23    -0.364 OA
DOCKED: BRANCH   8   9
DOCKED: ATOM      9  P   UNL d   1      46.591  22.771  18.121 -0.24 -0.02    -0.015 P 
DOCKED: ATOM     10  O   UNL d   1      46.259  21.310  18.447 -0.05 -0.49    -0.577 OA
DOCKED: ATOM     11  O   UNL d   1      48.086  23.060  18.253 -0.02 -0.65    -0.577 OA
DOCKED: ATOM     12  O   UNL d   1      46.014  23.204  16.774 -0.42 -1.07    -0.638 OA
DOCKED: ENDBRANCH   8   9
DOCKED: ENDBRANCH   7   8
DOCKED: ENDBRANCH   1   7
DOCKED: BRANCH   1  13
DOCKED: ATOM     13  C   UNL d   1      44.394  25.570  21.277 -0.29 +0.05    +0.073 C 
DOCKED: ATOM     14  O   UNL d   1      43.722  24.558  20.869 -0.63 -0.32    -0.547 OA
DOCKED: ATOM     15  O   UNL d   1      43.976  26.415  22.148 -0.49 -0.64    -0.547 OA
DOCKED: ENDBRANCH   1  13
DOCKED: TORSDOF 6
DOCKED: TER
DOCKED: ENDMDL
________________________________________________________________________________


	BEGINNING GENETIC ALGORITHM DOCKING 11 of 100
Run: 11 Seed: 822257238 2005113348 [ Run 11 of 100 GA/GALS ]
Beginning LAMARCKIAN GENETIC ALGORITHM (LGA), with a maximum of 25000000 energy evaluations.

Final-Value: -5.968


	FINAL GENETIC ALGORITHM DOCKED STATE
	_______________________________________________


Detailed state:  trans 1.939 43.767 -0.974 quatxyzw -0.343072 -0.213145 0.533145 -0.743389 center 0.015 0.083 0.031 ntor 6 122.9261 -83.8566 151.8874 18.5790 -17.2642 163.4090
State:	  1.939  43.767  -0.974  -0.513 -0.319  0.797 -83.958    122.93  -83.86  151.89   18.58  -17.26  163.41

DOCKED: MODEL       11
DOCKED: USER    Run = 11
DOCKED: USER    DPF = D:/Protein_go_brrr/autodock/final/2DN3/2_3_BPG/dock.dpf
DOCKED: USER  
DOCKED: USER    Estimated Free Energy of Binding    =   -6.29 kcal/mol  [=(1)+(2)+(3)-(4)]
DOCKED: USER    Estimated Inhibition Constant, Ki   =   24.37 uM (micromolar)  [Temperature = 298.15 K]
DOCKED: USER    
DOCKED: USER    (1) Final Intermolecular Energy     =   -8.08 kcal/mol
DOCKED: USER        vdW + Hbond + desolv Energy     =   -2.79 kcal/mol
DOCKED: USER        Electrostatic Energy            =   -5.29 kcal/mol
DOCKED: USER    (2) Final Total Internal Energy     =   +2.11 kcal/mol
DOCKED: USER    (3) Torsional Free Energy           =   +1.79 kcal/mol
DOCKED: USER    (4) Unbound System's Energy  [=(2)] =   +2.11 kcal/mol
DOCKED: USER    
DOCKED: USER    
DOCKED: USER    NEWDPF move 2_3_BPG_opt.pdbqt
DOCKED: USER    NEWDPF about 0.015000 0.083000 0.031000
DOCKED: USER    NEWDPF tran0 1.939289 43.766850 -0.974157
DOCKED: USER    NEWDPF quaternion0 -0.343072 -0.213145 0.533145 -0.743389
DOCKED: USER    NEWDPF axisangle0 -0.512921 -0.318670 0.797096 -83.958129
DOCKED: USER    NEWDPF quat0 -0.512921 -0.318670 0.797096 -83.958129
DOCKED: USER    NEWDPF dihe0 122.93 -83.86 151.89 18.58 -17.26 163.41 
DOCKED: USER  keepresnum = 1 
DOCKED: USER  
DOCKED: REMARK  6 active torsions:
DOCKED: REMARK  status: ('A' for Active; 'I' for Inactive)
DOCKED: REMARK    1  A    between atoms: P_1  and  O_3 
DOCKED: REMARK    2  A    between atoms: P_2  and  O_4 
DOCKED: REMARK    3  A    between atoms: O_3  and  C_13 
DOCKED: REMARK    4  A    between atoms: O_4  and  C_14 
DOCKED: REMARK    5  A    between atoms: C_13  and  C_14 
DOCKED: REMARK    6  A    between atoms: C_13  and  C_15 
DOCKED: USER                              x       y       z     vdW  Elec       q    Type
DOCKED: USER                           _______ _______ _______ _____ _____    ______ ____
DOCKED: ROOT
DOCKED: ATOM      1  C   UNL d   1       1.878  43.182  -0.653 -0.15 +0.14    +0.193 C 
DOCKED: ENDROOT
DOCKED: BRANCH   1   2
DOCKED: ATOM      2  O   UNL d   1       1.443  42.171  -1.623 -0.05 -0.33    -0.356 OA
DOCKED: BRANCH   2   3
DOCKED: ATOM      3  P   UNL d   1      -0.025  41.433  -1.562 +0.04 -0.02    -0.014 P 
DOCKED: ATOM      4  O   UNL d   1      -0.928  42.302  -2.451 +0.01 -0.33    -0.577 OA
DOCKED: ATOM      5  O   UNL d   1      -0.482  41.455  -0.105 -0.36 -1.11    -0.577 OA
DOCKED: ATOM      6  O   UNL d   1       0.130  40.026  -2.129 +0.03 -0.96    -0.638 OA
DOCKED: ENDBRANCH   2   3
DOCKED: ENDBRANCH   1   2
DOCKED: BRANCH   1   7
DOCKED: ATOM      7  C   UNL d   1       2.306  44.479  -1.433 -0.15 +0.12    +0.201 C 
DOCKED: BRANCH   7   8
DOCKED: ATOM      8  O   UNL d   1       2.983  44.264  -2.691 -0.09 -0.20    -0.364 OA
DOCKED: BRANCH   8   9
DOCKED: ATOM      9  P   UNL d   1       3.167  45.513  -3.759 -0.29 -0.01    -0.015 P 
DOCKED: ATOM     10  O   UNL d   1       2.011  46.473  -3.452 -0.00 -0.56    -0.577 OA
DOCKED: ATOM     11  O   UNL d   1       3.059  44.920  -5.163 -0.02 -0.31    -0.577 OA
DOCKED: ATOM     12  O   UNL d   1       4.529  46.148  -3.481 -0.33 -0.86    -0.638 OA
DOCKED: ENDBRANCH   8   9
DOCKED: ENDBRANCH   7   8
DOCKED: ENDBRANCH   1   7
DOCKED: BRANCH   1  13
DOCKED: ATOM     13  C   UNL d   1       3.116  42.651   0.161 -0.44 +0.05    +0.073 C 
DOCKED: ATOM     14  O   UNL d   1       3.670  43.434   1.011 -0.22 -0.27    -0.547 OA
DOCKED: ATOM     15  O   UNL d   1       3.461  41.430  -0.033 -0.77 -0.64    -0.547 OA
DOCKED: ENDBRANCH   1  13
DOCKED: TORSDOF 6
DOCKED: TER
DOCKED: ENDMDL
________________________________________________________________________________


	BEGINNING GENETIC ALGORITHM DOCKING 12 of 100
Run: 12 Seed: 334910353 671463134 [ Run 12 of 100 GA/GALS ]
Beginning LAMARCKIAN GENETIC ALGORITHM (LGA), with a maximum of 25000000 energy evaluations.

Final-Value: -6.828


	FINAL GENETIC ALGORITHM DOCKED STATE
	_______________________________________________


Detailed state:  trans 2.219 43.169 -1.531 quatxyzw 0.414702 -0.198053 -0.409094 0.788314 center 0.015 0.083 0.031 ntor 6 168.0061 -100.2313 -104.7478 0.5328 17.5008 1.3753
State:	  2.219  43.169  -1.531   0.674 -0.322 -0.665 75.944    168.01 -100.23 -104.75    0.53   17.50    1.38

DOCKED: MODEL       12
DOCKED: USER    Run = 12
DOCKED: USER    DPF = D:/Protein_go_brrr/autodock/final/2DN3/2_3_BPG/dock.dpf
DOCKED: USER  
DOCKED: USER    Estimated Free Energy of Binding    =   -6.99 kcal/mol  [=(1)+(2)+(3)-(4)]
DOCKED: USER    Estimated Inhibition Constant, Ki   =    7.46 uM (micromolar)  [Temperature = 298.15 K]
DOCKED: USER    
DOCKED: USER    (1) Final Intermolecular Energy     =   -8.78 kcal/mol
DOCKED: USER        vdW + Hbond + desolv Energy     =   -3.51 kcal/mol
DOCKED: USER        Electrostatic Energy            =   -5.28 kcal/mol
DOCKED: USER    (2) Final Total Internal Energy     =   +1.96 kcal/mol
DOCKED: USER    (3) Torsional Free Energy           =   +1.79 kcal/mol
DOCKED: USER    (4) Unbound System's Energy  [=(2)] =   +1.96 kcal/mol
DOCKED: USER    
DOCKED: USER    
DOCKED: USER    NEWDPF move 2_3_BPG_opt.pdbqt
DOCKED: USER    NEWDPF about 0.015000 0.083000 0.031000
DOCKED: USER    NEWDPF tran0 2.218643 43.169292 -1.530762
DOCKED: USER    NEWDPF quaternion0 0.414702 -0.198053 -0.409094 0.788314
DOCKED: USER    NEWDPF axisangle0 0.674013 -0.321895 -0.664898 75.943512
DOCKED: USER    NEWDPF quat0 0.674013 -0.321895 -0.664898 75.943512
DOCKED: USER    NEWDPF dihe0 168.01 -100.23 -104.75 0.53 17.50 1.38 
DOCKED: USER  keepresnum = 1 
DOCKED: USER  
DOCKED: REMARK  6 active torsions:
DOCKED: REMARK  status: ('A' for Active; 'I' for Inactive)
DOCKED: REMARK    1  A    between atoms: P_1  and  O_3 
DOCKED: REMARK    2  A    between atoms: P_2  and  O_4 
DOCKED: REMARK    3  A    between atoms: O_3  and  C_13 
DOCKED: REMARK    4  A    between atoms: O_4  and  C_14 
DOCKED: REMARK    5  A    between atoms: C_13  and  C_14 
DOCKED: REMARK    6  A    between atoms: C_13  and  C_15 
DOCKED: USER                              x       y       z     vdW  Elec       q    Type
DOCKED: USER                           _______ _______ _______ _____ _____    ______ ____
DOCKED: ROOT
DOCKED: ATOM      1  C   UNL d   1       2.125  42.863  -0.942 -0.15 +0.15    +0.193 C 
DOCKED: ENDROOT
DOCKED: BRANCH   1   2
DOCKED: ATOM      2  O   UNL d   1       0.880  42.090  -1.021 -0.08 -0.41    -0.356 OA
DOCKED: BRANCH   2   3
DOCKED: ATOM      3  P   UNL d   1      -0.292  42.144   0.131 -0.00 -0.02    -0.014 P 
DOCKED: ATOM      4  O   UNL d   1      -0.998  43.489  -0.103 +0.02 -0.32    -0.577 OA
DOCKED: ATOM      5  O   UNL d   1       0.407  42.106   1.489 -0.09 -0.67    -0.577 OA
DOCKED: ATOM      6  O   UNL d   1      -1.235  40.968  -0.100 -0.44 -1.16    -0.638 OA
DOCKED: ENDBRANCH   2   3
DOCKED: ENDBRANCH   1   2
DOCKED: BRANCH   1   7
DOCKED: ATOM      7  C   UNL d   1       2.512  43.347  -2.388 -0.10 +0.11    +0.201 C 
DOCKED: BRANCH   7   8
DOCKED: ATOM      8  O   UNL d   1       3.439  44.453  -2.455 -0.15 -0.22    -0.364 OA
DOCKED: BRANCH   8   9
DOCKED: ATOM      9  P   UNL d   1       3.537  45.371  -3.828 -0.36 -0.01    -0.015 P 
DOCKED: ATOM     10  O   UNL d   1       2.315  46.296  -3.776 -0.02 -0.57    -0.577 OA
DOCKED: ATOM     11  O   UNL d   1       3.474  44.409  -5.014 -0.02 -0.28    -0.577 OA
DOCKED: ATOM     12  O   UNL d   1       4.850  46.150  -3.757 -0.50 -0.80    -0.638 OA
DOCKED: ENDBRANCH   8   9
DOCKED: ENDBRANCH   7   8
DOCKED: ENDBRANCH   1   7
DOCKED: BRANCH   1  13
DOCKED: ATOM     13  C   UNL d   1       3.287  41.959  -0.384 -0.33 +0.07    +0.073 C 
DOCKED: ATOM     14  O   UNL d   1       4.097  42.463   0.471 -0.35 -0.35    -0.547 OA
DOCKED: ATOM     15  O   UNL d   1       3.314  40.737  -0.778 -0.93 -0.80    -0.547 OA
DOCKED: ENDBRANCH   1  13
DOCKED: TORSDOF 6
DOCKED: TER
DOCKED: ENDMDL
________________________________________________________________________________


	BEGINNING GENETIC ALGORITHM DOCKING 13 of 100
Run: 13 Seed: 1851283608 1021813442 [ Run 13 of 100 GA/GALS ]
Beginning LAMARCKIAN GENETIC ALGORITHM (LGA), with a maximum of 25000000 energy evaluations.

Final-Value: -6.330


	FINAL GENETIC ALGORITHM DOCKED STATE
	_______________________________________________


Detailed state:  trans 2.784 43.241 -1.353 quatxyzw -0.374668 0.285717 0.113066 -0.874761 center 0.015 0.083 0.031 ntor 6 47.0130 40.8081 -104.2906 -134.3016 57.2003 -48.1336
State:	  2.784  43.241  -1.353  -0.773  0.590  0.233 -57.967     47.01   40.81 -104.29 -134.30   57.20  -48.13

DOCKED: MODEL       13
DOCKED: USER    Run = 13
DOCKED: USER    DPF = D:/Protein_go_brrr/autodock/final/2DN3/2_3_BPG/dock.dpf
DOCKED: USER  
DOCKED: USER    Estimated Free Energy of Binding    =   -7.21 kcal/mol  [=(1)+(2)+(3)-(4)]
DOCKED: USER    Estimated Inhibition Constant, Ki   =    5.16 uM (micromolar)  [Temperature = 298.15 K]
DOCKED: USER    
DOCKED: USER    (1) Final Intermolecular Energy     =   -9.00 kcal/mol
DOCKED: USER        vdW + Hbond + desolv Energy     =   -3.57 kcal/mol
DOCKED: USER        Electrostatic Energy            =   -5.43 kcal/mol
DOCKED: USER    (2) Final Total Internal Energy     =   +2.67 kcal/mol
DOCKED: USER    (3) Torsional Free Energy           =   +1.79 kcal/mol
DOCKED: USER    (4) Unbound System's Energy  [=(2)] =   +2.67 kcal/mol
DOCKED: USER    
DOCKED: USER    
DOCKED: USER    NEWDPF move 2_3_BPG_opt.pdbqt
DOCKED: USER    NEWDPF about 0.015000 0.083000 0.031000
DOCKED: USER    NEWDPF tran0 2.783511 43.241113 -1.353008
DOCKED: USER    NEWDPF quaternion0 -0.374668 0.285717 0.113066 -0.874761
DOCKED: USER    NEWDPF axisangle0 -0.773220 0.589647 0.233340 -57.966693
DOCKED: USER    NEWDPF quat0 -0.773220 0.589647 0.233340 -57.966693
DOCKED: USER    NEWDPF dihe0 47.01 40.81 -104.29 -134.30 57.20 -48.13 
DOCKED: USER  keepresnum = 1 
DOCKED: USER  
DOCKED: REMARK  6 active torsions:
DOCKED: REMARK  status: ('A' for Active; 'I' for Inactive)
DOCKED: REMARK    1  A    between atoms: P_1  and  O_3 
DOCKED: REMARK    2  A    between atoms: P_2  and  O_4 
DOCKED: REMARK    3  A    between atoms: O_3  and  C_13 
DOCKED: REMARK    4  A    between atoms: O_4  and  C_14 
DOCKED: REMARK    5  A    between atoms: C_13  and  C_14 
DOCKED: REMARK    6  A    between atoms: C_13  and  C_15 
DOCKED: USER                              x       y       z     vdW  Elec       q    Type
DOCKED: USER                           _______ _______ _______ _____ _____    ______ ____
DOCKED: ROOT
DOCKED: ATOM      1  C   UNL d   1       2.475  43.101  -0.774 -0.19 +0.13    +0.193 C 
DOCKED: ENDROOT
DOCKED: BRANCH   1   2
DOCKED: ATOM      2  O   UNL d   1       1.028  43.209  -0.990 -0.03 -0.25    -0.356 OA
DOCKED: BRANCH   2   3
DOCKED: ATOM      3  P   UNL d   1       0.077  41.928  -1.391 -0.01 -0.02    -0.014 P 
DOCKED: ATOM      4  O   UNL d   1      -0.958  42.511  -2.366 +0.01 -0.31    -0.577 OA
DOCKED: ATOM      5  O   UNL d   1      -0.580  41.432  -0.105 -0.44 -1.09    -0.577 OA
DOCKED: ATOM      6  O   UNL d   1       0.957  40.882  -2.068 +0.01 -0.84    -0.638 OA
DOCKED: ENDBRANCH   2   3
DOCKED: ENDBRANCH   1   2
DOCKED: BRANCH   1   7
DOCKED: ATOM      7  C   UNL d   1       3.198  43.137  -2.171 -0.16 +0.11    +0.201 C 
DOCKED: BRANCH   7   8
DOCKED: ATOM      8  O   UNL d   1       3.985  44.317  -2.444 -0.17 -0.20    -0.364 OA
DOCKED: BRANCH   8   9
DOCKED: ATOM      9  P   UNL d   1       3.616  45.281  -3.737 -0.37 -0.01    -0.015 P 
DOCKED: ATOM     10  O   UNL d   1       2.407  46.109  -3.285 -0.03 -0.55    -0.577 OA
DOCKED: ATOM     11  O   UNL d   1       3.270  44.353  -4.901 -0.01 -0.28    -0.577 OA
DOCKED: ATOM     12  O   UNL d   1       4.839  46.155  -4.012 -0.61 -0.78    -0.638 OA
DOCKED: ENDBRANCH   8   9
DOCKED: ENDBRANCH   7   8
DOCKED: ENDBRANCH   1   7
DOCKED: BRANCH   1  13
DOCKED: ATOM     13  C   UNL d   1       2.816  41.737  -0.066 -0.32 +0.09    +0.073 C 
DOCKED: ATOM     14  O   UNL d   1       3.262  40.772  -0.780 -0.93 -0.80    -0.547 OA
DOCKED: ATOM     15  O   UNL d   1       2.683  41.695   1.210 -0.31 -0.63    -0.547 OA
DOCKED: ENDBRANCH   1  13
DOCKED: TORSDOF 6
DOCKED: TER
DOCKED: ENDMDL
________________________________________________________________________________


	BEGINNING GENETIC ALGORITHM DOCKING 14 of 100
Run: 14 Seed: 357691930 1475261085 [ Run 14 of 100 GA/GALS ]
Beginning LAMARCKIAN GENETIC ALGORITHM (LGA), with a maximum of 25000000 energy evaluations.

Final-Value: -6.902


	FINAL GENETIC ALGORITHM DOCKED STATE
	_______________________________________________


Detailed state:  trans 45.671 25.869 20.310 quatxyzw -0.161939 0.515595 -0.496476 -0.679301 center 0.015 0.083 0.031 ntor 6 -85.2049 20.5832 145.6301 28.8215 -19.6765 -31.7078
State:	 45.671  25.869  20.310  -0.221  0.703 -0.677 -94.422    -85.20   20.58  145.63   28.82  -19.68  -31.71

DOCKED: MODEL       14
DOCKED: USER    Run = 14
DOCKED: USER    DPF = D:/Protein_go_brrr/autodock/final/2DN3/2_3_BPG/dock.dpf
DOCKED: USER  
DOCKED: USER    Estimated Free Energy of Binding    =   -7.13 kcal/mol  [=(1)+(2)+(3)-(4)]
DOCKED: USER    Estimated Inhibition Constant, Ki   =    5.97 uM (micromolar)  [Temperature = 298.15 K]
DOCKED: USER    
DOCKED: USER    (1) Final Intermolecular Energy     =   -8.92 kcal/mol
DOCKED: USER        vdW + Hbond + desolv Energy     =   -3.08 kcal/mol
DOCKED: USER        Electrostatic Energy            =   -5.84 kcal/mol
DOCKED: USER    (2) Final Total Internal Energy     =   +2.02 kcal/mol
DOCKED: USER    (3) Torsional Free Energy           =   +1.79 kcal/mol
DOCKED: USER    (4) Unbound System's Energy  [=(2)] =   +2.02 kcal/mol
DOCKED: USER    
DOCKED: USER    
DOCKED: USER    NEWDPF move 2_3_BPG_opt.pdbqt
DOCKED: USER    NEWDPF about 0.015000 0.083000 0.031000
DOCKED: USER    NEWDPF tran0 45.670863 25.869087 20.310469
DOCKED: USER    NEWDPF quaternion0 -0.161939 0.515595 -0.496476 -0.679301
DOCKED: USER    NEWDPF axisangle0 -0.220668 0.702579 -0.676527 -94.421905
DOCKED: USER    NEWDPF quat0 -0.220668 0.702579 -0.676527 -94.421905
DOCKED: USER    NEWDPF dihe0 -85.20 20.58 145.63 28.82 -19.68 -31.71 
DOCKED: USER  keepresnum = 1 
DOCKED: USER  
DOCKED: REMARK  6 active torsions:
DOCKED: REMARK  status: ('A' for Active; 'I' for Inactive)
DOCKED: REMARK    1  A    between atoms: P_1  and  O_3 
DOCKED: REMARK    2  A    between atoms: P_2  and  O_4 
DOCKED: REMARK    3  A    between atoms: O_3  and  C_13 
DOCKED: REMARK    4  A    between atoms: O_4  and  C_14 
DOCKED: REMARK    5  A    between atoms: C_13  and  C_14 
DOCKED: REMARK    6  A    between atoms: C_13  and  C_15 
DOCKED: USER                              x       y       z     vdW  Elec       q    Type
DOCKED: USER                           _______ _______ _______ _____ _____    ______ ____
DOCKED: ROOT
DOCKED: ATOM      1  C   UNL d   1      45.607  26.193  20.894 -0.14 +0.16    +0.193 C 
DOCKED: ENDROOT
DOCKED: BRANCH   1   2
DOCKED: ATOM      2  O   UNL d   1      45.484  27.627  20.609 -0.14 -0.38    -0.356 OA
DOCKED: BRANCH   2   3
DOCKED: ATOM      3  P   UNL d   1      46.713  28.699  20.822 -0.11 -0.02    -0.014 P 
DOCKED: ATOM      4  O   UNL d   1      46.028  30.074  20.817 -0.20 -0.67    -0.577 OA
DOCKED: ATOM      5  O   UNL d   1      47.663  28.540  19.637 -0.00 -0.35    -0.577 OA
DOCKED: ATOM      6  O   UNL d   1      47.367  28.404  22.169 -0.12 -1.35    -0.638 OA
DOCKED: ENDBRANCH   2   3
DOCKED: ENDBRANCH   1   2
DOCKED: BRANCH   1   7
DOCKED: ATOM      7  C   UNL d   1      45.465  25.396  19.545 -0.11 +0.12    +0.201 C 
DOCKED: BRANCH   7   8
DOCKED: ATOM      8  O   UNL d   1      46.518  24.451  19.257 -0.04 -0.23    -0.364 OA
DOCKED: BRANCH   8   9
DOCKED: ATOM      9  P   UNL d   1      46.291  23.279  18.112 -0.27 -0.01    -0.015 P 
DOCKED: ATOM     10  O   UNL d   1      44.796  22.944  18.175 -0.04 -0.37    -0.577 OA
DOCKED: ATOM     11  O   UNL d   1      47.160  22.087  18.515 -0.04 -0.60    -0.577 OA
DOCKED: ATOM     12  O   UNL d   1      46.688  23.880  16.765 -0.37 -1.05    -0.638 OA
DOCKED: ENDBRANCH   8   9
DOCKED: ENDBRANCH   7   8
DOCKED: ENDBRANCH   1   7
DOCKED: BRANCH   1  13
DOCKED: ATOM     13  C   UNL d   1      44.461  25.737  21.872 -0.29 +0.06    +0.073 C 
DOCKED: ATOM     14  O   UNL d   1      44.021  26.578  22.732 -0.75 -0.82    -0.547 OA
DOCKED: ATOM     15  O   UNL d   1      43.988  24.556  21.705 -0.45 -0.33    -0.547 OA
DOCKED: ENDBRANCH   1  13
DOCKED: TORSDOF 6
DOCKED: TER
DOCKED: ENDMDL
________________________________________________________________________________


	BEGINNING GENETIC ALGORITHM DOCKING 15 of 100
Run: 15 Seed: 806113323 945795193 [ Run 15 of 100 GA/GALS ]
Beginning LAMARCKIAN GENETIC ALGORITHM (LGA), with a maximum of 25000000 energy evaluations.

Final-Value: -6.825


	FINAL GENETIC ALGORITHM DOCKED STATE
	_______________________________________________


Detailed state:  trans 2.420 43.061 -1.646 quatxyzw -0.345746 0.169213 0.252267 -0.887799 center 0.015 0.083 0.031 ntor 6 -175.3073 -61.8782 158.8925 -26.0273 16.8555 -43.5352
State:	  2.420  43.061  -1.646  -0.751  0.368  0.548 -54.804   -175.31  -61.88  158.89  -26.03   16.86  -43.54

DOCKED: MODEL       15
DOCKED: USER    Run = 15
DOCKED: USER    DPF = D:/Protein_go_brrr/autodock/final/2DN3/2_3_BPG/dock.dpf
DOCKED: USER  
DOCKED: USER    Estimated Free Energy of Binding    =   -7.13 kcal/mol  [=(1)+(2)+(3)-(4)]
DOCKED: USER    Estimated Inhibition Constant, Ki   =    5.92 uM (micromolar)  [Temperature = 298.15 K]
DOCKED: USER    
DOCKED: USER    (1) Final Intermolecular Energy     =   -8.92 kcal/mol
DOCKED: USER        vdW + Hbond + desolv Energy     =   -3.42 kcal/mol
DOCKED: USER        Electrostatic Energy            =   -5.50 kcal/mol
DOCKED: USER    (2) Final Total Internal Energy     =   +2.10 kcal/mol
DOCKED: USER    (3) Torsional Free Energy           =   +1.79 kcal/mol
DOCKED: USER    (4) Unbound System's Energy  [=(2)] =   +2.10 kcal/mol
DOCKED: USER    
DOCKED: USER    
DOCKED: USER    NEWDPF move 2_3_BPG_opt.pdbqt
DOCKED: USER    NEWDPF about 0.015000 0.083000 0.031000
DOCKED: USER    NEWDPF tran0 2.420452 43.061475 -1.645766
DOCKED: USER    NEWDPF quaternion0 -0.345746 0.169213 0.252267 -0.887799
DOCKED: USER    NEWDPF axisangle0 -0.751246 0.367671 0.548131 -54.803970
DOCKED: USER    NEWDPF quat0 -0.751246 0.367671 0.548131 -54.803970
DOCKED: USER    NEWDPF dihe0 -175.31 -61.88 158.89 -26.03 16.86 -43.54 
DOCKED: USER  keepresnum = 1 
DOCKED: USER  
DOCKED: REMARK  6 active torsions:
DOCKED: REMARK  status: ('A' for Active; 'I' for Inactive)
DOCKED: REMARK    1  A    between atoms: P_1  and  O_3 
DOCKED: REMARK    2  A    between atoms: P_2  and  O_4 
DOCKED: REMARK    3  A    between atoms: O_3  and  C_13 
DOCKED: REMARK    4  A    between atoms: O_4  and  C_14 
DOCKED: REMARK    5  A    between atoms: C_13  and  C_14 
DOCKED: REMARK    6  A    between atoms: C_13  and  C_15 
DOCKED: USER                              x       y       z     vdW  Elec       q    Type
DOCKED: USER                           _______ _______ _______ _____ _____    ______ ____
DOCKED: ROOT
DOCKED: ATOM      1  C   UNL d   1       2.131  42.735  -1.137 -0.14 +0.15    +0.193 C 
DOCKED: ENDROOT
DOCKED: BRANCH   1   2
DOCKED: ATOM      2  O   UNL d   1       0.742  42.443  -1.513 -0.04 -0.31    -0.356 OA
DOCKED: BRANCH   2   3
DOCKED: ATOM      3  P   UNL d   1      -0.443  42.134  -0.416 -0.05 -0.02    -0.014 P 
DOCKED: ATOM      4  O   UNL d   1      -1.413  43.318  -0.556 +0.01 -0.31    -0.577 OA
DOCKED: ATOM      5  O   UNL d   1       0.212  42.104   0.963 -0.17 -0.74    -0.577 OA
DOCKED: ATOM      6  O   UNL d   1      -1.109  40.817  -0.802 -0.26 -1.09    -0.638 OA
DOCKED: ENDBRANCH   2   3
DOCKED: ENDBRANCH   1   2
DOCKED: BRANCH   1   7
DOCKED: ATOM      7  C   UNL d   1       2.905  43.234  -2.413 -0.13 +0.11    +0.201 C 
DOCKED: BRANCH   7   8
DOCKED: ATOM      8  O   UNL d   1       3.389  44.594  -2.364 -0.15 -0.22    -0.364 OA
DOCKED: BRANCH   8   9
DOCKED: ATOM      9  P   UNL d   1       3.765  45.391  -3.764 -0.38 -0.01    -0.015 P 
DOCKED: ATOM     10  O   UNL d   1       3.948  44.289  -4.814 -0.04 -0.28    -0.577 OA
DOCKED: ATOM     11  O   UNL d   1       5.063  46.156  -3.507 -0.41 -0.69    -0.577 OA
DOCKED: ATOM     12  O   UNL d   1       2.587  46.307  -4.092 -0.05 -0.68    -0.638 OA
DOCKED: ENDBRANCH   8   9
DOCKED: ENDBRANCH   7   8
DOCKED: ENDBRANCH   1   7
DOCKED: BRANCH   1  13
DOCKED: ATOM     13  C   UNL d   1       2.830  41.430  -0.601 -0.27 +0.09    +0.073 C 
DOCKED: ATOM     14  O   UNL d   1       3.315  41.440   0.585 -0.72 -0.67    -0.547 OA
DOCKED: ATOM     15  O   UNL d   1       2.816  40.403  -1.371 -0.63 -0.85    -0.547 OA
DOCKED: ENDBRANCH   1  13
DOCKED: TORSDOF 6
DOCKED: TER
DOCKED: ENDMDL
________________________________________________________________________________


	BEGINNING GENETIC ALGORITHM DOCKING 16 of 100
Run: 16 Seed: 1950434147 1691831056 [ Run 16 of 100 GA/GALS ]
Beginning LAMARCKIAN GENETIC ALGORITHM (LGA), with a maximum of 25000000 energy evaluations.

Final-Value: -6.860


	FINAL GENETIC ALGORITHM DOCKED STATE
	_______________________________________________


Detailed state:  trans 46.153 25.627 20.304 quatxyzw 0.002600 0.461307 -0.558401 -0.689476 center 0.015 0.083 0.031 ntor 6 102.2960 21.8918 -126.9596 27.9963 -26.9609 -32.7854
State:	 46.153  25.627  20.304   0.004  0.637 -0.771 -92.823    102.30   21.89 -126.96   28.00  -26.96  -32.79

DOCKED: MODEL       16
DOCKED: USER    Run = 16
DOCKED: USER    DPF = D:/Protein_go_brrr/autodock/final/2DN3/2_3_BPG/dock.dpf
DOCKED: USER  
DOCKED: USER    Estimated Free Energy of Binding    =   -7.08 kcal/mol  [=(1)+(2)+(3)-(4)]
DOCKED: USER    Estimated Inhibition Constant, Ki   =    6.45 uM (micromolar)  [Temperature = 298.15 K]
DOCKED: USER    
DOCKED: USER    (1) Final Intermolecular Energy     =   -8.87 kcal/mol
DOCKED: USER        vdW + Hbond + desolv Energy     =   -3.05 kcal/mol
DOCKED: USER        Electrostatic Energy            =   -5.82 kcal/mol
DOCKED: USER    (2) Final Total Internal Energy     =   +2.01 kcal/mol
DOCKED: USER    (3) Torsional Free Energy           =   +1.79 kcal/mol
DOCKED: USER    (4) Unbound System's Energy  [=(2)] =   +2.01 kcal/mol
DOCKED: USER    
DOCKED: USER    
DOCKED: USER    NEWDPF move 2_3_BPG_opt.pdbqt
DOCKED: USER    NEWDPF about 0.015000 0.083000 0.031000
DOCKED: USER    NEWDPF tran0 46.152552 25.627494 20.304392
DOCKED: USER    NEWDPF quaternion0 0.002600 0.461307 -0.558401 -0.689476
DOCKED: USER    NEWDPF axisangle0 0.003590 0.636894 -0.770943 -92.822692
DOCKED: USER    NEWDPF quat0 0.003590 0.636894 -0.770943 -92.822692
DOCKED: USER    NEWDPF dihe0 102.30 21.89 -126.96 28.00 -26.96 -32.79 
DOCKED: USER  keepresnum = 1 
DOCKED: USER  
DOCKED: REMARK  6 active torsions:
DOCKED: REMARK  status: ('A' for Active; 'I' for Inactive)
DOCKED: REMARK    1  A    between atoms: P_1  and  O_3 
DOCKED: REMARK    2  A    between atoms: P_2  and  O_4 
DOCKED: REMARK    3  A    between atoms: O_3  and  C_13 
DOCKED: REMARK    4  A    between atoms: O_4  and  C_14 
DOCKED: REMARK    5  A    between atoms: C_13  and  C_14 
DOCKED: REMARK    6  A    between atoms: C_13  and  C_15 
DOCKED: USER                              x       y       z     vdW  Elec       q    Type
DOCKED: USER                           _______ _______ _______ _____ _____    ______ ____
DOCKED: ROOT
DOCKED: ATOM      1  C   UNL d   1      45.999  25.912  20.892 -0.10 +0.15    +0.193 C 
DOCKED: ENDROOT
DOCKED: BRANCH   1   2
DOCKED: ATOM      2  O   UNL d   1      46.260  27.352  20.785 -0.11 -0.37    -0.356 OA
DOCKED: BRANCH   2   3
DOCKED: ATOM      3  P   UNL d   1      47.567  28.085  21.462 +0.03 -0.02    -0.014 P 
DOCKED: ATOM      4  O   UNL d   1      47.196  29.575  21.496 -0.57 -0.88    -0.577 OA
DOCKED: ATOM      5  O   UNL d   1      48.759  27.824  20.543 +0.01 -0.34    -0.577 OA
DOCKED: ATOM      6  O   UNL d   1      47.749  27.521  22.868 +0.03 -1.00    -0.638 OA
DOCKED: ENDBRANCH   2   3
DOCKED: ENDBRANCH   1   2
DOCKED: BRANCH   1   7
DOCKED: ATOM      7  C   UNL d   1      46.072  25.278  19.454 -0.08 +0.12    +0.201 C 
DOCKED: BRANCH   7   8
DOCKED: ATOM      8  O   UNL d   1      46.962  24.149  19.307 -0.03 -0.23    -0.364 OA
DOCKED: BRANCH   8   9
DOCKED: ATOM      9  P   UNL d   1      46.716  23.051  18.095 -0.21 -0.02    -0.015 P 
DOCKED: ATOM     10  O   UNL d   1      46.691  23.879  16.804 -0.39 -0.94    -0.577 OA
DOCKED: ATOM     11  O   UNL d   1      45.370  22.380  18.368 -0.04 -0.41    -0.577 OA
DOCKED: ATOM     12  O   UNL d   1      47.890  22.073  18.126 -0.07 -0.87    -0.638 OA
DOCKED: ENDBRANCH   8   9
DOCKED: ENDBRANCH   7   8
DOCKED: ENDBRANCH   1   7
DOCKED: BRANCH   1  13
DOCKED: ATOM     13  C   UNL d   1      44.559  25.666  21.479 -0.28 +0.06    +0.073 C 
DOCKED: ATOM     14  O   UNL d   1      43.976  24.555  21.223 -0.61 -0.34    -0.547 OA
DOCKED: ATOM     15  O   UNL d   1      44.078  26.580  22.241 -0.61 -0.72    -0.547 OA
DOCKED: ENDBRANCH   1  13
DOCKED: TORSDOF 6
DOCKED: TER
DOCKED: ENDMDL
________________________________________________________________________________


	BEGINNING GENETIC ALGORITHM DOCKING 17 of 100
Run: 17 Seed: 1364074230 1493681667 [ Run 17 of 100 GA/GALS ]
Beginning LAMARCKIAN GENETIC ALGORITHM (LGA), with a maximum of 25000000 energy evaluations.

Final-Value: -6.628


	FINAL GENETIC ALGORITHM DOCKED STATE
	_______________________________________________


Detailed state:  trans 45.519 26.873 19.587 quatxyzw -0.666066 0.126151 0.716397 -0.164975 center 0.015 0.083 0.031 ntor 6 70.5101 -103.2732 -60.6059 32.2015 15.3041 -167.9279
State:	 45.519  26.873  19.587  -0.675  0.128  0.726 -161.008     70.51 -103.27  -60.61   32.20   15.30 -167.93

DOCKED: MODEL       17
DOCKED: USER    Run = 17
DOCKED: USER    DPF = D:/Protein_go_brrr/autodock/final/2DN3/2_3_BPG/dock.dpf
DOCKED: USER  
DOCKED: USER    Estimated Free Energy of Binding    =   -7.03 kcal/mol  [=(1)+(2)+(3)-(4)]
DOCKED: USER    Estimated Inhibition Constant, Ki   =    7.07 uM (micromolar)  [Temperature = 298.15 K]
DOCKED: USER    
DOCKED: USER    (1) Final Intermolecular Energy     =   -8.82 kcal/mol
DOCKED: USER        vdW + Hbond + desolv Energy     =   -3.50 kcal/mol
DOCKED: USER        Electrostatic Energy            =   -5.31 kcal/mol
DOCKED: USER    (2) Final Total Internal Energy     =   +2.19 kcal/mol
DOCKED: USER    (3) Torsional Free Energy           =   +1.79 kcal/mol
DOCKED: USER    (4) Unbound System's Energy  [=(2)] =   +2.19 kcal/mol
DOCKED: USER    
DOCKED: USER    
DOCKED: USER    NEWDPF move 2_3_BPG_opt.pdbqt
DOCKED: USER    NEWDPF about 0.015000 0.083000 0.031000
DOCKED: USER    NEWDPF tran0 45.518867 26.873020 19.586715
DOCKED: USER    NEWDPF quaternion0 -0.666066 0.126151 0.716397 -0.164975
DOCKED: USER    NEWDPF axisangle0 -0.675320 0.127903 0.726350 -161.008439
DOCKED: USER    NEWDPF quat0 -0.675320 0.127903 0.726350 -161.008439
DOCKED: USER    NEWDPF dihe0 70.51 -103.27 -60.61 32.20 15.30 -167.93 
DOCKED: USER  keepresnum = 1 
DOCKED: USER  
DOCKED: REMARK  6 active torsions:
DOCKED: REMARK  status: ('A' for Active; 'I' for Inactive)
DOCKED: REMARK    1  A    between atoms: P_1  and  O_3 
DOCKED: REMARK    2  A    between atoms: P_2  and  O_4 
DOCKED: REMARK    3  A    between atoms: O_3  and  C_13 
DOCKED: REMARK    4  A    between atoms: O_4  and  C_14 
DOCKED: REMARK    5  A    between atoms: C_13  and  C_14 
DOCKED: REMARK    6  A    between atoms: C_13  and  C_15 
DOCKED: USER                              x       y       z     vdW  Elec       q    Type
DOCKED: USER                           _______ _______ _______ _____ _____    ______ ____
DOCKED: ROOT
DOCKED: ATOM      1  C   UNL d   1      45.594  27.155  20.190 -0.15 +0.16    +0.193 C 
DOCKED: ENDROOT
DOCKED: BRANCH   1   2
DOCKED: ATOM      2  O   UNL d   1      45.920  26.097  21.153 -0.06 -0.31    -0.356 OA
DOCKED: BRANCH   2   3
DOCKED: ATOM      3  P   UNL d   1      44.813  25.431  22.171 -0.35 -0.01    -0.014 P 
DOCKED: ATOM      4  O   UNL d   1      43.934  24.557  21.263 -0.57 -0.35    -0.577 OA
DOCKED: ATOM      5  O   UNL d   1      44.016  26.580  22.787 -0.75 -0.88    -0.577 OA
DOCKED: ATOM      6  O   UNL d   1      45.564  24.592  23.199 +0.01 -0.42    -0.638 OA
DOCKED: ENDBRANCH   2   3
DOCKED: ENDBRANCH   1   2
DOCKED: BRANCH   1   7
DOCKED: ATOM      7  C   UNL d   1      45.701  26.565  18.736 -0.12 +0.11    +0.201 C 
DOCKED: BRANCH   7   8
DOCKED: ATOM      8  O   UNL d   1      46.258  25.236  18.634 -0.05 -0.23    -0.364 OA
DOCKED: BRANCH   8   9
DOCKED: ATOM      9  P   UNL d   1      46.838  24.689  17.185 -0.30 -0.02    -0.015 P 
DOCKED: ATOM     10  O   UNL d   1      48.307  24.337  17.451 -0.03 -0.64    -0.577 OA
DOCKED: ATOM     11  O   UNL d   1      46.698  25.837  16.186 -0.10 -0.43    -0.577 OA
DOCKED: ATOM     12  O   UNL d   1      46.014  23.460  16.803 -0.42 -0.97    -0.638 OA
DOCKED: ENDBRANCH   8   9
DOCKED: ENDBRANCH   7   8
DOCKED: ENDBRANCH   1   7
DOCKED: BRANCH   1  13
DOCKED: ATOM     13  C   UNL d   1      46.618  28.344  20.328 -0.14 +0.07    +0.073 C 
DOCKED: ATOM     14  O   UNL d   1      47.269  28.713  19.289 -0.01 -0.31    -0.547 OA
DOCKED: ATOM     15  O   UNL d   1      46.692  28.918  21.474 -0.46 -1.09    -0.547 OA
DOCKED: ENDBRANCH   1  13
DOCKED: TORSDOF 6
DOCKED: TER
DOCKED: ENDMDL
________________________________________________________________________________


	BEGINNING GENETIC ALGORITHM DOCKING 18 of 100
Run: 18 Seed: 967161566 277360200 [ Run 18 of 100 GA/GALS ]
Beginning LAMARCKIAN GENETIC ALGORITHM (LGA), with a maximum of 25000000 energy evaluations.

Final-Value: -6.728


	FINAL GENETIC ALGORITHM DOCKED STATE
	_______________________________________________


Detailed state:  trans 45.942 25.308 20.065 quatxyzw -0.070453 0.476381 -0.611055 -0.628258 center 0.015 0.083 0.031 ntor 6 100.7503 -63.1323 43.3517 2.8656 20.8553 -3.0188
State:	 45.942  25.308  20.065  -0.091  0.612 -0.785 -102.157    100.75  -63.13   43.35    2.87   20.86   -3.02

DOCKED: MODEL       18
DOCKED: USER    Run = 18
DOCKED: USER    DPF = D:/Protein_go_brrr/autodock/final/2DN3/2_3_BPG/dock.dpf
DOCKED: USER  
DOCKED: USER    Estimated Free Energy of Binding    =   -7.05 kcal/mol  [=(1)+(2)+(3)-(4)]
DOCKED: USER    Estimated Inhibition Constant, Ki   =    6.74 uM (micromolar)  [Temperature = 298.15 K]
DOCKED: USER    
DOCKED: USER    (1) Final Intermolecular Energy     =   -8.84 kcal/mol
DOCKED: USER        vdW + Hbond + desolv Energy     =   -3.08 kcal/mol
DOCKED: USER        Electrostatic Energy            =   -5.76 kcal/mol
DOCKED: USER    (2) Final Total Internal Energy     =   +2.12 kcal/mol
DOCKED: USER    (3) Torsional Free Energy           =   +1.79 kcal/mol
DOCKED: USER    (4) Unbound System's Energy  [=(2)] =   +2.12 kcal/mol
DOCKED: USER    
DOCKED: USER    
DOCKED: USER    NEWDPF move 2_3_BPG_opt.pdbqt
DOCKED: USER    NEWDPF about 0.015000 0.083000 0.031000
DOCKED: USER    NEWDPF tran0 45.942209 25.307960 20.065126
DOCKED: USER    NEWDPF quaternion0 -0.070453 0.476381 -0.611055 -0.628258
DOCKED: USER    NEWDPF axisangle0 -0.090556 0.612312 -0.785413 -102.156523
DOCKED: USER    NEWDPF quat0 -0.090556 0.612312 -0.785413 -102.156523
DOCKED: USER    NEWDPF dihe0 100.75 -63.13 43.35 2.87 20.86 -3.02 
DOCKED: USER  keepresnum = 1 
DOCKED: USER  
DOCKED: REMARK  6 active torsions:
DOCKED: REMARK  status: ('A' for Active; 'I' for Inactive)
DOCKED: REMARK    1  A    between atoms: P_1  and  O_3 
DOCKED: REMARK    2  A    between atoms: P_2  and  O_4 
DOCKED: REMARK    3  A    between atoms: O_3  and  C_13 
DOCKED: REMARK    4  A    between atoms: O_4  and  C_14 
DOCKED: REMARK    5  A    between atoms: C_13  and  C_14 
DOCKED: REMARK    6  A    between atoms: C_13  and  C_15 
DOCKED: USER                              x       y       z     vdW  Elec       q    Type
DOCKED: USER                           _______ _______ _______ _____ _____    ______ ____
DOCKED: ROOT
DOCKED: ATOM      1  C   UNL d   1      45.905  25.675  20.625 -0.10 +0.13    +0.193 C 
DOCKED: ENDROOT
DOCKED: BRANCH   1   2
DOCKED: ATOM      2  O   UNL d   1      46.234  27.064  20.283 -0.06 -0.29    -0.356 OA
DOCKED: BRANCH   2   3
DOCKED: ATOM      3  P   UNL d   1      47.346  27.956  21.103 -0.06 -0.02    -0.014 P 
DOCKED: ATOM      4  O   UNL d   1      48.486  28.169  20.095 +0.01 -0.33    -0.577 OA
DOCKED: ATOM      5  O   UNL d   1      47.802  27.123  22.299 -0.06 -0.66    -0.577 OA
DOCKED: ATOM      6  O   UNL d   1      46.692  29.277  21.497 -0.48 -1.29    -0.638 OA
DOCKED: ENDBRANCH   2   3
DOCKED: ENDBRANCH   1   2
DOCKED: BRANCH   1   7
DOCKED: ATOM      7  C   UNL d   1      45.702  24.862  19.293 -0.11 +0.12    +0.201 C 
DOCKED: BRANCH   7   8
DOCKED: ATOM      8  O   UNL d   1      45.895  23.434  19.392 -0.13 -0.22    -0.364 OA
DOCKED: BRANCH   8   9
DOCKED: ATOM      9  P   UNL d   1      46.296  22.556  18.048 -0.21 -0.02    -0.015 P 
DOCKED: ATOM     10  O   UNL d   1      45.382  21.326  18.088 -0.05 -0.42    -0.577 OA
DOCKED: ATOM     11  O   UNL d   1      47.770  22.177  18.186 -0.06 -0.75    -0.577 OA
DOCKED: ATOM     12  O   UNL d   1      46.017  23.439  16.832 -0.41 -0.97    -0.638 OA
DOCKED: ENDBRANCH   8   9
DOCKED: ENDBRANCH   7   8
DOCKED: ENDBRANCH   1   7
DOCKED: BRANCH   1  13
DOCKED: ATOM     13  C   UNL d   1      44.568  25.627  21.454 -0.28 +0.06    +0.073 C 
DOCKED: ATOM     14  O   UNL d   1      43.866  24.555  21.421 -0.53 -0.33    -0.547 OA
DOCKED: ATOM     15  O   UNL d   1      44.290  26.654  22.172 -0.55 -0.78    -0.547 OA
DOCKED: ENDBRANCH   1  13
DOCKED: TORSDOF 6
DOCKED: TER
DOCKED: ENDMDL
________________________________________________________________________________


	BEGINNING GENETIC ALGORITHM DOCKING 19 of 100
Run: 19 Seed: 2144448348 1327584999 [ Run 19 of 100 GA/GALS ]
Beginning LAMARCKIAN GENETIC ALGORITHM (LGA), with a maximum of 25000000 energy evaluations.

Final-Value: -6.229


	FINAL GENETIC ALGORITHM DOCKED STATE
	_______________________________________________


Detailed state:  trans 3.714 42.645 -1.879 quatxyzw 0.274822 0.814368 0.195125 -0.472445 center 0.015 0.083 0.031 ntor 6 126.5860 84.9254 138.1299 -172.6213 -50.6727 -62.3206
State:	  3.714  42.645  -1.879   0.312  0.924  0.221 -123.614    126.59   84.93  138.13 -172.62  -50.67  -62.32

DOCKED: MODEL       19
DOCKED: USER    Run = 19
DOCKED: USER    DPF = D:/Protein_go_brrr/autodock/final/2DN3/2_3_BPG/dock.dpf
DOCKED: USER  
DOCKED: USER    Estimated Free Energy of Binding    =   -6.87 kcal/mol  [=(1)+(2)+(3)-(4)]
DOCKED: USER    Estimated Inhibition Constant, Ki   =    9.22 uM (micromolar)  [Temperature = 298.15 K]
DOCKED: USER    
DOCKED: USER    (1) Final Intermolecular Energy     =   -8.66 kcal/mol
DOCKED: USER        vdW + Hbond + desolv Energy     =   -3.84 kcal/mol
DOCKED: USER        Electrostatic Energy            =   -4.82 kcal/mol
DOCKED: USER    (2) Final Total Internal Energy     =   +2.43 kcal/mol
DOCKED: USER    (3) Torsional Free Energy           =   +1.79 kcal/mol
DOCKED: USER    (4) Unbound System's Energy  [=(2)] =   +2.43 kcal/mol
DOCKED: USER    
DOCKED: USER    
DOCKED: USER    NEWDPF move 2_3_BPG_opt.pdbqt
DOCKED: USER    NEWDPF about 0.015000 0.083000 0.031000
DOCKED: USER    NEWDPF tran0 3.714145 42.644753 -1.878811
DOCKED: USER    NEWDPF quaternion0 0.274822 0.814368 0.195125 -0.472445
DOCKED: USER    NEWDPF axisangle0 0.311815 0.923990 0.221390 -123.613775
DOCKED: USER    NEWDPF quat0 0.311815 0.923990 0.221390 -123.613775
DOCKED: USER    NEWDPF dihe0 126.59 84.93 138.13 -172.62 -50.67 -62.32 
DOCKED: USER  keepresnum = 1 
DOCKED: USER  
DOCKED: REMARK  6 active torsions:
DOCKED: REMARK  status: ('A' for Active; 'I' for Inactive)
DOCKED: REMARK    1  A    between atoms: P_1  and  O_3 
DOCKED: REMARK    2  A    between atoms: P_2  and  O_4 
DOCKED: REMARK    3  A    between atoms: O_3  and  C_13 
DOCKED: REMARK    4  A    between atoms: O_4  and  C_14 
DOCKED: REMARK    5  A    between atoms: C_13  and  C_14 
DOCKED: REMARK    6  A    between atoms: C_13  and  C_15 
DOCKED: USER                              x       y       z     vdW  Elec       q    Type
DOCKED: USER                           _______ _______ _______ _____ _____    ______ ____
DOCKED: ROOT
DOCKED: ATOM      1  C   UNL d   1       3.949  42.039  -1.715 -0.24 +0.11    +0.193 C 
DOCKED: ENDROOT
DOCKED: BRANCH   1   2
DOCKED: ATOM      2  O   UNL d   1       4.018  41.954  -0.252 -0.49 -0.28    -0.356 OA
DOCKED: BRANCH   2   3
DOCKED: ATOM      3  P   UNL d   1       2.730  42.236   0.730 -0.56 -0.01    -0.014 P 
DOCKED: ATOM      4  O   UNL d   1       2.925  43.682   1.213 -0.13 -0.32    -0.577 OA
DOCKED: ATOM      5  O   UNL d   1       2.816  41.242   1.886 -0.19 -0.64    -0.577 OA
DOCKED: ATOM      6  O   UNL d   1       1.461  42.090  -0.104 +0.00 -0.84    -0.638 OA
DOCKED: ENDBRANCH   2   3
DOCKED: ENDBRANCH   1   2
DOCKED: BRANCH   1   7
DOCKED: ATOM      7  C   UNL d   1       3.135  43.326  -2.109 -0.16 +0.11    +0.201 C 
DOCKED: BRANCH   7   8
DOCKED: ATOM      8  O   UNL d   1       3.921  44.493  -2.436 -0.18 -0.21    -0.364 OA
DOCKED: BRANCH   8   9
DOCKED: ATOM      9  P   UNL d   1       3.583  45.366  -3.800 -0.36 -0.01    -0.015 P 
DOCKED: ATOM     10  O   UNL d   1       3.249  44.319  -4.870 -0.01 -0.27    -0.577 OA
DOCKED: ATOM     11  O   UNL d   1       4.845  46.155  -4.149 -0.71 -0.69    -0.577 OA
DOCKED: ATOM     12  O   UNL d   1       2.387  46.261  -3.479 +0.01 -0.65    -0.638 OA
DOCKED: ENDBRANCH   8   9
DOCKED: ENDBRANCH   7   8
DOCKED: ENDBRANCH   1   7
DOCKED: BRANCH   1  13
DOCKED: ATOM     13  C   UNL d   1       3.208  40.776  -2.294 -0.21 +0.06    +0.073 C 
DOCKED: ATOM     14  O   UNL d   1       3.062  40.682  -3.563 +0.01 -0.27    -0.547 OA
DOCKED: ATOM     15  O   UNL d   1       2.846  39.877  -1.453 -0.63 -0.90    -0.547 OA
DOCKED: ENDBRANCH   1  13
DOCKED: TORSDOF 6
DOCKED: TER
DOCKED: ENDMDL
________________________________________________________________________________


	BEGINNING GENETIC ALGORITHM DOCKING 20 of 100
Run: 20 Seed: 1515171856 901631941 [ Run 20 of 100 GA/GALS ]
Beginning LAMARCKIAN GENETIC ALGORITHM (LGA), with a maximum of 25000000 energy evaluations.

Final-Value: -6.456


	FINAL GENETIC ALGORITHM DOCKED STATE
	_______________________________________________


Detailed state:  trans 2.485 44.406 -1.810 quatxyzw 0.781626 0.390257 -0.486087 -0.021903 center 0.015 0.083 0.031 ntor 6 -25.0283 -175.7130 -56.5982 -11.1974 -10.5967 -6.2923
State:	  2.485  44.406  -1.810   0.782  0.390 -0.486 -177.490    -25.03 -175.71  -56.60  -11.20  -10.60   -6.29

DOCKED: MODEL       20
DOCKED: USER    Run = 20
DOCKED: USER    DPF = D:/Protein_go_brrr/autodock/final/2DN3/2_3_BPG/dock.dpf
DOCKED: USER  
DOCKED: USER    Estimated Free Energy of Binding    =   -6.69 kcal/mol  [=(1)+(2)+(3)-(4)]
DOCKED: USER    Estimated Inhibition Constant, Ki   =   12.53 uM (micromolar)  [Temperature = 298.15 K]
DOCKED: USER    
DOCKED: USER    (1) Final Intermolecular Energy     =   -8.48 kcal/mol
DOCKED: USER        vdW + Hbond + desolv Energy     =   -3.04 kcal/mol
DOCKED: USER        Electrostatic Energy            =   -5.43 kcal/mol
DOCKED: USER    (2) Final Total Internal Energy     =   +2.02 kcal/mol
DOCKED: USER    (3) Torsional Free Energy           =   +1.79 kcal/mol
DOCKED: USER    (4) Unbound System's Energy  [=(2)] =   +2.02 kcal/mol
DOCKED: USER    
DOCKED: USER    
DOCKED: USER    NEWDPF move 2_3_BPG_opt.pdbqt
DOCKED: USER    NEWDPF about 0.015000 0.083000 0.031000
DOCKED: USER    NEWDPF tran0 2.484752 44.406055 -1.809688
DOCKED: USER    NEWDPF quaternion0 0.781626 0.390257 -0.486087 -0.021903
DOCKED: USER    NEWDPF axisangle0 0.781813 0.390351 -0.486204 -177.489860
DOCKED: USER    NEWDPF quat0 0.781813 0.390351 -0.486204 -177.489860
DOCKED: USER    NEWDPF dihe0 -25.03 -175.71 -56.60 -11.20 -10.60 -6.29 
DOCKED: USER  keepresnum = 1 
DOCKED: USER  
DOCKED: REMARK  6 active torsions:
DOCKED: REMARK  status: ('A' for Active; 'I' for Inactive)
DOCKED: REMARK    1  A    between atoms: P_1  and  O_3 
DOCKED: REMARK    2  A    between atoms: P_2  and  O_4 
DOCKED: REMARK    3  A    between atoms: O_3  and  C_13 
DOCKED: REMARK    4  A    between atoms: O_4  and  C_14 
DOCKED: REMARK    5  A    between atoms: C_13  and  C_14 
DOCKED: REMARK    6  A    between atoms: C_13  and  C_15 
DOCKED: USER                              x       y       z     vdW  Elec       q    Type
DOCKED: USER                           _______ _______ _______ _____ _____    ______ ____
DOCKED: ROOT
DOCKED: ATOM      1  C   UNL d   1       2.088  44.239  -1.296 -0.14 +0.11    +0.193 C 
DOCKED: ENDROOT
DOCKED: BRANCH   1   2
DOCKED: ATOM      2  O   UNL d   1       2.836  43.333  -0.417 -0.14 -0.23    -0.356 OA
DOCKED: BRANCH   2   3
DOCKED: ATOM      3  P   UNL d   1       2.143  42.069   0.376 -0.33 -0.02    -0.014 P 
DOCKED: ATOM      4  O   UNL d   1       0.665  42.120  -0.040 -0.11 -0.78    -0.577 OA
DOCKED: ATOM      5  O   UNL d   1       2.315  42.324   1.872 -0.09 -0.49    -0.577 OA
DOCKED: ATOM      6  O   UNL d   1       2.816  40.787  -0.103 -0.94 -1.30    -0.638 OA
DOCKED: ENDBRANCH   2   3
DOCKED: ENDBRANCH   1   2
DOCKED: BRANCH   1   7
DOCKED: ATOM      7  C   UNL d   1       3.085  44.867  -2.338 -0.19 +0.13    +0.201 C 
DOCKED: BRANCH   7   8
DOCKED: ATOM      8  O   UNL d   1       2.505  45.275  -3.598 -0.09 -0.25    -0.364 OA
DOCKED: BRANCH   8   9
DOCKED: ATOM      9  P   UNL d   1       3.414  46.115  -4.695 -0.24 -0.02    -0.015 P 
DOCKED: ATOM     10  O   UNL d   1       3.315  45.308  -5.996 -0.03 -0.31    -0.577 OA
DOCKED: ATOM     11  O   UNL d   1       4.843  46.154  -4.155 -0.71 -0.69    -0.577 OA
DOCKED: ATOM     12  O   UNL d   1       2.788  47.502  -4.832 +0.17 -1.10    -0.638 OA
DOCKED: ENDBRANCH   8   9
DOCKED: ENDBRANCH   7   8
DOCKED: ENDBRANCH   1   7
DOCKED: BRANCH   1  13
DOCKED: ATOM     13  C   UNL d   1       1.444  45.401  -0.451 -0.18 +0.04    +0.073 C 
DOCKED: ATOM     14  O   UNL d   1       2.027  45.767   0.630 -0.02 -0.28    -0.547 OA
DOCKED: ATOM     15  O   UNL d   1       0.395  45.961  -0.935 -0.00 -0.25    -0.547 OA
DOCKED: ENDBRANCH   1  13
DOCKED: TORSDOF 6
DOCKED: TER
DOCKED: ENDMDL
________________________________________________________________________________


	BEGINNING GENETIC ALGORITHM DOCKING 21 of 100
Run: 21 Seed: 200762240 701451786 [ Run 21 of 100 GA/GALS ]
Beginning LAMARCKIAN GENETIC ALGORITHM (LGA), with a maximum of 25000000 energy evaluations.

Final-Value: -6.635


	FINAL GENETIC ALGORITHM DOCKED STATE
	_______________________________________________


Detailed state:  trans 45.895 26.664 19.703 quatxyzw 0.910635 -0.347571 -0.212545 0.069016 center 0.015 0.083 0.031 ntor 6 138.4401 -13.8213 -129.2104 172.6494 -48.0470 -65.8839
State:	 45.895  26.664  19.703   0.913 -0.348 -0.213 172.085    138.44  -13.82 -129.21  172.65  -48.05  -65.88

DOCKED: MODEL       21
DOCKED: USER    Run = 21
DOCKED: USER    DPF = D:/Protein_go_brrr/autodock/final/2DN3/2_3_BPG/dock.dpf
DOCKED: USER  
DOCKED: USER    Estimated Free Energy of Binding    =   -7.22 kcal/mol  [=(1)+(2)+(3)-(4)]
DOCKED: USER    Estimated Inhibition Constant, Ki   =    5.13 uM (micromolar)  [Temperature = 298.15 K]
DOCKED: USER    
DOCKED: USER    (1) Final Intermolecular Energy     =   -9.01 kcal/mol
DOCKED: USER        vdW + Hbond + desolv Energy     =   -3.19 kcal/mol
DOCKED: USER        Electrostatic Energy            =   -5.82 kcal/mol
DOCKED: USER    (2) Final Total Internal Energy     =   +2.37 kcal/mol
DOCKED: USER    (3) Torsional Free Energy           =   +1.79 kcal/mol
DOCKED: USER    (4) Unbound System's Energy  [=(2)] =   +2.37 kcal/mol
DOCKED: USER    
DOCKED: USER    
DOCKED: USER    NEWDPF move 2_3_BPG_opt.pdbqt
DOCKED: USER    NEWDPF about 0.015000 0.083000 0.031000
DOCKED: USER    NEWDPF tran0 45.895421 26.664097 19.703264
DOCKED: USER    NEWDPF quaternion0 0.910635 -0.347571 -0.212545 0.069016
DOCKED: USER    NEWDPF axisangle0 0.912811 -0.348402 -0.213053 172.085025
DOCKED: USER    NEWDPF quat0 0.912811 -0.348402 -0.213053 172.085025
DOCKED: USER    NEWDPF dihe0 138.44 -13.82 -129.21 172.65 -48.05 -65.88 
DOCKED: USER  keepresnum = 1 
DOCKED: USER  
DOCKED: REMARK  6 active torsions:
DOCKED: REMARK  status: ('A' for Active; 'I' for Inactive)
DOCKED: REMARK    1  A    between atoms: P_1  and  O_3 
DOCKED: REMARK    2  A    between atoms: P_2  and  O_4 
DOCKED: REMARK    3  A    between atoms: O_3  and  C_13 
DOCKED: REMARK    4  A    between atoms: O_4  and  C_14 
DOCKED: REMARK    5  A    between atoms: C_13  and  C_14 
DOCKED: REMARK    6  A    between atoms: C_13  and  C_15 
DOCKED: USER                              x       y       z     vdW  Elec       q    Type
DOCKED: USER                           _______ _______ _______ _____ _____    ______ ____
DOCKED: ROOT
DOCKED: ATOM      1  C   UNL d   1      45.679  27.277  19.868 -0.14 +0.14    +0.193 C 
DOCKED: ENDROOT
DOCKED: BRANCH   1   2
DOCKED: ATOM      2  O   UNL d   1      44.667  27.137  20.921 -0.21 -0.38    -0.356 OA
DOCKED: BRANCH   2   3
DOCKED: ATOM      3  P   UNL d   1      44.799  26.069  22.164 -0.29 -0.02    -0.014 P 
DOCKED: ATOM      4  O   UNL d   1      43.802  26.579  23.216 -0.72 -0.87    -0.577 OA
DOCKED: ATOM      5  O   UNL d   1      46.238  26.141  22.672 +0.00 -0.74    -0.577 OA
DOCKED: ATOM      6  O   UNL d   1      44.407  24.690  21.643 -0.30 -0.41    -0.638 OA
DOCKED: ENDBRANCH   2   3
DOCKED: ENDBRANCH   1   2
DOCKED: BRANCH   1   7
DOCKED: ATOM      7  C   UNL d   1      46.402  25.893  19.676 -0.07 +0.12    +0.201 C 
DOCKED: BRANCH   7   8
DOCKED: ATOM      8  O   UNL d   1      45.858  25.034  18.649 -0.05 -0.22    -0.364 OA
DOCKED: BRANCH   8   9
DOCKED: ATOM      9  P   UNL d   1      46.869  24.262  17.592 -0.27 -0.02    -0.015 P 
DOCKED: ATOM     10  O   UNL d   1      47.883  23.525  18.475 -0.02 -0.54    -0.577 OA
DOCKED: ATOM     11  O   UNL d   1      47.533  25.344  16.740 -0.12 -0.52    -0.577 OA
DOCKED: ATOM     12  O   UNL d   1      46.013  23.297  16.773 -0.42 -1.04    -0.638 OA
DOCKED: ENDBRANCH   8   9
DOCKED: ENDBRANCH   7   8
DOCKED: ENDBRANCH   1   7
DOCKED: BRANCH   1  13
DOCKED: ATOM     13  C   UNL d   1      46.750  28.352  20.287 -0.14 +0.07    +0.073 C 
DOCKED: ATOM     14  O   UNL d   1      47.571  28.776  19.400 -0.00 -0.31    -0.547 OA
DOCKED: ATOM     15  O   UNL d   1      46.694  28.790  21.493 -0.45 -1.10    -0.547 OA
DOCKED: ENDBRANCH   1  13
DOCKED: TORSDOF 6
DOCKED: TER
DOCKED: ENDMDL
________________________________________________________________________________


	BEGINNING GENETIC ALGORITHM DOCKING 22 of 100
Run: 22 Seed: 244891195 1145578051 [ Run 22 of 100 GA/GALS ]
Beginning LAMARCKIAN GENETIC ALGORITHM (LGA), with a maximum of 25000000 energy evaluations.

Final-Value: -6.917


	FINAL GENETIC ALGORITHM DOCKED STATE
	_______________________________________________


Detailed state:  trans 45.367 26.226 19.652 quatxyzw 0.215675 -0.542508 0.418169 0.695919 center 0.015 0.083 0.031 ntor 6 91.5260 11.1180 -55.1482 31.1183 41.3109 3.8515
State:	 45.367  26.226  19.652   0.300 -0.755  0.582 91.799     91.53   11.12  -55.15   31.12   41.31    3.85

DOCKED: MODEL       22
DOCKED: USER    Run = 22
DOCKED: USER    DPF = D:/Protein_go_brrr/autodock/final/2DN3/2_3_BPG/dock.dpf
DOCKED: USER  
DOCKED: USER    Estimated Free Energy of Binding    =   -7.26 kcal/mol  [=(1)+(2)+(3)-(4)]
DOCKED: USER    Estimated Inhibition Constant, Ki   =    4.76 uM (micromolar)  [Temperature = 298.15 K]
DOCKED: USER    
DOCKED: USER    (1) Final Intermolecular Energy     =   -9.05 kcal/mol
DOCKED: USER        vdW + Hbond + desolv Energy     =   -3.46 kcal/mol
DOCKED: USER        Electrostatic Energy            =   -5.59 kcal/mol
DOCKED: USER    (2) Final Total Internal Energy     =   +2.13 kcal/mol
DOCKED: USER    (3) Torsional Free Energy           =   +1.79 kcal/mol
DOCKED: USER    (4) Unbound System's Energy  [=(2)] =   +2.13 kcal/mol
DOCKED: USER    
DOCKED: USER    
DOCKED: USER    NEWDPF move 2_3_BPG_opt.pdbqt
DOCKED: USER    NEWDPF about 0.015000 0.083000 0.031000
DOCKED: USER    NEWDPF tran0 45.366801 26.226475 19.652404
DOCKED: USER    NEWDPF quaternion0 0.215675 -0.542508 0.418169 0.695919
DOCKED: USER    NEWDPF axisangle0 0.300333 -0.755456 0.582311 91.798971
DOCKED: USER    NEWDPF quat0 0.300333 -0.755456 0.582311 91.798971
DOCKED: USER    NEWDPF dihe0 91.53 11.12 -55.15 31.12 41.31 3.85 
DOCKED: USER  keepresnum = 1 
DOCKED: USER  
DOCKED: REMARK  6 active torsions:
DOCKED: REMARK  status: ('A' for Active; 'I' for Inactive)
DOCKED: REMARK    1  A    between atoms: P_1  and  O_3 
DOCKED: REMARK    2  A    between atoms: P_2  and  O_4 
DOCKED: REMARK    3  A    between atoms: O_3  and  C_13 
DOCKED: REMARK    4  A    between atoms: O_4  and  C_14 
DOCKED: REMARK    5  A    between atoms: C_13  and  C_14 
DOCKED: REMARK    6  A    between atoms: C_13  and  C_15 
DOCKED: USER                              x       y       z     vdW  Elec       q    Type
DOCKED: USER                           _______ _______ _______ _____ _____    ______ ____
DOCKED: ROOT
DOCKED: ATOM      1  C   UNL d   1      45.309  26.517  20.254 -0.14 +0.14    +0.193 C 
DOCKED: ENDROOT
DOCKED: BRANCH   1   2
DOCKED: ATOM      2  O   UNL d   1      44.921  27.917  20.051 -0.10 -0.29    -0.356 OA
DOCKED: BRANCH   2   3
DOCKED: ATOM      3  P   UNL d   1      45.981  29.171  20.145 -0.25 -0.01    -0.014 P 
DOCKED: ATOM      4  O   UNL d   1      45.099  30.426  20.047 -0.05 -0.41    -0.577 OA
DOCKED: ATOM      5  O   UNL d   1      46.927  29.053  18.952 -0.00 -0.30    -0.577 OA
DOCKED: ATOM      6  O   UNL d   1      46.689  29.088  21.494 -0.46 -1.29    -0.638 OA
DOCKED: ENDBRANCH   2   3
DOCKED: ENDBRANCH   1   2
DOCKED: BRANCH   1   7
DOCKED: ATOM      7  C   UNL d   1      45.166  25.750  18.888 -0.14 +0.11    +0.201 C 
DOCKED: BRANCH   7   8
DOCKED: ATOM      8  O   UNL d   1      45.848  24.479  18.804 -0.06 -0.23    -0.364 OA
DOCKED: BRANCH   8   9
DOCKED: ATOM      9  P   UNL d   1      46.720  24.093  17.452 -0.27 -0.02    -0.015 P 
DOCKED: ATOM     10  O   UNL d   1      48.108  23.699  17.972 -0.01 -0.64    -0.577 OA
DOCKED: ATOM     11  O   UNL d   1      46.772  25.349  16.581 -0.15 -0.50    -0.577 OA
DOCKED: ATOM     12  O   UNL d   1      46.008  22.924  16.774 -0.33 -1.14    -0.638 OA
DOCKED: ENDBRANCH   8   9
DOCKED: ENDBRANCH   7   8
DOCKED: ENDBRANCH   1   7
DOCKED: BRANCH   1  13
DOCKED: ATOM     13  C   UNL d   1      44.360  25.841  21.313 -0.29 +0.06    +0.073 C 
DOCKED: ATOM     14  O   UNL d   1      44.057  24.606  21.162 -0.57 -0.34    -0.547 OA
DOCKED: ATOM     15  O   UNL d   1      43.994  26.562  22.310 -0.64 -0.72    -0.547 OA
DOCKED: ENDBRANCH   1  13
DOCKED: TORSDOF 6
DOCKED: TER
DOCKED: ENDMDL
________________________________________________________________________________


	BEGINNING GENETIC ALGORITHM DOCKING 23 of 100
Run: 23 Seed: 1336135806 1448613511 [ Run 23 of 100 GA/GALS ]
Beginning LAMARCKIAN GENETIC ALGORITHM (LGA), with a maximum of 25000000 energy evaluations.

Final-Value: -6.728


	FINAL GENETIC ALGORITHM DOCKED STATE
	_______________________________________________


Detailed state:  trans 46.093 26.474 20.312 quatxyzw 0.802107 0.005369 -0.580593 -0.139669 center 0.015 0.083 0.031 ntor 6 153.2537 -82.0507 -80.8033 6.8823 -13.1592 -63.7416
State:	 46.093  26.474  20.312   0.810  0.005 -0.586 -163.943    153.25  -82.05  -80.80    6.88  -13.16  -63.74

DOCKED: MODEL       23
DOCKED: USER    Run = 23
DOCKED: USER    DPF = D:/Protein_go_brrr/autodock/final/2DN3/2_3_BPG/dock.dpf
DOCKED: USER  
DOCKED: USER    Estimated Free Energy of Binding    =   -6.89 kcal/mol  [=(1)+(2)+(3)-(4)]
DOCKED: USER    Estimated Inhibition Constant, Ki   =    8.85 uM (micromolar)  [Temperature = 298.15 K]
DOCKED: USER    
DOCKED: USER    (1) Final Intermolecular Energy     =   -8.68 kcal/mol
DOCKED: USER        vdW + Hbond + desolv Energy     =   -2.78 kcal/mol
DOCKED: USER        Electrostatic Energy            =   -5.90 kcal/mol
DOCKED: USER    (2) Final Total Internal Energy     =   +1.96 kcal/mol
DOCKED: USER    (3) Torsional Free Energy           =   +1.79 kcal/mol
DOCKED: USER    (4) Unbound System's Energy  [=(2)] =   +1.96 kcal/mol
DOCKED: USER    
DOCKED: USER    
DOCKED: USER    NEWDPF move 2_3_BPG_opt.pdbqt
DOCKED: USER    NEWDPF about 0.015000 0.083000 0.031000
DOCKED: USER    NEWDPF tran0 46.092555 26.474309 20.311844
DOCKED: USER    NEWDPF quaternion0 0.802107 0.005369 -0.580593 -0.139669
DOCKED: USER    NEWDPF axisangle0 0.810047 0.005422 -0.586340 -163.942577
DOCKED: USER    NEWDPF quat0 0.810047 0.005422 -0.586340 -163.942577
DOCKED: USER    NEWDPF dihe0 153.25 -82.05 -80.80 6.88 -13.16 -63.74 
DOCKED: USER  keepresnum = 1 
DOCKED: USER  
DOCKED: REMARK  6 active torsions:
DOCKED: REMARK  status: ('A' for Active; 'I' for Inactive)
DOCKED: REMARK    1  A    between atoms: P_1  and  O_3 
DOCKED: REMARK    2  A    between atoms: P_2  and  O_4 
DOCKED: REMARK    3  A    between atoms: O_3  and  C_13 
DOCKED: REMARK    4  A    between atoms: O_4  and  C_14 
DOCKED: REMARK    5  A    between atoms: C_13  and  C_14 
DOCKED: REMARK    6  A    between atoms: C_13  and  C_15 
DOCKED: USER                              x       y       z     vdW  Elec       q    Type
DOCKED: USER                           _______ _______ _______ _____ _____    ______ ____
DOCKED: ROOT
DOCKED: ATOM      1  C   UNL d   1      45.762  26.843  20.764 -0.14 +0.18    +0.193 C 
DOCKED: ENDROOT
DOCKED: BRANCH   1   2
DOCKED: ATOM      2  O   UNL d   1      46.154  26.385  22.102 -0.08 -0.45    -0.356 OA
DOCKED: BRANCH   2   3
DOCKED: ATOM      3  P   UNL d   1      45.073  25.904  23.244 -0.25 -0.02    -0.014 P 
DOCKED: ATOM      4  O   UNL d   1      44.987  24.380  23.072 -0.04 -0.35    -0.577 OA
DOCKED: ATOM      5  O   UNL d   1      43.743  26.583  22.923 -0.74 -0.83    -0.577 OA
DOCKED: ATOM      6  O   UNL d   1      45.634  26.282  24.611 +0.06 -0.98    -0.638 OA
DOCKED: ENDBRANCH   2   3
DOCKED: ENDBRANCH   1   2
DOCKED: BRANCH   1   7
DOCKED: ATOM      7  C   UNL d   1      46.732  26.200  19.706 -0.06 +0.13    +0.201 C 
DOCKED: BRANCH   7   8
DOCKED: ATOM      8  O   UNL d   1      46.262  24.989  19.073 -0.04 -0.22    -0.364 OA
DOCKED: BRANCH   8   9
DOCKED: ATOM      9  P   UNL d   1      47.073  24.363  17.774 -0.26 -0.01    -0.015 P 
DOCKED: ATOM     10  O   UNL d   1      47.901  23.204  18.342 -0.02 -0.61    -0.577 OA
DOCKED: ATOM     11  O   UNL d   1      47.959  25.480  17.221 -0.08 -0.46    -0.577 OA
DOCKED: ATOM     12  O   UNL d   1      46.022  23.882  16.774 -0.46 -0.83    -0.638 OA
DOCKED: ENDBRANCH   8   9
DOCKED: ENDBRANCH   7   8
DOCKED: ENDBRANCH   1   7
DOCKED: BRANCH   1  13
DOCKED: ATOM     13  C   UNL d   1      45.883  28.410  20.672 -0.15 +0.09    +0.073 C 
DOCKED: ATOM     14  O   UNL d   1      45.133  29.033  19.842 -0.06 -0.43    -0.547 OA
DOCKED: ATOM     15  O   UNL d   1      46.690  28.980  21.491 -0.47 -1.10    -0.547 OA
DOCKED: ENDBRANCH   1  13
DOCKED: TORSDOF 6
DOCKED: TER
DOCKED: ENDMDL
________________________________________________________________________________


	BEGINNING GENETIC ALGORITHM DOCKING 24 of 100
Run: 24 Seed: 889595157 1948050019 [ Run 24 of 100 GA/GALS ]
Beginning LAMARCKIAN GENETIC ALGORITHM (LGA), with a maximum of 25000000 energy evaluations.

Final-Value: -6.759


	FINAL GENETIC ALGORITHM DOCKED STATE
	_______________________________________________


Detailed state:  trans 50.289 21.278 4.156 quatxyzw 0.766630 -0.576182 0.252906 0.127792 center 0.015 0.083 0.031 ntor 6 159.1039 177.6247 120.8691 6.0095 55.8440 -30.7783
State:	 50.289  21.278   4.156   0.773 -0.581  0.255 165.316    159.10  177.62  120.87    6.01   55.84  -30.78

DOCKED: MODEL       24
DOCKED: USER    Run = 24
DOCKED: USER    DPF = D:/Protein_go_brrr/autodock/final/2DN3/2_3_BPG/dock.dpf
DOCKED: USER  
DOCKED: USER    Estimated Free Energy of Binding    =   -7.17 kcal/mol  [=(1)+(2)+(3)-(4)]
DOCKED: USER    Estimated Inhibition Constant, Ki   =    5.60 uM (micromolar)  [Temperature = 298.15 K]
DOCKED: USER    
DOCKED: USER    (1) Final Intermolecular Energy     =   -8.95 kcal/mol
DOCKED: USER        vdW + Hbond + desolv Energy     =   -3.97 kcal/mol
DOCKED: USER        Electrostatic Energy            =   -4.99 kcal/mol
DOCKED: USER    (2) Final Total Internal Energy     =   +2.20 kcal/mol
DOCKED: USER    (3) Torsional Free Energy           =   +1.79 kcal/mol
DOCKED: USER    (4) Unbound System's Energy  [=(2)] =   +2.20 kcal/mol
DOCKED: USER    
DOCKED: USER    
DOCKED: USER    NEWDPF move 2_3_BPG_opt.pdbqt
DOCKED: USER    NEWDPF about 0.015000 0.083000 0.031000
DOCKED: USER    NEWDPF tran0 50.289151 21.277548 4.156000
DOCKED: USER    NEWDPF quaternion0 0.766630 -0.576182 0.252906 0.127792
DOCKED: USER    NEWDPF axisangle0 0.772968 -0.580945 0.254997 165.315975
DOCKED: USER    NEWDPF quat0 0.772968 -0.580945 0.254997 165.315975
DOCKED: USER    NEWDPF dihe0 159.10 177.62 120.87 6.01 55.84 -30.78 
DOCKED: USER  keepresnum = 1 
DOCKED: USER  
DOCKED: REMARK  6 active torsions:
DOCKED: REMARK  status: ('A' for Active; 'I' for Inactive)
DOCKED: REMARK    1  A    between atoms: P_1  and  O_3 
DOCKED: REMARK    2  A    between atoms: P_2  and  O_4 
DOCKED: REMARK    3  A    between atoms: O_3  and  C_13 
DOCKED: REMARK    4  A    between atoms: O_4  and  C_14 
DOCKED: REMARK    5  A    between atoms: C_13  and  C_14 
DOCKED: REMARK    6  A    between atoms: C_13  and  C_15 
DOCKED: USER                              x       y       z     vdW  Elec       q    Type
DOCKED: USER                           _______ _______ _______ _____ _____    ______ ____
DOCKED: ROOT
DOCKED: ATOM      1  C   UNL d   1      50.472  21.919   4.089 -0.20 +0.19    +0.193 C 
DOCKED: ENDROOT
DOCKED: BRANCH   1   2
DOCKED: ATOM      2  O   UNL d   1      49.256  22.734   3.987 -0.21 -0.46    -0.356 OA
DOCKED: BRANCH   2   3
DOCKED: ATOM      3  P   UNL d   1      48.977  23.788   2.757 -0.48 -0.02    -0.014 P 
DOCKED: ATOM      4  O   UNL d   1      50.286  23.795   1.953 -0.23 -0.66    -0.577 OA
DOCKED: ATOM      5  O   UNL d   1      48.696  25.152   3.385 -0.41 -0.76    -0.577 OA
DOCKED: ATOM      6  O   UNL d   1      47.815  23.249   1.929 -0.30 -0.73    -0.638 OA
DOCKED: ENDBRANCH   2   3
DOCKED: ENDBRANCH   1   2
DOCKED: BRANCH   1   7
DOCKED: ATOM      7  C   UNL d   1      50.070  20.465   4.535 -0.08 +0.20    +0.201 C 
DOCKED: BRANCH   7   8
DOCKED: ATOM      8  O   UNL d   1      50.590  19.390   3.723 -0.06 -0.26    -0.364 OA
DOCKED: BRANCH   8   9
DOCKED: ATOM      9  P   UNL d   1      49.555  18.336   2.979 -0.08 -0.01    -0.015 P 
DOCKED: ATOM     10  O   UNL d   1      48.709  17.742   4.111 -0.58 -0.58    -0.577 OA
DOCKED: ATOM     11  O   UNL d   1      50.415  17.276   2.292 +0.01 -0.23    -0.577 OA
DOCKED: ATOM     12  O   UNL d   1      48.711  19.150   1.998 -0.58 -0.71    -0.638 OA
DOCKED: ENDBRANCH   8   9
DOCKED: ENDBRANCH   7   8
DOCKED: ENDBRANCH   1   7
DOCKED: BRANCH   1  13
DOCKED: ATOM     13  C   UNL d   1      51.441  22.528   5.170 -0.20 +0.07    +0.073 C 
DOCKED: ATOM     14  O   UNL d   1      52.705  22.413   4.992 -0.04 -0.47    -0.547 OA
DOCKED: ATOM     15  O   UNL d   1      50.900  23.166   6.144 -0.53 -0.56    -0.547 OA
DOCKED: ENDBRANCH   1  13
DOCKED: TORSDOF 6
DOCKED: TER
DOCKED: ENDMDL
________________________________________________________________________________


	BEGINNING GENETIC ALGORITHM DOCKING 25 of 100
Run: 25 Seed: 1730431408 185177544 [ Run 25 of 100 GA/GALS ]
Beginning LAMARCKIAN GENETIC ALGORITHM (LGA), with a maximum of 25000000 energy evaluations.

Final-Value: -6.801


	FINAL GENETIC ALGORITHM DOCKED STATE
	_______________________________________________


Detailed state:  trans 46.247 26.676 19.898 quatxyzw -0.844552 -0.009643 0.534463 -0.031431 center 0.015 0.083 0.031 ntor 6 175.5797 10.5377 -89.1077 6.9800 9.5111 -73.7150
State:	 46.247  26.676  19.898  -0.845 -0.010  0.535 -176.398    175.58   10.54  -89.11    6.98    9.51  -73.72

DOCKED: MODEL       25
DOCKED: USER    Run = 25
DOCKED: USER    DPF = D:/Protein_go_brrr/autodock/final/2DN3/2_3_BPG/dock.dpf
DOCKED: USER  
DOCKED: USER    Estimated Free Energy of Binding    =   -7.03 kcal/mol  [=(1)+(2)+(3)-(4)]
DOCKED: USER    Estimated Inhibition Constant, Ki   =    6.99 uM (micromolar)  [Temperature = 298.15 K]
DOCKED: USER    
DOCKED: USER    (1) Final Intermolecular Energy     =   -8.82 kcal/mol
DOCKED: USER        vdW + Hbond + desolv Energy     =   -3.18 kcal/mol
DOCKED: USER        Electrostatic Energy            =   -5.64 kcal/mol
DOCKED: USER    (2) Final Total Internal Energy     =   +2.02 kcal/mol
DOCKED: USER    (3) Torsional Free Energy           =   +1.79 kcal/mol
DOCKED: USER    (4) Unbound System's Energy  [=(2)] =   +2.02 kcal/mol
DOCKED: USER    
DOCKED: USER    
DOCKED: USER    NEWDPF move 2_3_BPG_opt.pdbqt
DOCKED: USER    NEWDPF about 0.015000 0.083000 0.031000
DOCKED: USER    NEWDPF tran0 46.246835 26.675708 19.897790
DOCKED: USER    NEWDPF quaternion0 -0.844552 -0.009643 0.534463 -0.031431
DOCKED: USER    NEWDPF axisangle0 -0.844969 -0.009648 0.534728 -176.397668
DOCKED: USER    NEWDPF quat0 -0.844969 -0.009648 0.534728 -176.397668
DOCKED: USER    NEWDPF dihe0 175.58 10.54 -89.11 6.98 9.51 -73.72 
DOCKED: USER  keepresnum = 1 
DOCKED: USER  
DOCKED: REMARK  6 active torsions:
DOCKED: REMARK  status: ('A' for Active; 'I' for Inactive)
DOCKED: REMARK    1  A    between atoms: P_1  and  O_3 
DOCKED: REMARK    2  A    between atoms: P_2  and  O_4 
DOCKED: REMARK    3  A    between atoms: O_3  and  C_13 
DOCKED: REMARK    4  A    between atoms: O_4  and  C_14 
DOCKED: REMARK    5  A    between atoms: C_13  and  C_14 
DOCKED: REMARK    6  A    between atoms: C_13  and  C_15 
DOCKED: USER                              x       y       z     vdW  Elec       q    Type
DOCKED: USER                           _______ _______ _______ _____ _____    ______ ____
DOCKED: ROOT
DOCKED: ATOM      1  C   UNL d   1      45.917  26.962  20.407 -0.12 +0.17    +0.193 C 
DOCKED: ENDROOT
DOCKED: BRANCH   1   2
DOCKED: ATOM      2  O   UNL d   1      46.034  26.086  21.578 -0.06 -0.35    -0.356 OA
DOCKED: BRANCH   2   3
DOCKED: ATOM      3  P   UNL d   1      44.737  25.525  22.419 -0.35 -0.01    -0.014 P 
DOCKED: ATOM      4  O   UNL d   1      45.349  24.804  23.630 -0.01 -0.42    -0.577 OA
DOCKED: ATOM      5  O   UNL d   1      43.990  24.555  21.506 -0.55 -0.36    -0.577 OA
DOCKED: ATOM      6  O   UNL d   1      43.899  26.725  22.847 -0.60 -1.07    -0.638 OA
DOCKED: ENDBRANCH   2   3
DOCKED: ENDBRANCH   1   2
DOCKED: BRANCH   1   7
DOCKED: ATOM      7  C   UNL d   1      46.916  26.461  19.299 -0.07 +0.12    +0.201 C 
DOCKED: BRANCH   7   8
DOCKED: ATOM      8  O   UNL d   1      46.421  25.419  18.429 -0.06 -0.23    -0.364 OA
DOCKED: BRANCH   8   9
DOCKED: ATOM      9  P   UNL d   1      47.464  24.599  17.441 -0.28 -0.02    -0.015 P 
DOCKED: ATOM     10  O   UNL d   1      47.881  23.359  18.242 -0.03 -0.62    -0.577 OA
DOCKED: ATOM     11  O   UNL d   1      48.647  25.528  17.171 -0.07 -0.44    -0.577 OA
DOCKED: ATOM     12  O   UNL d   1      46.691  24.231  16.175 -0.15 -1.10    -0.638 OA
DOCKED: ENDBRANCH   8   9
DOCKED: ENDBRANCH   7   8
DOCKED: ENDBRANCH   1   7
DOCKED: BRANCH   1  13
DOCKED: ATOM     13  C   UNL d   1      46.297  28.439  20.797 -0.12 +0.09    +0.073 C 
DOCKED: ATOM     14  O   UNL d   1      45.503  29.385  20.458 -0.13 -0.60    -0.547 OA
DOCKED: ATOM     15  O   UNL d   1      47.362  28.601  21.497 -0.57 -0.82    -0.547 OA
DOCKED: ENDBRANCH   1  13
DOCKED: TORSDOF 6
DOCKED: TER
DOCKED: ENDMDL
________________________________________________________________________________


	BEGINNING GENETIC ALGORITHM DOCKING 26 of 100
Run: 26 Seed: 2101913635 1034067752 [ Run 26 of 100 GA/GALS ]
Beginning LAMARCKIAN GENETIC ALGORITHM (LGA), with a maximum of 25000000 energy evaluations.

Final-Value: -6.709


	FINAL GENETIC ALGORITHM DOCKED STATE
	_______________________________________________


Detailed state:  trans 46.230 26.046 20.411 quatxyzw -0.820933 0.023077 0.558737 0.115540 center 0.015 0.083 0.031 ntor 6 165.1073 -63.4463 -167.0138 -10.0031 15.2356 -7.9008
State:	 46.230  26.046  20.411  -0.826  0.023  0.563 166.730    165.11  -63.45 -167.01  -10.00   15.24   -7.90

DOCKED: MODEL       26
DOCKED: USER    Run = 26
DOCKED: USER    DPF = D:/Protein_go_brrr/autodock/final/2DN3/2_3_BPG/dock.dpf
DOCKED: USER  
DOCKED: USER    Estimated Free Energy of Binding    =   -6.90 kcal/mol  [=(1)+(2)+(3)-(4)]
DOCKED: USER    Estimated Inhibition Constant, Ki   =    8.70 uM (micromolar)  [Temperature = 298.15 K]
DOCKED: USER    
DOCKED: USER    (1) Final Intermolecular Energy     =   -8.69 kcal/mol
DOCKED: USER        vdW + Hbond + desolv Energy     =   -2.68 kcal/mol
DOCKED: USER        Electrostatic Energy            =   -6.01 kcal/mol
DOCKED: USER    (2) Final Total Internal Energy     =   +1.98 kcal/mol
DOCKED: USER    (3) Torsional Free Energy           =   +1.79 kcal/mol
DOCKED: USER    (4) Unbound System's Energy  [=(2)] =   +1.98 kcal/mol
DOCKED: USER    
DOCKED: USER    
DOCKED: USER    NEWDPF move 2_3_BPG_opt.pdbqt
DOCKED: USER    NEWDPF about 0.015000 0.083000 0.031000
DOCKED: USER    NEWDPF tran0 46.230078 26.045503 20.411139
DOCKED: USER    NEWDPF quaternion0 -0.820933 0.023077 0.558737 0.115540
DOCKED: USER    NEWDPF axisangle0 -0.826468 0.023233 0.562504 166.730465
DOCKED: USER    NEWDPF quat0 -0.826468 0.023233 0.562504 166.730465
DOCKED: USER    NEWDPF dihe0 165.11 -63.45 -167.01 -10.00 15.24 -7.90 
DOCKED: USER  keepresnum = 1 
DOCKED: USER  
DOCKED: REMARK  6 active torsions:
DOCKED: REMARK  status: ('A' for Active; 'I' for Inactive)
DOCKED: REMARK    1  A    between atoms: P_1  and  O_3 
DOCKED: REMARK    2  A    between atoms: P_2  and  O_4 
DOCKED: REMARK    3  A    between atoms: O_3  and  C_13 
DOCKED: REMARK    4  A    between atoms: O_4  and  C_14 
DOCKED: REMARK    5  A    between atoms: C_13  and  C_14 
DOCKED: REMARK    6  A    between atoms: C_13  and  C_15 
DOCKED: USER                              x       y       z     vdW  Elec       q    Type
DOCKED: USER                           _______ _______ _______ _____ _____    ______ ____
DOCKED: ROOT
DOCKED: ATOM      1  C   UNL d   1      45.896  26.431  20.846 -0.12 +0.17    +0.193 C 
DOCKED: ENDROOT
DOCKED: BRANCH   1   2
DOCKED: ATOM      2  O   UNL d   1      46.169  25.936  22.200 -0.06 -0.37    -0.356 OA
DOCKED: BRANCH   2   3
DOCKED: ATOM      3  P   UNL d   1      45.038  25.899  23.393 -0.24 -0.02    -0.014 P 
DOCKED: ATOM      4  O   UNL d   1      44.790  24.403  23.639 -0.03 -0.34    -0.577 OA
DOCKED: ATOM      5  O   UNL d   1      43.789  26.594  22.853 -0.74 -0.84    -0.577 OA
DOCKED: ATOM      6  O   UNL d   1      45.628  26.579  24.623 +0.10 -1.17    -0.638 OA
DOCKED: ENDBRANCH   2   3
DOCKED: ENDBRANCH   1   2
DOCKED: BRANCH   1   7
DOCKED: ATOM      7  C   UNL d   1      46.888  25.734  19.844 -0.05 +0.12    +0.201 C 
DOCKED: BRANCH   7   8
DOCKED: ATOM      8  O   UNL d   1      46.409  25.576  18.490 -0.05 -0.22    -0.364 OA
DOCKED: BRANCH   8   9
DOCKED: ATOM      9  P   UNL d   1      47.132  24.487  17.476 -0.29 -0.02    -0.015 P 
DOCKED: ATOM     10  O   UNL d   1      47.969  23.585  18.390 -0.02 -0.55    -0.577 OA
DOCKED: ATOM     11  O   UNL d   1      48.004  25.288  16.510 -0.03 -0.57    -0.577 OA
DOCKED: ATOM     12  O   UNL d   1      46.016  23.715  16.774 -0.45 -0.89    -0.638 OA
DOCKED: ENDBRANCH   8   9
DOCKED: ENDBRANCH   7   8
DOCKED: ENDBRANCH   1   7
DOCKED: BRANCH   1  13
DOCKED: ATOM     13  C   UNL d   1      46.128  27.987  20.783 -0.15 +0.09    +0.073 C 
DOCKED: ATOM     14  O   UNL d   1      45.322  28.698  20.085 -0.07 -0.49    -0.547 OA
DOCKED: ATOM     15  O   UNL d   1      47.084  28.463  21.496 -0.49 -0.91    -0.547 OA
DOCKED: ENDBRANCH   1  13
DOCKED: TORSDOF 6
DOCKED: TER
DOCKED: ENDMDL
________________________________________________________________________________


	BEGINNING GENETIC ALGORITHM DOCKING 27 of 100
Run: 27 Seed: 77873899 1517773199 [ Run 27 of 100 GA/GALS ]
Beginning LAMARCKIAN GENETIC ALGORITHM (LGA), with a maximum of 25000000 energy evaluations.

Final-Value: -6.608


	FINAL GENETIC ALGORITHM DOCKED STATE
	_______________________________________________


Detailed state:  trans 2.524 42.974 -1.835 quatxyzw 0.579069 0.007900 -0.276394 0.766957 center 0.015 0.083 0.031 ntor 6 -28.2195 2.2585 147.3849 -6.8999 47.1788 -11.5453
State:	  2.524  42.974  -1.835   0.902  0.012 -0.431 79.837    -28.22    2.26  147.38   -6.90   47.18  -11.55

DOCKED: MODEL       27
DOCKED: USER    Run = 27
DOCKED: USER    DPF = D:/Protein_go_brrr/autodock/final/2DN3/2_3_BPG/dock.dpf
DOCKED: USER  
DOCKED: USER    Estimated Free Energy of Binding    =   -6.93 kcal/mol  [=(1)+(2)+(3)-(4)]
DOCKED: USER    Estimated Inhibition Constant, Ki   =    8.28 uM (micromolar)  [Temperature = 298.15 K]
DOCKED: USER    
DOCKED: USER    (1) Final Intermolecular Energy     =   -8.72 kcal/mol
DOCKED: USER        vdW + Hbond + desolv Energy     =   -3.42 kcal/mol
DOCKED: USER        Electrostatic Energy            =   -5.30 kcal/mol
DOCKED: USER    (2) Final Total Internal Energy     =   +2.11 kcal/mol
DOCKED: USER    (3) Torsional Free Energy           =   +1.79 kcal/mol
DOCKED: USER    (4) Unbound System's Energy  [=(2)] =   +2.11 kcal/mol
DOCKED: USER    
DOCKED: USER    
DOCKED: USER    NEWDPF move 2_3_BPG_opt.pdbqt
DOCKED: USER    NEWDPF about 0.015000 0.083000 0.031000
DOCKED: USER    NEWDPF tran0 2.523579 42.974472 -1.834803
DOCKED: USER    NEWDPF quaternion0 0.579069 0.007900 -0.276394 0.766957
DOCKED: USER    NEWDPF axisangle0 0.902400 0.012311 -0.430723 79.837109
DOCKED: USER    NEWDPF quat0 0.902400 0.012311 -0.430723 79.837109
DOCKED: USER    NEWDPF dihe0 -28.22 2.26 147.38 -6.90 47.18 -11.55 
DOCKED: USER  keepresnum = 1 
DOCKED: USER  
DOCKED: REMARK  6 active torsions:
DOCKED: REMARK  status: ('A' for Active; 'I' for Inactive)
DOCKED: REMARK    1  A    between atoms: P_1  and  O_3 
DOCKED: REMARK    2  A    between atoms: P_2  and  O_4 
DOCKED: REMARK    3  A    between atoms: O_3  and  C_13 
DOCKED: REMARK    4  A    between atoms: O_4  and  C_14 
DOCKED: REMARK    5  A    between atoms: C_13  and  C_14 
DOCKED: REMARK    6  A    between atoms: C_13  and  C_15 
DOCKED: USER                              x       y       z     vdW  Elec       q    Type
DOCKED: USER                           _______ _______ _______ _____ _____    ______ ____
DOCKED: ROOT
DOCKED: ATOM      1  C   UNL d   1       2.126  42.748  -1.345 -0.13 +0.14    +0.193 C 
DOCKED: ENDROOT
DOCKED: BRANCH   1   2
DOCKED: ATOM      2  O   UNL d   1       1.119  41.866  -1.946 -0.04 -0.34    -0.356 OA
DOCKED: BRANCH   2   3
DOCKED: ATOM      3  P   UNL d   1      -0.462  41.860  -1.493 -0.05 -0.01    -0.014 P 
DOCKED: ATOM      4  O   UNL d   1      -1.122  40.824  -2.417 -0.03 -0.46    -0.577 OA
DOCKED: ATOM      5  O   UNL d   1      -1.009  43.264  -1.742 +0.01 -0.29    -0.577 OA
DOCKED: ATOM      6  O   UNL d   1      -0.532  41.431  -0.031 -0.39 -1.23    -0.638 OA
DOCKED: ENDBRANCH   2   3
DOCKED: ENDBRANCH   1   2
DOCKED: BRANCH   1   7
DOCKED: ATOM      7  C   UNL d   1       3.234  43.054  -2.419 -0.15 +0.10    +0.201 C 
DOCKED: BRANCH   7   8
DOCKED: ATOM      8  O   UNL d   1       3.856  44.355  -2.330 -0.17 -0.21    -0.364 OA
DOCKED: BRANCH   8   9
DOCKED: ATOM      9  P   UNL d   1       3.973  45.313  -3.673 -0.40 -0.01    -0.015 P 
DOCKED: ATOM     10  O   UNL d   1       4.082  44.337  -4.851 -0.05 -0.28    -0.577 OA
DOCKED: ATOM     11  O   UNL d   1       5.237  46.156  -3.511 -0.40 -0.64    -0.577 OA
DOCKED: ATOM     12  O   UNL d   1       2.698  46.153  -3.741 -0.06 -0.66    -0.638 OA
DOCKED: ENDBRANCH   8   9
DOCKED: ENDBRANCH   7   8
DOCKED: ENDBRANCH   1   7
DOCKED: BRANCH   1  13
DOCKED: ATOM     13  C   UNL d   1       2.800  42.037  -0.113 -0.36 +0.08    +0.073 C 
DOCKED: ATOM     14  O   UNL d   1       2.817  40.756  -0.080 -0.99 -1.13    -0.547 OA
DOCKED: ATOM     15  O   UNL d   1       3.356  42.793   0.763 -0.20 -0.36    -0.547 OA
DOCKED: ENDBRANCH   1  13
DOCKED: TORSDOF 6
DOCKED: TER
DOCKED: ENDMDL
________________________________________________________________________________


	BEGINNING GENETIC ALGORITHM DOCKING 28 of 100
Run: 28 Seed: 1739179850 1373422106 [ Run 28 of 100 GA/GALS ]
Beginning LAMARCKIAN GENETIC ALGORITHM (LGA), with a maximum of 25000000 energy evaluations.

Final-Value: -6.786


	FINAL GENETIC ALGORITHM DOCKED STATE
	_______________________________________________


Detailed state:  trans 45.503 25.948 19.942 quatxyzw 0.262416 -0.491881 0.450204 0.697501 center 0.015 0.083 0.031 ntor 6 -97.2534 19.9146 -99.8677 26.4765 34.9136 -3.3916
State:	 45.503  25.948  19.942   0.366 -0.686  0.628 91.546    -97.25   19.91  -99.87   26.48   34.91   -3.39

DOCKED: MODEL       28
DOCKED: USER    Run = 28
DOCKED: USER    DPF = D:/Protein_go_brrr/autodock/final/2DN3/2_3_BPG/dock.dpf
DOCKED: USER  
DOCKED: USER    Estimated Free Energy of Binding    =   -7.10 kcal/mol  [=(1)+(2)+(3)-(4)]
DOCKED: USER    Estimated Inhibition Constant, Ki   =    6.24 uM (micromolar)  [Temperature = 298.15 K]
DOCKED: USER    
DOCKED: USER    (1) Final Intermolecular Energy     =   -8.89 kcal/mol
DOCKED: USER        vdW + Hbond + desolv Energy     =   -3.45 kcal/mol
DOCKED: USER        Electrostatic Energy            =   -5.44 kcal/mol
DOCKED: USER    (2) Final Total Internal Energy     =   +2.10 kcal/mol
DOCKED: USER    (3) Torsional Free Energy           =   +1.79 kcal/mol
DOCKED: USER    (4) Unbound System's Energy  [=(2)] =   +2.10 kcal/mol
DOCKED: USER    
DOCKED: USER    
DOCKED: USER    NEWDPF move 2_3_BPG_opt.pdbqt
DOCKED: USER    NEWDPF about 0.015000 0.083000 0.031000
DOCKED: USER    NEWDPF tran0 45.502524 25.947823 19.941983
DOCKED: USER    NEWDPF quaternion0 0.262416 -0.491881 0.450204 0.697501
DOCKED: USER    NEWDPF axisangle0 0.366204 -0.686425 0.628264 91.546296
DOCKED: USER    NEWDPF quat0 0.366204 -0.686425 0.628264 91.546296
DOCKED: USER    NEWDPF dihe0 -97.25 19.91 -99.87 26.48 34.91 -3.39 
DOCKED: USER  keepresnum = 1 
DOCKED: USER  
DOCKED: REMARK  6 active torsions:
DOCKED: REMARK  status: ('A' for Active; 'I' for Inactive)
DOCKED: REMARK    1  A    between atoms: P_1  and  O_3 
DOCKED: REMARK    2  A    between atoms: P_2  and  O_4 
DOCKED: REMARK    3  A    between atoms: O_3  and  C_13 
DOCKED: REMARK    4  A    between atoms: O_4  and  C_14 
DOCKED: REMARK    5  A    between atoms: C_13  and  C_14 
DOCKED: REMARK    6  A    between atoms: C_13  and  C_15 
DOCKED: USER                              x       y       z     vdW  Elec       q    Type
DOCKED: USER                           _______ _______ _______ _____ _____    ______ ____
DOCKED: ROOT
DOCKED: ATOM      1  C   UNL d   1      45.408  26.317  20.493 -0.14 +0.15    +0.193 C 
DOCKED: ENDROOT
DOCKED: BRANCH   1   2
DOCKED: ATOM      2  O   UNL d   1      44.994  27.662  20.077 -0.10 -0.29    -0.356 OA
DOCKED: BRANCH   2   3
DOCKED: ATOM      3  P   UNL d   1      45.984  28.973  20.144 -0.25 -0.01    -0.014 P 
DOCKED: ATOM      4  O   UNL d   1      45.037  30.176  20.013 -0.06 -0.42    -0.577 OA
DOCKED: ATOM      5  O   UNL d   1      46.940  28.880  18.957 +0.00 -0.31    -0.577 OA
DOCKED: ATOM      6  O   UNL d   1      46.691  28.961  21.496 -0.45 -1.29    -0.638 OA
DOCKED: ENDBRANCH   2   3
DOCKED: ENDBRANCH   1   2
DOCKED: BRANCH   1   7
DOCKED: ATOM      7  C   UNL d   1      45.352  25.362  19.244 -0.12 +0.11    +0.201 C 
DOCKED: BRANCH   7   8
DOCKED: ATOM      8  O   UNL d   1      46.198  24.193  19.306 -0.06 -0.23    -0.364 OA
DOCKED: BRANCH   8   9
DOCKED: ATOM      9  P   UNL d   1      46.973  23.657  17.946 -0.17 -0.02    -0.015 P 
DOCKED: ATOM     10  O   UNL d   1      48.231  24.526  17.835 -0.04 -0.53    -0.577 OA
DOCKED: ATOM     11  O   UNL d   1      46.020  23.880  16.773 -0.49 -0.75    -0.577 OA
DOCKED: ATOM     12  O   UNL d   1      47.311  22.184  18.171 -0.04 -0.81    -0.638 OA
DOCKED: ENDBRANCH   8   9
DOCKED: ENDBRANCH   7   8
DOCKED: ENDBRANCH   1   7
DOCKED: BRANCH   1  13
DOCKED: ATOM     13  C   UNL d   1      44.426  25.767  21.594 -0.29 +0.06    +0.073 C 
DOCKED: ATOM     14  O   UNL d   1      44.061  26.554  22.536 -0.67 -0.78    -0.547 OA
DOCKED: ATOM     15  O   UNL d   1      43.996  24.567  21.443 -0.57 -0.34    -0.547 OA
DOCKED: ENDBRANCH   1  13
DOCKED: TORSDOF 6
DOCKED: TER
DOCKED: ENDMDL
________________________________________________________________________________


	BEGINNING GENETIC ALGORITHM DOCKING 29 of 100
Run: 29 Seed: 1643146038 2034942801 [ Run 29 of 100 GA/GALS ]
Beginning LAMARCKIAN GENETIC ALGORITHM (LGA), with a maximum of 25000000 energy evaluations.

Final-Value: -6.815


	FINAL GENETIC ALGORITHM DOCKED STATE
	_______________________________________________


Detailed state:  trans 46.108 26.207 20.282 quatxyzw -0.816944 0.019546 0.572515 0.066682 center 0.015 0.083 0.031 ntor 6 167.8534 60.6461 -136.6445 -11.2381 -2.6855 -44.7431
State:	 46.108  26.207  20.282  -0.819  0.020  0.574 172.353    167.85   60.65 -136.64  -11.24   -2.69  -44.74

DOCKED: MODEL       29
DOCKED: USER    Run = 29
DOCKED: USER    DPF = D:/Protein_go_brrr/autodock/final/2DN3/2_3_BPG/dock.dpf
DOCKED: USER  
DOCKED: USER    Estimated Free Energy of Binding    =   -7.01 kcal/mol  [=(1)+(2)+(3)-(4)]
DOCKED: USER    Estimated Inhibition Constant, Ki   =    7.22 uM (micromolar)  [Temperature = 298.15 K]
DOCKED: USER    
DOCKED: USER    (1) Final Intermolecular Energy     =   -8.80 kcal/mol
DOCKED: USER        vdW + Hbond + desolv Energy     =   -2.63 kcal/mol
DOCKED: USER        Electrostatic Energy            =   -6.17 kcal/mol
DOCKED: USER    (2) Final Total Internal Energy     =   +1.99 kcal/mol
DOCKED: USER    (3) Torsional Free Energy           =   +1.79 kcal/mol
DOCKED: USER    (4) Unbound System's Energy  [=(2)] =   +1.99 kcal/mol
DOCKED: USER    
DOCKED: USER    
DOCKED: USER    NEWDPF move 2_3_BPG_opt.pdbqt
DOCKED: USER    NEWDPF about 0.015000 0.083000 0.031000
DOCKED: USER    NEWDPF tran0 46.107770 26.207454 20.282354
DOCKED: USER    NEWDPF quaternion0 -0.816944 0.019546 0.572515 0.066682
DOCKED: USER    NEWDPF axisangle0 -0.818766 0.019590 0.573792 172.353145
DOCKED: USER    NEWDPF quat0 -0.818766 0.019590 0.573792 172.353145
DOCKED: USER    NEWDPF dihe0 167.85 60.65 -136.64 -11.24 -2.69 -44.74 
DOCKED: USER  keepresnum = 1 
DOCKED: USER  
DOCKED: REMARK  6 active torsions:
DOCKED: REMARK  status: ('A' for Active; 'I' for Inactive)
DOCKED: REMARK    1  A    between atoms: P_1  and  O_3 
DOCKED: REMARK    2  A    between atoms: P_2  and  O_4 
DOCKED: REMARK    3  A    between atoms: O_3  and  C_13 
DOCKED: REMARK    4  A    between atoms: O_4  and  C_14 
DOCKED: REMARK    5  A    between atoms: C_13  and  C_14 
DOCKED: REMARK    6  A    between atoms: C_13  and  C_15 
DOCKED: USER                              x       y       z     vdW  Elec       q    Type
DOCKED: USER                           _______ _______ _______ _____ _____    ______ ____
DOCKED: ROOT
DOCKED: ATOM      1  C   UNL d   1      45.805  26.572  20.757 -0.13 +0.17    +0.193 C 
DOCKED: ENDROOT
DOCKED: BRANCH   1   2
DOCKED: ATOM      2  O   UNL d   1      46.083  25.951  22.057 -0.06 -0.36    -0.356 OA
DOCKED: BRANCH   2   3
DOCKED: ATOM      3  P   UNL d   1      44.989  25.897  23.284 -0.26 -0.02    -0.014 P 
DOCKED: ATOM      4  O   UNL d   1      45.704  26.573  24.464 +0.14 -1.09    -0.577 OA
DOCKED: ATOM      5  O   UNL d   1      44.702  24.424  23.570 -0.03 -0.35    -0.577 OA
DOCKED: ATOM      6  O   UNL d   1      43.756  26.683  22.851 -0.62 -0.99    -0.638 OA
DOCKED: ENDBRANCH   2   3
DOCKED: ENDBRANCH   1   2
DOCKED: BRANCH   1   7
DOCKED: ATOM      7  C   UNL d   1      46.735  25.911  19.673 -0.06 +0.12    +0.201 C 
DOCKED: BRANCH   7   8
DOCKED: ATOM      8  O   UNL d   1      46.062  25.152  18.644 -0.05 -0.22    -0.364 OA
DOCKED: BRANCH   8   9
DOCKED: ATOM      9  P   UNL d   1      46.940  24.406  17.457 -0.29 -0.02    -0.015 P 
DOCKED: ATOM     10  O   UNL d   1      48.096  23.715  18.190 -0.03 -0.58    -0.577 OA
DOCKED: ATOM     11  O   UNL d   1      47.435  25.501  16.513 -0.08 -0.51    -0.577 OA
DOCKED: ATOM     12  O   UNL d   1      46.012  23.402  16.774 -0.43 -1.00    -0.638 OA
DOCKED: ENDBRANCH   8   9
DOCKED: ENDBRANCH   7   8
DOCKED: ENDBRANCH   1   7
DOCKED: BRANCH   1  13
DOCKED: ATOM     13  C   UNL d   1      46.118  28.114  20.817 -0.14 +0.09    +0.073 C 
DOCKED: ATOM     14  O   UNL d   1      45.306  28.925  20.249 -0.09 -0.53    -0.547 OA
DOCKED: ATOM     15  O   UNL d   1      47.147  28.473  21.496 -0.50 -0.89    -0.547 OA
DOCKED: ENDBRANCH   1  13
DOCKED: TORSDOF 6
DOCKED: TER
DOCKED: ENDMDL
________________________________________________________________________________


	BEGINNING GENETIC ALGORITHM DOCKING 30 of 100
Run: 30 Seed: 99292261 442250729 [ Run 30 of 100 GA/GALS ]
Beginning LAMARCKIAN GENETIC ALGORITHM (LGA), with a maximum of 25000000 energy evaluations.

Final-Value: -6.677


	FINAL GENETIC ALGORITHM DOCKED STATE
	_______________________________________________


Detailed state:  trans 45.454 25.876 20.035 quatxyzw -0.227895 0.532606 -0.473269 -0.663635 center 0.015 0.083 0.031 ntor 6 -89.0153 -17.5936 131.7349 36.6190 1.9137 -10.0243
State:	 45.454  25.876  20.035  -0.305  0.712 -0.633 -96.845    -89.02  -17.59  131.73   36.62    1.91  -10.02

DOCKED: MODEL       30
DOCKED: USER    Run = 30
DOCKED: USER    DPF = D:/Protein_go_brrr/autodock/final/2DN3/2_3_BPG/dock.dpf
DOCKED: USER  
DOCKED: USER    Estimated Free Energy of Binding    =   -6.93 kcal/mol  [=(1)+(2)+(3)-(4)]
DOCKED: USER    Estimated Inhibition Constant, Ki   =    8.27 uM (micromolar)  [Temperature = 298.15 K]
DOCKED: USER    
DOCKED: USER    (1) Final Intermolecular Energy     =   -8.72 kcal/mol
DOCKED: USER        vdW + Hbond + desolv Energy     =   -3.36 kcal/mol
DOCKED: USER        Electrostatic Energy            =   -5.36 kcal/mol
DOCKED: USER    (2) Final Total Internal Energy     =   +2.05 kcal/mol
DOCKED: USER    (3) Torsional Free Energy           =   +1.79 kcal/mol
DOCKED: USER    (4) Unbound System's Energy  [=(2)] =   +2.05 kcal/mol
DOCKED: USER    
DOCKED: USER    
DOCKED: USER    NEWDPF move 2_3_BPG_opt.pdbqt
DOCKED: USER    NEWDPF about 0.015000 0.083000 0.031000
DOCKED: USER    NEWDPF tran0 45.454002 25.876301 20.034695
DOCKED: USER    NEWDPF quaternion0 -0.227895 0.532606 -0.473269 -0.663635
DOCKED: USER    NEWDPF axisangle0 -0.304650 0.711986 -0.632665 -96.844677
DOCKED: USER    NEWDPF quat0 -0.304650 0.711986 -0.632665 -96.844677
DOCKED: USER    NEWDPF dihe0 -89.02 -17.59 131.73 36.62 1.91 -10.02 
DOCKED: USER  keepresnum = 1 
DOCKED: USER  
DOCKED: REMARK  6 active torsions:
DOCKED: REMARK  status: ('A' for Active; 'I' for Inactive)
DOCKED: REMARK    1  A    between atoms: P_1  and  O_3 
DOCKED: REMARK    2  A    between atoms: P_2  and  O_4 
DOCKED: REMARK    3  A    between atoms: O_3  and  C_13 
DOCKED: REMARK    4  A    between atoms: O_4  and  C_14 
DOCKED: REMARK    5  A    between atoms: C_13  and  C_14 
DOCKED: REMARK    6  A    between atoms: C_13  and  C_15 
DOCKED: USER                              x       y       z     vdW  Elec       q    Type
DOCKED: USER                           _______ _______ _______ _____ _____    ______ ____
DOCKED: ROOT
DOCKED: ATOM      1  C   UNL d   1      45.429  26.228  20.605 -0.14 +0.15    +0.193 C 
DOCKED: ENDROOT
DOCKED: BRANCH   1   2
DOCKED: ATOM      2  O   UNL d   1      45.159  27.630  20.265 -0.12 -0.32    -0.356 OA
DOCKED: BRANCH   2   3
DOCKED: ATOM      3  P   UNL d   1      46.340  28.763  20.103 -0.22 -0.01    -0.014 P 
DOCKED: ATOM      4  O   UNL d   1      45.701  29.861  19.239 -0.02 -0.33    -0.577 OA
DOCKED: ATOM      5  O   UNL d   1      47.512  28.095  19.388 +0.01 -0.33    -0.577 OA
DOCKED: ATOM      6  O   UNL d   1      46.692  29.279  21.495 -0.48 -1.29    -0.638 OA
DOCKED: ENDBRANCH   2   3
DOCKED: ENDBRANCH   1   2
DOCKED: BRANCH   1   7
DOCKED: ATOM      7  C   UNL d   1      45.204  25.346  19.322 -0.13 +0.11    +0.201 C 
DOCKED: BRANCH   7   8
DOCKED: ATOM      8  O   UNL d   1      46.019  24.157  19.223 -0.07 -0.23    -0.364 OA
DOCKED: BRANCH   8   9
DOCKED: ATOM      9  P   UNL d   1      45.958  23.220  17.862 -0.28 -0.01    -0.015 P 
DOCKED: ATOM     10  O   UNL d   1      44.465  23.057  17.556 -0.04 -0.37    -0.577 OA
DOCKED: ATOM     11  O   UNL d   1      46.618  21.885  18.209 -0.05 -0.64    -0.577 OA
DOCKED: ATOM     12  O   UNL d   1      46.691  23.980  16.757 -0.35 -1.01    -0.638 OA
DOCKED: ENDBRANCH   8   9
DOCKED: ENDBRANCH   7   8
DOCKED: ENDBRANCH   1   7
DOCKED: BRANCH   1  13
DOCKED: ATOM     13  C   UNL d   1      44.438  25.745  21.729 -0.29 +0.06    +0.073 C 
DOCKED: ATOM     14  O   UNL d   1      44.086  26.580  22.634 -0.70 -0.81    -0.547 OA
DOCKED: ATOM     15  O   UNL d   1      43.988  24.546  21.633 -0.49 -0.34    -0.547 OA
DOCKED: ENDBRANCH   1  13
DOCKED: TORSDOF 6
DOCKED: TER
DOCKED: ENDMDL
________________________________________________________________________________


	BEGINNING GENETIC ALGORITHM DOCKING 31 of 100
Run: 31 Seed: 990108344 601269724 [ Run 31 of 100 GA/GALS ]
Beginning LAMARCKIAN GENETIC ALGORITHM (LGA), with a maximum of 25000000 energy evaluations.

Final-Value: -6.833


	FINAL GENETIC ALGORITHM DOCKED STATE
	_______________________________________________


Detailed state:  trans 45.841 25.411 19.955 quatxyzw -0.056611 0.544774 -0.581453 -0.601606 center 0.015 0.083 0.031 ntor 6 109.6185 43.7958 -147.8951 -2.2740 19.2494 -3.6769
State:	 45.841  25.411  19.955  -0.071  0.682 -0.728 -106.030    109.62   43.80 -147.90   -2.27   19.25   -3.68

DOCKED: MODEL       31
DOCKED: USER    Run = 31
DOCKED: USER    DPF = D:/Protein_go_brrr/autodock/final/2DN3/2_3_BPG/dock.dpf
DOCKED: USER  
DOCKED: USER    Estimated Free Energy of Binding    =   -7.21 kcal/mol  [=(1)+(2)+(3)-(4)]
DOCKED: USER    Estimated Inhibition Constant, Ki   =    5.19 uM (micromolar)  [Temperature = 298.15 K]
DOCKED: USER    
DOCKED: USER    (1) Final Intermolecular Energy     =   -9.00 kcal/mol
DOCKED: USER        vdW + Hbond + desolv Energy     =   -2.95 kcal/mol
DOCKED: USER        Electrostatic Energy            =   -6.05 kcal/mol
DOCKED: USER    (2) Final Total Internal Energy     =   +2.17 kcal/mol
DOCKED: USER    (3) Torsional Free Energy           =   +1.79 kcal/mol
DOCKED: USER    (4) Unbound System's Energy  [=(2)] =   +2.17 kcal/mol
DOCKED: USER    
DOCKED: USER    
DOCKED: USER    NEWDPF move 2_3_BPG_opt.pdbqt
DOCKED: USER    NEWDPF about 0.015000 0.083000 0.031000
DOCKED: USER    NEWDPF tran0 45.840653 25.411224 19.955387
DOCKED: USER    NEWDPF quaternion0 -0.056611 0.544774 -0.581453 -0.601606
DOCKED: USER    NEWDPF axisangle0 -0.070871 0.681996 -0.727914 -106.030028
DOCKED: USER    NEWDPF quat0 -0.070871 0.681996 -0.727914 -106.030028
DOCKED: USER    NEWDPF dihe0 109.62 43.80 -147.90 -2.27 19.25 -3.68 
DOCKED: USER  keepresnum = 1 
DOCKED: USER  
DOCKED: REMARK  6 active torsions:
DOCKED: REMARK  status: ('A' for Active; 'I' for Inactive)
DOCKED: REMARK    1  A    between atoms: P_1  and  O_3 
DOCKED: REMARK    2  A    between atoms: P_2  and  O_4 
DOCKED: REMARK    3  A    between atoms: O_3  and  C_13 
DOCKED: REMARK    4  A    between atoms: O_4  and  C_14 
DOCKED: REMARK    5  A    between atoms: C_13  and  C_14 
DOCKED: REMARK    6  A    between atoms: C_13  and  C_15 
DOCKED: USER                              x       y       z     vdW  Elec       q    Type
DOCKED: USER                           _______ _______ _______ _____ _____    ______ ____
DOCKED: ROOT
DOCKED: ATOM      1  C   UNL d   1      45.867  25.706  20.557 -0.10 +0.13    +0.193 C 
DOCKED: ENDROOT
DOCKED: BRANCH   1   2
DOCKED: ATOM      2  O   UNL d   1      46.195  27.122  20.359 -0.06 -0.30    -0.356 OA
DOCKED: BRANCH   2   3
DOCKED: ATOM      3  P   UNL d   1      47.319  27.922  21.254 -0.02 -0.02    -0.014 P 
DOCKED: ATOM      4  O   UNL d   1      46.701  29.308  21.496 -0.49 -1.15    -0.577 OA
DOCKED: ATOM      5  O   UNL d   1      48.589  28.013  20.411 +0.01 -0.35    -0.577 OA
DOCKED: ATOM      6  O   UNL d   1      47.511  27.159  22.561 -0.05 -0.90    -0.638 OA
DOCKED: ENDBRANCH   2   3
DOCKED: ENDBRANCH   1   2
DOCKED: BRANCH   1   7
DOCKED: ATOM      7  C   UNL d   1      45.516  25.069  19.162 -0.12 +0.12    +0.201 C 
DOCKED: BRANCH   7   8
DOCKED: ATOM      8  O   UNL d   1      45.697  23.639  19.058 -0.13 -0.23    -0.364 OA
DOCKED: BRANCH   8   9
DOCKED: ATOM      9  P   UNL d   1      45.904  22.935  17.576 -0.24 -0.02    -0.015 P 
DOCKED: ATOM     10  O   UNL d   1      46.692  23.962  16.753 -0.38 -0.92    -0.577 OA
DOCKED: ATOM     11  O   UNL d   1      44.510  22.690  16.999 -0.03 -0.44    -0.577 OA
DOCKED: ATOM     12  O   UNL d   1      46.696  21.647  17.795 +0.00 -0.92    -0.638 OA
DOCKED: ENDBRANCH   8   9
DOCKED: ENDBRANCH   7   8
DOCKED: ENDBRANCH   1   7
DOCKED: BRANCH   1  13
DOCKED: ATOM     13  C   UNL d   1      44.616  25.569  21.503 -0.28 +0.06    +0.073 C 
DOCKED: ATOM     14  O   UNL d   1      43.990  24.452  21.531 -0.51 -0.35    -0.547 OA
DOCKED: ATOM     15  O   UNL d   1      44.333  26.578  22.244 -0.55 -0.76    -0.547 OA
DOCKED: ENDBRANCH   1  13
DOCKED: TORSDOF 6
DOCKED: TER
DOCKED: ENDMDL
________________________________________________________________________________


	BEGINNING GENETIC ALGORITHM DOCKING 32 of 100
Run: 32 Seed: 1825817087 136936768 [ Run 32 of 100 GA/GALS ]
Beginning LAMARCKIAN GENETIC ALGORITHM (LGA), with a maximum of 25000000 energy evaluations.

Final-Value: -6.356


	FINAL GENETIC ALGORITHM DOCKED STATE
	_______________________________________________


Detailed state:  trans 46.034 25.637 20.329 quatxyzw 0.152726 0.624655 -0.541827 -0.541207 center 0.015 0.083 0.031 ntor 6 -55.6681 -2.4023 154.9808 -179.3109 -90.2309 -68.7606
State:	 46.034  25.637  20.329   0.182  0.743 -0.644 -114.468    -55.67   -2.40  154.98 -179.31  -90.23  -68.76

DOCKED: MODEL       32
DOCKED: USER    Run = 32
DOCKED: USER    DPF = D:/Protein_go_brrr/autodock/final/2DN3/2_3_BPG/dock.dpf
DOCKED: USER  
DOCKED: USER    Estimated Free Energy of Binding    =   -7.05 kcal/mol  [=(1)+(2)+(3)-(4)]
DOCKED: USER    Estimated Inhibition Constant, Ki   =    6.78 uM (micromolar)  [Temperature = 298.15 K]
DOCKED: USER    
DOCKED: USER    (1) Final Intermolecular Energy     =   -8.84 kcal/mol
DOCKED: USER        vdW + Hbond + desolv Energy     =   -3.22 kcal/mol
DOCKED: USER        Electrostatic Energy            =   -5.62 kcal/mol
DOCKED: USER    (2) Final Total Internal Energy     =   +2.49 kcal/mol
DOCKED: USER    (3) Torsional Free Energy           =   +1.79 kcal/mol
DOCKED: USER    (4) Unbound System's Energy  [=(2)] =   +2.49 kcal/mol
DOCKED: USER    
DOCKED: USER    
DOCKED: USER    NEWDPF move 2_3_BPG_opt.pdbqt
DOCKED: USER    NEWDPF about 0.015000 0.083000 0.031000
DOCKED: USER    NEWDPF tran0 46.034227 25.637041 20.328937
DOCKED: USER    NEWDPF quaternion0 0.152726 0.624655 -0.541827 -0.541207
DOCKED: USER    NEWDPF axisangle0 0.181624 0.742850 -0.644350 -114.468301
DOCKED: USER    NEWDPF quat0 0.181624 0.742850 -0.644350 -114.468301
DOCKED: USER    NEWDPF dihe0 -55.67 -2.40 154.98 -179.31 -90.23 -68.76 
DOCKED: USER  keepresnum = 1 
DOCKED: USER  
DOCKED: REMARK  6 active torsions:
DOCKED: REMARK  status: ('A' for Active; 'I' for Inactive)
DOCKED: REMARK    1  A    between atoms: P_1  and  O_3 
DOCKED: REMARK    2  A    between atoms: P_2  and  O_4 
DOCKED: REMARK    3  A    between atoms: O_3  and  C_13 
DOCKED: REMARK    4  A    between atoms: O_4  and  C_14 
DOCKED: REMARK    5  A    between atoms: C_13  and  C_14 
DOCKED: REMARK    6  A    between atoms: C_13  and  C_15 
DOCKED: USER                              x       y       z     vdW  Elec       q    Type
DOCKED: USER                           _______ _______ _______ _____ _____    ______ ____
DOCKED: ROOT
DOCKED: ATOM      1  C   UNL d   1      46.055  25.676  20.998 -0.10 +0.14    +0.193 C 
DOCKED: ENDROOT
DOCKED: BRANCH   1   2
DOCKED: ATOM      2  O   UNL d   1      46.732  26.926  21.362 -0.10 -0.40    -0.356 OA
DOCKED: BRANCH   2   3
DOCKED: ATOM      3  P   UNL d   1      46.356  28.383  20.700 -0.14 -0.02    -0.014 P 
DOCKED: ATOM      4  O   UNL d   1      47.196  29.394  21.497 -0.59 -0.92    -0.577 OA
DOCKED: ATOM      5  O   UNL d   1      44.860  28.604  20.912 -0.06 -0.80    -0.577 OA
DOCKED: ATOM      6  O   UNL d   1      46.764  28.352  19.230 +0.02 -0.38    -0.638 OA
DOCKED: ENDBRANCH   2   3
DOCKED: ENDBRANCH   1   2
DOCKED: BRANCH   1   7
DOCKED: ATOM      7  C   UNL d   1      45.739  25.704  19.457 -0.10 +0.12    +0.201 C 
DOCKED: BRANCH   7   8
DOCKED: ATOM      8  O   UNL d   1      46.756  25.147  18.595 -0.05 -0.24    -0.364 OA
DOCKED: BRANCH   8   9
DOCKED: ATOM      9  P   UNL d   1      46.684  23.557  18.147 -0.25 -0.01    -0.015 P 
DOCKED: ATOM     10  O   UNL d   1      45.834  22.876  19.226 -0.05 -0.36    -0.577 OA
DOCKED: ATOM     11  O   UNL d   1      48.120  23.032  18.135 -0.03 -0.69    -0.577 OA
DOCKED: ATOM     12  O   UNL d   1      46.017  23.505  16.773 -0.44 -0.96    -0.638 OA
DOCKED: ENDBRANCH   8   9
DOCKED: ENDBRANCH   7   8
DOCKED: ENDBRANCH   1   7
DOCKED: BRANCH   1  13
DOCKED: ATOM     13  C   UNL d   1      44.699  25.548  21.788 -0.28 +0.06    +0.073 C 
DOCKED: ATOM     14  O   UNL d   1      44.391  26.465  22.627 -0.51 -0.83    -0.547 OA
DOCKED: ATOM     15  O   UNL d   1      43.946  24.551  21.494 -0.55 -0.33    -0.547 OA
DOCKED: ENDBRANCH   1  13
DOCKED: TORSDOF 6
DOCKED: TER
DOCKED: ENDMDL
________________________________________________________________________________


	BEGINNING GENETIC ALGORITHM DOCKING 33 of 100
Run: 33 Seed: 1320881377 449607956 [ Run 33 of 100 GA/GALS ]
Beginning LAMARCKIAN GENETIC ALGORITHM (LGA), with a maximum of 25000000 energy evaluations.

Final-Value: -6.770


	FINAL GENETIC ALGORITHM DOCKED STATE
	_______________________________________________


Detailed state:  trans 45.871 25.590 20.074 quatxyzw -0.134242 0.454057 -0.553417 -0.685230 center 0.015 0.083 0.031 ntor 6 -88.3897 43.3347 -165.8362 12.8835 12.3225 -7.5926
State:	 45.871  25.590  20.074  -0.184  0.623 -0.760 -93.493    -88.39   43.33 -165.84   12.88   12.32   -7.59

DOCKED: MODEL       33
DOCKED: USER    Run = 33
DOCKED: USER    DPF = D:/Protein_go_brrr/autodock/final/2DN3/2_3_BPG/dock.dpf
DOCKED: USER  
DOCKED: USER    Estimated Free Energy of Binding    =   -7.06 kcal/mol  [=(1)+(2)+(3)-(4)]
DOCKED: USER    Estimated Inhibition Constant, Ki   =    6.68 uM (micromolar)  [Temperature = 298.15 K]
DOCKED: USER    
DOCKED: USER    (1) Final Intermolecular Energy     =   -8.85 kcal/mol
DOCKED: USER        vdW + Hbond + desolv Energy     =   -3.07 kcal/mol
DOCKED: USER        Electrostatic Energy            =   -5.78 kcal/mol
DOCKED: USER    (2) Final Total Internal Energy     =   +2.08 kcal/mol
DOCKED: USER    (3) Torsional Free Energy           =   +1.79 kcal/mol
DOCKED: USER    (4) Unbound System's Energy  [=(2)] =   +2.08 kcal/mol
DOCKED: USER    
DOCKED: USER    
DOCKED: USER    NEWDPF move 2_3_BPG_opt.pdbqt
DOCKED: USER    NEWDPF about 0.015000 0.083000 0.031000
DOCKED: USER    NEWDPF tran0 45.870933 25.590336 20.073563
DOCKED: USER    NEWDPF quaternion0 -0.134242 0.454057 -0.553417 -0.685230
DOCKED: USER    NEWDPF axisangle0 -0.184315 0.623425 -0.759848 -93.492547
DOCKED: USER    NEWDPF quat0 -0.184315 0.623425 -0.759848 -93.492547
DOCKED: USER    NEWDPF dihe0 -88.39 43.33 -165.84 12.88 12.32 -7.59 
DOCKED: USER  keepresnum = 1 
DOCKED: USER  
DOCKED: REMARK  6 active torsions:
DOCKED: REMARK  status: ('A' for Active; 'I' for Inactive)
DOCKED: REMARK    1  A    between atoms: P_1  and  O_3 
DOCKED: REMARK    2  A    between atoms: P_2  and  O_4 
DOCKED: REMARK    3  A    between atoms: O_3  and  C_13 
DOCKED: REMARK    4  A    between atoms: O_4  and  C_14 
DOCKED: REMARK    5  A    between atoms: C_13  and  C_14 
DOCKED: REMARK    6  A    between atoms: C_13  and  C_15 
DOCKED: USER                              x       y       z     vdW  Elec       q    Type
DOCKED: USER                           _______ _______ _______ _____ _____    ______ ____
DOCKED: ROOT
DOCKED: ATOM      1  C   UNL d   1      45.759  25.967  20.617 -0.12 +0.14    +0.193 C 
DOCKED: ENDROOT
DOCKED: BRANCH   1   2
DOCKED: ATOM      2  O   UNL d   1      45.797  27.377  20.211 -0.08 -0.30    -0.356 OA
DOCKED: BRANCH   2   3
DOCKED: ATOM      3  P   UNL d   1      46.871  28.462  20.821 -0.12 -0.02    -0.014 P 
DOCKED: ATOM      4  O   UNL d   1      46.056  29.754  20.990 -0.17 -0.82    -0.577 OA
DOCKED: ATOM      5  O   UNL d   1      47.982  28.630  19.786 +0.00 -0.35    -0.577 OA
DOCKED: ATOM      6  O   UNL d   1      47.366  27.933  22.163 -0.25 -1.16    -0.638 OA
DOCKED: ENDBRANCH   2   3
DOCKED: ENDBRANCH   1   2
DOCKED: BRANCH   1   7
DOCKED: ATOM      7  C   UNL d   1      45.728  25.071  19.324 -0.11 +0.12    +0.201 C 
DOCKED: BRANCH   7   8
DOCKED: ATOM      8  O   UNL d   1      46.304  23.752  19.457 -0.07 -0.22    -0.364 OA
DOCKED: BRANCH   8   9
DOCKED: ATOM      9  P   UNL d   1      46.676  22.870  18.109 -0.22 -0.02    -0.015 P 
DOCKED: ATOM     10  O   UNL d   1      46.679  23.882  16.957 -0.35 -0.87    -0.577 OA
DOCKED: ATOM     11  O   UNL d   1      45.576  21.821  17.944 -0.06 -0.51    -0.577 OA
DOCKED: ATOM     12  O   UNL d   1      48.057  22.257  18.338 -0.04 -0.77    -0.638 OA
DOCKED: ENDBRANCH   8   9
DOCKED: ENDBRANCH   7   8
DOCKED: ENDBRANCH   1   7
DOCKED: BRANCH   1  13
DOCKED: ATOM     13  C   UNL d   1      44.459  25.683  21.458 -0.29 +0.06    +0.073 C 
DOCKED: ATOM     14  O   UNL d   1      44.018  26.604  22.231 -0.62 -0.72    -0.547 OA
DOCKED: ATOM     15  O   UNL d   1      43.878  24.554  21.269 -0.57 -0.33    -0.547 OA
DOCKED: ENDBRANCH   1  13
DOCKED: TORSDOF 6
DOCKED: TER
DOCKED: ENDMDL
________________________________________________________________________________


	BEGINNING GENETIC ALGORITHM DOCKING 34 of 100
Run: 34 Seed: 880120878 36726495 [ Run 34 of 100 GA/GALS ]
Beginning LAMARCKIAN GENETIC ALGORITHM (LGA), with a maximum of 25000000 energy evaluations.

Final-Value: -6.894


	FINAL GENETIC ALGORITHM DOCKED STATE
	_______________________________________________


Detailed state:  trans 45.926 26.493 19.945 quatxyzw 0.829843 -0.072726 -0.545963 -0.089418 center 0.015 0.083 0.031 ntor 6 145.5061 -16.0919 -150.5294 32.7142 -8.4370 -41.4074
State:	 45.926  26.493  19.945   0.833 -0.073 -0.548 -169.740    145.51  -16.09 -150.53   32.71   -8.44  -41.41

DOCKED: MODEL       34
DOCKED: USER    Run = 34
DOCKED: USER    DPF = D:/Protein_go_brrr/autodock/final/2DN3/2_3_BPG/dock.dpf
DOCKED: USER  
DOCKED: USER    Estimated Free Energy of Binding    =   -7.06 kcal/mol  [=(1)+(2)+(3)-(4)]
DOCKED: USER    Estimated Inhibition Constant, Ki   =    6.65 uM (micromolar)  [Temperature = 298.15 K]
DOCKED: USER    
DOCKED: USER    (1) Final Intermolecular Energy     =   -8.85 kcal/mol
DOCKED: USER        vdW + Hbond + desolv Energy     =   -3.44 kcal/mol
DOCKED: USER        Electrostatic Energy            =   -5.41 kcal/mol
DOCKED: USER    (2) Final Total Internal Energy     =   +1.96 kcal/mol
DOCKED: USER    (3) Torsional Free Energy           =   +1.79 kcal/mol
DOCKED: USER    (4) Unbound System's Energy  [=(2)] =   +1.96 kcal/mol
DOCKED: USER    
DOCKED: USER    
DOCKED: USER    NEWDPF move 2_3_BPG_opt.pdbqt
DOCKED: USER    NEWDPF about 0.015000 0.083000 0.031000
DOCKED: USER    NEWDPF tran0 45.925815 26.492562 19.945100
DOCKED: USER    NEWDPF quaternion0 0.829843 -0.072726 -0.545963 -0.089418
DOCKED: USER    NEWDPF axisangle0 0.833181 -0.073019 -0.548159 -169.739696
DOCKED: USER    NEWDPF quat0 0.833181 -0.073019 -0.548159 -169.739696
DOCKED: USER    NEWDPF dihe0 145.51 -16.09 -150.53 32.71 -8.44 -41.41 
DOCKED: USER  keepresnum = 1 
DOCKED: USER  
DOCKED: REMARK  6 active torsions:
DOCKED: REMARK  status: ('A' for Active; 'I' for Inactive)
DOCKED: REMARK    1  A    between atoms: P_1  and  O_3 
DOCKED: REMARK    2  A    between atoms: P_2  and  O_4 
DOCKED: REMARK    3  A    between atoms: O_3  and  C_13 
DOCKED: REMARK    4  A    between atoms: O_4  and  C_14 
DOCKED: REMARK    5  A    between atoms: C_13  and  C_14 
DOCKED: REMARK    6  A    between atoms: C_13  and  C_15 
DOCKED: USER                              x       y       z     vdW  Elec       q    Type
DOCKED: USER                           _______ _______ _______ _____ _____    ______ ____
DOCKED: ROOT
DOCKED: ATOM      1  C   UNL d   1      45.617  26.918  20.361 -0.14 +0.16    +0.193 C 
DOCKED: ENDROOT
DOCKED: BRANCH   1   2
DOCKED: ATOM      2  O   UNL d   1      45.777  26.415  21.730 -0.12 -0.42    -0.356 OA
DOCKED: BRANCH   2   3
DOCKED: ATOM      3  P   UNL d   1      44.607  25.575  22.526 -0.35 -0.01    -0.014 P 
DOCKED: ATOM      4  O   UNL d   1      45.360  24.836  23.643 -0.01 -0.43    -0.577 OA
DOCKED: ATOM      5  O   UNL d   1      43.989  24.601  21.525 -0.51 -0.36    -0.577 OA
DOCKED: ATOM      6  O   UNL d   1      43.609  26.580  23.092 -0.70 -0.89    -0.638 OA
DOCKED: ENDBRANCH   2   3
DOCKED: ENDBRANCH   1   2
DOCKED: BRANCH   1   7
DOCKED: ATOM      7  C   UNL d   1      46.570  26.104  19.410 -0.07 +0.12    +0.201 C 
DOCKED: BRANCH   7   8
DOCKED: ATOM      8  O   UNL d   1      45.921  25.343  18.368 -0.06 -0.22    -0.364 OA
DOCKED: BRANCH   8   9
DOCKED: ATOM      9  P   UNL d   1      46.826  24.557  17.228 -0.29 -0.02    -0.015 P 
DOCKED: ATOM     10  O   UNL d   1      48.117  24.155  17.952 -0.03 -0.57    -0.577 OA
DOCKED: ATOM     11  O   UNL d   1      47.090  25.556  16.102 -0.08 -0.51    -0.577 OA
DOCKED: ATOM     12  O   UNL d   1      46.021  23.341  16.773 -0.42 -1.03    -0.638 OA
DOCKED: ENDBRANCH   8   9
DOCKED: ENDBRANCH   7   8
DOCKED: ENDBRANCH   1   7
DOCKED: BRANCH   1  13
DOCKED: ATOM     13  C   UNL d   1      46.017  28.439  20.295 -0.17 +0.07    +0.073 C 
DOCKED: ATOM     14  O   UNL d   1      45.601  29.138  19.306 -0.03 -0.34    -0.547 OA
DOCKED: ATOM     15  O   UNL d   1      46.692  28.907  21.282 -0.46 -0.97    -0.547 OA
DOCKED: ENDBRANCH   1  13
DOCKED: TORSDOF 6
DOCKED: TER
DOCKED: ENDMDL
________________________________________________________________________________


	BEGINNING GENETIC ALGORITHM DOCKING 35 of 100
Run: 35 Seed: 1877614676 1376088653 [ Run 35 of 100 GA/GALS ]
Beginning LAMARCKIAN GENETIC ALGORITHM (LGA), with a maximum of 25000000 energy evaluations.

Final-Value: -6.691


	FINAL GENETIC ALGORITHM DOCKED STATE
	_______________________________________________


Detailed state:  trans 2.565 43.339 -1.488 quatxyzw 0.423005 -0.203367 -0.225605 0.853705 center 0.015 0.083 0.031 ntor 6 -179.8766 -35.5941 155.7485 -20.8764 43.2744 -38.0166
State:	  2.565  43.339  -1.488   0.812 -0.391 -0.433 62.766   -179.88  -35.59  155.75  -20.88   43.27  -38.02

DOCKED: MODEL       35
DOCKED: USER    Run = 35
DOCKED: USER    DPF = D:/Protein_go_brrr/autodock/final/2DN3/2_3_BPG/dock.dpf
DOCKED: USER  
DOCKED: USER    Estimated Free Energy of Binding    =   -7.01 kcal/mol  [=(1)+(2)+(3)-(4)]
DOCKED: USER    Estimated Inhibition Constant, Ki   =    7.24 uM (micromolar)  [Temperature = 298.15 K]
DOCKED: USER    
DOCKED: USER    (1) Final Intermolecular Energy     =   -8.80 kcal/mol
DOCKED: USER        vdW + Hbond + desolv Energy     =   -3.67 kcal/mol
DOCKED: USER        Electrostatic Energy            =   -5.13 kcal/mol
DOCKED: USER    (2) Final Total Internal Energy     =   +2.11 kcal/mol
DOCKED: USER    (3) Torsional Free Energy           =   +1.79 kcal/mol
DOCKED: USER    (4) Unbound System's Energy  [=(2)] =   +2.11 kcal/mol
DOCKED: USER    
DOCKED: USER    
DOCKED: USER    NEWDPF move 2_3_BPG_opt.pdbqt
DOCKED: USER    NEWDPF about 0.015000 0.083000 0.031000
DOCKED: USER    NEWDPF tran0 2.564513 43.338858 -1.487874
DOCKED: USER    NEWDPF quaternion0 0.423005 -0.203367 -0.225605 0.853705
DOCKED: USER    NEWDPF axisangle0 0.812287 -0.390521 -0.433225 62.766160
DOCKED: USER    NEWDPF quat0 0.812287 -0.390521 -0.433225 62.766160
DOCKED: USER    NEWDPF dihe0 -179.88 -35.59 155.75 -20.88 43.27 -38.02 
DOCKED: USER  keepresnum = 1 
DOCKED: USER  
DOCKED: REMARK  6 active torsions:
DOCKED: REMARK  status: ('A' for Active; 'I' for Inactive)
DOCKED: REMARK    1  A    between atoms: P_1  and  O_3 
DOCKED: REMARK    2  A    between atoms: P_2  and  O_4 
DOCKED: REMARK    3  A    between atoms: O_3  and  C_13 
DOCKED: REMARK    4  A    between atoms: O_4  and  C_14 
DOCKED: REMARK    5  A    between atoms: C_13  and  C_14 
DOCKED: REMARK    6  A    between atoms: C_13  and  C_15 
DOCKED: USER                              x       y       z     vdW  Elec       q    Type
DOCKED: USER                           _______ _______ _______ _____ _____    ______ ____
DOCKED: ROOT
DOCKED: ATOM      1  C   UNL d   1       2.275  43.121  -0.924 -0.16 +0.14    +0.193 C 
DOCKED: ENDROOT
DOCKED: BRANCH   1   2
DOCKED: ATOM      2  O   UNL d   1       0.874  42.805  -1.222 -0.03 -0.28    -0.356 OA
DOCKED: BRANCH   2   3
DOCKED: ATOM      3  P   UNL d   1      -0.323  42.859  -0.095 -0.12 -0.01    -0.014 P 
DOCKED: ATOM      4  O   UNL d   1      -1.524  43.462  -0.840 +0.01 -0.28    -0.577 OA
DOCKED: ATOM      5  O   UNL d   1       0.156  43.772   1.031 +0.01 -0.34    -0.577 OA
DOCKED: ATOM      6  O   UNL d   1      -0.607  41.431   0.359 -0.39 -1.21    -0.638 OA
DOCKED: ENDBRANCH   2   3
DOCKED: ENDBRANCH   1   2
DOCKED: BRANCH   1   7
DOCKED: ATOM      7  C   UNL d   1       3.040  43.352  -2.279 -0.15 +0.11    +0.201 C 
DOCKED: BRANCH   7   8
DOCKED: ATOM      8  O   UNL d   1       3.667  44.643  -2.437 -0.18 -0.22    -0.364 OA
DOCKED: BRANCH   8   9
DOCKED: ATOM      9  P   UNL d   1       3.485  45.487  -3.849 -0.35 -0.01    -0.015 P 
DOCKED: ATOM     10  O   UNL d   1       3.120  44.431  -4.900 -0.01 -0.28    -0.577 OA
DOCKED: ATOM     11  O   UNL d   1       4.829  46.150  -4.149 -0.70 -0.69    -0.577 OA
DOCKED: ATOM     12  O   UNL d   1       2.356  46.494  -3.631 +0.06 -0.71    -0.638 OA
DOCKED: ENDBRANCH   8   9
DOCKED: ENDBRANCH   7   8
DOCKED: ENDBRANCH   1   7
DOCKED: BRANCH   1  13
DOCKED: ATOM     13  C   UNL d   1       2.949  41.919  -0.163 -0.33 +0.08    +0.073 C 
DOCKED: ATOM     14  O   UNL d   1       3.532  42.153   0.954 -0.38 -0.43    -0.547 OA
DOCKED: ATOM     15  O   UNL d   1       2.817  40.753  -0.683 -0.96 -0.99    -0.547 OA
DOCKED: ENDBRANCH   1  13
DOCKED: TORSDOF 6
DOCKED: TER
DOCKED: ENDMDL
________________________________________________________________________________


	BEGINNING GENETIC ALGORITHM DOCKING 36 of 100
Run: 36 Seed: 1865333771 159247589 [ Run 36 of 100 GA/GALS ]
Beginning LAMARCKIAN GENETIC ALGORITHM (LGA), with a maximum of 25000000 energy evaluations.

Final-Value: -6.481


	FINAL GENETIC ALGORITHM DOCKED STATE
	_______________________________________________


Detailed state:  trans 3.404 42.446 -2.283 quatxyzw 0.023589 -0.546478 -0.203677 0.811986 center 0.015 0.083 0.031 ntor 6 -69.1637 14.0433 -95.7826 -10.6888 -6.7366 -71.9388
State:	  3.404  42.446  -2.283   0.040 -0.936 -0.349 71.419    -69.16   14.04  -95.78  -10.69   -6.74  -71.94

DOCKED: MODEL       36
DOCKED: USER    Run = 36
DOCKED: USER    DPF = D:/Protein_go_brrr/autodock/final/2DN3/2_3_BPG/dock.dpf
DOCKED: USER  
DOCKED: USER    Estimated Free Energy of Binding    =   -6.94 kcal/mol  [=(1)+(2)+(3)-(4)]
DOCKED: USER    Estimated Inhibition Constant, Ki   =    8.18 uM (micromolar)  [Temperature = 298.15 K]
DOCKED: USER    
DOCKED: USER    (1) Final Intermolecular Energy     =   -8.73 kcal/mol
DOCKED: USER        vdW + Hbond + desolv Energy     =   -3.70 kcal/mol
DOCKED: USER        Electrostatic Energy            =   -5.03 kcal/mol
DOCKED: USER    (2) Final Total Internal Energy     =   +2.25 kcal/mol
DOCKED: USER    (3) Torsional Free Energy           =   +1.79 kcal/mol
DOCKED: USER    (4) Unbound System's Energy  [=(2)] =   +2.25 kcal/mol
DOCKED: USER    
DOCKED: USER    
DOCKED: USER    NEWDPF move 2_3_BPG_opt.pdbqt
DOCKED: USER    NEWDPF about 0.015000 0.083000 0.031000
DOCKED: USER    NEWDPF tran0 3.403964 42.445569 -2.283124
DOCKED: USER    NEWDPF quaternion0 0.023589 -0.546478 -0.203677 0.811986
DOCKED: USER    NEWDPF axisangle0 0.040415 -0.936268 -0.348955 71.419231
DOCKED: USER    NEWDPF quat0 0.040415 -0.936268 -0.348955 71.419231
DOCKED: USER    NEWDPF dihe0 -69.16 14.04 -95.78 -10.69 -6.74 -71.94 
DOCKED: USER  keepresnum = 1 
DOCKED: USER  
DOCKED: REMARK  6 active torsions:
DOCKED: REMARK  status: ('A' for Active; 'I' for Inactive)
DOCKED: REMARK    1  A    between atoms: P_1  and  O_3 
DOCKED: REMARK    2  A    between atoms: P_2  and  O_4 
DOCKED: REMARK    3  A    between atoms: O_3  and  C_13 
DOCKED: REMARK    4  A    between atoms: O_4  and  C_14 
DOCKED: REMARK    5  A    between atoms: C_13  and  C_14 
DOCKED: REMARK    6  A    between atoms: C_13  and  C_15 
DOCKED: USER                              x       y       z     vdW  Elec       q    Type
DOCKED: USER                           _______ _______ _______ _____ _____    ______ ____
DOCKED: ROOT
DOCKED: ATOM      1  C   UNL d   1       3.409  42.005  -1.778 -0.21 +0.13    +0.193 C 
DOCKED: ENDROOT
DOCKED: BRANCH   1   2
DOCKED: ATOM      2  O   UNL d   1       2.225  42.248  -0.947 -0.12 -0.34    -0.356 OA
DOCKED: BRANCH   2   3
DOCKED: ATOM      3  P   UNL d   1       2.228  42.113   0.692 -0.45 -0.02    -0.014 P 
DOCKED: ATOM      4  O   UNL d   1       0.746  42.202   1.087 -0.06 -0.70    -0.577 OA
DOCKED: ATOM      5  O   UNL d   1       3.028  43.292   1.242 -0.15 -0.34    -0.577 OA
DOCKED: ATOM      6  O   UNL d   1       2.823  40.755   1.051 -0.49 -1.12    -0.638 OA
DOCKED: ENDBRANCH   2   3
DOCKED: ENDBRANCH   1   2
DOCKED: BRANCH   1   7
DOCKED: ATOM      7  C   UNL d   1       3.265  42.822  -3.114 -0.11 +0.09    +0.201 C 
DOCKED: BRANCH   7   8
DOCKED: ATOM      8  O   UNL d   1       3.753  44.181  -3.079 -0.13 -0.19    -0.364 OA
DOCKED: BRANCH   8   9
DOCKED: ATOM      9  P   UNL d   1       3.737  45.104  -4.452 -0.34 -0.01    -0.015 P 
DOCKED: ATOM     10  O   UNL d   1       2.339  45.735  -4.491 -0.03 -0.41    -0.577 OA
DOCKED: ATOM     11  O   UNL d   1       3.969  44.158  -5.629 -0.11 -0.27    -0.577 OA
DOCKED: ATOM     12  O   UNL d   1       4.836  46.155  -4.302 -0.67 -0.73    -0.638 OA
DOCKED: ENDBRANCH   8   9
DOCKED: ENDBRANCH   7   8
DOCKED: ENDBRANCH   1   7
DOCKED: BRANCH   1  13
DOCKED: ATOM     13  C   UNL d   1       3.517  40.475  -2.130 -0.23 +0.06    +0.073 C 
DOCKED: ATOM     14  O   UNL d   1       2.817  39.641  -1.455 -0.58 -0.93    -0.547 OA
DOCKED: ATOM     15  O   UNL d   1       4.260  40.158  -3.128 -0.03 -0.23    -0.547 OA
DOCKED: ENDBRANCH   1  13
DOCKED: TORSDOF 6
DOCKED: TER
DOCKED: ENDMDL
________________________________________________________________________________


	BEGINNING GENETIC ALGORITHM DOCKING 37 of 100
Run: 37 Seed: 781877207 1133455931 [ Run 37 of 100 GA/GALS ]
Beginning LAMARCKIAN GENETIC ALGORITHM (LGA), with a maximum of 25000000 energy evaluations.

Final-Value: -6.507


	FINAL GENETIC ALGORITHM DOCKED STATE
	_______________________________________________


Detailed state:  trans 2.462 43.362 -1.419 quatxyzw 0.559878 -0.056875 -0.433285 0.703965 center 0.015 0.083 0.031 ntor 6 141.8368 -34.1992 -61.9967 25.0976 14.4560 -16.5386
State:	  2.462  43.362  -1.419   0.788 -0.080 -0.610 90.508    141.84  -34.20  -62.00   25.10   14.46  -16.54

DOCKED: MODEL       37
DOCKED: USER    Run = 37
DOCKED: USER    DPF = D:/Protein_go_brrr/autodock/final/2DN3/2_3_BPG/dock.dpf
DOCKED: USER  
DOCKED: USER    Estimated Free Energy of Binding    =   -6.68 kcal/mol  [=(1)+(2)+(3)-(4)]
DOCKED: USER    Estimated Inhibition Constant, Ki   =   12.71 uM (micromolar)  [Temperature = 298.15 K]
DOCKED: USER    
DOCKED: USER    (1) Final Intermolecular Energy     =   -8.47 kcal/mol
DOCKED: USER        vdW + Hbond + desolv Energy     =   -3.45 kcal/mol
DOCKED: USER        Electrostatic Energy            =   -5.02 kcal/mol
DOCKED: USER    (2) Final Total Internal Energy     =   +1.96 kcal/mol
DOCKED: USER    (3) Torsional Free Energy           =   +1.79 kcal/mol
DOCKED: USER    (4) Unbound System's Energy  [=(2)] =   +1.96 kcal/mol
DOCKED: USER    
DOCKED: USER    
DOCKED: USER    NEWDPF move 2_3_BPG_opt.pdbqt
DOCKED: USER    NEWDPF about 0.015000 0.083000 0.031000
DOCKED: USER    NEWDPF tran0 2.462386 43.361575 -1.418872
DOCKED: USER    NEWDPF quaternion0 0.559878 -0.056875 -0.433285 0.703965
DOCKED: USER    NEWDPF axisangle0 0.788299 -0.080079 -0.610059 90.508084
DOCKED: USER    NEWDPF quat0 0.788299 -0.080079 -0.610059 90.508084
DOCKED: USER    NEWDPF dihe0 141.84 -34.20 -62.00 25.10 14.46 -16.54 
DOCKED: USER  keepresnum = 1 
DOCKED: USER  
DOCKED: REMARK  6 active torsions:
DOCKED: REMARK  status: ('A' for Active; 'I' for Inactive)
DOCKED: REMARK    1  A    between atoms: P_1  and  O_3 
DOCKED: REMARK    2  A    between atoms: P_2  and  O_4 
DOCKED: REMARK    3  A    between atoms: O_3  and  C_13 
DOCKED: REMARK    4  A    between atoms: O_4  and  C_14 
DOCKED: REMARK    5  A    between atoms: C_13  and  C_14 
DOCKED: REMARK    6  A    between atoms: C_13  and  C_15 
DOCKED: USER                              x       y       z     vdW  Elec       q    Type
DOCKED: USER                           _______ _______ _______ _____ _____    ______ ____
DOCKED: ROOT
DOCKED: ATOM      1  C   UNL d   1       2.273  43.120  -0.823 -0.17 +0.14    +0.193 C 
DOCKED: ENDROOT
DOCKED: BRANCH   1   2
DOCKED: ATOM      2  O   UNL d   1       1.347  42.006  -1.055 -0.07 -0.42    -0.356 OA
DOCKED: BRANCH   2   3
DOCKED: ATOM      3  P   UNL d   1      -0.271  42.104  -0.778 -0.07 -0.02    -0.014 P 
DOCKED: ATOM      4  O   UNL d   1      -0.906  41.308  -1.929 -0.08 -0.53    -0.577 OA
DOCKED: ATOM      5  O   UNL d   1      -0.652  43.582  -0.840 +0.02 -0.32    -0.577 OA
DOCKED: ATOM      6  O   UNL d   1      -0.558  41.459   0.574 -0.35 -1.22    -0.638 OA
DOCKED: ENDBRANCH   2   3
DOCKED: ENDBRANCH   1   2
DOCKED: BRANCH   1   7
DOCKED: ATOM      7  C   UNL d   1       2.949  43.507  -2.189 -0.15 +0.11    +0.201 C 
DOCKED: BRANCH   7   8
DOCKED: ATOM      8  O   UNL d   1       3.183  44.917  -2.400 -0.15 -0.24    -0.364 OA
DOCKED: BRANCH   8   9
DOCKED: ATOM      9  P   UNL d   1       3.474  45.491  -3.924 -0.35 -0.01    -0.015 P 
DOCKED: ATOM     10  O   UNL d   1       2.353  46.502  -4.191 -0.05 -0.61    -0.577 OA
DOCKED: ATOM     11  O   UNL d   1       3.401  44.295  -4.873 -0.02 -0.27    -0.577 OA
DOCKED: ATOM     12  O   UNL d   1       4.851  46.154  -3.902 -0.56 -0.78    -0.638 OA
DOCKED: ENDBRANCH   8   9
DOCKED: ENDBRANCH   7   8
DOCKED: ENDBRANCH   1   7
DOCKED: BRANCH   1  13
DOCKED: ATOM     13  C   UNL d   1       3.396  42.686   0.191 -0.48 +0.05    +0.073 C 
DOCKED: ATOM     14  O   UNL d   1       4.108  43.597   0.742 -0.23 -0.25    -0.547 OA
DOCKED: ATOM     15  O   UNL d   1       3.490  41.433   0.455 -0.74 -0.64    -0.547 OA
DOCKED: ENDBRANCH   1  13
DOCKED: TORSDOF 6
DOCKED: TER
DOCKED: ENDMDL
________________________________________________________________________________


	BEGINNING GENETIC ALGORITHM DOCKING 38 of 100
Run: 38 Seed: 1668383159 1752331530 [ Run 38 of 100 GA/GALS ]
Beginning LAMARCKIAN GENETIC ALGORITHM (LGA), with a maximum of 25000000 energy evaluations.

Final-Value: -6.743


	FINAL GENETIC ALGORITHM DOCKED STATE
	_______________________________________________


Detailed state:  trans 45.782 26.589 20.003 quatxyzw -0.874401 0.425854 0.212057 -0.095409 center 0.015 0.083 0.031 ntor 6 106.2272 -1.8435 -140.7361 163.8652 -59.9741 -52.1018
State:	 45.782  26.589  20.003  -0.878  0.428  0.213 -169.050    106.23   -1.84 -140.74  163.87  -59.97  -52.10

DOCKED: MODEL       38
DOCKED: USER    Run = 38
DOCKED: USER    DPF = D:/Protein_go_brrr/autodock/final/2DN3/2_3_BPG/dock.dpf
DOCKED: USER  
DOCKED: USER    Estimated Free Energy of Binding    =   -7.21 kcal/mol  [=(1)+(2)+(3)-(4)]
DOCKED: USER    Estimated Inhibition Constant, Ki   =    5.17 uM (micromolar)  [Temperature = 298.15 K]
DOCKED: USER    
DOCKED: USER    (1) Final Intermolecular Energy     =   -9.00 kcal/mol
DOCKED: USER        vdW + Hbond + desolv Energy     =   -3.48 kcal/mol
DOCKED: USER        Electrostatic Energy            =   -5.52 kcal/mol
DOCKED: USER    (2) Final Total Internal Energy     =   +2.26 kcal/mol
DOCKED: USER    (3) Torsional Free Energy           =   +1.79 kcal/mol
DOCKED: USER    (4) Unbound System's Energy  [=(2)] =   +2.26 kcal/mol
DOCKED: USER    
DOCKED: USER    
DOCKED: USER    NEWDPF move 2_3_BPG_opt.pdbqt
DOCKED: USER    NEWDPF about 0.015000 0.083000 0.031000
DOCKED: USER    NEWDPF tran0 45.782289 26.589091 20.002635
DOCKED: USER    NEWDPF quaternion0 -0.874401 0.425854 0.212057 -0.095409
DOCKED: USER    NEWDPF axisangle0 -0.878408 0.427806 0.213029 -169.050304
DOCKED: USER    NEWDPF quat0 -0.878408 0.427806 0.213029 -169.050304
DOCKED: USER    NEWDPF dihe0 106.23 -1.84 -140.74 163.87 -59.97 -52.10 
DOCKED: USER  keepresnum = 1 
DOCKED: USER  
DOCKED: REMARK  6 active torsions:
DOCKED: REMARK  status: ('A' for Active; 'I' for Inactive)
DOCKED: REMARK    1  A    between atoms: P_1  and  O_3 
DOCKED: REMARK    2  A    between atoms: P_2  and  O_4 
DOCKED: REMARK    3  A    between atoms: O_3  and  C_13 
DOCKED: REMARK    4  A    between atoms: O_4  and  C_14 
DOCKED: REMARK    5  A    between atoms: C_13  and  C_14 
DOCKED: REMARK    6  A    between atoms: C_13  and  C_15 
DOCKED: USER                              x       y       z     vdW  Elec       q    Type
DOCKED: USER                           _______ _______ _______ _____ _____    ______ ____
DOCKED: ROOT
DOCKED: ATOM      1  C   UNL d   1      45.680  27.227  20.180 -0.14 +0.16    +0.193 C 
DOCKED: ENDROOT
DOCKED: BRANCH   1   2
DOCKED: ATOM      2  O   UNL d   1      44.664  27.249  21.239 -0.35 -0.46    -0.356 OA
DOCKED: BRANCH   2   3
DOCKED: ATOM      3  P   UNL d   1      44.480  26.040  22.338 -0.27 -0.02    -0.014 P 
DOCKED: ATOM      4  O   UNL d   1      43.419  26.569  23.316 -0.77 -0.76    -0.577 OA
DOCKED: ATOM      5  O   UNL d   1      45.829  25.842  23.025 -0.03 -0.67    -0.577 OA
DOCKED: ATOM      6  O   UNL d   1      43.988  24.801  21.596 -0.34 -0.40    -0.638 OA
DOCKED: ENDBRANCH   2   3
DOCKED: ENDBRANCH   1   2
DOCKED: BRANCH   1   7
DOCKED: ATOM      7  C   UNL d   1      46.143  25.741  19.956 -0.08 +0.13    +0.201 C 
DOCKED: BRANCH   7   8
DOCKED: ATOM      8  O   UNL d   1      45.684  25.114  18.739 -0.05 -0.22    -0.364 OA
DOCKED: BRANCH   8   9
DOCKED: ATOM      9  P   UNL d   1      46.775  24.489  17.664 -0.30 -0.01    -0.015 P 
DOCKED: ATOM     10  O   UNL d   1      47.830  23.788  18.528 -0.02 -0.50    -0.577 OA
DOCKED: ATOM     11  O   UNL d   1      47.363  25.668  16.889 -0.11 -0.45    -0.577 OA
DOCKED: ATOM     12  O   UNL d   1      46.018  23.506  16.772 -0.44 -0.97    -0.638 OA
DOCKED: ENDBRANCH   8   9
DOCKED: ENDBRANCH   7   8
DOCKED: ENDBRANCH   1   7
DOCKED: BRANCH   1  13
DOCKED: ATOM     13  C   UNL d   1      46.927  28.085  20.611 -0.12 +0.07    +0.073 C 
DOCKED: ATOM     14  O   UNL d   1      48.045  27.878  20.020 +0.01 -0.34    -0.547 OA
DOCKED: ATOM     15  O   UNL d   1      46.731  28.996  21.495 -0.48 -1.09    -0.547 OA
DOCKED: ENDBRANCH   1  13
DOCKED: TORSDOF 6
DOCKED: TER
DOCKED: ENDMDL
________________________________________________________________________________


	BEGINNING GENETIC ALGORITHM DOCKING 39 of 100
Run: 39 Seed: 557099542 1186679525 [ Run 39 of 100 GA/GALS ]
Beginning LAMARCKIAN GENETIC ALGORITHM (LGA), with a maximum of 25000000 energy evaluations.

Final-Value: -6.666


	FINAL GENETIC ALGORITHM DOCKED STATE
	_______________________________________________


Detailed state:  trans 2.408 42.833 -2.180 quatxyzw -0.565684 -0.100298 0.396960 -0.715796 center 0.015 0.083 0.031 ntor 6 119.5890 27.5834 -61.3077 9.0384 26.8469 -12.6539
State:	  2.408  42.833  -2.180  -0.810 -0.144  0.568 -88.583    119.59   27.58  -61.31    9.04   26.85  -12.65

DOCKED: MODEL       39
DOCKED: USER    Run = 39
DOCKED: USER    DPF = D:/Protein_go_brrr/autodock/final/2DN3/2_3_BPG/dock.dpf
DOCKED: USER  
DOCKED: USER    Estimated Free Energy of Binding    =   -6.96 kcal/mol  [=(1)+(2)+(3)-(4)]
DOCKED: USER    Estimated Inhibition Constant, Ki   =    7.96 uM (micromolar)  [Temperature = 298.15 K]
DOCKED: USER    
DOCKED: USER    (1) Final Intermolecular Energy     =   -8.75 kcal/mol
DOCKED: USER        vdW + Hbond + desolv Energy     =   -3.33 kcal/mol
DOCKED: USER        Electrostatic Energy            =   -5.41 kcal/mol
DOCKED: USER    (2) Final Total Internal Energy     =   +2.08 kcal/mol
DOCKED: USER    (3) Torsional Free Energy           =   +1.79 kcal/mol
DOCKED: USER    (4) Unbound System's Energy  [=(2)] =   +2.08 kcal/mol
DOCKED: USER    
DOCKED: USER    
DOCKED: USER    NEWDPF move 2_3_BPG_opt.pdbqt
DOCKED: USER    NEWDPF about 0.015000 0.083000 0.031000
DOCKED: USER    NEWDPF tran0 2.408295 42.832768 -2.179798
DOCKED: USER    NEWDPF quaternion0 -0.565684 -0.100298 0.396960 -0.715796
DOCKED: USER    NEWDPF axisangle0 -0.810077 -0.143629 0.568459 -88.583003
DOCKED: USER    NEWDPF quat0 -0.810077 -0.143629 0.568459 -88.583003
DOCKED: USER    NEWDPF dihe0 119.59 27.58 -61.31 9.04 26.85 -12.65 
DOCKED: USER  keepresnum = 1 
DOCKED: USER  
DOCKED: REMARK  6 active torsions:
DOCKED: REMARK  status: ('A' for Active; 'I' for Inactive)
DOCKED: REMARK    1  A    between atoms: P_1  and  O_3 
DOCKED: REMARK    2  A    between atoms: P_2  and  O_4 
DOCKED: REMARK    3  A    between atoms: O_3  and  C_13 
DOCKED: REMARK    4  A    between atoms: O_4  and  C_14 
DOCKED: REMARK    5  A    between atoms: C_13  and  C_14 
DOCKED: REMARK    6  A    between atoms: C_13  and  C_15 
DOCKED: USER                              x       y       z     vdW  Elec       q    Type
DOCKED: USER                           _______ _______ _______ _____ _____    ______ ____
DOCKED: ROOT
DOCKED: ATOM      1  C   UNL d   1       2.106  42.487  -1.692 -0.11 +0.15    +0.193 C 
DOCKED: ENDROOT
DOCKED: BRANCH   1   2
DOCKED: ATOM      2  O   UNL d   1       1.426  41.338  -2.299 -0.05 -0.35    -0.356 OA
DOCKED: BRANCH   2   3
DOCKED: ATOM      3  P   UNL d   1      -0.184  41.049  -2.131 -0.04 -0.02    -0.014 P 
DOCKED: ATOM      4  O   UNL d   1      -0.330  39.538  -2.372 -0.00 -0.73    -0.577 OA
DOCKED: ATOM      5  O   UNL d   1      -0.905  41.860  -3.206 +0.01 -0.29    -0.577 OA
DOCKED: ATOM      6  O   UNL d   1      -0.586  41.430  -0.710 -0.40 -1.01    -0.638 OA
DOCKED: ENDBRANCH   2   3
DOCKED: ENDBRANCH   1   2
DOCKED: BRANCH   1   7
DOCKED: ATOM      7  C   UNL d   1       3.053  43.138  -2.765 -0.12 +0.10    +0.201 C 
DOCKED: BRANCH   7   8
DOCKED: ATOM      8  O   UNL d   1       3.213  44.572  -2.678 -0.13 -0.22    -0.364 OA
DOCKED: BRANCH   8   9
DOCKED: ATOM      9  P   UNL d   1       3.513  45.457  -4.043 -0.36 -0.01    -0.015 P 
DOCKED: ATOM     10  O   UNL d   1       2.353  46.456  -4.133 -0.05 -0.60    -0.577 OA
DOCKED: ATOM     11  O   UNL d   1       3.515  44.479  -5.218 -0.03 -0.28    -0.577 OA
DOCKED: ATOM     12  O   UNL d   1       4.857  46.155  -3.842 -0.54 -0.79    -0.638 OA
DOCKED: ENDBRANCH   8   9
DOCKED: ENDBRANCH   7   8
DOCKED: ENDBRANCH   1   7
DOCKED: BRANCH   1  13
DOCKED: ATOM     13  C   UNL d   1       2.978  42.014  -0.469 -0.34 +0.07    +0.073 C 
DOCKED: ATOM     14  O   UNL d   1       3.745  42.867   0.101 -0.19 -0.33    -0.547 OA
DOCKED: ATOM     15  O   UNL d   1       2.819  40.803  -0.074 -0.97 -1.10    -0.547 OA
DOCKED: ENDBRANCH   1  13
DOCKED: TORSDOF 6
DOCKED: TER
DOCKED: ENDMDL
________________________________________________________________________________


	BEGINNING GENETIC ALGORITHM DOCKING 40 of 100
Run: 40 Seed: 20107118 1429538356 [ Run 40 of 100 GA/GALS ]
Beginning LAMARCKIAN GENETIC ALGORITHM (LGA), with a maximum of 25000000 energy evaluations.

Final-Value: -6.563


	FINAL GENETIC ALGORITHM DOCKED STATE
	_______________________________________________


Detailed state:  trans 46.646 25.811 20.509 quatxyzw 0.796761 -0.157597 -0.583009 -0.020874 center 0.015 0.083 0.031 ntor 6 -124.5052 -55.3168 -158.4457 0.3173 -9.3265 -19.8065
State:	 46.646  25.811  20.509   0.797 -0.158 -0.583 -177.608   -124.51  -55.32 -158.45    0.32   -9.33  -19.81

DOCKED: MODEL       40
DOCKED: USER    Run = 40
DOCKED: USER    DPF = D:/Protein_go_brrr/autodock/final/2DN3/2_3_BPG/dock.dpf
DOCKED: USER  
DOCKED: USER    Estimated Free Energy of Binding    =   -6.80 kcal/mol  [=(1)+(2)+(3)-(4)]
DOCKED: USER    Estimated Inhibition Constant, Ki   =   10.32 uM (micromolar)  [Temperature = 298.15 K]
DOCKED: USER    
DOCKED: USER    (1) Final Intermolecular Energy     =   -8.59 kcal/mol
DOCKED: USER        vdW + Hbond + desolv Energy     =   -2.28 kcal/mol
DOCKED: USER        Electrostatic Energy            =   -6.31 kcal/mol
DOCKED: USER    (2) Final Total Internal Energy     =   +2.03 kcal/mol
DOCKED: USER    (3) Torsional Free Energy           =   +1.79 kcal/mol
DOCKED: USER    (4) Unbound System's Energy  [=(2)] =   +2.03 kcal/mol
DOCKED: USER    
DOCKED: USER    
DOCKED: USER    NEWDPF move 2_3_BPG_opt.pdbqt
DOCKED: USER    NEWDPF about 0.015000 0.083000 0.031000
DOCKED: USER    NEWDPF tran0 46.646317 25.811218 20.509161
DOCKED: USER    NEWDPF quaternion0 0.796761 -0.157597 -0.583009 -0.020874
DOCKED: USER    NEWDPF axisangle0 0.796934 -0.157632 -0.583136 -177.607867
DOCKED: USER    NEWDPF quat0 0.796934 -0.157632 -0.583136 -177.607867
DOCKED: USER    NEWDPF dihe0 -124.51 -55.32 -158.45 0.32 -9.33 -19.81 
DOCKED: USER  keepresnum = 1 
DOCKED: USER  
DOCKED: REMARK  6 active torsions:
DOCKED: REMARK  status: ('A' for Active; 'I' for Inactive)
DOCKED: REMARK    1  A    between atoms: P_1  and  O_3 
DOCKED: REMARK    2  A    between atoms: P_2  and  O_4 
DOCKED: REMARK    3  A    between atoms: O_3  and  C_13 
DOCKED: REMARK    4  A    between atoms: O_4  and  C_14 
DOCKED: REMARK    5  A    between atoms: C_13  and  C_14 
DOCKED: REMARK    6  A    between atoms: C_13  and  C_15 
DOCKED: USER                              x       y       z     vdW  Elec       q    Type
DOCKED: USER                           _______ _______ _______ _____ _____    ______ ____
DOCKED: ROOT
DOCKED: ATOM      1  C   UNL d   1      46.472  26.283  20.952 -0.08 +0.16    +0.193 C 
DOCKED: ENDROOT
DOCKED: BRANCH   1   2
DOCKED: ATOM      2  O   UNL d   1      46.608  25.718  22.299 -0.03 -0.32    -0.356 OA
DOCKED: BRANCH   2   3
DOCKED: ATOM      3  P   UNL d   1      45.444  25.844  23.454 -0.18 -0.02    -0.014 P 
DOCKED: ATOM      4  O   UNL d   1      45.087  24.390  23.799 -0.02 -0.34    -0.577 OA
DOCKED: ATOM      5  O   UNL d   1      44.261  26.579  22.825 -0.63 -0.95    -0.577 OA
DOCKED: ATOM      6  O   UNL d   1      46.045  26.573  24.651 +0.03 -1.14    -0.638 OA
DOCKED: ENDBRANCH   2   3
DOCKED: ENDBRANCH   1   2
DOCKED: BRANCH   1   7
DOCKED: ATOM      7  C   UNL d   1      47.147  25.304  19.923 -0.04 +0.12    +0.201 C 
DOCKED: BRANCH   7   8
DOCKED: ATOM      8  O   UNL d   1      46.445  25.119  18.674 -0.05 -0.23    -0.364 OA
DOCKED: BRANCH   8   9
DOCKED: ATOM      9  P   UNL d   1      47.136  24.237  17.457 -0.23 -0.02    -0.015 P 
DOCKED: ATOM     10  O   UNL d   1      48.138  23.310  18.155 -0.03 -0.64    -0.577 OA
DOCKED: ATOM     11  O   UNL d   1      47.829  25.230  16.524 -0.08 -0.57    -0.577 OA
DOCKED: ATOM     12  O   UNL d   1      46.014  23.457  16.772 -0.43 -0.98    -0.638 OA
DOCKED: ENDBRANCH   8   9
DOCKED: ENDBRANCH   7   8
DOCKED: ENDBRANCH   1   7
DOCKED: BRANCH   1  13
DOCKED: ATOM     13  C   UNL d   1      47.200  27.676  20.875 -0.09 +0.07    +0.073 C 
DOCKED: ATOM     14  O   UNL d   1      46.683  28.671  21.496 -0.44 -1.11    -0.547 OA
DOCKED: ATOM     15  O   UNL d   1      48.315  27.717  20.240 +0.01 -0.34    -0.547 OA
DOCKED: ENDBRANCH   1  13
DOCKED: TORSDOF 6
DOCKED: TER
DOCKED: ENDMDL
________________________________________________________________________________


	BEGINNING GENETIC ALGORITHM DOCKING 41 of 100
Run: 41 Seed: 1944422879 1500900041 [ Run 41 of 100 GA/GALS ]
Beginning LAMARCKIAN GENETIC ALGORITHM (LGA), with a maximum of 25000000 energy evaluations.

Final-Value: -6.603


	FINAL GENETIC ALGORITHM DOCKED STATE
	_______________________________________________


Detailed state:  trans 46.551 26.466 20.185 quatxyzw 0.809561 -0.090187 -0.531762 0.231745 center 0.015 0.083 0.031 ntor 6 -178.1584 19.8035 114.6929 15.4945 -2.3367 -94.5430
State:	 46.551  26.466  20.185   0.832 -0.093 -0.547 153.200   -178.16   19.80  114.69   15.49   -2.34  -94.54

DOCKED: MODEL       41
DOCKED: USER    Run = 41
DOCKED: USER    DPF = D:/Protein_go_brrr/autodock/final/2DN3/2_3_BPG/dock.dpf
DOCKED: USER  
DOCKED: USER    Estimated Free Energy of Binding    =   -6.86 kcal/mol  [=(1)+(2)+(3)-(4)]
DOCKED: USER    Estimated Inhibition Constant, Ki   =    9.37 uM (micromolar)  [Temperature = 298.15 K]
DOCKED: USER    
DOCKED: USER    (1) Final Intermolecular Energy     =   -8.65 kcal/mol
DOCKED: USER        vdW + Hbond + desolv Energy     =   -3.24 kcal/mol
DOCKED: USER        Electrostatic Energy            =   -5.41 kcal/mol
DOCKED: USER    (2) Final Total Internal Energy     =   +2.05 kcal/mol
DOCKED: USER    (3) Torsional Free Energy           =   +1.79 kcal/mol
DOCKED: USER    (4) Unbound System's Energy  [=(2)] =   +2.05 kcal/mol
DOCKED: USER    
DOCKED: USER    
DOCKED: USER    NEWDPF move 2_3_BPG_opt.pdbqt
DOCKED: USER    NEWDPF about 0.015000 0.083000 0.031000
DOCKED: USER    NEWDPF tran0 46.550862 26.466390 20.185496
DOCKED: USER    NEWDPF quaternion0 0.809561 -0.090187 -0.531762 0.231745
DOCKED: USER    NEWDPF axisangle0 0.832217 -0.092711 -0.546644 153.200334
DOCKED: USER    NEWDPF quat0 0.832217 -0.092711 -0.546644 153.200334
DOCKED: USER    NEWDPF dihe0 -178.16 19.80 114.69 15.49 -2.34 -94.54 
DOCKED: USER  keepresnum = 1 
DOCKED: USER  
DOCKED: REMARK  6 active torsions:
DOCKED: REMARK  status: ('A' for Active; 'I' for Inactive)
DOCKED: REMARK    1  A    between atoms: P_1  and  O_3 
DOCKED: REMARK    2  A    between atoms: P_2  and  O_4 
DOCKED: REMARK    3  A    between atoms: O_3  and  C_13 
DOCKED: REMARK    4  A    between atoms: O_4  and  C_14 
DOCKED: REMARK    5  A    between atoms: C_13  and  C_14 
DOCKED: REMARK    6  A    between atoms: C_13  and  C_15 
DOCKED: USER                              x       y       z     vdW  Elec       q    Type
DOCKED: USER                           _______ _______ _______ _____ _____    ______ ____
DOCKED: ROOT
DOCKED: ATOM      1  C   UNL d   1      46.352  26.725  20.771 -0.10 +0.17    +0.193 C 
DOCKED: ENDROOT
DOCKED: BRANCH   1   2
DOCKED: ATOM      2  O   UNL d   1      46.127  25.617  21.707 -0.05 -0.30    -0.356 OA
DOCKED: BRANCH   2   3
DOCKED: ATOM      3  P   UNL d   1      44.657  25.270  22.358 -0.36 -0.01    -0.014 P 
DOCKED: ATOM      4  O   UNL d   1      44.971  24.340  23.540 -0.03 -0.34    -0.577 OA
DOCKED: ATOM      5  O   UNL d   1      43.842  24.555  21.282 -0.54 -0.35    -0.577 OA
DOCKED: ATOM      6  O   UNL d   1      44.029  26.579  22.827 -0.72 -0.99    -0.638 OA
DOCKED: ENDBRANCH   2   3
DOCKED: ENDBRANCH   1   2
DOCKED: BRANCH   1   7
DOCKED: ATOM      7  C   UNL d   1      47.091  26.168  19.499 -0.05 +0.12    +0.201 C 
DOCKED: BRANCH   7   8
DOCKED: ATOM      8  O   UNL d   1      46.345  25.223  18.700 -0.04 -0.23    -0.364 OA
DOCKED: BRANCH   8   9
DOCKED: ATOM      9  P   UNL d   1      47.029  24.559  17.348 -0.29 -0.02    -0.015 P 
DOCKED: ATOM     10  O   UNL d   1      47.276  25.741  16.403 -0.04 -0.46    -0.577 OA
DOCKED: ATOM     11  O   UNL d   1      46.013  23.572  16.773 -0.47 -0.85    -0.577 OA
DOCKED: ATOM     12  O   UNL d   1      48.332  23.890  17.783 +0.02 -0.72    -0.638 OA
DOCKED: ENDBRANCH   8   9
DOCKED: ENDBRANCH   7   8
DOCKED: ENDBRANCH   1   7
DOCKED: BRANCH   1  13
DOCKED: ATOM     13  C   UNL d   1      47.260  27.821  21.443 -0.01 +0.10    +0.073 C 
DOCKED: ATOM     14  O   UNL d   1      46.826  29.025  21.496 -0.50 -1.05    -0.547 OA
DOCKED: ATOM     15  O   UNL d   1      48.367  27.425  21.958 -0.05 -0.50    -0.547 OA
DOCKED: ENDBRANCH   1  13
DOCKED: TORSDOF 6
DOCKED: TER
DOCKED: ENDMDL
________________________________________________________________________________


	BEGINNING GENETIC ALGORITHM DOCKING 42 of 100
Run: 42 Seed: 1104708276 142100882 [ Run 42 of 100 GA/GALS ]
Beginning LAMARCKIAN GENETIC ALGORITHM (LGA), with a maximum of 25000000 energy evaluations.

Final-Value: -6.475


	FINAL GENETIC ALGORITHM DOCKED STATE
	_______________________________________________


Detailed state:  trans 44.896 25.914 18.535 quatxyzw 0.488880 0.837843 -0.200126 0.137714 center 0.015 0.083 0.031 ntor 6 174.3673 -77.9071 -149.0180 16.4292 51.5922 -174.9786
State:	 44.896  25.914  18.535   0.494  0.846 -0.202 164.169    174.37  -77.91 -149.02   16.43   51.59 -174.98

DOCKED: MODEL       42
DOCKED: USER    Run = 42
DOCKED: USER    DPF = D:/Protein_go_brrr/autodock/final/2DN3/2_3_BPG/dock.dpf
DOCKED: USER  
DOCKED: USER    Estimated Free Energy of Binding    =   -7.00 kcal/mol  [=(1)+(2)+(3)-(4)]
DOCKED: USER    Estimated Inhibition Constant, Ki   =    7.37 uM (micromolar)  [Temperature = 298.15 K]
DOCKED: USER    
DOCKED: USER    (1) Final Intermolecular Energy     =   -8.79 kcal/mol
DOCKED: USER        vdW + Hbond + desolv Energy     =   -3.16 kcal/mol
DOCKED: USER        Electrostatic Energy            =   -5.63 kcal/mol
DOCKED: USER    (2) Final Total Internal Energy     =   +2.32 kcal/mol
DOCKED: USER    (3) Torsional Free Energy           =   +1.79 kcal/mol
DOCKED: USER    (4) Unbound System's Energy  [=(2)] =   +2.32 kcal/mol
DOCKED: USER    
DOCKED: USER    
DOCKED: USER    NEWDPF move 2_3_BPG_opt.pdbqt
DOCKED: USER    NEWDPF about 0.015000 0.083000 0.031000
DOCKED: USER    NEWDPF tran0 44.895747 25.914367 18.534768
DOCKED: USER    NEWDPF quaternion0 0.488880 0.837843 -0.200126 0.137714
DOCKED: USER    NEWDPF axisangle0 0.493583 0.845903 -0.202051 164.168831
DOCKED: USER    NEWDPF quat0 0.493583 0.845903 -0.202051 164.168831
DOCKED: USER    NEWDPF dihe0 174.37 -77.91 -149.02 16.43 51.59 -174.98 
DOCKED: USER  keepresnum = 1 
DOCKED: USER  
DOCKED: REMARK  6 active torsions:
DOCKED: REMARK  status: ('A' for Active; 'I' for Inactive)
DOCKED: REMARK    1  A    between atoms: P_1  and  O_3 
DOCKED: REMARK    2  A    between atoms: P_2  and  O_4 
DOCKED: REMARK    3  A    between atoms: O_3  and  C_13 
DOCKED: REMARK    4  A    between atoms: O_4  and  C_14 
DOCKED: REMARK    5  A    between atoms: C_13  and  C_14 
DOCKED: REMARK    6  A    between atoms: C_13  and  C_15 
DOCKED: USER                              x       y       z     vdW  Elec       q    Type
DOCKED: USER                           _______ _______ _______ _____ _____    ______ ____
DOCKED: ROOT
DOCKED: ATOM      1  C   UNL d   1      44.901  25.245  18.579 -0.17 +0.10    +0.193 C 
DOCKED: ENDROOT
DOCKED: BRANCH   1   2
DOCKED: ATOM      2  O   UNL d   1      46.294  24.809  18.734 -0.05 -0.23    -0.356 OA
DOCKED: BRANCH   2   3
DOCKED: ATOM      3  P   UNL d   1      47.080  23.888  17.622 -0.18 -0.02    -0.014 P 
DOCKED: ATOM      4  O   UNL d   1      47.894  24.897  16.796 -0.08 -0.64    -0.577 OA
DOCKED: ATOM      5  O   UNL d   1      46.016  23.196  16.773 -0.44 -0.97    -0.577 OA
DOCKED: ATOM      6  O   UNL d   1      47.987  22.917  18.370 -0.01 -0.70    -0.638 OA
DOCKED: ENDBRANCH   2   3
DOCKED: ENDBRANCH   1   2
DOCKED: BRANCH   1   7
DOCKED: ATOM      7  C   UNL d   1      44.838  26.806  18.766 -0.15 +0.10    +0.201 C 
DOCKED: BRANCH   7   8
DOCKED: ATOM      8  O   UNL d   1      45.998  27.416  19.372 -0.05 -0.23    -0.364 OA
DOCKED: BRANCH   8   9
DOCKED: ATOM      9  P   UNL d   1      45.830  28.364  20.717 -0.15 -0.02    -0.015 P 
DOCKED: ATOM     10  O   UNL d   1      44.662  27.748  21.496 -0.26 -0.99    -0.577 OA
DOCKED: ATOM     11  O   UNL d   1      45.509  29.777  20.230 -0.07 -0.52    -0.577 OA
DOCKED: ATOM     12  O   UNL d   1      47.144  28.284  21.493 -0.44 -1.00    -0.638 OA
DOCKED: ENDBRANCH   8   9
DOCKED: ENDBRANCH   7   8
DOCKED: ENDBRANCH   1   7
DOCKED: BRANCH   1  13
DOCKED: ATOM     13  C   UNL d   1      43.998  24.569  19.676 -0.28 +0.04    +0.073 C 
DOCKED: ATOM     14  O   UNL d   1      42.901  24.018  19.311 -0.26 -0.23    -0.547 OA
DOCKED: ATOM     15  O   UNL d   1      44.453  24.554  20.877 -0.57 -0.34    -0.547 OA
DOCKED: ENDBRANCH   1  13
DOCKED: TORSDOF 6
DOCKED: TER
DOCKED: ENDMDL
________________________________________________________________________________


	BEGINNING GENETIC ALGORITHM DOCKING 43 of 100
Run: 43 Seed: 1091414090 2017732644 [ Run 43 of 100 GA/GALS ]
Beginning LAMARCKIAN GENETIC ALGORITHM (LGA), with a maximum of 25000000 energy evaluations.

Final-Value: -6.317


	FINAL GENETIC ALGORITHM DOCKED STATE
	_______________________________________________


Detailed state:  trans 3.030 43.013 -1.442 quatxyzw -0.535400 -0.493016 0.425624 -0.537705 center 0.015 0.083 0.031 ntor 6 78.1596 83.3101 153.6564 -6.9851 -43.6019 -119.8403
State:	  3.030  43.013  -1.442  -0.635 -0.585  0.505 -114.945     78.16   83.31  153.66   -6.99  -43.60 -119.84

DOCKED: MODEL       43
DOCKED: USER    Run = 43
DOCKED: USER    DPF = D:/Protein_go_brrr/autodock/final/2DN3/2_3_BPG/dock.dpf
DOCKED: USER  
DOCKED: USER    Estimated Free Energy of Binding    =   -6.77 kcal/mol  [=(1)+(2)+(3)-(4)]
DOCKED: USER    Estimated Inhibition Constant, Ki   =   10.87 uM (micromolar)  [Temperature = 298.15 K]
DOCKED: USER    
DOCKED: USER    (1) Final Intermolecular Energy     =   -8.56 kcal/mol
DOCKED: USER        vdW + Hbond + desolv Energy     =   -3.40 kcal/mol
DOCKED: USER        Electrostatic Energy            =   -5.16 kcal/mol
DOCKED: USER    (2) Final Total Internal Energy     =   +2.24 kcal/mol
DOCKED: USER    (3) Torsional Free Energy           =   +1.79 kcal/mol
DOCKED: USER    (4) Unbound System's Energy  [=(2)] =   +2.24 kcal/mol
DOCKED: USER    
DOCKED: USER    
DOCKED: USER    NEWDPF move 2_3_BPG_opt.pdbqt
DOCKED: USER    NEWDPF about 0.015000 0.083000 0.031000
DOCKED: USER    NEWDPF tran0 3.030369 43.012654 -1.441553
DOCKED: USER    NEWDPF quaternion0 -0.535400 -0.493016 0.425624 -0.537705
DOCKED: USER    NEWDPF axisangle0 -0.635012 -0.584743 0.504812 -114.944873
DOCKED: USER    NEWDPF quat0 -0.635012 -0.584743 0.504812 -114.944873
DOCKED: USER    NEWDPF dihe0 78.16 83.31 153.66 -6.99 -43.60 -119.84 
DOCKED: USER  keepresnum = 1 
DOCKED: USER  
DOCKED: REMARK  6 active torsions:
DOCKED: REMARK  status: ('A' for Active; 'I' for Inactive)
DOCKED: REMARK    1  A    between atoms: P_1  and  O_3 
DOCKED: REMARK    2  A    between atoms: P_2  and  O_4 
DOCKED: REMARK    3  A    between atoms: O_3  and  C_13 
DOCKED: REMARK    4  A    between atoms: O_4  and  C_14 
DOCKED: REMARK    5  A    between atoms: C_13  and  C_14 
DOCKED: REMARK    6  A    between atoms: C_13  and  C_15 
DOCKED: USER                              x       y       z     vdW  Elec       q    Type
DOCKED: USER                           _______ _______ _______ _____ _____    ______ ____
DOCKED: ROOT
DOCKED: ATOM      1  C   UNL d   1       2.828  42.429  -1.180 -0.21 +0.15    +0.193 C 
DOCKED: ENDROOT
DOCKED: BRANCH   1   2
DOCKED: ATOM      2  O   UNL d   1       3.359  41.346  -2.014 -0.18 -0.26    -0.356 OA
DOCKED: BRANCH   2   3
DOCKED: ATOM      3  P   UNL d   1       2.493  40.006  -2.412 -0.13 -0.01    -0.014 P 
DOCKED: ATOM      4  O   UNL d   1       3.004  38.920  -1.453 -0.37 -0.87    -0.577 OA
DOCKED: ATOM      5  O   UNL d   1       2.820  39.671  -3.866 +0.02 -0.28    -0.577 OA
DOCKED: ATOM      6  O   UNL d   1       1.017  40.311  -2.176 +0.00 -0.93    -0.638 OA
DOCKED: ENDBRANCH   2   3
DOCKED: ENDBRANCH   1   2
DOCKED: BRANCH   1   7
DOCKED: ATOM      7  C   UNL d   1       3.524  43.777  -1.599 -0.24 +0.11    +0.201 C 
DOCKED: BRANCH   7   8
DOCKED: ATOM      8  O   UNL d   1       3.736  43.962  -3.016 -0.12 -0.18    -0.364 OA
DOCKED: BRANCH   8   9
DOCKED: ATOM      9  P   UNL d   1       3.483  45.444  -3.707 -0.35 -0.01    -0.015 P 
DOCKED: ATOM     10  O   UNL d   1       2.494  46.154  -2.774 +0.02 -0.57    -0.577 OA
DOCKED: ATOM     11  O   UNL d   1       2.884  45.194  -5.090 -0.02 -0.34    -0.577 OA
DOCKED: ATOM     12  O   UNL d   1       4.834  46.155  -3.759 -0.51 -0.80    -0.638 OA
DOCKED: ENDBRANCH   8   9
DOCKED: ENDBRANCH   7   8
DOCKED: ENDBRANCH   1   7
DOCKED: BRANCH   1  13
DOCKED: ATOM     13  C   UNL d   1       3.145  42.148   0.336 -0.45 +0.07    +0.073 C 
DOCKED: ATOM     14  O   UNL d   1       3.650  43.092   1.040 -0.22 -0.30    -0.547 OA
DOCKED: ATOM     15  O   UNL d   1       2.817  40.996   0.796 -0.64 -0.92    -0.547 OA
DOCKED: ENDBRANCH   1  13
DOCKED: TORSDOF 6
DOCKED: TER
DOCKED: ENDMDL
________________________________________________________________________________


	BEGINNING GENETIC ALGORITHM DOCKING 44 of 100
Run: 44 Seed: 284585346 1308730730 [ Run 44 of 100 GA/GALS ]
Beginning LAMARCKIAN GENETIC ALGORITHM (LGA), with a maximum of 25000000 energy evaluations.

Final-Value: -6.631


	FINAL GENETIC ALGORITHM DOCKED STATE
	_______________________________________________


Detailed state:  trans 46.202 25.555 20.449 quatxyzw 0.287130 -0.238339 0.540199 0.754278 center 0.015 0.083 0.031 ntor 6 60.3222 66.2224 -168.4274 3.3580 -39.5344 164.4455
State:	 46.202  25.555  20.449   0.437 -0.363  0.823 82.075     60.32   66.22 -168.43    3.36  -39.53  164.45

DOCKED: MODEL       44
DOCKED: USER    Run = 44
DOCKED: USER    DPF = D:/Protein_go_brrr/autodock/final/2DN3/2_3_BPG/dock.dpf
DOCKED: USER  
DOCKED: USER    Estimated Free Energy of Binding    =   -7.16 kcal/mol  [=(1)+(2)+(3)-(4)]
DOCKED: USER    Estimated Inhibition Constant, Ki   =    5.64 uM (micromolar)  [Temperature = 298.15 K]
DOCKED: USER    
DOCKED: USER    (1) Final Intermolecular Energy     =   -8.95 kcal/mol
DOCKED: USER        vdW + Hbond + desolv Energy     =   -3.32 kcal/mol
DOCKED: USER        Electrostatic Energy            =   -5.63 kcal/mol
DOCKED: USER    (2) Final Total Internal Energy     =   +2.32 kcal/mol
DOCKED: USER    (3) Torsional Free Energy           =   +1.79 kcal/mol
DOCKED: USER    (4) Unbound System's Energy  [=(2)] =   +2.32 kcal/mol
DOCKED: USER    
DOCKED: USER    
DOCKED: USER    NEWDPF move 2_3_BPG_opt.pdbqt
DOCKED: USER    NEWDPF about 0.015000 0.083000 0.031000
DOCKED: USER    NEWDPF tran0 46.202462 25.555004 20.449329
DOCKED: USER    NEWDPF quaternion0 0.287130 -0.238339 0.540199 0.754278
DOCKED: USER    NEWDPF axisangle0 0.437329 -0.363015 0.822778 82.075283
DOCKED: USER    NEWDPF quat0 0.437329 -0.363015 0.822778 82.075283
DOCKED: USER    NEWDPF dihe0 60.32 66.22 -168.43 3.36 -39.53 164.45 
DOCKED: USER  keepresnum = 1 
DOCKED: USER  
DOCKED: REMARK  6 active torsions:
DOCKED: REMARK  status: ('A' for Active; 'I' for Inactive)
DOCKED: REMARK    1  A    between atoms: P_1  and  O_3 
DOCKED: REMARK    2  A    between atoms: P_2  and  O_4 
DOCKED: REMARK    3  A    between atoms: O_3  and  C_13 
DOCKED: REMARK    4  A    between atoms: O_4  and  C_14 
DOCKED: REMARK    5  A    between atoms: C_13  and  C_14 
DOCKED: REMARK    6  A    between atoms: C_13  and  C_15 
DOCKED: USER                              x       y       z     vdW  Elec       q    Type
DOCKED: USER                           _______ _______ _______ _____ _____    ______ ____
DOCKED: ROOT
DOCKED: ATOM      1  C   UNL d   1      45.876  26.051  20.761 -0.11 +0.15    +0.193 C 
DOCKED: ENDROOT
DOCKED: BRANCH   1   2
DOCKED: ATOM      2  O   UNL d   1      45.668  27.138  19.798 -0.07 -0.25    -0.356 OA
DOCKED: BRANCH   2   3
DOCKED: ATOM      3  P   UNL d   1      46.070  28.703  20.102 -0.24 -0.01    -0.014 P 
DOCKED: ATOM      4  O   UNL d   1      44.734  29.460  20.040 -0.07 -0.46    -0.577 OA
DOCKED: ATOM      5  O   UNL d   1      47.021  29.150  18.994 -0.00 -0.30    -0.577 OA
DOCKED: ATOM      6  O   UNL d   1      46.686  28.768  21.496 -0.43 -1.29    -0.638 OA
DOCKED: ENDBRANCH   2   3
DOCKED: ENDBRANCH   1   2
DOCKED: BRANCH   1   7
DOCKED: ATOM      7  C   UNL d   1      46.373  24.776  19.984 -0.07 +0.12    +0.201 C 
DOCKED: BRANCH   7   8
DOCKED: ATOM      8  O   UNL d   1      45.803  24.575  18.672 -0.06 -0.23    -0.364 OA
DOCKED: BRANCH   8   9
DOCKED: ATOM      9  P   UNL d   1      46.731  23.956  17.450 -0.25 -0.02    -0.015 P 
DOCKED: ATOM     10  O   UNL d   1      47.982  23.401  18.141 -0.03 -0.64    -0.577 OA
DOCKED: ATOM     11  O   UNL d   1      47.064  25.117  16.512 -0.17 -0.58    -0.577 OA
DOCKED: ATOM     12  O   UNL d   1      45.913  22.857  16.775 -0.30 -1.10    -0.638 OA
DOCKED: ENDBRANCH   8   9
DOCKED: ENDBRANCH   7   8
DOCKED: ENDBRANCH   1   7
DOCKED: BRANCH   1  13
DOCKED: ATOM     13  C   UNL d   1      44.521  25.704  21.483 -0.29 +0.06    +0.073 C 
DOCKED: ATOM     14  O   UNL d   1      43.993  24.555  21.275 -0.60 -0.34    -0.547 OA
DOCKED: ATOM     15  O   UNL d   1      44.054  26.581  22.297 -0.63 -0.73    -0.547 OA
DOCKED: ENDBRANCH   1  13
DOCKED: TORSDOF 6
DOCKED: TER
DOCKED: ENDMDL
________________________________________________________________________________


	BEGINNING GENETIC ALGORITHM DOCKING 45 of 100
Run: 45 Seed: 1563612197 1134173334 [ Run 45 of 100 GA/GALS ]
Beginning LAMARCKIAN GENETIC ALGORITHM (LGA), with a maximum of 25000000 energy evaluations.

Final-Value: -6.997


	FINAL GENETIC ALGORITHM DOCKED STATE
	_______________________________________________


Detailed state:  trans 45.551 25.899 19.848 quatxyzw 0.088712 -0.559292 0.505730 0.650815 center 0.015 0.083 0.031 ntor 6 101.5339 20.0719 170.2299 22.7199 45.1422 -6.9948
State:	 45.551  25.899  19.848   0.117 -0.737  0.666 98.794    101.53   20.07  170.23   22.72   45.14   -6.99

DOCKED: MODEL       45
DOCKED: USER    Run = 45
DOCKED: USER    DPF = D:/Protein_go_brrr/autodock/final/2DN3/2_3_BPG/dock.dpf
DOCKED: USER  
DOCKED: USER    Estimated Free Energy of Binding    =   -7.36 kcal/mol  [=(1)+(2)+(3)-(4)]
DOCKED: USER    Estimated Inhibition Constant, Ki   =    4.00 uM (micromolar)  [Temperature = 298.15 K]
DOCKED: USER    
DOCKED: USER    (1) Final Intermolecular Energy     =   -9.15 kcal/mol
DOCKED: USER        vdW + Hbond + desolv Energy     =   -3.21 kcal/mol
DOCKED: USER        Electrostatic Energy            =   -5.94 kcal/mol
DOCKED: USER    (2) Final Total Internal Energy     =   +2.16 kcal/mol
DOCKED: USER    (3) Torsional Free Energy           =   +1.79 kcal/mol
DOCKED: USER    (4) Unbound System's Energy  [=(2)] =   +2.16 kcal/mol
DOCKED: USER    
DOCKED: USER    
DOCKED: USER    NEWDPF move 2_3_BPG_opt.pdbqt
DOCKED: USER    NEWDPF about 0.015000 0.083000 0.031000
DOCKED: USER    NEWDPF tran0 45.551223 25.898640 19.847795
DOCKED: USER    NEWDPF quaternion0 0.088712 -0.559292 0.505730 0.650815
DOCKED: USER    NEWDPF axisangle0 0.116843 -0.736651 0.666103 98.793880
DOCKED: USER    NEWDPF quat0 0.116843 -0.736651 0.666103 98.793880
DOCKED: USER    NEWDPF dihe0 101.53 20.07 170.23 22.72 45.14 -6.99 
DOCKED: USER  keepresnum = 1 
DOCKED: USER  
DOCKED: REMARK  6 active torsions:
DOCKED: REMARK  status: ('A' for Active; 'I' for Inactive)
DOCKED: REMARK    1  A    between atoms: P_1  and  O_3 
DOCKED: REMARK    2  A    between atoms: P_2  and  O_4 
DOCKED: REMARK    3  A    between atoms: O_3  and  C_13 
DOCKED: REMARK    4  A    between atoms: O_4  and  C_14 
DOCKED: REMARK    5  A    between atoms: C_13  and  C_14 
DOCKED: REMARK    6  A    between atoms: C_13  and  C_15 
DOCKED: USER                              x       y       z     vdW  Elec       q    Type
DOCKED: USER                           _______ _______ _______ _____ _____    ______ ____
DOCKED: ROOT
DOCKED: ATOM      1  C   UNL d   1      45.533  26.153  20.468 -0.13 +0.14    +0.193 C 
DOCKED: ENDROOT
DOCKED: BRANCH   1   2
DOCKED: ATOM      2  O   UNL d   1      45.598  27.615  20.364 -0.12 -0.34    -0.356 OA
DOCKED: BRANCH   2   3
DOCKED: ATOM      3  P   UNL d   1      46.910  28.496  20.819 -0.12 -0.02    -0.014 P 
DOCKED: ATOM      4  O   UNL d   1      46.386  29.937  20.923 -0.26 -0.72    -0.577 OA
DOCKED: ATOM      5  O   UNL d   1      47.954  28.356  19.714 +0.01 -0.34    -0.577 OA
DOCKED: ATOM      6  O   UNL d   1      47.382  27.973  22.172 -0.24 -1.17    -0.638 OA
DOCKED: ENDBRANCH   2   3
DOCKED: ENDBRANCH   1   2
DOCKED: BRANCH   1   7
DOCKED: ATOM      7  C   UNL d   1      45.281  25.556  19.034 -0.13 +0.11    +0.201 C 
DOCKED: BRANCH   7   8
DOCKED: ATOM      8  O   UNL d   1      45.782  24.219  18.812 -0.07 -0.23    -0.364 OA
DOCKED: BRANCH   8   9
DOCKED: ATOM      9  P   UNL d   1      46.670  23.880  17.457 -0.26 -0.02    -0.015 P 
DOCKED: ATOM     10  O   UNL d   1      46.588  25.149  16.600 -0.16 -0.53    -0.577 OA
DOCKED: ATOM     11  O   UNL d   1      46.004  22.686  16.775 -0.28 -1.09    -0.577 OA
DOCKED: ATOM     12  O   UNL d   1      48.098  23.588  17.915 +0.03 -0.76    -0.638 OA
DOCKED: ENDBRANCH   8   9
DOCKED: ENDBRANCH   7   8
DOCKED: ENDBRANCH   1   7
DOCKED: BRANCH   1  13
DOCKED: ATOM     13  C   UNL d   1      44.342  25.731  21.407 -0.30 +0.06    +0.073 C 
DOCKED: ATOM     14  O   UNL d   1      43.825  24.569  21.253 -0.55 -0.33    -0.547 OA
DOCKED: ATOM     15  O   UNL d   1      43.999  26.563  22.322 -0.64 -0.72    -0.547 OA
DOCKED: ENDBRANCH   1  13
DOCKED: TORSDOF 6
DOCKED: TER
DOCKED: ENDMDL
________________________________________________________________________________


	BEGINNING GENETIC ALGORITHM DOCKING 46 of 100
Run: 46 Seed: 1379595385 822751691 [ Run 46 of 100 GA/GALS ]
Beginning LAMARCKIAN GENETIC ALGORITHM (LGA), with a maximum of 25000000 energy evaluations.

Final-Value: -6.614


	FINAL GENETIC ALGORITHM DOCKED STATE
	_______________________________________________


Detailed state:  trans 45.920 26.777 19.924 quatxyzw 0.845898 -0.432771 -0.187280 0.249184 center 0.015 0.083 0.031 ntor 6 64.6843 -138.1063 -177.7387 -173.2262 -26.6954 -41.2050
State:	 45.920  26.777  19.924   0.873 -0.447 -0.193 151.142     64.68 -138.11 -177.74 -173.23  -26.70  -41.21

DOCKED: MODEL       46
DOCKED: USER    Run = 46
DOCKED: USER    DPF = D:/Protein_go_brrr/autodock/final/2DN3/2_3_BPG/dock.dpf
DOCKED: USER  
DOCKED: USER    Estimated Free Energy of Binding    =   -7.17 kcal/mol  [=(1)+(2)+(3)-(4)]
DOCKED: USER    Estimated Inhibition Constant, Ki   =    5.55 uM (micromolar)  [Temperature = 298.15 K]
DOCKED: USER    
DOCKED: USER    (1) Final Intermolecular Energy     =   -8.96 kcal/mol
DOCKED: USER        vdW + Hbond + desolv Energy     =   -3.41 kcal/mol
DOCKED: USER        Electrostatic Energy            =   -5.55 kcal/mol
DOCKED: USER    (2) Final Total Internal Energy     =   +2.35 kcal/mol
DOCKED: USER    (3) Torsional Free Energy           =   +1.79 kcal/mol
DOCKED: USER    (4) Unbound System's Energy  [=(2)] =   +2.35 kcal/mol
DOCKED: USER    
DOCKED: USER    
DOCKED: USER    NEWDPF move 2_3_BPG_opt.pdbqt
DOCKED: USER    NEWDPF about 0.015000 0.083000 0.031000
DOCKED: USER    NEWDPF tran0 45.919704 26.776621 19.924338
DOCKED: USER    NEWDPF quaternion0 0.845898 -0.432771 -0.187280 0.249184
DOCKED: USER    NEWDPF axisangle0 0.873450 -0.446866 -0.193380 151.141590
DOCKED: USER    NEWDPF quat0 0.873450 -0.446866 -0.193380 151.141590
DOCKED: USER    NEWDPF dihe0 64.68 -138.11 -177.74 -173.23 -26.70 -41.21 
DOCKED: USER  keepresnum = 1 
DOCKED: USER  
DOCKED: REMARK  6 active torsions:
DOCKED: REMARK  status: ('A' for Active; 'I' for Inactive)
DOCKED: REMARK    1  A    between atoms: P_1  and  O_3 
DOCKED: REMARK    2  A    between atoms: P_2  and  O_4 
DOCKED: REMARK    3  A    between atoms: O_3  and  C_13 
DOCKED: REMARK    4  A    between atoms: O_4  and  C_14 
DOCKED: REMARK    5  A    between atoms: C_13  and  C_14 
DOCKED: REMARK    6  A    between atoms: C_13  and  C_15 
DOCKED: USER                              x       y       z     vdW  Elec       q    Type
DOCKED: USER                           _______ _______ _______ _____ _____    ______ ____
DOCKED: ROOT
DOCKED: ATOM      1  C   UNL d   1      45.842  27.362  20.242 -0.14 +0.17    +0.193 C 
DOCKED: ENDROOT
DOCKED: BRANCH   1   2
DOCKED: ATOM      2  O   UNL d   1      44.666  27.257  21.113 -0.30 -0.43    -0.356 OA
DOCKED: BRANCH   2   3
DOCKED: ATOM      3  P   UNL d   1      44.477  26.072  22.237 -0.29 -0.02    -0.014 P 
DOCKED: ATOM      4  O   UNL d   1      45.886  25.865  22.816 -0.03 -0.66    -0.577 OA
DOCKED: ATOM      5  O   UNL d   1      43.982  24.827  21.504 -0.39 -0.36    -0.577 OA
DOCKED: ATOM      6  O   UNL d   1      43.505  26.580  23.298 -0.73 -0.87    -0.638 OA
DOCKED: ENDBRANCH   2   3
DOCKED: ENDBRANCH   1   2
DOCKED: BRANCH   1   7
DOCKED: ATOM      7  C   UNL d   1      46.210  25.926  19.716 -0.08 +0.12    +0.201 C 
DOCKED: BRANCH   7   8
DOCKED: ATOM      8  O   UNL d   1      46.147  25.744  18.284 -0.07 -0.22    -0.364 OA
DOCKED: BRANCH   8   9
DOCKED: ATOM      9  P   UNL d   1      47.029  24.547  17.560 -0.30 -0.01    -0.015 P 
DOCKED: ATOM     10  O   UNL d   1      47.685  23.780  18.715 -0.01 -0.46    -0.577 OA
DOCKED: ATOM     11  O   UNL d   1      48.065  25.232  16.669 -0.08 -0.56    -0.577 OA
DOCKED: ATOM     12  O   UNL d   1      46.049  23.675  16.776 -0.44 -0.92    -0.638 OA
DOCKED: ENDBRANCH   8   9
DOCKED: ENDBRANCH   7   8
DOCKED: ENDBRANCH   1   7
DOCKED: BRANCH   1  13
DOCKED: ATOM     13  C   UNL d   1      47.066  27.929  21.055 -0.03 +0.09    +0.073 C 
DOCKED: ATOM     14  O   UNL d   1      48.110  27.198  21.178 -0.01 -0.43    -0.547 OA
DOCKED: ATOM     15  O   UNL d   1      46.965  29.131  21.496 -0.54 -0.99    -0.547 OA
DOCKED: ENDBRANCH   1  13
DOCKED: TORSDOF 6
DOCKED: TER
DOCKED: ENDMDL
________________________________________________________________________________


	BEGINNING GENETIC ALGORITHM DOCKING 47 of 100
Run: 47 Seed: 2063055209 676096030 [ Run 47 of 100 GA/GALS ]
Beginning LAMARCKIAN GENETIC ALGORITHM (LGA), with a maximum of 25000000 energy evaluations.

Final-Value: -7.017


	FINAL GENETIC ALGORITHM DOCKED STATE
	_______________________________________________


Detailed state:  trans 45.943 26.047 20.234 quatxyzw -0.038021 -0.558408 0.493581 0.665667 center 0.015 0.083 0.031 ntor 6 112.2934 2.2353 -68.4317 39.5788 26.7752 -7.1388
State:	 45.943  26.047  20.234  -0.051 -0.748  0.661 96.533    112.29    2.24  -68.43   39.58   26.78   -7.14

DOCKED: MODEL       47
DOCKED: USER    Run = 47
DOCKED: USER    DPF = D:/Protein_go_brrr/autodock/final/2DN3/2_3_BPG/dock.dpf
DOCKED: USER  
DOCKED: USER    Estimated Free Energy of Binding    =   -7.30 kcal/mol  [=(1)+(2)+(3)-(4)]
DOCKED: USER    Estimated Inhibition Constant, Ki   =    4.44 uM (micromolar)  [Temperature = 298.15 K]
DOCKED: USER    
DOCKED: USER    (1) Final Intermolecular Energy     =   -9.09 kcal/mol
DOCKED: USER        vdW + Hbond + desolv Energy     =   -3.26 kcal/mol
DOCKED: USER        Electrostatic Energy            =   -5.83 kcal/mol
DOCKED: USER    (2) Final Total Internal Energy     =   +2.08 kcal/mol
DOCKED: USER    (3) Torsional Free Energy           =   +1.79 kcal/mol
DOCKED: USER    (4) Unbound System's Energy  [=(2)] =   +2.08 kcal/mol
DOCKED: USER    
DOCKED: USER    
DOCKED: USER    NEWDPF move 2_3_BPG_opt.pdbqt
DOCKED: USER    NEWDPF about 0.015000 0.083000 0.031000
DOCKED: USER    NEWDPF tran0 45.942704 26.047451 20.233733
DOCKED: USER    NEWDPF quaternion0 -0.038021 -0.558408 0.493581 0.665667
DOCKED: USER    NEWDPF axisangle0 -0.050950 -0.748286 0.661417 96.532946
DOCKED: USER    NEWDPF quat0 -0.050950 -0.748286 0.661417 96.532946
DOCKED: USER    NEWDPF dihe0 112.29 2.24 -68.43 39.58 26.78 -7.14 
DOCKED: USER  keepresnum = 1 
DOCKED: USER  
DOCKED: REMARK  6 active torsions:
DOCKED: REMARK  status: ('A' for Active; 'I' for Inactive)
DOCKED: REMARK    1  A    between atoms: P_1  and  O_3 
DOCKED: REMARK    2  A    between atoms: P_2  and  O_4 
DOCKED: REMARK    3  A    between atoms: O_3  and  C_13 
DOCKED: REMARK    4  A    between atoms: O_4  and  C_14 
DOCKED: REMARK    5  A    between atoms: C_13  and  C_14 
DOCKED: REMARK    6  A    between atoms: C_13  and  C_15 
DOCKED: USER                              x       y       z     vdW  Elec       q    Type
DOCKED: USER                           _______ _______ _______ _____ _____    ______ ____
DOCKED: ROOT
DOCKED: ATOM      1  C   UNL d   1      45.855  26.193  20.882 -0.12 +0.16    +0.193 C 
DOCKED: ENDROOT
DOCKED: BRANCH   1   2
DOCKED: ATOM      2  O   UNL d   1      46.076  27.632  21.063 -0.17 -0.49    -0.356 OA
DOCKED: BRANCH   2   3
DOCKED: ATOM      3  P   UNL d   1      47.532  28.278  21.471 +0.13 -0.02    -0.014 P 
DOCKED: ATOM      4  O   UNL d   1      47.285  29.794  21.497 -0.57 -0.80    -0.577 OA
DOCKED: ATOM      5  O   UNL d   1      48.523  27.888  20.376 +0.01 -0.35    -0.577 OA
DOCKED: ATOM      6  O   UNL d   1      47.912  27.749  22.850 -0.05 -0.98    -0.638 OA
DOCKED: ENDBRANCH   2   3
DOCKED: ENDBRANCH   1   2
DOCKED: BRANCH   1   7
DOCKED: ATOM      7  C   UNL d   1      45.768  25.884  19.342 -0.10 +0.12    +0.201 C 
DOCKED: BRANCH   7   8
DOCKED: ATOM      8  O   UNL d   1      46.168  24.555  18.942 -0.05 -0.23    -0.364 OA
DOCKED: BRANCH   8   9
DOCKED: ATOM      9  P   UNL d   1      46.825  24.302  17.444 -0.28 -0.02    -0.015 P 
DOCKED: ATOM     10  O   UNL d   1      48.275  23.880  17.711 +0.00 -0.68    -0.577 OA
DOCKED: ATOM     11  O   UNL d   1      46.746  25.630  16.693 -0.13 -0.45    -0.577 OA
DOCKED: ATOM     12  O   UNL d   1      46.016  23.189  16.779 -0.41 -1.07    -0.638 OA
DOCKED: ENDBRANCH   8   9
DOCKED: ENDBRANCH   7   8
DOCKED: ENDBRANCH   1   7
DOCKED: BRANCH   1  13
DOCKED: ATOM     13  C   UNL d   1      44.500  25.766  21.559 -0.29 +0.06    +0.073 C 
DOCKED: ATOM     14  O   UNL d   1      44.009  24.617  21.275 -0.56 -0.34    -0.547 OA
DOCKED: ATOM     15  O   UNL d   1      43.994  26.579  22.415 -0.68 -0.74    -0.547 OA
DOCKED: ENDBRANCH   1  13
DOCKED: TORSDOF 6
DOCKED: TER
DOCKED: ENDMDL
________________________________________________________________________________


	BEGINNING GENETIC ALGORITHM DOCKING 48 of 100
Run: 48 Seed: 1615885944 1557949084 [ Run 48 of 100 GA/GALS ]
Beginning LAMARCKIAN GENETIC ALGORITHM (LGA), with a maximum of 25000000 energy evaluations.

Final-Value: -6.513


	FINAL GENETIC ALGORITHM DOCKED STATE
	_______________________________________________


Detailed state:  trans 3.267 42.655 -2.401 quatxyzw -0.022344 -0.555913 -0.199308 0.806683 center 0.015 0.083 0.031 ntor 6 97.9591 21.4997 -176.9611 -13.8120 -17.8806 -93.1908
State:	  3.267  42.655  -2.401  -0.038 -0.941 -0.337 72.454     97.96   21.50 -176.96  -13.81  -17.88  -93.19

DOCKED: MODEL       48
DOCKED: USER    Run = 48
DOCKED: USER    DPF = D:/Protein_go_brrr/autodock/final/2DN3/2_3_BPG/dock.dpf
DOCKED: USER  
DOCKED: USER    Estimated Free Energy of Binding    =   -7.16 kcal/mol  [=(1)+(2)+(3)-(4)]
DOCKED: USER    Estimated Inhibition Constant, Ki   =    5.63 uM (micromolar)  [Temperature = 298.15 K]
DOCKED: USER    
DOCKED: USER    (1) Final Intermolecular Energy     =   -8.95 kcal/mol
DOCKED: USER        vdW + Hbond + desolv Energy     =   -3.59 kcal/mol
DOCKED: USER        Electrostatic Energy            =   -5.37 kcal/mol
DOCKED: USER    (2) Final Total Internal Energy     =   +2.44 kcal/mol
DOCKED: USER    (3) Torsional Free Energy           =   +1.79 kcal/mol
DOCKED: USER    (4) Unbound System's Energy  [=(2)] =   +2.44 kcal/mol
DOCKED: USER    
DOCKED: USER    
DOCKED: USER    NEWDPF move 2_3_BPG_opt.pdbqt
DOCKED: USER    NEWDPF about 0.015000 0.083000 0.031000
DOCKED: USER    NEWDPF tran0 3.266911 42.655306 -2.400754
DOCKED: USER    NEWDPF quaternion0 -0.022344 -0.555913 -0.199308 0.806683
DOCKED: USER    NEWDPF axisangle0 -0.037807 -0.940656 -0.337248 72.453820
DOCKED: USER    NEWDPF quat0 -0.037807 -0.940656 -0.337248 72.453820
DOCKED: USER    NEWDPF dihe0 97.96 21.50 -176.96 -13.81 -17.88 -93.19 
DOCKED: USER  keepresnum = 1 
DOCKED: USER  
DOCKED: REMARK  6 active torsions:
DOCKED: REMARK  status: ('A' for Active; 'I' for Inactive)
DOCKED: REMARK    1  A    between atoms: P_1  and  O_3 
DOCKED: REMARK    2  A    between atoms: P_2  and  O_4 
DOCKED: REMARK    3  A    between atoms: O_3  and  C_13 
DOCKED: REMARK    4  A    between atoms: O_4  and  C_14 
DOCKED: REMARK    5  A    between atoms: C_13  and  C_14 
DOCKED: REMARK    6  A    between atoms: C_13  and  C_15 
DOCKED: USER                              x       y       z     vdW  Elec       q    Type
DOCKED: USER                           _______ _______ _______ _____ _____    ______ ____
DOCKED: ROOT
DOCKED: ATOM      1  C   UNL d   1       3.266  42.183  -1.925 -0.19 +0.12    +0.193 C 
DOCKED: ENDROOT
DOCKED: BRANCH   1   2
DOCKED: ATOM      2  O   UNL d   1       2.130  42.433  -1.032 -0.09 -0.32    -0.356 OA
DOCKED: BRANCH   2   3
DOCKED: ATOM      3  P   UNL d   1       2.163  42.119   0.582 -0.42 -0.02    -0.014 P 
DOCKED: ATOM      4  O   UNL d   1       0.684  42.102   0.999 -0.08 -0.74    -0.577 OA
DOCKED: ATOM      5  O   UNL d   1       2.922  43.263   1.250 -0.13 -0.35    -0.577 OA
DOCKED: ATOM      6  O   UNL d   1       2.817  40.756   0.783 -0.61 -1.20    -0.638 OA
DOCKED: ENDBRANCH   2   3
DOCKED: ENDBRANCH   1   2
DOCKED: BRANCH   1   7
DOCKED: ATOM      7  C   UNL d   1       3.118  43.093  -3.200 -0.10 +0.09    +0.201 C 
DOCKED: BRANCH   7   8
DOCKED: ATOM      8  O   UNL d   1       3.231  44.516  -2.975 -0.12 -0.21    -0.364 OA
DOCKED: BRANCH   8   9
DOCKED: ATOM      9  P   UNL d   1       3.459  45.542  -4.252 -0.33 -0.01    -0.015 P 
DOCKED: ATOM     10  O   UNL d   1       3.366  44.654  -5.499 -0.03 -0.28    -0.577 OA
DOCKED: ATOM     11  O   UNL d   1       4.851  46.153  -4.089 -0.68 -0.69    -0.577 OA
DOCKED: ATOM     12  O   UNL d   1       2.340  46.581  -4.202 -0.03 -0.69    -0.638 OA
DOCKED: ENDBRANCH   8   9
DOCKED: ENDBRANCH   7   8
DOCKED: ENDBRANCH   1   7
DOCKED: BRANCH   1  13
DOCKED: ATOM     13  C   UNL d   1       3.273  40.676  -2.380 -0.20 +0.06    +0.073 C 
DOCKED: ATOM     14  O   UNL d   1       3.788  40.382  -3.516 -0.00 -0.23    -0.547 OA
DOCKED: ATOM     15  O   UNL d   1       2.813  39.814  -1.547 -0.57 -0.87    -0.547 OA
DOCKED: ENDBRANCH   1  13
DOCKED: TORSDOF 6
DOCKED: TER
DOCKED: ENDMDL
________________________________________________________________________________


	BEGINNING GENETIC ALGORITHM DOCKING 49 of 100
Run: 49 Seed: 1648221829 1626817606 [ Run 49 of 100 GA/GALS ]
Beginning LAMARCKIAN GENETIC ALGORITHM (LGA), with a maximum of 25000000 energy evaluations.

Final-Value: -6.811


	FINAL GENETIC ALGORITHM DOCKED STATE
	_______________________________________________


Detailed state:  trans 2.106 43.260 -1.407 quatxyzw -0.375409 0.183745 0.445734 -0.791598 center 0.015 0.083 0.031 ntor 6 159.2210 -99.4600 145.2601 8.6795 -1.5940 -0.4560
State:	  2.106  43.260  -1.407  -0.614  0.301  0.729 -75.330    159.22  -99.46  145.26    8.68   -1.59   -0.46

DOCKED: MODEL       49
DOCKED: USER    Run = 49
DOCKED: USER    DPF = D:/Protein_go_brrr/autodock/final/2DN3/2_3_BPG/dock.dpf
DOCKED: USER  
DOCKED: USER    Estimated Free Energy of Binding    =   -6.96 kcal/mol  [=(1)+(2)+(3)-(4)]
DOCKED: USER    Estimated Inhibition Constant, Ki   =    7.93 uM (micromolar)  [Temperature = 298.15 K]
DOCKED: USER    
DOCKED: USER    (1) Final Intermolecular Energy     =   -8.75 kcal/mol
DOCKED: USER        vdW + Hbond + desolv Energy     =   -3.36 kcal/mol
DOCKED: USER        Electrostatic Energy            =   -5.39 kcal/mol
DOCKED: USER    (2) Final Total Internal Energy     =   +1.94 kcal/mol
DOCKED: USER    (3) Torsional Free Energy           =   +1.79 kcal/mol
DOCKED: USER    (4) Unbound System's Energy  [=(2)] =   +1.94 kcal/mol
DOCKED: USER    
DOCKED: USER    
DOCKED: USER    NEWDPF move 2_3_BPG_opt.pdbqt
DOCKED: USER    NEWDPF about 0.015000 0.083000 0.031000
DOCKED: USER    NEWDPF tran0 2.105863 43.260082 -1.406588
DOCKED: USER    NEWDPF quaternion0 -0.375409 0.183745 0.445734 -0.791598
DOCKED: USER    NEWDPF axisangle0 -0.614375 0.300708 0.729465 -75.329864
DOCKED: USER    NEWDPF quat0 -0.614375 0.300708 0.729465 -75.329864
DOCKED: USER    NEWDPF dihe0 159.22 -99.46 145.26 8.68 -1.59 -0.46 
DOCKED: USER  keepresnum = 1 
DOCKED: USER  
DOCKED: REMARK  6 active torsions:
DOCKED: REMARK  status: ('A' for Active; 'I' for Inactive)
DOCKED: REMARK    1  A    between atoms: P_1  and  O_3 
DOCKED: REMARK    2  A    between atoms: P_2  and  O_4 
DOCKED: REMARK    3  A    between atoms: O_3  and  C_13 
DOCKED: REMARK    4  A    between atoms: O_4  and  C_14 
DOCKED: REMARK    5  A    between atoms: C_13  and  C_14 
DOCKED: REMARK    6  A    between atoms: C_13  and  C_15 
DOCKED: USER                              x       y       z     vdW  Elec       q    Type
DOCKED: USER                           _______ _______ _______ _____ _____    ______ ____
DOCKED: ROOT
DOCKED: ATOM      1  C   UNL d   1       2.051  42.898  -0.845 -0.15 +0.15    +0.193 C 
DOCKED: ENDROOT
DOCKED: BRANCH   1   2
DOCKED: ATOM      2  O   UNL d   1       0.844  42.070  -0.950 -0.08 -0.43    -0.356 OA
DOCKED: BRANCH   2   3
DOCKED: ATOM      3  P   UNL d   1      -0.373  42.105   0.155 -0.00 -0.02    -0.014 P 
DOCKED: ATOM      4  O   UNL d   1      -1.137  43.401  -0.158 +0.01 -0.32    -0.577 OA
DOCKED: ATOM      5  O   UNL d   1       0.273  42.153   1.538 -0.09 -0.65    -0.577 OA
DOCKED: ATOM      6  O   UNL d   1      -1.245  40.874  -0.067 -0.40 -1.21    -0.638 OA
DOCKED: ENDBRANCH   2   3
DOCKED: ENDBRANCH   1   2
DOCKED: BRANCH   1   7
DOCKED: ATOM      7  C   UNL d   1       2.355  43.529  -2.254 -0.10 +0.11    +0.201 C 
DOCKED: BRANCH   7   8
DOCKED: ATOM      8  O   UNL d   1       3.189  44.709  -2.249 -0.15 -0.23    -0.364 OA
DOCKED: BRANCH   8   9
DOCKED: ATOM      9  P   UNL d   1       3.545  45.479  -3.670 -0.36 -0.01    -0.015 P 
DOCKED: ATOM     10  O   UNL d   1       3.599  44.366  -4.724 -0.03 -0.29    -0.577 OA
DOCKED: ATOM     11  O   UNL d   1       4.902  46.155  -3.483 -0.42 -0.73    -0.577 OA
DOCKED: ATOM     12  O   UNL d   1       2.414  46.471  -3.940 +0.00 -0.70    -0.638 OA
DOCKED: ENDBRANCH   8   9
DOCKED: ENDBRANCH   7   8
DOCKED: ENDBRANCH   1   7
DOCKED: BRANCH   1  13
DOCKED: ATOM     13  C   UNL d   1       3.279  42.010  -0.415 -0.35 +0.07    +0.073 C 
DOCKED: ATOM     14  O   UNL d   1       4.187  42.537   0.318 -0.32 -0.33    -0.547 OA
DOCKED: ATOM     15  O   UNL d   1       3.262  40.779  -0.778 -0.93 -0.80    -0.547 OA
DOCKED: ENDBRANCH   1  13
DOCKED: TORSDOF 6
DOCKED: TER
DOCKED: ENDMDL
________________________________________________________________________________


	BEGINNING GENETIC ALGORITHM DOCKING 50 of 100
Run: 50 Seed: 377276000 1229002010 [ Run 50 of 100 GA/GALS ]
Beginning LAMARCKIAN GENETIC ALGORITHM (LGA), with a maximum of 25000000 energy evaluations.

Final-Value: -6.812


	FINAL GENETIC ALGORITHM DOCKED STATE
	_______________________________________________


Detailed state:  trans 2.771 43.569 -1.373 quatxyzw 0.349652 -0.183151 -0.263269 0.880277 center 0.015 0.083 0.031 ntor 6 158.3310 -55.5891 -145.0702 -16.7901 0.1186 -83.1696
State:	  2.771  43.569  -1.373   0.737 -0.386 -0.555 56.648    158.33  -55.59 -145.07  -16.79    0.12  -83.17

DOCKED: MODEL       50
DOCKED: USER    Run = 50
DOCKED: USER    DPF = D:/Protein_go_brrr/autodock/final/2DN3/2_3_BPG/dock.dpf
DOCKED: USER  
DOCKED: USER    Estimated Free Energy of Binding    =   -7.08 kcal/mol  [=(1)+(2)+(3)-(4)]
DOCKED: USER    Estimated Inhibition Constant, Ki   =    6.50 uM (micromolar)  [Temperature = 298.15 K]
DOCKED: USER    
DOCKED: USER    (1) Final Intermolecular Energy     =   -8.87 kcal/mol
DOCKED: USER        vdW + Hbond + desolv Energy     =   -3.61 kcal/mol
DOCKED: USER        Electrostatic Energy            =   -5.25 kcal/mol
DOCKED: USER    (2) Final Total Internal Energy     =   +2.05 kcal/mol
DOCKED: USER    (3) Torsional Free Energy           =   +1.79 kcal/mol
DOCKED: USER    (4) Unbound System's Energy  [=(2)] =   +2.05 kcal/mol
DOCKED: USER    
DOCKED: USER    
DOCKED: USER    NEWDPF move 2_3_BPG_opt.pdbqt
DOCKED: USER    NEWDPF about 0.015000 0.083000 0.031000
DOCKED: USER    NEWDPF tran0 2.770807 43.569017 -1.372569
DOCKED: USER    NEWDPF quaternion0 0.349652 -0.183151 -0.263269 0.880277
DOCKED: USER    NEWDPF axisangle0 0.736949 -0.386021 -0.554883 56.648292
DOCKED: USER    NEWDPF quat0 0.736949 -0.386021 -0.554883 56.648292
DOCKED: USER    NEWDPF dihe0 158.33 -55.59 -145.07 -16.79 0.12 -83.17 
DOCKED: USER  keepresnum = 1 
DOCKED: USER  
DOCKED: REMARK  6 active torsions:
DOCKED: REMARK  status: ('A' for Active; 'I' for Inactive)
DOCKED: REMARK    1  A    between atoms: P_1  and  O_3 
DOCKED: REMARK    2  A    between atoms: P_2  and  O_4 
DOCKED: REMARK    3  A    between atoms: O_3  and  C_13 
DOCKED: REMARK    4  A    between atoms: O_4  and  C_14 
DOCKED: REMARK    5  A    between atoms: C_13  and  C_14 
DOCKED: REMARK    6  A    between atoms: C_13  and  C_15 
DOCKED: USER                              x       y       z     vdW  Elec       q    Type
DOCKED: USER                           _______ _______ _______ _____ _____    ______ ____
DOCKED: ROOT
DOCKED: ATOM      1  C   UNL d   1       2.503  43.246  -0.850 -0.19 +0.13    +0.193 C 
DOCKED: ENDROOT
DOCKED: BRANCH   1   2
DOCKED: ATOM      2  O   UNL d   1       1.108  42.928  -1.175 -0.03 -0.27    -0.356 OA
DOCKED: BRANCH   2   3
DOCKED: ATOM      3  P   UNL d   1      -0.084  42.835  -0.045 -0.14 -0.01    -0.014 P 
DOCKED: ATOM      4  O   UNL d   1      -1.107  43.896  -0.479 +0.02 -0.27    -0.577 OA
DOCKED: ATOM      5  O   UNL d   1       0.544  43.178   1.304 -0.01 -0.42    -0.577 OA
DOCKED: ATOM      6  O   UNL d   1      -0.676  41.430  -0.100 -0.46 -1.16    -0.638 OA
DOCKED: ENDBRANCH   2   3
DOCKED: ENDBRANCH   1   2
DOCKED: BRANCH   1   7
DOCKED: ATOM      7  C   UNL d   1       3.227  43.736  -2.157 -0.18 +0.11    +0.201 C 
DOCKED: BRANCH   7   8
DOCKED: ATOM      8  O   UNL d   1       2.924  45.085  -2.578 -0.13 -0.25    -0.364 OA
DOCKED: BRANCH   8   9
DOCKED: ATOM      9  P   UNL d   1       3.566  45.680  -3.981 -0.22 -0.01    -0.015 P 
DOCKED: ATOM     10  O   UNL d   1       3.563  44.496  -4.956 -0.03 -0.29    -0.577 OA
DOCKED: ATOM     11  O   UNL d   1       4.984  46.150  -3.659 -0.48 -0.69    -0.577 OA
DOCKED: ATOM     12  O   UNL d   1       2.653  46.812  -4.451 -0.06 -0.83    -0.638 OA
DOCKED: ENDBRANCH   8   9
DOCKED: ENDBRANCH   7   8
DOCKED: ENDBRANCH   1   7
DOCKED: BRANCH   1  13
DOCKED: ATOM     13  C   UNL d   1       3.239  41.961  -0.317 -0.33 +0.07    +0.073 C 
DOCKED: ATOM     14  O   UNL d   1       4.167  42.104   0.554 -0.46 -0.39    -0.547 OA
DOCKED: ATOM     15  O   UNL d   1       2.817  40.827  -0.748 -0.91 -0.94    -0.547 OA
DOCKED: ENDBRANCH   1  13
DOCKED: TORSDOF 6
DOCKED: TER
DOCKED: ENDMDL
________________________________________________________________________________


	BEGINNING GENETIC ALGORITHM DOCKING 51 of 100
Run: 51 Seed: 456579986 836949396 [ Run 51 of 100 GA/GALS ]
Beginning LAMARCKIAN GENETIC ALGORITHM (LGA), with a maximum of 25000000 energy evaluations.

Final-Value: -6.770


	FINAL GENETIC ALGORITHM DOCKED STATE
	_______________________________________________


Detailed state:  trans 46.186 26.656 19.868 quatxyzw -0.833292 -0.016908 0.550766 -0.044675 center 0.015 0.083 0.031 ntor 6 174.7872 9.5941 -171.0753 7.5511 -15.1450 -118.8204
State:	 46.186  26.656  19.868  -0.834 -0.017  0.551 -174.879    174.79    9.59 -171.08    7.55  -15.14 -118.82

DOCKED: MODEL       51
DOCKED: USER    Run = 51
DOCKED: USER    DPF = D:/Protein_go_brrr/autodock/final/2DN3/2_3_BPG/dock.dpf
DOCKED: USER  
DOCKED: USER    Estimated Free Energy of Binding    =   -7.03 kcal/mol  [=(1)+(2)+(3)-(4)]
DOCKED: USER    Estimated Inhibition Constant, Ki   =    6.98 uM (micromolar)  [Temperature = 298.15 K]
DOCKED: USER    
DOCKED: USER    (1) Final Intermolecular Energy     =   -8.82 kcal/mol
DOCKED: USER        vdW + Hbond + desolv Energy     =   -3.41 kcal/mol
DOCKED: USER        Electrostatic Energy            =   -5.42 kcal/mol
DOCKED: USER    (2) Final Total Internal Energy     =   +2.05 kcal/mol
DOCKED: USER    (3) Torsional Free Energy           =   +1.79 kcal/mol
DOCKED: USER    (4) Unbound System's Energy  [=(2)] =   +2.05 kcal/mol
DOCKED: USER    
DOCKED: USER    
DOCKED: USER    NEWDPF move 2_3_BPG_opt.pdbqt
DOCKED: USER    NEWDPF about 0.015000 0.083000 0.031000
DOCKED: USER    NEWDPF tran0 46.186318 26.655807 19.867972
DOCKED: USER    NEWDPF quaternion0 -0.833292 -0.016908 0.550766 -0.044675
DOCKED: USER    NEWDPF axisangle0 -0.834125 -0.016924 0.551316 -174.878961
DOCKED: USER    NEWDPF quat0 -0.834125 -0.016924 0.551316 -174.878961
DOCKED: USER    NEWDPF dihe0 174.79 9.59 -171.08 7.55 -15.14 -118.82 
DOCKED: USER  keepresnum = 1 
DOCKED: USER  
DOCKED: REMARK  6 active torsions:
DOCKED: REMARK  status: ('A' for Active; 'I' for Inactive)
DOCKED: REMARK    1  A    between atoms: P_1  and  O_3 
DOCKED: REMARK    2  A    between atoms: P_2  and  O_4 
DOCKED: REMARK    3  A    between atoms: O_3  and  C_13 
DOCKED: REMARK    4  A    between atoms: O_4  and  C_14 
DOCKED: REMARK    5  A    between atoms: C_13  and  C_14 
DOCKED: REMARK    6  A    between atoms: C_13  and  C_15 
DOCKED: USER                              x       y       z     vdW  Elec       q    Type
DOCKED: USER                           _______ _______ _______ _____ _____    ______ ____
DOCKED: ROOT
DOCKED: ATOM      1  C   UNL d   1      45.877  26.926  20.398 -0.13 +0.16    +0.193 C 
DOCKED: ENDROOT
DOCKED: BRANCH   1   2
DOCKED: ATOM      2  O   UNL d   1      46.039  26.015  21.536 -0.06 -0.33    -0.356 OA
DOCKED: BRANCH   2   3
DOCKED: ATOM      3  P   UNL d   1      44.775  25.418  22.402 -0.35 -0.01    -0.014 P 
DOCKED: ATOM      4  O   UNL d   1      45.432  24.644  23.555 -0.01 -0.39    -0.577 OA
DOCKED: ATOM      5  O   UNL d   1      43.991  24.490  21.477 -0.52 -0.36    -0.577 OA
DOCKED: ATOM      6  O   UNL d   1      43.956  26.598  22.915 -0.70 -0.99    -0.638 OA
DOCKED: ENDBRANCH   2   3
DOCKED: ENDBRANCH   1   2
DOCKED: BRANCH   1   7
DOCKED: ATOM      7  C   UNL d   1      46.831  26.459  19.237 -0.07 +0.12    +0.201 C 
DOCKED: BRANCH   7   8
DOCKED: ATOM      8  O   UNL d   1      46.915  25.032  19.026 -0.03 -0.23    -0.364 OA
DOCKED: BRANCH   8   9
DOCKED: ATOM      9  P   UNL d   1      47.638  24.437  17.662 -0.21 -0.02    -0.015 P 
DOCKED: ATOM     10  O   UNL d   1      48.334  25.643  17.021 -0.08 -0.44    -0.577 OA
DOCKED: ATOM     11  O   UNL d   1      46.525  23.881  16.774 -0.42 -0.90    -0.577 OA
DOCKED: ATOM     12  O   UNL d   1      48.635  23.369  18.110 -0.01 -0.69    -0.638 OA
DOCKED: ENDBRANCH   8   9
DOCKED: ENDBRANCH   7   8
DOCKED: ENDBRANCH   1   7
DOCKED: BRANCH   1  13
DOCKED: ATOM     13  C   UNL d   1      46.274  28.390  20.818 -0.12 +0.09    +0.073 C 
DOCKED: ATOM     14  O   UNL d   1      45.476  29.348  20.525 -0.14 -0.62    -0.547 OA
DOCKED: ATOM     15  O   UNL d   1      47.358  28.529  21.493 -0.55 -0.81    -0.547 OA
DOCKED: ENDBRANCH   1  13
DOCKED: TORSDOF 6
DOCKED: TER
DOCKED: ENDMDL
________________________________________________________________________________


	BEGINNING GENETIC ALGORITHM DOCKING 52 of 100
Run: 52 Seed: 1348659896 1620880177 [ Run 52 of 100 GA/GALS ]
Beginning LAMARCKIAN GENETIC ALGORITHM (LGA), with a maximum of 25000000 energy evaluations.

Final-Value: -6.402


	FINAL GENETIC ALGORITHM DOCKED STATE
	_______________________________________________


Detailed state:  trans 44.452 26.386 21.370 quatxyzw 0.051250 0.935468 0.216060 0.274937 center 0.015 0.083 0.031 ntor 6 -12.9263 -156.5141 -85.3742 56.9742 -4.0419 166.0351
State:	 44.452  26.386  21.370   0.053  0.973  0.225 148.083    -12.93 -156.51  -85.37   56.97   -4.04  166.04

DOCKED: MODEL       52
DOCKED: USER    Run = 52
DOCKED: USER    DPF = D:/Protein_go_brrr/autodock/final/2DN3/2_3_BPG/dock.dpf
DOCKED: USER  
DOCKED: USER    Estimated Free Energy of Binding    =   -6.84 kcal/mol  [=(1)+(2)+(3)-(4)]
DOCKED: USER    Estimated Inhibition Constant, Ki   =    9.72 uM (micromolar)  [Temperature = 298.15 K]
DOCKED: USER    
DOCKED: USER    (1) Final Intermolecular Energy     =   -8.63 kcal/mol
DOCKED: USER        vdW + Hbond + desolv Energy     =   -3.13 kcal/mol
DOCKED: USER        Electrostatic Energy            =   -5.50 kcal/mol
DOCKED: USER    (2) Final Total Internal Energy     =   +2.23 kcal/mol
DOCKED: USER    (3) Torsional Free Energy           =   +1.79 kcal/mol
DOCKED: USER    (4) Unbound System's Energy  [=(2)] =   +2.23 kcal/mol
DOCKED: USER    
DOCKED: USER    
DOCKED: USER    NEWDPF move 2_3_BPG_opt.pdbqt
DOCKED: USER    NEWDPF about 0.015000 0.083000 0.031000
DOCKED: USER    NEWDPF tran0 44.451509 26.386179 21.369998
DOCKED: USER    NEWDPF quaternion0 0.051250 0.935468 0.216060 0.274937
DOCKED: USER    NEWDPF axisangle0 0.053305 0.972964 0.224721 148.083490
DOCKED: USER    NEWDPF quat0 0.053305 0.972964 0.224721 148.083490
DOCKED: USER    NEWDPF dihe0 -12.93 -156.51 -85.37 56.97 -4.04 166.04 
DOCKED: USER  keepresnum = 1 
DOCKED: USER  
DOCKED: REMARK  6 active torsions:
DOCKED: REMARK  status: ('A' for Active; 'I' for Inactive)
DOCKED: REMARK    1  A    between atoms: P_1  and  O_3 
DOCKED: REMARK    2  A    between atoms: P_2  and  O_4 
DOCKED: REMARK    3  A    between atoms: O_3  and  C_13 
DOCKED: REMARK    4  A    between atoms: O_4  and  C_14 
DOCKED: REMARK    5  A    between atoms: C_13  and  C_14 
DOCKED: REMARK    6  A    between atoms: C_13  and  C_15 
DOCKED: USER                              x       y       z     vdW  Elec       q    Type
DOCKED: USER                           _______ _______ _______ _____ _____    ______ ____
DOCKED: ROOT
DOCKED: ATOM      1  C   UNL d   1      44.833  26.159  20.868 -0.19 +0.15    +0.193 C 
DOCKED: ENDROOT
DOCKED: BRANCH   1   2
DOCKED: ATOM      2  O   UNL d   1      46.207  26.624  21.090 -0.06 -0.35    -0.356 OA
DOCKED: BRANCH   2   3
DOCKED: ATOM      3  P   UNL d   1      46.690  28.172  20.821 -0.14 -0.02    -0.014 P 
DOCKED: ATOM      4  O   UNL d   1      45.386  28.986  20.819 -0.17 -0.78    -0.577 OA
DOCKED: ATOM      5  O   UNL d   1      47.372  28.202  19.454 +0.01 -0.35    -0.577 OA
DOCKED: ATOM      6  O   UNL d   1      47.607  28.586  21.967 -0.28 -1.12    -0.638 OA
DOCKED: ENDBRANCH   2   3
DOCKED: ENDBRANCH   1   2
DOCKED: BRANCH   1   7
DOCKED: ATOM      7  C   UNL d   1      43.991  26.430  22.169 -0.18 +0.24    +0.201 C 
DOCKED: BRANCH   7   8
DOCKED: ATOM      8  O   UNL d   1      44.702  26.296  23.419 -0.31 -0.61    -0.364 OA
DOCKED: BRANCH   8   9
DOCKED: ATOM      9  P   UNL d   1      43.924  26.581  24.851 -0.31 -0.02    -0.015 P 
DOCKED: ATOM     10  O   UNL d   1      43.493  25.198  25.354 -0.01 -0.34    -0.577 OA
DOCKED: ATOM     11  O   UNL d   1      42.723  27.473  24.536 -0.60 -0.69    -0.577 OA
DOCKED: ATOM     12  O   UNL d   1      44.932  27.244  25.788 +0.02 -1.03    -0.638 OA
DOCKED: ENDBRANCH   8   9
DOCKED: ENDBRANCH   7   8
DOCKED: ENDBRANCH   1   7
DOCKED: BRANCH   1  13
DOCKED: ATOM     13  C   UNL d   1      44.828  24.611  20.577 -0.22 +0.04    +0.073 C 
DOCKED: ATOM     14  O   UNL d   1      45.604  23.858  21.264 -0.27 -0.31    -0.547 OA
DOCKED: ATOM     15  O   UNL d   1      43.990  24.186  19.703 -0.40 -0.32    -0.547 OA
DOCKED: ENDBRANCH   1  13
DOCKED: TORSDOF 6
DOCKED: TER
DOCKED: ENDMDL
________________________________________________________________________________


	BEGINNING GENETIC ALGORITHM DOCKING 53 of 100
Run: 53 Seed: 595470759 1607576688 [ Run 53 of 100 GA/GALS ]
Beginning LAMARCKIAN GENETIC ALGORITHM (LGA), with a maximum of 25000000 energy evaluations.

Final-Value: -6.502


	FINAL GENETIC ALGORITHM DOCKED STATE
	_______________________________________________


Detailed state:  trans 46.649 25.867 20.672 quatxyzw -0.808720 0.171050 0.562434 -0.019541 center 0.015 0.083 0.031 ntor 6 -140.8024 67.6315 78.6532 3.1203 -2.8298 -14.5061
State:	 46.649  25.867  20.672  -0.809  0.171  0.563 -177.761   -140.80   67.63   78.65    3.12   -2.83  -14.51

DOCKED: MODEL       53
DOCKED: USER    Run = 53
DOCKED: USER    DPF = D:/Protein_go_brrr/autodock/final/2DN3/2_3_BPG/dock.dpf
DOCKED: USER  
DOCKED: USER    Estimated Free Energy of Binding    =   -6.71 kcal/mol  [=(1)+(2)+(3)-(4)]
DOCKED: USER    Estimated Inhibition Constant, Ki   =   12.08 uM (micromolar)  [Temperature = 298.15 K]
DOCKED: USER    
DOCKED: USER    (1) Final Intermolecular Energy     =   -8.50 kcal/mol
DOCKED: USER        vdW + Hbond + desolv Energy     =   -2.44 kcal/mol
DOCKED: USER        Electrostatic Energy            =   -6.06 kcal/mol
DOCKED: USER    (2) Final Total Internal Energy     =   +2.00 kcal/mol
DOCKED: USER    (3) Torsional Free Energy           =   +1.79 kcal/mol
DOCKED: USER    (4) Unbound System's Energy  [=(2)] =   +2.00 kcal/mol
DOCKED: USER    
DOCKED: USER    
DOCKED: USER    NEWDPF move 2_3_BPG_opt.pdbqt
DOCKED: USER    NEWDPF about 0.015000 0.083000 0.031000
DOCKED: USER    NEWDPF tran0 46.648754 25.867110 20.671886
DOCKED: USER    NEWDPF quaternion0 -0.808720 0.171050 0.562434 -0.019541
DOCKED: USER    NEWDPF axisangle0 -0.808875 0.171082 0.562541 -177.760652
DOCKED: USER    NEWDPF quat0 -0.808875 0.171082 0.562541 -177.760652
DOCKED: USER    NEWDPF dihe0 -140.80 67.63 78.65 3.12 -2.83 -14.51 
DOCKED: USER  keepresnum = 1 
DOCKED: USER  
DOCKED: REMARK  6 active torsions:
DOCKED: REMARK  status: ('A' for Active; 'I' for Inactive)
DOCKED: REMARK    1  A    between atoms: P_1  and  O_3 
DOCKED: REMARK    2  A    between atoms: P_2  and  O_4 
DOCKED: REMARK    3  A    between atoms: O_3  and  C_13 
DOCKED: REMARK    4  A    between atoms: O_4  and  C_14 
DOCKED: REMARK    5  A    between atoms: C_13  and  C_14 
DOCKED: REMARK    6  A    between atoms: C_13  and  C_15 
DOCKED: USER                              x       y       z     vdW  Elec       q    Type
DOCKED: USER                           _______ _______ _______ _____ _____    ______ ____
DOCKED: ROOT
DOCKED: ATOM      1  C   UNL d   1      46.477  26.331  21.125 -0.09 +0.17    +0.193 C 
DOCKED: ENDROOT
DOCKED: BRANCH   1   2
DOCKED: ATOM      2  O   UNL d   1      46.495  25.703  22.451 -0.04 -0.33    -0.356 OA
DOCKED: BRANCH   2   3
DOCKED: ATOM      3  P   UNL d   1      45.244  25.803  23.514 -0.21 -0.02    -0.014 P 
DOCKED: ATOM      4  O   UNL d   1      45.821  26.570  24.714 +0.03 -1.03    -0.577 OA
DOCKED: ATOM      5  O   UNL d   1      44.858  24.375  23.893 -0.02 -0.34    -0.577 OA
DOCKED: ATOM      6  O   UNL d   1      44.116  26.580  22.843 -0.68 -1.01    -0.638 OA
DOCKED: ENDBRANCH   2   3
DOCKED: ENDBRANCH   1   2
DOCKED: BRANCH   1   7
DOCKED: ATOM      7  C   UNL d   1      47.152  25.352  20.094 -0.03 +0.12    +0.201 C 
DOCKED: BRANCH   7   8
DOCKED: ATOM      8  O   UNL d   1      46.591  25.353  18.763 -0.04 -0.22    -0.364 OA
DOCKED: BRANCH   8   9
DOCKED: ATOM      9  P   UNL d   1      47.217  24.360  17.598 -0.25 -0.02    -0.015 P 
DOCKED: ATOM     10  O   UNL d   1      48.146  25.255  16.768 -0.10 -0.54    -0.577 OA
DOCKED: ATOM     11  O   UNL d   1      46.039  23.841  16.774 -0.48 -0.77    -0.577 OA
DOCKED: ATOM     12  O   UNL d   1      47.981  23.249  18.315 -0.01 -0.68    -0.638 OA
DOCKED: ENDBRANCH   8   9
DOCKED: ENDBRANCH   7   8
DOCKED: ENDBRANCH   1   7
DOCKED: BRANCH   1  13
DOCKED: ATOM     13  C   UNL d   1      47.294  27.676  21.153 -0.06 +0.08    +0.073 C 
DOCKED: ATOM     14  O   UNL d   1      46.690  28.751  21.497 -0.45 -1.10    -0.547 OA
DOCKED: ATOM     15  O   UNL d   1      48.548  27.601  20.887 -0.00 -0.37    -0.547 OA
DOCKED: ENDBRANCH   1  13
DOCKED: TORSDOF 6
DOCKED: TER
DOCKED: ENDMDL
________________________________________________________________________________


	BEGINNING GENETIC ALGORITHM DOCKING 54 of 100
Run: 54 Seed: 1645708190 1558680315 [ Run 54 of 100 GA/GALS ]
Beginning LAMARCKIAN GENETIC ALGORITHM (LGA), with a maximum of 25000000 energy evaluations.

Final-Value: -6.921


	FINAL GENETIC ALGORITHM DOCKED STATE
	_______________________________________________


Detailed state:  trans 44.657 26.067 22.287 quatxyzw -0.062998 0.874353 0.234829 0.419992 center 0.015 0.083 0.031 ntor 6 5.6490 -148.9063 77.2577 19.5121 21.4406 -56.5501
State:	 44.657  26.067  22.287  -0.069  0.963  0.259 130.332      5.65 -148.91   77.26   19.51   21.44  -56.55

DOCKED: MODEL       54
DOCKED: USER    Run = 54
DOCKED: USER    DPF = D:/Protein_go_brrr/autodock/final/2DN3/2_3_BPG/dock.dpf
DOCKED: USER  
DOCKED: USER    Estimated Free Energy of Binding    =   -7.18 kcal/mol  [=(1)+(2)+(3)-(4)]
DOCKED: USER    Estimated Inhibition Constant, Ki   =    5.50 uM (micromolar)  [Temperature = 298.15 K]
DOCKED: USER    
DOCKED: USER    (1) Final Intermolecular Energy     =   -8.97 kcal/mol
DOCKED: USER        vdW + Hbond + desolv Energy     =   -4.03 kcal/mol
DOCKED: USER        Electrostatic Energy            =   -4.94 kcal/mol
DOCKED: USER    (2) Final Total Internal Energy     =   +2.04 kcal/mol
DOCKED: USER    (3) Torsional Free Energy           =   +1.79 kcal/mol
DOCKED: USER    (4) Unbound System's Energy  [=(2)] =   +2.04 kcal/mol
DOCKED: USER    
DOCKED: USER    
DOCKED: USER    NEWDPF move 2_3_BPG_opt.pdbqt
DOCKED: USER    NEWDPF about 0.015000 0.083000 0.031000
DOCKED: USER    NEWDPF tran0 44.656795 26.067110 22.287186
DOCKED: USER    NEWDPF quaternion0 -0.062998 0.874353 0.234829 0.419992
DOCKED: USER    NEWDPF axisangle0 -0.069418 0.963445 0.258757 130.331848
DOCKED: USER    NEWDPF quat0 -0.069418 0.963445 0.258757 130.331848
DOCKED: USER    NEWDPF dihe0 5.65 -148.91 77.26 19.51 21.44 -56.55 
DOCKED: USER  keepresnum = 1 
DOCKED: USER  
DOCKED: REMARK  6 active torsions:
DOCKED: REMARK  status: ('A' for Active; 'I' for Inactive)
DOCKED: REMARK    1  A    between atoms: P_1  and  O_3 
DOCKED: REMARK    2  A    between atoms: P_2  and  O_4 
DOCKED: REMARK    3  A    between atoms: O_3  and  C_13 
DOCKED: REMARK    4  A    between atoms: O_4  and  C_14 
DOCKED: REMARK    5  A    between atoms: C_13  and  C_14 
DOCKED: REMARK    6  A    between atoms: C_13  and  C_15 
DOCKED: USER                              x       y       z     vdW  Elec       q    Type
DOCKED: USER                           _______ _______ _______ _____ _____    ______ ____
DOCKED: ROOT
DOCKED: ATOM      1  C   UNL d   1      44.933  26.005  21.680 -0.20 +0.19    +0.193 C 
DOCKED: ENDROOT
DOCKED: BRANCH   1   2
DOCKED: ATOM      2  O   UNL d   1      46.165  26.802  21.655 -0.08 -0.47    -0.356 OA
DOCKED: BRANCH   2   3
DOCKED: ATOM      3  P   UNL d   1      46.350  28.151  20.732 -0.15 -0.02    -0.014 P 
DOCKED: ATOM      4  O   UNL d   1      44.924  28.698  20.564 -0.08 -0.66    -0.577 OA
DOCKED: ATOM      5  O   UNL d   1      46.943  27.707  19.396 +0.01 -0.36    -0.577 OA
DOCKED: ATOM      6  O   UNL d   1      47.238  29.127  21.497 -0.58 -1.02    -0.638 OA
DOCKED: ENDBRANCH   2   3
DOCKED: ENDBRANCH   1   2
DOCKED: BRANCH   1   7
DOCKED: ATOM      7  C   UNL d   1      44.430  25.901  23.166 -0.22 +0.23    +0.201 C 
DOCKED: BRANCH   7   8
DOCKED: ATOM      8  O   UNL d   1      43.317  26.753  23.517 -1.05 -0.52    -0.364 OA
DOCKED: BRANCH   8   9
DOCKED: ATOM      9  P   UNL d   1      43.079  27.202  25.091 -0.53 -0.02    -0.015 P 
DOCKED: ATOM     10  O   UNL d   1      41.969  26.278  25.606 -0.18 -0.27    -0.577 OA
DOCKED: ATOM     11  O   UNL d   1      42.641  28.666  25.075 -0.24 -0.64    -0.577 OA
DOCKED: ATOM     12  O   UNL d   1      44.399  26.980  25.828 +0.02 -0.79    -0.638 OA
DOCKED: ENDBRANCH   8   9
DOCKED: ENDBRANCH   7   8
DOCKED: ENDBRANCH   1   7
DOCKED: BRANCH   1  13
DOCKED: ATOM     13  C   UNL d   1      45.218  24.554  21.140 -0.20 +0.05    +0.073 C 
DOCKED: ATOM     14  O   UNL d   1      46.087  23.836  21.748 -0.06 -0.29    -0.547 OA
DOCKED: ATOM     15  O   UNL d   1      44.507  24.151  20.150 -0.49 -0.35    -0.547 OA
DOCKED: ENDBRANCH   1  13
DOCKED: TORSDOF 6
DOCKED: TER
DOCKED: ENDMDL
________________________________________________________________________________


	BEGINNING GENETIC ALGORITHM DOCKING 55 of 100
Run: 55 Seed: 2022320195 1622582891 [ Run 55 of 100 GA/GALS ]
Beginning LAMARCKIAN GENETIC ALGORITHM (LGA), with a maximum of 25000000 energy evaluations.

Final-Value: -7.012


	FINAL GENETIC ALGORITHM DOCKED STATE
	_______________________________________________


Detailed state:  trans 46.022 26.450 19.950 quatxyzw 0.828797 -0.067158 -0.552489 -0.057803 center 0.015 0.083 0.031 ntor 6 138.2164 -11.1164 -142.8265 28.0805 -18.5357 -55.5474
State:	 46.022  26.450  19.950   0.830 -0.067 -0.553 -173.373    138.22  -11.12 -142.83   28.08  -18.54  -55.55

DOCKED: MODEL       55
DOCKED: USER    Run = 55
DOCKED: USER    DPF = D:/Protein_go_brrr/autodock/final/2DN3/2_3_BPG/dock.dpf
DOCKED: USER  
DOCKED: USER    Estimated Free Energy of Binding    =   -7.20 kcal/mol  [=(1)+(2)+(3)-(4)]
DOCKED: USER    Estimated Inhibition Constant, Ki   =    5.29 uM (micromolar)  [Temperature = 298.15 K]
DOCKED: USER    
DOCKED: USER    (1) Final Intermolecular Energy     =   -8.99 kcal/mol
DOCKED: USER        vdW + Hbond + desolv Energy     =   -3.42 kcal/mol
DOCKED: USER        Electrostatic Energy            =   -5.56 kcal/mol
DOCKED: USER    (2) Final Total Internal Energy     =   +1.98 kcal/mol
DOCKED: USER    (3) Torsional Free Energy           =   +1.79 kcal/mol
DOCKED: USER    (4) Unbound System's Energy  [=(2)] =   +1.98 kcal/mol
DOCKED: USER    
DOCKED: USER    
DOCKED: USER    NEWDPF move 2_3_BPG_opt.pdbqt
DOCKED: USER    NEWDPF about 0.015000 0.083000 0.031000
DOCKED: USER    NEWDPF tran0 46.022193 26.449795 19.950317
DOCKED: USER    NEWDPF quaternion0 0.828797 -0.067158 -0.552489 -0.057803
DOCKED: USER    NEWDPF axisangle0 0.830185 -0.067270 -0.553414 -173.372622
DOCKED: USER    NEWDPF quat0 0.830185 -0.067270 -0.553414 -173.372622
DOCKED: USER    NEWDPF dihe0 138.22 -11.12 -142.83 28.08 -18.54 -55.55 
DOCKED: USER  keepresnum = 1 
DOCKED: USER  
DOCKED: REMARK  6 active torsions:
DOCKED: REMARK  status: ('A' for Active; 'I' for Inactive)
DOCKED: REMARK    1  A    between atoms: P_1  and  O_3 
DOCKED: REMARK    2  A    between atoms: P_2  and  O_4 
DOCKED: REMARK    3  A    between atoms: O_3  and  C_13 
DOCKED: REMARK    4  A    between atoms: O_4  and  C_14 
DOCKED: REMARK    5  A    between atoms: C_13  and  C_14 
DOCKED: REMARK    6  A    between atoms: C_13  and  C_15 
DOCKED: USER                              x       y       z     vdW  Elec       q    Type
DOCKED: USER                           _______ _______ _______ _____ _____    ______ ____
DOCKED: ROOT
DOCKED: ATOM      1  C   UNL d   1      45.728  26.858  20.394 -0.13 +0.16    +0.193 C 
DOCKED: ENDROOT
DOCKED: BRANCH   1   2
DOCKED: ATOM      2  O   UNL d   1      45.885  26.270  21.729 -0.09 -0.40    -0.356 OA
DOCKED: BRANCH   2   3
DOCKED: ATOM      3  P   UNL d   1      44.665  25.511  22.530 -0.36 -0.01    -0.014 P 
DOCKED: ATOM      4  O   UNL d   1      45.369  24.743  23.660 -0.01 -0.41    -0.577 OA
DOCKED: ATOM      5  O   UNL d   1      43.994  24.563  21.539 -0.53 -0.36    -0.577 OA
DOCKED: ATOM      6  O   UNL d   1      43.726  26.580  23.080 -0.70 -0.92    -0.638 OA
DOCKED: ENDBRANCH   2   3
DOCKED: ENDBRANCH   1   2
DOCKED: BRANCH   1   7
DOCKED: ATOM      7  C   UNL d   1      46.652  26.077  19.387 -0.07 +0.12    +0.201 C 
DOCKED: BRANCH   7   8
DOCKED: ATOM      8  O   UNL d   1      45.982  25.147  18.508 -0.06 -0.23    -0.364 OA
DOCKED: BRANCH   8   9
DOCKED: ATOM      9  P   UNL d   1      46.761  24.561  17.172 -0.29 -0.02    -0.015 P 
DOCKED: ATOM     10  O   UNL d   1      48.205  24.319  17.626 -0.04 -0.61    -0.577 OA
DOCKED: ATOM     11  O   UNL d   1      46.674  25.642  16.095 -0.12 -0.47    -0.577 OA
DOCKED: ATOM     12  O   UNL d   1      46.059  23.263  16.774 -0.38 -1.08    -0.638 OA
DOCKED: ENDBRANCH   8   9
DOCKED: ENDBRANCH   7   8
DOCKED: ENDBRANCH   1   7
DOCKED: BRANCH   1  13
DOCKED: ATOM     13  C   UNL d   1      46.168  28.369  20.414 -0.16 +0.08    +0.073 C 
DOCKED: ATOM     14  O   UNL d   1      45.884  29.102  19.403 -0.03 -0.35    -0.547 OA
DOCKED: ATOM     15  O   UNL d   1      46.736  28.796  21.484 -0.46 -1.08    -0.547 OA
DOCKED: ENDBRANCH   1  13
DOCKED: TORSDOF 6
DOCKED: TER
DOCKED: ENDMDL
________________________________________________________________________________


	BEGINNING GENETIC ALGORITHM DOCKING 56 of 100
Run: 56 Seed: 462763620 1732738577 [ Run 56 of 100 GA/GALS ]
Beginning LAMARCKIAN GENETIC ALGORITHM (LGA), with a maximum of 25000000 energy evaluations.

Final-Value: -6.793


	FINAL GENETIC ALGORITHM DOCKED STATE
	_______________________________________________


Detailed state:  trans 44.547 24.740 19.127 quatxyzw -0.684574 -0.601060 -0.391181 -0.130623 center 0.015 0.083 0.031 ntor 6 -163.6443 73.8973 -141.6532 25.5547 2.6874 -8.2775
State:	 44.547  24.740  19.127  -0.690 -0.606 -0.395 -164.989   -163.64   73.90 -141.65   25.55    2.69   -8.28

DOCKED: MODEL       56
DOCKED: USER    Run = 56
DOCKED: USER    DPF = D:/Protein_go_brrr/autodock/final/2DN3/2_3_BPG/dock.dpf
DOCKED: USER  
DOCKED: USER    Estimated Free Energy of Binding    =   -6.91 kcal/mol  [=(1)+(2)+(3)-(4)]
DOCKED: USER    Estimated Inhibition Constant, Ki   =    8.55 uM (micromolar)  [Temperature = 298.15 K]
DOCKED: USER    
DOCKED: USER    (1) Final Intermolecular Energy     =   -8.70 kcal/mol
DOCKED: USER        vdW + Hbond + desolv Energy     =   -2.67 kcal/mol
DOCKED: USER        Electrostatic Energy            =   -6.03 kcal/mol
DOCKED: USER    (2) Final Total Internal Energy     =   +1.91 kcal/mol
DOCKED: USER    (3) Torsional Free Energy           =   +1.79 kcal/mol
DOCKED: USER    (4) Unbound System's Energy  [=(2)] =   +1.91 kcal/mol
DOCKED: USER    
DOCKED: USER    
DOCKED: USER    NEWDPF move 2_3_BPG_opt.pdbqt
DOCKED: USER    NEWDPF about 0.015000 0.083000 0.031000
DOCKED: USER    NEWDPF tran0 44.547175 24.740492 19.126999
DOCKED: USER    NEWDPF quaternion0 -0.684574 -0.601060 -0.391181 -0.130623
DOCKED: USER    NEWDPF axisangle0 -0.690490 -0.606254 -0.394561 -164.988818
DOCKED: USER    NEWDPF quat0 -0.690490 -0.606254 -0.394561 -164.988818
DOCKED: USER    NEWDPF dihe0 -163.64 73.90 -141.65 25.55 2.69 -8.28 
DOCKED: USER  keepresnum = 1 
DOCKED: USER  
DOCKED: REMARK  6 active torsions:
DOCKED: REMARK  status: ('A' for Active; 'I' for Inactive)
DOCKED: REMARK    1  A    between atoms: P_1  and  O_3 
DOCKED: REMARK    2  A    between atoms: P_2  and  O_4 
DOCKED: REMARK    3  A    between atoms: O_3  and  C_13 
DOCKED: REMARK    4  A    between atoms: O_4  and  C_14 
DOCKED: REMARK    5  A    between atoms: C_13  and  C_14 
DOCKED: REMARK    6  A    between atoms: C_13  and  C_15 
DOCKED: USER                              x       y       z     vdW  Elec       q    Type
DOCKED: USER                           _______ _______ _______ _____ _____    ______ ____
DOCKED: ROOT
DOCKED: ATOM      1  C   UNL d   1      44.310  24.454  18.569 -0.21 +0.10    +0.193 C 
DOCKED: ENDROOT
DOCKED: BRANCH   1   2
DOCKED: ATOM      2  O   UNL d   1      44.835  23.086  18.498 -0.17 -0.22    -0.356 OA
DOCKED: BRANCH   2   3
DOCKED: ATOM      3  P   UNL d   1      46.011  22.623  17.446 -0.16 -0.02    -0.014 P 
DOCKED: ATOM      4  O   UNL d   1      45.289  21.713  16.441 -0.11 -0.78    -0.577 OA
DOCKED: ATOM      5  O   UNL d   1      47.059  21.854  18.248 -0.06 -0.69    -0.577 OA
DOCKED: ATOM      6  O   UNL d   1      46.560  23.876  16.772 -0.39 -1.01    -0.638 OA
DOCKED: ENDBRANCH   2   3
DOCKED: ENDBRANCH   1   2
DOCKED: BRANCH   1   7
DOCKED: ATOM      7  C   UNL d   1      44.611  25.038  19.999 -0.19 +0.12    +0.201 C 
DOCKED: BRANCH   7   8
DOCKED: ATOM      8  O   UNL d   1      44.776  26.471  20.073 -0.09 -0.25    -0.364 OA
DOCKED: BRANCH   8   9
DOCKED: ATOM      9  P   UNL d   1      45.235  27.181  21.495 -0.03 -0.02    -0.015 P 
DOCKED: ATOM     10  O   UNL d   1      46.302  26.248  22.080 -0.01 -0.67    -0.577 OA
DOCKED: ATOM     11  O   UNL d   1      43.991  27.251  22.380 -0.51 -1.14    -0.577 OA
DOCKED: ATOM     12  O   UNL d   1      45.802  28.557  21.150 -0.07 -1.16    -0.638 OA
DOCKED: ENDBRANCH   8   9
DOCKED: ENDBRANCH   7   8
DOCKED: ENDBRANCH   1   7
DOCKED: BRANCH   1  13
DOCKED: ATOM     13  C   UNL d   1      42.752  24.447  18.345 -0.41 +0.03    +0.073 C 
DOCKED: ATOM     14  O   UNL d   1      42.289  24.937  17.256 -0.08 -0.17    -0.547 OA
DOCKED: ATOM     15  O   UNL d   1      42.036  23.886  19.251 -0.19 -0.16    -0.547 OA
DOCKED: ENDBRANCH   1  13
DOCKED: TORSDOF 6
DOCKED: TER
DOCKED: ENDMDL
________________________________________________________________________________


	BEGINNING GENETIC ALGORITHM DOCKING 57 of 100
Run: 57 Seed: 979927602 940981297 [ Run 57 of 100 GA/GALS ]
Beginning LAMARCKIAN GENETIC ALGORITHM (LGA), with a maximum of 25000000 energy evaluations.

Final-Value: -6.824


	FINAL GENETIC ALGORITHM DOCKED STATE
	_______________________________________________


Detailed state:  trans 46.092 26.535 19.779 quatxyzw 0.878399 -0.396482 -0.137269 0.228853 center 0.015 0.083 0.031 ntor 6 80.2338 -146.9573 -152.4073 -170.1381 -42.5685 -73.5149
State:	 46.092  26.535  19.779   0.902 -0.407 -0.141 153.541     80.23 -146.96 -152.41 -170.14  -42.57  -73.51

DOCKED: MODEL       57
DOCKED: USER    Run = 57
DOCKED: USER    DPF = D:/Protein_go_brrr/autodock/final/2DN3/2_3_BPG/dock.dpf
DOCKED: USER  
DOCKED: USER    Estimated Free Energy of Binding    =   -7.36 kcal/mol  [=(1)+(2)+(3)-(4)]
DOCKED: USER    Estimated Inhibition Constant, Ki   =    4.00 uM (micromolar)  [Temperature = 298.15 K]
DOCKED: USER    
DOCKED: USER    (1) Final Intermolecular Energy     =   -9.15 kcal/mol
DOCKED: USER        vdW + Hbond + desolv Energy     =   -3.36 kcal/mol
DOCKED: USER        Electrostatic Energy            =   -5.79 kcal/mol
DOCKED: USER    (2) Final Total Internal Energy     =   +2.33 kcal/mol
DOCKED: USER    (3) Torsional Free Energy           =   +1.79 kcal/mol
DOCKED: USER    (4) Unbound System's Energy  [=(2)] =   +2.33 kcal/mol
DOCKED: USER    
DOCKED: USER    
DOCKED: USER    NEWDPF move 2_3_BPG_opt.pdbqt
DOCKED: USER    NEWDPF about 0.015000 0.083000 0.031000
DOCKED: USER    NEWDPF tran0 46.091833 26.534695 19.778730
DOCKED: USER    NEWDPF quaternion0 0.878399 -0.396482 -0.137269 0.228853
DOCKED: USER    NEWDPF axisangle0 0.902347 -0.407291 -0.141011 153.540916
DOCKED: USER    NEWDPF quat0 0.902347 -0.407291 -0.141011 153.540916
DOCKED: USER    NEWDPF dihe0 80.23 -146.96 -152.41 -170.14 -42.57 -73.51 
DOCKED: USER  keepresnum = 1 
DOCKED: USER  
DOCKED: REMARK  6 active torsions:
DOCKED: REMARK  status: ('A' for Active; 'I' for Inactive)
DOCKED: REMARK    1  A    between atoms: P_1  and  O_3 
DOCKED: REMARK    2  A    between atoms: P_2  and  O_4 
DOCKED: REMARK    3  A    between atoms: O_3  and  C_13 
DOCKED: REMARK    4  A    between atoms: O_4  and  C_14 
DOCKED: REMARK    5  A    between atoms: C_13  and  C_14 
DOCKED: REMARK    6  A    between atoms: C_13  and  C_15 
DOCKED: USER                              x       y       z     vdW  Elec       q    Type
DOCKED: USER                           _______ _______ _______ _____ _____    ______ ____
DOCKED: ROOT
DOCKED: ATOM      1  C   UNL d   1      45.944  27.135  20.038 -0.12 +0.15    +0.193 C 
DOCKED: ENDROOT
DOCKED: BRANCH   1   2
DOCKED: ATOM      2  O   UNL d   1      44.696  27.008  20.799 -0.16 -0.34    -0.356 OA
DOCKED: BRANCH   2   3
DOCKED: ATOM      3  P   UNL d   1      44.501  25.952  22.045 -0.36 -0.01    -0.014 P 
DOCKED: ATOM      4  O   UNL d   1      45.910  25.795  22.637 -0.02 -0.62    -0.577 OA
DOCKED: ATOM      5  O   UNL d   1      43.992  24.641  21.451 -0.51 -0.36    -0.577 OA
DOCKED: ATOM      6  O   UNL d   1      43.539  26.579  23.048 -0.70 -0.86    -0.638 OA
DOCKED: ENDBRANCH   2   3
DOCKED: ENDBRANCH   1   2
DOCKED: BRANCH   1   7
DOCKED: ATOM      7  C   UNL d   1      46.459  25.695  19.670 -0.07 +0.12    +0.201 C 
DOCKED: BRANCH   7   8
DOCKED: ATOM      8  O   UNL d   1      45.916  25.121  18.461 -0.06 -0.23    -0.364 OA
DOCKED: BRANCH   8   9
DOCKED: ATOM      9  P   UNL d   1      46.889  24.247  17.448 -0.26 -0.02    -0.015 P 
DOCKED: ATOM     10  O   UNL d   1      47.951  23.619  18.358 -0.02 -0.56    -0.577 OA
DOCKED: ATOM     11  O   UNL d   1      47.500  25.235  16.454 -0.12 -0.57    -0.577 OA
DOCKED: ATOM     12  O   UNL d   1      46.010  23.191  16.778 -0.41 -1.07    -0.638 OA
DOCKED: ENDBRANCH   8   9
DOCKED: ENDBRANCH   7   8
DOCKED: ENDBRANCH   1   7
DOCKED: BRANCH   1  13
DOCKED: ATOM     13  C   UNL d   1      47.038  27.854  20.912 -0.08 +0.08    +0.073 C 
DOCKED: ATOM     14  O   UNL d   1      48.218  27.356  20.945 -0.00 -0.40    -0.547 OA
DOCKED: ATOM     15  O   UNL d   1      46.694  28.945  21.495 -0.47 -1.10    -0.547 OA
DOCKED: ENDBRANCH   1  13
DOCKED: TORSDOF 6
DOCKED: TER
DOCKED: ENDMDL
________________________________________________________________________________


	BEGINNING GENETIC ALGORITHM DOCKING 58 of 100
Run: 58 Seed: 1554443584 737806303 [ Run 58 of 100 GA/GALS ]
Beginning LAMARCKIAN GENETIC ALGORITHM (LGA), with a maximum of 25000000 energy evaluations.

Final-Value: -6.701


	FINAL GENETIC ALGORITHM DOCKED STATE
	_______________________________________________


Detailed state:  trans 45.134 24.734 19.423 quatxyzw -0.769203 -0.506802 -0.321667 -0.219110 center 0.015 0.083 0.031 ntor 6 -143.8232 63.4045 34.0859 40.6101 -51.1874 -23.3751
State:	 45.134  24.734  19.423  -0.788 -0.519 -0.330 -154.686   -143.82   63.40   34.09   40.61  -51.19  -23.38

DOCKED: MODEL       58
DOCKED: USER    Run = 58
DOCKED: USER    DPF = D:/Protein_go_brrr/autodock/final/2DN3/2_3_BPG/dock.dpf
DOCKED: USER  
DOCKED: USER    Estimated Free Energy of Binding    =   -6.92 kcal/mol  [=(1)+(2)+(3)-(4)]
DOCKED: USER    Estimated Inhibition Constant, Ki   =    8.52 uM (micromolar)  [Temperature = 298.15 K]
DOCKED: USER    
DOCKED: USER    (1) Final Intermolecular Energy     =   -8.71 kcal/mol
DOCKED: USER        vdW + Hbond + desolv Energy     =   -2.75 kcal/mol
DOCKED: USER        Electrostatic Energy            =   -5.96 kcal/mol
DOCKED: USER    (2) Final Total Internal Energy     =   +2.01 kcal/mol
DOCKED: USER    (3) Torsional Free Energy           =   +1.79 kcal/mol
DOCKED: USER    (4) Unbound System's Energy  [=(2)] =   +2.01 kcal/mol
DOCKED: USER    
DOCKED: USER    
DOCKED: USER    NEWDPF move 2_3_BPG_opt.pdbqt
DOCKED: USER    NEWDPF about 0.015000 0.083000 0.031000
DOCKED: USER    NEWDPF tran0 45.133763 24.734202 19.423035
DOCKED: USER    NEWDPF quaternion0 -0.769203 -0.506802 -0.321667 -0.219110
DOCKED: USER    NEWDPF axisangle0 -0.788360 -0.519424 -0.329678 -154.686432
DOCKED: USER    NEWDPF quat0 -0.788360 -0.519424 -0.329678 -154.686432
DOCKED: USER    NEWDPF dihe0 -143.82 63.40 34.09 40.61 -51.19 -23.38 
DOCKED: USER  keepresnum = 1 
DOCKED: USER  
DOCKED: REMARK  6 active torsions:
DOCKED: REMARK  status: ('A' for Active; 'I' for Inactive)
DOCKED: REMARK    1  A    between atoms: P_1  and  O_3 
DOCKED: REMARK    2  A    between atoms: P_2  and  O_4 
DOCKED: REMARK    3  A    between atoms: O_3  and  C_13 
DOCKED: REMARK    4  A    between atoms: O_4  and  C_14 
DOCKED: REMARK    5  A    between atoms: C_13  and  C_14 
DOCKED: REMARK    6  A    between atoms: C_13  and  C_15 
DOCKED: USER                              x       y       z     vdW  Elec       q    Type
DOCKED: USER                           _______ _______ _______ _____ _____    ______ ____
DOCKED: ROOT
DOCKED: ATOM      1  C   UNL d   1      44.708  24.543  18.942 -0.18 +0.11    +0.193 C 
DOCKED: ENDROOT
DOCKED: BRANCH   1   2
DOCKED: ATOM      2  O   UNL d   1      44.974  23.135  18.628 -0.17 -0.22    -0.356 OA
DOCKED: BRANCH   2   3
DOCKED: ATOM      3  P   UNL d   1      46.016  22.653  17.451 -0.16 -0.02    -0.014 P 
DOCKED: ATOM      4  O   UNL d   1      45.151  21.824  16.489 -0.10 -0.72    -0.577 OA
DOCKED: ATOM      5  O   UNL d   1      47.090  21.797  18.120 -0.07 -0.73    -0.577 OA
DOCKED: ATOM      6  O   UNL d   1      46.570  23.902  16.772 -0.39 -1.00    -0.638 OA
DOCKED: ENDBRANCH   2   3
DOCKED: ENDBRANCH   1   2
DOCKED: BRANCH   1   7
DOCKED: ATOM      7  C   UNL d   1      45.486  24.924  20.255 -0.13 +0.12    +0.201 C 
DOCKED: BRANCH   7   8
DOCKED: ATOM      8  O   UNL d   1      46.175  26.194  20.234 -0.03 -0.25    -0.364 OA
DOCKED: BRANCH   8   9
DOCKED: ATOM      9  P   UNL d   1      46.001  27.253  21.493 +0.00 -0.02    -0.015 P 
DOCKED: ATOM     10  O   UNL d   1      46.003  28.643  20.848 -0.31 -0.81    -0.577 OA
DOCKED: ATOM     11  O   UNL d   1      47.203  27.049  22.416 -0.02 -0.85    -0.577 OA
DOCKED: ATOM     12  O   UNL d   1      44.668  26.935  22.169 -0.37 -1.18    -0.638 OA
DOCKED: ENDBRANCH   8   9
DOCKED: ENDBRANCH   7   8
DOCKED: ENDBRANCH   1   7
DOCKED: BRANCH   1  13
DOCKED: ATOM     13  C   UNL d   1      43.168  24.760  19.187 -0.38 +0.03    +0.073 C 
DOCKED: ATOM     14  O   UNL d   1      42.427  25.063  18.187 -0.09 -0.17    -0.547 OA
DOCKED: ATOM     15  O   UNL d   1      42.733  24.556  20.377 -0.36 -0.23    -0.547 OA
DOCKED: ENDBRANCH   1  13
DOCKED: TORSDOF 6
DOCKED: TER
DOCKED: ENDMDL
________________________________________________________________________________


	BEGINNING GENETIC ALGORITHM DOCKING 59 of 100
Run: 59 Seed: 1827524609 1349997188 [ Run 59 of 100 GA/GALS ]
Beginning LAMARCKIAN GENETIC ALGORITHM (LGA), with a maximum of 25000000 energy evaluations.

Final-Value: -6.852


	FINAL GENETIC ALGORITHM DOCKED STATE
	_______________________________________________


Detailed state:  trans 44.989 24.909 19.269 quatxyzw 0.730264 0.598365 0.284291 0.166887 center 0.015 0.083 0.031 ntor 6 -150.9949 -155.9759 -177.6759 23.7573 -53.4548 -28.3401
State:	 44.989  24.909  19.269   0.741  0.607  0.288 160.786   -150.99 -155.98 -177.68   23.76  -53.45  -28.34

DOCKED: MODEL       59
DOCKED: USER    Run = 59
DOCKED: USER    DPF = D:/Protein_go_brrr/autodock/final/2DN3/2_3_BPG/dock.dpf
DOCKED: USER  
DOCKED: USER    Estimated Free Energy of Binding    =   -7.02 kcal/mol  [=(1)+(2)+(3)-(4)]
DOCKED: USER    Estimated Inhibition Constant, Ki   =    7.12 uM (micromolar)  [Temperature = 298.15 K]
DOCKED: USER    
DOCKED: USER    (1) Final Intermolecular Energy     =   -8.81 kcal/mol
DOCKED: USER        vdW + Hbond + desolv Energy     =   -3.04 kcal/mol
DOCKED: USER        Electrostatic Energy            =   -5.77 kcal/mol
DOCKED: USER    (2) Final Total Internal Energy     =   +1.96 kcal/mol
DOCKED: USER    (3) Torsional Free Energy           =   +1.79 kcal/mol
DOCKED: USER    (4) Unbound System's Energy  [=(2)] =   +1.96 kcal/mol
DOCKED: USER    
DOCKED: USER    
DOCKED: USER    NEWDPF move 2_3_BPG_opt.pdbqt
DOCKED: USER    NEWDPF about 0.015000 0.083000 0.031000
DOCKED: USER    NEWDPF tran0 44.989485 24.908929 19.269378
DOCKED: USER    NEWDPF quaternion0 0.730264 0.598365 0.284291 0.166887
DOCKED: USER    NEWDPF axisangle0 0.740651 0.606876 0.288335 160.786259
DOCKED: USER    NEWDPF quat0 0.740651 0.606876 0.288335 160.786259
DOCKED: USER    NEWDPF dihe0 -150.99 -155.98 -177.68 23.76 -53.45 -28.34 
DOCKED: USER  keepresnum = 1 
DOCKED: USER  
DOCKED: REMARK  6 active torsions:
DOCKED: REMARK  status: ('A' for Active; 'I' for Inactive)
DOCKED: REMARK    1  A    between atoms: P_1  and  O_3 
DOCKED: REMARK    2  A    between atoms: P_2  and  O_4 
DOCKED: REMARK    3  A    between atoms: O_3  and  C_13 
DOCKED: REMARK    4  A    between atoms: O_4  and  C_14 
DOCKED: REMARK    5  A    between atoms: C_13  and  C_14 
DOCKED: REMARK    6  A    between atoms: C_13  and  C_15 
DOCKED: USER                              x       y       z     vdW  Elec       q    Type
DOCKED: USER                           _______ _______ _______ _____ _____    ______ ____
DOCKED: ROOT
DOCKED: ATOM      1  C   UNL d   1      44.636  24.578  18.806 -0.18 +0.10    +0.193 C 
DOCKED: ENDROOT
DOCKED: BRANCH   1   2
DOCKED: ATOM      2  O   UNL d   1      45.142  23.202  18.741 -0.16 -0.22    -0.356 OA
DOCKED: BRANCH   2   3
DOCKED: ATOM      3  P   UNL d   1      46.018  22.622  17.476 -0.16 -0.02    -0.014 P 
DOCKED: ATOM      4  O   UNL d   1      46.564  23.879  16.780 -0.42 -0.91    -0.577 OA
DOCKED: ATOM      5  O   UNL d   1      45.056  21.853  16.574 -0.10 -0.67    -0.577 OA
DOCKED: ATOM      6  O   UNL d   1      47.144  21.761  18.039 -0.01 -0.88    -0.638 OA
DOCKED: ENDBRANCH   2   3
DOCKED: ENDBRANCH   1   2
DOCKED: BRANCH   1   7
DOCKED: ATOM      7  C   UNL d   1      45.246  25.281  20.075 -0.14 +0.12    +0.201 C 
DOCKED: BRANCH   7   8
DOCKED: ATOM      8  O   UNL d   1      45.827  26.585  19.855 -0.04 -0.25    -0.364 OA
DOCKED: BRANCH   8   9
DOCKED: ATOM      9  P   UNL d   1      45.400  27.857  20.822 -0.24 -0.02    -0.015 P 
DOCKED: ATOM     10  O   UNL d   1      44.477  27.256  21.888 -0.38 -1.03    -0.577 OA
DOCKED: ATOM     11  O   UNL d   1      44.668  28.865  19.936 -0.04 -0.46    -0.577 OA
DOCKED: ATOM     12  O   UNL d   1      46.688  28.416  21.426 -0.38 -1.18    -0.638 OA
DOCKED: ENDBRANCH   8   9
DOCKED: ENDBRANCH   7   8
DOCKED: ENDBRANCH   1   7
DOCKED: BRANCH   1  13
DOCKED: ATOM     13  C   UNL d   1      43.067  24.570  18.939 -0.39 +0.03    +0.073 C 
DOCKED: ATOM     14  O   UNL d   1      42.363  24.728  17.881 -0.09 -0.17    -0.547 OA
DOCKED: ATOM     15  O   UNL d   1      42.583  24.340  20.106 -0.32 -0.22    -0.547 OA
DOCKED: ENDBRANCH   1  13
DOCKED: TORSDOF 6
DOCKED: TER
DOCKED: ENDMDL
________________________________________________________________________________


	BEGINNING GENETIC ALGORITHM DOCKING 60 of 100
Run: 60 Seed: 1267340884 1993811807 [ Run 60 of 100 GA/GALS ]
Beginning LAMARCKIAN GENETIC ALGORITHM (LGA), with a maximum of 25000000 energy evaluations.

Final-Value: -6.332


	FINAL GENETIC ALGORITHM DOCKED STATE
	_______________________________________________


Detailed state:  trans 13.923 18.185 5.367 quatxyzw -0.763060 -0.217210 0.051926 0.606517 center 0.015 0.083 0.031 ntor 6 -134.2146 -44.7730 -62.2983 13.3147 -46.0667 -115.2228
State:	 13.923  18.185   5.367  -0.960 -0.273  0.065 105.324   -134.21  -44.77  -62.30   13.31  -46.07 -115.22

DOCKED: MODEL       60
DOCKED: USER    Run = 60
DOCKED: USER    DPF = D:/Protein_go_brrr/autodock/final/2DN3/2_3_BPG/dock.dpf
DOCKED: USER  
DOCKED: USER    Estimated Free Energy of Binding    =   -6.67 kcal/mol  [=(1)+(2)+(3)-(4)]
DOCKED: USER    Estimated Inhibition Constant, Ki   =   12.84 uM (micromolar)  [Temperature = 298.15 K]
DOCKED: USER    
DOCKED: USER    (1) Final Intermolecular Energy     =   -8.46 kcal/mol
DOCKED: USER        vdW + Hbond + desolv Energy     =   -4.41 kcal/mol
DOCKED: USER        Electrostatic Energy            =   -4.05 kcal/mol
DOCKED: USER    (2) Final Total Internal Energy     =   +2.13 kcal/mol
DOCKED: USER    (3) Torsional Free Energy           =   +1.79 kcal/mol
DOCKED: USER    (4) Unbound System's Energy  [=(2)] =   +2.13 kcal/mol
DOCKED: USER    
DOCKED: USER    
DOCKED: USER    NEWDPF move 2_3_BPG_opt.pdbqt
DOCKED: USER    NEWDPF about 0.015000 0.083000 0.031000
DOCKED: USER    NEWDPF tran0 13.922717 18.184613 5.366653
DOCKED: USER    NEWDPF quaternion0 -0.763060 -0.217210 0.051926 0.606517
DOCKED: USER    NEWDPF axisangle0 -0.959739 -0.273196 0.065310 105.323890
DOCKED: USER    NEWDPF quat0 -0.959739 -0.273196 0.065310 105.323890
DOCKED: USER    NEWDPF dihe0 -134.21 -44.77 -62.30 13.31 -46.07 -115.22 
DOCKED: USER  keepresnum = 1 
DOCKED: USER  
DOCKED: REMARK  6 active torsions:
DOCKED: REMARK  status: ('A' for Active; 'I' for Inactive)
DOCKED: REMARK    1  A    between atoms: P_1  and  O_3 
DOCKED: REMARK    2  A    between atoms: P_2  and  O_4 
DOCKED: REMARK    3  A    between atoms: O_3  and  C_13 
DOCKED: REMARK    4  A    between atoms: O_4  and  C_14 
DOCKED: REMARK    5  A    between atoms: C_13  and  C_14 
DOCKED: REMARK    6  A    between atoms: C_13  and  C_15 
DOCKED: USER                              x       y       z     vdW  Elec       q    Type
DOCKED: USER                           _______ _______ _______ _____ _____    ______ ____
DOCKED: ROOT
DOCKED: ATOM      1  C   UNL d   1      13.289  17.992   5.262 -0.29 +0.11    +0.193 C 
DOCKED: ENDROOT
DOCKED: BRANCH   1   2
DOCKED: ATOM      2  O   UNL d   1      12.540  18.184   6.509 -0.25 -0.27    -0.356 OA
DOCKED: BRANCH   2   3
DOCKED: ATOM      3  P   UNL d   1      11.810  16.955   7.322 -0.52 -0.01    -0.014 P 
DOCKED: ATOM      4  O   UNL d   1      12.265  17.136   8.779 -0.48 -0.72    -0.577 OA
DOCKED: ATOM      5  O   UNL d   1      12.332  15.648   6.729 -0.11 -0.51    -0.577 OA
DOCKED: ATOM      6  O   UNL d   1      10.302  17.128   7.181 -0.70 -0.30    -0.638 OA
DOCKED: ENDBRANCH   2   3
DOCKED: ENDBRANCH   1   2
DOCKED: BRANCH   1   7
DOCKED: ATOM      7  C   UNL d   1      14.686  18.702   5.397 -0.27 +0.11    +0.201 C 
DOCKED: BRANCH   7   8
DOCKED: ATOM      8  O   UNL d   1      15.382  18.493   6.646 -0.63 -0.51    -0.364 OA
DOCKED: BRANCH   8   9
DOCKED: ATOM      9  P   UNL d   1      17.007  18.183   6.650 -0.33 -0.02    -0.015 P 
DOCKED: ATOM     10  O   UNL d   1      17.628  19.323   7.465 -0.07 -0.39    -0.577 OA
DOCKED: ATOM     11  O   UNL d   1      17.468  18.205   5.193 -0.02 -0.23    -0.577 OA
DOCKED: ATOM     12  O   UNL d   1      17.205  16.824   7.320 -0.13 -1.06    -0.638 OA
DOCKED: ENDBRANCH   8   9
DOCKED: ENDBRANCH   7   8
DOCKED: ENDBRANCH   1   7
DOCKED: BRANCH   1  13
DOCKED: ATOM     13  C   UNL d   1      12.509  18.641   4.058 -0.48 +0.02    +0.073 C 
DOCKED: ATOM     14  O   UNL d   1      11.539  17.987   3.535 -0.08 -0.20    -0.547 OA
DOCKED: ATOM     15  O   UNL d   1      12.855  19.827   3.711 -0.05 -0.07    -0.547 OA
DOCKED: ENDBRANCH   1  13
DOCKED: TORSDOF 6
DOCKED: TER
DOCKED: ENDMDL
________________________________________________________________________________


	BEGINNING GENETIC ALGORITHM DOCKING 61 of 100
Run: 61 Seed: 262276589 1308140045 [ Run 61 of 100 GA/GALS ]
Beginning LAMARCKIAN GENETIC ALGORITHM (LGA), with a maximum of 25000000 energy evaluations.

Final-Value: -6.702


	FINAL GENETIC ALGORITHM DOCKED STATE
	_______________________________________________


Detailed state:  trans 2.507 43.388 -1.356 quatxyzw 0.437507 -0.005733 -0.325108 0.838367 center 0.015 0.083 0.031 ntor 6 -45.8068 35.2694 -111.1771 -5.6433 2.1500 -86.0856
State:	  2.507  43.388  -1.356   0.803 -0.011 -0.596 66.064    -45.81   35.27 -111.18   -5.64    2.15  -86.09

DOCKED: MODEL       61
DOCKED: USER    Run = 61
DOCKED: USER    DPF = D:/Protein_go_brrr/autodock/final/2DN3/2_3_BPG/dock.dpf
DOCKED: USER  
DOCKED: USER    Estimated Free Energy of Binding    =   -7.00 kcal/mol  [=(1)+(2)+(3)-(4)]
DOCKED: USER    Estimated Inhibition Constant, Ki   =    7.36 uM (micromolar)  [Temperature = 298.15 K]
DOCKED: USER    
DOCKED: USER    (1) Final Intermolecular Energy     =   -8.79 kcal/mol
DOCKED: USER        vdW + Hbond + desolv Energy     =   -3.45 kcal/mol
DOCKED: USER        Electrostatic Energy            =   -5.34 kcal/mol
DOCKED: USER    (2) Final Total Internal Energy     =   +2.09 kcal/mol
DOCKED: USER    (3) Torsional Free Energy           =   +1.79 kcal/mol
DOCKED: USER    (4) Unbound System's Energy  [=(2)] =   +2.09 kcal/mol
DOCKED: USER    
DOCKED: USER    
DOCKED: USER    NEWDPF move 2_3_BPG_opt.pdbqt
DOCKED: USER    NEWDPF about 0.015000 0.083000 0.031000
DOCKED: USER    NEWDPF tran0 2.507411 43.387738 -1.355997
DOCKED: USER    NEWDPF quaternion0 0.437507 -0.005733 -0.325108 0.838367
DOCKED: USER    NEWDPF axisangle0 0.802609 -0.010518 -0.596413 66.063767
DOCKED: USER    NEWDPF quat0 0.802609 -0.010518 -0.596413 66.063767
DOCKED: USER    NEWDPF dihe0 -45.81 35.27 -111.18 -5.64 2.15 -86.09 
DOCKED: USER  keepresnum = 1 
DOCKED: USER  
DOCKED: REMARK  6 active torsions:
DOCKED: REMARK  status: ('A' for Active; 'I' for Inactive)
DOCKED: REMARK    1  A    between atoms: P_1  and  O_3 
DOCKED: REMARK    2  A    between atoms: P_2  and  O_4 
DOCKED: REMARK    3  A    between atoms: O_3  and  C_13 
DOCKED: REMARK    4  A    between atoms: O_4  and  C_14 
DOCKED: REMARK    5  A    between atoms: C_13  and  C_14 
DOCKED: REMARK    6  A    between atoms: C_13  and  C_15 
DOCKED: USER                              x       y       z     vdW  Elec       q    Type
DOCKED: USER                           _______ _______ _______ _____ _____    ______ ____
DOCKED: ROOT
DOCKED: ATOM      1  C   UNL d   1       2.191  43.013  -0.899 -0.16 +0.14    +0.193 C 
DOCKED: ENDROOT
DOCKED: BRANCH   1   2
DOCKED: ATOM      2  O   UNL d   1       1.101  42.296  -1.569 -0.04 -0.32    -0.356 OA
DOCKED: BRANCH   2   3
DOCKED: ATOM      3  P   UNL d   1      -0.398  42.117  -0.916 -0.08 -0.01    -0.014 P 
DOCKED: ATOM      4  O   UNL d   1      -0.891  40.765  -1.455 -0.24 -0.80    -0.577 OA
DOCKED: ATOM      5  O   UNL d   1      -1.255  43.273  -1.428 +0.01 -0.29    -0.577 OA
DOCKED: ATOM      6  O   UNL d   1      -0.251  42.095   0.602 -0.29 -0.81    -0.638 OA
DOCKED: ENDBRANCH   2   3
DOCKED: ENDBRANCH   1   2
DOCKED: BRANCH   1   7
DOCKED: ATOM      7  C   UNL d   1       3.117  43.662  -1.993 -0.18 +0.11    +0.201 C 
DOCKED: BRANCH   7   8
DOCKED: ATOM      8  O   UNL d   1       2.575  44.816  -2.673 -0.09 -0.22    -0.364 OA
DOCKED: BRANCH   8   9
DOCKED: ATOM      9  P   UNL d   1       3.403  45.503  -3.930 -0.33 -0.01    -0.015 P 
DOCKED: ATOM     10  O   UNL d   1       3.285  44.497  -5.082 -0.02 -0.28    -0.577 OA
DOCKED: ATOM     11  O   UNL d   1       4.850  45.676  -3.469 -0.32 -0.54    -0.577 OA
DOCKED: ATOM     12  O   UNL d   1       2.714  46.828  -4.253 -0.03 -0.90    -0.638 OA
DOCKED: ENDBRANCH   8   9
DOCKED: ENDBRANCH   7   8
DOCKED: ENDBRANCH   1   7
DOCKED: BRANCH   1  13
DOCKED: ATOM     13  C   UNL d   1       3.051  42.010  -0.042 -0.37 +0.07    +0.073 C 
DOCKED: ATOM     14  O   UNL d   1       2.816  40.756  -0.152 -1.00 -1.12    -0.547 OA
DOCKED: ATOM     15  O   UNL d   1       3.989  42.513   0.676 -0.32 -0.35    -0.547 OA
DOCKED: ENDBRANCH   1  13
DOCKED: TORSDOF 6
DOCKED: TER
DOCKED: ENDMDL
________________________________________________________________________________


	BEGINNING GENETIC ALGORITHM DOCKING 62 of 100
Run: 62 Seed: 2140417539 671593290 [ Run 62 of 100 GA/GALS ]
Beginning LAMARCKIAN GENETIC ALGORITHM (LGA), with a maximum of 25000000 energy evaluations.

Final-Value: -5.972


	FINAL GENETIC ALGORITHM DOCKED STATE
	_______________________________________________


Detailed state:  trans 2.707 42.916 -2.091 quatxyzw 0.314014 -0.856942 0.377021 0.157801 center 0.015 0.083 0.031 ntor 6 -65.7501 -59.2221 -166.8331 60.3835 12.9878 117.9894
State:	  2.707  42.916  -2.091   0.318 -0.868  0.382 161.841    -65.75  -59.22 -166.83   60.38   12.99  117.99

DOCKED: MODEL       62
DOCKED: USER    Run = 62
DOCKED: USER    DPF = D:/Protein_go_brrr/autodock/final/2DN3/2_3_BPG/dock.dpf
DOCKED: USER  
DOCKED: USER    Estimated Free Energy of Binding    =   -6.33 kcal/mol  [=(1)+(2)+(3)-(4)]
DOCKED: USER    Estimated Inhibition Constant, Ki   =   22.95 uM (micromolar)  [Temperature = 298.15 K]
DOCKED: USER    
DOCKED: USER    (1) Final Intermolecular Energy     =   -8.12 kcal/mol
DOCKED: USER        vdW + Hbond + desolv Energy     =   -3.17 kcal/mol
DOCKED: USER        Electrostatic Energy            =   -4.95 kcal/mol
DOCKED: USER    (2) Final Total Internal Energy     =   +2.15 kcal/mol
DOCKED: USER    (3) Torsional Free Energy           =   +1.79 kcal/mol
DOCKED: USER    (4) Unbound System's Energy  [=(2)] =   +2.15 kcal/mol
DOCKED: USER    
DOCKED: USER    
DOCKED: USER    NEWDPF move 2_3_BPG_opt.pdbqt
DOCKED: USER    NEWDPF about 0.015000 0.083000 0.031000
DOCKED: USER    NEWDPF tran0 2.706692 42.915974 -2.090874
DOCKED: USER    NEWDPF quaternion0 0.314014 -0.856942 0.377021 0.157801
DOCKED: USER    NEWDPF axisangle0 0.317998 -0.867815 0.381804 161.841420
DOCKED: USER    NEWDPF quat0 0.317998 -0.867815 0.381804 161.841420
DOCKED: USER    NEWDPF dihe0 -65.75 -59.22 -166.83 60.38 12.99 117.99 
DOCKED: USER  keepresnum = 1 
DOCKED: USER  
DOCKED: REMARK  6 active torsions:
DOCKED: REMARK  status: ('A' for Active; 'I' for Inactive)
DOCKED: REMARK    1  A    between atoms: P_1  and  O_3 
DOCKED: REMARK    2  A    between atoms: P_2  and  O_4 
DOCKED: REMARK    3  A    between atoms: O_3  and  C_13 
DOCKED: REMARK    4  A    between atoms: O_4  and  C_14 
DOCKED: REMARK    5  A    between atoms: C_13  and  C_14 
DOCKED: REMARK    6  A    between atoms: C_13  and  C_15 
DOCKED: USER                              x       y       z     vdW  Elec       q    Type
DOCKED: USER                           _______ _______ _______ _____ _____    ______ ____
DOCKED: ROOT
DOCKED: ATOM      1  C   UNL d   1       3.326  43.088  -1.901 -0.19 +0.11    +0.193 C 
DOCKED: ENDROOT
DOCKED: BRANCH   1   2
DOCKED: ATOM      2  O   UNL d   1       3.456  44.544  -2.032 -0.17 -0.22    -0.356 OA
DOCKED: BRANCH   2   3
DOCKED: ATOM      3  P   UNL d   1       3.554  45.315  -3.481 -0.36 -0.01    -0.014 P 
DOCKED: ATOM      4  O   UNL d   1       2.297  46.198  -3.531 -0.03 -0.55    -0.577 OA
DOCKED: ATOM      5  O   UNL d   1       3.528  44.241  -4.567 -0.02 -0.28    -0.577 OA
DOCKED: ATOM      6  O   UNL d   1       4.828  46.153  -3.484 -0.39 -0.83    -0.638 OA
DOCKED: ENDBRANCH   2   3
DOCKED: ENDBRANCH   1   2
DOCKED: BRANCH   1   7
DOCKED: ATOM      7  C   UNL d   1       1.810  42.701  -2.060 -0.07 +0.13    +0.201 C 
DOCKED: BRANCH   7   8
DOCKED: ATOM      8  O   UNL d   1       0.996  42.838  -0.874 -0.04 -0.30    -0.364 OA
DOCKED: BRANCH   8   9
DOCKED: ATOM      9  P   UNL d   1      -0.484  42.103  -0.793 -0.07 -0.02    -0.015 P 
DOCKED: ATOM     10  O   UNL d   1      -0.485  41.082  -1.937 -0.08 -0.65    -0.577 OA
DOCKED: ATOM     11  O   UNL d   1      -1.535  43.194  -1.001 +0.01 -0.30    -0.577 OA
DOCKED: ATOM     12  O   UNL d   1      -0.581  41.432   0.576 -0.36 -1.22    -0.638 OA
DOCKED: ENDBRANCH   8   9
DOCKED: ENDBRANCH   7   8
DOCKED: ENDBRANCH   1   7
DOCKED: BRANCH   1  13
DOCKED: ATOM     13  C   UNL d   1       3.817  42.629  -0.477 -0.42 +0.05    +0.073 C 
DOCKED: ATOM     14  O   UNL d   1       4.455  43.469   0.250 -0.19 -0.24    -0.547 OA
DOCKED: ATOM     15  O   UNL d   1       3.490  41.446  -0.102 -0.77 -0.63    -0.547 OA
DOCKED: ENDBRANCH   1  13
DOCKED: TORSDOF 6
DOCKED: TER
DOCKED: ENDMDL
________________________________________________________________________________


	BEGINNING GENETIC ALGORITHM DOCKING 63 of 100
Run: 63 Seed: 1609533573 328225433 [ Run 63 of 100 GA/GALS ]
Beginning LAMARCKIAN GENETIC ALGORITHM (LGA), with a maximum of 25000000 energy evaluations.

Final-Value: -6.313


	FINAL GENETIC ALGORITHM DOCKED STATE
	_______________________________________________


Detailed state:  trans 44.776 25.483 18.367 quatxyzw 0.609132 0.792812 -0.018975 -0.006806 center 0.015 0.083 0.031 ntor 6 178.7994 62.1617 -93.1071 8.7812 31.1326 -171.6401
State:	 44.776  25.483  18.367   0.609  0.793 -0.019 -179.220    178.80   62.16  -93.11    8.78   31.13 -171.64

DOCKED: MODEL       63
DOCKED: USER    Run = 63
DOCKED: USER    DPF = D:/Protein_go_brrr/autodock/final/2DN3/2_3_BPG/dock.dpf
DOCKED: USER  
DOCKED: USER    Estimated Free Energy of Binding    =   -6.69 kcal/mol  [=(1)+(2)+(3)-(4)]
DOCKED: USER    Estimated Inhibition Constant, Ki   =   12.39 uM (micromolar)  [Temperature = 298.15 K]
DOCKED: USER    
DOCKED: USER    (1) Final Intermolecular Energy     =   -8.48 kcal/mol
DOCKED: USER        vdW + Hbond + desolv Energy     =   -2.95 kcal/mol
DOCKED: USER        Electrostatic Energy            =   -5.53 kcal/mol
DOCKED: USER    (2) Final Total Internal Energy     =   +2.17 kcal/mol
DOCKED: USER    (3) Torsional Free Energy           =   +1.79 kcal/mol
DOCKED: USER    (4) Unbound System's Energy  [=(2)] =   +2.17 kcal/mol
DOCKED: USER    
DOCKED: USER    
DOCKED: USER    NEWDPF move 2_3_BPG_opt.pdbqt
DOCKED: USER    NEWDPF about 0.015000 0.083000 0.031000
DOCKED: USER    NEWDPF tran0 44.775852 25.483481 18.366783
DOCKED: USER    NEWDPF quaternion0 0.609132 0.792812 -0.018975 -0.006806
DOCKED: USER    NEWDPF axisangle0 0.609147 0.792831 -0.018976 -179.220078
DOCKED: USER    NEWDPF quat0 0.609147 0.792831 -0.018976 -179.220078
DOCKED: USER    NEWDPF dihe0 178.80 62.16 -93.11 8.78 31.13 -171.64 
DOCKED: USER  keepresnum = 1 
DOCKED: USER  
DOCKED: REMARK  6 active torsions:
DOCKED: REMARK  status: ('A' for Active; 'I' for Inactive)
DOCKED: REMARK    1  A    between atoms: P_1  and  O_3 
DOCKED: REMARK    2  A    between atoms: P_2  and  O_4 
DOCKED: REMARK    3  A    between atoms: O_3  and  C_13 
DOCKED: REMARK    4  A    between atoms: O_4  and  C_14 
DOCKED: REMARK    5  A    between atoms: C_13  and  C_14 
DOCKED: REMARK    6  A    between atoms: C_13  and  C_15 
DOCKED: USER                              x       y       z     vdW  Elec       q    Type
DOCKED: USER                           _______ _______ _______ _____ _____    ______ ____
DOCKED: ROOT
DOCKED: ATOM      1  C   UNL d   1      44.624  24.834  18.301 -0.19 +0.10    +0.193 C 
DOCKED: ENDROOT
DOCKED: BRANCH   1   2
DOCKED: ATOM      2  O   UNL d   1      45.674  24.050  18.961 -0.10 -0.22    -0.356 OA
DOCKED: BRANCH   2   3
DOCKED: ATOM      3  P   UNL d   1      46.550  22.888  18.195 -0.25 -0.01    -0.014 P 
DOCKED: ATOM      4  O   UNL d   1      46.295  21.613  19.014 -0.04 -0.39    -0.577 OA
DOCKED: ATOM      5  O   UNL d   1      48.016  23.312  18.258 -0.02 -0.62    -0.577 OA
DOCKED: ATOM      6  O   UNL d   1      46.016  22.756  16.773 -0.28 -1.19    -0.638 OA
DOCKED: ENDBRANCH   2   3
DOCKED: ENDBRANCH   1   2
DOCKED: BRANCH   1   7
DOCKED: ATOM      7  C   UNL d   1      44.803  26.347  18.692 -0.16 +0.10    +0.201 C 
DOCKED: BRANCH   7   8
DOCKED: ATOM      8  O   UNL d   1      45.719  26.614  19.776 -0.05 -0.24    -0.364 OA
DOCKED: BRANCH   8   9
DOCKED: ATOM      9  P   UNL d   1      45.426  27.862  20.821 -0.23 -0.02    -0.015 P 
DOCKED: ATOM     10  O   UNL d   1      44.567  27.255  21.937 -0.37 -1.09    -0.577 OA
DOCKED: ATOM     11  O   UNL d   1      44.669  28.933  20.036 -0.05 -0.47    -0.577 OA
DOCKED: ATOM     12  O   UNL d   1      46.781  28.345  21.339 -0.37 -1.07    -0.638 OA
DOCKED: ENDBRANCH   8   9
DOCKED: ENDBRANCH   7   8
DOCKED: ENDBRANCH   1   7
DOCKED: BRANCH   1  13
DOCKED: ATOM     13  C   UNL d   1      43.206  24.352  18.784 -0.37 +0.03    +0.073 C 
DOCKED: ATOM     14  O   UNL d   1      42.333  24.037  17.900 -0.11 -0.16    -0.547 OA
DOCKED: ATOM     15  O   UNL d   1      43.028  24.243  20.051 -0.37 -0.27    -0.547 OA
DOCKED: ENDBRANCH   1  13
DOCKED: TORSDOF 6
DOCKED: TER
DOCKED: ENDMDL
________________________________________________________________________________


	BEGINNING GENETIC ALGORITHM DOCKING 64 of 100
Run: 64 Seed: 117886384 1515093997 [ Run 64 of 100 GA/GALS ]
Beginning LAMARCKIAN GENETIC ALGORITHM (LGA), with a maximum of 25000000 energy evaluations.

Final-Value: -6.843


	FINAL GENETIC ALGORITHM DOCKED STATE
	_______________________________________________


Detailed state:  trans 44.960 25.965 22.094 quatxyzw 0.001142 -0.865613 -0.205285 -0.456697 center 0.015 0.083 0.031 ntor 6 10.1970 -170.5501 76.5632 49.7337 15.5110 -40.9062
State:	 44.960  25.965  22.094   0.001 -0.973 -0.231 -125.652     10.20 -170.55   76.56   49.73   15.51  -40.91

DOCKED: MODEL       64
DOCKED: USER    Run = 64
DOCKED: USER    DPF = D:/Protein_go_brrr/autodock/final/2DN3/2_3_BPG/dock.dpf
DOCKED: USER  
DOCKED: USER    Estimated Free Energy of Binding    =   -7.16 kcal/mol  [=(1)+(2)+(3)-(4)]
DOCKED: USER    Estimated Inhibition Constant, Ki   =    5.64 uM (micromolar)  [Temperature = 298.15 K]
DOCKED: USER    
DOCKED: USER    (1) Final Intermolecular Energy     =   -8.95 kcal/mol
DOCKED: USER        vdW + Hbond + desolv Energy     =   -3.49 kcal/mol
DOCKED: USER        Electrostatic Energy            =   -5.46 kcal/mol
DOCKED: USER    (2) Final Total Internal Energy     =   +2.11 kcal/mol
DOCKED: USER    (3) Torsional Free Energy           =   +1.79 kcal/mol
DOCKED: USER    (4) Unbound System's Energy  [=(2)] =   +2.11 kcal/mol
DOCKED: USER    
DOCKED: USER    
DOCKED: USER    NEWDPF move 2_3_BPG_opt.pdbqt
DOCKED: USER    NEWDPF about 0.015000 0.083000 0.031000
DOCKED: USER    NEWDPF tran0 44.959748 25.964877 22.093530
DOCKED: USER    NEWDPF quaternion0 0.001142 -0.865613 -0.205285 -0.456697
DOCKED: USER    NEWDPF axisangle0 0.001284 -0.973011 -0.230755 -125.651690
DOCKED: USER    NEWDPF quat0 0.001284 -0.973011 -0.230755 -125.651690
DOCKED: USER    NEWDPF dihe0 10.20 -170.55 76.56 49.73 15.51 -40.91 
DOCKED: USER  keepresnum = 1 
DOCKED: USER  
DOCKED: REMARK  6 active torsions:
DOCKED: REMARK  status: ('A' for Active; 'I' for Inactive)
DOCKED: REMARK    1  A    between atoms: P_1  and  O_3 
DOCKED: REMARK    2  A    between atoms: P_2  and  O_4 
DOCKED: REMARK    3  A    between atoms: O_3  and  C_13 
DOCKED: REMARK    4  A    between atoms: O_4  and  C_14 
DOCKED: REMARK    5  A    between atoms: C_13  and  C_14 
DOCKED: REMARK    6  A    between atoms: C_13  and  C_15 
DOCKED: USER                              x       y       z     vdW  Elec       q    Type
DOCKED: USER                           _______ _______ _______ _____ _____    ______ ____
DOCKED: ROOT
DOCKED: ATOM      1  C   UNL d   1      45.170  25.823  21.473 -0.18 +0.17    +0.193 C 
DOCKED: ENDROOT
DOCKED: BRANCH   1   2
DOCKED: ATOM      2  O   UNL d   1      46.439  26.525  21.248 -0.05 -0.35    -0.356 OA
DOCKED: BRANCH   2   3
DOCKED: ATOM      3  P   UNL d   1      46.529  28.104  20.796 -0.15 -0.02    -0.014 P 
DOCKED: ATOM      4  O   UNL d   1      45.074  28.596  20.829 -0.12 -0.77    -0.577 OA
DOCKED: ATOM      5  O   UNL d   1      47.101  28.136  19.380 +0.01 -0.35    -0.577 OA
DOCKED: ATOM      6  O   UNL d   1      47.392  28.837  21.817 -0.29 -1.17    -0.638 OA
DOCKED: ENDBRANCH   2   3
DOCKED: ENDBRANCH   1   2
DOCKED: BRANCH   1   7
DOCKED: ATOM      7  C   UNL d   1      44.812  25.904  23.003 -0.20 +0.24    +0.201 C 
DOCKED: BRANCH   7   8
DOCKED: ATOM      8  O   UNL d   1      43.579  26.583  23.327 -0.88 -0.51    -0.364 OA
DOCKED: BRANCH   8   9
DOCKED: ATOM      9  P   UNL d   1      43.315  27.136  24.863 -0.43 -0.02    -0.015 P 
DOCKED: ATOM     10  O   UNL d   1      42.386  26.099  25.506 -0.13 -0.31    -0.577 OA
DOCKED: ATOM     11  O   UNL d   1      42.643  28.503  24.736 -0.42 -0.71    -0.577 OA
DOCKED: ATOM     12  O   UNL d   1      44.673  27.199  25.560 +0.08 -1.05    -0.638 OA
DOCKED: ENDBRANCH   8   9
DOCKED: ENDBRANCH   7   8
DOCKED: ENDBRANCH   1   7
DOCKED: BRANCH   1  13
DOCKED: ATOM     13  C   UNL d   1      45.312  24.309  21.068 -0.15 +0.04    +0.073 C 
DOCKED: ATOM     14  O   UNL d   1      46.130  23.574  21.725 -0.06 -0.27    -0.547 OA
DOCKED: ATOM     15  O   UNL d   1      44.543  23.881  20.133 -0.51 -0.37    -0.547 OA
DOCKED: ENDBRANCH   1  13
DOCKED: TORSDOF 6
DOCKED: TER
DOCKED: ENDMDL
________________________________________________________________________________


	BEGINNING GENETIC ALGORITHM DOCKING 65 of 100
Run: 65 Seed: 2034374466 764410979 [ Run 65 of 100 GA/GALS ]
Beginning LAMARCKIAN GENETIC ALGORITHM (LGA), with a maximum of 25000000 energy evaluations.

Final-Value: -6.868


	FINAL GENETIC ALGORITHM DOCKED STATE
	_______________________________________________


Detailed state:  trans 45.084 25.006 19.218 quatxyzw 0.760048 0.580963 0.233396 0.174167 center 0.015 0.083 0.031 ntor 6 -152.7850 -162.6950 171.1154 33.0382 -52.3848 -16.3073
State:	 45.084  25.006  19.218   0.772  0.590  0.237 159.940   -152.78 -162.69  171.12   33.04  -52.38  -16.31

DOCKED: MODEL       65
DOCKED: USER    Run = 65
DOCKED: USER    DPF = D:/Protein_go_brrr/autodock/final/2DN3/2_3_BPG/dock.dpf
DOCKED: USER  
DOCKED: USER    Estimated Free Energy of Binding    =   -7.05 kcal/mol  [=(1)+(2)+(3)-(4)]
DOCKED: USER    Estimated Inhibition Constant, Ki   =    6.76 uM (micromolar)  [Temperature = 298.15 K]
DOCKED: USER    
DOCKED: USER    (1) Final Intermolecular Energy     =   -8.84 kcal/mol
DOCKED: USER        vdW + Hbond + desolv Energy     =   -3.16 kcal/mol
DOCKED: USER        Electrostatic Energy            =   -5.69 kcal/mol
DOCKED: USER    (2) Final Total Internal Energy     =   +1.97 kcal/mol
DOCKED: USER    (3) Torsional Free Energy           =   +1.79 kcal/mol
DOCKED: USER    (4) Unbound System's Energy  [=(2)] =   +1.97 kcal/mol
DOCKED: USER    
DOCKED: USER    
DOCKED: USER    NEWDPF move 2_3_BPG_opt.pdbqt
DOCKED: USER    NEWDPF about 0.015000 0.083000 0.031000
DOCKED: USER    NEWDPF tran0 45.083890 25.005672 19.217751
DOCKED: USER    NEWDPF quaternion0 0.760048 0.580963 0.233396 0.174167
DOCKED: USER    NEWDPF axisangle0 0.771845 0.589981 0.237019 159.939610
DOCKED: USER    NEWDPF quat0 0.771845 0.589981 0.237019 159.939610
DOCKED: USER    NEWDPF dihe0 -152.78 -162.69 171.12 33.04 -52.38 -16.31 
DOCKED: USER  keepresnum = 1 
DOCKED: USER  
DOCKED: REMARK  6 active torsions:
DOCKED: REMARK  status: ('A' for Active; 'I' for Inactive)
DOCKED: REMARK    1  A    between atoms: P_1  and  O_3 
DOCKED: REMARK    2  A    between atoms: P_2  and  O_4 
DOCKED: REMARK    3  A    between atoms: O_3  and  C_13 
DOCKED: REMARK    4  A    between atoms: O_4  and  C_14 
DOCKED: REMARK    5  A    between atoms: C_13  and  C_14 
DOCKED: REMARK    6  A    between atoms: C_13  and  C_15 
DOCKED: USER                              x       y       z     vdW  Elec       q    Type
DOCKED: USER                           _______ _______ _______ _____ _____    ______ ____
DOCKED: ROOT
DOCKED: ATOM      1  C   UNL d   1      44.671  24.668  18.812 -0.18 +0.10    +0.193 C 
DOCKED: ENDROOT
DOCKED: BRANCH   1   2
DOCKED: ATOM      2  O   UNL d   1      45.115  23.271  18.766 -0.17 -0.22    -0.356 OA
DOCKED: BRANCH   2   3
DOCKED: ATOM      3  P   UNL d   1      46.023  22.652  17.542 -0.17 -0.02    -0.014 P 
DOCKED: ATOM      4  O   UNL d   1      46.519  23.885  16.772 -0.42 -0.89    -0.577 OA
DOCKED: ATOM      5  O   UNL d   1      45.099  21.788  16.686 -0.12 -0.66    -0.577 OA
DOCKED: ATOM      6  O   UNL d   1      47.181  21.875  18.161 -0.05 -0.81    -0.638 OA
DOCKED: ENDBRANCH   2   3
DOCKED: ENDBRANCH   1   2
DOCKED: BRANCH   1   7
DOCKED: ATOM      7  C   UNL d   1      45.438  25.404  19.971 -0.12 +0.12    +0.201 C 
DOCKED: BRANCH   7   8
DOCKED: ATOM      8  O   UNL d   1      45.806  26.777  19.711 -0.05 -0.24    -0.364 OA
DOCKED: BRANCH   8   9
DOCKED: ATOM      9  P   UNL d   1      45.461  27.953  20.823 -0.22 -0.02    -0.015 P 
DOCKED: ATOM     10  O   UNL d   1      44.615  27.254  21.894 -0.36 -1.07    -0.577 OA
DOCKED: ATOM     11  O   UNL d   1      44.673  29.040  20.092 -0.05 -0.48    -0.577 OA
DOCKED: ATOM     12  O   UNL d   1      46.794  28.452  21.380 -0.40 -1.12    -0.638 OA
DOCKED: ENDBRANCH   8   9
DOCKED: ENDBRANCH   7   8
DOCKED: ENDBRANCH   1   7
DOCKED: BRANCH   1  13
DOCKED: ATOM     13  C   UNL d   1      43.126  24.733  19.109 -0.39 +0.03    +0.073 C 
DOCKED: ATOM     14  O   UNL d   1      42.321  24.905  18.127 -0.09 -0.17    -0.547 OA
DOCKED: ATOM     15  O   UNL d   1      42.758  24.545  20.324 -0.37 -0.23    -0.547 OA
DOCKED: ENDBRANCH   1  13
DOCKED: TORSDOF 6
DOCKED: TER
DOCKED: ENDMDL
________________________________________________________________________________


	BEGINNING GENETIC ALGORITHM DOCKING 66 of 100
Run: 66 Seed: 1718127808 1847431970 [ Run 66 of 100 GA/GALS ]
Beginning LAMARCKIAN GENETIC ALGORITHM (LGA), with a maximum of 25000000 energy evaluations.

Final-Value: -6.952


	FINAL GENETIC ALGORITHM DOCKED STATE
	_______________________________________________


Detailed state:  trans 45.807 25.781 20.248 quatxyzw 0.156170 -0.483170 0.512437 0.692508 center 0.015 0.083 0.031 ntor 6 -90.6736 26.7383 -111.2999 25.2570 -18.4826 -36.4984
State:	 45.807  25.781  20.248   0.216 -0.670  0.710 92.342    -90.67   26.74 -111.30   25.26  -18.48  -36.50

DOCKED: MODEL       66
DOCKED: USER    Run = 66
DOCKED: USER    DPF = D:/Protein_go_brrr/autodock/final/2DN3/2_3_BPG/dock.dpf
DOCKED: USER  
DOCKED: USER    Estimated Free Energy of Binding    =   -7.18 kcal/mol  [=(1)+(2)+(3)-(4)]
DOCKED: USER    Estimated Inhibition Constant, Ki   =    5.50 uM (micromolar)  [Temperature = 298.15 K]
DOCKED: USER    
DOCKED: USER    (1) Final Intermolecular Energy     =   -8.96 kcal/mol
DOCKED: USER        vdW + Hbond + desolv Energy     =   -3.11 kcal/mol
DOCKED: USER        Electrostatic Energy            =   -5.85 kcal/mol
DOCKED: USER    (2) Final Total Internal Energy     =   +2.01 kcal/mol
DOCKED: USER    (3) Torsional Free Energy           =   +1.79 kcal/mol
DOCKED: USER    (4) Unbound System's Energy  [=(2)] =   +2.01 kcal/mol
DOCKED: USER    
DOCKED: USER    
DOCKED: USER    NEWDPF move 2_3_BPG_opt.pdbqt
DOCKED: USER    NEWDPF about 0.015000 0.083000 0.031000
DOCKED: USER    NEWDPF tran0 45.806689 25.780835 20.248220
DOCKED: USER    NEWDPF quaternion0 0.156170 -0.483170 0.512437 0.692508
DOCKED: USER    NEWDPF axisangle0 0.216478 -0.669757 0.710326 92.342137
DOCKED: USER    NEWDPF quat0 0.216478 -0.669757 0.710326 92.342137
DOCKED: USER    NEWDPF dihe0 -90.67 26.74 -111.30 25.26 -18.48 -36.50 
DOCKED: USER  keepresnum = 1 
DOCKED: USER  
DOCKED: REMARK  6 active torsions:
DOCKED: REMARK  status: ('A' for Active; 'I' for Inactive)
DOCKED: REMARK    1  A    between atoms: P_1  and  O_3 
DOCKED: REMARK    2  A    between atoms: P_2  and  O_4 
DOCKED: REMARK    3  A    between atoms: O_3  and  C_13 
DOCKED: REMARK    4  A    between atoms: O_4  and  C_14 
DOCKED: REMARK    5  A    between atoms: C_13  and  C_14 
DOCKED: REMARK    6  A    between atoms: C_13  and  C_15 
DOCKED: USER                              x       y       z     vdW  Elec       q    Type
DOCKED: USER                           _______ _______ _______ _____ _____    ______ ____
DOCKED: ROOT
DOCKED: ATOM      1  C   UNL d   1      45.705  26.126  20.814 -0.13 +0.15    +0.193 C 
DOCKED: ENDROOT
DOCKED: BRANCH   1   2
DOCKED: ATOM      2  O   UNL d   1      45.609  27.549  20.469 -0.12 -0.35    -0.356 OA
DOCKED: BRANCH   2   3
DOCKED: ATOM      3  P   UNL d   1      46.793  28.641  20.804 -0.11 -0.02    -0.014 P 
DOCKED: ATOM      4  O   UNL d   1      46.070  29.997  20.822 -0.23 -0.68    -0.577 OA
DOCKED: ATOM      5  O   UNL d   1      47.814  28.563  19.671 +0.00 -0.34    -0.577 OA
DOCKED: ATOM      6  O   UNL d   1      47.375  28.299  22.172 -0.15 -1.30    -0.638 OA
DOCKED: ENDBRANCH   2   3
DOCKED: ENDBRANCH   1   2
DOCKED: BRANCH   1   7
DOCKED: ATOM      7  C   UNL d   1      45.651  25.281  19.488 -0.10 +0.12    +0.201 C 
DOCKED: BRANCH   7   8
DOCKED: ATOM      8  O   UNL d   1      46.772  24.400  19.256 -0.03 -0.23    -0.364 OA
DOCKED: BRANCH   8   9
DOCKED: ATOM      9  P   UNL d   1      46.664  23.199  18.123 -0.25 -0.02    -0.015 P 
DOCKED: ATOM     10  O   UNL d   1      46.670  23.924  16.772 -0.40 -0.92    -0.577 OA
DOCKED: ATOM     11  O   UNL d   1      45.345  22.469  18.373 -0.04 -0.41    -0.577 OA
DOCKED: ATOM     12  O   UNL d   1      47.887  22.301  18.299 -0.04 -0.78    -0.638 OA
DOCKED: ENDBRANCH   8   9
DOCKED: ENDBRANCH   7   8
DOCKED: ENDBRANCH   1   7
DOCKED: BRANCH   1  13
DOCKED: ATOM     13  C   UNL d   1      44.492  25.710  21.727 -0.29 +0.06    +0.073 C 
DOCKED: ATOM     14  O   UNL d   1      44.067  26.547  22.598 -0.68 -0.79    -0.547 OA
DOCKED: ATOM     15  O   UNL d   1      43.956  24.566  21.497 -0.55 -0.34    -0.547 OA
DOCKED: ENDBRANCH   1  13
DOCKED: TORSDOF 6
DOCKED: TER
DOCKED: ENDMDL
________________________________________________________________________________


	BEGINNING GENETIC ALGORITHM DOCKING 67 of 100
Run: 67 Seed: 965358597 1614163930 [ Run 67 of 100 GA/GALS ]
Beginning LAMARCKIAN GENETIC ALGORITHM (LGA), with a maximum of 25000000 energy evaluations.

Final-Value: -6.990


	FINAL GENETIC ALGORITHM DOCKED STATE
	_______________________________________________


Detailed state:  trans 45.646 25.859 20.056 quatxyzw 0.131313 -0.518157 0.506036 0.676903 center 0.015 0.083 0.031 ntor 6 96.6934 23.9570 -27.2532 25.8418 39.4340 -14.8809
State:	 45.646  25.859  20.056   0.178 -0.704  0.687 94.796     96.69   23.96  -27.25   25.84   39.43  -14.88

DOCKED: MODEL       67
DOCKED: USER    Run = 67
DOCKED: USER    DPF = D:/Protein_go_brrr/autodock/final/2DN3/2_3_BPG/dock.dpf
DOCKED: USER  
DOCKED: USER    Estimated Free Energy of Binding    =   -7.34 kcal/mol  [=(1)+(2)+(3)-(4)]
DOCKED: USER    Estimated Inhibition Constant, Ki   =    4.14 uM (micromolar)  [Temperature = 298.15 K]
DOCKED: USER    
DOCKED: USER    (1) Final Intermolecular Energy     =   -9.13 kcal/mol
DOCKED: USER        vdW + Hbond + desolv Energy     =   -3.24 kcal/mol
DOCKED: USER        Electrostatic Energy            =   -5.89 kcal/mol
DOCKED: USER    (2) Final Total Internal Energy     =   +2.14 kcal/mol
DOCKED: USER    (3) Torsional Free Energy           =   +1.79 kcal/mol
DOCKED: USER    (4) Unbound System's Energy  [=(2)] =   +2.14 kcal/mol
DOCKED: USER    
DOCKED: USER    
DOCKED: USER    NEWDPF move 2_3_BPG_opt.pdbqt
DOCKED: USER    NEWDPF about 0.015000 0.083000 0.031000
DOCKED: USER    NEWDPF tran0 45.646070 25.859028 20.055576
DOCKED: USER    NEWDPF quaternion0 0.131313 -0.518157 0.506036 0.676903
DOCKED: USER    NEWDPF axisangle0 0.178397 -0.703949 0.687481 94.795785
DOCKED: USER    NEWDPF quat0 0.178397 -0.703949 0.687481 94.795785
DOCKED: USER    NEWDPF dihe0 96.69 23.96 -27.25 25.84 39.43 -14.88 
DOCKED: USER  keepresnum = 1 
DOCKED: USER  
DOCKED: REMARK  6 active torsions:
DOCKED: REMARK  status: ('A' for Active; 'I' for Inactive)
DOCKED: REMARK    1  A    between atoms: P_1  and  O_3 
DOCKED: REMARK    2  A    between atoms: P_2  and  O_4 
DOCKED: REMARK    3  A    between atoms: O_3  and  C_13 
DOCKED: REMARK    4  A    between atoms: O_4  and  C_14 
DOCKED: REMARK    5  A    between atoms: C_13  and  C_14 
DOCKED: REMARK    6  A    between atoms: C_13  and  C_15 
DOCKED: USER                              x       y       z     vdW  Elec       q    Type
DOCKED: USER                           _______ _______ _______ _____ _____    ______ ____
DOCKED: ROOT
DOCKED: ATOM      1  C   UNL d   1      45.581  26.167  20.648 -0.13 +0.15    +0.193 C 
DOCKED: ENDROOT
DOCKED: BRANCH   1   2
DOCKED: ATOM      2  O   UNL d   1      45.534  27.613  20.409 -0.12 -0.35    -0.356 OA
DOCKED: BRANCH   2   3
DOCKED: ATOM      3  P   UNL d   1      46.781  28.627  20.758 -0.12 -0.02    -0.014 P 
DOCKED: ATOM      4  O   UNL d   1      46.134  30.018  20.837 -0.22 -0.68    -0.577 OA
DOCKED: ATOM      5  O   UNL d   1      47.776  28.535  19.602 +0.00 -0.34    -0.577 OA
DOCKED: ATOM      6  O   UNL d   1      47.369  28.206  22.101 -0.20 -1.23    -0.638 OA
DOCKED: ENDBRANCH   2   3
DOCKED: ENDBRANCH   1   2
DOCKED: BRANCH   1   7
DOCKED: ATOM      7  C   UNL d   1      45.440  25.422  19.269 -0.12 +0.12    +0.201 C 
DOCKED: BRANCH   7   8
DOCKED: ATOM      8  O   UNL d   1      46.199  24.201  19.131 -0.06 -0.23    -0.364 OA
DOCKED: BRANCH   8   9
DOCKED: ATOM      9  P   UNL d   1      47.008  23.882  17.723 -0.20 -0.02    -0.015 P 
DOCKED: ATOM     10  O   UNL d   1      48.146  22.935  18.123 -0.03 -0.70    -0.577 OA
DOCKED: ATOM     11  O   UNL d   1      47.534  25.218  17.199 -0.10 -0.50    -0.577 OA
DOCKED: ATOM     12  O   UNL d   1      46.014  23.216  16.773 -0.42 -1.07    -0.638 OA
DOCKED: ENDBRANCH   8   9
DOCKED: ENDBRANCH   7   8
DOCKED: ENDBRANCH   1   7
DOCKED: BRANCH   1  13
DOCKED: ATOM     13  C   UNL d   1      44.388  25.734  21.579 -0.30 +0.06    +0.073 C 
DOCKED: ATOM     14  O   UNL d   1      43.909  24.553  21.451 -0.54 -0.33    -0.547 OA
DOCKED: ATOM     15  O   UNL d   1      44.003  26.581  22.464 -0.69 -0.76    -0.547 OA
DOCKED: ENDBRANCH   1  13
DOCKED: TORSDOF 6
DOCKED: TER
DOCKED: ENDMDL
________________________________________________________________________________


	BEGINNING GENETIC ALGORITHM DOCKING 68 of 100
Run: 68 Seed: 436233976 1110613528 [ Run 68 of 100 GA/GALS ]
Beginning LAMARCKIAN GENETIC ALGORITHM (LGA), with a maximum of 25000000 energy evaluations.

Final-Value: -6.802


	FINAL GENETIC ALGORITHM DOCKED STATE
	_______________________________________________


Detailed state:  trans 44.829 24.806 19.327 quatxyzw 0.727027 0.561125 0.350123 0.184350 center 0.015 0.083 0.031 ntor 6 -172.2307 -54.6705 18.4031 32.9809 -30.0109 -32.5018
State:	 44.829  24.806  19.327   0.740  0.571  0.356 158.754   -172.23  -54.67   18.40   32.98  -30.01  -32.50

DOCKED: MODEL       68
DOCKED: USER    Run = 68
DOCKED: USER    DPF = D:/Protein_go_brrr/autodock/final/2DN3/2_3_BPG/dock.dpf
DOCKED: USER  
DOCKED: USER    Estimated Free Energy of Binding    =   -6.91 kcal/mol  [=(1)+(2)+(3)-(4)]
DOCKED: USER    Estimated Inhibition Constant, Ki   =    8.61 uM (micromolar)  [Temperature = 298.15 K]
DOCKED: USER    
DOCKED: USER    (1) Final Intermolecular Energy     =   -8.70 kcal/mol
DOCKED: USER        vdW + Hbond + desolv Energy     =   -2.72 kcal/mol
DOCKED: USER        Electrostatic Energy            =   -5.98 kcal/mol
DOCKED: USER    (2) Final Total Internal Energy     =   +1.90 kcal/mol
DOCKED: USER    (3) Torsional Free Energy           =   +1.79 kcal/mol
DOCKED: USER    (4) Unbound System's Energy  [=(2)] =   +1.90 kcal/mol
DOCKED: USER    
DOCKED: USER    
DOCKED: USER    NEWDPF move 2_3_BPG_opt.pdbqt
DOCKED: USER    NEWDPF about 0.015000 0.083000 0.031000
DOCKED: USER    NEWDPF tran0 44.828673 24.806264 19.326613
DOCKED: USER    NEWDPF quaternion0 0.727027 0.561125 0.350123 0.184350
DOCKED: USER    NEWDPF axisangle0 0.739705 0.570910 0.356229 158.753544
DOCKED: USER    NEWDPF quat0 0.739705 0.570910 0.356229 158.753544
DOCKED: USER    NEWDPF dihe0 -172.23 -54.67 18.40 32.98 -30.01 -32.50 
DOCKED: USER  keepresnum = 1 
DOCKED: USER  
DOCKED: REMARK  6 active torsions:
DOCKED: REMARK  status: ('A' for Active; 'I' for Inactive)
DOCKED: REMARK    1  A    between atoms: P_1  and  O_3 
DOCKED: REMARK    2  A    between atoms: P_2  and  O_4 
DOCKED: REMARK    3  A    between atoms: O_3  and  C_13 
DOCKED: REMARK    4  A    between atoms: O_4  and  C_14 
DOCKED: REMARK    5  A    between atoms: C_13  and  C_14 
DOCKED: REMARK    6  A    between atoms: C_13  and  C_15 
DOCKED: USER                              x       y       z     vdW  Elec       q    Type
DOCKED: USER                           _______ _______ _______ _____ _____    ______ ____
DOCKED: ROOT
DOCKED: ATOM      1  C   UNL d   1      44.489  24.560  18.804 -0.20 +0.10    +0.193 C 
DOCKED: ENDROOT
DOCKED: BRANCH   1   2
DOCKED: ATOM      2  O   UNL d   1      44.917  23.172  18.594 -0.18 -0.22    -0.356 OA
DOCKED: BRANCH   2   3
DOCKED: ATOM      3  P   UNL d   1      46.016  22.730  17.453 -0.18 -0.02    -0.014 P 
DOCKED: ATOM      4  O   UNL d   1      47.142  22.051  18.249 -0.05 -0.69    -0.577 OA
DOCKED: ATOM      5  O   UNL d   1      46.501  24.008  16.772 -0.39 -0.84    -0.577 OA
DOCKED: ATOM      6  O   UNL d   1      45.338  21.753  16.499 -0.10 -0.87    -0.638 OA
DOCKED: ENDBRANCH   2   3
DOCKED: ENDBRANCH   1   2
DOCKED: BRANCH   1   7
DOCKED: ATOM      7  C   UNL d   1      45.050  25.057  20.187 -0.16 +0.12    +0.201 C 
DOCKED: BRANCH   7   8
DOCKED: ATOM      8  O   UNL d   1      45.801  26.291  20.155 -0.04 -0.25    -0.364 OA
DOCKED: BRANCH   8   9
DOCKED: ATOM      9  P   UNL d   1      45.871  27.255  21.498 +0.01 -0.02    -0.015 P 
DOCKED: ATOM     10  O   UNL d   1      46.261  28.642  20.973 -0.31 -0.88    -0.577 OA
DOCKED: ATOM     11  O   UNL d   1      46.945  26.667  22.413 +0.01 -0.77    -0.577 OA
DOCKED: ATOM     12  O   UNL d   1      44.479  27.251  22.129 -0.40 -1.29    -0.638 OA
DOCKED: ENDBRANCH   8   9
DOCKED: ENDBRANCH   7   8
DOCKED: ENDBRANCH   1   7
DOCKED: BRANCH   1  13
DOCKED: ATOM     13  C   UNL d   1      42.917  24.639  18.840 -0.40 +0.03    +0.073 C 
DOCKED: ATOM     14  O   UNL d   1      42.320  25.346  17.954 -0.09 -0.17    -0.547 OA
DOCKED: ATOM     15  O   UNL d   1      42.318  23.932  19.729 -0.25 -0.20    -0.547 OA
DOCKED: ENDBRANCH   1  13
DOCKED: TORSDOF 6
DOCKED: TER
DOCKED: ENDMDL
________________________________________________________________________________


	BEGINNING GENETIC ALGORITHM DOCKING 69 of 100
Run: 69 Seed: 447292377 1921874837 [ Run 69 of 100 GA/GALS ]
Beginning LAMARCKIAN GENETIC ALGORITHM (LGA), with a maximum of 25000000 energy evaluations.

Final-Value: -6.706


	FINAL GENETIC ALGORITHM DOCKED STATE
	_______________________________________________


Detailed state:  trans 45.928 26.417 19.881 quatxyzw 0.831248 -0.080901 -0.523770 -0.167768 center 0.015 0.083 0.031 ntor 6 144.8017 -29.3877 -108.2001 38.6386 -20.1814 -55.1569
State:	 45.928  26.417  19.881   0.843 -0.082 -0.531 -160.684    144.80  -29.39 -108.20   38.64  -20.18  -55.16

DOCKED: MODEL       69
DOCKED: USER    Run = 69
DOCKED: USER    DPF = D:/Protein_go_brrr/autodock/final/2DN3/2_3_BPG/dock.dpf
DOCKED: USER  
DOCKED: USER    Estimated Free Energy of Binding    =   -6.90 kcal/mol  [=(1)+(2)+(3)-(4)]
DOCKED: USER    Estimated Inhibition Constant, Ki   =    8.71 uM (micromolar)  [Temperature = 298.15 K]
DOCKED: USER    
DOCKED: USER    (1) Final Intermolecular Energy     =   -8.69 kcal/mol
DOCKED: USER        vdW + Hbond + desolv Energy     =   -3.35 kcal/mol
DOCKED: USER        Electrostatic Energy            =   -5.34 kcal/mol
DOCKED: USER    (2) Final Total Internal Energy     =   +1.99 kcal/mol
DOCKED: USER    (3) Torsional Free Energy           =   +1.79 kcal/mol
DOCKED: USER    (4) Unbound System's Energy  [=(2)] =   +1.99 kcal/mol
DOCKED: USER    
DOCKED: USER    
DOCKED: USER    NEWDPF move 2_3_BPG_opt.pdbqt
DOCKED: USER    NEWDPF about 0.015000 0.083000 0.031000
DOCKED: USER    NEWDPF tran0 45.927555 26.417327 19.880537
DOCKED: USER    NEWDPF quaternion0 0.831248 -0.080901 -0.523770 -0.167768
DOCKED: USER    NEWDPF axisangle0 0.843199 -0.082064 -0.531301 -160.683858
DOCKED: USER    NEWDPF quat0 0.843199 -0.082064 -0.531301 -160.683858
DOCKED: USER    NEWDPF dihe0 144.80 -29.39 -108.20 38.64 -20.18 -55.16 
DOCKED: USER  keepresnum = 1 
DOCKED: USER  
DOCKED: REMARK  6 active torsions:
DOCKED: REMARK  status: ('A' for Active; 'I' for Inactive)
DOCKED: REMARK    1  A    between atoms: P_1  and  O_3 
DOCKED: REMARK    2  A    between atoms: P_2  and  O_4 
DOCKED: REMARK    3  A    between atoms: O_3  and  C_13 
DOCKED: REMARK    4  A    between atoms: O_4  and  C_14 
DOCKED: REMARK    5  A    between atoms: C_13  and  C_14 
DOCKED: REMARK    6  A    between atoms: C_13  and  C_15 
DOCKED: USER                              x       y       z     vdW  Elec       q    Type
DOCKED: USER                           _______ _______ _______ _____ _____    ______ ____
DOCKED: ROOT
DOCKED: ATOM      1  C   UNL d   1      45.574  26.871  20.225 -0.14 +0.15    +0.193 C 
DOCKED: ENDROOT
DOCKED: BRANCH   1   2
DOCKED: ATOM      2  O   UNL d   1      45.724  26.579  21.655 -0.13 -0.44    -0.356 OA
DOCKED: BRANCH   2   3
DOCKED: ATOM      3  P   UNL d   1      44.664  25.652  22.503 -0.36 -0.01    -0.014 P 
DOCKED: ATOM      4  O   UNL d   1      45.534  24.932  23.545 -0.01 -0.44    -0.577 OA
DOCKED: ATOM      5  O   UNL d   1      44.036  24.667  21.519 -0.47 -0.36    -0.577 OA
DOCKED: ATOM      6  O   UNL d   1      43.650  26.580  23.164 -0.70 -0.91    -0.638 OA
DOCKED: ENDBRANCH   2   3
DOCKED: ENDBRANCH   1   2
DOCKED: BRANCH   1   7
DOCKED: ATOM      7  C   UNL d   1      46.617  26.009  19.421 -0.07 +0.12    +0.201 C 
DOCKED: BRANCH   7   8
DOCKED: ATOM      8  O   UNL d   1      46.082  24.863  18.723 -0.05 -0.23    -0.364 OA
DOCKED: BRANCH   8   9
DOCKED: ATOM      9  P   UNL d   1      46.962  24.137  17.525 -0.23 -0.02    -0.015 P 
DOCKED: ATOM     10  O   UNL d   1      48.070  23.369  18.254 -0.02 -0.61    -0.577 OA
DOCKED: ATOM     11  O   UNL d   1      47.524  25.253  16.645 -0.13 -0.55    -0.577 OA
DOCKED: ATOM     12  O   UNL d   1      46.015  23.202  16.773 -0.42 -1.07    -0.638 OA
DOCKED: ENDBRANCH   8   9
DOCKED: ENDBRANCH   7   8
DOCKED: ENDBRANCH   1   7
DOCKED: BRANCH   1  13
DOCKED: ATOM     13  C   UNL d   1      45.863  28.395  19.952 -0.19 +0.06    +0.073 C 
DOCKED: ATOM     14  O   UNL d   1      45.442  28.910  18.857 -0.02 -0.29    -0.547 OA
DOCKED: ATOM     15  O   UNL d   1      46.455  29.051  20.883 -0.42 -0.74    -0.547 OA
DOCKED: ENDBRANCH   1  13
DOCKED: TORSDOF 6
DOCKED: TER
DOCKED: ENDMDL
________________________________________________________________________________


	BEGINNING GENETIC ALGORITHM DOCKING 70 of 100
Run: 70 Seed: 808441851 1658181075 [ Run 70 of 100 GA/GALS ]
Beginning LAMARCKIAN GENETIC ALGORITHM (LGA), with a maximum of 25000000 energy evaluations.

Final-Value: -6.361


	FINAL GENETIC ALGORITHM DOCKED STATE
	_______________________________________________


Detailed state:  trans 44.317 25.071 19.354 quatxyzw 0.498070 0.215720 0.827098 -0.145947 center 0.015 0.083 0.031 ntor 6 -167.6493 132.2120 -82.0297 3.5349 -89.2298 -54.4539
State:	 44.317  25.071  19.354   0.503  0.218  0.836 -163.216   -167.65  132.21  -82.03    3.53  -89.23  -54.45

DOCKED: MODEL       70
DOCKED: USER    Run = 70
DOCKED: USER    DPF = D:/Protein_go_brrr/autodock/final/2DN3/2_3_BPG/dock.dpf
DOCKED: USER  
DOCKED: USER    Estimated Free Energy of Binding    =   -6.73 kcal/mol  [=(1)+(2)+(3)-(4)]
DOCKED: USER    Estimated Inhibition Constant, Ki   =   11.74 uM (micromolar)  [Temperature = 298.15 K]
DOCKED: USER    
DOCKED: USER    (1) Final Intermolecular Energy     =   -8.52 kcal/mol
DOCKED: USER        vdW + Hbond + desolv Energy     =   -3.29 kcal/mol
DOCKED: USER        Electrostatic Energy            =   -5.22 kcal/mol
DOCKED: USER    (2) Final Total Internal Energy     =   +2.15 kcal/mol
DOCKED: USER    (3) Torsional Free Energy           =   +1.79 kcal/mol
DOCKED: USER    (4) Unbound System's Energy  [=(2)] =   +2.15 kcal/mol
DOCKED: USER    
DOCKED: USER    
DOCKED: USER    NEWDPF move 2_3_BPG_opt.pdbqt
DOCKED: USER    NEWDPF about 0.015000 0.083000 0.031000
DOCKED: USER    NEWDPF tran0 44.317009 25.071449 19.353949
DOCKED: USER    NEWDPF quaternion0 0.498070 0.215720 0.827098 -0.145947
DOCKED: USER    NEWDPF axisangle0 0.503461 0.218054 0.836050 -163.215731
DOCKED: USER    NEWDPF quat0 0.503461 0.218054 0.836050 -163.215731
DOCKED: USER    NEWDPF dihe0 -167.65 132.21 -82.03 3.53 -89.23 -54.45 
DOCKED: USER  keepresnum = 1 
DOCKED: USER  
DOCKED: REMARK  6 active torsions:
DOCKED: REMARK  status: ('A' for Active; 'I' for Inactive)
DOCKED: REMARK    1  A    between atoms: P_1  and  O_3 
DOCKED: REMARK    2  A    between atoms: P_2  and  O_4 
DOCKED: REMARK    3  A    between atoms: O_3  and  C_13 
DOCKED: REMARK    4  A    between atoms: O_4  and  C_14 
DOCKED: REMARK    5  A    between atoms: C_13  and  C_14 
DOCKED: REMARK    6  A    between atoms: C_13  and  C_15 
DOCKED: USER                              x       y       z     vdW  Elec       q    Type
DOCKED: USER                           _______ _______ _______ _____ _____    ______ ____
DOCKED: ROOT
DOCKED: ATOM      1  C   UNL d   1      44.678  25.093  18.790 -0.17 +0.10    +0.193 C 
DOCKED: ENDROOT
DOCKED: BRANCH   1   2
DOCKED: ATOM      2  O   UNL d   1      44.571  23.789  18.127 -0.13 -0.21    -0.356 OA
DOCKED: BRANCH   2   3
DOCKED: ATOM      3  P   UNL d   1      45.875  22.923  17.621 -0.25 -0.02    -0.014 P 
DOCKED: ATOM      4  O   UNL d   1      46.687  23.915  16.773 -0.40 -0.93    -0.577 OA
DOCKED: ATOM      5  O   UNL d   1      45.348  21.763  16.778 -0.17 -0.73    -0.577 OA
DOCKED: ATOM      6  O   UNL d   1      46.651  22.475  18.855 -0.01 -0.51    -0.638 OA
DOCKED: ENDBRANCH   2   3
DOCKED: ENDBRANCH   1   2
DOCKED: BRANCH   1   7
DOCKED: ATOM      7  C   UNL d   1      43.617  25.160  19.949 -0.27 +0.10    +0.201 C 
DOCKED: BRANCH   7   8
DOCKED: ATOM      8  O   UNL d   1      44.138  25.023  21.289 -0.38 -0.23    -0.364 OA
DOCKED: BRANCH   8   9
DOCKED: ATOM      9  P   UNL d   1      44.522  26.369  22.172 -0.20 -0.02    -0.015 P 
DOCKED: ATOM     10  O   UNL d   1      43.331  26.580  23.115 -0.75 -0.72    -0.577 OA
DOCKED: ATOM     11  O   UNL d   1      44.677  27.522  21.181 -0.20 -0.78    -0.577 OA
DOCKED: ATOM     12  O   UNL d   1      45.809  26.057  22.933 -0.00 -0.85    -0.638 OA
DOCKED: ENDBRANCH   8   9
DOCKED: ENDBRANCH   7   8
DOCKED: ENDBRANCH   1   7
DOCKED: BRANCH   1  13
DOCKED: ATOM     13  C   UNL d   1      44.375  26.247  17.762 -0.27 +0.03    +0.073 C 
DOCKED: ATOM     14  O   UNL d   1      45.323  27.048  17.445 -0.03 -0.25    -0.547 OA
DOCKED: ATOM     15  O   UNL d   1      43.198  26.276  17.249 -0.04 -0.20    -0.547 OA
DOCKED: ENDBRANCH   1  13
DOCKED: TORSDOF 6
DOCKED: TER
DOCKED: ENDMDL
________________________________________________________________________________


	BEGINNING GENETIC ALGORITHM DOCKING 71 of 100
Run: 71 Seed: 27691465 2034304814 [ Run 71 of 100 GA/GALS ]
Beginning LAMARCKIAN GENETIC ALGORITHM (LGA), with a maximum of 25000000 energy evaluations.

Final-Value: -6.627


	FINAL GENETIC ALGORITHM DOCKED STATE
	_______________________________________________


Detailed state:  trans 45.574 26.107 19.934 quatxyzw -0.218127 0.481901 -0.432246 -0.730312 center 0.015 0.083 0.031 ntor 6 82.9561 8.1806 -104.9737 39.8154 26.7709 14.6032
State:	 45.574  26.107  19.934  -0.319  0.705 -0.633 -86.175     82.96    8.18 -104.97   39.82   26.77   14.60

DOCKED: MODEL       71
DOCKED: USER    Run = 71
DOCKED: USER    DPF = D:/Protein_go_brrr/autodock/final/2DN3/2_3_BPG/dock.dpf
DOCKED: USER  
DOCKED: USER    Estimated Free Energy of Binding    =   -6.94 kcal/mol  [=(1)+(2)+(3)-(4)]
DOCKED: USER    Estimated Inhibition Constant, Ki   =    8.22 uM (micromolar)  [Temperature = 298.15 K]
DOCKED: USER    
DOCKED: USER    (1) Final Intermolecular Energy     =   -8.73 kcal/mol
DOCKED: USER        vdW + Hbond + desolv Energy     =   -3.48 kcal/mol
DOCKED: USER        Electrostatic Energy            =   -5.25 kcal/mol
DOCKED: USER    (2) Final Total Internal Energy     =   +2.10 kcal/mol
DOCKED: USER    (3) Torsional Free Energy           =   +1.79 kcal/mol
DOCKED: USER    (4) Unbound System's Energy  [=(2)] =   +2.10 kcal/mol
DOCKED: USER    
DOCKED: USER    
DOCKED: USER    NEWDPF move 2_3_BPG_opt.pdbqt
DOCKED: USER    NEWDPF about 0.015000 0.083000 0.031000
DOCKED: USER    NEWDPF tran0 45.574224 26.106565 19.934322
DOCKED: USER    NEWDPF quaternion0 -0.218127 0.481901 -0.432246 -0.730312
DOCKED: USER    NEWDPF axisangle0 -0.319313 0.705447 -0.632758 -86.174829
DOCKED: USER    NEWDPF quat0 -0.319313 0.705447 -0.632758 -86.174829
DOCKED: USER    NEWDPF dihe0 82.96 8.18 -104.97 39.82 26.77 14.60 
DOCKED: USER  keepresnum = 1 
DOCKED: USER  
DOCKED: REMARK  6 active torsions:
DOCKED: REMARK  status: ('A' for Active; 'I' for Inactive)
DOCKED: REMARK    1  A    between atoms: P_1  and  O_3 
DOCKED: REMARK    2  A    between atoms: P_2  and  O_4 
DOCKED: REMARK    3  A    between atoms: O_3  and  C_13 
DOCKED: REMARK    4  A    between atoms: O_4  and  C_14 
DOCKED: REMARK    5  A    between atoms: C_13  and  C_14 
DOCKED: REMARK    6  A    between atoms: C_13  and  C_15 
DOCKED: USER                              x       y       z     vdW  Elec       q    Type
DOCKED: USER                           _______ _______ _______ _____ _____    ______ ____
DOCKED: ROOT
DOCKED: ATOM      1  C   UNL d   1      45.431  26.425  20.507 -0.14 +0.15    +0.193 C 
DOCKED: ENDROOT
DOCKED: BRANCH   1   2
DOCKED: ATOM      2  O   UNL d   1      45.023  27.795  20.178 -0.11 -0.31    -0.356 OA
DOCKED: BRANCH   2   3
DOCKED: ATOM      3  P   UNL d   1      46.070  29.063  20.132 -0.24 -0.01    -0.014 P 
DOCKED: ATOM      4  O   UNL d   1      45.181  30.285  19.855 -0.05 -0.39    -0.577 OA
DOCKED: ATOM      5  O   UNL d   1      47.044  28.804  18.985 +0.00 -0.31    -0.577 OA
DOCKED: ATOM      6  O   UNL d   1      46.749  29.162  21.495 -0.48 -1.26    -0.638 OA
DOCKED: ENDBRANCH   2   3
DOCKED: ENDBRANCH   1   2
DOCKED: BRANCH   1   7
DOCKED: ATOM      7  C   UNL d   1      45.488  25.583  19.179 -0.12 +0.12    +0.201 C 
DOCKED: BRANCH   7   8
DOCKED: ATOM      8  O   UNL d   1      46.003  24.239  19.306 -0.06 -0.22    -0.364 OA
DOCKED: BRANCH   8   9
DOCKED: ATOM      9  P   UNL d   1      46.793  23.529  18.038 -0.21 -0.02    -0.015 P 
DOCKED: ATOM     10  O   UNL d   1      48.193  24.155  18.039 -0.03 -0.55    -0.577 OA
DOCKED: ATOM     11  O   UNL d   1      46.011  23.881  16.773 -0.49 -0.75    -0.577 OA
DOCKED: ATOM     12  O   UNL d   1      46.835  22.028  18.316 -0.03 -0.70    -0.638 OA
DOCKED: ENDBRANCH   8   9
DOCKED: ENDBRANCH   7   8
DOCKED: ENDBRANCH   1   7
DOCKED: BRANCH   1  13
DOCKED: ATOM     13  C   UNL d   1      44.379  25.767  21.476 -0.30 +0.06    +0.073 C 
DOCKED: ATOM     14  O   UNL d   1      44.017  24.558  21.255 -0.60 -0.34    -0.547 OA
DOCKED: ATOM     15  O   UNL d   1      43.992  26.469  22.479 -0.62 -0.72    -0.547 OA
DOCKED: ENDBRANCH   1  13
DOCKED: TORSDOF 6
DOCKED: TER
DOCKED: ENDMDL
________________________________________________________________________________


	BEGINNING GENETIC ALGORITHM DOCKING 72 of 100
Run: 72 Seed: 316752887 1692030791 [ Run 72 of 100 GA/GALS ]
Beginning LAMARCKIAN GENETIC ALGORITHM (LGA), with a maximum of 25000000 energy evaluations.

Final-Value: -6.834


	FINAL GENETIC ALGORITHM DOCKED STATE
	_______________________________________________


Detailed state:  trans 46.109 25.281 20.197 quatxyzw -0.019619 0.433187 -0.610735 -0.662546 center 0.015 0.083 0.031 ntor 6 93.8927 43.6931 164.9393 4.4528 7.7792 -5.5529
State:	 46.109  25.281  20.197  -0.026  0.578 -0.815 -97.011     93.89   43.69  164.94    4.45    7.78   -5.55

DOCKED: MODEL       72
DOCKED: USER    Run = 72
DOCKED: USER    DPF = D:/Protein_go_brrr/autodock/final/2DN3/2_3_BPG/dock.dpf
DOCKED: USER  
DOCKED: USER    Estimated Free Energy of Binding    =   -7.18 kcal/mol  [=(1)+(2)+(3)-(4)]
DOCKED: USER    Estimated Inhibition Constant, Ki   =    5.47 uM (micromolar)  [Temperature = 298.15 K]
DOCKED: USER    
DOCKED: USER    (1) Final Intermolecular Energy     =   -8.97 kcal/mol
DOCKED: USER        vdW + Hbond + desolv Energy     =   -2.96 kcal/mol
DOCKED: USER        Electrostatic Energy            =   -6.01 kcal/mol
DOCKED: USER    (2) Final Total Internal Energy     =   +2.13 kcal/mol
DOCKED: USER    (3) Torsional Free Energy           =   +1.79 kcal/mol
DOCKED: USER    (4) Unbound System's Energy  [=(2)] =   +2.13 kcal/mol
DOCKED: USER    
DOCKED: USER    
DOCKED: USER    NEWDPF move 2_3_BPG_opt.pdbqt
DOCKED: USER    NEWDPF about 0.015000 0.083000 0.031000
DOCKED: USER    NEWDPF tran0 46.108619 25.281363 20.197372
DOCKED: USER    NEWDPF quaternion0 -0.019619 0.433187 -0.610735 -0.662546
DOCKED: USER    NEWDPF axisangle0 -0.026193 0.578337 -0.815377 -97.011315
DOCKED: USER    NEWDPF quat0 -0.026193 0.578337 -0.815377 -97.011315
DOCKED: USER    NEWDPF dihe0 93.89 43.69 164.94 4.45 7.78 -5.55 
DOCKED: USER  keepresnum = 1 
DOCKED: USER  
DOCKED: REMARK  6 active torsions:
DOCKED: REMARK  status: ('A' for Active; 'I' for Inactive)
DOCKED: REMARK    1  A    between atoms: P_1  and  O_3 
DOCKED: REMARK    2  A    between atoms: P_2  and  O_4 
DOCKED: REMARK    3  A    between atoms: O_3  and  C_13 
DOCKED: REMARK    4  A    between atoms: O_4  and  C_14 
DOCKED: REMARK    5  A    between atoms: C_13  and  C_14 
DOCKED: REMARK    6  A    between atoms: C_13  and  C_15 
DOCKED: USER                              x       y       z     vdW  Elec       q    Type
DOCKED: USER                           _______ _______ _______ _____ _____    ______ ____
DOCKED: ROOT
DOCKED: ATOM      1  C   UNL d   1      45.988  25.640  20.751 -0.10 +0.14    +0.193 C 
DOCKED: ENDROOT
DOCKED: BRANCH   1   2
DOCKED: ATOM      2  O   UNL d   1      46.363  27.033  20.484 -0.06 -0.31    -0.356 OA
DOCKED: BRANCH   2   3
DOCKED: ATOM      3  P   UNL d   1      47.369  27.899  21.455 -0.01 -0.02    -0.014 P 
DOCKED: ATOM      4  O   UNL d   1      46.748  29.304  21.495 -0.50 -1.13    -0.577 OA
DOCKED: ATOM      5  O   UNL d   1      48.743  27.910  20.787 +0.00 -0.36    -0.577 OA
DOCKED: ATOM      6  O   UNL d   1      47.369  27.247  22.834 -0.01 -1.05    -0.638 OA
DOCKED: ENDBRANCH   2   3
DOCKED: ENDBRANCH   1   2
DOCKED: BRANCH   1   7
DOCKED: ATOM      7  C   UNL d   1      45.987  24.848  19.391 -0.10 +0.12    +0.201 C 
DOCKED: BRANCH   7   8
DOCKED: ATOM      8  O   UNL d   1      46.221  23.426  19.490 -0.09 -0.22    -0.364 OA
DOCKED: BRANCH   8   9
DOCKED: ATOM      9  P   UNL d   1      46.508  22.536  18.125 -0.25 -0.02    -0.015 P 
DOCKED: ATOM     10  O   UNL d   1      46.128  23.459  16.960 -0.35 -0.87    -0.577 OA
DOCKED: ATOM     11  O   UNL d   1      45.605  21.306  18.197 -0.05 -0.44    -0.577 OA
DOCKED: ATOM     12  O   UNL d   1      47.996  22.187  18.118 -0.06 -0.87    -0.638 OA
DOCKED: ENDBRANCH   8   9
DOCKED: ENDBRANCH   7   8
DOCKED: ENDBRANCH   1   7
DOCKED: BRANCH   1  13
DOCKED: ATOM     13  C   UNL d   1      44.543  25.579  21.371 -0.28 +0.06    +0.073 C 
DOCKED: ATOM     14  O   UNL d   1      43.805  24.566  21.106 -0.58 -0.33    -0.547 OA
DOCKED: ATOM     15  O   UNL d   1      44.210  26.531  22.167 -0.54 -0.71    -0.547 OA
DOCKED: ENDBRANCH   1  13
DOCKED: TORSDOF 6
DOCKED: TER
DOCKED: ENDMDL
________________________________________________________________________________


	BEGINNING GENETIC ALGORITHM DOCKING 73 of 100
Run: 73 Seed: 918508030 1463046213 [ Run 73 of 100 GA/GALS ]
Beginning LAMARCKIAN GENETIC ALGORITHM (LGA), with a maximum of 25000000 energy evaluations.

Final-Value: -6.384


	FINAL GENETIC ALGORITHM DOCKED STATE
	_______________________________________________


Detailed state:  trans 2.484 44.700 -2.342 quatxyzw 0.493799 -0.114157 0.728888 0.460276 center 0.015 0.083 0.031 ntor 6 172.8673 -180.0000 147.8587 34.5749 -37.6089 -20.7482
State:	  2.484  44.700  -2.342   0.556 -0.129  0.821 125.190    172.87 -180.00  147.86   34.57  -37.61  -20.75

DOCKED: MODEL       73
DOCKED: USER    Run = 73
DOCKED: USER    DPF = D:/Protein_go_brrr/autodock/final/2DN3/2_3_BPG/dock.dpf
DOCKED: USER  
DOCKED: USER    Estimated Free Energy of Binding    =   -6.50 kcal/mol  [=(1)+(2)+(3)-(4)]
DOCKED: USER    Estimated Inhibition Constant, Ki   =   17.19 uM (micromolar)  [Temperature = 298.15 K]
DOCKED: USER    
DOCKED: USER    (1) Final Intermolecular Energy     =   -8.29 kcal/mol
DOCKED: USER        vdW + Hbond + desolv Energy     =   -3.27 kcal/mol
DOCKED: USER        Electrostatic Energy            =   -5.02 kcal/mol
DOCKED: USER    (2) Final Total Internal Energy     =   +1.91 kcal/mol
DOCKED: USER    (3) Torsional Free Energy           =   +1.79 kcal/mol
DOCKED: USER    (4) Unbound System's Energy  [=(2)] =   +1.91 kcal/mol
DOCKED: USER    
DOCKED: USER    
DOCKED: USER    NEWDPF move 2_3_BPG_opt.pdbqt
DOCKED: USER    NEWDPF about 0.015000 0.083000 0.031000
DOCKED: USER    NEWDPF tran0 2.484061 44.700141 -2.342078
DOCKED: USER    NEWDPF quaternion0 0.493799 -0.114157 0.728888 0.460276
DOCKED: USER    NEWDPF axisangle0 0.556220 -0.128587 0.821026 125.190221
DOCKED: USER    NEWDPF quat0 0.556220 -0.128587 0.821026 125.190221
DOCKED: USER    NEWDPF dihe0 172.87 -180.00 147.86 34.57 -37.61 -20.75 
DOCKED: USER  keepresnum = 1 
DOCKED: USER  
DOCKED: REMARK  6 active torsions:
DOCKED: REMARK  status: ('A' for Active; 'I' for Inactive)
DOCKED: REMARK    1  A    between atoms: P_1  and  O_3 
DOCKED: REMARK    2  A    between atoms: P_2  and  O_4 
DOCKED: REMARK    3  A    between atoms: O_3  and  C_13 
DOCKED: REMARK    4  A    between atoms: O_4  and  C_14 
DOCKED: REMARK    5  A    between atoms: C_13  and  C_14 
DOCKED: REMARK    6  A    between atoms: C_13  and  C_15 
DOCKED: USER                              x       y       z     vdW  Elec       q    Type
DOCKED: USER                           _______ _______ _______ _____ _____    ______ ____
DOCKED: ROOT
DOCKED: ATOM      1  C   UNL d   1       2.439  45.358  -2.463 -0.14 +0.14    +0.193 C 
DOCKED: ENDROOT
DOCKED: BRANCH   1   2
DOCKED: ATOM      2  O   UNL d   1       2.447  45.556  -3.917 -0.10 -0.26    -0.356 OA
DOCKED: BRANCH   2   3
DOCKED: ATOM      3  P   UNL d   1       3.796  45.960  -4.766 -0.24 -0.01    -0.014 P 
DOCKED: ATOM      4  O   UNL d   1       4.879  46.155  -3.693 -0.51 -0.72    -0.577 OA
DOCKED: ATOM      5  O   UNL d   1       3.494  47.263  -5.502 -0.25 -0.82    -0.577 OA
DOCKED: ATOM      6  O   UNL d   1       4.132  44.800  -5.696 -0.05 -0.35    -0.638 OA
DOCKED: ENDBRANCH   2   3
DOCKED: ENDBRANCH   1   2
DOCKED: BRANCH   1   7
DOCKED: ATOM      7  C   UNL d   1       2.251  43.825  -2.164 -0.11 +0.11    +0.201 C 
DOCKED: BRANCH   7   8
DOCKED: ATOM      8  O   UNL d   1       3.060  43.288  -1.095 -0.12 -0.22    -0.364 OA
DOCKED: BRANCH   8   9
DOCKED: ATOM      9  P   UNL d   1       2.462  42.091  -0.122 -0.39 -0.02    -0.015 P 
DOCKED: ATOM     10  O   UNL d   1       0.947  42.326  -0.087 -0.05 -0.70    -0.577 OA
DOCKED: ATOM     11  O   UNL d   1       3.100  42.274   1.254 -0.24 -0.47    -0.577 OA
DOCKED: ATOM     12  O   UNL d   1       2.820  40.757  -0.775 -0.92 -1.12    -0.638 OA
DOCKED: ENDBRANCH   8   9
DOCKED: ENDBRANCH   7   8
DOCKED: ENDBRANCH   1   7
DOCKED: BRANCH   1  13
DOCKED: ATOM     13  C   UNL d   1       1.240  46.148  -1.817 -0.13 +0.05    +0.073 C 
DOCKED: ATOM     14  O   UNL d   1       1.466  46.856  -0.774 -0.03 -0.36    -0.547 OA
DOCKED: ATOM     15  O   UNL d   1       0.108  46.084  -2.420 -0.00 -0.25    -0.547 OA
DOCKED: ENDBRANCH   1  13
DOCKED: TORSDOF 6
DOCKED: TER
DOCKED: ENDMDL
________________________________________________________________________________


	BEGINNING GENETIC ALGORITHM DOCKING 74 of 100
Run: 74 Seed: 602468740 1145191516 [ Run 74 of 100 GA/GALS ]
Beginning LAMARCKIAN GENETIC ALGORITHM (LGA), with a maximum of 25000000 energy evaluations.

Final-Value: -6.086


	FINAL GENETIC ALGORITHM DOCKED STATE
	_______________________________________________


Detailed state:  trans 2.573 44.667 -2.405 quatxyzw 0.622671 -0.597352 -0.045615 -0.503360 center 0.015 0.083 0.031 ntor 6 -51.8370 -55.9464 -78.0445 4.4324 9.4124 -24.0590
State:	  2.573  44.667  -2.405   0.721 -0.691 -0.053 -119.555    -51.84  -55.95  -78.04    4.43    9.41  -24.06

DOCKED: MODEL       74
DOCKED: USER    Run = 74
DOCKED: USER    DPF = D:/Protein_go_brrr/autodock/final/2DN3/2_3_BPG/dock.dpf
DOCKED: USER  
DOCKED: USER    Estimated Free Energy of Binding    =   -6.30 kcal/mol  [=(1)+(2)+(3)-(4)]
DOCKED: USER    Estimated Inhibition Constant, Ki   =   24.19 uM (micromolar)  [Temperature = 298.15 K]
DOCKED: USER    
DOCKED: USER    (1) Final Intermolecular Energy     =   -8.09 kcal/mol
DOCKED: USER        vdW + Hbond + desolv Energy     =   -3.13 kcal/mol
DOCKED: USER        Electrostatic Energy            =   -4.96 kcal/mol
DOCKED: USER    (2) Final Total Internal Energy     =   +2.00 kcal/mol
DOCKED: USER    (3) Torsional Free Energy           =   +1.79 kcal/mol
DOCKED: USER    (4) Unbound System's Energy  [=(2)] =   +2.00 kcal/mol
DOCKED: USER    
DOCKED: USER    
DOCKED: USER    NEWDPF move 2_3_BPG_opt.pdbqt
DOCKED: USER    NEWDPF about 0.015000 0.083000 0.031000
DOCKED: USER    NEWDPF tran0 2.573069 44.666845 -2.404641
DOCKED: USER    NEWDPF quaternion0 0.622671 -0.597352 -0.045615 -0.503360
DOCKED: USER    NEWDPF axisangle0 0.720620 -0.691318 -0.052791 -119.554877
DOCKED: USER    NEWDPF quat0 0.720620 -0.691318 -0.052791 -119.554877
DOCKED: USER    NEWDPF dihe0 -51.84 -55.95 -78.04 4.43 9.41 -24.06 
DOCKED: USER  keepresnum = 1 
DOCKED: USER  
DOCKED: REMARK  6 active torsions:
DOCKED: REMARK  status: ('A' for Active; 'I' for Inactive)
DOCKED: REMARK    1  A    between atoms: P_1  and  O_3 
DOCKED: REMARK    2  A    between atoms: P_2  and  O_4 
DOCKED: REMARK    3  A    between atoms: O_3  and  C_13 
DOCKED: REMARK    4  A    between atoms: O_4  and  C_14 
DOCKED: REMARK    5  A    between atoms: C_13  and  C_14 
DOCKED: REMARK    6  A    between atoms: C_13  and  C_15 
DOCKED: USER                              x       y       z     vdW  Elec       q    Type
DOCKED: USER                           _______ _______ _______ _____ _____    ______ ____
DOCKED: ROOT
DOCKED: ATOM      1  C   UNL d   1       2.564  45.008  -2.982 -0.15 +0.13    +0.193 C 
DOCKED: ENDROOT
DOCKED: BRANCH   1   2
DOCKED: ATOM      2  O   UNL d   1       2.134  46.381  -2.695 +0.02 -0.34    -0.356 OA
DOCKED: BRANCH   2   3
DOCKED: ATOM      3  P   UNL d   1       0.906  47.128  -3.495 -0.09 -0.01    -0.014 P 
DOCKED: ATOM      4  O   UNL d   1      -0.114  47.469  -2.397 -0.01 -0.28    -0.577 OA
DOCKED: ATOM      5  O   UNL d   1       0.340  46.122  -4.495 +0.01 -0.25    -0.577 OA
DOCKED: ATOM      6  O   UNL d   1       1.466  48.386  -4.149 -0.08 -0.78    -0.638 OA
DOCKED: ENDBRANCH   2   3
DOCKED: ENDBRANCH   1   2
DOCKED: BRANCH   1   7
DOCKED: ATOM      7  C   UNL d   1       2.871  44.280  -1.621 -0.19 +0.12    +0.201 C 
DOCKED: BRANCH   7   8
DOCKED: ATOM      8  O   UNL d   1       2.352  42.938  -1.493 -0.06 -0.25    -0.364 OA
DOCKED: BRANCH   8   9
DOCKED: ATOM      9  P   UNL d   1       2.338  42.191  -0.017 -0.39 -0.02    -0.015 P 
DOCKED: ATOM     10  O   UNL d   1       0.877  42.248   0.445 -0.06 -0.73    -0.577 OA
DOCKED: ATOM     11  O   UNL d   1       3.258  42.998   0.900 -0.17 -0.36    -0.577 OA
DOCKED: ATOM     12  O   UNL d   1       2.817  40.756  -0.232 -0.95 -1.28    -0.638 OA
DOCKED: ENDBRANCH   8   9
DOCKED: ENDBRANCH   7   8
DOCKED: ENDBRANCH   1   7
DOCKED: BRANCH   1  13
DOCKED: ATOM     13  C   UNL d   1       3.876  45.023  -3.852 -0.31 +0.05    +0.073 C 
DOCKED: ATOM     14  O   UNL d   1       4.397  46.155  -4.152 -0.64 -0.71    -0.547 OA
DOCKED: ATOM     15  O   UNL d   1       4.386  43.886  -4.158 -0.06 -0.23    -0.547 OA
DOCKED: ENDBRANCH   1  13
DOCKED: TORSDOF 6
DOCKED: TER
DOCKED: ENDMDL
________________________________________________________________________________


	BEGINNING GENETIC ALGORITHM DOCKING 75 of 100
Run: 75 Seed: 1364053734 331743235 [ Run 75 of 100 GA/GALS ]
Beginning LAMARCKIAN GENETIC ALGORITHM (LGA), with a maximum of 25000000 energy evaluations.

Final-Value: -6.999


	FINAL GENETIC ALGORITHM DOCKED STATE
	_______________________________________________


Detailed state:  trans 45.709 25.982 19.795 quatxyzw -0.086386 0.553617 -0.489021 -0.668509 center 0.015 0.083 0.031 ntor 6 -77.4753 20.4465 -73.9870 24.0092 40.0970 2.0805
State:	 45.709  25.982  19.795  -0.116  0.744 -0.658 -96.096    -77.48   20.45  -73.99   24.01   40.10    2.08

DOCKED: MODEL       75
DOCKED: USER    Run = 75
DOCKED: USER    DPF = D:/Protein_go_brrr/autodock/final/2DN3/2_3_BPG/dock.dpf
DOCKED: USER  
DOCKED: USER    Estimated Free Energy of Binding    =   -7.33 kcal/mol  [=(1)+(2)+(3)-(4)]
DOCKED: USER    Estimated Inhibition Constant, Ki   =    4.25 uM (micromolar)  [Temperature = 298.15 K]
DOCKED: USER    
DOCKED: USER    (1) Final Intermolecular Energy     =   -9.12 kcal/mol
DOCKED: USER        vdW + Hbond + desolv Energy     =   -3.12 kcal/mol
DOCKED: USER        Electrostatic Energy            =   -6.00 kcal/mol
DOCKED: USER    (2) Final Total Internal Energy     =   +2.12 kcal/mol
DOCKED: USER    (3) Torsional Free Energy           =   +1.79 kcal/mol
DOCKED: USER    (4) Unbound System's Energy  [=(2)] =   +2.12 kcal/mol
DOCKED: USER    
DOCKED: USER    
DOCKED: USER    NEWDPF move 2_3_BPG_opt.pdbqt
DOCKED: USER    NEWDPF about 0.015000 0.083000 0.031000
DOCKED: USER    NEWDPF tran0 45.708614 25.981653 19.795145
DOCKED: USER    NEWDPF quaternion0 -0.086386 0.553617 -0.489021 -0.668509
DOCKED: USER    NEWDPF axisangle0 -0.116156 0.744405 -0.657548 -96.095755
DOCKED: USER    NEWDPF quat0 -0.116156 0.744405 -0.657548 -96.095755
DOCKED: USER    NEWDPF dihe0 -77.48 20.45 -73.99 24.01 40.10 2.08 
DOCKED: USER  keepresnum = 1 
DOCKED: USER  
DOCKED: REMARK  6 active torsions:
DOCKED: REMARK  status: ('A' for Active; 'I' for Inactive)
DOCKED: REMARK    1  A    between atoms: P_1  and  O_3 
DOCKED: REMARK    2  A    between atoms: P_2  and  O_4 
DOCKED: REMARK    3  A    between atoms: O_3  and  C_13 
DOCKED: REMARK    4  A    between atoms: O_4  and  C_14 
DOCKED: REMARK    5  A    between atoms: C_13  and  C_14 
DOCKED: REMARK    6  A    between atoms: C_13  and  C_15 
DOCKED: USER                              x       y       z     vdW  Elec       q    Type
DOCKED: USER                           _______ _______ _______ _____ _____    ______ ____
DOCKED: ROOT
DOCKED: ATOM      1  C   UNL d   1      45.665  26.223  20.419 -0.12 +0.14    +0.193 C 
DOCKED: ENDROOT
DOCKED: BRANCH   1   2
DOCKED: ATOM      2  O   UNL d   1      45.676  27.688  20.344 -0.12 -0.34    -0.356 OA
DOCKED: BRANCH   2   3
DOCKED: ATOM      3  P   UNL d   1      46.953  28.607  20.822 -0.12 -0.02    -0.014 P 
DOCKED: ATOM      4  O   UNL d   1      46.374  30.024  20.962 -0.22 -0.72    -0.577 OA
DOCKED: ATOM      5  O   UNL d   1      48.002  28.535  19.715 +0.00 -0.34    -0.577 OA
DOCKED: ATOM      6  O   UNL d   1      47.445  28.069  22.162 -0.22 -1.16    -0.638 OA
DOCKED: ENDBRANCH   2   3
DOCKED: ENDBRANCH   1   2
DOCKED: BRANCH   1   7
DOCKED: ATOM      7  C   UNL d   1      45.473  25.645  18.969 -0.12 +0.11    +0.201 C 
DOCKED: BRANCH   7   8
DOCKED: ATOM      8  O   UNL d   1      45.846  24.261  18.788 -0.07 -0.23    -0.364 OA
DOCKED: BRANCH   8   9
DOCKED: ATOM      9  P   UNL d   1      46.699  23.799  17.448 -0.20 -0.02    -0.015 P 
DOCKED: ATOM     10  O   UNL d   1      48.109  23.485  17.961 +0.01 -0.69    -0.577 OA
DOCKED: ATOM     11  O   UNL d   1      46.693  24.986  16.485 -0.22 -0.60    -0.577 OA
DOCKED: ATOM     12  O   UNL d   1      46.007  22.562  16.876 -0.22 -1.18    -0.638 OA
DOCKED: ENDBRANCH   8   9
DOCKED: ENDBRANCH   7   8
DOCKED: ENDBRANCH   1   7
DOCKED: BRANCH   1  13
DOCKED: ATOM     13  C   UNL d   1      44.467  25.738  21.317 -0.29 +0.06    +0.073 C 
DOCKED: ATOM     14  O   UNL d   1      43.991  26.545  22.191 -0.60 -0.68    -0.547 OA
DOCKED: ATOM     15  O   UNL d   1      43.992  24.570  21.074 -0.62 -0.34    -0.547 OA
DOCKED: ENDBRANCH   1  13
DOCKED: TORSDOF 6
DOCKED: TER
DOCKED: ENDMDL
________________________________________________________________________________


	BEGINNING GENETIC ALGORITHM DOCKING 76 of 100
Run: 76 Seed: 1178259606 1636419083 [ Run 76 of 100 GA/GALS ]
Beginning LAMARCKIAN GENETIC ALGORITHM (LGA), with a maximum of 25000000 energy evaluations.

Final-Value: -6.197


	FINAL GENETIC ALGORITHM DOCKED STATE
	_______________________________________________


Detailed state:  trans 3.814 42.582 -2.124 quatxyzw 0.200009 0.822231 0.182337 -0.500685 center 0.015 0.083 0.031 ntor 6 118.4439 -59.8487 148.3665 -159.8278 -46.4818 -74.7092
State:	  3.814  42.582  -2.124   0.231  0.950  0.211 -119.909    118.44  -59.85  148.37 -159.83  -46.48  -74.71

DOCKED: MODEL       76
DOCKED: USER    Run = 76
DOCKED: USER    DPF = D:/Protein_go_brrr/autodock/final/2DN3/2_3_BPG/dock.dpf
DOCKED: USER  
DOCKED: USER    Estimated Free Energy of Binding    =   -6.93 kcal/mol  [=(1)+(2)+(3)-(4)]
DOCKED: USER    Estimated Inhibition Constant, Ki   =    8.38 uM (micromolar)  [Temperature = 298.15 K]
DOCKED: USER    
DOCKED: USER    (1) Final Intermolecular Energy     =   -8.72 kcal/mol
DOCKED: USER        vdW + Hbond + desolv Energy     =   -3.85 kcal/mol
DOCKED: USER        Electrostatic Energy            =   -4.86 kcal/mol
DOCKED: USER    (2) Final Total Internal Energy     =   +2.52 kcal/mol
DOCKED: USER    (3) Torsional Free Energy           =   +1.79 kcal/mol
DOCKED: USER    (4) Unbound System's Energy  [=(2)] =   +2.52 kcal/mol
DOCKED: USER    
DOCKED: USER    
DOCKED: USER    NEWDPF move 2_3_BPG_opt.pdbqt
DOCKED: USER    NEWDPF about 0.015000 0.083000 0.031000
DOCKED: USER    NEWDPF tran0 3.814149 42.581764 -2.124251
DOCKED: USER    NEWDPF quaternion0 0.200009 0.822231 0.182337 -0.500685
DOCKED: USER    NEWDPF axisangle0 0.231056 0.949865 0.210641 -119.909346
DOCKED: USER    NEWDPF quat0 0.231056 0.949865 0.210641 -119.909346
DOCKED: USER    NEWDPF dihe0 118.44 -59.85 148.37 -159.83 -46.48 -74.71 
DOCKED: USER  keepresnum = 1 
DOCKED: USER  
DOCKED: REMARK  6 active torsions:
DOCKED: REMARK  status: ('A' for Active; 'I' for Inactive)
DOCKED: REMARK    1  A    between atoms: P_1  and  O_3 
DOCKED: REMARK    2  A    between atoms: P_2  and  O_4 
DOCKED: REMARK    3  A    between atoms: O_3  and  C_13 
DOCKED: REMARK    4  A    between atoms: O_4  and  C_14 
DOCKED: REMARK    5  A    between atoms: C_13  and  C_14 
DOCKED: REMARK    6  A    between atoms: C_13  and  C_15 
DOCKED: USER                              x       y       z     vdW  Elec       q    Type
DOCKED: USER                           _______ _______ _______ _____ _____    ______ ____
DOCKED: ROOT
DOCKED: ATOM      1  C   UNL d   1       4.097  42.025  -1.881 -0.23 +0.10    +0.193 C 
DOCKED: ENDROOT
DOCKED: BRANCH   1   2
DOCKED: ATOM      2  O   UNL d   1       4.077  42.105  -0.416 -0.50 -0.25    -0.356 OA
DOCKED: BRANCH   2   3
DOCKED: ATOM      3  P   UNL d   1       2.695  42.046   0.473 -0.49 -0.01    -0.014 P 
DOCKED: ATOM      4  O   UNL d   1       2.828  40.760   1.304 -0.41 -0.94    -0.577 OA
DOCKED: ATOM      5  O   UNL d   1       1.529  41.961  -0.510 +0.01 -0.78    -0.577 OA
DOCKED: ATOM      6  O   UNL d   1       2.652  43.285   1.361 -0.01 -0.40    -0.638 OA
DOCKED: ENDBRANCH   2   3
DOCKED: ENDBRANCH   1   2
DOCKED: BRANCH   1   7
DOCKED: ATOM      7  C   UNL d   1       3.187  43.169  -2.461 -0.15 +0.10    +0.201 C 
DOCKED: BRANCH   7   8
DOCKED: ATOM      8  O   UNL d   1       3.817  44.460  -2.614 -0.17 -0.21    -0.364 OA
DOCKED: BRANCH   8   9
DOCKED: ATOM      9  P   UNL d   1       3.568  45.349  -3.987 -0.36 -0.01    -0.015 P 
DOCKED: ATOM     10  O   UNL d   1       3.321  44.314  -5.092 -0.01 -0.27    -0.577 OA
DOCKED: ATOM     11  O   UNL d   1       4.843  46.155  -4.234 -0.71 -0.68    -0.577 OA
DOCKED: ATOM     12  O   UNL d   1       2.343  46.227  -3.739 -0.02 -0.61    -0.638 OA
DOCKED: ENDBRANCH   8   9
DOCKED: ENDBRANCH   7   8
DOCKED: ENDBRANCH   1   7
DOCKED: BRANCH   1  13
DOCKED: ATOM     13  C   UNL d   1       3.525  40.637  -2.353 -0.21 +0.05    +0.073 C 
DOCKED: ATOM     14  O   UNL d   1       3.325  40.452  -3.605 +0.01 -0.26    -0.547 OA
DOCKED: ATOM     15  O   UNL d   1       3.350  39.741  -1.450 -0.60 -0.70    -0.547 OA
DOCKED: ENDBRANCH   1  13
DOCKED: TORSDOF 6
DOCKED: TER
DOCKED: ENDMDL
________________________________________________________________________________


	BEGINNING GENETIC ALGORITHM DOCKING 77 of 100
Run: 77 Seed: 1099164557 9865808 [ Run 77 of 100 GA/GALS ]
Beginning LAMARCKIAN GENETIC ALGORITHM (LGA), with a maximum of 25000000 energy evaluations.

Final-Value: -6.574


	FINAL GENETIC ALGORITHM DOCKED STATE
	_______________________________________________


Detailed state:  trans 2.047 43.157 -1.693 quatxyzw -0.410787 0.202104 0.444154 -0.770152 center 0.015 0.083 0.031 ntor 6 155.1186 -97.2414 -137.4792 9.3710 32.4700 27.0508
State:	  2.047  43.157  -1.693  -0.644  0.317  0.696 -79.265    155.12  -97.24 -137.48    9.37   32.47   27.05

DOCKED: MODEL       77
DOCKED: USER    Run = 77
DOCKED: USER    DPF = D:/Protein_go_brrr/autodock/final/2DN3/2_3_BPG/dock.dpf
DOCKED: USER  
DOCKED: USER    Estimated Free Energy of Binding    =   -6.79 kcal/mol  [=(1)+(2)+(3)-(4)]
DOCKED: USER    Estimated Inhibition Constant, Ki   =   10.51 uM (micromolar)  [Temperature = 298.15 K]
DOCKED: USER    
DOCKED: USER    (1) Final Intermolecular Energy     =   -8.58 kcal/mol
DOCKED: USER        vdW + Hbond + desolv Energy     =   -3.26 kcal/mol
DOCKED: USER        Electrostatic Energy            =   -5.32 kcal/mol
DOCKED: USER    (2) Final Total Internal Energy     =   +2.01 kcal/mol
DOCKED: USER    (3) Torsional Free Energy           =   +1.79 kcal/mol
DOCKED: USER    (4) Unbound System's Energy  [=(2)] =   +2.01 kcal/mol
DOCKED: USER    
DOCKED: USER    
DOCKED: USER    NEWDPF move 2_3_BPG_opt.pdbqt
DOCKED: USER    NEWDPF about 0.015000 0.083000 0.031000
DOCKED: USER    NEWDPF tran0 2.047108 43.156736 -1.693174
DOCKED: USER    NEWDPF quaternion0 -0.410787 0.202104 0.444154 -0.770152
DOCKED: USER    NEWDPF axisangle0 -0.644009 0.316847 0.696319 -79.264872
DOCKED: USER    NEWDPF quat0 -0.644009 0.316847 0.696319 -79.264872
DOCKED: USER    NEWDPF dihe0 155.12 -97.24 -137.48 9.37 32.47 27.05 
DOCKED: USER  keepresnum = 1 
DOCKED: USER  
DOCKED: REMARK  6 active torsions:
DOCKED: REMARK  status: ('A' for Active; 'I' for Inactive)
DOCKED: REMARK    1  A    between atoms: P_1  and  O_3 
DOCKED: REMARK    2  A    between atoms: P_2  and  O_4 
DOCKED: REMARK    3  A    between atoms: O_3  and  C_13 
DOCKED: REMARK    4  A    between atoms: O_4  and  C_14 
DOCKED: REMARK    5  A    between atoms: C_13  and  C_14 
DOCKED: REMARK    6  A    between atoms: C_13  and  C_15 
DOCKED: USER                              x       y       z     vdW  Elec       q    Type
DOCKED: USER                           _______ _______ _______ _____ _____    ______ ____
DOCKED: ROOT
DOCKED: ATOM      1  C   UNL d   1       2.000  42.845  -1.101 -0.13 +0.15    +0.193 C 
DOCKED: ENDROOT
DOCKED: BRANCH   1   2
DOCKED: ATOM      2  O   UNL d   1       0.807  41.993  -1.127 -0.06 -0.43    -0.356 OA
DOCKED: BRANCH   2   3
DOCKED: ATOM      3  P   UNL d   1      -0.415  42.118  -0.033 -0.01 -0.02    -0.014 P 
DOCKED: ATOM      4  O   UNL d   1      -1.231  43.331  -0.507 +0.01 -0.32    -0.577 OA
DOCKED: ATOM      5  O   UNL d   1       0.223  42.368   1.332 -0.08 -0.61    -0.577 OA
DOCKED: ATOM      6  O   UNL d   1      -1.235  40.833  -0.094 -0.39 -1.25    -0.638 OA
DOCKED: ENDBRANCH   2   3
DOCKED: ENDBRANCH   1   2
DOCKED: BRANCH   1   7
DOCKED: ATOM      7  C   UNL d   1       2.289  43.353  -2.562 -0.08 +0.11    +0.201 C 
DOCKED: BRANCH   7   8
DOCKED: ATOM      8  O   UNL d   1       3.519  44.089  -2.742 -0.12 -0.19    -0.364 OA
DOCKED: BRANCH   8   9
DOCKED: ATOM      9  P   UNL d   1       3.582  45.352  -3.809 -0.36 -0.01    -0.015 P 
DOCKED: ATOM     10  O   UNL d   1       2.303  46.158  -3.549 -0.04 -0.54    -0.577 OA
DOCKED: ATOM     11  O   UNL d   1       3.600  44.748  -5.213 -0.04 -0.31    -0.577 OA
DOCKED: ATOM     12  O   UNL d   1       4.841  46.154  -3.486 -0.39 -0.82    -0.638 OA
DOCKED: ENDBRANCH   8   9
DOCKED: ENDBRANCH   7   8
DOCKED: ENDBRANCH   1   7
DOCKED: BRANCH   1  13
DOCKED: ATOM     13  C   UNL d   1       3.243  42.019  -0.601 -0.34 +0.06    +0.073 C 
DOCKED: ATOM     14  O   UNL d   1       4.184  42.638   0.009 -0.27 -0.32    -0.547 OA
DOCKED: ATOM     15  O   UNL d   1       3.208  40.748  -0.780 -0.93 -0.83    -0.547 OA
DOCKED: ENDBRANCH   1  13
DOCKED: TORSDOF 6
DOCKED: TER
DOCKED: ENDMDL
________________________________________________________________________________


	BEGINNING GENETIC ALGORITHM DOCKING 78 of 100
Run: 78 Seed: 480938008 1218997165 [ Run 78 of 100 GA/GALS ]
Beginning LAMARCKIAN GENETIC ALGORITHM (LGA), with a maximum of 25000000 energy evaluations.

Final-Value: -6.985


	FINAL GENETIC ALGORITHM DOCKED STATE
	_______________________________________________


Detailed state:  trans 45.948 26.302 20.082 quatxyzw 0.789418 0.041440 -0.606506 -0.085155 center 0.015 0.083 0.031 ntor 6 155.3888 -57.7303 -144.7306 -17.5623 -0.5841 -49.4539
State:	 45.948  26.302  20.082   0.792  0.042 -0.609 -170.230    155.39  -57.73 -144.73  -17.56   -0.58  -49.45

DOCKED: MODEL       78
DOCKED: USER    Run = 78
DOCKED: USER    DPF = D:/Protein_go_brrr/autodock/final/2DN3/2_3_BPG/dock.dpf
DOCKED: USER  
DOCKED: USER    Estimated Free Energy of Binding    =   -7.22 kcal/mol  [=(1)+(2)+(3)-(4)]
DOCKED: USER    Estimated Inhibition Constant, Ki   =    5.09 uM (micromolar)  [Temperature = 298.15 K]
DOCKED: USER    
DOCKED: USER    (1) Final Intermolecular Energy     =   -9.01 kcal/mol
DOCKED: USER        vdW + Hbond + desolv Energy     =   -2.68 kcal/mol
DOCKED: USER        Electrostatic Energy            =   -6.33 kcal/mol
DOCKED: USER    (2) Final Total Internal Energy     =   +2.03 kcal/mol
DOCKED: USER    (3) Torsional Free Energy           =   +1.79 kcal/mol
DOCKED: USER    (4) Unbound System's Energy  [=(2)] =   +2.03 kcal/mol
DOCKED: USER    
DOCKED: USER    
DOCKED: USER    NEWDPF move 2_3_BPG_opt.pdbqt
DOCKED: USER    NEWDPF about 0.015000 0.083000 0.031000
DOCKED: USER    NEWDPF tran0 45.948348 26.302082 20.081557
DOCKED: USER    NEWDPF quaternion0 0.789418 0.041440 -0.606506 -0.085155
DOCKED: USER    NEWDPF axisangle0 0.792296 0.041591 -0.608717 -170.230071
DOCKED: USER    NEWDPF quat0 0.792296 0.041591 -0.608717 -170.230071
DOCKED: USER    NEWDPF dihe0 155.39 -57.73 -144.73 -17.56 -0.58 -49.45 
DOCKED: USER  keepresnum = 1 
DOCKED: USER  
DOCKED: REMARK  6 active torsions:
DOCKED: REMARK  status: ('A' for Active; 'I' for Inactive)
DOCKED: REMARK    1  A    between atoms: P_1  and  O_3 
DOCKED: REMARK    2  A    between atoms: P_2  and  O_4 
DOCKED: REMARK    3  A    between atoms: O_3  and  C_13 
DOCKED: REMARK    4  A    between atoms: O_4  and  C_14 
DOCKED: REMARK    5  A    between atoms: C_13  and  C_14 
DOCKED: REMARK    6  A    between atoms: C_13  and  C_15 
DOCKED: USER                              x       y       z     vdW  Elec       q    Type
DOCKED: USER                           _______ _______ _______ _____ _____    ______ ____
DOCKED: ROOT
DOCKED: ATOM      1  C   UNL d   1      45.654  26.613  20.597 -0.13 +0.16    +0.193 C 
DOCKED: ENDROOT
DOCKED: BRANCH   1   2
DOCKED: ATOM      2  O   UNL d   1      46.126  25.988  21.838 -0.06 -0.35    -0.356 OA
DOCKED: BRANCH   2   3
DOCKED: ATOM      3  P   UNL d   1      45.220  25.903  23.207 -0.23 -0.02    -0.014 P 
DOCKED: ATOM      4  O   UNL d   1      45.047  24.397  23.459 -0.03 -0.35    -0.577 OA
DOCKED: ATOM      5  O   UNL d   1      43.884  26.580  22.909 -0.75 -0.86    -0.577 OA
DOCKED: ATOM      6  O   UNL d   1      46.002  26.572  24.333 +0.18 -1.21    -0.638 OA
DOCKED: ENDBRANCH   2   3
DOCKED: ENDBRANCH   1   2
DOCKED: BRANCH   1   7
DOCKED: ATOM      7  C   UNL d   1      46.542  26.101  19.404 -0.07 +0.12    +0.201 C 
DOCKED: BRANCH   7   8
DOCKED: ATOM      8  O   UNL d   1      45.889  25.215  18.468 -0.06 -0.22    -0.364 OA
DOCKED: BRANCH   8   9
DOCKED: ATOM      9  P   UNL d   1      46.742  24.565  17.208 -0.30 -0.02    -0.015 P 
DOCKED: ATOM     10  O   UNL d   1      48.134  24.267  17.780 -0.04 -0.59    -0.577 OA
DOCKED: ATOM     11  O   UNL d   1      46.791  25.625  16.109 -0.11 -0.48    -0.577 OA
DOCKED: ATOM     12  O   UNL d   1      46.014  23.292  16.780 -0.42 -1.04    -0.638 OA
DOCKED: ENDBRANCH   8   9
DOCKED: ENDBRANCH   7   8
DOCKED: ENDBRANCH   1   7
DOCKED: BRANCH   1  13
DOCKED: ATOM     13  C   UNL d   1      45.795  28.178  20.694 -0.16 +0.09    +0.073 C 
DOCKED: ATOM     14  O   UNL d   1      44.976  28.908  20.033 -0.06 -0.46    -0.547 OA
DOCKED: ATOM     15  O   UNL d   1      46.694  28.634  21.490 -0.44 -1.10    -0.547 OA
DOCKED: ENDBRANCH   1  13
DOCKED: TORSDOF 6
DOCKED: TER
DOCKED: ENDMDL
________________________________________________________________________________


	BEGINNING GENETIC ALGORITHM DOCKING 79 of 100
Run: 79 Seed: 861975106 650231166 [ Run 79 of 100 GA/GALS ]
Beginning LAMARCKIAN GENETIC ALGORITHM (LGA), with a maximum of 25000000 energy evaluations.

Final-Value: -6.364


	FINAL GENETIC ALGORITHM DOCKED STATE
	_______________________________________________


Detailed state:  trans 44.485 26.485 21.409 quatxyzw -0.105160 -0.928161 -0.268412 -0.235401 center 0.015 0.083 0.031 ntor 6 -37.1293 -154.2348 -79.7836 49.2153 -3.6519 168.6759
State:	 44.485  26.485  21.409  -0.108 -0.955 -0.276 -152.770    -37.13 -154.23  -79.78   49.22   -3.65  168.68

DOCKED: MODEL       79
DOCKED: USER    Run = 79
DOCKED: USER    DPF = D:/Protein_go_brrr/autodock/final/2DN3/2_3_BPG/dock.dpf
DOCKED: USER  
DOCKED: USER    Estimated Free Energy of Binding    =   -6.73 kcal/mol  [=(1)+(2)+(3)-(4)]
DOCKED: USER    Estimated Inhibition Constant, Ki   =   11.60 uM (micromolar)  [Temperature = 298.15 K]
DOCKED: USER    
DOCKED: USER    (1) Final Intermolecular Energy     =   -8.52 kcal/mol
DOCKED: USER        vdW + Hbond + desolv Energy     =   -3.43 kcal/mol
DOCKED: USER        Electrostatic Energy            =   -5.09 kcal/mol
DOCKED: USER    (2) Final Total Internal Energy     =   +2.16 kcal/mol
DOCKED: USER    (3) Torsional Free Energy           =   +1.79 kcal/mol
DOCKED: USER    (4) Unbound System's Energy  [=(2)] =   +2.16 kcal/mol
DOCKED: USER    
DOCKED: USER    
DOCKED: USER    NEWDPF move 2_3_BPG_opt.pdbqt
DOCKED: USER    NEWDPF about 0.015000 0.083000 0.031000
DOCKED: USER    NEWDPF tran0 44.484729 26.484846 21.409486
DOCKED: USER    NEWDPF quaternion0 -0.105160 -0.928161 -0.268412 -0.235401
DOCKED: USER    NEWDPF axisangle0 -0.108200 -0.954998 -0.276173 -152.769496
DOCKED: USER    NEWDPF quat0 -0.108200 -0.954998 -0.276173 -152.769496
DOCKED: USER    NEWDPF dihe0 -37.13 -154.23 -79.78 49.22 -3.65 168.68 
DOCKED: USER  keepresnum = 1 
DOCKED: USER  
DOCKED: REMARK  6 active torsions:
DOCKED: REMARK  status: ('A' for Active; 'I' for Inactive)
DOCKED: REMARK    1  A    between atoms: P_1  and  O_3 
DOCKED: REMARK    2  A    between atoms: P_2  and  O_4 
DOCKED: REMARK    3  A    between atoms: O_3  and  C_13 
DOCKED: REMARK    4  A    between atoms: O_4  and  C_14 
DOCKED: REMARK    5  A    between atoms: C_13  and  C_14 
DOCKED: REMARK    6  A    between atoms: C_13  and  C_15 
DOCKED: USER                              x       y       z     vdW  Elec       q    Type
DOCKED: USER                           _______ _______ _______ _____ _____    ______ ____
DOCKED: ROOT
DOCKED: ATOM      1  C   UNL d   1      44.857  26.235  20.911 -0.19 +0.16    +0.193 C 
DOCKED: ENDROOT
DOCKED: BRANCH   1   2
DOCKED: ATOM      2  O   UNL d   1      46.269  26.476  21.230 -0.06 -0.35    -0.356 OA
DOCKED: BRANCH   2   3
DOCKED: ATOM      3  P   UNL d   1      47.034  27.899  20.921 -0.08 -0.02    -0.014 P 
DOCKED: ATOM      4  O   UNL d   1      45.899  28.930  20.817 -0.32 -0.79    -0.577 OA
DOCKED: ATOM      5  O   UNL d   1      47.770  27.737  19.593 +0.01 -0.34    -0.577 OA
DOCKED: ATOM      6  O   UNL d   1      47.959  28.201  22.096 -0.29 -0.86    -0.638 OA
DOCKED: ENDBRANCH   2   3
DOCKED: ENDBRANCH   1   2
DOCKED: BRANCH   1   7
DOCKED: ATOM      7  C   UNL d   1      43.991  26.546  22.187 -0.17 +0.25    +0.201 C 
DOCKED: BRANCH   7   8
DOCKED: ATOM      8  O   UNL d   1      44.625  26.284  23.458 -0.34 -0.60    -0.364 OA
DOCKED: BRANCH   8   9
DOCKED: ATOM      9  P   UNL d   1      43.814  26.587  24.868 -0.35 -0.02    -0.015 P 
DOCKED: ATOM     10  O   UNL d   1      43.342  25.214  25.360 -0.02 -0.33    -0.577 OA
DOCKED: ATOM     11  O   UNL d   1      42.641  27.503  24.520 -0.62 -0.66    -0.577 OA
DOCKED: ATOM     12  O   UNL d   1      44.810  27.231  25.832 +0.02 -0.97    -0.638 OA
DOCKED: ENDBRANCH   8   9
DOCKED: ENDBRANCH   7   8
DOCKED: ENDBRANCH   1   7
DOCKED: BRANCH   1  13
DOCKED: ATOM     13  C   UNL d   1      44.644  24.728  20.511 -0.24 +0.04    +0.073 C 
DOCKED: ATOM     14  O   UNL d   1      45.556  23.880  20.813 -0.34 -0.32    -0.547 OA
DOCKED: ATOM     15  O   UNL d   1      43.527  24.425  19.957 -0.47 -0.29    -0.547 OA
DOCKED: ENDBRANCH   1  13
DOCKED: TORSDOF 6
DOCKED: TER
DOCKED: ENDMDL
________________________________________________________________________________


	BEGINNING GENETIC ALGORITHM DOCKING 80 of 100
Run: 80 Seed: 884036743 476847185 [ Run 80 of 100 GA/GALS ]
Beginning LAMARCKIAN GENETIC ALGORITHM (LGA), with a maximum of 25000000 energy evaluations.

Final-Value: -6.553


	FINAL GENETIC ALGORITHM DOCKED STATE
	_______________________________________________


Detailed state:  trans 50.713 21.512 3.176 quatxyzw 0.754102 -0.495757 0.150117 0.403758 center 0.015 0.083 0.031 ntor 6 103.7668 83.1928 24.9227 26.0620 14.7440 -172.8805
State:	 50.713  21.512   3.176   0.824 -0.542  0.164 132.373    103.77   83.19   24.92   26.06   14.74 -172.88

DOCKED: MODEL       80
DOCKED: USER    Run = 80
DOCKED: USER    DPF = D:/Protein_go_brrr/autodock/final/2DN3/2_3_BPG/dock.dpf
DOCKED: USER  
DOCKED: USER    Estimated Free Energy of Binding    =   -6.89 kcal/mol  [=(1)+(2)+(3)-(4)]
DOCKED: USER    Estimated Inhibition Constant, Ki   =    8.83 uM (micromolar)  [Temperature = 298.15 K]
DOCKED: USER    
DOCKED: USER    (1) Final Intermolecular Energy     =   -8.68 kcal/mol
DOCKED: USER        vdW + Hbond + desolv Energy     =   -3.83 kcal/mol
DOCKED: USER        Electrostatic Energy            =   -4.85 kcal/mol
DOCKED: USER    (2) Final Total Internal Energy     =   +2.13 kcal/mol
DOCKED: USER    (3) Torsional Free Energy           =   +1.79 kcal/mol
DOCKED: USER    (4) Unbound System's Energy  [=(2)] =   +2.13 kcal/mol
DOCKED: USER    
DOCKED: USER    
DOCKED: USER    NEWDPF move 2_3_BPG_opt.pdbqt
DOCKED: USER    NEWDPF about 0.015000 0.083000 0.031000
DOCKED: USER    NEWDPF tran0 50.713337 21.512254 3.176175
DOCKED: USER    NEWDPF quaternion0 0.754102 -0.495757 0.150117 0.403758
DOCKED: USER    NEWDPF axisangle0 0.824276 -0.541891 0.164086 132.373380
DOCKED: USER    NEWDPF quat0 0.824276 -0.541891 0.164086 132.373380
DOCKED: USER    NEWDPF dihe0 103.77 83.19 24.92 26.06 14.74 -172.88 
DOCKED: USER  keepresnum = 1 
DOCKED: USER  
DOCKED: REMARK  6 active torsions:
DOCKED: REMARK  status: ('A' for Active; 'I' for Inactive)
DOCKED: REMARK    1  A    between atoms: P_1  and  O_3 
DOCKED: REMARK    2  A    between atoms: P_2  and  O_4 
DOCKED: REMARK    3  A    between atoms: O_3  and  C_13 
DOCKED: REMARK    4  A    between atoms: O_4  and  C_14 
DOCKED: REMARK    5  A    between atoms: C_13  and  C_14 
DOCKED: REMARK    6  A    between atoms: C_13  and  C_15 
DOCKED: USER                              x       y       z     vdW  Elec       q    Type
DOCKED: USER                           _______ _______ _______ _____ _____    ______ ____
DOCKED: ROOT
DOCKED: ATOM      1  C   UNL d   1      50.696  22.121   3.456 -0.19 +0.19    +0.193 C 
DOCKED: ENDROOT
DOCKED: BRANCH   1   2
DOCKED: ATOM      2  O   UNL d   1      49.306  22.592   3.438 -0.15 -0.44    -0.356 OA
DOCKED: BRANCH   2   3
DOCKED: ATOM      3  P   UNL d   1      48.761  23.759   2.416 -0.49 -0.02    -0.014 P 
DOCKED: ATOM      4  O   UNL d   1      48.712  25.031   3.277 -0.49 -0.76    -0.577 OA
DOCKED: ATOM      5  O   UNL d   1      47.368  23.340   1.952 -0.49 -0.73    -0.577 OA
DOCKED: ATOM      6  O   UNL d   1      49.766  23.894   1.276 -0.06 -0.55    -0.638 OA
DOCKED: ENDBRANCH   2   3
DOCKED: ENDBRANCH   1   2
DOCKED: BRANCH   1   7
DOCKED: ATOM      7  C   UNL d   1      50.716  20.595   3.077 -0.08 +0.15    +0.201 C 
DOCKED: BRANCH   7   8
DOCKED: ATOM      8  O   UNL d   1      49.437  19.923   3.096 -0.24 -0.46    -0.364 OA
DOCKED: BRANCH   8   9
DOCKED: ATOM      9  P   UNL d   1      49.368  18.271   3.154 -0.06 -0.01    -0.015 P 
DOCKED: ATOM     10  O   UNL d   1      48.037  17.904   2.487 -0.23 -0.50    -0.577 OA
DOCKED: ATOM     11  O   UNL d   1      49.396  17.875   4.630 -0.50 -0.49    -0.577 OA
DOCKED: ATOM     12  O   UNL d   1      50.568  17.742   2.370 +0.01 -0.28    -0.638 OA
DOCKED: ENDBRANCH   8   9
DOCKED: ENDBRANCH   7   8
DOCKED: ENDBRANCH   1   7
DOCKED: BRANCH   1  13
DOCKED: ATOM     13  C   UNL d   1      51.304  22.291   4.898 -0.21 +0.07    +0.073 C 
DOCKED: ATOM     14  O   UNL d   1      52.307  21.564   5.227 +0.00 -0.37    -0.547 OA
DOCKED: ATOM     15  O   UNL d   1      50.793  23.203   5.643 -0.66 -0.65    -0.547 OA
DOCKED: ENDBRANCH   1  13
DOCKED: TORSDOF 6
DOCKED: TER
DOCKED: ENDMDL
________________________________________________________________________________


	BEGINNING GENETIC ALGORITHM DOCKING 81 of 100
Run: 81 Seed: 1140557617 91180958 [ Run 81 of 100 GA/GALS ]
Beginning LAMARCKIAN GENETIC ALGORITHM (LGA), with a maximum of 25000000 energy evaluations.

Final-Value: -6.248


	FINAL GENETIC ALGORITHM DOCKED STATE
	_______________________________________________


Detailed state:  trans 3.201 44.276 -2.282 quatxyzw -0.483720 0.358878 -0.537176 -0.590478 center 0.015 0.083 0.031 ntor 6 155.1031 -90.6175 -177.4092 71.1228 38.0994 81.5957
State:	  3.201  44.276  -2.282  -0.599  0.445 -0.666 -107.618    155.10  -90.62 -177.41   71.12   38.10   81.60

DOCKED: MODEL       81
DOCKED: USER    Run = 81
DOCKED: USER    DPF = D:/Protein_go_brrr/autodock/final/2DN3/2_3_BPG/dock.dpf
DOCKED: USER  
DOCKED: USER    Estimated Free Energy of Binding    =   -6.53 kcal/mol  [=(1)+(2)+(3)-(4)]
DOCKED: USER    Estimated Inhibition Constant, Ki   =   16.23 uM (micromolar)  [Temperature = 298.15 K]
DOCKED: USER    
DOCKED: USER    (1) Final Intermolecular Energy     =   -8.32 kcal/mol
DOCKED: USER        vdW + Hbond + desolv Energy     =   -2.93 kcal/mol
DOCKED: USER        Electrostatic Energy            =   -5.39 kcal/mol
DOCKED: USER    (2) Final Total Internal Energy     =   +2.08 kcal/mol
DOCKED: USER    (3) Torsional Free Energy           =   +1.79 kcal/mol
DOCKED: USER    (4) Unbound System's Energy  [=(2)] =   +2.08 kcal/mol
DOCKED: USER    
DOCKED: USER    
DOCKED: USER    NEWDPF move 2_3_BPG_opt.pdbqt
DOCKED: USER    NEWDPF about 0.015000 0.083000 0.031000
DOCKED: USER    NEWDPF tran0 3.200589 44.276038 -2.282014
DOCKED: USER    NEWDPF quaternion0 -0.483720 0.358878 -0.537176 -0.590478
DOCKED: USER    NEWDPF axisangle0 -0.599365 0.444677 -0.665601 -107.618145
DOCKED: USER    NEWDPF quat0 -0.599365 0.444677 -0.665601 -107.618145
DOCKED: USER    NEWDPF dihe0 155.10 -90.62 -177.41 71.12 38.10 81.60 
DOCKED: USER  keepresnum = 1 
DOCKED: USER  
DOCKED: REMARK  6 active torsions:
DOCKED: REMARK  status: ('A' for Active; 'I' for Inactive)
DOCKED: REMARK    1  A    between atoms: P_1  and  O_3 
DOCKED: REMARK    2  A    between atoms: P_2  and  O_4 
DOCKED: REMARK    3  A    between atoms: O_3  and  C_13 
DOCKED: REMARK    4  A    between atoms: O_4  and  C_14 
DOCKED: REMARK    5  A    between atoms: C_13  and  C_14 
DOCKED: REMARK    6  A    between atoms: C_13  and  C_15 
DOCKED: USER                              x       y       z     vdW  Elec       q    Type
DOCKED: USER                           _______ _______ _______ _____ _____    ______ ____
DOCKED: ROOT
DOCKED: ATOM      1  C   UNL d   1       3.102  44.883  -2.014 -0.18 +0.13    +0.193 C 
DOCKED: ENDROOT
DOCKED: BRANCH   1   2
DOCKED: ATOM      2  O   UNL d   1       2.551  45.758  -3.055 -0.10 -0.30    -0.356 OA
DOCKED: BRANCH   2   3
DOCKED: ATOM      3  P   UNL d   1       3.349  46.119  -4.447 -0.18 -0.02    -0.014 P 
DOCKED: ATOM      4  O   UNL d   1       3.007  44.959  -5.396 -0.02 -0.30    -0.577 OA
DOCKED: ATOM      5  O   UNL d   1       4.840  46.155  -4.117 -0.69 -0.69    -0.577 OA
DOCKED: ATOM      6  O   UNL d   1       2.809  47.446  -4.969 +0.10 -1.02    -0.638 OA
DOCKED: ENDBRANCH   2   3
DOCKED: ENDBRANCH   1   2
DOCKED: BRANCH   1   7
DOCKED: ATOM      7  C   UNL d   1       3.067  43.398  -2.533 -0.14 +0.10    +0.201 C 
DOCKED: BRANCH   7   8
DOCKED: ATOM      8  O   UNL d   1       2.266  42.478  -1.758 -0.06 -0.27    -0.364 OA
DOCKED: BRANCH   8   9
DOCKED: ATOM      9  P   UNL d   1       2.819  40.948  -1.455 -0.21 -0.02    -0.015 P 
DOCKED: ATOM     10  O   UNL d   1       4.238  40.915  -2.037 -0.09 -0.34    -0.577 OA
DOCKED: ATOM     11  O   UNL d   1       1.881  39.984  -2.180 -0.18 -0.82    -0.577 OA
DOCKED: ATOM     12  O   UNL d   1       2.817  40.759   0.061 -0.90 -1.30    -0.638 OA
DOCKED: ENDBRANCH   8   9
DOCKED: ENDBRANCH   7   8
DOCKED: ENDBRANCH   1   7
DOCKED: BRANCH   1  13
DOCKED: ATOM     13  C   UNL d   1       2.229  44.981  -0.708 -0.20 +0.04    +0.073 C 
DOCKED: ATOM     14  O   UNL d   1       2.795  44.778   0.423 -0.09 -0.30    -0.547 OA
DOCKED: ATOM     15  O   UNL d   1       1.001  45.326  -0.853 -0.00 -0.28    -0.547 OA
DOCKED: ENDBRANCH   1  13
DOCKED: TORSDOF 6
DOCKED: TER
DOCKED: ENDMDL
________________________________________________________________________________


	BEGINNING GENETIC ALGORITHM DOCKING 82 of 100
Run: 82 Seed: 305065178 1697533884 [ Run 82 of 100 GA/GALS ]
Beginning LAMARCKIAN GENETIC ALGORITHM (LGA), with a maximum of 25000000 energy evaluations.

Final-Value: -6.681


	FINAL GENETIC ALGORITHM DOCKED STATE
	_______________________________________________


Detailed state:  trans 45.855 26.393 20.111 quatxyzw -0.834091 0.480713 0.170616 -0.209995 center 0.015 0.083 0.031 ntor 6 68.6025 -128.5552 -158.2810 -175.5896 -58.6335 -53.0684
State:	 45.855  26.393  20.111  -0.853  0.492  0.175 -155.756     68.60 -128.56 -158.28 -175.59  -58.63  -53.07

DOCKED: MODEL       82
DOCKED: USER    Run = 82
DOCKED: USER    DPF = D:/Protein_go_brrr/autodock/final/2DN3/2_3_BPG/dock.dpf
DOCKED: USER  
DOCKED: USER    Estimated Free Energy of Binding    =   -7.17 kcal/mol  [=(1)+(2)+(3)-(4)]
DOCKED: USER    Estimated Inhibition Constant, Ki   =    5.59 uM (micromolar)  [Temperature = 298.15 K]
DOCKED: USER    
DOCKED: USER    (1) Final Intermolecular Energy     =   -8.96 kcal/mol
DOCKED: USER        vdW + Hbond + desolv Energy     =   -3.47 kcal/mol
DOCKED: USER        Electrostatic Energy            =   -5.49 kcal/mol
DOCKED: USER    (2) Final Total Internal Energy     =   +2.28 kcal/mol
DOCKED: USER    (3) Torsional Free Energy           =   +1.79 kcal/mol
DOCKED: USER    (4) Unbound System's Energy  [=(2)] =   +2.28 kcal/mol
DOCKED: USER    
DOCKED: USER    
DOCKED: USER    NEWDPF move 2_3_BPG_opt.pdbqt
DOCKED: USER    NEWDPF about 0.015000 0.083000 0.031000
DOCKED: USER    NEWDPF tran0 45.854819 26.393006 20.111360
DOCKED: USER    NEWDPF quaternion0 -0.834091 0.480713 0.170616 -0.209995
DOCKED: USER    NEWDPF axisangle0 -0.853113 0.491676 0.174507 -155.755886
DOCKED: USER    NEWDPF quat0 -0.853113 0.491676 0.174507 -155.755886
DOCKED: USER    NEWDPF dihe0 68.60 -128.56 -158.28 -175.59 -58.63 -53.07 
DOCKED: USER  keepresnum = 1 
DOCKED: USER  
DOCKED: REMARK  6 active torsions:
DOCKED: REMARK  status: ('A' for Active; 'I' for Inactive)
DOCKED: REMARK    1  A    between atoms: P_1  and  O_3 
DOCKED: REMARK    2  A    between atoms: P_2  and  O_4 
DOCKED: REMARK    3  A    between atoms: O_3  and  C_13 
DOCKED: REMARK    4  A    between atoms: O_4  and  C_14 
DOCKED: REMARK    5  A    between atoms: C_13  and  C_14 
DOCKED: REMARK    6  A    between atoms: C_13  and  C_15 
DOCKED: USER                              x       y       z     vdW  Elec       q    Type
DOCKED: USER                           _______ _______ _______ _____ _____    ______ ____
DOCKED: ROOT
DOCKED: ATOM      1  C   UNL d   1      45.839  27.009  20.375 -0.13 +0.17    +0.193 C 
DOCKED: ENDROOT
DOCKED: BRANCH   1   2
DOCKED: ATOM      2  O   UNL d   1      44.691  27.086  21.286 -0.33 -0.45    -0.356 OA
DOCKED: BRANCH   2   3
DOCKED: ATOM      3  P   UNL d   1      44.417  25.997  22.487 -0.27 -0.02    -0.014 P 
DOCKED: ATOM      4  O   UNL d   1      45.775  25.855  23.193 -0.03 -0.69    -0.577 OA
DOCKED: ATOM      5  O   UNL d   1      43.989  24.690  21.824 -0.32 -0.36    -0.577 OA
DOCKED: ATOM      6  O   UNL d   1      43.360  26.580  23.420 -0.79 -0.82    -0.638 OA
DOCKED: ENDBRANCH   2   3
DOCKED: ENDBRANCH   1   2
DOCKED: BRANCH   1   7
DOCKED: ATOM      7  C   UNL d   1      46.065  25.505  19.975 -0.08 +0.12    +0.201 C 
DOCKED: BRANCH   7   8
DOCKED: ATOM      8  O   UNL d   1      45.677  25.144  18.631 -0.06 -0.22    -0.364 OA
DOCKED: BRANCH   8   9
DOCKED: ATOM      9  P   UNL d   1      46.774  24.441  17.611 -0.30 -0.01    -0.015 P 
DOCKED: ATOM     10  O   UNL d   1      47.811  23.785  18.531 -0.02 -0.50    -0.577 OA
DOCKED: ATOM     11  O   UNL d   1      47.384  25.562  16.771 -0.12 -0.48    -0.577 OA
DOCKED: ATOM     12  O   UNL d   1      46.016  23.411  16.775 -0.43 -1.00    -0.638 OA
DOCKED: ENDBRANCH   8   9
DOCKED: ENDBRANCH   7   8
DOCKED: ENDBRANCH   1   7
DOCKED: BRANCH   1  13
DOCKED: ATOM     13  C   UNL d   1      47.135  27.541  21.094 -0.07 +0.08    +0.073 C 
DOCKED: ATOM     14  O   UNL d   1      48.146  26.760  21.186 +0.01 -0.39    -0.547 OA
DOCKED: ATOM     15  O   UNL d   1      47.121  28.761  21.492 -0.54 -0.92    -0.547 OA
DOCKED: ENDBRANCH   1  13
DOCKED: TORSDOF 6
DOCKED: TER
DOCKED: ENDMDL
________________________________________________________________________________


	BEGINNING GENETIC ALGORITHM DOCKING 83 of 100
Run: 83 Seed: 669763775 1309282589 [ Run 83 of 100 GA/GALS ]
Beginning LAMARCKIAN GENETIC ALGORITHM (LGA), with a maximum of 25000000 energy evaluations.

Final-Value: -6.705


	FINAL GENETIC ALGORITHM DOCKED STATE
	_______________________________________________


Detailed state:  trans 46.240 26.494 20.307 quatxyzw -0.870229 0.067096 0.485910 0.045726 center 0.015 0.083 0.031 ntor 6 -179.2892 -10.4353 -141.2140 27.9459 -5.6354 -36.9235
State:	 46.240  26.494  20.307  -0.871  0.067  0.486 174.758   -179.29  -10.44 -141.21   27.95   -5.64  -36.92

DOCKED: MODEL       83
DOCKED: USER    Run = 83
DOCKED: USER    DPF = D:/Protein_go_brrr/autodock/final/2DN3/2_3_BPG/dock.dpf
DOCKED: USER  
DOCKED: USER    Estimated Free Energy of Binding    =   -6.84 kcal/mol  [=(1)+(2)+(3)-(4)]
DOCKED: USER    Estimated Inhibition Constant, Ki   =    9.70 uM (micromolar)  [Temperature = 298.15 K]
DOCKED: USER    
DOCKED: USER    (1) Final Intermolecular Energy     =   -8.63 kcal/mol
DOCKED: USER        vdW + Hbond + desolv Energy     =   -3.39 kcal/mol
DOCKED: USER        Electrostatic Energy            =   -5.24 kcal/mol
DOCKED: USER    (2) Final Total Internal Energy     =   +1.92 kcal/mol
DOCKED: USER    (3) Torsional Free Energy           =   +1.79 kcal/mol
DOCKED: USER    (4) Unbound System's Energy  [=(2)] =   +1.92 kcal/mol
DOCKED: USER    
DOCKED: USER    
DOCKED: USER    NEWDPF move 2_3_BPG_opt.pdbqt
DOCKED: USER    NEWDPF about 0.015000 0.083000 0.031000
DOCKED: USER    NEWDPF tran0 46.240412 26.493798 20.307094
DOCKED: USER    NEWDPF quaternion0 -0.870229 0.067096 0.485910 0.045726
DOCKED: USER    NEWDPF axisangle0 -0.871140 0.067167 0.486419 174.758351
DOCKED: USER    NEWDPF quat0 -0.871140 0.067167 0.486419 174.758351
DOCKED: USER    NEWDPF dihe0 -179.29 -10.44 -141.21 27.95 -5.64 -36.92 
DOCKED: USER  keepresnum = 1 
DOCKED: USER  
DOCKED: REMARK  6 active torsions:
DOCKED: REMARK  status: ('A' for Active; 'I' for Inactive)
DOCKED: REMARK    1  A    between atoms: P_1  and  O_3 
DOCKED: REMARK    2  A    between atoms: P_2  and  O_4 
DOCKED: REMARK    3  A    between atoms: O_3  and  C_13 
DOCKED: REMARK    4  A    between atoms: O_4  and  C_14 
DOCKED: REMARK    5  A    between atoms: C_13  and  C_14 
DOCKED: REMARK    6  A    between atoms: C_13  and  C_15 
DOCKED: USER                              x       y       z     vdW  Elec       q    Type
DOCKED: USER                           _______ _______ _______ _____ _____    ______ ____
DOCKED: ROOT
DOCKED: ATOM      1  C   UNL d   1      45.880  26.895  20.705 -0.13 +0.18    +0.193 C 
DOCKED: ENDROOT
DOCKED: BRANCH   1   2
DOCKED: ATOM      2  O   UNL d   1      45.825  26.286  22.039 -0.12 -0.44    -0.356 OA
DOCKED: BRANCH   2   3
DOCKED: ATOM      3  P   UNL d   1      44.495  25.519  22.627 -0.32 -0.01    -0.014 P 
DOCKED: ATOM      4  O   UNL d   1      45.009  24.745  23.851 -0.02 -0.40    -0.577 OA
DOCKED: ATOM      5  O   UNL d   1      43.996  24.575  21.535 -0.52 -0.36    -0.577 OA
DOCKED: ATOM      6  O   UNL d   1      43.475  26.581  23.025 -0.69 -0.84    -0.638 OA
DOCKED: ENDBRANCH   2   3
DOCKED: ENDBRANCH   1   2
DOCKED: BRANCH   1   7
DOCKED: ATOM      7  C   UNL d   1      46.951  26.130  19.844 -0.05 +0.13    +0.201 C 
DOCKED: BRANCH   7   8
DOCKED: ATOM      8  O   UNL d   1      46.473  25.552  18.610 -0.05 -0.22    -0.364 OA
DOCKED: BRANCH   8   9
DOCKED: ATOM      9  P   UNL d   1      47.524  24.779  17.593 -0.27 -0.01    -0.015 P 
DOCKED: ATOM     10  O   UNL d   1      48.445  23.969  18.512 -0.02 -0.47    -0.577 OA
DOCKED: ATOM     11  O   UNL d   1      48.287  25.864  16.832 -0.08 -0.42    -0.577 OA
DOCKED: ATOM     12  O   UNL d   1      46.690  23.882  16.679 -0.31 -1.09    -0.638 OA
DOCKED: ENDBRANCH   8   9
DOCKED: ENDBRANCH   7   8
DOCKED: ENDBRANCH   1   7
DOCKED: BRANCH   1  13
DOCKED: ATOM     13  C   UNL d   1      46.309  28.405  20.819 -0.12 +0.09    +0.073 C 
DOCKED: ATOM     14  O   UNL d   1      45.558  29.296  20.287 -0.12 -0.54    -0.547 OA
DOCKED: ATOM     15  O   UNL d   1      47.367  28.660  21.500 -0.58 -0.82    -0.547 OA
DOCKED: ENDBRANCH   1  13
DOCKED: TORSDOF 6
DOCKED: TER
DOCKED: ENDMDL
________________________________________________________________________________


	BEGINNING GENETIC ALGORITHM DOCKING 84 of 100
Run: 84 Seed: 1324809921 495062854 [ Run 84 of 100 GA/GALS ]
Beginning LAMARCKIAN GENETIC ALGORITHM (LGA), with a maximum of 25000000 energy evaluations.

Final-Value: -6.795


	FINAL GENETIC ALGORITHM DOCKED STATE
	_______________________________________________


Detailed state:  trans 45.611 25.333 20.016 quatxyzw 0.021563 -0.476460 0.624357 0.618627 center 0.015 0.083 0.031 ntor 6 95.6024 -71.9732 -145.6387 4.1105 12.1894 -19.0202
State:	 45.611  25.333  20.016   0.027 -0.606  0.795 103.568     95.60  -71.97 -145.64    4.11   12.19  -19.02

DOCKED: MODEL       84
DOCKED: USER    Run = 84
DOCKED: USER    DPF = D:/Protein_go_brrr/autodock/final/2DN3/2_3_BPG/dock.dpf
DOCKED: USER  
DOCKED: USER    Estimated Free Energy of Binding    =   -7.09 kcal/mol  [=(1)+(2)+(3)-(4)]
DOCKED: USER    Estimated Inhibition Constant, Ki   =    6.33 uM (micromolar)  [Temperature = 298.15 K]
DOCKED: USER    
DOCKED: USER    (1) Final Intermolecular Energy     =   -8.88 kcal/mol
DOCKED: USER        vdW + Hbond + desolv Energy     =   -2.91 kcal/mol
DOCKED: USER        Electrostatic Energy            =   -5.97 kcal/mol
DOCKED: USER    (2) Final Total Internal Energy     =   +2.09 kcal/mol
DOCKED: USER    (3) Torsional Free Energy           =   +1.79 kcal/mol
DOCKED: USER    (4) Unbound System's Energy  [=(2)] =   +2.09 kcal/mol
DOCKED: USER    
DOCKED: USER    
DOCKED: USER    NEWDPF move 2_3_BPG_opt.pdbqt
DOCKED: USER    NEWDPF about 0.015000 0.083000 0.031000
DOCKED: USER    NEWDPF tran0 45.611063 25.333222 20.015682
DOCKED: USER    NEWDPF quaternion0 0.021563 -0.476460 0.624357 0.618627
DOCKED: USER    NEWDPF axisangle0 0.027445 -0.606427 0.794666 103.568173
DOCKED: USER    NEWDPF quat0 0.027445 -0.606427 0.794666 103.568173
DOCKED: USER    NEWDPF dihe0 95.60 -71.97 -145.64 4.11 12.19 -19.02 
DOCKED: USER  keepresnum = 1 
DOCKED: USER  
DOCKED: REMARK  6 active torsions:
DOCKED: REMARK  status: ('A' for Active; 'I' for Inactive)
DOCKED: REMARK    1  A    between atoms: P_1  and  O_3 
DOCKED: REMARK    2  A    between atoms: P_2  and  O_4 
DOCKED: REMARK    3  A    between atoms: O_3  and  C_13 
DOCKED: REMARK    4  A    between atoms: O_4  and  C_14 
DOCKED: REMARK    5  A    between atoms: C_13  and  C_14 
DOCKED: REMARK    6  A    between atoms: C_13  and  C_15 
DOCKED: USER                              x       y       z     vdW  Elec       q    Type
DOCKED: USER                           _______ _______ _______ _____ _____    ______ ____
DOCKED: ROOT
DOCKED: ATOM      1  C   UNL d   1      45.571  25.677  20.590 -0.13 +0.13    +0.193 C 
DOCKED: ENDROOT
DOCKED: BRANCH   1   2
DOCKED: ATOM      2  O   UNL d   1      46.020  27.050  20.334 -0.06 -0.30    -0.356 OA
DOCKED: BRANCH   2   3
DOCKED: ATOM      3  P   UNL d   1      47.169  27.806  21.235 +0.04 -0.02    -0.014 P 
DOCKED: ATOM      4  O   UNL d   1      48.428  27.776  20.353 +0.01 -0.36    -0.577 OA
DOCKED: ATOM      5  O   UNL d   1      47.357  26.987  22.510 -0.05 -0.79    -0.577 OA
DOCKED: ATOM      6  O   UNL d   1      46.701  29.234  21.493 -0.47 -1.28    -0.638 OA
DOCKED: ENDBRANCH   2   3
DOCKED: ENDBRANCH   1   2
DOCKED: BRANCH   1   7
DOCKED: ATOM      7  C   UNL d   1      45.381  24.942  19.212 -0.13 +0.12    +0.201 C 
DOCKED: BRANCH   7   8
DOCKED: ATOM      8  O   UNL d   1      45.809  23.563  19.168 -0.12 -0.23    -0.364 OA
DOCKED: BRANCH   8   9
DOCKED: ATOM      9  P   UNL d   1      46.015  22.805  17.712 -0.23 -0.02    -0.015 P 
DOCKED: ATOM     10  O   UNL d   1      46.585  23.880  16.779 -0.41 -0.91    -0.577 OA
DOCKED: ATOM     11  O   UNL d   1      44.636  22.328  17.259 -0.05 -0.43    -0.577 OA
DOCKED: ATOM     12  O   UNL d   1      47.001  21.659  17.936 +0.02 -0.91    -0.638 OA
DOCKED: ENDBRANCH   8   9
DOCKED: ENDBRANCH   7   8
DOCKED: ENDBRANCH   1   7
DOCKED: BRANCH   1  13
DOCKED: ATOM     13  C   UNL d   1      44.191  25.692  21.347 -0.31 +0.05    +0.073 C 
DOCKED: ATOM     14  O   UNL d   1      43.372  24.727  21.147 -0.38 -0.30    -0.547 OA
DOCKED: ATOM     15  O   UNL d   1      43.993  26.651  22.178 -0.62 -0.72    -0.547 OA
DOCKED: ENDBRANCH   1  13
DOCKED: TORSDOF 6
DOCKED: TER
DOCKED: ENDMDL
________________________________________________________________________________


	BEGINNING GENETIC ALGORITHM DOCKING 85 of 100
Run: 85 Seed: 1683667444 8996624 [ Run 85 of 100 GA/GALS ]
Beginning LAMARCKIAN GENETIC ALGORITHM (LGA), with a maximum of 25000000 energy evaluations.

Final-Value: -6.887


	FINAL GENETIC ALGORITHM DOCKED STATE
	_______________________________________________


Detailed state:  trans 45.982 26.473 20.060 quatxyzw 0.780280 0.054976 -0.616654 -0.088764 center 0.015 0.083 0.031 ntor 6 153.9475 55.6031 -112.1021 -10.1649 -9.8128 -70.8116
State:	 45.982  26.473  20.060   0.783  0.055 -0.619 -169.815    153.95   55.60 -112.10  -10.16   -9.81  -70.81

DOCKED: MODEL       85
DOCKED: USER    Run = 85
DOCKED: USER    DPF = D:/Protein_go_brrr/autodock/final/2DN3/2_3_BPG/dock.dpf
DOCKED: USER  
DOCKED: USER    Estimated Free Energy of Binding    =   -7.12 kcal/mol  [=(1)+(2)+(3)-(4)]
DOCKED: USER    Estimated Inhibition Constant, Ki   =    6.06 uM (micromolar)  [Temperature = 298.15 K]
DOCKED: USER    
DOCKED: USER    (1) Final Intermolecular Energy     =   -8.91 kcal/mol
DOCKED: USER        vdW + Hbond + desolv Energy     =   -2.67 kcal/mol
DOCKED: USER        Electrostatic Energy            =   -6.23 kcal/mol
DOCKED: USER    (2) Final Total Internal Energy     =   +2.02 kcal/mol
DOCKED: USER    (3) Torsional Free Energy           =   +1.79 kcal/mol
DOCKED: USER    (4) Unbound System's Energy  [=(2)] =   +2.02 kcal/mol
DOCKED: USER    
DOCKED: USER    
DOCKED: USER    NEWDPF move 2_3_BPG_opt.pdbqt
DOCKED: USER    NEWDPF about 0.015000 0.083000 0.031000
DOCKED: USER    NEWDPF tran0 45.981566 26.473107 20.059945
DOCKED: USER    NEWDPF quaternion0 0.780280 0.054976 -0.616654 -0.088764
DOCKED: USER    NEWDPF axisangle0 0.783372 0.055193 -0.619098 -169.814974
DOCKED: USER    NEWDPF quat0 0.783372 0.055193 -0.619098 -169.814974
DOCKED: USER    NEWDPF dihe0 153.95 55.60 -112.10 -10.16 -9.81 -70.81 
DOCKED: USER  keepresnum = 1 
DOCKED: USER  
DOCKED: REMARK  6 active torsions:
DOCKED: REMARK  status: ('A' for Active; 'I' for Inactive)
DOCKED: REMARK    1  A    between atoms: P_1  and  O_3 
DOCKED: REMARK    2  A    between atoms: P_2  and  O_4 
DOCKED: REMARK    3  A    between atoms: O_3  and  C_13 
DOCKED: REMARK    4  A    between atoms: O_4  and  C_14 
DOCKED: REMARK    5  A    between atoms: C_13  and  C_14 
DOCKED: REMARK    6  A    between atoms: C_13  and  C_15 
DOCKED: USER                              x       y       z     vdW  Elec       q    Type
DOCKED: USER                           _______ _______ _______ _____ _____    ______ ____
DOCKED: ROOT
DOCKED: ATOM      1  C   UNL d   1      45.695  26.773  20.587 -0.14 +0.17    +0.193 C 
DOCKED: ENDROOT
DOCKED: BRANCH   1   2
DOCKED: ATOM      2  O   UNL d   1      46.218  26.150  21.808 -0.06 -0.37    -0.356 OA
DOCKED: BRANCH   2   3
DOCKED: ATOM      3  P   UNL d   1      45.301  25.872  23.144 -0.22 -0.02    -0.014 P 
DOCKED: ATOM      4  O   UNL d   1      46.107  26.492  24.297 +0.13 -1.03    -0.577 OA
DOCKED: ATOM      5  O   UNL d   1      45.173  24.358  23.298 -0.03 -0.35    -0.577 OA
DOCKED: ATOM      6  O   UNL d   1      43.963  26.580  22.952 -0.72 -0.98    -0.638 OA
DOCKED: ENDBRANCH   2   3
DOCKED: ENDBRANCH   1   2
DOCKED: BRANCH   1   7
DOCKED: ATOM      7  C   UNL d   1      46.560  26.292  19.364 -0.07 +0.12    +0.201 C 
DOCKED: BRANCH   7   8
DOCKED: ATOM      8  O   UNL d   1      46.122  25.074  18.722 -0.05 -0.23    -0.364 OA
DOCKED: BRANCH   8   9
DOCKED: ATOM      9  P   UNL d   1      46.850  24.563  17.327 -0.30 -0.02    -0.015 P 
DOCKED: ATOM     10  O   UNL d   1      48.253  24.114  17.752 -0.02 -0.62    -0.577 OA
DOCKED: ATOM     11  O   UNL d   1      46.897  25.763  16.382 -0.09 -0.44    -0.577 OA
DOCKED: ATOM     12  O   UNL d   1      46.017  23.404  16.782 -0.43 -1.00    -0.638 OA
DOCKED: ENDBRANCH   8   9
DOCKED: ENDBRANCH   7   8
DOCKED: ENDBRANCH   1   7
DOCKED: BRANCH   1  13
DOCKED: ATOM     13  C   UNL d   1      45.800  28.340  20.693 -0.15 +0.09    +0.073 C 
DOCKED: ATOM     14  O   UNL d   1      44.961  29.055  20.039 -0.07 -0.46    -0.547 OA
DOCKED: ATOM     15  O   UNL d   1      46.691  28.812  21.488 -0.45 -1.10    -0.547 OA
DOCKED: ENDBRANCH   1  13
DOCKED: TORSDOF 6
DOCKED: TER
DOCKED: ENDMDL
________________________________________________________________________________


	BEGINNING GENETIC ALGORITHM DOCKING 86 of 100
Run: 86 Seed: 512582539 1939143426 [ Run 86 of 100 GA/GALS ]
Beginning LAMARCKIAN GENETIC ALGORITHM (LGA), with a maximum of 25000000 energy evaluations.

Final-Value: -7.023


	FINAL GENETIC ALGORITHM DOCKED STATE
	_______________________________________________


Detailed state:  trans 45.902 26.725 19.686 quatxyzw -0.809561 0.007154 0.586947 0.007318 center 0.015 0.083 0.031 ntor 6 139.5675 2.2699 -111.4946 17.8366 -9.2343 -88.1568
State:	 45.902  26.725  19.686  -0.810  0.007  0.587 179.161    139.57    2.27 -111.49   17.84   -9.23  -88.16

DOCKED: MODEL       86
DOCKED: USER    Run = 86
DOCKED: USER    DPF = D:/Protein_go_brrr/autodock/final/2DN3/2_3_BPG/dock.dpf
DOCKED: USER  
DOCKED: USER    Estimated Free Energy of Binding    =   -7.28 kcal/mol  [=(1)+(2)+(3)-(4)]
DOCKED: USER    Estimated Inhibition Constant, Ki   =    4.63 uM (micromolar)  [Temperature = 298.15 K]
DOCKED: USER    
DOCKED: USER    (1) Final Intermolecular Energy     =   -9.07 kcal/mol
DOCKED: USER        vdW + Hbond + desolv Energy     =   -3.41 kcal/mol
DOCKED: USER        Electrostatic Energy            =   -5.66 kcal/mol
DOCKED: USER    (2) Final Total Internal Energy     =   +2.04 kcal/mol
DOCKED: USER    (3) Torsional Free Energy           =   +1.79 kcal/mol
DOCKED: USER    (4) Unbound System's Energy  [=(2)] =   +2.04 kcal/mol
DOCKED: USER    
DOCKED: USER    
DOCKED: USER    NEWDPF move 2_3_BPG_opt.pdbqt
DOCKED: USER    NEWDPF about 0.015000 0.083000 0.031000
DOCKED: USER    NEWDPF tran0 45.901874 26.725349 19.686132
DOCKED: USER    NEWDPF quaternion0 -0.809561 0.007154 0.586947 0.007318
DOCKED: USER    NEWDPF axisangle0 -0.809582 0.007155 0.586963 179.161415
DOCKED: USER    NEWDPF quat0 -0.809582 0.007155 0.586963 179.161415
DOCKED: USER    NEWDPF dihe0 139.57 2.27 -111.49 17.84 -9.23 -88.16 
DOCKED: USER  keepresnum = 1 
DOCKED: USER  
DOCKED: REMARK  6 active torsions:
DOCKED: REMARK  status: ('A' for Active; 'I' for Inactive)
DOCKED: REMARK    1  A    between atoms: P_1  and  O_3 
DOCKED: REMARK    2  A    between atoms: P_2  and  O_4 
DOCKED: REMARK    3  A    between atoms: O_3  and  C_13 
DOCKED: REMARK    4  A    between atoms: O_4  and  C_14 
DOCKED: REMARK    5  A    between atoms: C_13  and  C_14 
DOCKED: REMARK    6  A    between atoms: C_13  and  C_15 
DOCKED: USER                              x       y       z     vdW  Elec       q    Type
DOCKED: USER                           _______ _______ _______ _____ _____    ______ ____
DOCKED: ROOT
DOCKED: ATOM      1  C   UNL d   1      45.632  27.049  20.208 -0.14 +0.16    +0.193 C 
DOCKED: ENDROOT
DOCKED: BRANCH   1   2
DOCKED: ATOM      2  O   UNL d   1      45.915  26.274  21.422 -0.08 -0.36    -0.356 OA
DOCKED: BRANCH   2   3
DOCKED: ATOM      3  P   UNL d   1      44.745  25.551  22.323 -0.35 -0.01    -0.014 P 
DOCKED: ATOM      4  O   UNL d   1      45.514  24.835  23.445 -0.01 -0.43    -0.577 OA
DOCKED: ATOM      5  O   UNL d   1      44.022  24.559  21.415 -0.56 -0.36    -0.577 OA
DOCKED: ATOM      6  O   UNL d   1      43.835  26.642  22.878 -0.66 -0.99    -0.638 OA
DOCKED: ENDBRANCH   2   3
DOCKED: ENDBRANCH   1   2
DOCKED: BRANCH   1   7
DOCKED: ATOM      7  C   UNL d   1      46.495  26.469  19.027 -0.09 +0.12    +0.201 C 
DOCKED: BRANCH   7   8
DOCKED: ATOM      8  O   UNL d   1      46.091  25.175  18.527 -0.05 -0.23    -0.364 OA
DOCKED: BRANCH   8   9
DOCKED: ATOM      9  P   UNL d   1      46.826  24.536  17.190 -0.27 -0.02    -0.015 P 
DOCKED: ATOM     10  O   UNL d   1      48.241  24.166  17.651 -0.02 -0.64    -0.577 OA
DOCKED: ATOM     11  O   UNL d   1      46.842  25.631  16.123 -0.10 -0.48    -0.577 OA
DOCKED: ATOM     12  O   UNL d   1      46.018  23.307  16.775 -0.42 -1.04    -0.638 OA
DOCKED: ENDBRANCH   8   9
DOCKED: ENDBRANCH   7   8
DOCKED: ENDBRANCH   1   7
DOCKED: BRANCH   1  13
DOCKED: ATOM     13  C   UNL d   1      46.026  28.557  20.426 -0.16 +0.08    +0.073 C 
DOCKED: ATOM     14  O   UNL d   1      45.616  29.425  19.578 -0.05 -0.37    -0.547 OA
DOCKED: ATOM     15  O   UNL d   1      46.688  28.838  21.490 -0.46 -1.10    -0.547 OA
DOCKED: ENDBRANCH   1  13
DOCKED: TORSDOF 6
DOCKED: TER
DOCKED: ENDMDL
________________________________________________________________________________


	BEGINNING GENETIC ALGORITHM DOCKING 87 of 100
Run: 87 Seed: 779244170 499716874 [ Run 87 of 100 GA/GALS ]
Beginning LAMARCKIAN GENETIC ALGORITHM (LGA), with a maximum of 25000000 energy evaluations.

Final-Value: -6.510


	FINAL GENETIC ALGORITHM DOCKED STATE
	_______________________________________________


Detailed state:  trans 46.133 25.637 20.260 quatxyzw -0.164376 -0.541954 0.544389 0.618795 center 0.015 0.083 0.031 ntor 6 122.5914 3.7625 -99.7474 16.8154 -37.2748 -34.7843
State:	 46.133  25.637  20.260  -0.209 -0.690  0.693 103.544    122.59    3.76  -99.75   16.82  -37.27  -34.78

DOCKED: MODEL       87
DOCKED: USER    Run = 87
DOCKED: USER    DPF = D:/Protein_go_brrr/autodock/final/2DN3/2_3_BPG/dock.dpf
DOCKED: USER  
DOCKED: USER    Estimated Free Energy of Binding    =   -6.75 kcal/mol  [=(1)+(2)+(3)-(4)]
DOCKED: USER    Estimated Inhibition Constant, Ki   =   11.34 uM (micromolar)  [Temperature = 298.15 K]
DOCKED: USER    
DOCKED: USER    (1) Final Intermolecular Energy     =   -8.54 kcal/mol
DOCKED: USER        vdW + Hbond + desolv Energy     =   -2.78 kcal/mol
DOCKED: USER        Electrostatic Energy            =   -5.75 kcal/mol
DOCKED: USER    (2) Final Total Internal Energy     =   +2.03 kcal/mol
DOCKED: USER    (3) Torsional Free Energy           =   +1.79 kcal/mol
DOCKED: USER    (4) Unbound System's Energy  [=(2)] =   +2.03 kcal/mol
DOCKED: USER    
DOCKED: USER    
DOCKED: USER    NEWDPF move 2_3_BPG_opt.pdbqt
DOCKED: USER    NEWDPF about 0.015000 0.083000 0.031000
DOCKED: USER    NEWDPF tran0 46.133226 25.636500 20.260133
DOCKED: USER    NEWDPF quaternion0 -0.164376 -0.541954 0.544389 0.618795
DOCKED: USER    NEWDPF axisangle0 -0.209248 -0.689901 0.693002 103.543661
DOCKED: USER    NEWDPF quat0 -0.209248 -0.689901 0.693002 103.543661
DOCKED: USER    NEWDPF dihe0 122.59 3.76 -99.75 16.82 -37.27 -34.78 
DOCKED: USER  keepresnum = 1 
DOCKED: USER  
DOCKED: REMARK  6 active torsions:
DOCKED: REMARK  status: ('A' for Active; 'I' for Inactive)
DOCKED: REMARK    1  A    between atoms: P_1  and  O_3 
DOCKED: REMARK    2  A    between atoms: P_2  and  O_4 
DOCKED: REMARK    3  A    between atoms: O_3  and  C_13 
DOCKED: REMARK    4  A    between atoms: O_4  and  C_14 
DOCKED: REMARK    5  A    between atoms: C_13  and  C_14 
DOCKED: REMARK    6  A    between atoms: C_13  and  C_15 
DOCKED: USER                              x       y       z     vdW  Elec       q    Type
DOCKED: USER                           _______ _______ _______ _____ _____    ______ ____
DOCKED: ROOT
DOCKED: ATOM      1  C   UNL d   1      46.019  25.743  20.912 -0.10 +0.14    +0.193 C 
DOCKED: ENDROOT
DOCKED: BRANCH   1   2
DOCKED: ATOM      2  O   UNL d   1      46.572  27.055  21.265 -0.11 -0.41    -0.356 OA
DOCKED: BRANCH   2   3
DOCKED: ATOM      3  P   UNL d   1      47.817  27.256  22.319 +0.01 -0.02    -0.014 P 
DOCKED: ATOM      4  O   UNL d   1      48.043  28.776  22.361 -0.40 -0.85    -0.577 OA
DOCKED: ATOM      5  O   UNL d   1      49.025  26.525  21.737 +0.02 -0.34    -0.577 OA
DOCKED: ATOM      6  O   UNL d   1      47.377  26.718  23.677 +0.01 -0.90    -0.638 OA
DOCKED: ENDBRANCH   2   3
DOCKED: ENDBRANCH   1   2
DOCKED: BRANCH   1   7
DOCKED: ATOM      7  C   UNL d   1      46.015  25.601  19.345 -0.09 +0.12    +0.201 C 
DOCKED: BRANCH   7   8
DOCKED: ATOM      8  O   UNL d   1      46.701  24.445  18.815 -0.04 -0.25    -0.364 OA
DOCKED: BRANCH   8   9
DOCKED: ATOM      9  P   UNL d   1      46.136  23.699  17.451 -0.26 -0.02    -0.015 P 
DOCKED: ATOM     10  O   UNL d   1      46.693  24.525  16.285 -0.32 -0.78    -0.577 OA
DOCKED: ATOM     11  O   UNL d   1      44.610  23.754  17.512 -0.03 -0.37    -0.577 OA
DOCKED: ATOM     12  O   UNL d   1      46.684  22.273  17.458 -0.01 -1.11    -0.638 OA
DOCKED: ENDBRANCH   8   9
DOCKED: ENDBRANCH   7   8
DOCKED: ENDBRANCH   1   7
DOCKED: BRANCH   1  13
DOCKED: ATOM     13  C   UNL d   1      44.538  25.623  21.432 -0.29 +0.06    +0.073 C 
DOCKED: ATOM     14  O   UNL d   1      43.873  24.566  21.148 -0.58 -0.33    -0.547 OA
DOCKED: ATOM     15  O   UNL d   1      44.102  26.577  22.172 -0.59 -0.71    -0.547 OA
DOCKED: ENDBRANCH   1  13
DOCKED: TORSDOF 6
DOCKED: TER
DOCKED: ENDMDL
________________________________________________________________________________


	BEGINNING GENETIC ALGORITHM DOCKING 88 of 100
Run: 88 Seed: 47447733 419803183 [ Run 88 of 100 GA/GALS ]
Beginning LAMARCKIAN GENETIC ALGORITHM (LGA), with a maximum of 25000000 energy evaluations.

Final-Value: -6.239


	FINAL GENETIC ALGORITHM DOCKED STATE
	_______________________________________________


Detailed state:  trans 2.301 43.148 -1.595 quatxyzw 0.197413 -0.934913 0.256106 -0.146206 center 0.015 0.083 0.031 ntor 6 -34.6713 -88.3590 -119.3503 59.9350 -26.9043 9.7695
State:	  2.301  43.148  -1.595   0.200 -0.945  0.259 -163.186    -34.67  -88.36 -119.35   59.93  -26.90    9.77

DOCKED: MODEL       88
DOCKED: USER    Run = 88
DOCKED: USER    DPF = D:/Protein_go_brrr/autodock/final/2DN3/2_3_BPG/dock.dpf
DOCKED: USER  
DOCKED: USER    Estimated Free Energy of Binding    =   -6.44 kcal/mol  [=(1)+(2)+(3)-(4)]
DOCKED: USER    Estimated Inhibition Constant, Ki   =   19.04 uM (micromolar)  [Temperature = 298.15 K]
DOCKED: USER    
DOCKED: USER    (1) Final Intermolecular Energy     =   -8.23 kcal/mol
DOCKED: USER        vdW + Hbond + desolv Energy     =   -3.11 kcal/mol
DOCKED: USER        Electrostatic Energy            =   -5.12 kcal/mol
DOCKED: USER    (2) Final Total Internal Energy     =   +1.99 kcal/mol
DOCKED: USER    (3) Torsional Free Energy           =   +1.79 kcal/mol
DOCKED: USER    (4) Unbound System's Energy  [=(2)] =   +1.99 kcal/mol
DOCKED: USER    
DOCKED: USER    
DOCKED: USER    NEWDPF move 2_3_BPG_opt.pdbqt
DOCKED: USER    NEWDPF about 0.015000 0.083000 0.031000
DOCKED: USER    NEWDPF tran0 2.300559 43.147565 -1.594805
DOCKED: USER    NEWDPF quaternion0 0.197413 -0.934913 0.256106 -0.146206
DOCKED: USER    NEWDPF axisangle0 0.199557 -0.945068 0.258888 -163.185813
DOCKED: USER    NEWDPF quat0 0.199557 -0.945068 0.258888 -163.185813
DOCKED: USER    NEWDPF dihe0 -34.67 -88.36 -119.35 59.93 -26.90 9.77 
DOCKED: USER  keepresnum = 1 
DOCKED: USER  
DOCKED: REMARK  6 active torsions:
DOCKED: REMARK  status: ('A' for Active; 'I' for Inactive)
DOCKED: REMARK    1  A    between atoms: P_1  and  O_3 
DOCKED: REMARK    2  A    between atoms: P_2  and  O_4 
DOCKED: REMARK    3  A    between atoms: O_3  and  C_13 
DOCKED: REMARK    4  A    between atoms: O_4  and  C_14 
DOCKED: REMARK    5  A    between atoms: C_13  and  C_14 
DOCKED: REMARK    6  A    between atoms: C_13  and  C_15 
DOCKED: USER                              x       y       z     vdW  Elec       q    Type
DOCKED: USER                           _______ _______ _______ _____ _____    ______ ____
DOCKED: ROOT
DOCKED: ATOM      1  C   UNL d   1       2.938  43.023  -1.760 -0.17 +0.12    +0.193 C 
DOCKED: ENDROOT
DOCKED: BRANCH   1   2
DOCKED: ATOM      2  O   UNL d   1       3.618  44.308  -1.958 -0.17 -0.20    -0.356 OA
DOCKED: BRANCH   2   3
DOCKED: ATOM      3  P   UNL d   1       3.352  45.279  -3.258 -0.30 -0.01    -0.014 P 
DOCKED: ATOM      4  O   UNL d   1       2.159  46.155  -2.845 -0.03 -0.51    -0.577 OA
DOCKED: ATOM      5  O   UNL d   1       3.002  44.372  -4.436 +0.00 -0.29    -0.577 OA
DOCKED: ATOM      6  O   UNL d   1       4.607  46.115  -3.487 -0.34 -0.83    -0.638 OA
DOCKED: ENDBRANCH   2   3
DOCKED: ENDBRANCH   1   2
DOCKED: BRANCH   1   7
DOCKED: ATOM      7  C   UNL d   1       1.538  43.290  -1.095 -0.10 +0.14    +0.201 C 
DOCKED: BRANCH   7   8
DOCKED: ATOM      8  O   UNL d   1       0.636  42.162  -1.049 -0.09 -0.40    -0.364 OA
DOCKED: BRANCH   8   9
DOCKED: ATOM      9  P   UNL d   1      -0.565  42.105   0.087 -0.03 -0.02    -0.015 P 
DOCKED: ATOM     10  O   UNL d   1      -1.466  43.306  -0.226 +0.01 -0.31    -0.577 OA
DOCKED: ATOM     11  O   UNL d   1       0.107  42.237   1.454 -0.10 -0.63    -0.577 OA
DOCKED: ATOM     12  O   UNL d   1      -1.295  40.776  -0.095 -0.38 -1.24    -0.638 OA
DOCKED: ENDBRANCH   8   9
DOCKED: ENDBRANCH   7   8
DOCKED: ENDBRANCH   1   7
DOCKED: BRANCH   1  13
DOCKED: ATOM     13  C   UNL d   1       3.786  42.107  -0.800 -0.37 +0.05    +0.073 C 
DOCKED: ATOM     14  O   UNL d   1       4.671  42.656  -0.054 -0.15 -0.28    -0.547 OA
DOCKED: ATOM     15  O   UNL d   1       3.491  40.858  -0.777 -0.88 -0.70    -0.547 OA
DOCKED: ENDBRANCH   1  13
DOCKED: TORSDOF 6
DOCKED: TER
DOCKED: ENDMDL
________________________________________________________________________________


	BEGINNING GENETIC ALGORITHM DOCKING 89 of 100
Run: 89 Seed: 791976411 924292462 [ Run 89 of 100 GA/GALS ]
Beginning LAMARCKIAN GENETIC ALGORITHM (LGA), with a maximum of 25000000 energy evaluations.

Final-Value: -6.694


	FINAL GENETIC ALGORITHM DOCKED STATE
	_______________________________________________


Detailed state:  trans 46.309 25.900 20.438 quatxyzw -0.143830 -0.524261 0.520689 0.658290 center 0.015 0.083 0.031 ntor 6 125.1562 -0.4144 -71.2003 36.5225 27.4163 4.8307
State:	 46.309  25.900  20.438  -0.191 -0.696  0.692 97.661    125.16   -0.41  -71.20   36.52   27.42    4.83

DOCKED: MODEL       89
DOCKED: USER    Run = 89
DOCKED: USER    DPF = D:/Protein_go_brrr/autodock/final/2DN3/2_3_BPG/dock.dpf
DOCKED: USER  
DOCKED: USER    Estimated Free Energy of Binding    =   -6.95 kcal/mol  [=(1)+(2)+(3)-(4)]
DOCKED: USER    Estimated Inhibition Constant, Ki   =    8.04 uM (micromolar)  [Temperature = 298.15 K]
DOCKED: USER    
DOCKED: USER    (1) Final Intermolecular Energy     =   -8.74 kcal/mol
DOCKED: USER        vdW + Hbond + desolv Energy     =   -3.06 kcal/mol
DOCKED: USER        Electrostatic Energy            =   -5.68 kcal/mol
DOCKED: USER    (2) Final Total Internal Energy     =   +2.05 kcal/mol
DOCKED: USER    (3) Torsional Free Energy           =   +1.79 kcal/mol
DOCKED: USER    (4) Unbound System's Energy  [=(2)] =   +2.05 kcal/mol
DOCKED: USER    
DOCKED: USER    
DOCKED: USER    NEWDPF move 2_3_BPG_opt.pdbqt
DOCKED: USER    NEWDPF about 0.015000 0.083000 0.031000
DOCKED: USER    NEWDPF tran0 46.309424 25.899933 20.437886
DOCKED: USER    NEWDPF quaternion0 -0.143830 -0.524261 0.520689 0.658290
DOCKED: USER    NEWDPF axisangle0 -0.191069 -0.696448 0.691702 97.660759
DOCKED: USER    NEWDPF quat0 -0.191069 -0.696448 0.691702 97.660759
DOCKED: USER    NEWDPF dihe0 125.16 -0.41 -71.20 36.52 27.42 4.83 
DOCKED: USER  keepresnum = 1 
DOCKED: USER  
DOCKED: REMARK  6 active torsions:
DOCKED: REMARK  status: ('A' for Active; 'I' for Inactive)
DOCKED: REMARK    1  A    between atoms: P_1  and  O_3 
DOCKED: REMARK    2  A    between atoms: P_2  and  O_4 
DOCKED: REMARK    3  A    between atoms: O_3  and  C_13 
DOCKED: REMARK    4  A    between atoms: O_4  and  C_14 
DOCKED: REMARK    5  A    between atoms: C_13  and  C_14 
DOCKED: REMARK    6  A    between atoms: C_13  and  C_15 
DOCKED: USER                              x       y       z     vdW  Elec       q    Type
DOCKED: USER                           _______ _______ _______ _____ _____    ______ ____
DOCKED: ROOT
DOCKED: ATOM      1  C   UNL d   1      46.153  26.015  21.079 -0.10 +0.16    +0.193 C 
DOCKED: ENDROOT
DOCKED: BRANCH   1   2
DOCKED: ATOM      2  O   UNL d   1      46.569  27.382  21.414 -0.19 -0.49    -0.356 OA
DOCKED: BRANCH   2   3
DOCKED: ATOM      3  P   UNL d   1      48.004  27.737  22.134 +0.01 -0.02    -0.014 P 
DOCKED: ATOM      4  O   UNL d   1      48.041  29.273  22.175 -0.50 -0.80    -0.577 OA
DOCKED: ATOM      5  O   UNL d   1      49.109  27.173  21.243 +0.01 -0.34    -0.577 OA
DOCKED: ATOM      6  O   UNL d   1      47.989  27.139  23.536 -0.01 -0.80    -0.638 OA
DOCKED: ENDBRANCH   2   3
DOCKED: ENDBRANCH   1   2
DOCKED: BRANCH   1   7
DOCKED: ATOM      7  C   UNL d   1      46.242  25.827  19.520 -0.07 +0.12    +0.201 C 
DOCKED: BRANCH   7   8
DOCKED: ATOM      8  O   UNL d   1      46.212  24.463  19.047 -0.05 -0.23    -0.364 OA
DOCKED: BRANCH   8   9
DOCKED: ATOM      9  P   UNL d   1      47.009  24.048  17.657 -0.22 -0.02    -0.015 P 
DOCKED: ATOM     10  O   UNL d   1      48.176  23.165  18.115 -0.02 -0.67    -0.577 OA
DOCKED: ATOM     11  O   UNL d   1      47.493  25.348  17.017 -0.11 -0.49    -0.577 OA
DOCKED: ATOM     12  O   UNL d   1      46.019  23.282  16.781 -0.42 -1.04    -0.638 OA
DOCKED: ENDBRANCH   8   9
DOCKED: ENDBRANCH   7   8
DOCKED: ENDBRANCH   1   7
DOCKED: BRANCH   1  13
DOCKED: ATOM     13  C   UNL d   1      44.663  25.779  21.531 -0.28 +0.06    +0.073 C 
DOCKED: ATOM     14  O   UNL d   1      44.126  24.640  21.295 -0.52 -0.34    -0.547 OA
DOCKED: ATOM     15  O   UNL d   1      44.091  26.733  22.172 -0.61 -0.77    -0.547 OA
DOCKED: ENDBRANCH   1  13
DOCKED: TORSDOF 6
DOCKED: TER
DOCKED: ENDMDL
________________________________________________________________________________


	BEGINNING GENETIC ALGORITHM DOCKING 90 of 100
Run: 90 Seed: 461775187 803003745 [ Run 90 of 100 GA/GALS ]
Beginning LAMARCKIAN GENETIC ALGORITHM (LGA), with a maximum of 25000000 energy evaluations.

Final-Value: -6.813


	FINAL GENETIC ALGORITHM DOCKED STATE
	_______________________________________________


Detailed state:  trans 45.911 25.442 19.996 quatxyzw 0.029268 -0.547354 0.582427 0.600272 center 0.015 0.083 0.031 ntor 6 109.5044 -87.2387 61.6178 -3.1934 32.4295 4.3985
State:	 45.911  25.442  19.996   0.037 -0.684  0.728 106.221    109.50  -87.24   61.62   -3.19   32.43    4.40

DOCKED: MODEL       90
DOCKED: USER    Run = 90
DOCKED: USER    DPF = D:/Protein_go_brrr/autodock/final/2DN3/2_3_BPG/dock.dpf
DOCKED: USER  
DOCKED: USER    Estimated Free Energy of Binding    =   -7.23 kcal/mol  [=(1)+(2)+(3)-(4)]
DOCKED: USER    Estimated Inhibition Constant, Ki   =    5.00 uM (micromolar)  [Temperature = 298.15 K]
DOCKED: USER    
DOCKED: USER    (1) Final Intermolecular Energy     =   -9.02 kcal/mol
DOCKED: USER        vdW + Hbond + desolv Energy     =   -3.08 kcal/mol
DOCKED: USER        Electrostatic Energy            =   -5.94 kcal/mol
DOCKED: USER    (2) Final Total Internal Energy     =   +2.21 kcal/mol
DOCKED: USER    (3) Torsional Free Energy           =   +1.79 kcal/mol
DOCKED: USER    (4) Unbound System's Energy  [=(2)] =   +2.21 kcal/mol
DOCKED: USER    
DOCKED: USER    
DOCKED: USER    NEWDPF move 2_3_BPG_opt.pdbqt
DOCKED: USER    NEWDPF about 0.015000 0.083000 0.031000
DOCKED: USER    NEWDPF tran0 45.910726 25.442072 19.995577
DOCKED: USER    NEWDPF quaternion0 0.029268 -0.547354 0.582427 0.600272
DOCKED: USER    NEWDPF axisangle0 0.036595 -0.684367 0.728219 106.221264
DOCKED: USER    NEWDPF quat0 0.036595 -0.684367 0.728219 106.221264
DOCKED: USER    NEWDPF dihe0 109.50 -87.24 61.62 -3.19 32.43 4.40 
DOCKED: USER  keepresnum = 1 
DOCKED: USER  
DOCKED: REMARK  6 active torsions:
DOCKED: REMARK  status: ('A' for Active; 'I' for Inactive)
DOCKED: REMARK    1  A    between atoms: P_1  and  O_3 
DOCKED: REMARK    2  A    between atoms: P_2  and  O_4 
DOCKED: REMARK    3  A    between atoms: O_3  and  C_13 
DOCKED: REMARK    4  A    between atoms: O_4  and  C_14 
DOCKED: REMARK    5  A    between atoms: C_13  and  C_14 
DOCKED: REMARK    6  A    between atoms: C_13  and  C_15 
DOCKED: USER                              x       y       z     vdW  Elec       q    Type
DOCKED: USER                           _______ _______ _______ _____ _____    ______ ____
DOCKED: ROOT
DOCKED: ATOM      1  C   UNL d   1      45.930  25.715  20.608 -0.10 +0.13    +0.193 C 
DOCKED: ENDROOT
DOCKED: BRANCH   1   2
DOCKED: ATOM      2  O   UNL d   1      46.309  27.125  20.468 -0.07 -0.31    -0.356 OA
DOCKED: BRANCH   2   3
DOCKED: ATOM      3  P   UNL d   1      47.417  27.862  21.435 -0.03 -0.02    -0.014 P 
DOCKED: ATOM      4  O   UNL d   1      48.761  27.620  20.731 +0.01 -0.35    -0.577 OA
DOCKED: ATOM      5  O   UNL d   1      47.363  27.169  22.795 -0.02 -0.92    -0.577 OA
DOCKED: ATOM      6  O   UNL d   1      47.075  29.347  21.496 -0.55 -1.08    -0.638 OA
DOCKED: ENDBRANCH   2   3
DOCKED: ENDBRANCH   1   2
DOCKED: BRANCH   1   7
DOCKED: ATOM      7  C   UNL d   1      45.598  25.138  19.182 -0.12 +0.12    +0.201 C 
DOCKED: BRANCH   7   8
DOCKED: ATOM      8  O   UNL d   1      45.558  23.698  19.078 -0.14 -0.23    -0.364 OA
DOCKED: BRANCH   8   9
DOCKED: ATOM      9  P   UNL d   1      46.087  22.950  17.701 -0.20 -0.02    -0.015 P 
DOCKED: ATOM     10  O   UNL d   1      44.847  22.258  17.121 -0.09 -0.51    -0.577 OA
DOCKED: ATOM     11  O   UNL d   1      47.157  21.944  18.122 -0.06 -0.74    -0.577 OA
DOCKED: ATOM     12  O   UNL d   1      46.622  24.040  16.773 -0.35 -0.95    -0.638 OA
DOCKED: ENDBRANCH   8   9
DOCKED: ENDBRANCH   7   8
DOCKED: ENDBRANCH   1   7
DOCKED: BRANCH   1  13
DOCKED: ATOM     13  C   UNL d   1      44.649  25.588  21.514 -0.28 +0.06    +0.073 C 
DOCKED: ATOM     14  O   UNL d   1      43.985  24.492  21.485 -0.54 -0.34    -0.547 OA
DOCKED: ATOM     15  O   UNL d   1      44.379  26.579  22.284 -0.55 -0.78    -0.547 OA
DOCKED: ENDBRANCH   1  13
DOCKED: TORSDOF 6
DOCKED: TER
DOCKED: ENDMDL
________________________________________________________________________________


	BEGINNING GENETIC ALGORITHM DOCKING 91 of 100
Run: 91 Seed: 364419411 59720530 [ Run 91 of 100 GA/GALS ]
Beginning LAMARCKIAN GENETIC ALGORITHM (LGA), with a maximum of 25000000 energy evaluations.

Final-Value: -6.921


	FINAL GENETIC ALGORITHM DOCKED STATE
	_______________________________________________


Detailed state:  trans 2.282 43.005 -1.680 quatxyzw -0.353144 0.152872 0.304713 -0.871246 center 0.015 0.083 0.031 ntor 6 177.8318 47.3901 -73.6640 -10.5374 16.6546 -37.4590
State:	  2.282  43.005  -1.680  -0.719  0.311  0.621 -58.793    177.83   47.39  -73.66  -10.54   16.65  -37.46

DOCKED: MODEL       91
DOCKED: USER    Run = 91
DOCKED: USER    DPF = D:/Protein_go_brrr/autodock/final/2DN3/2_3_BPG/dock.dpf
DOCKED: USER  
DOCKED: USER    Estimated Free Energy of Binding    =   -7.15 kcal/mol  [=(1)+(2)+(3)-(4)]
DOCKED: USER    Estimated Inhibition Constant, Ki   =    5.78 uM (micromolar)  [Temperature = 298.15 K]
DOCKED: USER    
DOCKED: USER    (1) Final Intermolecular Energy     =   -8.94 kcal/mol
DOCKED: USER        vdW + Hbond + desolv Energy     =   -3.47 kcal/mol
DOCKED: USER        Electrostatic Energy            =   -5.47 kcal/mol
DOCKED: USER    (2) Final Total Internal Energy     =   +2.01 kcal/mol
DOCKED: USER    (3) Torsional Free Energy           =   +1.79 kcal/mol
DOCKED: USER    (4) Unbound System's Energy  [=(2)] =   +2.01 kcal/mol
DOCKED: USER    
DOCKED: USER    
DOCKED: USER    NEWDPF move 2_3_BPG_opt.pdbqt
DOCKED: USER    NEWDPF about 0.015000 0.083000 0.031000
DOCKED: USER    NEWDPF tran0 2.282292 43.004739 -1.680130
DOCKED: USER    NEWDPF quaternion0 -0.353144 0.152872 0.304713 -0.871246
DOCKED: USER    NEWDPF axisangle0 -0.719459 0.311445 0.620791 -58.792529
DOCKED: USER    NEWDPF quat0 -0.719459 0.311445 0.620791 -58.792529
DOCKED: USER    NEWDPF dihe0 177.83 47.39 -73.66 -10.54 16.65 -37.46 
DOCKED: USER  keepresnum = 1 
DOCKED: USER  
DOCKED: REMARK  6 active torsions:
DOCKED: REMARK  status: ('A' for Active; 'I' for Inactive)
DOCKED: REMARK    1  A    between atoms: P_1  and  O_3 
DOCKED: REMARK    2  A    between atoms: P_2  and  O_4 
DOCKED: REMARK    3  A    between atoms: O_3  and  C_13 
DOCKED: REMARK    4  A    between atoms: O_4  and  C_14 
DOCKED: REMARK    5  A    between atoms: C_13  and  C_14 
DOCKED: REMARK    6  A    between atoms: C_13  and  C_15 
DOCKED: USER                              x       y       z     vdW  Elec       q    Type
DOCKED: USER                           _______ _______ _______ _____ _____    ______ ____
DOCKED: ROOT
DOCKED: ATOM      1  C   UNL d   1       2.037  42.647  -1.170 -0.14 +0.16    +0.193 C 
DOCKED: ENDROOT
DOCKED: BRANCH   1   2
DOCKED: ATOM      2  O   UNL d   1       0.688  42.198  -1.533 -0.05 -0.34    -0.356 OA
DOCKED: BRANCH   2   3
DOCKED: ATOM      3  P   UNL d   1      -0.553  42.105  -0.458 -0.05 -0.02    -0.014 P 
DOCKED: ATOM      4  O   UNL d   1      -1.235  40.765  -0.774 -0.45 -0.93    -0.577 OA
DOCKED: ATOM      5  O   UNL d   1      -1.481  43.286  -0.736 +0.01 -0.30    -0.577 OA
DOCKED: ATOM      6  O   UNL d   1       0.039  42.115   0.947 -0.18 -0.80    -0.638 OA
DOCKED: ENDBRANCH   2   3
DOCKED: ENDBRANCH   1   2
DOCKED: BRANCH   1   7
DOCKED: ATOM      7  C   UNL d   1       2.736  43.232  -2.451 -0.11 +0.11    +0.201 C 
DOCKED: BRANCH   7   8
DOCKED: ATOM      8  O   UNL d   1       3.184  44.602  -2.354 -0.14 -0.22    -0.364 OA
DOCKED: BRANCH   8   9
DOCKED: ATOM      9  P   UNL d   1       3.477  45.479  -3.726 -0.35 -0.01    -0.015 P 
DOCKED: ATOM     10  O   UNL d   1       2.334  46.498  -3.800 +0.01 -0.63    -0.577 OA
DOCKED: ATOM     11  O   UNL d   1       3.444  44.498  -4.897 -0.03 -0.29    -0.577 OA
DOCKED: ATOM     12  O   UNL d   1       4.837  46.153  -3.549 -0.42 -0.82    -0.638 OA
DOCKED: ENDBRANCH   8   9
DOCKED: ENDBRANCH   7   8
DOCKED: ENDBRANCH   1   7
DOCKED: BRANCH   1  13
DOCKED: ATOM     13  C   UNL d   1       2.886  41.431  -0.642 -0.26 +0.09    +0.073 C 
DOCKED: ATOM     14  O   UNL d   1       3.488  41.547   0.483 -0.69 -0.61    -0.547 OA
DOCKED: ATOM     15  O   UNL d   1       2.873  40.360  -1.351 -0.63 -0.85    -0.547 OA
DOCKED: ENDBRANCH   1  13
DOCKED: TORSDOF 6
DOCKED: TER
DOCKED: ENDMDL
________________________________________________________________________________


	BEGINNING GENETIC ALGORITHM DOCKING 92 of 100
Run: 92 Seed: 1756579938 1824571377 [ Run 92 of 100 GA/GALS ]
Beginning LAMARCKIAN GENETIC ALGORITHM (LGA), with a maximum of 25000000 energy evaluations.

Final-Value: -6.694


	FINAL GENETIC ALGORITHM DOCKED STATE
	_______________________________________________


Detailed state:  trans 46.038 26.687 20.274 quatxyzw 0.853903 -0.082372 -0.510387 -0.059750 center 0.015 0.083 0.031 ntor 6 169.3458 -19.3393 -123.2089 37.3712 -15.3612 -51.4905
State:	 46.038  26.687  20.274   0.855 -0.083 -0.511 -173.149    169.35  -19.34 -123.21   37.37  -15.36  -51.49

DOCKED: MODEL       92
DOCKED: USER    Run = 92
DOCKED: USER    DPF = D:/Protein_go_brrr/autodock/final/2DN3/2_3_BPG/dock.dpf
DOCKED: USER  
DOCKED: USER    Estimated Free Energy of Binding    =   -6.87 kcal/mol  [=(1)+(2)+(3)-(4)]
DOCKED: USER    Estimated Inhibition Constant, Ki   =    9.26 uM (micromolar)  [Temperature = 298.15 K]
DOCKED: USER    
DOCKED: USER    (1) Final Intermolecular Energy     =   -8.66 kcal/mol
DOCKED: USER        vdW + Hbond + desolv Energy     =   -3.52 kcal/mol
DOCKED: USER        Electrostatic Energy            =   -5.13 kcal/mol
DOCKED: USER    (2) Final Total Internal Energy     =   +1.96 kcal/mol
DOCKED: USER    (3) Torsional Free Energy           =   +1.79 kcal/mol
DOCKED: USER    (4) Unbound System's Energy  [=(2)] =   +1.96 kcal/mol
DOCKED: USER    
DOCKED: USER    
DOCKED: USER    NEWDPF move 2_3_BPG_opt.pdbqt
DOCKED: USER    NEWDPF about 0.015000 0.083000 0.031000
DOCKED: USER    NEWDPF tran0 46.037917 26.686986 20.273816
DOCKED: USER    NEWDPF quaternion0 0.853903 -0.082372 -0.510387 -0.059750
DOCKED: USER    NEWDPF axisangle0 0.855431 -0.082520 -0.511300 -173.149080
DOCKED: USER    NEWDPF quat0 0.855431 -0.082520 -0.511300 -173.149080
DOCKED: USER    NEWDPF dihe0 169.35 -19.34 -123.21 37.37 -15.36 -51.49 
DOCKED: USER  keepresnum = 1 
DOCKED: USER  
DOCKED: REMARK  6 active torsions:
DOCKED: REMARK  status: ('A' for Active; 'I' for Inactive)
DOCKED: REMARK    1  A    between atoms: P_1  and  O_3 
DOCKED: REMARK    2  A    between atoms: P_2  and  O_4 
DOCKED: REMARK    3  A    between atoms: O_3  and  C_13 
DOCKED: REMARK    4  A    between atoms: O_4  and  C_14 
DOCKED: REMARK    5  A    between atoms: C_13  and  C_14 
DOCKED: REMARK    6  A    between atoms: C_13  and  C_15 
DOCKED: USER                              x       y       z     vdW  Elec       q    Type
DOCKED: USER                           _______ _______ _______ _____ _____    ______ ____
DOCKED: ROOT
DOCKED: ATOM      1  C   UNL d   1      45.708  27.109  20.677 -0.14 +0.19    +0.193 C 
DOCKED: ENDROOT
DOCKED: BRANCH   1   2
DOCKED: ATOM      2  O   UNL d   1      45.723  26.551  22.034 -0.17 -0.50    -0.356 OA
DOCKED: BRANCH   2   3
DOCKED: ATOM      3  P   UNL d   1      44.501  25.637  22.647 -0.33 -0.01    -0.014 P 
DOCKED: ATOM      4  O   UNL d   1      45.162  24.813  23.763 -0.01 -0.42    -0.577 OA
DOCKED: ATOM      5  O   UNL d   1      43.991  24.745  21.517 -0.43 -0.36    -0.577 OA
DOCKED: ATOM      6  O   UNL d   1      43.439  26.581  23.202 -0.72 -0.84    -0.638 OA
DOCKED: ENDBRANCH   2   3
DOCKED: ENDBRANCH   1   2
DOCKED: BRANCH   1   7
DOCKED: ATOM      7  C   UNL d   1      46.714  26.293  19.784 -0.06 +0.13    +0.201 C 
DOCKED: BRANCH   7   8
DOCKED: ATOM      8  O   UNL d   1      46.118  25.418  18.801 -0.04 -0.22    -0.364 OA
DOCKED: BRANCH   8   9
DOCKED: ATOM      9  P   UNL d   1      47.053  24.747  17.612 -0.30 -0.01    -0.015 P 
DOCKED: ATOM     10  O   UNL d   1      48.125  23.941  18.355 -0.02 -0.52    -0.577 OA
DOCKED: ATOM     11  O   UNL d   1      47.658  25.903  16.815 -0.09 -0.42    -0.577 OA
DOCKED: ATOM     12  O   UNL d   1      46.141  23.853  16.772 -0.44 -0.88    -0.638 OA
DOCKED: ENDBRANCH   8   9
DOCKED: ENDBRANCH   7   8
DOCKED: ENDBRANCH   1   7
DOCKED: BRANCH   1  13
DOCKED: ATOM     13  C   UNL d   1      46.168  28.614  20.708 -0.12 +0.09    +0.073 C 
DOCKED: ATOM     14  O   UNL d   1      45.521  29.466  20.002 -0.08 -0.45    -0.547 OA
DOCKED: ATOM     15  O   UNL d   1      47.136  28.911  21.496 -0.56 -0.92    -0.547 OA
DOCKED: ENDBRANCH   1  13
DOCKED: TORSDOF 6
DOCKED: TER
DOCKED: ENDMDL
________________________________________________________________________________


	BEGINNING GENETIC ALGORITHM DOCKING 93 of 100
Run: 93 Seed: 1877132322 1468269126 [ Run 93 of 100 GA/GALS ]
Beginning LAMARCKIAN GENETIC ALGORITHM (LGA), with a maximum of 25000000 energy evaluations.

Final-Value: -6.847


	FINAL GENETIC ALGORITHM DOCKED STATE
	_______________________________________________


Detailed state:  trans 46.194 26.476 20.062 quatxyzw -0.845991 0.060131 0.529504 0.017575 center 0.015 0.083 0.031 ntor 6 166.5386 -5.7486 -120.8241 24.1190 -33.1175 -72.2481
State:	 46.194  26.476  20.062  -0.846  0.060  0.530 177.986    166.54   -5.75 -120.82   24.12  -33.12  -72.25

DOCKED: MODEL       93
DOCKED: USER    Run = 93
DOCKED: USER    DPF = D:/Protein_go_brrr/autodock/final/2DN3/2_3_BPG/dock.dpf
DOCKED: USER  
DOCKED: USER    Estimated Free Energy of Binding    =   -7.03 kcal/mol  [=(1)+(2)+(3)-(4)]
DOCKED: USER    Estimated Inhibition Constant, Ki   =    7.01 uM (micromolar)  [Temperature = 298.15 K]
DOCKED: USER    
DOCKED: USER    (1) Final Intermolecular Energy     =   -8.82 kcal/mol
DOCKED: USER        vdW + Hbond + desolv Energy     =   -3.55 kcal/mol
DOCKED: USER        Electrostatic Energy            =   -5.27 kcal/mol
DOCKED: USER    (2) Final Total Internal Energy     =   +1.97 kcal/mol
DOCKED: USER    (3) Torsional Free Energy           =   +1.79 kcal/mol
DOCKED: USER    (4) Unbound System's Energy  [=(2)] =   +1.97 kcal/mol
DOCKED: USER    
DOCKED: USER    
DOCKED: USER    NEWDPF move 2_3_BPG_opt.pdbqt
DOCKED: USER    NEWDPF about 0.015000 0.083000 0.031000
DOCKED: USER    NEWDPF tran0 46.194020 26.475514 20.061841
DOCKED: USER    NEWDPF quaternion0 -0.845991 0.060131 0.529504 0.017575
DOCKED: USER    NEWDPF axisangle0 -0.846122 0.060140 0.529586 177.985976
DOCKED: USER    NEWDPF quat0 -0.846122 0.060140 0.529586 177.985976
DOCKED: USER    NEWDPF dihe0 166.54 -5.75 -120.82 24.12 -33.12 -72.25 
DOCKED: USER  keepresnum = 1 
DOCKED: USER  
DOCKED: REMARK  6 active torsions:
DOCKED: REMARK  status: ('A' for Active; 'I' for Inactive)
DOCKED: REMARK    1  A    between atoms: P_1  and  O_3 
DOCKED: REMARK    2  A    between atoms: P_2  and  O_4 
DOCKED: REMARK    3  A    between atoms: O_3  and  C_13 
DOCKED: REMARK    4  A    between atoms: O_4  and  C_14 
DOCKED: REMARK    5  A    between atoms: C_13  and  C_14 
DOCKED: REMARK    6  A    between atoms: C_13  and  C_15 
DOCKED: USER                              x       y       z     vdW  Elec       q    Type
DOCKED: USER                           _______ _______ _______ _____ _____    ______ ____
DOCKED: ROOT
DOCKED: ATOM      1  C   UNL d   1      45.883  26.859  20.516 -0.13 +0.17    +0.193 C 
DOCKED: ENDROOT
DOCKED: BRANCH   1   2
DOCKED: ATOM      2  O   UNL d   1      45.941  26.172  21.811 -0.08 -0.39    -0.356 OA
DOCKED: BRANCH   2   3
DOCKED: ATOM      3  P   UNL d   1      44.632  25.475  22.522 -0.35 -0.01    -0.014 P 
DOCKED: ATOM      4  O   UNL d   1      45.214  24.681  23.702 -0.01 -0.39    -0.577 OA
DOCKED: ATOM      5  O   UNL d   1      43.991  24.553  21.486 -0.55 -0.36    -0.577 OA
DOCKED: ATOM      6  O   UNL d   1      43.706  26.589  22.999 -0.69 -0.92    -0.638 OA
DOCKED: ENDBRANCH   2   3
DOCKED: ENDBRANCH   1   2
DOCKED: BRANCH   1   7
DOCKED: ATOM      7  C   UNL d   1      46.848  26.126  19.512 -0.06 +0.12    +0.201 C 
DOCKED: BRANCH   7   8
DOCKED: ATOM      8  O   UNL d   1      46.277  25.015  18.786 -0.04 -0.23    -0.364 OA
DOCKED: BRANCH   8   9
DOCKED: ATOM      9  P   UNL d   1      46.826  24.645  17.270 -0.30 -0.01    -0.015 P 
DOCKED: ATOM     10  O   UNL d   1      48.309  24.299  17.457 -0.03 -0.65    -0.577 OA
DOCKED: ATOM     11  O   UNL d   1      46.635  25.893  16.409 -0.10 -0.41    -0.577 OA
DOCKED: ATOM     12  O   UNL d   1      46.016  23.447  16.777 -0.43 -0.98    -0.638 OA
DOCKED: ENDBRANCH   8   9
DOCKED: ENDBRANCH   7   8
DOCKED: ENDBRANCH   1   7
DOCKED: BRANCH   1  13
DOCKED: ATOM     13  C   UNL d   1      46.360  28.351  20.675 -0.13 +0.09    +0.073 C 
DOCKED: ATOM     14  O   UNL d   1      45.730  29.265  20.036 -0.08 -0.47    -0.547 OA
DOCKED: ATOM     15  O   UNL d   1      47.323  28.570  21.495 -0.56 -0.84    -0.547 OA
DOCKED: ENDBRANCH   1  13
DOCKED: TORSDOF 6
DOCKED: TER
DOCKED: ENDMDL
________________________________________________________________________________


	BEGINNING GENETIC ALGORITHM DOCKING 94 of 100
Run: 94 Seed: 519503158 501784911 [ Run 94 of 100 GA/GALS ]
Beginning LAMARCKIAN GENETIC ALGORITHM (LGA), with a maximum of 25000000 energy evaluations.

Final-Value: -6.974


	FINAL GENETIC ALGORITHM DOCKED STATE
	_______________________________________________


Detailed state:  trans 2.245 43.361 -1.396 quatxyzw -0.398771 0.192607 0.355724 -0.823009 center 0.015 0.083 0.031 ntor 6 151.3159 -89.2729 177.7288 -13.6267 -3.2302 -37.5927
State:	  2.245  43.361  -1.396  -0.702  0.339  0.626 -69.226    151.32  -89.27  177.73  -13.63   -3.23  -37.59

DOCKED: MODEL       94
DOCKED: USER    Run = 94
DOCKED: USER    DPF = D:/Protein_go_brrr/autodock/final/2DN3/2_3_BPG/dock.dpf
DOCKED: USER  
DOCKED: USER    Estimated Free Energy of Binding    =   -7.22 kcal/mol  [=(1)+(2)+(3)-(4)]
DOCKED: USER    Estimated Inhibition Constant, Ki   =    5.09 uM (micromolar)  [Temperature = 298.15 K]
DOCKED: USER    
DOCKED: USER    (1) Final Intermolecular Energy     =   -9.01 kcal/mol
DOCKED: USER        vdW + Hbond + desolv Energy     =   -3.49 kcal/mol
DOCKED: USER        Electrostatic Energy            =   -5.52 kcal/mol
DOCKED: USER    (2) Final Total Internal Energy     =   +2.04 kcal/mol
DOCKED: USER    (3) Torsional Free Energy           =   +1.79 kcal/mol
DOCKED: USER    (4) Unbound System's Energy  [=(2)] =   +2.04 kcal/mol
DOCKED: USER    
DOCKED: USER    
DOCKED: USER    NEWDPF move 2_3_BPG_opt.pdbqt
DOCKED: USER    NEWDPF about 0.015000 0.083000 0.031000
DOCKED: USER    NEWDPF tran0 2.245307 43.360845 -1.396409
DOCKED: USER    NEWDPF quaternion0 -0.398771 0.192607 0.355724 -0.823009
DOCKED: USER    NEWDPF axisangle0 -0.702028 0.339080 0.626244 -69.225670
DOCKED: USER    NEWDPF quat0 -0.702028 0.339080 0.626244 -69.225670
DOCKED: USER    NEWDPF dihe0 151.32 -89.27 177.73 -13.63 -3.23 -37.59 
DOCKED: USER  keepresnum = 1 
DOCKED: USER  
DOCKED: REMARK  6 active torsions:
DOCKED: REMARK  status: ('A' for Active; 'I' for Inactive)
DOCKED: REMARK    1  A    between atoms: P_1  and  O_3 
DOCKED: REMARK    2  A    between atoms: P_2  and  O_4 
DOCKED: REMARK    3  A    between atoms: O_3  and  C_13 
DOCKED: REMARK    4  A    between atoms: O_4  and  C_14 
DOCKED: REMARK    5  A    between atoms: C_13  and  C_14 
DOCKED: REMARK    6  A    between atoms: C_13  and  C_15 
DOCKED: USER                              x       y       z     vdW  Elec       q    Type
DOCKED: USER                           _______ _______ _______ _____ _____    ______ ____
DOCKED: ROOT
DOCKED: ATOM      1  C   UNL d   1       2.085  43.048  -0.826 -0.15 +0.14    +0.193 C 
DOCKED: ENDROOT
DOCKED: BRANCH   1   2
DOCKED: ATOM      2  O   UNL d   1       0.767  42.426  -1.000 -0.06 -0.36    -0.356 OA
DOCKED: BRANCH   2   3
DOCKED: ATOM      3  P   UNL d   1      -0.332  42.284   0.215 -0.03 -0.02    -0.014 P 
DOCKED: ATOM      4  O   UNL d   1      -1.108  43.610   0.187 +0.02 -0.31    -0.577 OA
DOCKED: ATOM      5  O   UNL d   1       0.451  42.118   1.516 -0.08 -0.66    -0.577 OA
DOCKED: ATOM      6  O   UNL d   1      -1.237  41.099  -0.105 -0.48 -1.08    -0.638 OA
DOCKED: ENDBRANCH   2   3
DOCKED: ENDBRANCH   1   2
DOCKED: BRANCH   1   7
DOCKED: ATOM      7  C   UNL d   1       2.604  43.533  -2.229 -0.12 +0.11    +0.201 C 
DOCKED: BRANCH   7   8
DOCKED: ATOM      8  O   UNL d   1       2.904  44.942  -2.338 -0.13 -0.24    -0.364 OA
DOCKED: BRANCH   8   9
DOCKED: ATOM      9  P   UNL d   1       3.461  45.563  -3.766 -0.28 -0.01    -0.015 P 
DOCKED: ATOM     10  O   UNL d   1       3.532  44.366  -4.722 -0.03 -0.29    -0.577 OA
DOCKED: ATOM     11  O   UNL d   1       4.843  46.153  -3.487 -0.43 -0.74    -0.577 OA
DOCKED: ATOM     12  O   UNL d   1       2.447  46.608  -4.230 -0.04 -0.73    -0.638 OA
DOCKED: ENDBRANCH   8   9
DOCKED: ENDBRANCH   7   8
DOCKED: ENDBRANCH   1   7
DOCKED: BRANCH   1  13
DOCKED: ATOM     13  C   UNL d   1       3.104  41.997  -0.246 -0.35 +0.07    +0.073 C 
DOCKED: ATOM     14  O   UNL d   1       4.115  42.426   0.413 -0.36 -0.35    -0.547 OA
DOCKED: ATOM     15  O   UNL d   1       2.823  40.757  -0.418 -0.98 -1.05    -0.547 OA
DOCKED: ENDBRANCH   1  13
DOCKED: TORSDOF 6
DOCKED: TER
DOCKED: ENDMDL
________________________________________________________________________________


	BEGINNING GENETIC ALGORITHM DOCKING 95 of 100
Run: 95 Seed: 865951464 15870329 [ Run 95 of 100 GA/GALS ]
Beginning LAMARCKIAN GENETIC ALGORITHM (LGA), with a maximum of 25000000 energy evaluations.

Final-Value: -6.788


	FINAL GENETIC ALGORITHM DOCKED STATE
	_______________________________________________


Detailed state:  trans 46.221 26.141 20.201 quatxyzw 0.064179 0.528207 -0.460413 -0.710562 center 0.015 0.083 0.031 ntor 6 113.4178 -1.5741 -82.3131 49.9797 31.6973 21.8354
State:	 46.221  26.141  20.201   0.091  0.751 -0.654 -89.439    113.42   -1.57  -82.31   49.98   31.70   21.84

DOCKED: MODEL       95
DOCKED: USER    Run = 95
DOCKED: USER    DPF = D:/Protein_go_brrr/autodock/final/2DN3/2_3_BPG/dock.dpf
DOCKED: USER  
DOCKED: USER    Estimated Free Energy of Binding    =   -7.11 kcal/mol  [=(1)+(2)+(3)-(4)]
DOCKED: USER    Estimated Inhibition Constant, Ki   =    6.15 uM (micromolar)  [Temperature = 298.15 K]
DOCKED: USER    
DOCKED: USER    (1) Final Intermolecular Energy     =   -8.90 kcal/mol
DOCKED: USER        vdW + Hbond + desolv Energy     =   -3.17 kcal/mol
DOCKED: USER        Electrostatic Energy            =   -5.73 kcal/mol
DOCKED: USER    (2) Final Total Internal Energy     =   +2.11 kcal/mol
DOCKED: USER    (3) Torsional Free Energy           =   +1.79 kcal/mol
DOCKED: USER    (4) Unbound System's Energy  [=(2)] =   +2.11 kcal/mol
DOCKED: USER    
DOCKED: USER    
DOCKED: USER    NEWDPF move 2_3_BPG_opt.pdbqt
DOCKED: USER    NEWDPF about 0.015000 0.083000 0.031000
DOCKED: USER    NEWDPF tran0 46.221175 26.141146 20.201294
DOCKED: USER    NEWDPF quaternion0 0.064179 0.528207 -0.460413 -0.710562
DOCKED: USER    NEWDPF axisangle0 0.091211 0.750683 -0.654336 -89.438677
DOCKED: USER    NEWDPF quat0 0.091211 0.750683 -0.654336 -89.438677
DOCKED: USER    NEWDPF dihe0 113.42 -1.57 -82.31 49.98 31.70 21.84 
DOCKED: USER  keepresnum = 1 
DOCKED: USER  
DOCKED: REMARK  6 active torsions:
DOCKED: REMARK  status: ('A' for Active; 'I' for Inactive)
DOCKED: REMARK    1  A    between atoms: P_1  and  O_3 
DOCKED: REMARK    2  A    between atoms: P_2  and  O_4 
DOCKED: REMARK    3  A    between atoms: O_3  and  C_13 
DOCKED: REMARK    4  A    between atoms: O_4  and  C_14 
DOCKED: REMARK    5  A    between atoms: C_13  and  C_14 
DOCKED: REMARK    6  A    between atoms: C_13  and  C_15 
DOCKED: USER                              x       y       z     vdW  Elec       q    Type
DOCKED: USER                           _______ _______ _______ _____ _____    ______ ____
DOCKED: ROOT
DOCKED: ATOM      1  C   UNL d   1      46.050  26.254  20.839 -0.11 +0.16    +0.193 C 
DOCKED: ENDROOT
DOCKED: BRANCH   1   2
DOCKED: ATOM      2  O   UNL d   1      46.162  27.694  21.095 -0.19 -0.50    -0.356 OA
DOCKED: BRANCH   2   3
DOCKED: ATOM      3  P   UNL d   1      47.583  28.438  21.459 +0.16 -0.02    -0.014 P 
DOCKED: ATOM      4  O   UNL d   1      47.234  29.934  21.496 -0.55 -0.79    -0.577 OA
DOCKED: ATOM      5  O   UNL d   1      48.563  28.118  20.333 +0.01 -0.35    -0.577 OA
DOCKED: ATOM      6  O   UNL d   1      48.041  27.937  22.825 -0.17 -0.93    -0.638 OA
DOCKED: ENDBRANCH   2   3
DOCKED: ENDBRANCH   1   2
DOCKED: BRANCH   1   7
DOCKED: ATOM      7  C   UNL d   1      46.162  26.006  19.290 -0.09 +0.12    +0.201 C 
DOCKED: BRANCH   7   8
DOCKED: ATOM      8  O   UNL d   1      46.041  24.632  18.861 -0.05 -0.23    -0.364 OA
DOCKED: BRANCH   8   9
DOCKED: ATOM      9  P   UNL d   1      46.920  24.085  17.570 -0.23 -0.02    -0.015 P 
DOCKED: ATOM     10  O   UNL d   1      48.114  23.346  18.186 -0.03 -0.63    -0.577 OA
DOCKED: ATOM     11  O   UNL d   1      47.357  25.315  16.775 -0.14 -0.52    -0.577 OA
DOCKED: ATOM     12  O   UNL d   1      46.014  23.148  16.772 -0.40 -1.09    -0.638 OA
DOCKED: ENDBRANCH   8   9
DOCKED: ENDBRANCH   7   8
DOCKED: ENDBRANCH   1   7
DOCKED: BRANCH   1  13
DOCKED: ATOM     13  C   UNL d   1      44.652  25.726  21.334 -0.27 +0.06    +0.073 C 
DOCKED: ATOM     14  O   UNL d   1      44.277  24.556  20.971 -0.59 -0.34    -0.547 OA
DOCKED: ATOM     15  O   UNL d   1      43.992  26.483  22.134 -0.53 -0.66    -0.547 OA
DOCKED: ENDBRANCH   1  13
DOCKED: TORSDOF 6
DOCKED: TER
DOCKED: ENDMDL
________________________________________________________________________________


	BEGINNING GENETIC ALGORITHM DOCKING 96 of 100
Run: 96 Seed: 1884248549 333310103 [ Run 96 of 100 GA/GALS ]
Beginning LAMARCKIAN GENETIC ALGORITHM (LGA), with a maximum of 25000000 energy evaluations.

Final-Value: -6.817


	FINAL GENETIC ALGORITHM DOCKED STATE
	_______________________________________________


Detailed state:  trans 45.587 26.129 19.868 quatxyzw -0.237022 0.465444 -0.438261 -0.731512 center 0.015 0.083 0.031 ntor 6 81.4516 23.4259 -105.6556 29.7726 23.5342 -6.7389
State:	 45.587  26.129  19.868  -0.348  0.683 -0.643 -85.973     81.45   23.43 -105.66   29.77   23.53   -6.74

DOCKED: MODEL       96
DOCKED: USER    Run = 96
DOCKED: USER    DPF = D:/Protein_go_brrr/autodock/final/2DN3/2_3_BPG/dock.dpf
DOCKED: USER  
DOCKED: USER    Estimated Free Energy of Binding    =   -7.10 kcal/mol  [=(1)+(2)+(3)-(4)]
DOCKED: USER    Estimated Inhibition Constant, Ki   =    6.29 uM (micromolar)  [Temperature = 298.15 K]
DOCKED: USER    
DOCKED: USER    (1) Final Intermolecular Energy     =   -8.89 kcal/mol
DOCKED: USER        vdW + Hbond + desolv Energy     =   -3.44 kcal/mol
DOCKED: USER        Electrostatic Energy            =   -5.45 kcal/mol
DOCKED: USER    (2) Final Total Internal Energy     =   +2.07 kcal/mol
DOCKED: USER    (3) Torsional Free Energy           =   +1.79 kcal/mol
DOCKED: USER    (4) Unbound System's Energy  [=(2)] =   +2.07 kcal/mol
DOCKED: USER    
DOCKED: USER    
DOCKED: USER    NEWDPF move 2_3_BPG_opt.pdbqt
DOCKED: USER    NEWDPF about 0.015000 0.083000 0.031000
DOCKED: USER    NEWDPF tran0 45.587281 26.128813 19.867908
DOCKED: USER    NEWDPF quaternion0 -0.237022 0.465444 -0.438261 -0.731512
DOCKED: USER    NEWDPF axisangle0 -0.347627 0.682640 -0.642773 -85.973392
DOCKED: USER    NEWDPF quat0 -0.347627 0.682640 -0.642773 -85.973392
DOCKED: USER    NEWDPF dihe0 81.45 23.43 -105.66 29.77 23.53 -6.74 
DOCKED: USER  keepresnum = 1 
DOCKED: USER  
DOCKED: REMARK  6 active torsions:
DOCKED: REMARK  status: ('A' for Active; 'I' for Inactive)
DOCKED: REMARK    1  A    between atoms: P_1  and  O_3 
DOCKED: REMARK    2  A    between atoms: P_2  and  O_4 
DOCKED: REMARK    3  A    between atoms: O_3  and  C_13 
DOCKED: REMARK    4  A    between atoms: O_4  and  C_14 
DOCKED: REMARK    5  A    between atoms: C_13  and  C_14 
DOCKED: REMARK    6  A    between atoms: C_13  and  C_15 
DOCKED: USER                              x       y       z     vdW  Elec       q    Type
DOCKED: USER                           _______ _______ _______ _____ _____    ______ ____
DOCKED: ROOT
DOCKED: ATOM      1  C   UNL d   1      45.432  26.471  20.423 -0.14 +0.15    +0.193 C 
DOCKED: ENDROOT
DOCKED: BRANCH   1   2
DOCKED: ATOM      2  O   UNL d   1      45.004  27.817  20.025 -0.10 -0.29    -0.356 OA
DOCKED: BRANCH   2   3
DOCKED: ATOM      3  P   UNL d   1      45.964  29.146  20.159 -0.25 -0.01    -0.014 P 
DOCKED: ATOM      4  O   UNL d   1      44.987  30.331  20.115 -0.06 -0.43    -0.577 OA
DOCKED: ATOM      5  O   UNL d   1      46.903  29.148  18.954 -0.00 -0.30    -0.577 OA
DOCKED: ATOM      6  O   UNL d   1      46.692  29.069  21.497 -0.46 -1.29    -0.638 OA
DOCKED: ENDBRANCH   2   3
DOCKED: ENDBRANCH   1   2
DOCKED: BRANCH   1   7
DOCKED: ATOM      7  C   UNL d   1      45.519  25.569  19.137 -0.12 +0.12    +0.201 C 
DOCKED: BRANCH   7   8
DOCKED: ATOM      8  O   UNL d   1      46.457  24.472  19.200 -0.04 -0.23    -0.364 OA
DOCKED: BRANCH   8   9
DOCKED: ATOM      9  P   UNL d   1      47.132  23.877  17.811 -0.19 -0.02    -0.015 P 
DOCKED: ATOM     10  O   UNL d   1      48.204  24.900  17.418 -0.07 -0.53    -0.577 OA
DOCKED: ATOM     11  O   UNL d   1      46.014  23.793  16.772 -0.48 -0.78    -0.577 OA
DOCKED: ATOM     12  O   UNL d   1      47.735  22.514  18.151 -0.02 -0.82    -0.638 OA
DOCKED: ENDBRANCH   8   9
DOCKED: ENDBRANCH   7   8
DOCKED: ENDBRANCH   1   7
DOCKED: BRANCH   1  13
DOCKED: ATOM     13  C   UNL d   1      44.380  25.841  21.411 -0.29 +0.06    +0.073 C 
DOCKED: ATOM     14  O   UNL d   1      44.019  24.626  21.225 -0.56 -0.34    -0.547 OA
DOCKED: ATOM     15  O   UNL d   1      43.991  26.572  22.392 -0.67 -0.74    -0.547 OA
DOCKED: ENDBRANCH   1  13
DOCKED: TORSDOF 6
DOCKED: TER
DOCKED: ENDMDL
________________________________________________________________________________


	BEGINNING GENETIC ALGORITHM DOCKING 97 of 100
Run: 97 Seed: 1701240301 1382659784 [ Run 97 of 100 GA/GALS ]
Beginning LAMARCKIAN GENETIC ALGORITHM (LGA), with a maximum of 25000000 energy evaluations.

Final-Value: -6.312


	FINAL GENETIC ALGORITHM DOCKED STATE
	_______________________________________________


Detailed state:  trans 45.682 25.068 19.432 quatxyzw -0.750459 -0.520217 0.096852 -0.395987 center 0.015 0.083 0.031 ntor 6 179.0273 116.8259 -66.3998 49.4283 74.2499 64.1015
State:	 45.682  25.068  19.432  -0.817 -0.567  0.105 -133.345    179.03  116.83  -66.40   49.43   74.25   64.10

DOCKED: MODEL       97
DOCKED: USER    Run = 97
DOCKED: USER    DPF = D:/Protein_go_brrr/autodock/final/2DN3/2_3_BPG/dock.dpf
DOCKED: USER  
DOCKED: USER    Estimated Free Energy of Binding    =   -6.68 kcal/mol  [=(1)+(2)+(3)-(4)]
DOCKED: USER    Estimated Inhibition Constant, Ki   =   12.79 uM (micromolar)  [Temperature = 298.15 K]
DOCKED: USER    
DOCKED: USER    (1) Final Intermolecular Energy     =   -8.47 kcal/mol
DOCKED: USER        vdW + Hbond + desolv Energy     =   -2.72 kcal/mol
DOCKED: USER        Electrostatic Energy            =   -5.74 kcal/mol
DOCKED: USER    (2) Final Total Internal Energy     =   +2.15 kcal/mol
DOCKED: USER    (3) Torsional Free Energy           =   +1.79 kcal/mol
DOCKED: USER    (4) Unbound System's Energy  [=(2)] =   +2.15 kcal/mol
DOCKED: USER    
DOCKED: USER    
DOCKED: USER    NEWDPF move 2_3_BPG_opt.pdbqt
DOCKED: USER    NEWDPF about 0.015000 0.083000 0.031000
DOCKED: USER    NEWDPF tran0 45.682345 25.068250 19.431514
DOCKED: USER    NEWDPF quaternion0 -0.750459 -0.520217 0.096852 -0.395987
DOCKED: USER    NEWDPF axisangle0 -0.817265 -0.566527 0.105473 -133.344933
DOCKED: USER    NEWDPF quat0 -0.817265 -0.566527 0.105473 -133.344933
DOCKED: USER    NEWDPF dihe0 179.03 116.83 -66.40 49.43 74.25 64.10 
DOCKED: USER  keepresnum = 1 
DOCKED: USER  
DOCKED: REMARK  6 active torsions:
DOCKED: REMARK  status: ('A' for Active; 'I' for Inactive)
DOCKED: REMARK    1  A    between atoms: P_1  and  O_3 
DOCKED: REMARK    2  A    between atoms: P_2  and  O_4 
DOCKED: REMARK    3  A    between atoms: O_3  and  C_13 
DOCKED: REMARK    4  A    between atoms: O_4  and  C_14 
DOCKED: REMARK    5  A    between atoms: C_13  and  C_14 
DOCKED: REMARK    6  A    between atoms: C_13  and  C_15 
DOCKED: USER                              x       y       z     vdW  Elec       q    Type
DOCKED: USER                           _______ _______ _______ _____ _____    ______ ____
DOCKED: ROOT
DOCKED: ATOM      1  C   UNL d   1      45.153  24.657  19.430 -0.15 +0.11    +0.193 C 
DOCKED: ENDROOT
DOCKED: BRANCH   1   2
DOCKED: ATOM      2  O   UNL d   1      45.611  23.323  19.025 -0.15 -0.23    -0.356 OA
DOCKED: BRANCH   2   3
DOCKED: ATOM      3  P   UNL d   1      45.811  22.876  17.455 -0.24 -0.02    -0.014 P 
DOCKED: ATOM      4  O   UNL d   1      44.387  22.861  16.877 -0.01 -0.42    -0.577 OA
DOCKED: ATOM      5  O   UNL d   1      46.431  21.480  17.458 -0.03 -0.89    -0.577 OA
DOCKED: ATOM      6  O   UNL d   1      46.681  23.926  16.772 -0.37 -1.02    -0.638 OA
DOCKED: ENDBRANCH   2   3
DOCKED: ENDBRANCH   1   2
DOCKED: BRANCH   1   7
DOCKED: ATOM      7  C   UNL d   1      46.411  25.556  19.721 -0.07 +0.12    +0.201 C 
DOCKED: BRANCH   7   8
DOCKED: ATOM      8  O   UNL d   1      46.340  26.374  20.909 -0.04 -0.31    -0.364 OA
DOCKED: BRANCH   8   9
DOCKED: ATOM      9  P   UNL d   1      46.018  27.992  20.785 -0.17 -0.02    -0.015 P 
DOCKED: ATOM     10  O   UNL d   1      44.671  28.187  21.491 -0.09 -1.08    -0.577 OA
DOCKED: ATOM     11  O   UNL d   1      45.933  28.317  19.294 -0.01 -0.37    -0.577 OA
DOCKED: ATOM     12  O   UNL d   1      47.151  28.733  21.495 -0.53 -1.06    -0.638 OA
DOCKED: ENDBRANCH   8   9
DOCKED: ENDBRANCH   7   8
DOCKED: ENDBRANCH   1   7
DOCKED: BRANCH   1  13
DOCKED: ATOM     13  C   UNL d   1      44.291  24.555  20.744 -0.21 +0.04    +0.073 C 
DOCKED: ATOM     14  O   UNL d   1      43.126  25.087  20.753 -0.26 -0.27    -0.547 OA
DOCKED: ATOM     15  O   UNL d   1      44.790  23.882  21.717 -0.40 -0.34    -0.547 OA
DOCKED: ENDBRANCH   1  13
DOCKED: TORSDOF 6
DOCKED: TER
DOCKED: ENDMDL
________________________________________________________________________________


	BEGINNING GENETIC ALGORITHM DOCKING 98 of 100
Run: 98 Seed: 2074615455 1551649986 [ Run 98 of 100 GA/GALS ]
Beginning LAMARCKIAN GENETIC ALGORITHM (LGA), with a maximum of 25000000 energy evaluations.

Final-Value: -6.517


	FINAL GENETIC ALGORITHM DOCKED STATE
	_______________________________________________


Detailed state:  trans 45.874 25.130 19.463 quatxyzw 0.738188 0.622399 -0.096913 0.241465 center 0.015 0.083 0.031 ntor 6 -174.5874 -100.1189 11.0745 54.2171 -75.7544 7.9797
State:	 45.874  25.130  19.463   0.761  0.641 -0.100 152.054   -174.59 -100.12   11.07   54.22  -75.75    7.98

DOCKED: MODEL       98
DOCKED: USER    Run = 98
DOCKED: USER    DPF = D:/Protein_go_brrr/autodock/final/2DN3/2_3_BPG/dock.dpf
DOCKED: USER  
DOCKED: USER    Estimated Free Energy of Binding    =   -7.05 kcal/mol  [=(1)+(2)+(3)-(4)]
DOCKED: USER    Estimated Inhibition Constant, Ki   =    6.82 uM (micromolar)  [Temperature = 298.15 K]
DOCKED: USER    
DOCKED: USER    (1) Final Intermolecular Energy     =   -8.84 kcal/mol
DOCKED: USER        vdW + Hbond + desolv Energy     =   -2.99 kcal/mol
DOCKED: USER        Electrostatic Energy            =   -5.84 kcal/mol
DOCKED: USER    (2) Final Total Internal Energy     =   +2.32 kcal/mol
DOCKED: USER    (3) Torsional Free Energy           =   +1.79 kcal/mol
DOCKED: USER    (4) Unbound System's Energy  [=(2)] =   +2.32 kcal/mol
DOCKED: USER    
DOCKED: USER    
DOCKED: USER    NEWDPF move 2_3_BPG_opt.pdbqt
DOCKED: USER    NEWDPF about 0.015000 0.083000 0.031000
DOCKED: USER    NEWDPF tran0 45.873584 25.130275 19.463359
DOCKED: USER    NEWDPF quaternion0 0.738188 0.622399 -0.096913 0.241465
DOCKED: USER    NEWDPF axisangle0 0.760698 0.641378 -0.099868 152.053907
DOCKED: USER    NEWDPF quat0 0.760698 0.641378 -0.099868 152.053907
DOCKED: USER    NEWDPF dihe0 -174.59 -100.12 11.07 54.22 -75.75 7.98 
DOCKED: USER  keepresnum = 1 
DOCKED: USER  
DOCKED: REMARK  6 active torsions:
DOCKED: REMARK  status: ('A' for Active; 'I' for Inactive)
DOCKED: REMARK    1  A    between atoms: P_1  and  O_3 
DOCKED: REMARK    2  A    between atoms: P_2  and  O_4 
DOCKED: REMARK    3  A    between atoms: O_3  and  C_13 
DOCKED: REMARK    4  A    between atoms: O_4  and  C_14 
DOCKED: REMARK    5  A    between atoms: C_13  and  C_14 
DOCKED: REMARK    6  A    between atoms: C_13  and  C_15 
DOCKED: USER                              x       y       z     vdW  Elec       q    Type
DOCKED: USER                           _______ _______ _______ _____ _____    ______ ____
DOCKED: ROOT
DOCKED: ATOM      1  C   UNL d   1      45.439  24.620  19.440 -0.13 +0.11    +0.193 C 
DOCKED: ENDROOT
DOCKED: BRANCH   1   2
DOCKED: ATOM      2  O   UNL d   1      46.204  23.368  19.449 -0.09 -0.22    -0.356 OA
DOCKED: BRANCH   2   3
DOCKED: ATOM      3  P   UNL d   1      46.965  22.765  18.123 -0.19 -0.02    -0.014 P 
DOCKED: ATOM      4  O   UNL d   1      48.220  23.639  17.970 +0.00 -0.65    -0.577 OA
DOCKED: ATOM      5  O   UNL d   1      46.015  22.934  16.939 -0.33 -0.96    -0.577 OA
DOCKED: ATOM      6  O   UNL d   1      47.328  21.311  18.408 -0.10 -0.71    -0.638 OA
DOCKED: ENDBRANCH   2   3
DOCKED: ENDBRANCH   1   2
DOCKED: BRANCH   1   7
DOCKED: ATOM      7  C   UNL d   1      46.411  25.808  19.786 -0.07 +0.12    +0.201 C 
DOCKED: BRANCH   7   8
DOCKED: ATOM      8  O   UNL d   1      45.894  27.136  19.547 -0.05 -0.24    -0.364 OA
DOCKED: BRANCH   8   9
DOCKED: ATOM      9  P   UNL d   1      45.466  28.101  20.821 -0.20 -0.02    -0.015 P 
DOCKED: ATOM     10  O   UNL d   1      44.668  29.252  20.198 -0.06 -0.50    -0.577 OA
DOCKED: ATOM     11  O   UNL d   1      46.763  28.589  21.466 -0.44 -1.11    -0.577 OA
DOCKED: ATOM     12  O   UNL d   1      44.612  27.253  21.762 -0.33 -1.10    -0.638 OA
DOCKED: ENDBRANCH   8   9
DOCKED: ENDBRANCH   7   8
DOCKED: ENDBRANCH   1   7
DOCKED: BRANCH   1  13
DOCKED: ATOM     13  C   UNL d   1      44.301  24.566  20.526 -0.22 +0.04    +0.073 C 
DOCKED: ATOM     14  O   UNL d   1      43.086  24.703  20.145 -0.43 -0.25    -0.547 OA
DOCKED: ATOM     15  O   UNL d   1      44.660  24.322  21.734 -0.35 -0.35    -0.547 OA
DOCKED: ENDBRANCH   1  13
DOCKED: TORSDOF 6
DOCKED: TER
DOCKED: ENDMDL
________________________________________________________________________________


	BEGINNING GENETIC ALGORITHM DOCKING 99 of 100
Run: 99 Seed: 688881436 1248194673 [ Run 99 of 100 GA/GALS ]
Beginning LAMARCKIAN GENETIC ALGORITHM (LGA), with a maximum of 25000000 energy evaluations.

Final-Value: -6.691


	FINAL GENETIC ALGORITHM DOCKED STATE
	_______________________________________________


Detailed state:  trans 46.303 26.407 20.030 quatxyzw 0.802159 -0.056221 -0.592866 -0.043475 center 0.015 0.083 0.031 ntor 6 145.8296 46.4863 -144.0259 4.2486 -14.9878 -55.1171
State:	 46.303  26.407  20.030   0.803 -0.056 -0.593 -175.017    145.83   46.49 -144.03    4.25  -14.99  -55.12

DOCKED: MODEL       99
DOCKED: USER    Run = 99
DOCKED: USER    DPF = D:/Protein_go_brrr/autodock/final/2DN3/2_3_BPG/dock.dpf
DOCKED: USER  
DOCKED: USER    Estimated Free Energy of Binding    =   -6.87 kcal/mol  [=(1)+(2)+(3)-(4)]
DOCKED: USER    Estimated Inhibition Constant, Ki   =    9.13 uM (micromolar)  [Temperature = 298.15 K]
DOCKED: USER    
DOCKED: USER    (1) Final Intermolecular Energy     =   -8.66 kcal/mol
DOCKED: USER        vdW + Hbond + desolv Energy     =   -2.65 kcal/mol
DOCKED: USER        Electrostatic Energy            =   -6.02 kcal/mol
DOCKED: USER    (2) Final Total Internal Energy     =   +1.97 kcal/mol
DOCKED: USER    (3) Torsional Free Energy           =   +1.79 kcal/mol
DOCKED: USER    (4) Unbound System's Energy  [=(2)] =   +1.97 kcal/mol
DOCKED: USER    
DOCKED: USER    
DOCKED: USER    NEWDPF move 2_3_BPG_opt.pdbqt
DOCKED: USER    NEWDPF about 0.015000 0.083000 0.031000
DOCKED: USER    NEWDPF tran0 46.303276 26.407454 20.030098
DOCKED: USER    NEWDPF quaternion0 0.802159 -0.056221 -0.592866 -0.043475
DOCKED: USER    NEWDPF axisangle0 0.802918 -0.056275 -0.593428 -175.016551
DOCKED: USER    NEWDPF quat0 0.802918 -0.056275 -0.593428 -175.016551
DOCKED: USER    NEWDPF dihe0 145.83 46.49 -144.03 4.25 -14.99 -55.12 
DOCKED: USER  keepresnum = 1 
DOCKED: USER  
DOCKED: REMARK  6 active torsions:
DOCKED: REMARK  status: ('A' for Active; 'I' for Inactive)
DOCKED: REMARK    1  A    between atoms: P_1  and  O_3 
DOCKED: REMARK    2  A    between atoms: P_2  and  O_4 
DOCKED: REMARK    3  A    between atoms: O_3  and  C_13 
DOCKED: REMARK    4  A    between atoms: O_4  and  C_14 
DOCKED: REMARK    5  A    between atoms: C_13  and  C_14 
DOCKED: REMARK    6  A    between atoms: C_13  and  C_15 
DOCKED: USER                              x       y       z     vdW  Elec       q    Type
DOCKED: USER                           _______ _______ _______ _____ _____    ______ ____
DOCKED: ROOT
DOCKED: ATOM      1  C   UNL d   1      46.056  26.799  20.515 -0.11 +0.17    +0.193 C 
DOCKED: ENDROOT
DOCKED: BRANCH   1   2
DOCKED: ATOM      2  O   UNL d   1      46.335  26.160  21.806 -0.05 -0.37    -0.356 OA
DOCKED: BRANCH   2   3
DOCKED: ATOM      3  P   UNL d   1      45.181  25.884  22.944 -0.26 -0.02    -0.014 P 
DOCKED: ATOM      4  O   UNL d   1      45.852  26.268  24.272 +0.10 -0.93    -0.577 OA
DOCKED: ATOM      5  O   UNL d   1      44.844  24.395  22.895 -0.06 -0.35    -0.577 OA
DOCKED: ATOM      6  O   UNL d   1      43.990  26.786  22.637 -0.56 -1.08    -0.638 OA
DOCKED: ENDBRANCH   2   3
DOCKED: ENDBRANCH   1   2
DOCKED: BRANCH   1   7
DOCKED: ATOM      7  C   UNL d   1      46.873  26.054  19.396 -0.06 +0.12    +0.201 C 
DOCKED: BRANCH   7   8
DOCKED: ATOM      8  O   UNL d   1      46.114  25.169  18.544 -0.05 -0.23    -0.364 OA
DOCKED: BRANCH   8   9
DOCKED: ATOM      9  P   UNL d   1      46.791  24.563  17.162 -0.29 -0.02    -0.015 P 
DOCKED: ATOM     10  O   UNL d   1      48.253  24.275  17.527 -0.03 -0.64    -0.577 OA
DOCKED: ATOM     11  O   UNL d   1      46.674  25.651  16.094 -0.12 -0.47    -0.577 OA
DOCKED: ATOM     12  O   UNL d   1      46.027  23.289  16.805 -0.40 -1.03    -0.638 OA
DOCKED: ENDBRANCH   8   9
DOCKED: ENDBRANCH   7   8
DOCKED: ENDBRANCH   1   7
DOCKED: BRANCH   1  13
DOCKED: ATOM     13  C   UNL d   1      46.508  28.307  20.550 -0.14 +0.08    +0.073 C 
DOCKED: ATOM     14  O   UNL d   1      46.016  29.113  19.685 -0.05 -0.40    -0.547 OA
DOCKED: ATOM     15  O   UNL d   1      47.303  28.654  21.496 -0.57 -0.85    -0.547 OA
DOCKED: ENDBRANCH   1  13
DOCKED: TORSDOF 6
DOCKED: TER
DOCKED: ENDMDL
________________________________________________________________________________


	BEGINNING GENETIC ALGORITHM DOCKING 100 of 100
Run: 100 Seed: 1894436861 936549518 [ Run 100 of 100 GA/GALS ]
Beginning LAMARCKIAN GENETIC ALGORITHM (LGA), with a maximum of 25000000 energy evaluations.

Final-Value: -6.661


	FINAL GENETIC ALGORITHM DOCKED STATE
	_______________________________________________


Detailed state:  trans 46.609 26.003 20.382 quatxyzw -0.834633 0.193495 0.506060 -0.099248 center 0.015 0.083 0.031 ntor 6 -140.4358 -4.6526 -160.6383 33.1640 -8.7234 -44.3408
State:	 46.609  26.003  20.382  -0.839  0.194  0.509 -168.608   -140.44   -4.65 -160.64   33.16   -8.72  -44.34

DOCKED: MODEL      100
DOCKED: USER    Run = 100
DOCKED: USER    DPF = D:/Protein_go_brrr/autodock/final/2DN3/2_3_BPG/dock.dpf
DOCKED: USER  
DOCKED: USER    Estimated Free Energy of Binding    =   -6.85 kcal/mol  [=(1)+(2)+(3)-(4)]
DOCKED: USER    Estimated Inhibition Constant, Ki   =    9.45 uM (micromolar)  [Temperature = 298.15 K]
DOCKED: USER    
DOCKED: USER    (1) Final Intermolecular Energy     =   -8.64 kcal/mol
DOCKED: USER        vdW + Hbond + desolv Energy     =   -3.17 kcal/mol
DOCKED: USER        Electrostatic Energy            =   -5.48 kcal/mol
DOCKED: USER    (2) Final Total Internal Energy     =   +1.98 kcal/mol
DOCKED: USER    (3) Torsional Free Energy           =   +1.79 kcal/mol
DOCKED: USER    (4) Unbound System's Energy  [=(2)] =   +1.98 kcal/mol
DOCKED: USER    
DOCKED: USER    
DOCKED: USER    NEWDPF move 2_3_BPG_opt.pdbqt
DOCKED: USER    NEWDPF about 0.015000 0.083000 0.031000
DOCKED: USER    NEWDPF tran0 46.609191 26.003033 20.382440
DOCKED: USER    NEWDPF quaternion0 -0.834633 0.193495 0.506060 -0.099248
DOCKED: USER    NEWDPF axisangle0 -0.838774 0.194455 0.508571 -168.608206
DOCKED: USER    NEWDPF quat0 -0.838774 0.194455 0.508571 -168.608206
DOCKED: USER    NEWDPF dihe0 -140.44 -4.65 -160.64 33.16 -8.72 -44.34 
DOCKED: USER  keepresnum = 1 
DOCKED: USER  
DOCKED: REMARK  6 active torsions:
DOCKED: REMARK  status: ('A' for Active; 'I' for Inactive)
DOCKED: REMARK    1  A    between atoms: P_1  and  O_3 
DOCKED: REMARK    2  A    between atoms: P_2  and  O_4 
DOCKED: REMARK    3  A    between atoms: O_3  and  C_13 
DOCKED: REMARK    4  A    between atoms: O_4  and  C_14 
DOCKED: REMARK    5  A    between atoms: C_13  and  C_14 
DOCKED: REMARK    6  A    between atoms: C_13  and  C_15 
DOCKED: USER                              x       y       z     vdW  Elec       q    Type
DOCKED: USER                           _______ _______ _______ _____ _____    ______ ____
DOCKED: ROOT
DOCKED: ATOM      1  C   UNL d   1      46.424  26.450  20.847 -0.09 +0.16    +0.193 C 
DOCKED: ENDROOT
DOCKED: BRANCH   1   2
DOCKED: ATOM      2  O   UNL d   1      46.171  25.728  22.099 -0.05 -0.33    -0.356 OA
DOCKED: BRANCH   2   3
DOCKED: ATOM      3  P   UNL d   1      44.666  25.308  22.611 -0.36 -0.01    -0.014 P 
DOCKED: ATOM      4  O   UNL d   1      44.914  24.396  23.823 -0.02 -0.34    -0.577 OA
DOCKED: ATOM      5  O   UNL d   1      43.994  24.552  21.467 -0.56 -0.36    -0.577 OA
DOCKED: ATOM      6  O   UNL d   1      43.931  26.583  23.011 -0.70 -0.98    -0.638 OA
DOCKED: ENDBRANCH   2   3
DOCKED: ENDBRANCH   1   2
DOCKED: BRANCH   1   7
DOCKED: ATOM      7  C   UNL d   1      47.133  25.474  19.837 -0.04 +0.12    +0.201 C 
DOCKED: BRANCH   7   8
DOCKED: ATOM      8  O   UNL d   1      46.383  25.146  18.646 -0.05 -0.23    -0.364 OA
DOCKED: BRANCH   8   9
DOCKED: ATOM      9  P   UNL d   1      47.081  24.243  17.448 -0.24 -0.02    -0.015 P 
DOCKED: ATOM     10  O   UNL d   1      48.233  23.497  18.132 -0.03 -0.62    -0.577 OA
DOCKED: ATOM     11  O   UNL d   1      47.584  25.222  16.388 -0.10 -0.59    -0.577 OA
DOCKED: ATOM     12  O   UNL d   1      46.011  23.288  16.921 -0.38 -0.98    -0.638 OA
DOCKED: ENDBRANCH   8   9
DOCKED: ENDBRANCH   7   8
DOCKED: ENDBRANCH   1   7
DOCKED: BRANCH   1  13
DOCKED: ATOM     13  C   UNL d   1      47.374  27.676  21.113 -0.08 +0.08    +0.073 C 
DOCKED: ATOM     14  O   UNL d   1      46.850  28.789  21.473 -0.48 -1.02    -0.547 OA
DOCKED: ATOM     15  O   UNL d   1      48.637  27.468  21.014 +0.00 -0.36    -0.547 OA
DOCKED: ENDBRANCH   1  13
DOCKED: TORSDOF 6
DOCKED: TER
DOCKED: ENDMDL
________________________________________________________________________________

DPF> analysis                             # perform a ranked cluster analysis


		CLUSTER ANALYSIS OF CONFORMATIONS
		_________________________________

Number of conformations = 100

RMSD cluster analysis will be performed using the ligand atoms only (15 / 15 total atoms).

Outputting structurally similar clusters, ranked in order of increasing energy.


________________________________________________________________________________

Number of distinct conformational clusters found = 7,  out of 100 runs,
Using an rmsd-tolerance of 2.0 A


	CLUSTERING HISTOGRAM
	____________________

________________________________________________________________________________
     |           |     |           |     |                                    
Clus | Lowest    | Run | Mean      | Num | Histogram                          
-ter | Binding   |     | Binding   | in  |                                    
Rank | Energy    |     | Energy    | Clus|    5    10   15   20   25   30   35
_____|___________|_____|___________|_____|____:____|____:____|____:____|____:___
   1 |     -7.36 |  45 |     -7.05 |  63 |###############################################################
   2 |     -7.22 |  94 |     -6.80 |  28 |############################
   3 |     -7.18 |  54 |     -6.98 |   4 |####
   4 |     -7.17 |  24 |     -7.03 |   2 |##
   5 |     -6.72 |   5 |     -6.72 |   1 |#
   6 |     -6.71 |  53 |     -6.71 |   1 |#
   7 |     -6.67 |  60 |     -6.67 |   1 |#
_____|___________|_____|___________|_____|______________________________________


Number of multi-member conformational clusters found = 4, out of 100 runs.

	RMSD TABLE
	__________

_____________________________________________________________________
     |      |      |           |         |                 |
Rank | Sub- | Run  | Binding   | Cluster | Reference       | Grep
     | Rank |      | Energy    | RMSD    | RMSD            | Pattern
_____|______|______|___________|_________|_________________|___________
   1      1     45       -7.36      0.00     53.34           RANKING
   1      2     57       -7.36      1.53     53.43           RANKING
   1      3     67       -7.34      0.44     53.48           RANKING
   1      4     75       -7.33      0.16     53.39           RANKING
   1      5     47       -7.30      0.66     53.76           RANKING
   1      6     86       -7.28      1.67     53.33           RANKING
   1      7      3       -7.27      1.59     53.60           RANKING
   1      8     22       -7.26      0.77     53.18           RANKING
   1      9     90       -7.23      1.01     53.25           RANKING
   1     10     78       -7.22      1.79     53.52           RANKING
   1     11     21       -7.22      1.50     53.49           RANKING
   1     12     38       -7.21      1.52     53.47           RANKING
   1     13     31       -7.21      0.94     53.13           RANKING
   1     14     55       -7.20      1.72     53.32           RANKING
   1     15     10       -7.18      0.97     53.35           RANKING
   1     16     72       -7.18      1.09     53.33           RANKING
   1     17     66       -7.18      0.81     53.40           RANKING
   1     18     46       -7.17      1.64     53.60           RANKING
   1     19     82       -7.17      1.58     53.47           RANKING
   1     20     44       -7.16      0.92     53.20           RANKING
   1     21     14       -7.13      0.88     53.30           RANKING
   1     22     85       -7.12      1.80     53.61           RANKING
   1     23      9       -7.12      0.79     53.21           RANKING
   1     24     95       -7.11      0.72     53.83           RANKING
   1     25     28       -7.10      0.97     53.23           RANKING
   1     26      6       -7.10      1.77     53.59           RANKING
   1     27     96       -7.10      0.98     53.33           RANKING
   1     28     84       -7.09      0.99     53.00           RANKING
   1     29     16       -7.08      1.05     53.60           RANKING
   1     30     34       -7.06      1.71     53.30           RANKING
   1     31     33       -7.06      0.79     53.29           RANKING
   1     32     18       -7.05      0.99     53.22           RANKING
   1     33     65       -7.05      1.65     51.95           RANKING
   1     34     32       -7.05      0.98     53.35           RANKING
   1     35     98       -7.05      1.31     52.73           RANKING
   1     36     51       -7.03      1.81     53.67           RANKING
   1     37     25       -7.03      1.80     53.64           RANKING
   1     38     93       -7.03      1.71     53.43           RANKING
   1     39     17       -7.03      1.64     53.36           RANKING
   1     40     59       -7.02      1.70     51.84           RANKING
   1     41     29       -7.01      1.78     53.62           RANKING
   1     42     42       -7.00      1.18     52.77           RANKING
   1     43      7       -6.99      1.77     53.55           RANKING
   1     44     89       -6.95      1.13     53.98           RANKING
   1     45     71       -6.94      0.95     53.22           RANKING
   1     46     30       -6.93      1.00     52.96           RANKING
   1     47     58       -6.92      1.64     52.05           RANKING
   1     48     56       -6.91      1.99     51.56           RANKING
   1     49     68       -6.91      1.78     51.91           RANKING
   1     50     26       -6.90      1.86     53.70           RANKING
   1     51     69       -6.90      1.65     53.26           RANKING
   1     52     23       -6.89      1.83     53.68           RANKING
   1     53      8       -6.89      0.93     53.40           RANKING
   1     54     99       -6.87      1.75     53.67           RANKING
   1     55     92       -6.87      1.76     53.55           RANKING
   1     56     41       -6.86      1.79     53.64           RANKING
   1     57    100       -6.85      1.83     53.62           RANKING
   1     58     83       -6.84      1.82     53.68           RANKING
   1     59     40       -6.80      1.93     53.96           RANKING
   1     60     87       -6.75      1.27     53.50           RANKING
   1     61     70       -6.73      1.91     51.80           RANKING
   1     62     63       -6.69      1.64     52.07           RANKING
   1     63     97       -6.68      1.28     52.49           RANKING
   2      1     94       -7.22      0.00     42.00           RANKING
   2      2     13       -7.21      1.16     41.72           RANKING
   2      3     48       -7.16      1.59     41.60           RANKING
   2      4     91       -7.15      0.67     41.75           RANKING
   2      5     15       -7.13      0.67     41.74           RANKING
   2      6     50       -7.08      0.53     42.24           RANKING
   2      7     35       -7.01      0.72     42.13           RANKING
   2      8     61       -7.00      0.79     41.94           RANKING
   2      9     12       -6.99      0.36     41.87           RANKING
   2     10     49       -6.96      0.28     41.91           RANKING
   2     11     39       -6.96      1.43     41.57           RANKING
   2     12     36       -6.94      1.66     41.38           RANKING
   2     13     27       -6.93      1.13     41.75           RANKING
   2     14     76       -6.93      1.71     41.48           RANKING
   2     15     19       -6.87      1.71     41.59           RANKING
   2     16     77       -6.79      0.55     41.86           RANKING
   2     17     43       -6.77      1.95     41.30           RANKING
   2     18      2       -6.70      0.46     41.88           RANKING
   2     19     20       -6.69      1.83     43.11           RANKING
   2     20     37       -6.68      0.87     42.09           RANKING
   2     21      4       -6.57      1.12     41.97           RANKING
   2     22     81       -6.53      1.85     42.59           RANKING
   2     23     73       -6.50      1.86     43.23           RANKING
   2     24     88       -6.44      0.72     41.85           RANKING
   2     25      1       -6.34      1.98     41.27           RANKING
   2     26     62       -6.33      0.99     41.97           RANKING
   2     27     74       -6.30      1.93     43.38           RANKING
   2     28     11       -6.29      1.29     41.95           RANKING
   3      1     54       -7.18      0.00     53.77           RANKING
   3      2     64       -7.16      0.38     53.83           RANKING
   3      3     52       -6.84      0.97     53.78           RANKING
   3      4     79       -6.73      1.08     53.79           RANKING
   4      1     24       -7.17      0.00     51.21           RANKING
   4      2     80       -6.89      0.86     51.04           RANKING
   5      1      5       -6.72      0.00     51.53           RANKING
   6      1     53       -6.71      0.00     54.03           RANKING
   7      1     60       -6.67      0.00     20.89           RANKING
_______________________________________________________________________



	INFORMATION ENTROPY ANALYSIS FOR THIS CLUSTERING
	________________________________________________


Information entropy for this clustering = 0.22  (rmstol = 2.00 Angstrom)

_______________________________________________________________________


	STATISTICAL MECHANICAL ANALYSIS
	_______________________________


Partition function, Q =   101.18            at Temperature, T = 298.15 K
Free energy,        A ~ -2735.45 kcal/mol   at Temperature, T = 298.15 K
Internal energy,    U =    -6.97 kcal/mol   at Temperature, T = 298.15 K
Entropy,            S =     9.15 kcal/mol/K at Temperature, T = 298.15 K

_______________________________________________________________________


	LOWEST ENERGY DOCKED CONFORMATION from EACH CLUSTER
	___________________________________________________



Keeping original residue number (specified in the input PDBQ file) for outputting.

MODEL       45
USER    Run = 45
USER    Cluster Rank = 1
USER    Number of conformations in this cluster = 63
USER  
USER    RMSD from reference structure       = 53.339 A
USER  
USER    Estimated Free Energy of Binding    =   -7.36 kcal/mol  [=(1)+(2)+(3)-(4)]
USER    Estimated Inhibition Constant, Ki   =    4.00 uM (micromolar)  [Temperature = 298.15 K]
USER    
USER    (1) Final Intermolecular Energy     =   -9.15 kcal/mol
USER        vdW + Hbond + desolv Energy     =   -3.21 kcal/mol
USER        Electrostatic Energy            =   -5.94 kcal/mol
USER    (2) Final Total Internal Energy     =   +2.16 kcal/mol
USER    (3) Torsional Free Energy           =   +1.79 kcal/mol
USER    (4) Unbound System's Energy  [=(2)] =   +2.16 kcal/mol
USER    
USER    
USER  
USER    DPF = D:/Protein_go_brrr/autodock/final/2DN3/2_3_BPG/dock.dpf
USER    NEWDPF move	2_3_BPG_opt.pdbqt
USER    NEWDPF about	0.015000 0.083000 0.031000
USER    NEWDPF tran0	45.551223 25.898640 19.847795
USER    NEWDPF axisangle0	0.116843 -0.736651 0.666103 98.793880
USER    NEWDPF quaternion0	0.088712 -0.559292 0.505730 0.650815
USER    NEWDPF dihe0	101.53 20.07 170.23 22.72 45.14 -6.99 
USER  
USER                              x       y       z    vdW   Elec        q     RMS 
ATOM      1  C   UNL d   1      45.533  26.153  20.468 -0.13 +0.14    +0.193    53.339
ATOM      2  O   UNL d   1      45.598  27.615  20.364 -0.12 -0.34    -0.356    53.339
ATOM      3  P   UNL d   1      46.910  28.496  20.819 -0.12 -0.02    -0.014    53.339
ATOM      4  O   UNL d   1      46.386  29.937  20.923 -0.26 -0.72    -0.577    53.339
ATOM      5  O   UNL d   1      47.954  28.356  19.714 +0.01 -0.34    -0.577    53.339
ATOM      6  O   UNL d   1      47.382  27.973  22.172 -0.24 -1.17    -0.638    53.339
ATOM      7  C   UNL d   1      45.281  25.556  19.034 -0.13 +0.11    +0.201    53.339
ATOM      8  O   UNL d   1      45.782  24.219  18.812 -0.07 -0.23    -0.364    53.339
ATOM      9  P   UNL d   1      46.670  23.880  17.457 -0.26 -0.02    -0.015    53.339
ATOM     10  O   UNL d   1      46.588  25.149  16.600 -0.16 -0.53    -0.577    53.339
ATOM     11  O   UNL d   1      46.004  22.686  16.775 -0.28 -1.09    -0.577    53.339
ATOM     12  O   UNL d   1      48.098  23.588  17.915 +0.03 -0.76    -0.638    53.339
ATOM     13  C   UNL d   1      44.342  25.731  21.407 -0.30 +0.06    +0.073    53.339
ATOM     14  O   UNL d   1      43.825  24.569  21.253 -0.55 -0.33    -0.547    53.339
ATOM     15  O   UNL d   1      43.999  26.563  22.322 -0.64 -0.72    -0.547    53.339
TER
ENDMDL
MODEL       94
USER    Run = 94
USER    Cluster Rank = 2
USER    Number of conformations in this cluster = 28
USER  
USER    RMSD from reference structure       = 42.004 A
USER  
USER    Estimated Free Energy of Binding    =   -7.22 kcal/mol  [=(1)+(2)+(3)-(4)]
USER    Estimated Inhibition Constant, Ki   =    5.09 uM (micromolar)  [Temperature = 298.15 K]
USER    
USER    (1) Final Intermolecular Energy     =   -9.01 kcal/mol
USER        vdW + Hbond + desolv Energy     =   -3.49 kcal/mol
USER        Electrostatic Energy            =   -5.52 kcal/mol
USER    (2) Final Total Internal Energy     =   +2.04 kcal/mol
USER    (3) Torsional Free Energy           =   +1.79 kcal/mol
USER    (4) Unbound System's Energy  [=(2)] =   +2.04 kcal/mol
USER    
USER    
USER  
USER    DPF = D:/Protein_go_brrr/autodock/final/2DN3/2_3_BPG/dock.dpf
USER    NEWDPF move	2_3_BPG_opt.pdbqt
USER    NEWDPF about	0.015000 0.083000 0.031000
USER    NEWDPF tran0	2.245307 43.360845 -1.396409
USER    NEWDPF axisangle0	-0.702028 0.339080 0.626244 -69.225670
USER    NEWDPF quaternion0	-0.398771 0.192607 0.355724 -0.823009
USER    NEWDPF dihe0	151.32 -89.27 177.73 -13.63 -3.23 -37.59 
USER  
USER                              x       y       z    vdW   Elec        q     RMS 
ATOM      1  C   UNL d   1       2.085  43.048  -0.826 -0.15 +0.14    +0.193    42.004
ATOM      2  O   UNL d   1       0.767  42.426  -1.000 -0.06 -0.36    -0.356    42.004
ATOM      3  P   UNL d   1      -0.332  42.284   0.215 -0.03 -0.02    -0.014    42.004
ATOM      4  O   UNL d   1      -1.108  43.610   0.187 +0.02 -0.31    -0.577    42.004
ATOM      5  O   UNL d   1       0.451  42.118   1.516 -0.08 -0.66    -0.577    42.004
ATOM      6  O   UNL d   1      -1.237  41.099  -0.105 -0.48 -1.08    -0.638    42.004
ATOM      7  C   UNL d   1       2.604  43.533  -2.229 -0.12 +0.11    +0.201    42.004
ATOM      8  O   UNL d   1       2.904  44.942  -2.338 -0.13 -0.24    -0.364    42.004
ATOM      9  P   UNL d   1       3.461  45.563  -3.766 -0.28 -0.01    -0.015    42.004
ATOM     10  O   UNL d   1       3.532  44.366  -4.722 -0.03 -0.29    -0.577    42.004
ATOM     11  O   UNL d   1       4.843  46.153  -3.487 -0.43 -0.74    -0.577    42.004
ATOM     12  O   UNL d   1       2.447  46.608  -4.230 -0.04 -0.73    -0.638    42.004
ATOM     13  C   UNL d   1       3.104  41.997  -0.246 -0.35 +0.07    +0.073    42.004
ATOM     14  O   UNL d   1       4.115  42.426   0.413 -0.36 -0.35    -0.547    42.004
ATOM     15  O   UNL d   1       2.823  40.757  -0.418 -0.98 -1.05    -0.547    42.004
TER
ENDMDL
MODEL       54
USER    Run = 54
USER    Cluster Rank = 3
USER    Number of conformations in this cluster = 4
USER  
USER    RMSD from reference structure       = 53.770 A
USER  
USER    Estimated Free Energy of Binding    =   -7.18 kcal/mol  [=(1)+(2)+(3)-(4)]
USER    Estimated Inhibition Constant, Ki   =    5.50 uM (micromolar)  [Temperature = 298.15 K]
USER    
USER    (1) Final Intermolecular Energy     =   -8.97 kcal/mol
USER        vdW + Hbond + desolv Energy     =   -4.03 kcal/mol
USER        Electrostatic Energy            =   -4.94 kcal/mol
USER    (2) Final Total Internal Energy     =   +2.04 kcal/mol
USER    (3) Torsional Free Energy           =   +1.79 kcal/mol
USER    (4) Unbound System's Energy  [=(2)] =   +2.04 kcal/mol
USER    
USER    
USER  
USER    DPF = D:/Protein_go_brrr/autodock/final/2DN3/2_3_BPG/dock.dpf
USER    NEWDPF move	2_3_BPG_opt.pdbqt
USER    NEWDPF about	0.015000 0.083000 0.031000
USER    NEWDPF tran0	44.656795 26.067110 22.287186
USER    NEWDPF axisangle0	-0.069418 0.963445 0.258757 130.331848
USER    NEWDPF quaternion0	-0.062998 0.874353 0.234829 0.419992
USER    NEWDPF dihe0	5.65 -148.91 77.26 19.51 21.44 -56.55 
USER  
USER                              x       y       z    vdW   Elec        q     RMS 
ATOM      1  C   UNL d   1      44.933  26.005  21.680 -0.20 +0.19    +0.193    53.770
ATOM      2  O   UNL d   1      46.165  26.802  21.655 -0.08 -0.47    -0.356    53.770
ATOM      3  P   UNL d   1      46.350  28.151  20.732 -0.15 -0.02    -0.014    53.770
ATOM      4  O   UNL d   1      44.924  28.698  20.564 -0.08 -0.66    -0.577    53.770
ATOM      5  O   UNL d   1      46.943  27.707  19.396 +0.01 -0.36    -0.577    53.770
ATOM      6  O   UNL d   1      47.238  29.127  21.497 -0.58 -1.02    -0.638    53.770
ATOM      7  C   UNL d   1      44.430  25.901  23.166 -0.22 +0.23    +0.201    53.770
ATOM      8  O   UNL d   1      43.317  26.753  23.517 -1.05 -0.52    -0.364    53.770
ATOM      9  P   UNL d   1      43.079  27.202  25.091 -0.53 -0.02    -0.015    53.770
ATOM     10  O   UNL d   1      41.969  26.278  25.606 -0.18 -0.27    -0.577    53.770
ATOM     11  O   UNL d   1      42.641  28.666  25.075 -0.24 -0.64    -0.577    53.770
ATOM     12  O   UNL d   1      44.399  26.980  25.828 +0.02 -0.79    -0.638    53.770
ATOM     13  C   UNL d   1      45.218  24.554  21.140 -0.20 +0.05    +0.073    53.770
ATOM     14  O   UNL d   1      46.087  23.836  21.748 -0.06 -0.29    -0.547    53.770
ATOM     15  O   UNL d   1      44.507  24.151  20.150 -0.49 -0.35    -0.547    53.770
TER
ENDMDL
MODEL       24
USER    Run = 24
USER    Cluster Rank = 4
USER    Number of conformations in this cluster = 2
USER  
USER    RMSD from reference structure       = 51.209 A
USER  
USER    Estimated Free Energy of Binding    =   -7.17 kcal/mol  [=(1)+(2)+(3)-(4)]
USER    Estimated Inhibition Constant, Ki   =    5.60 uM (micromolar)  [Temperature = 298.15 K]
USER    
USER    (1) Final Intermolecular Energy     =   -8.95 kcal/mol
USER        vdW + Hbond + desolv Energy     =   -3.97 kcal/mol
USER        Electrostatic Energy            =   -4.99 kcal/mol
USER    (2) Final Total Internal Energy     =   +2.20 kcal/mol
USER    (3) Torsional Free Energy           =   +1.79 kcal/mol
USER    (4) Unbound System's Energy  [=(2)] =   +2.20 kcal/mol
USER    
USER    
USER  
USER    DPF = D:/Protein_go_brrr/autodock/final/2DN3/2_3_BPG/dock.dpf
USER    NEWDPF move	2_3_BPG_opt.pdbqt
USER    NEWDPF about	0.015000 0.083000 0.031000
USER    NEWDPF tran0	50.289151 21.277548 4.156000
USER    NEWDPF axisangle0	0.772968 -0.580945 0.254997 165.315975
USER    NEWDPF quaternion0	0.766630 -0.576182 0.252906 0.127792
USER    NEWDPF dihe0	159.10 177.62 120.87 6.01 55.84 -30.78 
USER  
USER                              x       y       z    vdW   Elec        q     RMS 
ATOM      1  C   UNL d   1      50.472  21.919   4.089 -0.20 +0.19    +0.193    51.209
ATOM      2  O   UNL d   1      49.256  22.734   3.987 -0.21 -0.46    -0.356    51.209
ATOM      3  P   UNL d   1      48.977  23.788   2.757 -0.48 -0.02    -0.014    51.209
ATOM      4  O   UNL d   1      50.286  23.795   1.953 -0.23 -0.66    -0.577    51.209
ATOM      5  O   UNL d   1      48.696  25.152   3.385 -0.41 -0.76    -0.577    51.209
ATOM      6  O   UNL d   1      47.815  23.249   1.929 -0.30 -0.73    -0.638    51.209
ATOM      7  C   UNL d   1      50.070  20.465   4.535 -0.08 +0.20    +0.201    51.209
ATOM      8  O   UNL d   1      50.590  19.390   3.723 -0.06 -0.26    -0.364    51.209
ATOM      9  P   UNL d   1      49.555  18.336   2.979 -0.08 -0.01    -0.015    51.209
ATOM     10  O   UNL d   1      48.709  17.742   4.111 -0.58 -0.58    -0.577    51.209
ATOM     11  O   UNL d   1      50.415  17.276   2.292 +0.01 -0.23    -0.577    51.209
ATOM     12  O   UNL d   1      48.711  19.150   1.998 -0.58 -0.71    -0.638    51.209
ATOM     13  C   UNL d   1      51.441  22.528   5.170 -0.20 +0.07    +0.073    51.209
ATOM     14  O   UNL d   1      52.705  22.413   4.992 -0.04 -0.47    -0.547    51.209
ATOM     15  O   UNL d   1      50.900  23.166   6.144 -0.53 -0.56    -0.547    51.209
TER
ENDMDL
MODEL        5
USER    Run = 5
USER    Cluster Rank = 5
USER    Number of conformations in this cluster = 1
USER  
USER    RMSD from reference structure       = 51.529 A
USER  
USER    Estimated Free Energy of Binding    =   -6.72 kcal/mol  [=(1)+(2)+(3)-(4)]
USER    Estimated Inhibition Constant, Ki   =   11.84 uM (micromolar)  [Temperature = 298.15 K]
USER    
USER    (1) Final Intermolecular Energy     =   -8.51 kcal/mol
USER        vdW + Hbond + desolv Energy     =   -3.07 kcal/mol
USER        Electrostatic Energy            =   -5.45 kcal/mol
USER    (2) Final Total Internal Energy     =   +2.02 kcal/mol
USER    (3) Torsional Free Energy           =   +1.79 kcal/mol
USER    (4) Unbound System's Energy  [=(2)] =   +2.02 kcal/mol
USER    
USER    
USER  
USER    DPF = D:/Protein_go_brrr/autodock/final/2DN3/2_3_BPG/dock.dpf
USER    NEWDPF move	2_3_BPG_opt.pdbqt
USER    NEWDPF about	0.015000 0.083000 0.031000
USER    NEWDPF tran0	44.178080 24.948433 19.225195
USER    NEWDPF axisangle0	0.565193 0.656048 0.500159 171.556765
USER    NEWDPF quaternion0	0.563659 0.654268 0.498802 0.073614
USER    NEWDPF dihe0	-16.55 -38.79 -7.17 -3.38 -41.60 -105.65 
USER  
USER                              x       y       z    vdW   Elec        q     RMS 
ATOM      1  C   UNL d   1      44.176  24.669  18.616 -0.22 +0.10    +0.193    51.529
ATOM      2  O   UNL d   1      44.895  23.393  18.695 -0.18 -0.21    -0.356    51.529
ATOM      3  P   UNL d   1      45.996  22.906  17.575 -0.22 -0.02    -0.014    51.529
ATOM      4  O   UNL d   1      47.149  22.316  18.403 -0.04 -0.63    -0.577    51.529
ATOM      5  O   UNL d   1      46.437  24.149  16.804 -0.35 -0.77    -0.577    51.529
ATOM      6  O   UNL d   1      45.339  21.847  16.697 -0.15 -0.83    -0.638    51.529
ATOM      7  C   UNL d   1      43.918  25.195  20.076 -0.25 +0.11    +0.201    51.529
ATOM      8  O   UNL d   1      45.084  25.302  20.922 -0.13 -0.25    -0.364    51.529
ATOM      9  P   UNL d   1      45.238  26.576  21.966 -0.09 -0.02    -0.015    51.529
ATOM     10  O   UNL d   1      46.511  26.283  22.768 +0.01 -0.77    -0.577    51.529
ATOM     11  O   UNL d   1      43.993  26.580  22.852 -0.78 -0.89    -0.577    51.529
ATOM     12  O   UNL d   1      45.372  27.840  21.118 -0.06 -0.98    -0.638    51.529
ATOM     13  C   UNL d   1      42.788  24.463  17.902 -0.40 +0.03    +0.073    51.529
ATOM     14  O   UNL d   1      42.138  23.383  18.129 -0.14 -0.13    -0.547    51.529
ATOM     15  O   UNL d   1      42.357  25.431  17.175 -0.07 -0.17    -0.547    51.529
TER
ENDMDL
MODEL       53
USER    Run = 53
USER    Cluster Rank = 6
USER    Number of conformations in this cluster = 1
USER  
USER    RMSD from reference structure       = 54.031 A
USER  
USER    Estimated Free Energy of Binding    =   -6.71 kcal/mol  [=(1)+(2)+(3)-(4)]
USER    Estimated Inhibition Constant, Ki   =   12.08 uM (micromolar)  [Temperature = 298.15 K]
USER    
USER    (1) Final Intermolecular Energy     =   -8.50 kcal/mol
USER        vdW + Hbond + desolv Energy     =   -2.44 kcal/mol
USER        Electrostatic Energy            =   -6.06 kcal/mol
USER    (2) Final Total Internal Energy     =   +2.00 kcal/mol
USER    (3) Torsional Free Energy           =   +1.79 kcal/mol
USER    (4) Unbound System's Energy  [=(2)] =   +2.00 kcal/mol
USER    
USER    
USER  
USER    DPF = D:/Protein_go_brrr/autodock/final/2DN3/2_3_BPG/dock.dpf
USER    NEWDPF move	2_3_BPG_opt.pdbqt
USER    NEWDPF about	0.015000 0.083000 0.031000
USER    NEWDPF tran0	46.648754 25.867110 20.671886
USER    NEWDPF axisangle0	-0.808875 0.171082 0.562541 -177.760652
USER    NEWDPF quaternion0	-0.808720 0.171050 0.562434 -0.019541
USER    NEWDPF dihe0	-140.80 67.63 78.65 3.12 -2.83 -14.51 
USER  
USER                              x       y       z    vdW   Elec        q     RMS 
ATOM      1  C   UNL d   1      46.477  26.331  21.125 -0.09 +0.17    +0.193    54.031
ATOM      2  O   UNL d   1      46.495  25.703  22.451 -0.04 -0.33    -0.356    54.031
ATOM      3  P   UNL d   1      45.244  25.803  23.514 -0.21 -0.02    -0.014    54.031
ATOM      4  O   UNL d   1      45.821  26.570  24.714 +0.03 -1.03    -0.577    54.031
ATOM      5  O   UNL d   1      44.858  24.375  23.893 -0.02 -0.34    -0.577    54.031
ATOM      6  O   UNL d   1      44.116  26.580  22.843 -0.68 -1.01    -0.638    54.031
ATOM      7  C   UNL d   1      47.152  25.352  20.094 -0.03 +0.12    +0.201    54.031
ATOM      8  O   UNL d   1      46.591  25.353  18.763 -0.04 -0.22    -0.364    54.031
ATOM      9  P   UNL d   1      47.217  24.360  17.598 -0.25 -0.02    -0.015    54.031
ATOM     10  O   UNL d   1      48.146  25.255  16.768 -0.10 -0.54    -0.577    54.031
ATOM     11  O   UNL d   1      46.039  23.841  16.774 -0.48 -0.77    -0.577    54.031
ATOM     12  O   UNL d   1      47.981  23.249  18.315 -0.01 -0.68    -0.638    54.031
ATOM     13  C   UNL d   1      47.294  27.676  21.153 -0.06 +0.08    +0.073    54.031
ATOM     14  O   UNL d   1      46.690  28.751  21.497 -0.45 -1.10    -0.547    54.031
ATOM     15  O   UNL d   1      48.548  27.601  20.887 -0.00 -0.37    -0.547    54.031
TER
ENDMDL
MODEL       60
USER    Run = 60
USER    Cluster Rank = 7
USER    Number of conformations in this cluster = 1
USER  
USER    RMSD from reference structure       = 20.895 A
USER  
USER    Estimated Free Energy of Binding    =   -6.67 kcal/mol  [=(1)+(2)+(3)-(4)]
USER    Estimated Inhibition Constant, Ki   =   12.84 uM (micromolar)  [Temperature = 298.15 K]
USER    
USER    (1) Final Intermolecular Energy     =   -8.46 kcal/mol
USER        vdW + Hbond + desolv Energy     =   -4.41 kcal/mol
USER        Electrostatic Energy            =   -4.05 kcal/mol
USER    (2) Final Total Internal Energy     =   +2.13 kcal/mol
USER    (3) Torsional Free Energy           =   +1.79 kcal/mol
USER    (4) Unbound System's Energy  [=(2)] =   +2.13 kcal/mol
USER    
USER    
USER  
USER    DPF = D:/Protein_go_brrr/autodock/final/2DN3/2_3_BPG/dock.dpf
USER    NEWDPF move	2_3_BPG_opt.pdbqt
USER    NEWDPF about	0.015000 0.083000 0.031000
USER    NEWDPF tran0	13.922717 18.184613 5.366653
USER    NEWDPF axisangle0	-0.959739 -0.273196 0.065310 105.323890
USER    NEWDPF quaternion0	-0.763060 -0.217210 0.051926 0.606517
USER    NEWDPF dihe0	-134.21 -44.77 -62.30 13.31 -46.07 -115.22 
USER  
USER                              x       y       z    vdW   Elec        q     RMS 
ATOM      1  C   UNL d   1      13.289  17.992   5.262 -0.29 +0.11    +0.193    20.895
ATOM      2  O   UNL d   1      12.540  18.184   6.509 -0.25 -0.27    -0.356    20.895
ATOM      3  P   UNL d   1      11.810  16.955   7.322 -0.52 -0.01    -0.014    20.895
ATOM      4  O   UNL d   1      12.265  17.136   8.779 -0.48 -0.72    -0.577    20.895
ATOM      5  O   UNL d   1      12.332  15.648   6.729 -0.11 -0.51    -0.577    20.895
ATOM      6  O   UNL d   1      10.302  17.128   7.181 -0.70 -0.30    -0.638    20.895
ATOM      7  C   UNL d   1      14.686  18.702   5.397 -0.27 +0.11    +0.201    20.895
ATOM      8  O   UNL d   1      15.382  18.493   6.646 -0.63 -0.51    -0.364    20.895
ATOM      9  P   UNL d   1      17.007  18.183   6.650 -0.33 -0.02    -0.015    20.895
ATOM     10  O   UNL d   1      17.628  19.323   7.465 -0.07 -0.39    -0.577    20.895
ATOM     11  O   UNL d   1      17.468  18.205   5.193 -0.02 -0.23    -0.577    20.895
ATOM     12  O   UNL d   1      17.205  16.824   7.320 -0.13 -1.06    -0.638    20.895
ATOM     13  C   UNL d   1      12.509  18.641   4.058 -0.48 +0.02    +0.073    20.895
ATOM     14  O   UNL d   1      11.539  17.987   3.535 -0.08 -0.20    -0.547    20.895
ATOM     15  O   UNL d   1      12.855  19.827   3.711 -0.05 -0.07    -0.547    20.895
TER
ENDMDL


AVSFLD: # AVS field file
AVSFLD: #
AVSFLD: # Created by AutoDock
AVSFLD: #
AVSFLD: ndim=2           # number of dimensions in the field
AVSFLD: nspace=1         # number of physical coordinates
AVSFLD: veclen=7         # vector size
AVSFLD: dim1=15          # atoms
AVSFLD: dim2=7           # conformations
AVSFLD: data=Real       # data type (byte,integer,Real,double)
AVSFLD: field=uniform    # field coordinate layout
AVSFLD: label= x y z vdW Elec q RMS
AVSFLD: variable 1 file = D:/Protein_go_brrr/autodock/final/2DN3/2_3_BPG/dock.dlg.pdb filetype = ascii offset = 5 stride = 12
AVSFLD: variable 2 file = D:/Protein_go_brrr/autodock/final/2DN3/2_3_BPG/dock.dlg.pdb filetype = ascii offset = 6 stride = 12
AVSFLD: variable 3 file = D:/Protein_go_brrr/autodock/final/2DN3/2_3_BPG/dock.dlg.pdb filetype = ascii offset = 7 stride = 12
AVSFLD: variable 4 file = D:/Protein_go_brrr/autodock/final/2DN3/2_3_BPG/dock.dlg.pdb filetype = ascii offset = 8 stride = 12
AVSFLD: variable 5 file = D:/Protein_go_brrr/autodock/final/2DN3/2_3_BPG/dock.dlg.pdb filetype = ascii offset = 9 stride = 12
AVSFLD: variable 6 file = D:/Protein_go_brrr/autodock/final/2DN3/2_3_BPG/dock.dlg.pdb filetype = ascii offset = 10 stride = 12
AVSFLD: variable 7 file = D:/Protein_go_brrr/autodock/final/2DN3/2_3_BPG/dock.dlg.pdb filetype = ascii offset = 11 stride = 12
AVSFLD: # end of file

>>> Closing the docking parameter file (DPF)...
This docking finished at:			10:37 43" p.m., 09/26/2025


________________________________________________________________________________

D:/autodockScripts/autodock4.exe: Successful Completion on "ACER"

Real= 4h 36m 46.66s,  CPU= 3m 52.27s,  System= 34.03s
________________________________________________________________________________

