          AutoDock 4.2 Release 4.2.6   
         (C) 1989-2012 The Scripps Research Institute
        AutoDock comes with ABSOLUTELY NO WARRANTY.
        AutoDock is free software, and you are welcome
        to redistribute it under certain conditions;
        for details type 'autodock4 -C'

                     main.cc  $Revision: 1.213 $

                   Compiled on Jul 18 2014 at 15:34:58


This file was created at:			12:16 24" p.m., 01/17/2026
                   on host:		"ACER"
Current Working Directory = "D:\Protein_go_brrr\autodock\final\6BB5\heme_O2"

      ________________________________________________________________

                   SETTING UP DEFAULT PARAMETER LIBRARY
      ________________________________________________________________


Random number generator was seeded with values 44064, 1768648584.
Docking parameter file (DPF) used for this docking:		D:/Protein_go_brrr/autodock/final/6BB5/heme_O2/dock.dpf
DPF> autodock_parameter_version 4.2       # used by autodock to validate parameter set

	Autodock parameter version 4.2.
DPF> outlev 1                             # diagnostic output level

Output Level = 1  ADT-COMPATIBLE OUTPUT DURING DOCKING.
DPF> intelec                              # calculate internal electrostatics

Electrostatic energies will be calculated for all non-bonds between moving atoms.
DPF> seed pid time                        # seeds for random generator

Random number generator was seeded with values 44064, 1768648584.
DPF> ligand_types A C OA N Fe HD          # atoms types in ligand

DPF> fld opt_6BB5.maps.fld                # grid_data_file

Opening Grid Map Dimensions file:		opt_6BB5.maps.fld
Grid Point Spacing =				0.547 Angstroms

Even Number of User-specified Grid Points =	126 x-points
						126 y-points
						126 z-points

Coordinates of Central Grid Point of Maps =	(23.343, 33.533, 11.432)
Macromolecule file used to create Grid Maps =	opt_6BB5.pdbqt
Grid Parameter file used to create Grid Maps =	D:/Protein_go_brrr/autodock/final/6BB5/heme_O2/grid.gpf
Minimum coordinates in grid = (-11.118, -0.928, -23.029)
Maximum coordinates in grid = (57.804, 67.994, 45.893)

DPF> map opt_6BB5.A.map                   # atom-specific affinity map

DPF> map opt_6BB5.C.map                   # atom-specific affinity map

DPF> map opt_6BB5.OA.map                  # atom-specific affinity map

DPF> map opt_6BB5.N.map                   # atom-specific affinity map

DPF> map opt_6BB5.Fe.map                  # atom-specific affinity map

DPF> map opt_6BB5.HD.map                  # atom-specific affinity map

DPF> elecmap opt_6BB5.e.map               # electrostatics map

DPF> desolvmap opt_6BB5.d.map             # desolvation map

DPF> move heme_O2_opt.pdbqt               # small molecule

1,4-interactions will be _ignored_ in the non-bonded internal energy calculation.

Ligand PDBQT file = "heme_O2_opt.pdbqt"

INPUT LIGAND PDBQT FILE:
________________________

INPUT-LIGAND-PDBQT: REMARK  10 active torsions:
INPUT-LIGAND-PDBQT: REMARK  status: ('A' for Active; 'I' for Inactive)
INPUT-LIGAND-PDBQT: REMARK    1  A    between atoms: C_6  and  C_10 
INPUT-LIGAND-PDBQT: REMARK    2  A    between atoms: C_10  and  C_11 
INPUT-LIGAND-PDBQT: REMARK    3  A    between atoms: C_11  and  C_12 
INPUT-LIGAND-PDBQT: REMARK    4  A    between atoms: C_12  and  O_14 
INPUT-LIGAND-PDBQT: REMARK    5  A    between atoms: C_17  and  C_20 
INPUT-LIGAND-PDBQT: REMARK    6  A    between atoms: C_24  and  C_27 
INPUT-LIGAND-PDBQT: REMARK    7  A    between atoms: C_31  and  C_34 
INPUT-LIGAND-PDBQT: REMARK    8  A    between atoms: C_34  and  C_35 
INPUT-LIGAND-PDBQT: REMARK    9  A    between atoms: C_35  and  C_36 
INPUT-LIGAND-PDBQT: REMARK   10  A    between atoms: C_36  and  O_38 
INPUT-LIGAND-PDBQT: ROOT
INPUT-LIGAND-PDBQT: ATOM      1  C   UNL d   1       6.417  35.070  -1.470  0.00  0.00     0.064 A 
INPUT-LIGAND-PDBQT: ATOM      2  C   UNL d   1       7.592  32.343   2.237  0.00  0.00     0.064 A 
INPUT-LIGAND-PDBQT: ATOM      3  C   UNL d   1      12.269  32.904   1.285  0.00  0.00     0.064 C 
INPUT-LIGAND-PDBQT: ATOM      4  C   UNL d   1      11.084  36.099  -2.244  0.00  0.00     0.064 A 
INPUT-LIGAND-PDBQT: ATOM      5  C   UNL d   1       6.355  34.284  -0.383  0.00  0.00     0.066 A 
INPUT-LIGAND-PDBQT: ATOM      6  C   UNL d   1       5.162  33.858   0.208  0.00  0.00    -0.021 A 
INPUT-LIGAND-PDBQT: ATOM      7  C   UNL d   1       5.501  33.104   1.307  0.00  0.00    -0.025 A 
INPUT-LIGAND-PDBQT: ATOM      8  C   UNL d   1       6.892  33.050   1.329  0.00  0.00     0.066 A 
INPUT-LIGAND-PDBQT: ATOM      9  C   UNL d   1       4.513  32.505   2.284  0.00  0.00     0.051 C 
INPUT-LIGAND-PDBQT: ATOM     10  C   UNL d   1       9.050  32.230   2.297  0.00  0.00     0.066 A 
INPUT-LIGAND-PDBQT: ATOM     11  C   UNL d   1       9.719  31.353   3.158  0.00  0.00    -0.021 A 
INPUT-LIGAND-PDBQT: ATOM     12  C   UNL d   1      11.068  31.487   2.886  0.00  0.00     0.000 A 
INPUT-LIGAND-PDBQT: ATOM     13  C   UNL d   1      11.148  32.469   1.860  0.00  0.00     0.070 A 
INPUT-LIGAND-PDBQT: ATOM     14  C   UNL d   1       9.096  30.407   4.178  0.00  0.00     0.052 C 
INPUT-LIGAND-PDBQT: ATOM     15  C   UNL d   1      12.395  33.921   0.269  0.00  0.00     0.066 A 
INPUT-LIGAND-PDBQT: ATOM     16  C   UNL d   1      13.607  34.449  -0.175  0.00  0.00    -0.021 A 
INPUT-LIGAND-PDBQT: ATOM     17  C   UNL d   1      13.294  35.363  -1.181  0.00  0.00     0.000 A 
INPUT-LIGAND-PDBQT: ATOM     18  C   UNL d   1      11.896  35.322  -1.278  0.00  0.00     0.070 A 
INPUT-LIGAND-PDBQT: ATOM     19  C   UNL d   1      14.937  34.079   0.432  0.00  0.00     0.052 C 
INPUT-LIGAND-PDBQT: ATOM     20  C   UNL d   1       9.740  36.116  -2.335  0.00  0.00     0.066 A 
INPUT-LIGAND-PDBQT: ATOM     21  C   UNL d   1       9.031  36.855  -3.278  0.00  0.00    -0.025 A 
INPUT-LIGAND-PDBQT: ATOM     22  C   UNL d   1       7.701  36.553  -3.090  0.00  0.00    -0.021 A 
INPUT-LIGAND-PDBQT: ATOM     23  C   UNL d   1       7.646  35.651  -2.023  0.00  0.00     0.066 A 
INPUT-LIGAND-PDBQT: ATOM     24  C   UNL d   1       9.594  37.804  -4.304  0.00  0.00     0.051 C 
INPUT-LIGAND-PDBQT: ATOM     25  N   UNL d   1       7.418  33.831   0.326  0.00  0.00    -0.248 N 
INPUT-LIGAND-PDBQT: ATOM     26  N   UNL d   1       9.916  32.919   1.511  0.00  0.00    -0.248 N 
INPUT-LIGAND-PDBQT: ATOM     27  N   UNL d   1      11.363  34.498  -0.340  0.00  0.00    -0.248 N 
INPUT-LIGAND-PDBQT: ATOM     28  N   UNL d   1       8.884  35.423  -1.538  0.00  0.00    -0.248 N 
INPUT-LIGAND-PDBQT: ATOM     29 FE   UNL d   1       9.399  34.181  -0.025  0.00  0.00     0.000 Fe
INPUT-LIGAND-PDBQT: ATOM     30  O   UNL d   1       8.866  34.841   1.280  0.00  0.00     0.000 OA
INPUT-LIGAND-PDBQT: ATOM     31  O   UNL d   1       9.881  35.626   0.366  0.00  0.00     0.000 OA
INPUT-LIGAND-PDBQT: ENDROOT
INPUT-LIGAND-PDBQT: BRANCH   6  32
INPUT-LIGAND-PDBQT: ATOM     32  C   UNL d   1       3.756  34.255  -0.161  0.00  0.00     0.052 C 
INPUT-LIGAND-PDBQT: BRANCH  32  33
INPUT-LIGAND-PDBQT: ATOM     33  C   UNL d   1       3.190  33.429  -1.312  0.00  0.00     0.115 C 
INPUT-LIGAND-PDBQT: BRANCH  33  34
INPUT-LIGAND-PDBQT: ATOM     34  C   UNL d   1       1.764  33.798  -1.638  0.00  0.00     0.139 C 
INPUT-LIGAND-PDBQT: ATOM     35  O   UNL d   1       1.015  32.956  -2.107  0.00  0.00    -0.650 OA
INPUT-LIGAND-PDBQT: BRANCH  34  36
INPUT-LIGAND-PDBQT: ATOM     36  O   UNL d   1       1.301  35.051  -1.449  0.00  0.00    -0.776 OA
INPUT-LIGAND-PDBQT: ATOM     37  H   UNL d   1       1.861  35.756  -1.104  0.00  0.00     0.167 HD
INPUT-LIGAND-PDBQT: ENDBRANCH  34  36
INPUT-LIGAND-PDBQT: ENDBRANCH  33  34
INPUT-LIGAND-PDBQT: ENDBRANCH  32  33
INPUT-LIGAND-PDBQT: ENDBRANCH   6  32
INPUT-LIGAND-PDBQT: BRANCH  22  38
INPUT-LIGAND-PDBQT: ATOM     38  C   UNL d   1       6.548  37.151  -3.854  0.00  0.00     0.052 C 
INPUT-LIGAND-PDBQT: BRANCH  38  39
INPUT-LIGAND-PDBQT: ATOM     39  C   UNL d   1       6.010  36.208  -4.928  0.00  0.00     0.115 C 
INPUT-LIGAND-PDBQT: BRANCH  39  40
INPUT-LIGAND-PDBQT: ATOM     40  C   UNL d   1       4.838  36.794  -5.675  0.00  0.00     0.139 C 
INPUT-LIGAND-PDBQT: ATOM     41  O   UNL d   1       4.700  36.561  -6.865  0.00  0.00    -0.650 OA
INPUT-LIGAND-PDBQT: BRANCH  40  42
INPUT-LIGAND-PDBQT: ATOM     42  O   UNL d   1       3.907  37.532  -5.040  0.00  0.00    -0.776 OA
INPUT-LIGAND-PDBQT: ATOM     43  H   UNL d   1       3.982  37.740  -4.101  0.00  0.00     0.167 HD
INPUT-LIGAND-PDBQT: ENDBRANCH  40  42
INPUT-LIGAND-PDBQT: ENDBRANCH  39  40
INPUT-LIGAND-PDBQT: ENDBRANCH  38  39
INPUT-LIGAND-PDBQT: ENDBRANCH  22  38
INPUT-LIGAND-PDBQT: BRANCH  12  44
INPUT-LIGAND-PDBQT: ATOM     44  C   UNL d   1      12.120  30.683   3.621  0.00  0.00     0.004 C 
INPUT-LIGAND-PDBQT: ATOM     45  C   UNL d   1      13.434  30.659   3.401  0.00  0.00     0.012 C 
INPUT-LIGAND-PDBQT: ENDBRANCH  12  44
INPUT-LIGAND-PDBQT: BRANCH  17  46
INPUT-LIGAND-PDBQT: ATOM     46  C   UNL d   1      14.171  36.282  -1.989  0.00  0.00     0.004 C 
INPUT-LIGAND-PDBQT: ATOM     47  C   UNL d   1      15.480  36.522  -1.839  0.00  0.00     0.012 C 
INPUT-LIGAND-PDBQT: ENDBRANCH  17  46
INPUT-LIGAND-PDBQT: TORSDOF 10
________________________________________________________________________________

Total charge on ligand                               =	-2.002 e
REMARK  10 active torsions:
REMARK  status: ('A' for Active; 'I' for Inactive)
REMARK    1  A    between atoms: C_6  and  C_10 
REMARK    2  A    between atoms: C_10  and  C_11 
REMARK    3  A    between atoms: C_11  and  C_12 
REMARK    4  A    between atoms: C_12  and  O_14 
REMARK    5  A    between atoms: C_17  and  C_20 
REMARK    6  A    between atoms: C_24  and  C_27 
REMARK    7  A    between atoms: C_31  and  C_34 
REMARK    8  A    between atoms: C_34  and  C_35 
REMARK    9  A    between atoms: C_35  and  C_36 
REMARK   10  A    between atoms: C_36  and  O_38 


Number of Rotatable Bonds in Small Molecule =	10 torsions
Number of atoms in ligand:  47

Number of non-hydrogen atoms in ligand:  45

Number of vibrational degrees of freedom of ligand:  135


Number of torsional degrees of freedom = 10
Estimated loss of torsional free energy upon binding = +2.9830 kcal/mol


DPF> about 8.287 34.468 -0.670            # small molecule center

Small molecule center of rotation =	(+8.287, +34.468, -0.670)

DPF> tran0 random                         # initial coordinates/A or random

Initial translation =			(5.768, 8.433, 13.579) Angstroms
DPF> quaternion0 random                   # initial orientation

Each run will begin with a new, random initial orientation.
Initial quaternion,  (x,y,z,w) =	( -0.606, -0.381, -0.687, -0.128 ),
DPF> dihe0 random                         # initial dihedrals (relative) or random

DPF> torsdof 10                            # torsional degrees of freedom

Number of torsional degrees of freedom = 10
Free energy coefficient for torsional degrees of freedom = 0.2983, the factory default value.

Estimated loss of torsional free energy upon binding = +2.9830 kcal/mol

DPF> rmstol 2.0                           # cluster_tolerance/A

Maximum RMS tolerance for conformational cluster analysis = 2.00 Angstroms
DPF> extnrg 1000.0                        # external grid energy

External grid energy (beyond grid map walls) = 1000.00

DPF> e0max 0.0 10000                      # max initial energy; max number of retries

Using user-specified maximum number of retries for simanneal initialization, 10000 retries.
If the simanneal initial energy is greater than e0max, 0.000,
then a new, random initial state will be created.

DPF> ga_pop_size 150                      # number of individuals in population

A population of 150 individuals will be used
DPF> ga_num_evals 25000000                # maximum number of energy evaluations

There will be at most 25000000 function evaluations used.
DPF> ga_num_generations 27000             # maximum number of generations

The GA will run for at most 27000 generations.
DPF> ga_elitism 1                         # number of top individuals to survive to next generation

The 1 best will be preserved each GA generation.
DPF> ga_mutation_rate 0.02                # rate of gene mutation

The mutation rate is 0.020000.
DPF> ga_crossover_rate 0.8                # rate of crossover

The crossover rate is 0.800000.
DPF> ga_window_size 10                    # 

The GA's selection window is 10 generations.
DPF> ga_cauchy_alpha 0.0                  # Alpha parameter of Cauchy distribution

The alpha parameter (for the Cauchy distribution) is being set to 0.000000.
DPF> ga_cauchy_beta 1.0                   # Beta parameter Cauchy distribution

The beta parameter (for the Cauchy distribution) is being set to 1.000000.
DPF> set_ga                               # set the above parameters for GA or LGA

DPF> sw_max_its 300                       # iterations of Solis & Wets local search

Solis & Wets algorithms will perform at most 300 iterations.
DPF> sw_max_succ 4                        # consecutive successes before changing rho

Solis & Wets algorithms expand rho every 4 in a row successes.
DPF> sw_max_fail 4                        # consecutive failures before changing rho

Solis & Wets algorithms contract rho every 4 in a row failures.
DPF> sw_rho 1.0                           # size of local search space to sample

rho is set to 1.000000.
DPF> sw_lb_rho 0.01                       # lower bound on rho

rho will never get smaller than 0.010000.
DPF> ls_search_freq 0.06                  # probability of performing local search on individual

Local search will be performed with frequency 0.060000.
DPF> set_psw1                             # set the above pseudo-Solis & Wets parameters

Creating a new Local Search object using the pseudo-Solis-Wets algorithm (pSW1) with the current settings.

DPF> unbound_model bound                  # state of unbound ligand

DPF> ga_run 100                           # do this many hybrid GA-LS runs

centering ligand on specified point: 8.287 34.468 -0.670
Furthest true ligand atom from "about" center is 7.588 Angstroms (maxrad).
Number of requested GA dockings = 100 runs
Unbound model to be used is 'same as bound' [AutoDock 4.2 default].

	BEGINNING GENETIC ALGORITHM DOCKING 1 of 100
Run: 1 Seed: 1579724101 1541730901 [ Run 1 of 100 GA/GALS ]
Beginning LAMARCKIAN GENETIC ALGORITHM (LGA), with a maximum of 25000000 energy evaluations.

Final-Value: -11.262


	FINAL GENETIC ALGORITHM DOCKED STATE
	_______________________________________________


Detailed state:  trans 37.163 30.011 -0.650 quatxyzw -0.464346 -0.139191 -0.117485 0.866721 center 8.287 34.468 -0.670 ntor 10 112.8972 130.5960 -27.0160 135.7542 -155.5115 -4.2102 -51.6296 79.8912 -179.9913 -177.9167
State:	 37.163  30.011  -0.650  -0.931 -0.279 -0.236 59.840    112.90  130.60  -27.02  135.75 -155.51   -4.21  -51.63   79.89 -179.99 -177.92

DOCKED: MODEL        1
DOCKED: USER    Run = 1
DOCKED: USER    DPF = D:/Protein_go_brrr/autodock/final/6BB5/heme_O2/dock.dpf
DOCKED: USER  
DOCKED: USER    Estimated Free Energy of Binding    =   -5.75 kcal/mol  [=(1)+(2)+(3)-(4)]
DOCKED: USER    Estimated Inhibition Constant, Ki   =   60.92 uM (micromolar)  [Temperature = 298.15 K]
DOCKED: USER    
DOCKED: USER    (1) Final Intermolecular Energy     =   -8.73 kcal/mol
DOCKED: USER        vdW + Hbond + desolv Energy     =   -6.99 kcal/mol
DOCKED: USER        Electrostatic Energy            =   -1.74 kcal/mol
DOCKED: USER    (2) Final Total Internal Energy     =   -2.53 kcal/mol
DOCKED: USER    (3) Torsional Free Energy           =   +2.98 kcal/mol
DOCKED: USER    (4) Unbound System's Energy  [=(2)] =   -2.53 kcal/mol
DOCKED: USER    
DOCKED: USER    
DOCKED: USER    NEWDPF move heme_O2_opt.pdbqt
DOCKED: USER    NEWDPF about 8.287000 34.468000 -0.670000
DOCKED: USER    NEWDPF tran0 37.162819 30.010662 -0.650141
DOCKED: USER    NEWDPF quaternion0 -0.464346 -0.139191 -0.117485 0.866721
DOCKED: USER    NEWDPF axisangle0 -0.930940 -0.279056 -0.235538 59.840282
DOCKED: USER    NEWDPF quat0 -0.930940 -0.279056 -0.235538 59.840282
DOCKED: USER    NEWDPF dihe0 112.90 130.60 -27.02 135.75 -155.51 -4.21 -51.63 79.89 -179.99 -177.92 
DOCKED: USER  keepresnum = 1 
DOCKED: USER  
DOCKED: REMARK  10 active torsions:
DOCKED: REMARK  status: ('A' for Active; 'I' for Inactive)
DOCKED: REMARK    1  A    between atoms: C_6  and  C_10 
DOCKED: REMARK    2  A    between atoms: C_10  and  C_11 
DOCKED: REMARK    3  A    between atoms: C_11  and  C_12 
DOCKED: REMARK    4  A    between atoms: C_12  and  O_14 
DOCKED: REMARK    5  A    between atoms: C_17  and  C_20 
DOCKED: REMARK    6  A    between atoms: C_24  and  C_27 
DOCKED: REMARK    7  A    between atoms: C_31  and  C_34 
DOCKED: REMARK    8  A    between atoms: C_34  and  C_35 
DOCKED: REMARK    9  A    between atoms: C_35  and  C_36 
DOCKED: REMARK   10  A    between atoms: C_36  and  O_38 
DOCKED: USER                              x       y       z     vdW  Elec       q    Type
DOCKED: USER                           _______ _______ _______ _____ _____    ______ ____
DOCKED: ROOT
DOCKED: ATOM      1  C   UNL d   1      35.092  30.332  -0.323 -0.08 +0.01    +0.064 A 
DOCKED: ATOM      2  C   UNL d   1      37.691  26.384  -0.797 -0.13 -0.00    +0.064 A 
DOCKED: ATOM      3  C   UNL d   1      41.682  28.980  -1.450 -0.24 -0.00    +0.064 C 
DOCKED: ATOM      4  C   UNL d   1      39.101  33.040  -0.488 -0.18 -0.00    +0.064 A 
DOCKED: ATOM      5  C   UNL d   1      35.473  29.046  -0.397 -0.11 +0.00    +0.066 A 
DOCKED: ATOM      6  C   UNL d   1      34.598  27.962  -0.283 -0.14 -0.00    -0.021 A 
DOCKED: ATOM      7  C   UNL d   1      35.356  26.818  -0.377 -0.14 +0.00    -0.025 A 
DOCKED: ATOM      8  C   UNL d   1      36.666  27.235  -0.594 -0.10 -0.00    +0.066 A 
DOCKED: ATOM      9  C   UNL d   1      34.820  25.411  -0.230 -0.19 -0.01    +0.051 C 
DOCKED: ATOM     10  C   UNL d   1      39.081  26.762  -1.053 -0.18 -0.00    +0.066 A 
DOCKED: ATOM     11  C   UNL d   1      40.073  25.846  -1.420 -0.17 -0.00    -0.021 A 
DOCKED: ATOM     12  C   UNL d   1      41.227  26.577  -1.630 -0.18 +0.00    +0.000 A 
DOCKED: ATOM     13  C   UNL d   1      40.869  27.928  -1.362 -0.15 +0.00    +0.070 A 
DOCKED: ATOM     14  C   UNL d   1      39.919  24.339  -1.589 -0.09 -0.00    +0.052 C 
DOCKED: ATOM     15  C   UNL d   1      41.368  30.357  -1.154 -0.26 -0.01    +0.066 A 
DOCKED: ATOM     16  C   UNL d   1      42.305  31.389  -1.107 -0.32 +0.00    -0.021 A 
DOCKED: ATOM     17  C   UNL d   1      41.592  32.557  -0.833 -0.25 -0.00    +0.000 A 
DOCKED: ATOM     18  C   UNL d   1      40.256  32.144  -0.734 -0.21 -0.01    +0.070 A 
DOCKED: ATOM     19  C   UNL d   1      43.787  31.163  -1.271 -0.38 -0.01    +0.052 C 
DOCKED: ATOM     20  C   UNL d   1      37.813  32.672  -0.344 -0.13 -0.00    +0.066 A 
DOCKED: ATOM     21  C   UNL d   1      36.766  33.564  -0.131 -0.12 +0.00    -0.025 A 
DOCKED: ATOM     22  C   UNL d   1      35.613  32.813  -0.109 -0.07 -0.00    -0.021 A 
DOCKED: ATOM     23  C   UNL d   1      36.002  31.482  -0.292 -0.07 +0.00    +0.066 A 
DOCKED: ATOM     24  C   UNL d   1      36.862  35.057   0.045 -0.17 -0.00    +0.051 C 
DOCKED: ATOM     25  N   UNL d   1      36.748  28.608  -0.541 -0.09 -0.01    -0.248 N 
DOCKED: ATOM     26  N   UNL d   1      39.563  28.031  -1.007 -0.13 +0.00    -0.248 N 
DOCKED: ATOM     27  N   UNL d   1      40.148  30.796  -0.857 -0.14 +0.02    -0.248 N 
DOCKED: ATOM     28  N   UNL d   1      37.345  31.397  -0.389 -0.06 +0.01    -0.248 N 
DOCKED: ATOM     29 FE   UNL d   1      38.448  29.727  -0.696 -0.04 -0.00    +0.000 Fe
DOCKED: ATOM     30  O   UNL d   1      38.359  28.899   0.619 -0.32 -0.00    +0.000 OA
DOCKED: ATOM     31  O   UNL d   1      38.928  30.368   0.658 -0.45 -0.00    +0.000 OA
DOCKED: ENDROOT
DOCKED: BRANCH   6  32
DOCKED: ATOM     32  C   UNL d   1      33.127  27.994   0.040 -0.16 +0.01    +0.052 C 
DOCKED: BRANCH  32  33
DOCKED: ATOM     33  C   UNL d   1      32.840  27.766   1.521 -0.30 +0.02    +0.115 C 
DOCKED: BRANCH  33  34
DOCKED: ATOM     34  C   UNL d   1      31.989  28.859   2.118 -0.33 +0.08    +0.139 C 
DOCKED: ATOM     35  O   UNL d   1      30.926  29.151   1.593 -0.27 -0.91    -0.650 OA
DOCKED: BRANCH  34  36
DOCKED: ATOM     36  O   UNL d   1      32.390  29.547   3.207 -0.02 -0.39    -0.776 OA
DOCKED: ATOM     37  H   UNL d   1      32.609  30.485   3.167 +0.07 +0.10    +0.167 HD
DOCKED: ENDBRANCH  34  36
DOCKED: ENDBRANCH  33  34
DOCKED: ENDBRANCH  32  33
DOCKED: ENDBRANCH   6  32
DOCKED: BRANCH  22  38
DOCKED: ATOM     38  C   UNL d   1      34.224  33.342   0.139 -0.06 +0.01    +0.052 C 
DOCKED: BRANCH  38  39
DOCKED: ATOM     39  C   UNL d   1      33.977  33.660   1.613 -0.12 +0.02    +0.115 C 
DOCKED: BRANCH  39  40
DOCKED: ATOM     40  C   UNL d   1      33.180  32.584   2.308 -0.16 +0.06    +0.139 C 
DOCKED: ATOM     41  O   UNL d   1      33.468  32.258   3.448 +0.04 -0.21    -0.650 OA
DOCKED: BRANCH  40  42
DOCKED: ATOM     42  O   UNL d   1      32.118  32.010   1.711 +0.19 -0.69    -0.776 OA
DOCKED: ATOM     43  H   UNL d   1      31.998  31.052   1.707 +0.04 +0.18    +0.167 HD
DOCKED: ENDBRANCH  40  42
DOCKED: ENDBRANCH  39  40
DOCKED: ENDBRANCH  38  39
DOCKED: ENDBRANCH  22  38
DOCKED: BRANCH  12  44
DOCKED: ATOM     44  C   UNL d   1      42.527  25.925  -2.053 -0.15 +0.00    +0.004 C 
DOCKED: ATOM     45  C   UNL d   1      43.493  26.441  -2.811 -0.18 +0.00    +0.012 C 
DOCKED: ENDBRANCH  12  44
DOCKED: BRANCH  17  46
DOCKED: ATOM     46  C   UNL d   1      42.059  33.970  -0.607 -0.12 +0.00    +0.004 C 
DOCKED: ATOM     47  C   UNL d   1      41.624  35.091  -1.197 -0.17 +0.00    +0.012 C 
DOCKED: ENDBRANCH  17  46
DOCKED: TORSDOF 10
DOCKED: TER
DOCKED: ENDMDL
________________________________________________________________________________


	BEGINNING GENETIC ALGORITHM DOCKING 2 of 100
Run: 2 Seed: 526147455 291680693 [ Run 2 of 100 GA/GALS ]
Beginning LAMARCKIAN GENETIC ALGORITHM (LGA), with a maximum of 25000000 energy evaluations.

Final-Value: -19.324


	FINAL GENETIC ALGORITHM DOCKED STATE
	_______________________________________________


Detailed state:  trans 8.312 34.675 -0.889 quatxyzw -0.008549 -0.008118 -0.009637 -0.999884 center 8.287 34.468 -0.670 ntor 10 -112.6866 155.6173 -2.7047 -49.6300 -26.3972 17.8458 -39.7320 70.4005 -165.0501 -173.3999
State:	  8.312  34.675  -0.889  -0.561 -0.533 -0.633 -1.745   -112.69  155.62   -2.70  -49.63  -26.40   17.85  -39.73   70.40 -165.05 -173.40

DOCKED: MODEL        2
DOCKED: USER    Run = 2
DOCKED: USER    DPF = D:/Protein_go_brrr/autodock/final/6BB5/heme_O2/dock.dpf
DOCKED: USER  
DOCKED: USER    Estimated Free Energy of Binding    =  -14.40 kcal/mol  [=(1)+(2)+(3)-(4)]
DOCKED: USER    Estimated Inhibition Constant, Ki   =   27.81 pM (picomolar)  [Temperature = 298.15 K]
DOCKED: USER    
DOCKED: USER    (1) Final Intermolecular Energy     =  -17.38 kcal/mol
DOCKED: USER        vdW + Hbond + desolv Energy     =  -15.96 kcal/mol
DOCKED: USER        Electrostatic Energy            =   -1.42 kcal/mol
DOCKED: USER    (2) Final Total Internal Energy     =   -1.94 kcal/mol
DOCKED: USER    (3) Torsional Free Energy           =   +2.98 kcal/mol
DOCKED: USER    (4) Unbound System's Energy  [=(2)] =   -1.94 kcal/mol
DOCKED: USER    
DOCKED: USER    
DOCKED: USER    NEWDPF move heme_O2_opt.pdbqt
DOCKED: USER    NEWDPF about 8.287000 34.468000 -0.670000
DOCKED: USER    NEWDPF tran0 8.311540 34.675442 -0.888892
DOCKED: USER    NEWDPF quaternion0 -0.008549 -0.008118 -0.009637 -0.999884
DOCKED: USER    NEWDPF axisangle0 -0.561442 -0.533163 -0.632867 -1.744929
DOCKED: USER    NEWDPF quat0 -0.561442 -0.533163 -0.632867 -1.744929
DOCKED: USER    NEWDPF dihe0 -112.69 155.62 -2.70 -49.63 -26.40 17.85 -39.73 70.40 -165.05 -173.40 
DOCKED: USER  keepresnum = 1 
DOCKED: USER  
DOCKED: REMARK  10 active torsions:
DOCKED: REMARK  status: ('A' for Active; 'I' for Inactive)
DOCKED: REMARK    1  A    between atoms: C_6  and  C_10 
DOCKED: REMARK    2  A    between atoms: C_10  and  C_11 
DOCKED: REMARK    3  A    between atoms: C_11  and  C_12 
DOCKED: REMARK    4  A    between atoms: C_12  and  O_14 
DOCKED: REMARK    5  A    between atoms: C_17  and  C_20 
DOCKED: REMARK    6  A    between atoms: C_24  and  C_27 
DOCKED: REMARK    7  A    between atoms: C_31  and  C_34 
DOCKED: REMARK    8  A    between atoms: C_34  and  C_35 
DOCKED: REMARK    9  A    between atoms: C_35  and  C_36 
DOCKED: REMARK   10  A    between atoms: C_36  and  O_38 
DOCKED: USER                              x       y       z     vdW  Elec       q    Type
DOCKED: USER                           _______ _______ _______ _____ _____    ______ ____
DOCKED: ROOT
DOCKED: ATOM      1  C   UNL d   1       6.467  35.299  -1.730 -0.17 +0.01    +0.064 A 
DOCKED: ATOM      2  C   UNL d   1       7.529  32.615   2.042 -0.39 +0.00    +0.064 A 
DOCKED: ATOM      3  C   UNL d   1      12.231  33.070   1.157 -0.44 +0.00    +0.064 C 
DOCKED: ATOM      4  C   UNL d   1      11.165  36.225  -2.444 -0.44 +0.00    +0.064 A 
DOCKED: ATOM      5  C   UNL d   1       6.372  34.533  -0.631 -0.25 +0.01    +0.066 A 
DOCKED: ATOM      6  C   UNL d   1       5.162  34.141  -0.052 -0.29 -0.00    -0.021 A 
DOCKED: ATOM      7  C   UNL d   1       5.468  33.399   1.065 -0.35 -0.00    -0.025 A 
DOCKED: ATOM      8  C   UNL d   1       6.857  33.319   1.111 -0.35 +0.01    +0.066 A 
DOCKED: ATOM      9  C   UNL d   1       4.453  32.836   2.036 -0.41 +0.00    +0.051 C 
DOCKED: ATOM     10  C   UNL d   1       8.983  32.475   2.128 -0.38 +0.00    +0.066 A 
DOCKED: ATOM     11  C   UNL d   1       9.621  31.600   3.014 -0.45 -0.00    -0.021 A 
DOCKED: ATOM     12  C   UNL d   1      10.977  31.704   2.762 -0.43 +0.00    +0.000 A 
DOCKED: ATOM     13  C   UNL d   1      11.092  32.666   1.721 -0.37 +0.00    +0.070 A 
DOCKED: ATOM     14  C   UNL d   1       8.964  30.684   4.040 -0.59 +0.00    +0.052 C 
DOCKED: ATOM     15  C   UNL d   1      12.393  34.066   0.126 -0.37 +0.00    +0.066 A 
DOCKED: ATOM     16  C   UNL d   1      13.622  34.563  -0.306 -0.44 -0.00    -0.021 A 
DOCKED: ATOM     17  C   UNL d   1      13.343  35.466  -1.333 -0.46 +0.00    +0.000 A 
DOCKED: ATOM     18  C   UNL d   1      11.946  35.450  -1.452 -0.39 +0.00    +0.070 A 
DOCKED: ATOM     19  C   UNL d   1      14.934  34.178   0.328 -0.60 +0.00    +0.052 C 
DOCKED: ATOM     20  C   UNL d   1       9.823  36.266  -2.558 -0.41 +0.00    +0.066 A 
DOCKED: ATOM     21  C   UNL d   1       9.144  37.002  -3.524 -0.40 +0.00    -0.025 A 
DOCKED: ATOM     22  C   UNL d   1       7.805  36.729  -3.353 -0.32 -0.00    -0.021 A 
DOCKED: ATOM     23  C   UNL d   1       7.715  35.847  -2.272 -0.32 +0.01    +0.066 A 
DOCKED: ATOM     24  C   UNL d   1       9.741  37.923  -4.557 -0.48 -0.01    +0.051 C 
DOCKED: ATOM     25  N   UNL d   1       7.414  34.072   0.103 -0.18 -0.04    -0.248 N 
DOCKED: ATOM     26  N   UNL d   1       9.875  33.133   1.344 -0.14 -0.02    -0.248 N 
DOCKED: ATOM     27  N   UNL d   1      11.382  34.652  -0.509 -0.18 -0.03    -0.248 N 
DOCKED: ATOM     28  N   UNL d   1       8.941  35.604  -1.763 -0.23 -0.04    -0.248 N 
DOCKED: ATOM     29 FE   UNL d   1       9.407  34.378  -0.221 +0.03 +0.00    +0.000 Fe
DOCKED: ATOM     30  O   UNL d   1       8.866  35.071   1.064 -0.79 +0.00    +0.000 OA
DOCKED: ATOM     31  O   UNL d   1       9.911  35.820   0.153 -1.03 +0.00    +0.000 OA
DOCKED: ENDROOT
DOCKED: BRANCH   6  32
DOCKED: ATOM     32  C   UNL d   1       3.770  34.558  -0.451 -0.24 +0.01    +0.052 C 
DOCKED: BRANCH  32  33
DOCKED: ATOM     33  C   UNL d   1       3.377  35.922   0.109 -0.06 +0.06    +0.115 C 
DOCKED: BRANCH  33  34
DOCKED: ATOM     34  C   UNL d   1       2.644  36.769  -0.901 -0.17 +0.10    +0.139 C 
DOCKED: ATOM     35  O   UNL d   1       2.311  37.906  -0.607 -0.49 -0.97    -0.650 OA
DOCKED: BRANCH  34  36
DOCKED: ATOM     36  O   UNL d   1       2.320  36.288  -2.120 +0.04 -0.30    -0.776 OA
DOCKED: ATOM     37  H   UNL d   1       2.727  36.626  -2.926 +0.03 +0.05    +0.167 HD
DOCKED: ENDBRANCH  34  36
DOCKED: ENDBRANCH  33  34
DOCKED: ENDBRANCH  32  33
DOCKED: ENDBRANCH   6  32
DOCKED: BRANCH  22  38
DOCKED: ATOM     38  C   UNL d   1       6.676  37.336  -4.146 -0.24 +0.00    +0.052 C 
DOCKED: BRANCH  38  39
DOCKED: ATOM     39  C   UNL d   1       6.450  38.807  -3.804 -0.21 +0.01    +0.115 C 
DOCKED: BRANCH  39  40
DOCKED: ATOM     40  C   UNL d   1       5.152  39.034  -3.068 -0.18 +0.03    +0.139 C 
DOCKED: ATOM     41  O   UNL d   1       4.979  40.073  -2.453 -0.02 -0.19    -0.650 OA
DOCKED: BRANCH  40  42
DOCKED: ATOM     42  O   UNL d   1       4.156  38.129  -3.120 +0.06 -0.21    -0.776 OA
DOCKED: ATOM     43  H   UNL d   1       3.469  38.095  -2.443 +0.04 +0.07    +0.167 HD
DOCKED: ENDBRANCH  40  42
DOCKED: ENDBRANCH  39  40
DOCKED: ENDBRANCH  38  39
DOCKED: ENDBRANCH  22  38
DOCKED: BRANCH  12  44
DOCKED: ATOM     44  C   UNL d   1      12.001  30.892   3.528 -0.56 +0.00    +0.004 C 
DOCKED: ATOM     45  C   UNL d   1      13.310  30.801   3.299 -0.66 +0.00    +0.012 C 
DOCKED: ENDBRANCH  12  44
DOCKED: BRANCH  17  46
DOCKED: ATOM     46  C   UNL d   1      14.250  36.354  -2.142 -0.63 +0.00    +0.004 C 
DOCKED: ATOM     47  C   UNL d   1      15.111  37.280  -1.701 -0.67 +0.00    +0.012 C 
DOCKED: ENDBRANCH  17  46
DOCKED: TORSDOF 10
DOCKED: TER
DOCKED: ENDMDL
________________________________________________________________________________


	BEGINNING GENETIC ALGORITHM DOCKING 3 of 100
Run: 3 Seed: 1140653359 1418680105 [ Run 3 of 100 GA/GALS ]
Beginning LAMARCKIAN GENETIC ALGORITHM (LGA), with a maximum of 25000000 energy evaluations.

Final-Value: -19.219


	FINAL GENETIC ALGORITHM DOCKED STATE
	_______________________________________________


Detailed state:  trans 41.094 28.589 15.690 quatxyzw 0.327440 -0.358834 -0.872884 0.045772 center 8.287 34.468 -0.670 ntor 10 -99.6248 130.3432 -28.3527 -90.4020 76.8337 -92.9129 -42.6282 -82.0490 -162.0478 -175.9490
State:	 41.094  28.589  15.690   0.328 -0.359 -0.874 174.753    -99.62  130.34  -28.35  -90.40   76.83  -92.91  -42.63  -82.05 -162.05 -175.95

DOCKED: MODEL        3
DOCKED: USER    Run = 3
DOCKED: USER    DPF = D:/Protein_go_brrr/autodock/final/6BB5/heme_O2/dock.dpf
DOCKED: USER  
DOCKED: USER    Estimated Free Energy of Binding    =  -15.52 kcal/mol  [=(1)+(2)+(3)-(4)]
DOCKED: USER    Estimated Inhibition Constant, Ki   =    4.19 pM (picomolar)  [Temperature = 298.15 K]
DOCKED: USER    
DOCKED: USER    (1) Final Intermolecular Energy     =  -18.50 kcal/mol
DOCKED: USER        vdW + Hbond + desolv Energy     =  -16.73 kcal/mol
DOCKED: USER        Electrostatic Energy            =   -1.77 kcal/mol
DOCKED: USER    (2) Final Total Internal Energy     =   -0.71 kcal/mol
DOCKED: USER    (3) Torsional Free Energy           =   +2.98 kcal/mol
DOCKED: USER    (4) Unbound System's Energy  [=(2)] =   -0.71 kcal/mol
DOCKED: USER    
DOCKED: USER    
DOCKED: USER    NEWDPF move heme_O2_opt.pdbqt
DOCKED: USER    NEWDPF about 8.287000 34.468000 -0.670000
DOCKED: USER    NEWDPF tran0 41.093982 28.588588 15.690414
DOCKED: USER    NEWDPF quaternion0 0.327440 -0.358834 -0.872884 0.045772
DOCKED: USER    NEWDPF axisangle0 0.327784 -0.359211 -0.873799 174.753124
DOCKED: USER    NEWDPF quat0 0.327784 -0.359211 -0.873799 174.753124
DOCKED: USER    NEWDPF dihe0 -99.62 130.34 -28.35 -90.40 76.83 -92.91 -42.63 -82.05 -162.05 -175.95 
DOCKED: USER  keepresnum = 1 
DOCKED: USER  
DOCKED: REMARK  10 active torsions:
DOCKED: REMARK  status: ('A' for Active; 'I' for Inactive)
DOCKED: REMARK    1  A    between atoms: C_6  and  C_10 
DOCKED: REMARK    2  A    between atoms: C_10  and  C_11 
DOCKED: REMARK    3  A    between atoms: C_11  and  C_12 
DOCKED: REMARK    4  A    between atoms: C_12  and  O_14 
DOCKED: REMARK    5  A    between atoms: C_17  and  C_20 
DOCKED: REMARK    6  A    between atoms: C_24  and  C_27 
DOCKED: REMARK    7  A    between atoms: C_31  and  C_34 
DOCKED: REMARK    8  A    between atoms: C_34  and  C_35 
DOCKED: REMARK    9  A    between atoms: C_35  and  C_36 
DOCKED: REMARK   10  A    between atoms: C_36  and  O_38 
DOCKED: USER                              x       y       z     vdW  Elec       q    Type
DOCKED: USER                           _______ _______ _______ _____ _____    ______ ____
DOCKED: ROOT
DOCKED: ATOM      1  C   UNL d   1      42.797  27.909  16.757 -0.26 +0.02    +0.064 A 
DOCKED: ATOM      2  C   UNL d   1      40.740  32.173  16.378 -0.41 +0.01    +0.064 A 
DOCKED: ATOM      3  C   UNL d   1      37.422  30.409  13.383 -0.33 +0.01    +0.064 C 
DOCKED: ATOM      4  C   UNL d   1      39.243  25.917  14.141 -0.41 +0.01    +0.064 A 
DOCKED: ATOM      5  C   UNL d   1      42.507  29.212  16.900 -0.29 +0.02    +0.066 A 
DOCKED: ATOM      6  C   UNL d   1      43.255  30.100  17.679 -0.32 -0.01    -0.021 A 
DOCKED: ATOM      7  C   UNL d   1      42.635  31.325  17.605 -0.39 -0.00    -0.025 A 
DOCKED: ATOM      8  C   UNL d   1      41.553  31.164  16.743 -0.37 +0.01    +0.066 A 
DOCKED: ATOM      9  C   UNL d   1      43.069  32.562  18.361 -0.44 +0.01    +0.051 C 
DOCKED: ATOM     10  C   UNL d   1      39.604  32.070  15.461 -0.37 +0.01    +0.066 A 
DOCKED: ATOM     11  C   UNL d   1      38.893  33.179  14.988 -0.42 -0.00    -0.021 A 
DOCKED: ATOM     12  C   UNL d   1      37.944  32.692  14.109 -0.40 +0.00    +0.000 A 
DOCKED: ATOM     13  C   UNL d   1      38.125  31.281  14.105 -0.37 +0.01    +0.070 A 
DOCKED: ATOM     14  C   UNL d   1      39.129  34.644  15.339 -0.57 +0.00    +0.052 C 
DOCKED: ATOM     15  C   UNL d   1      37.550  28.972  13.377 -0.38 +0.01    +0.066 A 
DOCKED: ATOM     16  C   UNL d   1      36.676  28.102  12.725 -0.51 -0.00    -0.021 A 
DOCKED: ATOM     17  C   UNL d   1      37.175  26.816  12.928 -0.47 +0.00    +0.000 A 
DOCKED: ATOM     18  C   UNL d   1      38.333  26.999  13.697 -0.37 +0.01    +0.070 A 
DOCKED: ATOM     19  C   UNL d   1      35.427  28.568  12.020 -0.67 +0.00    +0.052 C 
DOCKED: ATOM     20  C   UNL d   1      40.337  26.054  14.916 -0.40 +0.01    +0.066 A 
DOCKED: ATOM     21  C   UNL d   1      41.166  24.999  15.287 -0.41 -0.00    -0.025 A 
DOCKED: ATOM     22  C   UNL d   1      42.199  25.552  16.010 -0.28 -0.00    -0.021 A 
DOCKED: ATOM     23  C   UNL d   1      41.951  26.926  16.069 -0.34 +0.01    +0.066 A 
DOCKED: ATOM     24  C   UNL d   1      40.980  23.538  14.971 -0.56 +0.01    +0.051 C 
DOCKED: ATOM     25  N   UNL d   1      41.437  29.847  16.362 -0.21 -0.06    -0.248 N 
DOCKED: ATOM     26  N   UNL d   1      39.134  30.911  14.933 -0.22 -0.04    -0.248 N 
DOCKED: ATOM     27  N   UNL d   1      38.503  28.306  14.023 -0.19 -0.05    -0.248 N 
DOCKED: ATOM     28  N   UNL d   1      40.794  27.221  15.441 -0.22 -0.06    -0.248 N 
DOCKED: ATOM     29 FE   UNL d   1      39.968  29.051  15.188 -0.01 +0.00    +0.000 Fe
DOCKED: ATOM     30  O   UNL d   1      39.473  29.503  16.593 -0.66 +0.00    +0.000 OA
DOCKED: ATOM     31  O   UNL d   1      38.926  28.166  15.965 -0.88 +0.00    +0.000 OA
DOCKED: ENDROOT
DOCKED: BRANCH   6  32
DOCKED: ATOM     32  C   UNL d   1      44.427  29.783  18.571 -0.28 +0.02    +0.052 C 
DOCKED: BRANCH  32  33
DOCKED: ATOM     33  C   UNL d   1      44.009  29.171  19.905 -0.05 +0.09    +0.115 C 
DOCKED: BRANCH  33  34
DOCKED: ATOM     34  C   UNL d   1      44.857  27.983  20.284 -0.18 +0.15    +0.139 C 
DOCKED: ATOM     35  O   UNL d   1      44.700  26.920  19.704 +0.01 -0.46    -0.650 OA
DOCKED: BRANCH  34  36
DOCKED: ATOM     36  O   UNL d   1      45.770  28.058  21.274 -0.27 -1.53    -0.776 OA
DOCKED: ATOM     37  H   UNL d   1      46.709  28.188  21.094 +0.02 +0.21    +0.167 HD
DOCKED: ENDBRANCH  34  36
DOCKED: ENDBRANCH  33  34
DOCKED: ENDBRANCH  32  33
DOCKED: ENDBRANCH   6  32
DOCKED: BRANCH  22  38
DOCKED: ATOM     38  C   UNL d   1      43.323  24.787  16.661 -0.28 +0.01    +0.052 C 
DOCKED: BRANCH  38  39
DOCKED: ATOM     39  C   UNL d   1      42.871  24.042  17.914 -0.34 +0.03    +0.115 C 
DOCKED: BRANCH  39  40
DOCKED: ATOM     40  C   UNL d   1      42.546  22.595  17.638 -0.36 +0.02    +0.139 C 
DOCKED: ATOM     41  O   UNL d   1      43.356  21.892  17.055 +0.03 -0.14    -0.650 OA
DOCKED: BRANCH  40  42
DOCKED: ATOM     42  O   UNL d   1      41.395  22.046  18.071 +0.01 -0.03    -0.776 OA
DOCKED: ATOM     43  H   UNL d   1      40.843  21.507  17.491 -0.44 -0.06    +0.167 HD
DOCKED: ENDBRANCH  40  42
DOCKED: ENDBRANCH  39  40
DOCKED: ENDBRANCH  38  39
DOCKED: ENDBRANCH  22  38
DOCKED: BRANCH  12  44
DOCKED: ATOM     44  C   UNL d   1      36.979  33.605  13.382 -0.51 +0.00    +0.004 C 
DOCKED: ATOM     45  C   UNL d   1      36.464  33.448  12.163 -0.60 +0.00    +0.012 C 
DOCKED: ENDBRANCH  12  44
DOCKED: BRANCH  17  46
DOCKED: ATOM     46  C   UNL d   1      36.636  25.471  12.519 -0.64 +0.00    +0.004 C 
DOCKED: ATOM     47  C   UNL d   1      35.913  24.611  13.249 -0.71 +0.00    +0.012 C 
DOCKED: ENDBRANCH  17  46
DOCKED: TORSDOF 10
DOCKED: TER
DOCKED: ENDMDL
________________________________________________________________________________


	BEGINNING GENETIC ALGORITHM DOCKING 4 of 100
Run: 4 Seed: 1047543841 1547411088 [ Run 4 of 100 GA/GALS ]
Beginning LAMARCKIAN GENETIC ALGORITHM (LGA), with a maximum of 25000000 energy evaluations.

Final-Value: -21.025


	FINAL GENETIC ALGORITHM DOCKED STATE
	_______________________________________________


Detailed state:  trans 41.062 28.190 15.697 quatxyzw 0.325288 -0.368815 -0.868516 0.061991 center 8.287 34.468 -0.670 ntor 10 126.9785 156.6108 10.7255 -100.8260 -145.1098 54.8686 -48.5095 62.8968 177.6946 170.6963
State:	 41.062  28.190  15.697   0.326 -0.370 -0.870 172.892    126.98  156.61   10.73 -100.83 -145.11   54.87  -48.51   62.90  177.69  170.70

DOCKED: MODEL        4
DOCKED: USER    Run = 4
DOCKED: USER    DPF = D:/Protein_go_brrr/autodock/final/6BB5/heme_O2/dock.dpf
DOCKED: USER  
DOCKED: USER    Estimated Free Energy of Binding    =  -15.55 kcal/mol  [=(1)+(2)+(3)-(4)]
DOCKED: USER    Estimated Inhibition Constant, Ki   =    4.03 pM (picomolar)  [Temperature = 298.15 K]
DOCKED: USER    
DOCKED: USER    (1) Final Intermolecular Energy     =  -18.53 kcal/mol
DOCKED: USER        vdW + Hbond + desolv Energy     =  -16.47 kcal/mol
DOCKED: USER        Electrostatic Energy            =   -2.06 kcal/mol
DOCKED: USER    (2) Final Total Internal Energy     =   -2.50 kcal/mol
DOCKED: USER    (3) Torsional Free Energy           =   +2.98 kcal/mol
DOCKED: USER    (4) Unbound System's Energy  [=(2)] =   -2.50 kcal/mol
DOCKED: USER    
DOCKED: USER    
DOCKED: USER    NEWDPF move heme_O2_opt.pdbqt
DOCKED: USER    NEWDPF about 8.287000 34.468000 -0.670000
DOCKED: USER    NEWDPF tran0 41.062303 28.189634 15.697139
DOCKED: USER    NEWDPF quaternion0 0.325288 -0.368815 -0.868516 0.061991
DOCKED: USER    NEWDPF axisangle0 0.325915 -0.369525 -0.870190 172.891826
DOCKED: USER    NEWDPF quat0 0.325915 -0.369525 -0.870190 172.891826
DOCKED: USER    NEWDPF dihe0 126.98 156.61 10.73 -100.83 -145.11 54.87 -48.51 62.90 177.69 170.70 
DOCKED: USER  keepresnum = 1 
DOCKED: USER  
DOCKED: REMARK  10 active torsions:
DOCKED: REMARK  status: ('A' for Active; 'I' for Inactive)
DOCKED: REMARK    1  A    between atoms: C_6  and  C_10 
DOCKED: REMARK    2  A    between atoms: C_10  and  C_11 
DOCKED: REMARK    3  A    between atoms: C_11  and  C_12 
DOCKED: REMARK    4  A    between atoms: C_12  and  O_14 
DOCKED: REMARK    5  A    between atoms: C_17  and  C_20 
DOCKED: REMARK    6  A    between atoms: C_24  and  C_27 
DOCKED: REMARK    7  A    between atoms: C_31  and  C_34 
DOCKED: REMARK    8  A    between atoms: C_34  and  C_35 
DOCKED: REMARK    9  A    between atoms: C_35  and  C_36 
DOCKED: REMARK   10  A    between atoms: C_36  and  O_38 
DOCKED: USER                              x       y       z     vdW  Elec       q    Type
DOCKED: USER                           _______ _______ _______ _____ _____    ______ ____
DOCKED: ROOT
DOCKED: ATOM      1  C   UNL d   1      42.728  27.459  16.788 -0.25 +0.02    +0.064 A 
DOCKED: ATOM      2  C   UNL d   1      40.834  31.792  16.347 -0.40 +0.01    +0.064 A 
DOCKED: ATOM      3  C   UNL d   1      37.482  30.121  13.336 -0.38 +0.01    +0.064 C 
DOCKED: ATOM      4  C   UNL d   1      39.129  25.573  14.155 -0.42 +0.01    +0.064 A 
DOCKED: ATOM      5  C   UNL d   1      42.486  28.773  16.915 -0.22 +0.02    +0.066 A 
DOCKED: ATOM      6  C   UNL d   1      43.258  29.640  17.693 -0.28 -0.01    -0.021 A 
DOCKED: ATOM      7  C   UNL d   1      42.685  30.887  17.601 -0.37 -0.01    -0.025 A 
DOCKED: ATOM      8  C   UNL d   1      41.606  30.757  16.730 -0.34 +0.01    +0.066 A 
DOCKED: ATOM      9  C   UNL d   1      43.157  32.114  18.349 -0.43 +0.01    +0.051 C 
DOCKED: ATOM     10  C   UNL d   1      39.704  31.721  15.420 -0.36 +0.01    +0.066 A 
DOCKED: ATOM     11  C   UNL d   1      39.039  32.851  14.929 -0.41 -0.00    -0.021 A 
DOCKED: ATOM     12  C   UNL d   1      38.081  32.390  14.045 -0.40 +0.00    +0.000 A 
DOCKED: ATOM     13  C   UNL d   1      38.210  30.974  14.056 -0.36 +0.01    +0.070 A 
DOCKED: ATOM     14  C   UNL d   1      39.325  34.309  15.268 -0.54 +0.00    +0.052 C 
DOCKED: ATOM     15  C   UNL d   1      37.558  28.680  13.345 -0.39 +0.01    +0.066 A 
DOCKED: ATOM     16  C   UNL d   1      36.659  27.837  12.692 -0.51 -0.00    -0.021 A 
DOCKED: ATOM     17  C   UNL d   1      37.108  26.535  12.912 -0.47 +0.00    +0.000 A 
DOCKED: ATOM     18  C   UNL d   1      38.264  26.683  13.692 -0.38 +0.01    +0.070 A 
DOCKED: ATOM     19  C   UNL d   1      35.434  28.341  11.971 -0.66 +0.00    +0.052 C 
DOCKED: ATOM     20  C   UNL d   1      40.220  25.677  14.939 -0.40 +0.01    +0.066 A 
DOCKED: ATOM     21  C   UNL d   1      41.006  24.596  15.329 -0.44 -0.00    -0.025 A 
DOCKED: ATOM     22  C   UNL d   1      42.052  25.117  16.057 -0.33 -0.00    -0.021 A 
DOCKED: ATOM     23  C   UNL d   1      41.854  26.501  16.100 -0.35 +0.01    +0.066 A 
DOCKED: ATOM     24  C   UNL d   1      40.769  23.139  15.025 -0.53 +0.00    +0.051 C 
DOCKED: ATOM     25  N   UNL d   1      41.445  29.442  16.360 -0.22 -0.06    -0.248 N 
DOCKED: ATOM     26  N   UNL d   1      39.196  30.575  14.898 -0.15 -0.05    -0.248 N 
DOCKED: ATOM     27  N   UNL d   1      38.479  27.986  14.007 -0.21 -0.05    -0.248 N 
DOCKED: ATOM     28  N   UNL d   1      40.715  26.832  15.458 -0.27 -0.05    -0.248 N 
DOCKED: ATOM     29 FE   UNL d   1      39.959  28.689  15.179 -0.07 +0.00    +0.000 Fe
DOCKED: ATOM     30  O   UNL d   1      39.468  29.172  16.574 -0.76 +0.00    +0.000 OA
DOCKED: ATOM     31  O   UNL d   1      38.877  27.850  15.954 -0.83 +0.00    +0.000 OA
DOCKED: ENDROOT
DOCKED: BRANCH   6  32
DOCKED: ATOM     32  C   UNL d   1      44.409  29.289  18.599 -0.27 +0.02    +0.052 C 
DOCKED: BRANCH  32  33
DOCKED: ATOM     33  C   UNL d   1      43.998  29.182  20.065 +0.06 +0.09    +0.115 C 
DOCKED: BRANCH  33  34
DOCKED: ATOM     34  C   UNL d   1      44.463  27.895  20.700 -0.07 +0.18    +0.139 C 
DOCKED: ATOM     35  O   UNL d   1      45.658  27.673  20.810 -0.31 -0.90    -0.650 OA
DOCKED: BRANCH  34  36
DOCKED: ATOM     36  O   UNL d   1      43.584  26.964  21.126 -0.37 -1.07    -0.776 OA
DOCKED: ATOM     37  H   UNL d   1      43.642  26.042  20.851 +0.06 +0.15    +0.167 HD
DOCKED: ENDBRANCH  34  36
DOCKED: ENDBRANCH  33  34
DOCKED: ENDBRANCH  32  33
DOCKED: ENDBRANCH   6  32
DOCKED: BRANCH  22  38
DOCKED: ATOM     38  C   UNL d   1      43.141  24.319  16.726 -0.30 +0.01    +0.052 C 
DOCKED: BRANCH  38  39
DOCKED: ATOM     39  C   UNL d   1      42.754  23.874  18.135 -0.37 +0.03    +0.115 C 
DOCKED: BRANCH  39  40
DOCKED: ATOM     40  C   UNL d   1      43.671  24.441  19.190 -0.26 +0.05    +0.139 C 
DOCKED: ATOM     41  O   UNL d   1      43.725  23.917  20.291 -0.19 -0.30    -0.650 OA
DOCKED: BRANCH  40  42
DOCKED: ATOM     42  O   UNL d   1      44.473  25.490  18.924 +0.10 -0.35    -0.776 OA
DOCKED: ATOM     43  H   UNL d   1      44.833  26.041  19.629 +0.06 +0.10    +0.167 HD
DOCKED: ENDBRANCH  40  42
DOCKED: ENDBRANCH  39  40
DOCKED: ENDBRANCH  38  39
DOCKED: ENDBRANCH  22  38
DOCKED: BRANCH  12  44
DOCKED: ATOM     44  C   UNL d   1      37.157  33.331  13.299 -0.49 +0.00    +0.004 C 
DOCKED: ATOM     45  C   UNL d   1      36.126  33.016  12.517 -0.59 +0.00    +0.012 C 
DOCKED: ENDBRANCH  12  44
DOCKED: BRANCH  17  46
DOCKED: ATOM     46  C   UNL d   1      36.523  25.207  12.511 -0.67 +0.00    +0.004 C 
DOCKED: ATOM     47  C   UNL d   1      35.926  24.295  13.290 -0.73 +0.00    +0.012 C 
DOCKED: ENDBRANCH  17  46
DOCKED: TORSDOF 10
DOCKED: TER
DOCKED: ENDMDL
________________________________________________________________________________


	BEGINNING GENETIC ALGORITHM DOCKING 5 of 100
Run: 5 Seed: 2100702841 1997538605 [ Run 5 of 100 GA/GALS ]
Beginning LAMARCKIAN GENETIC ALGORITHM (LGA), with a maximum of 25000000 energy evaluations.

Final-Value: -21.023


	FINAL GENETIC ALGORITHM DOCKED STATE
	_______________________________________________


Detailed state:  trans 41.090 28.194 15.710 quatxyzw -0.330467 0.370246 0.866410 -0.055167 center 8.287 34.468 -0.670 ntor 10 114.6958 159.4381 16.3242 -95.2828 -156.3973 46.2906 -45.1048 63.7511 -178.7432 173.9651
State:	 41.090  28.194  15.710  -0.331  0.371  0.868 -173.675    114.70  159.44   16.32  -95.28 -156.40   46.29  -45.10   63.75 -178.74  173.97

DOCKED: MODEL        5
DOCKED: USER    Run = 5
DOCKED: USER    DPF = D:/Protein_go_brrr/autodock/final/6BB5/heme_O2/dock.dpf
DOCKED: USER  
DOCKED: USER    Estimated Free Energy of Binding    =  -15.52 kcal/mol  [=(1)+(2)+(3)-(4)]
DOCKED: USER    Estimated Inhibition Constant, Ki   =    4.22 pM (picomolar)  [Temperature = 298.15 K]
DOCKED: USER    
DOCKED: USER    (1) Final Intermolecular Energy     =  -18.50 kcal/mol
DOCKED: USER        vdW + Hbond + desolv Energy     =  -16.42 kcal/mol
DOCKED: USER        Electrostatic Energy            =   -2.08 kcal/mol
DOCKED: USER    (2) Final Total Internal Energy     =   -2.52 kcal/mol
DOCKED: USER    (3) Torsional Free Energy           =   +2.98 kcal/mol
DOCKED: USER    (4) Unbound System's Energy  [=(2)] =   -2.52 kcal/mol
DOCKED: USER    
DOCKED: USER    
DOCKED: USER    NEWDPF move heme_O2_opt.pdbqt
DOCKED: USER    NEWDPF about 8.287000 34.468000 -0.670000
DOCKED: USER    NEWDPF tran0 41.090056 28.194408 15.709530
DOCKED: USER    NEWDPF quaternion0 -0.330467 0.370246 0.866410 -0.055167
DOCKED: USER    NEWDPF axisangle0 -0.330971 0.370810 0.867732 -173.675107
DOCKED: USER    NEWDPF quat0 -0.330971 0.370810 0.867732 -173.675107
DOCKED: USER    NEWDPF dihe0 114.70 159.44 16.32 -95.28 -156.40 46.29 -45.10 63.75 -178.74 173.97 
DOCKED: USER  keepresnum = 1 
DOCKED: USER  
DOCKED: REMARK  10 active torsions:
DOCKED: REMARK  status: ('A' for Active; 'I' for Inactive)
DOCKED: REMARK    1  A    between atoms: C_6  and  C_10 
DOCKED: REMARK    2  A    between atoms: C_10  and  C_11 
DOCKED: REMARK    3  A    between atoms: C_11  and  C_12 
DOCKED: REMARK    4  A    between atoms: C_12  and  O_14 
DOCKED: REMARK    5  A    between atoms: C_17  and  C_20 
DOCKED: REMARK    6  A    between atoms: C_24  and  C_27 
DOCKED: REMARK    7  A    between atoms: C_31  and  C_34 
DOCKED: REMARK    8  A    between atoms: C_34  and  C_35 
DOCKED: REMARK    9  A    between atoms: C_35  and  C_36 
DOCKED: REMARK   10  A    between atoms: C_36  and  O_38 
DOCKED: USER                              x       y       z     vdW  Elec       q    Type
DOCKED: USER                           _______ _______ _______ _____ _____    ______ ____
DOCKED: ROOT
DOCKED: ATOM      1  C   UNL d   1      42.761  27.498  16.815 -0.25 +0.02    +0.064 A 
DOCKED: ATOM      2  C   UNL d   1      40.806  31.799  16.325 -0.40 +0.01    +0.064 A 
DOCKED: ATOM      3  C   UNL d   1      37.495  30.052  13.312 -0.39 +0.01    +0.064 C 
DOCKED: ATOM      4  C   UNL d   1      39.203  25.536  14.182 -0.42 +0.01    +0.064 A 
DOCKED: ATOM      5  C   UNL d   1      42.498  28.810  16.929 -0.21 +0.02    +0.066 A 
DOCKED: ATOM      6  C   UNL d   1      43.254  29.695  17.703 -0.29 -0.01    -0.021 A 
DOCKED: ATOM      7  C   UNL d   1      42.663  30.932  17.597 -0.37 -0.01    -0.025 A 
DOCKED: ATOM      8  C   UNL d   1      41.591  30.778  16.722 -0.34 +0.01    +0.066 A 
DOCKED: ATOM      9  C   UNL d   1      43.114  32.173  18.336 -0.44 +0.01    +0.051 C 
DOCKED: ATOM     10  C   UNL d   1      39.682  31.703  15.393 -0.36 +0.01    +0.066 A 
DOCKED: ATOM     11  C   UNL d   1      39.004  32.818  14.889 -0.41 -0.00    -0.021 A 
DOCKED: ATOM     12  C   UNL d   1      38.057  32.336  14.004 -0.40 +0.00    +0.000 A 
DOCKED: ATOM     13  C   UNL d   1      38.206  30.922  14.028 -0.37 +0.01    +0.070 A 
DOCKED: ATOM     14  C   UNL d   1      39.267  34.284  15.216 -0.54 +0.00    +0.052 C 
DOCKED: ATOM     15  C   UNL d   1      37.591  28.612  13.335 -0.39 +0.01    +0.066 A 
DOCKED: ATOM     16  C   UNL d   1      36.708  27.750  12.685 -0.51 -0.00    -0.021 A 
DOCKED: ATOM     17  C   UNL d   1      37.174  26.457  12.920 -0.47 +0.00    +0.000 A 
DOCKED: ATOM     18  C   UNL d   1      38.324  26.629  13.704 -0.38 +0.01    +0.070 A 
DOCKED: ATOM     19  C   UNL d   1      35.479  28.230  11.954 -0.65 +0.00    +0.052 C 
DOCKED: ATOM     20  C   UNL d   1      40.288  25.663  14.970 -0.41 +0.01    +0.066 A 
DOCKED: ATOM     21  C   UNL d   1      41.088  24.597  15.374 -0.44 -0.00    -0.025 A 
DOCKED: ATOM     22  C   UNL d   1      42.122  25.140  16.103 -0.32 -0.00    -0.021 A 
DOCKED: ATOM     23  C   UNL d   1      41.904  26.521  16.132 -0.34 +0.01    +0.066 A 
DOCKED: ATOM     24  C   UNL d   1      40.874  23.134  15.082 -0.56 +0.00    +0.051 C 
DOCKED: ATOM     25  N   UNL d   1      41.451  29.458  16.363 -0.21 -0.06    -0.248 N 
DOCKED: ATOM     26  N   UNL d   1      39.194  30.545  14.880 -0.14 -0.06    -0.248 N 
DOCKED: ATOM     27  N   UNL d   1      38.519  27.938  14.008 -0.21 -0.05    -0.248 N 
DOCKED: ATOM     28  N   UNL d   1      40.764  26.829  15.481 -0.27 -0.05    -0.248 N 
DOCKED: ATOM     29 FE   UNL d   1      39.982  28.672  15.181 -0.07 +0.00    +0.000 Fe
DOCKED: ATOM     30  O   UNL d   1      39.477  29.162  16.569 -0.76 +0.00    +0.000 OA
DOCKED: ATOM     31  O   UNL d   1      38.909  27.826  15.958 -0.83 +0.00    +0.000 OA
DOCKED: ENDROOT
DOCKED: BRANCH   6  32
DOCKED: ATOM     32  C   UNL d   1      44.406  29.368  18.619 -0.28 +0.02    +0.052 C 
DOCKED: BRANCH  32  33
DOCKED: ATOM     33  C   UNL d   1      43.974  29.183  20.070 +0.07 +0.09    +0.115 C 
DOCKED: BRANCH  33  34
DOCKED: ATOM     34  C   UNL d   1      44.561  27.940  20.691 -0.06 +0.19    +0.139 C 
DOCKED: ATOM     35  O   UNL d   1      45.766  27.752  20.641 -0.30 -0.80    -0.650 OA
DOCKED: BRANCH  34  36
DOCKED: ATOM     36  O   UNL d   1      43.779  27.010  21.278 -0.36 -1.21    -0.776 OA
DOCKED: ATOM     37  H   UNL d   1      43.696  26.116  20.927 +0.06 +0.16    +0.167 HD
DOCKED: ENDBRANCH  34  36
DOCKED: ENDBRANCH  33  34
DOCKED: ENDBRANCH  32  33
DOCKED: ENDBRANCH   6  32
DOCKED: BRANCH  22  38
DOCKED: ATOM     38  C   UNL d   1      43.219  24.364  16.784 -0.30 +0.01    +0.052 C 
DOCKED: BRANCH  38  39
DOCKED: ATOM     39  C   UNL d   1      42.803  23.857  18.164 -0.36 +0.03    +0.115 C 
DOCKED: BRANCH  39  40
DOCKED: ATOM     40  C   UNL d   1      43.645  24.441  19.270 -0.27 +0.05    +0.139 C 
DOCKED: ATOM     41  O   UNL d   1      43.565  23.984  20.399 -0.15 -0.30    -0.650 OA
DOCKED: BRANCH  40  42
DOCKED: ATOM     42  O   UNL d   1      44.527  25.430  19.025 +0.10 -0.36    -0.776 OA
DOCKED: ATOM     43  H   UNL d   1      44.880  25.979  19.736 +0.06 +0.10    +0.167 HD
DOCKED: ENDBRANCH  40  42
DOCKED: ENDBRANCH  39  40
DOCKED: ENDBRANCH  38  39
DOCKED: ENDBRANCH  22  38
DOCKED: BRANCH  12  44
DOCKED: ATOM     44  C   UNL d   1      37.124  33.257  13.245 -0.49 +0.00    +0.004 C 
DOCKED: ATOM     45  C   UNL d   1      36.040  32.926  12.543 -0.59 +0.00    +0.012 C 
DOCKED: ENDBRANCH  12  44
DOCKED: BRANCH  17  46
DOCKED: ATOM     46  C   UNL d   1      36.611  25.117  12.528 -0.67 +0.00    +0.004 C 
DOCKED: ATOM     47  C   UNL d   1      35.934  24.248  13.290 -0.73 +0.00    +0.012 C 
DOCKED: ENDBRANCH  17  46
DOCKED: TORSDOF 10
DOCKED: TER
DOCKED: ENDMDL
________________________________________________________________________________


	BEGINNING GENETIC ALGORITHM DOCKING 6 of 100
Run: 6 Seed: 1023290563 425110022 [ Run 6 of 100 GA/GALS ]
Beginning LAMARCKIAN GENETIC ALGORITHM (LGA), with a maximum of 25000000 energy evaluations.

Final-Value: -11.964


	FINAL GENETIC ALGORITHM DOCKED STATE
	_______________________________________________


Detailed state:  trans 11.967 38.790 24.827 quatxyzw 0.049323 -0.240134 -0.444427 0.861619 center 8.287 34.468 -0.670 ntor 10 34.8861 176.6125 -95.2895 56.1807 -135.9470 142.3693 -9.3253 78.5929 -175.5389 168.9141
State:	 11.967  38.790  24.827   0.097 -0.473 -0.876 61.002     34.89  176.61  -95.29   56.18 -135.95  142.37   -9.33   78.59 -175.54  168.91

DOCKED: MODEL        6
DOCKED: USER    Run = 6
DOCKED: USER    DPF = D:/Protein_go_brrr/autodock/final/6BB5/heme_O2/dock.dpf
DOCKED: USER  
DOCKED: USER    Estimated Free Energy of Binding    =   -6.80 kcal/mol  [=(1)+(2)+(3)-(4)]
DOCKED: USER    Estimated Inhibition Constant, Ki   =   10.31 uM (micromolar)  [Temperature = 298.15 K]
DOCKED: USER    
DOCKED: USER    (1) Final Intermolecular Energy     =   -9.79 kcal/mol
DOCKED: USER        vdW + Hbond + desolv Energy     =   -9.16 kcal/mol
DOCKED: USER        Electrostatic Energy            =   -0.63 kcal/mol
DOCKED: USER    (2) Final Total Internal Energy     =   -2.18 kcal/mol
DOCKED: USER    (3) Torsional Free Energy           =   +2.98 kcal/mol
DOCKED: USER    (4) Unbound System's Energy  [=(2)] =   -2.18 kcal/mol
DOCKED: USER    
DOCKED: USER    
DOCKED: USER    NEWDPF move heme_O2_opt.pdbqt
DOCKED: USER    NEWDPF about 8.287000 34.468000 -0.670000
DOCKED: USER    NEWDPF tran0 11.966899 38.789869 24.827077
DOCKED: USER    NEWDPF quaternion0 0.049323 -0.240134 -0.444427 0.861619
DOCKED: USER    NEWDPF axisangle0 0.097178 -0.473118 -0.875623 61.002254
DOCKED: USER    NEWDPF quat0 0.097178 -0.473118 -0.875623 61.002254
DOCKED: USER    NEWDPF dihe0 34.89 176.61 -95.29 56.18 -135.95 142.37 -9.33 78.59 -175.54 168.91 
DOCKED: USER  keepresnum = 1 
DOCKED: USER  
DOCKED: REMARK  10 active torsions:
DOCKED: REMARK  status: ('A' for Active; 'I' for Inactive)
DOCKED: REMARK    1  A    between atoms: C_6  and  C_10 
DOCKED: REMARK    2  A    between atoms: C_10  and  C_11 
DOCKED: REMARK    3  A    between atoms: C_11  and  C_12 
DOCKED: REMARK    4  A    between atoms: C_12  and  O_14 
DOCKED: REMARK    5  A    between atoms: C_17  and  C_20 
DOCKED: REMARK    6  A    between atoms: C_24  and  C_27 
DOCKED: REMARK    7  A    between atoms: C_31  and  C_34 
DOCKED: REMARK    8  A    between atoms: C_34  and  C_35 
DOCKED: REMARK    9  A    between atoms: C_35  and  C_36 
DOCKED: REMARK   10  A    between atoms: C_36  and  O_38 
DOCKED: USER                              x       y       z     vdW  Elec       q    Type
DOCKED: USER                           _______ _______ _______ _____ _____    ______ ____
DOCKED: ROOT
DOCKED: ATOM      1  C   UNL d   1      10.280  37.525  25.056 -0.25 -0.02    +0.064 A 
DOCKED: ATOM      2  C   UNL d   1      14.380  37.866  27.430 -0.24 -0.02    +0.064 A 
DOCKED: ATOM      3  C   UNL d   1      15.875  41.390  24.524 -0.36 -0.02    +0.064 C 
DOCKED: ATOM      4  C   UNL d   1      11.466  41.375  22.372 -0.20 -0.01    +0.064 A 
DOCKED: ATOM      5  C   UNL d   1      11.272  37.331  25.940 -0.28 -0.02    +0.066 A 
DOCKED: ATOM      6  C   UNL d   1      11.243  36.367  26.951 -0.25 +0.01    -0.021 A 
DOCKED: ATOM      7  C   UNL d   1      12.411  36.494  27.666 -0.20 +0.02    -0.025 A 
DOCKED: ATOM      8  C   UNL d   1      13.143  37.500  27.042 -0.27 -0.03    +0.066 A 
DOCKED: ATOM      9  C   UNL d   1      12.762  35.693  28.901 -0.10 -0.03    +0.051 C 
DOCKED: ATOM     10  C   UNL d   1      15.205  38.899  26.801 -0.26 -0.01    +0.066 A 
DOCKED: ATOM     11  C   UNL d   1      16.544  39.126  27.140 -0.26 +0.00    -0.021 A 
DOCKED: ATOM     12  C   UNL d   1      16.998  40.126  26.300 -0.30 -0.00    +0.000 A 
DOCKED: ATOM     13  C   UNL d   1      15.882  40.469  25.487 -0.30 -0.02    +0.070 A 
DOCKED: ATOM     14  C   UNL d   1      17.363  38.400  28.201 -0.28 +0.00    +0.052 C 
DOCKED: ATOM     15  C   UNL d   1      14.758  41.791  23.703 -0.28 -0.02    +0.066 A 
DOCKED: ATOM     16  C   UNL d   1      14.770  42.875  22.825 -0.32 +0.00    -0.021 A 
DOCKED: ATOM     17  C   UNL d   1      13.523  42.890  22.201 -0.29 -0.00    +0.000 A 
DOCKED: ATOM     18  C   UNL d   1      12.835  41.799  22.750 -0.25 -0.01    +0.070 A 
DOCKED: ATOM     19  C   UNL d   1      15.938  43.821  22.703 -0.32 -0.01    +0.052 C 
DOCKED: ATOM     20  C   UNL d   1      10.761  40.360  22.909 -0.21 -0.01    +0.066 A 
DOCKED: ATOM     21  C   UNL d   1       9.482  39.996  22.499 -0.21 +0.00    -0.025 A 
DOCKED: ATOM     22  C   UNL d   1       9.138  38.884  23.234 -0.24 +0.00    -0.021 A 
DOCKED: ATOM     23  C   UNL d   1      10.218  38.620  24.082 -0.25 -0.02    +0.066 A 
DOCKED: ATOM     24  C   UNL d   1       8.628  40.677  21.460 -0.21 -0.00    +0.051 C 
DOCKED: ATOM     25  N   UNL d   1      12.413  38.060  26.019 -0.14 +0.11    -0.248 N 
DOCKED: ATOM     26  N   UNL d   1      14.794  39.720  25.801 -0.19 +0.07    -0.248 N 
DOCKED: ATOM     27  N   UNL d   1      13.571  41.189  23.714 -0.13 +0.08    -0.248 N 
DOCKED: ATOM     28  N   UNL d   1      11.184  39.547  23.913 +0.13 +0.09    -0.248 N 
DOCKED: ATOM     29 FE   UNL d   1      12.977  39.635  24.849 -0.04 -0.00    +0.000 Fe
DOCKED: ATOM     30  O   UNL d   1      12.677  40.025  26.326 -0.16 -0.00    +0.000 OA
DOCKED: ATOM     31  O   UNL d   1      12.216  40.977  25.158 -0.17 -0.00    +0.000 OA
DOCKED: ENDROOT
DOCKED: BRANCH   6  32
DOCKED: ATOM     32  C   UNL d   1      10.105  35.451  27.321 -0.22 -0.02    +0.052 C 
DOCKED: BRANCH  32  33
DOCKED: ATOM     33  C   UNL d   1       9.197  36.040  28.397 -0.15 +0.01    +0.115 C 
DOCKED: BRANCH  33  34
DOCKED: ATOM     34  C   UNL d   1       7.919  35.256  28.563 -0.13 +0.06    +0.139 C 
DOCKED: ATOM     35  O   UNL d   1       7.947  34.163  29.106 -0.41 -0.69    -0.650 OA
DOCKED: BRANCH  34  36
DOCKED: ATOM     36  O   UNL d   1       6.742  35.723  28.097 +0.01 -0.17    -0.776 OA
DOCKED: ATOM     37  H   UNL d   1       6.682  36.234  27.282 +0.03 +0.02    +0.167 HD
DOCKED: ENDBRANCH  34  36
DOCKED: ENDBRANCH  33  34
DOCKED: ENDBRANCH  32  33
DOCKED: ENDBRANCH   6  32
DOCKED: BRANCH  22  38
DOCKED: ATOM     38  C   UNL d   1       7.819  38.159  23.166 -0.26 -0.01    +0.052 C 
DOCKED: BRANCH  38  39
DOCKED: ATOM     39  C   UNL d   1       6.792  38.727  24.143 -0.12 -0.01    +0.115 C 
DOCKED: BRANCH  39  40
DOCKED: ATOM     40  C   UNL d   1       6.630  37.869  25.373 -0.12 -0.01    +0.139 C 
DOCKED: ATOM     41  O   UNL d   1       6.044  36.801  25.293 -0.04 +0.02    -0.650 OA
DOCKED: BRANCH  40  42
DOCKED: ATOM     42  O   UNL d   1       7.166  38.236  26.553 +0.05 +0.03    -0.776 OA
DOCKED: ATOM     43  H   UNL d   1       7.059  37.696  27.345 +0.03 +0.00    +0.167 HD
DOCKED: ENDBRANCH  40  42
DOCKED: ENDBRANCH  39  40
DOCKED: ENDBRANCH  38  39
DOCKED: ENDBRANCH  22  38
DOCKED: BRANCH  12  44
DOCKED: ATOM     44  C   UNL d   1      18.420  40.644  26.362 -0.12 -0.00    +0.004 C 
DOCKED: ATOM     45  C   UNL d   1      19.514  40.097  25.833 -0.40 -0.00    +0.012 C 
DOCKED: ENDBRANCH  12  44
DOCKED: BRANCH  17  46
DOCKED: ATOM     46  C   UNL d   1      12.928  43.852  21.207 -0.23 -0.00    +0.004 C 
DOCKED: ATOM     47  C   UNL d   1      13.470  44.311  20.071 -0.25 -0.00    +0.012 C 
DOCKED: ENDBRANCH  17  46
DOCKED: TORSDOF 10
DOCKED: TER
DOCKED: ENDMDL
________________________________________________________________________________


	BEGINNING GENETIC ALGORITHM DOCKING 7 of 100
Run: 7 Seed: 1836359461 1682989985 [ Run 7 of 100 GA/GALS ]
Beginning LAMARCKIAN GENETIC ALGORITHM (LGA), with a maximum of 25000000 energy evaluations.

Final-Value: -19.183


	FINAL GENETIC ALGORITHM DOCKED STATE
	_______________________________________________


Detailed state:  trans 41.176 28.246 15.712 quatxyzw -0.303499 0.349409 0.883223 -0.075620 center 8.287 34.468 -0.670 ntor 10 -102.6855 16.4920 -5.3616 -105.4512 43.0446 -180.0000 -1.8002 -71.9918 -168.6382 127.9819
State:	 41.176  28.246  15.712  -0.304  0.350  0.886 -171.326   -102.69   16.49   -5.36 -105.45   43.04 -180.00   -1.80  -71.99 -168.64  127.98

DOCKED: MODEL        7
DOCKED: USER    Run = 7
DOCKED: USER    DPF = D:/Protein_go_brrr/autodock/final/6BB5/heme_O2/dock.dpf
DOCKED: USER  
DOCKED: USER    Estimated Free Energy of Binding    =  -15.63 kcal/mol  [=(1)+(2)+(3)-(4)]
DOCKED: USER    Estimated Inhibition Constant, Ki   =    3.51 pM (picomolar)  [Temperature = 298.15 K]
DOCKED: USER    
DOCKED: USER    (1) Final Intermolecular Energy     =  -18.61 kcal/mol
DOCKED: USER        vdW + Hbond + desolv Energy     =  -16.71 kcal/mol
DOCKED: USER        Electrostatic Energy            =   -1.89 kcal/mol
DOCKED: USER    (2) Final Total Internal Energy     =   -0.57 kcal/mol
DOCKED: USER    (3) Torsional Free Energy           =   +2.98 kcal/mol
DOCKED: USER    (4) Unbound System's Energy  [=(2)] =   -0.57 kcal/mol
DOCKED: USER    
DOCKED: USER    
DOCKED: USER    NEWDPF move heme_O2_opt.pdbqt
DOCKED: USER    NEWDPF about 8.287000 34.468000 -0.670000
DOCKED: USER    NEWDPF tran0 41.176460 28.246181 15.711873
DOCKED: USER    NEWDPF quaternion0 -0.303499 0.349409 0.883223 -0.075620
DOCKED: USER    NEWDPF axisangle0 -0.304370 0.350412 0.885760 -171.326320
DOCKED: USER    NEWDPF quat0 -0.304370 0.350412 0.885760 -171.326320
DOCKED: USER    NEWDPF dihe0 -102.69 16.49 -5.36 -105.45 43.04 -180.00 -1.80 -71.99 -168.64 127.98 
DOCKED: USER  keepresnum = 1 
DOCKED: USER  
DOCKED: REMARK  10 active torsions:
DOCKED: REMARK  status: ('A' for Active; 'I' for Inactive)
DOCKED: REMARK    1  A    between atoms: C_6  and  C_10 
DOCKED: REMARK    2  A    between atoms: C_10  and  C_11 
DOCKED: REMARK    3  A    between atoms: C_11  and  C_12 
DOCKED: REMARK    4  A    between atoms: C_12  and  O_14 
DOCKED: REMARK    5  A    between atoms: C_17  and  C_20 
DOCKED: REMARK    6  A    between atoms: C_24  and  C_27 
DOCKED: REMARK    7  A    between atoms: C_31  and  C_34 
DOCKED: REMARK    8  A    between atoms: C_34  and  C_35 
DOCKED: REMARK    9  A    between atoms: C_35  and  C_36 
DOCKED: REMARK   10  A    between atoms: C_36  and  O_38 
DOCKED: USER                              x       y       z     vdW  Elec       q    Type
DOCKED: USER                           _______ _______ _______ _____ _____    ______ ____
DOCKED: ROOT
DOCKED: ATOM      1  C   UNL d   1      42.859  27.414  16.700 -0.28 +0.02    +0.064 A 
DOCKED: ATOM      2  C   UNL d   1      41.065  31.810  16.569 -0.40 +0.01    +0.064 A 
DOCKED: ATOM      3  C   UNL d   1      37.569  30.394  13.591 -0.39 +0.01    +0.064 C 
DOCKED: ATOM      4  C   UNL d   1      39.124  25.769  14.097 -0.42 +0.01    +0.064 A 
DOCKED: ATOM      5  C   UNL d   1      42.655  28.725  16.909 -0.24 +0.02    +0.066 A 
DOCKED: ATOM      6  C   UNL d   1      43.477  29.528  17.706 -0.28 -0.01    -0.021 A 
DOCKED: ATOM      7  C   UNL d   1      42.933  30.791  17.704 -0.35 -0.01    -0.025 A 
DOCKED: ATOM      8  C   UNL d   1      41.823  30.737  16.866 -0.35 +0.01    +0.066 A 
DOCKED: ATOM      9  C   UNL d   1      43.463  31.963  18.502 -0.41 +0.01    +0.051 C 
DOCKED: ATOM     10  C   UNL d   1      39.902  31.820  15.680 -0.36 +0.01    +0.066 A 
DOCKED: ATOM     11  C   UNL d   1      39.251  32.991  15.277 -0.42 -0.00    -0.021 A 
DOCKED: ATOM     12  C   UNL d   1      38.252  32.605  14.404 -0.40 +0.00    +0.000 A 
DOCKED: ATOM     13  C   UNL d   1      38.344  31.187  14.331 -0.36 +0.01    +0.070 A 
DOCKED: ATOM     14  C   UNL d   1      39.587  34.420  15.686 -0.52 +0.00    +0.052 C 
DOCKED: ATOM     15  C   UNL d   1      37.608  28.953  13.517 -0.37 +0.01    +0.066 A 
DOCKED: ATOM     16  C   UNL d   1      36.665  28.171  12.851 -0.49 -0.00    -0.021 A 
DOCKED: ATOM     17  C   UNL d   1      37.087  26.848  12.982 -0.47 +0.00    +0.000 A 
DOCKED: ATOM     18  C   UNL d   1      38.272  26.924  13.727 -0.38 +0.01    +0.070 A 
DOCKED: ATOM     19  C   UNL d   1      35.429  28.744  12.203 -0.62 +0.00    +0.052 C 
DOCKED: ATOM     20  C   UNL d   1      40.243  25.801  14.846 -0.41 +0.01    +0.066 A 
DOCKED: ATOM     21  C   UNL d   1      41.013  24.682  15.147 -0.44 -0.00    -0.025 A 
DOCKED: ATOM     22  C   UNL d   1      42.097  25.135  15.865 -0.29 -0.00    -0.021 A 
DOCKED: ATOM     23  C   UNL d   1      41.937  26.519  15.992 -0.34 +0.01    +0.066 A 
DOCKED: ATOM     24  C   UNL d   1      40.728  23.251  14.771 -0.52 +0.01    +0.051 C 
DOCKED: ATOM     25  N   UNL d   1      41.614  29.449  16.429 -0.21 -0.06    -0.248 N 
DOCKED: ATOM     26  N   UNL d   1      39.348  30.718  15.114 -0.14 -0.05    -0.248 N 
DOCKED: ATOM     27  N   UNL d   1      38.532  28.201  14.106 -0.20 -0.05    -0.248 N 
DOCKED: ATOM     28  N   UNL d   1      40.786  26.913  15.410 -0.27 -0.05    -0.248 N 
DOCKED: ATOM     29 FE   UNL d   1      40.070  28.800  15.262 -0.09 +0.00    +0.000 Fe
DOCKED: ATOM     30  O   UNL d   1      39.639  29.216  16.699 -0.69 +0.00    +0.000 OA
DOCKED: ATOM     31  O   UNL d   1      38.993  27.946  16.027 -0.89 +0.00    +0.000 OA
DOCKED: ENDROOT
DOCKED: BRANCH   6  32
DOCKED: ATOM     32  C   UNL d   1      44.649  29.098  18.550 -0.26 +0.02    +0.052 C 
DOCKED: BRANCH  32  33
DOCKED: ATOM     33  C   UNL d   1      44.233  28.600  19.931 -0.21 +0.09    +0.115 C 
DOCKED: BRANCH  33  34
DOCKED: ATOM     34  C   UNL d   1      45.402  28.082  20.731 -0.05 +0.19    +0.139 C 
DOCKED: ATOM     35  O   UNL d   1      45.519  26.882  20.921 -0.15 -0.86    -0.650 OA
DOCKED: BRANCH  34  36
DOCKED: ATOM     36  O   UNL d   1      46.312  28.920  21.269 -0.39 -1.12    -0.776 OA
DOCKED: ATOM     37  H   UNL d   1      47.181  29.055  20.873 +0.02 +0.14    +0.167 HD
DOCKED: ENDBRANCH  34  36
DOCKED: ENDBRANCH  33  34
DOCKED: ENDBRANCH  32  33
DOCKED: ENDBRANCH   6  32
DOCKED: BRANCH  22  38
DOCKED: ATOM     38  C   UNL d   1      43.187  24.274  16.449 -0.26 +0.01    +0.052 C 
DOCKED: BRANCH  38  39
DOCKED: ATOM     39  C   UNL d   1      43.447  24.584  17.921 -0.27 +0.04    +0.115 C 
DOCKED: BRANCH  39  40
DOCKED: ATOM     40  C   UNL d   1      42.924  23.506  18.838 -0.34 +0.04    +0.139 C 
DOCKED: ATOM     41  O   UNL d   1      41.892  22.920  18.557 -0.09 -0.11    -0.650 OA
DOCKED: BRANCH  40  42
DOCKED: ATOM     42  O   UNL d   1      43.605  23.141  19.942 -0.36 -0.35    -0.776 OA
DOCKED: ATOM     43  H   UNL d   1      44.278  23.712  20.332 +0.06 +0.08    +0.167 HD
DOCKED: ENDBRANCH  40  42
DOCKED: ENDBRANCH  39  40
DOCKED: ENDBRANCH  38  39
DOCKED: ENDBRANCH  22  38
DOCKED: BRANCH  12  44
DOCKED: ATOM     44  C   UNL d   1      37.328  33.608  13.745 -0.49 +0.00    +0.004 C 
DOCKED: ATOM     45  C   UNL d   1      36.454  33.394  12.762 -0.56 +0.00    +0.012 C 
DOCKED: ENDBRANCH  12  44
DOCKED: BRANCH  17  46
DOCKED: ATOM     46  C   UNL d   1      36.454  25.559  12.529 -0.65 +0.00    +0.004 C 
DOCKED: ATOM     47  C   UNL d   1      35.936  24.581  13.282 -0.71 +0.00    +0.012 C 
DOCKED: ENDBRANCH  17  46
DOCKED: TORSDOF 10
DOCKED: TER
DOCKED: ENDMDL
________________________________________________________________________________


	BEGINNING GENETIC ALGORITHM DOCKING 8 of 100
Run: 8 Seed: 362034901 70438577 [ Run 8 of 100 GA/GALS ]
Beginning LAMARCKIAN GENETIC ALGORITHM (LGA), with a maximum of 25000000 energy evaluations.

Final-Value: -20.585


	FINAL GENETIC ALGORITHM DOCKED STATE
	_______________________________________________


Detailed state:  trans 41.074 28.223 15.713 quatxyzw 0.328942 -0.377039 -0.864222 0.052525 center 8.287 34.468 -0.670 ntor 10 -146.5340 -110.7698 18.5446 -96.7220 -10.9776 171.0412 -66.0183 44.5352 -173.6602 177.0269
State:	 41.074  28.223  15.713   0.329 -0.378 -0.865 173.978   -146.53 -110.77   18.54  -96.72  -10.98  171.04  -66.02   44.54 -173.66  177.03

DOCKED: MODEL        8
DOCKED: USER    Run = 8
DOCKED: USER    DPF = D:/Protein_go_brrr/autodock/final/6BB5/heme_O2/dock.dpf
DOCKED: USER  
DOCKED: USER    Estimated Free Energy of Binding    =  -15.12 kcal/mol  [=(1)+(2)+(3)-(4)]
DOCKED: USER    Estimated Inhibition Constant, Ki   =    8.29 pM (picomolar)  [Temperature = 298.15 K]
DOCKED: USER    
DOCKED: USER    (1) Final Intermolecular Energy     =  -18.10 kcal/mol
DOCKED: USER        vdW + Hbond + desolv Energy     =  -16.25 kcal/mol
DOCKED: USER        Electrostatic Energy            =   -1.85 kcal/mol
DOCKED: USER    (2) Final Total Internal Energy     =   -2.48 kcal/mol
DOCKED: USER    (3) Torsional Free Energy           =   +2.98 kcal/mol
DOCKED: USER    (4) Unbound System's Energy  [=(2)] =   -2.48 kcal/mol
DOCKED: USER    
DOCKED: USER    
DOCKED: USER    NEWDPF move heme_O2_opt.pdbqt
DOCKED: USER    NEWDPF about 8.287000 34.468000 -0.670000
DOCKED: USER    NEWDPF tran0 41.074277 28.222678 15.712686
DOCKED: USER    NEWDPF quaternion0 0.328942 -0.377039 -0.864222 0.052525
DOCKED: USER    NEWDPF axisangle0 0.329397 -0.377560 -0.865417 173.978316
DOCKED: USER    NEWDPF quat0 0.329397 -0.377560 -0.865417 173.978316
DOCKED: USER    NEWDPF dihe0 -146.53 -110.77 18.54 -96.72 -10.98 171.04 -66.02 44.54 -173.66 177.03 
DOCKED: USER  keepresnum = 1 
DOCKED: USER  
DOCKED: REMARK  10 active torsions:
DOCKED: REMARK  status: ('A' for Active; 'I' for Inactive)
DOCKED: REMARK    1  A    between atoms: C_6  and  C_10 
DOCKED: REMARK    2  A    between atoms: C_10  and  C_11 
DOCKED: REMARK    3  A    between atoms: C_11  and  C_12 
DOCKED: REMARK    4  A    between atoms: C_12  and  O_14 
DOCKED: REMARK    5  A    between atoms: C_17  and  C_20 
DOCKED: REMARK    6  A    between atoms: C_24  and  C_27 
DOCKED: REMARK    7  A    between atoms: C_31  and  C_34 
DOCKED: REMARK    8  A    between atoms: C_34  and  C_35 
DOCKED: REMARK    9  A    between atoms: C_35  and  C_36 
DOCKED: REMARK   10  A    between atoms: C_36  and  O_38 
DOCKED: USER                              x       y       z     vdW  Elec       q    Type
DOCKED: USER                           _______ _______ _______ _____ _____    ______ ____
DOCKED: ROOT
DOCKED: ATOM      1  C   UNL d   1      42.748  27.540  16.822 -0.24 +0.02    +0.064 A 
DOCKED: ATOM      2  C   UNL d   1      40.797  31.836  16.275 -0.39 +0.01    +0.064 A 
DOCKED: ATOM      3  C   UNL d   1      37.472  30.049  13.302 -0.39 +0.01    +0.064 C 
DOCKED: ATOM      4  C   UNL d   1      39.178  25.544  14.232 -0.42 +0.01    +0.064 A 
DOCKED: ATOM      5  C   UNL d   1      42.488  28.854  16.917 -0.23 +0.02    +0.066 A 
DOCKED: ATOM      6  C   UNL d   1      43.248  29.750  17.675 -0.30 -0.01    -0.021 A 
DOCKED: ATOM      7  C   UNL d   1      42.658  30.986  17.552 -0.37 -0.01    -0.025 A 
DOCKED: ATOM      8  C   UNL d   1      41.583  30.821  16.684 -0.33 +0.01    +0.066 A 
DOCKED: ATOM      9  C   UNL d   1      43.113  32.237  18.271 -0.44 +0.01    +0.051 C 
DOCKED: ATOM     10  C   UNL d   1      39.670  31.728  15.349 -0.36 +0.01    +0.066 A 
DOCKED: ATOM     11  C   UNL d   1      38.991  32.837  14.831 -0.40 -0.00    -0.021 A 
DOCKED: ATOM     12  C   UNL d   1      38.040  32.343  13.957 -0.40 +0.00    +0.000 A 
DOCKED: ATOM     13  C   UNL d   1      38.187  30.929  14.002 -0.37 +0.01    +0.070 A 
DOCKED: ATOM     14  C   UNL d   1      39.256  34.306  15.135 -0.53 +0.00    +0.052 C 
DOCKED: ATOM     15  C   UNL d   1      37.567  28.609  13.346 -0.39 +0.01    +0.066 A 
DOCKED: ATOM     16  C   UNL d   1      36.680  27.739  12.713 -0.51 -0.00    -0.021 A 
DOCKED: ATOM     17  C   UNL d   1      37.145  26.449  12.965 -0.47 +0.00    +0.000 A 
DOCKED: ATOM     18  C   UNL d   1      38.298  26.631  13.741 -0.38 +0.01    +0.070 A 
DOCKED: ATOM     19  C   UNL d   1      35.449  28.209  11.979 -0.66 +0.00    +0.052 C 
DOCKED: ATOM     20  C   UNL d   1      40.266  25.681  15.015 -0.40 +0.01    +0.066 A 
DOCKED: ATOM     21  C   UNL d   1      41.066  24.621  15.431 -0.43 -0.00    -0.025 A 
DOCKED: ATOM     22  C   UNL d   1      42.104  25.173  16.148 -0.33 -0.00    -0.021 A 
DOCKED: ATOM     23  C   UNL d   1      41.888  26.555  16.157 -0.34 +0.01    +0.066 A 
DOCKED: ATOM     24  C   UNL d   1      40.849  23.154  15.162 -0.56 +0.00    +0.051 C 
DOCKED: ATOM     25  N   UNL d   1      41.439  29.495  16.345 -0.20 -0.06    -0.248 N 
DOCKED: ATOM     26  N   UNL d   1      39.178  30.563  14.855 -0.14 -0.05    -0.248 N 
DOCKED: ATOM     27  N   UNL d   1      38.496  27.944  14.025 -0.21 -0.05    -0.248 N 
DOCKED: ATOM     28  N   UNL d   1      40.745  26.855  15.506 -0.27 -0.05    -0.248 N 
DOCKED: ATOM     29 FE   UNL d   1      39.965  28.694  15.181 -0.07 +0.00    +0.000 Fe
DOCKED: ATOM     30  O   UNL d   1      39.466  29.205  16.564 -0.75 +0.00    +0.000 OA
DOCKED: ATOM     31  O   UNL d   1      38.894  27.861  15.975 -0.84 +0.00    +0.000 OA
DOCKED: ENDROOT
DOCKED: BRANCH   6  32
DOCKED: ATOM     32  C   UNL d   1      44.403  29.436  18.591 -0.28 +0.02    +0.052 C 
DOCKED: BRANCH  32  33
DOCKED: ATOM     33  C   UNL d   1      43.962  29.151  20.024 +0.03 +0.09    +0.115 C 
DOCKED: BRANCH  33  34
DOCKED: ATOM     34  C   UNL d   1      44.173  27.710  20.415 -0.19 +0.15    +0.139 C 
DOCKED: ATOM     35  O   UNL d   1      43.582  27.254  21.381 -0.49 -1.12    -0.650 OA
DOCKED: BRANCH  34  36
DOCKED: ATOM     36  O   UNL d   1      45.026  26.914  19.736 +0.06 -0.56    -0.776 OA
DOCKED: ATOM     37  H   UNL d   1      44.861  25.972  19.617 +0.06 +0.10    +0.167 HD
DOCKED: ENDBRANCH  34  36
DOCKED: ENDBRANCH  33  34
DOCKED: ENDBRANCH  32  33
DOCKED: ENDBRANCH   6  32
DOCKED: BRANCH  22  38
DOCKED: ATOM     38  C   UNL d   1      43.202  24.406  16.836 -0.31 +0.01    +0.052 C 
DOCKED: BRANCH  38  39
DOCKED: ATOM     39  C   UNL d   1      42.766  23.857  18.193 -0.37 +0.03    +0.115 C 
DOCKED: BRANCH  39  40
DOCKED: ATOM     40  C   UNL d   1      43.818  24.047  19.257 -0.26 +0.05    +0.139 C 
DOCKED: ATOM     41  O   UNL d   1      44.987  23.800  19.005 +0.02 -0.28    -0.650 OA
DOCKED: BRANCH  40  42
DOCKED: ATOM     42  O   UNL d   1      43.500  24.537  20.471 +0.04 -0.39    -0.776 OA
DOCKED: ATOM     43  H   UNL d   1      43.754  25.428  20.738 +0.07 +0.12    +0.167 HD
DOCKED: ENDBRANCH  40  42
DOCKED: ENDBRANCH  39  40
DOCKED: ENDBRANCH  38  39
DOCKED: ENDBRANCH  22  38
DOCKED: BRANCH  12  44
DOCKED: ATOM     44  C   UNL d   1      37.105  33.253  13.188 -0.49 +0.00    +0.004 C 
DOCKED: ATOM     45  C   UNL d   1      35.996  32.919  12.529 -0.60 +0.00    +0.012 C 
DOCKED: ENDBRANCH  12  44
DOCKED: BRANCH  17  46
DOCKED: ATOM     46  C   UNL d   1      36.579  25.104  12.595 -0.67 +0.00    +0.004 C 
DOCKED: ATOM     47  C   UNL d   1      35.927  24.236  13.379 -0.73 +0.00    +0.012 C 
DOCKED: ENDBRANCH  17  46
DOCKED: TORSDOF 10
DOCKED: TER
DOCKED: ENDMDL
________________________________________________________________________________


	BEGINNING GENETIC ALGORITHM DOCKING 9 of 100
Run: 9 Seed: 1774072369 37993200 [ Run 9 of 100 GA/GALS ]
Beginning LAMARCKIAN GENETIC ALGORITHM (LGA), with a maximum of 25000000 energy evaluations.

Final-Value: -10.390


	FINAL GENETIC ALGORITHM DOCKED STATE
	_______________________________________________


Detailed state:  trans 21.804 47.391 -2.420 quatxyzw 0.089653 -0.901388 0.139083 0.400148 center 8.287 34.468 -0.670 ntor 10 45.2898 -34.7441 -17.3446 94.5955 167.7506 137.4843 -106.3249 -94.3212 -6.7742 159.1954
State:	 21.804  47.391  -2.420   0.098 -0.984  0.152 132.825     45.29  -34.74  -17.34   94.60  167.75  137.48 -106.32  -94.32   -6.77  159.20

DOCKED: MODEL        9
DOCKED: USER    Run = 9
DOCKED: USER    DPF = D:/Protein_go_brrr/autodock/final/6BB5/heme_O2/dock.dpf
DOCKED: USER  
DOCKED: USER    Estimated Free Energy of Binding    =   -6.60 kcal/mol  [=(1)+(2)+(3)-(4)]
DOCKED: USER    Estimated Inhibition Constant, Ki   =   14.41 uM (micromolar)  [Temperature = 298.15 K]
DOCKED: USER    
DOCKED: USER    (1) Final Intermolecular Energy     =   -9.59 kcal/mol
DOCKED: USER        vdW + Hbond + desolv Energy     =   -8.47 kcal/mol
DOCKED: USER        Electrostatic Energy            =   -1.12 kcal/mol
DOCKED: USER    (2) Final Total Internal Energy     =   -0.80 kcal/mol
DOCKED: USER    (3) Torsional Free Energy           =   +2.98 kcal/mol
DOCKED: USER    (4) Unbound System's Energy  [=(2)] =   -0.80 kcal/mol
DOCKED: USER    
DOCKED: USER    
DOCKED: USER    NEWDPF move heme_O2_opt.pdbqt
DOCKED: USER    NEWDPF about 8.287000 34.468000 -0.670000
DOCKED: USER    NEWDPF tran0 21.803678 47.390537 -2.419795
DOCKED: USER    NEWDPF quaternion0 0.089653 -0.901388 0.139083 0.400148
DOCKED: USER    NEWDPF axisangle0 0.097826 -0.983564 0.151763 132.825106
DOCKED: USER    NEWDPF quat0 0.097826 -0.983564 0.151763 132.825106
DOCKED: USER    NEWDPF dihe0 45.29 -34.74 -17.34 94.60 167.75 137.48 -106.32 -94.32 -6.77 159.20 
DOCKED: USER  keepresnum = 1 
DOCKED: USER  
DOCKED: REMARK  10 active torsions:
DOCKED: REMARK  status: ('A' for Active; 'I' for Inactive)
DOCKED: REMARK    1  A    between atoms: C_6  and  C_10 
DOCKED: REMARK    2  A    between atoms: C_10  and  C_11 
DOCKED: REMARK    3  A    between atoms: C_11  and  C_12 
DOCKED: REMARK    4  A    between atoms: C_12  and  O_14 
DOCKED: REMARK    5  A    between atoms: C_17  and  C_20 
DOCKED: REMARK    6  A    between atoms: C_24  and  C_27 
DOCKED: REMARK    7  A    between atoms: C_31  and  C_34 
DOCKED: REMARK    8  A    between atoms: C_34  and  C_35 
DOCKED: REMARK    9  A    between atoms: C_35  and  C_36 
DOCKED: REMARK   10  A    between atoms: C_36  and  O_38 
DOCKED: USER                              x       y       z     vdW  Elec       q    Type
DOCKED: USER                           _______ _______ _______ _____ _____    ______ ____
DOCKED: ROOT
DOCKED: ATOM      1  C   UNL d   1      22.417  48.613  -0.799 -0.13 -0.00    +0.064 A 
DOCKED: ATOM      2  C   UNL d   1      24.541  45.051  -3.114 -0.19 +0.01    +0.064 A 
DOCKED: ATOM      3  C   UNL d   1      20.699  44.475  -5.942 -0.31 +0.00    +0.064 C 
DOCKED: ATOM      4  C   UNL d   1      18.691  48.451  -3.885 -0.12 -0.02    +0.064 A 
DOCKED: ATOM      5  C   UNL d   1      23.309  47.693  -1.199 -0.09 +0.00    +0.066 A 
DOCKED: ATOM      6  C   UNL d   1      24.564  47.510  -0.610 -0.08 -0.00    -0.021 A 
DOCKED: ATOM      7  C   UNL d   1      25.197  46.508  -1.307 -0.02 -0.00    -0.025 A 
DOCKED: ATOM      8  C   UNL d   1      24.293  46.073  -2.272 -0.08 +0.01    +0.066 A 
DOCKED: ATOM      9  C   UNL d   1      26.612  46.036  -1.052 -0.11 +0.01    +0.051 C 
DOCKED: ATOM     10  C   UNL d   1      23.624  44.536  -4.132 -0.23 +0.01    +0.066 A 
DOCKED: ATOM     11  C   UNL d   1      23.867  43.370  -4.867 -0.23 -0.00    -0.021 A 
DOCKED: ATOM     12  C   UNL d   1      22.762  43.177  -5.675 -0.18 +0.00    +0.000 A 
DOCKED: ATOM     13  C   UNL d   1      21.894  44.267  -5.390 -0.23 +0.01    +0.070 A 
DOCKED: ATOM     14  C   UNL d   1      25.089  42.463  -4.782 -0.21 +0.01    +0.052 C 
DOCKED: ATOM     15  C   UNL d   1      19.806  45.584  -5.706 -0.24 -0.00    +0.066 A 
DOCKED: ATOM     16  C   UNL d   1      18.643  45.832  -6.436 -0.24 +0.00    -0.021 A 
DOCKED: ATOM     17  C   UNL d   1      18.054  46.961  -5.868 -0.21 -0.00    +0.000 A 
DOCKED: ATOM     18  C   UNL d   1      18.912  47.322  -4.819 -0.18 -0.01    +0.070 A 
DOCKED: ATOM     19  C   UNL d   1      18.232  45.011  -7.632 -0.25 +0.00    +0.052 C 
DOCKED: ATOM     20  C   UNL d   1      19.514  48.850  -2.896 -0.06 -0.02    +0.066 A 
DOCKED: ATOM     21  C   UNL d   1      19.243  49.911  -2.036 -0.22 +0.01    -0.025 A 
DOCKED: ATOM     22  C   UNL d   1      20.282  49.954  -1.133 -0.23 +0.00    -0.021 A 
DOCKED: ATOM     23  C   UNL d   1      21.160  48.926  -1.488 -0.18 -0.01    +0.066 A 
DOCKED: ATOM     24  C   UNL d   1      18.056  50.838  -2.076 -0.26 -0.01    +0.051 C 
DOCKED: ATOM     25  N   UNL d   1      23.156  46.847  -2.248 -0.10 -0.02    -0.248 N 
DOCKED: ATOM     26  N   UNL d   1      22.428  45.091  -4.453 -0.16 -0.01    -0.248 N 
DOCKED: ATOM     27  N   UNL d   1      20.007  46.520  -4.783 -0.14 +0.02    -0.248 N 
DOCKED: ATOM     28  N   UNL d   1      20.712  48.286  -2.587 -0.13 +0.04    -0.248 N 
DOCKED: ATOM     29 FE   UNL d   1      21.561  46.700  -3.515 -0.04 -0.00    +0.000 Fe
DOCKED: ATOM     30  O   UNL d   1      22.856  47.236  -4.193 -0.09 +0.00    +0.000 OA
DOCKED: ATOM     31  O   UNL d   1      21.461  47.865  -4.568 -0.09 -0.00    +0.000 OA
DOCKED: ENDROOT
DOCKED: BRANCH   6  32
DOCKED: ATOM     32  C   UNL d   1      25.201  48.335   0.478 -0.09 +0.01    +0.052 C 
DOCKED: BRANCH  32  33
DOCKED: ATOM     33  C   UNL d   1      24.638  48.027   1.862 -0.14 +0.03    +0.115 C 
DOCKED: BRANCH  33  34
DOCKED: ATOM     34  C   UNL d   1      25.075  46.677   2.374 -0.18 +0.11    +0.139 C 
DOCKED: ATOM     35  O   UNL d   1      26.023  46.112   1.852 -0.11 -0.58    -0.650 OA
DOCKED: BRANCH  34  36
DOCKED: ATOM     36  O   UNL d   1      24.422  46.061   3.381 -0.45 -0.83    -0.776 OA
DOCKED: ATOM     37  H   UNL d   1      23.460  46.009   3.410 -0.41 +0.04    +0.167 HD
DOCKED: ENDBRANCH  34  36
DOCKED: ENDBRANCH  33  34
DOCKED: ENDBRANCH  32  33
DOCKED: ENDBRANCH   6  32
DOCKED: BRANCH  22  38
DOCKED: ATOM     38  C   UNL d   1      20.447  50.971  -0.033 -0.26 -0.01    +0.052 C 
DOCKED: BRANCH  38  39
DOCKED: ATOM     39  C   UNL d   1      21.412  52.091  -0.415 -0.12 -0.02    +0.115 C 
DOCKED: BRANCH  39  40
DOCKED: ATOM     40  C   UNL d   1      20.738  53.190  -1.198 -0.13 -0.02    +0.139 C 
DOCKED: ATOM     41  O   UNL d   1      20.497  53.030  -2.384 +0.00 +0.06    -0.650 OA
DOCKED: BRANCH  40  42
DOCKED: ATOM     42  O   UNL d   1      20.349  54.333  -0.599 -0.01 +0.16    -0.776 OA
DOCKED: ATOM     43  H   UNL d   1      20.057  54.346   0.320 -0.51 -0.08    +0.167 HD
DOCKED: ENDBRANCH  40  42
DOCKED: ENDBRANCH  39  40
DOCKED: ENDBRANCH  38  39
DOCKED: ENDBRANCH  22  38
DOCKED: BRANCH  12  44
DOCKED: ATOM     44  C   UNL d   1      22.653  41.999  -6.619 -0.22 +0.00    +0.004 C 
DOCKED: ATOM     45  C   UNL d   1      21.548  41.467  -7.141 -0.30 +0.00    +0.012 C 
DOCKED: ENDBRANCH  12  44
DOCKED: BRANCH  17  46
DOCKED: ATOM     46  C   UNL d   1      16.823  47.735  -6.257 -0.19 -0.00    +0.004 C 
DOCKED: ATOM     47  C   UNL d   1      15.556  47.521  -5.879 -0.34 -0.00    +0.012 C 
DOCKED: ENDBRANCH  17  46
DOCKED: TORSDOF 10
DOCKED: TER
DOCKED: ENDMDL
________________________________________________________________________________


	BEGINNING GENETIC ALGORITHM DOCKING 10 of 100
Run: 10 Seed: 367695567 955468676 [ Run 10 of 100 GA/GALS ]
Beginning LAMARCKIAN GENETIC ALGORITHM (LGA), with a maximum of 25000000 energy evaluations.

Final-Value: -20.085


	FINAL GENETIC ALGORITHM DOCKED STATE
	_______________________________________________


Detailed state:  trans 41.266 28.340 15.813 quatxyzw -0.316606 0.389744 0.864763 -0.006696 center 8.287 34.468 -0.670 ntor 10 126.0017 56.0856 6.0676 -53.2009 166.1862 -54.3974 -72.7908 119.6744 -169.0035 -165.0123
State:	 41.266  28.340  15.813  -0.317  0.390  0.865 -179.233    126.00   56.09    6.07  -53.20  166.19  -54.40  -72.79  119.67 -169.00 -165.01

DOCKED: MODEL       10
DOCKED: USER    Run = 10
DOCKED: USER    DPF = D:/Protein_go_brrr/autodock/final/6BB5/heme_O2/dock.dpf
DOCKED: USER  
DOCKED: USER    Estimated Free Energy of Binding    =  -14.88 kcal/mol  [=(1)+(2)+(3)-(4)]
DOCKED: USER    Estimated Inhibition Constant, Ki   =   12.46 pM (picomolar)  [Temperature = 298.15 K]
DOCKED: USER    
DOCKED: USER    (1) Final Intermolecular Energy     =  -17.86 kcal/mol
DOCKED: USER        vdW + Hbond + desolv Energy     =  -16.06 kcal/mol
DOCKED: USER        Electrostatic Energy            =   -1.80 kcal/mol
DOCKED: USER    (2) Final Total Internal Energy     =   -2.23 kcal/mol
DOCKED: USER    (3) Torsional Free Energy           =   +2.98 kcal/mol
DOCKED: USER    (4) Unbound System's Energy  [=(2)] =   -2.23 kcal/mol
DOCKED: USER    
DOCKED: USER    
DOCKED: USER    NEWDPF move heme_O2_opt.pdbqt
DOCKED: USER    NEWDPF about 8.287000 34.468000 -0.670000
DOCKED: USER    NEWDPF tran0 41.265828 28.340391 15.812811
DOCKED: USER    NEWDPF quaternion0 -0.316606 0.389744 0.864763 -0.006696
DOCKED: USER    NEWDPF axisangle0 -0.316613 0.389753 0.864783 -179.232694
DOCKED: USER    NEWDPF quat0 -0.316613 0.389753 0.864783 -179.232694
DOCKED: USER    NEWDPF dihe0 126.00 56.09 6.07 -53.20 166.19 -54.40 -72.79 119.67 -169.00 -165.01 
DOCKED: USER  keepresnum = 1 
DOCKED: USER  
DOCKED: REMARK  10 active torsions:
DOCKED: REMARK  status: ('A' for Active; 'I' for Inactive)
DOCKED: REMARK    1  A    between atoms: C_6  and  C_10 
DOCKED: REMARK    2  A    between atoms: C_10  and  C_11 
DOCKED: REMARK    3  A    between atoms: C_11  and  C_12 
DOCKED: REMARK    4  A    between atoms: C_12  and  O_14 
DOCKED: REMARK    5  A    between atoms: C_17  and  C_20 
DOCKED: REMARK    6  A    between atoms: C_24  and  C_27 
DOCKED: REMARK    7  A    between atoms: C_31  and  C_34 
DOCKED: REMARK    8  A    between atoms: C_34  and  C_35 
DOCKED: REMARK    9  A    between atoms: C_35  and  C_36 
DOCKED: REMARK   10  A    between atoms: C_36  and  O_38 
DOCKED: USER                              x       y       z     vdW  Elec       q    Type
DOCKED: USER                           _______ _______ _______ _____ _____    ______ ____
DOCKED: ROOT
DOCKED: ATOM      1  C   UNL d   1      43.039  27.819  16.853 -0.29 +0.02    +0.064 A 
DOCKED: ATOM      2  C   UNL d   1      40.794  31.955  16.215 -0.40 +0.01    +0.064 A 
DOCKED: ATOM      3  C   UNL d   1      37.426  29.819  13.533 -0.33 +0.01    +0.064 C 
DOCKED: ATOM      4  C   UNL d   1      39.462  25.479  14.579 -0.39 +0.01    +0.064 A 
DOCKED: ATOM      5  C   UNL d   1      42.702  29.118  16.900 -0.29 +0.02    +0.066 A 
DOCKED: ATOM      6  C   UNL d   1      43.445  30.096  17.567 -0.31 -0.01    -0.021 A 
DOCKED: ATOM      7  C   UNL d   1      42.773  31.286  17.419 -0.36 -0.00    -0.025 A 
DOCKED: ATOM      8  C   UNL d   1      41.663  31.012  16.625 -0.34 +0.01    +0.066 A 
DOCKED: ATOM      9  C   UNL d   1      43.188  32.598  18.049 -0.43 +0.01    +0.051 C 
DOCKED: ATOM     10  C   UNL d   1      39.625  31.731  15.363 -0.36 +0.01    +0.066 A 
DOCKED: ATOM     11  C   UNL d   1      38.850  32.769  14.832 -0.40 -0.00    -0.021 A 
DOCKED: ATOM     12  C   UNL d   1      37.884  32.173  14.041 -0.40 +0.00    +0.000 A 
DOCKED: ATOM     13  C   UNL d   1      38.123  30.775  14.146 -0.36 +0.01    +0.070 A 
DOCKED: ATOM     14  C   UNL d   1      39.039  34.265  15.049 -0.52 +0.00    +0.052 C 
DOCKED: ATOM     15  C   UNL d   1      37.614  28.392  13.641 -0.37 +0.01    +0.066 A 
DOCKED: ATOM     16  C   UNL d   1      36.749  27.438  13.105 -0.46 -0.00    -0.021 A 
DOCKED: ATOM     17  C   UNL d   1      37.309  26.193  13.391 -0.46 +0.00    +0.000 A 
DOCKED: ATOM     18  C   UNL d   1      38.490  26.485  14.088 -0.38 +0.01    +0.070 A 
DOCKED: ATOM     19  C   UNL d   1      35.452  27.795  12.422 -0.64 +0.00    +0.052 C 
DOCKED: ATOM     20  C   UNL d   1      40.581  25.722  15.288 -0.40 +0.01    +0.066 A 
DOCKED: ATOM     21  C   UNL d   1      41.469  24.735  15.708 -0.40 -0.00    -0.025 A 
DOCKED: ATOM     22  C   UNL d   1      42.508  25.385  16.334 -0.32 -0.00    -0.021 A 
DOCKED: ATOM     23  C   UNL d   1      42.206  26.750  16.289 -0.33 +0.01    +0.066 A 
DOCKED: ATOM     24  C   UNL d   1      41.330  23.246  15.523 -0.53 +0.00    +0.051 C 
DOCKED: ATOM     25  N   UNL d   1      41.585  29.664  16.360 -0.21 -0.06    -0.248 N 
DOCKED: ATOM     26  N   UNL d   1      39.181  30.515  14.956 -0.15 -0.06    -0.248 N 
DOCKED: ATOM     27  N   UNL d   1      38.620  27.820  14.296 -0.22 -0.05    -0.248 N 
DOCKED: ATOM     28  N   UNL d   1      41.013  26.946  15.692 -0.27 -0.05    -0.248 N 
DOCKED: ATOM     29 FE   UNL d   1      40.101  28.716  15.326 -0.09 +0.00    +0.000 Fe
DOCKED: ATOM     30  O   UNL d   1      39.649  29.267  16.709 -0.68 +0.00    +0.000 OA
DOCKED: ATOM     31  O   UNL d   1      39.130  27.862  16.221 -0.97 +0.00    +0.000 OA
DOCKED: ENDROOT
DOCKED: BRANCH   6  32
DOCKED: ATOM     32  C   UNL d   1      44.667  29.900  18.427 -0.27 +0.02    +0.052 C 
DOCKED: BRANCH  32  33
DOCKED: ATOM     33  C   UNL d   1      44.324  29.552  19.873 +0.02 +0.08    +0.115 C 
DOCKED: BRANCH  33  34
DOCKED: ATOM     34  C   UNL d   1      44.556  28.095  20.185 -0.22 +0.14    +0.139 C 
DOCKED: ATOM     35  O   UNL d   1      45.225  27.414  19.424 +0.02 -0.43    -0.650 OA
DOCKED: BRANCH  34  36
DOCKED: ATOM     36  O   UNL d   1      44.016  27.515  21.276 -0.29 -1.41    -0.776 OA
DOCKED: ATOM     37  H   UNL d   1      43.482  26.714  21.218 +0.05 +0.22    +0.167 HD
DOCKED: ENDBRANCH  34  36
DOCKED: ENDBRANCH  33  34
DOCKED: ENDBRANCH  32  33
DOCKED: ENDBRANCH   6  32
DOCKED: BRANCH  22  38
DOCKED: ATOM     38  C   UNL d   1      43.690  24.722  16.993 -0.29 +0.02    +0.052 C 
DOCKED: BRANCH  38  39
DOCKED: ATOM     39  C   UNL d   1      43.281  23.848  18.177 -0.31 +0.03    +0.115 C 
DOCKED: BRANCH  39  40
DOCKED: ATOM     40  C   UNL d   1      42.609  24.638  19.272 -0.36 +0.04    +0.139 C 
DOCKED: ATOM     41  O   UNL d   1      41.397  24.780  19.260 +0.01 -0.13    -0.650 OA
DOCKED: BRANCH  40  42
DOCKED: ATOM     42  O   UNL d   1      43.319  25.151  20.295 +0.03 -0.40    -0.776 OA
DOCKED: ATOM     43  H   UNL d   1      44.041  25.772  20.148 +0.07 +0.11    +0.167 HD
DOCKED: ENDBRANCH  40  42
DOCKED: ENDBRANCH  39  40
DOCKED: ENDBRANCH  38  39
DOCKED: ENDBRANCH  22  38
DOCKED: BRANCH  12  44
DOCKED: ATOM     44  C   UNL d   1      36.852  32.984  13.286 -0.50 +0.00    +0.004 C 
DOCKED: ATOM     45  C   UNL d   1      35.858  32.535  12.521 -0.60 +0.00    +0.012 C 
DOCKED: ENDBRANCH  12  44
DOCKED: BRANCH  17  46
DOCKED: ATOM     46  C   UNL d   1      36.809  24.799  13.121 -0.67 +0.00    +0.004 C 
DOCKED: ATOM     47  C   UNL d   1      35.677  24.227  13.552 -0.73 +0.00    +0.012 C 
DOCKED: ENDBRANCH  17  46
DOCKED: TORSDOF 10
DOCKED: TER
DOCKED: ENDMDL
________________________________________________________________________________


	BEGINNING GENETIC ALGORITHM DOCKING 11 of 100
Run: 11 Seed: 394125996 688708978 [ Run 11 of 100 GA/GALS ]
Beginning LAMARCKIAN GENETIC ALGORITHM (LGA), with a maximum of 25000000 energy evaluations.

Final-Value: -12.619


	FINAL GENETIC ALGORITHM DOCKED STATE
	_______________________________________________


Detailed state:  trans 16.966 26.743 28.965 quatxyzw 0.048985 -0.955309 0.214240 0.197704 center 8.287 34.468 -0.670 ntor 10 -82.0597 -111.2467 -66.1198 -71.7597 10.1280 92.2126 -50.0265 -71.5833 -163.2073 21.3392
State:	 16.966  26.743  28.965   0.050 -0.975  0.219 157.195    -82.06 -111.25  -66.12  -71.76   10.13   92.21  -50.03  -71.58 -163.21   21.34

DOCKED: MODEL       11
DOCKED: USER    Run = 11
DOCKED: USER    DPF = D:/Protein_go_brrr/autodock/final/6BB5/heme_O2/dock.dpf
DOCKED: USER  
DOCKED: USER    Estimated Free Energy of Binding    =   -7.02 kcal/mol  [=(1)+(2)+(3)-(4)]
DOCKED: USER    Estimated Inhibition Constant, Ki   =    7.12 uM (micromolar)  [Temperature = 298.15 K]
DOCKED: USER    
DOCKED: USER    (1) Final Intermolecular Energy     =  -10.01 kcal/mol
DOCKED: USER        vdW + Hbond + desolv Energy     =   -7.46 kcal/mol
DOCKED: USER        Electrostatic Energy            =   -2.54 kcal/mol
DOCKED: USER    (2) Final Total Internal Energy     =   -2.61 kcal/mol
DOCKED: USER    (3) Torsional Free Energy           =   +2.98 kcal/mol
DOCKED: USER    (4) Unbound System's Energy  [=(2)] =   -2.61 kcal/mol
DOCKED: USER    
DOCKED: USER    
DOCKED: USER    NEWDPF move heme_O2_opt.pdbqt
DOCKED: USER    NEWDPF about 8.287000 34.468000 -0.670000
DOCKED: USER    NEWDPF tran0 16.966470 26.742903 28.965115
DOCKED: USER    NEWDPF quaternion0 0.048985 -0.955309 0.214240 0.197704
DOCKED: USER    NEWDPF axisangle0 0.049972 -0.974545 0.218554 157.194585
DOCKED: USER    NEWDPF quat0 0.049972 -0.974545 0.218554 157.194585
DOCKED: USER    NEWDPF dihe0 -82.06 -111.25 -66.12 -71.76 10.13 92.21 -50.03 -71.58 -163.21 21.34 
DOCKED: USER  keepresnum = 1 
DOCKED: USER  
DOCKED: REMARK  10 active torsions:
DOCKED: REMARK  status: ('A' for Active; 'I' for Inactive)
DOCKED: REMARK    1  A    between atoms: C_6  and  C_10 
DOCKED: REMARK    2  A    between atoms: C_10  and  C_11 
DOCKED: REMARK    3  A    between atoms: C_11  and  C_12 
DOCKED: REMARK    4  A    between atoms: C_12  and  O_14 
DOCKED: REMARK    5  A    between atoms: C_17  and  C_20 
DOCKED: REMARK    6  A    between atoms: C_24  and  C_27 
DOCKED: REMARK    7  A    between atoms: C_31  and  C_34 
DOCKED: REMARK    8  A    between atoms: C_34  and  C_35 
DOCKED: REMARK    9  A    between atoms: C_35  and  C_36 
DOCKED: REMARK   10  A    between atoms: C_36  and  O_38 
DOCKED: USER                              x       y       z     vdW  Elec       q    Type
DOCKED: USER                           _______ _______ _______ _____ _____    ______ ____
DOCKED: ROOT
DOCKED: ATOM      1  C   UNL d   1      18.357  27.932  30.038 -0.08 +0.01    +0.064 A 
DOCKED: ATOM      2  C   UNL d   1      18.782  23.813  27.711 -0.20 +0.00    +0.064 A 
DOCKED: ATOM      3  C   UNL d   1      14.108  23.858  26.592 -0.22 -0.01    +0.064 C 
DOCKED: ATOM      4  C   UNL d   1      13.759  28.331  28.575 -0.16 -0.01    +0.064 A 
DOCKED: ATOM      5  C   UNL d   1      18.854  26.809  29.495 -0.04 +0.01    +0.066 A 
DOCKED: ATOM      6  C   UNL d   1      20.188  26.407  29.613 -0.14 -0.00    -0.021 A 
DOCKED: ATOM      7  C   UNL d   1      20.322  25.236  28.903 -0.20 -0.00    -0.025 A 
DOCKED: ATOM      8  C   UNL d   1      19.055  24.931  28.411 -0.20 +0.01    +0.066 A 
DOCKED: ATOM      9  C   UNL d   1      21.623  24.490  28.701 -0.21 -0.00    +0.051 C 
DOCKED: ATOM     10  C   UNL d   1      17.470  23.428  27.190 -0.19 -0.00    +0.066 A 
DOCKED: ATOM     11  C   UNL d   1      17.207  22.181  26.612 -0.18 +0.00    -0.021 A 
DOCKED: ATOM     12  C   UNL d   1      15.861  22.167  26.299 -0.23 -0.00    +0.000 A 
DOCKED: ATOM     13  C   UNL d   1      15.369  23.440  26.701 -0.17 -0.01    +0.070 A 
DOCKED: ATOM     14  C   UNL d   1      18.194  21.039  26.393 -0.19 -0.01    +0.052 C 
DOCKED: ATOM     15  C   UNL d   1      13.579  25.150  26.955 -0.17 -0.01    +0.066 A 
DOCKED: ATOM     16  C   UNL d   1      12.285  25.584  26.665 -0.25 +0.00    -0.021 A 
DOCKED: ATOM     17  C   UNL d   1      12.163  26.858  27.219 -0.20 -0.00    +0.000 A 
DOCKED: ATOM     18  C   UNL d   1      13.407  27.108  27.816 -0.13 -0.01    +0.070 A 
DOCKED: ATOM     19  C   UNL d   1      11.311  24.776  25.845 -0.01 -0.01    +0.052 C 
DOCKED: ATOM     20  C   UNL d   1      14.956  28.622  29.122 -0.17 -0.00    +0.066 A 
DOCKED: ATOM     21  C   UNL d   1      15.223  29.784  29.841 -0.18 +0.00    -0.025 A 
DOCKED: ATOM     22  C   UNL d   1      16.520  29.675  30.289 -0.19 -0.00    -0.021 A 
DOCKED: ATOM     23  C   UNL d   1      17.004  28.454  29.810 -0.14 +0.00    +0.066 A 
DOCKED: ATOM     24  C   UNL d   1      14.289  30.941  30.085 -0.00 -0.00    +0.051 C 
DOCKED: ATOM     25  N   UNL d   1      18.166  25.934  28.722 -0.11 -0.03    -0.248 N 
DOCKED: ATOM     26  N   UNL d   1      16.356  24.203  27.238 -0.10 +0.01    -0.248 N 
DOCKED: ATOM     27  N   UNL d   1      14.277  26.093  27.581 -0.07 +0.02    -0.248 N 
DOCKED: ATOM     28  N   UNL d   1      16.064  27.838  29.063 -0.10 +0.00    -0.248 N 
DOCKED: ATOM     29 FE   UNL d   1      16.206  26.034  28.156 -0.04 -0.00    +0.000 Fe
DOCKED: ATOM     30  O   UNL d   1      17.210  26.216  26.980 -0.30 +0.00    +0.000 OA
DOCKED: ATOM     31  O   UNL d   1      15.908  27.101  27.040 -0.36 -0.00    +0.000 OA
DOCKED: ENDROOT
DOCKED: BRANCH   6  32
DOCKED: ATOM     32  C   UNL d   1      21.326  27.160  30.250 -0.13 +0.01    +0.052 C 
DOCKED: BRANCH  32  33
DOCKED: ATOM     33  C   UNL d   1      21.896  28.249  29.347 -0.19 +0.04    +0.115 C 
DOCKED: BRANCH  33  34
DOCKED: ATOM     34  C   UNL d   1      21.960  29.591  30.034 -0.09 +0.15    +0.139 C 
DOCKED: ATOM     35  O   UNL d   1      21.686  30.603  29.409 +0.04 -0.92    -0.650 OA
DOCKED: BRANCH  34  36
DOCKED: ATOM     36  O   UNL d   1      22.344  29.703  31.322 -0.06 -1.20    -0.776 OA
DOCKED: ATOM     37  H   UNL d   1      21.734  29.546  32.052 +0.02 +0.20    +0.167 HD
DOCKED: ENDBRANCH  34  36
DOCKED: ENDBRANCH  33  34
DOCKED: ENDBRANCH  32  33
DOCKED: ENDBRANCH   6  32
DOCKED: BRANCH  22  38
DOCKED: ATOM     38  C   UNL d   1      17.268  30.718  31.078 -0.22 +0.01    +0.052 C 
DOCKED: BRANCH  38  39
DOCKED: ATOM     39  C   UNL d   1      17.795  30.178  32.405 -0.08 +0.03    +0.115 C 
DOCKED: BRANCH  39  40
DOCKED: ATOM     40  C   UNL d   1      19.291  29.983  32.395 -0.12 +0.07    +0.139 C 
DOCKED: ATOM     41  O   UNL d   1      19.761  28.885  32.644 +0.01 -0.24    -0.650 OA
DOCKED: BRANCH  40  42
DOCKED: ATOM     42  O   UNL d   1      20.121  30.992  32.065 -0.32 -0.99    -0.776 OA
DOCKED: ATOM     43  H   UNL d   1      20.604  30.995  31.230 +0.03 +0.36    +0.167 HD
DOCKED: ENDBRANCH  40  42
DOCKED: ENDBRANCH  39  40
DOCKED: ENDBRANCH  38  39
DOCKED: ENDBRANCH  22  38
DOCKED: BRANCH  12  44
DOCKED: ATOM     44  C   UNL d   1      15.196  20.967  25.659 -0.36 -0.00    +0.004 C 
DOCKED: ATOM     45  C   UNL d   1      14.325  20.122  26.209 -0.29 -0.01    +0.012 C 
DOCKED: ENDBRANCH  12  44
DOCKED: BRANCH  17  46
DOCKED: ATOM     46  C   UNL d   1      11.029  27.847  27.183 -0.31 -0.00    +0.004 C 
DOCKED: ATOM     47  C   UNL d   1      10.677  28.668  26.185 -0.47 -0.00    +0.012 C 
DOCKED: ENDBRANCH  17  46
DOCKED: TORSDOF 10
DOCKED: TER
DOCKED: ENDMDL
________________________________________________________________________________


	BEGINNING GENETIC ALGORITHM DOCKING 12 of 100
Run: 12 Seed: 1732752330 1789982066 [ Run 12 of 100 GA/GALS ]
Beginning LAMARCKIAN GENETIC ALGORITHM (LGA), with a maximum of 25000000 energy evaluations.

Final-Value: -19.306


	FINAL GENETIC ALGORITHM DOCKED STATE
	_______________________________________________


Detailed state:  trans 8.283 34.709 -0.948 quatxyzw -0.016112 -0.033612 -0.020343 -0.999098 center 8.287 34.468 -0.670 ntor 10 114.0416 -102.3147 -17.0364 -66.6403 -169.7911 -178.9340 -36.7032 37.5035 178.7715 150.6526
State:	  8.283  34.709  -0.948  -0.379 -0.792 -0.479 -4.867    114.04 -102.31  -17.04  -66.64 -169.79 -178.93  -36.70   37.50  178.77  150.65

DOCKED: MODEL       12
DOCKED: USER    Run = 12
DOCKED: USER    DPF = D:/Protein_go_brrr/autodock/final/6BB5/heme_O2/dock.dpf
DOCKED: USER  
DOCKED: USER    Estimated Free Energy of Binding    =  -14.33 kcal/mol  [=(1)+(2)+(3)-(4)]
DOCKED: USER    Estimated Inhibition Constant, Ki   =   31.24 pM (picomolar)  [Temperature = 298.15 K]
DOCKED: USER    
DOCKED: USER    (1) Final Intermolecular Energy     =  -17.31 kcal/mol
DOCKED: USER        vdW + Hbond + desolv Energy     =  -15.80 kcal/mol
DOCKED: USER        Electrostatic Energy            =   -1.51 kcal/mol
DOCKED: USER    (2) Final Total Internal Energy     =   -1.99 kcal/mol
DOCKED: USER    (3) Torsional Free Energy           =   +2.98 kcal/mol
DOCKED: USER    (4) Unbound System's Energy  [=(2)] =   -1.99 kcal/mol
DOCKED: USER    
DOCKED: USER    
DOCKED: USER    NEWDPF move heme_O2_opt.pdbqt
DOCKED: USER    NEWDPF about 8.287000 34.468000 -0.670000
DOCKED: USER    NEWDPF tran0 8.283107 34.709148 -0.947627
DOCKED: USER    NEWDPF quaternion0 -0.016112 -0.033612 -0.020343 -0.999098
DOCKED: USER    NEWDPF axisangle0 -0.379426 -0.791541 -0.479061 -4.867435
DOCKED: USER    NEWDPF quat0 -0.379426 -0.791541 -0.479061 -4.867435
DOCKED: USER    NEWDPF dihe0 114.04 -102.31 -17.04 -66.64 -169.79 -178.93 -36.70 37.50 178.77 150.65 
DOCKED: USER  keepresnum = 1 
DOCKED: USER  
DOCKED: REMARK  10 active torsions:
DOCKED: REMARK  status: ('A' for Active; 'I' for Inactive)
DOCKED: REMARK    1  A    between atoms: C_6  and  C_10 
DOCKED: REMARK    2  A    between atoms: C_10  and  C_11 
DOCKED: REMARK    3  A    between atoms: C_11  and  C_12 
DOCKED: REMARK    4  A    between atoms: C_12  and  O_14 
DOCKED: REMARK    5  A    between atoms: C_17  and  C_20 
DOCKED: REMARK    6  A    between atoms: C_24  and  C_27 
DOCKED: REMARK    7  A    between atoms: C_31  and  C_34 
DOCKED: REMARK    8  A    between atoms: C_34  and  C_35 
DOCKED: REMARK    9  A    between atoms: C_35  and  C_36 
DOCKED: REMARK   10  A    between atoms: C_36  and  O_38 
DOCKED: USER                              x       y       z     vdW  Elec       q    Type
DOCKED: USER                           _______ _______ _______ _____ _____    ______ ____
DOCKED: ROOT
DOCKED: ATOM      1  C   UNL d   1       6.497  35.357  -1.891 -0.18 +0.01    +0.064 A 
DOCKED: ATOM      2  C   UNL d   1       7.308  32.712   1.970 -0.38 +0.01    +0.064 A 
DOCKED: ATOM      3  C   UNL d   1      12.058  33.055   1.320 -0.42 +0.00    +0.064 C 
DOCKED: ATOM      4  C   UNL d   1      11.244  36.174  -2.378 -0.43 +0.00    +0.064 A 
DOCKED: ATOM      5  C   UNL d   1       6.330  34.611  -0.787 -0.25 +0.01    +0.066 A 
DOCKED: ATOM      6  C   UNL d   1       5.084  34.253  -0.265 -0.27 -0.00    -0.021 A 
DOCKED: ATOM      7  C   UNL d   1       5.317  33.524   0.877 -0.34 -0.00    -0.025 A 
DOCKED: ATOM      8  C   UNL d   1       6.700  33.415   0.995 -0.34 +0.01    +0.066 A 
DOCKED: ATOM      9  C   UNL d   1       4.242  32.997   1.803 -0.38 +0.01    +0.051 C 
DOCKED: ATOM     10  C   UNL d   1       8.753  32.544   2.132 -0.37 +0.00    +0.066 A 
DOCKED: ATOM     11  C   UNL d   1       9.326  31.670   3.063 -0.45 -0.00    -0.021 A 
DOCKED: ATOM     12  C   UNL d   1      10.695  31.741   2.879 -0.44 +0.00    +0.000 A 
DOCKED: ATOM     13  C   UNL d   1      10.884  32.685   1.831 -0.37 +0.00    +0.070 A 
DOCKED: ATOM     14  C   UNL d   1       8.598  30.784   4.067 -0.57 +0.00    +0.052 C 
DOCKED: ATOM     15  C   UNL d   1      12.293  34.032   0.284 -0.36 +0.00    +0.066 A 
DOCKED: ATOM     16  C   UNL d   1      13.553  34.496  -0.093 -0.44 -0.00    -0.021 A 
DOCKED: ATOM     17  C   UNL d   1      13.346  35.388  -1.145 -0.45 +0.00    +0.000 A 
DOCKED: ATOM     18  C   UNL d   1      11.957  35.399  -1.336 -0.38 +0.00    +0.070 A 
DOCKED: ATOM     19  C   UNL d   1      14.823  34.095   0.614 -0.60 +0.00    +0.052 C 
DOCKED: ATOM     20  C   UNL d   1       9.911  36.242  -2.560 -0.41 +0.00    +0.066 A 
DOCKED: ATOM     21  C   UNL d   1       9.298  36.976  -3.572 -0.40 +0.00    -0.025 A 
DOCKED: ATOM     22  C   UNL d   1       7.947  36.733  -3.465 -0.32 -0.00    -0.021 A 
DOCKED: ATOM     23  C   UNL d   1       7.783  35.871  -2.377 -0.33 +0.01    +0.066 A 
DOCKED: ATOM     24  C   UNL d   1       9.967  37.867  -4.586 -0.49 -0.01    +0.051 C 
DOCKED: ATOM     25  N   UNL d   1       7.324  34.141   0.006 -0.19 -0.04    -0.248 N 
DOCKED: ATOM     26  N   UNL d   1       9.697  33.171   1.386 -0.14 -0.02    -0.248 N 
DOCKED: ATOM     27  N   UNL d   1      11.329  34.628  -0.411 -0.18 -0.03    -0.248 N 
DOCKED: ATOM     28  N   UNL d   1       8.976  35.610  -1.802 -0.23 -0.04    -0.248 N 
DOCKED: ATOM     29 FE   UNL d   1       9.337  34.400  -0.220 +0.01 +0.00    +0.000 Fe
DOCKED: ATOM     30  O   UNL d   1       8.746  35.124   1.025 -0.81 +0.00    +0.000 OA
DOCKED: ATOM     31  O   UNL d   1       9.852  35.837   0.158 -1.07 +0.00    +0.000 OA
DOCKED: ENDROOT
DOCKED: BRANCH   6  32
DOCKED: ATOM     32  C   UNL d   1       3.723  34.693  -0.741 -0.22 +0.01    +0.052 C 
DOCKED: BRANCH  32  33
DOCKED: ATOM     33  C   UNL d   1       3.163  35.860   0.065 -0.12 +0.06    +0.115 C 
DOCKED: BRANCH  33  34
DOCKED: ATOM     34  C   UNL d   1       2.433  36.858  -0.799 -0.15 +0.11    +0.139 C 
DOCKED: ATOM     35  O   UNL d   1       1.731  36.463  -1.716 -0.00 -0.33    -0.650 OA
DOCKED: BRANCH  34  36
DOCKED: ATOM     36  O   UNL d   1       2.559  38.187  -0.600 -0.48 -1.22    -0.776 OA
DOCKED: ATOM     37  H   UNL d   1       2.975  38.764  -1.251 +0.03 +0.18    +0.167 HD
DOCKED: ENDBRANCH  34  36
DOCKED: ENDBRANCH  33  34
DOCKED: ENDBRANCH  32  33
DOCKED: ENDBRANCH   6  32
DOCKED: BRANCH  22  38
DOCKED: ATOM     38  C   UNL d   1       6.873  37.350  -4.323 -0.24 +0.00    +0.052 C 
DOCKED: BRANCH  38  39
DOCKED: ATOM     39  C   UNL d   1       6.053  38.395  -3.569 -0.20 +0.01    +0.115 C 
DOCKED: BRANCH  39  40
DOCKED: ATOM     40  C   UNL d   1       4.598  38.382  -3.966 -0.08 +0.02    +0.139 C 
DOCKED: ATOM     41  O   UNL d   1       4.286  38.126  -5.118 +0.04 -0.08    -0.650 OA
DOCKED: BRANCH  40  42
DOCKED: ATOM     42  O   UNL d   1       3.627  38.598  -3.057 +0.06 -0.27    -0.776 OA
DOCKED: ATOM     43  H   UNL d   1       3.135  37.868  -2.662 +0.04 +0.07    +0.167 HD
DOCKED: ENDBRANCH  40  42
DOCKED: ENDBRANCH  39  40
DOCKED: ENDBRANCH  38  39
DOCKED: ENDBRANCH  22  38
DOCKED: BRANCH  12  44
DOCKED: ATOM     44  C   UNL d   1      11.661  30.922   3.708 -0.55 +0.00    +0.004 C 
DOCKED: ATOM     45  C   UNL d   1      12.915  30.586   3.410 -0.65 +0.00    +0.012 C 
DOCKED: ENDBRANCH  12  44
DOCKED: BRANCH  17  46
DOCKED: ATOM     46  C   UNL d   1      14.312  36.244  -1.920 -0.62 +0.00    +0.004 C 
DOCKED: ATOM     47  C   UNL d   1      14.939  37.357  -1.518 -0.65 +0.00    +0.012 C 
DOCKED: ENDBRANCH  17  46
DOCKED: TORSDOF 10
DOCKED: TER
DOCKED: ENDMDL
________________________________________________________________________________


	BEGINNING GENETIC ALGORITHM DOCKING 13 of 100
Run: 13 Seed: 1721419535 971677995 [ Run 13 of 100 GA/GALS ]
Beginning LAMARCKIAN GENETIC ALGORITHM (LGA), with a maximum of 25000000 energy evaluations.

Final-Value: -20.354


	FINAL GENETIC ALGORITHM DOCKED STATE
	_______________________________________________


Detailed state:  trans 41.111 28.205 15.706 quatxyzw -0.321148 0.370148 0.870065 -0.053304 center 8.287 34.468 -0.670 ntor 10 73.6964 92.5778 7.1547 -98.5492 179.9664 65.8483 -4.3286 48.4082 -151.0675 179.7068
State:	 41.111  28.205  15.706  -0.322  0.371  0.871 -173.889     73.70   92.58    7.15  -98.55  179.97   65.85   -4.33   48.41 -151.07  179.71

DOCKED: MODEL       13
DOCKED: USER    Run = 13
DOCKED: USER    DPF = D:/Protein_go_brrr/autodock/final/6BB5/heme_O2/dock.dpf
DOCKED: USER  
DOCKED: USER    Estimated Free Energy of Binding    =  -15.75 kcal/mol  [=(1)+(2)+(3)-(4)]
DOCKED: USER    Estimated Inhibition Constant, Ki   =    2.86 pM (picomolar)  [Temperature = 298.15 K]
DOCKED: USER    
DOCKED: USER    (1) Final Intermolecular Energy     =  -18.73 kcal/mol
DOCKED: USER        vdW + Hbond + desolv Energy     =  -16.65 kcal/mol
DOCKED: USER        Electrostatic Energy            =   -2.08 kcal/mol
DOCKED: USER    (2) Final Total Internal Energy     =   -1.62 kcal/mol
DOCKED: USER    (3) Torsional Free Energy           =   +2.98 kcal/mol
DOCKED: USER    (4) Unbound System's Energy  [=(2)] =   -1.62 kcal/mol
DOCKED: USER    
DOCKED: USER    
DOCKED: USER    NEWDPF move heme_O2_opt.pdbqt
DOCKED: USER    NEWDPF about 8.287000 34.468000 -0.670000
DOCKED: USER    NEWDPF tran0 41.110982 28.205321 15.706279
DOCKED: USER    NEWDPF quaternion0 -0.321148 0.370148 0.870065 -0.053304
DOCKED: USER    NEWDPF axisangle0 -0.321606 0.370675 0.871303 -173.888869
DOCKED: USER    NEWDPF quat0 -0.321606 0.370675 0.871303 -173.888869
DOCKED: USER    NEWDPF dihe0 73.70 92.58 7.15 -98.55 179.97 65.85 -4.33 48.41 -151.07 179.71 
DOCKED: USER  keepresnum = 1 
DOCKED: USER  
DOCKED: REMARK  10 active torsions:
DOCKED: REMARK  status: ('A' for Active; 'I' for Inactive)
DOCKED: REMARK    1  A    between atoms: C_6  and  C_10 
DOCKED: REMARK    2  A    between atoms: C_10  and  C_11 
DOCKED: REMARK    3  A    between atoms: C_11  and  C_12 
DOCKED: REMARK    4  A    between atoms: C_12  and  O_14 
DOCKED: REMARK    5  A    between atoms: C_17  and  C_20 
DOCKED: REMARK    6  A    between atoms: C_24  and  C_27 
DOCKED: REMARK    7  A    between atoms: C_31  and  C_34 
DOCKED: REMARK    8  A    between atoms: C_34  and  C_35 
DOCKED: REMARK    9  A    between atoms: C_35  and  C_36 
DOCKED: REMARK   10  A    between atoms: C_36  and  O_38 
DOCKED: USER                              x       y       z     vdW  Elec       q    Type
DOCKED: USER                           _______ _______ _______ _____ _____    ______ ____
DOCKED: ROOT
DOCKED: ATOM      1  C   UNL d   1      42.801  27.500  16.776 -0.26 +0.02    +0.064 A 
DOCKED: ATOM      2  C   UNL d   1      40.851  31.809  16.337 -0.40 +0.01    +0.064 A 
DOCKED: ATOM      3  C   UNL d   1      37.475  30.081  13.386 -0.37 +0.01    +0.064 C 
DOCKED: ATOM      4  C   UNL d   1      39.185  25.557  14.210 -0.42 +0.01    +0.064 A 
DOCKED: ATOM      5  C   UNL d   1      42.545  28.813  16.899 -0.25 +0.02    +0.066 A 
DOCKED: ATOM      6  C   UNL d   1      43.319  29.693  17.660 -0.29 -0.01    -0.021 A 
DOCKED: ATOM      7  C   UNL d   1      42.730  30.933  17.569 -0.37 -0.01    -0.025 A 
DOCKED: ATOM      8  C   UNL d   1      41.641  30.785  16.715 -0.33 +0.01    +0.066 A 
DOCKED: ATOM      9  C   UNL d   1      43.200  32.170  18.302 -0.43 +0.01    +0.051 C 
DOCKED: ATOM     10  C   UNL d   1      39.708  31.719  15.427 -0.36 +0.01    +0.066 A 
DOCKED: ATOM     11  C   UNL d   1      39.024  32.838  14.939 -0.41 -0.00    -0.021 A 
DOCKED: ATOM     12  C   UNL d   1      38.058  32.362  14.072 -0.40 +0.00    +0.000 A 
DOCKED: ATOM     13  C   UNL d   1      38.203  30.947  14.090 -0.36 +0.01    +0.070 A 
DOCKED: ATOM     14  C   UNL d   1      39.298  34.302  15.265 -0.54 +0.00    +0.052 C 
DOCKED: ATOM     15  C   UNL d   1      37.567  28.641  13.403 -0.39 +0.01    +0.066 A 
DOCKED: ATOM     16  C   UNL d   1      36.668  27.783  12.769 -0.50 -0.00    -0.021 A 
DOCKED: ATOM     17  C   UNL d   1      37.135  26.488  12.991 -0.47 +0.00    +0.000 A 
DOCKED: ATOM     18  C   UNL d   1      38.300  26.654  13.752 -0.38 +0.01    +0.070 A 
DOCKED: ATOM     19  C   UNL d   1      35.427  28.269  12.063 -0.66 +0.00    +0.052 C 
DOCKED: ATOM     20  C   UNL d   1      40.286  25.678  14.977 -0.40 +0.01    +0.066 A 
DOCKED: ATOM     21  C   UNL d   1      41.090  24.609  15.362 -0.44 -0.00    -0.025 A 
DOCKED: ATOM     22  C   UNL d   1      42.141  25.147  16.071 -0.31 -0.00    -0.021 A 
DOCKED: ATOM     23  C   UNL d   1      41.928  26.528  16.108 -0.34 +0.01    +0.066 A 
DOCKED: ATOM     24  C   UNL d   1      40.866  23.148  15.070 -0.56 +0.00    +0.051 C 
DOCKED: ATOM     25  N   UNL d   1      41.489  29.466  16.355 -0.21 -0.06    -0.248 N 
DOCKED: ATOM     26  N   UNL d   1      39.206  30.564  14.920 -0.15 -0.05    -0.248 N 
DOCKED: ATOM     27  N   UNL d   1      38.506  27.962  14.056 -0.21 -0.05    -0.248 N 
DOCKED: ATOM     28  N   UNL d   1      40.776  26.842  15.480 -0.27 -0.05    -0.248 N 
DOCKED: ATOM     29 FE   UNL d   1      39.995  28.688  15.201 -0.07 +0.00    +0.000 Fe
DOCKED: ATOM     30  O   UNL d   1      39.519  29.175  16.601 -0.75 +0.00    +0.000 OA
DOCKED: ATOM     31  O   UNL d   1      38.934  27.843  15.997 -0.86 +0.00    +0.000 OA
DOCKED: ENDROOT
DOCKED: BRANCH   6  32
DOCKED: ATOM     32  C   UNL d   1      44.488  29.361  18.552 -0.27 +0.02    +0.052 C 
DOCKED: BRANCH  32  33
DOCKED: ATOM     33  C   UNL d   1      44.085  28.543  19.775 -0.20 +0.09    +0.115 C 
DOCKED: BRANCH  33  34
DOCKED: ATOM     34  C   UNL d   1      45.278  28.082  20.576 -0.08 +0.18    +0.139 C 
DOCKED: ATOM     35  O   UNL d   1      46.300  28.749  20.576 -0.19 -0.65    -0.650 OA
DOCKED: BRANCH  34  36
DOCKED: ATOM     36  O   UNL d   1      45.251  26.929  21.276 -0.10 -1.32    -0.776 OA
DOCKED: ATOM     37  H   UNL d   1      45.302  26.068  20.844 +0.05 +0.17    +0.167 HD
DOCKED: ENDBRANCH  34  36
DOCKED: ENDBRANCH  33  34
DOCKED: ENDBRANCH  32  33
DOCKED: ENDBRANCH   6  32
DOCKED: BRANCH  22  38
DOCKED: ATOM     38  C   UNL d   1      43.248  24.365  16.728 -0.29 +0.01    +0.052 C 
DOCKED: BRANCH  38  39
DOCKED: ATOM     39  C   UNL d   1      42.813  23.738  18.051 -0.36 +0.03    +0.115 C 
DOCKED: BRANCH  39  40
DOCKED: ATOM     40  C   UNL d   1      43.811  23.974  19.157 -0.26 +0.05    +0.139 C 
DOCKED: ATOM     41  O   UNL d   1      43.933  23.150  20.048 -0.49 -0.31    -0.650 OA
DOCKED: BRANCH  40  42
DOCKED: ATOM     42  O   UNL d   1      44.611  25.057  19.153 +0.10 -0.36    -0.776 OA
DOCKED: ATOM     43  H   UNL d   1      44.379  25.859  19.637 +0.07 +0.10    +0.167 HD
DOCKED: ENDBRANCH  40  42
DOCKED: ENDBRANCH  39  40
DOCKED: ENDBRANCH  38  39
DOCKED: ENDBRANCH  22  38
DOCKED: BRANCH  12  44
DOCKED: ATOM     44  C   UNL d   1      37.113  33.287  13.335 -0.49 +0.00    +0.004 C 
DOCKED: ATOM     45  C   UNL d   1      36.113  32.955  12.518 -0.59 +0.00    +0.012 C 
DOCKED: ENDBRANCH  12  44
DOCKED: BRANCH  17  46
DOCKED: ATOM     46  C   UNL d   1      36.560  25.151  12.607 -0.67 +0.00    +0.004 C 
DOCKED: ATOM     47  C   UNL d   1      35.948  24.256  13.392 -0.73 +0.00    +0.012 C 
DOCKED: ENDBRANCH  17  46
DOCKED: TORSDOF 10
DOCKED: TER
DOCKED: ENDMDL
________________________________________________________________________________


	BEGINNING GENETIC ALGORITHM DOCKING 14 of 100
Run: 14 Seed: 956177123 898296945 [ Run 14 of 100 GA/GALS ]
Beginning LAMARCKIAN GENETIC ALGORITHM (LGA), with a maximum of 25000000 energy evaluations.

Final-Value: -19.334


	FINAL GENETIC ALGORITHM DOCKED STATE
	_______________________________________________


Detailed state:  trans 8.224 34.726 -1.022 quatxyzw 0.023924 0.027144 0.015042 0.999232 center 8.287 34.468 -0.670 ntor 10 -144.6909 -161.7049 -12.2081 -57.7427 -40.3308 110.2573 -55.2093 74.6729 -175.3501 -174.4242
State:	  8.224  34.726  -1.022   0.611  0.693  0.384  4.491   -144.69 -161.70  -12.21  -57.74  -40.33  110.26  -55.21   74.67 -175.35 -174.42

DOCKED: MODEL       14
DOCKED: USER    Run = 14
DOCKED: USER    DPF = D:/Protein_go_brrr/autodock/final/6BB5/heme_O2/dock.dpf
DOCKED: USER  
DOCKED: USER    Estimated Free Energy of Binding    =  -14.10 kcal/mol  [=(1)+(2)+(3)-(4)]
DOCKED: USER    Estimated Inhibition Constant, Ki   =   46.08 pM (picomolar)  [Temperature = 298.15 K]
DOCKED: USER    
DOCKED: USER    (1) Final Intermolecular Energy     =  -17.08 kcal/mol
DOCKED: USER        vdW + Hbond + desolv Energy     =  -15.65 kcal/mol
DOCKED: USER        Electrostatic Energy            =   -1.43 kcal/mol
DOCKED: USER    (2) Final Total Internal Energy     =   -2.25 kcal/mol
DOCKED: USER    (3) Torsional Free Energy           =   +2.98 kcal/mol
DOCKED: USER    (4) Unbound System's Energy  [=(2)] =   -2.25 kcal/mol
DOCKED: USER    
DOCKED: USER    
DOCKED: USER    NEWDPF move heme_O2_opt.pdbqt
DOCKED: USER    NEWDPF about 8.287000 34.468000 -0.670000
DOCKED: USER    NEWDPF tran0 8.223511 34.725979 -1.022420
DOCKED: USER    NEWDPF quaternion0 0.023924 0.027144 0.015042 0.999232
DOCKED: USER    NEWDPF axisangle0 0.610554 0.692724 0.383872 4.491293
DOCKED: USER    NEWDPF quat0 0.610554 0.692724 0.383872 4.491293
DOCKED: USER    NEWDPF dihe0 -144.69 -161.70 -12.21 -57.74 -40.33 110.26 -55.21 74.67 -175.35 -174.42 
DOCKED: USER  keepresnum = 1 
DOCKED: USER  
DOCKED: REMARK  10 active torsions:
DOCKED: REMARK  status: ('A' for Active; 'I' for Inactive)
DOCKED: REMARK    1  A    between atoms: C_6  and  C_10 
DOCKED: REMARK    2  A    between atoms: C_10  and  C_11 
DOCKED: REMARK    3  A    between atoms: C_11  and  C_12 
DOCKED: REMARK    4  A    between atoms: C_12  and  O_14 
DOCKED: REMARK    5  A    between atoms: C_17  and  C_20 
DOCKED: REMARK    6  A    between atoms: C_24  and  C_27 
DOCKED: REMARK    7  A    between atoms: C_31  and  C_34 
DOCKED: REMARK    8  A    between atoms: C_34  and  C_35 
DOCKED: REMARK    9  A    between atoms: C_35  and  C_36 
DOCKED: REMARK   10  A    between atoms: C_36  and  O_38 
DOCKED: USER                              x       y       z     vdW  Elec       q    Type
DOCKED: USER                           _______ _______ _______ _____ _____    ______ ____
DOCKED: ROOT
DOCKED: ATOM      1  C   UNL d   1       6.419  35.342  -1.951 -0.19 +0.01    +0.064 A 
DOCKED: ATOM      2  C   UNL d   1       7.308  32.766   1.939 -0.38 +0.01    +0.064 A 
DOCKED: ATOM      3  C   UNL d   1      12.044  33.145   1.220 -0.42 +0.00    +0.064 C 
DOCKED: ATOM      4  C   UNL d   1      11.151  36.197  -2.515 -0.44 +0.00    +0.064 A 
DOCKED: ATOM      5  C   UNL d   1       6.274  34.612  -0.834 -0.25 +0.01    +0.066 A 
DOCKED: ATOM      6  C   UNL d   1       5.038  34.250  -0.290 -0.27 -0.00    -0.021 A 
DOCKED: ATOM      7  C   UNL d   1       5.294  33.540   0.860 -0.34 -0.00    -0.025 A 
DOCKED: ATOM      8  C   UNL d   1       6.680  33.448   0.961 -0.34 +0.01    +0.066 A 
DOCKED: ATOM      9  C   UNL d   1       4.237  33.018   1.809 -0.38 +0.01    +0.051 C 
DOCKED: ATOM     10  C   UNL d   1       8.756  32.614   2.084 -0.36 +0.00    +0.066 A 
DOCKED: ATOM     11  C   UNL d   1       9.350  31.761   3.021 -0.44 -0.00    -0.021 A 
DOCKED: ATOM     12  C   UNL d   1      10.715  31.843   2.817 -0.43 +0.00    +0.000 A 
DOCKED: ATOM     13  C   UNL d   1      10.881  32.771   1.752 -0.36 +0.00    +0.070 A 
DOCKED: ATOM     14  C   UNL d   1       8.644  30.884   4.048 -0.57 +0.00    +0.052 C 
DOCKED: ATOM     15  C   UNL d   1      12.256  34.107   0.166 -0.36 +0.00    +0.066 A 
DOCKED: ATOM     16  C   UNL d   1      13.506  34.578  -0.235 -0.44 -0.00    -0.021 A 
DOCKED: ATOM     17  C   UNL d   1      13.276  35.451  -1.299 -0.46 +0.00    +0.000 A 
DOCKED: ATOM     18  C   UNL d   1      11.885  35.445  -1.471 -0.39 +0.00    +0.070 A 
DOCKED: ATOM     19  C   UNL d   1      14.790  34.200   0.460 -0.59 +0.00    +0.052 C 
DOCKED: ATOM     20  C   UNL d   1       9.815  36.249  -2.681 -0.41 +0.00    +0.066 A 
DOCKED: ATOM     21  C   UNL d   1       9.181  36.961  -3.695 -0.38 +0.00    -0.025 A 
DOCKED: ATOM     22  C   UNL d   1       7.834  36.707  -3.566 -0.30 -0.00    -0.021 A 
DOCKED: ATOM     23  C   UNL d   1       7.693  35.860  -2.463 -0.32 +0.01    +0.066 A 
DOCKED: ATOM     24  C   UNL d   1       9.827  37.842  -4.732 -0.47 -0.01    +0.051 C 
DOCKED: ATOM     25  N   UNL d   1       7.283  34.163  -0.047 -0.19 -0.04    -0.248 N 
DOCKED: ATOM     26  N   UNL d   1       9.684  33.239   1.315 -0.12 -0.03    -0.248 N 
DOCKED: ATOM     27  N   UNL d   1      11.277  34.684  -0.526 -0.15 -0.03    -0.248 N 
DOCKED: ATOM     28  N   UNL d   1       8.896  35.620  -1.900 -0.24 -0.03    -0.248 N 
DOCKED: ATOM     29 FE   UNL d   1       9.290  34.439  -0.304 +0.03 +0.00    +0.000 Fe
DOCKED: ATOM     30  O   UNL d   1       8.709  35.177   0.937 -0.86 +0.00    +0.000 OA
DOCKED: ATOM     31  O   UNL d   1       9.795  35.887   0.044 -1.14 +0.00    +0.000 OA
DOCKED: ENDROOT
DOCKED: BRANCH   6  32
DOCKED: ATOM     32  C   UNL d   1       3.667  34.668  -0.754 -0.22 +0.01    +0.052 C 
DOCKED: BRANCH  32  33
DOCKED: ATOM     33  C   UNL d   1       3.166  35.930  -0.057 -0.17 +0.06    +0.115 C 
DOCKED: BRANCH  33  34
DOCKED: ATOM     34  C   UNL d   1       2.826  37.029  -1.033 -0.18 +0.10    +0.139 C 
DOCKED: ATOM     35  O   UNL d   1       2.222  38.016  -0.643 -0.45 -1.04    -0.650 OA
DOCKED: BRANCH  34  36
DOCKED: ATOM     36  O   UNL d   1       3.150  36.936  -2.339 +0.05 -0.30    -0.776 OA
DOCKED: ATOM     37  H   UNL d   1       3.418  37.705  -2.855 +0.04 +0.06    +0.167 HD
DOCKED: ENDBRANCH  34  36
DOCKED: ENDBRANCH  33  34
DOCKED: ENDBRANCH  32  33
DOCKED: ENDBRANCH   6  32
DOCKED: BRANCH  22  38
DOCKED: ATOM     38  C   UNL d   1       6.742  37.300  -4.420 -0.23 +0.00    +0.052 C 
DOCKED: BRANCH  38  39
DOCKED: ATOM     39  C   UNL d   1       6.503  38.777  -4.114 -0.19 +0.00    +0.115 C 
DOCKED: BRANCH  39  40
DOCKED: ATOM     40  C   UNL d   1       5.222  39.007  -3.351 -0.16 +0.02    +0.139 C 
DOCKED: ATOM     41  O   UNL d   1       4.250  39.472  -3.924 +0.05 -0.14    -0.650 OA
DOCKED: BRANCH  40  42
DOCKED: ATOM     42  O   UNL d   1       5.114  38.660  -2.054 +0.24 -0.21    -0.776 OA
DOCKED: ATOM     43  H   UNL d   1       4.254  38.518  -1.639 +0.05 +0.08    +0.167 HD
DOCKED: ENDBRANCH  40  42
DOCKED: ENDBRANCH  39  40
DOCKED: ENDBRANCH  38  39
DOCKED: ENDBRANCH  22  38
DOCKED: BRANCH  12  44
DOCKED: ATOM     44  C   UNL d   1      11.701  31.045   3.646 -0.53 +0.00    +0.004 C 
DOCKED: ATOM     45  C   UNL d   1      12.981  30.792   3.376 -0.65 +0.00    +0.012 C 
DOCKED: ENDBRANCH  12  44
DOCKED: BRANCH  17  46
DOCKED: ATOM     46  C   UNL d   1      14.224  36.304  -2.100 -0.63 +0.00    +0.004 C 
DOCKED: ATOM     47  C   UNL d   1      14.969  37.334  -1.679 -0.67 +0.00    +0.012 C 
DOCKED: ENDBRANCH  17  46
DOCKED: TORSDOF 10
DOCKED: TER
DOCKED: ENDMDL
________________________________________________________________________________


	BEGINNING GENETIC ALGORITHM DOCKING 15 of 100
Run: 15 Seed: 421297662 1870503791 [ Run 15 of 100 GA/GALS ]
Beginning LAMARCKIAN GENETIC ALGORITHM (LGA), with a maximum of 25000000 energy evaluations.

Final-Value: -20.477


	FINAL GENETIC ALGORITHM DOCKED STATE
	_______________________________________________


Detailed state:  trans 40.867 28.483 15.699 quatxyzw -0.356532 0.397342 0.845464 -0.013983 center 8.287 34.468 -0.670 ntor 10 134.7027 -9.5411 40.5893 -52.9463 152.7283 148.7325 -55.8623 -3.4744 -155.5687 152.0231
State:	 40.867  28.483  15.699  -0.357  0.397  0.846 -178.398    134.70   -9.54   40.59  -52.95  152.73  148.73  -55.86   -3.47 -155.57  152.02

DOCKED: MODEL       15
DOCKED: USER    Run = 15
DOCKED: USER    DPF = D:/Protein_go_brrr/autodock/final/6BB5/heme_O2/dock.dpf
DOCKED: USER  
DOCKED: USER    Estimated Free Energy of Binding    =  -15.25 kcal/mol  [=(1)+(2)+(3)-(4)]
DOCKED: USER    Estimated Inhibition Constant, Ki   =    6.62 pM (picomolar)  [Temperature = 298.15 K]
DOCKED: USER    
DOCKED: USER    (1) Final Intermolecular Energy     =  -18.23 kcal/mol
DOCKED: USER        vdW + Hbond + desolv Energy     =  -16.25 kcal/mol
DOCKED: USER        Electrostatic Energy            =   -1.98 kcal/mol
DOCKED: USER    (2) Final Total Internal Energy     =   -2.24 kcal/mol
DOCKED: USER    (3) Torsional Free Energy           =   +2.98 kcal/mol
DOCKED: USER    (4) Unbound System's Energy  [=(2)] =   -2.24 kcal/mol
DOCKED: USER    
DOCKED: USER    
DOCKED: USER    NEWDPF move heme_O2_opt.pdbqt
DOCKED: USER    NEWDPF about 8.287000 34.468000 -0.670000
DOCKED: USER    NEWDPF tran0 40.867252 28.483266 15.698797
DOCKED: USER    NEWDPF quaternion0 -0.356532 0.397342 0.845464 -0.013983
DOCKED: USER    NEWDPF axisangle0 -0.356566 0.397381 0.845546 -178.397642
DOCKED: USER    NEWDPF quat0 -0.356566 0.397381 0.845546 -178.397642
DOCKED: USER    NEWDPF dihe0 134.70 -9.54 40.59 -52.95 152.73 148.73 -55.86 -3.47 -155.57 152.02 
DOCKED: USER  keepresnum = 1 
DOCKED: USER  
DOCKED: REMARK  10 active torsions:
DOCKED: REMARK  status: ('A' for Active; 'I' for Inactive)
DOCKED: REMARK    1  A    between atoms: C_6  and  C_10 
DOCKED: REMARK    2  A    between atoms: C_10  and  C_11 
DOCKED: REMARK    3  A    between atoms: C_11  and  C_12 
DOCKED: REMARK    4  A    between atoms: C_12  and  O_14 
DOCKED: REMARK    5  A    between atoms: C_17  and  C_20 
DOCKED: REMARK    6  A    between atoms: C_24  and  C_27 
DOCKED: REMARK    7  A    between atoms: C_31  and  C_34 
DOCKED: REMARK    8  A    between atoms: C_34  and  C_35 
DOCKED: REMARK    9  A    between atoms: C_35  and  C_36 
DOCKED: REMARK   10  A    between atoms: C_36  and  O_38 
DOCKED: USER                              x       y       z     vdW  Elec       q    Type
DOCKED: USER                           _______ _______ _______ _____ _____    ______ ____
DOCKED: ROOT
DOCKED: ATOM      1  C   UNL d   1      42.550  28.012  16.901 -0.18 +0.02    +0.064 A 
DOCKED: ATOM      2  C   UNL d   1      40.317  32.099  15.969 -0.39 +0.01    +0.064 A 
DOCKED: ATOM      3  C   UNL d   1      37.222  29.852  13.059 -0.42 +0.01    +0.064 C 
DOCKED: ATOM      4  C   UNL d   1      39.213  25.568  14.384 -0.39 +0.01    +0.064 A 
DOCKED: ATOM      5  C   UNL d   1      42.194  29.306  16.887 -0.24 +0.02    +0.066 A 
DOCKED: ATOM      6  C   UNL d   1      42.864  30.311  17.591 -0.34 -0.00    -0.021 A 
DOCKED: ATOM      7  C   UNL d   1      42.193  31.488  17.357 -0.42 -0.00    -0.025 A 
DOCKED: ATOM      8  C   UNL d   1      41.159  31.178  16.476 -0.36 +0.01    +0.066 A 
DOCKED: ATOM      9  C   UNL d   1      42.535  32.820  17.987 -0.48 +0.01    +0.051 C 
DOCKED: ATOM     10  C   UNL d   1      39.230  31.839  15.025 -0.36 +0.01    +0.066 A 
DOCKED: ATOM     11  C   UNL d   1      38.491  32.852  14.404 -0.39 -0.00    -0.021 A 
DOCKED: ATOM     12  C   UNL d   1      37.605  32.224  13.547 -0.41 +0.00    +0.000 A 
DOCKED: ATOM     13  C   UNL d   1      37.851  30.832  13.707 -0.35 +0.01    +0.070 A 
DOCKED: ATOM     14  C   UNL d   1      38.642  34.356  14.599 -0.49 +0.00    +0.052 C 
DOCKED: ATOM     15  C   UNL d   1      37.417  28.431  13.218 -0.41 +0.01    +0.066 A 
DOCKED: ATOM     16  C   UNL d   1      36.615  27.452  12.633 -0.51 -0.00    -0.021 A 
DOCKED: ATOM     17  C   UNL d   1      37.163  26.223  12.997 -0.48 +0.00    +0.000 A 
DOCKED: ATOM     18  C   UNL d   1      38.275  26.547  13.787 -0.38 +0.01    +0.070 A 
DOCKED: ATOM     19  C   UNL d   1      35.378  27.774  11.832 -0.57 +0.00    +0.052 C 
DOCKED: ATOM     20  C   UNL d   1      40.264  25.844  15.182 -0.39 +0.01    +0.066 A 
DOCKED: ATOM     21  C   UNL d   1      41.123  24.879  15.701 -0.41 -0.00    -0.025 A 
DOCKED: ATOM     22  C   UNL d   1      42.096  25.560  16.398 -0.36 -0.00    -0.021 A 
DOCKED: ATOM     23  C   UNL d   1      41.783  26.918  16.294 -0.33 +0.01    +0.066 A 
DOCKED: ATOM     24  C   UNL d   1      41.019  23.385  15.542 -0.53 +0.00    +0.051 C 
DOCKED: ATOM     25  N   UNL d   1      41.121  29.824  16.239 -0.10 -0.06    -0.248 N 
DOCKED: ATOM     26  N   UNL d   1      38.838  30.607  14.611 -0.19 -0.04    -0.248 N 
DOCKED: ATOM     27  N   UNL d   1      38.370  27.889  13.972 -0.22 -0.05    -0.248 N 
DOCKED: ATOM     28  N   UNL d   1      40.643  27.083  15.591 -0.26 -0.05    -0.248 N 
DOCKED: ATOM     29 FE   UNL d   1      39.745  28.831  15.103 -0.08 +0.00    +0.000 Fe
DOCKED: ATOM     30  O   UNL d   1      39.167  29.407  16.429 -0.70 +0.00    +0.000 OA
DOCKED: ATOM     31  O   UNL d   1      38.711  27.984  15.932 -0.80 +0.00    +0.000 OA
DOCKED: ENDROOT
DOCKED: BRANCH   6  32
DOCKED: ATOM     32  C   UNL d   1      44.009  30.153  18.559 -0.32 +0.02    +0.052 C 
DOCKED: BRANCH  32  33
DOCKED: ATOM     33  C   UNL d   1      43.584  29.522  19.881 +0.07 +0.08    +0.115 C 
DOCKED: BRANCH  33  34
DOCKED: ATOM     34  C   UNL d   1      44.342  28.253  20.184 -0.20 +0.13    +0.139 C 
DOCKED: ATOM     35  O   UNL d   1      45.207  27.870  19.413 +0.01 -0.43    -0.650 OA
DOCKED: BRANCH  34  36
DOCKED: ATOM     36  O   UNL d   1      44.066  27.513  21.277 -0.27 -1.42    -0.776 OA
DOCKED: ATOM     37  H   UNL d   1      43.986  26.553  21.237 +0.05 +0.23    +0.167 HD
DOCKED: ENDBRANCH  34  36
DOCKED: ENDBRANCH  33  34
DOCKED: ENDBRANCH  32  33
DOCKED: ENDBRANCH   6  32
DOCKED: BRANCH  22  38
DOCKED: ATOM     38  C   UNL d   1      43.224  24.929  17.173 -0.32 +0.01    +0.052 C 
DOCKED: BRANCH  38  39
DOCKED: ATOM     39  C   UNL d   1      43.009  25.010  18.683 -0.31 +0.04    +0.115 C 
DOCKED: BRANCH  39  40
DOCKED: ATOM     40  C   UNL d   1      44.080  24.282  19.457 -0.23 +0.06    +0.139 C 
DOCKED: ATOM     41  O   UNL d   1      44.166  23.068  19.377 -0.28 -0.28    -0.650 OA
DOCKED: BRANCH  40  42
DOCKED: ATOM     42  O   UNL d   1      44.979  24.955  20.200 +0.08 -0.46    -0.776 OA
DOCKED: ATOM     43  H   UNL d   1      45.028  25.919  20.184 +0.06 +0.12    +0.167 HD
DOCKED: ENDBRANCH  40  42
DOCKED: ENDBRANCH  39  40
DOCKED: ENDBRANCH  38  39
DOCKED: ENDBRANCH  22  38
DOCKED: BRANCH  12  44
DOCKED: ATOM     44  C   UNL d   1      36.633  33.002  12.685 -0.54 +0.00    +0.004 C 
DOCKED: ATOM     45  C   UNL d   1      35.385  32.671  12.356 -0.66 +0.00    +0.012 C 
DOCKED: ENDBRANCH  12  44
DOCKED: BRANCH  17  46
DOCKED: ATOM     46  C   UNL d   1      36.705  24.815  12.720 -0.68 +0.00    +0.004 C 
DOCKED: ATOM     47  C   UNL d   1      35.545  24.239  13.061 -0.75 +0.00    +0.012 C 
DOCKED: ENDBRANCH  17  46
DOCKED: TORSDOF 10
DOCKED: TER
DOCKED: ENDMDL
________________________________________________________________________________


	BEGINNING GENETIC ALGORITHM DOCKING 16 of 100
Run: 16 Seed: 925185699 1198794810 [ Run 16 of 100 GA/GALS ]
Beginning LAMARCKIAN GENETIC ALGORITHM (LGA), with a maximum of 25000000 energy evaluations.

Final-Value: -19.142


	FINAL GENETIC ALGORITHM DOCKED STATE
	_______________________________________________


Detailed state:  trans 8.367 34.510 -0.676 quatxyzw -0.001286 -0.001192 -0.017019 -0.999854 center 8.287 34.468 -0.670 ntor 10 122.8224 -89.8508 21.5955 -83.5804 141.2248 177.9604 -36.7090 17.7234 -155.6795 152.8567
State:	  8.367  34.510  -0.676  -0.075 -0.070 -0.995 -1.961    122.82  -89.85   21.60  -83.58  141.22  177.96  -36.71   17.72 -155.68  152.86

DOCKED: MODEL       16
DOCKED: USER    Run = 16
DOCKED: USER    DPF = D:/Protein_go_brrr/autodock/final/6BB5/heme_O2/dock.dpf
DOCKED: USER  
DOCKED: USER    Estimated Free Energy of Binding    =  -14.06 kcal/mol  [=(1)+(2)+(3)-(4)]
DOCKED: USER    Estimated Inhibition Constant, Ki   =   49.36 pM (picomolar)  [Temperature = 298.15 K]
DOCKED: USER    
DOCKED: USER    (1) Final Intermolecular Energy     =  -17.04 kcal/mol
DOCKED: USER        vdW + Hbond + desolv Energy     =  -15.66 kcal/mol
DOCKED: USER        Electrostatic Energy            =   -1.38 kcal/mol
DOCKED: USER    (2) Final Total Internal Energy     =   -2.10 kcal/mol
DOCKED: USER    (3) Torsional Free Energy           =   +2.98 kcal/mol
DOCKED: USER    (4) Unbound System's Energy  [=(2)] =   -2.10 kcal/mol
DOCKED: USER    
DOCKED: USER    
DOCKED: USER    NEWDPF move heme_O2_opt.pdbqt
DOCKED: USER    NEWDPF about 8.287000 34.468000 -0.670000
DOCKED: USER    NEWDPF tran0 8.367426 34.509647 -0.676441
DOCKED: USER    NEWDPF quaternion0 -0.001286 -0.001192 -0.017019 -0.999854
DOCKED: USER    NEWDPF axisangle0 -0.075185 -0.069697 -0.994731 -1.960603
DOCKED: USER    NEWDPF quat0 -0.075185 -0.069697 -0.994731 -1.960603
DOCKED: USER    NEWDPF dihe0 122.82 -89.85 21.60 -83.58 141.22 177.96 -36.71 17.72 -155.68 152.86 
DOCKED: USER  keepresnum = 1 
DOCKED: USER  
DOCKED: REMARK  10 active torsions:
DOCKED: REMARK  status: ('A' for Active; 'I' for Inactive)
DOCKED: REMARK    1  A    between atoms: C_6  and  C_10 
DOCKED: REMARK    2  A    between atoms: C_10  and  C_11 
DOCKED: REMARK    3  A    between atoms: C_11  and  C_12 
DOCKED: REMARK    4  A    between atoms: C_12  and  O_14 
DOCKED: REMARK    5  A    between atoms: C_17  and  C_20 
DOCKED: REMARK    6  A    between atoms: C_24  and  C_27 
DOCKED: REMARK    7  A    between atoms: C_31  and  C_34 
DOCKED: REMARK    8  A    between atoms: C_34  and  C_35 
DOCKED: REMARK    9  A    between atoms: C_35  and  C_36 
DOCKED: REMARK   10  A    between atoms: C_36  and  O_38 
DOCKED: USER                              x       y       z     vdW  Elec       q    Type
DOCKED: USER                           _______ _______ _______ _____ _____    ______ ____
DOCKED: ROOT
DOCKED: ATOM      1  C   UNL d   1       6.521  35.173  -1.483 -0.16 +0.01    +0.064 A 
DOCKED: ATOM      2  C   UNL d   1       7.594  32.417   2.234 -0.41 +0.00    +0.064 A 
DOCKED: ATOM      3  C   UNL d   1      12.289  32.816   1.292 -0.44 +0.00    +0.064 C 
DOCKED: ATOM      4  C   UNL d   1      11.222  36.040  -2.248 -0.42 +0.00    +0.064 A 
DOCKED: ATOM      5  C   UNL d   1       6.430  34.392  -0.394 -0.25 +0.01    +0.066 A 
DOCKED: ATOM      6  C   UNL d   1       5.221  34.009   0.196 -0.31 -0.00    -0.021 A 
DOCKED: ATOM      7  C   UNL d   1       5.532  33.246   1.297 -0.37 -0.00    -0.025 A 
DOCKED: ATOM      8  C   UNL d   1       6.920  33.145   1.323 -0.35 +0.01    +0.066 A 
DOCKED: ATOM      9  C   UNL d   1       4.522  32.684   2.273 -0.43 +0.00    +0.051 C 
DOCKED: ATOM     10  C   UNL d   1       9.047  32.255   2.298 -0.39 +0.00    +0.066 A 
DOCKED: ATOM     11  C   UNL d   1       9.684  31.358   3.163 -0.46 -0.00    -0.021 A 
DOCKED: ATOM     12  C   UNL d   1      11.037  31.445   2.894 -0.44 +0.00    +0.000 A 
DOCKED: ATOM     13  C   UNL d   1      11.153  32.421   1.866 -0.38 +0.00    +0.070 A 
DOCKED: ATOM     14  C   UNL d   1       9.026  30.436   4.184 -0.61 +0.00    +0.052 C 
DOCKED: ATOM     15  C   UNL d   1      12.452  33.826   0.274 -0.38 +0.00    +0.066 A 
DOCKED: ATOM     16  C   UNL d   1      13.683  34.311  -0.168 -0.46 -0.00    -0.021 A 
DOCKED: ATOM     17  C   UNL d   1      13.403  35.232  -1.178 -0.46 +0.00    +0.000 A 
DOCKED: ATOM     18  C   UNL d   1      12.005  35.239  -1.278 -0.38 +0.00    +0.070 A 
DOCKED: ATOM     19  C   UNL d   1      14.998  33.897   0.443 -0.60 +0.00    +0.052 C 
DOCKED: ATOM     20  C   UNL d   1       9.880  36.103  -2.342 -0.40 +0.00    +0.066 A 
DOCKED: ATOM     21  C   UNL d   1       9.198  36.863  -3.289 -0.41 -0.00    -0.025 A 
DOCKED: ATOM     22  C   UNL d   1       7.858  36.607  -3.103 -0.34 -0.00    -0.021 A 
DOCKED: ATOM     23  C   UNL d   1       7.770  35.710  -2.034 -0.30 +0.01    +0.066 A 
DOCKED: ATOM     24  C   UNL d   1       9.796  37.790  -4.316 -0.50 -0.01    +0.051 C 
DOCKED: ATOM     25  N   UNL d   1       7.475  33.905   0.319 -0.11 -0.04    -0.248 N 
DOCKED: ATOM     26  N   UNL d   1       9.938  32.912   1.512 -0.21 -0.01    -0.248 N 
DOCKED: ATOM     27  N   UNL d   1      11.442  34.436  -0.339 -0.11 -0.03    -0.248 N 
DOCKED: ATOM     28  N   UNL d   1       8.999  35.442  -1.545 -0.13 -0.05    -0.248 N 
DOCKED: ATOM     29 FE   UNL d   1       9.468  34.187  -0.028 -0.08 +0.00    +0.000 Fe
DOCKED: ATOM     30  O   UNL d   1       8.954  34.868   1.274 -0.62 +0.00    +0.000 OA
DOCKED: ATOM     31  O   UNL d   1       9.997  35.615   0.360 -0.93 +0.00    +0.000 OA
DOCKED: ENDROOT
DOCKED: BRANCH   6  32
DOCKED: ATOM     32  C   UNL d   1       3.831  34.452  -0.178 -0.26 +0.01    +0.052 C 
DOCKED: BRANCH  32  33
DOCKED: ATOM     33  C   UNL d   1       3.546  35.900   0.210 -0.04 +0.06    +0.115 C 
DOCKED: BRANCH  33  34
DOCKED: ATOM     34  C   UNL d   1       2.733  36.626  -0.832 -0.18 +0.09    +0.139 C 
DOCKED: ATOM     35  O   UNL d   1       2.536  36.102  -1.917 +0.02 -0.25    -0.650 OA
DOCKED: BRANCH  34  36
DOCKED: ATOM     36  O   UNL d   1       2.237  37.860  -0.604 -0.43 -1.16    -0.776 OA
DOCKED: ATOM     37  H   UNL d   1       2.440  38.606  -1.179 +0.03 +0.22    +0.167 HD
DOCKED: ENDBRANCH  34  36
DOCKED: ENDBRANCH  33  34
DOCKED: ENDBRANCH  32  33
DOCKED: ENDBRANCH   6  32
DOCKED: BRANCH  22  38
DOCKED: ATOM     38  C   UNL d   1       6.728  37.242  -3.871 -0.25 +0.00    +0.052 C 
DOCKED: BRANCH  38  39
DOCKED: ATOM     39  C   UNL d   1       5.986  38.295  -3.051 -0.21 +0.01    +0.115 C 
DOCKED: BRANCH  39  40
DOCKED: ATOM     40  C   UNL d   1       4.642  38.642  -3.640 -0.10 +0.03    +0.139 C 
DOCKED: ATOM     41  O   UNL d   1       4.507  38.700  -4.851 +0.04 -0.09    -0.650 OA
DOCKED: BRANCH  40  42
DOCKED: ATOM     42  O   UNL d   1       3.567  38.840  -2.851 +0.06 -0.31    -0.776 OA
DOCKED: ATOM     43  H   UNL d   1       3.004  38.109  -2.572 +0.04 +0.08    +0.167 HD
DOCKED: ENDBRANCH  40  42
DOCKED: ENDBRANCH  39  40
DOCKED: ENDBRANCH  38  39
DOCKED: ENDBRANCH  22  38
DOCKED: BRANCH  12  44
DOCKED: ATOM     44  C   UNL d   1      12.059  30.608   3.633 -0.60 +0.00    +0.004 C 
DOCKED: ATOM     45  C   UNL d   1      13.375  30.801   3.710 -0.68 +0.00    +0.012 C 
DOCKED: ENDBRANCH  12  44
DOCKED: BRANCH  17  46
DOCKED: ATOM     46  C   UNL d   1      14.313  36.119  -1.986 -0.60 +0.00    +0.004 C 
DOCKED: ATOM     47  C   UNL d   1      14.711  37.368  -1.711 -0.67 +0.00    +0.012 C 
DOCKED: ENDBRANCH  17  46
DOCKED: TORSDOF 10
DOCKED: TER
DOCKED: ENDMDL
________________________________________________________________________________


	BEGINNING GENETIC ALGORITHM DOCKING 17 of 100
Run: 17 Seed: 557415225 1463820623 [ Run 17 of 100 GA/GALS ]
Beginning LAMARCKIAN GENETIC ALGORITHM (LGA), with a maximum of 25000000 energy evaluations.

Final-Value: -20.459


	FINAL GENETIC ALGORITHM DOCKED STATE
	_______________________________________________


Detailed state:  trans 41.062 28.313 15.751 quatxyzw -0.338410 0.384506 0.857757 -0.043442 center 8.287 34.468 -0.670 ntor 10 -89.3688 -121.1954 30.3914 -88.7635 10.8030 64.7019 -49.0912 -64.8223 -171.0648 25.5499
State:	 41.062  28.313  15.751  -0.339  0.385  0.859 -175.020    -89.37 -121.20   30.39  -88.76   10.80   64.70  -49.09  -64.82 -171.06   25.55

DOCKED: MODEL       17
DOCKED: USER    Run = 17
DOCKED: USER    DPF = D:/Protein_go_brrr/autodock/final/6BB5/heme_O2/dock.dpf
DOCKED: USER  
DOCKED: USER    Estimated Free Energy of Binding    =  -14.83 kcal/mol  [=(1)+(2)+(3)-(4)]
DOCKED: USER    Estimated Inhibition Constant, Ki   =   13.55 pM (picomolar)  [Temperature = 298.15 K]
DOCKED: USER    
DOCKED: USER    (1) Final Intermolecular Energy     =  -17.81 kcal/mol
DOCKED: USER        vdW + Hbond + desolv Energy     =  -15.80 kcal/mol
DOCKED: USER        Electrostatic Energy            =   -2.01 kcal/mol
DOCKED: USER    (2) Final Total Internal Energy     =   -2.65 kcal/mol
DOCKED: USER    (3) Torsional Free Energy           =   +2.98 kcal/mol
DOCKED: USER    (4) Unbound System's Energy  [=(2)] =   -2.65 kcal/mol
DOCKED: USER    
DOCKED: USER    
DOCKED: USER    NEWDPF move heme_O2_opt.pdbqt
DOCKED: USER    NEWDPF about 8.287000 34.468000 -0.670000
DOCKED: USER    NEWDPF tran0 41.061684 28.312652 15.750802
DOCKED: USER    NEWDPF quaternion0 -0.338410 0.384506 0.857757 -0.043442
DOCKED: USER    NEWDPF axisangle0 -0.338730 0.384869 0.858567 -175.020331
DOCKED: USER    NEWDPF quat0 -0.338730 0.384869 0.858567 -175.020331
DOCKED: USER    NEWDPF dihe0 -89.37 -121.20 30.39 -88.76 10.80 64.70 -49.09 -64.82 -171.06 25.55 
DOCKED: USER  keepresnum = 1 
DOCKED: USER  
DOCKED: REMARK  10 active torsions:
DOCKED: REMARK  status: ('A' for Active; 'I' for Inactive)
DOCKED: REMARK    1  A    between atoms: C_6  and  C_10 
DOCKED: REMARK    2  A    between atoms: C_10  and  C_11 
DOCKED: REMARK    3  A    between atoms: C_11  and  C_12 
DOCKED: REMARK    4  A    between atoms: C_12  and  O_14 
DOCKED: REMARK    5  A    between atoms: C_17  and  C_20 
DOCKED: REMARK    6  A    between atoms: C_24  and  C_27 
DOCKED: REMARK    7  A    between atoms: C_31  and  C_34 
DOCKED: REMARK    8  A    between atoms: C_34  and  C_35 
DOCKED: REMARK    9  A    between atoms: C_35  and  C_36 
DOCKED: REMARK   10  A    between atoms: C_36  and  O_38 
DOCKED: USER                              x       y       z     vdW  Elec       q    Type
DOCKED: USER                           _______ _______ _______ _____ _____    ______ ____
DOCKED: ROOT
DOCKED: ATOM      1  C   UNL d   1      42.732  27.687  16.898 -0.23 +0.02    +0.064 A 
DOCKED: ATOM      2  C   UNL d   1      40.716  31.933  16.220 -0.39 +0.01    +0.064 A 
DOCKED: ATOM      3  C   UNL d   1      37.461  30.016  13.250 -0.40 +0.01    +0.064 C 
DOCKED: ATOM      4  C   UNL d   1      39.231  25.566  14.313 -0.41 +0.01    +0.064 A 
DOCKED: ATOM      5  C   UNL d   1      42.448  28.998  16.957 -0.19 +0.02    +0.066 A 
DOCKED: ATOM      6  C   UNL d   1      43.183  29.925  17.702 -0.31 -0.01    -0.021 A 
DOCKED: ATOM      7  C   UNL d   1      42.574  31.148  17.541 -0.38 -0.00    -0.025 A 
DOCKED: ATOM      8  C   UNL d   1      41.513  30.942  16.664 -0.34 +0.01    +0.066 A 
DOCKED: ATOM      9  C   UNL d   1      42.998  32.424  18.235 -0.45 +0.01    +0.051 C 
DOCKED: ATOM     10  C   UNL d   1      39.602  31.783  15.282 -0.36 +0.01    +0.066 A 
DOCKED: ATOM     11  C   UNL d   1      38.911  32.866  14.728 -0.40 -0.00    -0.021 A 
DOCKED: ATOM     12  C   UNL d   1      37.980  32.335  13.855 -0.40 +0.00    +0.000 A 
DOCKED: ATOM     13  C   UNL d   1      38.152  30.925  13.937 -0.37 +0.01    +0.070 A 
DOCKED: ATOM     14  C   UNL d   1      39.148  34.348  14.999 -0.53 +0.00    +0.052 C 
DOCKED: ATOM     15  C   UNL d   1      37.579  28.580  13.330 -0.39 +0.01    +0.066 A 
DOCKED: ATOM     16  C   UNL d   1      36.716  27.679  12.708 -0.50 -0.00    -0.021 A 
DOCKED: ATOM     17  C   UNL d   1      37.200  26.404  12.998 -0.47 +0.00    +0.000 A 
DOCKED: ATOM     18  C   UNL d   1      38.340  26.625  13.784 -0.38 +0.01    +0.070 A 
DOCKED: ATOM     19  C   UNL d   1      35.487  28.109  11.947 -0.65 +0.00    +0.052 C 
DOCKED: ATOM     20  C   UNL d   1      40.306  25.741  15.106 -0.40 +0.01    +0.066 A 
DOCKED: ATOM     21  C   UNL d   1      41.119  24.705  15.559 -0.42 -0.00    -0.025 A 
DOCKED: ATOM     22  C   UNL d   1      42.137  25.293  16.274 -0.34 -0.00    -0.021 A 
DOCKED: ATOM     23  C   UNL d   1      41.898  26.671  16.247 -0.34 +0.01    +0.066 A 
DOCKED: ATOM     24  C   UNL d   1      40.930  23.229  15.324 -0.55 +0.00    +0.051 C 
DOCKED: ATOM     25  N   UNL d   1      41.397  29.607  16.356 -0.22 -0.06    -0.248 N 
DOCKED: ATOM     26  N   UNL d   1      39.137  30.598  14.811 -0.15 -0.05    -0.248 N 
DOCKED: ATOM     27  N   UNL d   1      38.511  27.948  14.038 -0.21 -0.05    -0.248 N 
DOCKED: ATOM     28  N   UNL d   1      40.759  26.935  15.574 -0.27 -0.05    -0.248 N 
DOCKED: ATOM     29 FE   UNL d   1      39.952  28.752  15.194 -0.06 +0.00    +0.000 Fe
DOCKED: ATOM     30  O   UNL d   1      39.426  29.287  16.557 -0.73 +0.00    +0.000 OA
DOCKED: ATOM     31  O   UNL d   1      38.884  27.919  15.994 -0.86 +0.00    +0.000 OA
DOCKED: ENDROOT
DOCKED: BRANCH   6  32
DOCKED: ATOM     32  C   UNL d   1      44.331  29.654  18.640 -0.29 +0.02    +0.052 C 
DOCKED: BRANCH  32  33
DOCKED: ATOM     33  C   UNL d   1      43.872  29.335  20.060 +0.17 +0.09    +0.115 C 
DOCKED: BRANCH  33  34
DOCKED: ATOM     34  C   UNL d   1      44.486  28.063  20.591 -0.07 +0.18    +0.139 C 
DOCKED: ATOM     35  O   UNL d   1      43.808  27.298  21.256 -0.42 -1.08    -0.650 OA
DOCKED: BRANCH  34  36
DOCKED: ATOM     36  O   UNL d   1      45.783  27.763  20.370 -0.13 -0.81    -0.776 OA
DOCKED: ATOM     37  H   UNL d   1      46.068  27.273  19.591 +0.04 +0.11    +0.167 HD
DOCKED: ENDBRANCH  34  36
DOCKED: ENDBRANCH  33  34
DOCKED: ENDBRANCH  32  33
DOCKED: ENDBRANCH   6  32
DOCKED: BRANCH  22  38
DOCKED: ATOM     38  C   UNL d   1      43.240  24.562  16.996 -0.32 +0.01    +0.052 C 
DOCKED: BRANCH  38  39
DOCKED: ATOM     39  C   UNL d   1      44.627  25.069  16.607 -0.19 +0.04    +0.115 C 
DOCKED: BRANCH  39  40
DOCKED: ATOM     40  C   UNL d   1      45.338  25.741  17.754 -0.17 +0.06    +0.139 C 
DOCKED: ATOM     41  O   UNL d   1      46.146  26.628  17.531 +0.01 -0.27    -0.650 OA
DOCKED: BRANCH  40  42
DOCKED: ATOM     42  O   UNL d   1      45.060  25.415  19.032 +0.11 -0.38    -0.776 OA
DOCKED: ATOM     43  H   UNL d   1      44.708  26.064  19.653 +0.06 +0.10    +0.167 HD
DOCKED: ENDBRANCH  40  42
DOCKED: ENDBRANCH  39  40
DOCKED: ENDBRANCH  38  39
DOCKED: ENDBRANCH  22  38
DOCKED: BRANCH  12  44
DOCKED: ATOM     44  C   UNL d   1      37.040  33.209  13.051 -0.50 +0.00    +0.004 C 
DOCKED: ATOM     45  C   UNL d   1      35.840  32.892  12.569 -0.60 +0.00    +0.012 C 
DOCKED: ENDBRANCH  12  44
DOCKED: BRANCH  17  46
DOCKED: ATOM     46  C   UNL d   1      36.662  25.040  12.655 -0.67 +0.00    +0.004 C 
DOCKED: ATOM     47  C   UNL d   1      35.891  24.241  13.403 -0.73 +0.00    +0.012 C 
DOCKED: ENDBRANCH  17  46
DOCKED: TORSDOF 10
DOCKED: TER
DOCKED: ENDMDL
________________________________________________________________________________


	BEGINNING GENETIC ALGORITHM DOCKING 18 of 100
Run: 18 Seed: 38260784 172875337 [ Run 18 of 100 GA/GALS ]
Beginning LAMARCKIAN GENETIC ALGORITHM (LGA), with a maximum of 25000000 energy evaluations.

Final-Value: -17.887


	FINAL GENETIC ALGORITHM DOCKED STATE
	_______________________________________________


Detailed state:  trans 8.376 34.728 -0.874 quatxyzw 0.004143 0.004598 0.020419 0.999772 center 8.287 34.468 -0.670 ntor 10 2.8414 -129.9247 3.1593 -57.1863 112.2865 148.5253 27.9163 -74.3342 -27.3345 -18.4064
State:	  8.376  34.728  -0.874   0.194  0.215  0.957  2.445      2.84 -129.92    3.16  -57.19  112.29  148.53   27.92  -74.33  -27.33  -18.41

DOCKED: MODEL       18
DOCKED: USER    Run = 18
DOCKED: USER    DPF = D:/Protein_go_brrr/autodock/final/6BB5/heme_O2/dock.dpf
DOCKED: USER  
DOCKED: USER    Estimated Free Energy of Binding    =  -12.74 kcal/mol  [=(1)+(2)+(3)-(4)]
DOCKED: USER    Estimated Inhibition Constant, Ki   =  456.68 pM (picomolar)  [Temperature = 298.15 K]
DOCKED: USER    
DOCKED: USER    (1) Final Intermolecular Energy     =  -15.73 kcal/mol
DOCKED: USER        vdW + Hbond + desolv Energy     =  -15.26 kcal/mol
DOCKED: USER        Electrostatic Energy            =   -0.47 kcal/mol
DOCKED: USER    (2) Final Total Internal Energy     =   -2.16 kcal/mol
DOCKED: USER    (3) Torsional Free Energy           =   +2.98 kcal/mol
DOCKED: USER    (4) Unbound System's Energy  [=(2)] =   -2.16 kcal/mol
DOCKED: USER    
DOCKED: USER    
DOCKED: USER    NEWDPF move heme_O2_opt.pdbqt
DOCKED: USER    NEWDPF about 8.287000 34.468000 -0.670000
DOCKED: USER    NEWDPF tran0 8.376198 34.728169 -0.873928
DOCKED: USER    NEWDPF quaternion0 0.004143 0.004598 0.020419 0.999772
DOCKED: USER    NEWDPF axisangle0 0.194163 0.215494 0.957007 2.445129
DOCKED: USER    NEWDPF quat0 0.194163 0.215494 0.957007 2.445129
DOCKED: USER    NEWDPF dihe0 2.84 -129.92 3.16 -57.19 112.29 148.53 27.92 -74.33 -27.33 -18.41 
DOCKED: USER  keepresnum = 1 
DOCKED: USER  
DOCKED: REMARK  10 active torsions:
DOCKED: REMARK  status: ('A' for Active; 'I' for Inactive)
DOCKED: REMARK    1  A    between atoms: C_6  and  C_10 
DOCKED: REMARK    2  A    between atoms: C_10  and  C_11 
DOCKED: REMARK    3  A    between atoms: C_11  and  C_12 
DOCKED: REMARK    4  A    between atoms: C_12  and  O_14 
DOCKED: REMARK    5  A    between atoms: C_17  and  C_20 
DOCKED: REMARK    6  A    between atoms: C_24  and  C_27 
DOCKED: REMARK    7  A    between atoms: C_31  and  C_34 
DOCKED: REMARK    8  A    between atoms: C_34  and  C_35 
DOCKED: REMARK    9  A    between atoms: C_35  and  C_36 
DOCKED: REMARK   10  A    between atoms: C_36  and  O_38 
DOCKED: USER                              x       y       z     vdW  Elec       q    Type
DOCKED: USER                           _______ _______ _______ _____ _____    ______ ____
DOCKED: ROOT
DOCKED: ATOM      1  C   UNL d   1       6.540  35.399  -1.696 -0.11 +0.01    +0.064 A 
DOCKED: ATOM      2  C   UNL d   1       7.569  32.658   2.044 -0.38 +0.00    +0.064 A 
DOCKED: ATOM      3  C   UNL d   1      12.273  33.020   1.131 -0.45 +0.00    +0.064 C 
DOCKED: ATOM      4  C   UNL d   1      11.252  36.230  -2.435 -0.44 +0.00    +0.064 A 
DOCKED: ATOM      5  C   UNL d   1       6.436  34.626  -0.604 -0.24 +0.01    +0.066 A 
DOCKED: ATOM      6  C   UNL d   1       5.221  34.254  -0.020 -0.28 -0.00    -0.021 A 
DOCKED: ATOM      7  C   UNL d   1       5.519  33.496   1.088 -0.36 -0.00    -0.025 A 
DOCKED: ATOM      8  C   UNL d   1       6.906  33.385   1.123 -0.35 +0.01    +0.066 A 
DOCKED: ATOM      9  C   UNL d   1       4.499  32.946   2.060 -0.42 +0.00    +0.051 C 
DOCKED: ATOM     10  C   UNL d   1       9.020  32.486   2.118 -0.37 +0.00    +0.066 A 
DOCKED: ATOM     11  C   UNL d   1       9.645  31.590   2.992 -0.45 -0.00    -0.021 A 
DOCKED: ATOM     12  C   UNL d   1      11.001  31.666   2.732 -0.43 +0.00    +0.000 A 
DOCKED: ATOM     13  C   UNL d   1      11.130  32.636   1.699 -0.37 +0.00    +0.070 A 
DOCKED: ATOM     14  C   UNL d   1       8.975  30.679   4.014 -0.59 +0.00    +0.052 C 
DOCKED: ATOM     15  C   UNL d   1      12.450  34.022   0.108 -0.38 +0.00    +0.066 A 
DOCKED: ATOM     16  C   UNL d   1      13.686  34.496  -0.329 -0.45 -0.00    -0.021 A 
DOCKED: ATOM     17  C   UNL d   1      13.420  35.414  -1.345 -0.46 +0.00    +0.000 A 
DOCKED: ATOM     18  C   UNL d   1      12.022  35.429  -1.455 -0.39 +0.00    +0.070 A 
DOCKED: ATOM     19  C   UNL d   1      14.995  34.078   0.293 -0.60 +0.00    +0.052 C 
DOCKED: ATOM     20  C   UNL d   1       9.910  36.301  -2.539 -0.41 +0.00    +0.066 A 
DOCKED: ATOM     21  C   UNL d   1       9.241  37.061  -3.494 -0.41 +0.00    -0.025 A 
DOCKED: ATOM     22  C   UNL d   1       7.898  36.815  -3.316 -0.33 -0.00    -0.021 A 
DOCKED: ATOM     23  C   UNL d   1       7.796  35.925  -2.242 -0.32 +0.01    +0.066 A 
DOCKED: ATOM     24  C   UNL d   1       9.851  37.977  -4.522 -0.46 -0.01    +0.051 C 
DOCKED: ATOM     25  N   UNL d   1       7.473  34.136   0.119 -0.19 -0.04    -0.248 N 
DOCKED: ATOM     26  N   UNL d   1       9.921  33.133   1.335 -0.14 -0.02    -0.248 N 
DOCKED: ATOM     27  N   UNL d   1      11.448  34.635  -0.515 -0.18 -0.03    -0.248 N 
DOCKED: ATOM     28  N   UNL d   1       9.020  35.651  -1.744 -0.24 -0.04    -0.248 N 
DOCKED: ATOM     29 FE   UNL d   1       9.470  34.402  -0.216 +0.03 +0.00    +0.000 Fe
DOCKED: ATOM     30  O   UNL d   1       8.952  35.094   1.078 -0.79 +0.00    +0.000 OA
DOCKED: ATOM     31  O   UNL d   1      10.007  35.829   0.168 -0.95 +0.00    +0.000 OA
DOCKED: ENDROOT
DOCKED: BRANCH   6  32
DOCKED: ATOM     32  C   UNL d   1       3.836  34.704  -0.406 -0.24 +0.01    +0.052 C 
DOCKED: BRANCH  32  33
DOCKED: ATOM     33  C   UNL d   1       3.505  34.419  -1.867 -0.15 +0.02    +0.115 C 
DOCKED: BRANCH  33  34
DOCKED: ATOM     34  C   UNL d   1       2.461  35.360  -2.415 -0.08 +0.03    +0.139 C 
DOCKED: ATOM     35  O   UNL d   1       1.524  35.698  -1.710 +0.02 -0.24    -0.650 OA
DOCKED: BRANCH  34  36
DOCKED: ATOM     36  O   UNL d   1       2.523  35.818  -3.683 +0.04 -0.15    -0.776 OA
DOCKED: ATOM     37  H   UNL d   1       3.207  35.529  -4.298 +0.03 +0.02    +0.167 HD
DOCKED: ENDBRANCH  34  36
DOCKED: ENDBRANCH  33  34
DOCKED: ENDBRANCH  32  33
DOCKED: ENDBRANCH   6  32
DOCKED: BRANCH  22  38
DOCKED: ATOM     38  C   UNL d   1       6.777  37.453  -4.096 -0.24 +0.00    +0.052 C 
DOCKED: BRANCH  38  39
DOCKED: ATOM     39  C   UNL d   1       6.513  36.743  -5.422 -0.19 +0.00    +0.115 C 
DOCKED: BRANCH  39  40
DOCKED: ATOM     40  C   UNL d   1       5.269  35.890  -5.381 -0.19 +0.01    +0.139 C 
DOCKED: ATOM     41  O   UNL d   1       5.236  34.900  -4.668 +0.17 -0.05    -0.650 OA
DOCKED: BRANCH  40  42
DOCKED: ATOM     42  O   UNL d   1       4.169  36.230  -6.080 +0.02 -0.07    -0.776 OA
DOCKED: ATOM     43  H   UNL d   1       3.304  36.298  -5.659 +0.02 +0.02    +0.167 HD
DOCKED: ENDBRANCH  40  42
DOCKED: ENDBRANCH  39  40
DOCKED: ENDBRANCH  38  39
DOCKED: ENDBRANCH  22  38
DOCKED: BRANCH  12  44
DOCKED: ATOM     44  C   UNL d   1      12.012  30.826   3.483 -0.58 +0.00    +0.004 C 
DOCKED: ATOM     45  C   UNL d   1      13.334  30.790   3.314 -0.67 +0.00    +0.012 C 
DOCKED: ENDBRANCH  12  44
DOCKED: BRANCH  17  46
DOCKED: ATOM     46  C   UNL d   1      14.341  36.289  -2.152 -0.63 +0.00    +0.004 C 
DOCKED: ATOM     47  C   UNL d   1      15.124  37.287  -1.722 -0.67 +0.00    +0.012 C 
DOCKED: ENDBRANCH  17  46
DOCKED: TORSDOF 10
DOCKED: TER
DOCKED: ENDMDL
________________________________________________________________________________


	BEGINNING GENETIC ALGORITHM DOCKING 19 of 100
Run: 19 Seed: 925552369 1745138667 [ Run 19 of 100 GA/GALS ]
Beginning LAMARCKIAN GENETIC ALGORITHM (LGA), with a maximum of 25000000 energy evaluations.

Final-Value: -20.416


	FINAL GENETIC ALGORITHM DOCKED STATE
	_______________________________________________


Detailed state:  trans 41.025 28.301 15.690 quatxyzw 0.319955 -0.370531 -0.869084 0.070919 center 8.287 34.468 -0.670 ntor 10 -167.5317 -116.3771 8.8075 -104.4123 -36.7007 147.5940 -66.8826 54.8442 -170.0599 -172.0218
State:	 41.025  28.301  15.690   0.321 -0.371 -0.871 171.866   -167.53 -116.38    8.81 -104.41  -36.70  147.59  -66.88   54.84 -170.06 -172.02

DOCKED: MODEL       19
DOCKED: USER    Run = 19
DOCKED: USER    DPF = D:/Protein_go_brrr/autodock/final/6BB5/heme_O2/dock.dpf
DOCKED: USER  
DOCKED: USER    Estimated Free Energy of Binding    =  -14.93 kcal/mol  [=(1)+(2)+(3)-(4)]
DOCKED: USER    Estimated Inhibition Constant, Ki   =   11.44 pM (picomolar)  [Temperature = 298.15 K]
DOCKED: USER    
DOCKED: USER    (1) Final Intermolecular Energy     =  -17.91 kcal/mol
DOCKED: USER        vdW + Hbond + desolv Energy     =  -16.19 kcal/mol
DOCKED: USER        Electrostatic Energy            =   -1.72 kcal/mol
DOCKED: USER    (2) Final Total Internal Energy     =   -2.51 kcal/mol
DOCKED: USER    (3) Torsional Free Energy           =   +2.98 kcal/mol
DOCKED: USER    (4) Unbound System's Energy  [=(2)] =   -2.51 kcal/mol
DOCKED: USER    
DOCKED: USER    
DOCKED: USER    NEWDPF move heme_O2_opt.pdbqt
DOCKED: USER    NEWDPF about 8.287000 34.468000 -0.670000
DOCKED: USER    NEWDPF tran0 41.025426 28.300685 15.689896
DOCKED: USER    NEWDPF quaternion0 0.319955 -0.370531 -0.869084 0.070919
DOCKED: USER    NEWDPF axisangle0 0.320763 -0.371466 -0.871277 171.866466
DOCKED: USER    NEWDPF quat0 0.320763 -0.371466 -0.871277 171.866466
DOCKED: USER    NEWDPF dihe0 -167.53 -116.38 8.81 -104.41 -36.70 147.59 -66.88 54.84 -170.06 -172.02 
DOCKED: USER  keepresnum = 1 
DOCKED: USER  
DOCKED: REMARK  10 active torsions:
DOCKED: REMARK  status: ('A' for Active; 'I' for Inactive)
DOCKED: REMARK    1  A    between atoms: C_6  and  C_10 
DOCKED: REMARK    2  A    between atoms: C_10  and  C_11 
DOCKED: REMARK    3  A    between atoms: C_11  and  C_12 
DOCKED: REMARK    4  A    between atoms: C_12  and  O_14 
DOCKED: REMARK    5  A    between atoms: C_17  and  C_20 
DOCKED: REMARK    6  A    between atoms: C_24  and  C_27 
DOCKED: REMARK    7  A    between atoms: C_31  and  C_34 
DOCKED: REMARK    8  A    between atoms: C_34  and  C_35 
DOCKED: REMARK    9  A    between atoms: C_35  and  C_36 
DOCKED: REMARK   10  A    between atoms: C_36  and  O_38 
DOCKED: USER                              x       y       z     vdW  Elec       q    Type
DOCKED: USER                           _______ _______ _______ _____ _____    ______ ____
DOCKED: ROOT
DOCKED: ATOM      1  C   UNL d   1      42.680  27.531  16.772 -0.24 +0.02    +0.064 A 
DOCKED: ATOM      2  C   UNL d   1      40.873  31.904  16.354 -0.40 +0.01    +0.064 A 
DOCKED: ATOM      3  C   UNL d   1      37.478  30.314  13.348 -0.37 +0.01    +0.064 C 
DOCKED: ATOM      4  C   UNL d   1      39.034  25.730  14.144 -0.42 +0.01    +0.064 A 
DOCKED: ATOM      5  C   UNL d   1      42.464  28.850  16.905 -0.23 +0.02    +0.066 A 
DOCKED: ATOM      6  C   UNL d   1      43.257  29.698  17.684 -0.29 -0.01    -0.021 A 
DOCKED: ATOM      7  C   UNL d   1      42.709  30.957  17.598 -0.37 -0.01    -0.025 A 
DOCKED: ATOM      8  C   UNL d   1      41.625  30.852  16.731 -0.34 +0.01    +0.066 A 
DOCKED: ATOM      9  C   UNL d   1      43.209  32.171  18.350 -0.43 +0.01    +0.051 C 
DOCKED: ATOM     10  C   UNL d   1      39.739  31.860  15.430 -0.36 +0.01    +0.066 A 
DOCKED: ATOM     11  C   UNL d   1      39.096  33.005  14.947 -0.41 -0.00    -0.021 A 
DOCKED: ATOM     12  C   UNL d   1      38.125  32.568  14.064 -0.40 +0.00    +0.000 A 
DOCKED: ATOM     13  C   UNL d   1      38.225  31.149  14.069 -0.37 +0.01    +0.070 A 
DOCKED: ATOM     14  C   UNL d   1      39.412  34.456  15.291 -0.55 +0.00    +0.052 C 
DOCKED: ATOM     15  C   UNL d   1      37.524  28.872  13.351 -0.39 +0.01    +0.066 A 
DOCKED: ATOM     16  C   UNL d   1      36.606  28.050  12.698 -0.52 -0.00    -0.021 A 
DOCKED: ATOM     17  C   UNL d   1      37.029  26.738  12.912 -0.47 +0.00    +0.000 A 
DOCKED: ATOM     18  C   UNL d   1      38.190  26.860  13.688 -0.38 +0.01    +0.070 A 
DOCKED: ATOM     19  C   UNL d   1      35.389  28.582  11.983 -0.67 +0.00    +0.052 C 
DOCKED: ATOM     20  C   UNL d   1      40.129  25.808  14.925 -0.39 +0.01    +0.066 A 
DOCKED: ATOM     21  C   UNL d   1      40.894  24.710  15.308 -0.45 -0.00    -0.025 A 
DOCKED: ATOM     22  C   UNL d   1      41.953  25.207  16.035 -0.35 -0.00    -0.021 A 
DOCKED: ATOM     23  C   UNL d   1      41.784  26.595  16.084 -0.35 +0.01    +0.066 A 
DOCKED: ATOM     24  C   UNL d   1      40.627  23.260  14.999 -0.50 +0.00    +0.051 C 
DOCKED: ATOM     25  N   UNL d   1      41.436  29.542  16.356 -0.21 -0.06    -0.248 N 
DOCKED: ATOM     26  N   UNL d   1      39.206  30.727  14.907 -0.19 -0.05    -0.248 N 
DOCKED: ATOM     27  N   UNL d   1      38.433  28.157  14.007 -0.21 -0.05    -0.248 N 
DOCKED: ATOM     28  N   UNL d   1      40.650  26.951  15.446 -0.27 -0.05    -0.248 N 
DOCKED: ATOM     29 FE   UNL d   1      39.931  28.824  15.177 -0.05 +0.00    +0.000 Fe
DOCKED: ATOM     30  O   UNL d   1      39.454  29.312  16.576 -0.72 +0.00    +0.000 OA
DOCKED: ATOM     31  O   UNL d   1      38.835  28.005  15.952 -0.84 +0.00    +0.000 OA
DOCKED: ENDROOT
DOCKED: BRANCH   6  32
DOCKED: ATOM     32  C   UNL d   1      44.404  29.320  18.585 -0.28 +0.02    +0.052 C 
DOCKED: BRANCH  32  33
DOCKED: ATOM     33  C   UNL d   1      43.950  28.926  19.988 -0.02 +0.09    +0.115 C 
DOCKED: BRANCH  33  34
DOCKED: ATOM     34  C   UNL d   1      44.144  27.455  20.263 -0.23 +0.14    +0.139 C 
DOCKED: ATOM     35  O   UNL d   1      43.957  27.023  21.389 -0.24 -1.13    -0.650 OA
DOCKED: BRANCH  34  36
DOCKED: ATOM     36  O   UNL d   1      44.549  26.606  19.296 +0.08 -0.45    -0.776 OA
DOCKED: ATOM     37  H   UNL d   1      44.504  25.649  19.405 +0.07 +0.09    +0.167 HD
DOCKED: ENDBRANCH  34  36
DOCKED: ENDBRANCH  33  34
DOCKED: ENDBRANCH  32  33
DOCKED: ENDBRANCH   6  32
DOCKED: BRANCH  22  38
DOCKED: ATOM     38  C   UNL d   1      43.027  24.384  16.697 -0.32 +0.01    +0.052 C 
DOCKED: BRANCH  38  39
DOCKED: ATOM     39  C   UNL d   1      42.502  23.598  17.896 -0.40 +0.02    +0.115 C 
DOCKED: BRANCH  39  40
DOCKED: ATOM     40  C   UNL d   1      43.304  23.852  19.148 -0.31 +0.05    +0.139 C 
DOCKED: ATOM     41  O   UNL d   1      44.457  23.459  19.220 -0.10 -0.27    -0.650 OA
DOCKED: BRANCH  40  42
DOCKED: ATOM     42  O   UNL d   1      42.786  24.553  20.175 +0.08 -0.31    -0.776 OA
DOCKED: ATOM     43  H   UNL d   1      43.140  25.415  20.427 +0.07 +0.09    +0.167 HD
DOCKED: ENDBRANCH  40  42
DOCKED: ENDBRANCH  39  40
DOCKED: ENDBRANCH  38  39
DOCKED: ENDBRANCH  22  38
DOCKED: BRANCH  12  44
DOCKED: ATOM     44  C   UNL d   1      37.219  33.530  13.325 -0.48 +0.00    +0.004 C 
DOCKED: ATOM     45  C   UNL d   1      36.200  33.239  12.517 -0.59 +0.00    +0.012 C 
DOCKED: ENDBRANCH  12  44
DOCKED: BRANCH  17  46
DOCKED: ATOM     46  C   UNL d   1      36.416  25.424  12.508 -0.66 +0.00    +0.004 C 
DOCKED: ATOM     47  C   UNL d   1      35.861  24.492  13.293 -0.72 +0.00    +0.012 C 
DOCKED: ENDBRANCH  17  46
DOCKED: TORSDOF 10
DOCKED: TER
DOCKED: ENDMDL
________________________________________________________________________________


	BEGINNING GENETIC ALGORITHM DOCKING 20 of 100
Run: 20 Seed: 172440343 331958543 [ Run 20 of 100 GA/GALS ]
Beginning LAMARCKIAN GENETIC ALGORITHM (LGA), with a maximum of 25000000 energy evaluations.

Final-Value: -18.844


	FINAL GENETIC ALGORITHM DOCKED STATE
	_______________________________________________


Detailed state:  trans 8.412 34.619 -0.822 quatxyzw -0.022457 -0.042671 -0.028072 -0.998442 center 8.287 34.468 -0.670 ntor 10 -68.9589 -66.5947 -22.9129 -102.2435 -63.7184 28.1003 -53.7213 100.7111 -179.5626 -145.4560
State:	  8.412  34.619  -0.822  -0.402 -0.765 -0.503 -6.397    -68.96  -66.59  -22.91 -102.24  -63.72   28.10  -53.72  100.71 -179.56 -145.46

DOCKED: MODEL       20
DOCKED: USER    Run = 20
DOCKED: USER    DPF = D:/Protein_go_brrr/autodock/final/6BB5/heme_O2/dock.dpf
DOCKED: USER  
DOCKED: USER    Estimated Free Energy of Binding    =  -14.29 kcal/mol  [=(1)+(2)+(3)-(4)]
DOCKED: USER    Estimated Inhibition Constant, Ki   =   33.28 pM (picomolar)  [Temperature = 298.15 K]
DOCKED: USER    
DOCKED: USER    (1) Final Intermolecular Energy     =  -17.28 kcal/mol
DOCKED: USER        vdW + Hbond + desolv Energy     =  -16.05 kcal/mol
DOCKED: USER        Electrostatic Energy            =   -1.22 kcal/mol
DOCKED: USER    (2) Final Total Internal Energy     =   -1.57 kcal/mol
DOCKED: USER    (3) Torsional Free Energy           =   +2.98 kcal/mol
DOCKED: USER    (4) Unbound System's Energy  [=(2)] =   -1.57 kcal/mol
DOCKED: USER    
DOCKED: USER    
DOCKED: USER    NEWDPF move heme_O2_opt.pdbqt
DOCKED: USER    NEWDPF about 8.287000 34.468000 -0.670000
DOCKED: USER    NEWDPF tran0 8.412434 34.618900 -0.822049
DOCKED: USER    NEWDPF quaternion0 -0.022457 -0.042671 -0.028072 -0.998442
DOCKED: USER    NEWDPF axisangle0 -0.402478 -0.764780 -0.503113 -6.397030
DOCKED: USER    NEWDPF quat0 -0.402478 -0.764780 -0.503113 -6.397030
DOCKED: USER    NEWDPF dihe0 -68.96 -66.59 -22.91 -102.24 -63.72 28.10 -53.72 100.71 -179.56 -145.46 
DOCKED: USER  keepresnum = 1 
DOCKED: USER  
DOCKED: REMARK  10 active torsions:
DOCKED: REMARK  status: ('A' for Active; 'I' for Inactive)
DOCKED: REMARK    1  A    between atoms: C_6  and  C_10 
DOCKED: REMARK    2  A    between atoms: C_10  and  C_11 
DOCKED: REMARK    3  A    between atoms: C_11  and  C_12 
DOCKED: REMARK    4  A    between atoms: C_12  and  O_14 
DOCKED: REMARK    5  A    between atoms: C_17  and  C_20 
DOCKED: REMARK    6  A    between atoms: C_24  and  C_27 
DOCKED: REMARK    7  A    between atoms: C_31  and  C_34 
DOCKED: REMARK    8  A    between atoms: C_34  and  C_35 
DOCKED: REMARK    9  A    between atoms: C_35  and  C_36 
DOCKED: REMARK   10  A    between atoms: C_36  and  O_38 
DOCKED: USER                              x       y       z     vdW  Elec       q    Type
DOCKED: USER                           _______ _______ _______ _____ _____    ______ ____
DOCKED: ROOT
DOCKED: ATOM      1  C   UNL d   1       6.654  35.283  -1.806 -0.22 +0.01    +0.064 A 
DOCKED: ATOM      2  C   UNL d   1       7.354  32.674   2.102 -0.39 +0.01    +0.064 A 
DOCKED: ATOM      3  C   UNL d   1      12.119  32.936   1.535 -0.41 +0.00    +0.064 C 
DOCKED: ATOM      4  C   UNL d   1      11.422  36.020  -2.216 -0.42 +0.00    +0.064 A 
DOCKED: ATOM      5  C   UNL d   1       6.456  34.554  -0.696 -0.25 +0.01    +0.066 A 
DOCKED: ATOM      6  C   UNL d   1       5.195  34.221  -0.192 -0.28 -0.00    -0.021 A 
DOCKED: ATOM      7  C   UNL d   1       5.396  33.503   0.963 -0.35 -0.00    -0.025 A 
DOCKED: ATOM      8  C   UNL d   1       6.775  33.375   1.107 -0.35 +0.01    +0.066 A 
DOCKED: ATOM      9  C   UNL d   1       4.296  33.005   1.875 -0.39 +0.00    +0.051 C 
DOCKED: ATOM     10  C   UNL d   1       8.793  32.486   2.292 -0.37 +0.00    +0.066 A 
DOCKED: ATOM     11  C   UNL d   1       9.335  31.615   3.244 -0.45 -0.00    -0.021 A 
DOCKED: ATOM     12  C   UNL d   1      10.708  31.663   3.084 -0.44 +0.00    +0.000 A 
DOCKED: ATOM     13  C   UNL d   1      10.930  32.590   2.028 -0.36 +0.00    +0.070 A 
DOCKED: ATOM     14  C   UNL d   1       8.575  30.754   4.246 -0.57 +0.00    +0.052 C 
DOCKED: ATOM     15  C   UNL d   1      12.388  33.895   0.491 -0.37 +0.00    +0.066 A 
DOCKED: ATOM     16  C   UNL d   1      13.662  34.335   0.131 -0.45 -0.00    -0.021 A 
DOCKED: ATOM     17  C   UNL d   1      13.488  35.216  -0.936 -0.45 +0.00    +0.000 A 
DOCKED: ATOM     18  C   UNL d   1      12.103  35.247  -1.151 -0.38 +0.00    +0.070 A 
DOCKED: ATOM     19  C   UNL d   1      14.913  33.923   0.866 -0.61 +0.00    +0.052 C 
DOCKED: ATOM     20  C   UNL d   1      10.093  36.105  -2.424 -0.41 +0.00    +0.066 A 
DOCKED: ATOM     21  C   UNL d   1       9.510  36.836  -3.455 -0.42 +0.00    -0.025 A 
DOCKED: ATOM     22  C   UNL d   1       8.154  36.616  -3.370 -0.34 -0.00    -0.021 A 
DOCKED: ATOM     23  C   UNL d   1       7.957  35.770  -2.274 -0.34 +0.01    +0.066 A 
DOCKED: ATOM     24  C   UNL d   1      10.211  37.704  -4.468 -0.51 -0.01    +0.051 C 
DOCKED: ATOM     25  N   UNL d   1       7.427  34.078   0.121 -0.18 -0.04    -0.248 N 
DOCKED: ATOM     26  N   UNL d   1       9.760  33.089   1.555 -0.23 -0.02    -0.248 N 
DOCKED: ATOM     27  N   UNL d   1      11.446  34.498  -0.229 -0.16 -0.03    -0.248 N 
DOCKED: ATOM     28  N   UNL d   1       9.135  35.498  -1.675 -0.16 -0.05    -0.248 N 
DOCKED: ATOM     29 FE   UNL d   1       9.448  34.303  -0.072 -0.07 +0.00    +0.000 Fe
DOCKED: ATOM     30  O   UNL d   1       8.846  35.052   1.153 -0.70 +0.00    +0.000 OA
DOCKED: ATOM     31  O   UNL d   1       9.978  35.737   0.298 -0.95 +0.00    +0.000 OA
DOCKED: ENDROOT
DOCKED: BRANCH   6  32
DOCKED: ATOM     32  C   UNL d   1       3.850  34.676  -0.698 -0.23 +0.01    +0.052 C 
DOCKED: BRANCH  32  33
DOCKED: ATOM     33  C   UNL d   1       3.312  35.887   0.057 -0.10 +0.06    +0.115 C 
DOCKED: BRANCH  33  34
DOCKED: ATOM     34  C   UNL d   1       2.990  37.041  -0.861 -0.17 +0.10    +0.139 C 
DOCKED: ATOM     35  O   UNL d   1       2.043  37.767  -0.607 -0.44 -0.98    -0.650 OA
DOCKED: BRANCH  34  36
DOCKED: ATOM     36  O   UNL d   1       3.711  37.273  -1.977 +0.05 -0.32    -0.776 OA
DOCKED: ATOM     37  H   UNL d   1       4.626  37.574  -1.941 +0.05 +0.05    +0.167 HD
DOCKED: ENDBRANCH  34  36
DOCKED: ENDBRANCH  33  34
DOCKED: ENDBRANCH  32  33
DOCKED: ENDBRANCH   6  32
DOCKED: BRANCH  22  38
DOCKED: ATOM     38  C   UNL d   1       7.105  37.239  -4.256 -0.26 +0.00    +0.052 C 
DOCKED: BRANCH  38  39
DOCKED: ATOM     39  C   UNL d   1       7.351  38.728  -4.490 -0.24 -0.01    +0.115 C 
DOCKED: BRANCH  39  40
DOCKED: ATOM     40  C   UNL d   1       6.876  39.579  -3.339 -0.31 +0.00    +0.139 C 
DOCKED: ATOM     41  O   UNL d   1       7.127  40.773  -3.324 -0.02 -0.00    -0.650 OA
DOCKED: BRANCH  40  42
DOCKED: ATOM     42  O   UNL d   1       6.133  39.053  -2.346 +0.03 -0.10    -0.776 OA
DOCKED: ATOM     43  H   UNL d   1       5.252  38.695  -2.510 +0.06 +0.04    +0.167 HD
DOCKED: ENDBRANCH  40  42
DOCKED: ENDBRANCH  39  40
DOCKED: ENDBRANCH  38  39
DOCKED: ENDBRANCH  22  38
DOCKED: BRANCH  12  44
DOCKED: ATOM     44  C   UNL d   1      11.646  30.839   3.941 -0.57 +0.00    +0.004 C 
DOCKED: ATOM     45  C   UNL d   1      12.860  30.390   3.626 -0.67 +0.00    +0.012 C 
DOCKED: ENDBRANCH  12  44
DOCKED: BRANCH  17  46
DOCKED: ATOM     46  C   UNL d   1      14.482  36.047  -1.703 -0.60 +0.00    +0.004 C 
DOCKED: ATOM     47  C   UNL d   1      14.644  37.376  -1.679 -0.66 +0.00    +0.012 C 
DOCKED: ENDBRANCH  17  46
DOCKED: TORSDOF 10
DOCKED: TER
DOCKED: ENDMDL
________________________________________________________________________________


	BEGINNING GENETIC ALGORITHM DOCKING 21 of 100
Run: 21 Seed: 208813609 152127198 [ Run 21 of 100 GA/GALS ]
Beginning LAMARCKIAN GENETIC ALGORITHM (LGA), with a maximum of 25000000 energy evaluations.

Final-Value: -20.200


	FINAL GENETIC ALGORITHM DOCKED STATE
	_______________________________________________


Detailed state:  trans 41.106 28.234 15.736 quatxyzw -0.324969 0.379861 0.864603 -0.050622 center 8.287 34.468 -0.670 ntor 10 -28.1986 117.6605 15.9345 -94.8068 -127.0002 55.2476 -14.2365 28.2623 -150.9008 172.4162
State:	 41.106  28.234  15.736  -0.325  0.380  0.866 -174.197    -28.20  117.66   15.93  -94.81 -127.00   55.25  -14.24   28.26 -150.90  172.42

DOCKED: MODEL       21
DOCKED: USER    Run = 21
DOCKED: USER    DPF = D:/Protein_go_brrr/autodock/final/6BB5/heme_O2/dock.dpf
DOCKED: USER  
DOCKED: USER    Estimated Free Energy of Binding    =  -15.63 kcal/mol  [=(1)+(2)+(3)-(4)]
DOCKED: USER    Estimated Inhibition Constant, Ki   =    3.50 pM (picomolar)  [Temperature = 298.15 K]
DOCKED: USER    
DOCKED: USER    (1) Final Intermolecular Energy     =  -18.61 kcal/mol
DOCKED: USER        vdW + Hbond + desolv Energy     =  -16.63 kcal/mol
DOCKED: USER        Electrostatic Energy            =   -1.98 kcal/mol
DOCKED: USER    (2) Final Total Internal Energy     =   -1.59 kcal/mol
DOCKED: USER    (3) Torsional Free Energy           =   +2.98 kcal/mol
DOCKED: USER    (4) Unbound System's Energy  [=(2)] =   -1.59 kcal/mol
DOCKED: USER    
DOCKED: USER    
DOCKED: USER    NEWDPF move heme_O2_opt.pdbqt
DOCKED: USER    NEWDPF about 8.287000 34.468000 -0.670000
DOCKED: USER    NEWDPF tran0 41.105780 28.234389 15.736188
DOCKED: USER    NEWDPF quaternion0 -0.324969 0.379861 0.864603 -0.050622
DOCKED: USER    NEWDPF axisangle0 -0.325387 0.380349 0.865713 -174.196644
DOCKED: USER    NEWDPF quat0 -0.325387 0.380349 0.865713 -174.196644
DOCKED: USER    NEWDPF dihe0 -28.20 117.66 15.93 -94.81 -127.00 55.25 -14.24 28.26 -150.90 172.42 
DOCKED: USER  keepresnum = 1 
DOCKED: USER  
DOCKED: REMARK  10 active torsions:
DOCKED: REMARK  status: ('A' for Active; 'I' for Inactive)
DOCKED: REMARK    1  A    between atoms: C_6  and  C_10 
DOCKED: REMARK    2  A    between atoms: C_10  and  C_11 
DOCKED: REMARK    3  A    between atoms: C_11  and  C_12 
DOCKED: REMARK    4  A    between atoms: C_12  and  O_14 
DOCKED: REMARK    5  A    between atoms: C_17  and  C_20 
DOCKED: REMARK    6  A    between atoms: C_24  and  C_27 
DOCKED: REMARK    7  A    between atoms: C_31  and  C_34 
DOCKED: REMARK    8  A    between atoms: C_34  and  C_35 
DOCKED: REMARK    9  A    between atoms: C_35  and  C_36 
DOCKED: REMARK   10  A    between atoms: C_36  and  O_38 
DOCKED: USER                              x       y       z     vdW  Elec       q    Type
DOCKED: USER                           _______ _______ _______ _____ _____    ______ ____
DOCKED: ROOT
DOCKED: ATOM      1  C   UNL d   1      42.789  27.555  16.834 -0.25 +0.02    +0.064 A 
DOCKED: ATOM      2  C   UNL d   1      40.839  31.851  16.282 -0.40 +0.01    +0.064 A 
DOCKED: ATOM      3  C   UNL d   1      37.485  30.053  13.347 -0.38 +0.01    +0.064 C 
DOCKED: ATOM      4  C   UNL d   1      39.192  25.551  14.287 -0.41 +0.01    +0.064 A 
DOCKED: ATOM      5  C   UNL d   1      42.531  28.870  16.925 -0.23 +0.02    +0.066 A 
DOCKED: ATOM      6  C   UNL d   1      43.299  29.769  17.671 -0.30 -0.01    -0.021 A 
DOCKED: ATOM      7  C   UNL d   1      42.710  31.005  17.547 -0.37 -0.01    -0.025 A 
DOCKED: ATOM      8  C   UNL d   1      41.627  30.837  16.689 -0.33 +0.01    +0.066 A 
DOCKED: ATOM      9  C   UNL d   1      43.173  32.260  18.255 -0.43 +0.01    +0.051 C 
DOCKED: ATOM     10  C   UNL d   1      39.703  31.740  15.366 -0.36 +0.01    +0.066 A 
DOCKED: ATOM     11  C   UNL d   1      39.021  32.847  14.848 -0.41 -0.00    -0.021 A 
DOCKED: ATOM     12  C   UNL d   1      38.062  32.349  13.985 -0.40 +0.00    +0.000 A 
DOCKED: ATOM     13  C   UNL d   1      38.208  30.935  14.037 -0.36 +0.01    +0.070 A 
DOCKED: ATOM     14  C   UNL d   1      39.292  34.318  15.142 -0.53 +0.00    +0.052 C 
DOCKED: ATOM     15  C   UNL d   1      37.578  28.614  13.398 -0.39 +0.01    +0.066 A 
DOCKED: ATOM     16  C   UNL d   1      36.684  27.741  12.778 -0.50 -0.00    -0.021 A 
DOCKED: ATOM     17  C   UNL d   1      37.150  26.452  13.033 -0.47 +0.00    +0.000 A 
DOCKED: ATOM     18  C   UNL d   1      38.310  26.637  13.798 -0.38 +0.01    +0.070 A 
DOCKED: ATOM     19  C   UNL d   1      35.448  28.210  12.052 -0.66 +0.00    +0.052 C 
DOCKED: ATOM     20  C   UNL d   1      40.288  25.690  15.059 -0.40 +0.01    +0.066 A 
DOCKED: ATOM     21  C   UNL d   1      41.090  24.631  15.474 -0.43 -0.00    -0.025 A 
DOCKED: ATOM     22  C   UNL d   1      42.135  25.186  16.178 -0.33 -0.00    -0.021 A 
DOCKED: ATOM     23  C   UNL d   1      41.921  26.568  16.182 -0.34 +0.01    +0.066 A 
DOCKED: ATOM     24  C   UNL d   1      40.868  23.163  15.215 -0.56 +0.00    +0.051 C 
DOCKED: ATOM     25  N   UNL d   1      41.478  29.510  16.359 -0.21 -0.06    -0.248 N 
DOCKED: ATOM     26  N   UNL d   1      39.206  30.573  14.883 -0.15 -0.05    -0.248 N 
DOCKED: ATOM     27  N   UNL d   1      38.512  27.951  14.073 -0.21 -0.05    -0.248 N 
DOCKED: ATOM     28  N   UNL d   1      40.773  26.866  15.539 -0.27 -0.05    -0.248 N 
DOCKED: ATOM     29 FE   UNL d   1      39.993  28.705  15.212 -0.07 +0.00    +0.000 Fe
DOCKED: ATOM     30  O   UNL d   1      39.507  29.224  16.597 -0.74 +0.00    +0.000 OA
DOCKED: ATOM     31  O   UNL d   1      38.927  27.877  16.020 -0.87 +0.00    +0.000 OA
DOCKED: ENDROOT
DOCKED: BRANCH   6  32
DOCKED: ATOM     32  C   UNL d   1      44.461  29.458  18.578 -0.27 +0.02    +0.052 C 
DOCKED: BRANCH  32  33
DOCKED: ATOM     33  C   UNL d   1      44.051  28.665  19.816 -0.16 +0.09    +0.115 C 
DOCKED: BRANCH  33  34
DOCKED: ATOM     34  C   UNL d   1      45.230  28.022  20.503 -0.11 +0.17    +0.139 C 
DOCKED: ATOM     35  O   UNL d   1      45.915  28.681  21.269 -0.27 -1.12    -0.650 OA
DOCKED: BRANCH  34  36
DOCKED: ATOM     36  O   UNL d   1      45.565  26.736  20.270 +0.02 -0.69    -0.776 OA
DOCKED: ATOM     37  H   UNL d   1      44.912  26.078  20.006 +0.06 +0.12    +0.167 HD
DOCKED: ENDBRANCH  34  36
DOCKED: ENDBRANCH  33  34
DOCKED: ENDBRANCH  32  33
DOCKED: ENDBRANCH   6  32
DOCKED: BRANCH  22  38
DOCKED: ATOM     38  C   UNL d   1      43.238  24.420  16.862 -0.31 +0.01    +0.052 C 
DOCKED: BRANCH  38  39
DOCKED: ATOM     39  C   UNL d   1      42.852  23.976  18.271 -0.36 +0.03    +0.115 C 
DOCKED: BRANCH  39  40
DOCKED: ATOM     40  C   UNL d   1      44.050  23.818  19.174 -0.23 +0.05    +0.139 C 
DOCKED: ATOM     41  O   UNL d   1      43.961  23.140  20.185 -0.52 -0.32    -0.650 OA
DOCKED: BRANCH  40  42
DOCKED: ATOM     42  O   UNL d   1      45.237  24.372  18.858 +0.10 -0.35    -0.776 OA
DOCKED: ATOM     43  H   UNL d   1      45.663  25.016  19.437 +0.05 +0.09    +0.167 HD
DOCKED: ENDBRANCH  40  42
DOCKED: ENDBRANCH  39  40
DOCKED: ENDBRANCH  38  39
DOCKED: ENDBRANCH  22  38
DOCKED: BRANCH  12  44
DOCKED: ATOM     44  C   UNL d   1      37.122  33.257  13.220 -0.49 +0.00    +0.004 C 
DOCKED: ATOM     45  C   UNL d   1      36.032  32.915  12.533 -0.59 +0.00    +0.012 C 
DOCKED: ENDBRANCH  12  44
DOCKED: BRANCH  17  46
DOCKED: ATOM     46  C   UNL d   1      36.579  25.106  12.676 -0.67 +0.00    +0.004 C 
DOCKED: ATOM     47  C   UNL d   1      35.902  24.258  13.461 -0.73 +0.00    +0.012 C 
DOCKED: ENDBRANCH  17  46
DOCKED: TORSDOF 10
DOCKED: TER
DOCKED: ENDMDL
________________________________________________________________________________


	BEGINNING GENETIC ALGORITHM DOCKING 22 of 100
Run: 22 Seed: 141033037 45174994 [ Run 22 of 100 GA/GALS ]
Beginning LAMARCKIAN GENETIC ALGORITHM (LGA), with a maximum of 25000000 energy evaluations.

Final-Value: -19.388


	FINAL GENETIC ALGORITHM DOCKED STATE
	_______________________________________________


Detailed state:  trans 8.244 34.730 -0.959 quatxyzw 0.023498 0.023919 0.018115 0.999274 center 8.287 34.468 -0.670 ntor 10 37.3191 125.1228 -23.3340 -64.4555 126.0470 -41.9193 49.8571 109.5687 -118.3728 -168.6049
State:	  8.244  34.730  -0.959   0.617  0.628  0.475  4.368     37.32  125.12  -23.33  -64.46  126.05  -41.92   49.86  109.57 -118.37 -168.60

DOCKED: MODEL       22
DOCKED: USER    Run = 22
DOCKED: USER    DPF = D:/Protein_go_brrr/autodock/final/6BB5/heme_O2/dock.dpf
DOCKED: USER  
DOCKED: USER    Estimated Free Energy of Binding    =  -14.81 kcal/mol  [=(1)+(2)+(3)-(4)]
DOCKED: USER    Estimated Inhibition Constant, Ki   =   14.04 pM (picomolar)  [Temperature = 298.15 K]
DOCKED: USER    
DOCKED: USER    (1) Final Intermolecular Energy     =  -17.79 kcal/mol
DOCKED: USER        vdW + Hbond + desolv Energy     =  -16.08 kcal/mol
DOCKED: USER        Electrostatic Energy            =   -1.71 kcal/mol
DOCKED: USER    (2) Final Total Internal Energy     =   -1.60 kcal/mol
DOCKED: USER    (3) Torsional Free Energy           =   +2.98 kcal/mol
DOCKED: USER    (4) Unbound System's Energy  [=(2)] =   -1.60 kcal/mol
DOCKED: USER    
DOCKED: USER    
DOCKED: USER    NEWDPF move heme_O2_opt.pdbqt
DOCKED: USER    NEWDPF about 8.287000 34.468000 -0.670000
DOCKED: USER    NEWDPF tran0 8.244251 34.729883 -0.958806
DOCKED: USER    NEWDPF quaternion0 0.023498 0.023919 0.018115 0.999274
DOCKED: USER    NEWDPF axisangle0 0.616566 0.627625 0.475324 4.368206
DOCKED: USER    NEWDPF quat0 0.616566 0.627625 0.475324 4.368206
DOCKED: USER    NEWDPF dihe0 37.32 125.12 -23.33 -64.46 126.05 -41.92 49.86 109.57 -118.37 -168.60 
DOCKED: USER  keepresnum = 1 
DOCKED: USER  
DOCKED: REMARK  10 active torsions:
DOCKED: REMARK  status: ('A' for Active; 'I' for Inactive)
DOCKED: REMARK    1  A    between atoms: C_6  and  C_10 
DOCKED: REMARK    2  A    between atoms: C_10  and  C_11 
DOCKED: REMARK    3  A    between atoms: C_11  and  C_12 
DOCKED: REMARK    4  A    between atoms: C_12  and  O_14 
DOCKED: REMARK    5  A    between atoms: C_17  and  C_20 
DOCKED: REMARK    6  A    between atoms: C_24  and  C_27 
DOCKED: REMARK    7  A    between atoms: C_31  and  C_34 
DOCKED: REMARK    8  A    between atoms: C_34  and  C_35 
DOCKED: REMARK    9  A    between atoms: C_35  and  C_36 
DOCKED: REMARK   10  A    between atoms: C_36  and  O_38 
DOCKED: USER                              x       y       z     vdW  Elec       q    Type
DOCKED: USER                           _______ _______ _______ _____ _____    ______ ____
DOCKED: ROOT
DOCKED: ATOM      1  C   UNL d   1       6.438  35.358  -1.876 -0.17 +0.01    +0.064 A 
DOCKED: ATOM      2  C   UNL d   1       7.335  32.772   2.006 -0.38 +0.01    +0.064 A 
DOCKED: ATOM      3  C   UNL d   1      12.069  33.122   1.258 -0.42 +0.00    +0.064 C 
DOCKED: ATOM      4  C   UNL d   1      11.171  36.185  -2.468 -0.44 +0.00    +0.064 A 
DOCKED: ATOM      5  C   UNL d   1       6.295  34.628  -0.758 -0.25 +0.01    +0.066 A 
DOCKED: ATOM      6  C   UNL d   1       5.061  34.273  -0.207 -0.27 -0.00    -0.021 A 
DOCKED: ATOM      7  C   UNL d   1       5.320  33.561   0.941 -0.35 -0.00    -0.025 A 
DOCKED: ATOM      8  C   UNL d   1       6.705  33.459   1.033 -0.35 +0.01    +0.066 A 
DOCKED: ATOM      9  C   UNL d   1       4.265  33.044   1.895 -0.39 +0.01    +0.051 C 
DOCKED: ATOM     10  C   UNL d   1       8.783  32.611   2.142 -0.36 +0.00    +0.066 A 
DOCKED: ATOM     11  C   UNL d   1       9.378  31.753   3.074 -0.44 -0.00    -0.021 A 
DOCKED: ATOM     12  C   UNL d   1      10.742  31.827   2.862 -0.43 +0.00    +0.000 A 
DOCKED: ATOM     13  C   UNL d   1      10.907  32.755   1.797 -0.36 +0.00    +0.070 A 
DOCKED: ATOM     14  C   UNL d   1       8.673  30.880   4.105 -0.57 +0.00    +0.052 C 
DOCKED: ATOM     15  C   UNL d   1      12.280  34.085   0.203 -0.36 +0.00    +0.066 A 
DOCKED: ATOM     16  C   UNL d   1      13.531  34.548  -0.205 -0.44 -0.00    -0.021 A 
DOCKED: ATOM     17  C   UNL d   1      13.300  35.423  -1.266 -0.46 +0.00    +0.000 A 
DOCKED: ATOM     18  C   UNL d   1      11.907  35.427  -1.429 -0.39 +0.00    +0.070 A 
DOCKED: ATOM     19  C   UNL d   1      14.816  34.161   0.482 -0.60 +0.00    +0.052 C 
DOCKED: ATOM     20  C   UNL d   1       9.834  36.244  -2.625 -0.41 +0.00    +0.066 A 
DOCKED: ATOM     21  C   UNL d   1       9.198  36.962  -3.635 -0.39 +0.00    -0.025 A 
DOCKED: ATOM     22  C   UNL d   1       7.851  36.716  -3.498 -0.31 -0.00    -0.021 A 
DOCKED: ATOM     23  C   UNL d   1       7.712  35.869  -2.394 -0.32 +0.01    +0.066 A 
DOCKED: ATOM     24  C   UNL d   1       9.844  37.840  -4.675 -0.48 -0.01    +0.051 C 
DOCKED: ATOM     25  N   UNL d   1       7.306  34.172   0.022 -0.19 -0.04    -0.248 N 
DOCKED: ATOM     26  N   UNL d   1       9.710  33.231   1.368 -0.14 -0.02    -0.248 N 
DOCKED: ATOM     27  N   UNL d   1      11.300  34.668  -0.481 -0.17 -0.03    -0.248 N 
DOCKED: ATOM     28  N   UNL d   1       8.917  35.621  -1.840 -0.24 -0.04    -0.248 N 
DOCKED: ATOM     29 FE   UNL d   1       9.313  34.435  -0.248 +0.01 +0.00    +0.000 Fe
DOCKED: ATOM     30  O   UNL d   1       8.745  35.175   0.998 -0.83 +0.00    +0.000 OA
DOCKED: ATOM     31  O   UNL d   1       9.830  35.879   0.099 -1.09 +0.00    +0.000 OA
DOCKED: ENDROOT
DOCKED: BRANCH   6  32
DOCKED: ATOM     32  C   UNL d   1       3.690  34.701  -0.662 -0.23 +0.01    +0.052 C 
DOCKED: BRANCH  32  33
DOCKED: ATOM     33  C   UNL d   1       3.664  36.125  -1.208 -0.15 +0.04    +0.115 C 
DOCKED: BRANCH  33  34
DOCKED: ATOM     34  C   UNL d   1       2.532  36.941  -0.636 -0.15 +0.12    +0.139 C 
DOCKED: ATOM     35  O   UNL d   1       1.534  36.377  -0.217 +0.06 -0.55    -0.650 OA
DOCKED: BRANCH  34  36
DOCKED: ATOM     36  O   UNL d   1       2.585  38.288  -0.600 -0.48 -1.26    -0.776 OA
DOCKED: ATOM     37  H   UNL d   1       2.976  38.803  -1.315 +0.03 +0.18    +0.167 HD
DOCKED: ENDBRANCH  34  36
DOCKED: ENDBRANCH  33  34
DOCKED: ENDBRANCH  32  33
DOCKED: ENDBRANCH   6  32
DOCKED: BRANCH  22  38
DOCKED: ATOM     38  C   UNL d   1       6.758  37.317  -4.344 -0.23 +0.00    +0.052 C 
DOCKED: BRANCH  38  39
DOCKED: ATOM     39  C   UNL d   1       6.625  38.824  -4.138 -0.20 +0.00    +0.115 C 
DOCKED: BRANCH  39  40
DOCKED: ATOM     40  C   UNL d   1       6.035  39.172  -2.794 -0.27 +0.02    +0.139 C 
DOCKED: ATOM     41  O   UNL d   1       6.762  39.566  -1.897 -0.07 -0.04    -0.650 OA
DOCKED: BRANCH  40  42
DOCKED: ATOM     42  O   UNL d   1       4.707  39.106  -2.580 +0.05 -0.23    -0.776 OA
DOCKED: ATOM     43  H   UNL d   1       4.340  38.614  -1.835 +0.05 +0.07    +0.167 HD
DOCKED: ENDBRANCH  40  42
DOCKED: ENDBRANCH  39  40
DOCKED: ENDBRANCH  38  39
DOCKED: ENDBRANCH  22  38
DOCKED: BRANCH  12  44
DOCKED: ATOM     44  C   UNL d   1      11.728  31.022   3.684 -0.54 +0.00    +0.004 C 
DOCKED: ATOM     45  C   UNL d   1      12.934  30.589   3.321 -0.65 +0.00    +0.012 C 
DOCKED: ENDBRANCH  12  44
DOCKED: BRANCH  17  46
DOCKED: ATOM     46  C   UNL d   1      14.247  36.271  -2.072 -0.63 +0.00    +0.004 C 
DOCKED: ATOM     47  C   UNL d   1      14.908  37.370  -1.686 -0.67 +0.00    +0.012 C 
DOCKED: ENDBRANCH  17  46
DOCKED: TORSDOF 10
DOCKED: TER
DOCKED: ENDMDL
________________________________________________________________________________


	BEGINNING GENETIC ALGORITHM DOCKING 23 of 100
Run: 23 Seed: 1816292107 536780102 [ Run 23 of 100 GA/GALS ]
Beginning LAMARCKIAN GENETIC ALGORITHM (LGA), with a maximum of 25000000 energy evaluations.

Final-Value: -20.148


	FINAL GENETIC ALGORITHM DOCKED STATE
	_______________________________________________


Detailed state:  trans 41.074 28.375 15.785 quatxyzw -0.328358 0.372164 0.865134 -0.072236 center 8.287 34.468 -0.670 ntor 10 -30.5982 -53.0004 18.6041 -101.5710 -99.0640 158.6652 49.5499 29.6413 -105.5864 170.4959
State:	 41.074  28.375  15.785  -0.329  0.373  0.867 -171.715    -30.60  -53.00   18.60 -101.57  -99.06  158.67   49.55   29.64 -105.59  170.50

DOCKED: MODEL       23
DOCKED: USER    Run = 23
DOCKED: USER    DPF = D:/Protein_go_brrr/autodock/final/6BB5/heme_O2/dock.dpf
DOCKED: USER  
DOCKED: USER    Estimated Free Energy of Binding    =  -16.50 kcal/mol  [=(1)+(2)+(3)-(4)]
DOCKED: USER    Estimated Inhibition Constant, Ki   =  801.65 fM (femtomolar)  [Temperature = 298.15 K]
DOCKED: USER    
DOCKED: USER    (1) Final Intermolecular Energy     =  -19.48 kcal/mol
DOCKED: USER        vdW + Hbond + desolv Energy     =  -16.72 kcal/mol
DOCKED: USER        Electrostatic Energy            =   -2.77 kcal/mol
DOCKED: USER    (2) Final Total Internal Energy     =   -0.66 kcal/mol
DOCKED: USER    (3) Torsional Free Energy           =   +2.98 kcal/mol
DOCKED: USER    (4) Unbound System's Energy  [=(2)] =   -0.66 kcal/mol
DOCKED: USER    
DOCKED: USER    
DOCKED: USER    NEWDPF move heme_O2_opt.pdbqt
DOCKED: USER    NEWDPF about 8.287000 34.468000 -0.670000
DOCKED: USER    NEWDPF tran0 41.073697 28.374939 15.784669
DOCKED: USER    NEWDPF quaternion0 -0.328358 0.372164 0.865134 -0.072236
DOCKED: USER    NEWDPF axisangle0 -0.329218 0.373139 0.867400 -171.715204
DOCKED: USER    NEWDPF quat0 -0.329218 0.373139 0.867400 -171.715204
DOCKED: USER    NEWDPF dihe0 -30.60 -53.00 18.60 -101.57 -99.06 158.67 49.55 29.64 -105.59 170.50 
DOCKED: USER  keepresnum = 1 
DOCKED: USER  
DOCKED: REMARK  10 active torsions:
DOCKED: REMARK  status: ('A' for Active; 'I' for Inactive)
DOCKED: REMARK    1  A    between atoms: C_6  and  C_10 
DOCKED: REMARK    2  A    between atoms: C_10  and  C_11 
DOCKED: REMARK    3  A    between atoms: C_11  and  C_12 
DOCKED: REMARK    4  A    between atoms: C_12  and  O_14 
DOCKED: REMARK    5  A    between atoms: C_17  and  C_20 
DOCKED: REMARK    6  A    between atoms: C_24  and  C_27 
DOCKED: REMARK    7  A    between atoms: C_31  and  C_34 
DOCKED: REMARK    8  A    between atoms: C_34  and  C_35 
DOCKED: REMARK    9  A    between atoms: C_35  and  C_36 
DOCKED: REMARK   10  A    between atoms: C_36  and  O_38 
DOCKED: USER                              x       y       z     vdW  Elec       q    Type
DOCKED: USER                           _______ _______ _______ _____ _____    ______ ____
DOCKED: ROOT
DOCKED: ATOM      1  C   UNL d   1      42.710  27.616  16.901 -0.22 +0.02    +0.064 A 
DOCKED: ATOM      2  C   UNL d   1      40.901  31.982  16.424 -0.41 +0.01    +0.064 A 
DOCKED: ATOM      3  C   UNL d   1      37.564  30.365  13.367 -0.41 +0.01    +0.064 C 
DOCKED: ATOM      4  C   UNL d   1      39.116  25.791  14.220 -0.41 +0.01    +0.064 A 
DOCKED: ATOM      5  C   UNL d   1      42.489  28.935  17.022 -0.13 +0.02    +0.066 A 
DOCKED: ATOM      6  C   UNL d   1      43.266  29.790  17.810 -0.29 -0.01    -0.021 A 
DOCKED: ATOM      7  C   UNL d   1      42.717  31.046  17.707 -0.38 -0.01    -0.025 A 
DOCKED: ATOM      8  C   UNL d   1      41.649  30.934  16.821 -0.36 +0.01    +0.066 A 
DOCKED: ATOM      9  C   UNL d   1      43.200  32.267  18.460 -0.44 +0.01    +0.051 C 
DOCKED: ATOM     10  C   UNL d   1      39.784  31.930  15.480 -0.37 +0.01    +0.066 A 
DOCKED: ATOM     11  C   UNL d   1      39.147  33.070  14.978 -0.42 -0.00    -0.021 A 
DOCKED: ATOM     12  C   UNL d   1      38.193  32.626  14.081 -0.40 +0.00    +0.000 A 
DOCKED: ATOM     13  C   UNL d   1      38.297  31.207  14.097 -0.37 +0.01    +0.070 A 
DOCKED: ATOM     14  C   UNL d   1      39.454  34.524  15.319 -0.55 +0.00    +0.052 C 
DOCKED: ATOM     15  C   UNL d   1      37.613  28.923  13.380 -0.38 +0.01    +0.066 A 
DOCKED: ATOM     16  C   UNL d   1      36.709  28.095  12.716 -0.51 -0.00    -0.021 A 
DOCKED: ATOM     17  C   UNL d   1      37.131  26.786  12.945 -0.47 +0.00    +0.000 A 
DOCKED: ATOM     18  C   UNL d   1      38.278  26.915  13.741 -0.38 +0.01    +0.070 A 
DOCKED: ATOM     19  C   UNL d   1      35.504  28.620  11.976 -0.67 +0.00    +0.052 C 
DOCKED: ATOM     20  C   UNL d   1      40.197  25.876  15.019 -0.39 +0.01    +0.066 A 
DOCKED: ATOM     21  C   UNL d   1      40.958  24.782  15.423 -0.43 -0.00    -0.025 A 
DOCKED: ATOM     22  C   UNL d   1      42.002  25.286  16.165 -0.35 -0.00    -0.021 A 
DOCKED: ATOM     23  C   UNL d   1      41.829  26.673  16.203 -0.34 +0.01    +0.066 A 
DOCKED: ATOM     24  C   UNL d   1      40.699  23.329  15.118 -0.53 +0.00    +0.051 C 
DOCKED: ATOM     25  N   UNL d   1      41.469  29.621  16.450 -0.21 -0.06    -0.248 N 
DOCKED: ATOM     26  N   UNL d   1      39.263  30.792  14.954 -0.19 -0.05    -0.248 N 
DOCKED: ATOM     27  N   UNL d   1      38.512  28.214  14.057 -0.20 -0.05    -0.248 N 
DOCKED: ATOM     28  N   UNL d   1      40.705  27.023  15.543 -0.26 -0.05    -0.248 N 
DOCKED: ATOM     29 FE   UNL d   1      39.987  28.893  15.249 -0.08 +0.00    +0.000 Fe
DOCKED: ATOM     30  O   UNL d   1      39.485  29.388  16.636 -0.68 +0.00    +0.000 OA
DOCKED: ATOM     31  O   UNL d   1      38.879  28.076  16.010 -0.88 +0.00    +0.000 OA
DOCKED: ENDROOT
DOCKED: BRANCH   6  32
DOCKED: ATOM     32  C   UNL d   1      44.397  29.420  18.734 -0.28 +0.02    +0.052 C 
DOCKED: BRANCH  32  33
DOCKED: ATOM     33  C   UNL d   1      44.349  27.960  19.174 -0.22 +0.07    +0.115 C 
DOCKED: BRANCH  33  34
DOCKED: ATOM     34  C   UNL d   1      44.539  27.802  20.663 -0.10 +0.18    +0.139 C 
DOCKED: ATOM     35  O   UNL d   1      43.599  27.452  21.357 -0.48 -1.16    -0.650 OA
DOCKED: BRANCH  34  36
DOCKED: ATOM     36  O   UNL d   1      45.724  28.066  21.252 -0.24 -1.52    -0.776 OA
DOCKED: ATOM     37  H   UNL d   1      46.562  27.945  20.791 +0.02 +0.19    +0.167 HD
DOCKED: ENDBRANCH  34  36
DOCKED: ENDBRANCH  33  34
DOCKED: ENDBRANCH  32  33
DOCKED: ENDBRANCH   6  32
DOCKED: BRANCH  22  38
DOCKED: ATOM     38  C   UNL d   1      43.066  24.469  16.851 -0.33 +0.01    +0.052 C 
DOCKED: BRANCH  38  39
DOCKED: ATOM     39  C   UNL d   1      42.653  24.038  18.257 -0.37 +0.03    +0.115 C 
DOCKED: BRANCH  39  40
DOCKED: ATOM     40  C   UNL d   1      43.836  23.856  19.175 -0.26 +0.05    +0.139 C 
DOCKED: ATOM     41  O   UNL d   1      44.728  23.082  18.868 -0.06 -0.27    -0.650 OA
DOCKED: BRANCH  40  42
DOCKED: ATOM     42  O   UNL d   1      43.954  24.574  20.309 +0.03 -0.40    -0.776 OA
DOCKED: ATOM     43  H   UNL d   1      43.858  25.534  20.311 +0.07 +0.11    +0.167 HD
DOCKED: ENDBRANCH  40  42
DOCKED: ENDBRANCH  39  40
DOCKED: ENDBRANCH  38  39
DOCKED: ENDBRANCH  22  38
DOCKED: BRANCH  12  44
DOCKED: ATOM     44  C   UNL d   1      37.298  33.581  13.320 -0.47 +0.00    +0.004 C 
DOCKED: ATOM     45  C   UNL d   1      36.188  33.297  12.640 -0.58 +0.00    +0.012 C 
DOCKED: ENDBRANCH  12  44
DOCKED: BRANCH  17  46
DOCKED: ATOM     46  C   UNL d   1      36.528  25.468  12.538 -0.65 +0.00    +0.004 C 
DOCKED: ATOM     47  C   UNL d   1      35.916  24.563  13.312 -0.71 +0.00    +0.012 C 
DOCKED: ENDBRANCH  17  46
DOCKED: TORSDOF 10
DOCKED: TER
DOCKED: ENDMDL
________________________________________________________________________________


	BEGINNING GENETIC ALGORITHM DOCKING 24 of 100
Run: 24 Seed: 146830681 1844737033 [ Run 24 of 100 GA/GALS ]
Beginning LAMARCKIAN GENETIC ALGORITHM (LGA), with a maximum of 25000000 energy evaluations.

Final-Value: -18.312


	FINAL GENETIC ALGORITHM DOCKED STATE
	_______________________________________________


Detailed state:  trans 8.354 34.734 -1.139 quatxyzw 0.022455 0.037854 0.009655 0.998984 center 8.287 34.468 -0.670 ntor 10 -156.3145 -116.5956 -23.7437 -53.7829 141.9326 122.1160 -45.0514 -145.0488 179.2728 166.5572
State:	  8.354  34.734  -1.139   0.498  0.840  0.214  5.165   -156.31 -116.60  -23.74  -53.78  141.93  122.12  -45.05 -145.05  179.27  166.56

DOCKED: MODEL       24
DOCKED: USER    Run = 24
DOCKED: USER    DPF = D:/Protein_go_brrr/autodock/final/6BB5/heme_O2/dock.dpf
DOCKED: USER  
DOCKED: USER    Estimated Free Energy of Binding    =  -14.67 kcal/mol  [=(1)+(2)+(3)-(4)]
DOCKED: USER    Estimated Inhibition Constant, Ki   =   17.63 pM (picomolar)  [Temperature = 298.15 K]
DOCKED: USER    
DOCKED: USER    (1) Final Intermolecular Energy     =  -17.65 kcal/mol
DOCKED: USER        vdW + Hbond + desolv Energy     =  -16.53 kcal/mol
DOCKED: USER        Electrostatic Energy            =   -1.12 kcal/mol
DOCKED: USER    (2) Final Total Internal Energy     =   -0.66 kcal/mol
DOCKED: USER    (3) Torsional Free Energy           =   +2.98 kcal/mol
DOCKED: USER    (4) Unbound System's Energy  [=(2)] =   -0.66 kcal/mol
DOCKED: USER    
DOCKED: USER    
DOCKED: USER    NEWDPF move heme_O2_opt.pdbqt
DOCKED: USER    NEWDPF about 8.287000 34.468000 -0.670000
DOCKED: USER    NEWDPF tran0 8.353727 34.734442 -1.138983
DOCKED: USER    NEWDPF quaternion0 0.022455 0.037854 0.009655 0.998984
DOCKED: USER    NEWDPF axisangle0 0.498342 0.840084 0.214273 5.165247
DOCKED: USER    NEWDPF quat0 0.498342 0.840084 0.214273 5.165247
DOCKED: USER    NEWDPF dihe0 -156.31 -116.60 -23.74 -53.78 141.93 122.12 -45.05 -145.05 179.27 166.56 
DOCKED: USER  keepresnum = 1 
DOCKED: USER  
DOCKED: REMARK  10 active torsions:
DOCKED: REMARK  status: ('A' for Active; 'I' for Inactive)
DOCKED: REMARK    1  A    between atoms: C_6  and  C_10 
DOCKED: REMARK    2  A    between atoms: C_10  and  C_11 
DOCKED: REMARK    3  A    between atoms: C_11  and  C_12 
DOCKED: REMARK    4  A    between atoms: C_12  and  O_14 
DOCKED: REMARK    5  A    between atoms: C_17  and  C_20 
DOCKED: REMARK    6  A    between atoms: C_24  and  C_27 
DOCKED: REMARK    7  A    between atoms: C_31  and  C_34 
DOCKED: REMARK    8  A    between atoms: C_34  and  C_35 
DOCKED: REMARK    9  A    between atoms: C_35  and  C_36 
DOCKED: REMARK   10  A    between atoms: C_36  and  O_38 
DOCKED: USER                              x       y       z     vdW  Elec       q    Type
DOCKED: USER                           _______ _______ _______ _____ _____    ______ ____
DOCKED: ROOT
DOCKED: ATOM      1  C   UNL d   1       6.562  35.332  -2.105 -0.25 +0.01    +0.064 A 
DOCKED: ATOM      2  C   UNL d   1       7.398  32.757   1.798 -0.37 +0.01    +0.064 A 
DOCKED: ATOM      3  C   UNL d   1      12.144  33.191   1.180 -0.42 +0.00    +0.064 C 
DOCKED: ATOM      4  C   UNL d   1      11.295  36.243  -2.566 -0.45 +0.00    +0.064 A 
DOCKED: ATOM      5  C   UNL d   1       6.402  34.598  -0.992 -0.27 +0.01    +0.066 A 
DOCKED: ATOM      6  C   UNL d   1       5.159  34.220  -0.475 -0.27 -0.00    -0.021 A 
DOCKED: ATOM      7  C   UNL d   1       5.399  33.511   0.679 -0.33 -0.00    -0.025 A 
DOCKED: ATOM      8  C   UNL d   1       6.783  33.434   0.809 -0.30 +0.01    +0.066 A 
DOCKED: ATOM      9  C   UNL d   1       4.328  32.975   1.603 -0.36 +0.01    +0.051 C 
DOCKED: ATOM     10  C   UNL d   1       8.844  32.621   1.973 -0.34 +0.00    +0.066 A 
DOCKED: ATOM     11  C   UNL d   1       9.428  31.773   2.921 -0.44 -0.00    -0.021 A 
DOCKED: ATOM     12  C   UNL d   1      10.796  31.870   2.746 -0.43 +0.00    +0.000 A 
DOCKED: ATOM     13  C   UNL d   1      10.974  32.803   1.687 -0.36 +0.00    +0.070 A 
DOCKED: ATOM     14  C   UNL d   1       8.710  30.885   3.931 -0.57 +0.00    +0.052 C 
DOCKED: ATOM     15  C   UNL d   1      12.367  34.159   0.133 -0.37 +0.00    +0.066 A 
DOCKED: ATOM     16  C   UNL d   1      13.620  34.644  -0.240 -0.44 -0.00    -0.021 A 
DOCKED: ATOM     17  C   UNL d   1      13.403  35.517  -1.307 -0.46 +0.00    +0.000 A 
DOCKED: ATOM     18  C   UNL d   1      12.015  35.496  -1.508 -0.39 +0.00    +0.070 A 
DOCKED: ATOM     19  C   UNL d   1      14.892  34.279   0.482 -0.60 +0.00    +0.052 C 
DOCKED: ATOM     20  C   UNL d   1       9.962  36.279  -2.760 -0.42 +0.00    +0.066 A 
DOCKED: ATOM     21  C   UNL d   1       9.342  36.987  -3.786 -0.39 +0.00    -0.025 A 
DOCKED: ATOM     22  C   UNL d   1       7.995  36.717  -3.686 -0.30 -0.00    -0.021 A 
DOCKED: ATOM     23  C   UNL d   1       7.841  35.866  -2.588 -0.33 +0.00    +0.066 A 
DOCKED: ATOM     24  C   UNL d   1      10.000  37.878  -4.807 -0.47 -0.01    +0.051 C 
DOCKED: ATOM     25  N   UNL d   1       7.399  34.159  -0.185 -0.13 -0.04    -0.248 N 
DOCKED: ATOM     26  N   UNL d   1       9.781  33.258   1.226 -0.09 -0.03    -0.248 N 
DOCKED: ATOM     27  N   UNL d   1      11.396  34.725  -0.578 -0.18 -0.03    -0.248 N 
DOCKED: ATOM     28  N   UNL d   1       9.034  35.638  -2.000 -0.25 -0.03    -0.248 N 
DOCKED: ATOM     29 FE   UNL d   1       9.408  34.458  -0.399 +0.08 +0.00    +0.000 Fe
DOCKED: ATOM     30  O   UNL d   1       8.792  35.186   0.831 -0.95 +0.00    +0.000 OA
DOCKED: ATOM     31  O   UNL d   1       9.889  35.910  -0.037 -1.08 +0.00    +0.000 OA
DOCKED: ENDROOT
DOCKED: BRANCH   6  32
DOCKED: ATOM     32  C   UNL d   1       3.794  34.625  -0.967 -0.21 +0.01    +0.052 C 
DOCKED: BRANCH  32  33
DOCKED: ATOM     33  C   UNL d   1       3.208  35.799  -0.189 -0.20 +0.05    +0.115 C 
DOCKED: BRANCH  33  34
DOCKED: ATOM     34  C   UNL d   1       2.641  36.863  -1.095 -0.18 +0.09    +0.139 C 
DOCKED: ATOM     35  O   UNL d   1       2.835  36.798  -2.299 +0.02 -0.26    -0.650 OA
DOCKED: BRANCH  34  36
DOCKED: ATOM     36  O   UNL d   1       1.944  37.908  -0.603 -0.42 -1.29    -0.776 OA
DOCKED: ATOM     37  H   UNL d   1       1.305  38.394  -1.137 +0.02 +0.27    +0.167 HD
DOCKED: ENDBRANCH  34  36
DOCKED: ENDBRANCH  33  34
DOCKED: ENDBRANCH  32  33
DOCKED: ENDBRANCH   6  32
DOCKED: BRANCH  22  38
DOCKED: ATOM     38  C   UNL d   1       6.916  37.300  -4.561 -0.24 +0.00    +0.052 C 
DOCKED: BRANCH  38  39
DOCKED: ATOM     39  C   UNL d   1       6.327  38.584  -3.982 -0.19 +0.01    +0.115 C 
DOCKED: BRANCH  39  40
DOCKED: ATOM     40  C   UNL d   1       7.351  39.402  -3.235 -0.34 -0.00    +0.139 C 
DOCKED: ATOM     41  O   UNL d   1       7.479  39.259  -2.030 -0.02 -0.00    -0.650 OA
DOCKED: BRANCH  40  42
DOCKED: ATOM     42  O   UNL d   1       8.168  40.255  -3.883 +0.01 +0.15    -0.776 OA
DOCKED: ATOM     43  H   UNL d   1       9.120  40.107  -3.926 -0.35 -0.07    +0.167 HD
DOCKED: ENDBRANCH  40  42
DOCKED: ENDBRANCH  39  40
DOCKED: ENDBRANCH  38  39
DOCKED: ENDBRANCH  22  38
DOCKED: BRANCH  12  44
DOCKED: ATOM     44  C   UNL d   1      11.773  31.082   3.594 -0.53 +0.00    +0.004 C 
DOCKED: ATOM     45  C   UNL d   1      12.994  30.664   3.262 -0.65 +0.00    +0.012 C 
DOCKED: ENDBRANCH  12  44
DOCKED: BRANCH  17  46
DOCKED: ATOM     46  C   UNL d   1      14.357  36.383  -2.085 -0.64 +0.00    +0.004 C 
DOCKED: ATOM     47  C   UNL d   1      15.135  37.374  -1.632 -0.66 +0.00    +0.012 C 
DOCKED: ENDBRANCH  17  46
DOCKED: TORSDOF 10
DOCKED: TER
DOCKED: ENDMDL
________________________________________________________________________________


	BEGINNING GENETIC ALGORITHM DOCKING 25 of 100
Run: 25 Seed: 436030266 1539781424 [ Run 25 of 100 GA/GALS ]
Beginning LAMARCKIAN GENETIC ALGORITHM (LGA), with a maximum of 25000000 energy evaluations.

Final-Value: -10.771


	FINAL GENETIC ALGORITHM DOCKED STATE
	_______________________________________________


Detailed state:  trans 42.051 48.777 4.707 quatxyzw 0.920147 -0.214322 0.024456 0.326800 center 8.287 34.468 -0.670 ntor 10 -176.7787 -35.2348 -41.7076 35.0178 11.1995 -67.0349 -114.9956 63.4277 -179.6648 -156.3755
State:	 42.051  48.777   4.707   0.974 -0.227  0.026 141.851   -176.78  -35.23  -41.71   35.02   11.20  -67.03 -115.00   63.43 -179.66 -156.38

DOCKED: MODEL       25
DOCKED: USER    Run = 25
DOCKED: USER    DPF = D:/Protein_go_brrr/autodock/final/6BB5/heme_O2/dock.dpf
DOCKED: USER  
DOCKED: USER    Estimated Free Energy of Binding    =   -7.03 kcal/mol  [=(1)+(2)+(3)-(4)]
DOCKED: USER    Estimated Inhibition Constant, Ki   =    6.99 uM (micromolar)  [Temperature = 298.15 K]
DOCKED: USER    
DOCKED: USER    (1) Final Intermolecular Energy     =  -10.02 kcal/mol
DOCKED: USER        vdW + Hbond + desolv Energy     =   -7.33 kcal/mol
DOCKED: USER        Electrostatic Energy            =   -2.68 kcal/mol
DOCKED: USER    (2) Final Total Internal Energy     =   -0.76 kcal/mol
DOCKED: USER    (3) Torsional Free Energy           =   +2.98 kcal/mol
DOCKED: USER    (4) Unbound System's Energy  [=(2)] =   -0.76 kcal/mol
DOCKED: USER    
DOCKED: USER    
DOCKED: USER    NEWDPF move heme_O2_opt.pdbqt
DOCKED: USER    NEWDPF about 8.287000 34.468000 -0.670000
DOCKED: USER    NEWDPF tran0 42.050913 48.777114 4.706990
DOCKED: USER    NEWDPF quaternion0 0.920147 -0.214322 0.024456 0.326800
DOCKED: USER    NEWDPF axisangle0 0.973604 -0.226774 0.025877 141.850709
DOCKED: USER    NEWDPF quat0 0.973604 -0.226774 0.025877 141.850709
DOCKED: USER    NEWDPF dihe0 -176.78 -35.23 -41.71 35.02 11.20 -67.03 -115.00 63.43 -179.66 -156.38 
DOCKED: USER  keepresnum = 1 
DOCKED: USER  
DOCKED: REMARK  10 active torsions:
DOCKED: REMARK  status: ('A' for Active; 'I' for Inactive)
DOCKED: REMARK    1  A    between atoms: C_6  and  C_10 
DOCKED: REMARK    2  A    between atoms: C_10  and  C_11 
DOCKED: REMARK    3  A    between atoms: C_11  and  C_12 
DOCKED: REMARK    4  A    between atoms: C_12  and  O_14 
DOCKED: REMARK    5  A    between atoms: C_17  and  C_20 
DOCKED: REMARK    6  A    between atoms: C_24  and  C_27 
DOCKED: REMARK    7  A    between atoms: C_31  and  C_34 
DOCKED: REMARK    8  A    between atoms: C_34  and  C_35 
DOCKED: REMARK    9  A    between atoms: C_35  and  C_36 
DOCKED: REMARK   10  A    between atoms: C_36  and  O_38 
DOCKED: USER                              x       y       z     vdW  Elec       q    Type
DOCKED: USER                           _______ _______ _______ _____ _____    ______ ____
DOCKED: ROOT
DOCKED: ATOM      1  C   UNL d   1      39.979  48.654   5.145 -0.27 +0.00    +0.064 A 
DOCKED: ATOM      2  C   UNL d   1      42.763  52.256   3.791 -0.05 -0.00    +0.064 A 
DOCKED: ATOM      3  C   UNL d   1      46.616  49.384   3.750 -0.09 -0.02    +0.064 C 
DOCKED: ATOM      4  C   UNL d   1      43.679  45.566   4.679 -0.29 -0.01    +0.064 A 
DOCKED: ATOM      5  C   UNL d   1      40.421  49.867   4.778 -0.20 -0.00    +0.066 A 
DOCKED: ATOM      6  C   UNL d   1      39.610  51.002   4.688 -0.20 -0.01    -0.021 A 
DOCKED: ATOM      7  C   UNL d   1      40.406  52.036   4.254 -0.12 -0.00    -0.025 A 
DOCKED: ATOM      8  C   UNL d   1      41.692  51.516   4.138 -0.10 -0.00    +0.066 A 
DOCKED: ATOM      9  C   UNL d   1      39.918  53.435   3.947 -0.08 +0.02    +0.051 C 
DOCKED: ATOM     10  C   UNL d   1      44.139  51.772   3.674 -0.04 -0.01    +0.066 A 
DOCKED: ATOM     11  C   UNL d   1      45.237  52.615   3.471 -0.02 +0.00    -0.021 A 
DOCKED: ATOM     12  C   UNL d   1      46.359  51.808   3.474 -0.02 -0.00    +0.000 A 
DOCKED: ATOM     13  C   UNL d   1      45.870  50.486   3.672 -0.05 -0.01    +0.070 A 
DOCKED: ATOM     14  C   UNL d   1      45.219  54.130   3.308 -0.01 -0.00    +0.052 C 
DOCKED: ATOM     15  C   UNL d   1      46.157  48.026   3.914 -0.14 -0.03    +0.066 A 
DOCKED: ATOM     16  C   UNL d   1      46.975  46.899   3.824 -0.17 +0.01    -0.021 A 
DOCKED: ATOM     17  C   UNL d   1      46.159  45.799   4.085 -0.27 -0.00    +0.000 A 
DOCKED: ATOM     18  C   UNL d   1      44.888  46.344   4.319 -0.23 -0.03    +0.070 A 
DOCKED: ATOM     19  C   UNL d   1      48.433  46.969   3.447 -0.10 -0.02    +0.052 C 
DOCKED: ATOM     20  C   UNL d   1      42.437  46.052   4.868 -0.30 -0.01    +0.066 A 
DOCKED: ATOM     21  C   UNL d   1      41.340  45.273   5.223 -0.38 -0.00    -0.025 A 
DOCKED: ATOM     22  C   UNL d   1      40.283  46.139   5.387 -0.32 -0.00    -0.021 A 
DOCKED: ATOM     23  C   UNL d   1      40.771  47.419   5.106 -0.25 -0.00    +0.066 A 
DOCKED: ATOM     24  C   UNL d   1      41.301  43.776   5.395 -0.38 +0.01    +0.051 C 
DOCKED: ATOM     25  N   UNL d   1      41.688  50.165   4.397 -0.13 +0.04    -0.248 N 
DOCKED: ATOM     26  N   UNL d   1      44.518  50.473   3.787 -0.06 +0.05    -0.248 N 
DOCKED: ATOM     27  N   UNL d   1      44.890  47.689   4.137 +0.10 +0.12    -0.248 N 
DOCKED: ATOM     28  N   UNL d   1      42.070  47.356   4.747 -0.07 +0.05    -0.248 N 
DOCKED: ATOM     29 FE   UNL d   1      43.287  48.901   4.270 -0.04 -0.00    +0.000 Fe
DOCKED: ATOM     30  O   UNL d   1      42.796  49.433   2.893 -0.08 -0.00    +0.000 OA
DOCKED: ATOM     31  O   UNL d   1      43.250  47.931   3.033 -0.12 -0.00    +0.000 OA
DOCKED: ENDROOT
DOCKED: BRANCH   6  32
DOCKED: ATOM     32  C   UNL d   1      38.116  51.085   4.868 -0.27 +0.04    +0.052 C 
DOCKED: BRANCH  32  33
DOCKED: ATOM     33  C   UNL d   1      37.355  51.017   3.548 +0.01 +0.06    +0.115 C 
DOCKED: BRANCH  33  34
DOCKED: ATOM     34  C   UNL d   1      37.563  49.705   2.832 -0.14 +0.12    +0.139 C 
DOCKED: ATOM     35  O   UNL d   1      37.706  49.696   1.619 +0.01 -0.36    -0.650 OA
DOCKED: BRANCH  34  36
DOCKED: ATOM     36  O   UNL d   1      37.568  48.533   3.499 -0.38 -1.27    -0.776 OA
DOCKED: ATOM     37  H   UNL d   1      37.749  47.695   3.057 +0.03 +0.24    +0.167 HD
DOCKED: ENDBRANCH  34  36
DOCKED: ENDBRANCH  33  34
DOCKED: ENDBRANCH  32  33
DOCKED: ENDBRANCH   6  32
DOCKED: BRANCH  22  38
DOCKED: ATOM     38  C   UNL d   1      38.869  45.746   5.731 -0.38 +0.02    +0.052 C 
DOCKED: BRANCH  38  39
DOCKED: ATOM     39  C   UNL d   1      38.301  44.711   4.762 -0.27 +0.05    +0.115 C 
DOCKED: BRANCH  39  40
DOCKED: ATOM     40  C   UNL d   1      37.101  45.225   4.007 -0.14 +0.15    +0.139 C 
DOCKED: ATOM     41  O   UNL d   1      37.258  45.988   3.068 +0.01 -0.85    -0.650 OA
DOCKED: BRANCH  40  42
DOCKED: ATOM     42  O   UNL d   1      35.856  44.817   4.319 -0.42 -1.04    -0.776 OA
DOCKED: ATOM     43  H   UNL d   1      35.685  43.927   4.650 -0.46 +0.04    +0.167 HD
DOCKED: ENDBRANCH  40  42
DOCKED: ENDBRANCH  39  40
DOCKED: ENDBRANCH  38  39
DOCKED: ENDBRANCH  22  38
DOCKED: BRANCH  12  44
DOCKED: ATOM     44  C   UNL d   1      47.754  52.369   3.289 -0.01 -0.00    +0.004 C 
DOCKED: ATOM     45  C   UNL d   1      48.849  52.091   3.996 -0.01 -0.00    +0.012 C 
DOCKED: ENDBRANCH  12  44
DOCKED: BRANCH  17  46
DOCKED: ATOM     46  C   UNL d   1      46.457  44.323   4.073 -0.18 -0.00    +0.004 C 
DOCKED: ATOM     47  C   UNL d   1      47.623  43.711   4.316 -0.29 -0.01    +0.012 C 
DOCKED: ENDBRANCH  17  46
DOCKED: TORSDOF 10
DOCKED: TER
DOCKED: ENDMDL
________________________________________________________________________________


	BEGINNING GENETIC ALGORITHM DOCKING 26 of 100
Run: 26 Seed: 1419657040 1581013 [ Run 26 of 100 GA/GALS ]
Beginning LAMARCKIAN GENETIC ALGORITHM (LGA), with a maximum of 25000000 energy evaluations.

Final-Value: -19.929


	FINAL GENETIC ALGORITHM DOCKED STATE
	_______________________________________________


Detailed state:  trans 8.299 34.694 -0.926 quatxyzw 0.013841 0.023059 0.011980 0.999566 center 8.287 34.468 -0.670 ntor 10 106.6850 180.0000 -24.5438 -57.6203 -160.0608 -5.4465 -50.4539 90.0039 176.8824 -180.0000
State:	  8.299  34.694  -0.926   0.470  0.783  0.407  3.374    106.69  180.00  -24.54  -57.62 -160.06   -5.45  -50.45   90.00  176.88 -180.00

DOCKED: MODEL       26
DOCKED: USER    Run = 26
DOCKED: USER    DPF = D:/Protein_go_brrr/autodock/final/6BB5/heme_O2/dock.dpf
DOCKED: USER  
DOCKED: USER    Estimated Free Energy of Binding    =  -14.45 kcal/mol  [=(1)+(2)+(3)-(4)]
DOCKED: USER    Estimated Inhibition Constant, Ki   =   25.69 pM (picomolar)  [Temperature = 298.15 K]
DOCKED: USER    
DOCKED: USER    (1) Final Intermolecular Energy     =  -17.43 kcal/mol
DOCKED: USER        vdW + Hbond + desolv Energy     =  -15.93 kcal/mol
DOCKED: USER        Electrostatic Energy            =   -1.51 kcal/mol
DOCKED: USER    (2) Final Total Internal Energy     =   -2.50 kcal/mol
DOCKED: USER    (3) Torsional Free Energy           =   +2.98 kcal/mol
DOCKED: USER    (4) Unbound System's Energy  [=(2)] =   -2.50 kcal/mol
DOCKED: USER    
DOCKED: USER    
DOCKED: USER    NEWDPF move heme_O2_opt.pdbqt
DOCKED: USER    NEWDPF about 8.287000 34.468000 -0.670000
DOCKED: USER    NEWDPF tran0 8.298567 34.694277 -0.925704
DOCKED: USER    NEWDPF quaternion0 0.013841 0.023059 0.011980 0.999566
DOCKED: USER    NEWDPF axisangle0 0.470113 0.783207 0.406916 3.374278
DOCKED: USER    NEWDPF quat0 0.470113 0.783207 0.406916 3.374278
DOCKED: USER    NEWDPF dihe0 106.69 180.00 -24.54 -57.62 -160.06 -5.45 -50.45 90.00 176.88 -180.00 
DOCKED: USER  keepresnum = 1 
DOCKED: USER  
DOCKED: REMARK  10 active torsions:
DOCKED: REMARK  status: ('A' for Active; 'I' for Inactive)
DOCKED: REMARK    1  A    between atoms: C_6  and  C_10 
DOCKED: REMARK    2  A    between atoms: C_10  and  C_11 
DOCKED: REMARK    3  A    between atoms: C_11  and  C_12 
DOCKED: REMARK    4  A    between atoms: C_12  and  O_14 
DOCKED: REMARK    5  A    between atoms: C_17  and  C_20 
DOCKED: REMARK    6  A    between atoms: C_24  and  C_27 
DOCKED: REMARK    7  A    between atoms: C_31  and  C_34 
DOCKED: REMARK    8  A    between atoms: C_34  and  C_35 
DOCKED: REMARK    9  A    between atoms: C_35  and  C_36 
DOCKED: REMARK   10  A    between atoms: C_36  and  O_38 
DOCKED: USER                              x       y       z     vdW  Elec       q    Type
DOCKED: USER                           _______ _______ _______ _____ _____    ______ ____
DOCKED: ROOT
DOCKED: ATOM      1  C   UNL d   1       6.483  35.317  -1.828 -0.18 +0.01    +0.064 A 
DOCKED: ATOM      2  C   UNL d   1       7.419  32.669   2.002 -0.38 +0.00    +0.064 A 
DOCKED: ATOM      3  C   UNL d   1      12.147  33.094   1.254 -0.42 +0.00    +0.064 C 
DOCKED: ATOM      4  C   UNL d   1      11.204  36.215  -2.412 -0.44 +0.00    +0.064 A 
DOCKED: ATOM      5  C   UNL d   1       6.352  34.564  -0.724 -0.25 +0.01    +0.066 A 
DOCKED: ATOM      6  C   UNL d   1       5.123  34.182  -0.178 -0.28 -0.00    -0.021 A 
DOCKED: ATOM      7  C   UNL d   1       5.392  33.452   0.956 -0.34 -0.00    -0.025 A 
DOCKED: ATOM      8  C   UNL d   1       6.779  33.366   1.044 -0.35 +0.01    +0.066 A 
DOCKED: ATOM      9  C   UNL d   1       4.346  32.904   1.902 -0.39 +0.00    +0.051 C 
DOCKED: ATOM     10  C   UNL d   1       8.870  32.524   2.133 -0.37 +0.00    +0.066 A 
DOCKED: ATOM     11  C   UNL d   1       9.477  31.656   3.048 -0.45 -0.00    -0.021 A 
DOCKED: ATOM     12  C   UNL d   1      10.840  31.751   2.835 -0.43 +0.00    +0.000 A 
DOCKED: ATOM     13  C   UNL d   1      10.991  32.701   1.788 -0.36 +0.00    +0.070 A 
DOCKED: ATOM     14  C   UNL d   1       8.785  30.754   4.063 -0.58 +0.00    +0.052 C 
DOCKED: ATOM     15  C   UNL d   1      12.345  34.078   0.218 -0.37 +0.00    +0.066 A 
DOCKED: ATOM     16  C   UNL d   1      13.588  34.565  -0.184 -0.44 -0.00    -0.021 A 
DOCKED: ATOM     17  C   UNL d   1      13.344  35.458  -1.228 -0.46 +0.00    +0.000 A 
DOCKED: ATOM     18  C   UNL d   1      11.952  35.446  -1.388 -0.39 +0.00    +0.070 A 
DOCKED: ATOM     19  C   UNL d   1      14.880  34.182   0.494 -0.60 +0.00    +0.052 C 
DOCKED: ATOM     20  C   UNL d   1       9.866  36.260  -2.566 -0.41 +0.00    +0.066 A 
DOCKED: ATOM     21  C   UNL d   1       9.220  36.989  -3.560 -0.40 +0.00    -0.025 A 
DOCKED: ATOM     22  C   UNL d   1       7.875  36.723  -3.426 -0.32 -0.00    -0.021 A 
DOCKED: ATOM     23  C   UNL d   1       7.749  35.853  -2.339 -0.32 +0.01    +0.066 A 
DOCKED: ATOM     24  C   UNL d   1       9.852  37.895  -4.584 -0.49 -0.01    +0.051 C 
DOCKED: ATOM     25  N   UNL d   1       7.369  34.106   0.046 -0.18 -0.04    -0.248 N 
DOCKED: ATOM     26  N   UNL d   1       9.787  33.170   1.370 -0.15 -0.02    -0.248 N 
DOCKED: ATOM     27  N   UNL d   1      11.356  34.662  -0.454 -0.18 -0.03    -0.248 N 
DOCKED: ATOM     28  N   UNL d   1       8.958  35.610  -1.791 -0.23 -0.04    -0.248 N 
DOCKED: ATOM     29 FE   UNL d   1       9.372  34.400  -0.222 +0.02 +0.00    +0.000 Fe
DOCKED: ATOM     30  O   UNL d   1       8.797  35.109   1.038 -0.81 +0.00    +0.000 OA
DOCKED: ATOM     31  O   UNL d   1       9.871  35.844   0.151 -1.06 +0.00    +0.000 OA
DOCKED: ENDROOT
DOCKED: BRANCH   6  32
DOCKED: ATOM     32  C   UNL d   1       3.745  34.601  -0.622 -0.23 +0.01    +0.052 C 
DOCKED: BRANCH  32  33
DOCKED: ATOM     33  C   UNL d   1       3.164  35.725   0.230 -0.13 +0.06    +0.115 C 
DOCKED: BRANCH  33  34
DOCKED: ATOM     34  C   UNL d   1       2.690  36.892  -0.601 -0.16 +0.11    +0.139 C 
DOCKED: ATOM     35  O   UNL d   1       1.972  36.692  -1.567 -0.02 -0.38    -0.650 OA
DOCKED: BRANCH  34  36
DOCKED: ATOM     36  O   UNL d   1       3.066  38.156  -0.318 -0.35 -1.12    -0.776 OA
DOCKED: ATOM     37  H   UNL d   1       3.702  38.634  -0.862 +0.04 +0.16    +0.167 HD
DOCKED: ENDBRANCH  34  36
DOCKED: ENDBRANCH  33  34
DOCKED: ENDBRANCH  32  33
DOCKED: ENDBRANCH   6  32
DOCKED: BRANCH  22  38
DOCKED: ATOM     38  C   UNL d   1       6.774  37.326  -4.259 -0.24 +0.00    +0.052 C 
DOCKED: BRANCH  38  39
DOCKED: ATOM     39  C   UNL d   1       6.434  38.752  -3.830 -0.21 +0.01    +0.115 C 
DOCKED: BRANCH  39  40
DOCKED: ATOM     40  C   UNL d   1       5.339  38.797  -2.793 -0.20 +0.03    +0.139 C 
DOCKED: ATOM     41  O   UNL d   1       5.422  39.576  -1.858 -0.03 -0.16    -0.650 OA
DOCKED: BRANCH  40  42
DOCKED: ATOM     42  O   UNL d   1       4.241  38.025  -2.907 +0.06 -0.22    -0.776 OA
DOCKED: ATOM     43  H   UNL d   1       3.519  38.077  -2.270 +0.04 +0.08    +0.167 HD
DOCKED: ENDBRANCH  40  42
DOCKED: ENDBRANCH  39  40
DOCKED: ENDBRANCH  38  39
DOCKED: ENDBRANCH  22  38
DOCKED: BRANCH  12  44
DOCKED: ATOM     44  C   UNL d   1      11.837  30.944   3.640 -0.55 +0.00    +0.004 C 
DOCKED: ATOM     45  C   UNL d   1      13.040  30.514   3.259 -0.66 +0.00    +0.012 C 
DOCKED: ENDBRANCH  12  44
DOCKED: BRANCH  17  46
DOCKED: ATOM     46  C   UNL d   1      14.280  36.333  -2.019 -0.63 +0.00    +0.004 C 
DOCKED: ATOM     47  C   UNL d   1      15.023  37.357  -1.583 -0.66 +0.00    +0.012 C 
DOCKED: ENDBRANCH  17  46
DOCKED: TORSDOF 10
DOCKED: TER
DOCKED: ENDMDL
________________________________________________________________________________


	BEGINNING GENETIC ALGORITHM DOCKING 27 of 100
Run: 27 Seed: 1359225072 659743880 [ Run 27 of 100 GA/GALS ]
Beginning LAMARCKIAN GENETIC ALGORITHM (LGA), with a maximum of 25000000 energy evaluations.

Final-Value: -20.491


	FINAL GENETIC ALGORITHM DOCKED STATE
	_______________________________________________


Detailed state:  trans 41.028 28.160 15.650 quatxyzw -0.315405 0.357303 0.875784 -0.076531 center 8.287 34.468 -0.670 ntor 10 53.6396 151.8141 4.1672 -106.7244 -141.6874 -57.7571 -27.2887 85.1842 178.5993 177.3049
State:	 41.028  28.160  15.650  -0.316  0.358  0.878 -171.222     53.64  151.81    4.17 -106.72 -141.69  -57.76  -27.29   85.18  178.60  177.30

DOCKED: MODEL       27
DOCKED: USER    Run = 27
DOCKED: USER    DPF = D:/Protein_go_brrr/autodock/final/6BB5/heme_O2/dock.dpf
DOCKED: USER  
DOCKED: USER    Estimated Free Energy of Binding    =  -15.34 kcal/mol  [=(1)+(2)+(3)-(4)]
DOCKED: USER    Estimated Inhibition Constant, Ki   =    5.69 pM (picomolar)  [Temperature = 298.15 K]
DOCKED: USER    
DOCKED: USER    (1) Final Intermolecular Energy     =  -18.32 kcal/mol
DOCKED: USER        vdW + Hbond + desolv Energy     =  -16.30 kcal/mol
DOCKED: USER        Electrostatic Energy            =   -2.03 kcal/mol
DOCKED: USER    (2) Final Total Internal Energy     =   -2.17 kcal/mol
DOCKED: USER    (3) Torsional Free Energy           =   +2.98 kcal/mol
DOCKED: USER    (4) Unbound System's Energy  [=(2)] =   -2.17 kcal/mol
DOCKED: USER    
DOCKED: USER    
DOCKED: USER    NEWDPF move heme_O2_opt.pdbqt
DOCKED: USER    NEWDPF about 8.287000 34.468000 -0.670000
DOCKED: USER    NEWDPF tran0 41.027823 28.159839 15.649913
DOCKED: USER    NEWDPF quaternion0 -0.315405 0.357303 0.875784 -0.076531
DOCKED: USER    NEWDPF axisangle0 -0.316333 0.358354 0.878360 -171.221573
DOCKED: USER    NEWDPF quat0 -0.316333 0.358354 0.878360 -171.221573
DOCKED: USER    NEWDPF dihe0 53.64 151.81 4.17 -106.72 -141.69 -57.76 -27.29 85.18 178.60 177.30 
DOCKED: USER  keepresnum = 1 
DOCKED: USER  
DOCKED: REMARK  10 active torsions:
DOCKED: REMARK  status: ('A' for Active; 'I' for Inactive)
DOCKED: REMARK    1  A    between atoms: C_6  and  C_10 
DOCKED: REMARK    2  A    between atoms: C_10  and  C_11 
DOCKED: REMARK    3  A    between atoms: C_11  and  C_12 
DOCKED: REMARK    4  A    between atoms: C_12  and  O_14 
DOCKED: REMARK    5  A    between atoms: C_17  and  C_20 
DOCKED: REMARK    6  A    between atoms: C_24  and  C_27 
DOCKED: REMARK    7  A    between atoms: C_31  and  C_34 
DOCKED: REMARK    8  A    between atoms: C_34  and  C_35 
DOCKED: REMARK    9  A    between atoms: C_35  and  C_36 
DOCKED: REMARK   10  A    between atoms: C_36  and  O_38 
DOCKED: USER                              x       y       z     vdW  Elec       q    Type
DOCKED: USER                           _______ _______ _______ _____ _____    ______ ____
DOCKED: ROOT
DOCKED: ATOM      1  C   UNL d   1      42.686  27.350  16.696 -0.27 +0.02    +0.064 A 
DOCKED: ATOM      2  C   UNL d   1      40.893  31.741  16.431 -0.40 +0.01    +0.064 A 
DOCKED: ATOM      3  C   UNL d   1      37.474  30.260  13.396 -0.35 +0.01    +0.064 C 
DOCKED: ATOM      4  C   UNL d   1      39.017  25.648  14.035 -0.42 +0.01    +0.064 A 
DOCKED: ATOM      5  C   UNL d   1      42.476  28.665  16.873 -0.22 +0.02    +0.066 A 
DOCKED: ATOM      6  C   UNL d   1      43.277  29.484  17.674 -0.26 -0.01    -0.021 A 
DOCKED: ATOM      7  C   UNL d   1      42.733  30.747  17.632 -0.36 -0.01    -0.025 A 
DOCKED: ATOM      8  C   UNL d   1      41.644  30.674  16.769 -0.34 +0.01    +0.066 A 
DOCKED: ATOM      9  C   UNL d   1      43.242  31.935  18.420 -0.42 +0.01    +0.051 C 
DOCKED: ATOM     10  C   UNL d   1      39.753  31.731  15.513 -0.36 +0.01    +0.066 A 
DOCKED: ATOM     11  C   UNL d   1      39.112  32.893  15.070 -0.41 -0.00    -0.021 A 
DOCKED: ATOM     12  C   UNL d   1      38.134  32.488  14.180 -0.40 +0.00    +0.000 A 
DOCKED: ATOM     13  C   UNL d   1      38.229  31.069  14.139 -0.36 +0.01    +0.070 A 
DOCKED: ATOM     14  C   UNL d   1      39.436  34.331  15.459 -0.54 +0.00    +0.052 C 
DOCKED: ATOM     15  C   UNL d   1      37.514  28.819  13.352 -0.39 +0.01    +0.066 A 
DOCKED: ATOM     16  C   UNL d   1      36.589  28.022  12.679 -0.52 -0.00    -0.021 A 
DOCKED: ATOM     17  C   UNL d   1      37.008  26.702  12.848 -0.48 +0.00    +0.000 A 
DOCKED: ATOM     18  C   UNL d   1      38.175  26.794  13.620 -0.38 +0.01    +0.070 A 
DOCKED: ATOM     19  C   UNL d   1      35.370  28.580  11.989 -0.67 +0.00    +0.052 C 
DOCKED: ATOM     20  C   UNL d   1      40.117  25.697  14.811 -0.40 +0.01    +0.066 A 
DOCKED: ATOM     21  C   UNL d   1      40.881  24.584  15.154 -0.46 -0.00    -0.025 A 
DOCKED: ATOM     22  C   UNL d   1      41.946  25.054  15.889 -0.34 -0.00    -0.021 A 
DOCKED: ATOM     23  C   UNL d   1      41.782  26.439  15.984 -0.35 +0.01    +0.066 A 
DOCKED: ATOM     24  C   UNL d   1      40.606  23.146  14.800 -0.46 +0.01    +0.051 C 
DOCKED: ATOM     25  N   UNL d   1      41.447  29.378  16.353 -0.21 -0.06    -0.248 N 
DOCKED: ATOM     26  N   UNL d   1      39.213  30.617  14.956 -0.16 -0.05    -0.248 N 
DOCKED: ATOM     27  N   UNL d   1      38.425  28.079  13.980 -0.21 -0.05    -0.248 N 
DOCKED: ATOM     28  N   UNL d   1      40.645  26.820  15.365 -0.27 -0.05    -0.248 N 
DOCKED: ATOM     29 FE   UNL d   1      39.932  28.703  15.161 -0.06 +0.00    +0.000 Fe
DOCKED: ATOM     30  O   UNL d   1      39.466  29.148  16.578 -0.76 +0.00    +0.000 OA
DOCKED: ATOM     31  O   UNL d   1      38.838  27.864  15.916 -0.80 +0.00    +0.000 OA
DOCKED: ENDROOT
DOCKED: BRANCH   6  32
DOCKED: ATOM     32  C   UNL d   1      44.427  29.073  18.556 -0.27 +0.02    +0.052 C 
DOCKED: BRANCH  32  33
DOCKED: ATOM     33  C   UNL d   1      44.023  28.901  20.016 -0.04 +0.09    +0.115 C 
DOCKED: BRANCH  33  34
DOCKED: ATOM     34  C   UNL d   1      44.866  27.874  20.730 -0.06 +0.19    +0.139 C 
DOCKED: ATOM     35  O   UNL d   1      46.049  28.098  20.930 -0.39 -0.93    -0.650 OA
DOCKED: BRANCH  34  36
DOCKED: ATOM     36  O   UNL d   1      44.348  26.694  21.131 -0.09 -1.09    -0.776 OA
DOCKED: ATOM     37  H   UNL d   1      43.887  26.106  20.522 +0.06 +0.14    +0.167 HD
DOCKED: ENDBRANCH  34  36
DOCKED: ENDBRANCH  33  34
DOCKED: ENDBRANCH  32  33
DOCKED: ENDBRANCH   6  32
DOCKED: BRANCH  22  38
DOCKED: ATOM     38  C   UNL d   1      43.021  24.206  16.518 -0.30 +0.01    +0.052 C 
DOCKED: BRANCH  38  39
DOCKED: ATOM     39  C   UNL d   1      42.575  23.587  17.841 -0.39 +0.03    +0.115 C 
DOCKED: BRANCH  39  40
DOCKED: ATOM     40  C   UNL d   1      43.014  24.400  19.034 -0.34 +0.05    +0.139 C 
DOCKED: ATOM     41  O   UNL d   1      42.316  25.317  19.432 -0.05 -0.20    -0.650 OA
DOCKED: BRANCH  40  42
DOCKED: ATOM     42  O   UNL d   1      44.144  24.098  19.703 +0.00 -0.34    -0.776 OA
DOCKED: ATOM     43  H   UNL d   1      44.627  24.766  20.204 +0.06 +0.09    +0.167 HD
DOCKED: ENDBRANCH  40  42
DOCKED: ENDBRANCH  39  40
DOCKED: ENDBRANCH  38  39
DOCKED: ENDBRANCH  22  38
DOCKED: BRANCH  12  44
DOCKED: ATOM     44  C   UNL d   1      37.227  33.477  13.478 -0.49 +0.00    +0.004 C 
DOCKED: ATOM     45  C   UNL d   1      36.256  33.218  12.603 -0.58 +0.00    +0.012 C 
DOCKED: ENDBRANCH  12  44
DOCKED: BRANCH  17  46
DOCKED: ATOM     46  C   UNL d   1      36.388  25.404  12.405 -0.65 +0.00    +0.004 C 
DOCKED: ATOM     47  C   UNL d   1      35.872  24.430  13.167 -0.73 +0.00    +0.012 C 
DOCKED: ENDBRANCH  17  46
DOCKED: TORSDOF 10
DOCKED: TER
DOCKED: ENDMDL
________________________________________________________________________________


	BEGINNING GENETIC ALGORITHM DOCKING 28 of 100
Run: 28 Seed: 1594192305 1768364163 [ Run 28 of 100 GA/GALS ]
Beginning LAMARCKIAN GENETIC ALGORITHM (LGA), with a maximum of 25000000 energy evaluations.

Final-Value: -20.180


	FINAL GENETIC ALGORITHM DOCKED STATE
	_______________________________________________


Detailed state:  trans 41.230 28.310 15.749 quatxyzw 0.299271 -0.369112 -0.877679 0.062233 center 8.287 34.468 -0.670 ntor 10 -113.1190 0.2268 -7.4540 -102.0295 56.1941 -179.5638 -60.2063 30.5223 169.3412 133.3243
State:	 41.230  28.310  15.749   0.300 -0.370 -0.879 172.864   -113.12    0.23   -7.45 -102.03   56.19 -179.56  -60.21   30.52  169.34  133.32

DOCKED: MODEL       28
DOCKED: USER    Run = 28
DOCKED: USER    DPF = D:/Protein_go_brrr/autodock/final/6BB5/heme_O2/dock.dpf
DOCKED: USER  
DOCKED: USER    Estimated Free Energy of Binding    =  -15.04 kcal/mol  [=(1)+(2)+(3)-(4)]
DOCKED: USER    Estimated Inhibition Constant, Ki   =    9.52 pM (picomolar)  [Temperature = 298.15 K]
DOCKED: USER    
DOCKED: USER    (1) Final Intermolecular Energy     =  -18.02 kcal/mol
DOCKED: USER        vdW + Hbond + desolv Energy     =  -15.73 kcal/mol
DOCKED: USER        Electrostatic Energy            =   -2.29 kcal/mol
DOCKED: USER    (2) Final Total Internal Energy     =   -2.16 kcal/mol
DOCKED: USER    (3) Torsional Free Energy           =   +2.98 kcal/mol
DOCKED: USER    (4) Unbound System's Energy  [=(2)] =   -2.16 kcal/mol
DOCKED: USER    
DOCKED: USER    
DOCKED: USER    NEWDPF move heme_O2_opt.pdbqt
DOCKED: USER    NEWDPF about 8.287000 34.468000 -0.670000
DOCKED: USER    NEWDPF tran0 41.229685 28.309802 15.749417
DOCKED: USER    NEWDPF quaternion0 0.299271 -0.369112 -0.877679 0.062233
DOCKED: USER    NEWDPF axisangle0 0.299853 -0.369828 -0.879384 172.863994
DOCKED: USER    NEWDPF quat0 0.299853 -0.369828 -0.879384 172.863994
DOCKED: USER    NEWDPF dihe0 -113.12 0.23 -7.45 -102.03 56.19 -179.56 -60.21 30.52 169.34 133.32 
DOCKED: USER  keepresnum = 1 
DOCKED: USER  
DOCKED: REMARK  10 active torsions:
DOCKED: REMARK  status: ('A' for Active; 'I' for Inactive)
DOCKED: REMARK    1  A    between atoms: C_6  and  C_10 
DOCKED: REMARK    2  A    between atoms: C_10  and  C_11 
DOCKED: REMARK    3  A    between atoms: C_11  and  C_12 
DOCKED: REMARK    4  A    between atoms: C_12  and  O_14 
DOCKED: REMARK    5  A    between atoms: C_17  and  C_20 
DOCKED: REMARK    6  A    between atoms: C_24  and  C_27 
DOCKED: REMARK    7  A    between atoms: C_31  and  C_34 
DOCKED: REMARK    8  A    between atoms: C_34  and  C_35 
DOCKED: REMARK    9  A    between atoms: C_35  and  C_36 
DOCKED: REMARK   10  A    between atoms: C_36  and  O_38 
DOCKED: USER                              x       y       z     vdW  Elec       q    Type
DOCKED: USER                           _______ _______ _______ _____ _____    ______ ____
DOCKED: ROOT
DOCKED: ATOM      1  C   UNL d   1      42.935  27.537  16.747 -0.28 +0.02    +0.064 A 
DOCKED: ATOM      2  C   UNL d   1      41.103  31.909  16.443 -0.40 +0.01    +0.064 A 
DOCKED: ATOM      3  C   UNL d   1      37.571  30.330  13.592 -0.39 +0.01    +0.064 C 
DOCKED: ATOM      4  C   UNL d   1      39.171  25.745  14.284 -0.40 +0.01    +0.064 A 
DOCKED: ATOM      5  C   UNL d   1      42.724  28.855  16.898 -0.27 +0.02    +0.066 A 
DOCKED: ATOM      6  C   UNL d   1      43.551  29.699  17.644 -0.30 -0.01    -0.021 A 
DOCKED: ATOM      7  C   UNL d   1      42.998  30.957  17.592 -0.35 -0.01    -0.025 A 
DOCKED: ATOM      8  C   UNL d   1      41.874  30.856  16.777 -0.34 +0.01    +0.066 A 
DOCKED: ATOM      9  C   UNL d   1      43.530  32.168  18.327 -0.40 +0.01    +0.051 C 
DOCKED: ATOM     10  C   UNL d   1      39.926  31.868  15.574 -0.36 +0.01    +0.066 A 
DOCKED: ATOM     11  C   UNL d   1      39.259  33.015  15.128 -0.42 -0.00    -0.021 A 
DOCKED: ATOM     12  C   UNL d   1      38.248  32.581  14.290 -0.40 +0.00    +0.000 A 
DOCKED: ATOM     13  C   UNL d   1      38.350  31.163  14.282 -0.36 +0.01    +0.070 A 
DOCKED: ATOM     14  C   UNL d   1      39.589  34.464  15.466 -0.54 +0.00    +0.052 C 
DOCKED: ATOM     15  C   UNL d   1      37.620  28.888  13.584 -0.37 +0.01    +0.066 A 
DOCKED: ATOM     16  C   UNL d   1      36.673  28.068  12.970 -0.48 -0.00    -0.021 A 
DOCKED: ATOM     17  C   UNL d   1      37.108  26.756  13.155 -0.46 +0.00    +0.000 A 
DOCKED: ATOM     18  C   UNL d   1      38.305  26.875  13.876 -0.37 +0.01    +0.070 A 
DOCKED: ATOM     19  C   UNL d   1      35.423  28.602  12.317 -0.63 +0.00    +0.052 C 
DOCKED: ATOM     20  C   UNL d   1      40.302  25.821  15.013 -0.40 +0.01    +0.066 A 
DOCKED: ATOM     21  C   UNL d   1      41.087  24.722  15.352 -0.43 -0.00    -0.025 A 
DOCKED: ATOM     22  C   UNL d   1      42.178  25.216  16.030 -0.29 -0.00    -0.021 A 
DOCKED: ATOM     23  C   UNL d   1      42.009  26.603  16.096 -0.34 +0.01    +0.066 A 
DOCKED: ATOM     24  C   UNL d   1      40.808  23.273  15.047 -0.55 +0.00    +0.051 C 
DOCKED: ATOM     25  N   UNL d   1      41.669  29.548  16.403 -0.21 -0.06    -0.248 N 
DOCKED: ATOM     26  N   UNL d   1      39.371  30.737  15.069 -0.13 -0.05    -0.248 N 
DOCKED: ATOM     27  N   UNL d   1      38.560  28.171  14.191 -0.20 -0.05    -0.248 N 
DOCKED: ATOM     28  N   UNL d   1      40.845  26.961  15.516 -0.27 -0.05    -0.248 N 
DOCKED: ATOM     29 FE   UNL d   1      40.111  28.834  15.293 -0.09 +0.00    +0.000 Fe
DOCKED: ATOM     30  O   UNL d   1      39.701  29.313  16.716 -0.67 +0.00    +0.000 OA
DOCKED: ATOM     31  O   UNL d   1      39.055  28.008  16.114 -0.94 +0.00    +0.000 OA
DOCKED: ENDROOT
DOCKED: BRANCH   6  32
DOCKED: ATOM     32  C   UNL d   1      44.740  29.318  18.487 -0.25 +0.02    +0.052 C 
DOCKED: BRANCH  32  33
DOCKED: ATOM     33  C   UNL d   1      44.456  29.401  19.984 +0.04 +0.09    +0.115 C 
DOCKED: BRANCH  33  34
DOCKED: ATOM     34  C   UNL d   1      44.579  28.061  20.667 -0.04 +0.18    +0.139 C 
DOCKED: ATOM     35  O   UNL d   1      43.583  27.376  20.834 -0.30 -0.84    -0.650 OA
DOCKED: BRANCH  34  36
DOCKED: ATOM     36  O   UNL d   1      45.765  27.613  21.127 -0.29 -1.34    -0.776 OA
DOCKED: ATOM     37  H   UNL d   1      46.208  26.849  20.739 +0.03 +0.17    +0.167 HD
DOCKED: ENDBRANCH  34  36
DOCKED: ENDBRANCH  33  34
DOCKED: ENDBRANCH  32  33
DOCKED: ENDBRANCH   6  32
DOCKED: BRANCH  22  38
DOCKED: ATOM     38  C   UNL d   1      43.284  24.391  16.635 -0.27 +0.01    +0.052 C 
DOCKED: BRANCH  38  39
DOCKED: ATOM     39  C   UNL d   1      43.478  24.679  18.122 -0.26 +0.04    +0.115 C 
DOCKED: BRANCH  39  40
DOCKED: ATOM     40  C   UNL d   1      44.903  24.465  18.570 -0.14 +0.06    +0.139 C 
DOCKED: ATOM     41  O   UNL d   1      45.567  23.571  18.070 +0.04 -0.31    -0.650 OA
DOCKED: BRANCH  40  42
DOCKED: ATOM     42  O   UNL d   1      45.476  25.277  19.479 +0.10 -0.42    -0.776 OA
DOCKED: ATOM     43  H   UNL d   1      44.983  25.991  19.900 +0.06 +0.11    +0.167 HD
DOCKED: ENDBRANCH  40  42
DOCKED: ENDBRANCH  39  40
DOCKED: ENDBRANCH  38  39
DOCKED: ENDBRANCH  22  38
DOCKED: BRANCH  12  44
DOCKED: ATOM     44  C   UNL d   1      37.306  33.546  13.601 -0.49 +0.00    +0.004 C 
DOCKED: ATOM     45  C   UNL d   1      36.444  33.288  12.618 -0.56 +0.00    +0.012 C 
DOCKED: ENDBRANCH  12  44
DOCKED: BRANCH  17  46
DOCKED: ATOM     46  C   UNL d   1      36.479  25.443  12.773 -0.64 +0.00    +0.004 C 
DOCKED: ATOM     47  C   UNL d   1      35.925  24.525  13.575 -0.71 +0.00    +0.012 C 
DOCKED: ENDBRANCH  17  46
DOCKED: TORSDOF 10
DOCKED: TER
DOCKED: ENDMDL
________________________________________________________________________________


	BEGINNING GENETIC ALGORITHM DOCKING 29 of 100
Run: 29 Seed: 936182581 1665272425 [ Run 29 of 100 GA/GALS ]
Beginning LAMARCKIAN GENETIC ALGORITHM (LGA), with a maximum of 25000000 energy evaluations.

Final-Value: -20.449


	FINAL GENETIC ALGORITHM DOCKED STATE
	_______________________________________________


Detailed state:  trans 41.089 28.284 15.738 quatxyzw -0.323920 0.384003 0.863232 -0.049481 center 8.287 34.468 -0.670 ntor 10 173.3193 -94.9822 22.7243 -93.5203 -17.6225 180.0000 -72.8314 37.4512 -170.0151 173.5009
State:	 41.089  28.284  15.738  -0.324  0.384  0.864 -174.328    173.32  -94.98   22.72  -93.52  -17.62  180.00  -72.83   37.45 -170.02  173.50

DOCKED: MODEL       29
DOCKED: USER    Run = 29
DOCKED: USER    DPF = D:/Protein_go_brrr/autodock/final/6BB5/heme_O2/dock.dpf
DOCKED: USER  
DOCKED: USER    Estimated Free Energy of Binding    =  -15.02 kcal/mol  [=(1)+(2)+(3)-(4)]
DOCKED: USER    Estimated Inhibition Constant, Ki   =    9.72 pM (picomolar)  [Temperature = 298.15 K]
DOCKED: USER    
DOCKED: USER    (1) Final Intermolecular Energy     =  -18.01 kcal/mol
DOCKED: USER        vdW + Hbond + desolv Energy     =  -16.26 kcal/mol
DOCKED: USER        Electrostatic Energy            =   -1.75 kcal/mol
DOCKED: USER    (2) Final Total Internal Energy     =   -2.44 kcal/mol
DOCKED: USER    (3) Torsional Free Energy           =   +2.98 kcal/mol
DOCKED: USER    (4) Unbound System's Energy  [=(2)] =   -2.44 kcal/mol
DOCKED: USER    
DOCKED: USER    
DOCKED: USER    NEWDPF move heme_O2_opt.pdbqt
DOCKED: USER    NEWDPF about 8.287000 34.468000 -0.670000
DOCKED: USER    NEWDPF tran0 41.088710 28.283841 15.738460
DOCKED: USER    NEWDPF quaternion0 -0.323920 0.384003 0.863232 -0.049481
DOCKED: USER    NEWDPF axisangle0 -0.324317 0.384474 0.864291 -174.327576
DOCKED: USER    NEWDPF quat0 -0.324317 0.384474 0.864291 -174.327576
DOCKED: USER    NEWDPF dihe0 173.32 -94.98 22.72 -93.52 -17.62 180.00 -72.83 37.45 -170.02 173.50 
DOCKED: USER  keepresnum = 1 
DOCKED: USER  
DOCKED: REMARK  10 active torsions:
DOCKED: REMARK  status: ('A' for Active; 'I' for Inactive)
DOCKED: REMARK    1  A    between atoms: C_6  and  C_10 
DOCKED: REMARK    2  A    between atoms: C_10  and  C_11 
DOCKED: REMARK    3  A    between atoms: C_11  and  C_12 
DOCKED: REMARK    4  A    between atoms: C_12  and  O_14 
DOCKED: REMARK    5  A    between atoms: C_17  and  C_20 
DOCKED: REMARK    6  A    between atoms: C_24  and  C_27 
DOCKED: REMARK    7  A    between atoms: C_31  and  C_34 
DOCKED: REMARK    8  A    between atoms: C_34  and  C_35 
DOCKED: REMARK    9  A    between atoms: C_35  and  C_36 
DOCKED: REMARK   10  A    between atoms: C_36  and  O_38 
DOCKED: USER                              x       y       z     vdW  Elec       q    Type
DOCKED: USER                           _______ _______ _______ _____ _____    ______ ____
DOCKED: ROOT
DOCKED: ATOM      1  C   UNL d   1      42.773  27.612  16.839 -0.24 +0.02    +0.064 A 
DOCKED: ATOM      2  C   UNL d   1      40.829  31.906  16.253 -0.40 +0.01    +0.064 A 
DOCKED: ATOM      3  C   UNL d   1      37.465  30.087  13.342 -0.37 +0.01    +0.064 C 
DOCKED: ATOM      4  C   UNL d   1      39.168  25.591  14.318 -0.40 +0.01    +0.064 A 
DOCKED: ATOM      5  C   UNL d   1      42.518  28.928  16.918 -0.24 +0.02    +0.066 A 
DOCKED: ATOM      6  C   UNL d   1      43.289  29.832  17.655 -0.30 -0.01    -0.021 A 
DOCKED: ATOM      7  C   UNL d   1      42.702  31.068  17.521 -0.37 -0.00    -0.025 A 
DOCKED: ATOM      8  C   UNL d   1      41.616  30.894  16.667 -0.34 +0.01    +0.066 A 
DOCKED: ATOM      9  C   UNL d   1      43.169  32.328  18.217 -0.43 +0.01    +0.051 C 
DOCKED: ATOM     10  C   UNL d   1      39.691  31.788  15.340 -0.36 +0.01    +0.066 A 
DOCKED: ATOM     11  C   UNL d   1      39.010  32.892  14.814 -0.41 -0.00    -0.021 A 
DOCKED: ATOM     12  C   UNL d   1      38.048  32.388  13.958 -0.40 +0.00    +0.000 A 
DOCKED: ATOM     13  C   UNL d   1      38.191  30.975  14.022 -0.37 +0.01    +0.070 A 
DOCKED: ATOM     14  C   UNL d   1      39.284  34.365  15.094 -0.53 +0.00    +0.052 C 
DOCKED: ATOM     15  C   UNL d   1      37.556  28.648  13.405 -0.39 +0.01    +0.066 A 
DOCKED: ATOM     16  C   UNL d   1      36.659  27.772  12.794 -0.50 -0.00    -0.021 A 
DOCKED: ATOM     17  C   UNL d   1      37.124  26.484  13.060 -0.47 +0.00    +0.000 A 
DOCKED: ATOM     18  C   UNL d   1      38.286  26.674  13.821 -0.38 +0.01    +0.070 A 
DOCKED: ATOM     19  C   UNL d   1      35.422  28.236  12.067 -0.66 +0.00    +0.052 C 
DOCKED: ATOM     20  C   UNL d   1      40.265  25.735  15.086 -0.40 +0.01    +0.066 A 
DOCKED: ATOM     21  C   UNL d   1      41.066  24.678  15.509 -0.43 -0.00    -0.025 A 
DOCKED: ATOM     22  C   UNL d   1      42.113  25.238  16.205 -0.33 -0.00    -0.021 A 
DOCKED: ATOM     23  C   UNL d   1      41.902  26.620  16.198 -0.34 +0.01    +0.066 A 
DOCKED: ATOM     24  C   UNL d   1      40.842  23.209  15.263 -0.56 +0.00    +0.051 C 
DOCKED: ATOM     25  N   UNL d   1      41.465  29.564  16.349 -0.21 -0.06    -0.248 N 
DOCKED: ATOM     26  N   UNL d   1      39.190  30.618  14.868 -0.16 -0.05    -0.248 N 
DOCKED: ATOM     27  N   UNL d   1      38.491  27.990  14.084 -0.21 -0.05    -0.248 N 
DOCKED: ATOM     28  N   UNL d   1      40.753  26.914  15.555 -0.27 -0.05    -0.248 N 
DOCKED: ATOM     29 FE   UNL d   1      39.975  28.751  15.213 -0.07 +0.00    +0.000 Fe
DOCKED: ATOM     30  O   UNL d   1      39.493  29.283  16.594 -0.72 +0.00    +0.000 OA
DOCKED: ATOM     31  O   UNL d   1      38.910  27.933  16.030 -0.88 +0.00    +0.000 OA
DOCKED: ENDROOT
DOCKED: BRANCH   6  32
DOCKED: ATOM     32  C   UNL d   1      44.453  29.527  18.562 -0.28 +0.02    +0.052 C 
DOCKED: BRANCH  32  33
DOCKED: ATOM     33  C   UNL d   1      44.020  29.178  19.983 +0.00 +0.09    +0.115 C 
DOCKED: BRANCH  33  34
DOCKED: ATOM     34  C   UNL d   1      44.128  27.700  20.270 -0.21 +0.14    +0.139 C 
DOCKED: ATOM     35  O   UNL d   1      43.624  27.245  21.284 -0.50 -1.05    -0.650 OA
DOCKED: BRANCH  34  36
DOCKED: ATOM     36  O   UNL d   1      44.796  26.870  19.443 +0.07 -0.49    -0.776 OA
DOCKED: ATOM     37  H   UNL d   1      44.948  25.943  19.662 +0.06 +0.10    +0.167 HD
DOCKED: ENDBRANCH  34  36
DOCKED: ENDBRANCH  33  34
DOCKED: ENDBRANCH  32  33
DOCKED: ENDBRANCH   6  32
DOCKED: BRANCH  22  38
DOCKED: ATOM     38  C   UNL d   1      43.217  24.476  16.893 -0.32 +0.01    +0.052 C 
DOCKED: BRANCH  38  39
DOCKED: ATOM     39  C   UNL d   1      42.824  24.022  18.297 -0.36 +0.03    +0.115 C 
DOCKED: BRANCH  39  40
DOCKED: ATOM     40  C   UNL d   1      43.978  24.080  19.266 -0.24 +0.06    +0.139 C 
DOCKED: ATOM     41  O   UNL d   1      45.106  23.818  18.881 +0.03 -0.28    -0.650 OA
DOCKED: BRANCH  40  42
DOCKED: ATOM     42  O   UNL d   1      43.795  24.468  20.543 +0.02 -0.40    -0.776 OA
DOCKED: ATOM     43  H   UNL d   1      43.900  25.389  20.811 +0.07 +0.12    +0.167 HD
DOCKED: ENDBRANCH  40  42
DOCKED: ENDBRANCH  39  40
DOCKED: ENDBRANCH  38  39
DOCKED: ENDBRANCH  22  38
DOCKED: BRANCH  12  44
DOCKED: ATOM     44  C   UNL d   1      37.107  33.290  13.186 -0.49 +0.00    +0.004 C 
DOCKED: ATOM     45  C   UNL d   1      35.951  32.966  12.609 -0.59 +0.00    +0.012 C 
DOCKED: ENDBRANCH  12  44
DOCKED: BRANCH  17  46
DOCKED: ATOM     46  C   UNL d   1      36.550  25.136  12.716 -0.67 +0.00    +0.004 C 
DOCKED: ATOM     47  C   UNL d   1      35.853  24.307  13.503 -0.73 +0.00    +0.012 C 
DOCKED: ENDBRANCH  17  46
DOCKED: TORSDOF 10
DOCKED: TER
DOCKED: ENDMDL
________________________________________________________________________________


	BEGINNING GENETIC ALGORITHM DOCKING 30 of 100
Run: 30 Seed: 2091163363 651112488 [ Run 30 of 100 GA/GALS ]
Beginning LAMARCKIAN GENETIC ALGORITHM (LGA), with a maximum of 25000000 energy evaluations.

Final-Value: -20.349


	FINAL GENETIC ALGORITHM DOCKED STATE
	_______________________________________________


Detailed state:  trans 41.096 28.445 15.805 quatxyzw 0.334999 -0.378372 -0.860959 0.057967 center 8.287 34.468 -0.670 ntor 10 78.5388 -33.9480 17.5288 -94.3778 86.1864 171.1290 47.9160 8.5219 -98.0535 149.2042
State:	 41.096  28.445  15.805   0.336 -0.379 -0.862 173.354     78.54  -33.95   17.53  -94.38   86.19  171.13   47.92    8.52  -98.05  149.20

DOCKED: MODEL       30
DOCKED: USER    Run = 30
DOCKED: USER    DPF = D:/Protein_go_brrr/autodock/final/6BB5/heme_O2/dock.dpf
DOCKED: USER  
DOCKED: USER    Estimated Free Energy of Binding    =  -16.08 kcal/mol  [=(1)+(2)+(3)-(4)]
DOCKED: USER    Estimated Inhibition Constant, Ki   =    1.63 pM (picomolar)  [Temperature = 298.15 K]
DOCKED: USER    
DOCKED: USER    (1) Final Intermolecular Energy     =  -19.06 kcal/mol
DOCKED: USER        vdW + Hbond + desolv Energy     =  -16.58 kcal/mol
DOCKED: USER        Electrostatic Energy            =   -2.48 kcal/mol
DOCKED: USER    (2) Final Total Internal Energy     =   -1.29 kcal/mol
DOCKED: USER    (3) Torsional Free Energy           =   +2.98 kcal/mol
DOCKED: USER    (4) Unbound System's Energy  [=(2)] =   -1.29 kcal/mol
DOCKED: USER    
DOCKED: USER    
DOCKED: USER    NEWDPF move heme_O2_opt.pdbqt
DOCKED: USER    NEWDPF about 8.287000 34.468000 -0.670000
DOCKED: USER    NEWDPF tran0 41.095502 28.445004 15.804537
DOCKED: USER    NEWDPF quaternion0 0.334999 -0.378372 -0.860959 0.057967
DOCKED: USER    NEWDPF axisangle0 0.335563 -0.379009 -0.862409 173.353728
DOCKED: USER    NEWDPF quat0 0.335563 -0.379009 -0.862409 173.353728
DOCKED: USER    NEWDPF dihe0 78.54 -33.95 17.53 -94.38 86.19 171.13 47.92 8.52 -98.05 149.20 
DOCKED: USER  keepresnum = 1 
DOCKED: USER  
DOCKED: REMARK  10 active torsions:
DOCKED: REMARK  status: ('A' for Active; 'I' for Inactive)
DOCKED: REMARK    1  A    between atoms: C_6  and  C_10 
DOCKED: REMARK    2  A    between atoms: C_10  and  C_11 
DOCKED: REMARK    3  A    between atoms: C_11  and  C_12 
DOCKED: REMARK    4  A    between atoms: C_12  and  O_14 
DOCKED: REMARK    5  A    between atoms: C_17  and  C_20 
DOCKED: REMARK    6  A    between atoms: C_24  and  C_27 
DOCKED: REMARK    7  A    between atoms: C_31  and  C_34 
DOCKED: REMARK    8  A    between atoms: C_34  and  C_35 
DOCKED: REMARK    9  A    between atoms: C_35  and  C_36 
DOCKED: REMARK   10  A    between atoms: C_36  and  O_38 
DOCKED: USER                              x       y       z     vdW  Elec       q    Type
DOCKED: USER                           _______ _______ _______ _____ _____    ______ ____
DOCKED: ROOT
DOCKED: ATOM      1  C   UNL d   1      42.747  27.755  16.943 -0.17 +0.02    +0.064 A 
DOCKED: ATOM      2  C   UNL d   1      40.831  32.061  16.356 -0.41 +0.01    +0.064 A 
DOCKED: ATOM      3  C   UNL d   1      37.545  30.288  13.331 -0.41 +0.01    +0.064 C 
DOCKED: ATOM      4  C   UNL d   1      39.208  25.775  14.298 -0.40 +0.01    +0.064 A 
DOCKED: ATOM      5  C   UNL d   1      42.493  29.070  17.031 -0.17 +0.02    +0.066 A 
DOCKED: ATOM      6  C   UNL d   1      43.246  29.963  17.800 -0.30 -0.01    -0.021 A 
DOCKED: ATOM      7  C   UNL d   1      42.666  31.202  17.665 -0.38 -0.00    -0.025 A 
DOCKED: ATOM      8  C   UNL d   1      41.604  31.042  16.780 -0.36 +0.01    +0.066 A 
DOCKED: ATOM      9  C   UNL d   1      43.116  32.452  18.390 -0.44 +0.01    +0.051 C 
DOCKED: ATOM     10  C   UNL d   1      39.718  31.958  15.411 -0.37 +0.01    +0.066 A 
DOCKED: ATOM     11  C   UNL d   1      39.055  33.070  14.880 -0.41 -0.00    -0.021 A 
DOCKED: ATOM     12  C   UNL d   1      38.115  32.580  13.992 -0.40 +0.00    +0.000 A 
DOCKED: ATOM     13  C   UNL d   1      38.254  31.165  14.042 -0.37 +0.01    +0.070 A 
DOCKED: ATOM     14  C   UNL d   1      39.325  34.538  15.186 -0.55 +0.00    +0.052 C 
DOCKED: ATOM     15  C   UNL d   1      37.630  28.849  13.379 -0.38 +0.01    +0.066 A 
DOCKED: ATOM     16  C   UNL d   1      36.748  27.983  12.733 -0.50 -0.00    -0.021 A 
DOCKED: ATOM     17  C   UNL d   1      37.202  26.690  12.995 -0.47 +0.00    +0.000 A 
DOCKED: ATOM     18  C   UNL d   1      38.343  26.867  13.790 -0.38 +0.01    +0.070 A 
DOCKED: ATOM     19  C   UNL d   1      35.533  28.459  11.978 -0.67 +0.00    +0.052 C 
DOCKED: ATOM     20  C   UNL d   1      40.284  25.907  15.098 -0.40 +0.01    +0.066 A 
DOCKED: ATOM     21  C   UNL d   1      41.070  24.843  15.529 -0.42 -0.00    -0.025 A 
DOCKED: ATOM     22  C   UNL d   1      42.099  25.390  16.262 -0.34 -0.00    -0.021 A 
DOCKED: ATOM     23  C   UNL d   1      41.891  26.773  16.265 -0.34 +0.01    +0.066 A 
DOCKED: ATOM     24  C   UNL d   1      40.849  23.377  15.259 -0.56 +0.00    +0.051 C 
DOCKED: ATOM     25  N   UNL d   1      41.458  29.716  16.441 -0.21 -0.06    -0.248 N 
DOCKED: ATOM     26  N   UNL d   1      39.228  30.795  14.911 -0.20 -0.05    -0.248 N 
DOCKED: ATOM     27  N   UNL d   1      38.544  28.179  14.075 -0.20 -0.05    -0.248 N 
DOCKED: ATOM     28  N   UNL d   1      40.762  27.079  15.594 -0.26 -0.05    -0.248 N 
DOCKED: ATOM     29 FE   UNL d   1      39.998  28.922  15.254 -0.08 +0.00    +0.000 Fe
DOCKED: ATOM     30  O   UNL d   1      39.479  29.439  16.628 -0.67 +0.00    +0.000 OA
DOCKED: ATOM     31  O   UNL d   1      38.909  28.097  16.031 -0.90 +0.00    +0.000 OA
DOCKED: ENDROOT
DOCKED: BRANCH   6  32
DOCKED: ATOM     32  C   UNL d   1      44.383  29.643  18.735 -0.28 +0.02    +0.052 C 
DOCKED: BRANCH  32  33
DOCKED: ATOM     33  C   UNL d   1      44.478  28.157  19.066 -0.22 +0.06    +0.115 C 
DOCKED: BRANCH  33  34
DOCKED: ATOM     34  C   UNL d   1      44.681  27.908  20.540 -0.11 +0.17    +0.139 C 
DOCKED: ATOM     35  O   UNL d   1      45.708  28.287  21.081 -0.26 -1.11    -0.650 OA
DOCKED: BRANCH  34  36
DOCKED: ATOM     36  O   UNL d   1      43.763  27.247  21.275 -0.38 -1.28    -0.776 OA
DOCKED: ATOM     37  H   UNL d   1      43.689  26.286  21.257 +0.05 +0.20    +0.167 HD
DOCKED: ENDBRANCH  34  36
DOCKED: ENDBRANCH  33  34
DOCKED: ENDBRANCH  32  33
DOCKED: ENDBRANCH   6  32
DOCKED: BRANCH  22  38
DOCKED: ATOM     38  C   UNL d   1      43.182  24.617  16.970 -0.32 +0.01    +0.052 C 
DOCKED: BRANCH  38  39
DOCKED: ATOM     39  C   UNL d   1      43.026  24.656  18.489 -0.32 +0.03    +0.115 C 
DOCKED: BRANCH  39  40
DOCKED: ATOM     40  C   UNL d   1      44.200  24.037  19.205 -0.22 +0.06    +0.139 C 
DOCKED: ATOM     41  O   UNL d   1      44.663  22.980  18.807 -0.06 -0.26    -0.650 OA
DOCKED: BRANCH  40  42
DOCKED: ATOM     42  O   UNL d   1      44.783  24.656  20.249 +0.07 -0.43    -0.776 OA
DOCKED: ATOM     43  H   UNL d   1      44.813  25.618  20.313 +0.06 +0.12    +0.167 HD
DOCKED: ENDBRANCH  40  42
DOCKED: ENDBRANCH  39  40
DOCKED: ENDBRANCH  38  39
DOCKED: ENDBRANCH  22  38
DOCKED: BRANCH  12  44
DOCKED: ATOM     44  C   UNL d   1      37.199  33.494  13.206 -0.48 +0.00    +0.004 C 
DOCKED: ATOM     45  C   UNL d   1      36.109  33.163  12.514 -0.60 +0.00    +0.012 C 
DOCKED: ENDBRANCH  12  44
DOCKED: BRANCH  17  46
DOCKED: ATOM     46  C   UNL d   1      36.634  25.348  12.618 -0.65 +0.00    +0.004 C 
DOCKED: ATOM     47  C   UNL d   1      35.927  24.504  13.381 -0.71 +0.00    +0.012 C 
DOCKED: ENDBRANCH  17  46
DOCKED: TORSDOF 10
DOCKED: TER
DOCKED: ENDMDL
________________________________________________________________________________


	BEGINNING GENETIC ALGORITHM DOCKING 31 of 100
Run: 31 Seed: 918152488 1174224441 [ Run 31 of 100 GA/GALS ]
Beginning LAMARCKIAN GENETIC ALGORITHM (LGA), with a maximum of 25000000 energy evaluations.

Final-Value: -18.133


	FINAL GENETIC ALGORITHM DOCKED STATE
	_______________________________________________


Detailed state:  trans 8.267 34.709 -1.014 quatxyzw -0.028007 -0.034671 -0.017677 -0.998850 center 8.287 34.468 -0.670 ntor 10 35.9175 -128.7574 -24.5152 -65.4022 135.4157 145.3557 50.8774 -63.7539 -125.4906 -0.7483
State:	  8.267  34.709  -1.014  -0.584 -0.723 -0.369 -5.496     35.92 -128.76  -24.52  -65.40  135.42  145.36   50.88  -63.75 -125.49   -0.75

DOCKED: MODEL       31
DOCKED: USER    Run = 31
DOCKED: USER    DPF = D:/Protein_go_brrr/autodock/final/6BB5/heme_O2/dock.dpf
DOCKED: USER  
DOCKED: USER    Estimated Free Energy of Binding    =  -14.56 kcal/mol  [=(1)+(2)+(3)-(4)]
DOCKED: USER    Estimated Inhibition Constant, Ki   =   21.33 pM (picomolar)  [Temperature = 298.15 K]
DOCKED: USER    
DOCKED: USER    (1) Final Intermolecular Energy     =  -17.54 kcal/mol
DOCKED: USER        vdW + Hbond + desolv Energy     =  -15.90 kcal/mol
DOCKED: USER        Electrostatic Energy            =   -1.64 kcal/mol
DOCKED: USER    (2) Final Total Internal Energy     =   -0.59 kcal/mol
DOCKED: USER    (3) Torsional Free Energy           =   +2.98 kcal/mol
DOCKED: USER    (4) Unbound System's Energy  [=(2)] =   -0.59 kcal/mol
DOCKED: USER    
DOCKED: USER    
DOCKED: USER    NEWDPF move heme_O2_opt.pdbqt
DOCKED: USER    NEWDPF about 8.287000 34.468000 -0.670000
DOCKED: USER    NEWDPF tran0 8.267463 34.709211 -1.014263
DOCKED: USER    NEWDPF quaternion0 -0.028007 -0.034671 -0.017677 -0.998850
DOCKED: USER    NEWDPF axisangle0 -0.584119 -0.723110 -0.368670 -5.496476
DOCKED: USER    NEWDPF quat0 -0.584119 -0.723110 -0.368670 -5.496476
DOCKED: USER    NEWDPF dihe0 35.92 -128.76 -24.52 -65.40 135.42 145.36 50.88 -63.75 -125.49 -0.75 
DOCKED: USER  keepresnum = 1 
DOCKED: USER  
DOCKED: REMARK  10 active torsions:
DOCKED: REMARK  status: ('A' for Active; 'I' for Inactive)
DOCKED: REMARK    1  A    between atoms: C_6  and  C_10 
DOCKED: REMARK    2  A    between atoms: C_10  and  C_11 
DOCKED: REMARK    3  A    between atoms: C_11  and  C_12 
DOCKED: REMARK    4  A    between atoms: C_12  and  O_14 
DOCKED: REMARK    5  A    between atoms: C_17  and  C_20 
DOCKED: REMARK    6  A    between atoms: C_24  and  C_27 
DOCKED: REMARK    7  A    between atoms: C_31  and  C_34 
DOCKED: REMARK    8  A    between atoms: C_34  and  C_35 
DOCKED: REMARK    9  A    between atoms: C_35  and  C_36 
DOCKED: REMARK   10  A    between atoms: C_36  and  O_38 
DOCKED: USER                              x       y       z     vdW  Elec       q    Type
DOCKED: USER                           _______ _______ _______ _____ _____    ______ ____
DOCKED: ROOT
DOCKED: ATOM      1  C   UNL d   1       6.480  35.327  -1.975 -0.21 +0.01    +0.064 A 
DOCKED: ATOM      2  C   UNL d   1       7.297  32.778   1.949 -0.38 +0.01    +0.064 A 
DOCKED: ATOM      3  C   UNL d   1      12.046  33.128   1.298 -0.41 +0.00    +0.064 C 
DOCKED: ATOM      4  C   UNL d   1      11.224  36.153  -2.475 -0.44 +0.00    +0.064 A 
DOCKED: ATOM      5  C   UNL d   1       6.315  34.606  -0.854 -0.26 +0.01    +0.066 A 
DOCKED: ATOM      6  C   UNL d   1       5.069  34.255  -0.326 -0.27 -0.00    -0.021 A 
DOCKED: ATOM      7  C   UNL d   1       5.304  33.554   0.834 -0.34 -0.00    -0.025 A 
DOCKED: ATOM      8  C   UNL d   1       6.687  33.455   0.956 -0.34 +0.01    +0.066 A 
DOCKED: ATOM      9  C   UNL d   1       4.230  33.045   1.770 -0.38 +0.01    +0.051 C 
DOCKED: ATOM     10  C   UNL d   1       8.742  32.620   2.117 -0.36 +0.00    +0.066 A 
DOCKED: ATOM     11  C   UNL d   1       9.318  31.772   3.070 -0.44 -0.00    -0.021 A 
DOCKED: ATOM     12  C   UNL d   1      10.686  31.845   2.886 -0.43 +0.00    +0.000 A 
DOCKED: ATOM     13  C   UNL d   1      10.873  32.764   1.816 -0.36 +0.00    +0.070 A 
DOCKED: ATOM     14  C   UNL d   1       8.592  30.907   4.094 -0.56 +0.00    +0.052 C 
DOCKED: ATOM     15  C   UNL d   1      12.279  34.080   0.240 -0.36 +0.00    +0.066 A 
DOCKED: ATOM     16  C   UNL d   1      13.537  34.541  -0.146 -0.44 -0.00    -0.021 A 
DOCKED: ATOM     17  C   UNL d   1      13.328  35.406  -1.220 -0.46 +0.00    +0.000 A 
DOCKED: ATOM     18  C   UNL d   1      11.939  35.406  -1.413 -0.39 +0.00    +0.070 A 
DOCKED: ATOM     19  C   UNL d   1      14.808  34.162   0.572 -0.60 +0.00    +0.052 C 
DOCKED: ATOM     20  C   UNL d   1       9.891  36.210  -2.661 -0.41 +0.00    +0.066 A 
DOCKED: ATOM     21  C   UNL d   1       9.276  36.917  -3.690 -0.39 +0.00    -0.025 A 
DOCKED: ATOM     22  C   UNL d   1       7.926  36.671  -3.580 -0.30 -0.00    -0.021 A 
DOCKED: ATOM     23  C   UNL d   1       7.765  35.834  -2.472 -0.33 +0.01    +0.066 A 
DOCKED: ATOM     24  C   UNL d   1       9.943  37.787  -4.725 -0.47 -0.01    +0.051 C 
DOCKED: ATOM     25  N   UNL d   1       7.309  34.160  -0.048 -0.18 -0.04    -0.248 N 
DOCKED: ATOM     26  N   UNL d   1       9.685  33.234   1.357 -0.14 -0.02    -0.248 N 
DOCKED: ATOM     27  N   UNL d   1      11.313  34.655  -0.471 -0.18 -0.03    -0.248 N 
DOCKED: ATOM     28  N   UNL d   1       8.957  35.593  -1.889 -0.23 -0.04    -0.248 N 
DOCKED: ATOM     29 FE   UNL d   1       9.321  34.423  -0.278 +0.03 +0.00    +0.000 Fe
DOCKED: ATOM     30  O   UNL d   1       8.725  35.174   0.948 -0.86 +0.00    +0.000 OA
DOCKED: ATOM     31  O   UNL d   1       9.829  35.871   0.066 -1.11 +0.00    +0.000 OA
DOCKED: ENDROOT
DOCKED: BRANCH   6  32
DOCKED: ATOM     32  C   UNL d   1       3.708  34.677  -0.814 -0.22 +0.01    +0.052 C 
DOCKED: BRANCH  32  33
DOCKED: ATOM     33  C   UNL d   1       3.651  36.148  -1.213 -0.15 +0.04    +0.115 C 
DOCKED: BRANCH  33  34
DOCKED: ATOM     34  C   UNL d   1       2.469  36.864  -0.608 -0.14 +0.12    +0.139 C 
DOCKED: ATOM     35  O   UNL d   1       1.550  36.216  -0.133 +0.05 -0.51    -0.650 OA
DOCKED: BRANCH  34  36
DOCKED: ATOM     36  O   UNL d   1       2.390  38.211  -0.602 -0.41 -1.32    -0.776 OA
DOCKED: ATOM     37  H   UNL d   1       2.716  38.745  -1.336 +0.03 +0.19    +0.167 HD
DOCKED: ENDBRANCH  34  36
DOCKED: ENDBRANCH  33  34
DOCKED: ENDBRANCH  32  33
DOCKED: ENDBRANCH   6  32
DOCKED: BRANCH  22  38
DOCKED: ATOM     38  C   UNL d   1       6.851  37.262  -4.455 -0.24 +0.00    +0.052 C 
DOCKED: BRANCH  38  39
DOCKED: ATOM     39  C   UNL d   1       6.366  36.284  -5.522 -0.21 +0.00    +0.115 C 
DOCKED: BRANCH  39  40
DOCKED: ATOM     40  C   UNL d   1       4.922  35.893  -5.332 -0.17 +0.01    +0.139 C 
DOCKED: ATOM     41  O   UNL d   1       4.605  35.183  -4.391 -0.01 -0.06    -0.650 OA
DOCKED: BRANCH  40  42
DOCKED: ATOM     42  O   UNL d   1       3.961  36.356  -6.155 +0.02 -0.07    -0.776 OA
DOCKED: ATOM     43  H   UNL d   1       3.179  36.807  -5.814 +0.02 +0.02    +0.167 HD
DOCKED: ENDBRANCH  40  42
DOCKED: ENDBRANCH  39  40
DOCKED: ENDBRANCH  38  39
DOCKED: ENDBRANCH  22  38
DOCKED: BRANCH  12  44
DOCKED: ATOM     44  C   UNL d   1      11.655  31.050   3.736 -0.53 +0.00    +0.004 C 
DOCKED: ATOM     45  C   UNL d   1      12.861  30.596   3.396 -0.65 +0.00    +0.012 C 
DOCKED: ENDBRANCH  12  44
DOCKED: BRANCH  17  46
DOCKED: ATOM     46  C   UNL d   1      14.291  36.247  -2.014 -0.62 +0.00    +0.004 C 
DOCKED: ATOM     47  C   UNL d   1      14.930  37.360  -1.630 -0.67 +0.00    +0.012 C 
DOCKED: ENDBRANCH  17  46
DOCKED: TORSDOF 10
DOCKED: TER
DOCKED: ENDMDL
________________________________________________________________________________


	BEGINNING GENETIC ALGORITHM DOCKING 32 of 100
Run: 32 Seed: 1369332290 157335488 [ Run 32 of 100 GA/GALS ]
Beginning LAMARCKIAN GENETIC ALGORITHM (LGA), with a maximum of 25000000 energy evaluations.

Final-Value: -11.342


	FINAL GENETIC ALGORITHM DOCKED STATE
	_______________________________________________


Detailed state:  trans 35.832 29.434 0.363 quatxyzw 0.837477 -0.362588 0.027131 0.407955 center 8.287 34.468 -0.670 ntor 10 70.6070 150.1153 -19.2274 124.7098 -143.5682 114.5164 -27.9672 83.0510 178.0607 174.4749
State:	 35.832  29.434   0.363   0.917 -0.397  0.030 131.847     70.61  150.12  -19.23  124.71 -143.57  114.52  -27.97   83.05  178.06  174.47

DOCKED: MODEL       32
DOCKED: USER    Run = 32
DOCKED: USER    DPF = D:/Protein_go_brrr/autodock/final/6BB5/heme_O2/dock.dpf
DOCKED: USER  
DOCKED: USER    Estimated Free Energy of Binding    =   -6.28 kcal/mol  [=(1)+(2)+(3)-(4)]
DOCKED: USER    Estimated Inhibition Constant, Ki   =   24.89 uM (micromolar)  [Temperature = 298.15 K]
DOCKED: USER    
DOCKED: USER    (1) Final Intermolecular Energy     =   -9.26 kcal/mol
DOCKED: USER        vdW + Hbond + desolv Energy     =   -7.04 kcal/mol
DOCKED: USER        Electrostatic Energy            =   -2.22 kcal/mol
DOCKED: USER    (2) Final Total Internal Energy     =   -2.08 kcal/mol
DOCKED: USER    (3) Torsional Free Energy           =   +2.98 kcal/mol
DOCKED: USER    (4) Unbound System's Energy  [=(2)] =   -2.08 kcal/mol
DOCKED: USER    
DOCKED: USER    
DOCKED: USER    NEWDPF move heme_O2_opt.pdbqt
DOCKED: USER    NEWDPF about 8.287000 34.468000 -0.670000
DOCKED: USER    NEWDPF tran0 35.832176 29.433682 0.362863
DOCKED: USER    NEWDPF quaternion0 0.837477 -0.362588 0.027131 0.407955
DOCKED: USER    NEWDPF axisangle0 0.917278 -0.397138 0.029717 131.847191
DOCKED: USER    NEWDPF quat0 0.917278 -0.397138 0.029717 131.847191
DOCKED: USER    NEWDPF dihe0 70.61 150.12 -19.23 124.71 -143.57 114.52 -27.97 83.05 178.06 174.47 
DOCKED: USER  keepresnum = 1 
DOCKED: USER  
DOCKED: REMARK  10 active torsions:
DOCKED: REMARK  status: ('A' for Active; 'I' for Inactive)
DOCKED: REMARK    1  A    between atoms: C_6  and  C_10 
DOCKED: REMARK    2  A    between atoms: C_10  and  C_11 
DOCKED: REMARK    3  A    between atoms: C_11  and  C_12 
DOCKED: REMARK    4  A    between atoms: C_12  and  O_14 
DOCKED: REMARK    5  A    between atoms: C_17  and  C_20 
DOCKED: REMARK    6  A    between atoms: C_24  and  C_27 
DOCKED: REMARK    7  A    between atoms: C_31  and  C_34 
DOCKED: REMARK    8  A    between atoms: C_34  and  C_35 
DOCKED: REMARK    9  A    between atoms: C_35  and  C_36 
DOCKED: REMARK   10  A    between atoms: C_36  and  O_38 
DOCKED: USER                              x       y       z     vdW  Elec       q    Type
DOCKED: USER                           _______ _______ _______ _____ _____    ______ ____
DOCKED: ROOT
DOCKED: ATOM      1  C   UNL d   1      33.831  29.837   0.940 -0.17 +0.02    +0.064 A 
DOCKED: ATOM      2  C   UNL d   1      37.557  32.659   0.096 -0.16 -0.01    +0.064 A 
DOCKED: ATOM      3  C   UNL d   1      40.344  28.857  -0.836 -0.14 -0.00    +0.064 C 
DOCKED: ATOM      4  C   UNL d   1      36.398  25.969  -0.436 -0.08 -0.01    +0.064 A 
DOCKED: ATOM      5  C   UNL d   1      34.617  30.915   0.785 -0.12 +0.01    +0.066 A 
DOCKED: ATOM      6  C   UNL d   1      34.190  32.230   0.990 -0.10 -0.00    -0.021 A 
DOCKED: ATOM      7  C   UNL d   1      35.256  33.051   0.703 -0.11 -0.00    -0.025 A 
DOCKED: ATOM      8  C   UNL d   1      36.318  32.212   0.378 -0.12 -0.00    +0.066 A 
DOCKED: ATOM      9  C   UNL d   1      35.213  34.563   0.721 -0.15 +0.00    +0.051 C 
DOCKED: ATOM     10  C   UNL d   1      38.716  31.827  -0.230 -0.20 -0.01    +0.066 A 
DOCKED: ATOM     11  C   UNL d   1      40.015  32.332  -0.354 -0.26 +0.00    -0.021 A 
DOCKED: ATOM     12  C   UNL d   1      40.836  31.248  -0.605 -0.28 -0.00    +0.000 A 
DOCKED: ATOM     13  C   UNL d   1      39.970  30.120  -0.632 -0.24 -0.01    +0.070 A 
DOCKED: ATOM     14  C   UNL d   1      40.458  33.783  -0.212 -0.31 -0.00    +0.052 C 
DOCKED: ATOM     15  C   UNL d   1      39.495  27.692  -0.906 -0.19 -0.00    +0.066 A 
DOCKED: ATOM     16  C   UNL d   1      39.926  26.421  -1.285 -0.19 -0.00    -0.021 A 
DOCKED: ATOM     17  C   UNL d   1      38.817  25.581  -1.180 -0.15 -0.00    +0.000 A 
DOCKED: ATOM     18  C   UNL d   1      37.780  26.413  -0.736 -0.14 -0.00    +0.070 A 
DOCKED: ATOM     19  C   UNL d   1      41.328  26.136  -1.762 -0.18 +0.00    +0.052 C 
DOCKED: ATOM     20  C   UNL d   1      35.368  26.748  -0.051 -0.13 -0.00    +0.066 A 
DOCKED: ATOM     21  C   UNL d   1      34.093  26.270   0.235 -0.22 +0.00    -0.025 A 
DOCKED: ATOM     22  C   UNL d   1      33.355  27.354   0.655 -0.24 -0.00    -0.021 A 
DOCKED: ATOM     23  C   UNL d   1      34.207  28.461   0.592 -0.14 +0.01    +0.066 A 
DOCKED: ATOM     24  C   UNL d   1      33.601  24.851   0.110 -0.18 -0.01    +0.051 C 
DOCKED: ATOM     25  N   UNL d   1      35.906  30.899   0.365 -0.07 -0.01    -0.248 N 
DOCKED: ATOM     26  N   UNL d   1      38.681  30.482  -0.408 -0.13 +0.02    -0.248 N 
DOCKED: ATOM     27  N   UNL d   1      38.190  27.704  -0.648 -0.13 +0.00    -0.248 N 
DOCKED: ATOM     28  N   UNL d   1      35.416  28.096   0.120 -0.04 -0.01    -0.248 N 
DOCKED: ATOM     29 FE   UNL d   1      37.038  29.278  -0.143 -0.04 +0.00    +0.000 Fe
DOCKED: ATOM     30  O   UNL d   1      36.705  30.213  -1.342 -0.08 +0.00    +0.000 OA
DOCKED: ATOM     31  O   UNL d   1      36.681  28.650  -1.540 -0.10 +0.00    +0.000 OA
DOCKED: ENDROOT
DOCKED: BRANCH   6  32
DOCKED: ATOM     32  C   UNL d   1      32.798  32.710   1.308 -0.12 +0.02    +0.052 C 
DOCKED: BRANCH  32  33
DOCKED: ATOM     33  C   UNL d   1      32.045  33.205   0.077 -0.06 +0.05    +0.115 C 
DOCKED: BRANCH  33  34
DOCKED: ATOM     34  C   UNL d   1      30.555  32.996   0.190 +0.13 +0.15    +0.139 C 
DOCKED: ATOM     35  O   UNL d   1      29.924  33.604   1.040 -0.14 -0.79    -0.650 OA
DOCKED: BRANCH  34  36
DOCKED: ATOM     36  O   UNL d   1      29.904  32.127  -0.610 -0.52 -0.93    -0.776 OA
DOCKED: ATOM     37  H   UNL d   1      30.006  31.173  -0.519 +0.01 +0.24    +0.167 HD
DOCKED: ENDBRANCH  34  36
DOCKED: ENDBRANCH  33  34
DOCKED: ENDBRANCH  32  33
DOCKED: ENDBRANCH   6  32
DOCKED: BRANCH  22  38
DOCKED: ATOM     38  C   UNL d   1      31.896  27.331   1.032 -0.20 +0.01    +0.052 C 
DOCKED: BRANCH  38  39
DOCKED: ATOM     39  C   UNL d   1      30.979  27.442  -0.184 -0.09 +0.03    +0.115 C 
DOCKED: BRANCH  39  40
DOCKED: ATOM     40  C   UNL d   1      30.485  28.850  -0.407 -0.08 +0.09    +0.139 C 
DOCKED: ATOM     41  O   UNL d   1      29.359  29.160  -0.053 -0.18 -0.77    -0.650 OA
DOCKED: BRANCH  40  42
DOCKED: ATOM     42  O   UNL d   1      31.284  29.791  -0.946 +0.03 -0.40    -0.776 OA
DOCKED: ATOM     43  H   UNL d   1      30.924  30.537  -1.440 +0.01 +0.08    +0.167 HD
DOCKED: ENDBRANCH  40  42
DOCKED: ENDBRANCH  39  40
DOCKED: ENDBRANCH  38  39
DOCKED: ENDBRANCH  22  38
DOCKED: BRANCH  12  44
DOCKED: ATOM     44  C   UNL d   1      42.331  31.399  -0.793 -0.38 -0.00    +0.004 C 
DOCKED: ATOM     45  C   UNL d   1      43.276  30.476  -0.612 -0.48 -0.00    +0.012 C 
DOCKED: ENDBRANCH  12  44
DOCKED: BRANCH  17  46
DOCKED: ATOM     46  C   UNL d   1      38.649  24.121  -1.508 -0.08 -0.00    +0.004 C 
DOCKED: ATOM     47  C   UNL d   1      38.334  23.117  -0.679 -0.09 -0.00    +0.012 C 
DOCKED: ENDBRANCH  17  46
DOCKED: TORSDOF 10
DOCKED: TER
DOCKED: ENDMDL
________________________________________________________________________________


	BEGINNING GENETIC ALGORITHM DOCKING 33 of 100
Run: 33 Seed: 1099814815 74084749 [ Run 33 of 100 GA/GALS ]
Beginning LAMARCKIAN GENETIC ALGORITHM (LGA), with a maximum of 25000000 energy evaluations.

Final-Value: -20.041


	FINAL GENETIC ALGORITHM DOCKED STATE
	_______________________________________________


Detailed state:  trans 41.091 28.136 15.676 quatxyzw 0.309236 -0.350757 -0.880221 0.080954 center 8.287 34.468 -0.670 ntor 10 -127.7881 116.1770 -6.0314 -104.5183 -30.2287 -58.7524 -71.2990 87.5119 179.4153 -167.6059
State:	 41.091  28.136  15.676   0.310 -0.352 -0.883 170.713   -127.79  116.18   -6.03 -104.52  -30.23  -58.75  -71.30   87.51  179.42 -167.61

DOCKED: MODEL       33
DOCKED: USER    Run = 33
DOCKED: USER    DPF = D:/Protein_go_brrr/autodock/final/6BB5/heme_O2/dock.dpf
DOCKED: USER  
DOCKED: USER    Estimated Free Energy of Binding    =  -15.07 kcal/mol  [=(1)+(2)+(3)-(4)]
DOCKED: USER    Estimated Inhibition Constant, Ki   =    8.92 pM (picomolar)  [Temperature = 298.15 K]
DOCKED: USER    
DOCKED: USER    (1) Final Intermolecular Energy     =  -18.06 kcal/mol
DOCKED: USER        vdW + Hbond + desolv Energy     =  -16.35 kcal/mol
DOCKED: USER        Electrostatic Energy            =   -1.71 kcal/mol
DOCKED: USER    (2) Final Total Internal Energy     =   -1.98 kcal/mol
DOCKED: USER    (3) Torsional Free Energy           =   +2.98 kcal/mol
DOCKED: USER    (4) Unbound System's Energy  [=(2)] =   -1.98 kcal/mol
DOCKED: USER    
DOCKED: USER    
DOCKED: USER    NEWDPF move heme_O2_opt.pdbqt
DOCKED: USER    NEWDPF about 8.287000 34.468000 -0.670000
DOCKED: USER    NEWDPF tran0 41.091442 28.135952 15.675613
DOCKED: USER    NEWDPF quaternion0 0.309236 -0.350757 -0.880221 0.080954
DOCKED: USER    NEWDPF axisangle0 0.310254 -0.351912 -0.883119 170.713160
DOCKED: USER    NEWDPF quat0 0.310254 -0.351912 -0.883119 170.713160
DOCKED: USER    NEWDPF dihe0 -127.79 116.18 -6.03 -104.52 -30.23 -58.75 -71.30 87.51 179.42 -167.61 
DOCKED: USER  keepresnum = 1 
DOCKED: USER  
DOCKED: REMARK  10 active torsions:
DOCKED: REMARK  status: ('A' for Active; 'I' for Inactive)
DOCKED: REMARK    1  A    between atoms: C_6  and  C_10 
DOCKED: REMARK    2  A    between atoms: C_10  and  C_11 
DOCKED: REMARK    3  A    between atoms: C_11  and  C_12 
DOCKED: REMARK    4  A    between atoms: C_12  and  O_14 
DOCKED: REMARK    5  A    between atoms: C_17  and  C_20 
DOCKED: REMARK    6  A    between atoms: C_24  and  C_27 
DOCKED: REMARK    7  A    between atoms: C_31  and  C_34 
DOCKED: REMARK    8  A    between atoms: C_34  and  C_35 
DOCKED: REMARK    9  A    between atoms: C_35  and  C_36 
DOCKED: REMARK   10  A    between atoms: C_36  and  O_38 
DOCKED: USER                              x       y       z     vdW  Elec       q    Type
DOCKED: USER                           _______ _______ _______ _____ _____    ______ ____
DOCKED: ROOT
DOCKED: ATOM      1  C   UNL d   1      42.753  27.295  16.691 -0.28 +0.02    +0.064 A 
DOCKED: ATOM      2  C   UNL d   1      40.991  31.703  16.523 -0.39 +0.01    +0.064 A 
DOCKED: ATOM      3  C   UNL d   1      37.532  30.303  13.494 -0.38 +0.01    +0.064 C 
DOCKED: ATOM      4  C   UNL d   1      39.047  25.669  14.034 -0.42 +0.01    +0.064 A 
DOCKED: ATOM      5  C   UNL d   1      42.555  28.608  16.894 -0.22 +0.02    +0.066 A 
DOCKED: ATOM      6  C   UNL d   1      43.369  29.407  17.702 -0.26 -0.01    -0.021 A 
DOCKED: ATOM      7  C   UNL d   1      42.834  30.674  17.689 -0.35 -0.01    -0.025 A 
DOCKED: ATOM      8  C   UNL d   1      41.736  30.625  16.834 -0.34 +0.01    +0.066 A 
DOCKED: ATOM      9  C   UNL d   1      43.359  31.843  18.493 -0.41 +0.01    +0.051 C 
DOCKED: ATOM     10  C   UNL d   1      39.842  31.718  15.617 -0.36 +0.01    +0.066 A 
DOCKED: ATOM     11  C   UNL d   1      39.205  32.892  15.201 -0.42 -0.00    -0.021 A 
DOCKED: ATOM     12  C   UNL d   1      38.216  32.511  14.313 -0.40 +0.00    +0.000 A 
DOCKED: ATOM     13  C   UNL d   1      38.300  31.093  14.245 -0.36 +0.01    +0.070 A 
DOCKED: ATOM     14  C   UNL d   1      39.544  34.321  15.613 -0.53 +0.00    +0.052 C 
DOCKED: ATOM     15  C   UNL d   1      37.562  28.862  13.424 -0.38 +0.01    +0.066 A 
DOCKED: ATOM     16  C   UNL d   1      36.624  28.085  12.745 -0.51 -0.00    -0.021 A 
DOCKED: ATOM     17  C   UNL d   1      37.035  26.759  12.886 -0.48 +0.00    +0.000 A 
DOCKED: ATOM     18  C   UNL d   1      38.209  26.829  13.648 -0.38 +0.01    +0.070 A 
DOCKED: ATOM     19  C   UNL d   1      35.403  28.665  12.077 -0.65 +0.00    +0.052 C 
DOCKED: ATOM     20  C   UNL d   1      40.155  25.695  14.800 -0.41 +0.01    +0.066 A 
DOCKED: ATOM     21  C   UNL d   1      40.913  24.571  15.115 -0.46 -0.00    -0.025 A 
DOCKED: ATOM     22  C   UNL d   1      41.988  25.019  15.849 -0.33 -0.00    -0.021 A 
DOCKED: ATOM     23  C   UNL d   1      41.836  26.404  15.971 -0.35 +0.01    +0.066 A 
DOCKED: ATOM     24  C   UNL d   1      40.624  23.141  14.738 -0.47 +0.01    +0.051 C 
DOCKED: ATOM     25  N   UNL d   1      41.526  29.337  16.397 -0.21 -0.06    -0.248 N 
DOCKED: ATOM     26  N   UNL d   1      39.289  30.618  15.045 -0.10 -0.05    -0.248 N 
DOCKED: ATOM     27  N   UNL d   1      38.472  28.105  14.029 -0.21 -0.05    -0.248 N 
DOCKED: ATOM     28  N   UNL d   1      40.696  26.805  15.370 -0.27 -0.05    -0.248 N 
DOCKED: ATOM     29 FE   UNL d   1      39.995  28.696  15.207 -0.07 +0.00    +0.000 Fe
DOCKED: ATOM     30  O   UNL d   1      39.546  29.118  16.636 -0.73 +0.00    +0.000 OA
DOCKED: ATOM     31  O   UNL d   1      38.902  27.851  15.957 -0.84 +0.00    +0.000 OA
DOCKED: ENDROOT
DOCKED: BRANCH   6  32
DOCKED: ATOM     32  C   UNL d   1      44.525  28.971  18.565 -0.26 +0.02    +0.052 C 
DOCKED: BRANCH  32  33
DOCKED: ATOM     33  C   UNL d   1      44.128  28.756  20.023 -0.14 +0.10    +0.115 C 
DOCKED: BRANCH  33  34
DOCKED: ATOM     34  C   UNL d   1      44.067  27.295  20.393 -0.16 +0.14    +0.139 C 
DOCKED: ATOM     35  O   UNL d   1      43.783  26.974  21.536 -0.33 -1.19    -0.650 OA
DOCKED: BRANCH  34  36
DOCKED: ATOM     36  O   UNL d   1      44.348  26.329  19.494 +0.07 -0.46    -0.776 OA
DOCKED: ATOM     37  H   UNL d   1      43.744  25.598  19.324 +0.07 +0.08    +0.167 HD
DOCKED: ENDBRANCH  34  36
DOCKED: ENDBRANCH  33  34
DOCKED: ENDBRANCH  32  33
DOCKED: ENDBRANCH   6  32
DOCKED: BRANCH  22  38
DOCKED: ATOM     38  C   UNL d   1      43.063  24.152  16.452 -0.28 +0.01    +0.052 C 
DOCKED: BRANCH  38  39
DOCKED: ATOM     39  C   UNL d   1      42.524  23.233  17.546 -0.40 +0.02    +0.115 C 
DOCKED: BRANCH  39  40
DOCKED: ATOM     40  C   UNL d   1      42.660  23.835  18.923 -0.38 +0.04    +0.139 C 
DOCKED: ATOM     41  O   UNL d   1      41.793  24.581  19.346 -0.05 -0.15    -0.650 OA
DOCKED: BRANCH  40  42
DOCKED: ATOM     42  O   UNL d   1      43.701  23.522  19.718 -0.18 -0.32    -0.776 OA
DOCKED: ATOM     43  H   UNL d   1      44.324  24.193  20.022 +0.06 +0.08    +0.167 HD
DOCKED: ENDBRANCH  40  42
DOCKED: ENDBRANCH  39  40
DOCKED: ENDBRANCH  38  39
DOCKED: ENDBRANCH  22  38
DOCKED: BRANCH  12  44
DOCKED: ATOM     44  C   UNL d   1      37.310  33.519  13.638 -0.49 +0.00    +0.004 C 
DOCKED: ATOM     45  C   UNL d   1      36.458  33.311  12.635 -0.56 +0.00    +0.012 C 
DOCKED: ENDBRANCH  12  44
DOCKED: BRANCH  17  46
DOCKED: ATOM     46  C   UNL d   1      36.401  25.474  12.425 -0.64 +0.00    +0.004 C 
DOCKED: ATOM     47  C   UNL d   1      35.849  24.508  13.172 -0.72 +0.00    +0.012 C 
DOCKED: ENDBRANCH  17  46
DOCKED: TORSDOF 10
DOCKED: TER
DOCKED: ENDMDL
________________________________________________________________________________


	BEGINNING GENETIC ALGORITHM DOCKING 34 of 100
Run: 34 Seed: 1519641555 248102861 [ Run 34 of 100 GA/GALS ]
Beginning LAMARCKIAN GENETIC ALGORITHM (LGA), with a maximum of 25000000 energy evaluations.

Final-Value: -20.210


	FINAL GENETIC ALGORITHM DOCKED STATE
	_______________________________________________


Detailed state:  trans 41.206 28.506 15.806 quatxyzw -0.334988 0.395908 0.854761 -0.020588 center 8.287 34.468 -0.670 ntor 10 94.1881 37.6919 26.3692 -75.3432 158.5779 87.7036 -16.5341 23.8272 -139.3766 177.9241
State:	 41.206  28.506  15.806  -0.335  0.396  0.855 -177.641     94.19   37.69   26.37  -75.34  158.58   87.70  -16.53   23.83 -139.38  177.92

DOCKED: MODEL       34
DOCKED: USER    Run = 34
DOCKED: USER    DPF = D:/Protein_go_brrr/autodock/final/6BB5/heme_O2/dock.dpf
DOCKED: USER  
DOCKED: USER    Estimated Free Energy of Binding    =  -15.66 kcal/mol  [=(1)+(2)+(3)-(4)]
DOCKED: USER    Estimated Inhibition Constant, Ki   =    3.32 pM (picomolar)  [Temperature = 298.15 K]
DOCKED: USER    
DOCKED: USER    (1) Final Intermolecular Energy     =  -18.64 kcal/mol
DOCKED: USER        vdW + Hbond + desolv Energy     =  -16.55 kcal/mol
DOCKED: USER        Electrostatic Energy            =   -2.09 kcal/mol
DOCKED: USER    (2) Final Total Internal Energy     =   -1.57 kcal/mol
DOCKED: USER    (3) Torsional Free Energy           =   +2.98 kcal/mol
DOCKED: USER    (4) Unbound System's Energy  [=(2)] =   -1.57 kcal/mol
DOCKED: USER    
DOCKED: USER    
DOCKED: USER    NEWDPF move heme_O2_opt.pdbqt
DOCKED: USER    NEWDPF about 8.287000 34.468000 -0.670000
DOCKED: USER    NEWDPF tran0 41.205780 28.505798 15.805792
DOCKED: USER    NEWDPF quaternion0 -0.334988 0.395908 0.854761 -0.020588
DOCKED: USER    NEWDPF axisangle0 -0.335059 0.395992 0.854942 -177.640569
DOCKED: USER    NEWDPF quat0 -0.335059 0.395992 0.854942 -177.640569
DOCKED: USER    NEWDPF dihe0 94.19 37.69 26.37 -75.34 158.58 87.70 -16.53 23.83 -139.38 177.92 
DOCKED: USER  keepresnum = 1 
DOCKED: USER  
DOCKED: REMARK  10 active torsions:
DOCKED: REMARK  status: ('A' for Active; 'I' for Inactive)
DOCKED: REMARK    1  A    between atoms: C_6  and  C_10 
DOCKED: REMARK    2  A    between atoms: C_10  and  C_11 
DOCKED: REMARK    3  A    between atoms: C_11  and  C_12 
DOCKED: REMARK    4  A    between atoms: C_12  and  O_14 
DOCKED: REMARK    5  A    between atoms: C_17  and  C_20 
DOCKED: REMARK    6  A    between atoms: C_24  and  C_27 
DOCKED: REMARK    7  A    between atoms: C_31  and  C_34 
DOCKED: REMARK    8  A    between atoms: C_34  and  C_35 
DOCKED: REMARK    9  A    between atoms: C_35  and  C_36 
DOCKED: REMARK   10  A    between atoms: C_36  and  O_38 
DOCKED: USER                              x       y       z     vdW  Elec       q    Type
DOCKED: USER                           _______ _______ _______ _____ _____    ______ ____
DOCKED: ROOT
DOCKED: ATOM      1  C   UNL d   1      42.919  27.971  16.937 -0.23 +0.02    +0.064 A 
DOCKED: ATOM      2  C   UNL d   1      40.765  32.130  16.149 -0.40 +0.01    +0.064 A 
DOCKED: ATOM      3  C   UNL d   1      37.503  30.012  13.327 -0.40 +0.01    +0.064 C 
DOCKED: ATOM      4  C   UNL d   1      39.425  25.657  14.513 -0.39 +0.01    +0.064 A 
DOCKED: ATOM      5  C   UNL d   1      42.598  29.275  16.954 -0.27 +0.02    +0.066 A 
DOCKED: ATOM      6  C   UNL d   1      43.322  30.249  17.648 -0.32 -0.01    -0.021 A 
DOCKED: ATOM      7  C   UNL d   1      42.674  31.447  17.456 -0.38 -0.00    -0.025 A 
DOCKED: ATOM      8  C   UNL d   1      41.600  31.180  16.611 -0.35 +0.01    +0.066 A 
DOCKED: ATOM      9  C   UNL d   1      43.076  32.760  18.092 -0.44 +0.01    +0.051 C 
DOCKED: ATOM     10  C   UNL d   1      39.636  31.914  15.244 -0.37 +0.01    +0.066 A 
DOCKED: ATOM     11  C   UNL d   1      38.902  32.956  14.666 -0.40 -0.00    -0.021 A 
DOCKED: ATOM     12  C   UNL d   1      37.968  32.366  13.835 -0.40 +0.00    +0.000 A 
DOCKED: ATOM     13  C   UNL d   1      38.182  30.965  13.964 -0.37 +0.01    +0.070 A 
DOCKED: ATOM     14  C   UNL d   1      39.102  34.452  14.877 -0.52 +0.00    +0.052 C 
DOCKED: ATOM     15  C   UNL d   1      37.665  28.584  13.458 -0.38 +0.01    +0.066 A 
DOCKED: ATOM     16  C   UNL d   1      36.815  27.637  12.889 -0.48 -0.00    -0.021 A 
DOCKED: ATOM     17  C   UNL d   1      37.342  26.387  13.214 -0.46 +0.00    +0.000 A 
DOCKED: ATOM     18  C   UNL d   1      38.492  26.670  13.965 -0.38 +0.01    +0.070 A 
DOCKED: ATOM     19  C   UNL d   1      35.558  28.004  12.140 -0.65 +0.00    +0.052 C 
DOCKED: ATOM     20  C   UNL d   1      40.511  25.892  15.273 -0.40 +0.01    +0.066 A 
DOCKED: ATOM     21  C   UNL d   1      41.363  24.897  15.745 -0.41 -0.00    -0.025 A 
DOCKED: ATOM     22  C   UNL d   1      42.380  25.540  16.415 -0.34 -0.00    -0.021 A 
DOCKED: ATOM     23  C   UNL d   1      42.100  26.908  16.342 -0.33 +0.01    +0.066 A 
DOCKED: ATOM     24  C   UNL d   1      41.213  23.408  15.569 -0.53 +0.00    +0.051 C 
DOCKED: ATOM     25  N   UNL d   1      41.516  29.830  16.355 -0.21 -0.06    -0.248 N 
DOCKED: ATOM     26  N   UNL d   1      39.196  30.699  14.827 -0.18 -0.05    -0.248 N 
DOCKED: ATOM     27  N   UNL d   1      38.630  28.005  14.166 -0.21 -0.05    -0.248 N 
DOCKED: ATOM     28  N   UNL d   1      40.939  27.114  15.686 -0.26 -0.05    -0.248 N 
DOCKED: ATOM     29 FE   UNL d   1      40.072  28.892  15.259 -0.08 +0.00    +0.000 Fe
DOCKED: ATOM     30  O   UNL d   1      39.560  29.464  16.613 -0.67 +0.00    +0.000 OA
DOCKED: ATOM     31  O   UNL d   1      39.047  28.061  16.113 -0.95 +0.00    +0.000 OA
DOCKED: ENDROOT
DOCKED: BRANCH   6  32
DOCKED: ATOM     32  C   UNL d   1      44.497  30.046  18.568 -0.28 +0.02    +0.052 C 
DOCKED: BRANCH  32  33
DOCKED: ATOM     33  C   UNL d   1      44.198  29.073  19.705 -0.22 +0.08    +0.115 C 
DOCKED: BRANCH  33  34
DOCKED: ATOM     34  C   UNL d   1      45.452  28.526  20.339 -0.11 +0.14    +0.139 C 
DOCKED: ATOM     35  O   UNL d   1      46.538  28.983  20.020 -0.02 -0.46    -0.650 OA
DOCKED: BRANCH  34  36
DOCKED: ATOM     36  O   UNL d   1      45.406  27.519  21.236 -0.11 -1.49    -0.776 OA
DOCKED: ATOM     37  H   UNL d   1      45.521  26.598  20.977 +0.04 +0.21    +0.167 HD
DOCKED: ENDBRANCH  34  36
DOCKED: ENDBRANCH  33  34
DOCKED: ENDBRANCH  32  33
DOCKED: ENDBRANCH   6  32
DOCKED: BRANCH  22  38
DOCKED: ATOM     38  C   UNL d   1      43.518  24.867  17.138 -0.30 +0.02    +0.052 C 
DOCKED: BRANCH  38  39
DOCKED: ATOM     39  C   UNL d   1      43.113  24.364  18.521 -0.32 +0.03    +0.115 C 
DOCKED: BRANCH  39  40
DOCKED: ATOM     40  C   UNL d   1      44.295  24.200  19.444 -0.21 +0.06    +0.139 C 
DOCKED: ATOM     41  O   UNL d   1      44.468  23.141  20.026 -0.50 -0.31    -0.650 OA
DOCKED: BRANCH  40  42
DOCKED: ATOM     42  O   UNL d   1      45.198  25.187  19.600 +0.10 -0.42    -0.776 OA
DOCKED: ATOM     43  H   UNL d   1      44.930  26.112  19.659 +0.06 +0.10    +0.167 HD
DOCKED: ENDBRANCH  40  42
DOCKED: ENDBRANCH  39  40
DOCKED: ENDBRANCH  38  39
DOCKED: ENDBRANCH  22  38
DOCKED: BRANCH  12  44
DOCKED: ATOM     44  C   UNL d   1      36.986  33.183  13.022 -0.51 +0.00    +0.004 C 
DOCKED: ATOM     45  C   UNL d   1      35.817  32.791  12.516 -0.61 +0.00    +0.012 C 
DOCKED: ENDBRANCH  12  44
DOCKED: BRANCH  17  46
DOCKED: ATOM     46  C   UNL d   1      36.836  24.997  12.934 -0.66 +0.00    +0.004 C 
DOCKED: ATOM     47  C   UNL d   1      35.913  24.300  13.608 -0.72 +0.00    +0.012 C 
DOCKED: ENDBRANCH  17  46
DOCKED: TORSDOF 10
DOCKED: TER
DOCKED: ENDMDL
________________________________________________________________________________


	BEGINNING GENETIC ALGORITHM DOCKING 35 of 100
Run: 35 Seed: 1920544660 1783072741 [ Run 35 of 100 GA/GALS ]
Beginning LAMARCKIAN GENETIC ALGORITHM (LGA), with a maximum of 25000000 energy evaluations.

Final-Value: -13.908


	FINAL GENETIC ALGORITHM DOCKED STATE
	_______________________________________________


Detailed state:  trans 44.532 22.045 18.043 quatxyzw -0.242381 -0.935686 0.063668 0.248372 center 8.287 34.468 -0.670 ntor 10 -24.0522 -37.3699 -110.3341 3.4705 62.3970 -41.1955 151.8806 68.3377 -161.2430 -22.1156
State:	 44.532  22.045  18.043  -0.250 -0.966  0.066 151.238    -24.05  -37.37 -110.33    3.47   62.40  -41.20  151.88   68.34 -161.24  -22.12

DOCKED: MODEL       35
DOCKED: USER    Run = 35
DOCKED: USER    DPF = D:/Protein_go_brrr/autodock/final/6BB5/heme_O2/dock.dpf
DOCKED: USER  
DOCKED: USER    Estimated Free Energy of Binding    =  -10.16 kcal/mol  [=(1)+(2)+(3)-(4)]
DOCKED: USER    Estimated Inhibition Constant, Ki   =   35.76 nM (nanomolar)  [Temperature = 298.15 K]
DOCKED: USER    
DOCKED: USER    (1) Final Intermolecular Energy     =  -13.14 kcal/mol
DOCKED: USER        vdW + Hbond + desolv Energy     =   -9.12 kcal/mol
DOCKED: USER        Electrostatic Energy            =   -4.02 kcal/mol
DOCKED: USER    (2) Final Total Internal Energy     =   -0.77 kcal/mol
DOCKED: USER    (3) Torsional Free Energy           =   +2.98 kcal/mol
DOCKED: USER    (4) Unbound System's Energy  [=(2)] =   -0.77 kcal/mol
DOCKED: USER    
DOCKED: USER    
DOCKED: USER    NEWDPF move heme_O2_opt.pdbqt
DOCKED: USER    NEWDPF about 8.287000 34.468000 -0.670000
DOCKED: USER    NEWDPF tran0 44.532241 22.045469 18.043431
DOCKED: USER    NEWDPF quaternion0 -0.242381 -0.935686 0.063668 0.248372
DOCKED: USER    NEWDPF axisangle0 -0.250222 -0.965955 0.065728 151.237644
DOCKED: USER    NEWDPF quat0 -0.250222 -0.965955 0.065728 151.237644
DOCKED: USER    NEWDPF dihe0 -24.05 -37.37 -110.33 3.47 62.40 -41.20 151.88 68.34 -161.24 -22.12 
DOCKED: USER  keepresnum = 1 
DOCKED: USER  
DOCKED: REMARK  10 active torsions:
DOCKED: REMARK  status: ('A' for Active; 'I' for Inactive)
DOCKED: REMARK    1  A    between atoms: C_6  and  C_10 
DOCKED: REMARK    2  A    between atoms: C_10  and  C_11 
DOCKED: REMARK    3  A    between atoms: C_11  and  C_12 
DOCKED: REMARK    4  A    between atoms: C_12  and  O_14 
DOCKED: REMARK    5  A    between atoms: C_17  and  C_20 
DOCKED: REMARK    6  A    between atoms: C_24  and  C_27 
DOCKED: REMARK    7  A    between atoms: C_31  and  C_34 
DOCKED: REMARK    8  A    between atoms: C_34  and  C_35 
DOCKED: REMARK    9  A    between atoms: C_35  and  C_36 
DOCKED: REMARK   10  A    between atoms: C_36  and  O_38 
DOCKED: USER                              x       y       z     vdW  Elec       q    Type
DOCKED: USER                           _______ _______ _______ _____ _____    ______ ____
DOCKED: ROOT
DOCKED: ATOM      1  C   UNL d   1      45.897  21.974  19.666 -0.06 +0.03    +0.064 A 
DOCKED: ATOM      2  C   UNL d   1      45.290  19.198  15.860 -0.13 +0.03    +0.064 A 
DOCKED: ATOM      3  C   UNL d   1      41.599  21.890  14.370 -0.19 +0.00    +0.064 C 
DOCKED: ATOM      4  C   UNL d   1      42.517  25.029  18.026 -0.32 +0.02    +0.064 A 
DOCKED: ATOM      5  C   UNL d   1      46.034  21.001  18.752 -0.09 +0.03    +0.066 A 
DOCKED: ATOM      6  C   UNL d   1      46.990  19.983  18.829 -0.12 -0.01    -0.021 A 
DOCKED: ATOM      7  C   UNL d   1      46.843  19.204  17.706 -0.11 -0.01    -0.025 A 
DOCKED: ATOM      8  C   UNL d   1      45.771  19.738  16.997 -0.15 +0.03    +0.066 A 
DOCKED: ATOM      9  C   UNL d   1      47.727  18.029  17.346 -0.05 +0.03    +0.051 C 
DOCKED: ATOM     10  C   UNL d   1      44.155  19.700  15.086 -0.19 +0.02    +0.066 A 
DOCKED: ATOM     11  C   UNL d   1      43.595  19.009  14.005 -0.21 -0.01    -0.021 A 
DOCKED: ATOM     12  C   UNL d   1      42.518  19.761  13.573 -0.39 +0.00    +0.000 A 
DOCKED: ATOM     13  C   UNL d   1      42.488  20.899  14.425 -0.30 +0.01    +0.070 A 
DOCKED: ATOM     14  C   UNL d   1      44.051  17.675  13.427 -0.11 +0.01    +0.052 C 
DOCKED: ATOM     15  C   UNL d   1      41.556  23.076  15.191 -0.40 +0.01    +0.066 A 
DOCKED: ATOM     16  C   UNL d   1      40.699  24.155  14.977 -0.50 -0.00    -0.021 A 
DOCKED: ATOM     17  C   UNL d   1      40.944  25.063  16.007 -0.38 +0.00    +0.000 A 
DOCKED: ATOM     18  C   UNL d   1      41.943  24.461  16.784 -0.35 +0.01    +0.070 A 
DOCKED: ATOM     19  C   UNL d   1      39.774  24.247  13.790 -0.57 +0.01    +0.052 C 
DOCKED: ATOM     20  C   UNL d   1      43.506  24.498  18.771 -0.27 +0.02    +0.066 A 
DOCKED: ATOM     21  C   UNL d   1      43.994  25.071  19.943 -0.25 -0.01    -0.025 A 
DOCKED: ATOM     22  C   UNL d   1      44.939  24.201  20.438 -0.18 -0.01    -0.021 A 
DOCKED: ATOM     23  C   UNL d   1      45.006  23.134  19.538 -0.15 +0.03    +0.066 A 
DOCKED: ATOM     24  C   UNL d   1      43.582  26.384  20.556 -0.27 +0.04    +0.051 C 
DOCKED: ATOM     25  N   UNL d   1      45.315  20.883  17.608 -0.11 -0.11    -0.248 N 
DOCKED: ATOM     26  N   UNL d   1      43.490  20.856  15.340 -0.14 -0.06    -0.248 N 
DOCKED: ATOM     27  N   UNL d   1      42.355  23.291  16.232 -0.23 -0.04    -0.248 N 
DOCKED: ATOM     28  N   UNL d   1      44.166  23.340  18.503 -0.14 -0.09    -0.248 N 
DOCKED: ATOM     29 FE   UNL d   1      43.829  22.109  16.932 -0.07 +0.00    +0.000 Fe
DOCKED: ATOM     30  O   UNL d   1      45.120  22.149  16.063 +0.10 +0.00    +0.000 OA
DOCKED: ATOM     31  O   UNL d   1      44.334  23.482  16.355 -0.15 +0.00    +0.000 OA
DOCKED: ENDROOT
DOCKED: BRANCH   6  32
DOCKED: ATOM     32  C   UNL d   1      48.089  19.825  19.847 -0.06 +0.02    +0.052 C 
DOCKED: BRANCH  32  33
DOCKED: ATOM     33  C   UNL d   1      49.271  20.756  19.591 -0.03 +0.06    +0.115 C 
DOCKED: BRANCH  33  34
DOCKED: ATOM     34  C   UNL d   1      49.457  21.060  18.125 -0.03 +0.16    +0.139 C 
DOCKED: ATOM     35  O   UNL d   1      50.152  20.326  17.441 -0.23 -0.98    -0.650 OA
DOCKED: BRANCH  34  36
DOCKED: ATOM     36  O   UNL d   1      48.894  22.145  17.555 -0.19 -1.35    -0.776 OA
DOCKED: ATOM     37  H   UNL d   1      48.113  22.570  17.927 +0.02 +0.18    +0.167 HD
DOCKED: ENDBRANCH  34  36
DOCKED: ENDBRANCH  33  34
DOCKED: ENDBRANCH  32  33
DOCKED: ENDBRANCH   6  32
DOCKED: BRANCH  22  38
DOCKED: ATOM     38  C   UNL d   1      45.773  24.420  21.674 -0.13 +0.04    +0.052 C 
DOCKED: BRANCH  38  39
DOCKED: ATOM     39  C   UNL d   1      45.008  24.099  22.957 -0.18 +0.08    +0.115 C 
DOCKED: BRANCH  39  40
DOCKED: ATOM     40  C   UNL d   1      44.745  25.327  23.793 +0.03 +0.21    +0.139 C 
DOCKED: ATOM     41  O   UNL d   1      43.632  25.828  23.801 -0.15 -1.15    -0.650 OA
DOCKED: BRANCH  40  42
DOCKED: ATOM     42  O   UNL d   1      45.706  25.854  24.576 -0.03 -1.42    -0.776 OA
DOCKED: ATOM     43  H   UNL d   1      46.356  25.297  25.022 +0.02 +0.16    +0.167 HD
DOCKED: ENDBRANCH  40  42
DOCKED: ENDBRANCH  39  40
DOCKED: ENDBRANCH  38  39
DOCKED: ENDBRANCH  22  38
DOCKED: BRANCH  12  44
DOCKED: ATOM     44  C   UNL d   1      41.648  19.325  12.412 -0.40 +0.00    +0.004 C 
DOCKED: ATOM     45  C   UNL d   1      40.853  18.259  12.340 -0.42 +0.00    +0.012 C 
DOCKED: ENDBRANCH  12  44
DOCKED: BRANCH  17  46
DOCKED: ATOM     46  C   UNL d   1      40.373  26.430  16.275 -0.40 +0.00    +0.004 C 
DOCKED: ATOM     47  C   UNL d   1      39.511  27.130  15.526 -0.45 +0.00    +0.012 C 
DOCKED: ENDBRANCH  17  46
DOCKED: TORSDOF 10
DOCKED: TER
DOCKED: ENDMDL
________________________________________________________________________________


	BEGINNING GENETIC ALGORITHM DOCKING 36 of 100
Run: 36 Seed: 2095297945 1720836222 [ Run 36 of 100 GA/GALS ]
Beginning LAMARCKIAN GENETIC ALGORITHM (LGA), with a maximum of 25000000 energy evaluations.

Final-Value: -19.929


	FINAL GENETIC ALGORITHM DOCKED STATE
	_______________________________________________


Detailed state:  trans 41.006 28.253 15.715 quatxyzw 0.326192 -0.381379 -0.862078 0.070505 center 8.287 34.468 -0.670 ntor 10 105.3499 -59.3687 19.8659 -104.8378 -144.1474 -139.6365 -35.3287 4.5736 -173.9670 142.2274
State:	 41.006  28.253  15.715   0.327 -0.382 -0.864 171.914    105.35  -59.37   19.87 -104.84 -144.15 -139.64  -35.33    4.57 -173.97  142.23

DOCKED: MODEL       36
DOCKED: USER    Run = 36
DOCKED: USER    DPF = D:/Protein_go_brrr/autodock/final/6BB5/heme_O2/dock.dpf
DOCKED: USER  
DOCKED: USER    Estimated Free Energy of Binding    =  -15.34 kcal/mol  [=(1)+(2)+(3)-(4)]
DOCKED: USER    Estimated Inhibition Constant, Ki   =    5.69 pM (picomolar)  [Temperature = 298.15 K]
DOCKED: USER    
DOCKED: USER    (1) Final Intermolecular Energy     =  -18.32 kcal/mol
DOCKED: USER        vdW + Hbond + desolv Energy     =  -16.22 kcal/mol
DOCKED: USER        Electrostatic Energy            =   -2.10 kcal/mol
DOCKED: USER    (2) Final Total Internal Energy     =   -1.61 kcal/mol
DOCKED: USER    (3) Torsional Free Energy           =   +2.98 kcal/mol
DOCKED: USER    (4) Unbound System's Energy  [=(2)] =   -1.61 kcal/mol
DOCKED: USER    
DOCKED: USER    
DOCKED: USER    NEWDPF move heme_O2_opt.pdbqt
DOCKED: USER    NEWDPF about 8.287000 34.468000 -0.670000
DOCKED: USER    NEWDPF tran0 41.006444 28.253343 15.714894
DOCKED: USER    NEWDPF quaternion0 0.326192 -0.381379 -0.862078 0.070505
DOCKED: USER    NEWDPF axisangle0 0.327005 -0.382330 -0.864229 171.913957
DOCKED: USER    NEWDPF quat0 0.327005 -0.382330 -0.864229 171.913957
DOCKED: USER    NEWDPF dihe0 105.35 -59.37 19.87 -104.84 -144.15 -139.64 -35.33 4.57 -173.97 142.23 
DOCKED: USER  keepresnum = 1 
DOCKED: USER  
DOCKED: REMARK  10 active torsions:
DOCKED: REMARK  status: ('A' for Active; 'I' for Inactive)
DOCKED: REMARK    1  A    between atoms: C_6  and  C_10 
DOCKED: REMARK    2  A    between atoms: C_10  and  C_11 
DOCKED: REMARK    3  A    between atoms: C_11  and  C_12 
DOCKED: REMARK    4  A    between atoms: C_12  and  O_14 
DOCKED: REMARK    5  A    between atoms: C_17  and  C_20 
DOCKED: REMARK    6  A    between atoms: C_24  and  C_27 
DOCKED: REMARK    7  A    between atoms: C_31  and  C_34 
DOCKED: REMARK    8  A    between atoms: C_34  and  C_35 
DOCKED: REMARK    9  A    between atoms: C_35  and  C_36 
DOCKED: REMARK   10  A    between atoms: C_36  and  O_38 
DOCKED: USER                              x       y       z     vdW  Elec       q    Type
DOCKED: USER                           _______ _______ _______ _____ _____    ______ ____
DOCKED: ROOT
DOCKED: ATOM      1  C   UNL d   1      42.644  27.508  16.838 -0.23 +0.02    +0.064 A 
DOCKED: ATOM      2  C   UNL d   1      40.855  31.873  16.286 -0.40 +0.01    +0.064 A 
DOCKED: ATOM      3  C   UNL d   1      37.496  30.216  13.275 -0.39 +0.01    +0.064 C 
DOCKED: ATOM      4  C   UNL d   1      39.029  25.650  14.208 -0.41 +0.01    +0.064 A 
DOCKED: ATOM      5  C   UNL d   1      42.430  28.830  16.935 -0.16 +0.02    +0.066 A 
DOCKED: ATOM      6  C   UNL d   1      43.215  29.695  17.703 -0.29 -0.01    -0.021 A 
DOCKED: ATOM      7  C   UNL d   1      42.672  30.952  17.579 -0.37 -0.01    -0.025 A 
DOCKED: ATOM      8  C   UNL d   1      41.599  30.829  16.699 -0.34 +0.01    +0.066 A 
DOCKED: ATOM      9  C   UNL d   1      43.164  32.184  18.306 -0.43 +0.01    +0.051 C 
DOCKED: ATOM     10  C   UNL d   1      39.733  31.808  15.349 -0.36 +0.01    +0.066 A 
DOCKED: ATOM     11  C   UNL d   1      39.100  32.942  14.827 -0.41 -0.00    -0.021 A 
DOCKED: ATOM     12  C   UNL d   1      38.140  32.486  13.943 -0.40 +0.00    +0.000 A 
DOCKED: ATOM     13  C   UNL d   1      38.236  31.067  13.985 -0.37 +0.01    +0.070 A 
DOCKED: ATOM     14  C   UNL d   1      39.416  34.401  15.139 -0.54 +0.00    +0.052 C 
DOCKED: ATOM     15  C   UNL d   1      37.538  28.774  13.315 -0.39 +0.01    +0.066 A 
DOCKED: ATOM     16  C   UNL d   1      36.627  27.938  12.671 -0.52 -0.00    -0.021 A 
DOCKED: ATOM     17  C   UNL d   1      37.043  26.631  12.923 -0.47 +0.00    +0.000 A 
DOCKED: ATOM     18  C   UNL d   1      38.194  26.769  13.712 -0.38 +0.01    +0.070 A 
DOCKED: ATOM     19  C   UNL d   1      35.421  28.454  11.926 -0.64 +0.00    +0.052 C 
DOCKED: ATOM     20  C   UNL d   1      40.114  25.745  15.001 -0.38 +0.01    +0.066 A 
DOCKED: ATOM     21  C   UNL d   1      40.871  24.655  15.422 -0.45 -0.00    -0.025 A 
DOCKED: ATOM     22  C   UNL d   1      41.921  25.168  16.150 -0.36 -0.00    -0.021 A 
DOCKED: ATOM     23  C   UNL d   1      41.755  26.556  16.162 -0.35 +0.01    +0.066 A 
DOCKED: ATOM     24  C   UNL d   1      40.603  23.198  15.146 -0.50 +0.00    +0.051 C 
DOCKED: ATOM     25  N   UNL d   1      41.411  29.510  16.355 -0.22 -0.06    -0.248 N 
DOCKED: ATOM     26  N   UNL d   1      39.205  30.664  14.846 -0.17 -0.05    -0.248 N 
DOCKED: ATOM     27  N   UNL d   1      38.437  28.073  14.002 -0.21 -0.05    -0.248 N 
DOCKED: ATOM     28  N   UNL d   1      40.630  26.899  15.500 -0.27 -0.05    -0.248 N 
DOCKED: ATOM     29 FE   UNL d   1      39.920  28.766  15.174 -0.06 +0.00    +0.000 Fe
DOCKED: ATOM     30  O   UNL d   1      39.426  29.291  16.554 -0.73 +0.00    +0.000 OA
DOCKED: ATOM     31  O   UNL d   1      38.812  27.970  15.955 -0.83 +0.00    +0.000 OA
DOCKED: ENDROOT
DOCKED: BRANCH   6  32
DOCKED: ATOM     32  C   UNL d   1      44.348  29.337  18.629 -0.28 +0.02    +0.052 C 
DOCKED: BRANCH  32  33
DOCKED: ATOM     33  C   UNL d   1      43.884  29.072  20.058 +0.06 +0.09    +0.115 C 
DOCKED: BRANCH  33  34
DOCKED: ATOM     34  C   UNL d   1      44.647  27.945  20.711 -0.05 +0.19    +0.139 C 
DOCKED: ATOM     35  O   UNL d   1      45.842  28.070  20.923 -0.36 -0.98    -0.650 OA
DOCKED: BRANCH  34  36
DOCKED: ATOM     36  O   UNL d   1      44.042  26.786  21.042 -0.16 -1.04    -0.776 OA
DOCKED: ATOM     37  H   UNL d   1      44.177  25.976  20.536 +0.06 +0.14    +0.167 HD
DOCKED: ENDBRANCH  34  36
DOCKED: ENDBRANCH  33  34
DOCKED: ENDBRANCH  32  33
DOCKED: ENDBRANCH   6  32
DOCKED: BRANCH  22  38
DOCKED: ATOM     38  C   UNL d   1      42.984  24.359  16.847 -0.33 +0.01    +0.052 C 
DOCKED: BRANCH  38  39
DOCKED: ATOM     39  C   UNL d   1      42.944  24.530  18.364 -0.33 +0.03    +0.115 C 
DOCKED: BRANCH  39  40
DOCKED: ATOM     40  C   UNL d   1      44.059  23.786  19.057 -0.23 +0.05    +0.139 C 
DOCKED: ATOM     41  O   UNL d   1      44.912  23.218  18.395 +0.01 -0.27    -0.650 OA
DOCKED: BRANCH  40  42
DOCKED: ATOM     42  O   UNL d   1      44.161  23.780  20.400 -0.18 -0.38    -0.776 OA
DOCKED: ATOM     43  H   UNL d   1      44.221  24.599  20.906 +0.06 +0.10    +0.167 HD
DOCKED: ENDBRANCH  40  42
DOCKED: ENDBRANCH  39  40
DOCKED: ENDBRANCH  38  39
DOCKED: ENDBRANCH  22  38
DOCKED: BRANCH  12  44
DOCKED: ATOM     44  C   UNL d   1      37.247  33.431  13.168 -0.47 +0.00    +0.004 C 
DOCKED: ATOM     45  C   UNL d   1      36.120  33.144  12.517 -0.59 +0.00    +0.012 C 
DOCKED: ENDBRANCH  12  44
DOCKED: BRANCH  17  46
DOCKED: ATOM     46  C   UNL d   1      36.432  25.308  12.544 -0.67 +0.00    +0.004 C 
DOCKED: ATOM     47  C   UNL d   1      35.871  24.394  13.346 -0.72 +0.00    +0.012 C 
DOCKED: ENDBRANCH  17  46
DOCKED: TORSDOF 10
DOCKED: TER
DOCKED: ENDMDL
________________________________________________________________________________


	BEGINNING GENETIC ALGORITHM DOCKING 37 of 100
Run: 37 Seed: 436591312 1987805791 [ Run 37 of 100 GA/GALS ]
Beginning LAMARCKIAN GENETIC ALGORITHM (LGA), with a maximum of 25000000 energy evaluations.

Final-Value: -19.971


	FINAL GENETIC ALGORITHM DOCKED STATE
	_______________________________________________


Detailed state:  trans 41.215 28.358 15.785 quatxyzw 0.346673 -0.386344 -0.854558 0.016908 center 8.287 34.468 -0.670 ntor 10 -88.7445 -62.9582 30.7296 -49.0984 -89.9587 -16.7798 -33.1665 3.1629 -138.5164 2.2903
State:	 41.215  28.358  15.785   0.347 -0.386 -0.855 178.062    -88.74  -62.96   30.73  -49.10  -89.96  -16.78  -33.17    3.16 -138.52    2.29

DOCKED: MODEL       37
DOCKED: USER    Run = 37
DOCKED: USER    DPF = D:/Protein_go_brrr/autodock/final/6BB5/heme_O2/dock.dpf
DOCKED: USER  
DOCKED: USER    Estimated Free Energy of Binding    =  -15.36 kcal/mol  [=(1)+(2)+(3)-(4)]
DOCKED: USER    Estimated Inhibition Constant, Ki   =    5.47 pM (picomolar)  [Temperature = 298.15 K]
DOCKED: USER    
DOCKED: USER    (1) Final Intermolecular Energy     =  -18.35 kcal/mol
DOCKED: USER        vdW + Hbond + desolv Energy     =  -16.13 kcal/mol
DOCKED: USER        Electrostatic Energy            =   -2.22 kcal/mol
DOCKED: USER    (2) Final Total Internal Energy     =   -1.62 kcal/mol
DOCKED: USER    (3) Torsional Free Energy           =   +2.98 kcal/mol
DOCKED: USER    (4) Unbound System's Energy  [=(2)] =   -1.62 kcal/mol
DOCKED: USER    
DOCKED: USER    
DOCKED: USER    NEWDPF move heme_O2_opt.pdbqt
DOCKED: USER    NEWDPF about 8.287000 34.468000 -0.670000
DOCKED: USER    NEWDPF tran0 41.215124 28.358158 15.784943
DOCKED: USER    NEWDPF quaternion0 0.346673 -0.386344 -0.854558 0.016908
DOCKED: USER    NEWDPF axisangle0 0.346723 -0.386399 -0.854681 178.062387
DOCKED: USER    NEWDPF quat0 0.346723 -0.386399 -0.854681 178.062387
DOCKED: USER    NEWDPF dihe0 -88.74 -62.96 30.73 -49.10 -89.96 -16.78 -33.17 3.16 -138.52 2.29 
DOCKED: USER  keepresnum = 1 
DOCKED: USER  
DOCKED: REMARK  10 active torsions:
DOCKED: REMARK  status: ('A' for Active; 'I' for Inactive)
DOCKED: REMARK    1  A    between atoms: C_6  and  C_10 
DOCKED: REMARK    2  A    between atoms: C_10  and  C_11 
DOCKED: REMARK    3  A    between atoms: C_11  and  C_12 
DOCKED: REMARK    4  A    between atoms: C_12  and  O_14 
DOCKED: REMARK    5  A    between atoms: C_17  and  C_20 
DOCKED: REMARK    6  A    between atoms: C_24  and  C_27 
DOCKED: REMARK    7  A    between atoms: C_31  and  C_34 
DOCKED: REMARK    8  A    between atoms: C_34  and  C_35 
DOCKED: REMARK    9  A    between atoms: C_35  and  C_36 
DOCKED: REMARK   10  A    between atoms: C_36  and  O_38 
DOCKED: USER                              x       y       z     vdW  Elec       q    Type
DOCKED: USER                           _______ _______ _______ _____ _____    ______ ____
DOCKED: ROOT
DOCKED: ATOM      1  C   UNL d   1      42.919  27.845  16.939 -0.23 +0.02    +0.064 A 
DOCKED: ATOM      2  C   UNL d   1      40.689  31.967  16.168 -0.39 +0.01    +0.064 A 
DOCKED: ATOM      3  C   UNL d   1      37.524  29.817  13.261 -0.42 +0.01    +0.064 C 
DOCKED: ATOM      4  C   UNL d   1      39.520  25.489  14.423 -0.41 +0.01    +0.064 A 
DOCKED: ATOM      5  C   UNL d   1      42.570  29.142  16.968 -0.25 +0.02    +0.066 A 
DOCKED: ATOM      6  C   UNL d   1      43.259  30.123  17.687 -0.32 -0.01    -0.021 A 
DOCKED: ATOM      7  C   UNL d   1      42.589  31.309  17.499 -0.39 -0.00    -0.025 A 
DOCKED: ATOM      8  C   UNL d   1      41.537  31.029  16.632 -0.35 +0.01    +0.066 A 
DOCKED: ATOM      9  C   UNL d   1      42.951  32.621  18.159 -0.45 +0.01    +0.051 C 
DOCKED: ATOM     10  C   UNL d   1      39.581  31.738  15.239 -0.36 +0.01    +0.066 A 
DOCKED: ATOM     11  C   UNL d   1      38.834  32.772  14.663 -0.40 -0.00    -0.021 A 
DOCKED: ATOM     12  C   UNL d   1      37.928  32.173  13.807 -0.41 +0.00    +0.000 A 
DOCKED: ATOM     13  C   UNL d   1      38.171  30.776  13.923 -0.37 +0.01    +0.070 A 
DOCKED: ATOM     14  C   UNL d   1      38.997  34.269  14.897 -0.51 +0.00    +0.052 C 
DOCKED: ATOM     15  C   UNL d   1      37.715  28.391  13.375 -0.39 +0.01    +0.066 A 
DOCKED: ATOM     16  C   UNL d   1      36.896  27.433  12.779 -0.48 -0.00    -0.021 A 
DOCKED: ATOM     17  C   UNL d   1      37.445  26.191  13.098 -0.47 +0.00    +0.000 A 
DOCKED: ATOM     18  C   UNL d   1      38.575  26.489  13.873 -0.39 +0.01    +0.070 A 
DOCKED: ATOM     19  C   UNL d   1      35.644  27.782  12.014 -0.65 +0.00    +0.052 C 
DOCKED: ATOM     20  C   UNL d   1      40.588  25.737  15.206 -0.40 +0.01    +0.066 A 
DOCKED: ATOM     21  C   UNL d   1      41.453  24.755  15.680 -0.40 -0.00    -0.025 A 
DOCKED: ATOM     22  C   UNL d   1      42.443  25.410  16.376 -0.33 -0.00    -0.021 A 
DOCKED: ATOM     23  C   UNL d   1      42.135  26.773  16.317 -0.33 +0.01    +0.066 A 
DOCKED: ATOM     24  C   UNL d   1      41.339  23.265  15.481 -0.53 +0.00    +0.051 C 
DOCKED: ATOM     25  N   UNL d   1      41.487  29.682  16.357 -0.21 -0.06    -0.248 N 
DOCKED: ATOM     26  N   UNL d   1      39.175  30.520  14.799 -0.12 -0.06    -0.248 N 
DOCKED: ATOM     27  N   UNL d   1      38.680  27.824  14.094 -0.20 -0.05    -0.248 N 
DOCKED: ATOM     28  N   UNL d   1      40.982  26.963  15.643 -0.27 -0.05    -0.248 N 
DOCKED: ATOM     29 FE   UNL d   1      40.082  28.727  15.223 -0.07 +0.00    +0.000 Fe
DOCKED: ATOM     30  O   UNL d   1      39.535  29.269  16.575 -0.73 +0.00    +0.000 OA
DOCKED: ATOM     31  O   UNL d   1      39.061  27.862  16.048 -0.90 +0.00    +0.000 OA
DOCKED: ENDROOT
DOCKED: BRANCH   6  32
DOCKED: ATOM     32  C   UNL d   1      44.423  29.932  18.625 -0.29 +0.02    +0.052 C 
DOCKED: BRANCH  32  33
DOCKED: ATOM     33  C   UNL d   1      44.132  28.922  19.731 -0.22 +0.08    +0.115 C 
DOCKED: BRANCH  33  34
DOCKED: ATOM     34  C   UNL d   1      45.348  28.108  20.101 -0.18 +0.13    +0.139 C 
DOCKED: ATOM     35  O   UNL d   1      45.786  28.161  21.239 -0.30 -1.23    -0.650 OA
DOCKED: BRANCH  34  36
DOCKED: ATOM     36  O   UNL d   1      45.984  27.341  19.191 +0.06 -0.45    -0.776 OA
DOCKED: ATOM     37  H   UNL d   1      45.728  26.426  19.027 +0.05 +0.09    +0.167 HD
DOCKED: ENDBRANCH  34  36
DOCKED: ENDBRANCH  33  34
DOCKED: ENDBRANCH  32  33
DOCKED: ENDBRANCH   6  32
DOCKED: BRANCH  22  38
DOCKED: ATOM     38  C   UNL d   1      43.584  24.753  17.110 -0.29 +0.02    +0.052 C 
DOCKED: BRANCH  38  39
DOCKED: ATOM     39  C   UNL d   1      44.906  24.870  16.355 -0.15 +0.05    +0.115 C 
DOCKED: BRANCH  39  40
DOCKED: ATOM     40  C   UNL d   1      46.039  24.171  17.064 -0.19 +0.08    +0.139 C 
DOCKED: ATOM     41  O   UNL d   1      46.726  23.363  16.460 -0.09 -0.60    -0.650 OA
DOCKED: BRANCH  40  42
DOCKED: ATOM     42  O   UNL d   1      46.341  24.461  18.345 +0.08 -0.40    -0.776 OA
DOCKED: ATOM     43  H   UNL d   1      46.603  25.349  18.613 +0.04 +0.08    +0.167 HD
DOCKED: ENDBRANCH  40  42
DOCKED: ENDBRANCH  39  40
DOCKED: ENDBRANCH  38  39
DOCKED: ENDBRANCH  22  38
DOCKED: BRANCH  12  44
DOCKED: ATOM     44  C   UNL d   1      36.943  32.979  12.988 -0.51 +0.00    +0.004 C 
DOCKED: ATOM     45  C   UNL d   1      35.755  32.592  12.523 -0.61 +0.00    +0.012 C 
DOCKED: ENDBRANCH  12  44
DOCKED: BRANCH  17  46
DOCKED: ATOM     46  C   UNL d   1      36.975  24.794  12.790 -0.67 +0.00    +0.004 C 
DOCKED: ATOM     47  C   UNL d   1      35.792  24.236  13.078 -0.74 +0.00    +0.012 C 
DOCKED: ENDBRANCH  17  46
DOCKED: TORSDOF 10
DOCKED: TER
DOCKED: ENDMDL
________________________________________________________________________________


	BEGINNING GENETIC ALGORITHM DOCKING 38 of 100
Run: 38 Seed: 1079404202 2122487664 [ Run 38 of 100 GA/GALS ]
Beginning LAMARCKIAN GENETIC ALGORITHM (LGA), with a maximum of 25000000 energy evaluations.

Final-Value: -19.473


	FINAL GENETIC ALGORITHM DOCKED STATE
	_______________________________________________


Detailed state:  trans 8.216 34.741 -1.024 quatxyzw 0.016816 0.032011 0.015278 0.999229 center 8.287 34.468 -0.670 ntor 10 -139.4157 140.6586 -17.8539 -58.0996 -21.4769 -47.4370 -68.7906 107.9859 -177.2461 -167.0304
State:	  8.216  34.741  -1.024   0.428  0.815  0.389  4.499   -139.42  140.66  -17.85  -58.10  -21.48  -47.44  -68.79  107.99 -177.25 -167.03

DOCKED: MODEL       38
DOCKED: USER    Run = 38
DOCKED: USER    DPF = D:/Protein_go_brrr/autodock/final/6BB5/heme_O2/dock.dpf
DOCKED: USER  
DOCKED: USER    Estimated Free Energy of Binding    =  -14.36 kcal/mol  [=(1)+(2)+(3)-(4)]
DOCKED: USER    Estimated Inhibition Constant, Ki   =   29.59 pM (picomolar)  [Temperature = 298.15 K]
DOCKED: USER    
DOCKED: USER    (1) Final Intermolecular Energy     =  -17.35 kcal/mol
DOCKED: USER        vdW + Hbond + desolv Energy     =  -16.01 kcal/mol
DOCKED: USER        Electrostatic Energy            =   -1.34 kcal/mol
DOCKED: USER    (2) Final Total Internal Energy     =   -2.13 kcal/mol
DOCKED: USER    (3) Torsional Free Energy           =   +2.98 kcal/mol
DOCKED: USER    (4) Unbound System's Energy  [=(2)] =   -2.13 kcal/mol
DOCKED: USER    
DOCKED: USER    
DOCKED: USER    NEWDPF move heme_O2_opt.pdbqt
DOCKED: USER    NEWDPF about 8.287000 34.468000 -0.670000
DOCKED: USER    NEWDPF tran0 8.216176 34.740742 -1.024128
DOCKED: USER    NEWDPF quaternion0 0.016816 0.032011 0.015278 0.999229
DOCKED: USER    NEWDPF axisangle0 0.428395 0.815469 0.389213 4.499378
DOCKED: USER    NEWDPF quat0 0.428395 0.815469 0.389213 4.499378
DOCKED: USER    NEWDPF dihe0 -139.42 140.66 -17.85 -58.10 -21.48 -47.44 -68.79 107.99 -177.25 -167.03 
DOCKED: USER  keepresnum = 1 
DOCKED: USER  
DOCKED: REMARK  10 active torsions:
DOCKED: REMARK  status: ('A' for Active; 'I' for Inactive)
DOCKED: REMARK    1  A    between atoms: C_6  and  C_10 
DOCKED: REMARK    2  A    between atoms: C_10  and  C_11 
DOCKED: REMARK    3  A    between atoms: C_11  and  C_12 
DOCKED: REMARK    4  A    between atoms: C_12  and  O_14 
DOCKED: REMARK    5  A    between atoms: C_17  and  C_20 
DOCKED: REMARK    6  A    between atoms: C_24  and  C_27 
DOCKED: REMARK    7  A    between atoms: C_31  and  C_34 
DOCKED: REMARK    8  A    between atoms: C_34  and  C_35 
DOCKED: REMARK    9  A    between atoms: C_35  and  C_36 
DOCKED: REMARK   10  A    between atoms: C_36  and  O_38 
DOCKED: USER                              x       y       z     vdW  Elec       q    Type
DOCKED: USER                           _______ _______ _______ _____ _____    ______ ____
DOCKED: ROOT
DOCKED: ATOM      1  C   UNL d   1       6.421  35.370  -1.962 -0.19 +0.01    +0.064 A 
DOCKED: ATOM      2  C   UNL d   1       7.271  32.739   1.900 -0.38 +0.01    +0.064 A 
DOCKED: ATOM      3  C   UNL d   1      12.015  33.129   1.234 -0.42 +0.00    +0.064 C 
DOCKED: ATOM      4  C   UNL d   1      11.158  36.233  -2.467 -0.44 +0.00    +0.064 A 
DOCKED: ATOM      5  C   UNL d   1       6.265  34.624  -0.856 -0.25 +0.01    +0.066 A 
DOCKED: ATOM      6  C   UNL d   1       5.024  34.254  -0.330 -0.27 -0.00    -0.021 A 
DOCKED: ATOM      7  C   UNL d   1       5.269  33.529   0.813 -0.33 -0.00    -0.025 A 
DOCKED: ATOM      8  C   UNL d   1       6.653  33.434   0.926 -0.33 +0.01    +0.066 A 
DOCKED: ATOM      9  C   UNL d   1       4.202  32.993   1.743 -0.37 +0.01    +0.051 C 
DOCKED: ATOM     10  C   UNL d   1       8.718  32.585   2.057 -0.35 +0.00    +0.066 A 
DOCKED: ATOM     11  C   UNL d   1       9.303  31.719   2.988 -0.45 -0.00    -0.021 A 
DOCKED: ATOM     12  C   UNL d   1      10.670  31.804   2.799 -0.43 +0.00    +0.000 A 
DOCKED: ATOM     13  C   UNL d   1      10.846  32.747   1.749 -0.37 +0.00    +0.070 A 
DOCKED: ATOM     14  C   UNL d   1       8.587  30.828   3.996 -0.57 +0.00    +0.052 C 
DOCKED: ATOM     15  C   UNL d   1      12.237  34.106   0.195 -0.36 +0.00    +0.066 A 
DOCKED: ATOM     16  C   UNL d   1      13.491  34.582  -0.187 -0.43 -0.00    -0.021 A 
DOCKED: ATOM     17  C   UNL d   1      13.271  35.470  -1.240 -0.46 +0.00    +0.000 A 
DOCKED: ATOM     18  C   UNL d   1      11.882  35.467  -1.426 -0.39 +0.00    +0.070 A 
DOCKED: ATOM     19  C   UNL d   1      14.767  34.194   0.517 -0.59 +0.00    +0.052 C 
DOCKED: ATOM     20  C   UNL d   1       9.823  36.287  -2.645 -0.41 +0.00    +0.066 A 
DOCKED: ATOM     21  C   UNL d   1       9.199  37.013  -3.655 -0.39 +0.00    -0.025 A 
DOCKED: ATOM     22  C   UNL d   1       7.851  36.757  -3.544 -0.31 -0.00    -0.021 A 
DOCKED: ATOM     23  C   UNL d   1       7.700  35.895  -2.454 -0.32 +0.01    +0.066 A 
DOCKED: ATOM     24  C   UNL d   1       9.856  37.909  -4.673 -0.48 -0.01    +0.051 C 
DOCKED: ATOM     25  N   UNL d   1       7.266  34.164  -0.066 -0.18 -0.04    -0.248 N 
DOCKED: ATOM     26  N   UNL d   1       9.654  33.221   1.307 -0.11 -0.03    -0.248 N 
DOCKED: ATOM     27  N   UNL d   1      11.264  34.692  -0.498 -0.15 -0.03    -0.248 N 
DOCKED: ATOM     28  N   UNL d   1       8.897  35.647  -1.883 -0.25 -0.04    -0.248 N 
DOCKED: ATOM     29 FE   UNL d   1       9.275  34.444  -0.300 +0.02 +0.00    +0.000 Fe
DOCKED: ATOM     30  O   UNL d   1       8.682  35.164   0.946 -0.85 +0.00    +0.000 OA
DOCKED: ATOM     31  O   UNL d   1       9.777  35.886   0.074 -1.14 +0.00    +0.000 OA
DOCKED: ENDROOT
DOCKED: BRANCH   6  32
DOCKED: ATOM     32  C   UNL d   1       3.658  34.679  -0.802 -0.22 +0.01    +0.052 C 
DOCKED: BRANCH  32  33
DOCKED: ATOM     33  C   UNL d   1       3.129  35.903  -0.060 -0.18 +0.06    +0.115 C 
DOCKED: BRANCH  33  34
DOCKED: ATOM     34  C   UNL d   1       3.105  37.136  -0.929 -0.17 +0.10    +0.139 C 
DOCKED: ATOM     35  O   UNL d   1       2.839  38.219  -0.433 -0.42 -1.01    -0.650 OA
DOCKED: BRANCH  34  36
DOCKED: ATOM     36  O   UNL d   1       3.346  37.067  -2.255 +0.04 -0.30    -0.776 OA
DOCKED: ATOM     37  H   UNL d   1       3.880  37.727  -2.712 +0.04 +0.05    +0.167 HD
DOCKED: ENDBRANCH  34  36
DOCKED: ENDBRANCH  33  34
DOCKED: ENDBRANCH  32  33
DOCKED: ENDBRANCH   6  32
DOCKED: BRANCH  22  38
DOCKED: ATOM     38  C   UNL d   1       6.768  37.362  -4.399 -0.23 +0.00    +0.052 C 
DOCKED: BRANCH  38  39
DOCKED: ATOM     39  C   UNL d   1       6.648  38.872  -4.205 -0.20 +0.00    +0.115 C 
DOCKED: BRANCH  39  40
DOCKED: ATOM     40  C   UNL d   1       6.019  39.234  -2.883 -0.26 +0.02    +0.139 C 
DOCKED: ATOM     41  O   UNL d   1       6.729  39.526  -1.933 -0.07 -0.04    -0.650 OA
DOCKED: BRANCH  40  42
DOCKED: ATOM     42  O   UNL d   1       4.680  39.292  -2.742 +0.05 -0.22    -0.776 OA
DOCKED: ATOM     43  H   UNL d   1       4.246  39.009  -1.929 +0.05 +0.08    +0.167 HD
DOCKED: ENDBRANCH  40  42
DOCKED: ENDBRANCH  39  40
DOCKED: ENDBRANCH  38  39
DOCKED: ENDBRANCH  22  38
DOCKED: BRANCH  12  44
DOCKED: ATOM     44  C   UNL d   1      11.648  30.995   3.626 -0.54 +0.00    +0.004 C 
DOCKED: ATOM     45  C   UNL d   1      12.899  30.659   3.318 -0.65 +0.00    +0.012 C 
DOCKED: ENDBRANCH  12  44
DOCKED: BRANCH  17  46
DOCKED: ATOM     46  C   UNL d   1      14.226  36.334  -2.019 -0.63 +0.00    +0.004 C 
DOCKED: ATOM     47  C   UNL d   1      14.962  37.362  -1.578 -0.66 +0.00    +0.012 C 
DOCKED: ENDBRANCH  17  46
DOCKED: TORSDOF 10
DOCKED: TER
DOCKED: ENDMDL
________________________________________________________________________________


	BEGINNING GENETIC ALGORITHM DOCKING 39 of 100
Run: 39 Seed: 1759468505 625947092 [ Run 39 of 100 GA/GALS ]
Beginning LAMARCKIAN GENETIC ALGORITHM (LGA), with a maximum of 25000000 energy evaluations.

Final-Value: -20.494


	FINAL GENETIC ALGORITHM DOCKED STATE
	_______________________________________________


Detailed state:  trans 41.100 28.317 15.753 quatxyzw -0.324497 0.385152 0.862458 -0.050262 center 8.287 34.468 -0.670 ntor 10 59.3931 75.1255 18.3166 -97.4701 177.1583 78.0577 9.3073 34.9522 -136.4853 173.2218
State:	 41.100  28.317  15.753  -0.325  0.386  0.864 -174.238     59.39   75.13   18.32  -97.47  177.16   78.06    9.31   34.95 -136.49  173.22

DOCKED: MODEL       39
DOCKED: USER    Run = 39
DOCKED: USER    DPF = D:/Protein_go_brrr/autodock/final/6BB5/heme_O2/dock.dpf
DOCKED: USER  
DOCKED: USER    Estimated Free Energy of Binding    =  -15.88 kcal/mol  [=(1)+(2)+(3)-(4)]
DOCKED: USER    Estimated Inhibition Constant, Ki   =    2.29 pM (picomolar)  [Temperature = 298.15 K]
DOCKED: USER    
DOCKED: USER    (1) Final Intermolecular Energy     =  -18.86 kcal/mol
DOCKED: USER        vdW + Hbond + desolv Energy     =  -16.61 kcal/mol
DOCKED: USER        Electrostatic Energy            =   -2.25 kcal/mol
DOCKED: USER    (2) Final Total Internal Energy     =   -1.63 kcal/mol
DOCKED: USER    (3) Torsional Free Energy           =   +2.98 kcal/mol
DOCKED: USER    (4) Unbound System's Energy  [=(2)] =   -1.63 kcal/mol
DOCKED: USER    
DOCKED: USER    
DOCKED: USER    NEWDPF move heme_O2_opt.pdbqt
DOCKED: USER    NEWDPF about 8.287000 34.468000 -0.670000
DOCKED: USER    NEWDPF tran0 41.100367 28.317086 15.752975
DOCKED: USER    NEWDPF quaternion0 -0.324497 0.385152 0.862458 -0.050262
DOCKED: USER    NEWDPF axisangle0 -0.324907 0.385639 0.863550 -174.238025
DOCKED: USER    NEWDPF quat0 -0.324907 0.385639 0.863550 -174.238025
DOCKED: USER    NEWDPF dihe0 59.39 75.13 18.32 -97.47 177.16 78.06 9.31 34.95 -136.49 173.22 
DOCKED: USER  keepresnum = 1 
DOCKED: USER  
DOCKED: REMARK  10 active torsions:
DOCKED: REMARK  status: ('A' for Active; 'I' for Inactive)
DOCKED: REMARK    1  A    between atoms: C_6  and  C_10 
DOCKED: REMARK    2  A    between atoms: C_10  and  C_11 
DOCKED: REMARK    3  A    between atoms: C_11  and  C_12 
DOCKED: REMARK    4  A    between atoms: C_12  and  O_14 
DOCKED: REMARK    5  A    between atoms: C_17  and  C_20 
DOCKED: REMARK    6  A    between atoms: C_24  and  C_27 
DOCKED: REMARK    7  A    between atoms: C_31  and  C_34 
DOCKED: REMARK    8  A    between atoms: C_34  and  C_35 
DOCKED: REMARK    9  A    between atoms: C_35  and  C_36 
DOCKED: REMARK   10  A    between atoms: C_36  and  O_38 
DOCKED: USER                              x       y       z     vdW  Elec       q    Type
DOCKED: USER                           _______ _______ _______ _____ _____    ______ ____
DOCKED: ROOT
DOCKED: ATOM      1  C   UNL d   1      42.781  27.644  16.858 -0.24 +0.02    +0.064 A 
DOCKED: ATOM      2  C   UNL d   1      40.846  31.940  16.259 -0.40 +0.01    +0.064 A 
DOCKED: ATOM      3  C   UNL d   1      37.485  30.122  13.345 -0.38 +0.01    +0.064 C 
DOCKED: ATOM      4  C   UNL d   1      39.178  25.625  14.334 -0.40 +0.01    +0.064 A 
DOCKED: ATOM      5  C   UNL d   1      42.528  28.961  16.934 -0.23 +0.02    +0.066 A 
DOCKED: ATOM      6  C   UNL d   1      43.299  29.865  17.670 -0.30 -0.01    -0.021 A 
DOCKED: ATOM      7  C   UNL d   1      42.715  31.102  17.533 -0.37 -0.00    -0.025 A 
DOCKED: ATOM      8  C   UNL d   1      41.630  30.928  16.677 -0.34 +0.01    +0.066 A 
DOCKED: ATOM      9  C   UNL d   1      43.182  32.363  18.227 -0.43 +0.01    +0.051 C 
DOCKED: ATOM     10  C   UNL d   1      39.710  31.823  15.344 -0.36 +0.01    +0.066 A 
DOCKED: ATOM     11  C   UNL d   1      39.031  32.926  14.814 -0.41 -0.00    -0.021 A 
DOCKED: ATOM     12  C   UNL d   1      38.070  32.423  13.958 -0.40 +0.00    +0.000 A 
DOCKED: ATOM     13  C   UNL d   1      38.211  31.009  14.025 -0.37 +0.01    +0.070 A 
DOCKED: ATOM     14  C   UNL d   1      39.307  34.400  15.092 -0.54 +0.00    +0.052 C 
DOCKED: ATOM     15  C   UNL d   1      37.573  28.683  13.412 -0.39 +0.01    +0.066 A 
DOCKED: ATOM     16  C   UNL d   1      36.676  27.807  12.801 -0.50 -0.00    -0.021 A 
DOCKED: ATOM     17  C   UNL d   1      37.138  26.519  13.070 -0.47 +0.00    +0.000 A 
DOCKED: ATOM     18  C   UNL d   1      38.299  26.708  13.833 -0.38 +0.01    +0.070 A 
DOCKED: ATOM     19  C   UNL d   1      35.441  28.271  12.071 -0.66 +0.00    +0.052 C 
DOCKED: ATOM     20  C   UNL d   1      40.273  25.769  15.104 -0.40 +0.01    +0.066 A 
DOCKED: ATOM     21  C   UNL d   1      41.072  24.711  15.531 -0.42 -0.00    -0.025 A 
DOCKED: ATOM     22  C   UNL d   1      42.119  25.270  16.228 -0.33 -0.00    -0.021 A 
DOCKED: ATOM     23  C   UNL d   1      41.910  26.653  16.217 -0.34 +0.01    +0.066 A 
DOCKED: ATOM     24  C   UNL d   1      40.845  23.241  15.288 -0.56 +0.00    +0.051 C 
DOCKED: ATOM     25  N   UNL d   1      41.477  29.598  16.361 -0.21 -0.06    -0.248 N 
DOCKED: ATOM     26  N   UNL d   1      39.208  30.653  14.874 -0.17 -0.05    -0.248 N 
DOCKED: ATOM     27  N   UNL d   1      38.506  28.024  14.094 -0.21 -0.05    -0.248 N 
DOCKED: ATOM     28  N   UNL d   1      40.763  26.948  15.571 -0.27 -0.05    -0.248 N 
DOCKED: ATOM     29 FE   UNL d   1      39.989  28.785  15.224 -0.07 +0.00    +0.000 Fe
DOCKED: ATOM     30  O   UNL d   1      39.505  29.321  16.603 -0.71 +0.00    +0.000 OA
DOCKED: ATOM     31  O   UNL d   1      38.920  27.970  16.041 -0.89 +0.00    +0.000 OA
DOCKED: ENDROOT
DOCKED: BRANCH   6  32
DOCKED: ATOM     32  C   UNL d   1      44.461  29.560  18.581 -0.28 +0.02    +0.052 C 
DOCKED: BRANCH  32  33
DOCKED: ATOM     33  C   UNL d   1      44.130  28.502  19.629 -0.25 +0.08    +0.115 C 
DOCKED: BRANCH  33  34
DOCKED: ATOM     34  C   UNL d   1      45.237  28.327  20.639 +0.01 +0.18    +0.139 C 
DOCKED: ATOM     35  O   UNL d   1      45.996  29.255  20.869 -0.10 -0.75    -0.650 OA
DOCKED: BRANCH  34  36
DOCKED: ATOM     36  O   UNL d   1      45.427  27.154  21.277 -0.14 -1.38    -0.776 OA
DOCKED: ATOM     37  H   UNL d   1      45.616  26.338  20.801 +0.04 +0.17    +0.167 HD
DOCKED: ENDBRANCH  34  36
DOCKED: ENDBRANCH  33  34
DOCKED: ENDBRANCH  32  33
DOCKED: ENDBRANCH   6  32
DOCKED: BRANCH  22  38
DOCKED: ATOM     38  C   UNL d   1      43.220  24.508  16.920 -0.32 +0.01    +0.052 C 
DOCKED: BRANCH  38  39
DOCKED: ATOM     39  C   UNL d   1      42.826  24.064  18.327 -0.36 +0.03    +0.115 C 
DOCKED: BRANCH  39  40
DOCKED: ATOM     40  C   UNL d   1      43.994  24.066  19.280 -0.24 +0.06    +0.139 C 
DOCKED: ATOM     41  O   UNL d   1      44.140  23.139  20.062 -0.53 -0.32    -0.650 OA
DOCKED: BRANCH  40  42
DOCKED: ATOM     42  O   UNL d   1      44.914  25.049  19.252 +0.10 -0.38    -0.776 OA
DOCKED: ATOM     43  H   UNL d   1      44.740  25.914  19.642 +0.06 +0.10    +0.167 HD
DOCKED: ENDBRANCH  40  42
DOCKED: ENDBRANCH  39  40
DOCKED: ENDBRANCH  38  39
DOCKED: ENDBRANCH  22  38
DOCKED: BRANCH  12  44
DOCKED: ATOM     44  C   UNL d   1      37.133  33.325  13.182 -0.49 +0.00    +0.004 C 
DOCKED: ATOM     45  C   UNL d   1      36.018  32.985  12.535 -0.60 +0.00    +0.012 C 
DOCKED: ENDBRANCH  12  44
DOCKED: BRANCH  17  46
DOCKED: ATOM     46  C   UNL d   1      36.562  25.170  12.728 -0.66 +0.00    +0.004 C 
DOCKED: ATOM     47  C   UNL d   1      35.925  24.313  13.535 -0.72 +0.00    +0.012 C 
DOCKED: ENDBRANCH  17  46
DOCKED: TORSDOF 10
DOCKED: TER
DOCKED: ENDMDL
________________________________________________________________________________


	BEGINNING GENETIC ALGORITHM DOCKING 40 of 100
Run: 40 Seed: 855986577 47343419 [ Run 40 of 100 GA/GALS ]
Beginning LAMARCKIAN GENETIC ALGORITHM (LGA), with a maximum of 25000000 energy evaluations.

Final-Value: -20.614


	FINAL GENETIC ALGORITHM DOCKED STATE
	_______________________________________________


Detailed state:  trans 41.053 28.381 15.688 quatxyzw 0.320023 -0.367125 -0.870960 0.065068 center 8.287 34.468 -0.670 ntor 10 36.2193 -153.1730 5.9531 -104.4076 122.0080 145.0243 37.0734 75.8235 -109.2464 180.0000
State:	 41.053  28.381  15.688   0.321 -0.368 -0.873 172.539     36.22 -153.17    5.95 -104.41  122.01  145.02   37.07   75.82 -109.25  180.00

DOCKED: MODEL       40
DOCKED: USER    Run = 40
DOCKED: USER    DPF = D:/Protein_go_brrr/autodock/final/6BB5/heme_O2/dock.dpf
DOCKED: USER  
DOCKED: USER    Estimated Free Energy of Binding    =  -15.70 kcal/mol  [=(1)+(2)+(3)-(4)]
DOCKED: USER    Estimated Inhibition Constant, Ki   =    3.13 pM (picomolar)  [Temperature = 298.15 K]
DOCKED: USER    
DOCKED: USER    (1) Final Intermolecular Energy     =  -18.68 kcal/mol
DOCKED: USER        vdW + Hbond + desolv Energy     =  -16.43 kcal/mol
DOCKED: USER        Electrostatic Energy            =   -2.25 kcal/mol
DOCKED: USER    (2) Final Total Internal Energy     =   -1.94 kcal/mol
DOCKED: USER    (3) Torsional Free Energy           =   +2.98 kcal/mol
DOCKED: USER    (4) Unbound System's Energy  [=(2)] =   -1.94 kcal/mol
DOCKED: USER    
DOCKED: USER    
DOCKED: USER    NEWDPF move heme_O2_opt.pdbqt
DOCKED: USER    NEWDPF about 8.287000 34.468000 -0.670000
DOCKED: USER    NEWDPF tran0 41.052556 28.381063 15.688417
DOCKED: USER    NEWDPF quaternion0 0.320023 -0.367125 -0.870960 0.065068
DOCKED: USER    NEWDPF axisangle0 0.320702 -0.367904 -0.872810 172.538525
DOCKED: USER    NEWDPF quat0 0.320702 -0.367904 -0.872810 172.538525
DOCKED: USER    NEWDPF dihe0 36.22 -153.17 5.95 -104.41 122.01 145.02 37.07 75.82 -109.25 180.00 
DOCKED: USER  keepresnum = 1 
DOCKED: USER  
DOCKED: REMARK  10 active torsions:
DOCKED: REMARK  status: ('A' for Active; 'I' for Inactive)
DOCKED: REMARK    1  A    between atoms: C_6  and  C_10 
DOCKED: REMARK    2  A    between atoms: C_10  and  C_11 
DOCKED: REMARK    3  A    between atoms: C_11  and  C_12 
DOCKED: REMARK    4  A    between atoms: C_12  and  O_14 
DOCKED: REMARK    5  A    between atoms: C_17  and  C_20 
DOCKED: REMARK    6  A    between atoms: C_24  and  C_27 
DOCKED: REMARK    7  A    between atoms: C_31  and  C_34 
DOCKED: REMARK    8  A    between atoms: C_34  and  C_35 
DOCKED: REMARK    9  A    between atoms: C_35  and  C_36 
DOCKED: REMARK   10  A    between atoms: C_36  and  O_38 
DOCKED: USER                              x       y       z     vdW  Elec       q    Type
DOCKED: USER                           _______ _______ _______ _____ _____    ______ ____
DOCKED: ROOT
DOCKED: ATOM      1  C   UNL d   1      42.722  27.629  16.760 -0.25 +0.02    +0.064 A 
DOCKED: ATOM      2  C   UNL d   1      40.858  31.980  16.367 -0.41 +0.01    +0.064 A 
DOCKED: ATOM      3  C   UNL d   1      37.468  30.358  13.371 -0.36 +0.01    +0.064 C 
DOCKED: ATOM      4  C   UNL d   1      39.086  25.791  14.143 -0.41 +0.01    +0.064 A 
DOCKED: ATOM      5  C   UNL d   1      42.490  28.944  16.899 -0.26 +0.02    +0.066 A 
DOCKED: ATOM      6  C   UNL d   1      43.276  29.800  17.677 -0.30 -0.01    -0.021 A 
DOCKED: ATOM      7  C   UNL d   1      42.712  31.051  17.598 -0.37 -0.01    -0.025 A 
DOCKED: ATOM      8  C   UNL d   1      41.625  30.936  16.736 -0.35 +0.01    +0.066 A 
DOCKED: ATOM      9  C   UNL d   1      43.200  32.269  18.352 -0.43 +0.01    +0.051 C 
DOCKED: ATOM     10  C   UNL d   1      39.720  31.925  15.448 -0.37 +0.01    +0.066 A 
DOCKED: ATOM     11  C   UNL d   1      39.060  33.063  14.971 -0.41 -0.00    -0.021 A 
DOCKED: ATOM     12  C   UNL d   1      38.091  32.617  14.092 -0.40 +0.00    +0.000 A 
DOCKED: ATOM     13  C   UNL d   1      38.209  31.200  14.092 -0.37 +0.01    +0.070 A 
DOCKED: ATOM     14  C   UNL d   1      39.360  34.517  15.319 -0.55 +0.00    +0.052 C 
DOCKED: ATOM     15  C   UNL d   1      37.533  28.916  13.369 -0.39 +0.01    +0.066 A 
DOCKED: ATOM     16  C   UNL d   1      36.622  28.085  12.717 -0.51 -0.00    -0.021 A 
DOCKED: ATOM     17  C   UNL d   1      37.062  26.778  12.925 -0.47 +0.00    +0.000 A 
DOCKED: ATOM     18  C   UNL d   1      38.226  26.911  13.695 -0.38 +0.01    +0.070 A 
DOCKED: ATOM     19  C   UNL d   1      35.395  28.604  12.010 -0.67 +0.00    +0.052 C 
DOCKED: ATOM     20  C   UNL d   1      40.184  25.880  14.919 -0.40 +0.01    +0.066 A 
DOCKED: ATOM     21  C   UNL d   1      40.965  24.791  15.294 -0.44 -0.00    -0.025 A 
DOCKED: ATOM     22  C   UNL d   1      42.021  25.299  16.018 -0.32 -0.00    -0.021 A 
DOCKED: ATOM     23  C   UNL d   1      41.834  26.683  16.072 -0.35 +0.01    +0.066 A 
DOCKED: ATOM     24  C   UNL d   1      40.715  23.338  14.982 -0.53 +0.01    +0.051 C 
DOCKED: ATOM     25  N   UNL d   1      41.450  29.625  16.357 -0.21 -0.06    -0.248 N 
DOCKED: ATOM     26  N   UNL d   1      39.199  30.787  14.923 -0.21 -0.05    -0.248 N 
DOCKED: ATOM     27  N   UNL d   1      38.454  28.210  14.018 -0.20 -0.05    -0.248 N 
DOCKED: ATOM     28  N   UNL d   1      40.693  27.028  15.442 -0.26 -0.05    -0.248 N 
DOCKED: ATOM     29 FE   UNL d   1      39.949  28.892  15.183 -0.04 +0.00    +0.000 Fe
DOCKED: ATOM     30  O   UNL d   1      39.473  29.370  16.586 -0.70 +0.00    +0.000 OA
DOCKED: ATOM     31  O   UNL d   1      38.867  28.057  15.961 -0.85 +0.00    +0.000 OA
DOCKED: ENDROOT
DOCKED: BRANCH   6  32
DOCKED: ATOM     32  C   UNL d   1      44.432  29.433  18.571 -0.28 +0.02    +0.052 C 
DOCKED: BRANCH  32  33
DOCKED: ATOM     33  C   UNL d   1      44.361  27.993  19.070 -0.21 +0.06    +0.115 C 
DOCKED: BRANCH  33  34
DOCKED: ATOM     34  C   UNL d   1      44.893  27.844  20.474 -0.14 +0.16    +0.139 C 
DOCKED: ATOM     35  O   UNL d   1      45.758  28.606  20.875 -0.28 -0.92    -0.650 OA
DOCKED: BRANCH  34  36
DOCKED: ATOM     36  O   UNL d   1      44.455  26.865  21.292 -0.07 -1.28    -0.776 OA
DOCKED: ATOM     37  H   UNL d   1      44.236  25.985  20.965 +0.06 +0.17    +0.167 HD
DOCKED: ENDBRANCH  34  36
DOCKED: ENDBRANCH  33  34
DOCKED: ENDBRANCH  32  33
DOCKED: ENDBRANCH   6  32
DOCKED: BRANCH  22  38
DOCKED: ATOM     38  C   UNL d   1      43.109  24.487  16.671 -0.30 +0.01    +0.052 C 
DOCKED: BRANCH  38  39
DOCKED: ATOM     39  C   UNL d   1      42.650  23.845  17.979 -0.37 +0.03    +0.115 C 
DOCKED: BRANCH  39  40
DOCKED: ATOM     40  C   UNL d   1      43.216  24.540  19.192 -0.31 +0.05    +0.139 C 
DOCKED: ATOM     41  O   UNL d   1      44.406  24.441  19.447 +0.02 -0.29    -0.650 OA
DOCKED: BRANCH  40  42
DOCKED: ATOM     42  O   UNL d   1      42.441  25.315  19.975 +0.02 -0.29    -0.776 OA
DOCKED: ATOM     43  H   UNL d   1      42.804  26.065  20.461 +0.07 +0.10    +0.167 HD
DOCKED: ENDBRANCH  40  42
DOCKED: ENDBRANCH  39  40
DOCKED: ENDBRANCH  38  39
DOCKED: ENDBRANCH  22  38
DOCKED: BRANCH  12  44
DOCKED: ATOM     44  C   UNL d   1      37.168  33.570  13.361 -0.49 +0.00    +0.004 C 
DOCKED: ATOM     45  C   UNL d   1      36.182  33.270  12.517 -0.59 +0.00    +0.012 C 
DOCKED: ENDBRANCH  12  44
DOCKED: BRANCH  17  46
DOCKED: ATOM     46  C   UNL d   1      36.464  25.457  12.518 -0.65 +0.00    +0.004 C 
DOCKED: ATOM     47  C   UNL d   1      35.925  24.516  13.303 -0.72 +0.00    +0.012 C 
DOCKED: ENDBRANCH  17  46
DOCKED: TORSDOF 10
DOCKED: TER
DOCKED: ENDMDL
________________________________________________________________________________


	BEGINNING GENETIC ALGORITHM DOCKING 41 of 100
Run: 41 Seed: 1604277846 1188671383 [ Run 41 of 100 GA/GALS ]
Beginning LAMARCKIAN GENETIC ALGORITHM (LGA), with a maximum of 25000000 energy evaluations.

Final-Value: -19.961


	FINAL GENETIC ALGORITHM DOCKED STATE
	_______________________________________________


Detailed state:  trans 41.004 28.275 15.707 quatxyzw 0.324967 -0.379182 -0.863426 0.071505 center 8.287 34.468 -0.670 ntor 10 104.7514 -20.1278 19.8048 -104.9649 -138.5546 -166.9752 -37.5280 0.0312 -177.0000 148.8352
State:	 41.004  28.275  15.707   0.326 -0.380 -0.866 171.799    104.75  -20.13   19.80 -104.96 -138.55 -166.98  -37.53    0.03 -177.00  148.84

DOCKED: MODEL       41
DOCKED: USER    Run = 41
DOCKED: USER    DPF = D:/Protein_go_brrr/autodock/final/6BB5/heme_O2/dock.dpf
DOCKED: USER  
DOCKED: USER    Estimated Free Energy of Binding    =  -15.38 kcal/mol  [=(1)+(2)+(3)-(4)]
DOCKED: USER    Estimated Inhibition Constant, Ki   =    5.29 pM (picomolar)  [Temperature = 298.15 K]
DOCKED: USER    
DOCKED: USER    (1) Final Intermolecular Energy     =  -18.37 kcal/mol
DOCKED: USER        vdW + Hbond + desolv Energy     =  -16.23 kcal/mol
DOCKED: USER        Electrostatic Energy            =   -2.14 kcal/mol
DOCKED: USER    (2) Final Total Internal Energy     =   -1.59 kcal/mol
DOCKED: USER    (3) Torsional Free Energy           =   +2.98 kcal/mol
DOCKED: USER    (4) Unbound System's Energy  [=(2)] =   -1.59 kcal/mol
DOCKED: USER    
DOCKED: USER    
DOCKED: USER    NEWDPF move heme_O2_opt.pdbqt
DOCKED: USER    NEWDPF about 8.287000 34.468000 -0.670000
DOCKED: USER    NEWDPF tran0 41.003963 28.275137 15.707461
DOCKED: USER    NEWDPF quaternion0 0.324967 -0.379182 -0.863426 0.071505
DOCKED: USER    NEWDPF axisangle0 0.325801 -0.380156 -0.865642 171.799126
DOCKED: USER    NEWDPF quat0 0.325801 -0.380156 -0.865642 171.799126
DOCKED: USER    NEWDPF dihe0 104.75 -20.13 19.80 -104.96 -138.55 -166.98 -37.53 0.03 -177.00 148.84 
DOCKED: USER  keepresnum = 1 
DOCKED: USER  
DOCKED: REMARK  10 active torsions:
DOCKED: REMARK  status: ('A' for Active; 'I' for Inactive)
DOCKED: REMARK    1  A    between atoms: C_6  and  C_10 
DOCKED: REMARK    2  A    between atoms: C_10  and  C_11 
DOCKED: REMARK    3  A    between atoms: C_11  and  C_12 
DOCKED: REMARK    4  A    between atoms: C_12  and  O_14 
DOCKED: REMARK    5  A    between atoms: C_17  and  C_20 
DOCKED: REMARK    6  A    between atoms: C_24  and  C_27 
DOCKED: REMARK    7  A    between atoms: C_31  and  C_34 
DOCKED: REMARK    8  A    between atoms: C_34  and  C_35 
DOCKED: REMARK    9  A    between atoms: C_35  and  C_36 
DOCKED: REMARK   10  A    between atoms: C_36  and  O_38 
DOCKED: USER                              x       y       z     vdW  Elec       q    Type
DOCKED: USER                           _______ _______ _______ _____ _____    ______ ____
DOCKED: ROOT
DOCKED: ATOM      1  C   UNL d   1      42.643  27.521  16.823 -0.23 +0.02    +0.064 A 
DOCKED: ATOM      2  C   UNL d   1      40.857  31.891  16.300 -0.40 +0.01    +0.064 A 
DOCKED: ATOM      3  C   UNL d   1      37.491  30.255  13.285 -0.39 +0.01    +0.064 C 
DOCKED: ATOM      4  C   UNL d   1      39.021  25.682  14.189 -0.41 +0.01    +0.064 A 
DOCKED: ATOM      5  C   UNL d   1      42.431  28.843  16.928 -0.18 +0.02    +0.066 A 
DOCKED: ATOM      6  C   UNL d   1      43.218  29.703  17.700 -0.29 -0.01    -0.021 A 
DOCKED: ATOM      7  C   UNL d   1      42.675  30.962  17.583 -0.37 -0.01    -0.025 A 
DOCKED: ATOM      8  C   UNL d   1      41.601  30.844  16.705 -0.34 +0.01    +0.066 A 
DOCKED: ATOM      9  C   UNL d   1      43.171  32.189  18.316 -0.43 +0.01    +0.051 C 
DOCKED: ATOM     10  C   UNL d   1      39.734  31.834  15.364 -0.36 +0.01    +0.066 A 
DOCKED: ATOM     11  C   UNL d   1      39.101  32.971  14.850 -0.41 -0.00    -0.021 A 
DOCKED: ATOM     12  C   UNL d   1      38.139  32.520  13.965 -0.40 +0.00    +0.000 A 
DOCKED: ATOM     13  C   UNL d   1      38.233  31.101  13.999 -0.37 +0.01    +0.070 A 
DOCKED: ATOM     14  C   UNL d   1      39.419  34.427  15.169 -0.54 +0.00    +0.052 C 
DOCKED: ATOM     15  C   UNL d   1      37.532  28.813  13.317 -0.39 +0.01    +0.066 A 
DOCKED: ATOM     16  C   UNL d   1      36.618  27.981  12.670 -0.52 -0.00    -0.021 A 
DOCKED: ATOM     17  C   UNL d   1      37.034  26.673  12.914 -0.47 +0.00    +0.000 A 
DOCKED: ATOM     18  C   UNL d   1      38.186  26.805  13.701 -0.38 +0.01    +0.070 A 
DOCKED: ATOM     19  C   UNL d   1      35.412  28.503  11.931 -0.65 +0.00    +0.052 C 
DOCKED: ATOM     20  C   UNL d   1      40.107  25.772  14.981 -0.39 +0.01    +0.066 A 
DOCKED: ATOM     21  C   UNL d   1      40.864  24.679  15.394 -0.45 -0.00    -0.025 A 
DOCKED: ATOM     22  C   UNL d   1      41.916  25.186  16.123 -0.36 -0.00    -0.021 A 
DOCKED: ATOM     23  C   UNL d   1      41.751  26.574  16.143 -0.35 +0.01    +0.066 A 
DOCKED: ATOM     24  C   UNL d   1      40.595  23.223  15.111 -0.50 +0.00    +0.051 C 
DOCKED: ATOM     25  N   UNL d   1      41.411  29.528  16.354 -0.21 -0.06    -0.248 N 
DOCKED: ATOM     26  N   UNL d   1      39.203  30.692  14.856 -0.18 -0.05    -0.248 N 
DOCKED: ATOM     27  N   UNL d   1      38.431  28.107  13.998 -0.21 -0.05    -0.248 N 
DOCKED: ATOM     28  N   UNL d   1      40.626  26.922  15.486 -0.27 -0.05    -0.248 N 
DOCKED: ATOM     29 FE   UNL d   1      39.917  28.792  15.172 -0.05 +0.00    +0.000 Fe
DOCKED: ATOM     30  O   UNL d   1      39.427  29.309  16.555 -0.72 +0.00    +0.000 OA
DOCKED: ATOM     31  O   UNL d   1      38.809  27.992  15.950 -0.83 +0.00    +0.000 OA
DOCKED: ENDROOT
DOCKED: BRANCH   6  32
DOCKED: ATOM     32  C   UNL d   1      44.352  29.339  18.621 -0.28 +0.02    +0.052 C 
DOCKED: BRANCH  32  33
DOCKED: ATOM     33  C   UNL d   1      43.902  29.138  20.065 +0.06 +0.09    +0.115 C 
DOCKED: BRANCH  33  34
DOCKED: ATOM     34  C   UNL d   1      44.598  27.976  20.729 -0.04 +0.19    +0.139 C 
DOCKED: ATOM     35  O   UNL d   1      45.783  28.062  21.007 -0.35 -1.07    -0.650 OA
DOCKED: BRANCH  34  36
DOCKED: ATOM     36  O   UNL d   1      43.946  26.826  20.998 -0.18 -1.01    -0.776 OA
DOCKED: ATOM     37  H   UNL d   1      44.081  26.028  20.475 +0.06 +0.13    +0.167 HD
DOCKED: ENDBRANCH  34  36
DOCKED: ENDBRANCH  33  34
DOCKED: ENDBRANCH  32  33
DOCKED: ENDBRANCH   6  32
DOCKED: BRANCH  22  38
DOCKED: ATOM     38  C   UNL d   1      42.979  24.372  16.814 -0.33 +0.01    +0.052 C 
DOCKED: BRANCH  38  39
DOCKED: ATOM     39  C   UNL d   1      42.843  24.406  18.334 -0.34 +0.03    +0.115 C 
DOCKED: BRANCH  39  40
DOCKED: ATOM     40  C   UNL d   1      43.891  23.570  19.026 -0.24 +0.05    +0.139 C 
DOCKED: ATOM     41  O   UNL d   1      44.442  22.666  18.420 -0.02 -0.24    -0.650 OA
DOCKED: BRANCH  40  42
DOCKED: ATOM     42  O   UNL d   1      44.269  23.836  20.291 -0.13 -0.38    -0.776 OA
DOCKED: ATOM     43  H   UNL d   1      44.082  24.687  20.706 +0.07 +0.10    +0.167 HD
DOCKED: ENDBRANCH  40  42
DOCKED: ENDBRANCH  39  40
DOCKED: ENDBRANCH  38  39
DOCKED: ENDBRANCH  22  38
DOCKED: BRANCH  12  44
DOCKED: ATOM     44  C   UNL d   1      37.245  33.471  13.197 -0.47 +0.00    +0.004 C 
DOCKED: ATOM     45  C   UNL d   1      36.117  33.188  12.546 -0.59 +0.00    +0.012 C 
DOCKED: ENDBRANCH  12  44
DOCKED: BRANCH  17  46
DOCKED: ATOM     46  C   UNL d   1      36.420  25.353  12.529 -0.66 +0.00    +0.004 C 
DOCKED: ATOM     47  C   UNL d   1      35.862  24.434  13.327 -0.72 +0.00    +0.012 C 
DOCKED: ENDBRANCH  17  46
DOCKED: TORSDOF 10
DOCKED: TER
DOCKED: ENDMDL
________________________________________________________________________________


	BEGINNING GENETIC ALGORITHM DOCKING 42 of 100
Run: 42 Seed: 1446689656 767399456 [ Run 42 of 100 GA/GALS ]
Beginning LAMARCKIAN GENETIC ALGORITHM (LGA), with a maximum of 25000000 energy evaluations.

Final-Value: -11.584


	FINAL GENETIC ALGORITHM DOCKED STATE
	_______________________________________________


Detailed state:  trans 23.148 18.401 22.742 quatxyzw -0.362619 -0.689826 -0.379129 -0.498908 center 8.287 34.468 -0.670 ntor 10 -92.8109 2.2314 110.1247 -105.1059 15.2118 28.6959 64.9750 94.3621 -36.0735 -151.5462
State:	 23.148  18.401  22.742  -0.418 -0.796 -0.437 -120.144    -92.81    2.23  110.12 -105.11   15.21   28.70   64.97   94.36  -36.07 -151.55

DOCKED: MODEL       42
DOCKED: USER    Run = 42
DOCKED: USER    DPF = D:/Protein_go_brrr/autodock/final/6BB5/heme_O2/dock.dpf
DOCKED: USER  
DOCKED: USER    Estimated Free Energy of Binding    =   -7.32 kcal/mol  [=(1)+(2)+(3)-(4)]
DOCKED: USER    Estimated Inhibition Constant, Ki   =    4.32 uM (micromolar)  [Temperature = 298.15 K]
DOCKED: USER    
DOCKED: USER    (1) Final Intermolecular Energy     =  -10.30 kcal/mol
DOCKED: USER        vdW + Hbond + desolv Energy     =   -7.73 kcal/mol
DOCKED: USER        Electrostatic Energy            =   -2.58 kcal/mol
DOCKED: USER    (2) Final Total Internal Energy     =   -1.28 kcal/mol
DOCKED: USER    (3) Torsional Free Energy           =   +2.98 kcal/mol
DOCKED: USER    (4) Unbound System's Energy  [=(2)] =   -1.28 kcal/mol
DOCKED: USER    
DOCKED: USER    
DOCKED: USER    NEWDPF move heme_O2_opt.pdbqt
DOCKED: USER    NEWDPF about 8.287000 34.468000 -0.670000
DOCKED: USER    NEWDPF tran0 23.148124 18.401355 22.741775
DOCKED: USER    NEWDPF quaternion0 -0.362619 -0.689826 -0.379129 -0.498908
DOCKED: USER    NEWDPF axisangle0 -0.418412 -0.795963 -0.437463 -120.144468
DOCKED: USER    NEWDPF quat0 -0.418412 -0.795963 -0.437463 -120.144468
DOCKED: USER    NEWDPF dihe0 -92.81 2.23 110.12 -105.11 15.21 28.70 64.97 94.36 -36.07 -151.55 
DOCKED: USER  keepresnum = 1 
DOCKED: USER  
DOCKED: REMARK  10 active torsions:
DOCKED: REMARK  status: ('A' for Active; 'I' for Inactive)
DOCKED: REMARK    1  A    between atoms: C_6  and  C_10 
DOCKED: REMARK    2  A    between atoms: C_10  and  C_11 
DOCKED: REMARK    3  A    between atoms: C_11  and  C_12 
DOCKED: REMARK    4  A    between atoms: C_12  and  O_14 
DOCKED: REMARK    5  A    between atoms: C_17  and  C_20 
DOCKED: REMARK    6  A    between atoms: C_24  and  C_27 
DOCKED: REMARK    7  A    between atoms: C_31  and  C_34 
DOCKED: REMARK    8  A    between atoms: C_34  and  C_35 
DOCKED: REMARK    9  A    between atoms: C_35  and  C_36 
DOCKED: REMARK   10  A    between atoms: C_36  and  O_38 
DOCKED: USER                              x       y       z     vdW  Elec       q    Type
DOCKED: USER                           _______ _______ _______ _____ _____    ______ ____
DOCKED: ROOT
DOCKED: ATOM      1  C   UNL d   1      24.455  17.736  21.209 -0.10 +0.02    +0.064 A 
DOCKED: ATOM      2  C   UNL d   1      20.246  19.934  21.106 -0.33 -0.02    +0.064 A 
DOCKED: ATOM      3  C   UNL d   1      20.013  19.914  25.906 -0.14 -0.02    +0.064 C 
DOCKED: ATOM      4  C   UNL d   1      24.563  18.083  26.037 -0.05 -0.00    +0.064 A 
DOCKED: ATOM      5  C   UNL d   1      23.330  18.337  20.789 -0.16 +0.01    +0.066 A 
DOCKED: ATOM      6  C   UNL d   1      22.997  18.523  19.445 -0.26 -0.00    -0.021 A 
DOCKED: ATOM      7  C   UNL d   1      21.799  19.198  19.414 -0.32 +0.00    -0.025 A 
DOCKED: ATOM      8  C   UNL d   1      21.410  19.363  20.740 -0.27 -0.01    +0.066 A 
DOCKED: ATOM      9  C   UNL d   1      21.105  19.673  18.156 -0.29 -0.01    +0.051 C 
DOCKED: ATOM     10  C   UNL d   1      19.773  20.114  22.479 -0.29 -0.01    +0.066 A 
DOCKED: ATOM     11  C   UNL d   1      18.486  20.563  22.797 -0.37 +0.00    -0.021 A 
DOCKED: ATOM     12  C   UNL d   1      18.394  20.547  24.177 -0.25 -0.00    +0.000 A 
DOCKED: ATOM     13  C   UNL d   1      19.662  20.091  24.632 -0.07 -0.01    +0.070 A 
DOCKED: ATOM     14  C   UNL d   1      17.383  20.964  21.825 -0.22 -0.01    +0.052 C 
DOCKED: ATOM     15  C   UNL d   1      21.297  19.487  26.409 -0.09 -0.01    +0.066 A 
DOCKED: ATOM     16  C   UNL d   1      21.654  19.480  27.757 -0.05 +0.00    -0.021 A 
DOCKED: ATOM     17  C   UNL d   1      22.948  18.962  27.819 -0.04 -0.00    +0.000 A 
DOCKED: ATOM     18  C   UNL d   1      23.286  18.687  26.486 -0.05 -0.01    +0.070 A 
DOCKED: ATOM     19  C   UNL d   1      20.760  20.013  28.848 -0.04 -0.01    +0.052 C 
DOCKED: ATOM     20  C   UNL d   1      24.937  17.846  24.765 -0.06 +0.00    +0.066 A 
DOCKED: ATOM     21  C   UNL d   1      26.145  17.257  24.403 -0.06 -0.00    -0.025 A 
DOCKED: ATOM     22  C   UNL d   1      26.120  17.126  23.033 -0.09 -0.01    -0.021 A 
DOCKED: ATOM     23  C   UNL d   1      24.900  17.658  22.606 -0.06 +0.01    +0.066 A 
DOCKED: ATOM     24  C   UNL d   1      27.269  16.845  25.319 -0.07 +0.00    +0.051 C 
DOCKED: ATOM     25  N   UNL d   1      22.385  18.890  21.588 -0.11 +0.01    -0.248 N 
DOCKED: ATOM     26  N   UNL d   1      20.496  19.834  23.593 -0.13 +0.03    -0.248 N 
DOCKED: ATOM     27  N   UNL d   1      22.302  19.082  25.639 -0.05 +0.03    -0.248 N 
DOCKED: ATOM     28  N   UNL d   1      24.203  18.135  23.657 -0.05 -0.01    -0.248 N 
DOCKED: ATOM     29 FE   UNL d   1      22.363  18.979  23.628 -0.03 -0.00    +0.000 Fe
DOCKED: ATOM     30  O   UNL d   1      22.531  20.365  22.941 -0.35 -0.00    +0.000 OA
DOCKED: ATOM     31  O   UNL d   1      23.356  20.033  24.242 -0.25 -0.00    +0.000 OA
DOCKED: ENDROOT
DOCKED: BRANCH   6  32
DOCKED: ATOM     32  C   UNL d   1      23.834  18.203  18.234 -0.30 +0.01    +0.052 C 
DOCKED: BRANCH  32  33
DOCKED: ATOM     33  C   UNL d   1      24.442  16.805  18.285 -0.18 +0.05    +0.115 C 
DOCKED: BRANCH  33  34
DOCKED: ATOM     34  C   UNL d   1      25.950  16.833  18.311 -0.18 +0.15    +0.139 C 
DOCKED: ATOM     35  O   UNL d   1      26.580  16.063  17.604 -0.11 -0.91    -0.650 OA
DOCKED: BRANCH  34  36
DOCKED: ATOM     36  O   UNL d   1      26.624  17.674  19.122 -0.25 -1.35    -0.776 OA
DOCKED: ATOM     37  H   UNL d   1      26.910  18.547  18.829 -0.08 +0.20    +0.167 HD
DOCKED: ENDBRANCH  34  36
DOCKED: ENDBRANCH  33  34
DOCKED: ENDBRANCH  32  33
DOCKED: ENDBRANCH   6  32
DOCKED: BRANCH  22  38
DOCKED: ATOM     38  C   UNL d   1      27.237  16.578  22.183 -0.14 +0.04    +0.052 C 
DOCKED: BRANCH  38  39
DOCKED: ATOM     39  C   UNL d   1      28.584  17.222  22.505 -0.20 +0.08    +0.115 C 
DOCKED: BRANCH  39  40
DOCKED: ATOM     40  C   UNL d   1      28.815  18.494  21.728 -0.29 +0.12    +0.139 C 
DOCKED: ATOM     41  O   UNL d   1      29.792  19.184  21.971 -0.09 -0.28    -0.650 OA
DOCKED: BRANCH  40  42
DOCKED: ATOM     42  O   UNL d   1      27.988  18.860  20.730 -0.30 -0.88    -0.776 OA
DOCKED: ATOM     43  H   UNL d   1      27.187  18.360  20.530 +0.06 +0.22    +0.167 HD
DOCKED: ENDBRANCH  40  42
DOCKED: ENDBRANCH  39  40
DOCKED: ENDBRANCH  38  39
DOCKED: ENDBRANCH  22  38
DOCKED: BRANCH  12  44
DOCKED: ATOM     44  C   UNL d   1      17.132  20.965  24.902 -0.38 -0.00    +0.004 C 
DOCKED: ATOM     45  C   UNL d   1      16.658  22.197  25.078 -0.40 -0.00    +0.012 C 
DOCKED: ENDBRANCH  12  44
DOCKED: BRANCH  17  46
DOCKED: ATOM     46  C   UNL d   1      23.880  18.767  28.985 -0.05 -0.00    +0.004 C 
DOCKED: ATOM     47  C   UNL d   1      25.027  19.408  29.246 -0.11 -0.00    +0.012 C 
DOCKED: ENDBRANCH  17  46
DOCKED: TORSDOF 10
DOCKED: TER
DOCKED: ENDMDL
________________________________________________________________________________


	BEGINNING GENETIC ALGORITHM DOCKING 43 of 100
Run: 43 Seed: 287780632 931241746 [ Run 43 of 100 GA/GALS ]
Beginning LAMARCKIAN GENETIC ALGORITHM (LGA), with a maximum of 25000000 energy evaluations.

Final-Value: -18.150


	FINAL GENETIC ALGORITHM DOCKED STATE
	_______________________________________________


Detailed state:  trans 8.343 34.710 -0.892 quatxyzw 0.013751 0.038319 0.024736 0.998865 center 8.287 34.468 -0.670 ntor 10 -88.2448 -126.2557 -18.7179 -73.3529 -42.6639 47.1934 22.0802 -85.7502 -138.2917 173.4498
State:	  8.343  34.710  -0.892   0.289  0.804  0.519  5.461    -88.24 -126.26  -18.72  -73.35  -42.66   47.19   22.08  -85.75 -138.29  173.45

DOCKED: MODEL       43
DOCKED: USER    Run = 43
DOCKED: USER    DPF = D:/Protein_go_brrr/autodock/final/6BB5/heme_O2/dock.dpf
DOCKED: USER  
DOCKED: USER    Estimated Free Energy of Binding    =  -14.62 kcal/mol  [=(1)+(2)+(3)-(4)]
DOCKED: USER    Estimated Inhibition Constant, Ki   =   19.31 pM (picomolar)  [Temperature = 298.15 K]
DOCKED: USER    
DOCKED: USER    (1) Final Intermolecular Energy     =  -17.60 kcal/mol
DOCKED: USER        vdW + Hbond + desolv Energy     =  -16.43 kcal/mol
DOCKED: USER        Electrostatic Energy            =   -1.17 kcal/mol
DOCKED: USER    (2) Final Total Internal Energy     =   -0.55 kcal/mol
DOCKED: USER    (3) Torsional Free Energy           =   +2.98 kcal/mol
DOCKED: USER    (4) Unbound System's Energy  [=(2)] =   -0.55 kcal/mol
DOCKED: USER    
DOCKED: USER    
DOCKED: USER    NEWDPF move heme_O2_opt.pdbqt
DOCKED: USER    NEWDPF about 8.287000 34.468000 -0.670000
DOCKED: USER    NEWDPF tran0 8.343492 34.709573 -0.892079
DOCKED: USER    NEWDPF quaternion0 0.013751 0.038319 0.024736 0.998865
DOCKED: USER    NEWDPF axisangle0 0.288669 0.804392 0.519253 5.460835
DOCKED: USER    NEWDPF quat0 0.288669 0.804392 0.519253 5.460835
DOCKED: USER    NEWDPF dihe0 -88.24 -126.26 -18.72 -73.35 -42.66 47.19 22.08 -85.75 -138.29 173.45 
DOCKED: USER  keepresnum = 1 
DOCKED: USER  
DOCKED: REMARK  10 active torsions:
DOCKED: REMARK  status: ('A' for Active; 'I' for Inactive)
DOCKED: REMARK    1  A    between atoms: C_6  and  C_10 
DOCKED: REMARK    2  A    between atoms: C_10  and  C_11 
DOCKED: REMARK    3  A    between atoms: C_11  and  C_12 
DOCKED: REMARK    4  A    between atoms: C_12  and  O_14 
DOCKED: REMARK    5  A    between atoms: C_17  and  C_20 
DOCKED: REMARK    6  A    between atoms: C_24  and  C_27 
DOCKED: REMARK    7  A    between atoms: C_31  and  C_34 
DOCKED: REMARK    8  A    between atoms: C_34  and  C_35 
DOCKED: REMARK    9  A    between atoms: C_35  and  C_36 
DOCKED: REMARK   10  A    between atoms: C_36  and  O_38 
DOCKED: USER                              x       y       z     vdW  Elec       q    Type
DOCKED: USER                           _______ _______ _______ _____ _____    ______ ____
DOCKED: ROOT
DOCKED: ATOM      1  C   UNL d   1       6.572  35.378  -1.849 -0.17 +0.01    +0.064 A 
DOCKED: ATOM      2  C   UNL d   1       7.324  32.707   2.006 -0.39 +0.01    +0.064 A 
DOCKED: ATOM      3  C   UNL d   1      12.082  33.013   1.404 -0.41 +0.00    +0.064 C 
DOCKED: ATOM      4  C   UNL d   1      11.331  36.156  -2.287 -0.43 +0.00    +0.064 A 
DOCKED: ATOM      5  C   UNL d   1       6.388  34.628  -0.751 -0.25 +0.01    +0.066 A 
DOCKED: ATOM      6  C   UNL d   1       5.134  34.277  -0.243 -0.27 -0.00    -0.021 A 
DOCKED: ATOM      7  C   UNL d   1       5.350  33.541   0.898 -0.34 -0.00    -0.025 A 
DOCKED: ATOM      8  C   UNL d   1       6.731  33.420   1.029 -0.35 +0.01    +0.066 A 
DOCKED: ATOM      9  C   UNL d   1       4.262  33.019   1.811 -0.38 +0.01    +0.051 C 
DOCKED: ATOM     10  C   UNL d   1       8.765  32.525   2.181 -0.37 +0.00    +0.066 A 
DOCKED: ATOM     11  C   UNL d   1       9.322  31.643   3.113 -0.45 -0.00    -0.021 A 
DOCKED: ATOM     12  C   UNL d   1      10.693  31.703   2.943 -0.44 +0.00    +0.000 A 
DOCKED: ATOM     13  C   UNL d   1      10.900  32.650   1.902 -0.36 +0.00    +0.070 A 
DOCKED: ATOM     14  C   UNL d   1       8.576  30.758   4.106 -0.57 +0.00    +0.052 C 
DOCKED: ATOM     15  C   UNL d   1      12.336  33.992   0.375 -0.37 +0.00    +0.066 A 
DOCKED: ATOM     16  C   UNL d   1      13.603  34.448   0.013 -0.44 -0.00    -0.021 A 
DOCKED: ATOM     17  C   UNL d   1      13.414  35.346  -1.038 -0.45 +0.00    +0.000 A 
DOCKED: ATOM     18  C   UNL d   1      12.027  35.370  -1.241 -0.38 +0.00    +0.070 A 
DOCKED: ATOM     19  C   UNL d   1      14.863  34.032   0.730 -0.61 +0.00    +0.052 C 
DOCKED: ATOM     20  C   UNL d   1      10.000  36.236  -2.481 -0.41 +0.00    +0.066 A 
DOCKED: ATOM     21  C   UNL d   1       9.403  36.980  -3.495 -0.42 +0.00    -0.025 A 
DOCKED: ATOM     22  C   UNL d   1       8.049  36.749  -3.403 -0.33 -0.00    -0.021 A 
DOCKED: ATOM     23  C   UNL d   1       7.868  35.882  -2.320 -0.33 +0.01    +0.066 A 
DOCKED: ATOM     24  C   UNL d   1      10.089  37.870  -4.498 -0.49 -0.01    +0.051 C 
DOCKED: ATOM     25  N   UNL d   1       7.370  34.145   0.050 -0.19 -0.04    -0.248 N 
DOCKED: ATOM     26  N   UNL d   1       9.722  33.148   1.447 -0.17 -0.02    -0.248 N 
DOCKED: ATOM     27  N   UNL d   1      11.383  34.600  -0.326 -0.18 -0.03    -0.248 N 
DOCKED: ATOM     28  N   UNL d   1       9.052  35.609  -1.736 -0.23 -0.04    -0.248 N 
DOCKED: ATOM     29 FE   UNL d   1       9.387  34.388  -0.156 -0.02 +0.00    +0.000 Fe
DOCKED: ATOM     30  O   UNL d   1       8.791  35.111   1.087 -0.75 +0.00    +0.000 OA
DOCKED: ATOM     31  O   UNL d   1       9.911  35.819   0.234 -1.01 +0.00    +0.000 OA
DOCKED: ENDROOT
DOCKED: BRANCH   6  32
DOCKED: ATOM     32  C   UNL d   1       3.782  34.731  -0.729 -0.23 +0.01    +0.052 C 
DOCKED: BRANCH  32  33
DOCKED: ATOM     33  C   UNL d   1       3.653  36.250  -0.790 -0.08 +0.05    +0.115 C 
DOCKED: BRANCH  33  34
DOCKED: ATOM     34  C   UNL d   1       2.215  36.705  -0.804 -0.14 +0.11    +0.139 C 
DOCKED: ATOM     35  O   UNL d   1       1.952  37.879  -0.600 -0.45 -1.06    -0.650 OA
DOCKED: BRANCH  34  36
DOCKED: ATOM     36  O   UNL d   1       1.204  35.836  -1.010 +0.02 -0.39    -0.776 OA
DOCKED: ATOM     37  H   UNL d   1       0.890  35.617  -1.895 +0.02 +0.06    +0.167 HD
DOCKED: ENDBRANCH  34  36
DOCKED: ENDBRANCH  33  34
DOCKED: ENDBRANCH  32  33
DOCKED: ENDBRANCH   6  32
DOCKED: BRANCH  22  38
DOCKED: ATOM     38  C   UNL d   1       6.989  37.379  -4.268 -0.25 +0.00    +0.052 C 
DOCKED: BRANCH  38  39
DOCKED: ATOM     39  C   UNL d   1       6.557  38.751  -3.754 -0.23 +0.01    +0.115 C 
DOCKED: BRANCH  39  40
DOCKED: ATOM     40  C   UNL d   1       7.335  39.875  -4.391 -0.28 -0.01    +0.139 C 
DOCKED: ATOM     41  O   UNL d   1       7.257  41.003  -3.930 -0.05 +0.03    -0.650 OA
DOCKED: BRANCH  40  42
DOCKED: ATOM     42  O   UNL d   1       8.159  39.649  -5.432 +0.10 +0.22    -0.776 OA
DOCKED: ATOM     43  H   UNL d   1       9.091  39.893  -5.400 -0.43 -0.11    +0.167 HD
DOCKED: ENDBRANCH  40  42
DOCKED: ENDBRANCH  39  40
DOCKED: ENDBRANCH  38  39
DOCKED: ENDBRANCH  22  38
DOCKED: BRANCH  12  44
DOCKED: ATOM     44  C   UNL d   1      11.644  30.871   3.778 -0.56 +0.00    +0.004 C 
DOCKED: ATOM     45  C   UNL d   1      12.888  30.501   3.476 -0.66 +0.00    +0.012 C 
DOCKED: ENDBRANCH  12  44
DOCKED: BRANCH  17  46
DOCKED: ATOM     46  C   UNL d   1      14.395  36.197  -1.799 -0.61 +0.00    +0.004 C 
DOCKED: ATOM     47  C   UNL d   1      14.934  37.368  -1.434 -0.64 +0.00    +0.012 C 
DOCKED: ENDBRANCH  17  46
DOCKED: TORSDOF 10
DOCKED: TER
DOCKED: ENDMDL
________________________________________________________________________________


	BEGINNING GENETIC ALGORITHM DOCKING 44 of 100
Run: 44 Seed: 1113647568 105194314 [ Run 44 of 100 GA/GALS ]
Beginning LAMARCKIAN GENETIC ALGORITHM (LGA), with a maximum of 25000000 energy evaluations.

Final-Value: -20.164


	FINAL GENETIC ALGORITHM DOCKED STATE
	_______________________________________________


Detailed state:  trans 41.093 28.286 15.757 quatxyzw -0.337195 0.386612 0.857398 -0.041219 center 8.287 34.468 -0.670 ntor 10 66.6011 126.0959 24.5466 -83.1330 170.4050 -57.6434 -37.1309 80.2402 -156.0480 -170.7308
State:	 41.093  28.286  15.757  -0.337  0.387  0.858 -175.275     66.60  126.10   24.55  -83.13  170.41  -57.64  -37.13   80.24 -156.05 -170.73

DOCKED: MODEL       44
DOCKED: USER    Run = 44
DOCKED: USER    DPF = D:/Protein_go_brrr/autodock/final/6BB5/heme_O2/dock.dpf
DOCKED: USER  
DOCKED: USER    Estimated Free Energy of Binding    =  -15.02 kcal/mol  [=(1)+(2)+(3)-(4)]
DOCKED: USER    Estimated Inhibition Constant, Ki   =    9.80 pM (picomolar)  [Temperature = 298.15 K]
DOCKED: USER    
DOCKED: USER    (1) Final Intermolecular Energy     =  -18.00 kcal/mol
DOCKED: USER        vdW + Hbond + desolv Energy     =  -16.14 kcal/mol
DOCKED: USER        Electrostatic Energy            =   -1.86 kcal/mol
DOCKED: USER    (2) Final Total Internal Energy     =   -2.16 kcal/mol
DOCKED: USER    (3) Torsional Free Energy           =   +2.98 kcal/mol
DOCKED: USER    (4) Unbound System's Energy  [=(2)] =   -2.16 kcal/mol
DOCKED: USER    
DOCKED: USER    
DOCKED: USER    NEWDPF move heme_O2_opt.pdbqt
DOCKED: USER    NEWDPF about 8.287000 34.468000 -0.670000
DOCKED: USER    NEWDPF tran0 41.093425 28.285610 15.756713
DOCKED: USER    NEWDPF quaternion0 -0.337195 0.386612 0.857398 -0.041219
DOCKED: USER    NEWDPF axisangle0 -0.337482 0.386941 0.858127 -175.275333
DOCKED: USER    NEWDPF quat0 -0.337482 0.386941 0.858127 -175.275333
DOCKED: USER    NEWDPF dihe0 66.60 126.10 24.55 -83.13 170.41 -57.64 -37.13 80.24 -156.05 -170.73 
DOCKED: USER  keepresnum = 1 
DOCKED: USER  
DOCKED: REMARK  10 active torsions:
DOCKED: REMARK  status: ('A' for Active; 'I' for Inactive)
DOCKED: REMARK    1  A    between atoms: C_6  and  C_10 
DOCKED: REMARK    2  A    between atoms: C_10  and  C_11 
DOCKED: REMARK    3  A    between atoms: C_11  and  C_12 
DOCKED: REMARK    4  A    between atoms: C_12  and  O_14 
DOCKED: REMARK    5  A    between atoms: C_17  and  C_20 
DOCKED: REMARK    6  A    between atoms: C_24  and  C_27 
DOCKED: REMARK    7  A    between atoms: C_31  and  C_34 
DOCKED: REMARK    8  A    between atoms: C_34  and  C_35 
DOCKED: REMARK    9  A    between atoms: C_35  and  C_36 
DOCKED: REMARK   10  A    between atoms: C_36  and  O_38 
DOCKED: USER                              x       y       z     vdW  Elec       q    Type
DOCKED: USER                           _______ _______ _______ _____ _____    ______ ____
DOCKED: ROOT
DOCKED: ATOM      1  C   UNL d   1      42.769  27.668  16.901 -0.23 +0.02    +0.064 A 
DOCKED: ATOM      2  C   UNL d   1      40.744  31.908  16.208 -0.39 +0.01    +0.064 A 
DOCKED: ATOM      3  C   UNL d   1      37.481  29.970  13.260 -0.40 +0.01    +0.064 C 
DOCKED: ATOM      4  C   UNL d   1      39.261  25.529  14.341 -0.40 +0.01    +0.064 A 
DOCKED: ATOM      5  C   UNL d   1      42.484  28.979  16.954 -0.21 +0.02    +0.066 A 
DOCKED: ATOM      6  C   UNL d   1      43.220  29.912  17.692 -0.30 -0.01    -0.021 A 
DOCKED: ATOM      7  C   UNL d   1      42.608  31.132  17.526 -0.38 -0.00    -0.025 A 
DOCKED: ATOM      8  C   UNL d   1      41.544  30.921  16.654 -0.34 +0.01    +0.066 A 
DOCKED: ATOM      9  C   UNL d   1      43.033  32.413  18.212 -0.45 +0.01    +0.051 C 
DOCKED: ATOM     10  C   UNL d   1      39.627  31.751  15.275 -0.36 +0.01    +0.066 A 
DOCKED: ATOM     11  C   UNL d   1      38.933  32.831  14.718 -0.40 -0.00    -0.021 A 
DOCKED: ATOM     12  C   UNL d   1      37.999  32.293  13.851 -0.40 +0.00    +0.000 A 
DOCKED: ATOM     13  C   UNL d   1      38.173  30.884  13.940 -0.37 +0.01    +0.070 A 
DOCKED: ATOM     14  C   UNL d   1      39.168  34.314  14.980 -0.52 +0.00    +0.052 C 
DOCKED: ATOM     15  C   UNL d   1      37.602  28.535  13.348 -0.39 +0.01    +0.066 A 
DOCKED: ATOM     16  C   UNL d   1      36.737  27.630  12.733 -0.50 -0.00    -0.021 A 
DOCKED: ATOM     17  C   UNL d   1      37.225  26.357  13.028 -0.47 +0.00    +0.000 A 
DOCKED: ATOM     18  C   UNL d   1      38.367  26.584  13.809 -0.38 +0.01    +0.070 A 
DOCKED: ATOM     19  C   UNL d   1      35.505  28.054  11.974 -0.66 +0.00    +0.052 C 
DOCKED: ATOM     20  C   UNL d   1      40.339  25.710  15.128 -0.40 +0.01    +0.066 A 
DOCKED: ATOM     21  C   UNL d   1      41.155  24.677  15.584 -0.42 -0.00    -0.025 A 
DOCKED: ATOM     22  C   UNL d   1      42.175  25.271  16.292 -0.34 -0.00    -0.021 A 
DOCKED: ATOM     23  C   UNL d   1      41.934  26.647  16.258 -0.34 +0.01    +0.066 A 
DOCKED: ATOM     24  C   UNL d   1      40.968  23.200  15.357 -0.55 +0.00    +0.051 C 
DOCKED: ATOM     25  N   UNL d   1      41.429  29.583  16.354 -0.21 -0.06    -0.248 N 
DOCKED: ATOM     26  N   UNL d   1      39.162  30.563  14.812 -0.14 -0.05    -0.248 N 
DOCKED: ATOM     27  N   UNL d   1      38.537  27.908  14.055 -0.21 -0.05    -0.248 N 
DOCKED: ATOM     28  N   UNL d   1      40.792  26.906  15.588 -0.27 -0.05    -0.248 N 
DOCKED: ATOM     29 FE   UNL d   1      39.981  28.720  15.202 -0.07 +0.00    +0.000 Fe
DOCKED: ATOM     30  O   UNL d   1      39.459  29.262  16.564 -0.74 +0.00    +0.000 OA
DOCKED: ATOM     31  O   UNL d   1      38.918  27.890  16.010 -0.87 +0.00    +0.000 OA
DOCKED: ENDROOT
DOCKED: BRANCH   6  32
DOCKED: ATOM     32  C   UNL d   1      44.371  29.647  18.627 -0.28 +0.02    +0.052 C 
DOCKED: BRANCH  32  33
DOCKED: ATOM     33  C   UNL d   1      43.935  28.988  19.932 -0.03 +0.09    +0.115 C 
DOCKED: BRANCH  33  34
DOCKED: ATOM     34  C   UNL d   1      44.908  27.932  20.396 -0.15 +0.16    +0.139 C 
DOCKED: ATOM     35  O   UNL d   1      46.051  27.934  19.966 -0.04 -0.53    -0.650 OA
DOCKED: BRANCH  34  36
DOCKED: ATOM     36  O   UNL d   1      44.537  26.964  21.259 -0.07 -1.31    -0.776 OA
DOCKED: ATOM     37  H   UNL d   1      43.900  26.282  21.018 +0.05 +0.18    +0.167 HD
DOCKED: ENDBRANCH  34  36
DOCKED: ENDBRANCH  33  34
DOCKED: ENDBRANCH  32  33
DOCKED: ENDBRANCH   6  32
DOCKED: BRANCH  22  38
DOCKED: ATOM     38  C   UNL d   1      43.281  24.545  17.014 -0.31 +0.01    +0.052 C 
DOCKED: BRANCH  38  39
DOCKED: ATOM     39  C   UNL d   1      42.775  23.776  18.232 -0.37 +0.03    +0.115 C 
DOCKED: BRANCH  39  40
DOCKED: ATOM     40  C   UNL d   1      43.042  24.506  19.525 -0.33 +0.05    +0.139 C 
DOCKED: ATOM     41  O   UNL d   1      42.238  25.328  19.935 -0.04 -0.22    -0.650 OA
DOCKED: BRANCH  40  42
DOCKED: ATOM     42  O   UNL d   1      44.132  24.229  20.268 +0.01 -0.38    -0.776 OA
DOCKED: ATOM     43  H   UNL d   1      44.726  24.926  20.571 +0.06 +0.11    +0.167 HD
DOCKED: ENDBRANCH  40  42
DOCKED: ENDBRANCH  39  40
DOCKED: ENDBRANCH  38  39
DOCKED: ENDBRANCH  22  38
DOCKED: BRANCH  12  44
DOCKED: ATOM     44  C   UNL d   1      37.055  33.162  13.047 -0.50 +0.00    +0.004 C 
DOCKED: ATOM     45  C   UNL d   1      35.902  32.810  12.479 -0.60 +0.00    +0.012 C 
DOCKED: ENDBRANCH  12  44
DOCKED: BRANCH  17  46
DOCKED: ATOM     46  C   UNL d   1      36.687  24.991  12.694 -0.67 +0.00    +0.004 C 
DOCKED: ATOM     47  C   UNL d   1      35.837  24.238  13.405 -0.73 +0.00    +0.012 C 
DOCKED: ENDBRANCH  17  46
DOCKED: TORSDOF 10
DOCKED: TER
DOCKED: ENDMDL
________________________________________________________________________________


	BEGINNING GENETIC ALGORITHM DOCKING 45 of 100
Run: 45 Seed: 127897751 633139172 [ Run 45 of 100 GA/GALS ]
Beginning LAMARCKIAN GENETIC ALGORITHM (LGA), with a maximum of 25000000 energy evaluations.

Final-Value: -19.994


	FINAL GENETIC ALGORITHM DOCKED STATE
	_______________________________________________


Detailed state:  trans 41.010 28.273 15.736 quatxyzw 0.331326 -0.387653 -0.857793 0.064339 center 8.287 34.468 -0.670 ntor 10 103.7362 -38.4292 25.3716 -104.2066 -151.5287 -171.4339 -38.4848 -2.8661 -173.6225 147.5992
State:	 41.010  28.273  15.736   0.332 -0.388 -0.860 172.622    103.74  -38.43   25.37 -104.21 -151.53 -171.43  -38.48   -2.87 -173.62  147.60

DOCKED: MODEL       45
DOCKED: USER    Run = 45
DOCKED: USER    DPF = D:/Protein_go_brrr/autodock/final/6BB5/heme_O2/dock.dpf
DOCKED: USER  
DOCKED: USER    Estimated Free Energy of Binding    =  -15.40 kcal/mol  [=(1)+(2)+(3)-(4)]
DOCKED: USER    Estimated Inhibition Constant, Ki   =    5.12 pM (picomolar)  [Temperature = 298.15 K]
DOCKED: USER    
DOCKED: USER    (1) Final Intermolecular Energy     =  -18.39 kcal/mol
DOCKED: USER        vdW + Hbond + desolv Energy     =  -16.26 kcal/mol
DOCKED: USER        Electrostatic Energy            =   -2.13 kcal/mol
DOCKED: USER    (2) Final Total Internal Energy     =   -1.61 kcal/mol
DOCKED: USER    (3) Torsional Free Energy           =   +2.98 kcal/mol
DOCKED: USER    (4) Unbound System's Energy  [=(2)] =   -1.61 kcal/mol
DOCKED: USER    
DOCKED: USER    
DOCKED: USER    NEWDPF move heme_O2_opt.pdbqt
DOCKED: USER    NEWDPF about 8.287000 34.468000 -0.670000
DOCKED: USER    NEWDPF tran0 41.009786 28.272878 15.736423
DOCKED: USER    NEWDPF quaternion0 0.331326 -0.387653 -0.857793 0.064339
DOCKED: USER    NEWDPF axisangle0 0.332014 -0.388457 -0.859574 172.622248
DOCKED: USER    NEWDPF quat0 0.332014 -0.388457 -0.859574 172.622248
DOCKED: USER    NEWDPF dihe0 103.74 -38.43 25.37 -104.21 -151.53 -171.43 -38.48 -2.87 -173.62 147.60 
DOCKED: USER  keepresnum = 1 
DOCKED: USER  
DOCKED: REMARK  10 active torsions:
DOCKED: REMARK  status: ('A' for Active; 'I' for Inactive)
DOCKED: REMARK    1  A    between atoms: C_6  and  C_10 
DOCKED: REMARK    2  A    between atoms: C_10  and  C_11 
DOCKED: REMARK    3  A    between atoms: C_11  and  C_12 
DOCKED: REMARK    4  A    between atoms: C_12  and  O_14 
DOCKED: REMARK    5  A    between atoms: C_17  and  C_20 
DOCKED: REMARK    6  A    between atoms: C_24  and  C_27 
DOCKED: REMARK    7  A    between atoms: C_31  and  C_34 
DOCKED: REMARK    8  A    between atoms: C_34  and  C_35 
DOCKED: REMARK    9  A    between atoms: C_35  and  C_36 
DOCKED: REMARK   10  A    between atoms: C_36  and  O_38 
DOCKED: USER                              x       y       z     vdW  Elec       q    Type
DOCKED: USER                           _______ _______ _______ _____ _____    ______ ____
DOCKED: ROOT
DOCKED: ATOM      1  C   UNL d   1      42.647  27.565  16.883 -0.22 +0.02    +0.064 A 
DOCKED: ATOM      2  C   UNL d   1      40.819  31.901  16.239 -0.40 +0.01    +0.064 A 
DOCKED: ATOM      3  C   UNL d   1      37.496  30.154  13.239 -0.40 +0.01    +0.064 C 
DOCKED: ATOM      4  C   UNL d   1      39.067  25.622  14.267 -0.40 +0.01    +0.064 A 
DOCKED: ATOM      5  C   UNL d   1      42.420  28.886  16.954 -0.14 +0.02    +0.066 A 
DOCKED: ATOM      6  C   UNL d   1      43.192  29.774  17.710 -0.29 -0.01    -0.021 A 
DOCKED: ATOM      7  C   UNL d   1      42.637  31.023  17.559 -0.38 -0.01    -0.025 A 
DOCKED: ATOM      8  C   UNL d   1      41.571  30.872  16.676 -0.34 +0.01    +0.066 A 
DOCKED: ATOM      9  C   UNL d   1      43.113  32.273  18.266 -0.44 +0.01    +0.051 C 
DOCKED: ATOM     10  C   UNL d   1      39.704  31.808  15.296 -0.36 +0.01    +0.066 A 
DOCKED: ATOM     11  C   UNL d   1      39.063  32.925  14.749 -0.41 -0.00    -0.021 A 
DOCKED: ATOM     12  C   UNL d   1      38.113  32.442  13.868 -0.40 +0.00    +0.000 A 
DOCKED: ATOM     13  C   UNL d   1      38.223  31.026  13.937 -0.37 +0.01    +0.070 A 
DOCKED: ATOM     14  C   UNL d   1      39.363  34.392  15.035 -0.53 +0.00    +0.052 C 
DOCKED: ATOM     15  C   UNL d   1      37.552  28.714  13.307 -0.39 +0.01    +0.066 A 
DOCKED: ATOM     16  C   UNL d   1      36.652  27.857  12.673 -0.51 -0.00    -0.021 A 
DOCKED: ATOM     17  C   UNL d   1      37.080  26.559  12.952 -0.47 +0.00    +0.000 A 
DOCKED: ATOM     18  C   UNL d   1      38.225  26.724  13.745 -0.38 +0.01    +0.070 A 
DOCKED: ATOM     19  C   UNL d   1      35.446  28.347  11.911 -0.64 +0.00    +0.052 C 
DOCKED: ATOM     20  C   UNL d   1      40.146  25.743  15.065 -0.38 +0.01    +0.066 A 
DOCKED: ATOM     21  C   UNL d   1      40.911  24.668  15.511 -0.44 -0.00    -0.025 A 
DOCKED: ATOM     22  C   UNL d   1      41.951  25.205  16.235 -0.36 -0.00    -0.021 A 
DOCKED: ATOM     23  C   UNL d   1      41.772  26.592  16.220 -0.35 +0.01    +0.066 A 
DOCKED: ATOM     24  C   UNL d   1      40.660  23.204  15.261 -0.52 +0.00    +0.051 C 
DOCKED: ATOM     25  N   UNL d   1      41.398  29.545  16.355 -0.22 -0.06    -0.248 N 
DOCKED: ATOM     26  N   UNL d   1      39.190  30.648  14.812 -0.16 -0.05    -0.248 N 
DOCKED: ATOM     27  N   UNL d   1      38.452  28.035  14.012 -0.21 -0.05    -0.248 N 
DOCKED: ATOM     28  N   UNL d   1      40.648  26.911  15.545 -0.27 -0.05    -0.248 N 
DOCKED: ATOM     29 FE   UNL d   1      39.922  28.765  15.180 -0.06 +0.00    +0.000 Fe
DOCKED: ATOM     30  O   UNL d   1      39.415  29.310  16.546 -0.73 +0.00    +0.000 OA
DOCKED: ATOM     31  O   UNL d   1      38.816  27.972  15.969 -0.84 +0.00    +0.000 OA
DOCKED: ENDROOT
DOCKED: BRANCH   6  32
DOCKED: ATOM     32  C   UNL d   1      44.323  29.444  18.650 -0.28 +0.02    +0.052 C 
DOCKED: BRANCH  32  33
DOCKED: ATOM     33  C   UNL d   1      43.852  29.193  20.079 +0.10 +0.09    +0.115 C 
DOCKED: BRANCH  33  34
DOCKED: ATOM     34  C   UNL d   1      44.572  28.037  20.727 -0.02 +0.19    +0.139 C 
DOCKED: ATOM     35  O   UNL d   1      45.789  28.057  20.815 -0.37 -0.91    -0.650 OA
DOCKED: BRANCH  34  36
DOCKED: ATOM     36  O   UNL d   1      43.902  26.961  21.190 -0.28 -1.16    -0.776 OA
DOCKED: ATOM     37  H   UNL d   1      43.893  26.122  20.716 +0.06 +0.15    +0.167 HD
DOCKED: ENDBRANCH  34  36
DOCKED: ENDBRANCH  33  34
DOCKED: ENDBRANCH  32  33
DOCKED: ENDBRANCH   6  32
DOCKED: BRANCH  22  38
DOCKED: ATOM     38  C   UNL d   1      43.018  24.420  16.954 -0.34 +0.01    +0.052 C 
DOCKED: BRANCH  38  39
DOCKED: ATOM     39  C   UNL d   1      42.887  24.515  18.472 -0.34 +0.03    +0.115 C 
DOCKED: BRANCH  39  40
DOCKED: ATOM     40  C   UNL d   1      43.894  23.652  19.192 -0.25 +0.05    +0.139 C 
DOCKED: ATOM     41  O   UNL d   1      44.337  22.655  18.647 -0.06 -0.24    -0.650 OA
DOCKED: BRANCH  40  42
DOCKED: ATOM     42  O   UNL d   1      44.354  23.992  20.412 -0.07 -0.39    -0.776 OA
DOCKED: ATOM     43  H   UNL d   1      44.501  24.913  20.658 +0.06 +0.11    +0.167 HD
DOCKED: ENDBRANCH  40  42
DOCKED: ENDBRANCH  39  40
DOCKED: ENDBRANCH  38  39
DOCKED: ENDBRANCH  22  38
DOCKED: BRANCH  12  44
DOCKED: ATOM     44  C   UNL d   1      37.215  33.364  13.070 -0.47 +0.00    +0.004 C 
DOCKED: ATOM     45  C   UNL d   1      36.044  33.077  12.502 -0.60 +0.00    +0.012 C 
DOCKED: ENDBRANCH  12  44
DOCKED: BRANCH  17  46
DOCKED: ATOM     46  C   UNL d   1      36.484  25.224  12.594 -0.67 +0.00    +0.004 C 
DOCKED: ATOM     47  C   UNL d   1      35.917  24.324  13.409 -0.73 +0.00    +0.012 C 
DOCKED: ENDBRANCH  17  46
DOCKED: TORSDOF 10
DOCKED: TER
DOCKED: ENDMDL
________________________________________________________________________________


	BEGINNING GENETIC ALGORITHM DOCKING 46 of 100
Run: 46 Seed: 923127058 643987440 [ Run 46 of 100 GA/GALS ]
Beginning LAMARCKIAN GENETIC ALGORITHM (LGA), with a maximum of 25000000 energy evaluations.

Final-Value: -19.868


	FINAL GENETIC ALGORITHM DOCKED STATE
	_______________________________________________


Detailed state:  trans 8.333 34.724 -0.955 quatxyzw 0.018108 0.035908 0.018441 0.999021 center 8.287 34.468 -0.670 ntor 10 -130.4856 -126.9805 -23.1990 -63.5606 11.2346 -169.2326 -59.4616 59.9307 172.4677 164.9576
State:	  8.333  34.724  -0.955   0.409  0.812  0.417  5.071   -130.49 -126.98  -23.20  -63.56   11.23 -169.23  -59.46   59.93  172.47  164.96

DOCKED: MODEL       46
DOCKED: USER    Run = 46
DOCKED: USER    DPF = D:/Protein_go_brrr/autodock/final/6BB5/heme_O2/dock.dpf
DOCKED: USER  
DOCKED: USER    Estimated Free Energy of Binding    =  -14.34 kcal/mol  [=(1)+(2)+(3)-(4)]
DOCKED: USER    Estimated Inhibition Constant, Ki   =   30.98 pM (picomolar)  [Temperature = 298.15 K]
DOCKED: USER    
DOCKED: USER    (1) Final Intermolecular Energy     =  -17.32 kcal/mol
DOCKED: USER        vdW + Hbond + desolv Energy     =  -15.78 kcal/mol
DOCKED: USER        Electrostatic Energy            =   -1.54 kcal/mol
DOCKED: USER    (2) Final Total Internal Energy     =   -2.55 kcal/mol
DOCKED: USER    (3) Torsional Free Energy           =   +2.98 kcal/mol
DOCKED: USER    (4) Unbound System's Energy  [=(2)] =   -2.55 kcal/mol
DOCKED: USER    
DOCKED: USER    
DOCKED: USER    NEWDPF move heme_O2_opt.pdbqt
DOCKED: USER    NEWDPF about 8.287000 34.468000 -0.670000
DOCKED: USER    NEWDPF tran0 8.333079 34.723730 -0.954996
DOCKED: USER    NEWDPF quaternion0 0.018108 0.035908 0.018441 0.999021
DOCKED: USER    NEWDPF axisangle0 0.409290 0.811627 0.416826 5.071422
DOCKED: USER    NEWDPF quat0 0.409290 0.811627 0.416826 5.071422
DOCKED: USER    NEWDPF dihe0 -130.49 -126.98 -23.20 -63.56 11.23 -169.23 -59.46 59.93 172.47 164.96 
DOCKED: USER  keepresnum = 1 
DOCKED: USER  
DOCKED: REMARK  10 active torsions:
DOCKED: REMARK  status: ('A' for Active; 'I' for Inactive)
DOCKED: REMARK    1  A    between atoms: C_6  and  C_10 
DOCKED: REMARK    2  A    between atoms: C_10  and  C_11 
DOCKED: REMARK    3  A    between atoms: C_11  and  C_12 
DOCKED: REMARK    4  A    between atoms: C_12  and  O_14 
DOCKED: REMARK    5  A    between atoms: C_17  and  C_20 
DOCKED: REMARK    6  A    between atoms: C_24  and  C_27 
DOCKED: REMARK    7  A    between atoms: C_31  and  C_34 
DOCKED: REMARK    8  A    between atoms: C_34  and  C_35 
DOCKED: REMARK    9  A    between atoms: C_35  and  C_36 
DOCKED: REMARK   10  A    between atoms: C_36  and  O_38 
DOCKED: USER                              x       y       z     vdW  Elec       q    Type
DOCKED: USER                           _______ _______ _______ _____ _____    ______ ____
DOCKED: ROOT
DOCKED: ATOM      1  C   UNL d   1       6.549  35.361  -1.909 -0.19 +0.01    +0.064 A 
DOCKED: ATOM      2  C   UNL d   1       7.353  32.735   1.966 -0.38 +0.01    +0.064 A 
DOCKED: ATOM      3  C   UNL d   1      12.103  33.094   1.337 -0.41 +0.00    +0.064 C 
DOCKED: ATOM      4  C   UNL d   1      11.295  36.194  -2.378 -0.43 +0.00    +0.064 A 
DOCKED: ATOM      5  C   UNL d   1       6.380  34.619  -0.802 -0.25 +0.01    +0.066 A 
DOCKED: ATOM      6  C   UNL d   1       5.133  34.259  -0.285 -0.27 -0.00    -0.021 A 
DOCKED: ATOM      7  C   UNL d   1       5.364  33.535   0.861 -0.34 -0.00    -0.025 A 
DOCKED: ATOM      8  C   UNL d   1       6.746  33.432   0.986 -0.34 +0.01    +0.066 A 
DOCKED: ATOM      9  C   UNL d   1       4.287  33.008   1.785 -0.38 +0.01    +0.051 C 
DOCKED: ATOM     10  C   UNL d   1       8.797  32.573   2.136 -0.37 +0.00    +0.066 A 
DOCKED: ATOM     11  C   UNL d   1       9.369  31.706   3.073 -0.45 -0.00    -0.021 A 
DOCKED: ATOM     12  C   UNL d   1      10.739  31.781   2.895 -0.43 +0.00    +0.000 A 
DOCKED: ATOM     13  C   UNL d   1      10.929  32.721   1.844 -0.36 +0.00    +0.070 A 
DOCKED: ATOM     14  C   UNL d   1       8.640  30.821   4.077 -0.57 +0.00    +0.052 C 
DOCKED: ATOM     15  C   UNL d   1      12.340  34.067   0.298 -0.37 +0.00    +0.066 A 
DOCKED: ATOM     16  C   UNL d   1      13.600  34.534  -0.076 -0.44 -0.00    -0.021 A 
DOCKED: ATOM     17  C   UNL d   1      13.394  35.420  -1.133 -0.46 +0.00    +0.000 A 
DOCKED: ATOM     18  C   UNL d   1      12.006  35.426  -1.329 -0.39 +0.00    +0.070 A 
DOCKED: ATOM     19  C   UNL d   1      14.868  34.140   0.639 -0.60 +0.00    +0.052 C 
DOCKED: ATOM     20  C   UNL d   1       9.963  36.255  -2.567 -0.41 +0.00    +0.066 A 
DOCKED: ATOM     21  C   UNL d   1       9.351  36.983  -3.584 -0.41 +0.00    -0.025 A 
DOCKED: ATOM     22  C   UNL d   1       8.001  36.736  -3.482 -0.32 -0.00    -0.021 A 
DOCKED: ATOM     23  C   UNL d   1       7.835  35.877  -2.391 -0.33 +0.01    +0.066 A 
DOCKED: ATOM     24  C   UNL d   1      10.021  37.873  -4.599 -0.48 -0.01    +0.051 C 
DOCKED: ATOM     25  N   UNL d   1       7.372  34.156  -0.003 -0.18 -0.04    -0.248 N 
DOCKED: ATOM     26  N   UNL d   1       9.743  33.201   1.391 -0.15 -0.02    -0.248 N 
DOCKED: ATOM     27  N   UNL d   1      11.377  34.657  -0.404 -0.19 -0.03    -0.248 N 
DOCKED: ATOM     28  N   UNL d   1       9.026  35.624  -1.810 -0.24 -0.04    -0.248 N 
DOCKED: ATOM     29 FE   UNL d   1       9.385  34.422  -0.222 +0.01 +0.00    +0.000 Fe
DOCKED: ATOM     30  O   UNL d   1       8.786  35.149   1.018 -0.82 +0.00    +0.000 OA
DOCKED: ATOM     31  O   UNL d   1       9.892  35.862   0.153 -1.04 +0.00    +0.000 OA
DOCKED: ENDROOT
DOCKED: BRANCH   6  32
DOCKED: ATOM     32  C   UNL d   1       3.773  34.691  -0.768 -0.22 +0.01    +0.052 C 
DOCKED: BRANCH  32  33
DOCKED: ATOM     33  C   UNL d   1       3.138  35.755   0.122 -0.14 +0.06    +0.115 C 
DOCKED: BRANCH  33  34
DOCKED: ATOM     34  C   UNL d   1       2.888  37.047  -0.614 -0.15 +0.12    +0.139 C 
DOCKED: ATOM     35  O   UNL d   1       3.103  38.111  -0.056 -0.39 -1.02    -0.650 OA
DOCKED: BRANCH  34  36
DOCKED: ATOM     36  O   UNL d   1       2.403  37.057  -1.873 +0.01 -0.43    -0.776 OA
DOCKED: ATOM     37  H   UNL d   1       2.815  37.573  -2.576 +0.03 +0.07    +0.167 HD
DOCKED: ENDBRANCH  34  36
DOCKED: ENDBRANCH  33  34
DOCKED: ENDBRANCH  32  33
DOCKED: ENDBRANCH   6  32
DOCKED: BRANCH  22  38
DOCKED: ATOM     38  C   UNL d   1       6.928  37.346  -4.348 -0.24 +0.00    +0.052 C 
DOCKED: BRANCH  38  39
DOCKED: ATOM     39  C   UNL d   1       6.337  38.613  -3.736 -0.21 +0.01    +0.115 C 
DOCKED: BRANCH  39  40
DOCKED: ATOM     40  C   UNL d   1       4.849  38.506  -3.514 -0.12 +0.03    +0.139 C 
DOCKED: ATOM     41  O   UNL d   1       4.190  37.731  -4.188 +0.04 -0.11    -0.650 OA
DOCKED: BRANCH  40  42
DOCKED: ATOM     42  O   UNL d   1       4.237  39.215  -2.545 +0.05 -0.29    -0.776 OA
DOCKED: ATOM     43  H   UNL d   1       3.704  38.785  -1.866 +0.04 +0.10    +0.167 HD
DOCKED: ENDBRANCH  40  42
DOCKED: ENDBRANCH  39  40
DOCKED: ENDBRANCH  38  39
DOCKED: ENDBRANCH  22  38
DOCKED: BRANCH  12  44
DOCKED: ATOM     44  C   UNL d   1      11.704  30.968   3.732 -0.55 +0.00    +0.004 C 
DOCKED: ATOM     45  C   UNL d   1      12.921  30.541   3.395 -0.66 +0.00    +0.012 C 
DOCKED: ENDBRANCH  12  44
DOCKED: BRANCH  17  46
DOCKED: ATOM     46  C   UNL d   1      14.361  36.277  -1.907 -0.63 +0.00    +0.004 C 
DOCKED: ATOM     47  C   UNL d   1      15.025  37.362  -1.489 -0.65 +0.00    +0.012 C 
DOCKED: ENDBRANCH  17  46
DOCKED: TORSDOF 10
DOCKED: TER
DOCKED: ENDMDL
________________________________________________________________________________


	BEGINNING GENETIC ALGORITHM DOCKING 47 of 100
Run: 47 Seed: 970702335 809611615 [ Run 47 of 100 GA/GALS ]
Beginning LAMARCKIAN GENETIC ALGORITHM (LGA), with a maximum of 25000000 energy evaluations.

Final-Value: -20.569


	FINAL GENETIC ALGORITHM DOCKED STATE
	_______________________________________________


Detailed state:  trans 41.108 28.225 15.754 quatxyzw -0.332133 0.379744 0.861953 -0.050192 center 8.287 34.468 -0.670 ntor 10 22.3026 -109.3932 18.8412 -90.8064 171.4464 99.2214 6.4810 57.1315 -133.9351 -170.4143
State:	 41.108  28.225  15.754  -0.333  0.380  0.863 -174.246     22.30 -109.39   18.84  -90.81  171.45   99.22    6.48   57.13 -133.94 -170.41

DOCKED: MODEL       47
DOCKED: USER    Run = 47
DOCKED: USER    DPF = D:/Protein_go_brrr/autodock/final/6BB5/heme_O2/dock.dpf
DOCKED: USER  
DOCKED: USER    Estimated Free Energy of Binding    =  -16.00 kcal/mol  [=(1)+(2)+(3)-(4)]
DOCKED: USER    Estimated Inhibition Constant, Ki   =    1.88 pM (picomolar)  [Temperature = 298.15 K]
DOCKED: USER    
DOCKED: USER    (1) Final Intermolecular Energy     =  -18.98 kcal/mol
DOCKED: USER        vdW + Hbond + desolv Energy     =  -16.80 kcal/mol
DOCKED: USER        Electrostatic Energy            =   -2.18 kcal/mol
DOCKED: USER    (2) Final Total Internal Energy     =   -1.59 kcal/mol
DOCKED: USER    (3) Torsional Free Energy           =   +2.98 kcal/mol
DOCKED: USER    (4) Unbound System's Energy  [=(2)] =   -1.59 kcal/mol
DOCKED: USER    
DOCKED: USER    
DOCKED: USER    NEWDPF move heme_O2_opt.pdbqt
DOCKED: USER    NEWDPF about 8.287000 34.468000 -0.670000
DOCKED: USER    NEWDPF tran0 41.108460 28.225177 15.753637
DOCKED: USER    NEWDPF quaternion0 -0.332133 0.379744 0.861953 -0.050192
DOCKED: USER    NEWDPF axisangle0 -0.332552 0.380223 0.863041 -174.246020
DOCKED: USER    NEWDPF quat0 -0.332552 0.380223 0.863041 -174.246020
DOCKED: USER    NEWDPF dihe0 22.30 -109.39 18.84 -90.81 171.45 99.22 6.48 57.13 -133.94 -170.41 
DOCKED: USER  keepresnum = 1 
DOCKED: USER  
DOCKED: REMARK  10 active torsions:
DOCKED: REMARK  status: ('A' for Active; 'I' for Inactive)
DOCKED: REMARK    1  A    between atoms: C_6  and  C_10 
DOCKED: REMARK    2  A    between atoms: C_10  and  C_11 
DOCKED: REMARK    3  A    between atoms: C_11  and  C_12 
DOCKED: REMARK    4  A    between atoms: C_12  and  O_14 
DOCKED: REMARK    5  A    between atoms: C_17  and  C_20 
DOCKED: REMARK    6  A    between atoms: C_24  and  C_27 
DOCKED: REMARK    7  A    between atoms: C_31  and  C_34 
DOCKED: REMARK    8  A    between atoms: C_34  and  C_35 
DOCKED: REMARK    9  A    between atoms: C_35  and  C_36 
DOCKED: REMARK   10  A    between atoms: C_36  and  O_38 
DOCKED: USER                              x       y       z     vdW  Elec       q    Type
DOCKED: USER                           _______ _______ _______ _____ _____    ______ ____
DOCKED: ROOT
DOCKED: ATOM      1  C   UNL d   1      42.780  27.559  16.877 -0.24 +0.02    +0.064 A 
DOCKED: ATOM      2  C   UNL d   1      40.813  31.842  16.285 -0.39 +0.01    +0.064 A 
DOCKED: ATOM      3  C   UNL d   1      37.510  30.015  13.310 -0.40 +0.01    +0.064 C 
DOCKED: ATOM      4  C   UNL d   1      39.231  25.526  14.286 -0.41 +0.01    +0.064 A 
DOCKED: ATOM      5  C   UNL d   1      42.513  28.873  16.960 -0.19 +0.02    +0.066 A 
DOCKED: ATOM      6  C   UNL d   1      43.266  29.778  17.714 -0.30 -0.01    -0.021 A 
DOCKED: ATOM      7  C   UNL d   1      42.671  31.011  17.578 -0.37 -0.01    -0.025 A 
DOCKED: ATOM      8  C   UNL d   1      41.601  30.834  16.706 -0.34 +0.01    +0.066 A 
DOCKED: ATOM      9  C   UNL d   1      43.117  32.270  18.289 -0.44 +0.01    +0.051 C 
DOCKED: ATOM     10  C   UNL d   1      39.690  31.721  15.354 -0.36 +0.01    +0.066 A 
DOCKED: ATOM     11  C   UNL d   1      39.009  32.822  14.823 -0.40 -0.00    -0.021 A 
DOCKED: ATOM     12  C   UNL d   1      38.064  32.317  13.949 -0.40 +0.00    +0.000 A 
DOCKED: ATOM     13  C   UNL d   1      38.218  30.904  14.007 -0.37 +0.01    +0.070 A 
DOCKED: ATOM     14  C   UNL d   1      39.267  34.296  15.117 -0.53 +0.00    +0.052 C 
DOCKED: ATOM     15  C   UNL d   1      37.611  28.577  13.366 -0.39 +0.01    +0.066 A 
DOCKED: ATOM     16  C   UNL d   1      36.731  27.697  12.736 -0.50 -0.00    -0.021 A 
DOCKED: ATOM     17  C   UNL d   1      37.201  26.411  13.001 -0.47 +0.00    +0.000 A 
DOCKED: ATOM     18  C   UNL d   1      38.350  26.605  13.782 -0.38 +0.01    +0.070 A 
DOCKED: ATOM     19  C   UNL d   1      35.502  28.156  11.992 -0.66 +0.00    +0.052 C 
DOCKED: ATOM     20  C   UNL d   1      40.315  25.674  15.073 -0.40 +0.01    +0.066 A 
DOCKED: ATOM     21  C   UNL d   1      41.118  24.621  15.502 -0.43 -0.00    -0.025 A 
DOCKED: ATOM     22  C   UNL d   1      42.149  25.184  16.219 -0.33 -0.00    -0.021 A 
DOCKED: ATOM     23  C   UNL d   1      41.927  26.565  16.216 -0.34 +0.01    +0.066 A 
DOCKED: ATOM     24  C   UNL d   1      40.908  23.151  15.244 -0.56 +0.00    +0.051 C 
DOCKED: ATOM     25  N   UNL d   1      41.465  29.504  16.378 -0.21 -0.06    -0.248 N 
DOCKED: ATOM     26  N   UNL d   1      39.206  30.550  14.867 -0.13 -0.06    -0.248 N 
DOCKED: ATOM     27  N   UNL d   1      38.540  27.921  14.056 -0.21 -0.05    -0.248 N 
DOCKED: ATOM     28  N   UNL d   1      40.787  26.854  15.556 -0.27 -0.05    -0.248 N 
DOCKED: ATOM     29 FE   UNL d   1      40.000  28.687  15.213 -0.07 +0.00    +0.000 Fe
DOCKED: ATOM     30  O   UNL d   1      39.492  29.207  16.589 -0.74 +0.00    +0.000 OA
DOCKED: ATOM     31  O   UNL d   1      38.928  27.856  16.008 -0.87 +0.00    +0.000 OA
DOCKED: ENDROOT
DOCKED: BRANCH   6  32
DOCKED: ATOM     32  C   UNL d   1      44.417  29.477  18.638 -0.28 +0.02    +0.052 C 
DOCKED: BRANCH  32  33
DOCKED: ATOM     33  C   UNL d   1      44.103  28.364  19.633 -0.22 +0.08    +0.115 C 
DOCKED: BRANCH  33  34
DOCKED: ATOM     34  C   UNL d   1      45.222  28.140  20.619 -0.05 +0.18    +0.139 C 
DOCKED: ATOM     35  O   UNL d   1      46.043  29.023  20.810 -0.18 -0.75    -0.650 OA
DOCKED: BRANCH  34  36
DOCKED: ATOM     36  O   UNL d   1      45.356  26.970  21.278 -0.14 -1.32    -0.776 OA
DOCKED: ATOM     37  H   UNL d   1      44.977  26.149  20.943 +0.05 +0.18    +0.167 HD
DOCKED: ENDBRANCH  34  36
DOCKED: ENDBRANCH  33  34
DOCKED: ENDBRANCH  32  33
DOCKED: ENDBRANCH   6  32
DOCKED: BRANCH  22  38
DOCKED: ATOM     38  C   UNL d   1      43.248  24.427  16.919 -0.32 +0.01    +0.052 C 
DOCKED: BRANCH  38  39
DOCKED: ATOM     39  C   UNL d   1      42.734  23.634  18.119 -0.37 +0.03    +0.115 C 
DOCKED: BRANCH  39  40
DOCKED: ATOM     40  C   UNL d   1      43.455  23.988  19.396 -0.29 +0.05    +0.139 C 
DOCKED: ATOM     41  O   UNL d   1      44.124  23.143  19.968 -0.51 -0.31    -0.650 OA
DOCKED: BRANCH  40  42
DOCKED: ATOM     42  O   UNL d   1      43.415  25.240  19.892 +0.04 -0.37    -0.776 OA
DOCKED: ATOM     43  H   UNL d   1      44.180  25.826  19.844 +0.07 +0.10    +0.167 HD
DOCKED: ENDBRANCH  40  42
DOCKED: ENDBRANCH  39  40
DOCKED: ENDBRANCH  38  39
DOCKED: ENDBRANCH  22  38
DOCKED: BRANCH  12  44
DOCKED: ATOM     44  C   UNL d   1      37.129  33.216  13.168 -0.49 +0.00    +0.004 C 
DOCKED: ATOM     45  C   UNL d   1      36.022  32.873  12.511 -0.59 +0.00    +0.012 C 
DOCKED: ENDBRANCH  12  44
DOCKED: BRANCH  17  46
DOCKED: ATOM     46  C   UNL d   1      36.643  25.061  12.640 -0.67 +0.00    +0.004 C 
DOCKED: ATOM     47  C   UNL d   1      35.898  24.243  13.395 -0.73 +0.00    +0.012 C 
DOCKED: ENDBRANCH  17  46
DOCKED: TORSDOF 10
DOCKED: TER
DOCKED: ENDMDL
________________________________________________________________________________


	BEGINNING GENETIC ALGORITHM DOCKING 48 of 100
Run: 48 Seed: 724177835 905925932 [ Run 48 of 100 GA/GALS ]
Beginning LAMARCKIAN GENETIC ALGORITHM (LGA), with a maximum of 25000000 energy evaluations.

Final-Value: -19.618


	FINAL GENETIC ALGORITHM DOCKED STATE
	_______________________________________________


Detailed state:  trans 41.062 28.295 15.724 quatxyzw -0.331621 0.376169 0.863839 -0.048034 center 8.287 34.468 -0.670 ntor 10 120.3453 51.4358 19.0063 -94.2600 -138.9287 -113.5106 -42.9559 -16.9875 -169.3499 57.7887
State:	 41.062  28.295  15.724  -0.332  0.377  0.865 -174.494    120.35   51.44   19.01  -94.26 -138.93 -113.51  -42.96  -16.99 -169.35   57.79

DOCKED: MODEL       48
DOCKED: USER    Run = 48
DOCKED: USER    DPF = D:/Protein_go_brrr/autodock/final/6BB5/heme_O2/dock.dpf
DOCKED: USER  
DOCKED: USER    Estimated Free Energy of Binding    =  -14.79 kcal/mol  [=(1)+(2)+(3)-(4)]
DOCKED: USER    Estimated Inhibition Constant, Ki   =   14.30 pM (picomolar)  [Temperature = 298.15 K]
DOCKED: USER    
DOCKED: USER    (1) Final Intermolecular Energy     =  -17.78 kcal/mol
DOCKED: USER        vdW + Hbond + desolv Energy     =  -15.88 kcal/mol
DOCKED: USER        Electrostatic Energy            =   -1.89 kcal/mol
DOCKED: USER    (2) Final Total Internal Energy     =   -1.84 kcal/mol
DOCKED: USER    (3) Torsional Free Energy           =   +2.98 kcal/mol
DOCKED: USER    (4) Unbound System's Energy  [=(2)] =   -1.84 kcal/mol
DOCKED: USER    
DOCKED: USER    
DOCKED: USER    NEWDPF move heme_O2_opt.pdbqt
DOCKED: USER    NEWDPF about 8.287000 34.468000 -0.670000
DOCKED: USER    NEWDPF tran0 41.062446 28.295128 15.724202
DOCKED: USER    NEWDPF quaternion0 -0.331621 0.376169 0.863839 -0.048034
DOCKED: USER    NEWDPF axisangle0 -0.332004 0.376604 0.864837 -174.493566
DOCKED: USER    NEWDPF quat0 -0.332004 0.376604 0.864837 -174.493566
DOCKED: USER    NEWDPF dihe0 120.35 51.44 19.01 -94.26 -138.93 -113.51 -42.96 -16.99 -169.35 57.79 
DOCKED: USER  keepresnum = 1 
DOCKED: USER  
DOCKED: REMARK  10 active torsions:
DOCKED: REMARK  status: ('A' for Active; 'I' for Inactive)
DOCKED: REMARK    1  A    between atoms: C_6  and  C_10 
DOCKED: REMARK    2  A    between atoms: C_10  and  C_11 
DOCKED: REMARK    3  A    between atoms: C_11  and  C_12 
DOCKED: REMARK    4  A    between atoms: C_12  and  O_14 
DOCKED: REMARK    5  A    between atoms: C_17  and  C_20 
DOCKED: REMARK    6  A    between atoms: C_24  and  C_27 
DOCKED: REMARK    7  A    between atoms: C_31  and  C_34 
DOCKED: REMARK    8  A    between atoms: C_34  and  C_35 
DOCKED: REMARK    9  A    between atoms: C_35  and  C_36 
DOCKED: REMARK   10  A    between atoms: C_36  and  O_38 
DOCKED: USER                              x       y       z     vdW  Elec       q    Type
DOCKED: USER                           _______ _______ _______ _____ _____    ______ ____
DOCKED: ROOT
DOCKED: ATOM      1  C   UNL d   1      42.742  27.632  16.838 -0.24 +0.02    +0.064 A 
DOCKED: ATOM      2  C   UNL d   1      40.747  31.907  16.279 -0.40 +0.01    +0.064 A 
DOCKED: ATOM      3  C   UNL d   1      37.445  30.079  13.304 -0.37 +0.01    +0.064 C 
DOCKED: ATOM      4  C   UNL d   1      39.196  25.594  14.246 -0.41 +0.01    +0.064 A 
DOCKED: ATOM      5  C   UNL d   1      42.468  28.944  16.930 -0.22 +0.02    +0.066 A 
DOCKED: ATOM      6  C   UNL d   1      43.217  29.849  17.687 -0.30 -0.01    -0.021 A 
DOCKED: ATOM      7  C   UNL d   1      42.615  31.079  17.561 -0.38 -0.00    -0.025 A 
DOCKED: ATOM      8  C   UNL d   1      41.543  30.900  16.691 -0.34 +0.01    +0.066 A 
DOCKED: ATOM      9  C   UNL d   1      43.056  32.336  18.278 -0.45 +0.01    +0.051 C 
DOCKED: ATOM     10  C   UNL d   1      39.622  31.785  15.351 -0.36 +0.01    +0.066 A 
DOCKED: ATOM     11  C   UNL d   1      38.933  32.886  14.830 -0.40 -0.00    -0.021 A 
DOCKED: ATOM     12  C   UNL d   1      37.988  32.380  13.956 -0.40 +0.00    +0.000 A 
DOCKED: ATOM     13  C   UNL d   1      38.150  30.968  14.004 -0.37 +0.01    +0.070 A 
DOCKED: ATOM     14  C   UNL d   1      39.183  34.359  15.131 -0.54 +0.00    +0.052 C 
DOCKED: ATOM     15  C   UNL d   1      37.555  28.641  13.351 -0.39 +0.01    +0.066 A 
DOCKED: ATOM     16  C   UNL d   1      36.678  27.760  12.718 -0.51 -0.00    -0.021 A 
DOCKED: ATOM     17  C   UNL d   1      37.157  26.475  12.974 -0.47 +0.00    +0.000 A 
DOCKED: ATOM     18  C   UNL d   1      38.306  26.671  13.752 -0.38 +0.01    +0.070 A 
DOCKED: ATOM     19  C   UNL d   1      35.444  28.216  11.981 -0.66 +0.00    +0.052 C 
DOCKED: ATOM     20  C   UNL d   1      40.282  25.744  15.030 -0.40 +0.01    +0.066 A 
DOCKED: ATOM     21  C   UNL d   1      41.092  24.693  15.450 -0.43 -0.00    -0.025 A 
DOCKED: ATOM     22  C   UNL d   1      42.123  25.258  16.167 -0.32 -0.00    -0.021 A 
DOCKED: ATOM     23  C   UNL d   1      41.892  26.637  16.173 -0.34 +0.01    +0.066 A 
DOCKED: ATOM     24  C   UNL d   1      40.891  23.224  15.184 -0.56 +0.00    +0.051 C 
DOCKED: ATOM     25  N   UNL d   1      41.413  29.573  16.355 -0.22 -0.06    -0.248 N 
DOCKED: ATOM     26  N   UNL d   1      39.144  30.614  14.859 -0.16 -0.05    -0.248 N 
DOCKED: ATOM     27  N   UNL d   1      38.490  27.987  14.033 -0.21 -0.05    -0.248 N 
DOCKED: ATOM     28  N   UNL d   1      40.748  26.924  15.519 -0.27 -0.05    -0.248 N 
DOCKED: ATOM     29 FE   UNL d   1      39.949  28.754  15.190 -0.06 +0.00    +0.000 Fe
DOCKED: ATOM     30  O   UNL d   1      39.443  29.262  16.571 -0.73 +0.00    +0.000 OA
DOCKED: ATOM     31  O   UNL d   1      38.885  27.911  15.984 -0.85 +0.00    +0.000 OA
DOCKED: ENDROOT
DOCKED: BRANCH   6  32
DOCKED: ATOM     32  C   UNL d   1      44.374  29.548  18.605 -0.28 +0.02    +0.052 C 
DOCKED: BRANCH  32  33
DOCKED: ATOM     33  C   UNL d   1      43.928  29.160  20.012 +0.03 +0.09    +0.115 C 
DOCKED: BRANCH  33  34
DOCKED: ATOM     34  C   UNL d   1      44.669  27.956  20.538 -0.11 +0.17    +0.139 C 
DOCKED: ATOM     35  O   UNL d   1      45.851  28.054  20.827 -0.37 -0.91    -0.650 OA
DOCKED: BRANCH  34  36
DOCKED: ATOM     36  O   UNL d   1      44.061  26.759  20.671 -0.07 -0.83    -0.776 OA
DOCKED: ATOM     37  H   UNL d   1      44.375  25.972  20.211 +0.06 +0.12    +0.167 HD
DOCKED: ENDBRANCH  34  36
DOCKED: ENDBRANCH  33  34
DOCKED: ENDBRANCH  32  33
DOCKED: ENDBRANCH   6  32
DOCKED: BRANCH  22  38
DOCKED: ATOM     38  C   UNL d   1      43.228  24.503  16.859 -0.31 +0.01    +0.052 C 
DOCKED: BRANCH  38  39
DOCKED: ATOM     39  C   UNL d   1      44.447  25.380  17.135 -0.23 +0.04    +0.115 C 
DOCKED: BRANCH  39  40
DOCKED: ATOM     40  C   UNL d   1      45.356  24.789  18.184 -0.13 +0.06    +0.139 C 
DOCKED: ATOM     41  O   UNL d   1      45.442  23.577  18.300 +0.04 -0.30    -0.650 OA
DOCKED: BRANCH  40  42
DOCKED: ATOM     42  O   UNL d   1      46.118  25.577  18.968 +0.09 -0.40    -0.776 OA
DOCKED: ATOM     43  H   UNL d   1      45.736  26.295  19.486 +0.05 +0.10    +0.167 HD
DOCKED: ENDBRANCH  40  42
DOCKED: ENDBRANCH  39  40
DOCKED: ENDBRANCH  38  39
DOCKED: ENDBRANCH  22  38
DOCKED: BRANCH  12  44
DOCKED: ATOM     44  C   UNL d   1      37.045  33.279  13.183 -0.50 +0.00    +0.004 C 
DOCKED: ATOM     45  C   UNL d   1      35.936  32.933  12.530 -0.60 +0.00    +0.012 C 
DOCKED: ENDBRANCH  12  44
DOCKED: BRANCH  17  46
DOCKED: ATOM     46  C   UNL d   1      36.605  25.124  12.606 -0.67 +0.00    +0.004 C 
DOCKED: ATOM     47  C   UNL d   1      35.921  24.270  13.379 -0.73 +0.00    +0.012 C 
DOCKED: ENDBRANCH  17  46
DOCKED: TORSDOF 10
DOCKED: TER
DOCKED: ENDMDL
________________________________________________________________________________


	BEGINNING GENETIC ALGORITHM DOCKING 49 of 100
Run: 49 Seed: 994000900 1718019117 [ Run 49 of 100 GA/GALS ]
Beginning LAMARCKIAN GENETIC ALGORITHM (LGA), with a maximum of 25000000 energy evaluations.

Final-Value: -20.049


	FINAL GENETIC ALGORITHM DOCKED STATE
	_______________________________________________


Detailed state:  trans 40.857 28.477 15.698 quatxyzw 0.353533 -0.386501 -0.850762 0.042831 center 8.287 34.468 -0.670 ntor 10 -102.2377 -97.1130 35.2858 -96.7756 166.1262 179.9975 47.2550 27.9951 -60.7683 162.7823
State:	 40.857  28.477  15.698   0.354 -0.387 -0.852 175.090   -102.24  -97.11   35.29  -96.78  166.13  180.00   47.25   28.00  -60.77  162.78

DOCKED: MODEL       49
DOCKED: USER    Run = 49
DOCKED: USER    DPF = D:/Protein_go_brrr/autodock/final/6BB5/heme_O2/dock.dpf
DOCKED: USER  
DOCKED: USER    Estimated Free Energy of Binding    =  -14.81 kcal/mol  [=(1)+(2)+(3)-(4)]
DOCKED: USER    Estimated Inhibition Constant, Ki   =   13.97 pM (picomolar)  [Temperature = 298.15 K]
DOCKED: USER    
DOCKED: USER    (1) Final Intermolecular Energy     =  -17.79 kcal/mol
DOCKED: USER        vdW + Hbond + desolv Energy     =  -16.09 kcal/mol
DOCKED: USER        Electrostatic Energy            =   -1.71 kcal/mol
DOCKED: USER    (2) Final Total Internal Energy     =   -2.26 kcal/mol
DOCKED: USER    (3) Torsional Free Energy           =   +2.98 kcal/mol
DOCKED: USER    (4) Unbound System's Energy  [=(2)] =   -2.26 kcal/mol
DOCKED: USER    
DOCKED: USER    
DOCKED: USER    NEWDPF move heme_O2_opt.pdbqt
DOCKED: USER    NEWDPF about 8.287000 34.468000 -0.670000
DOCKED: USER    NEWDPF tran0 40.856503 28.477411 15.698442
DOCKED: USER    NEWDPF quaternion0 0.353533 -0.386501 -0.850762 0.042831
DOCKED: USER    NEWDPF axisangle0 0.353857 -0.386856 -0.851544 175.090401
DOCKED: USER    NEWDPF quat0 0.353857 -0.386856 -0.851544 175.090401
DOCKED: USER    NEWDPF dihe0 -102.24 -97.11 35.29 -96.78 166.13 180.00 47.25 28.00 -60.77 162.78 
DOCKED: USER  keepresnum = 1 
DOCKED: USER  
DOCKED: REMARK  10 active torsions:
DOCKED: REMARK  status: ('A' for Active; 'I' for Inactive)
DOCKED: REMARK    1  A    between atoms: C_6  and  C_10 
DOCKED: REMARK    2  A    between atoms: C_10  and  C_11 
DOCKED: REMARK    3  A    between atoms: C_11  and  C_12 
DOCKED: REMARK    4  A    between atoms: C_12  and  O_14 
DOCKED: REMARK    5  A    between atoms: C_17  and  C_20 
DOCKED: REMARK    6  A    between atoms: C_24  and  C_27 
DOCKED: REMARK    7  A    between atoms: C_31  and  C_34 
DOCKED: REMARK    8  A    between atoms: C_34  and  C_35 
DOCKED: REMARK    9  A    between atoms: C_35  and  C_36 
DOCKED: REMARK   10  A    between atoms: C_36  and  O_38 
DOCKED: USER                              x       y       z     vdW  Elec       q    Type
DOCKED: USER                           _______ _______ _______ _____ _____    ______ ____
DOCKED: ROOT
DOCKED: ATOM      1  C   UNL d   1      42.499  27.882  16.902 -0.17 +0.02    +0.064 A 
DOCKED: ATOM      2  C   UNL d   1      40.458  32.099  16.118 -0.39 +0.01    +0.064 A 
DOCKED: ATOM      3  C   UNL d   1      37.315  30.115  13.072 -0.41 +0.01    +0.064 C 
DOCKED: ATOM      4  C   UNL d   1      39.099  25.696  14.236 -0.41 +0.01    +0.064 A 
DOCKED: ATOM      5  C   UNL d   1      42.199  29.190  16.939 -0.17 +0.02    +0.066 A 
DOCKED: ATOM      6  C   UNL d   1      42.901  30.133  17.695 -0.32 -0.01    -0.021 A 
DOCKED: ATOM      7  C   UNL d   1      42.284  31.347  17.503 -0.41 -0.00    -0.025 A 
DOCKED: ATOM      8  C   UNL d   1      41.252  31.121  16.596 -0.36 +0.01    +0.066 A 
DOCKED: ATOM      9  C   UNL d   1      42.674  32.635  18.195 -0.45 +0.01    +0.051 C 
DOCKED: ATOM     10  C   UNL d   1      39.375  31.927  15.149 -0.37 +0.01    +0.066 A 
DOCKED: ATOM     11  C   UNL d   1      38.690  32.997  14.563 -0.39 -0.00    -0.021 A 
DOCKED: ATOM     12  C   UNL d   1      37.791  32.446  13.668 -0.41 +0.00    +0.000 A 
DOCKED: ATOM     13  C   UNL d   1      37.975  31.039  13.770 -0.36 +0.01    +0.070 A 
DOCKED: ATOM     14  C   UNL d   1      38.903  34.483  14.825 -0.52 +0.00    +0.052 C 
DOCKED: ATOM     15  C   UNL d   1      37.446  28.682  13.172 -0.41 +0.01    +0.066 A 
DOCKED: ATOM     16  C   UNL d   1      36.611  27.765  12.534 -0.53 -0.00    -0.021 A 
DOCKED: ATOM     17  C   UNL d   1      37.100  26.498  12.852 -0.47 +0.00    +0.000 A 
DOCKED: ATOM     18  C   UNL d   1      38.213  26.740  13.669 -0.38 +0.01    +0.070 A 
DOCKED: ATOM     19  C   UNL d   1      35.401  28.174  11.731 -0.55 +0.00    +0.052 C 
DOCKED: ATOM     20  C   UNL d   1      40.148  25.891  15.059 -0.39 +0.01    +0.066 A 
DOCKED: ATOM     21  C   UNL d   1      40.957  24.869  15.547 -0.42 -0.00    -0.025 A 
DOCKED: ATOM     22  C   UNL d   1      41.948  25.476  16.286 -0.36 -0.00    -0.021 A 
DOCKED: ATOM     23  C   UNL d   1      41.695  26.850  16.237 -0.34 +0.01    +0.066 A 
DOCKED: ATOM     24  C   UNL d   1      40.792  23.388  15.322 -0.55 +0.00    +0.051 C 
DOCKED: ATOM     25  N   UNL d   1      41.159  29.781  16.300 -0.16 -0.06    -0.248 N 
DOCKED: ATOM     26  N   UNL d   1      38.937  30.732  14.677 -0.20 -0.04    -0.248 N 
DOCKED: ATOM     27  N   UNL d   1      38.363  28.067  13.914 -0.22 -0.05    -0.248 N 
DOCKED: ATOM     28  N   UNL d   1      40.574  27.094  15.527 -0.25 -0.06    -0.248 N 
DOCKED: ATOM     29 FE   UNL d   1      39.759  28.898  15.104 -0.08 +0.00    +0.000 Fe
DOCKED: ATOM     30  O   UNL d   1      39.187  29.443  16.445 -0.69 +0.00    +0.000 OA
DOCKED: ATOM     31  O   UNL d   1      38.677  28.063  15.881 -0.76 +0.00    +0.000 OA
DOCKED: ENDROOT
DOCKED: BRANCH   6  32
DOCKED: ATOM     32  C   UNL d   1      44.023  29.884  18.670 -0.31 +0.02    +0.052 C 
DOCKED: BRANCH  32  33
DOCKED: ATOM     33  C   UNL d   1      44.758  28.574  18.405 -0.21 +0.05    +0.115 C 
DOCKED: BRANCH  33  34
DOCKED: ATOM     34  C   UNL d   1      45.006  27.787  19.668 -0.20 +0.10    +0.139 C 
DOCKED: ATOM     35  O   UNL d   1      44.397  28.074  20.686 -0.20 -0.86    -0.650 OA
DOCKED: BRANCH  34  36
DOCKED: ATOM     36  O   UNL d   1      45.910  26.787  19.708 +0.06 -0.53    -0.776 OA
DOCKED: ATOM     37  H   UNL d   1      45.648  25.860  19.672 +0.05 +0.10    +0.167 HD
DOCKED: ENDBRANCH  34  36
DOCKED: ENDBRANCH  33  34
DOCKED: ENDBRANCH  32  33
DOCKED: ENDBRANCH   6  32
DOCKED: BRANCH  22  38
DOCKED: ATOM     38  C   UNL d   1      43.036  24.764  17.048 -0.33 +0.01    +0.052 C 
DOCKED: BRANCH  38  39
DOCKED: ATOM     39  C   UNL d   1      42.677  24.558  18.519 -0.36 +0.03    +0.115 C 
DOCKED: BRANCH  39  40
DOCKED: ATOM     40  C   UNL d   1      43.896  24.468  19.402 -0.24 +0.06    +0.139 C 
DOCKED: ATOM     41  O   UNL d   1      44.908  23.928  18.985 +0.03 -0.28    -0.650 OA
DOCKED: BRANCH  40  42
DOCKED: ATOM     42  O   UNL d   1      43.908  25.021  20.631 +0.04 -0.48    -0.776 OA
DOCKED: ATOM     43  H   UNL d   1      44.252  25.909  20.782 +0.06 +0.15    +0.167 HD
DOCKED: ENDBRANCH  40  42
DOCKED: ENDBRANCH  39  40
DOCKED: ENDBRANCH  38  39
DOCKED: ENDBRANCH  22  38
DOCKED: BRANCH  12  44
DOCKED: ATOM     44  C   UNL d   1      36.867  33.301  12.828 -0.52 +0.00    +0.004 C 
DOCKED: ATOM     45  C   UNL d   1      35.646  32.999  12.387 -0.65 +0.00    +0.012 C 
DOCKED: ENDBRANCH  12  44
DOCKED: BRANCH  17  46
DOCKED: ATOM     46  C   UNL d   1      36.587  25.125  12.507 -0.67 +0.00    +0.004 C 
DOCKED: ATOM     47  C   UNL d   1      35.926  24.266  13.294 -0.73 +0.00    +0.012 C 
DOCKED: ENDBRANCH  17  46
DOCKED: TORSDOF 10
DOCKED: TER
DOCKED: ENDMDL
________________________________________________________________________________


	BEGINNING GENETIC ALGORITHM DOCKING 50 of 100
Run: 50 Seed: 774745319 1682625592 [ Run 50 of 100 GA/GALS ]
Beginning LAMARCKIAN GENETIC ALGORITHM (LGA), with a maximum of 25000000 energy evaluations.

Final-Value: -19.763


	FINAL GENETIC ALGORITHM DOCKED STATE
	_______________________________________________


Detailed state:  trans 41.094 28.398 15.761 quatxyzw -0.336851 0.380292 0.860125 -0.045757 center 8.287 34.468 -0.670 ntor 10 -125.1168 83.3222 22.8732 -92.0684 140.4421 62.8031 53.2238 23.4585 -30.2763 172.6823
State:	 41.094  28.398  15.761  -0.337  0.381  0.861 -174.755   -125.12   83.32   22.87  -92.07  140.44   62.80   53.22   23.46  -30.28  172.68

DOCKED: MODEL       50
DOCKED: USER    Run = 50
DOCKED: USER    DPF = D:/Protein_go_brrr/autodock/final/6BB5/heme_O2/dock.dpf
DOCKED: USER  
DOCKED: USER    Estimated Free Energy of Binding    =  -14.70 kcal/mol  [=(1)+(2)+(3)-(4)]
DOCKED: USER    Estimated Inhibition Constant, Ki   =   16.89 pM (picomolar)  [Temperature = 298.15 K]
DOCKED: USER    
DOCKED: USER    (1) Final Intermolecular Energy     =  -17.68 kcal/mol
DOCKED: USER        vdW + Hbond + desolv Energy     =  -16.42 kcal/mol
DOCKED: USER        Electrostatic Energy            =   -1.26 kcal/mol
DOCKED: USER    (2) Final Total Internal Energy     =   -2.08 kcal/mol
DOCKED: USER    (3) Torsional Free Energy           =   +2.98 kcal/mol
DOCKED: USER    (4) Unbound System's Energy  [=(2)] =   -2.08 kcal/mol
DOCKED: USER    
DOCKED: USER    
DOCKED: USER    NEWDPF move heme_O2_opt.pdbqt
DOCKED: USER    NEWDPF about 8.287000 34.468000 -0.670000
DOCKED: USER    NEWDPF tran0 41.094092 28.397992 15.760686
DOCKED: USER    NEWDPF quaternion0 -0.336851 0.380292 0.860125 -0.045757
DOCKED: USER    NEWDPF axisangle0 -0.337204 0.380691 0.861027 -174.754846
DOCKED: USER    NEWDPF quat0 -0.337204 0.380691 0.861027 -174.754846
DOCKED: USER    NEWDPF dihe0 -125.12 83.32 22.87 -92.07 140.44 62.80 53.22 23.46 -30.28 172.68 
DOCKED: USER  keepresnum = 1 
DOCKED: USER  
DOCKED: REMARK  10 active torsions:
DOCKED: REMARK  status: ('A' for Active; 'I' for Inactive)
DOCKED: REMARK    1  A    between atoms: C_6  and  C_10 
DOCKED: REMARK    2  A    between atoms: C_10  and  C_11 
DOCKED: REMARK    3  A    between atoms: C_11  and  C_12 
DOCKED: REMARK    4  A    between atoms: C_12  and  O_14 
DOCKED: REMARK    5  A    between atoms: C_17  and  C_20 
DOCKED: REMARK    6  A    between atoms: C_24  and  C_27 
DOCKED: REMARK    7  A    between atoms: C_31  and  C_34 
DOCKED: REMARK    8  A    between atoms: C_34  and  C_35 
DOCKED: REMARK    9  A    between atoms: C_35  and  C_36 
DOCKED: REMARK   10  A    between atoms: C_36  and  O_38 
DOCKED: USER                              x       y       z     vdW  Elec       q    Type
DOCKED: USER                           _______ _______ _______ _____ _____    ______ ____
DOCKED: ROOT
DOCKED: ATOM      1  C   UNL d   1      42.766  27.757  16.898 -0.23 +0.02    +0.064 A 
DOCKED: ATOM      2  C   UNL d   1      40.757  32.014  16.269 -0.40 +0.01    +0.064 A 
DOCKED: ATOM      3  C   UNL d   1      37.491  30.136  13.286 -0.39 +0.01    +0.064 C 
DOCKED: ATOM      4  C   UNL d   1      39.255  25.671  14.298 -0.41 +0.01    +0.064 A 
DOCKED: ATOM      5  C   UNL d   1      42.485  29.068  16.972 -0.22 +0.02    +0.066 A 
DOCKED: ATOM      6  C   UNL d   1      43.223  29.985  17.725 -0.31 -0.01    -0.021 A 
DOCKED: ATOM      7  C   UNL d   1      42.616  31.211  17.578 -0.38 -0.00    -0.025 A 
DOCKED: ATOM      8  C   UNL d   1      41.553  31.017  16.701 -0.35 +0.01    +0.066 A 
DOCKED: ATOM      9  C   UNL d   1      43.044  32.478  18.284 -0.45 +0.01    +0.051 C 
DOCKED: ATOM     10  C   UNL d   1      39.641  31.876  15.332 -0.37 +0.01    +0.066 A 
DOCKED: ATOM     11  C   UNL d   1      38.951  32.967  14.791 -0.41 -0.00    -0.021 A 
DOCKED: ATOM     12  C   UNL d   1      38.017  32.447  13.915 -0.40 +0.00    +0.000 A 
DOCKED: ATOM     13  C   UNL d   1      38.186  31.036  13.981 -0.37 +0.01    +0.070 A 
DOCKED: ATOM     14  C   UNL d   1      39.192  34.445  15.078 -0.54 +0.00    +0.052 C 
DOCKED: ATOM     15  C   UNL d   1      37.607  28.699  13.351 -0.39 +0.01    +0.066 A 
DOCKED: ATOM     16  C   UNL d   1      36.740  27.806  12.720 -0.50 -0.00    -0.021 A 
DOCKED: ATOM     17  C   UNL d   1      37.223  26.527  12.996 -0.47 +0.00    +0.000 A 
DOCKED: ATOM     18  C   UNL d   1      38.364  26.738  13.782 -0.38 +0.01    +0.070 A 
DOCKED: ATOM     19  C   UNL d   1      35.511  28.247  11.966 -0.66 +0.00    +0.052 C 
DOCKED: ATOM     20  C   UNL d   1      40.332  25.835  15.090 -0.40 +0.01    +0.066 A 
DOCKED: ATOM     21  C   UNL d   1      41.143  24.793  15.530 -0.42 -0.00    -0.025 A 
DOCKED: ATOM     22  C   UNL d   1      42.164  25.371  16.250 -0.33 -0.00    -0.021 A 
DOCKED: ATOM     23  C   UNL d   1      41.928  26.749  16.237 -0.34 +0.01    +0.066 A 
DOCKED: ATOM     24  C   UNL d   1      40.951  23.320  15.279 -0.56 +0.00    +0.051 C 
DOCKED: ATOM     25  N   UNL d   1      41.433  29.685  16.379 -0.21 -0.06    -0.248 N 
DOCKED: ATOM     26  N   UNL d   1      39.172  30.697  14.850 -0.18 -0.05    -0.248 N 
DOCKED: ATOM     27  N   UNL d   1      38.539  28.057  14.050 -0.21 -0.05    -0.248 N 
DOCKED: ATOM     28  N   UNL d   1      40.788  27.023  15.569 -0.26 -0.05    -0.248 N 
DOCKED: ATOM     29 FE   UNL d   1      39.984  28.845  15.211 -0.06 +0.00    +0.000 Fe
DOCKED: ATOM     30  O   UNL d   1      39.462  29.367  16.581 -0.70 +0.00    +0.000 OA
DOCKED: ATOM     31  O   UNL d   1      38.916  28.007  16.005 -0.88 +0.00    +0.000 OA
DOCKED: ENDROOT
DOCKED: BRANCH   6  32
DOCKED: ATOM     32  C   UNL d   1      44.372  29.701  18.657 -0.29 +0.02    +0.052 C 
DOCKED: BRANCH  32  33
DOCKED: ATOM     33  C   UNL d   1      45.488  28.900  17.995 -0.17 +0.04    +0.115 C 
DOCKED: BRANCH  33  34
DOCKED: ATOM     34  C   UNL d   1      45.886  27.691  18.804 -0.13 +0.07    +0.139 C 
DOCKED: ATOM     35  O   UNL d   1      45.465  27.561  19.943 -0.03 -0.55    -0.650 OA
DOCKED: BRANCH  34  36
DOCKED: ATOM     36  O   UNL d   1      46.724  26.757  18.308 +0.06 -0.36    -0.776 OA
DOCKED: ATOM     37  H   UNL d   1      46.485  25.824  18.271 +0.05 +0.08    +0.167 HD
DOCKED: ENDBRANCH  34  36
DOCKED: ENDBRANCH  33  34
DOCKED: ENDBRANCH  32  33
DOCKED: ENDBRANCH   6  32
DOCKED: BRANCH  22  38
DOCKED: ATOM     38  C   UNL d   1      43.267  24.630  16.961 -0.31 +0.01    +0.052 C 
DOCKED: BRANCH  38  39
DOCKED: ATOM     39  C   UNL d   1      42.858  24.185  18.364 -0.35 +0.03    +0.115 C 
DOCKED: BRANCH  39  40
DOCKED: ATOM     40  C   UNL d   1      44.046  23.943  19.260 -0.23 +0.06    +0.139 C 
DOCKED: ATOM     41  O   UNL d   1      43.958  23.146  20.181 -0.52 -0.32    -0.650 OA
DOCKED: BRANCH  40  42
DOCKED: ATOM     42  O   UNL d   1      45.225  24.554  19.034 +0.10 -0.36    -0.776 OA
DOCKED: ATOM     43  H   UNL d   1      45.413  25.434  19.381 +0.06 +0.09    +0.167 HD
DOCKED: ENDBRANCH  40  42
DOCKED: ENDBRANCH  39  40
DOCKED: ENDBRANCH  38  39
DOCKED: ENDBRANCH  22  38
DOCKED: BRANCH  12  44
DOCKED: ATOM     44  C   UNL d   1      37.077  33.331  13.123 -0.50 +0.00    +0.004 C 
DOCKED: ATOM     45  C   UNL d   1      35.939  32.986  12.523 -0.60 +0.00    +0.012 C 
DOCKED: ENDBRANCH  12  44
DOCKED: BRANCH  17  46
DOCKED: ATOM     46  C   UNL d   1      36.681  25.168  12.639 -0.66 +0.00    +0.004 C 
DOCKED: ATOM     47  C   UNL d   1      35.960  24.337  13.403 -0.72 +0.00    +0.012 C 
DOCKED: ENDBRANCH  17  46
DOCKED: TORSDOF 10
DOCKED: TER
DOCKED: ENDMDL
________________________________________________________________________________


	BEGINNING GENETIC ALGORITHM DOCKING 51 of 100
Run: 51 Seed: 1177077041 1793530806 [ Run 51 of 100 GA/GALS ]
Beginning LAMARCKIAN GENETIC ALGORITHM (LGA), with a maximum of 25000000 energy evaluations.

Final-Value: -20.066


	FINAL GENETIC ALGORITHM DOCKED STATE
	_______________________________________________


Detailed state:  trans 41.084 28.230 15.740 quatxyzw -0.332350 0.380181 0.861406 -0.054636 center 8.287 34.468 -0.670 ntor 10 71.0864 34.2165 21.1030 -95.1631 166.9918 171.6776 14.6690 -6.8469 -126.1562 137.3064
State:	 41.084  28.230  15.740  -0.333  0.381  0.863 -173.736     71.09   34.22   21.10  -95.16  166.99  171.68   14.67   -6.85 -126.16  137.31

DOCKED: MODEL       51
DOCKED: USER    Run = 51
DOCKED: USER    DPF = D:/Protein_go_brrr/autodock/final/6BB5/heme_O2/dock.dpf
DOCKED: USER  
DOCKED: USER    Estimated Free Energy of Binding    =  -15.45 kcal/mol  [=(1)+(2)+(3)-(4)]
DOCKED: USER    Estimated Inhibition Constant, Ki   =    4.69 pM (picomolar)  [Temperature = 298.15 K]
DOCKED: USER    
DOCKED: USER    (1) Final Intermolecular Energy     =  -18.44 kcal/mol
DOCKED: USER        vdW + Hbond + desolv Energy     =  -16.21 kcal/mol
DOCKED: USER        Electrostatic Energy            =   -2.22 kcal/mol
DOCKED: USER    (2) Final Total Internal Energy     =   -1.63 kcal/mol
DOCKED: USER    (3) Torsional Free Energy           =   +2.98 kcal/mol
DOCKED: USER    (4) Unbound System's Energy  [=(2)] =   -1.63 kcal/mol
DOCKED: USER    
DOCKED: USER    
DOCKED: USER    NEWDPF move heme_O2_opt.pdbqt
DOCKED: USER    NEWDPF about 8.287000 34.468000 -0.670000
DOCKED: USER    NEWDPF tran0 41.084367 28.230222 15.740277
DOCKED: USER    NEWDPF quaternion0 -0.332350 0.380181 0.861406 -0.054636
DOCKED: USER    NEWDPF axisangle0 -0.332847 0.380750 0.862695 -173.736035
DOCKED: USER    NEWDPF quat0 -0.332847 0.380750 0.862695 -173.736035
DOCKED: USER    NEWDPF dihe0 71.09 34.22 21.10 -95.16 166.99 171.68 14.67 -6.85 -126.16 137.31 
DOCKED: USER  keepresnum = 1 
DOCKED: USER  
DOCKED: REMARK  10 active torsions:
DOCKED: REMARK  status: ('A' for Active; 'I' for Inactive)
DOCKED: REMARK    1  A    between atoms: C_6  and  C_10 
DOCKED: REMARK    2  A    between atoms: C_10  and  C_11 
DOCKED: REMARK    3  A    between atoms: C_11  and  C_12 
DOCKED: REMARK    4  A    between atoms: C_12  and  O_14 
DOCKED: REMARK    5  A    between atoms: C_17  and  C_20 
DOCKED: REMARK    6  A    between atoms: C_24  and  C_27 
DOCKED: REMARK    7  A    between atoms: C_31  and  C_34 
DOCKED: REMARK    8  A    between atoms: C_34  and  C_35 
DOCKED: REMARK    9  A    between atoms: C_35  and  C_36 
DOCKED: REMARK   10  A    between atoms: C_36  and  O_38 
DOCKED: USER                              x       y       z     vdW  Elec       q    Type
DOCKED: USER                           _______ _______ _______ _____ _____    ______ ____
DOCKED: ROOT
DOCKED: ATOM      1  C   UNL d   1      42.746  27.549  16.869 -0.24 +0.02    +0.064 A 
DOCKED: ATOM      2  C   UNL d   1      40.815  31.848  16.277 -0.39 +0.01    +0.064 A 
DOCKED: ATOM      3  C   UNL d   1      37.510  30.053  13.285 -0.41 +0.01    +0.064 C 
DOCKED: ATOM      4  C   UNL d   1      39.192  25.549  14.260 -0.41 +0.01    +0.064 A 
DOCKED: ATOM      5  C   UNL d   1      42.489  28.865  16.954 -0.19 +0.02    +0.066 A 
DOCKED: ATOM      6  C   UNL d   1      43.246  29.763  17.712 -0.29 -0.01    -0.021 A 
DOCKED: ATOM      7  C   UNL d   1      42.662  31.000  17.576 -0.37 -0.01    -0.025 A 
DOCKED: ATOM      8  C   UNL d   1      41.593  30.833  16.699 -0.34 +0.01    +0.066 A 
DOCKED: ATOM      9  C   UNL d   1      43.114  32.255  18.291 -0.44 +0.01    +0.051 C 
DOCKED: ATOM     10  C   UNL d   1      39.695  31.738  15.341 -0.36 +0.01    +0.066 A 
DOCKED: ATOM     11  C   UNL d   1      39.025  32.845  14.809 -0.41 -0.00    -0.021 A 
DOCKED: ATOM     12  C   UNL d   1      38.080  32.349  13.931 -0.40 +0.00    +0.000 A 
DOCKED: ATOM     13  C   UNL d   1      38.222  30.935  13.986 -0.37 +0.01    +0.070 A 
DOCKED: ATOM     14  C   UNL d   1      39.293  34.316  15.107 -0.53 +0.00    +0.052 C 
DOCKED: ATOM     15  C   UNL d   1      37.599  28.614  13.339 -0.39 +0.01    +0.066 A 
DOCKED: ATOM     16  C   UNL d   1      36.715  27.742  12.704 -0.51 -0.00    -0.021 A 
DOCKED: ATOM     17  C   UNL d   1      37.174  26.452  12.969 -0.47 +0.00    +0.000 A 
DOCKED: ATOM     18  C   UNL d   1      38.321  26.636  13.754 -0.38 +0.01    +0.070 A 
DOCKED: ATOM     19  C   UNL d   1      35.493  28.212  11.956 -0.65 +0.00    +0.052 C 
DOCKED: ATOM     20  C   UNL d   1      40.274  25.687  15.052 -0.40 +0.01    +0.066 A 
DOCKED: ATOM     21  C   UNL d   1      41.066  24.627  15.482 -0.43 -0.00    -0.025 A 
DOCKED: ATOM     22  C   UNL d   1      42.099  25.180  16.204 -0.34 -0.00    -0.021 A 
DOCKED: ATOM     23  C   UNL d   1      41.888  26.563  16.203 -0.34 +0.01    +0.066 A 
DOCKED: ATOM     24  C   UNL d   1      40.847  23.159  15.221 -0.56 +0.00    +0.051 C 
DOCKED: ATOM     25  N   UNL d   1      41.448  29.506  16.368 -0.21 -0.06    -0.248 N 
DOCKED: ATOM     26  N   UNL d   1      39.204  30.572  14.850 -0.14 -0.05    -0.248 N 
DOCKED: ATOM     27  N   UNL d   1      38.521  27.949  14.032 -0.21 -0.05    -0.248 N 
DOCKED: ATOM     28  N   UNL d   1      40.753  26.862  15.539 -0.27 -0.05    -0.248 N 
DOCKED: ATOM     29 FE   UNL d   1      39.982  28.702  15.196 -0.07 +0.00    +0.000 Fe
DOCKED: ATOM     30  O   UNL d   1      39.472  29.223  16.571 -0.75 +0.00    +0.000 OA
DOCKED: ATOM     31  O   UNL d   1      38.900  27.877  15.985 -0.85 +0.00    +0.000 OA
DOCKED: ENDROOT
DOCKED: BRANCH   6  32
DOCKED: ATOM     32  C   UNL d   1      44.391  29.451  18.640 -0.28 +0.02    +0.052 C 
DOCKED: BRANCH  32  33
DOCKED: ATOM     33  C   UNL d   1      44.136  28.218  19.503 -0.24 +0.08    +0.115 C 
DOCKED: BRANCH  33  34
DOCKED: ATOM     34  C   UNL d   1      45.135  28.085  20.625 -0.06 +0.18    +0.139 C 
DOCKED: ATOM     35  O   UNL d   1      45.822  29.044  20.938 -0.12 -0.86    -0.650 OA
DOCKED: BRANCH  34  36
DOCKED: ATOM     36  O   UNL d   1      45.308  26.917  21.278 -0.12 -1.30    -0.776 OA
DOCKED: ATOM     37  H   UNL d   1      45.737  26.159  20.864 +0.04 +0.17    +0.167 HD
DOCKED: ENDBRANCH  34  36
DOCKED: ENDBRANCH  33  34
DOCKED: ENDBRANCH  32  33
DOCKED: ENDBRANCH   6  32
DOCKED: BRANCH  22  38
DOCKED: ATOM     38  C   UNL d   1      43.189  24.414  16.908 -0.32 +0.01    +0.052 C 
DOCKED: BRANCH  38  39
DOCKED: ATOM     39  C   UNL d   1      43.220  24.692  18.409 -0.30 +0.04    +0.115 C 
DOCKED: BRANCH  39  40
DOCKED: ATOM     40  C   UNL d   1      44.177  23.786  19.143 -0.22 +0.06    +0.139 C 
DOCKED: ATOM     41  O   UNL d   1      44.208  22.595  18.880 -0.12 -0.25    -0.650 OA
DOCKED: BRANCH  40  42
DOCKED: ATOM     42  O   UNL d   1      45.040  24.278  20.054 +0.06 -0.39    -0.776 OA
DOCKED: ATOM     43  H   UNL d   1      44.794  24.999  20.645 +0.06 +0.11    +0.167 HD
DOCKED: ENDBRANCH  40  42
DOCKED: ENDBRANCH  39  40
DOCKED: ENDBRANCH  38  39
DOCKED: ENDBRANCH  22  38
DOCKED: BRANCH  12  44
DOCKED: ATOM     44  C   UNL d   1      37.155  33.257  13.147 -0.48 +0.00    +0.004 C 
DOCKED: ATOM     45  C   UNL d   1      36.026  32.931  12.520 -0.60 +0.00    +0.012 C 
DOCKED: ENDBRANCH  12  44
DOCKED: BRANCH  17  46
DOCKED: ATOM     46  C   UNL d   1      36.607  25.107  12.603 -0.67 +0.00    +0.004 C 
DOCKED: ATOM     47  C   UNL d   1      35.920  24.258  13.379 -0.73 +0.00    +0.012 C 
DOCKED: ENDBRANCH  17  46
DOCKED: TORSDOF 10
DOCKED: TER
DOCKED: ENDMDL
________________________________________________________________________________


	BEGINNING GENETIC ALGORITHM DOCKING 52 of 100
Run: 52 Seed: 55992412 1089633584 [ Run 52 of 100 GA/GALS ]
Beginning LAMARCKIAN GENETIC ALGORITHM (LGA), with a maximum of 25000000 energy evaluations.

Final-Value: -11.551


	FINAL GENETIC ALGORITHM DOCKED STATE
	_______________________________________________


Detailed state:  trans 11.775 38.806 24.805 quatxyzw -0.041269 0.259461 0.442587 -0.857376 center 8.287 34.468 -0.670 ntor 10 44.5127 0.6309 -93.5426 49.0908 -173.4304 178.5709 3.5556 3.9003 -154.5274 125.5067
State:	 11.775  38.806  24.805  -0.080  0.504  0.860 -61.954     44.51    0.63  -93.54   49.09 -173.43  178.57    3.56    3.90 -154.53  125.51

DOCKED: MODEL       52
DOCKED: USER    Run = 52
DOCKED: USER    DPF = D:/Protein_go_brrr/autodock/final/6BB5/heme_O2/dock.dpf
DOCKED: USER  
DOCKED: USER    Estimated Free Energy of Binding    =   -7.01 kcal/mol  [=(1)+(2)+(3)-(4)]
DOCKED: USER    Estimated Inhibition Constant, Ki   =    7.28 uM (micromolar)  [Temperature = 298.15 K]
DOCKED: USER    
DOCKED: USER    (1) Final Intermolecular Energy     =   -9.99 kcal/mol
DOCKED: USER        vdW + Hbond + desolv Energy     =   -9.35 kcal/mol
DOCKED: USER        Electrostatic Energy            =   -0.64 kcal/mol
DOCKED: USER    (2) Final Total Internal Energy     =   -1.56 kcal/mol
DOCKED: USER    (3) Torsional Free Energy           =   +2.98 kcal/mol
DOCKED: USER    (4) Unbound System's Energy  [=(2)] =   -1.56 kcal/mol
DOCKED: USER    
DOCKED: USER    
DOCKED: USER    NEWDPF move heme_O2_opt.pdbqt
DOCKED: USER    NEWDPF about 8.287000 34.468000 -0.670000
DOCKED: USER    NEWDPF tran0 11.774871 38.806364 24.804677
DOCKED: USER    NEWDPF quaternion0 -0.041269 0.259461 0.442587 -0.857376
DOCKED: USER    NEWDPF axisangle0 -0.080181 0.504111 0.859909 -61.953584
DOCKED: USER    NEWDPF quat0 -0.080181 0.504111 0.859909 -61.953584
DOCKED: USER    NEWDPF dihe0 44.51 0.63 -93.54 49.09 -173.43 178.57 3.56 3.90 -154.53 125.51 
DOCKED: USER  keepresnum = 1 
DOCKED: USER  
DOCKED: REMARK  10 active torsions:
DOCKED: REMARK  status: ('A' for Active; 'I' for Inactive)
DOCKED: REMARK    1  A    between atoms: C_6  and  C_10 
DOCKED: REMARK    2  A    between atoms: C_10  and  C_11 
DOCKED: REMARK    3  A    between atoms: C_11  and  C_12 
DOCKED: REMARK    4  A    between atoms: C_12  and  O_14 
DOCKED: REMARK    5  A    between atoms: C_17  and  C_20 
DOCKED: REMARK    6  A    between atoms: C_24  and  C_27 
DOCKED: REMARK    7  A    between atoms: C_31  and  C_34 
DOCKED: REMARK    8  A    between atoms: C_34  and  C_35 
DOCKED: REMARK    9  A    between atoms: C_35  and  C_36 
DOCKED: REMARK   10  A    between atoms: C_36  and  O_38 
DOCKED: USER                              x       y       z     vdW  Elec       q    Type
DOCKED: USER                           _______ _______ _______ _____ _____    ______ ____
DOCKED: ROOT
DOCKED: ATOM      1  C   UNL d   1      10.093  37.551  25.111 -0.25 -0.01    +0.064 A 
DOCKED: ATOM      2  C   UNL d   1      14.291  37.882  27.307 -0.25 -0.02    +0.064 A 
DOCKED: ATOM      3  C   UNL d   1      15.680  41.385  24.324 -0.34 -0.02    +0.064 C 
DOCKED: ATOM      4  C   UNL d   1      11.184  41.383  22.361 -0.19 -0.01    +0.064 A 
DOCKED: ATOM      5  C   UNL d   1      11.121  37.356  25.953 -0.27 -0.02    +0.066 A 
DOCKED: ATOM      6  C   UNL d   1      11.129  36.396  26.969 -0.25 +0.01    -0.021 A 
DOCKED: ATOM      7  C   UNL d   1      12.327  36.521  27.633 -0.20 +0.02    -0.025 A 
DOCKED: ATOM      8  C   UNL d   1      13.037  37.520  26.974 -0.27 -0.03    +0.066 A 
DOCKED: ATOM      9  C   UNL d   1      12.726  35.723  28.856 -0.11 -0.03    +0.051 C 
DOCKED: ATOM     10  C   UNL d   1      15.094  38.907  26.639 -0.26 -0.02    +0.066 A 
DOCKED: ATOM     11  C   UNL d   1      16.447  39.129  26.920 -0.27 +0.00    -0.021 A 
DOCKED: ATOM     12  C   UNL d   1      16.870  40.123  26.057 -0.33 -0.00    +0.000 A 
DOCKED: ATOM     13  C   UNL d   1      15.723  40.467  25.290 -0.32 -0.02    +0.070 A 
DOCKED: ATOM     14  C   UNL d   1      17.307  38.403  27.949 -0.30 -0.00    +0.052 C 
DOCKED: ATOM     15  C   UNL d   1      14.531  41.787  23.549 -0.29 -0.02    +0.066 A 
DOCKED: ATOM     16  C   UNL d   1      14.511  42.867  22.667 -0.32 +0.00    -0.021 A 
DOCKED: ATOM     17  C   UNL d   1      13.239  42.887  22.096 -0.28 -0.00    +0.000 A 
DOCKED: ATOM     18  C   UNL d   1      12.569  41.802  22.679 -0.24 -0.01    +0.070 A 
DOCKED: ATOM     19  C   UNL d   1      15.678  43.807  22.491 -0.37 -0.01    +0.052 C 
DOCKED: ATOM     20  C   UNL d   1      10.497  40.375  22.932 -0.20 -0.01    +0.066 A 
DOCKED: ATOM     21  C   UNL d   1       9.199  40.015  22.578 -0.18 +0.00    -0.025 A 
DOCKED: ATOM     22  C   UNL d   1       8.882  38.908  23.332 -0.21 +0.00    -0.021 A 
DOCKED: ATOM     23  C   UNL d   1       9.996  38.643  24.135 -0.23 -0.01    +0.066 A 
DOCKED: ATOM     24  C   UNL d   1       8.307  40.696  21.573 -0.19 -0.00    +0.051 C 
DOCKED: ATOM     25  N   UNL d   1      12.267  38.079  25.980 -0.14 +0.10    -0.248 N 
DOCKED: ATOM     26  N   UNL d   1      14.646  39.726  25.654 -0.18 +0.08    -0.248 N 
DOCKED: ATOM     27  N   UNL d   1      13.343  41.192  23.613 -0.13 +0.07    -0.248 N 
DOCKED: ATOM     28  N   UNL d   1      10.958  39.563  23.921 -0.02 +0.08    -0.248 N 
DOCKED: ATOM     29 FE   UNL d   1      12.789  39.647  24.780 -0.05 -0.00    +0.000 Fe
DOCKED: ATOM     30  O   UNL d   1      12.554  40.045  26.266 -0.16 -0.00    +0.000 OA
DOCKED: ATOM     31  O   UNL d   1      12.049  40.994  25.114 -0.16 -0.00    +0.000 OA
DOCKED: ENDROOT
DOCKED: BRANCH   6  32
DOCKED: ATOM     32  C   UNL d   1      10.003  35.489  27.391 -0.24 -0.01    +0.052 C 
DOCKED: BRANCH  32  33
DOCKED: ATOM     33  C   UNL d   1       8.873  36.235  28.093 -0.14 +0.01    +0.115 C 
DOCKED: BRANCH  33  34
DOCKED: ATOM     34  C   UNL d   1       7.765  35.313  28.540 -0.13 +0.05    +0.139 C 
DOCKED: ATOM     35  O   UNL d   1       8.038  34.191  28.937 -0.40 -0.75    -0.650 OA
DOCKED: BRANCH  34  36
DOCKED: ATOM     36  O   UNL d   1       6.471  35.689  28.484 +0.01 -0.16    -0.776 OA
DOCKED: ATOM     37  H   UNL d   1       6.101  36.134  27.713 +0.03 +0.02    +0.167 HD
DOCKED: ENDBRANCH  34  36
DOCKED: ENDBRANCH  33  34
DOCKED: ENDBRANCH  32  33
DOCKED: ENDBRANCH   6  32
DOCKED: BRANCH  22  38
DOCKED: ATOM     38  C   UNL d   1       7.557  38.190  23.324 -0.24 -0.01    +0.052 C 
DOCKED: BRANCH  38  39
DOCKED: ATOM     39  C   UNL d   1       7.035  37.916  24.732 -0.16 -0.01    +0.115 C 
DOCKED: BRANCH  39  40
DOCKED: ATOM     40  C   UNL d   1       5.742  37.139  24.727 -0.18 -0.01    +0.139 C 
DOCKED: ATOM     41  O   UNL d   1       4.909  37.355  23.862 -0.02 +0.10    -0.650 OA
DOCKED: BRANCH  40  42
DOCKED: ATOM     42  O   UNL d   1       5.509  36.170  25.633 -0.01 -0.02    -0.776 OA
DOCKED: ATOM     43  H   UNL d   1       6.137  35.977  26.339 +0.03 +0.02    +0.167 HD
DOCKED: ENDBRANCH  40  42
DOCKED: ENDBRANCH  39  40
DOCKED: ENDBRANCH  38  39
DOCKED: ENDBRANCH  22  38
DOCKED: BRANCH  12  44
DOCKED: ATOM     44  C   UNL d   1      18.296  40.633  26.057 -0.09 -0.00    +0.004 C 
DOCKED: ATOM     45  C   UNL d   1      19.358  40.095  25.458 -0.41 -0.00    +0.012 C 
DOCKED: ENDBRANCH  12  44
DOCKED: BRANCH  17  46
DOCKED: ATOM     46  C   UNL d   1      12.607  43.847  21.123 -0.21 -0.00    +0.004 C 
DOCKED: ATOM     47  C   UNL d   1      13.152  44.398  20.031 -0.22 -0.00    +0.012 C 
DOCKED: ENDBRANCH  17  46
DOCKED: TORSDOF 10
DOCKED: TER
DOCKED: ENDMDL
________________________________________________________________________________


	BEGINNING GENETIC ALGORITHM DOCKING 53 of 100
Run: 53 Seed: 1041284873 768647455 [ Run 53 of 100 GA/GALS ]
Beginning LAMARCKIAN GENETIC ALGORITHM (LGA), with a maximum of 25000000 energy evaluations.

Final-Value: -19.961


	FINAL GENETIC ALGORITHM DOCKED STATE
	_______________________________________________


Detailed state:  trans 41.176 28.350 15.728 quatxyzw 0.304509 -0.367071 -0.876615 0.063869 center 8.287 34.468 -0.670 ntor 10 -21.9635 -116.1250 -3.6677 -103.8442 -107.2325 -156.2255 59.5459 -14.1306 -114.6093 153.8797
State:	 41.176  28.350  15.728   0.305 -0.368 -0.878 172.676    -21.96 -116.12   -3.67 -103.84 -107.23 -156.23   59.55  -14.13 -114.61  153.88

DOCKED: MODEL       53
DOCKED: USER    Run = 53
DOCKED: USER    DPF = D:/Protein_go_brrr/autodock/final/6BB5/heme_O2/dock.dpf
DOCKED: USER  
DOCKED: USER    Estimated Free Energy of Binding    =  -16.61 kcal/mol  [=(1)+(2)+(3)-(4)]
DOCKED: USER    Estimated Inhibition Constant, Ki   =  667.90 fM (femtomolar)  [Temperature = 298.15 K]
DOCKED: USER    
DOCKED: USER    (1) Final Intermolecular Energy     =  -19.59 kcal/mol
DOCKED: USER        vdW + Hbond + desolv Energy     =  -16.90 kcal/mol
DOCKED: USER        Electrostatic Energy            =   -2.70 kcal/mol
DOCKED: USER    (2) Final Total Internal Energy     =   -0.37 kcal/mol
DOCKED: USER    (3) Torsional Free Energy           =   +2.98 kcal/mol
DOCKED: USER    (4) Unbound System's Energy  [=(2)] =   -0.37 kcal/mol
DOCKED: USER    
DOCKED: USER    
DOCKED: USER    NEWDPF move heme_O2_opt.pdbqt
DOCKED: USER    NEWDPF about 8.287000 34.468000 -0.670000
DOCKED: USER    NEWDPF tran0 41.175628 28.349675 15.727838
DOCKED: USER    NEWDPF quaternion0 0.304509 -0.367071 -0.876615 0.063869
DOCKED: USER    NEWDPF axisangle0 0.305132 -0.367822 -0.878408 172.676132
DOCKED: USER    NEWDPF quat0 0.305132 -0.367822 -0.878408 172.676132
DOCKED: USER    NEWDPF dihe0 -21.96 -116.12 -3.67 -103.84 -107.23 -156.23 59.55 -14.13 -114.61 153.88 
DOCKED: USER  keepresnum = 1 
DOCKED: USER  
DOCKED: REMARK  10 active torsions:
DOCKED: REMARK  status: ('A' for Active; 'I' for Inactive)
DOCKED: REMARK    1  A    between atoms: C_6  and  C_10 
DOCKED: REMARK    2  A    between atoms: C_10  and  C_11 
DOCKED: REMARK    3  A    between atoms: C_11  and  C_12 
DOCKED: REMARK    4  A    between atoms: C_12  and  O_14 
DOCKED: REMARK    5  A    between atoms: C_17  and  C_20 
DOCKED: REMARK    6  A    between atoms: C_24  and  C_27 
DOCKED: REMARK    7  A    between atoms: C_31  and  C_34 
DOCKED: REMARK    8  A    between atoms: C_34  and  C_35 
DOCKED: REMARK    9  A    between atoms: C_35  and  C_36 
DOCKED: REMARK   10  A    between atoms: C_36  and  O_38 
DOCKED: USER                              x       y       z     vdW  Elec       q    Type
DOCKED: USER                           _______ _______ _______ _____ _____    ______ ____
DOCKED: ROOT
DOCKED: ATOM      1  C   UNL d   1      42.871  27.577  16.742 -0.27 +0.02    +0.064 A 
DOCKED: ATOM      2  C   UNL d   1      41.033  31.946  16.431 -0.40 +0.01    +0.064 A 
DOCKED: ATOM      3  C   UNL d   1      37.537  30.369  13.535 -0.37 +0.01    +0.064 C 
DOCKED: ATOM      4  C   UNL d   1      39.139  25.785  14.232 -0.41 +0.01    +0.064 A 
DOCKED: ATOM      5  C   UNL d   1      42.656  28.894  16.895 -0.27 +0.02    +0.066 A 
DOCKED: ATOM      6  C   UNL d   1      43.473  29.738  17.652 -0.30 -0.01    -0.021 A 
DOCKED: ATOM      7  C   UNL d   1      42.917  30.995  17.599 -0.35 -0.01    -0.025 A 
DOCKED: ATOM      8  C   UNL d   1      41.803  30.894  16.770 -0.34 +0.01    +0.066 A 
DOCKED: ATOM      9  C   UNL d   1      43.439  32.205  18.343 -0.41 +0.01    +0.051 C 
DOCKED: ATOM     10  C   UNL d   1      39.866  31.906  15.549 -0.37 +0.01    +0.066 A 
DOCKED: ATOM     11  C   UNL d   1      39.202  33.052  15.099 -0.42 -0.00    -0.021 A 
DOCKED: ATOM     12  C   UNL d   1      38.202  32.620  14.248 -0.40 +0.00    +0.000 A 
DOCKED: ATOM     13  C   UNL d   1      38.307  31.201  14.237 -0.36 +0.01    +0.070 A 
DOCKED: ATOM     14  C   UNL d   1      39.525  34.501  15.445 -0.54 +0.00    +0.052 C 
DOCKED: ATOM     15  C   UNL d   1      37.589  28.927  13.523 -0.37 +0.01    +0.066 A 
DOCKED: ATOM     16  C   UNL d   1      36.651  28.108  12.896 -0.49 -0.00    -0.021 A 
DOCKED: ATOM     17  C   UNL d   1      37.087  26.796  13.083 -0.46 +0.00    +0.000 A 
DOCKED: ATOM     18  C   UNL d   1      38.275  26.915  13.817 -0.37 +0.01    +0.070 A 
DOCKED: ATOM     19  C   UNL d   1      35.407  28.641  12.231 -0.63 +0.00    +0.052 C 
DOCKED: ATOM     20  C   UNL d   1      40.262  25.861  14.973 -0.40 +0.01    +0.066 A 
DOCKED: ATOM     21  C   UNL d   1      41.045  24.763  15.318 -0.43 -0.00    -0.025 A 
DOCKED: ATOM     22  C   UNL d   1      42.127  25.257  16.010 -0.30 -0.00    -0.021 A 
DOCKED: ATOM     23  C   UNL d   1      41.954  26.643  16.078 -0.34 +0.01    +0.066 A 
DOCKED: ATOM     24  C   UNL d   1      40.772  23.314  15.005 -0.55 +0.01    +0.051 C 
DOCKED: ATOM     25  N   UNL d   1      41.605  29.587  16.390 -0.21 -0.06    -0.248 N 
DOCKED: ATOM     26  N   UNL d   1      39.320  30.775  15.034 -0.17 -0.05    -0.248 N 
DOCKED: ATOM     27  N   UNL d   1      38.524  28.210  14.139 -0.20 -0.05    -0.248 N 
DOCKED: ATOM     28  N   UNL d   1      40.796  27.001  15.485 -0.26 -0.05    -0.248 N 
DOCKED: ATOM     29 FE   UNL d   1      40.061  28.873  15.260 -0.09 +0.00    +0.000 Fe
DOCKED: ATOM     30  O   UNL d   1      39.634  29.346  16.680 -0.67 +0.00    +0.000 OA
DOCKED: ATOM     31  O   UNL d   1      38.997  28.042  16.067 -0.92 +0.00    +0.000 OA
DOCKED: ENDROOT
DOCKED: BRANCH   6  32
DOCKED: ATOM     32  C   UNL d   1      44.653  29.356  18.508 -0.26 +0.02    +0.052 C 
DOCKED: BRANCH  32  33
DOCKED: ATOM     33  C   UNL d   1      44.523  27.960  19.108 -0.21 +0.07    +0.115 C 
DOCKED: BRANCH  33  34
DOCKED: ATOM     34  C   UNL d   1      44.605  27.971  20.614 -0.08 +0.18    +0.139 C 
DOCKED: ATOM     35  O   UNL d   1      43.583  27.880  21.275 -0.37 -1.14    -0.650 OA
DOCKED: BRANCH  34  36
DOCKED: ATOM     36  O   UNL d   1      45.786  28.109  21.253 -0.27 -1.49    -0.776 OA
DOCKED: ATOM     37  H   UNL d   1      46.625  27.901  20.826 +0.02 +0.19    +0.167 HD
DOCKED: ENDBRANCH  34  36
DOCKED: ENDBRANCH  33  34
DOCKED: ENDBRANCH  32  33
DOCKED: ENDBRANCH   6  32
DOCKED: BRANCH  22  38
DOCKED: ATOM     38  C   UNL d   1      43.228  24.433  16.625 -0.28 +0.01    +0.052 C 
DOCKED: BRANCH  38  39
DOCKED: ATOM     39  C   UNL d   1      43.094  24.321  18.142 -0.32 +0.03    +0.115 C 
DOCKED: BRANCH  39  40
DOCKED: ATOM     40  C   UNL d   1      43.950  23.220  18.717 -0.24 +0.05    +0.139 C 
DOCKED: ATOM     41  O   UNL d   1      44.476  22.409  17.971 +0.02 -0.24    -0.650 OA
DOCKED: BRANCH  40  42
DOCKED: ATOM     42  O   UNL d   1      44.190  23.145  20.040 -0.46 -0.38    -0.776 OA
DOCKED: ATOM     43  H   UNL d   1      45.074  23.282  20.402 +0.05 +0.08    +0.167 HD
DOCKED: ENDBRANCH  40  42
DOCKED: ENDBRANCH  39  40
DOCKED: ENDBRANCH  38  39
DOCKED: ENDBRANCH  22  38
DOCKED: BRANCH  12  44
DOCKED: ATOM     44  C   UNL d   1      37.265  33.585  13.552 -0.49 +0.00    +0.004 C 
DOCKED: ATOM     45  C   UNL d   1      36.366  33.315  12.606 -0.57 +0.00    +0.012 C 
DOCKED: ENDBRANCH  12  44
DOCKED: BRANCH  17  46
DOCKED: ATOM     46  C   UNL d   1      36.465  25.483  12.689 -0.64 +0.00    +0.004 C 
DOCKED: ATOM     47  C   UNL d   1      35.933  24.546  13.484 -0.71 +0.00    +0.012 C 
DOCKED: ENDBRANCH  17  46
DOCKED: TORSDOF 10
DOCKED: TER
DOCKED: ENDMDL
________________________________________________________________________________


	BEGINNING GENETIC ALGORITHM DOCKING 54 of 100
Run: 54 Seed: 1573292301 789709235 [ Run 54 of 100 GA/GALS ]
Beginning LAMARCKIAN GENETIC ALGORITHM (LGA), with a maximum of 25000000 energy evaluations.

Final-Value: -20.189


	FINAL GENETIC ALGORITHM DOCKED STATE
	_______________________________________________


Detailed state:  trans 40.947 28.432 15.725 quatxyzw 0.341930 -0.407188 -0.846488 0.027217 center 8.287 34.468 -0.670 ntor 10 -123.8664 5.3488 47.6092 -78.4607 -16.8888 170.4509 -63.6151 -10.7434 -161.0189 134.9438
State:	 40.947  28.432  15.725   0.342 -0.407 -0.847 176.881   -123.87    5.35   47.61  -78.46  -16.89  170.45  -63.62  -10.74 -161.02  134.94

DOCKED: MODEL       54
DOCKED: USER    Run = 54
DOCKED: USER    DPF = D:/Protein_go_brrr/autodock/final/6BB5/heme_O2/dock.dpf
DOCKED: USER  
DOCKED: USER    Estimated Free Energy of Binding    =  -15.07 kcal/mol  [=(1)+(2)+(3)-(4)]
DOCKED: USER    Estimated Inhibition Constant, Ki   =    9.01 pM (picomolar)  [Temperature = 298.15 K]
DOCKED: USER    
DOCKED: USER    (1) Final Intermolecular Energy     =  -18.05 kcal/mol
DOCKED: USER        vdW + Hbond + desolv Energy     =  -16.20 kcal/mol
DOCKED: USER        Electrostatic Energy            =   -1.85 kcal/mol
DOCKED: USER    (2) Final Total Internal Energy     =   -2.14 kcal/mol
DOCKED: USER    (3) Torsional Free Energy           =   +2.98 kcal/mol
DOCKED: USER    (4) Unbound System's Energy  [=(2)] =   -2.14 kcal/mol
DOCKED: USER    
DOCKED: USER    
DOCKED: USER    NEWDPF move heme_O2_opt.pdbqt
DOCKED: USER    NEWDPF about 8.287000 34.468000 -0.670000
DOCKED: USER    NEWDPF tran0 40.947323 28.431939 15.724645
DOCKED: USER    NEWDPF quaternion0 0.341930 -0.407188 -0.846488 0.027217
DOCKED: USER    NEWDPF axisangle0 0.342057 -0.407339 -0.846801 176.880730
DOCKED: USER    NEWDPF quat0 0.342057 -0.407339 -0.846801 176.880730
DOCKED: USER    NEWDPF dihe0 -123.87 5.35 47.61 -78.46 -16.89 170.45 -63.62 -10.74 -161.02 134.94 
DOCKED: USER  keepresnum = 1 
DOCKED: USER  
DOCKED: REMARK  10 active torsions:
DOCKED: REMARK  status: ('A' for Active; 'I' for Inactive)
DOCKED: REMARK    1  A    between atoms: C_6  and  C_10 
DOCKED: REMARK    2  A    between atoms: C_10  and  C_11 
DOCKED: REMARK    3  A    between atoms: C_11  and  C_12 
DOCKED: REMARK    4  A    between atoms: C_12  and  O_14 
DOCKED: REMARK    5  A    between atoms: C_17  and  C_20 
DOCKED: REMARK    6  A    between atoms: C_24  and  C_27 
DOCKED: REMARK    7  A    between atoms: C_31  and  C_34 
DOCKED: REMARK    8  A    between atoms: C_34  and  C_35 
DOCKED: REMARK    9  A    between atoms: C_35  and  C_36 
DOCKED: REMARK   10  A    between atoms: C_36  and  O_38 
DOCKED: USER                              x       y       z     vdW  Elec       q    Type
DOCKED: USER                           _______ _______ _______ _____ _____    ______ ____
DOCKED: ROOT
DOCKED: ATOM      1  C   UNL d   1      42.627  27.899  16.905 -0.19 +0.02    +0.064 A 
DOCKED: ATOM      2  C   UNL d   1      40.550  32.069  15.980 -0.39 +0.01    +0.064 A 
DOCKED: ATOM      3  C   UNL d   1      37.322  29.934  13.132 -0.40 +0.01    +0.064 C 
DOCKED: ATOM      4  C   UNL d   1      39.155  25.580  14.454 -0.38 +0.01    +0.064 A 
DOCKED: ATOM      5  C   UNL d   1      42.325  29.207  16.887 -0.25 +0.02    +0.066 A 
DOCKED: ATOM      6  C   UNL d   1      43.046  30.187  17.575 -0.33 -0.01    -0.021 A 
DOCKED: ATOM      7  C   UNL d   1      42.420  31.389  17.343 -0.39 -0.00    -0.025 A 
DOCKED: ATOM      8  C   UNL d   1      41.361  31.117  16.481 -0.35 +0.01    +0.066 A 
DOCKED: ATOM      9  C   UNL d   1      42.826  32.709  17.960 -0.46 +0.01    +0.051 C 
DOCKED: ATOM     10  C   UNL d   1      39.438  31.848  15.054 -0.36 +0.01    +0.066 A 
DOCKED: ATOM     11  C   UNL d   1      38.732  32.887  14.438 -0.39 -0.00    -0.021 A 
DOCKED: ATOM     12  C   UNL d   1      37.809  32.291  13.599 -0.41 +0.00    +0.000 A 
DOCKED: ATOM     13  C   UNL d   1      38.000  30.891  13.764 -0.36 +0.01    +0.070 A 
DOCKED: ATOM     14  C   UNL d   1      38.948  34.385  14.621 -0.50 +0.00    +0.052 C 
DOCKED: ATOM     15  C   UNL d   1      37.461  28.507  13.297 -0.40 +0.01    +0.066 A 
DOCKED: ATOM     16  C   UNL d   1      36.610  27.559  12.729 -0.50 -0.00    -0.021 A 
DOCKED: ATOM     17  C   UNL d   1      37.113  26.310  13.093 -0.47 +0.00    +0.000 A 
DOCKED: ATOM     18  C   UNL d   1      38.249  26.593  13.864 -0.38 +0.01    +0.070 A 
DOCKED: ATOM     19  C   UNL d   1      35.375  27.926  11.946 -0.63 +0.00    +0.052 C 
DOCKED: ATOM     20  C   UNL d   1      40.228  25.816  15.233 -0.38 +0.01    +0.066 A 
DOCKED: ATOM     21  C   UNL d   1      41.056  24.821  15.745 -0.41 -0.00    -0.025 A 
DOCKED: ATOM     22  C   UNL d   1      42.066  25.464  16.424 -0.36 -0.00    -0.021 A 
DOCKED: ATOM     23  C   UNL d   1      41.807  26.834  16.315 -0.34 +0.01    +0.066 A 
DOCKED: ATOM     24  C   UNL d   1      40.888  23.331  15.597 -0.53 +0.00    +0.051 C 
DOCKED: ATOM     25  N   UNL d   1      41.264  29.764  16.253 -0.09 -0.06    -0.248 N 
DOCKED: ATOM     26  N   UNL d   1      38.990  30.631  14.654 -0.16 -0.05    -0.248 N 
DOCKED: ATOM     27  N   UNL d   1      38.402  27.931  14.039 -0.22 -0.05    -0.248 N 
DOCKED: ATOM     28  N   UNL d   1      40.664  27.042  15.629 -0.26 -0.05    -0.248 N 
DOCKED: ATOM     29 FE   UNL d   1      39.831  28.822  15.144 -0.06 +0.00    +0.000 Fe
DOCKED: ATOM     30  O   UNL d   1      39.298  29.429  16.474 -0.70 +0.00    +0.000 OA
DOCKED: ATOM     31  O   UNL d   1      38.776  28.023  15.994 -0.85 +0.00    +0.000 OA
DOCKED: ENDROOT
DOCKED: BRANCH   6  32
DOCKED: ATOM     32  C   UNL d   1      44.198  29.987  18.526 -0.30 +0.02    +0.052 C 
DOCKED: BRANCH  32  33
DOCKED: ATOM     33  C   UNL d   1      43.752  29.507  19.904 +0.09 +0.08    +0.115 C 
DOCKED: BRANCH  33  34
DOCKED: ATOM     34  C   UNL d   1      44.237  28.112  20.212 -0.20 +0.14    +0.139 C 
DOCKED: ATOM     35  O   UNL d   1      43.780  27.512  21.171 -0.41 -1.08    -0.650 OA
DOCKED: BRANCH  34  36
DOCKED: ATOM     36  O   UNL d   1      45.191  27.518  19.465 +0.06 -0.53    -0.776 OA
DOCKED: ATOM     37  H   UNL d   1      45.047  26.668  19.034 +0.06 +0.09    +0.167 HD
DOCKED: ENDBRANCH  34  36
DOCKED: ENDBRANCH  33  34
DOCKED: ENDBRANCH  32  33
DOCKED: ENDBRANCH   6  32
DOCKED: BRANCH  22  38
DOCKED: ATOM     38  C   UNL d   1      43.179  24.793  17.186 -0.32 +0.01    +0.052 C 
DOCKED: BRANCH  38  39
DOCKED: ATOM     39  C   UNL d   1      43.230  25.231  18.648 -0.29 +0.04    +0.115 C 
DOCKED: BRANCH  39  40
DOCKED: ATOM     40  C   UNL d   1      44.143  24.363  19.478 -0.22 +0.06    +0.139 C 
DOCKED: ATOM     41  O   UNL d   1      44.095  23.149  19.362 -0.30 -0.27    -0.650 OA
DOCKED: BRANCH  40  42
DOCKED: ATOM     42  O   UNL d   1      45.050  24.906  20.313 +0.08 -0.47    -0.776 OA
DOCKED: ATOM     43  H   UNL d   1      45.067  25.854  20.492 +0.05 +0.14    +0.167 HD
DOCKED: ENDBRANCH  40  42
DOCKED: ENDBRANCH  39  40
DOCKED: ENDBRANCH  38  39
DOCKED: ENDBRANCH  22  38
DOCKED: BRANCH  12  44
DOCKED: ATOM     44  C   UNL d   1      36.856  33.103  12.747 -0.52 +0.00    +0.004 C 
DOCKED: ATOM     45  C   UNL d   1      35.556  32.891  12.542 -0.64 +0.00    +0.012 C 
DOCKED: ENDBRANCH  12  44
DOCKED: BRANCH  17  46
DOCKED: ATOM     46  C   UNL d   1      36.594  24.921  12.832 -0.68 +0.00    +0.004 C 
DOCKED: ATOM     47  C   UNL d   1      35.687  24.229  13.534 -0.73 +0.00    +0.012 C 
DOCKED: ENDBRANCH  17  46
DOCKED: TORSDOF 10
DOCKED: TER
DOCKED: ENDMDL
________________________________________________________________________________


	BEGINNING GENETIC ALGORITHM DOCKING 55 of 100
Run: 55 Seed: 1531121039 1034456080 [ Run 55 of 100 GA/GALS ]
Beginning LAMARCKIAN GENETIC ALGORITHM (LGA), with a maximum of 25000000 energy evaluations.

Final-Value: -11.178


	FINAL GENETIC ALGORITHM DOCKED STATE
	_______________________________________________


Detailed state:  trans 18.845 45.154 -7.694 quatxyzw 0.210247 -0.153942 0.856909 -0.444752 center 8.287 34.468 -0.670 ntor 10 106.6929 10.8612 -14.6741 -17.2286 33.0996 73.7737 25.5506 28.5559 -27.2050 180.0000
State:	 18.845  45.154  -7.694   0.235 -0.172  0.957 -127.185    106.69   10.86  -14.67  -17.23   33.10   73.77   25.55   28.56  -27.20  180.00

DOCKED: MODEL       55
DOCKED: USER    Run = 55
DOCKED: USER    DPF = D:/Protein_go_brrr/autodock/final/6BB5/heme_O2/dock.dpf
DOCKED: USER  
DOCKED: USER    Estimated Free Energy of Binding    =   -6.82 kcal/mol  [=(1)+(2)+(3)-(4)]
DOCKED: USER    Estimated Inhibition Constant, Ki   =    9.98 uM (micromolar)  [Temperature = 298.15 K]
DOCKED: USER    
DOCKED: USER    (1) Final Intermolecular Energy     =   -9.81 kcal/mol
DOCKED: USER        vdW + Hbond + desolv Energy     =   -8.62 kcal/mol
DOCKED: USER        Electrostatic Energy            =   -1.18 kcal/mol
DOCKED: USER    (2) Final Total Internal Energy     =   -1.37 kcal/mol
DOCKED: USER    (3) Torsional Free Energy           =   +2.98 kcal/mol
DOCKED: USER    (4) Unbound System's Energy  [=(2)] =   -1.37 kcal/mol
DOCKED: USER    
DOCKED: USER    
DOCKED: USER    NEWDPF move heme_O2_opt.pdbqt
DOCKED: USER    NEWDPF about 8.287000 34.468000 -0.670000
DOCKED: USER    NEWDPF tran0 18.844953 45.153813 -7.694385
DOCKED: USER    NEWDPF quaternion0 0.210247 -0.153942 0.856909 -0.444752
DOCKED: USER    NEWDPF axisangle0 0.234742 -0.171877 0.956742 -127.185074
DOCKED: USER    NEWDPF quat0 0.234742 -0.171877 0.956742 -127.185074
DOCKED: USER    NEWDPF dihe0 106.69 10.86 -14.67 -17.23 33.10 73.77 25.55 28.56 -27.20 180.00 
DOCKED: USER  keepresnum = 1 
DOCKED: USER  
DOCKED: REMARK  10 active torsions:
DOCKED: REMARK  status: ('A' for Active; 'I' for Inactive)
DOCKED: REMARK    1  A    between atoms: C_6  and  C_10 
DOCKED: REMARK    2  A    between atoms: C_10  and  C_11 
DOCKED: REMARK    3  A    between atoms: C_11  and  C_12 
DOCKED: REMARK    4  A    between atoms: C_12  and  O_14 
DOCKED: REMARK    5  A    between atoms: C_17  and  C_20 
DOCKED: REMARK    6  A    between atoms: C_24  and  C_27 
DOCKED: REMARK    7  A    between atoms: C_31  and  C_34 
DOCKED: REMARK    8  A    between atoms: C_34  and  C_35 
DOCKED: REMARK    9  A    between atoms: C_35  and  C_36 
DOCKED: REMARK   10  A    between atoms: C_36  and  O_38 
DOCKED: USER                              x       y       z     vdW  Elec       q    Type
DOCKED: USER                           _______ _______ _______ _____ _____    ______ ____
DOCKED: ROOT
DOCKED: ATOM      1  C   UNL d   1      19.133  43.875  -9.362 -0.09 +0.02    +0.064 A 
DOCKED: ATOM      2  C   UNL d   1      21.610  44.542  -5.365 -0.24 +0.00    +0.064 A 
DOCKED: ATOM      3  C   UNL d   1      18.520  47.921  -3.905 -0.06 -0.02    +0.064 C 
DOCKED: ATOM      4  C   UNL d   1      15.701  46.906  -7.789 -0.20 -0.01    +0.064 A 
DOCKED: ATOM      5  C   UNL d   1      20.058  43.779  -8.393 -0.14 +0.01    +0.066 A 
DOCKED: ATOM      6  C   UNL d   1      21.158  42.918  -8.443 -0.15 -0.01    -0.021 A 
DOCKED: ATOM      7  C   UNL d   1      21.852  43.079  -7.266 -0.18 -0.00    -0.025 A 
DOCKED: ATOM      8  C   UNL d   1      21.184  44.069  -6.552 -0.21 +0.01    +0.066 A 
DOCKED: ATOM      9  C   UNL d   1      23.075  42.283  -6.867 -0.17 +0.01    +0.051 C 
DOCKED: ATOM     10  C   UNL d   1      20.965  45.595  -4.579 -0.26 -0.00    +0.066 A 
DOCKED: ATOM     11  C   UNL d   1      21.537  46.162  -3.435 -0.28 +0.00    -0.021 A 
DOCKED: ATOM     12  C   UNL d   1      20.670  47.151  -3.009 -0.28 -0.00    +0.000 A 
DOCKED: ATOM     13  C   UNL d   1      19.587  47.122  -3.932 -0.22 -0.01    +0.070 A 
DOCKED: ATOM     14  C   UNL d   1      22.869  45.794  -2.791 -0.16 +0.00    +0.052 C 
DOCKED: ATOM     15  C   UNL d   1      17.387  47.900  -4.798 -0.20 -0.01    +0.066 A 
DOCKED: ATOM     16  C   UNL d   1      16.226  48.652  -4.620 -0.23 +0.00    -0.021 A 
DOCKED: ATOM     17  C   UNL d   1      15.407  48.378  -5.715 -0.23 -0.00    +0.000 A 
DOCKED: ATOM     18  C   UNL d   1      16.141  47.470  -6.491 -0.19 -0.01    +0.070 A 
DOCKED: ATOM     19  C   UNL d   1      15.982  49.512  -3.405 -0.36 -0.01    +0.052 C 
DOCKED: ATOM     20  C   UNL d   1      16.360  46.000  -8.537 -0.21 -0.01    +0.066 A 
DOCKED: ATOM     21  C   UNL d   1      15.905  45.519  -9.762 -0.19 +0.00    -0.025 A 
DOCKED: ATOM     22  C   UNL d   1      16.883  44.675 -10.237 -0.18 +0.00    -0.021 A 
DOCKED: ATOM     23  C   UNL d   1      17.895  44.658  -9.273 -0.16 +0.01    +0.066 A 
DOCKED: ATOM     24  C   UNL d   1      14.600  45.846 -10.441 -0.02 -0.02    +0.051 C 
DOCKED: ATOM     25  N   UNL d   1      20.043  44.453  -7.217 -0.13 -0.03    -0.248 N 
DOCKED: ATOM     26  N   UNL d   1      19.773  46.170  -4.881 -0.17 +0.02    -0.248 N 
DOCKED: ATOM     27  N   UNL d   1      17.307  47.134  -5.882 -0.12 +0.03    -0.248 N 
DOCKED: ATOM     28  N   UNL d   1      17.553  45.430  -8.221 -0.14 +0.00    -0.248 N 
DOCKED: ATOM     29 FE   UNL d   1      18.653  45.798  -6.562 -0.05 -0.00    +0.000 Fe
DOCKED: ATOM     30  O   UNL d   1      18.673  44.471  -5.750 -0.48 +0.00    +0.000 OA
DOCKED: ATOM     31  O   UNL d   1      17.296  45.154  -6.095 -0.38 -0.00    +0.000 OA
DOCKED: ENDROOT
DOCKED: BRANCH   6  32
DOCKED: ATOM     32  C   UNL d   1      21.473  41.883  -9.491 -0.07 +0.02    +0.052 C 
DOCKED: BRANCH  32  33
DOCKED: ATOM     33  C   UNL d   1      21.558  42.470 -10.897 -0.07 +0.03    +0.115 C 
DOCKED: BRANCH  33  34
DOCKED: ATOM     34  C   UNL d   1      21.310  41.437 -11.968 -0.08 +0.05    +0.139 C 
DOCKED: ATOM     35  O   UNL d   1      22.192  41.176 -12.770 +0.02 -0.14    -0.650 OA
DOCKED: BRANCH  34  36
DOCKED: ATOM     36  O   UNL d   1      20.121  40.810 -12.079 -0.24 -0.61    -0.776 OA
DOCKED: ATOM     37  H   UNL d   1      19.502  41.010 -12.791 +0.00 +0.12    +0.167 HD
DOCKED: ENDBRANCH  34  36
DOCKED: ENDBRANCH  33  34
DOCKED: ENDBRANCH  32  33
DOCKED: ENDBRANCH   6  32
DOCKED: BRANCH  22  38
DOCKED: ATOM     38  C   UNL d   1      16.812  43.882 -11.517 -0.14 +0.00    +0.052 C 
DOCKED: BRANCH  38  39
DOCKED: ATOM     39  C   UNL d   1      15.940  42.635 -11.382 -0.21 +0.00    +0.115 C 
DOCKED: BRANCH  39  40
DOCKED: ATOM     40  C   UNL d   1      16.353  41.538 -12.331 -0.11 +0.06    +0.139 C 
DOCKED: ATOM     41  O   UNL d   1      15.501  40.851 -12.871 -0.02 -0.20    -0.650 OA
DOCKED: BRANCH  40  42
DOCKED: ATOM     42  O   UNL d   1      17.649  41.332 -12.635 -0.44 -0.65    -0.776 OA
DOCKED: ATOM     43  H   UNL d   1      18.359  41.738 -12.122 +0.00 +0.15    +0.167 HD
DOCKED: ENDBRANCH  40  42
DOCKED: ENDBRANCH  39  40
DOCKED: ENDBRANCH  38  39
DOCKED: ENDBRANCH  22  38
DOCKED: BRANCH  12  44
DOCKED: ATOM     44  C   UNL d   1      20.956  48.001  -1.789 -0.27 -0.00    +0.004 C 
DOCKED: ATOM     45  C   UNL d   1      20.420  49.178  -1.468 -0.24 -0.00    +0.012 C 
DOCKED: ENDBRANCH  12  44
DOCKED: BRANCH  17  46
DOCKED: ATOM     46  C   UNL d   1      14.014  48.842  -6.048 -0.31 -0.00    +0.004 C 
DOCKED: ATOM     47  C   UNL d   1      13.061  49.269  -5.210 -0.40 -0.00    +0.012 C 
DOCKED: ENDBRANCH  17  46
DOCKED: TORSDOF 10
DOCKED: TER
DOCKED: ENDMDL
________________________________________________________________________________


	BEGINNING GENETIC ALGORITHM DOCKING 56 of 100
Run: 56 Seed: 213569543 1513029173 [ Run 56 of 100 GA/GALS ]
Beginning LAMARCKIAN GENETIC ALGORITHM (LGA), with a maximum of 25000000 energy evaluations.

Final-Value: -20.366


	FINAL GENETIC ALGORITHM DOCKED STATE
	_______________________________________________


Detailed state:  trans 41.081 28.207 15.735 quatxyzw 0.334453 -0.378429 -0.861267 0.056135 center 8.287 34.468 -0.670 ntor 10 118.1076 -174.3901 22.6756 -94.5280 -164.7366 111.8588 -49.6266 86.2320 -173.6951 -169.3198
State:	 41.081  28.207  15.735   0.335 -0.379 -0.863 173.564    118.11 -174.39   22.68  -94.53 -164.74  111.86  -49.63   86.23 -173.70 -169.32

DOCKED: MODEL       56
DOCKED: USER    Run = 56
DOCKED: USER    DPF = D:/Protein_go_brrr/autodock/final/6BB5/heme_O2/dock.dpf
DOCKED: USER  
DOCKED: USER    Estimated Free Energy of Binding    =  -15.37 kcal/mol  [=(1)+(2)+(3)-(4)]
DOCKED: USER    Estimated Inhibition Constant, Ki   =    5.40 pM (picomolar)  [Temperature = 298.15 K]
DOCKED: USER    
DOCKED: USER    (1) Final Intermolecular Energy     =  -18.36 kcal/mol
DOCKED: USER        vdW + Hbond + desolv Energy     =  -16.48 kcal/mol
DOCKED: USER        Electrostatic Energy            =   -1.87 kcal/mol
DOCKED: USER    (2) Final Total Internal Energy     =   -2.01 kcal/mol
DOCKED: USER    (3) Torsional Free Energy           =   +2.98 kcal/mol
DOCKED: USER    (4) Unbound System's Energy  [=(2)] =   -2.01 kcal/mol
DOCKED: USER    
DOCKED: USER    
DOCKED: USER    NEWDPF move heme_O2_opt.pdbqt
DOCKED: USER    NEWDPF about 8.287000 34.468000 -0.670000
DOCKED: USER    NEWDPF tran0 41.081130 28.206984 15.735177
DOCKED: USER    NEWDPF quaternion0 0.334453 -0.378429 -0.861267 0.056135
DOCKED: USER    NEWDPF axisangle0 0.334982 -0.379027 -0.862627 173.564075
DOCKED: USER    NEWDPF quat0 0.334982 -0.379027 -0.862627 173.564075
DOCKED: USER    NEWDPF dihe0 118.11 -174.39 22.68 -94.53 -164.74 111.86 -49.63 86.23 -173.70 -169.32 
DOCKED: USER  keepresnum = 1 
DOCKED: USER  
DOCKED: REMARK  10 active torsions:
DOCKED: REMARK  status: ('A' for Active; 'I' for Inactive)
DOCKED: REMARK    1  A    between atoms: C_6  and  C_10 
DOCKED: REMARK    2  A    between atoms: C_10  and  C_11 
DOCKED: REMARK    3  A    between atoms: C_11  and  C_12 
DOCKED: REMARK    4  A    between atoms: C_12  and  O_14 
DOCKED: REMARK    5  A    between atoms: C_17  and  C_20 
DOCKED: REMARK    6  A    between atoms: C_24  and  C_27 
DOCKED: REMARK    7  A    between atoms: C_31  and  C_34 
DOCKED: REMARK    8  A    between atoms: C_34  and  C_35 
DOCKED: REMARK    9  A    between atoms: C_35  and  C_36 
DOCKED: REMARK   10  A    between atoms: C_36  and  O_38 
DOCKED: USER                              x       y       z     vdW  Elec       q    Type
DOCKED: USER                           _______ _______ _______ _____ _____    ______ ____
DOCKED: ROOT
DOCKED: ATOM      1  C   UNL d   1      42.737  27.522  16.870 -0.23 +0.02    +0.064 A 
DOCKED: ATOM      2  C   UNL d   1      40.808  31.823  16.284 -0.39 +0.01    +0.064 A 
DOCKED: ATOM      3  C   UNL d   1      37.519  30.038  13.269 -0.41 +0.01    +0.064 C 
DOCKED: ATOM      4  C   UNL d   1      39.197  25.531  14.236 -0.42 +0.01    +0.064 A 
DOCKED: ATOM      5  C   UNL d   1      42.480  28.837  16.958 -0.17 +0.02    +0.066 A 
DOCKED: ATOM      6  C   UNL d   1      43.232  29.733  17.724 -0.29 -0.01    -0.021 A 
DOCKED: ATOM      7  C   UNL d   1      42.648  30.971  17.589 -0.37 -0.01    -0.025 A 
DOCKED: ATOM      8  C   UNL d   1      41.585  30.806  16.706 -0.34 +0.01    +0.066 A 
DOCKED: ATOM      9  C   UNL d   1      43.097  32.222  18.311 -0.44 +0.01    +0.051 C 
DOCKED: ATOM     10  C   UNL d   1      39.693  31.716  15.342 -0.36 +0.01    +0.066 A 
DOCKED: ATOM     11  C   UNL d   1      39.026  32.825  14.811 -0.40 -0.00    -0.021 A 
DOCKED: ATOM     12  C   UNL d   1      38.085  32.332  13.926 -0.40 +0.00    +0.000 A 
DOCKED: ATOM     13  C   UNL d   1      38.227  30.917  13.977 -0.37 +0.01    +0.070 A 
DOCKED: ATOM     14  C   UNL d   1      39.292  34.295  15.115 -0.53 +0.00    +0.052 C 
DOCKED: ATOM     15  C   UNL d   1      37.608  28.599  13.318 -0.39 +0.01    +0.066 A 
DOCKED: ATOM     16  C   UNL d   1      36.727  27.729  12.675 -0.51 -0.00    -0.021 A 
DOCKED: ATOM     17  C   UNL d   1      37.185  26.438  12.937 -0.47 +0.00    +0.000 A 
DOCKED: ATOM     18  C   UNL d   1      38.328  26.619  13.729 -0.38 +0.01    +0.070 A 
DOCKED: ATOM     19  C   UNL d   1      35.509  28.202  11.922 -0.64 +0.00    +0.052 C 
DOCKED: ATOM     20  C   UNL d   1      40.274  25.666  15.033 -0.40 +0.01    +0.066 A 
DOCKED: ATOM     21  C   UNL d   1      41.065  24.604  15.464 -0.43 -0.00    -0.025 A 
DOCKED: ATOM     22  C   UNL d   1      42.094  25.156  16.193 -0.34 -0.00    -0.021 A 
DOCKED: ATOM     23  C   UNL d   1      41.883  26.538  16.196 -0.34 +0.01    +0.066 A 
DOCKED: ATOM     24  C   UNL d   1      40.847  23.138  15.196 -0.56 +0.00    +0.051 C 
DOCKED: ATOM     25  N   UNL d   1      41.442  29.480  16.369 -0.21 -0.06    -0.248 N 
DOCKED: ATOM     26  N   UNL d   1      39.205  30.551  14.844 -0.13 -0.06    -0.248 N 
DOCKED: ATOM     27  N   UNL d   1      38.526  27.932  14.012 -0.21 -0.05    -0.248 N 
DOCKED: ATOM     28  N   UNL d   1      40.751  26.840  15.527 -0.27 -0.05    -0.248 N 
DOCKED: ATOM     29 FE   UNL d   1      39.981  28.681  15.187 -0.07 +0.00    +0.000 Fe
DOCKED: ATOM     30  O   UNL d   1      39.464  29.197  16.561 -0.76 +0.00    +0.000 OA
DOCKED: ATOM     31  O   UNL d   1      38.896  27.853  15.968 -0.84 +0.00    +0.000 OA
DOCKED: ENDROOT
DOCKED: BRANCH   6  32
DOCKED: ATOM     32  C   UNL d   1      44.373  29.417  18.657 -0.28 +0.02    +0.052 C 
DOCKED: BRANCH  32  33
DOCKED: ATOM     33  C   UNL d   1      43.911  29.139  20.084 +0.07 +0.09    +0.115 C 
DOCKED: BRANCH  33  34
DOCKED: ATOM     34  C   UNL d   1      44.456  27.839  20.622 -0.11 +0.18    +0.139 C 
DOCKED: ATOM     35  O   UNL d   1      45.630  27.557  20.442 -0.17 -0.72    -0.650 OA
DOCKED: BRANCH  34  36
DOCKED: ATOM     36  O   UNL d   1      43.667  26.963  21.276 -0.41 -1.17    -0.776 OA
DOCKED: ATOM     37  H   UNL d   1      43.514  26.069  20.948 +0.06 +0.15    +0.167 HD
DOCKED: ENDBRANCH  34  36
DOCKED: ENDBRANCH  33  34
DOCKED: ENDBRANCH  32  33
DOCKED: ENDBRANCH   6  32
DOCKED: BRANCH  22  38
DOCKED: ATOM     38  C   UNL d   1      43.181  24.386  16.899 -0.32 +0.01    +0.052 C 
DOCKED: BRANCH  38  39
DOCKED: ATOM     39  C   UNL d   1      42.646  23.569  18.073 -0.39 +0.03    +0.115 C 
DOCKED: BRANCH  39  40
DOCKED: ATOM     40  C   UNL d   1      42.767  24.300  19.387 -0.33 +0.04    +0.139 C 
DOCKED: ATOM     41  O   UNL d   1      43.648  23.991  20.173 -0.16 -0.29    -0.650 OA
DOCKED: BRANCH  40  42
DOCKED: ATOM     42  O   UNL d   1      41.950  25.327  19.690 +0.05 -0.21    -0.776 OA
DOCKED: ATOM     43  H   UNL d   1      42.095  25.874  20.471 +0.07 +0.06    +0.167 HD
DOCKED: ENDBRANCH  40  42
DOCKED: ENDBRANCH  39  40
DOCKED: ENDBRANCH  38  39
DOCKED: ENDBRANCH  22  38
DOCKED: BRANCH  12  44
DOCKED: ATOM     44  C   UNL d   1      37.164  33.243  13.141 -0.48 +0.00    +0.004 C 
DOCKED: ATOM     45  C   UNL d   1      36.023  32.924  12.530 -0.59 +0.00    +0.012 C 
DOCKED: ENDBRANCH  12  44
DOCKED: BRANCH  17  46
DOCKED: ATOM     46  C   UNL d   1      36.620  25.094  12.564 -0.67 +0.00    +0.004 C 
DOCKED: ATOM     47  C   UNL d   1      35.920  24.248  13.330 -0.73 +0.00    +0.012 C 
DOCKED: ENDBRANCH  17  46
DOCKED: TORSDOF 10
DOCKED: TER
DOCKED: ENDMDL
________________________________________________________________________________


	BEGINNING GENETIC ALGORITHM DOCKING 57 of 100
Run: 57 Seed: 1081942814 845954230 [ Run 57 of 100 GA/GALS ]
Beginning LAMARCKIAN GENETIC ALGORITHM (LGA), with a maximum of 25000000 energy evaluations.

Final-Value: -20.002


	FINAL GENETIC ALGORITHM DOCKED STATE
	_______________________________________________


Detailed state:  trans 41.070 28.213 15.701 quatxyzw -0.325195 0.371565 0.867485 -0.060483 center 8.287 34.468 -0.670 ntor 10 -78.2569 -77.0790 12.3356 -100.2930 -111.4594 -176.7330 -29.7385 2.8132 -157.3852 163.3074
State:	 41.070  28.213  15.701  -0.326  0.372  0.869 -173.065    -78.26  -77.08   12.34 -100.29 -111.46 -176.73  -29.74    2.81 -157.39  163.31

DOCKED: MODEL       57
DOCKED: USER    Run = 57
DOCKED: USER    DPF = D:/Protein_go_brrr/autodock/final/6BB5/heme_O2/dock.dpf
DOCKED: USER  
DOCKED: USER    Estimated Free Energy of Binding    =  -15.41 kcal/mol  [=(1)+(2)+(3)-(4)]
DOCKED: USER    Estimated Inhibition Constant, Ki   =    5.04 pM (picomolar)  [Temperature = 298.15 K]
DOCKED: USER    
DOCKED: USER    (1) Final Intermolecular Energy     =  -18.40 kcal/mol
DOCKED: USER        vdW + Hbond + desolv Energy     =  -16.43 kcal/mol
DOCKED: USER        Electrostatic Energy            =   -1.97 kcal/mol
DOCKED: USER    (2) Final Total Internal Energy     =   -1.61 kcal/mol
DOCKED: USER    (3) Torsional Free Energy           =   +2.98 kcal/mol
DOCKED: USER    (4) Unbound System's Energy  [=(2)] =   -1.61 kcal/mol
DOCKED: USER    
DOCKED: USER    
DOCKED: USER    NEWDPF move heme_O2_opt.pdbqt
DOCKED: USER    NEWDPF about 8.287000 34.468000 -0.670000
DOCKED: USER    NEWDPF tran0 41.070468 28.213080 15.701413
DOCKED: USER    NEWDPF quaternion0 -0.325195 0.371565 0.867485 -0.060483
DOCKED: USER    NEWDPF axisangle0 -0.325792 0.372246 0.869076 -173.064888
DOCKED: USER    NEWDPF quat0 -0.325792 0.372246 0.869076 -173.064888
DOCKED: USER    NEWDPF dihe0 -78.26 -77.08 12.34 -100.29 -111.46 -176.73 -29.74 2.81 -157.39 163.31 
DOCKED: USER  keepresnum = 1 
DOCKED: USER  
DOCKED: REMARK  10 active torsions:
DOCKED: REMARK  status: ('A' for Active; 'I' for Inactive)
DOCKED: REMARK    1  A    between atoms: C_6  and  C_10 
DOCKED: REMARK    2  A    between atoms: C_10  and  C_11 
DOCKED: REMARK    3  A    between atoms: C_11  and  C_12 
DOCKED: REMARK    4  A    between atoms: C_12  and  O_14 
DOCKED: REMARK    5  A    between atoms: C_17  and  C_20 
DOCKED: REMARK    6  A    between atoms: C_24  and  C_27 
DOCKED: REMARK    7  A    between atoms: C_31  and  C_34 
DOCKED: REMARK    8  A    between atoms: C_34  and  C_35 
DOCKED: REMARK    9  A    between atoms: C_35  and  C_36 
DOCKED: REMARK   10  A    between atoms: C_36  and  O_38 
DOCKED: USER                              x       y       z     vdW  Elec       q    Type
DOCKED: USER                           _______ _______ _______ _____ _____    ______ ____
DOCKED: ROOT
DOCKED: ATOM      1  C   UNL d   1      42.738  27.490  16.795 -0.25 +0.02    +0.064 A 
DOCKED: ATOM      2  C   UNL d   1      40.840  31.819  16.328 -0.40 +0.01    +0.064 A 
DOCKED: ATOM      3  C   UNL d   1      37.487  30.127  13.331 -0.38 +0.01    +0.064 C 
DOCKED: ATOM      4  C   UNL d   1      39.138  25.585  14.178 -0.42 +0.01    +0.064 A 
DOCKED: ATOM      5  C   UNL d   1      42.494  28.805  16.914 -0.22 +0.02    +0.066 A 
DOCKED: ATOM      6  C   UNL d   1      43.267  29.678  17.686 -0.29 -0.01    -0.021 A 
DOCKED: ATOM      7  C   UNL d   1      42.693  30.924  17.586 -0.37 -0.01    -0.025 A 
DOCKED: ATOM      8  C   UNL d   1      41.614  30.787  16.717 -0.34 +0.01    +0.066 A 
DOCKED: ATOM      9  C   UNL d   1      43.165  32.156  18.326 -0.43 +0.01    +0.051 C 
DOCKED: ATOM     10  C   UNL d   1      39.709  31.742  15.402 -0.36 +0.01    +0.066 A 
DOCKED: ATOM     11  C   UNL d   1      39.044  32.868  14.905 -0.41 -0.00    -0.021 A 
DOCKED: ATOM     12  C   UNL d   1      38.085  32.401  14.025 -0.40 +0.00    +0.000 A 
DOCKED: ATOM     13  C   UNL d   1      38.215  30.985  14.045 -0.37 +0.01    +0.070 A 
DOCKED: ATOM     14  C   UNL d   1      39.329  34.328  15.234 -0.54 +0.00    +0.052 C 
DOCKED: ATOM     15  C   UNL d   1      37.563  28.686  13.349 -0.39 +0.01    +0.066 A 
DOCKED: ATOM     16  C   UNL d   1      36.664  27.838  12.703 -0.51 -0.00    -0.021 A 
DOCKED: ATOM     17  C   UNL d   1      37.114  26.538  12.931 -0.47 +0.00    +0.000 A 
DOCKED: ATOM     18  C   UNL d   1      38.271  26.692  13.708 -0.38 +0.01    +0.070 A 
DOCKED: ATOM     19  C   UNL d   1      35.438  28.336  11.980 -0.66 +0.00    +0.052 C 
DOCKED: ATOM     20  C   UNL d   1      40.229  25.695  14.961 -0.40 +0.01    +0.066 A 
DOCKED: ATOM     21  C   UNL d   1      41.016  24.617  15.357 -0.44 -0.00    -0.025 A 
DOCKED: ATOM     22  C   UNL d   1      42.062  25.144  16.081 -0.33 -0.00    -0.021 A 
DOCKED: ATOM     23  C   UNL d   1      41.864  26.528  16.115 -0.35 +0.01    +0.066 A 
DOCKED: ATOM     24  C   UNL d   1      40.780  23.158  15.063 -0.54 +0.00    +0.051 C 
DOCKED: ATOM     25  N   UNL d   1      41.453  29.470  16.356 -0.22 -0.06    -0.248 N 
DOCKED: ATOM     26  N   UNL d   1      39.202  30.592  14.889 -0.15 -0.05    -0.248 N 
DOCKED: ATOM     27  N   UNL d   1      38.486  27.997  14.015 -0.21 -0.05    -0.248 N 
DOCKED: ATOM     28  N   UNL d   1      40.724  26.853  15.471 -0.27 -0.05    -0.248 N 
DOCKED: ATOM     29 FE   UNL d   1      39.966  28.708  15.181 -0.06 +0.00    +0.000 Fe
DOCKED: ATOM     30  O   UNL d   1      39.476  29.200  16.574 -0.75 +0.00    +0.000 OA
DOCKED: ATOM     31  O   UNL d   1      38.886  27.874  15.962 -0.84 +0.00    +0.000 OA
DOCKED: ENDROOT
DOCKED: BRANCH   6  32
DOCKED: ATOM     32  C   UNL d   1      44.420  29.333  18.593 -0.27 +0.02    +0.052 C 
DOCKED: BRANCH  32  33
DOCKED: ATOM     33  C   UNL d   1      43.974  28.656  19.885 -0.09 +0.09    +0.115 C 
DOCKED: BRANCH  33  34
DOCKED: ATOM     34  C   UNL d   1      44.992  27.668  20.398 -0.16 +0.16    +0.139 C 
DOCKED: ATOM     35  O   UNL d   1      45.776  28.007  21.271 -0.31 -1.27    -0.650 OA
DOCKED: BRANCH  34  36
DOCKED: ATOM     36  O   UNL d   1      45.079  26.420  19.893 +0.07 -0.56    -0.776 OA
DOCKED: ATOM     37  H   UNL d   1      44.459  25.724  20.141 +0.06 +0.11    +0.167 HD
DOCKED: ENDBRANCH  34  36
DOCKED: ENDBRANCH  33  34
DOCKED: ENDBRANCH  32  33
DOCKED: ENDBRANCH   6  32
DOCKED: BRANCH  22  38
DOCKED: ATOM     38  C   UNL d   1      43.152  24.350  16.753 -0.31 +0.01    +0.052 C 
DOCKED: BRANCH  38  39
DOCKED: ATOM     39  C   UNL d   1      42.845  24.069  18.222 -0.35 +0.03    +0.115 C 
DOCKED: BRANCH  39  40
DOCKED: ATOM     40  C   UNL d   1      43.953  23.309  18.908 -0.23 +0.05    +0.139 C 
DOCKED: ATOM     41  O   UNL d   1      44.622  22.509  18.274 +0.00 -0.25    -0.650 OA
DOCKED: BRANCH  40  42
DOCKED: ATOM     42  O   UNL d   1      44.255  23.535  20.201 -0.27 -0.37    -0.776 OA
DOCKED: ATOM     43  H   UNL d   1      44.724  24.330  20.479 +0.06 +0.09    +0.167 HD
DOCKED: ENDBRANCH  40  42
DOCKED: ENDBRANCH  39  40
DOCKED: ENDBRANCH  38  39
DOCKED: ENDBRANCH  22  38
DOCKED: BRANCH  12  44
DOCKED: ATOM     44  C   UNL d   1      37.160  33.336  13.274 -0.49 +0.00    +0.004 C 
DOCKED: ATOM     45  C   UNL d   1      36.110  33.017  12.518 -0.59 +0.00    +0.012 C 
DOCKED: ENDBRANCH  12  44
DOCKED: BRANCH  17  46
DOCKED: ATOM     46  C   UNL d   1      36.530  25.207  12.539 -0.67 +0.00    +0.004 C 
DOCKED: ATOM     47  C   UNL d   1      35.926  24.304  13.323 -0.73 +0.00    +0.012 C 
DOCKED: ENDBRANCH  17  46
DOCKED: TORSDOF 10
DOCKED: TER
DOCKED: ENDMDL
________________________________________________________________________________


	BEGINNING GENETIC ALGORITHM DOCKING 58 of 100
Run: 58 Seed: 263078484 1101744538 [ Run 58 of 100 GA/GALS ]
Beginning LAMARCKIAN GENETIC ALGORITHM (LGA), with a maximum of 25000000 energy evaluations.

Final-Value: -9.467


	FINAL GENETIC ALGORITHM DOCKED STATE
	_______________________________________________


Detailed state:  trans 36.009 54.160 21.241 quatxyzw -0.102499 0.631873 -0.765979 -0.059223 center 8.287 34.468 -0.670 ntor 10 145.5921 127.4654 -42.0357 -155.0727 -119.7575 -52.0586 -73.3656 107.5513 167.7679 179.9563
State:	 36.009  54.160  21.241  -0.103  0.633 -0.767 -173.210    145.59  127.47  -42.04 -155.07 -119.76  -52.06  -73.37  107.55  167.77  179.96

DOCKED: MODEL       58
DOCKED: USER    Run = 58
DOCKED: USER    DPF = D:/Protein_go_brrr/autodock/final/6BB5/heme_O2/dock.dpf
DOCKED: USER  
DOCKED: USER    Estimated Free Energy of Binding    =   -4.00 kcal/mol  [=(1)+(2)+(3)-(4)]
DOCKED: USER    Estimated Inhibition Constant, Ki   =    1.17 mM (millimolar)  [Temperature = 298.15 K]
DOCKED: USER    
DOCKED: USER    (1) Final Intermolecular Energy     =   -6.98 kcal/mol
DOCKED: USER        vdW + Hbond + desolv Energy     =   -4.68 kcal/mol
DOCKED: USER        Electrostatic Energy            =   -2.30 kcal/mol
DOCKED: USER    (2) Final Total Internal Energy     =   -2.48 kcal/mol
DOCKED: USER    (3) Torsional Free Energy           =   +2.98 kcal/mol
DOCKED: USER    (4) Unbound System's Energy  [=(2)] =   -2.48 kcal/mol
DOCKED: USER    
DOCKED: USER    
DOCKED: USER    NEWDPF move heme_O2_opt.pdbqt
DOCKED: USER    NEWDPF about 8.287000 34.468000 -0.670000
DOCKED: USER    NEWDPF tran0 36.008981 54.160266 21.240725
DOCKED: USER    NEWDPF quaternion0 -0.102499 0.631873 -0.765979 -0.059223
DOCKED: USER    NEWDPF axisangle0 -0.102680 0.632984 -0.767325 -173.209519
DOCKED: USER    NEWDPF quat0 -0.102680 0.632984 -0.767325 -173.209519
DOCKED: USER    NEWDPF dihe0 145.59 127.47 -42.04 -155.07 -119.76 -52.06 -73.37 107.55 167.77 179.96 
DOCKED: USER  keepresnum = 1 
DOCKED: USER  
DOCKED: REMARK  10 active torsions:
DOCKED: REMARK  status: ('A' for Active; 'I' for Inactive)
DOCKED: REMARK    1  A    between atoms: C_6  and  C_10 
DOCKED: REMARK    2  A    between atoms: C_10  and  C_11 
DOCKED: REMARK    3  A    between atoms: C_11  and  C_12 
DOCKED: REMARK    4  A    between atoms: C_12  and  O_14 
DOCKED: REMARK    5  A    between atoms: C_17  and  C_20 
DOCKED: REMARK    6  A    between atoms: C_24  and  C_27 
DOCKED: REMARK    7  A    between atoms: C_31  and  C_34 
DOCKED: REMARK    8  A    between atoms: C_34  and  C_35 
DOCKED: REMARK    9  A    between atoms: C_35  and  C_36 
DOCKED: REMARK   10  A    between atoms: C_36  and  O_38 
DOCKED: USER                              x       y       z     vdW  Elec       q    Type
DOCKED: USER                           _______ _______ _______ _____ _____    ______ ____
DOCKED: ROOT
DOCKED: ATOM      1  C   UNL d   1      37.618  55.220  20.353 -0.01 +0.07    +0.064 A 
DOCKED: ATOM      2  C   UNL d   1      37.441  51.948  23.791 -0.02 +0.02    +0.064 A 
DOCKED: ATOM      3  C   UNL d   1      32.653  51.719  23.454 -0.23 +0.02    +0.064 C 
DOCKED: ATOM      4  C   UNL d   1      32.862  54.732  19.588 -0.10 +0.02    +0.064 A 
DOCKED: ATOM      5  C   UNL d   1      37.961  54.347  21.314 -0.04 +0.07    +0.066 A 
DOCKED: ATOM      6  C   UNL d   1      39.274  54.128  21.740 -0.05 -0.02    -0.021 A 
DOCKED: ATOM      7  C   UNL d   1      39.228  53.149  22.705 -0.04 -0.01    -0.025 A 
DOCKED: ATOM      8  C   UNL d   1      37.883  52.833  22.877 -0.05 +0.04    +0.066 A 
DOCKED: ATOM      9  C   UNL d   1      40.438  52.550  23.388 -0.01 +0.02    +0.051 C 
DOCKED: ATOM     10  C   UNL d   1      36.042  51.591  24.032 -0.04 +0.02    +0.066 A 
DOCKED: ATOM     11  C   UNL d   1      35.626  50.792  25.102 -0.07 -0.00    -0.021 A 
DOCKED: ATOM     12  C   UNL d   1      34.246  50.728  25.033 -0.13 +0.00    +0.000 A 
DOCKED: ATOM     13  C   UNL d   1      33.892  51.500  23.892 -0.12 +0.02    +0.070 A 
DOCKED: ATOM     14  C   UNL d   1      36.504  50.138  26.162 -0.04 +0.01    +0.052 C 
DOCKED: ATOM     15  C   UNL d   1      32.255  52.464  22.284 -0.19 +0.02    +0.066 A 
DOCKED: ATOM     16  C   UNL d   1      30.954  52.519  21.786 -0.26 -0.01    -0.021 A 
DOCKED: ATOM     17  C   UNL d   1      30.989  53.372  20.683 -0.19 +0.00    +0.000 A 
DOCKED: ATOM     18  C   UNL d   1      32.327  53.780  20.591 -0.14 +0.02    +0.070 A 
DOCKED: ATOM     19  C   UNL d   1      29.816  51.718  22.367 -0.34 +0.04    +0.052 C 
DOCKED: ATOM     20  C   UNL d   1      34.147  55.111  19.444 -0.08 +0.03    +0.066 A 
DOCKED: ATOM     21  C   UNL d   1      34.588  56.025  18.492 -0.06 -0.01    -0.025 A 
DOCKED: ATOM     22  C   UNL d   1      35.937  56.197  18.712 -0.05 -0.01    -0.021 A 
DOCKED: ATOM     23  C   UNL d   1      36.272  55.365  19.784 -0.07 +0.06    +0.066 A 
DOCKED: ATOM     24  C   UNL d   1      33.767  56.697  17.423 -0.07 +0.01    +0.051 C 
DOCKED: ATOM     25  N   UNL d   1      37.109  53.524  21.973 -0.05 -0.23    -0.248 N 
DOCKED: ATOM     26  N   UNL d   1      34.991  52.018  23.286 -0.04 -0.09    -0.248 N 
DOCKED: ATOM     27  N   UNL d   1      33.095  53.161  21.524 -0.08 -0.08    -0.248 N 
DOCKED: ATOM     28  N   UNL d   1      35.190  54.673  20.197 -0.06 -0.18    -0.248 N 
DOCKED: ATOM     29 FE   UNL d   1      35.089  53.355  21.730 -0.02 +0.00    +0.000 Fe
DOCKED: ATOM     30  O   UNL d   1      35.884  52.096  21.275 -0.55 +0.00    +0.000 OA
DOCKED: ATOM     31  O   UNL d   1      34.655  52.594  20.424 -0.32 +0.00    +0.000 OA
DOCKED: ENDROOT
DOCKED: BRANCH   6  32
DOCKED: ATOM     32  C   UNL d   1      40.539  54.713  21.169 -0.03 +0.03    +0.052 C 
DOCKED: BRANCH  32  33
DOCKED: ATOM     33  C   UNL d   1      41.372  53.690  20.403 -0.05 +0.07    +0.115 C 
DOCKED: BRANCH  33  34
DOCKED: ATOM     34  C   UNL d   1      41.264  53.863  18.908 -0.06 +0.10    +0.139 C 
DOCKED: ATOM     35  O   UNL d   1      42.042  54.605  18.329 +0.01 -0.24    -0.650 OA
DOCKED: BRANCH  34  36
DOCKED: ATOM     36  O   UNL d   1      40.305  53.237  18.195 -0.29 -1.19    -0.776 OA
DOCKED: ATOM     37  H   UNL d   1      39.899  53.642  17.419 +0.01 +0.23    +0.167 HD
DOCKED: ENDBRANCH  34  36
DOCKED: ENDBRANCH  33  34
DOCKED: ENDBRANCH  32  33
DOCKED: ENDBRANCH   6  32
DOCKED: BRANCH  22  38
DOCKED: ATOM     38  C   UNL d   1      36.857  57.065  17.894 -0.02 +0.02    +0.052 C 
DOCKED: BRANCH  38  39
DOCKED: ATOM     39  C   UNL d   1      37.258  56.407  16.575 -0.04 +0.05    +0.115 C 
DOCKED: BRANCH  39  40
DOCKED: ATOM     40  C   UNL d   1      38.250  55.287  16.769 -0.08 +0.11    +0.139 C 
DOCKED: ATOM     41  O   UNL d   1      37.852  54.141  16.902 -0.00 -0.99    -0.650 OA
DOCKED: BRANCH  40  42
DOCKED: ATOM     42  O   UNL d   1      39.576  55.521  16.747 +0.00 -0.42    -0.776 OA
DOCKED: ATOM     43  H   UNL d   1      40.159  55.194  17.443 +0.01 +0.11    +0.167 HD
DOCKED: ENDBRANCH  40  42
DOCKED: ENDBRANCH  39  40
DOCKED: ENDBRANCH  38  39
DOCKED: ENDBRANCH  22  38
DOCKED: BRANCH  12  44
DOCKED: ATOM     44  C   UNL d   1      33.425  49.950  26.040 -0.06 +0.00    +0.004 C 
DOCKED: ATOM     45  C   UNL d   1      32.324  50.345  26.678 -0.20 +0.00    +0.012 C 
DOCKED: ENDBRANCH  12  44
DOCKED: BRANCH  17  46
DOCKED: ATOM     46  C   UNL d   1      29.914  53.772  19.708 -0.13 +0.00    +0.004 C 
DOCKED: ATOM     47  C   UNL d   1      30.058  54.316  18.493 -0.22 +0.00    +0.012 C 
DOCKED: ENDBRANCH  17  46
DOCKED: TORSDOF 10
DOCKED: TER
DOCKED: ENDMDL
________________________________________________________________________________


	BEGINNING GENETIC ALGORITHM DOCKING 59 of 100
Run: 59 Seed: 419614695 751053143 [ Run 59 of 100 GA/GALS ]
Beginning LAMARCKIAN GENETIC ALGORITHM (LGA), with a maximum of 25000000 energy evaluations.

Final-Value: -19.957


	FINAL GENETIC ALGORITHM DOCKED STATE
	_______________________________________________


Detailed state:  trans 41.088 28.231 15.746 quatxyzw 0.331246 -0.385436 -0.859652 0.052084 center 8.287 34.468 -0.670 ntor 10 -60.5276 -80.9202 23.3906 -93.1254 -122.1352 146.8422 -14.9971 28.9567 -135.1998 -179.8923
State:	 41.088  28.231  15.746   0.332 -0.386 -0.861 174.029    -60.53  -80.92   23.39  -93.13 -122.14  146.84  -15.00   28.96 -135.20 -179.89

DOCKED: MODEL       59
DOCKED: USER    Run = 59
DOCKED: USER    DPF = D:/Protein_go_brrr/autodock/final/6BB5/heme_O2/dock.dpf
DOCKED: USER  
DOCKED: USER    Estimated Free Energy of Binding    =  -15.37 kcal/mol  [=(1)+(2)+(3)-(4)]
DOCKED: USER    Estimated Inhibition Constant, Ki   =    5.39 pM (picomolar)  [Temperature = 298.15 K]
DOCKED: USER    
DOCKED: USER    (1) Final Intermolecular Energy     =  -18.36 kcal/mol
DOCKED: USER        vdW + Hbond + desolv Energy     =  -16.39 kcal/mol
DOCKED: USER        Electrostatic Energy            =   -1.97 kcal/mol
DOCKED: USER    (2) Final Total Internal Energy     =   -1.60 kcal/mol
DOCKED: USER    (3) Torsional Free Energy           =   +2.98 kcal/mol
DOCKED: USER    (4) Unbound System's Energy  [=(2)] =   -1.60 kcal/mol
DOCKED: USER    
DOCKED: USER    
DOCKED: USER    NEWDPF move heme_O2_opt.pdbqt
DOCKED: USER    NEWDPF about 8.287000 34.468000 -0.670000
DOCKED: USER    NEWDPF tran0 41.088396 28.230954 15.745852
DOCKED: USER    NEWDPF quaternion0 0.331246 -0.385436 -0.859652 0.052084
DOCKED: USER    NEWDPF axisangle0 0.331696 -0.385960 -0.860821 174.028910
DOCKED: USER    NEWDPF quat0 0.331696 -0.385960 -0.860821 174.028910
DOCKED: USER    NEWDPF dihe0 -60.53 -80.92 23.39 -93.13 -122.14 146.84 -15.00 28.96 -135.20 -179.89 
DOCKED: USER  keepresnum = 1 
DOCKED: USER  
DOCKED: REMARK  10 active torsions:
DOCKED: REMARK  status: ('A' for Active; 'I' for Inactive)
DOCKED: REMARK    1  A    between atoms: C_6  and  C_10 
DOCKED: REMARK    2  A    between atoms: C_10  and  C_11 
DOCKED: REMARK    3  A    between atoms: C_11  and  C_12 
DOCKED: REMARK    4  A    between atoms: C_12  and  O_14 
DOCKED: REMARK    5  A    between atoms: C_17  and  C_20 
DOCKED: REMARK    6  A    between atoms: C_24  and  C_27 
DOCKED: REMARK    7  A    between atoms: C_31  and  C_34 
DOCKED: REMARK    8  A    between atoms: C_34  and  C_35 
DOCKED: REMARK    9  A    between atoms: C_35  and  C_36 
DOCKED: REMARK   10  A    between atoms: C_36  and  O_38 
DOCKED: USER                              x       y       z     vdW  Elec       q    Type
DOCKED: USER                           _______ _______ _______ _____ _____    ______ ____
DOCKED: ROOT
DOCKED: ATOM      1  C   UNL d   1      42.754  27.563  16.877 -0.24 +0.02    +0.064 A 
DOCKED: ATOM      2  C   UNL d   1      40.821  31.855  16.240 -0.39 +0.01    +0.064 A 
DOCKED: ATOM      3  C   UNL d   1      37.506  30.025  13.281 -0.41 +0.01    +0.064 C 
DOCKED: ATOM      4  C   UNL d   1      39.191  25.532  14.304 -0.40 +0.01    +0.064 A 
DOCKED: ATOM      5  C   UNL d   1      42.497  28.880  16.947 -0.20 +0.02    +0.066 A 
DOCKED: ATOM      6  C   UNL d   1      43.256  29.787  17.692 -0.30 -0.01    -0.021 A 
DOCKED: ATOM      7  C   UNL d   1      42.672  31.023  17.543 -0.37 -0.01    -0.025 A 
DOCKED: ATOM      8  C   UNL d   1      41.601  30.845  16.672 -0.33 +0.01    +0.066 A 
DOCKED: ATOM      9  C   UNL d   1      43.127  32.285  18.242 -0.44 +0.01    +0.051 C 
DOCKED: ATOM     10  C   UNL d   1      39.698  31.734  15.309 -0.36 +0.01    +0.066 A 
DOCKED: ATOM     11  C   UNL d   1      39.026  32.835  14.767 -0.40 -0.00    -0.021 A 
DOCKED: ATOM     12  C   UNL d   1      38.078  32.328  13.897 -0.40 +0.00    +0.000 A 
DOCKED: ATOM     13  C   UNL d   1      38.221  30.915  13.969 -0.37 +0.01    +0.070 A 
DOCKED: ATOM     14  C   UNL d   1      39.296  34.309  15.045 -0.53 +0.00    +0.052 C 
DOCKED: ATOM     15  C   UNL d   1      37.596  28.586  13.352 -0.39 +0.01    +0.066 A 
DOCKED: ATOM     16  C   UNL d   1      36.709  27.707  12.730 -0.50 -0.00    -0.021 A 
DOCKED: ATOM     17  C   UNL d   1      37.169  26.420  13.008 -0.47 +0.00    +0.000 A 
DOCKED: ATOM     18  C   UNL d   1      38.318  26.613  13.788 -0.38 +0.01    +0.070 A 
DOCKED: ATOM     19  C   UNL d   1      35.485  28.168  11.980 -0.66 +0.00    +0.052 C 
DOCKED: ATOM     20  C   UNL d   1      40.275  25.680  15.090 -0.40 +0.01    +0.066 A 
DOCKED: ATOM     21  C   UNL d   1      41.069  24.625  15.531 -0.43 -0.00    -0.025 A 
DOCKED: ATOM     22  C   UNL d   1      42.105  25.187  16.243 -0.34 -0.00    -0.021 A 
DOCKED: ATOM     23  C   UNL d   1      41.893  26.569  16.226 -0.34 +0.01    +0.066 A 
DOCKED: ATOM     24  C   UNL d   1      40.848  23.154  15.288 -0.56 +0.00    +0.051 C 
DOCKED: ATOM     25  N   UNL d   1      41.454  29.514  16.357 -0.21 -0.06    -0.248 N 
DOCKED: ATOM     26  N   UNL d   1      39.205  30.562  14.834 -0.13 -0.05    -0.248 N 
DOCKED: ATOM     27  N   UNL d   1      38.519  27.930  14.049 -0.21 -0.05    -0.248 N 
DOCKED: ATOM     28  N   UNL d   1      40.756  26.861  15.562 -0.27 -0.05    -0.248 N 
DOCKED: ATOM     29 FE   UNL d   1      39.984  28.696  15.199 -0.07 +0.00    +0.000 Fe
DOCKED: ATOM     30  O   UNL d   1      39.479  29.234  16.570 -0.74 +0.00    +0.000 OA
DOCKED: ATOM     31  O   UNL d   1      38.905  27.881  16.002 -0.86 +0.00    +0.000 OA
DOCKED: ENDROOT
DOCKED: BRANCH   6  32
DOCKED: ATOM     32  C   UNL d   1      44.405  29.486  18.621 -0.28 +0.02    +0.052 C 
DOCKED: BRANCH  32  33
DOCKED: ATOM     33  C   UNL d   1      44.070  28.407  19.646 -0.19 +0.08    +0.115 C 
DOCKED: BRANCH  33  34
DOCKED: ATOM     34  C   UNL d   1      45.304  27.818  20.285 -0.16 +0.14    +0.139 C 
DOCKED: ATOM     35  O   UNL d   1      45.787  28.354  21.269 -0.27 -1.23    -0.650 OA
DOCKED: BRANCH  34  36
DOCKED: ATOM     36  O   UNL d   1      45.906  26.724  19.775 +0.06 -0.54    -0.776 OA
DOCKED: ATOM     37  H   UNL d   1      45.447  25.880  19.694 +0.05 +0.10    +0.167 HD
DOCKED: ENDBRANCH  34  36
DOCKED: ENDBRANCH  33  34
DOCKED: ENDBRANCH  32  33
DOCKED: ENDBRANCH   6  32
DOCKED: BRANCH  22  38
DOCKED: ATOM     38  C   UNL d   1      43.196  24.428  16.952 -0.32 +0.01    +0.052 C 
DOCKED: BRANCH  38  39
DOCKED: ATOM     39  C   UNL d   1      42.728  23.842  18.282 -0.37 +0.03    +0.115 C 
DOCKED: BRANCH  39  40
DOCKED: ATOM     40  C   UNL d   1      43.855  23.690  19.274 -0.26 +0.05    +0.139 C 
DOCKED: ATOM     41  O   UNL d   1      44.731  22.864  19.073 -0.13 -0.27    -0.650 OA
DOCKED: BRANCH  40  42
DOCKED: ATOM     42  O   UNL d   1      43.942  24.487  20.356 +0.03 -0.40    -0.776 OA
DOCKED: ATOM     43  H   UNL d   1      44.275  25.390  20.293 +0.07 +0.11    +0.167 HD
DOCKED: ENDBRANCH  40  42
DOCKED: ENDBRANCH  39  40
DOCKED: ENDBRANCH  38  39
DOCKED: ENDBRANCH  22  38
DOCKED: BRANCH  12  44
DOCKED: ATOM     44  C   UNL d   1      37.151  33.227  13.106 -0.48 +0.00    +0.004 C 
DOCKED: ATOM     45  C   UNL d   1      35.999  32.903  12.521 -0.60 +0.00    +0.012 C 
DOCKED: ENDBRANCH  12  44
DOCKED: BRANCH  17  46
DOCKED: ATOM     46  C   UNL d   1      36.600  25.071  12.660 -0.67 +0.00    +0.004 C 
DOCKED: ATOM     47  C   UNL d   1      35.884  24.248  13.438 -0.73 +0.00    +0.012 C 
DOCKED: ENDBRANCH  17  46
DOCKED: TORSDOF 10
DOCKED: TER
DOCKED: ENDMDL
________________________________________________________________________________


	BEGINNING GENETIC ALGORITHM DOCKING 60 of 100
Run: 60 Seed: 1998151547 239416638 [ Run 60 of 100 GA/GALS ]
Beginning LAMARCKIAN GENETIC ALGORITHM (LGA), with a maximum of 25000000 energy evaluations.

Final-Value: -19.925


	FINAL GENETIC ALGORITHM DOCKED STATE
	_______________________________________________


Detailed state:  trans 41.193 28.357 15.765 quatxyzw -0.319387 0.360135 0.873737 -0.069852 center 8.287 34.468 -0.670 ntor 10 40.0267 153.7476 -5.0484 -84.5412 -159.1635 -36.0806 -6.8524 106.4666 -158.0633 -174.3408
State:	 41.193  28.357  15.765  -0.320  0.361  0.876 -171.989     40.03  153.75   -5.05  -84.54 -159.16  -36.08   -6.85  106.47 -158.06 -174.34

DOCKED: MODEL       60
DOCKED: USER    Run = 60
DOCKED: USER    DPF = D:/Protein_go_brrr/autodock/final/6BB5/heme_O2/dock.dpf
DOCKED: USER  
DOCKED: USER    Estimated Free Energy of Binding    =  -15.22 kcal/mol  [=(1)+(2)+(3)-(4)]
DOCKED: USER    Estimated Inhibition Constant, Ki   =    6.99 pM (picomolar)  [Temperature = 298.15 K]
DOCKED: USER    
DOCKED: USER    (1) Final Intermolecular Energy     =  -18.20 kcal/mol
DOCKED: USER        vdW + Hbond + desolv Energy     =  -16.28 kcal/mol
DOCKED: USER        Electrostatic Energy            =   -1.92 kcal/mol
DOCKED: USER    (2) Final Total Internal Energy     =   -1.72 kcal/mol
DOCKED: USER    (3) Torsional Free Energy           =   +2.98 kcal/mol
DOCKED: USER    (4) Unbound System's Energy  [=(2)] =   -1.72 kcal/mol
DOCKED: USER    
DOCKED: USER    
DOCKED: USER    NEWDPF move heme_O2_opt.pdbqt
DOCKED: USER    NEWDPF about 8.287000 34.468000 -0.670000
DOCKED: USER    NEWDPF tran0 41.192672 28.356532 15.765296
DOCKED: USER    NEWDPF quaternion0 -0.319387 0.360135 0.873737 -0.069852
DOCKED: USER    NEWDPF axisangle0 -0.320169 0.361016 0.875876 -171.989044
DOCKED: USER    NEWDPF quat0 -0.320169 0.361016 0.875876 -171.989044
DOCKED: USER    NEWDPF dihe0 40.03 153.75 -5.05 -84.54 -159.16 -36.08 -6.85 106.47 -158.06 -174.34 
DOCKED: USER  keepresnum = 1 
DOCKED: USER  
DOCKED: REMARK  10 active torsions:
DOCKED: REMARK  status: ('A' for Active; 'I' for Inactive)
DOCKED: REMARK    1  A    between atoms: C_6  and  C_10 
DOCKED: REMARK    2  A    between atoms: C_10  and  C_11 
DOCKED: REMARK    3  A    between atoms: C_11  and  C_12 
DOCKED: REMARK    4  A    between atoms: C_12  and  O_14 
DOCKED: REMARK    5  A    between atoms: C_17  and  C_20 
DOCKED: REMARK    6  A    between atoms: C_24  and  C_27 
DOCKED: REMARK    7  A    between atoms: C_31  and  C_34 
DOCKED: REMARK    8  A    between atoms: C_34  and  C_35 
DOCKED: REMARK    9  A    between atoms: C_35  and  C_36 
DOCKED: REMARK   10  A    between atoms: C_36  and  O_38 
DOCKED: USER                              x       y       z     vdW  Elec       q    Type
DOCKED: USER                           _______ _______ _______ _____ _____    ______ ____
DOCKED: ROOT
DOCKED: ATOM      1  C   UNL d   1      42.857  27.579  16.826 -0.26 +0.02    +0.064 A 
DOCKED: ATOM      2  C   UNL d   1      41.011  31.944  16.506 -0.41 +0.01    +0.064 A 
DOCKED: ATOM      3  C   UNL d   1      37.620  30.387  13.477 -0.41 +0.01    +0.064 C 
DOCKED: ATOM      4  C   UNL d   1      39.219  25.802  14.173 -0.42 +0.01    +0.064 A 
DOCKED: ATOM      5  C   UNL d   1      42.631  28.893  16.987 -0.19 +0.02    +0.066 A 
DOCKED: ATOM      6  C   UNL d   1      43.419  29.732  17.781 -0.29 -0.01    -0.021 A 
DOCKED: ATOM      7  C   UNL d   1      42.859  30.987  17.724 -0.36 -0.01    -0.025 A 
DOCKED: ATOM      8  C   UNL d   1      41.774  30.891  16.858 -0.36 +0.01    +0.066 A 
DOCKED: ATOM      9  C   UNL d   1      43.351  32.190  18.499 -0.42 +0.01    +0.051 C 
DOCKED: ATOM     10  C   UNL d   1      39.874  31.909  15.585 -0.37 +0.01    +0.066 A 
DOCKED: ATOM     11  C   UNL d   1      39.220  33.058  15.127 -0.42 -0.00    -0.021 A 
DOCKED: ATOM     12  C   UNL d   1      38.250  32.631  14.238 -0.40 +0.00    +0.000 A 
DOCKED: ATOM     13  C   UNL d   1      38.362  31.214  14.213 -0.36 +0.01    +0.070 A 
DOCKED: ATOM     14  C   UNL d   1      39.525  34.504  15.500 -0.54 +0.00    +0.052 C 
DOCKED: ATOM     15  C   UNL d   1      37.679  28.946  13.450 -0.38 +0.01    +0.066 A 
DOCKED: ATOM     16  C   UNL d   1      36.765  28.130  12.783 -0.50 -0.00    -0.021 A 
DOCKED: ATOM     17  C   UNL d   1      37.200  26.817  12.968 -0.47 +0.00    +0.000 A 
DOCKED: ATOM     18  C   UNL d   1      38.363  26.933  13.743 -0.37 +0.01    +0.070 A 
DOCKED: ATOM     19  C   UNL d   1      35.542  28.665  12.083 -0.65 +0.00    +0.052 C 
DOCKED: ATOM     20  C   UNL d   1      40.316  25.873  14.951 -0.41 +0.01    +0.066 A 
DOCKED: ATOM     21  C   UNL d   1      41.092  24.774  15.309 -0.42 -0.00    -0.025 A 
DOCKED: ATOM     22  C   UNL d   1      42.148  25.265  16.042 -0.30 -0.00    -0.021 A 
DOCKED: ATOM     23  C   UNL d   1      41.967  26.649  16.121 -0.34 +0.01    +0.066 A 
DOCKED: ATOM     24  C   UNL d   1      40.836  23.328  14.971 -0.56 +0.01    +0.051 C 
DOCKED: ATOM     25  N   UNL d   1      41.594  29.587  16.456 -0.21 -0.06    -0.248 N 
DOCKED: ATOM     26  N   UNL d   1      39.350  30.783  15.039 -0.16 -0.05    -0.248 N 
DOCKED: ATOM     27  N   UNL d   1      38.596  28.225  14.088 -0.20 -0.05    -0.248 N 
DOCKED: ATOM     28  N   UNL d   1      40.828  27.009  15.495 -0.26 -0.05    -0.248 N 
DOCKED: ATOM     29 FE   UNL d   1      40.092  28.881  15.267 -0.09 +0.00    +0.000 Fe
DOCKED: ATOM     30  O   UNL d   1      39.616  29.336  16.677 -0.68 +0.00    +0.000 OA
DOCKED: ATOM     31  O   UNL d   1      39.006  28.036  16.028 -0.91 +0.00    +0.000 OA
DOCKED: ENDROOT
DOCKED: BRANCH   6  32
DOCKED: ATOM     32  C   UNL d   1      44.572  29.344  18.671 -0.27 +0.02    +0.052 C 
DOCKED: BRANCH  32  33
DOCKED: ATOM     33  C   UNL d   1      44.124  28.647  19.951 -0.19 +0.09    +0.115 C 
DOCKED: BRANCH  33  34
DOCKED: ATOM     34  C   UNL d   1      45.282  28.071  20.728 -0.05 +0.19    +0.139 C 
DOCKED: ATOM     35  O   UNL d   1      46.253  28.769  20.969 -0.32 -0.83    -0.650 OA
DOCKED: BRANCH  34  36
DOCKED: ATOM     36  O   UNL d   1      45.282  26.786  21.140 -0.08 -1.16    -0.776 OA
DOCKED: ATOM     37  H   UNL d   1      44.953  26.071  20.584 +0.05 +0.15    +0.167 HD
DOCKED: ENDBRANCH  34  36
DOCKED: ENDBRANCH  33  34
DOCKED: ENDBRANCH  32  33
DOCKED: ENDBRANCH   6  32
DOCKED: BRANCH  22  38
DOCKED: ATOM     38  C   UNL d   1      43.232  24.438  16.684 -0.29 +0.01    +0.052 C 
DOCKED: BRANCH  38  39
DOCKED: ATOM     39  C   UNL d   1      42.731  23.665  17.902 -0.37 +0.03    +0.115 C 
DOCKED: BRANCH  39  40
DOCKED: ATOM     40  C   UNL d   1      42.530  24.553  19.105 -0.38 +0.04    +0.139 C 
DOCKED: ATOM     41  O   UNL d   1      41.399  24.813  19.484 -0.00 -0.13    -0.650 OA
DOCKED: BRANCH  40  42
DOCKED: ATOM     42  O   UNL d   1      43.580  25.027  19.803 +0.05 -0.36    -0.776 OA
DOCKED: ATOM     43  H   UNL d   1      43.511  25.827  20.337 +0.07 +0.11    +0.167 HD
DOCKED: ENDBRANCH  40  42
DOCKED: ENDBRANCH  39  40
DOCKED: ENDBRANCH  38  39
DOCKED: ENDBRANCH  22  38
DOCKED: BRANCH  12  44
DOCKED: ATOM     44  C   UNL d   1      37.333  33.601  13.523 -0.49 +0.00    +0.004 C 
DOCKED: ATOM     45  C   UNL d   1      36.485  33.343  12.527 -0.57 +0.00    +0.012 C 
DOCKED: ENDBRANCH  12  44
DOCKED: BRANCH  17  46
DOCKED: ATOM     46  C   UNL d   1      36.598  25.506  12.538 -0.64 +0.00    +0.004 C 
DOCKED: ATOM     47  C   UNL d   1      35.747  24.724  13.215 -0.71 +0.00    +0.012 C 
DOCKED: ENDBRANCH  17  46
DOCKED: TORSDOF 10
DOCKED: TER
DOCKED: ENDMDL
________________________________________________________________________________


	BEGINNING GENETIC ALGORITHM DOCKING 61 of 100
Run: 61 Seed: 1237921156 367500525 [ Run 61 of 100 GA/GALS ]
Beginning LAMARCKIAN GENETIC ALGORITHM (LGA), with a maximum of 25000000 energy evaluations.

Final-Value: -17.818


	FINAL GENETIC ALGORITHM DOCKED STATE
	_______________________________________________


Detailed state:  trans 8.275 34.354 -0.551 quatxyzw 0.013297 -0.024649 -0.011866 0.999537 center 8.287 34.468 -0.670 ntor 10 -118.4942 100.2625 -119.0722 -60.1844 115.0077 -179.9310 34.8167 -57.3436 1.6369 52.5825
State:	  8.275  34.354  -0.551   0.437 -0.810 -0.390  3.486   -118.49  100.26 -119.07  -60.18  115.01 -179.93   34.82  -57.34    1.64   52.58

DOCKED: MODEL       61
DOCKED: USER    Run = 61
DOCKED: USER    DPF = D:/Protein_go_brrr/autodock/final/6BB5/heme_O2/dock.dpf
DOCKED: USER  
DOCKED: USER    Estimated Free Energy of Binding    =  -12.98 kcal/mol  [=(1)+(2)+(3)-(4)]
DOCKED: USER    Estimated Inhibition Constant, Ki   =  306.36 pM (picomolar)  [Temperature = 298.15 K]
DOCKED: USER    
DOCKED: USER    (1) Final Intermolecular Energy     =  -15.96 kcal/mol
DOCKED: USER        vdW + Hbond + desolv Energy     =  -15.35 kcal/mol
DOCKED: USER        Electrostatic Energy            =   -0.61 kcal/mol
DOCKED: USER    (2) Final Total Internal Energy     =   -1.86 kcal/mol
DOCKED: USER    (3) Torsional Free Energy           =   +2.98 kcal/mol
DOCKED: USER    (4) Unbound System's Energy  [=(2)] =   -1.86 kcal/mol
DOCKED: USER    
DOCKED: USER    
DOCKED: USER    NEWDPF move heme_O2_opt.pdbqt
DOCKED: USER    NEWDPF about 8.287000 34.468000 -0.670000
DOCKED: USER    NEWDPF tran0 8.274979 34.354046 -0.551393
DOCKED: USER    NEWDPF quaternion0 0.013297 -0.024649 -0.011866 0.999537
DOCKED: USER    NEWDPF axisangle0 0.437146 -0.810375 -0.390122 3.486059
DOCKED: USER    NEWDPF quat0 0.437146 -0.810375 -0.390122 3.486059
DOCKED: USER    NEWDPF dihe0 -118.49 100.26 -119.07 -60.18 115.01 -179.93 34.82 -57.34 1.64 52.58 
DOCKED: USER  keepresnum = 1 
DOCKED: USER  
DOCKED: REMARK  10 active torsions:
DOCKED: REMARK  status: ('A' for Active; 'I' for Inactive)
DOCKED: REMARK    1  A    between atoms: C_6  and  C_10 
DOCKED: REMARK    2  A    between atoms: C_10  and  C_11 
DOCKED: REMARK    3  A    between atoms: C_11  and  C_12 
DOCKED: REMARK    4  A    between atoms: C_12  and  O_14 
DOCKED: REMARK    5  A    between atoms: C_17  and  C_20 
DOCKED: REMARK    6  A    between atoms: C_24  and  C_27 
DOCKED: REMARK    7  A    between atoms: C_31  and  C_34 
DOCKED: REMARK    8  A    between atoms: C_34  and  C_35 
DOCKED: REMARK    9  A    between atoms: C_35  and  C_36 
DOCKED: REMARK   10  A    between atoms: C_36  and  O_38 
DOCKED: USER                              x       y       z     vdW  Elec       q    Type
DOCKED: USER                           _______ _______ _______ _____ _____    ______ ____
DOCKED: ROOT
DOCKED: ATOM      1  C   UNL d   1       6.354  34.891  -1.273 -0.17 +0.01    +0.064 A 
DOCKED: ATOM      2  C   UNL d   1       7.775  32.293   2.441 -0.41 +0.00    +0.064 A 
DOCKED: ATOM      3  C   UNL d   1      12.385  32.936   1.244 -0.44 +0.00    +0.064 C 
DOCKED: ATOM      4  C   UNL d   1      10.951  36.006  -2.304 -0.42 +0.00    +0.064 A 
DOCKED: ATOM      5  C   UNL d   1       6.364  34.133  -0.164 -0.30 +0.01    +0.066 A 
DOCKED: ATOM      6  C   UNL d   1       5.213  33.696   0.496 -0.31 -0.00    -0.021 A 
DOCKED: ATOM      7  C   UNL d   1       5.623  32.980   1.596 -0.40 -0.00    -0.025 A 
DOCKED: ATOM      8  C   UNL d   1       7.015  32.959   1.551 -0.37 +0.01    +0.066 A 
DOCKED: ATOM      9  C   UNL d   1       4.699  32.385   2.636 -0.46 +0.00    +0.051 C 
DOCKED: ATOM     10  C   UNL d   1       9.237  32.216   2.431 -0.39 +0.00    +0.066 A 
DOCKED: ATOM     11  C   UNL d   1       9.968  31.378   3.281 -0.46 -0.00    -0.021 A 
DOCKED: ATOM     12  C   UNL d   1      11.299  31.536   2.939 -0.42 +0.00    +0.000 A 
DOCKED: ATOM     13  C   UNL d   1      11.304  32.491   1.885 -0.37 +0.00    +0.070 A 
DOCKED: ATOM     14  C   UNL d   1       9.419  30.446   4.354 -0.62 +0.00    +0.052 C 
DOCKED: ATOM     15  C   UNL d   1      12.436  33.928   0.197 -0.38 +0.00    +0.066 A 
DOCKED: ATOM     16  C   UNL d   1      13.612  34.471  -0.320 -0.45 -0.00    -0.021 A 
DOCKED: ATOM     17  C   UNL d   1      13.228  35.350  -1.333 -0.46 +0.00    +0.000 A 
DOCKED: ATOM     18  C   UNL d   1      11.828  35.274  -1.360 -0.38 +0.01    +0.070 A 
DOCKED: ATOM     19  C   UNL d   1      14.978  34.149   0.229 -0.60 +0.00    +0.052 C 
DOCKED: ATOM     20  C   UNL d   1       9.604  35.989  -2.329 -0.39 +0.01    +0.066 A 
DOCKED: ATOM     21  C   UNL d   1       8.832  36.686  -3.254 -0.38 -0.00    -0.025 A 
DOCKED: ATOM     22  C   UNL d   1       7.521  36.358  -2.993 -0.32 -0.00    -0.021 A 
DOCKED: ATOM     23  C   UNL d   1       7.540  35.485  -1.901 -0.28 +0.01    +0.066 A 
DOCKED: ATOM     24  C   UNL d   1       9.321  37.619  -4.331 -0.45 -0.00    +0.051 C 
DOCKED: ATOM     25  N   UNL d   1       7.472  33.724   0.503 -0.16 -0.03    -0.248 N 
DOCKED: ATOM     26  N   UNL d   1      10.046  32.903   1.586 -0.25 -0.01    -0.248 N 
DOCKED: ATOM     27  N   UNL d   1      11.362  34.464  -0.375 -0.09 -0.03    -0.248 N 
DOCKED: ATOM     28  N   UNL d   1       8.805  35.299  -1.472 -0.10 -0.06    -0.248 N 
DOCKED: ATOM     29 FE   UNL d   1       9.424  34.110   0.045 -0.08 +0.00    +0.000 Fe
DOCKED: ATOM     30  O   UNL d   1       8.939  34.793   1.357 -0.56 +0.00    +0.000 OA
DOCKED: ATOM     31  O   UNL d   1       9.889  35.576   0.374 -1.01 +0.00    +0.000 OA
DOCKED: ENDROOT
DOCKED: BRANCH   6  32
DOCKED: ATOM     32  C   UNL d   1       3.781  34.050   0.187 -0.27 +0.01    +0.052 C 
DOCKED: BRANCH  32  33
DOCKED: ATOM     33  C   UNL d   1       3.167  33.155  -0.885 -0.16 +0.01    +0.115 C 
DOCKED: BRANCH  33  34
DOCKED: ATOM     34  C   UNL d   1       2.156  33.884  -1.734 -0.10 +0.02    +0.139 C 
DOCKED: ATOM     35  O   UNL d   1       1.437  34.729  -1.225 +0.02 -0.18    -0.650 OA
DOCKED: BRANCH  34  36
DOCKED: ATOM     36  O   UNL d   1       2.008  33.605  -3.046 +0.04 -0.09    -0.776 OA
DOCKED: ATOM     37  H   UNL d   1       2.169  34.265  -3.730 +0.03 +0.02    +0.167 HD
DOCKED: ENDBRANCH  34  36
DOCKED: ENDBRANCH  33  34
DOCKED: ENDBRANCH  32  33
DOCKED: ENDBRANCH   6  32
DOCKED: BRANCH  22  38
DOCKED: ATOM     38  C   UNL d   1       6.317  36.909  -3.714 -0.24 +0.00    +0.052 C 
DOCKED: BRANCH  38  39
DOCKED: ATOM     39  C   UNL d   1       5.120  35.962  -3.655 -0.18 +0.01    +0.115 C 
DOCKED: BRANCH  39  40
DOCKED: ATOM     40  C   UNL d   1       3.912  36.600  -3.017 -0.11 +0.03    +0.139 C 
DOCKED: ATOM     41  O   UNL d   1       4.057  37.388  -2.097 +0.02 -0.24    -0.650 OA
DOCKED: BRANCH  40  42
DOCKED: ATOM     42  O   UNL d   1       2.670  36.355  -3.480 +0.05 -0.18    -0.776 OA
DOCKED: ATOM     43  H   UNL d   1       2.071  35.754  -3.023 +0.03 +0.04    +0.167 HD
DOCKED: ENDBRANCH  40  42
DOCKED: ENDBRANCH  39  40
DOCKED: ENDBRANCH  38  39
DOCKED: ENDBRANCH  22  38
DOCKED: BRANCH  12  44
DOCKED: ATOM     44  C   UNL d   1      12.405  30.776   3.641 -0.62 +0.00    +0.004 C 
DOCKED: ATOM     45  C   UNL d   1      12.536  29.457   3.773 -0.70 +0.00    +0.012 C 
DOCKED: ENDBRANCH  12  44
DOCKED: BRANCH  17  46
DOCKED: ATOM     46  C   UNL d   1      14.041  36.267  -2.207 -0.63 +0.00    +0.004 C 
DOCKED: ATOM     47  C   UNL d   1      14.738  37.353  -1.847 -0.65 +0.00    +0.012 C 
DOCKED: ENDBRANCH  17  46
DOCKED: TORSDOF 10
DOCKED: TER
DOCKED: ENDMDL
________________________________________________________________________________


	BEGINNING GENETIC ALGORITHM DOCKING 62 of 100
Run: 62 Seed: 181198411 136173030 [ Run 62 of 100 GA/GALS ]
Beginning LAMARCKIAN GENETIC ALGORITHM (LGA), with a maximum of 25000000 energy evaluations.

Final-Value: -19.915


	FINAL GENETIC ALGORITHM DOCKED STATE
	_______________________________________________


Detailed state:  trans 41.149 28.389 15.784 quatxyzw 0.327026 -0.362764 -0.869952 0.068115 center 8.287 34.468 -0.670 ntor 10 -22.6835 18.2074 1.0502 -98.1660 -149.4514 -179.2602 -6.8847 -58.8525 -138.7899 119.2178
State:	 41.149  28.389  15.784   0.328 -0.364 -0.872 172.189    -22.68   18.21    1.05  -98.17 -149.45 -179.26   -6.88  -58.85 -138.79  119.22

DOCKED: MODEL       62
DOCKED: USER    Run = 62
DOCKED: USER    DPF = D:/Protein_go_brrr/autodock/final/6BB5/heme_O2/dock.dpf
DOCKED: USER  
DOCKED: USER    Estimated Free Energy of Binding    =  -15.29 kcal/mol  [=(1)+(2)+(3)-(4)]
DOCKED: USER    Estimated Inhibition Constant, Ki   =    6.25 pM (picomolar)  [Temperature = 298.15 K]
DOCKED: USER    
DOCKED: USER    (1) Final Intermolecular Energy     =  -18.27 kcal/mol
DOCKED: USER        vdW + Hbond + desolv Energy     =  -16.48 kcal/mol
DOCKED: USER        Electrostatic Energy            =   -1.79 kcal/mol
DOCKED: USER    (2) Final Total Internal Energy     =   -1.65 kcal/mol
DOCKED: USER    (3) Torsional Free Energy           =   +2.98 kcal/mol
DOCKED: USER    (4) Unbound System's Energy  [=(2)] =   -1.65 kcal/mol
DOCKED: USER    
DOCKED: USER    
DOCKED: USER    NEWDPF move heme_O2_opt.pdbqt
DOCKED: USER    NEWDPF about 8.287000 34.468000 -0.670000
DOCKED: USER    NEWDPF tran0 41.149420 28.389428 15.784200
DOCKED: USER    NEWDPF quaternion0 0.327026 -0.362764 -0.869952 0.068115
DOCKED: USER    NEWDPF axisangle0 0.327788 -0.363609 -0.871977 172.188505
DOCKED: USER    NEWDPF quat0 0.327788 -0.363609 -0.871977 172.188505
DOCKED: USER    NEWDPF dihe0 -22.68 18.21 1.05 -98.17 -149.45 -179.26 -6.88 -58.85 -138.79 119.22 
DOCKED: USER  keepresnum = 1 
DOCKED: USER  
DOCKED: REMARK  10 active torsions:
DOCKED: REMARK  status: ('A' for Active; 'I' for Inactive)
DOCKED: REMARK    1  A    between atoms: C_6  and  C_10 
DOCKED: REMARK    2  A    between atoms: C_10  and  C_11 
DOCKED: REMARK    3  A    between atoms: C_11  and  C_12 
DOCKED: REMARK    4  A    between atoms: C_12  and  O_14 
DOCKED: REMARK    5  A    between atoms: C_17  and  C_20 
DOCKED: REMARK    6  A    between atoms: C_24  and  C_27 
DOCKED: REMARK    7  A    between atoms: C_31  and  C_34 
DOCKED: REMARK    8  A    between atoms: C_34  and  C_35 
DOCKED: REMARK    9  A    between atoms: C_35  and  C_36 
DOCKED: REMARK   10  A    between atoms: C_36  and  O_38 
DOCKED: USER                              x       y       z     vdW  Elec       q    Type
DOCKED: USER                           _______ _______ _______ _____ _____    ______ ____
DOCKED: ROOT
DOCKED: ATOM      1  C   UNL d   1      42.804  27.633  16.875 -0.24 +0.02    +0.064 A 
DOCKED: ATOM      2  C   UNL d   1      40.935  31.982  16.488 -0.41 +0.01    +0.064 A 
DOCKED: ATOM      3  C   UNL d   1      37.597  30.375  13.426 -0.41 +0.01    +0.064 C 
DOCKED: ATOM      4  C   UNL d   1      39.214  25.807  14.188 -0.41 +0.01    +0.064 A 
DOCKED: ATOM      5  C   UNL d   1      42.567  28.947  17.021 -0.16 +0.02    +0.066 A 
DOCKED: ATOM      6  C   UNL d   1      43.338  29.798  17.818 -0.29 -0.01    -0.021 A 
DOCKED: ATOM      7  C   UNL d   1      42.772  31.049  17.741 -0.37 -0.01    -0.025 A 
DOCKED: ATOM      8  C   UNL d   1      41.699  30.937  16.860 -0.36 +0.01    +0.066 A 
DOCKED: ATOM      9  C   UNL d   1      43.245  32.262  18.511 -0.43 +0.01    +0.051 C 
DOCKED: ATOM     10  C   UNL d   1      39.811  31.932  15.551 -0.37 +0.01    +0.066 A 
DOCKED: ATOM     11  C   UNL d   1      39.156  33.072  15.073 -0.42 -0.00    -0.021 A 
DOCKED: ATOM     12  C   UNL d   1      38.202  32.631  14.175 -0.40 +0.00    +0.000 A 
DOCKED: ATOM     13  C   UNL d   1      38.324  31.214  14.165 -0.36 +0.01    +0.070 A 
DOCKED: ATOM     14  C   UNL d   1      39.447  34.524  15.437 -0.55 +0.00    +0.052 C 
DOCKED: ATOM     15  C   UNL d   1      37.665  28.934  13.414 -0.38 +0.01    +0.066 A 
DOCKED: ATOM     16  C   UNL d   1      36.766  28.106  12.742 -0.50 -0.00    -0.021 A 
DOCKED: ATOM     17  C   UNL d   1      37.207  26.798  12.946 -0.47 +0.00    +0.000 A 
DOCKED: ATOM     18  C   UNL d   1      38.358  26.929  13.735 -0.37 +0.01    +0.070 A 
DOCKED: ATOM     19  C   UNL d   1      35.549  28.627  12.020 -0.67 +0.00    +0.052 C 
DOCKED: ATOM     20  C   UNL d   1      40.299  25.893  14.982 -0.40 +0.01    +0.066 A 
DOCKED: ATOM     21  C   UNL d   1      41.077  24.802  15.361 -0.42 -0.00    -0.025 A 
DOCKED: ATOM     22  C   UNL d   1      42.120  25.307  16.104 -0.31 -0.00    -0.021 A 
DOCKED: ATOM     23  C   UNL d   1      41.929  26.691  16.167 -0.34 +0.01    +0.066 A 
DOCKED: ATOM     24  C   UNL d   1      40.835  23.352  15.033 -0.56 +0.01    +0.051 C 
DOCKED: ATOM     25  N   UNL d   1      41.534  29.629  16.469 -0.21 -0.06    -0.248 N 
DOCKED: ATOM     26  N   UNL d   1      39.302  30.797  15.009 -0.19 -0.05    -0.248 N 
DOCKED: ATOM     27  N   UNL d   1      38.578  28.225  14.072 -0.20 -0.05    -0.248 N 
DOCKED: ATOM     28  N   UNL d   1      40.797  27.037  15.521 -0.26 -0.05    -0.248 N 
DOCKED: ATOM     29 FE   UNL d   1      40.053  28.902  15.265 -0.09 +0.00    +0.000 Fe
DOCKED: ATOM     30  O   UNL d   1      39.554  29.367  16.665 -0.68 +0.00    +0.000 OA
DOCKED: ATOM     31  O   UNL d   1      38.961  28.058  16.019 -0.90 +0.00    +0.000 OA
DOCKED: ENDROOT
DOCKED: BRANCH   6  32
DOCKED: ATOM     32  C   UNL d   1      44.481  29.426  18.727 -0.27 +0.02    +0.052 C 
DOCKED: BRANCH  32  33
DOCKED: ATOM     33  C   UNL d   1      44.103  28.356  19.747 -0.21 +0.09    +0.115 C 
DOCKED: BRANCH  33  34
DOCKED: ATOM     34  C   UNL d   1      45.299  27.834  20.503 -0.12 +0.17    +0.139 C 
DOCKED: ATOM     35  O   UNL d   1      45.978  28.604  21.164 -0.33 -1.06    -0.650 OA
DOCKED: BRANCH  34  36
DOCKED: ATOM     36  O   UNL d   1      45.657  26.535  20.444 +0.01 -0.72    -0.776 OA
DOCKED: ATOM     37  H   UNL d   1      45.030  25.843  20.203 +0.06 +0.12    +0.167 HD
DOCKED: ENDBRANCH  34  36
DOCKED: ENDBRANCH  33  34
DOCKED: ENDBRANCH  32  33
DOCKED: ENDBRANCH   6  32
DOCKED: BRANCH  22  38
DOCKED: ATOM     38  C   UNL d   1      43.200  24.492  16.769 -0.30 +0.01    +0.052 C 
DOCKED: BRANCH  38  39
DOCKED: ATOM     39  C   UNL d   1      43.540  25.006  18.166 -0.25 +0.04    +0.115 C 
DOCKED: BRANCH  39  40
DOCKED: ATOM     40  C   UNL d   1      43.305  23.968  19.235 -0.31 +0.05    +0.139 C 
DOCKED: ATOM     41  O   UNL d   1      42.379  23.182  19.123 -0.11 -0.16    -0.650 OA
DOCKED: BRANCH  40  42
DOCKED: ATOM     42  O   UNL d   1      44.133  23.858  20.292 -0.15 -0.37    -0.776 OA
DOCKED: ATOM     43  H   UNL d   1      44.702  24.588  20.565 +0.06 +0.10    +0.167 HD
DOCKED: ENDBRANCH  40  42
DOCKED: ENDBRANCH  39  40
DOCKED: ENDBRANCH  38  39
DOCKED: ENDBRANCH  22  38
DOCKED: BRANCH  12  44
DOCKED: ATOM     44  C   UNL d   1      37.289  33.587  13.437 -0.48 +0.00    +0.004 C 
DOCKED: ATOM     45  C   UNL d   1      36.378  33.298  12.509 -0.58 +0.00    +0.012 C 
DOCKED: ENDBRANCH  12  44
DOCKED: BRANCH  17  46
DOCKED: ATOM     46  C   UNL d   1      36.618  25.480  12.520 -0.64 +0.00    +0.004 C 
DOCKED: ATOM     47  C   UNL d   1      35.969  24.581  13.271 -0.71 +0.00    +0.012 C 
DOCKED: ENDBRANCH  17  46
DOCKED: TORSDOF 10
DOCKED: TER
DOCKED: ENDMDL
________________________________________________________________________________


	BEGINNING GENETIC ALGORITHM DOCKING 63 of 100
Run: 63 Seed: 767089667 1074310488 [ Run 63 of 100 GA/GALS ]
Beginning LAMARCKIAN GENETIC ALGORITHM (LGA), with a maximum of 25000000 energy evaluations.

Final-Value: -10.569


	FINAL GENETIC ALGORITHM DOCKED STATE
	_______________________________________________


Detailed state:  trans 33.328 15.576 24.688 quatxyzw -0.693231 0.421804 -0.507977 0.288914 center 8.287 34.468 -0.670 ntor 10 -179.2854 -69.9418 -53.0346 125.8488 121.5943 157.8167 -106.3813 60.9808 -180.0000 180.0000
State:	 33.328  15.576  24.688  -0.724  0.441 -0.531 146.414   -179.29  -69.94  -53.03  125.85  121.59  157.82 -106.38   60.98 -180.00  180.00

DOCKED: MODEL       63
DOCKED: USER    Run = 63
DOCKED: USER    DPF = D:/Protein_go_brrr/autodock/final/6BB5/heme_O2/dock.dpf
DOCKED: USER  
DOCKED: USER    Estimated Free Energy of Binding    =   -5.91 kcal/mol  [=(1)+(2)+(3)-(4)]
DOCKED: USER    Estimated Inhibition Constant, Ki   =   46.70 uM (micromolar)  [Temperature = 298.15 K]
DOCKED: USER    
DOCKED: USER    (1) Final Intermolecular Energy     =   -8.89 kcal/mol
DOCKED: USER        vdW + Hbond + desolv Energy     =   -6.07 kcal/mol
DOCKED: USER        Electrostatic Energy            =   -2.82 kcal/mol
DOCKED: USER    (2) Final Total Internal Energy     =   -1.68 kcal/mol
DOCKED: USER    (3) Torsional Free Energy           =   +2.98 kcal/mol
DOCKED: USER    (4) Unbound System's Energy  [=(2)] =   -1.68 kcal/mol
DOCKED: USER    
DOCKED: USER    
DOCKED: USER    NEWDPF move heme_O2_opt.pdbqt
DOCKED: USER    NEWDPF about 8.287000 34.468000 -0.670000
DOCKED: USER    NEWDPF tran0 33.328075 15.576102 24.688473
DOCKED: USER    NEWDPF quaternion0 -0.693231 0.421804 -0.507977 0.288914
DOCKED: USER    NEWDPF axisangle0 -0.724111 0.440593 -0.530605 146.414114
DOCKED: USER    NEWDPF quat0 -0.724111 0.440593 -0.530605 146.414114
DOCKED: USER    NEWDPF dihe0 -179.29 -69.94 -53.03 125.85 121.59 157.82 -106.38 60.98 -180.00 180.00 
DOCKED: USER  keepresnum = 1 
DOCKED: USER  
DOCKED: REMARK  10 active torsions:
DOCKED: REMARK  status: ('A' for Active; 'I' for Inactive)
DOCKED: REMARK    1  A    between atoms: C_6  and  C_10 
DOCKED: REMARK    2  A    between atoms: C_10  and  C_11 
DOCKED: REMARK    3  A    between atoms: C_11  and  C_12 
DOCKED: REMARK    4  A    between atoms: C_12  and  O_14 
DOCKED: REMARK    5  A    between atoms: C_17  and  C_20 
DOCKED: REMARK    6  A    between atoms: C_24  and  C_27 
DOCKED: REMARK    7  A    between atoms: C_31  and  C_34 
DOCKED: REMARK    8  A    between atoms: C_34  and  C_35 
DOCKED: REMARK    9  A    between atoms: C_35  and  C_36 
DOCKED: REMARK   10  A    between atoms: C_36  and  O_38 
DOCKED: USER                              x       y       z     vdW  Elec       q    Type
DOCKED: USER                           _______ _______ _______ _____ _____    ______ ____
DOCKED: ROOT
DOCKED: ATOM      1  C   UNL d   1      32.191  16.497  23.152 -0.27 +0.01    +0.064 A 
DOCKED: ATOM      2  C   UNL d   1      36.444  14.382  23.168 -0.23 -0.02    +0.064 A 
DOCKED: ATOM      3  C   UNL d   1      36.112  13.542  27.888 -0.09 -0.02    +0.064 C 
DOCKED: ATOM      4  C   UNL d   1      31.529  15.288  27.793 -0.13 -0.03    +0.064 A 
DOCKED: ATOM      5  C   UNL d   1      33.374  15.989  22.771 -0.28 +0.01    +0.066 A 
DOCKED: ATOM      6  C   UNL d   1      33.868  16.050  21.465 -0.33 -0.00    -0.021 A 
DOCKED: ATOM      7  C   UNL d   1      35.080  15.399  21.459 -0.35 +0.00    -0.025 A 
DOCKED: ATOM      8  C   UNL d   1      35.316  15.002  22.772 -0.26 -0.01    +0.066 A 
DOCKED: ATOM      9  C   UNL d   1      35.929  15.163  20.229 -0.40 -0.00    +0.051 C 
DOCKED: ATOM     10  C   UNL d   1      36.758  13.962  24.534 -0.17 -0.02    +0.066 A 
DOCKED: ATOM     11  C   UNL d   1      38.011  13.472  24.920 -0.15 +0.00    -0.021 A 
DOCKED: ATOM     12  C   UNL d   1      37.940  13.240  26.281 -0.07 -0.00    +0.000 A 
DOCKED: ATOM     13  C   UNL d   1      36.616  13.599  26.655 -0.10 -0.02    +0.070 A 
DOCKED: ATOM     14  C   UNL d   1      39.231  13.259  24.032 -0.19 -0.01    +0.052 C 
DOCKED: ATOM     15  C   UNL d   1      34.767  13.862  28.301 -0.08 -0.04    +0.066 A 
DOCKED: ATOM     16  C   UNL d   1      34.254  13.625  29.576 -0.06 +0.01    -0.021 A 
DOCKED: ATOM     17  C   UNL d   1      32.948  14.114  29.572 -0.08 -0.00    +0.000 A 
DOCKED: ATOM     18  C   UNL d   1      32.760  14.621  28.279 -0.01 -0.05    +0.070 A 
DOCKED: ATOM     19  C   UNL d   1      35.029  12.911  30.654 -0.02 -0.01    +0.052 C 
DOCKED: ATOM     20  C   UNL d   1      31.300  15.747  26.548 -0.18 -0.02    +0.066 A 
DOCKED: ATOM     21  C   UNL d   1      30.126  16.383  26.154 -0.16 +0.00    -0.025 A 
DOCKED: ATOM     22  C   UNL d   1      30.307  16.758  24.842 -0.23 -0.00    -0.021 A 
DOCKED: ATOM     23  C   UNL d   1      31.584  16.320  24.477 -0.26 -0.00    +0.066 A 
DOCKED: ATOM     24  C   UNL d   1      28.892  16.616  26.986 -0.12 +0.00    +0.051 C 
DOCKED: ATOM     25  N   UNL d   1      34.235  15.307  23.567 -0.17 +0.03    -0.248 N 
DOCKED: ATOM     26  N   UNL d   1      35.902  14.033  25.585 -0.10 +0.08    -0.248 N 
DOCKED: ATOM     27  N   UNL d   1      33.848  14.392  27.499 -0.05 +0.21    -0.248 N 
DOCKED: ATOM     28  N   UNL d   1      32.166  15.666  25.503 -0.18 +0.08    -0.248 N 
DOCKED: ATOM     29 FE   UNL d   1      34.020  14.854  25.546 -0.04 -0.00    +0.000 Fe
DOCKED: ATOM     30  O   UNL d   1      33.973  13.613  24.609 -0.09 -0.00    +0.000 OA
DOCKED: ATOM     31  O   UNL d   1      32.992  13.700  25.839 -0.09 -0.00    +0.000 OA
DOCKED: ENDROOT
DOCKED: BRANCH   6  32
DOCKED: ATOM     32  C   UNL d   1      33.169  16.576  20.238 -0.27 +0.02    +0.052 C 
DOCKED: BRANCH  32  33
DOCKED: ATOM     33  C   UNL d   1      32.497  15.476  19.422 -0.25 +0.08    +0.115 C 
DOCKED: BRANCH  33  34
DOCKED: ATOM     34  C   UNL d   1      31.275  14.916  20.107 -0.05 +0.15    +0.139 C 
DOCKED: ATOM     35  O   UNL d   1      31.214  14.916  21.326 -0.12 -0.47    -0.650 OA
DOCKED: BRANCH  34  36
DOCKED: ATOM     36  O   UNL d   1      30.253  14.388  19.402 +0.04 -1.17    -0.776 OA
DOCKED: ATOM     37  H   UNL d   1      29.462  14.041  19.830 +0.01 +0.24    +0.167 HD
DOCKED: ENDBRANCH  34  36
DOCKED: ENDBRANCH  33  34
DOCKED: ENDBRANCH  32  33
DOCKED: ENDBRANCH   6  32
DOCKED: BRANCH  22  38
DOCKED: ATOM     38  C   UNL d   1      29.282  17.442  23.974 -0.25 +0.01    +0.052 C 
DOCKED: BRANCH  38  39
DOCKED: ATOM     39  C   UNL d   1      28.226  16.473  23.447 -0.10 +0.04    +0.115 C 
DOCKED: BRANCH  39  40
DOCKED: ATOM     40  C   UNL d   1      28.192  16.421  21.940 -0.01 +0.16    +0.139 C 
DOCKED: ATOM     41  O   UNL d   1      27.996  17.444  21.303 +0.03 -1.06    -0.650 OA
DOCKED: BRANCH  40  42
DOCKED: ATOM     42  O   UNL d   1      28.426  15.272  21.278 -0.00 -1.22    -0.776 OA
DOCKED: ATOM     43  H   UNL d   1      29.295  14.853  21.285 +0.02 +0.23    +0.167 HD
DOCKED: ENDBRANCH  40  42
DOCKED: ENDBRANCH  39  40
DOCKED: ENDBRANCH  38  39
DOCKED: ENDBRANCH  22  38
DOCKED: BRANCH  12  44
DOCKED: ATOM     44  C   UNL d   1      39.120  12.708  27.068 -0.04 -0.00    +0.004 C 
DOCKED: ATOM     45  C   UNL d   1      39.718  13.262  28.122 -0.03 -0.00    +0.012 C 
DOCKED: ENDBRANCH  12  44
DOCKED: BRANCH  17  46
DOCKED: ATOM     46  C   UNL d   1      31.881  14.090  30.634 -0.05 -0.00    +0.004 C 
DOCKED: ATOM     47  C   UNL d   1      31.274  15.129  31.222 -0.07 -0.00    +0.012 C 
DOCKED: ENDBRANCH  17  46
DOCKED: TORSDOF 10
DOCKED: TER
DOCKED: ENDMDL
________________________________________________________________________________


	BEGINNING GENETIC ALGORITHM DOCKING 64 of 100
Run: 64 Seed: 639539883 1953450378 [ Run 64 of 100 GA/GALS ]
Beginning LAMARCKIAN GENETIC ALGORITHM (LGA), with a maximum of 25000000 energy evaluations.

Final-Value: -18.283


	FINAL GENETIC ALGORITHM DOCKED STATE
	_______________________________________________


Detailed state:  trans 8.304 34.490 -0.504 quatxyzw 0.003857 0.024340 -0.018374 -0.999527 center 8.287 34.468 -0.670 ntor 10 -79.3142 -85.9199 29.0626 -60.2765 -161.4183 -0.1166 47.4310 -22.2302 -65.8054 40.9651
State:	  8.304  34.490  -0.504   0.125  0.792 -0.598 -3.523    -79.31  -85.92   29.06  -60.28 -161.42   -0.12   47.43  -22.23  -65.81   40.97

DOCKED: MODEL       64
DOCKED: USER    Run = 64
DOCKED: USER    DPF = D:/Protein_go_brrr/autodock/final/6BB5/heme_O2/dock.dpf
DOCKED: USER  
DOCKED: USER    Estimated Free Energy of Binding    =  -13.46 kcal/mol  [=(1)+(2)+(3)-(4)]
DOCKED: USER    Estimated Inhibition Constant, Ki   =  136.18 pM (picomolar)  [Temperature = 298.15 K]
DOCKED: USER    
DOCKED: USER    (1) Final Intermolecular Energy     =  -16.44 kcal/mol
DOCKED: USER        vdW + Hbond + desolv Energy     =  -15.36 kcal/mol
DOCKED: USER        Electrostatic Energy            =   -1.08 kcal/mol
DOCKED: USER    (2) Final Total Internal Energy     =   -1.84 kcal/mol
DOCKED: USER    (3) Torsional Free Energy           =   +2.98 kcal/mol
DOCKED: USER    (4) Unbound System's Energy  [=(2)] =   -1.84 kcal/mol
DOCKED: USER    
DOCKED: USER    
DOCKED: USER    NEWDPF move heme_O2_opt.pdbqt
DOCKED: USER    NEWDPF about 8.287000 34.468000 -0.670000
DOCKED: USER    NEWDPF tran0 8.304453 34.489632 -0.504007
DOCKED: USER    NEWDPF quaternion0 0.003857 0.024340 -0.018374 -0.999527
DOCKED: USER    NEWDPF axisangle0 0.125469 0.791816 -0.597734 -3.523037
DOCKED: USER    NEWDPF quat0 0.125469 0.791816 -0.597734 -3.523037
DOCKED: USER    NEWDPF dihe0 -79.31 -85.92 29.06 -60.28 -161.42 -0.12 47.43 -22.23 -65.81 40.97 
DOCKED: USER  keepresnum = 1 
DOCKED: USER  
DOCKED: REMARK  10 active torsions:
DOCKED: REMARK  status: ('A' for Active; 'I' for Inactive)
DOCKED: REMARK    1  A    between atoms: C_6  and  C_10 
DOCKED: REMARK    2  A    between atoms: C_10  and  C_11 
DOCKED: REMARK    3  A    between atoms: C_11  and  C_12 
DOCKED: REMARK    4  A    between atoms: C_12  and  O_14 
DOCKED: REMARK    5  A    between atoms: C_17  and  C_20 
DOCKED: REMARK    6  A    between atoms: C_24  and  C_27 
DOCKED: REMARK    7  A    between atoms: C_31  and  C_34 
DOCKED: REMARK    8  A    between atoms: C_34  and  C_35 
DOCKED: REMARK    9  A    between atoms: C_35  and  C_36 
DOCKED: REMARK   10  A    between atoms: C_36  and  O_38 
DOCKED: USER                              x       y       z     vdW  Elec       q    Type
DOCKED: USER                           _______ _______ _______ _____ _____    ______ ____
DOCKED: ROOT
DOCKED: ATOM      1  C   UNL d   1       6.421  35.166  -1.208 -0.03 +0.01    +0.064 A 
DOCKED: ATOM      2  C   UNL d   1       7.673  32.367   2.419 -0.41 +0.00    +0.064 A 
DOCKED: ATOM      3  C   UNL d   1      12.316  32.764   1.244 -0.46 +0.00    +0.064 C 
DOCKED: ATOM      4  C   UNL d   1      11.080  36.031  -2.201 -0.41 +0.00    +0.064 A 
DOCKED: ATOM      5  C   UNL d   1       6.383  34.374  -0.124 -0.24 +0.01    +0.066 A 
DOCKED: ATOM      6  C   UNL d   1       5.205  33.987   0.521 -0.33 -0.00    -0.021 A 
DOCKED: ATOM      7  C   UNL d   1       5.569  33.211   1.597 -0.40 -0.00    -0.025 A 
DOCKED: ATOM      8  C   UNL d   1       6.957  33.106   1.551 -0.38 +0.01    +0.066 A 
DOCKED: ATOM      9  C   UNL d   1       4.608  32.641   2.617 -0.46 +0.00    +0.051 C 
DOCKED: ATOM     10  C   UNL d   1       9.127  32.200   2.407 -0.39 +0.00    +0.066 A 
DOCKED: ATOM     11  C   UNL d   1       9.805  31.292   3.228 -0.46 -0.00    -0.021 A 
DOCKED: ATOM     12  C   UNL d   1      11.143  31.379   2.892 -0.44 +0.00    +0.000 A 
DOCKED: ATOM     13  C   UNL d   1      11.209  32.366   1.870 -0.38 +0.00    +0.070 A 
DOCKED: ATOM     14  C   UNL d   1       9.197  30.360   4.271 -0.63 +0.00    +0.052 C 
DOCKED: ATOM     15  C   UNL d   1      12.430  33.785   0.230 -0.38 +0.00    +0.066 A 
DOCKED: ATOM     16  C   UNL d   1      13.638  34.272  -0.269 -0.46 -0.00    -0.021 A 
DOCKED: ATOM     17  C   UNL d   1      13.310  35.205  -1.253 -0.46 +0.00    +0.000 A 
DOCKED: ATOM     18  C   UNL d   1      11.909  35.216  -1.282 -0.38 +0.01    +0.070 A 
DOCKED: ATOM     19  C   UNL d   1      14.981  33.848   0.269 -0.59 +0.00    +0.052 C 
DOCKED: ATOM     20  C   UNL d   1       9.735  36.098  -2.227 -0.40 +0.01    +0.066 A 
DOCKED: ATOM     21  C   UNL d   1       9.009  36.870  -3.129 -0.40 -0.00    -0.025 A 
DOCKED: ATOM     22  C   UNL d   1       7.679  36.615  -2.878 -0.33 -0.00    -0.021 A 
DOCKED: ATOM     23  C   UNL d   1       7.643  35.707  -1.816 -0.25 +0.01    +0.066 A 
DOCKED: ATOM     24  C   UNL d   1       9.556  37.807  -4.175 -0.49 -0.01    +0.051 C 
DOCKED: ATOM     25  N   UNL d   1       7.462  33.876   0.529 -0.20 -0.03    -0.248 N 
DOCKED: ATOM     26  N   UNL d   1       9.979  32.863   1.584 -0.25 -0.01    -0.248 N 
DOCKED: ATOM     27  N   UNL d   1      11.392  34.404  -0.324 -0.09 -0.03    -0.248 N 
DOCKED: ATOM     28  N   UNL d   1       8.893  35.430  -1.394 -0.12 -0.06    -0.248 N 
DOCKED: ATOM     29 FE   UNL d   1       9.435  34.157   0.084 -0.08 +0.00    +0.000 Fe
DOCKED: ATOM     30  O   UNL d   1       8.991  34.824   1.418 -0.52 +0.00    +0.000 OA
DOCKED: ATOM     31  O   UNL d   1       9.989  35.580   0.461 -0.92 +0.00    +0.000 OA
DOCKED: ENDROOT
DOCKED: BRANCH   6  32
DOCKED: ATOM     32  C   UNL d   1       3.799  34.438   0.224 -0.28 +0.01    +0.052 C 
DOCKED: BRANCH  32  33
DOCKED: ATOM     33  C   UNL d   1       3.657  35.060  -1.162 -0.18 +0.03    +0.115 C 
DOCKED: BRANCH  33  34
DOCKED: ATOM     34  C   UNL d   1       2.852  36.336  -1.140 -0.18 +0.07    +0.139 C 
DOCKED: ATOM     35  O   UNL d   1       3.102  37.192  -0.307 -0.12 -0.60    -0.650 OA
DOCKED: BRANCH  34  36
DOCKED: ATOM     36  O   UNL d   1       1.839  36.543  -2.006 +0.03 -0.36    -0.776 OA
DOCKED: ATOM     37  H   UNL d   1       1.994  36.815  -2.918 +0.03 +0.06    +0.167 HD
DOCKED: ENDBRANCH  34  36
DOCKED: ENDBRANCH  33  34
DOCKED: ENDBRANCH  32  33
DOCKED: ENDBRANCH   6  32
DOCKED: BRANCH  22  38
DOCKED: ATOM     38  C   UNL d   1       6.513  37.262  -3.581 -0.25 +0.00    +0.052 C 
DOCKED: BRANCH  38  39
DOCKED: ATOM     39  C   UNL d   1       5.357  36.290  -3.804 -0.18 +0.01    +0.115 C 
DOCKED: BRANCH  39  40
DOCKED: ATOM     40  C   UNL d   1       4.034  36.996  -3.967 -0.08 +0.02    +0.139 C 
DOCKED: ATOM     41  O   UNL d   1       3.200  36.550  -4.738 +0.02 -0.10    -0.650 OA
DOCKED: BRANCH  40  42
DOCKED: ATOM     42  O   UNL d   1       3.733  38.087  -3.237 +0.06 -0.23    -0.776 OA
DOCKED: ATOM     43  H   UNL d   1       3.381  38.014  -2.341 +0.04 +0.08    +0.167 HD
DOCKED: ENDBRANCH  40  42
DOCKED: ENDBRANCH  39  40
DOCKED: ENDBRANCH  38  39
DOCKED: ENDBRANCH  22  38
DOCKED: BRANCH  12  44
DOCKED: ATOM     44  C   UNL d   1      12.199  30.530   3.569 -0.61 +0.00    +0.004 C 
DOCKED: ATOM     45  C   UNL d   1      13.499  30.790   3.697 -0.69 +0.00    +0.012 C 
DOCKED: ENDBRANCH  12  44
DOCKED: BRANCH  17  46
DOCKED: ATOM     46  C   UNL d   1      14.180  36.099  -2.096 -0.59 +0.00    +0.004 C 
DOCKED: ATOM     47  C   UNL d   1      14.940  37.129  -1.701 -0.67 +0.00    +0.012 C 
DOCKED: ENDBRANCH  17  46
DOCKED: TORSDOF 10
DOCKED: TER
DOCKED: ENDMDL
________________________________________________________________________________


	BEGINNING GENETIC ALGORITHM DOCKING 65 of 100
Run: 65 Seed: 136237943 1717214075 [ Run 65 of 100 GA/GALS ]
Beginning LAMARCKIAN GENETIC ALGORITHM (LGA), with a maximum of 25000000 energy evaluations.

Final-Value: -19.975


	FINAL GENETIC ALGORITHM DOCKED STATE
	_______________________________________________


Detailed state:  trans 41.221 28.478 15.786 quatxyzw 0.336564 -0.372095 -0.864540 0.029007 center 8.287 34.468 -0.670 ntor 10 -86.7568 102.6262 12.4989 -72.4263 -91.1003 -42.0484 -38.6510 99.1638 -148.8364 -163.5393
State:	 41.221  28.478  15.786   0.337 -0.372 -0.865 176.676    -86.76  102.63   12.50  -72.43  -91.10  -42.05  -38.65   99.16 -148.84 -163.54

DOCKED: MODEL       65
DOCKED: USER    Run = 65
DOCKED: USER    DPF = D:/Protein_go_brrr/autodock/final/6BB5/heme_O2/dock.dpf
DOCKED: USER  
DOCKED: USER    Estimated Free Energy of Binding    =  -15.22 kcal/mol  [=(1)+(2)+(3)-(4)]
DOCKED: USER    Estimated Inhibition Constant, Ki   =    6.92 pM (picomolar)  [Temperature = 298.15 K]
DOCKED: USER    
DOCKED: USER    (1) Final Intermolecular Energy     =  -18.21 kcal/mol
DOCKED: USER        vdW + Hbond + desolv Energy     =  -16.38 kcal/mol
DOCKED: USER        Electrostatic Energy            =   -1.83 kcal/mol
DOCKED: USER    (2) Final Total Internal Energy     =   -1.77 kcal/mol
DOCKED: USER    (3) Torsional Free Energy           =   +2.98 kcal/mol
DOCKED: USER    (4) Unbound System's Energy  [=(2)] =   -1.77 kcal/mol
DOCKED: USER    
DOCKED: USER    
DOCKED: USER    NEWDPF move heme_O2_opt.pdbqt
DOCKED: USER    NEWDPF about 8.287000 34.468000 -0.670000
DOCKED: USER    NEWDPF tran0 41.221187 28.478132 15.786062
DOCKED: USER    NEWDPF quaternion0 0.336564 -0.372095 -0.864540 0.029007
DOCKED: USER    NEWDPF axisangle0 0.336706 -0.372251 -0.864904 176.675631
DOCKED: USER    NEWDPF quat0 0.336706 -0.372251 -0.864904 176.675631
DOCKED: USER    NEWDPF dihe0 -86.76 102.63 12.50 -72.43 -91.10 -42.05 -38.65 99.16 -148.84 -163.54 
DOCKED: USER  keepresnum = 1 
DOCKED: USER  
DOCKED: REMARK  10 active torsions:
DOCKED: REMARK  status: ('A' for Active; 'I' for Inactive)
DOCKED: REMARK    1  A    between atoms: C_6  and  C_10 
DOCKED: REMARK    2  A    between atoms: C_10  and  C_11 
DOCKED: REMARK    3  A    between atoms: C_11  and  C_12 
DOCKED: REMARK    4  A    between atoms: C_12  and  O_14 
DOCKED: REMARK    5  A    between atoms: C_17  and  C_20 
DOCKED: REMARK    6  A    between atoms: C_24  and  C_27 
DOCKED: REMARK    7  A    between atoms: C_31  and  C_34 
DOCKED: REMARK    8  A    between atoms: C_34  and  C_35 
DOCKED: REMARK    9  A    between atoms: C_35  and  C_36 
DOCKED: REMARK   10  A    between atoms: C_36  and  O_38 
DOCKED: USER                              x       y       z     vdW  Elec       q    Type
DOCKED: USER                           _______ _______ _______ _____ _____    ______ ____
DOCKED: ROOT
DOCKED: ATOM      1  C   UNL d   1      42.932  27.888  16.893 -0.26 +0.02    +0.064 A 
DOCKED: ATOM      2  C   UNL d   1      40.767  32.077  16.323 -0.41 +0.01    +0.064 A 
DOCKED: ATOM      3  C   UNL d   1      37.523  30.105  13.378 -0.39 +0.01    +0.064 C 
DOCKED: ATOM      4  C   UNL d   1      39.454  25.698  14.334 -0.41 +0.01    +0.064 A 
DOCKED: ATOM      5  C   UNL d   1      42.607  29.188  16.980 -0.25 +0.02    +0.066 A 
DOCKED: ATOM      6  C   UNL d   1      43.324  30.126  17.728 -0.31 -0.01    -0.021 A 
DOCKED: ATOM      7  C   UNL d   1      42.674  31.331  17.598 -0.38 -0.00    -0.025 A 
DOCKED: ATOM      8  C   UNL d   1      41.604  31.106  16.736 -0.36 +0.01    +0.066 A 
DOCKED: ATOM      9  C   UNL d   1      43.069  32.608  18.306 -0.44 +0.01    +0.051 C 
DOCKED: ATOM     10  C   UNL d   1      39.643  31.907  15.403 -0.37 +0.01    +0.066 A 
DOCKED: ATOM     11  C   UNL d   1      38.907  32.976  14.879 -0.41 -0.00    -0.021 A 
DOCKED: ATOM     12  C   UNL d   1      37.978  32.429  14.014 -0.40 +0.00    +0.000 A 
DOCKED: ATOM     13  C   UNL d   1      38.196  31.024  14.069 -0.37 +0.01    +0.070 A 
DOCKED: ATOM     14  C   UNL d   1      39.101  34.459  15.172 -0.54 +0.00    +0.052 C 
DOCKED: ATOM     15  C   UNL d   1      37.689  28.672  13.432 -0.38 +0.01    +0.066 A 
DOCKED: ATOM     16  C   UNL d   1      36.844  27.754  12.809 -0.49 -0.00    -0.021 A 
DOCKED: ATOM     17  C   UNL d   1      37.374  26.491  13.069 -0.46 +0.00    +0.000 A 
DOCKED: ATOM     18  C   UNL d   1      38.520  26.736  13.839 -0.38 +0.01    +0.070 A 
DOCKED: ATOM     19  C   UNL d   1      35.588  28.157  12.077 -0.66 +0.00    +0.052 C 
DOCKED: ATOM     20  C   UNL d   1      40.537  25.894  15.111 -0.40 +0.01    +0.066 A 
DOCKED: ATOM     21  C   UNL d   1      41.391  24.878  15.531 -0.40 -0.00    -0.025 A 
DOCKED: ATOM     22  C   UNL d   1      42.403  25.487  16.239 -0.30 -0.00    -0.021 A 
DOCKED: ATOM     23  C   UNL d   1      42.118  26.856  16.239 -0.33 +0.01    +0.066 A 
DOCKED: ATOM     24  C   UNL d   1      41.246  23.401  15.274 -0.54 +0.01    +0.051 C 
DOCKED: ATOM     25  N   UNL d   1      41.525  29.772  16.408 -0.21 -0.06    -0.248 N 
DOCKED: ATOM     26  N   UNL d   1      39.207  30.715  14.920 -0.19 -0.05    -0.248 N 
DOCKED: ATOM     27  N   UNL d   1      38.653  28.059  14.112 -0.21 -0.05    -0.248 N 
DOCKED: ATOM     28  N   UNL d   1      40.960  27.094  15.591 -0.25 -0.05    -0.248 N 
DOCKED: ATOM     29 FE   UNL d   1      40.088  28.890  15.256 -0.08 +0.00    +0.000 Fe
DOCKED: ATOM     30  O   UNL d   1      39.570  29.386  16.638 -0.68 +0.00    +0.000 OA
DOCKED: ATOM     31  O   UNL d   1      39.062  28.010  16.061 -0.92 +0.00    +0.000 OA
DOCKED: ENDROOT
DOCKED: BRANCH   6  32
DOCKED: ATOM     32  C   UNL d   1      44.497  29.877  18.641 -0.28 +0.02    +0.052 C 
DOCKED: BRANCH  32  33
DOCKED: ATOM     33  C   UNL d   1      44.133  29.024  19.852 -0.14 +0.09    +0.115 C 
DOCKED: BRANCH  33  34
DOCKED: ATOM     34  C   UNL d   1      45.198  28.006  20.179 -0.19 +0.14    +0.139 C 
DOCKED: ATOM     35  O   UNL d   1      45.771  28.058  21.256 -0.31 -1.27    -0.650 OA
DOCKED: BRANCH  34  36
DOCKED: ATOM     36  O   UNL d   1      45.555  27.052  19.295 +0.07 -0.47    -0.776 OA
DOCKED: ATOM     37  H   UNL d   1      45.087  26.211  19.234 +0.06 +0.09    +0.167 HD
DOCKED: ENDBRANCH  34  36
DOCKED: ENDBRANCH  33  34
DOCKED: ENDBRANCH  32  33
DOCKED: ENDBRANCH   6  32
DOCKED: BRANCH  22  38
DOCKED: ATOM     38  C   UNL d   1      43.541  24.780  16.928 -0.30 +0.02    +0.052 C 
DOCKED: BRANCH  38  39
DOCKED: ATOM     39  C   UNL d   1      43.059  23.833  18.025 -0.33 +0.03    +0.115 C 
DOCKED: BRANCH  39  40
DOCKED: ATOM     40  C   UNL d   1      42.772  24.550  19.321 -0.34 +0.05    +0.139 C 
DOCKED: ATOM     41  O   UNL d   1      41.618  24.790  19.639 -0.05 -0.15    -0.650 OA
DOCKED: BRANCH  40  42
DOCKED: ATOM     42  O   UNL d   1      43.767  24.888  20.164 +0.05 -0.40    -0.776 OA
DOCKED: ATOM     43  H   UNL d   1      44.070  25.800  20.247 +0.06 +0.11    +0.167 HD
DOCKED: ENDBRANCH  40  42
DOCKED: ENDBRANCH  39  40
DOCKED: ENDBRANCH  38  39
DOCKED: ENDBRANCH  22  38
DOCKED: BRANCH  12  44
DOCKED: ATOM     44  C   UNL d   1      36.996  33.285  13.242 -0.50 +0.00    +0.004 C 
DOCKED: ATOM     45  C   UNL d   1      35.966  32.883  12.500 -0.60 +0.00    +0.012 C 
DOCKED: ENDBRANCH  12  44
DOCKED: BRANCH  17  46
DOCKED: ATOM     46  C   UNL d   1      36.874  25.116  12.712 -0.65 +0.00    +0.004 C 
DOCKED: ATOM     47  C   UNL d   1      35.913  24.403  13.312 -0.72 +0.00    +0.012 C 
DOCKED: ENDBRANCH  17  46
DOCKED: TORSDOF 10
DOCKED: TER
DOCKED: ENDMDL
________________________________________________________________________________


	BEGINNING GENETIC ALGORITHM DOCKING 66 of 100
Run: 66 Seed: 2086017796 51282006 [ Run 66 of 100 GA/GALS ]
Beginning LAMARCKIAN GENETIC ALGORITHM (LGA), with a maximum of 25000000 energy evaluations.

Final-Value: -10.973


	FINAL GENETIC ALGORITHM DOCKED STATE
	_______________________________________________


Detailed state:  trans 11.571 38.996 24.526 quatxyzw 0.045591 -0.218922 -0.393068 0.891904 center 8.287 34.468 -0.670 ntor 10 7.2206 -109.5253 -48.8328 55.8560 34.1386 -153.3892 -153.4223 84.8261 178.5037 161.9543
State:	 11.571  38.996  24.526   0.101 -0.484 -0.869 53.773      7.22 -109.53  -48.83   55.86   34.14 -153.39 -153.42   84.83  178.50  161.95

DOCKED: MODEL       66
DOCKED: USER    Run = 66
DOCKED: USER    DPF = D:/Protein_go_brrr/autodock/final/6BB5/heme_O2/dock.dpf
DOCKED: USER  
DOCKED: USER    Estimated Free Energy of Binding    =   -5.64 kcal/mol  [=(1)+(2)+(3)-(4)]
DOCKED: USER    Estimated Inhibition Constant, Ki   =   73.71 uM (micromolar)  [Temperature = 298.15 K]
DOCKED: USER    
DOCKED: USER    (1) Final Intermolecular Energy     =   -8.62 kcal/mol
DOCKED: USER        vdW + Hbond + desolv Energy     =   -8.86 kcal/mol
DOCKED: USER        Electrostatic Energy            =   +0.24 kcal/mol
DOCKED: USER    (2) Final Total Internal Energy     =   -2.35 kcal/mol
DOCKED: USER    (3) Torsional Free Energy           =   +2.98 kcal/mol
DOCKED: USER    (4) Unbound System's Energy  [=(2)] =   -2.35 kcal/mol
DOCKED: USER    
DOCKED: USER    
DOCKED: USER    NEWDPF move heme_O2_opt.pdbqt
DOCKED: USER    NEWDPF about 8.287000 34.468000 -0.670000
DOCKED: USER    NEWDPF tran0 11.571205 38.995654 24.525920
DOCKED: USER    NEWDPF quaternion0 0.045591 -0.218922 -0.393068 0.891904
DOCKED: USER    NEWDPF axisangle0 0.100814 -0.484099 -0.869186 53.773056
DOCKED: USER    NEWDPF quat0 0.100814 -0.484099 -0.869186 53.773056
DOCKED: USER    NEWDPF dihe0 7.22 -109.53 -48.83 55.86 34.14 -153.39 -153.42 84.83 178.50 161.95 
DOCKED: USER  keepresnum = 1 
DOCKED: USER  
DOCKED: REMARK  10 active torsions:
DOCKED: REMARK  status: ('A' for Active; 'I' for Inactive)
DOCKED: REMARK    1  A    between atoms: C_6  and  C_10 
DOCKED: REMARK    2  A    between atoms: C_10  and  C_11 
DOCKED: REMARK    3  A    between atoms: C_11  and  C_12 
DOCKED: REMARK    4  A    between atoms: C_12  and  O_14 
DOCKED: REMARK    5  A    between atoms: C_17  and  C_20 
DOCKED: REMARK    6  A    between atoms: C_24  and  C_27 
DOCKED: REMARK    7  A    between atoms: C_31  and  C_34 
DOCKED: REMARK    8  A    between atoms: C_34  and  C_35 
DOCKED: REMARK    9  A    between atoms: C_35  and  C_36 
DOCKED: REMARK   10  A    between atoms: C_36  and  O_38 
DOCKED: USER                              x       y       z     vdW  Elec       q    Type
DOCKED: USER                           _______ _______ _______ _____ _____    ______ ____
DOCKED: ROOT
DOCKED: ATOM      1  C   UNL d   1       9.740  37.933  24.658 -0.24 -0.01    +0.064 A 
DOCKED: ATOM      2  C   UNL d   1      13.721  37.799  27.246 -0.24 -0.02    +0.064 A 
DOCKED: ATOM      3  C   UNL d   1      15.762  41.129  24.446 -0.35 -0.02    +0.064 C 
DOCKED: ATOM      4  C   UNL d   1      11.501  41.622  22.065 -0.04 -0.01    +0.064 A 
DOCKED: ATOM      5  C   UNL d   1      10.656  37.626  25.591 -0.25 -0.02    +0.066 A 
DOCKED: ATOM      6  C   UNL d   1      10.463  36.670  26.593 -0.26 +0.01    -0.021 A 
DOCKED: ATOM      7  C   UNL d   1      11.598  36.662  27.369 -0.21 +0.01    -0.025 A 
DOCKED: ATOM      8  C   UNL d   1      12.473  37.578  26.791 -0.26 -0.03    +0.066 A 
DOCKED: ATOM      9  C   UNL d   1      11.788  35.825  28.615 -0.02 -0.03    +0.051 C 
DOCKED: ATOM     10  C   UNL d   1      14.691  38.730  26.668 -0.25 -0.02    +0.066 A 
DOCKED: ATOM     11  C   UNL d   1      16.027  38.802  27.078 -0.27 +0.00    -0.021 A 
DOCKED: ATOM     12  C   UNL d   1      16.637  39.744  26.270 -0.32 -0.00    +0.000 A 
DOCKED: ATOM     13  C   UNL d   1      15.613  40.213  25.402 -0.31 -0.02    +0.070 A 
DOCKED: ATOM     14  C   UNL d   1      16.701  37.986  28.176 -0.31 -0.00    +0.052 C 
DOCKED: ATOM     15  C   UNL d   1      14.744  41.656  23.570 -0.27 -0.02    +0.066 A 
DOCKED: ATOM     16  C   UNL d   1      14.927  42.732  22.701 -0.35 +0.01    -0.021 A 
DOCKED: ATOM     17  C   UNL d   1      13.724  42.892  22.013 -0.32 -0.00    +0.000 A 
DOCKED: ATOM     18  C   UNL d   1      12.888  41.887  22.518 -0.25 -0.01    +0.070 A 
DOCKED: ATOM     19  C   UNL d   1      16.200  43.538  22.647 -0.34 -0.01    +0.052 C 
DOCKED: ATOM     20  C   UNL d   1      10.657  40.695  22.558 -0.20 -0.01    +0.066 A 
DOCKED: ATOM     21  C   UNL d   1       9.368  40.481  22.078 -0.19 +0.00    -0.025 A 
DOCKED: ATOM     22  C   UNL d   1       8.861  39.415  22.787 -0.20 +0.00    -0.021 A 
DOCKED: ATOM     23  C   UNL d   1       9.857  39.029  23.689 -0.23 -0.01    +0.066 A 
DOCKED: ATOM     24  C   UNL d   1       8.655  41.256  21.001 -0.19 -0.00    +0.051 C 
DOCKED: ATOM     25  N   UNL d   1      11.867  38.219  25.735 -0.15 +0.10    -0.248 N 
DOCKED: ATOM     26  N   UNL d   1      14.431  39.594  25.654 -0.15 +0.09    -0.248 N 
DOCKED: ATOM     27  N   UNL d   1      13.497  41.195  23.514 -0.13 +0.07    -0.248 N 
DOCKED: ATOM     28  N   UNL d   1      10.930  39.838  23.577 -0.07 +0.07    -0.248 N 
DOCKED: ATOM     29 FE   UNL d   1      12.669  39.719  24.606 -0.05 -0.00    +0.000 Fe
DOCKED: ATOM     30  O   UNL d   1      12.338  40.140  26.068 -0.16 -0.00    +0.000 OA
DOCKED: ATOM     31  O   UNL d   1      12.052  41.139  24.884 -0.17 -0.00    +0.000 OA
DOCKED: ENDROOT
DOCKED: BRANCH   6  32
DOCKED: ATOM     32  C   UNL d   1       9.209  35.892  26.896 -0.27 -0.00    +0.052 C 
DOCKED: BRANCH  32  33
DOCKED: ATOM     33  C   UNL d   1       8.391  36.504  28.029 -0.11 +0.01    +0.115 C 
DOCKED: BRANCH  33  34
DOCKED: ATOM     34  C   UNL d   1       8.653  37.981  28.195 -0.03 -0.00    +0.139 C 
DOCKED: ATOM     35  O   UNL d   1       9.145  38.394  29.233 +0.02 +0.02    -0.650 OA
DOCKED: BRANCH  34  36
DOCKED: ATOM     36  O   UNL d   1       8.328  38.865  27.229 +0.04 +0.04    -0.776 OA
DOCKED: ATOM     37  H   UNL d   1       7.825  38.607  26.448 +0.03 -0.01    +0.167 HD
DOCKED: ENDBRANCH  34  36
DOCKED: ENDBRANCH  33  34
DOCKED: ENDBRANCH  32  33
DOCKED: ENDBRANCH   6  32
DOCKED: BRANCH  22  38
DOCKED: ATOM     38  C   UNL d   1       7.472  38.847  22.645 -0.25 -0.01    +0.052 C 
DOCKED: BRANCH  38  39
DOCKED: ATOM     39  C   UNL d   1       6.505  39.408  23.686 -0.10 -0.01    +0.115 C 
DOCKED: BRANCH  39  40
DOCKED: ATOM     40  C   UNL d   1       6.360  38.504  24.884 -0.09 -0.01    +0.139 C 
DOCKED: ATOM     41  O   UNL d   1       6.855  37.388  24.865 -0.02 +0.06    -0.650 OA
DOCKED: BRANCH  40  42
DOCKED: ATOM     42  O   UNL d   1       5.735  38.924  26.001 +0.04 +0.03    -0.776 OA
DOCKED: ATOM     43  H   UNL d   1       6.226  39.137  26.804 +0.01 -0.00    +0.167 HD
DOCKED: ENDBRANCH  40  42
DOCKED: ENDBRANCH  39  40
DOCKED: ENDBRANCH  38  39
DOCKED: ENDBRANCH  22  38
DOCKED: BRANCH  12  44
DOCKED: ATOM     44  C   UNL d   1      18.104  40.094  26.410 -0.38 -0.00    +0.004 C 
DOCKED: ATOM     45  C   UNL d   1      19.039  40.096  25.461 -0.45 -0.00    +0.012 C 
DOCKED: ENDBRANCH  12  44
DOCKED: BRANCH  17  46
DOCKED: ATOM     46  C   UNL d   1      13.297  43.915  20.995 -0.26 -0.00    +0.004 C 
DOCKED: ATOM     47  C   UNL d   1      13.950  44.314  19.896 -0.29 -0.00    +0.012 C 
DOCKED: ENDBRANCH  17  46
DOCKED: TORSDOF 10
DOCKED: TER
DOCKED: ENDMDL
________________________________________________________________________________


	BEGINNING GENETIC ALGORITHM DOCKING 67 of 100
Run: 67 Seed: 1801675362 508462174 [ Run 67 of 100 GA/GALS ]
Beginning LAMARCKIAN GENETIC ALGORITHM (LGA), with a maximum of 25000000 energy evaluations.

Final-Value: -20.363


	FINAL GENETIC ALGORITHM DOCKED STATE
	_______________________________________________


Detailed state:  trans 41.064 28.210 15.735 quatxyzw 0.328965 -0.383669 -0.861014 0.056886 center 8.287 34.468 -0.670 ntor 10 126.7625 -49.9595 22.0791 -101.6427 -155.6491 159.0416 -48.8561 22.7716 180.0000 156.0869
State:	 41.064  28.210  15.735   0.329 -0.384 -0.862 173.478    126.76  -49.96   22.08 -101.64 -155.65  159.04  -48.86   22.77  180.00  156.09

DOCKED: MODEL       67
DOCKED: USER    Run = 67
DOCKED: USER    DPF = D:/Protein_go_brrr/autodock/final/6BB5/heme_O2/dock.dpf
DOCKED: USER  
DOCKED: USER    Estimated Free Energy of Binding    =  -15.42 kcal/mol  [=(1)+(2)+(3)-(4)]
DOCKED: USER    Estimated Inhibition Constant, Ki   =    5.00 pM (picomolar)  [Temperature = 298.15 K]
DOCKED: USER    
DOCKED: USER    (1) Final Intermolecular Energy     =  -18.40 kcal/mol
DOCKED: USER        vdW + Hbond + desolv Energy     =  -16.22 kcal/mol
DOCKED: USER        Electrostatic Energy            =   -2.18 kcal/mol
DOCKED: USER    (2) Final Total Internal Energy     =   -1.96 kcal/mol
DOCKED: USER    (3) Torsional Free Energy           =   +2.98 kcal/mol
DOCKED: USER    (4) Unbound System's Energy  [=(2)] =   -1.96 kcal/mol
DOCKED: USER    
DOCKED: USER    
DOCKED: USER    NEWDPF move heme_O2_opt.pdbqt
DOCKED: USER    NEWDPF about 8.287000 34.468000 -0.670000
DOCKED: USER    NEWDPF tran0 41.064169 28.209707 15.735232
DOCKED: USER    NEWDPF quaternion0 0.328965 -0.383669 -0.861014 0.056886
DOCKED: USER    NEWDPF axisangle0 0.329498 -0.384291 -0.862410 173.477814
DOCKED: USER    NEWDPF quat0 0.329498 -0.384291 -0.862410 173.477814
DOCKED: USER    NEWDPF dihe0 126.76 -49.96 22.08 -101.64 -155.65 159.04 -48.86 22.77 180.00 156.09 
DOCKED: USER  keepresnum = 1 
DOCKED: USER  
DOCKED: REMARK  10 active torsions:
DOCKED: REMARK  status: ('A' for Active; 'I' for Inactive)
DOCKED: REMARK    1  A    between atoms: C_6  and  C_10 
DOCKED: REMARK    2  A    between atoms: C_10  and  C_11 
DOCKED: REMARK    3  A    between atoms: C_11  and  C_12 
DOCKED: REMARK    4  A    between atoms: C_12  and  O_14 
DOCKED: REMARK    5  A    between atoms: C_17  and  C_20 
DOCKED: REMARK    6  A    between atoms: C_24  and  C_27 
DOCKED: REMARK    7  A    between atoms: C_31  and  C_34 
DOCKED: REMARK    8  A    between atoms: C_34  and  C_35 
DOCKED: REMARK    9  A    between atoms: C_35  and  C_36 
DOCKED: REMARK   10  A    between atoms: C_36  and  O_38 
DOCKED: USER                              x       y       z     vdW  Elec       q    Type
DOCKED: USER                           _______ _______ _______ _____ _____    ______ ____
DOCKED: ROOT
DOCKED: ATOM      1  C   UNL d   1      42.725  27.519  16.860 -0.23 +0.02    +0.064 A 
DOCKED: ATOM      2  C   UNL d   1      40.829  31.832  16.257 -0.39 +0.01    +0.064 A 
DOCKED: ATOM      3  C   UNL d   1      37.496  30.053  13.287 -0.40 +0.01    +0.064 C 
DOCKED: ATOM      4  C   UNL d   1      39.142  25.539  14.275 -0.41 +0.01    +0.064 A 
DOCKED: ATOM      5  C   UNL d   1      42.480  28.837  16.940 -0.19 +0.02    +0.066 A 
DOCKED: ATOM      6  C   UNL d   1      43.247  29.732  17.691 -0.29 -0.01    -0.021 A 
DOCKED: ATOM      7  C   UNL d   1      42.673  30.974  17.552 -0.37 -0.01    -0.025 A 
DOCKED: ATOM      8  C   UNL d   1      41.600  30.812  16.680 -0.33 +0.01    +0.066 A 
DOCKED: ATOM      9  C   UNL d   1      43.140  32.227  18.259 -0.44 +0.01    +0.051 C 
DOCKED: ATOM     10  C   UNL d   1      39.704  31.728  15.326 -0.36 +0.01    +0.066 A 
DOCKED: ATOM     11  C   UNL d   1      39.041  32.839  14.793 -0.41 -0.00    -0.021 A 
DOCKED: ATOM     12  C   UNL d   1      38.088  32.347  13.920 -0.40 +0.00    +0.000 A 
DOCKED: ATOM     13  C   UNL d   1      38.219  30.932  13.981 -0.37 +0.01    +0.070 A 
DOCKED: ATOM     14  C   UNL d   1      39.324  34.308  15.082 -0.53 +0.00    +0.052 C 
DOCKED: ATOM     15  C   UNL d   1      37.573  28.613  13.347 -0.39 +0.01    +0.066 A 
DOCKED: ATOM     16  C   UNL d   1      36.678  27.747  12.720 -0.51 -0.00    -0.021 A 
DOCKED: ATOM     17  C   UNL d   1      37.127  26.454  12.988 -0.47 +0.00    +0.000 A 
DOCKED: ATOM     18  C   UNL d   1      38.278  26.631  13.768 -0.38 +0.01    +0.070 A 
DOCKED: ATOM     19  C   UNL d   1      35.457  28.224  11.974 -0.66 +0.00    +0.052 C 
DOCKED: ATOM     20  C   UNL d   1      40.228  25.671  15.061 -0.39 +0.01    +0.066 A 
DOCKED: ATOM     21  C   UNL d   1      41.013  24.605  15.493 -0.44 -0.00    -0.025 A 
DOCKED: ATOM     22  C   UNL d   1      42.054  25.153  16.209 -0.34 -0.00    -0.021 A 
DOCKED: ATOM     23  C   UNL d   1      41.855  26.537  16.202 -0.35 +0.01    +0.066 A 
DOCKED: ATOM     24  C   UNL d   1      40.780  23.139  15.239 -0.54 +0.00    +0.051 C 
DOCKED: ATOM     25  N   UNL d   1      41.442  29.485  16.356 -0.22 -0.06    -0.248 N 
DOCKED: ATOM     26  N   UNL d   1      39.201  30.564  14.843 -0.14 -0.05    -0.248 N 
DOCKED: ATOM     27  N   UNL d   1      38.491  27.944  14.039 -0.21 -0.05    -0.248 N 
DOCKED: ATOM     28  N   UNL d   1      40.719  26.844  15.542 -0.27 -0.05    -0.248 N 
DOCKED: ATOM     29 FE   UNL d   1      39.963  28.689  15.193 -0.07 +0.00    +0.000 Fe
DOCKED: ATOM     30  O   UNL d   1      39.464  29.221  16.568 -0.75 +0.00    +0.000 OA
DOCKED: ATOM     31  O   UNL d   1      38.878  27.877  15.991 -0.85 +0.00    +0.000 OA
DOCKED: ENDROOT
DOCKED: BRANCH   6  32
DOCKED: ATOM     32  C   UNL d   1      44.394  29.414  18.616 -0.28 +0.02    +0.052 C 
DOCKED: BRANCH  32  33
DOCKED: ATOM     33  C   UNL d   1      43.964  29.302  20.076 +0.15 +0.09    +0.115 C 
DOCKED: BRANCH  33  34
DOCKED: ATOM     34  C   UNL d   1      44.444  28.026  20.721 -0.03 +0.19    +0.139 C 
DOCKED: ATOM     35  O   UNL d   1      45.629  27.737  20.677 -0.30 -0.82    -0.650 OA
DOCKED: BRANCH  34  36
DOCKED: ATOM     36  O   UNL d   1      43.587  27.178  21.325 -0.44 -1.26    -0.776 OA
DOCKED: ATOM     37  H   UNL d   1      43.554  26.240  21.102 +0.05 +0.18    +0.167 HD
DOCKED: ENDBRANCH  34  36
DOCKED: ENDBRANCH  33  34
DOCKED: ENDBRANCH  32  33
DOCKED: ENDBRANCH   6  32
DOCKED: BRANCH  22  38
DOCKED: ATOM     38  C   UNL d   1      43.140  24.380  16.911 -0.33 +0.01    +0.052 C 
DOCKED: BRANCH  38  39
DOCKED: ATOM     39  C   UNL d   1      42.910  24.292  18.418 -0.34 +0.03    +0.115 C 
DOCKED: BRANCH  39  40
DOCKED: ATOM     40  C   UNL d   1      44.180  24.004  19.179 -0.22 +0.06    +0.139 C 
DOCKED: ATOM     41  O   UNL d   1      44.838  23.013  18.907 -0.06 -0.27    -0.650 OA
DOCKED: BRANCH  40  42
DOCKED: ATOM     42  O   UNL d   1      44.632  24.851  20.124 +0.07 -0.43    -0.776 OA
DOCKED: ATOM     43  H   UNL d   1      44.682  25.802  19.968 +0.06 +0.11    +0.167 HD
DOCKED: ENDBRANCH  40  42
DOCKED: ENDBRANCH  39  40
DOCKED: ENDBRANCH  38  39
DOCKED: ENDBRANCH  22  38
DOCKED: BRANCH  12  44
DOCKED: ATOM     44  C   UNL d   1      37.168  33.259  13.137 -0.48 +0.00    +0.004 C 
DOCKED: ATOM     45  C   UNL d   1      36.025  32.944  12.530 -0.60 +0.00    +0.012 C 
DOCKED: ENDBRANCH  12  44
DOCKED: BRANCH  17  46
DOCKED: ATOM     46  C   UNL d   1      36.546  25.112  12.631 -0.67 +0.00    +0.004 C 
DOCKED: ATOM     47  C   UNL d   1      35.959  24.221  13.440 -0.72 +0.00    +0.012 C 
DOCKED: ENDBRANCH  17  46
DOCKED: TORSDOF 10
DOCKED: TER
DOCKED: ENDMDL
________________________________________________________________________________


	BEGINNING GENETIC ALGORITHM DOCKING 68 of 100
Run: 68 Seed: 1430468689 643488762 [ Run 68 of 100 GA/GALS ]
Beginning LAMARCKIAN GENETIC ALGORITHM (LGA), with a maximum of 25000000 energy evaluations.

Final-Value: -10.167


	FINAL GENETIC ALGORITHM DOCKED STATE
	_______________________________________________


Detailed state:  trans 41.923 45.118 3.760 quatxyzw -0.774529 0.511933 0.045300 -0.368752 center 8.287 34.468 -0.670 ntor 10 -122.4906 21.7879 -49.8139 121.6501 -33.9407 -112.7860 -90.4714 -121.5650 176.0825 140.0902
State:	 41.923  45.118   3.760  -0.833  0.551  0.049 -136.723   -122.49   21.79  -49.81  121.65  -33.94 -112.79  -90.47 -121.56  176.08  140.09

DOCKED: MODEL       68
DOCKED: USER    Run = 68
DOCKED: USER    DPF = D:/Protein_go_brrr/autodock/final/6BB5/heme_O2/dock.dpf
DOCKED: USER  
DOCKED: USER    Estimated Free Energy of Binding    =   -5.46 kcal/mol  [=(1)+(2)+(3)-(4)]
DOCKED: USER    Estimated Inhibition Constant, Ki   =   99.24 uM (micromolar)  [Temperature = 298.15 K]
DOCKED: USER    
DOCKED: USER    (1) Final Intermolecular Energy     =   -8.44 kcal/mol
DOCKED: USER        vdW + Hbond + desolv Energy     =   -6.11 kcal/mol
DOCKED: USER        Electrostatic Energy            =   -2.33 kcal/mol
DOCKED: USER    (2) Final Total Internal Energy     =   -1.72 kcal/mol
DOCKED: USER    (3) Torsional Free Energy           =   +2.98 kcal/mol
DOCKED: USER    (4) Unbound System's Energy  [=(2)] =   -1.72 kcal/mol
DOCKED: USER    
DOCKED: USER    
DOCKED: USER    NEWDPF move heme_O2_opt.pdbqt
DOCKED: USER    NEWDPF about 8.287000 34.468000 -0.670000
DOCKED: USER    NEWDPF tran0 41.923244 45.117962 3.760006
DOCKED: USER    NEWDPF quaternion0 -0.774529 0.511933 0.045300 -0.368752
DOCKED: USER    NEWDPF axisangle0 -0.833249 0.550745 0.048734 -136.722694
DOCKED: USER    NEWDPF quat0 -0.833249 0.550745 0.048734 -136.722694
DOCKED: USER    NEWDPF dihe0 -122.49 21.79 -49.81 121.65 -33.94 -112.79 -90.47 -121.56 176.08 140.09 
DOCKED: USER  keepresnum = 1 
DOCKED: USER  
DOCKED: REMARK  10 active torsions:
DOCKED: REMARK  status: ('A' for Active; 'I' for Inactive)
DOCKED: REMARK    1  A    between atoms: C_6  and  C_10 
DOCKED: REMARK    2  A    between atoms: C_10  and  C_11 
DOCKED: REMARK    3  A    between atoms: C_11  and  C_12 
DOCKED: REMARK    4  A    between atoms: C_12  and  O_14 
DOCKED: REMARK    5  A    between atoms: C_17  and  C_20 
DOCKED: REMARK    6  A    between atoms: C_24  and  C_27 
DOCKED: REMARK    7  A    between atoms: C_31  and  C_34 
DOCKED: REMARK    8  A    between atoms: C_34  and  C_35 
DOCKED: REMARK    9  A    between atoms: C_35  and  C_36 
DOCKED: REMARK   10  A    between atoms: C_36  and  O_38 
DOCKED: USER                              x       y       z     vdW  Elec       q    Type
DOCKED: USER                           _______ _______ _______ _____ _____    ______ ____
DOCKED: ROOT
DOCKED: ATOM      1  C   UNL d   1      40.298  45.922   4.860 -0.23 +0.01    +0.064 A 
DOCKED: ATOM      2  C   UNL d   1      44.245  47.875   3.082 -0.09 -0.01    +0.064 A 
DOCKED: ATOM      3  C   UNL d   1      45.695  43.620   1.383 -0.09 -0.00    +0.064 C 
DOCKED: ATOM      4  C   UNL d   1      41.411  41.689   2.791 -0.18 +0.01    +0.064 A 
DOCKED: ATOM      5  C   UNL d   1      41.252  46.800   4.514 -0.21 -0.00    +0.066 A 
DOCKED: ATOM      6  C   UNL d   1      41.223  48.158   4.844 -0.24 +0.00    -0.021 A 
DOCKED: ATOM      7  C   UNL d   1      42.344  48.733   4.292 -0.08 +0.01    -0.025 A 
DOCKED: ATOM      8  C   UNL d   1      43.051  47.701   3.682 -0.10 -0.01    +0.066 A 
DOCKED: ATOM      9  C   UNL d   1      42.673  50.209   4.341 -0.16 -0.01    +0.051 C 
DOCKED: ATOM     10  C   UNL d   1      45.045  46.827   2.445 -0.07 -0.01    +0.066 A 
DOCKED: ATOM     11  C   UNL d   1      46.350  47.030   1.982 -0.04 +0.00    -0.021 A 
DOCKED: ATOM     12  C   UNL d   1      46.792  45.809   1.505 -0.04 -0.00    +0.000 A 
DOCKED: ATOM     13  C   UNL d   1      45.703  44.915   1.697 -0.07 -0.01    +0.070 A 
DOCKED: ATOM     14  C   UNL d   1      47.151  48.326   2.019 -0.03 -0.01    +0.052 C 
DOCKED: ATOM     15  C   UNL d   1      44.602  42.689   1.528 -0.07 +0.00    +0.066 A 
DOCKED: ATOM     16  C   UNL d   1      44.601  41.386   1.030 -0.10 -0.00    -0.021 A 
DOCKED: ATOM     17  C   UNL d   1      43.389  40.817   1.418 -0.14 +0.00    +0.000 A 
DOCKED: ATOM     18  C   UNL d   1      42.733  41.827   2.136 -0.07 +0.01    +0.070 A 
DOCKED: ATOM     19  C   UNL d   1      45.721  40.826   0.189 -0.06 +0.00    +0.052 C 
DOCKED: ATOM     20  C   UNL d   1      40.735  42.650   3.450 -0.18 +0.01    +0.066 A 
DOCKED: ATOM     21  C   UNL d   1      39.500  42.455   4.062 -0.27 -0.00    -0.025 A 
DOCKED: ATOM     22  C   UNL d   1      39.180  43.643   4.680 -0.26 -0.00    -0.021 A 
DOCKED: ATOM     23  C   UNL d   1      40.227  44.528   4.406 -0.19 +0.01    +0.066 A 
DOCKED: ATOM     24  C   UNL d   1      38.666  41.201   4.055 -0.30 +0.01    +0.051 C 
DOCKED: ATOM     25  N   UNL d   1      42.346  46.523   3.762 -0.10 +0.02    -0.248 N 
DOCKED: ATOM     26  N   UNL d   1      44.642  45.543   2.265 -0.05 +0.02    -0.248 N 
DOCKED: ATOM     27  N   UNL d   1      43.451  42.979   2.128 -0.04 -0.01    -0.248 N 
DOCKED: ATOM     28  N   UNL d   1      41.149  43.934   3.620 -0.09 -0.03    -0.248 N 
DOCKED: ATOM     29 FE   UNL d   1      42.883  44.730   2.946 -0.03 +0.00    +0.000 Fe
DOCKED: ATOM     30  O   UNL d   1      42.488  45.806   1.893 -0.06 +0.00    +0.000 OA
DOCKED: ATOM     31  O   UNL d   1      42.037  44.311   1.689 -0.07 +0.00    +0.000 OA
DOCKED: ENDROOT
DOCKED: BRANCH   6  32
DOCKED: ATOM     32  C   UNL d   1      40.118  48.918   5.532 -0.31 -0.00    +0.052 C 
DOCKED: BRANCH  32  33
DOCKED: ATOM     33  C   UNL d   1      39.245  49.704   4.559 -0.23 +0.04    +0.115 C 
DOCKED: BRANCH  33  34
DOCKED: ATOM     34  C   UNL d   1      38.110  48.877   4.007 -0.15 +0.14    +0.139 C 
DOCKED: ATOM     35  O   UNL d   1      37.277  49.401   3.286 -0.35 -0.82    -0.650 OA
DOCKED: BRANCH  34  36
DOCKED: ATOM     36  O   UNL d   1      37.977  47.571   4.316 -0.27 -1.07    -0.776 OA
DOCKED: ATOM     37  H   UNL d   1      37.958  46.885   3.638 +0.04 +0.20    +0.167 HD
DOCKED: ENDBRANCH  34  36
DOCKED: ENDBRANCH  33  34
DOCKED: ENDBRANCH  32  33
DOCKED: ENDBRANCH   6  32
DOCKED: BRANCH  22  38
DOCKED: ATOM     38  C   UNL d   1      37.907  43.925   5.435 -0.06 +0.01    +0.052 C 
DOCKED: BRANCH  38  39
DOCKED: ATOM     39  C   UNL d   1      37.090  45.049   4.801 -0.30 +0.10    +0.115 C 
DOCKED: BRANCH  39  40
DOCKED: ATOM     40  C   UNL d   1      36.738  44.763   3.362 -0.16 +0.13    +0.139 C 
DOCKED: ATOM     41  O   UNL d   1      36.559  43.612   2.999 -0.00 -0.24    -0.650 OA
DOCKED: BRANCH  40  42
DOCKED: ATOM     42  O   UNL d   1      36.565  45.763   2.476 +0.01 -1.07    -0.776 OA
DOCKED: ATOM     43  H   UNL d   1      36.979  46.626   2.602 +0.02 +0.27    +0.167 HD
DOCKED: ENDBRANCH  40  42
DOCKED: ENDBRANCH  39  40
DOCKED: ENDBRANCH  38  39
DOCKED: ENDBRANCH  22  38
DOCKED: BRANCH  12  44
DOCKED: ATOM     44  C   UNL d   1      48.178  45.628   0.924 -0.02 -0.00    +0.004 C 
DOCKED: ATOM     45  C   UNL d   1      49.106  44.741   1.281 -0.03 -0.00    +0.012 C 
DOCKED: ENDBRANCH  12  44
DOCKED: BRANCH  17  46
DOCKED: ATOM     46  C   UNL d   1      42.794  39.464   1.128 -0.19 +0.00    +0.004 C 
DOCKED: ATOM     47  C   UNL d   1      42.523  38.476   1.991 -0.38 +0.00    +0.012 C 
DOCKED: ENDBRANCH  17  46
DOCKED: TORSDOF 10
DOCKED: TER
DOCKED: ENDMDL
________________________________________________________________________________


	BEGINNING GENETIC ALGORITHM DOCKING 69 of 100
Run: 69 Seed: 1720813342 1113879598 [ Run 69 of 100 GA/GALS ]
Beginning LAMARCKIAN GENETIC ALGORITHM (LGA), with a maximum of 25000000 energy evaluations.

Final-Value: -11.472


	FINAL GENETIC ALGORITHM DOCKED STATE
	_______________________________________________


Detailed state:  trans 11.571 38.986 24.435 quatxyzw -0.044558 0.202150 0.396893 -0.894218 center 8.287 34.468 -0.670 ntor 10 -62.1217 113.3706 -50.8064 59.5850 -146.4152 148.6842 46.4778 -61.5021 171.4149 -178.4715
State:	 11.571  38.986  24.435  -0.100  0.452  0.887 -53.184    -62.12  113.37  -50.81   59.59 -146.42  148.68   46.48  -61.50  171.41 -178.47

DOCKED: MODEL       69
DOCKED: USER    Run = 69
DOCKED: USER    DPF = D:/Protein_go_brrr/autodock/final/6BB5/heme_O2/dock.dpf
DOCKED: USER  
DOCKED: USER    Estimated Free Energy of Binding    =   -7.83 kcal/mol  [=(1)+(2)+(3)-(4)]
DOCKED: USER    Estimated Inhibition Constant, Ki   =    1.82 uM (micromolar)  [Temperature = 298.15 K]
DOCKED: USER    
DOCKED: USER    (1) Final Intermolecular Energy     =  -10.81 kcal/mol
DOCKED: USER        vdW + Hbond + desolv Energy     =  -10.06 kcal/mol
DOCKED: USER        Electrostatic Energy            =   -0.76 kcal/mol
DOCKED: USER    (2) Final Total Internal Energy     =   -0.66 kcal/mol
DOCKED: USER    (3) Torsional Free Energy           =   +2.98 kcal/mol
DOCKED: USER    (4) Unbound System's Energy  [=(2)] =   -0.66 kcal/mol
DOCKED: USER    
DOCKED: USER    
DOCKED: USER    NEWDPF move heme_O2_opt.pdbqt
DOCKED: USER    NEWDPF about 8.287000 34.468000 -0.670000
DOCKED: USER    NEWDPF tran0 11.571097 38.986400 24.435045
DOCKED: USER    NEWDPF quaternion0 -0.044558 0.202150 0.396893 -0.894218
DOCKED: USER    NEWDPF axisangle0 -0.099541 0.451598 0.886651 -53.183697
DOCKED: USER    NEWDPF quat0 -0.099541 0.451598 0.886651 -53.183697
DOCKED: USER    NEWDPF dihe0 -62.12 113.37 -50.81 59.59 -146.42 148.68 46.48 -61.50 171.41 -178.47 
DOCKED: USER  keepresnum = 1 
DOCKED: USER  
DOCKED: REMARK  10 active torsions:
DOCKED: REMARK  status: ('A' for Active; 'I' for Inactive)
DOCKED: REMARK    1  A    between atoms: C_6  and  C_10 
DOCKED: REMARK    2  A    between atoms: C_10  and  C_11 
DOCKED: REMARK    3  A    between atoms: C_11  and  C_12 
DOCKED: REMARK    4  A    between atoms: C_12  and  O_14 
DOCKED: REMARK    5  A    between atoms: C_17  and  C_20 
DOCKED: REMARK    6  A    between atoms: C_24  and  C_27 
DOCKED: REMARK    7  A    between atoms: C_31  and  C_34 
DOCKED: REMARK    8  A    between atoms: C_34  and  C_35 
DOCKED: REMARK    9  A    between atoms: C_35  and  C_36 
DOCKED: REMARK   10  A    between atoms: C_36  and  O_38 
DOCKED: USER                              x       y       z     vdW  Elec       q    Type
DOCKED: USER                           _______ _______ _______ _____ _____    ______ ____
DOCKED: ROOT
DOCKED: ATOM      1  C   UNL d   1       9.744  37.911  24.494 -0.25 -0.01    +0.064 A 
DOCKED: ATOM      2  C   UNL d   1      13.647  37.757  27.197 -0.25 -0.02    +0.064 A 
DOCKED: ATOM      3  C   UNL d   1      15.749  41.146  24.516 -0.37 -0.02    +0.064 C 
DOCKED: ATOM      4  C   UNL d   1      11.558  41.654  22.018 -0.03 -0.01    +0.064 A 
DOCKED: ATOM      5  C   UNL d   1      10.633  37.593  25.449 -0.25 -0.02    +0.066 A 
DOCKED: ATOM      6  C   UNL d   1      10.416  36.620  26.429 -0.27 +0.01    -0.021 A 
DOCKED: ATOM      7  C   UNL d   1      11.528  36.605  27.238 -0.22 +0.01    -0.025 A 
DOCKED: ATOM      8  C   UNL d   1      12.414  37.536  26.702 -0.27 -0.03    +0.066 A 
DOCKED: ATOM      9  C   UNL d   1      11.687  35.748  28.475 +0.03 -0.04    +0.051 C 
DOCKED: ATOM     10  C   UNL d   1      14.628  38.703  26.664 -0.25 -0.02    +0.066 A 
DOCKED: ATOM     11  C   UNL d   1      15.951  38.775  27.115 -0.27 +0.00    -0.021 A 
DOCKED: ATOM     12  C   UNL d   1      16.578  39.734  26.342 -0.31 -0.00    +0.000 A 
DOCKED: ATOM     13  C   UNL d   1      15.577  40.212  25.451 -0.31 -0.02    +0.070 A 
DOCKED: ATOM     14  C   UNL d   1      16.596  37.945  28.218 -0.30 -0.00    +0.052 C 
DOCKED: ATOM     15  C   UNL d   1      14.754  41.681  23.619 -0.27 -0.02    +0.066 A 
DOCKED: ATOM     16  C   UNL d   1      14.956  42.773  22.775 -0.35 +0.01    -0.021 A 
DOCKED: ATOM     17  C   UNL d   1      13.773  42.937  22.053 -0.32 -0.00    +0.000 A 
DOCKED: ATOM     18  C   UNL d   1      12.928  41.919  22.516 -0.25 -0.01    +0.070 A 
DOCKED: ATOM     19  C   UNL d   1      16.225  43.587  22.772 -0.30 -0.01    +0.052 C 
DOCKED: ATOM     20  C   UNL d   1      10.705  40.714  22.469 -0.20 -0.01    +0.066 A 
DOCKED: ATOM     21  C   UNL d   1       9.432  40.500  21.948 -0.19 +0.00    -0.025 A 
DOCKED: ATOM     22  C   UNL d   1       8.911  39.420  22.623 -0.22 +0.00    -0.021 A 
DOCKED: ATOM     23  C   UNL d   1       9.882  39.024  23.548 -0.24 -0.01    +0.066 A 
DOCKED: ATOM     24  C   UNL d   1       8.746  41.290  20.863 -0.19 -0.00    +0.051 C 
DOCKED: ATOM     25  N   UNL d   1      11.835  38.191  25.639 -0.15 +0.10    -0.248 N 
DOCKED: ATOM     26  N   UNL d   1      14.393  39.582  25.657 -0.14 +0.09    -0.248 N 
DOCKED: ATOM     27  N   UNL d   1      13.512  41.214  23.518 -0.13 +0.07    -0.248 N 
DOCKED: ATOM     28  N   UNL d   1      10.953  39.841  23.482 -0.06 +0.07    -0.248 N 
DOCKED: ATOM     29 FE   UNL d   1      12.661  39.715  24.560 -0.05 -0.00    +0.000 Fe
DOCKED: ATOM     30  O   UNL d   1      12.285  40.109  26.018 -0.16 -0.00    +0.000 OA
DOCKED: ATOM     31  O   UNL d   1      12.028  41.127  24.843 -0.17 -0.00    +0.000 OA
DOCKED: ENDROOT
DOCKED: BRANCH   6  32
DOCKED: ATOM     32  C   UNL d   1       9.159  35.829  26.682 -0.27 -0.00    +0.052 C 
DOCKED: BRANCH  32  33
DOCKED: ATOM     33  C   UNL d   1       8.391  36.313  27.908 -0.13 +0.01    +0.115 C 
DOCKED: BRANCH  33  34
DOCKED: ATOM     34  C   UNL d   1       7.911  35.174  28.772 -0.12 +0.06    +0.139 C 
DOCKED: ATOM     35  O   UNL d   1       8.724  34.432  29.300 -0.50 -0.58    -0.650 OA
DOCKED: BRANCH  34  36
DOCKED: ATOM     36  O   UNL d   1       6.595  34.936  28.956 -0.01 -0.27    -0.776 OA
DOCKED: ATOM     37  H   UNL d   1       6.013  35.581  29.373 +0.02 +0.03    +0.167 HD
DOCKED: ENDBRANCH  34  36
DOCKED: ENDBRANCH  33  34
DOCKED: ENDBRANCH  32  33
DOCKED: ENDBRANCH   6  32
DOCKED: BRANCH  22  38
DOCKED: ATOM     38  C   UNL d   1       7.531  38.846  22.431 -0.27 -0.01    +0.052 C 
DOCKED: BRANCH  38  39
DOCKED: ATOM     39  C   UNL d   1       6.449  39.695  23.095 -0.12 -0.01    +0.115 C 
DOCKED: BRANCH  39  40
DOCKED: ATOM     40  C   UNL d   1       5.467  40.260  22.099 -0.14 +0.00    +0.139 C 
DOCKED: ATOM     41  O   UNL d   1       5.839  41.090  21.286 -0.47 -0.10    -0.650 OA
DOCKED: BRANCH  40  42
DOCKED: ATOM     42  O   UNL d   1       4.193  39.826  22.057 +0.00 -0.00    -0.776 OA
DOCKED: ATOM     43  H   UNL d   1       3.453  40.412  22.255 +0.03 -0.00    +0.167 HD
DOCKED: ENDBRANCH  40  42
DOCKED: ENDBRANCH  39  40
DOCKED: ENDBRANCH  38  39
DOCKED: ENDBRANCH  22  38
DOCKED: BRANCH  12  44
DOCKED: ATOM     44  C   UNL d   1      18.038  40.091  26.531 -0.36 -0.00    +0.004 C 
DOCKED: ATOM     45  C   UNL d   1      19.008  40.080  25.619 -0.43 -0.00    +0.012 C 
DOCKED: ENDBRANCH  12  44
DOCKED: BRANCH  17  46
DOCKED: ATOM     46  C   UNL d   1      13.370  43.976  21.040 -0.26 -0.00    +0.004 C 
DOCKED: ATOM     47  C   UNL d   1      14.021  44.348  19.931 -0.30 -0.00    +0.012 C 
DOCKED: ENDBRANCH  17  46
DOCKED: TORSDOF 10
DOCKED: TER
DOCKED: ENDMDL
________________________________________________________________________________


	BEGINNING GENETIC ALGORITHM DOCKING 70 of 100
Run: 70 Seed: 1555523192 605066788 [ Run 70 of 100 GA/GALS ]
Beginning LAMARCKIAN GENETIC ALGORITHM (LGA), with a maximum of 25000000 energy evaluations.

Final-Value: -20.201


	FINAL GENETIC ALGORITHM DOCKED STATE
	_______________________________________________


Detailed state:  trans 41.186 28.422 15.793 quatxyzw -0.331900 0.393969 0.856655 -0.027809 center 8.287 34.468 -0.670 ntor 10 -143.2476 9.8737 24.1907 -81.6140 -57.9674 138.0283 -51.5971 3.9341 -150.9799 162.9925
State:	 41.186  28.422  15.793  -0.332  0.394  0.857 -176.813   -143.25    9.87   24.19  -81.61  -57.97  138.03  -51.60    3.93 -150.98  162.99

DOCKED: MODEL       70
DOCKED: USER    Run = 70
DOCKED: USER    DPF = D:/Protein_go_brrr/autodock/final/6BB5/heme_O2/dock.dpf
DOCKED: USER  
DOCKED: USER    Estimated Free Energy of Binding    =  -15.01 kcal/mol  [=(1)+(2)+(3)-(4)]
DOCKED: USER    Estimated Inhibition Constant, Ki   =    9.92 pM (picomolar)  [Temperature = 298.15 K]
DOCKED: USER    
DOCKED: USER    (1) Final Intermolecular Energy     =  -17.99 kcal/mol
DOCKED: USER        vdW + Hbond + desolv Energy     =  -16.08 kcal/mol
DOCKED: USER        Electrostatic Energy            =   -1.92 kcal/mol
DOCKED: USER    (2) Final Total Internal Energy     =   -2.21 kcal/mol
DOCKED: USER    (3) Torsional Free Energy           =   +2.98 kcal/mol
DOCKED: USER    (4) Unbound System's Energy  [=(2)] =   -2.21 kcal/mol
DOCKED: USER    
DOCKED: USER    
DOCKED: USER    NEWDPF move heme_O2_opt.pdbqt
DOCKED: USER    NEWDPF about 8.287000 34.468000 -0.670000
DOCKED: USER    NEWDPF tran0 41.185884 28.421996 15.792659
DOCKED: USER    NEWDPF quaternion0 -0.331900 0.393969 0.856655 -0.027809
DOCKED: USER    NEWDPF axisangle0 -0.332028 0.394121 0.856986 -176.812893
DOCKED: USER    NEWDPF quat0 -0.332028 0.394121 0.856986 -176.812893
DOCKED: USER    NEWDPF dihe0 -143.25 9.87 24.19 -81.61 -57.97 138.03 -51.60 3.93 -150.98 162.99 
DOCKED: USER  keepresnum = 1 
DOCKED: USER  
DOCKED: REMARK  10 active torsions:
DOCKED: REMARK  status: ('A' for Active; 'I' for Inactive)
DOCKED: REMARK    1  A    between atoms: C_6  and  C_10 
DOCKED: REMARK    2  A    between atoms: C_10  and  C_11 
DOCKED: REMARK    3  A    between atoms: C_11  and  C_12 
DOCKED: REMARK    4  A    between atoms: C_12  and  O_14 
DOCKED: REMARK    5  A    between atoms: C_17  and  C_20 
DOCKED: REMARK    6  A    between atoms: C_24  and  C_27 
DOCKED: REMARK    7  A    between atoms: C_31  and  C_34 
DOCKED: REMARK    8  A    between atoms: C_34  and  C_35 
DOCKED: REMARK    9  A    between atoms: C_35  and  C_36 
DOCKED: REMARK   10  A    between atoms: C_36  and  O_38 
DOCKED: USER                              x       y       z     vdW  Elec       q    Type
DOCKED: USER                           _______ _______ _______ _____ _____    ______ ____
DOCKED: ROOT
DOCKED: ATOM      1  C   UNL d   1      42.892  27.853  16.917 -0.24 +0.02    +0.064 A 
DOCKED: ATOM      2  C   UNL d   1      40.794  32.049  16.172 -0.40 +0.01    +0.064 A 
DOCKED: ATOM      3  C   UNL d   1      37.502  30.002  13.332 -0.40 +0.01    +0.064 C 
DOCKED: ATOM      4  C   UNL d   1      39.366  25.610  14.473 -0.39 +0.01    +0.064 A 
DOCKED: ATOM      5  C   UNL d   1      42.589  29.161  16.947 -0.26 +0.02    +0.066 A 
DOCKED: ATOM      6  C   UNL d   1      43.326  30.119  17.650 -0.31 -0.01    -0.021 A 
DOCKED: ATOM      7  C   UNL d   1      42.695  31.327  17.470 -0.38 -0.00    -0.025 A 
DOCKED: ATOM      8  C   UNL d   1      41.617  31.082  16.624 -0.34 +0.01    +0.066 A 
DOCKED: ATOM      9  C   UNL d   1      43.114  32.628  18.119 -0.44 +0.01    +0.051 C 
DOCKED: ATOM     10  C   UNL d   1      39.662  31.856  15.265 -0.37 +0.01    +0.066 A 
DOCKED: ATOM     11  C   UNL d   1      38.942  32.913  14.698 -0.40 -0.00    -0.021 A 
DOCKED: ATOM     12  C   UNL d   1      37.999  32.344  13.862 -0.40 +0.00    +0.000 A 
DOCKED: ATOM     13  C   UNL d   1      38.194  30.940  13.978 -0.37 +0.01    +0.070 A 
DOCKED: ATOM     14  C   UNL d   1      39.161  34.405  14.924 -0.52 +0.00    +0.052 C 
DOCKED: ATOM     15  C   UNL d   1      37.645  28.571  13.448 -0.38 +0.01    +0.066 A 
DOCKED: ATOM     16  C   UNL d   1      36.781  27.641  12.871 -0.48 -0.00    -0.021 A 
DOCKED: ATOM     17  C   UNL d   1      37.292  26.381  13.184 -0.46 +0.00    +0.000 A 
DOCKED: ATOM     18  C   UNL d   1      38.446  26.641  13.937 -0.38 +0.01    +0.070 A 
DOCKED: ATOM     19  C   UNL d   1      35.529  28.032  12.127 -0.65 +0.00    +0.052 C 
DOCKED: ATOM     20  C   UNL d   1      40.456  25.823  15.235 -0.40 +0.01    +0.066 A 
DOCKED: ATOM     21  C   UNL d   1      41.295  24.812  15.697 -0.41 -0.00    -0.025 A 
DOCKED: ATOM     22  C   UNL d   1      42.320  25.435  16.372 -0.34 -0.00    -0.021 A 
DOCKED: ATOM     23  C   UNL d   1      42.059  26.807  16.313 -0.34 +0.01    +0.066 A 
DOCKED: ATOM     24  C   UNL d   1      41.124  23.327  15.506 -0.54 +0.00    +0.051 C 
DOCKED: ATOM     25  N   UNL d   1      41.514  29.737  16.355 -0.21 -0.06    -0.248 N 
DOCKED: ATOM     26  N   UNL d   1      39.205  30.652  14.837 -0.16 -0.05    -0.248 N 
DOCKED: ATOM     27  N   UNL d   1      38.603  27.972  14.151 -0.21 -0.05    -0.248 N 
DOCKED: ATOM     28  N   UNL d   1      40.901  27.035  15.660 -0.26 -0.05    -0.248 N 
DOCKED: ATOM     29 FE   UNL d   1      40.057  28.829  15.250 -0.08 +0.00    +0.000 Fe
DOCKED: ATOM     30  O   UNL d   1      39.554  29.394  16.611 -0.69 +0.00    +0.000 OA
DOCKED: ATOM     31  O   UNL d   1      39.021  28.003  16.098 -0.93 +0.00    +0.000 OA
DOCKED: ENDROOT
DOCKED: BRANCH   6  32
DOCKED: ATOM     32  C   UNL d   1      44.499  29.891  18.567 -0.28 +0.02    +0.052 C 
DOCKED: BRANCH  32  33
DOCKED: ATOM     33  C   UNL d   1      44.118  29.143  19.842 -0.13 +0.08    +0.115 C 
DOCKED: BRANCH  33  34
DOCKED: ATOM     34  C   UNL d   1      44.966  27.916  20.065 -0.20 +0.13    +0.139 C 
DOCKED: ATOM     35  O   UNL d   1      45.176  27.526  21.202 -0.06 -1.25    -0.650 OA
DOCKED: BRANCH  34  36
DOCKED: ATOM     36  O   UNL d   1      45.525  27.251  19.033 +0.07 -0.43    -0.776 OA
DOCKED: ATOM     37  H   UNL d   1      45.601  26.290  19.025 +0.05 +0.09    +0.167 HD
DOCKED: ENDBRANCH  34  36
DOCKED: ENDBRANCH  33  34
DOCKED: ENDBRANCH  32  33
DOCKED: ENDBRANCH   6  32
DOCKED: BRANCH  22  38
DOCKED: ATOM     38  C   UNL d   1      43.450  24.740  17.087 -0.30 +0.01    +0.052 C 
DOCKED: BRANCH  38  39
DOCKED: ATOM     39  C   UNL d   1      43.169  24.554  18.576 -0.31 +0.04    +0.115 C 
DOCKED: BRANCH  39  40
DOCKED: ATOM     40  C   UNL d   1      44.327  23.919  19.306 -0.21 +0.06    +0.139 C 
DOCKED: ATOM     41  O   UNL d   1      44.518  22.718  19.210 -0.19 -0.28    -0.650 OA
DOCKED: BRANCH  40  42
DOCKED: ATOM     42  O   UNL d   1      45.189  24.664  20.025 +0.08 -0.42    -0.776 OA
DOCKED: ATOM     43  H   UNL d   1      44.999  25.584  20.245 +0.06 +0.12    +0.167 HD
DOCKED: ENDBRANCH  40  42
DOCKED: ENDBRANCH  39  40
DOCKED: ENDBRANCH  38  39
DOCKED: ENDBRANCH  22  38
DOCKED: BRANCH  12  44
DOCKED: ATOM     44  C   UNL d   1      37.027  33.182  13.058 -0.50 +0.00    +0.004 C 
DOCKED: ATOM     45  C   UNL d   1      35.871  32.801  12.516 -0.61 +0.00    +0.012 C 
DOCKED: ENDBRANCH  12  44
DOCKED: BRANCH  17  46
DOCKED: ATOM     46  C   UNL d   1      36.768  25.001  12.890 -0.66 +0.00    +0.004 C 
DOCKED: ATOM     47  C   UNL d   1      35.921  24.264  13.620 -0.73 +0.00    +0.012 C 
DOCKED: ENDBRANCH  17  46
DOCKED: TORSDOF 10
DOCKED: TER
DOCKED: ENDMDL
________________________________________________________________________________


	BEGINNING GENETIC ALGORITHM DOCKING 71 of 100
Run: 71 Seed: 1794897752 1712219717 [ Run 71 of 100 GA/GALS ]
Beginning LAMARCKIAN GENETIC ALGORITHM (LGA), with a maximum of 25000000 energy evaluations.

Final-Value: -20.435


	FINAL GENETIC ALGORITHM DOCKED STATE
	_______________________________________________


Detailed state:  trans 41.158 28.419 15.783 quatxyzw -0.323507 0.376118 0.866081 -0.061496 center 8.287 34.468 -0.670 ntor 10 -95.1390 -123.1004 8.6471 -99.4636 -105.6885 134.3857 -29.2461 56.6593 -146.5781 -175.5585
State:	 41.158  28.419  15.783  -0.324  0.377  0.868 -172.949    -95.14 -123.10    8.65  -99.46 -105.69  134.39  -29.25   56.66 -146.58 -175.56

DOCKED: MODEL       71
DOCKED: USER    Run = 71
DOCKED: USER    DPF = D:/Protein_go_brrr/autodock/final/6BB5/heme_O2/dock.dpf
DOCKED: USER  
DOCKED: USER    Estimated Free Energy of Binding    =  -15.33 kcal/mol  [=(1)+(2)+(3)-(4)]
DOCKED: USER    Estimated Inhibition Constant, Ki   =    5.79 pM (picomolar)  [Temperature = 298.15 K]
DOCKED: USER    
DOCKED: USER    (1) Final Intermolecular Energy     =  -18.31 kcal/mol
DOCKED: USER        vdW + Hbond + desolv Energy     =  -16.40 kcal/mol
DOCKED: USER        Electrostatic Energy            =   -1.91 kcal/mol
DOCKED: USER    (2) Final Total Internal Energy     =   -2.12 kcal/mol
DOCKED: USER    (3) Torsional Free Energy           =   +2.98 kcal/mol
DOCKED: USER    (4) Unbound System's Energy  [=(2)] =   -2.12 kcal/mol
DOCKED: USER    
DOCKED: USER    
DOCKED: USER    NEWDPF move heme_O2_opt.pdbqt
DOCKED: USER    NEWDPF about 8.287000 34.468000 -0.670000
DOCKED: USER    NEWDPF tran0 41.157554 28.419108 15.783244
DOCKED: USER    NEWDPF quaternion0 -0.323507 0.376118 0.866081 -0.061496
DOCKED: USER    NEWDPF axisangle0 -0.324120 0.376831 0.867724 -172.948579
DOCKED: USER    NEWDPF quat0 -0.324120 0.376831 0.867724 -172.948579
DOCKED: USER    NEWDPF dihe0 -95.14 -123.10 8.65 -99.46 -105.69 134.39 -29.25 56.66 -146.58 -175.56 
DOCKED: USER  keepresnum = 1 
DOCKED: USER  
DOCKED: REMARK  10 active torsions:
DOCKED: REMARK  status: ('A' for Active; 'I' for Inactive)
DOCKED: REMARK    1  A    between atoms: C_6  and  C_10 
DOCKED: REMARK    2  A    between atoms: C_10  and  C_11 
DOCKED: REMARK    3  A    between atoms: C_11  and  C_12 
DOCKED: REMARK    4  A    between atoms: C_12  and  O_14 
DOCKED: REMARK    5  A    between atoms: C_17  and  C_20 
DOCKED: REMARK    6  A    between atoms: C_24  and  C_27 
DOCKED: REMARK    7  A    between atoms: C_31  and  C_34 
DOCKED: REMARK    8  A    between atoms: C_34  and  C_35 
DOCKED: REMARK    9  A    between atoms: C_35  and  C_36 
DOCKED: REMARK   10  A    between atoms: C_36  and  O_38 
DOCKED: USER                              x       y       z     vdW  Elec       q    Type
DOCKED: USER                           _______ _______ _______ _____ _____    ______ ____
DOCKED: ROOT
DOCKED: ATOM      1  C   UNL d   1      42.823  27.695  16.880 -0.25 +0.02    +0.064 A 
DOCKED: ATOM      2  C   UNL d   1      40.951  32.031  16.381 -0.41 +0.01    +0.064 A 
DOCKED: ATOM      3  C   UNL d   1      37.581  30.335  13.404 -0.41 +0.01    +0.064 C 
DOCKED: ATOM      4  C   UNL d   1      39.206  25.791  14.285 -0.40 +0.01    +0.064 A 
DOCKED: ATOM      5  C   UNL d   1      42.587  29.012  16.988 -0.21 +0.02    +0.066 A 
DOCKED: ATOM      6  C   UNL d   1      43.367  29.886  17.752 -0.30 -0.01    -0.021 A 
DOCKED: ATOM      7  C   UNL d   1      42.800  31.135  17.643 -0.37 -0.01    -0.025 A 
DOCKED: ATOM      8  C   UNL d   1      41.718  30.998  16.777 -0.35 +0.01    +0.066 A 
DOCKED: ATOM      9  C   UNL d   1      43.281  32.370  18.372 -0.43 +0.01    +0.051 C 
DOCKED: ATOM     10  C   UNL d   1      39.818  31.954  15.458 -0.37 +0.01    +0.066 A 
DOCKED: ATOM     11  C   UNL d   1      39.158  33.080  14.953 -0.42 -0.00    -0.021 A 
DOCKED: ATOM     12  C   UNL d   1      38.195  32.612  14.078 -0.40 +0.00    +0.000 A 
DOCKED: ATOM     13  C   UNL d   1      38.316  31.195  14.110 -0.36 +0.01    +0.070 A 
DOCKED: ATOM     14  C   UNL d   1      39.452  34.541  15.270 -0.55 +0.00    +0.052 C 
DOCKED: ATOM     15  C   UNL d   1      37.649  28.894  13.433 -0.38 +0.01    +0.066 A 
DOCKED: ATOM     16  C   UNL d   1      36.744  28.047  12.796 -0.50 -0.00    -0.021 A 
DOCKED: ATOM     17  C   UNL d   1      37.186  26.746  13.034 -0.47 +0.00    +0.000 A 
DOCKED: ATOM     18  C   UNL d   1      38.345  26.899  13.808 -0.37 +0.01    +0.070 A 
DOCKED: ATOM     19  C   UNL d   1      35.519  28.547  12.071 -0.66 +0.00    +0.052 C 
DOCKED: ATOM     20  C   UNL d   1      40.299  25.900  15.064 -0.40 +0.01    +0.066 A 
DOCKED: ATOM     21  C   UNL d   1      41.081  24.821  15.468 -0.42 -0.00    -0.025 A 
DOCKED: ATOM     22  C   UNL d   1      42.131  25.347  16.185 -0.32 -0.00    -0.021 A 
DOCKED: ATOM     23  C   UNL d   1      41.941  26.732  16.209 -0.34 +0.01    +0.066 A 
DOCKED: ATOM     24  C   UNL d   1      40.835  23.361  15.186 -0.56 +0.00    +0.051 C 
DOCKED: ATOM     25  N   UNL d   1      41.549  29.678  16.426 -0.21 -0.06    -0.248 N 
DOCKED: ATOM     26  N   UNL d   1      39.303  30.803  14.955 -0.18 -0.05    -0.248 N 
DOCKED: ATOM     27  N   UNL d   1      38.569  28.205  14.103 -0.20 -0.05    -0.248 N 
DOCKED: ATOM     28  N   UNL d   1      40.802  27.060  15.565 -0.26 -0.05    -0.248 N 
DOCKED: ATOM     29 FE   UNL d   1      40.056  28.916  15.261 -0.09 +0.00    +0.000 Fe
DOCKED: ATOM     30  O   UNL d   1      39.571  29.423  16.650 -0.67 +0.00    +0.000 OA
DOCKED: ATOM     31  O   UNL d   1      38.971  28.096  16.051 -0.92 +0.00    +0.000 OA
DOCKED: ENDROOT
DOCKED: BRANCH   6  32
DOCKED: ATOM     32  C   UNL d   1      44.519  29.542  18.660 -0.27 +0.02    +0.052 C 
DOCKED: BRANCH  32  33
DOCKED: ATOM     33  C   UNL d   1      44.107  28.650  19.827 -0.20 +0.09    +0.115 C 
DOCKED: BRANCH  33  34
DOCKED: ATOM     34  C   UNL d   1      45.214  27.721  20.260 -0.17 +0.14    +0.139 C 
DOCKED: ATOM     35  O   UNL d   1      45.849  27.971  21.272 -0.34 -1.24    -0.650 OA
DOCKED: BRANCH  34  36
DOCKED: ATOM     36  O   UNL d   1      45.539  26.630  19.537 +0.07 -0.50    -0.776 OA
DOCKED: ATOM     37  H   UNL d   1      45.175  25.759  19.734 +0.06 +0.10    +0.167 HD
DOCKED: ENDBRANCH  34  36
DOCKED: ENDBRANCH  33  34
DOCKED: ENDBRANCH  32  33
DOCKED: ENDBRANCH   6  32
DOCKED: BRANCH  22  38
DOCKED: ATOM     38  C   UNL d   1      43.218  24.552  16.863 -0.31 +0.01    +0.052 C 
DOCKED: BRANCH  38  39
DOCKED: ATOM     39  C   UNL d   1      42.724  23.849  18.125 -0.37 +0.03    +0.115 C 
DOCKED: BRANCH  39  40
DOCKED: ATOM     40  C   UNL d   1      43.543  24.205  19.341 -0.28 +0.05    +0.139 C 
DOCKED: ATOM     41  O   UNL d   1      44.607  23.643  19.540 -0.09 -0.29    -0.650 OA
DOCKED: BRANCH  40  42
DOCKED: ATOM     42  O   UNL d   1      43.145  25.173  20.189 +0.03 -0.38    -0.776 OA
DOCKED: ATOM     43  H   UNL d   1      43.690  25.950  20.359 +0.06 +0.12    +0.167 HD
DOCKED: ENDBRANCH  40  42
DOCKED: ENDBRANCH  39  40
DOCKED: ENDBRANCH  38  39
DOCKED: ENDBRANCH  22  38
DOCKED: BRANCH  12  44
DOCKED: ATOM     44  C   UNL d   1      37.274  33.546  13.322 -0.48 +0.00    +0.004 C 
DOCKED: ATOM     45  C   UNL d   1      36.262  33.225  12.517 -0.58 +0.00    +0.012 C 
DOCKED: ENDBRANCH  12  44
DOCKED: BRANCH  17  46
DOCKED: ATOM     46  C   UNL d   1      36.593  25.415  12.654 -0.64 +0.00    +0.004 C 
DOCKED: ATOM     47  C   UNL d   1      35.971  24.529  13.443 -0.71 +0.00    +0.012 C 
DOCKED: ENDBRANCH  17  46
DOCKED: TORSDOF 10
DOCKED: TER
DOCKED: ENDMDL
________________________________________________________________________________


	BEGINNING GENETIC ALGORITHM DOCKING 72 of 100
Run: 72 Seed: 1833487047 1263090599 [ Run 72 of 100 GA/GALS ]
Beginning LAMARCKIAN GENETIC ALGORITHM (LGA), with a maximum of 25000000 energy evaluations.

Final-Value: -11.122


	FINAL GENETIC ALGORITHM DOCKED STATE
	_______________________________________________


Detailed state:  trans 15.467 17.230 4.536 quatxyzw -0.806193 -0.196270 0.247740 0.500156 center 8.287 34.468 -0.670 ntor 10 104.4836 -115.6703 2.5642 122.1658 168.3665 146.5055 -60.9699 65.5851 179.9934 179.9429
State:	 15.467  17.230   4.536  -0.931 -0.227  0.286 119.979    104.48 -115.67    2.56  122.17  168.37  146.51  -60.97   65.59  179.99  179.94

DOCKED: MODEL       72
DOCKED: USER    Run = 72
DOCKED: USER    DPF = D:/Protein_go_brrr/autodock/final/6BB5/heme_O2/dock.dpf
DOCKED: USER  
DOCKED: USER    Estimated Free Energy of Binding    =   -6.46 kcal/mol  [=(1)+(2)+(3)-(4)]
DOCKED: USER    Estimated Inhibition Constant, Ki   =   18.43 uM (micromolar)  [Temperature = 298.15 K]
DOCKED: USER    
DOCKED: USER    (1) Final Intermolecular Energy     =   -9.44 kcal/mol
DOCKED: USER        vdW + Hbond + desolv Energy     =   -6.15 kcal/mol
DOCKED: USER        Electrostatic Energy            =   -3.30 kcal/mol
DOCKED: USER    (2) Final Total Internal Energy     =   -1.68 kcal/mol
DOCKED: USER    (3) Torsional Free Energy           =   +2.98 kcal/mol
DOCKED: USER    (4) Unbound System's Energy  [=(2)] =   -1.68 kcal/mol
DOCKED: USER    
DOCKED: USER    
DOCKED: USER    NEWDPF move heme_O2_opt.pdbqt
DOCKED: USER    NEWDPF about 8.287000 34.468000 -0.670000
DOCKED: USER    NEWDPF tran0 15.467337 17.230265 4.536257
DOCKED: USER    NEWDPF quaternion0 -0.806193 -0.196270 0.247740 0.500156
DOCKED: USER    NEWDPF axisangle0 -0.931008 -0.226656 0.286095 119.979299
DOCKED: USER    NEWDPF quat0 -0.931008 -0.226656 0.286095 119.979299
DOCKED: USER    NEWDPF dihe0 104.48 -115.67 2.56 122.17 168.37 146.51 -60.97 65.59 179.99 179.94 
DOCKED: USER  keepresnum = 1 
DOCKED: USER  
DOCKED: REMARK  10 active torsions:
DOCKED: REMARK  status: ('A' for Active; 'I' for Inactive)
DOCKED: REMARK    1  A    between atoms: C_6  and  C_10 
DOCKED: REMARK    2  A    between atoms: C_10  and  C_11 
DOCKED: REMARK    3  A    between atoms: C_11  and  C_12 
DOCKED: REMARK    4  A    between atoms: C_12  and  O_14 
DOCKED: REMARK    5  A    between atoms: C_17  and  C_20 
DOCKED: REMARK    6  A    between atoms: C_24  and  C_27 
DOCKED: REMARK    7  A    between atoms: C_31  and  C_34 
DOCKED: REMARK    8  A    between atoms: C_34  and  C_35 
DOCKED: REMARK    9  A    between atoms: C_35  and  C_36 
DOCKED: REMARK   10  A    between atoms: C_36  and  O_38 
DOCKED: USER                              x       y       z     vdW  Elec       q    Type
DOCKED: USER                           _______ _______ _______ _____ _____    ______ ____
DOCKED: ROOT
DOCKED: ATOM      1  C   UNL d   1      14.473  17.570   6.379 -0.16 +0.02    +0.064 A 
DOCKED: ATOM      2  C   UNL d   1      13.122  15.454   2.348 -0.13 +0.01    +0.064 A 
DOCKED: ATOM      3  C   UNL d   1      17.374  16.398   0.318 -0.17 -0.01    +0.064 C 
DOCKED: ATOM      4  C   UNL d   1      18.946  18.155   4.620 -0.11 +0.00    +0.064 A 
DOCKED: ATOM      5  C   UNL d   1      13.759  16.916   5.449 -0.14 +0.02    +0.066 A 
DOCKED: ATOM      6  C   UNL d   1      12.444  16.480   5.635 -0.19 -0.00    -0.021 A 
DOCKED: ATOM      7  C   UNL d   1      12.067  15.829   4.484 -0.17 -0.01    -0.025 A 
DOCKED: ATOM      8  C   UNL d   1      13.145  15.927   3.608 -0.12 +0.01    +0.066 A 
DOCKED: ATOM      9  C   UNL d   1      10.740  15.131   4.279 -0.26 +0.01    +0.051 C 
DOCKED: ATOM     10  C   UNL d   1      14.212  15.547   1.376 -0.11 +0.01    +0.066 A 
DOCKED: ATOM     11  C   UNL d   1      14.078  15.186   0.031 -0.16 -0.00    -0.021 A 
DOCKED: ATOM     12  C   UNL d   1      15.288  15.468  -0.575 -0.17 +0.00    +0.000 A 
DOCKED: ATOM     13  C   UNL d   1      16.115  15.985   0.460 -0.14 +0.00    +0.070 A 
DOCKED: ATOM     14  C   UNL d   1      12.838  14.621  -0.653 -0.15 +0.02    +0.052 C 
DOCKED: ATOM     15  C   UNL d   1      18.255  16.895   1.347 -0.00 -0.01    +0.066 A 
DOCKED: ATOM     16  C   UNL d   1      19.613  17.156   1.167 -0.10 +0.00    -0.021 A 
DOCKED: ATOM     17  C   UNL d   1      20.083  17.657   2.381 -0.09 -0.00    +0.000 A 
DOCKED: ATOM     18  C   UNL d   1      18.961  17.667   3.221 -0.10 -0.00    +0.070 A 
DOCKED: ATOM     19  C   UNL d   1      20.345  16.855  -0.117 -0.08 -0.01    +0.052 C 
DOCKED: ATOM     20  C   UNL d   1      17.898  18.138   5.467 -0.14 +0.01    +0.066 A 
DOCKED: ATOM     21  C   UNL d   1      17.939  18.629   6.769 -0.17 -0.00    -0.025 A 
DOCKED: ATOM     22  C   UNL d   1      16.666  18.496   7.276 -0.20 -0.00    -0.021 A 
DOCKED: ATOM     23  C   UNL d   1      15.897  17.909   6.267 -0.17 +0.02    +0.066 A 
DOCKED: ATOM     24  C   UNL d   1      19.134  19.194   7.493 -0.16 +0.01    +0.051 C 
DOCKED: ATOM     25  N   UNL d   1      14.210  16.540   4.227 -0.07 -0.06    -0.248 N 
DOCKED: ATOM     26  N   UNL d   1      15.454  16.026   1.645 -0.01 -0.05    -0.248 N 
DOCKED: ATOM     27  N   UNL d   1      17.879  17.131   2.601 -0.04 +0.01    -0.248 N 
DOCKED: ATOM     28  N   UNL d   1      16.660  17.652   5.185 -0.10 -0.04    -0.248 N 
DOCKED: ATOM     29 FE   UNL d   1      16.064  16.845   3.427 -0.04 +0.00    +0.000 Fe
DOCKED: ATOM     30  O   UNL d   1      15.745  15.350   3.721 -0.09 +0.00    +0.000 OA
DOCKED: ATOM     31  O   UNL d   1      17.186  15.914   4.017 -0.09 +0.00    +0.000 OA
DOCKED: ENDROOT
DOCKED: BRANCH   6  32
DOCKED: ATOM     32  C   UNL d   1      11.618  16.549   6.893 -0.33 +0.01    +0.052 C 
DOCKED: BRANCH  32  33
DOCKED: ATOM     33  C   UNL d   1      11.654  15.253   7.697 -0.22 +0.03    +0.115 C 
DOCKED: BRANCH  33  34
DOCKED: ATOM     34  C   UNL d   1      12.277  15.438   9.058 -0.10 +0.13    +0.139 C 
DOCKED: ATOM     35  O   UNL d   1      12.389  16.560   9.524 -0.03 -0.70    -0.650 OA
DOCKED: BRANCH  34  36
DOCKED: ATOM     36  O   UNL d   1      12.744  14.388   9.766 -0.33 -1.34    -0.776 OA
DOCKED: ATOM     37  H   UNL d   1      13.687  14.207   9.850 +0.04 +0.30    +0.167 HD
DOCKED: ENDBRANCH  34  36
DOCKED: ENDBRANCH  33  34
DOCKED: ENDBRANCH  32  33
DOCKED: ENDBRANCH   6  32
DOCKED: BRANCH  22  38
DOCKED: ATOM     38  C   UNL d   1      16.236  18.854   8.675 -0.29 +0.02    +0.052 C 
DOCKED: BRANCH  38  39
DOCKED: ATOM     39  C   UNL d   1      16.648  17.798   9.699 -0.19 +0.06    +0.115 C 
DOCKED: BRANCH  39  40
DOCKED: ATOM     40  C   UNL d   1      15.460  17.126  10.342 -0.16 +0.16    +0.139 C 
DOCKED: ATOM     41  O   UNL d   1      14.744  17.758  11.102 -0.40 -1.05    -0.650 OA
DOCKED: BRANCH  40  42
DOCKED: ATOM     42  O   UNL d   1      15.144  15.849  10.054 +0.17 -1.12    -0.776 OA
DOCKED: ATOM     43  H   UNL d   1      14.334  15.624   9.579 +0.04 +0.26    +0.167 HD
DOCKED: ENDBRANCH  40  42
DOCKED: ENDBRANCH  39  40
DOCKED: ENDBRANCH  38  39
DOCKED: ENDBRANCH  22  38
DOCKED: BRANCH  12  44
DOCKED: ATOM     44  C   UNL d   1      15.527  15.215  -2.049 -0.22 -0.00    +0.004 C 
DOCKED: ATOM     45  C   UNL d   1      16.627  15.472  -2.756 -0.21 -0.00    +0.012 C 
DOCKED: ENDBRANCH  12  44
DOCKED: BRANCH  17  46
DOCKED: ATOM     46  C   UNL d   1      21.467  18.059   2.814 -0.04 -0.00    +0.004 C 
DOCKED: ATOM     47  C   UNL d   1      21.907  19.277   3.160 -0.03 -0.00    +0.012 C 
DOCKED: ENDBRANCH  17  46
DOCKED: TORSDOF 10
DOCKED: TER
DOCKED: ENDMDL
________________________________________________________________________________


	BEGINNING GENETIC ALGORITHM DOCKING 73 of 100
Run: 73 Seed: 333537255 998634981 [ Run 73 of 100 GA/GALS ]
Beginning LAMARCKIAN GENETIC ALGORITHM (LGA), with a maximum of 25000000 energy evaluations.

Final-Value: -11.110


	FINAL GENETIC ALGORITHM DOCKED STATE
	_______________________________________________


Detailed state:  trans 21.554 15.941 11.786 quatxyzw -0.205350 -0.252969 -0.357950 0.875048 center 8.287 34.468 -0.670 ntor 10 49.7684 -78.7217 121.6537 -120.2963 10.3183 177.8648 -126.9731 54.4601 173.9778 -56.2586
State:	 21.554  15.941  11.786  -0.424 -0.523 -0.740 57.899     49.77  -78.72  121.65 -120.30   10.32  177.86 -126.97   54.46  173.98  -56.26

DOCKED: MODEL       73
DOCKED: USER    Run = 73
DOCKED: USER    DPF = D:/Protein_go_brrr/autodock/final/6BB5/heme_O2/dock.dpf
DOCKED: USER  
DOCKED: USER    Estimated Free Energy of Binding    =   -7.57 kcal/mol  [=(1)+(2)+(3)-(4)]
DOCKED: USER    Estimated Inhibition Constant, Ki   =    2.83 uM (micromolar)  [Temperature = 298.15 K]
DOCKED: USER    
DOCKED: USER    (1) Final Intermolecular Energy     =  -10.55 kcal/mol
DOCKED: USER        vdW + Hbond + desolv Energy     =   -8.14 kcal/mol
DOCKED: USER        Electrostatic Energy            =   -2.42 kcal/mol
DOCKED: USER    (2) Final Total Internal Energy     =   -0.56 kcal/mol
DOCKED: USER    (3) Torsional Free Energy           =   +2.98 kcal/mol
DOCKED: USER    (4) Unbound System's Energy  [=(2)] =   -0.56 kcal/mol
DOCKED: USER    
DOCKED: USER    
DOCKED: USER    NEWDPF move heme_O2_opt.pdbqt
DOCKED: USER    NEWDPF about 8.287000 34.468000 -0.670000
DOCKED: USER    NEWDPF tran0 21.553658 15.941482 11.785759
DOCKED: USER    NEWDPF quaternion0 -0.205350 -0.252969 -0.357950 0.875048
DOCKED: USER    NEWDPF axisangle0 -0.424246 -0.522625 -0.739512 57.898641
DOCKED: USER    NEWDPF quat0 -0.424246 -0.522625 -0.739512 57.898641
DOCKED: USER    NEWDPF dihe0 49.77 -78.72 121.65 -120.30 10.32 177.86 -126.97 54.46 173.98 -56.26 
DOCKED: USER  keepresnum = 1 
DOCKED: USER  
DOCKED: REMARK  10 active torsions:
DOCKED: REMARK  status: ('A' for Active; 'I' for Inactive)
DOCKED: REMARK    1  A    between atoms: C_6  and  C_10 
DOCKED: REMARK    2  A    between atoms: C_10  and  C_11 
DOCKED: REMARK    3  A    between atoms: C_11  and  C_12 
DOCKED: REMARK    4  A    between atoms: C_12  and  O_14 
DOCKED: REMARK    5  A    between atoms: C_17  and  C_20 
DOCKED: REMARK    6  A    between atoms: C_24  and  C_27 
DOCKED: REMARK    7  A    between atoms: C_31  and  C_34 
DOCKED: REMARK    8  A    between atoms: C_34  and  C_35 
DOCKED: REMARK    9  A    between atoms: C_35  and  C_36 
DOCKED: REMARK   10  A    between atoms: C_36  and  O_38 
DOCKED: USER                              x       y       z     vdW  Elec       q    Type
DOCKED: USER                           _______ _______ _______ _____ _____    ______ ____
DOCKED: ROOT
DOCKED: ATOM      1  C   UNL d   1      19.616  15.115  12.034 -0.08 +0.03    +0.064 A 
DOCKED: ATOM      2  C   UNL d   1      23.950  13.514  13.133 -0.03 +0.01    +0.064 A 
DOCKED: ATOM      3  C   UNL d   1      25.976  17.470  11.303 -0.22 +0.02    +0.064 C 
DOCKED: ATOM      4  C   UNL d   1      21.495  19.340  10.600 -0.14 +0.01    +0.064 A 
DOCKED: ATOM      5  C   UNL d   1      20.629  14.358  12.484 -0.04 +0.03    +0.066 A 
DOCKED: ATOM      6  C   UNL d   1      20.466  13.100  13.072 -0.02 -0.01    -0.021 A 
DOCKED: ATOM      7  C   UNL d   1      21.717  12.655  13.430 -0.01 -0.01    -0.025 A 
DOCKED: ATOM      8  C   UNL d   1      22.615  13.631  13.006 -0.02 +0.02    +0.066 A 
DOCKED: ATOM      9  C   UNL d   1      21.998  11.364  14.168 +0.00 +0.01    +0.051 C 
DOCKED: ATOM     10  C   UNL d   1      24.943  14.494  12.688 -0.07 +0.02    +0.066 A 
DOCKED: ATOM     11  C   UNL d   1      26.321  14.251  12.694 -0.11 -0.01    -0.021 A 
DOCKED: ATOM     12  C   UNL d   1      26.921  15.373  12.153 -0.21 +0.00    +0.000 A 
DOCKED: ATOM     13  C   UNL d   1      25.852  16.262  11.852 -0.05 +0.02    +0.070 A 
DOCKED: ATOM     14  C   UNL d   1      27.033  12.990  13.170 -0.06 +0.01    +0.052 C 
DOCKED: ATOM     15  C   UNL d   1      24.923  18.414  11.015 -0.21 +0.01    +0.066 A 
DOCKED: ATOM     16  C   UNL d   1      25.131  19.726  10.592 -0.34 -0.00    -0.021 A 
DOCKED: ATOM     17  C   UNL d   1      23.868  20.280  10.386 -0.26 +0.00    +0.000 A 
DOCKED: ATOM     18  C   UNL d   1      22.971  19.249  10.701 -0.14 +0.01    +0.070 A 
DOCKED: ATOM     19  C   UNL d   1      26.502  20.345  10.477 -0.47 +0.01    +0.052 C 
DOCKED: ATOM     20  C   UNL d   1      20.605  18.386  10.935 -0.14 +0.02    +0.066 A 
DOCKED: ATOM     21  C   UNL d   1      19.226  18.524  10.802 -0.20 -0.01    -0.025 A 
DOCKED: ATOM     22  C   UNL d   1      18.676  17.320  11.180 -0.18 -0.01    -0.021 A 
DOCKED: ATOM     23  C   UNL d   1      19.743  16.495  11.549 -0.11 +0.03    +0.066 A 
DOCKED: ATOM     24  C   UNL d   1      18.472  19.744  10.340 -0.25 +0.01    +0.051 C 
DOCKED: ATOM     25  N   UNL d   1      21.939  14.709  12.483 -0.01 -0.08    -0.248 N 
DOCKED: ATOM     26  N   UNL d   1      24.652  15.721  12.185 -0.07 -0.06    -0.248 N 
DOCKED: ATOM     27  N   UNL d   1      23.627  18.149  11.152 -0.08 -0.05    -0.248 N 
DOCKED: ATOM     28  N   UNL d   1      20.910  17.162  11.442 -0.05 -0.09    -0.248 N 
DOCKED: ATOM     29 FE   UNL d   1      22.769  16.449  11.810 -0.02 +0.00    +0.000 Fe
DOCKED: ATOM     30  O   UNL d   1      22.865  16.263  13.352 -0.15 +0.00    +0.000 OA
DOCKED: ATOM     31  O   UNL d   1      22.541  17.685  12.756 -0.21 +0.00    +0.000 OA
DOCKED: ENDROOT
DOCKED: BRANCH   6  32
DOCKED: ATOM     32  C   UNL d   1      19.175  12.401  13.411 -0.04 +0.02    +0.052 C 
DOCKED: BRANCH  32  33
DOCKED: ATOM     33  C   UNL d   1      18.831  12.481  14.896 -0.07 +0.04    +0.115 C 
DOCKED: BRANCH  33  34
DOCKED: ATOM     34  C   UNL d   1      18.893  13.892  15.425 -0.13 +0.11    +0.139 C 
DOCKED: ATOM     35  O   UNL d   1      19.353  14.099  16.537 -0.03 -0.57    -0.650 OA
DOCKED: BRANCH  34  36
DOCKED: ATOM     36  O   UNL d   1      18.425  14.934  14.708 -0.45 -1.08    -0.776 OA
DOCKED: ATOM     37  H   UNL d   1      17.546  14.927  14.312 -0.54 +0.11    +0.167 HD
DOCKED: ENDBRANCH  34  36
DOCKED: ENDBRANCH  33  34
DOCKED: ENDBRANCH  32  33
DOCKED: ENDBRANCH   6  32
DOCKED: BRANCH  22  38
DOCKED: ATOM     38  C   UNL d   1      17.203  17.008  11.242 -0.27 +0.04    +0.052 C 
DOCKED: BRANCH  38  39
DOCKED: ATOM     39  C   UNL d   1      16.454  17.486  10.000 -0.20 +0.07    +0.115 C 
DOCKED: BRANCH  39  40
DOCKED: ATOM     40  C   UNL d   1      15.272  18.359  10.340 -0.33 +0.10    +0.139 C 
DOCKED: ATOM     41  O   UNL d   1      14.592  18.103  11.321 -0.55 -0.95    -0.650 OA
DOCKED: BRANCH  40  42
DOCKED: ATOM     42  O   UNL d   1      14.979  19.451   9.608 +0.10 -0.24    -0.776 OA
DOCKED: ATOM     43  H   UNL d   1      15.489  20.265   9.691 -0.33 -0.02    +0.167 HD
DOCKED: ENDBRANCH  40  42
DOCKED: ENDBRANCH  39  40
DOCKED: ENDBRANCH  38  39
DOCKED: ENDBRANCH  22  38
DOCKED: BRANCH  12  44
DOCKED: ATOM     44  C   UNL d   1      28.422  15.480  11.986 -0.30 +0.00    +0.004 C 
DOCKED: ATOM     45  C   UNL d   1      29.354  15.473  12.939 -0.33 +0.00    +0.012 C 
DOCKED: ENDBRANCH  12  44
DOCKED: BRANCH  17  46
DOCKED: ATOM     46  C   UNL d   1      23.451  21.670   9.987 -0.30 +0.00    +0.004 C 
DOCKED: ATOM     47  C   UNL d   1      22.580  22.482  10.600 -0.40 +0.00    +0.012 C 
DOCKED: ENDBRANCH  17  46
DOCKED: TORSDOF 10
DOCKED: TER
DOCKED: ENDMDL
________________________________________________________________________________


	BEGINNING GENETIC ALGORITHM DOCKING 74 of 100
Run: 74 Seed: 2130620103 336766330 [ Run 74 of 100 GA/GALS ]
Beginning LAMARCKIAN GENETIC ALGORITHM (LGA), with a maximum of 25000000 energy evaluations.

Final-Value: -20.399


	FINAL GENETIC ALGORITHM DOCKED STATE
	_______________________________________________


Detailed state:  trans 40.923 28.448 15.702 quatxyzw 0.341762 -0.401447 -0.848674 0.042331 center 8.287 34.468 -0.670 ntor 10 -123.1910 52.1029 38.2908 -101.1896 -7.7548 131.4077 -46.0023 8.0816 -162.0059 147.2581
State:	 40.923  28.448  15.702   0.342 -0.402 -0.849 175.148   -123.19   52.10   38.29 -101.19   -7.75  131.41  -46.00    8.08 -162.01  147.26

DOCKED: MODEL       74
DOCKED: USER    Run = 74
DOCKED: USER    DPF = D:/Protein_go_brrr/autodock/final/6BB5/heme_O2/dock.dpf
DOCKED: USER  
DOCKED: USER    Estimated Free Energy of Binding    =  -15.25 kcal/mol  [=(1)+(2)+(3)-(4)]
DOCKED: USER    Estimated Inhibition Constant, Ki   =    6.66 pM (picomolar)  [Temperature = 298.15 K]
DOCKED: USER    
DOCKED: USER    (1) Final Intermolecular Energy     =  -18.23 kcal/mol
DOCKED: USER        vdW + Hbond + desolv Energy     =  -16.22 kcal/mol
DOCKED: USER        Electrostatic Energy            =   -2.01 kcal/mol
DOCKED: USER    (2) Final Total Internal Energy     =   -2.17 kcal/mol
DOCKED: USER    (3) Torsional Free Energy           =   +2.98 kcal/mol
DOCKED: USER    (4) Unbound System's Energy  [=(2)] =   -2.17 kcal/mol
DOCKED: USER    
DOCKED: USER    
DOCKED: USER    NEWDPF move heme_O2_opt.pdbqt
DOCKED: USER    NEWDPF about 8.287000 34.468000 -0.670000
DOCKED: USER    NEWDPF tran0 40.923283 28.448310 15.702135
DOCKED: USER    NEWDPF quaternion0 0.341762 -0.401447 -0.848674 0.042331
DOCKED: USER    NEWDPF axisangle0 0.342069 -0.401807 -0.849435 175.147782
DOCKED: USER    NEWDPF quat0 0.342069 -0.401807 -0.849435 175.147782
DOCKED: USER    NEWDPF dihe0 -123.19 52.10 38.29 -101.19 -7.75 131.41 -46.00 8.08 -162.01 147.26 
DOCKED: USER  keepresnum = 1 
DOCKED: USER  
DOCKED: REMARK  10 active torsions:
DOCKED: REMARK  status: ('A' for Active; 'I' for Inactive)
DOCKED: REMARK    1  A    between atoms: C_6  and  C_10 
DOCKED: REMARK    2  A    between atoms: C_10  and  C_11 
DOCKED: REMARK    3  A    between atoms: C_11  and  C_12 
DOCKED: REMARK    4  A    between atoms: C_12  and  O_14 
DOCKED: REMARK    5  A    between atoms: C_17  and  C_20 
DOCKED: REMARK    6  A    between atoms: C_24  and  C_27 
DOCKED: REMARK    7  A    between atoms: C_31  and  C_34 
DOCKED: REMARK    8  A    between atoms: C_34  and  C_35 
DOCKED: REMARK    9  A    between atoms: C_35  and  C_36 
DOCKED: REMARK   10  A    between atoms: C_36  and  O_38 
DOCKED: USER                              x       y       z     vdW  Elec       q    Type
DOCKED: USER                           _______ _______ _______ _____ _____    ______ ____
DOCKED: ROOT
DOCKED: ATOM      1  C   UNL d   1      42.578  27.853  16.888 -0.19 +0.02    +0.064 A 
DOCKED: ATOM      2  C   UNL d   1      40.602  32.086  16.033 -0.39 +0.01    +0.064 A 
DOCKED: ATOM      3  C   UNL d   1      37.360  30.085  13.105 -0.41 +0.01    +0.064 C 
DOCKED: ATOM      4  C   UNL d   1      39.085  25.664  14.350 -0.39 +0.01    +0.064 A 
DOCKED: ATOM      5  C   UNL d   1      42.304  29.168  16.896 -0.25 +0.02    +0.066 A 
DOCKED: ATOM      6  C   UNL d   1      43.039  30.116  17.613 -0.33 -0.01    -0.021 A 
DOCKED: ATOM      7  C   UNL d   1      42.441  31.336  17.401 -0.40 -0.00    -0.025 A 
DOCKED: ATOM      8  C   UNL d   1      41.387  31.107  16.521 -0.35 +0.01    +0.066 A 
DOCKED: ATOM      9  C   UNL d   1      42.869  32.634  18.051 -0.46 +0.01    +0.051 C 
DOCKED: ATOM     10  C   UNL d   1      39.496  31.910  15.091 -0.37 +0.01    +0.066 A 
DOCKED: ATOM     11  C   UNL d   1      38.819  32.977  14.490 -0.39 -0.00    -0.021 A 
DOCKED: ATOM     12  C   UNL d   1      37.892  32.420  13.629 -0.41 +0.00    +0.000 A 
DOCKED: ATOM     13  C   UNL d   1      38.051  31.013  13.765 -0.37 +0.01    +0.070 A 
DOCKED: ATOM     14  C   UNL d   1      39.065  34.466  14.709 -0.51 +0.00    +0.052 C 
DOCKED: ATOM     15  C   UNL d   1      37.466  28.652  13.240 -0.40 +0.01    +0.066 A 
DOCKED: ATOM     16  C   UNL d   1      36.601  27.735  12.643 -0.52 -0.00    -0.021 A 
DOCKED: ATOM     17  C   UNL d   1      37.073  26.468  12.984 -0.47 +0.00    +0.000 A 
DOCKED: ATOM     18  C   UNL d   1      38.207  26.710  13.773 -0.38 +0.01    +0.070 A 
DOCKED: ATOM     19  C   UNL d   1      35.383  28.146  11.854 -0.60 +0.00    +0.052 C 
DOCKED: ATOM     20  C   UNL d   1      40.154  25.860  15.146 -0.38 +0.01    +0.066 A 
DOCKED: ATOM     21  C   UNL d   1      40.953  24.836  15.645 -0.42 -0.00    -0.025 A 
DOCKED: ATOM     22  C   UNL d   1      41.970  25.443  16.348 -0.37 -0.00    -0.021 A 
DOCKED: ATOM     23  C   UNL d   1      41.742  26.820  16.267 -0.34 +0.01    +0.066 A 
DOCKED: ATOM     24  C   UNL d   1      40.756  23.353  15.462 -0.52 +0.00    +0.051 C 
DOCKED: ATOM     25  N   UNL d   1      41.263  29.761  16.262 -0.10 -0.06    -0.248 N 
DOCKED: ATOM     26  N   UNL d   1      39.026  30.712  14.660 -0.18 -0.05    -0.248 N 
DOCKED: ATOM     27  N   UNL d   1      38.386  28.039  13.979 -0.22 -0.05    -0.248 N 
DOCKED: ATOM     28  N   UNL d   1      40.611  27.067  15.573 -0.26 -0.05    -0.248 N 
DOCKED: ATOM     29 FE   UNL d   1      39.822  28.875  15.118 -0.06 +0.00    +0.000 Fe
DOCKED: ATOM     30  O   UNL d   1      39.288  29.465  16.456 -0.69 +0.00    +0.000 OA
DOCKED: ATOM     31  O   UNL d   1      38.741  28.081  15.939 -0.82 +0.00    +0.000 OA
DOCKED: ENDROOT
DOCKED: BRANCH   6  32
DOCKED: ATOM     32  C   UNL d   1      44.175  29.871  18.572 -0.30 +0.02    +0.052 C 
DOCKED: BRANCH  32  33
DOCKED: ATOM     33  C   UNL d   1      43.703  29.394  19.941 +0.10 +0.08    +0.115 C 
DOCKED: BRANCH  33  34
DOCKED: ATOM     34  C   UNL d   1      44.466  28.186  20.425 -0.05 +0.16    +0.139 C 
DOCKED: ATOM     35  O   UNL d   1      43.976  27.464  21.278 -0.37 -1.16    -0.650 OA
DOCKED: BRANCH  34  36
DOCKED: ATOM     36  O   UNL d   1      45.697  27.898  19.954 -0.00 -0.65    -0.776 OA
DOCKED: ATOM     37  H   UNL d   1      45.900  27.052  19.537 +0.04 +0.11    +0.167 HD
DOCKED: ENDBRANCH  34  36
DOCKED: ENDBRANCH  33  34
DOCKED: ENDBRANCH  32  33
DOCKED: ENDBRANCH   6  32
DOCKED: BRANCH  22  38
DOCKED: ATOM     38  C   UNL d   1      43.060  24.730  17.107 -0.33 +0.01    +0.052 C 
DOCKED: BRANCH  38  39
DOCKED: ATOM     39  C   UNL d   1      42.921  24.898  18.618 -0.32 +0.04    +0.115 C 
DOCKED: BRANCH  39  40
DOCKED: ATOM     40  C   UNL d   1      44.098  24.329  19.371 -0.23 +0.06    +0.139 C 
DOCKED: ATOM     41  O   UNL d   1      44.130  23.139  19.637 -0.44 -0.29    -0.650 OA
DOCKED: BRANCH  40  42
DOCKED: ATOM     42  O   UNL d   1      45.144  25.105  19.714 +0.10 -0.42    -0.776 OA
DOCKED: ATOM     43  H   UNL d   1      45.026  25.917  20.222 +0.06 +0.12    +0.167 HD
DOCKED: ENDBRANCH  40  42
DOCKED: ENDBRANCH  39  40
DOCKED: ENDBRANCH  38  39
DOCKED: ENDBRANCH  22  38
DOCKED: BRANCH  12  44
DOCKED: ATOM     44  C   UNL d   1      36.967  33.271  12.784 -0.51 +0.00    +0.004 C 
DOCKED: ATOM     45  C   UNL d   1      35.712  33.005  12.422 -0.64 +0.00    +0.012 C 
DOCKED: ENDBRANCH  12  44
DOCKED: BRANCH  17  46
DOCKED: ATOM     46  C   UNL d   1      36.527  25.097  12.687 -0.67 +0.00    +0.004 C 
DOCKED: ATOM     47  C   UNL d   1      35.938  24.239  13.529 -0.73 +0.00    +0.012 C 
DOCKED: ENDBRANCH  17  46
DOCKED: TORSDOF 10
DOCKED: TER
DOCKED: ENDMDL
________________________________________________________________________________


	BEGINNING GENETIC ALGORITHM DOCKING 75 of 100
Run: 75 Seed: 1002058872 624120715 [ Run 75 of 100 GA/GALS ]
Beginning LAMARCKIAN GENETIC ALGORITHM (LGA), with a maximum of 25000000 energy evaluations.

Final-Value: -18.788


	FINAL GENETIC ALGORITHM DOCKED STATE
	_______________________________________________


Detailed state:  trans 8.258 34.699 -1.032 quatxyzw 0.028727 0.029496 0.008267 0.999118 center 8.287 34.468 -0.670 ntor 10 -125.0064 -48.3840 -28.1181 -50.8789 -29.7806 -47.5509 -48.7926 -6.6025 -177.1008 28.8795
State:	  8.258  34.699  -1.032   0.684  0.702  0.197  4.814   -125.01  -48.38  -28.12  -50.88  -29.78  -47.55  -48.79   -6.60 -177.10   28.88

DOCKED: MODEL       75
DOCKED: USER    Run = 75
DOCKED: USER    DPF = D:/Protein_go_brrr/autodock/final/6BB5/heme_O2/dock.dpf
DOCKED: USER  
DOCKED: USER    Estimated Free Energy of Binding    =  -14.25 kcal/mol  [=(1)+(2)+(3)-(4)]
DOCKED: USER    Estimated Inhibition Constant, Ki   =   35.79 pM (picomolar)  [Temperature = 298.15 K]
DOCKED: USER    
DOCKED: USER    (1) Final Intermolecular Energy     =  -17.23 kcal/mol
DOCKED: USER        vdW + Hbond + desolv Energy     =  -15.96 kcal/mol
DOCKED: USER        Electrostatic Energy            =   -1.27 kcal/mol
DOCKED: USER    (2) Final Total Internal Energy     =   -1.55 kcal/mol
DOCKED: USER    (3) Torsional Free Energy           =   +2.98 kcal/mol
DOCKED: USER    (4) Unbound System's Energy  [=(2)] =   -1.55 kcal/mol
DOCKED: USER    
DOCKED: USER    
DOCKED: USER    NEWDPF move heme_O2_opt.pdbqt
DOCKED: USER    NEWDPF about 8.287000 34.468000 -0.670000
DOCKED: USER    NEWDPF tran0 8.258002 34.699028 -1.031841
DOCKED: USER    NEWDPF quaternion0 0.028727 0.029496 0.008267 0.999118
DOCKED: USER    NEWDPF axisangle0 0.684059 0.702358 0.196868 4.813688
DOCKED: USER    NEWDPF quat0 0.684059 0.702358 0.196868 4.813688
DOCKED: USER    NEWDPF dihe0 -125.01 -48.38 -28.12 -50.88 -29.78 -47.55 -48.79 -6.60 -177.10 28.88 
DOCKED: USER  keepresnum = 1 
DOCKED: USER  
DOCKED: REMARK  10 active torsions:
DOCKED: REMARK  status: ('A' for Active; 'I' for Inactive)
DOCKED: REMARK    1  A    between atoms: C_6  and  C_10 
DOCKED: REMARK    2  A    between atoms: C_10  and  C_11 
DOCKED: REMARK    3  A    between atoms: C_11  and  C_12 
DOCKED: REMARK    4  A    between atoms: C_12  and  O_14 
DOCKED: REMARK    5  A    between atoms: C_17  and  C_20 
DOCKED: REMARK    6  A    between atoms: C_24  and  C_27 
DOCKED: REMARK    7  A    between atoms: C_31  and  C_34 
DOCKED: REMARK    8  A    between atoms: C_34  and  C_35 
DOCKED: REMARK    9  A    between atoms: C_35  and  C_36 
DOCKED: REMARK   10  A    between atoms: C_36  and  O_38 
DOCKED: USER                              x       y       z     vdW  Elec       q    Type
DOCKED: USER                           _______ _______ _______ _____ _____    ______ ____
DOCKED: ROOT
DOCKED: ATOM      1  C   UNL d   1       6.449  35.281  -1.974 -0.23 +0.01    +0.064 A 
DOCKED: ATOM      2  C   UNL d   1       7.356  32.756   1.945 -0.38 +0.01    +0.064 A 
DOCKED: ATOM      3  C   UNL d   1      12.090  33.192   1.242 -0.41 +0.00    +0.064 C 
DOCKED: ATOM      4  C   UNL d   1      11.171  36.195  -2.527 -0.44 +0.00    +0.064 A 
DOCKED: ATOM      5  C   UNL d   1       6.309  34.561  -0.850 -0.26 +0.01    +0.066 A 
DOCKED: ATOM      6  C   UNL d   1       5.076  34.187  -0.308 -0.28 -0.00    -0.021 A 
DOCKED: ATOM      7  C   UNL d   1       5.337  33.493   0.851 -0.34 -0.00    -0.025 A 
DOCKED: ATOM      8  C   UNL d   1       6.723  33.420   0.958 -0.33 +0.01    +0.066 A 
DOCKED: ATOM      9  C   UNL d   1       4.283  32.966   1.800 -0.38 +0.00    +0.051 C 
DOCKED: ATOM     10  C   UNL d   1       8.805  32.625   2.098 -0.36 +0.00    +0.066 A 
DOCKED: ATOM     11  C   UNL d   1       9.407  31.790   3.046 -0.44 -0.00    -0.021 A 
DOCKED: ATOM     12  C   UNL d   1      10.772  31.888   2.847 -0.43 +0.00    +0.000 A 
DOCKED: ATOM     13  C   UNL d   1      10.929  32.808   1.773 -0.36 +0.00    +0.070 A 
DOCKED: ATOM     14  C   UNL d   1       8.708  30.914   4.079 -0.57 +0.00    +0.052 C 
DOCKED: ATOM     15  C   UNL d   1      12.293  34.146   0.179 -0.36 +0.00    +0.066 A 
DOCKED: ATOM     16  C   UNL d   1      13.539  34.630  -0.221 -0.44 -0.00    -0.021 A 
DOCKED: ATOM     17  C   UNL d   1      13.302  35.489  -1.295 -0.46 +0.00    +0.000 A 
DOCKED: ATOM     18  C   UNL d   1      11.911  35.463  -1.472 -0.39 +0.00    +0.070 A 
DOCKED: ATOM     19  C   UNL d   1      14.824  34.276   0.484 -0.59 +0.00    +0.052 C 
DOCKED: ATOM     20  C   UNL d   1       9.836  36.226  -2.699 -0.41 +0.00    +0.066 A 
DOCKED: ATOM     21  C   UNL d   1       9.197  36.920  -3.723 -0.38 +0.00    -0.025 A 
DOCKED: ATOM     22  C   UNL d   1       7.853  36.649  -3.597 -0.30 -0.00    -0.021 A 
DOCKED: ATOM     23  C   UNL d   1       7.719  35.811  -2.486 -0.33 +0.01    +0.066 A 
DOCKED: ATOM     24  C   UNL d   1       9.836  37.799  -4.766 -0.47 -0.01    +0.051 C 
DOCKED: ATOM     25  N   UNL d   1       7.321  34.134  -0.055 -0.18 -0.04    -0.248 N 
DOCKED: ATOM     26  N   UNL d   1       9.728  33.255   1.327 -0.13 -0.03    -0.248 N 
DOCKED: ATOM     27  N   UNL d   1      11.309  34.702  -0.522 -0.18 -0.03    -0.248 N 
DOCKED: ATOM     28  N   UNL d   1       8.922  35.593  -1.916 -0.23 -0.03    -0.248 N 
DOCKED: ATOM     29 FE   UNL d   1       9.325  34.433  -0.307 +0.04 +0.00    +0.000 Fe
DOCKED: ATOM     30  O   UNL d   1       8.729  35.176   0.925 -0.87 +0.00    +0.000 OA
DOCKED: ATOM     31  O   UNL d   1       9.810  35.891   0.029 -1.13 +0.00    +0.000 OA
DOCKED: ENDROOT
DOCKED: BRANCH   6  32
DOCKED: ATOM     32  C   UNL d   1       3.702  34.583  -0.782 -0.22 +0.01    +0.052 C 
DOCKED: BRANCH  32  33
DOCKED: ATOM     33  C   UNL d   1       3.163  35.820  -0.069 -0.19 +0.06    +0.115 C 
DOCKED: BRANCH  33  34
DOCKED: ATOM     34  C   UNL d   1       2.666  36.868  -1.033 -0.18 +0.10    +0.139 C 
DOCKED: ATOM     35  O   UNL d   1       2.194  37.908  -0.603 -0.49 -1.01    -0.650 OA
DOCKED: BRANCH  34  36
DOCKED: ATOM     36  O   UNL d   1       2.705  36.672  -2.368 +0.05 -0.29    -0.776 OA
DOCKED: ATOM     37  H   UNL d   1       3.146  37.289  -2.962 +0.04 +0.05    +0.167 HD
DOCKED: ENDBRANCH  34  36
DOCKED: ENDBRANCH  33  34
DOCKED: ENDBRANCH  32  33
DOCKED: ENDBRANCH   6  32
DOCKED: BRANCH  22  38
DOCKED: ATOM     38  C   UNL d   1       6.757  37.219  -4.461 -0.23 +0.00    +0.052 C 
DOCKED: BRANCH  38  39
DOCKED: ATOM     39  C   UNL d   1       5.807  36.142  -4.982 -0.21 +0.01    +0.115 C 
DOCKED: BRANCH  39  40
DOCKED: ATOM     40  C   UNL d   1       4.609  36.724  -5.688 -0.11 +0.01    +0.139 C 
DOCKED: ATOM     41  O   UNL d   1       4.608  36.815  -6.905 +0.01 -0.05    -0.650 OA
DOCKED: BRANCH  40  42
DOCKED: ATOM     42  O   UNL d   1       3.512  37.101  -5.003 +0.04 -0.11    -0.776 OA
DOCKED: ATOM     43  H   UNL d   1       3.128  36.541  -4.318 +0.03 +0.03    +0.167 HD
DOCKED: ENDBRANCH  40  42
DOCKED: ENDBRANCH  39  40
DOCKED: ENDBRANCH  38  39
DOCKED: ENDBRANCH  22  38
DOCKED: BRANCH  12  44
DOCKED: ATOM     44  C   UNL d   1      11.764  31.112   3.688 -0.52 +0.00    +0.004 C 
DOCKED: ATOM     45  C   UNL d   1      12.947  30.624   3.316 -0.65 +0.00    +0.012 C 
DOCKED: ENDBRANCH  12  44
DOCKED: BRANCH  17  46
DOCKED: ATOM     46  C   UNL d   1      14.241  36.346  -2.100 -0.63 +0.00    +0.004 C 
DOCKED: ATOM     47  C   UNL d   1      15.064  37.309  -1.664 -0.67 +0.00    +0.012 C 
DOCKED: ENDBRANCH  17  46
DOCKED: TORSDOF 10
DOCKED: TER
DOCKED: ENDMDL
________________________________________________________________________________


	BEGINNING GENETIC ALGORITHM DOCKING 76 of 100
Run: 76 Seed: 1564436038 1183530925 [ Run 76 of 100 GA/GALS ]
Beginning LAMARCKIAN GENETIC ALGORITHM (LGA), with a maximum of 25000000 energy evaluations.

Final-Value: -19.504


	FINAL GENETIC ALGORITHM DOCKED STATE
	_______________________________________________


Detailed state:  trans 40.853 28.644 15.719 quatxyzw -0.362532 0.396189 0.843563 -0.002619 center 8.287 34.468 -0.670 ntor 10 -5.8500 140.0700 33.9315 -52.9655 35.2791 -5.3498 11.6247 64.5317 -17.5441 154.1934
State:	 40.853  28.644  15.719  -0.363  0.396  0.844 -179.700     -5.85  140.07   33.93  -52.97   35.28   -5.35   11.62   64.53  -17.54  154.19

DOCKED: MODEL       76
DOCKED: USER    Run = 76
DOCKED: USER    DPF = D:/Protein_go_brrr/autodock/final/6BB5/heme_O2/dock.dpf
DOCKED: USER  
DOCKED: USER    Estimated Free Energy of Binding    =  -14.32 kcal/mol  [=(1)+(2)+(3)-(4)]
DOCKED: USER    Estimated Inhibition Constant, Ki   =   31.85 pM (picomolar)  [Temperature = 298.15 K]
DOCKED: USER    
DOCKED: USER    (1) Final Intermolecular Energy     =  -17.30 kcal/mol
DOCKED: USER        vdW + Hbond + desolv Energy     =  -15.94 kcal/mol
DOCKED: USER        Electrostatic Energy            =   -1.37 kcal/mol
DOCKED: USER    (2) Final Total Internal Energy     =   -2.20 kcal/mol
DOCKED: USER    (3) Torsional Free Energy           =   +2.98 kcal/mol
DOCKED: USER    (4) Unbound System's Energy  [=(2)] =   -2.20 kcal/mol
DOCKED: USER    
DOCKED: USER    
DOCKED: USER    NEWDPF move heme_O2_opt.pdbqt
DOCKED: USER    NEWDPF about 8.287000 34.468000 -0.670000
DOCKED: USER    NEWDPF tran0 40.853164 28.643666 15.719288
DOCKED: USER    NEWDPF quaternion0 -0.362532 0.396189 0.843563 -0.002619
DOCKED: USER    NEWDPF axisangle0 -0.362533 0.396190 0.843566 -179.699888
DOCKED: USER    NEWDPF quat0 -0.362533 0.396190 0.843566 -179.699888
DOCKED: USER    NEWDPF dihe0 -5.85 140.07 33.93 -52.97 35.28 -5.35 11.62 64.53 -17.54 154.19 
DOCKED: USER  keepresnum = 1 
DOCKED: USER  
DOCKED: REMARK  10 active torsions:
DOCKED: REMARK  status: ('A' for Active; 'I' for Inactive)
DOCKED: REMARK    1  A    between atoms: C_6  and  C_10 
DOCKED: REMARK    2  A    between atoms: C_10  and  C_11 
DOCKED: REMARK    3  A    between atoms: C_11  and  C_12 
DOCKED: REMARK    4  A    between atoms: C_12  and  O_14 
DOCKED: REMARK    5  A    between atoms: C_17  and  C_20 
DOCKED: REMARK    6  A    between atoms: C_24  and  C_27 
DOCKED: REMARK    7  A    between atoms: C_31  and  C_34 
DOCKED: REMARK    8  A    between atoms: C_34  and  C_35 
DOCKED: REMARK    9  A    between atoms: C_35  and  C_36 
DOCKED: REMARK   10  A    between atoms: C_36  and  O_38 
DOCKED: USER                              x       y       z     vdW  Elec       q    Type
DOCKED: USER                           _______ _______ _______ _____ _____    ______ ____
DOCKED: ROOT
DOCKED: ATOM      1  C   UNL d   1      42.544  28.223  16.930 -0.14 +0.02    +0.064 A 
DOCKED: ATOM      2  C   UNL d   1      40.213  32.247  15.960 -0.39 +0.01    +0.064 A 
DOCKED: ATOM      3  C   UNL d   1      37.182  29.901  13.060 -0.41 +0.01    +0.064 C 
DOCKED: ATOM      4  C   UNL d   1      39.275  25.679  14.424 -0.39 +0.01    +0.064 A 
DOCKED: ATOM      5  C   UNL d   1      42.156  29.509  16.904 -0.27 +0.01    +0.066 A 
DOCKED: ATOM      6  C   UNL d   1      42.799  30.535  17.602 -0.35 -0.00    -0.021 A 
DOCKED: ATOM      7  C   UNL d   1      42.100  31.693  17.357 -0.43 -0.00    -0.025 A 
DOCKED: ATOM      8  C   UNL d   1      41.077  31.351  16.476 -0.37 +0.01    +0.066 A 
DOCKED: ATOM      9  C   UNL d   1      42.407  33.038  17.977 -0.46 +0.00    +0.051 C 
DOCKED: ATOM     10  C   UNL d   1      39.135  31.952  15.015 -0.37 +0.01    +0.066 A 
DOCKED: ATOM     11  C   UNL d   1      38.373  32.942  14.384 -0.39 -0.00    -0.021 A 
DOCKED: ATOM     12  C   UNL d   1      37.505  32.286  13.531 -0.40 +0.00    +0.000 A 
DOCKED: ATOM     13  C   UNL d   1      37.785  30.902  13.702 -0.34 +0.01    +0.070 A 
DOCKED: ATOM     14  C   UNL d   1      38.486  34.451  14.568 -0.49 +0.00    +0.052 C 
DOCKED: ATOM     15  C   UNL d   1      37.412  28.486  13.231 -0.40 +0.01    +0.066 A 
DOCKED: ATOM     16  C   UNL d   1      36.635  27.484  12.651 -0.51 -0.00    -0.021 A 
DOCKED: ATOM     17  C   UNL d   1      37.213  26.271  13.027 -0.47 +0.00    +0.000 A 
DOCKED: ATOM     18  C   UNL d   1      38.314  26.629  13.816 -0.38 +0.01    +0.070 A 
DOCKED: ATOM     19  C   UNL d   1      35.393  27.768  11.845 -0.58 +0.00    +0.052 C 
DOCKED: ATOM     20  C   UNL d   1      40.316  25.986  15.221 -0.40 +0.01    +0.066 A 
DOCKED: ATOM     21  C   UNL d   1      41.198  25.047  15.750 -0.41 -0.00    -0.025 A 
DOCKED: ATOM     22  C   UNL d   1      42.152  25.757  16.444 -0.35 -0.00    -0.021 A 
DOCKED: ATOM     23  C   UNL d   1      41.805  27.106  16.329 -0.32 +0.01    +0.066 A 
DOCKED: ATOM     24  C   UNL d   1      41.132  23.549  15.603 -0.53 +0.01    +0.051 C 
DOCKED: ATOM     25  N   UNL d   1      41.072  29.994  16.250 -0.13 -0.06    -0.248 N 
DOCKED: ATOM     26  N   UNL d   1      38.775  30.708  14.610 -0.22 -0.04    -0.248 N 
DOCKED: ATOM     27  N   UNL d   1      38.376  27.974  13.991 -0.22 -0.05    -0.248 N 
DOCKED: ATOM     28  N   UNL d   1      40.664  27.238  15.622 -0.25 -0.06    -0.248 N 
DOCKED: ATOM     29 FE   UNL d   1      39.724  28.958  15.119 -0.08 +0.00    +0.000 Fe
DOCKED: ATOM     30  O   UNL d   1      39.129  29.531  16.438 -0.65 +0.00    +0.000 OA
DOCKED: ATOM     31  O   UNL d   1      38.709  28.093  15.951 -0.82 +0.00    +0.000 OA
DOCKED: ENDROOT
DOCKED: BRANCH   6  32
DOCKED: ATOM     32  C   UNL d   1      43.945  30.413  18.573 -0.33 +0.02    +0.052 C 
DOCKED: BRANCH  32  33
DOCKED: ATOM     33  C   UNL d   1      45.237  29.945  17.910 -0.20 +0.04    +0.115 C 
DOCKED: BRANCH  33  34
DOCKED: ATOM     34  C   UNL d   1      46.311  29.609  18.915 -0.14 +0.06    +0.139 C 
DOCKED: ATOM     35  O   UNL d   1      47.337  30.268  18.944 +0.02 -0.23    -0.650 OA
DOCKED: BRANCH  34  36
DOCKED: ATOM     36  O   UNL d   1      46.175  28.573  19.769 +0.02 -0.54    -0.776 OA
DOCKED: ATOM     37  H   UNL d   1      45.360  28.061  19.825 +0.05 +0.14    +0.167 HD
DOCKED: ENDBRANCH  34  36
DOCKED: ENDBRANCH  33  34
DOCKED: ENDBRANCH  32  33
DOCKED: ENDBRANCH   6  32
DOCKED: BRANCH  22  38
DOCKED: ATOM     38  C   UNL d   1      43.293  25.161  17.227 -0.31 +0.01    +0.052 C 
DOCKED: BRANCH  38  39
DOCKED: ATOM     39  C   UNL d   1      43.049  25.200  18.734 -0.31 +0.04    +0.115 C 
DOCKED: BRANCH  39  40
DOCKED: ATOM     40  C   UNL d   1      44.053  26.060  19.459 -0.21 +0.08    +0.139 C 
DOCKED: ATOM     41  O   UNL d   1      43.685  26.788  20.366 -0.11 -0.57    -0.650 OA
DOCKED: BRANCH  40  42
DOCKED: ATOM     42  O   UNL d   1      45.365  26.002  19.157 +0.09 -0.42    -0.776 OA
DOCKED: ATOM     43  H   UNL d   1      45.919  26.792  19.162 +0.05 +0.09    +0.167 HD
DOCKED: ENDBRANCH  40  42
DOCKED: ENDBRANCH  39  40
DOCKED: ENDBRANCH  38  39
DOCKED: ENDBRANCH  22  38
DOCKED: BRANCH  12  44
DOCKED: ATOM     44  C   UNL d   1      36.516  33.033  12.660 -0.55 +0.00    +0.004 C 
DOCKED: ATOM     45  C   UNL d   1      35.325  32.616  12.231 -0.68 +0.00    +0.012 C 
DOCKED: ENDBRANCH  12  44
DOCKED: BRANCH  17  46
DOCKED: ATOM     46  C   UNL d   1      36.791  24.851  12.759 -0.68 +0.00    +0.004 C 
DOCKED: ATOM     47  C   UNL d   1      35.645  24.248  13.102 -0.74 +0.00    +0.012 C 
DOCKED: ENDBRANCH  17  46
DOCKED: TORSDOF 10
DOCKED: TER
DOCKED: ENDMDL
________________________________________________________________________________


	BEGINNING GENETIC ALGORITHM DOCKING 77 of 100
Run: 77 Seed: 1310872522 603932358 [ Run 77 of 100 GA/GALS ]
Beginning LAMARCKIAN GENETIC ALGORITHM (LGA), with a maximum of 25000000 energy evaluations.

Final-Value: -20.433


	FINAL GENETIC ALGORITHM DOCKED STATE
	_______________________________________________


Detailed state:  trans 41.204 28.560 15.809 quatxyzw 0.339505 -0.393900 -0.853894 0.021078 center 8.287 34.468 -0.670 ntor 10 53.1496 -145.1516 29.5233 -74.2488 161.3535 140.4686 -9.2104 62.7921 -132.3496 -180.0000
State:	 41.204  28.560  15.809   0.340 -0.394 -0.854 177.584     53.15 -145.15   29.52  -74.25  161.35  140.47   -9.21   62.79 -132.35 -180.00

DOCKED: MODEL       77
DOCKED: USER    Run = 77
DOCKED: USER    DPF = D:/Protein_go_brrr/autodock/final/6BB5/heme_O2/dock.dpf
DOCKED: USER  
DOCKED: USER    Estimated Free Energy of Binding    =  -15.32 kcal/mol  [=(1)+(2)+(3)-(4)]
DOCKED: USER    Estimated Inhibition Constant, Ki   =    5.86 pM (picomolar)  [Temperature = 298.15 K]
DOCKED: USER    
DOCKED: USER    (1) Final Intermolecular Energy     =  -18.31 kcal/mol
DOCKED: USER        vdW + Hbond + desolv Energy     =  -16.23 kcal/mol
DOCKED: USER        Electrostatic Energy            =   -2.07 kcal/mol
DOCKED: USER    (2) Final Total Internal Energy     =   -2.13 kcal/mol
DOCKED: USER    (3) Torsional Free Energy           =   +2.98 kcal/mol
DOCKED: USER    (4) Unbound System's Energy  [=(2)] =   -2.13 kcal/mol
DOCKED: USER    
DOCKED: USER    
DOCKED: USER    NEWDPF move heme_O2_opt.pdbqt
DOCKED: USER    NEWDPF about 8.287000 34.468000 -0.670000
DOCKED: USER    NEWDPF tran0 41.204203 28.560416 15.809387
DOCKED: USER    NEWDPF quaternion0 0.339505 -0.393900 -0.853894 0.021078
DOCKED: USER    NEWDPF axisangle0 0.339581 -0.393987 -0.854084 177.584426
DOCKED: USER    NEWDPF quat0 0.339581 -0.393987 -0.854084 177.584426
DOCKED: USER    NEWDPF dihe0 53.15 -145.15 29.52 -74.25 161.35 140.47 -9.21 62.79 -132.35 -180.00 
DOCKED: USER  keepresnum = 1 
DOCKED: USER  
DOCKED: REMARK  10 active torsions:
DOCKED: REMARK  status: ('A' for Active; 'I' for Inactive)
DOCKED: REMARK    1  A    between atoms: C_6  and  C_10 
DOCKED: REMARK    2  A    between atoms: C_10  and  C_11 
DOCKED: REMARK    3  A    between atoms: C_11  and  C_12 
DOCKED: REMARK    4  A    between atoms: C_12  and  O_14 
DOCKED: REMARK    5  A    between atoms: C_17  and  C_20 
DOCKED: REMARK    6  A    between atoms: C_24  and  C_27 
DOCKED: REMARK    7  A    between atoms: C_31  and  C_34 
DOCKED: REMARK    8  A    between atoms: C_34  and  C_35 
DOCKED: REMARK    9  A    between atoms: C_35  and  C_36 
DOCKED: REMARK   10  A    between atoms: C_36  and  O_38 
DOCKED: USER                              x       y       z     vdW  Elec       q    Type
DOCKED: USER                           _______ _______ _______ _____ _____    ______ ____
DOCKED: ROOT
DOCKED: ATOM      1  C   UNL d   1      42.909  28.029  16.954 -0.21 +0.02    +0.064 A 
DOCKED: ATOM      2  C   UNL d   1      40.746  32.182  16.160 -0.40 +0.01    +0.064 A 
DOCKED: ATOM      3  C   UNL d   1      37.517  30.059  13.302 -0.41 +0.01    +0.064 C 
DOCKED: ATOM      4  C   UNL d   1      39.446  25.708  14.492 -0.40 +0.01    +0.064 A 
DOCKED: ATOM      5  C   UNL d   1      42.583  29.332  16.972 -0.27 +0.02    +0.066 A 
DOCKED: ATOM      6  C   UNL d   1      43.297  30.307  17.675 -0.32 -0.01    -0.021 A 
DOCKED: ATOM      7  C   UNL d   1      42.646  31.503  17.481 -0.39 -0.00    -0.025 A 
DOCKED: ATOM      8  C   UNL d   1      41.581  31.233  16.626 -0.36 +0.01    +0.066 A 
DOCKED: ATOM      9  C   UNL d   1      43.037  32.815  18.124 -0.45 +0.01    +0.051 C 
DOCKED: ATOM     10  C   UNL d   1      39.626  31.964  15.243 -0.37 +0.01    +0.066 A 
DOCKED: ATOM     11  C   UNL d   1      38.893  33.004  14.662 -0.40 -0.00    -0.021 A 
DOCKED: ATOM     12  C   UNL d   1      37.969  32.413  13.821 -0.40 +0.00    +0.000 A 
DOCKED: ATOM     13  C   UNL d   1      38.187  31.013  13.949 -0.37 +0.01    +0.070 A 
DOCKED: ATOM     14  C   UNL d   1      39.084  34.501  14.879 -0.53 +0.00    +0.052 C 
DOCKED: ATOM     15  C   UNL d   1      37.684  28.631  13.430 -0.38 +0.01    +0.066 A 
DOCKED: ATOM     16  C   UNL d   1      36.842  27.682  12.851 -0.48 -0.00    -0.021 A 
DOCKED: ATOM     17  C   UNL d   1      37.372  26.434  13.178 -0.46 +0.00    +0.000 A 
DOCKED: ATOM     18  C   UNL d   1      38.514  26.719  13.940 -0.38 +0.01    +0.070 A 
DOCKED: ATOM     19  C   UNL d   1      35.591  28.046  12.093 -0.65 +0.00    +0.052 C 
DOCKED: ATOM     20  C   UNL d   1      40.525  25.945  15.263 -0.40 +0.01    +0.066 A 
DOCKED: ATOM     21  C   UNL d   1      41.377  24.952  15.740 -0.41 -0.00    -0.025 A 
DOCKED: ATOM     22  C   UNL d   1      42.385  25.597  16.420 -0.34 -0.00    -0.021 A 
DOCKED: ATOM     23  C   UNL d   1      42.100  26.964  16.349 -0.33 +0.01    +0.066 A 
DOCKED: ATOM     24  C   UNL d   1      41.234  23.463  15.558 -0.53 +0.01    +0.051 C 
DOCKED: ATOM     25  N   UNL d   1      41.504  29.885  16.366 -0.21 -0.05    -0.248 N 
DOCKED: ATOM     26  N   UNL d   1      39.194  30.749  14.819 -0.19 -0.05    -0.248 N 
DOCKED: ATOM     27  N   UNL d   1      38.645  28.054  14.146 -0.21 -0.05    -0.248 N 
DOCKED: ATOM     28  N   UNL d   1      40.944  27.168  15.684 -0.25 -0.05    -0.248 N 
DOCKED: ATOM     29 FE   UNL d   1      40.073  28.944  15.253 -0.08 +0.00    +0.000 Fe
DOCKED: ATOM     30  O   UNL d   1      39.548  29.509  16.605 -0.66 +0.00    +0.000 OA
DOCKED: ATOM     31  O   UNL d   1      39.044  28.106  16.097 -0.94 +0.00    +0.000 OA
DOCKED: ENDROOT
DOCKED: BRANCH   6  32
DOCKED: ATOM     32  C   UNL d   1      44.465  30.106  18.605 -0.29 +0.02    +0.052 C 
DOCKED: BRANCH  32  33
DOCKED: ATOM     33  C   UNL d   1      44.220  29.005  19.633 -0.26 +0.08    +0.115 C 
DOCKED: BRANCH  33  34
DOCKED: ATOM     34  C   UNL d   1      45.477  28.621  20.374 -0.09 +0.15    +0.139 C 
DOCKED: ATOM     35  O   UNL d   1      46.481  29.305  20.255 -0.04 -0.49    -0.650 OA
DOCKED: BRANCH  34  36
DOCKED: ATOM     36  O   UNL d   1      45.527  27.517  21.148 -0.18 -1.39    -0.776 OA
DOCKED: ATOM     37  H   UNL d   1      45.279  26.647  20.815 +0.04 +0.20    +0.167 HD
DOCKED: ENDBRANCH  34  36
DOCKED: ENDBRANCH  33  34
DOCKED: ENDBRANCH  32  33
DOCKED: ENDBRANCH   6  32
DOCKED: BRANCH  22  38
DOCKED: ATOM     38  C   UNL d   1      43.520  24.927  17.151 -0.30 +0.02    +0.052 C 
DOCKED: BRANCH  38  39
DOCKED: ATOM     39  C   UNL d   1      43.092  24.374  18.508 -0.33 +0.03    +0.115 C 
DOCKED: BRANCH  39  40
DOCKED: ATOM     40  C   UNL d   1      43.837  25.014  19.653 -0.25 +0.06    +0.139 C 
DOCKED: ATOM     41  O   UNL d   1      44.999  24.706  19.868 +0.04 -0.34    -0.650 OA
DOCKED: BRANCH  40  42
DOCKED: ATOM     42  O   UNL d   1      43.260  25.962  20.416 +0.03 -0.51    -0.776 OA
DOCKED: ATOM     43  H   UNL d   1      43.760  26.718  20.746 +0.05 +0.18    +0.167 HD
DOCKED: ENDBRANCH  40  42
DOCKED: ENDBRANCH  39  40
DOCKED: ENDBRANCH  38  39
DOCKED: ENDBRANCH  22  38
DOCKED: BRANCH  12  44
DOCKED: ATOM     44  C   UNL d   1      36.990  33.228  13.002 -0.51 +0.00    +0.004 C 
DOCKED: ATOM     45  C   UNL d   1      35.801  32.851  12.533 -0.61 +0.00    +0.012 C 
DOCKED: ENDBRANCH  12  44
DOCKED: BRANCH  17  46
DOCKED: ATOM     46  C   UNL d   1      36.874  25.043  12.889 -0.65 +0.00    +0.004 C 
DOCKED: ATOM     47  C   UNL d   1      35.934  24.347  13.541 -0.72 +0.00    +0.012 C 
DOCKED: ENDBRANCH  17  46
DOCKED: TORSDOF 10
DOCKED: TER
DOCKED: ENDMDL
________________________________________________________________________________


	BEGINNING GENETIC ALGORITHM DOCKING 78 of 100
Run: 78 Seed: 323554724 280603698 [ Run 78 of 100 GA/GALS ]
Beginning LAMARCKIAN GENETIC ALGORITHM (LGA), with a maximum of 25000000 energy evaluations.

Final-Value: -19.272


	FINAL GENETIC ALGORITHM DOCKED STATE
	_______________________________________________


Detailed state:  trans 8.360 34.567 -0.715 quatxyzw 0.008689 0.002678 0.004884 0.999947 center 8.287 34.468 -0.670 ntor 10 134.9697 -88.1867 1.0657 -59.0955 159.8495 152.9896 -58.3692 29.4979 -169.0586 180.0000
State:	  8.360  34.567  -0.715   0.842  0.259  0.473  1.183    134.97  -88.19    1.07  -59.10  159.85  152.99  -58.37   29.50 -169.06  180.00

DOCKED: MODEL       78
DOCKED: USER    Run = 78
DOCKED: USER    DPF = D:/Protein_go_brrr/autodock/final/6BB5/heme_O2/dock.dpf
DOCKED: USER  
DOCKED: USER    Estimated Free Energy of Binding    =  -14.22 kcal/mol  [=(1)+(2)+(3)-(4)]
DOCKED: USER    Estimated Inhibition Constant, Ki   =   37.64 pM (picomolar)  [Temperature = 298.15 K]
DOCKED: USER    
DOCKED: USER    (1) Final Intermolecular Energy     =  -17.20 kcal/mol
DOCKED: USER        vdW + Hbond + desolv Energy     =  -15.74 kcal/mol
DOCKED: USER        Electrostatic Energy            =   -1.46 kcal/mol
DOCKED: USER    (2) Final Total Internal Energy     =   -2.07 kcal/mol
DOCKED: USER    (3) Torsional Free Energy           =   +2.98 kcal/mol
DOCKED: USER    (4) Unbound System's Energy  [=(2)] =   -2.07 kcal/mol
DOCKED: USER    
DOCKED: USER    
DOCKED: USER    NEWDPF move heme_O2_opt.pdbqt
DOCKED: USER    NEWDPF about 8.287000 34.468000 -0.670000
DOCKED: USER    NEWDPF tran0 8.359777 34.566662 -0.714933
DOCKED: USER    NEWDPF quaternion0 0.008689 0.002678 0.004884 0.999947
DOCKED: USER    NEWDPF axisangle0 0.841884 0.259451 0.473198 1.182737
DOCKED: USER    NEWDPF quat0 0.841884 0.259451 0.473198 1.182737
DOCKED: USER    NEWDPF dihe0 134.97 -88.19 1.07 -59.10 159.85 152.99 -58.37 29.50 -169.06 180.00 
DOCKED: USER  keepresnum = 1 
DOCKED: USER  
DOCKED: REMARK  10 active torsions:
DOCKED: REMARK  status: ('A' for Active; 'I' for Inactive)
DOCKED: REMARK    1  A    between atoms: C_6  and  C_10 
DOCKED: REMARK    2  A    between atoms: C_10  and  C_11 
DOCKED: REMARK    3  A    between atoms: C_11  and  C_12 
DOCKED: REMARK    4  A    between atoms: C_12  and  O_14 
DOCKED: REMARK    5  A    between atoms: C_17  and  C_20 
DOCKED: REMARK    6  A    between atoms: C_24  and  C_27 
DOCKED: REMARK    7  A    between atoms: C_31  and  C_34 
DOCKED: REMARK    8  A    between atoms: C_34  and  C_35 
DOCKED: REMARK    9  A    between atoms: C_35  and  C_36 
DOCKED: REMARK   10  A    between atoms: C_36  and  O_38 
DOCKED: USER                              x       y       z     vdW  Elec       q    Type
DOCKED: USER                           _______ _______ _______ _____ _____    ______ ____
DOCKED: ROOT
DOCKED: ATOM      1  C   UNL d   1       6.500  35.173  -1.535 -0.18 +0.01    +0.064 A 
DOCKED: ATOM      2  C   UNL d   1       7.629  32.499   2.225 -0.40 +0.00    +0.064 A 
DOCKED: ATOM      3  C   UNL d   1      12.316  32.998   1.289 -0.42 +0.00    +0.064 C 
DOCKED: ATOM      4  C   UNL d   1      11.181  36.143  -2.302 -0.43 +0.00    +0.064 A 
DOCKED: ATOM      5  C   UNL d   1       6.425  34.406  -0.435 -0.25 +0.01    +0.066 A 
DOCKED: ATOM      6  C   UNL d   1       5.224  34.002   0.157 -0.31 -0.00    -0.021 A 
DOCKED: ATOM      7  C   UNL d   1       5.550  33.264   1.270 -0.37 -0.00    -0.025 A 
DOCKED: ATOM      8  C   UNL d   1       6.940  33.197   1.301 -0.35 +0.01    +0.066 A 
DOCKED: ATOM      9  C   UNL d   1       4.551  32.692   2.252 -0.43 +0.00    +0.051 C 
DOCKED: ATOM     10  C   UNL d   1       9.085  32.373   2.295 -0.38 +0.00    +0.066 A 
DOCKED: ATOM     11  C   UNL d   1       9.741  31.505   3.174 -0.45 -0.00    -0.021 A 
DOCKED: ATOM     12  C   UNL d   1      11.093  31.621   2.907 -0.42 +0.00    +0.000 A 
DOCKED: ATOM     13  C   UNL d   1      11.188  32.584   1.865 -0.36 +0.00    +0.070 A 
DOCKED: ATOM     14  C   UNL d   1       9.103  30.583   4.207 -0.61 +0.00    +0.052 C 
DOCKED: ATOM     15  C   UNL d   1      12.457  33.996   0.256 -0.37 +0.00    +0.066 A 
DOCKED: ATOM     16  C   UNL d   1      13.677  34.505  -0.191 -0.45 -0.00    -0.021 A 
DOCKED: ATOM     17  C   UNL d   1      13.378  35.404  -1.214 -0.46 +0.00    +0.000 A 
DOCKED: ATOM     18  C   UNL d   1      11.980  35.375  -1.318 -0.38 +0.00    +0.070 A 
DOCKED: ATOM     19  C   UNL d   1      15.000  34.132   0.430 -0.61 +0.00    +0.052 C 
DOCKED: ATOM     20  C   UNL d   1       9.838  36.171  -2.400 -0.40 +0.00    +0.066 A 
DOCKED: ATOM     21  C   UNL d   1       9.141  36.901  -3.360 -0.41 +0.00    -0.025 A 
DOCKED: ATOM     22  C   UNL d   1       7.807  36.615  -3.174 -0.33 -0.00    -0.021 A 
DOCKED: ATOM     23  C   UNL d   1       7.738  35.732  -2.092 -0.30 +0.01    +0.066 A 
DOCKED: ATOM     24  C   UNL d   1       9.719  37.826  -4.399 -0.50 -0.01    +0.051 C 
DOCKED: ATOM     25  N   UNL d   1       7.479  33.956   0.287 -0.13 -0.04    -0.248 N 
DOCKED: ATOM     26  N   UNL d   1       9.962  33.040   1.501 -0.21 -0.02    -0.248 N 
DOCKED: ATOM     27  N   UNL d   1      11.434  34.572  -0.369 -0.16 -0.03    -0.248 N 
DOCKED: ATOM     28  N   UNL d   1       8.971  35.501  -1.596 -0.17 -0.05    -0.248 N 
DOCKED: ATOM     29 FE   UNL d   1       9.465  34.280  -0.059 -0.08 +0.00    +0.000 Fe
DOCKED: ATOM     30  O   UNL d   1       8.932  34.968   1.231 -0.65 +0.00    +0.000 OA
DOCKED: ATOM     31  O   UNL d   1       9.960  35.727   0.309 -0.96 +0.00    +0.000 OA
DOCKED: ENDROOT
DOCKED: BRANCH   6  32
DOCKED: ATOM     32  C   UNL d   1       3.824  34.407  -0.227 -0.25 +0.01    +0.052 C 
DOCKED: BRANCH  32  33
DOCKED: ATOM     33  C   UNL d   1       3.390  35.720   0.416 -0.12 +0.06    +0.115 C 
DOCKED: BRANCH  33  34
DOCKED: ATOM     34  C   UNL d   1       3.055  36.778  -0.606 -0.18 +0.10    +0.139 C 
DOCKED: ATOM     35  O   UNL d   1       2.993  36.477  -1.788 +0.01 -0.27    -0.650 OA
DOCKED: BRANCH  34  36
DOCKED: ATOM     36  O   UNL d   1       2.850  38.062  -0.248 -0.28 -1.23    -0.776 OA
DOCKED: ATOM     37  H   UNL d   1       3.237  38.797  -0.738 +0.03 +0.22    +0.167 HD
DOCKED: ENDBRANCH  34  36
DOCKED: ENDBRANCH  33  34
DOCKED: ENDBRANCH  32  33
DOCKED: ENDBRANCH   6  32
DOCKED: BRANCH  22  38
DOCKED: ATOM     38  C   UNL d   1       6.664  37.211  -3.954 -0.25 +0.00    +0.052 C 
DOCKED: BRANCH  38  39
DOCKED: ATOM     39  C   UNL d   1       6.323  38.627  -3.497 -0.23 +0.01    +0.115 C 
DOCKED: BRANCH  39  40
DOCKED: ATOM     40  C   UNL d   1       4.872  38.972  -3.723 -0.11 +0.03    +0.139 C 
DOCKED: ATOM     41  O   UNL d   1       4.423  38.991  -4.857 +0.04 -0.09    -0.650 OA
DOCKED: BRANCH  40  42
DOCKED: ATOM     42  O   UNL d   1       4.044  39.210  -2.687 +0.05 -0.29    -0.776 OA
DOCKED: ATOM     43  H   UNL d   1       3.590  38.493  -2.229 +0.04 +0.08    +0.167 HD
DOCKED: ENDBRANCH  40  42
DOCKED: ENDBRANCH  39  40
DOCKED: ENDBRANCH  38  39
DOCKED: ENDBRANCH  22  38
DOCKED: BRANCH  12  44
DOCKED: ATOM     44  C   UNL d   1      12.133  30.820   3.662 -0.59 +0.00    +0.004 C 
DOCKED: ATOM     45  C   UNL d   1      13.450  30.794   3.462 -0.68 +0.00    +0.012 C 
DOCKED: ENDBRANCH  12  44
DOCKED: BRANCH  17  46
DOCKED: ATOM     46  C   UNL d   1      14.268  36.300  -2.033 -0.63 +0.00    +0.004 C 
DOCKED: ATOM     47  C   UNL d   1      14.994  37.347  -1.621 -0.66 +0.00    +0.012 C 
DOCKED: ENDBRANCH  17  46
DOCKED: TORSDOF 10
DOCKED: TER
DOCKED: ENDMDL
________________________________________________________________________________


	BEGINNING GENETIC ALGORITHM DOCKING 79 of 100
Run: 79 Seed: 1377346173 1593754048 [ Run 79 of 100 GA/GALS ]
Beginning LAMARCKIAN GENETIC ALGORITHM (LGA), with a maximum of 25000000 energy evaluations.

Final-Value: -20.950


	FINAL GENETIC ALGORITHM DOCKED STATE
	_______________________________________________


Detailed state:  trans 41.120 28.187 15.711 quatxyzw -0.320081 0.367950 0.871413 -0.052925 center 8.287 34.468 -0.670 ntor 10 109.6737 144.7001 4.4205 -62.9564 -156.6515 -44.4130 -53.5658 94.0073 176.2754 178.3071
State:	 41.120  28.187  15.711  -0.321  0.368  0.873 -173.932    109.67  144.70    4.42  -62.96 -156.65  -44.41  -53.57   94.01  176.28  178.31

DOCKED: MODEL       79
DOCKED: USER    Run = 79
DOCKED: USER    DPF = D:/Protein_go_brrr/autodock/final/6BB5/heme_O2/dock.dpf
DOCKED: USER  
DOCKED: USER    Estimated Free Energy of Binding    =  -15.38 kcal/mol  [=(1)+(2)+(3)-(4)]
DOCKED: USER    Estimated Inhibition Constant, Ki   =    5.29 pM (picomolar)  [Temperature = 298.15 K]
DOCKED: USER    
DOCKED: USER    (1) Final Intermolecular Energy     =  -18.37 kcal/mol
DOCKED: USER        vdW + Hbond + desolv Energy     =  -16.37 kcal/mol
DOCKED: USER        Electrostatic Energy            =   -2.00 kcal/mol
DOCKED: USER    (2) Final Total Internal Energy     =   -2.58 kcal/mol
DOCKED: USER    (3) Torsional Free Energy           =   +2.98 kcal/mol
DOCKED: USER    (4) Unbound System's Energy  [=(2)] =   -2.58 kcal/mol
DOCKED: USER    
DOCKED: USER    
DOCKED: USER    NEWDPF move heme_O2_opt.pdbqt
DOCKED: USER    NEWDPF about 8.287000 34.468000 -0.670000
DOCKED: USER    NEWDPF tran0 41.119732 28.186986 15.711062
DOCKED: USER    NEWDPF quaternion0 -0.320081 0.367950 0.871413 -0.052925
DOCKED: USER    NEWDPF axisangle0 -0.320530 0.368467 0.872636 -173.932365
DOCKED: USER    NEWDPF quat0 -0.320530 0.368467 0.872636 -173.932365
DOCKED: USER    NEWDPF dihe0 109.67 144.70 4.42 -62.96 -156.65 -44.41 -53.57 94.01 176.28 178.31 
DOCKED: USER  keepresnum = 1 
DOCKED: USER  
DOCKED: REMARK  10 active torsions:
DOCKED: REMARK  status: ('A' for Active; 'I' for Inactive)
DOCKED: REMARK    1  A    between atoms: C_6  and  C_10 
DOCKED: REMARK    2  A    between atoms: C_10  and  C_11 
DOCKED: REMARK    3  A    between atoms: C_11  and  C_12 
DOCKED: REMARK    4  A    between atoms: C_12  and  O_14 
DOCKED: REMARK    5  A    between atoms: C_17  and  C_20 
DOCKED: REMARK    6  A    between atoms: C_24  and  C_27 
DOCKED: REMARK    7  A    between atoms: C_31  and  C_34 
DOCKED: REMARK    8  A    between atoms: C_34  and  C_35 
DOCKED: REMARK    9  A    between atoms: C_35  and  C_36 
DOCKED: REMARK   10  A    between atoms: C_36  and  O_38 
DOCKED: USER                              x       y       z     vdW  Elec       q    Type
DOCKED: USER                           _______ _______ _______ _____ _____    ______ ____
DOCKED: ROOT
DOCKED: ATOM      1  C   UNL d   1      42.814  27.479  16.773 -0.26 +0.02    +0.064 A 
DOCKED: ATOM      2  C   UNL d   1      40.857  31.787  16.359 -0.40 +0.01    +0.064 A 
DOCKED: ATOM      3  C   UNL d   1      37.474  30.068  13.410 -0.36 +0.01    +0.064 C 
DOCKED: ATOM      4  C   UNL d   1      39.194  25.543  14.207 -0.42 +0.01    +0.064 A 
DOCKED: ATOM      5  C   UNL d   1      42.556  28.791  16.903 -0.24 +0.02    +0.066 A 
DOCKED: ATOM      6  C   UNL d   1      43.331  29.669  17.666 -0.29 -0.01    -0.021 A 
DOCKED: ATOM      7  C   UNL d   1      42.741  30.908  17.582 -0.36 -0.01    -0.025 A 
DOCKED: ATOM      8  C   UNL d   1      41.649  30.763  16.730 -0.33 +0.01    +0.066 A 
DOCKED: ATOM      9  C   UNL d   1      43.210  32.143  18.320 -0.43 +0.01    +0.051 C 
DOCKED: ATOM     10  C   UNL d   1      39.711  31.700  15.452 -0.36 +0.01    +0.066 A 
DOCKED: ATOM     11  C   UNL d   1      39.024  32.820  14.972 -0.41 -0.00    -0.021 A 
DOCKED: ATOM     12  C   UNL d   1      38.056  32.346  14.105 -0.40 +0.00    +0.000 A 
DOCKED: ATOM     13  C   UNL d   1      38.203  30.932  14.116 -0.36 +0.01    +0.070 A 
DOCKED: ATOM     14  C   UNL d   1      39.297  34.283  15.304 -0.54 +0.00    +0.052 C 
DOCKED: ATOM     15  C   UNL d   1      37.569  28.628  13.420 -0.39 +0.01    +0.066 A 
DOCKED: ATOM     16  C   UNL d   1      36.669  27.773  12.784 -0.50 -0.00    -0.021 A 
DOCKED: ATOM     17  C   UNL d   1      37.139  26.477  12.999 -0.47 +0.00    +0.000 A 
DOCKED: ATOM     18  C   UNL d   1      38.306  26.641  13.757 -0.38 +0.01    +0.070 A 
DOCKED: ATOM     19  C   UNL d   1      35.425  28.259  12.084 -0.65 +0.00    +0.052 C 
DOCKED: ATOM     20  C   UNL d   1      40.296  25.662  14.972 -0.41 +0.01    +0.066 A 
DOCKED: ATOM     21  C   UNL d   1      41.103  24.592  15.349 -0.44 -0.00    -0.025 A 
DOCKED: ATOM     22  C   UNL d   1      42.155  25.128  16.058 -0.30 -0.00    -0.021 A 
DOCKED: ATOM     23  C   UNL d   1      41.940  26.509  16.103 -0.34 +0.01    +0.066 A 
DOCKED: ATOM     24  C   UNL d   1      40.880  23.132  15.052 -0.55 +0.00    +0.051 C 
DOCKED: ATOM     25  N   UNL d   1      41.498  29.445  16.365 -0.21 -0.06    -0.248 N 
DOCKED: ATOM     26  N   UNL d   1      39.210  30.547  14.942 -0.14 -0.06    -0.248 N 
DOCKED: ATOM     27  N   UNL d   1      38.510  27.947  14.067 -0.21 -0.05    -0.248 N 
DOCKED: ATOM     28  N   UNL d   1      40.786  26.824  15.480 -0.27 -0.05    -0.248 N 
DOCKED: ATOM     29 FE   UNL d   1      40.001  28.671  15.211 -0.07 +0.00    +0.000 Fe
DOCKED: ATOM     30  O   UNL d   1      39.529  29.151  16.615 -0.75 +0.00    +0.000 OA
DOCKED: ATOM     31  O   UNL d   1      38.944  27.820  16.006 -0.86 +0.00    +0.000 OA
DOCKED: ENDROOT
DOCKED: BRANCH   6  32
DOCKED: ATOM     32  C   UNL d   1      44.503  29.334  18.553 -0.27 +0.02    +0.052 C 
DOCKED: BRANCH  32  33
DOCKED: ATOM     33  C   UNL d   1      44.125  29.258  20.029 +0.06 +0.09    +0.115 C 
DOCKED: BRANCH  33  34
DOCKED: ATOM     34  C   UNL d   1      44.494  27.933  20.649 -0.08 +0.18    +0.139 C 
DOCKED: ATOM     35  O   UNL d   1      45.634  27.511  20.538 -0.21 -0.75    -0.650 OA
DOCKED: BRANCH  34  36
DOCKED: ATOM     36  O   UNL d   1      43.582  27.185  21.304 -0.45 -1.25    -0.776 OA
DOCKED: ATOM     37  H   UNL d   1      43.253  26.352  20.947 +0.06 +0.16    +0.167 HD
DOCKED: ENDBRANCH  34  36
DOCKED: ENDBRANCH  33  34
DOCKED: ENDBRANCH  32  33
DOCKED: ENDBRANCH   6  32
DOCKED: BRANCH  22  38
DOCKED: ATOM     38  C   UNL d   1      43.265  24.345  16.709 -0.28 +0.01    +0.052 C 
DOCKED: BRANCH  38  39
DOCKED: ATOM     39  C   UNL d   1      42.845  23.740  18.047 -0.36 +0.03    +0.115 C 
DOCKED: BRANCH  39  40
DOCKED: ATOM     40  C   UNL d   1      43.051  24.691  19.199 -0.33 +0.05    +0.139 C 
DOCKED: ATOM     41  O   UNL d   1      42.102  25.316  19.646 -0.05 -0.19    -0.650 OA
DOCKED: BRANCH  40  42
DOCKED: ATOM     42  O   UNL d   1      44.257  24.826  19.783 +0.07 -0.38    -0.776 OA
DOCKED: ATOM     43  H   UNL d   1      44.547  25.667  20.154 +0.06 +0.11    +0.167 HD
DOCKED: ENDBRANCH  40  42
DOCKED: ENDBRANCH  39  40
DOCKED: ENDBRANCH  38  39
DOCKED: ENDBRANCH  22  38
DOCKED: BRANCH  12  44
DOCKED: ATOM     44  C   UNL d   1      37.108  33.274  13.374 -0.49 +0.00    +0.004 C 
DOCKED: ATOM     45  C   UNL d   1      36.138  32.947  12.520 -0.59 +0.00    +0.012 C 
DOCKED: ENDBRANCH  12  44
DOCKED: BRANCH  17  46
DOCKED: ATOM     46  C   UNL d   1      36.564  25.141  12.610 -0.67 +0.00    +0.004 C 
DOCKED: ATOM     47  C   UNL d   1      35.470  24.537  13.092 -0.73 +0.00    +0.012 C 
DOCKED: ENDBRANCH  17  46
DOCKED: TORSDOF 10
DOCKED: TER
DOCKED: ENDMDL
________________________________________________________________________________


	BEGINNING GENETIC ALGORITHM DOCKING 80 of 100
Run: 80 Seed: 174841365 84957118 [ Run 80 of 100 GA/GALS ]
Beginning LAMARCKIAN GENETIC ALGORITHM (LGA), with a maximum of 25000000 energy evaluations.

Final-Value: -19.890


	FINAL GENETIC ALGORITHM DOCKED STATE
	_______________________________________________


Detailed state:  trans 41.088 28.195 15.705 quatxyzw -0.326079 0.370907 0.867614 -0.057857 center 8.287 34.468 -0.670 ntor 10 -160.1301 -42.4177 14.4194 -92.6901 -106.5297 -175.3360 -42.0160 -1.6607 -162.8455 161.9280
State:	 41.088  28.195  15.705  -0.327  0.372  0.869 -173.366   -160.13  -42.42   14.42  -92.69 -106.53 -175.34  -42.02   -1.66 -162.85  161.93

DOCKED: MODEL       80
DOCKED: USER    Run = 80
DOCKED: USER    DPF = D:/Protein_go_brrr/autodock/final/6BB5/heme_O2/dock.dpf
DOCKED: USER  
DOCKED: USER    Estimated Free Energy of Binding    =  -15.31 kcal/mol  [=(1)+(2)+(3)-(4)]
DOCKED: USER    Estimated Inhibition Constant, Ki   =    5.95 pM (picomolar)  [Temperature = 298.15 K]
DOCKED: USER    
DOCKED: USER    (1) Final Intermolecular Energy     =  -18.30 kcal/mol
DOCKED: USER        vdW + Hbond + desolv Energy     =  -16.42 kcal/mol
DOCKED: USER        Electrostatic Energy            =   -1.87 kcal/mol
DOCKED: USER    (2) Final Total Internal Energy     =   -1.59 kcal/mol
DOCKED: USER    (3) Torsional Free Energy           =   +2.98 kcal/mol
DOCKED: USER    (4) Unbound System's Energy  [=(2)] =   -1.59 kcal/mol
DOCKED: USER    
DOCKED: USER    
DOCKED: USER    NEWDPF move heme_O2_opt.pdbqt
DOCKED: USER    NEWDPF about 8.287000 34.468000 -0.670000
DOCKED: USER    NEWDPF tran0 41.088374 28.194987 15.705422
DOCKED: USER    NEWDPF quaternion0 -0.326079 0.370907 0.867614 -0.057857
DOCKED: USER    NEWDPF axisangle0 -0.326626 0.371529 0.869069 -173.366429
DOCKED: USER    NEWDPF quat0 -0.326626 0.371529 0.869069 -173.366429
DOCKED: USER    NEWDPF dihe0 -160.13 -42.42 14.42 -92.69 -106.53 -175.34 -42.02 -1.66 -162.85 161.93 
DOCKED: USER  keepresnum = 1 
DOCKED: USER  
DOCKED: REMARK  10 active torsions:
DOCKED: REMARK  status: ('A' for Active; 'I' for Inactive)
DOCKED: REMARK    1  A    between atoms: C_6  and  C_10 
DOCKED: REMARK    2  A    between atoms: C_10  and  C_11 
DOCKED: REMARK    3  A    between atoms: C_11  and  C_12 
DOCKED: REMARK    4  A    between atoms: C_12  and  O_14 
DOCKED: REMARK    5  A    between atoms: C_17  and  C_20 
DOCKED: REMARK    6  A    between atoms: C_24  and  C_27 
DOCKED: REMARK    7  A    between atoms: C_31  and  C_34 
DOCKED: REMARK    8  A    between atoms: C_34  and  C_35 
DOCKED: REMARK    9  A    between atoms: C_35  and  C_36 
DOCKED: REMARK   10  A    between atoms: C_36  and  O_38 
DOCKED: USER                              x       y       z     vdW  Elec       q    Type
DOCKED: USER                           _______ _______ _______ _____ _____    ______ ____
DOCKED: ROOT
DOCKED: ATOM      1  C   UNL d   1      42.760  27.482  16.799 -0.25 +0.02    +0.064 A 
DOCKED: ATOM      2  C   UNL d   1      40.838  31.800  16.330 -0.40 +0.01    +0.064 A 
DOCKED: ATOM      3  C   UNL d   1      37.493  30.087  13.335 -0.39 +0.01    +0.064 C 
DOCKED: ATOM      4  C   UNL d   1      39.170  25.555  14.185 -0.42 +0.01    +0.064 A 
DOCKED: ATOM      5  C   UNL d   1      42.509  28.796  16.917 -0.22 +0.02    +0.066 A 
DOCKED: ATOM      6  C   UNL d   1      43.278  29.673  17.688 -0.29 -0.01    -0.021 A 
DOCKED: ATOM      7  C   UNL d   1      42.696  30.916  17.588 -0.37 -0.01    -0.025 A 
DOCKED: ATOM      8  C   UNL d   1      41.617  30.773  16.719 -0.34 +0.01    +0.066 A 
DOCKED: ATOM      9  C   UNL d   1      43.162  32.151  18.327 -0.43 +0.01    +0.051 C 
DOCKED: ATOM     10  C   UNL d   1      39.707  31.716  15.405 -0.36 +0.01    +0.066 A 
DOCKED: ATOM     11  C   UNL d   1      39.035  32.838  14.907 -0.41 -0.00    -0.021 A 
DOCKED: ATOM     12  C   UNL d   1      38.078  32.365  14.028 -0.40 +0.00    +0.000 A 
DOCKED: ATOM     13  C   UNL d   1      38.216  30.950  14.049 -0.36 +0.01    +0.070 A 
DOCKED: ATOM     14  C   UNL d   1      39.312  34.300  15.236 -0.54 +0.00    +0.052 C 
DOCKED: ATOM     15  C   UNL d   1      37.578  28.646  13.354 -0.39 +0.01    +0.066 A 
DOCKED: ATOM     16  C   UNL d   1      36.683  27.793  12.709 -0.51 -0.00    -0.021 A 
DOCKED: ATOM     17  C   UNL d   1      37.141  26.496  12.938 -0.47 +0.00    +0.000 A 
DOCKED: ATOM     18  C   UNL d   1      38.297  26.657  13.714 -0.38 +0.01    +0.070 A 
DOCKED: ATOM     19  C   UNL d   1      35.454  28.284  11.986 -0.66 +0.00    +0.052 C 
DOCKED: ATOM     20  C   UNL d   1      40.261  25.671  14.967 -0.40 +0.01    +0.066 A 
DOCKED: ATOM     21  C   UNL d   1      41.054  24.599  15.363 -0.44 -0.00    -0.025 A 
DOCKED: ATOM     22  C   UNL d   1      42.098  25.132  16.086 -0.32 -0.00    -0.021 A 
DOCKED: ATOM     23  C   UNL d   1      41.891  26.514  16.119 -0.35 +0.01    +0.066 A 
DOCKED: ATOM     24  C   UNL d   1      40.826  23.138  15.070 -0.55 +0.00    +0.051 C 
DOCKED: ATOM     25  N   UNL d   1      41.464  29.454  16.359 -0.21 -0.06    -0.248 N 
DOCKED: ATOM     26  N   UNL d   1      39.206  30.563  14.892 -0.14 -0.05    -0.248 N 
DOCKED: ATOM     27  N   UNL d   1      38.504  27.963  14.020 -0.21 -0.05    -0.248 N 
DOCKED: ATOM     28  N   UNL d   1      40.749  26.833  15.476 -0.27 -0.05    -0.248 N 
DOCKED: ATOM     29 FE   UNL d   1      39.981  28.683  15.185 -0.07 +0.00    +0.000 Fe
DOCKED: ATOM     30  O   UNL d   1      39.489  29.174  16.578 -0.76 +0.00    +0.000 OA
DOCKED: ATOM     31  O   UNL d   1      38.906  27.844  15.967 -0.84 +0.00    +0.000 OA
DOCKED: ENDROOT
DOCKED: BRANCH   6  32
DOCKED: ATOM     32  C   UNL d   1      44.432  29.336  18.595 -0.27 +0.02    +0.052 C 
DOCKED: BRANCH  32  33
DOCKED: ATOM     33  C   UNL d   1      43.983  28.778  19.943 -0.07 +0.09    +0.115 C 
DOCKED: BRANCH  33  34
DOCKED: ATOM     34  C   UNL d   1      44.793  27.578  20.366 -0.19 +0.15    +0.139 C 
DOCKED: ATOM     35  O   UNL d   1      45.665  27.705  21.211 -0.27 -1.21    -0.650 OA
DOCKED: BRANCH  34  36
DOCKED: ATOM     36  O   UNL d   1      44.594  26.364  19.811 +0.07 -0.53    -0.776 OA
DOCKED: ATOM     37  H   UNL d   1      44.879  25.551  20.245 +0.06 +0.11    +0.167 HD
DOCKED: ENDBRANCH  34  36
DOCKED: ENDBRANCH  33  34
DOCKED: ENDBRANCH  32  33
DOCKED: ENDBRANCH   6  32
DOCKED: BRANCH  22  38
DOCKED: ATOM     38  C   UNL d   1      43.192  24.345  16.759 -0.30 +0.01    +0.052 C 
DOCKED: BRANCH  38  39
DOCKED: ATOM     39  C   UNL d   1      42.903  24.091  18.237 -0.35 +0.03    +0.115 C 
DOCKED: BRANCH  39  40
DOCKED: ATOM     40  C   UNL d   1      43.965  23.246  18.895 -0.23 +0.05    +0.139 C 
DOCKED: ATOM     41  O   UNL d   1      44.568  22.412  18.240 +0.01 -0.24    -0.650 OA
DOCKED: BRANCH  40  42
DOCKED: ATOM     42  O   UNL d   1      44.298  23.430  20.187 -0.33 -0.38    -0.776 OA
DOCKED: ATOM     43  H   UNL d   1      44.363  24.313  20.571 +0.06 +0.09    +0.167 HD
DOCKED: ENDBRANCH  40  42
DOCKED: ENDBRANCH  39  40
DOCKED: ENDBRANCH  38  39
DOCKED: ENDBRANCH  22  38
DOCKED: BRANCH  12  44
DOCKED: ATOM     44  C   UNL d   1      37.148  33.295  13.277 -0.49 +0.00    +0.004 C 
DOCKED: ATOM     45  C   UNL d   1      36.077  32.971  12.553 -0.59 +0.00    +0.012 C 
DOCKED: ENDBRANCH  12  44
DOCKED: BRANCH  17  46
DOCKED: ATOM     46  C   UNL d   1      36.564  25.161  12.547 -0.67 +0.00    +0.004 C 
DOCKED: ATOM     47  C   UNL d   1      35.844  24.317  13.298 -0.73 +0.00    +0.012 C 
DOCKED: ENDBRANCH  17  46
DOCKED: TORSDOF 10
DOCKED: TER
DOCKED: ENDMDL
________________________________________________________________________________


	BEGINNING GENETIC ALGORITHM DOCKING 81 of 100
Run: 81 Seed: 945489068 817677206 [ Run 81 of 100 GA/GALS ]
Beginning LAMARCKIAN GENETIC ALGORITHM (LGA), with a maximum of 25000000 energy evaluations.

Final-Value: -20.309


	FINAL GENETIC ALGORITHM DOCKED STATE
	_______________________________________________


Detailed state:  trans 41.101 28.297 15.707 quatxyzw -0.305088 0.368015 0.874387 -0.083275 center 8.287 34.468 -0.670 ntor 10 -34.9445 -100.0734 3.3374 -105.3430 -135.3102 98.0882 -1.5491 62.6602 -150.8862 -176.2637
State:	 41.101  28.297  15.707  -0.306  0.369  0.877 -170.446    -34.94 -100.07    3.34 -105.34 -135.31   98.09   -1.55   62.66 -150.89 -176.26

DOCKED: MODEL       81
DOCKED: USER    Run = 81
DOCKED: USER    DPF = D:/Protein_go_brrr/autodock/final/6BB5/heme_O2/dock.dpf
DOCKED: USER  
DOCKED: USER    Estimated Free Energy of Binding    =  -15.64 kcal/mol  [=(1)+(2)+(3)-(4)]
DOCKED: USER    Estimated Inhibition Constant, Ki   =    3.41 pM (picomolar)  [Temperature = 298.15 K]
DOCKED: USER    
DOCKED: USER    (1) Final Intermolecular Energy     =  -18.63 kcal/mol
DOCKED: USER        vdW + Hbond + desolv Energy     =  -16.62 kcal/mol
DOCKED: USER        Electrostatic Energy            =   -2.00 kcal/mol
DOCKED: USER    (2) Final Total Internal Energy     =   -1.68 kcal/mol
DOCKED: USER    (3) Torsional Free Energy           =   +2.98 kcal/mol
DOCKED: USER    (4) Unbound System's Energy  [=(2)] =   -1.68 kcal/mol
DOCKED: USER    
DOCKED: USER    
DOCKED: USER    NEWDPF move heme_O2_opt.pdbqt
DOCKED: USER    NEWDPF about 8.287000 34.468000 -0.670000
DOCKED: USER    NEWDPF tran0 41.101466 28.297479 15.706972
DOCKED: USER    NEWDPF quaternion0 -0.305088 0.368015 0.874387 -0.083275
DOCKED: USER    NEWDPF axisangle0 -0.306151 0.369298 0.877434 -170.446343
DOCKED: USER    NEWDPF quat0 -0.306151 0.369298 0.877434 -170.446343
DOCKED: USER    NEWDPF dihe0 -34.94 -100.07 3.34 -105.34 -135.31 98.09 -1.55 62.66 -150.89 -176.26 
DOCKED: USER  keepresnum = 1 
DOCKED: USER  
DOCKED: REMARK  10 active torsions:
DOCKED: REMARK  status: ('A' for Active; 'I' for Inactive)
DOCKED: REMARK    1  A    between atoms: C_6  and  C_10 
DOCKED: REMARK    2  A    between atoms: C_10  and  C_11 
DOCKED: REMARK    3  A    between atoms: C_11  and  C_12 
DOCKED: REMARK    4  A    between atoms: C_12  and  O_14 
DOCKED: REMARK    5  A    between atoms: C_17  and  C_20 
DOCKED: REMARK    6  A    between atoms: C_24  and  C_27 
DOCKED: REMARK    7  A    between atoms: C_31  and  C_34 
DOCKED: REMARK    8  A    between atoms: C_34  and  C_35 
DOCKED: REMARK    9  A    between atoms: C_35  and  C_36 
DOCKED: REMARK   10  A    between atoms: C_36  and  O_38 
DOCKED: USER                              x       y       z     vdW  Elec       q    Type
DOCKED: USER                           _______ _______ _______ _____ _____    ______ ____
DOCKED: ROOT
DOCKED: ATOM      1  C   UNL d   1      42.752  27.459  16.742 -0.26 +0.02    +0.064 A 
DOCKED: ATOM      2  C   UNL d   1      41.071  31.891  16.439 -0.40 +0.01    +0.064 A 
DOCKED: ATOM      3  C   UNL d   1      37.572  30.459  13.473 -0.40 +0.01    +0.064 C 
DOCKED: ATOM      4  C   UNL d   1      39.003  25.817  14.155 -0.41 +0.01    +0.064 A 
DOCKED: ATOM      5  C   UNL d   1      42.580  28.781  16.903 -0.24 +0.02    +0.066 A 
DOCKED: ATOM      6  C   UNL d   1      43.413  29.590  17.681 -0.28 -0.01    -0.021 A 
DOCKED: ATOM      7  C   UNL d   1      42.902  30.866  17.629 -0.35 -0.01    -0.025 A 
DOCKED: ATOM      8  C   UNL d   1      41.798  30.810  16.782 -0.34 +0.01    +0.066 A 
DOCKED: ATOM      9  C   UNL d   1      43.452  32.051  18.392 -0.40 +0.01    +0.051 C 
DOCKED: ATOM     10  C   UNL d   1      39.918  31.898  15.538 -0.36 +0.01    +0.066 A 
DOCKED: ATOM     11  C   UNL d   1      39.301  33.071  15.087 -0.42 -0.00    -0.021 A 
DOCKED: ATOM     12  C   UNL d   1      38.301  32.679  14.217 -0.40 +0.00    +0.000 A 
DOCKED: ATOM     13  C   UNL d   1      38.358  31.258  14.194 -0.36 +0.01    +0.070 A 
DOCKED: ATOM     14  C   UNL d   1      39.668  34.505  15.451 -0.53 +0.00    +0.052 C 
DOCKED: ATOM     15  C   UNL d   1      37.574  29.017  13.449 -0.38 +0.01    +0.066 A 
DOCKED: ATOM     16  C   UNL d   1      36.619  28.235  12.800 -0.50 -0.00    -0.021 A 
DOCKED: ATOM     17  C   UNL d   1      37.006  26.907  12.982 -0.47 +0.00    +0.000 A 
DOCKED: ATOM     18  C   UNL d   1      38.185  26.980  13.736 -0.38 +0.01    +0.070 A 
DOCKED: ATOM     19  C   UNL d   1      35.405  28.816  12.119 -0.63 +0.00    +0.052 C 
DOCKED: ATOM     20  C   UNL d   1      40.115  25.848  14.916 -0.39 +0.01    +0.066 A 
DOCKED: ATOM     21  C   UNL d   1      40.854  24.720  15.263 -0.46 -0.00    -0.025 A 
DOCKED: ATOM     22  C   UNL d   1      41.941  25.172  15.977 -0.35 -0.00    -0.021 A 
DOCKED: ATOM     23  C   UNL d   1      41.815  26.562  16.055 -0.35 +0.01    +0.066 A 
DOCKED: ATOM     24  C   UNL d   1      40.537  23.285  14.934 -0.48 +0.01    +0.051 C 
DOCKED: ATOM     25  N   UNL d   1      41.562  29.513  16.387 -0.21 -0.06    -0.248 N 
DOCKED: ATOM     26  N   UNL d   1      39.342  30.791  15.004 -0.17 -0.05    -0.248 N 
DOCKED: ATOM     27  N   UNL d   1      38.474  28.262  14.074 -0.20 -0.05    -0.248 N 
DOCKED: ATOM     28  N   UNL d   1      40.680  26.965  15.447 -0.27 -0.05    -0.248 N 
DOCKED: ATOM     29 FE   UNL d   1      40.014  28.863  15.226 -0.06 +0.00    +0.000 Fe
DOCKED: ATOM     30  O   UNL d   1      39.579  29.339  16.642 -0.69 +0.00    +0.000 OA
DOCKED: ATOM     31  O   UNL d   1      38.908  28.063  16.008 -0.89 +0.00    +0.000 OA
DOCKED: ENDROOT
DOCKED: BRANCH   6  32
DOCKED: ATOM     32  C   UNL d   1      44.565  29.161  18.552 -0.26 +0.02    +0.052 C 
DOCKED: BRANCH  32  33
DOCKED: ATOM     33  C   UNL d   1      44.122  28.332  19.754 -0.23 +0.09    +0.115 C 
DOCKED: BRANCH  33  34
DOCKED: ATOM     34  C   UNL d   1      45.288  27.831  20.569 -0.11 +0.17    +0.139 C 
DOCKED: ATOM     35  O   UNL d   1      45.908  28.609  21.277 -0.30 -1.15    -0.650 OA
DOCKED: BRANCH  34  36
DOCKED: ATOM     36  O   UNL d   1      45.684  26.543  20.513 +0.00 -0.74    -0.776 OA
DOCKED: ATOM     37  H   UNL d   1      45.056  25.820  20.398 +0.06 +0.13    +0.167 HD
DOCKED: ENDBRANCH  34  36
DOCKED: ENDBRANCH  33  34
DOCKED: ENDBRANCH  32  33
DOCKED: ENDBRANCH   6  32
DOCKED: BRANCH  22  38
DOCKED: ATOM     38  C   UNL d   1      43.003  24.305  16.603 -0.31 +0.01    +0.052 C 
DOCKED: BRANCH  38  39
DOCKED: ATOM     39  C   UNL d   1      42.507  23.592  17.859 -0.40 +0.02    +0.115 C 
DOCKED: BRANCH  39  40
DOCKED: ATOM     40  C   UNL d   1      43.286  23.983  19.090 -0.31 +0.05    +0.139 C 
DOCKED: ATOM     41  O   UNL d   1      43.929  23.140  19.693 -0.43 -0.28    -0.650 OA
DOCKED: BRANCH  40  42
DOCKED: ATOM     42  O   UNL d   1      43.327  25.263  19.509 +0.05 -0.33    -0.776 OA
DOCKED: ATOM     43  H   UNL d   1      44.064  25.843  19.287 +0.07 +0.08    +0.167 HD
DOCKED: ENDBRANCH  40  42
DOCKED: ENDBRANCH  39  40
DOCKED: ENDBRANCH  38  39
DOCKED: ENDBRANCH  22  38
DOCKED: BRANCH  12  44
DOCKED: ATOM     44  C   UNL d   1      37.410  33.682  13.513 -0.48 +0.00    +0.004 C 
DOCKED: ATOM     45  C   UNL d   1      36.431  33.438  12.643 -0.57 +0.00    +0.012 C 
DOCKED: ENDBRANCH  12  44
DOCKED: BRANCH  17  46
DOCKED: ATOM     46  C   UNL d   1      36.346  25.620  12.566 -0.64 +0.00    +0.004 C 
DOCKED: ATOM     47  C   UNL d   1      35.793  24.682  13.347 -0.71 +0.00    +0.012 C 
DOCKED: ENDBRANCH  17  46
DOCKED: TORSDOF 10
DOCKED: TER
DOCKED: ENDMDL
________________________________________________________________________________


	BEGINNING GENETIC ALGORITHM DOCKING 82 of 100
Run: 82 Seed: 568198592 1287583112 [ Run 82 of 100 GA/GALS ]
Beginning LAMARCKIAN GENETIC ALGORITHM (LGA), with a maximum of 25000000 energy evaluations.

Final-Value: -20.978


	FINAL GENETIC ALGORITHM DOCKED STATE
	_______________________________________________


Detailed state:  trans 41.078 28.212 15.729 quatxyzw 0.331173 -0.380370 -0.861782 0.054540 center 8.287 34.468 -0.670 ntor 10 101.9850 133.6001 21.7304 -96.7087 -162.1387 -34.4524 -49.8752 89.9458 -180.0000 -180.0000
State:	 41.078  28.212  15.729   0.332 -0.381 -0.863 173.747    101.98  133.60   21.73  -96.71 -162.14  -34.45  -49.88   89.95 -180.00 -180.00

DOCKED: MODEL       82
DOCKED: USER    Run = 82
DOCKED: USER    DPF = D:/Protein_go_brrr/autodock/final/6BB5/heme_O2/dock.dpf
DOCKED: USER  
DOCKED: USER    Estimated Free Energy of Binding    =  -15.39 kcal/mol  [=(1)+(2)+(3)-(4)]
DOCKED: USER    Estimated Inhibition Constant, Ki   =    5.20 pM (picomolar)  [Temperature = 298.15 K]
DOCKED: USER    
DOCKED: USER    (1) Final Intermolecular Energy     =  -18.38 kcal/mol
DOCKED: USER        vdW + Hbond + desolv Energy     =  -16.24 kcal/mol
DOCKED: USER        Electrostatic Energy            =   -2.14 kcal/mol
DOCKED: USER    (2) Final Total Internal Energy     =   -2.60 kcal/mol
DOCKED: USER    (3) Torsional Free Energy           =   +2.98 kcal/mol
DOCKED: USER    (4) Unbound System's Energy  [=(2)] =   -2.60 kcal/mol
DOCKED: USER    
DOCKED: USER    
DOCKED: USER    NEWDPF move heme_O2_opt.pdbqt
DOCKED: USER    NEWDPF about 8.287000 34.468000 -0.670000
DOCKED: USER    NEWDPF tran0 41.078395 28.212484 15.728643
DOCKED: USER    NEWDPF quaternion0 0.331173 -0.380370 -0.861782 0.054540
DOCKED: USER    NEWDPF axisangle0 0.331667 -0.380937 -0.863067 173.747032
DOCKED: USER    NEWDPF quat0 0.331667 -0.380937 -0.863067 173.747032
DOCKED: USER    NEWDPF dihe0 101.98 133.60 21.73 -96.71 -162.14 -34.45 -49.88 89.95 -180.00 -180.00 
DOCKED: USER  keepresnum = 1 
DOCKED: USER  
DOCKED: REMARK  10 active torsions:
DOCKED: REMARK  status: ('A' for Active; 'I' for Inactive)
DOCKED: REMARK    1  A    between atoms: C_6  and  C_10 
DOCKED: REMARK    2  A    between atoms: C_10  and  C_11 
DOCKED: REMARK    3  A    between atoms: C_11  and  C_12 
DOCKED: REMARK    4  A    between atoms: C_12  and  O_14 
DOCKED: REMARK    5  A    between atoms: C_17  and  C_20 
DOCKED: REMARK    6  A    between atoms: C_24  and  C_27 
DOCKED: REMARK    7  A    between atoms: C_31  and  C_34 
DOCKED: REMARK    8  A    between atoms: C_34  and  C_35 
DOCKED: REMARK    9  A    between atoms: C_35  and  C_36 
DOCKED: REMARK   10  A    between atoms: C_36  and  O_38 
DOCKED: USER                              x       y       z     vdW  Elec       q    Type
DOCKED: USER                           _______ _______ _______ _____ _____    ______ ____
DOCKED: ROOT
DOCKED: ATOM      1  C   UNL d   1      42.742  27.530  16.854 -0.24 +0.02    +0.064 A 
DOCKED: ATOM      2  C   UNL d   1      40.813  31.831  16.266 -0.39 +0.01    +0.064 A 
DOCKED: ATOM      3  C   UNL d   1      37.500  30.038  13.282 -0.40 +0.01    +0.064 C 
DOCKED: ATOM      4  C   UNL d   1      39.180  25.533  14.253 -0.41 +0.01    +0.064 A 
DOCKED: ATOM      5  C   UNL d   1      42.487  28.846  16.939 -0.20 +0.02    +0.066 A 
DOCKED: ATOM      6  C   UNL d   1      43.246  29.743  17.696 -0.29 -0.01    -0.021 A 
DOCKED: ATOM      7  C   UNL d   1      42.662  30.981  17.561 -0.37 -0.01    -0.025 A 
DOCKED: ATOM      8  C   UNL d   1      41.592  30.815  16.686 -0.33 +0.01    +0.066 A 
DOCKED: ATOM      9  C   UNL d   1      43.118  32.235  18.275 -0.44 +0.01    +0.051 C 
DOCKED: ATOM     10  C   UNL d   1      39.691  31.721  15.333 -0.36 +0.01    +0.066 A 
DOCKED: ATOM     11  C   UNL d   1      39.020  32.829  14.803 -0.40 -0.00    -0.021 A 
DOCKED: ATOM     12  C   UNL d   1      38.073  32.334  13.926 -0.40 +0.00    +0.000 A 
DOCKED: ATOM     13  C   UNL d   1      38.214  30.919  13.982 -0.37 +0.01    +0.070 A 
DOCKED: ATOM     14  C   UNL d   1      39.290  34.300  15.099 -0.53 +0.00    +0.052 C 
DOCKED: ATOM     15  C   UNL d   1      37.588  28.599  13.336 -0.39 +0.01    +0.066 A 
DOCKED: ATOM     16  C   UNL d   1      36.702  27.728  12.703 -0.51 -0.00    -0.021 A 
DOCKED: ATOM     17  C   UNL d   1      37.160  26.438  12.966 -0.47 +0.00    +0.000 A 
DOCKED: ATOM     18  C   UNL d   1      38.309  26.620  13.749 -0.38 +0.01    +0.070 A 
DOCKED: ATOM     19  C   UNL d   1      35.478  28.199  11.957 -0.65 +0.00    +0.052 C 
DOCKED: ATOM     20  C   UNL d   1      40.264  25.670  15.042 -0.40 +0.01    +0.066 A 
DOCKED: ATOM     21  C   UNL d   1      41.057  24.609  15.470 -0.43 -0.00    -0.025 A 
DOCKED: ATOM     22  C   UNL d   1      42.092  25.162  16.190 -0.34 -0.00    -0.021 A 
DOCKED: ATOM     23  C   UNL d   1      41.882  26.544  16.189 -0.34 +0.01    +0.066 A 
DOCKED: ATOM     24  C   UNL d   1      40.835  23.142  15.210 -0.56 +0.00    +0.051 C 
DOCKED: ATOM     25  N   UNL d   1      41.445  29.488  16.355 -0.22 -0.06    -0.248 N 
DOCKED: ATOM     26  N   UNL d   1      39.198  30.555  14.843 -0.13 -0.05    -0.248 N 
DOCKED: ATOM     27  N   UNL d   1      38.510  27.934  14.026 -0.21 -0.05    -0.248 N 
DOCKED: ATOM     28  N   UNL d   1      40.745  26.845  15.528 -0.27 -0.05    -0.248 N 
DOCKED: ATOM     29 FE   UNL d   1      39.975  28.685  15.187 -0.07 +0.00    +0.000 Fe
DOCKED: ATOM     30  O   UNL d   1      39.469  29.207  16.563 -0.75 +0.00    +0.000 OA
DOCKED: ATOM     31  O   UNL d   1      38.895  27.861  15.979 -0.85 +0.00    +0.000 OA
DOCKED: ENDROOT
DOCKED: BRANCH   6  32
DOCKED: ATOM     32  C   UNL d   1      44.393  29.430  18.621 -0.28 +0.02    +0.052 C 
DOCKED: BRANCH  32  33
DOCKED: ATOM     33  C   UNL d   1      43.961  29.309  20.079 +0.16 +0.09    +0.115 C 
DOCKED: BRANCH  33  34
DOCKED: ATOM     34  C   UNL d   1      44.430  28.022  20.713 -0.03 +0.19    +0.139 C 
DOCKED: ATOM     35  O   UNL d   1      45.587  27.664  20.565 -0.23 -0.78    -0.650 OA
DOCKED: BRANCH  34  36
DOCKED: ATOM     36  O   UNL d   1      43.589  27.239  21.420 -0.41 -1.36    -0.776 OA
DOCKED: ATOM     37  H   UNL d   1      43.209  26.433  21.050 +0.06 +0.17    +0.167 HD
DOCKED: ENDBRANCH  34  36
DOCKED: ENDBRANCH  33  34
DOCKED: ENDBRANCH  32  33
DOCKED: ENDBRANCH   6  32
DOCKED: BRANCH  22  38
DOCKED: ATOM     38  C   UNL d   1      43.183  24.394  16.891 -0.32 +0.01    +0.052 C 
DOCKED: BRANCH  38  39
DOCKED: ATOM     39  C   UNL d   1      42.714  23.794  18.215 -0.37 +0.03    +0.115 C 
DOCKED: BRANCH  39  40
DOCKED: ATOM     40  C   UNL d   1      42.954  24.718  19.383 -0.33 +0.05    +0.139 C 
DOCKED: ATOM     41  O   UNL d   1      42.007  25.246  19.943 -0.00 -0.19    -0.650 OA
DOCKED: BRANCH  40  42
DOCKED: ATOM     42  O   UNL d   1      44.197  24.932  19.856 +0.07 -0.40    -0.776 OA
DOCKED: ATOM     43  H   UNL d   1      44.503  25.817  20.088 +0.06 +0.11    +0.167 HD
DOCKED: ENDBRANCH  40  42
DOCKED: ENDBRANCH  39  40
DOCKED: ENDBRANCH  38  39
DOCKED: ENDBRANCH  22  38
DOCKED: BRANCH  12  44
DOCKED: ATOM     44  C   UNL d   1      37.147  33.243  13.145 -0.49 +0.00    +0.004 C 
DOCKED: ATOM     45  C   UNL d   1      36.010  32.920  12.530 -0.60 +0.00    +0.012 C 
DOCKED: ENDBRANCH  12  44
DOCKED: BRANCH  17  46
DOCKED: ATOM     46  C   UNL d   1      36.591  25.093  12.602 -0.67 +0.00    +0.004 C 
DOCKED: ATOM     47  C   UNL d   1      35.930  24.232  13.387 -0.73 +0.00    +0.012 C 
DOCKED: ENDBRANCH  17  46
DOCKED: TORSDOF 10
DOCKED: TER
DOCKED: ENDMDL
________________________________________________________________________________


	BEGINNING GENETIC ALGORITHM DOCKING 83 of 100
Run: 83 Seed: 1221943598 1128729704 [ Run 83 of 100 GA/GALS ]
Beginning LAMARCKIAN GENETIC ALGORITHM (LGA), with a maximum of 25000000 energy evaluations.

Final-Value: -19.780


	FINAL GENETIC ALGORITHM DOCKED STATE
	_______________________________________________


Detailed state:  trans 41.111 28.292 15.747 quatxyzw 0.326990 -0.382782 -0.862966 0.042951 center 8.287 34.468 -0.670 ntor 10 109.3883 -133.9731 15.6308 -91.1160 -135.7445 31.4035 -52.5563 -54.4172 -174.3066 20.4767
State:	 41.111  28.292  15.747   0.327 -0.383 -0.864 175.077    109.39 -133.97   15.63  -91.12 -135.74   31.40  -52.56  -54.42 -174.31   20.48

DOCKED: MODEL       83
DOCKED: USER    Run = 83
DOCKED: USER    DPF = D:/Protein_go_brrr/autodock/final/6BB5/heme_O2/dock.dpf
DOCKED: USER  
DOCKED: USER    Estimated Free Energy of Binding    =  -14.73 kcal/mol  [=(1)+(2)+(3)-(4)]
DOCKED: USER    Estimated Inhibition Constant, Ki   =   15.83 pM (picomolar)  [Temperature = 298.15 K]
DOCKED: USER    
DOCKED: USER    (1) Final Intermolecular Energy     =  -17.72 kcal/mol
DOCKED: USER        vdW + Hbond + desolv Energy     =  -15.80 kcal/mol
DOCKED: USER        Electrostatic Energy            =   -1.92 kcal/mol
DOCKED: USER    (2) Final Total Internal Energy     =   -2.06 kcal/mol
DOCKED: USER    (3) Torsional Free Energy           =   +2.98 kcal/mol
DOCKED: USER    (4) Unbound System's Energy  [=(2)] =   -2.06 kcal/mol
DOCKED: USER    
DOCKED: USER    
DOCKED: USER    NEWDPF move heme_O2_opt.pdbqt
DOCKED: USER    NEWDPF about 8.287000 34.468000 -0.670000
DOCKED: USER    NEWDPF tran0 41.111406 28.291958 15.747086
DOCKED: USER    NEWDPF quaternion0 0.326990 -0.382782 -0.862966 0.042951
DOCKED: USER    NEWDPF axisangle0 0.327292 -0.383135 -0.863763 175.076659
DOCKED: USER    NEWDPF quat0 0.327292 -0.383135 -0.863763 175.076659
DOCKED: USER    NEWDPF dihe0 109.39 -133.97 15.63 -91.12 -135.74 31.40 -52.56 -54.42 -174.31 20.48 
DOCKED: USER  keepresnum = 1 
DOCKED: USER  
DOCKED: REMARK  10 active torsions:
DOCKED: REMARK  status: ('A' for Active; 'I' for Inactive)
DOCKED: REMARK    1  A    between atoms: C_6  and  C_10 
DOCKED: REMARK    2  A    between atoms: C_10  and  C_11 
DOCKED: REMARK    3  A    between atoms: C_11  and  C_12 
DOCKED: REMARK    4  A    between atoms: C_12  and  O_14 
DOCKED: REMARK    5  A    between atoms: C_17  and  C_20 
DOCKED: REMARK    6  A    between atoms: C_24  and  C_27 
DOCKED: REMARK    7  A    between atoms: C_31  and  C_34 
DOCKED: REMARK    8  A    between atoms: C_34  and  C_35 
DOCKED: REMARK    9  A    between atoms: C_35  and  C_36 
DOCKED: REMARK   10  A    between atoms: C_36  and  O_38 
DOCKED: USER                              x       y       z     vdW  Elec       q    Type
DOCKED: USER                           _______ _______ _______ _____ _____    ______ ____
DOCKED: ROOT
DOCKED: ATOM      1  C   UNL d   1      42.804  27.647  16.850 -0.25 +0.02    +0.064 A 
DOCKED: ATOM      2  C   UNL d   1      40.800  31.911  16.251 -0.40 +0.01    +0.064 A 
DOCKED: ATOM      3  C   UNL d   1      37.464  30.037  13.344 -0.38 +0.01    +0.064 C 
DOCKED: ATOM      4  C   UNL d   1      39.230  25.568  14.332 -0.40 +0.01    +0.064 A 
DOCKED: ATOM      5  C   UNL d   1      42.530  28.959  16.926 -0.24 +0.02    +0.066 A 
DOCKED: ATOM      6  C   UNL d   1      43.288  29.876  17.661 -0.30 -0.01    -0.021 A 
DOCKED: ATOM      7  C   UNL d   1      42.683  31.104  17.523 -0.37 -0.00    -0.025 A 
DOCKED: ATOM      8  C   UNL d   1      41.601  30.912  16.669 -0.34 +0.01    +0.066 A 
DOCKED: ATOM      9  C   UNL d   1      43.131  32.372  18.216 -0.44 +0.01    +0.051 C 
DOCKED: ATOM     10  C   UNL d   1      39.664  31.775  15.339 -0.36 +0.01    +0.066 A 
DOCKED: ATOM     11  C   UNL d   1      38.967  32.867  14.809 -0.40 -0.00    -0.021 A 
DOCKED: ATOM     12  C   UNL d   1      38.013  32.348  13.954 -0.40 +0.00    +0.000 A 
DOCKED: ATOM     13  C   UNL d   1      38.177  30.936  14.021 -0.37 +0.01    +0.070 A 
DOCKED: ATOM     14  C   UNL d   1      39.219  34.344  15.086 -0.53 +0.00    +0.052 C 
DOCKED: ATOM     15  C   UNL d   1      37.575  28.600  13.411 -0.39 +0.01    +0.066 A 
DOCKED: ATOM     16  C   UNL d   1      36.692  27.709  12.802 -0.49 -0.00    -0.021 A 
DOCKED: ATOM     17  C   UNL d   1      37.175  26.428  13.071 -0.47 +0.00    +0.000 A 
DOCKED: ATOM     18  C   UNL d   1      38.334  26.637  13.832 -0.38 +0.01    +0.070 A 
DOCKED: ATOM     19  C   UNL d   1      35.449  28.153  12.073 -0.65 +0.00    +0.052 C 
DOCKED: ATOM     20  C   UNL d   1      40.325  25.730  15.101 -0.40 +0.01    +0.066 A 
DOCKED: ATOM     21  C   UNL d   1      41.141  24.686  15.527 -0.42 -0.00    -0.025 A 
DOCKED: ATOM     22  C   UNL d   1      42.180  25.262  16.223 -0.32 -0.00    -0.021 A 
DOCKED: ATOM     23  C   UNL d   1      41.948  26.641  16.211 -0.34 +0.01    +0.066 A 
DOCKED: ATOM     24  C   UNL d   1      40.938  23.213  15.285 -0.56 +0.00    +0.051 C 
DOCKED: ATOM     25  N   UNL d   1      41.469  29.579  16.354 -0.21 -0.06    -0.248 N 
DOCKED: ATOM     26  N   UNL d   1      39.180  30.596  14.870 -0.15 -0.05    -0.248 N 
DOCKED: ATOM     27  N   UNL d   1      38.519  27.956  14.092 -0.21 -0.05    -0.248 N 
DOCKED: ATOM     28  N   UNL d   1      40.796  26.917  15.567 -0.27 -0.05    -0.248 N 
DOCKED: ATOM     29 FE   UNL d   1      39.992  28.742  15.219 -0.07 +0.00    +0.000 Fe
DOCKED: ATOM     30  O   UNL d   1      39.501  29.271  16.599 -0.72 +0.00    +0.000 OA
DOCKED: ATOM     31  O   UNL d   1      38.938  27.910  16.038 -0.89 +0.00    +0.000 OA
DOCKED: ENDROOT
DOCKED: BRANCH   6  32
DOCKED: ATOM     32  C   UNL d   1      44.455  29.591  18.569 -0.28 +0.02    +0.052 C 
DOCKED: BRANCH  32  33
DOCKED: ATOM     33  C   UNL d   1      44.034  29.341  20.014 +0.11 +0.09    +0.115 C 
DOCKED: BRANCH  33  34
DOCKED: ATOM     34  C   UNL d   1      44.545  28.024  20.543 -0.09 +0.17    +0.139 C 
DOCKED: ATOM     35  O   UNL d   1      45.729  27.901  20.813 -0.35 -0.91    -0.650 OA
DOCKED: BRANCH  34  36
DOCKED: ATOM     36  O   UNL d   1      43.726  26.964  20.701 -0.15 -0.85    -0.776 OA
DOCKED: ATOM     37  H   UNL d   1      43.783  26.185  20.135 +0.06 +0.11    +0.167 HD
DOCKED: ENDBRANCH  34  36
DOCKED: ENDBRANCH  33  34
DOCKED: ENDBRANCH  32  33
DOCKED: ENDBRANCH   6  32
DOCKED: BRANCH  22  38
DOCKED: ATOM     38  C   UNL d   1      43.294  24.519  16.913 -0.31 +0.01    +0.052 C 
DOCKED: BRANCH  38  39
DOCKED: ATOM     39  C   UNL d   1      44.673  24.934  16.404 -0.14 +0.04    +0.115 C 
DOCKED: BRANCH  39  40
DOCKED: ATOM     40  C   UNL d   1      45.580  25.402  17.515 -0.18 +0.06    +0.139 C 
DOCKED: ATOM     41  O   UNL d   1      46.738  25.696  17.268 -0.01 -0.32    -0.650 OA
DOCKED: BRANCH  40  42
DOCKED: ATOM     42  O   UNL d   1      45.120  25.552  18.772 +0.10 -0.37    -0.776 OA
DOCKED: ATOM     43  H   UNL d   1      45.289  26.354  19.279 +0.06 +0.10    +0.167 HD
DOCKED: ENDBRANCH  40  42
DOCKED: ENDBRANCH  39  40
DOCKED: ENDBRANCH  38  39
DOCKED: ENDBRANCH  22  38
DOCKED: BRANCH  12  44
DOCKED: ATOM     44  C   UNL d   1      37.060  33.234  13.180 -0.50 +0.00    +0.004 C 
DOCKED: ATOM     45  C   UNL d   1      35.977  32.869  12.494 -0.60 +0.00    +0.012 C 
DOCKED: ENDBRANCH  12  44
DOCKED: BRANCH  17  46
DOCKED: ATOM     46  C   UNL d   1      36.620  25.071  12.730 -0.67 +0.00    +0.004 C 
DOCKED: ATOM     47  C   UNL d   1      35.897  24.253  13.506 -0.73 +0.00    +0.012 C 
DOCKED: ENDBRANCH  17  46
DOCKED: TORSDOF 10
DOCKED: TER
DOCKED: ENDMDL
________________________________________________________________________________


	BEGINNING GENETIC ALGORITHM DOCKING 84 of 100
Run: 84 Seed: 387327306 116356671 [ Run 84 of 100 GA/GALS ]
Beginning LAMARCKIAN GENETIC ALGORITHM (LGA), with a maximum of 25000000 energy evaluations.

Final-Value: -19.938


	FINAL GENETIC ALGORITHM DOCKED STATE
	_______________________________________________


Detailed state:  trans 41.245 28.382 15.780 quatxyzw -0.334404 0.376164 0.863833 -0.021595 center 8.287 34.468 -0.670 ntor 10 -163.3074 -44.2605 15.1181 -70.9664 -89.5640 -35.7759 -41.6201 5.0355 -152.6856 15.9758
State:	 41.245  28.382  15.780  -0.334  0.376  0.864 -177.525   -163.31  -44.26   15.12  -70.97  -89.56  -35.78  -41.62    5.04 -152.69   15.98

DOCKED: MODEL       84
DOCKED: USER    Run = 84
DOCKED: USER    DPF = D:/Protein_go_brrr/autodock/final/6BB5/heme_O2/dock.dpf
DOCKED: USER  
DOCKED: USER    Estimated Free Energy of Binding    =  -15.35 kcal/mol  [=(1)+(2)+(3)-(4)]
DOCKED: USER    Estimated Inhibition Constant, Ki   =    5.62 pM (picomolar)  [Temperature = 298.15 K]
DOCKED: USER    
DOCKED: USER    (1) Final Intermolecular Energy     =  -18.33 kcal/mol
DOCKED: USER        vdW + Hbond + desolv Energy     =  -16.09 kcal/mol
DOCKED: USER        Electrostatic Energy            =   -2.25 kcal/mol
DOCKED: USER    (2) Final Total Internal Energy     =   -1.61 kcal/mol
DOCKED: USER    (3) Torsional Free Energy           =   +2.98 kcal/mol
DOCKED: USER    (4) Unbound System's Energy  [=(2)] =   -1.61 kcal/mol
DOCKED: USER    
DOCKED: USER    
DOCKED: USER    NEWDPF move heme_O2_opt.pdbqt
DOCKED: USER    NEWDPF about 8.287000 34.468000 -0.670000
DOCKED: USER    NEWDPF tran0 41.245088 28.382263 15.780013
DOCKED: USER    NEWDPF quaternion0 -0.334404 0.376164 0.863833 -0.021595
DOCKED: USER    NEWDPF axisangle0 -0.334482 0.376252 0.864035 -177.525217
DOCKED: USER    NEWDPF quat0 -0.334482 0.376252 0.864035 -177.525217
DOCKED: USER    NEWDPF dihe0 -163.31 -44.26 15.12 -70.97 -89.56 -35.78 -41.62 5.04 -152.69 15.98 
DOCKED: USER  keepresnum = 1 
DOCKED: USER  
DOCKED: REMARK  10 active torsions:
DOCKED: REMARK  status: ('A' for Active; 'I' for Inactive)
DOCKED: REMARK    1  A    between atoms: C_6  and  C_10 
DOCKED: REMARK    2  A    between atoms: C_10  and  C_11 
DOCKED: REMARK    3  A    between atoms: C_11  and  C_12 
DOCKED: REMARK    4  A    between atoms: C_12  and  O_14 
DOCKED: REMARK    5  A    between atoms: C_17  and  C_20 
DOCKED: REMARK    6  A    between atoms: C_24  and  C_27 
DOCKED: REMARK    7  A    between atoms: C_31  and  C_34 
DOCKED: REMARK    8  A    between atoms: C_34  and  C_35 
DOCKED: REMARK    9  A    between atoms: C_35  and  C_36 
DOCKED: REMARK   10  A    between atoms: C_36  and  O_38 
DOCKED: USER                              x       y       z     vdW  Elec       q    Type
DOCKED: USER                           _______ _______ _______ _____ _____    ______ ____
DOCKED: ROOT
DOCKED: ATOM      1  C   UNL d   1      42.970  27.820  16.879 -0.27 +0.02    +0.064 A 
DOCKED: ATOM      2  C   UNL d   1      40.766  31.984  16.277 -0.40 +0.01    +0.064 A 
DOCKED: ATOM      3  C   UNL d   1      37.511  29.948  13.385 -0.39 +0.01    +0.064 C 
DOCKED: ATOM      4  C   UNL d   1      39.489  25.569  14.379 -0.41 +0.01    +0.064 A 
DOCKED: ATOM      5  C   UNL d   1      42.635  29.119  16.952 -0.26 +0.02    +0.066 A 
DOCKED: ATOM      6  C   UNL d   1      43.351  30.072  17.682 -0.31 -0.01    -0.021 A 
DOCKED: ATOM      7  C   UNL d   1      42.689  31.269  17.543 -0.38 -0.00    -0.025 A 
DOCKED: ATOM      8  C   UNL d   1      41.614  31.025  16.694 -0.35 +0.01    +0.066 A 
DOCKED: ATOM      9  C   UNL d   1      43.080  32.559  18.232 -0.44 +0.01    +0.051 C 
DOCKED: ATOM     10  C   UNL d   1      39.634  31.792  15.368 -0.36 +0.01    +0.066 A 
DOCKED: ATOM     11  C   UNL d   1      38.885  32.849  14.839 -0.40 -0.00    -0.021 A 
DOCKED: ATOM     12  C   UNL d   1      37.953  32.283  13.988 -0.40 +0.00    +0.000 A 
DOCKED: ATOM     13  C   UNL d   1      38.184  30.881  14.059 -0.36 +0.01    +0.070 A 
DOCKED: ATOM     14  C   UNL d   1      39.069  34.338  15.111 -0.53 +0.00    +0.052 C 
DOCKED: ATOM     15  C   UNL d   1      37.690  28.518  13.456 -0.38 +0.01    +0.066 A 
DOCKED: ATOM     16  C   UNL d   1      36.847  27.585  12.852 -0.48 -0.00    -0.021 A 
DOCKED: ATOM     17  C   UNL d   1      37.391  26.329  13.123 -0.47 +0.00    +0.000 A 
DOCKED: ATOM     18  C   UNL d   1      38.541  26.594  13.879 -0.38 +0.01    +0.070 A 
DOCKED: ATOM     19  C   UNL d   1      35.582  27.968  12.126 -0.65 +0.00    +0.052 C 
DOCKED: ATOM     20  C   UNL d   1      40.577  25.785  15.143 -0.40 +0.01    +0.066 A 
DOCKED: ATOM     21  C   UNL d   1      41.443  24.781  15.568 -0.39 -0.00    -0.025 A 
DOCKED: ATOM     22  C   UNL d   1      42.456  25.407  16.259 -0.29 -0.00    -0.021 A 
DOCKED: ATOM     23  C   UNL d   1      42.160  26.774  16.245 -0.33 +0.01    +0.066 A 
DOCKED: ATOM     24  C   UNL d   1      41.308  23.299  15.331 -0.54 +0.01    +0.051 C 
DOCKED: ATOM     25  N   UNL d   1      41.544  29.686  16.383 -0.21 -0.06    -0.248 N 
DOCKED: ATOM     26  N   UNL d   1      39.205  30.591  14.904 -0.15 -0.05    -0.248 N 
DOCKED: ATOM     27  N   UNL d   1      38.666  27.921  14.135 -0.21 -0.05    -0.248 N 
DOCKED: ATOM     28  N   UNL d   1      40.994  26.994  15.604 -0.26 -0.05    -0.248 N 
DOCKED: ATOM     29 FE   UNL d   1      40.104  28.778  15.255 -0.08 +0.00    +0.000 Fe
DOCKED: ATOM     30  O   UNL d   1      39.593  29.287  16.635 -0.71 +0.00    +0.000 OA
DOCKED: ATOM     31  O   UNL d   1      39.093  27.900  16.080 -0.92 +0.00    +0.000 OA
DOCKED: ENDROOT
DOCKED: BRANCH   6  32
DOCKED: ATOM     32  C   UNL d   1      44.534  29.844  18.587 -0.28 +0.02    +0.052 C 
DOCKED: BRANCH  32  33
DOCKED: ATOM     33  C   UNL d   1      44.169  29.083  19.858 -0.13 +0.09    +0.115 C 
DOCKED: BRANCH  33  34
DOCKED: ATOM     34  C   UNL d   1      45.172  28.006  20.192 -0.19 +0.14    +0.139 C 
DOCKED: ATOM     35  O   UNL d   1      45.778  28.054  21.250 -0.31 -1.26    -0.650 OA
DOCKED: BRANCH  34  36
DOCKED: ATOM     36  O   UNL d   1      45.436  27.001  19.332 +0.07 -0.48    -0.776 OA
DOCKED: ATOM     37  H   UNL d   1      45.879  26.191  19.613 +0.05 +0.10    +0.167 HD
DOCKED: ENDBRANCH  34  36
DOCKED: ENDBRANCH  33  34
DOCKED: ENDBRANCH  32  33
DOCKED: ENDBRANCH   6  32
DOCKED: BRANCH  22  38
DOCKED: ATOM     38  C   UNL d   1      43.606  24.718  16.947 -0.29 +0.02    +0.052 C 
DOCKED: BRANCH  38  39
DOCKED: ATOM     39  C   UNL d   1      44.958  25.115  16.358 -0.19 +0.04    +0.115 C 
DOCKED: BRANCH  39  40
DOCKED: ATOM     40  C   UNL d   1      46.103  24.357  16.982 -0.20 +0.08    +0.139 C 
DOCKED: ATOM     41  O   UNL d   1      46.690  23.504  16.335 -0.09 -0.58    -0.650 OA
DOCKED: BRANCH  40  42
DOCKED: ATOM     42  O   UNL d   1      46.527  24.640  18.229 +0.08 -0.41    -0.776 OA
DOCKED: ATOM     43  H   UNL d   1      46.609  25.549  18.540 +0.04 +0.08    +0.167 HD
DOCKED: ENDBRANCH  40  42
DOCKED: ENDBRANCH  39  40
DOCKED: ENDBRANCH  38  39
DOCKED: ENDBRANCH  22  38
DOCKED: BRANCH  12  44
DOCKED: ATOM     44  C   UNL d   1      36.957  33.122  13.215 -0.50 +0.00    +0.004 C 
DOCKED: ATOM     45  C   UNL d   1      35.895  32.704  12.526 -0.60 +0.00    +0.012 C 
DOCKED: ENDBRANCH  12  44
DOCKED: BRANCH  17  46
DOCKED: ATOM     46  C   UNL d   1      36.899  24.946  12.787 -0.66 +0.00    +0.004 C 
DOCKED: ATOM     47  C   UNL d   1      35.932  24.242  13.389 -0.73 +0.00    +0.012 C 
DOCKED: ENDBRANCH  17  46
DOCKED: TORSDOF 10
DOCKED: TER
DOCKED: ENDMDL
________________________________________________________________________________


	BEGINNING GENETIC ALGORITHM DOCKING 85 of 100
Run: 85 Seed: 1257416027 906344337 [ Run 85 of 100 GA/GALS ]
Beginning LAMARCKIAN GENETIC ALGORITHM (LGA), with a maximum of 25000000 energy evaluations.

Final-Value: -10.275


	FINAL GENETIC ALGORITHM DOCKED STATE
	_______________________________________________


Detailed state:  trans 17.104 26.837 29.220 quatxyzw 0.080561 -0.958780 0.193603 0.191754 center 8.287 34.468 -0.670 ntor 10 -34.5078 -141.3965 -47.3166 -86.7100 -139.3453 53.7421 53.0198 -70.1881 -34.5270 -180.0000
State:	 17.104  26.837  29.220   0.082 -0.977  0.197 157.890    -34.51 -141.40  -47.32  -86.71 -139.35   53.74   53.02  -70.19  -34.53 -180.00

DOCKED: MODEL       85
DOCKED: USER    Run = 85
DOCKED: USER    DPF = D:/Protein_go_brrr/autodock/final/6BB5/heme_O2/dock.dpf
DOCKED: USER  
DOCKED: USER    Estimated Free Energy of Binding    =   -6.61 kcal/mol  [=(1)+(2)+(3)-(4)]
DOCKED: USER    Estimated Inhibition Constant, Ki   =   14.22 uM (micromolar)  [Temperature = 298.15 K]
DOCKED: USER    
DOCKED: USER    (1) Final Intermolecular Energy     =   -9.60 kcal/mol
DOCKED: USER        vdW + Hbond + desolv Energy     =   -7.90 kcal/mol
DOCKED: USER        Electrostatic Energy            =   -1.70 kcal/mol
DOCKED: USER    (2) Final Total Internal Energy     =   -0.68 kcal/mol
DOCKED: USER    (3) Torsional Free Energy           =   +2.98 kcal/mol
DOCKED: USER    (4) Unbound System's Energy  [=(2)] =   -0.68 kcal/mol
DOCKED: USER    
DOCKED: USER    
DOCKED: USER    NEWDPF move heme_O2_opt.pdbqt
DOCKED: USER    NEWDPF about 8.287000 34.468000 -0.670000
DOCKED: USER    NEWDPF tran0 17.104361 26.836879 29.220356
DOCKED: USER    NEWDPF quaternion0 0.080561 -0.958780 0.193603 0.191754
DOCKED: USER    NEWDPF axisangle0 0.082084 -0.976908 0.197263 157.889642
DOCKED: USER    NEWDPF quat0 0.082084 -0.976908 0.197263 157.889642
DOCKED: USER    NEWDPF dihe0 -34.51 -141.40 -47.32 -86.71 -139.35 53.74 53.02 -70.19 -34.53 -180.00 
DOCKED: USER  keepresnum = 1 
DOCKED: USER  
DOCKED: REMARK  10 active torsions:
DOCKED: REMARK  status: ('A' for Active; 'I' for Inactive)
DOCKED: REMARK    1  A    between atoms: C_6  and  C_10 
DOCKED: REMARK    2  A    between atoms: C_10  and  C_11 
DOCKED: REMARK    3  A    between atoms: C_11  and  C_12 
DOCKED: REMARK    4  A    between atoms: C_12  and  O_14 
DOCKED: REMARK    5  A    between atoms: C_17  and  C_20 
DOCKED: REMARK    6  A    between atoms: C_24  and  C_27 
DOCKED: REMARK    7  A    between atoms: C_31  and  C_34 
DOCKED: REMARK    8  A    between atoms: C_34  and  C_35 
DOCKED: REMARK    9  A    between atoms: C_35  and  C_36 
DOCKED: REMARK   10  A    between atoms: C_36  and  O_38 
DOCKED: USER                              x       y       z     vdW  Elec       q    Type
DOCKED: USER                           _______ _______ _______ _____ _____    ______ ____
DOCKED: ROOT
DOCKED: ATOM      1  C   UNL d   1      18.445  28.086  30.289 -0.08 +0.01    +0.064 A 
DOCKED: ATOM      2  C   UNL d   1      19.069  24.068  27.833 -0.21 +0.00    +0.064 A 
DOCKED: ATOM      3  C   UNL d   1      14.372  23.834  26.845 -0.20 -0.01    +0.064 C 
DOCKED: ATOM      4  C   UNL d   1      13.791  28.220  28.964 -0.13 -0.01    +0.064 A 
DOCKED: ATOM      5  C   UNL d   1      18.998  27.013  29.700 -0.01 +0.01    +0.066 A 
DOCKED: ATOM      6  C   UNL d   1      20.358  26.696  29.770 -0.12 -0.00    -0.021 A 
DOCKED: ATOM      7  C   UNL d   1      20.547  25.557  29.023 -0.19 -0.00    -0.025 A 
DOCKED: ATOM      8  C   UNL d   1      19.290  25.182  28.558 -0.19 +0.01    +0.066 A 
DOCKED: ATOM      9  C   UNL d   1      21.888  24.904  28.764 -0.24 -0.00    +0.051 C 
DOCKED: ATOM     10  C   UNL d   1      17.770  23.611  27.337 -0.20 -0.00    +0.066 A 
DOCKED: ATOM     11  C   UNL d   1      17.573  22.365  26.732 -0.18 +0.00    -0.021 A 
DOCKED: ATOM     12  C   UNL d   1      16.222  22.272  26.455 -0.21 -0.00    +0.000 A 
DOCKED: ATOM     13  C   UNL d   1      15.660  23.498  26.907 -0.15 -0.01    +0.070 A 
DOCKED: ATOM     14  C   UNL d   1      18.625  21.298  26.453 -0.14 -0.01    +0.052 C 
DOCKED: ATOM     15  C   UNL d   1      13.770  25.079  27.258 -0.14 -0.01    +0.066 A 
DOCKED: ATOM     16  C   UNL d   1      12.444  25.434  27.016 -0.21 +0.00    -0.021 A 
DOCKED: ATOM     17  C   UNL d   1      12.255  26.682  27.611 -0.16 -0.00    +0.000 A 
DOCKED: ATOM     18  C   UNL d   1      13.497  26.997  28.180 -0.10 -0.01    +0.070 A 
DOCKED: ATOM     19  C   UNL d   1      11.501  24.586  26.201 -0.27 -0.01    +0.052 C 
DOCKED: ATOM     20  C   UNL d   1      14.981  28.574  29.486 -0.14 -0.00    +0.066 A 
DOCKED: ATOM     21  C   UNL d   1      15.193  29.731  30.231 -0.16 +0.00    -0.025 A 
DOCKED: ATOM     22  C   UNL d   1      16.507  29.696  30.640 -0.15 -0.00    -0.021 A 
DOCKED: ATOM     23  C   UNL d   1      17.055  28.523  30.112 -0.13 +0.00    +0.066 A 
DOCKED: ATOM     24  C   UNL d   1      14.193  30.817  30.533 -0.14 -0.00    +0.051 C 
DOCKED: ATOM     25  N   UNL d   1      18.347  26.116  28.921 -0.10 -0.03    -0.248 N 
DOCKED: ATOM     26  N   UNL d   1      16.611  24.309  27.438 -0.10 +0.01    -0.248 N 
DOCKED: ATOM     27  N   UNL d   1      14.424  26.048  27.892 -0.05 +0.02    -0.248 N 
DOCKED: ATOM     28  N   UNL d   1      16.136  27.867  29.375 -0.08 +0.00    -0.248 N 
DOCKED: ATOM     29 FE   UNL d   1      16.369  26.101  28.412 -0.04 +0.00    +0.000 Fe
DOCKED: ATOM     30  O   UNL d   1      17.323  26.381  27.215 -0.37 +0.00    +0.000 OA
DOCKED: ATOM     31  O   UNL d   1      15.969  27.176  27.336 -0.36 -0.00    +0.000 OA
DOCKED: ENDROOT
DOCKED: BRANCH   6  32
DOCKED: ATOM     32  C   UNL d   1      21.463  27.506  30.397 -0.13 +0.01    +0.052 C 
DOCKED: BRANCH  32  33
DOCKED: ATOM     33  C   UNL d   1      21.130  27.966  31.813 -0.06 +0.04    +0.115 C 
DOCKED: BRANCH  33  34
DOCKED: ATOM     34  C   UNL d   1      21.350  29.446  32.004 +0.01 +0.14    +0.139 C 
DOCKED: ATOM     35  O   UNL d   1      20.608  30.242  31.451 -0.59 -0.89    -0.650 OA
DOCKED: BRANCH  34  36
DOCKED: ATOM     36  O   UNL d   1      22.370  29.915  32.751 -0.07 -1.01    -0.776 OA
DOCKED: ATOM     37  H   UNL d   1      22.684  29.451  33.536 +0.01 +0.11    +0.167 HD
DOCKED: ENDBRANCH  34  36
DOCKED: ENDBRANCH  33  34
DOCKED: ENDBRANCH  32  33
DOCKED: ENDBRANCH   6  32
DOCKED: BRANCH  22  38
DOCKED: ATOM     38  C   UNL d   1      17.208  30.765  31.438 -0.18 +0.01    +0.052 C 
DOCKED: BRANCH  38  39
DOCKED: ATOM     39  C   UNL d   1      17.610  31.963  30.579 -0.27 +0.03    +0.115 C 
DOCKED: BRANCH  39  40
DOCKED: ATOM     40  C   UNL d   1      16.775  33.185  30.868 -0.26 +0.02    +0.139 C 
DOCKED: ATOM     41  O   UNL d   1      16.738  34.098  30.059 -0.11 -0.06    -0.650 OA
DOCKED: BRANCH  40  42
DOCKED: ATOM     42  O   UNL d   1      16.024  33.268  31.983 +0.05 -0.06    -0.776 OA
DOCKED: ATOM     43  H   UNL d   1      15.133  33.636  31.966 +0.04 +0.00    +0.167 HD
DOCKED: ENDBRANCH  40  42
DOCKED: ENDBRANCH  39  40
DOCKED: ENDBRANCH  38  39
DOCKED: ENDBRANCH  22  38
DOCKED: BRANCH  12  44
DOCKED: ATOM     44  C   UNL d   1      15.618  21.048  25.799 -0.36 -0.00    +0.004 C 
DOCKED: ATOM     45  C   UNL d   1      14.575  20.329  26.210 -0.35 -0.01    +0.012 C 
DOCKED: ENDBRANCH  12  44
DOCKED: BRANCH  17  46
DOCKED: ATOM     46  C   UNL d   1      11.058  27.594  27.634 -0.24 -0.00    +0.004 C 
DOCKED: ATOM     47  C   UNL d   1      10.771  28.606  26.804 -0.43 -0.00    +0.012 C 
DOCKED: ENDBRANCH  17  46
DOCKED: TORSDOF 10
DOCKED: TER
DOCKED: ENDMDL
________________________________________________________________________________


	BEGINNING GENETIC ALGORITHM DOCKING 86 of 100
Run: 86 Seed: 1402514596 1223976498 [ Run 86 of 100 GA/GALS ]
Beginning LAMARCKIAN GENETIC ALGORITHM (LGA), with a maximum of 25000000 energy evaluations.

Final-Value: -11.654


	FINAL GENETIC ALGORITHM DOCKED STATE
	_______________________________________________


Detailed state:  trans 11.493 38.940 24.433 quatxyzw 0.061174 -0.204411 -0.405695 0.888755 center 8.287 34.468 -0.670 ntor 10 -60.3844 115.0521 -61.2698 50.8291 -120.0974 143.6854 49.6136 -65.9814 153.2049 -177.8957
State:	 11.493  38.940  24.433   0.133 -0.446 -0.885 54.566    -60.38  115.05  -61.27   50.83 -120.10  143.69   49.61  -65.98  153.20 -177.90

DOCKED: MODEL       86
DOCKED: USER    Run = 86
DOCKED: USER    DPF = D:/Protein_go_brrr/autodock/final/6BB5/heme_O2/dock.dpf
DOCKED: USER  
DOCKED: USER    Estimated Free Energy of Binding    =   -8.13 kcal/mol  [=(1)+(2)+(3)-(4)]
DOCKED: USER    Estimated Inhibition Constant, Ki   =    1.09 uM (micromolar)  [Temperature = 298.15 K]
DOCKED: USER    
DOCKED: USER    (1) Final Intermolecular Energy     =  -11.12 kcal/mol
DOCKED: USER        vdW + Hbond + desolv Energy     =   -9.98 kcal/mol
DOCKED: USER        Electrostatic Energy            =   -1.14 kcal/mol
DOCKED: USER    (2) Final Total Internal Energy     =   -0.54 kcal/mol
DOCKED: USER    (3) Torsional Free Energy           =   +2.98 kcal/mol
DOCKED: USER    (4) Unbound System's Energy  [=(2)] =   -0.54 kcal/mol
DOCKED: USER    
DOCKED: USER    
DOCKED: USER    NEWDPF move heme_O2_opt.pdbqt
DOCKED: USER    NEWDPF about 8.287000 34.468000 -0.670000
DOCKED: USER    NEWDPF tran0 11.493417 38.940136 24.433340
DOCKED: USER    NEWDPF quaternion0 0.061174 -0.204411 -0.405695 0.888755
DOCKED: USER    NEWDPF axisangle0 0.133455 -0.445940 -0.885058 54.565537
DOCKED: USER    NEWDPF quat0 0.133455 -0.445940 -0.885058 54.565537
DOCKED: USER    NEWDPF dihe0 -60.38 115.05 -61.27 50.83 -120.10 143.69 49.61 -65.98 153.20 -177.90 
DOCKED: USER  keepresnum = 1 
DOCKED: USER  
DOCKED: REMARK  10 active torsions:
DOCKED: REMARK  status: ('A' for Active; 'I' for Inactive)
DOCKED: REMARK    1  A    between atoms: C_6  and  C_10 
DOCKED: REMARK    2  A    between atoms: C_10  and  C_11 
DOCKED: REMARK    3  A    between atoms: C_11  and  C_12 
DOCKED: REMARK    4  A    between atoms: C_12  and  O_14 
DOCKED: REMARK    5  A    between atoms: C_17  and  C_20 
DOCKED: REMARK    6  A    between atoms: C_24  and  C_27 
DOCKED: REMARK    7  A    between atoms: C_31  and  C_34 
DOCKED: REMARK    8  A    between atoms: C_34  and  C_35 
DOCKED: REMARK    9  A    between atoms: C_35  and  C_36 
DOCKED: REMARK   10  A    between atoms: C_36  and  O_38 
DOCKED: USER                              x       y       z     vdW  Elec       q    Type
DOCKED: USER                           _______ _______ _______ _____ _____    ______ ____
DOCKED: ROOT
DOCKED: ATOM      1  C   UNL d   1       9.695  37.818  24.513 -0.25 -0.01    +0.064 A 
DOCKED: ATOM      2  C   UNL d   1      13.583  37.845  27.241 -0.24 -0.02    +0.064 A 
DOCKED: ATOM      3  C   UNL d   1      15.612  41.211  24.477 -0.35 -0.02    +0.064 C 
DOCKED: ATOM      4  C   UNL d   1      11.425  41.537  21.941 +0.06 -0.01    +0.064 A 
DOCKED: ATOM      5  C   UNL d   1      10.586  37.552  25.482 -0.25 -0.02    +0.066 A 
DOCKED: ATOM      6  C   UNL d   1      10.389  36.601  26.487 -0.27 +0.01    -0.021 A 
DOCKED: ATOM      7  C   UNL d   1      11.495  36.639  27.303 -0.21 +0.01    -0.025 A 
DOCKED: ATOM      8  C   UNL d   1      12.359  37.577  26.745 -0.26 -0.03    +0.066 A 
DOCKED: ATOM      9  C   UNL d   1      11.668  35.822  28.565 -0.03 -0.03    +0.051 C 
DOCKED: ATOM     10  C   UNL d   1      14.542  38.801  26.687 -0.25 -0.02    +0.066 A 
DOCKED: ATOM     11  C   UNL d   1      15.859  38.922  27.143 -0.26 +0.00    -0.021 A 
DOCKED: ATOM     12  C   UNL d   1      16.466  39.875  26.347 -0.30 -0.00    +0.000 A 
DOCKED: ATOM     13  C   UNL d   1      15.459  40.300  25.437 -0.29 -0.02    +0.070 A 
DOCKED: ATOM     14  C   UNL d   1      16.519  38.141  28.274 -0.28 -0.00    +0.052 C 
DOCKED: ATOM     15  C   UNL d   1      14.609  41.695  23.559 -0.28 -0.02    +0.066 A 
DOCKED: ATOM     16  C   UNL d   1      14.787  42.767  22.685 -0.34 +0.00    -0.021 A 
DOCKED: ATOM     17  C   UNL d   1      13.606  42.879  21.952 -0.32 -0.00    +0.000 A 
DOCKED: ATOM     18  C   UNL d   1      12.785  41.852  22.439 -0.25 -0.01    +0.070 A 
DOCKED: ATOM     19  C   UNL d   1      16.035  43.614  22.666 -0.34 -0.01    +0.052 C 
DOCKED: ATOM     20  C   UNL d   1      10.595  40.588  22.414 -0.20 -0.01    +0.066 A 
DOCKED: ATOM     21  C   UNL d   1       9.331  40.325  21.892 -0.20 +0.00    -0.025 A 
DOCKED: ATOM     22  C   UNL d   1       8.834  39.251  22.595 -0.23 +0.00    -0.021 A 
DOCKED: ATOM     23  C   UNL d   1       9.810  38.907  23.536 -0.24 -0.01    +0.066 A 
DOCKED: ATOM     24  C   UNL d   1       8.632  41.065  20.781 -0.22 -0.00    +0.051 C 
DOCKED: ATOM     25  N   UNL d   1      11.771  38.186  25.661 -0.16 +0.10    -0.248 N 
DOCKED: ATOM     26  N   UNL d   1      14.290  39.645  25.655 -0.12 +0.09    -0.248 N 
DOCKED: ATOM     27  N   UNL d   1      13.381  41.192  23.465 -0.13 +0.07    -0.248 N 
DOCKED: ATOM     28  N   UNL d   1      10.859  39.751  23.452 -0.10 +0.06    -0.248 N 
DOCKED: ATOM     29 FE   UNL d   1      12.563  39.701  24.544 -0.04 -0.00    +0.000 Fe
DOCKED: ATOM     30  O   UNL d   1      12.167  40.126  25.988 -0.16 -0.00    +0.000 OA
DOCKED: ATOM     31  O   UNL d   1      11.890  41.102  24.783 -0.17 -0.00    +0.000 OA
DOCKED: ENDROOT
DOCKED: BRANCH   6  32
DOCKED: ATOM     32  C   UNL d   1       9.151  35.785  26.755 -0.27 -0.00    +0.052 C 
DOCKED: BRANCH  32  33
DOCKED: ATOM     33  C   UNL d   1       8.610  35.975  28.169 -0.15 +0.02    +0.115 C 
DOCKED: BRANCH  33  34
DOCKED: ATOM     34  C   UNL d   1       8.290  34.665  28.844 +0.04 +0.11    +0.139 C 
DOCKED: ATOM     35  O   UNL d   1       9.156  34.087  29.482 -0.54 -0.71    -0.650 OA
DOCKED: BRANCH  34  36
DOCKED: ATOM     36  O   UNL d   1       7.071  34.097  28.736 -0.10 -0.60    -0.776 OA
DOCKED: ATOM     37  H   UNL d   1       6.271  34.543  29.039 +0.02 +0.06    +0.167 HD
DOCKED: ENDBRANCH  34  36
DOCKED: ENDBRANCH  33  34
DOCKED: ENDBRANCH  32  33
DOCKED: ENDBRANCH   6  32
DOCKED: BRANCH  22  38
DOCKED: ATOM     38  C   UNL d   1       7.471  38.635  22.411 -0.29 -0.01    +0.052 C 
DOCKED: BRANCH  38  39
DOCKED: ATOM     39  C   UNL d   1       6.362  39.481  23.032 -0.14 -0.01    +0.115 C 
DOCKED: BRANCH  39  40
DOCKED: ATOM     40  C   UNL d   1       5.439  40.072  21.996 -0.15 +0.00    +0.139 C 
DOCKED: ATOM     41  O   UNL d   1       5.832  40.978  21.280 -0.43 -0.10    -0.650 OA
DOCKED: BRANCH  40  42
DOCKED: ATOM     42  O   UNL d   1       4.198  39.581  21.810 -0.00 -0.01    -0.776 OA
DOCKED: ATOM     43  H   UNL d   1       3.414  40.123  21.960 +0.03 -0.00    +0.167 HD
DOCKED: ENDBRANCH  40  42
DOCKED: ENDBRANCH  39  40
DOCKED: ENDBRANCH  38  39
DOCKED: ENDBRANCH  22  38
DOCKED: BRANCH  12  44
DOCKED: ATOM     44  C   UNL d   1      17.915  40.276  26.534 -0.32 -0.00    +0.004 C 
DOCKED: ATOM     45  C   UNL d   1      18.931  40.089  25.694 -0.43 -0.00    +0.012 C 
DOCKED: ENDBRANCH  12  44
DOCKED: BRANCH  17  46
DOCKED: ATOM     46  C   UNL d   1      13.182  43.877  20.908 -0.26 -0.00    +0.004 C 
DOCKED: ATOM     47  C   UNL d   1      13.895  44.354  19.880 -0.28 -0.00    +0.012 C 
DOCKED: ENDBRANCH  17  46
DOCKED: TORSDOF 10
DOCKED: TER
DOCKED: ENDMDL
________________________________________________________________________________


	BEGINNING GENETIC ALGORITHM DOCKING 87 of 100
Run: 87 Seed: 136858550 2125284991 [ Run 87 of 100 GA/GALS ]
Beginning LAMARCKIAN GENETIC ALGORITHM (LGA), with a maximum of 25000000 energy evaluations.

Final-Value: -11.374


	FINAL GENETIC ALGORITHM DOCKED STATE
	_______________________________________________


Detailed state:  trans 11.948 38.888 24.802 quatxyzw -0.041276 0.235863 0.419057 -0.875818 center 8.287 34.468 -0.670 ntor 10 22.4008 0.9232 -67.4572 62.7193 113.0163 -9.4972 66.7324 73.5718 -179.9554 145.8938
State:	 11.948  38.888  24.802  -0.086  0.489  0.868 -57.716     22.40    0.92  -67.46   62.72  113.02   -9.50   66.73   73.57 -179.96  145.89

DOCKED: MODEL       87
DOCKED: USER    Run = 87
DOCKED: USER    DPF = D:/Protein_go_brrr/autodock/final/6BB5/heme_O2/dock.dpf
DOCKED: USER  
DOCKED: USER    Estimated Free Energy of Binding    =   -7.66 kcal/mol  [=(1)+(2)+(3)-(4)]
DOCKED: USER    Estimated Inhibition Constant, Ki   =    2.41 uM (micromolar)  [Temperature = 298.15 K]
DOCKED: USER    
DOCKED: USER    (1) Final Intermolecular Energy     =  -10.65 kcal/mol
DOCKED: USER        vdW + Hbond + desolv Energy     =  -10.01 kcal/mol
DOCKED: USER        Electrostatic Energy            =   -0.63 kcal/mol
DOCKED: USER    (2) Final Total Internal Energy     =   -0.73 kcal/mol
DOCKED: USER    (3) Torsional Free Energy           =   +2.98 kcal/mol
DOCKED: USER    (4) Unbound System's Energy  [=(2)] =   -0.73 kcal/mol
DOCKED: USER    
DOCKED: USER    
DOCKED: USER    NEWDPF move heme_O2_opt.pdbqt
DOCKED: USER    NEWDPF about 8.287000 34.468000 -0.670000
DOCKED: USER    NEWDPF tran0 11.947802 38.887643 24.802007
DOCKED: USER    NEWDPF quaternion0 -0.041276 0.235863 0.419057 -0.875818
DOCKED: USER    NEWDPF axisangle0 -0.085520 0.488692 0.868255 -57.716238
DOCKED: USER    NEWDPF quat0 -0.085520 0.488692 0.868255 -57.716238
DOCKED: USER    NEWDPF dihe0 22.40 0.92 -67.46 62.72 113.02 -9.50 66.73 73.57 -179.96 145.89 
DOCKED: USER  keepresnum = 1 
DOCKED: USER  
DOCKED: REMARK  10 active torsions:
DOCKED: REMARK  status: ('A' for Active; 'I' for Inactive)
DOCKED: REMARK    1  A    between atoms: C_6  and  C_10 
DOCKED: REMARK    2  A    between atoms: C_10  and  C_11 
DOCKED: REMARK    3  A    between atoms: C_11  and  C_12 
DOCKED: REMARK    4  A    between atoms: C_12  and  O_14 
DOCKED: REMARK    5  A    between atoms: C_17  and  C_20 
DOCKED: REMARK    6  A    between atoms: C_24  and  C_27 
DOCKED: REMARK    7  A    between atoms: C_31  and  C_34 
DOCKED: REMARK    8  A    between atoms: C_34  and  C_35 
DOCKED: REMARK    9  A    between atoms: C_35  and  C_36 
DOCKED: REMARK   10  A    between atoms: C_36  and  O_38 
DOCKED: USER                              x       y       z     vdW  Elec       q    Type
DOCKED: USER                           _______ _______ _______ _____ _____    ______ ____
DOCKED: ROOT
DOCKED: ATOM      1  C   UNL d   1      10.186  37.724  25.006 -0.24 -0.02    +0.064 A 
DOCKED: ATOM      2  C   UNL d   1      14.276  37.804  27.420 -0.24 -0.02    +0.064 A 
DOCKED: ATOM      3  C   UNL d   1      16.007  41.251  24.554 -0.38 -0.02    +0.064 C 
DOCKED: ATOM      4  C   UNL d   1      11.626  41.514  22.361 -0.20 -0.01    +0.064 A 
DOCKED: ATOM      5  C   UNL d   1      11.157  37.466  25.898 -0.27 -0.02    +0.066 A 
DOCKED: ATOM      6  C   UNL d   1      11.060  36.498  26.902 -0.26 +0.01    -0.021 A 
DOCKED: ATOM      7  C   UNL d   1      12.226  36.550  27.629 -0.20 +0.02    -0.025 A 
DOCKED: ATOM      8  C   UNL d   1      13.023  37.515  27.019 -0.27 -0.03    +0.066 A 
DOCKED: ATOM      9  C   UNL d   1      12.517  35.722  28.861 -0.09 -0.03    +0.051 C 
DOCKED: ATOM     10  C   UNL d   1      15.167  38.790  26.807 -0.25 -0.01    +0.066 A 
DOCKED: ATOM     11  C   UNL d   1      16.514  38.934  27.159 -0.26 +0.00    -0.021 A 
DOCKED: ATOM     12  C   UNL d   1      17.035  39.911  26.331 -0.31 -0.00    +0.000 A 
DOCKED: ATOM     13  C   UNL d   1      15.950  40.325  25.510 -0.32 -0.02    +0.070 A 
DOCKED: ATOM     14  C   UNL d   1      17.278  38.154  28.223 -0.29 +0.00    +0.052 C 
DOCKED: ATOM     15  C   UNL d   1      14.924  41.724  23.725 -0.28 -0.02    +0.066 A 
DOCKED: ATOM     16  C   UNL d   1      15.009  42.810  22.856 -0.34 +0.00    -0.021 A 
DOCKED: ATOM     17  C   UNL d   1      13.771  42.905  22.220 -0.31 -0.00    +0.000 A 
DOCKED: ATOM     18  C   UNL d   1      13.014  41.854  22.755 -0.25 -0.01    +0.070 A 
DOCKED: ATOM     19  C   UNL d   1      16.233  43.686  22.751 -0.29 -0.01    +0.052 C 
DOCKED: ATOM     20  C   UNL d   1      10.857  40.540  22.884 -0.20 -0.01    +0.066 A 
DOCKED: ATOM     21  C   UNL d   1       9.562  40.256  22.459 -0.20 +0.00    -0.025 A 
DOCKED: ATOM     22  C   UNL d   1       9.146  39.161  23.183 -0.22 +0.00    -0.021 A 
DOCKED: ATOM     23  C   UNL d   1      10.200  38.828  24.039 -0.24 -0.01    +0.066 A 
DOCKED: ATOM     24  C   UNL d   1       8.761  40.993  21.418 -0.19 -0.00    +0.051 C 
DOCKED: ATOM     25  N   UNL d   1      12.338  38.124  25.993 -0.13 +0.10    -0.248 N 
DOCKED: ATOM     26  N   UNL d   1      14.816  39.641  25.809 -0.19 +0.07    -0.248 N 
DOCKED: ATOM     27  N   UNL d   1      13.704  41.194  23.721 -0.14 +0.08    -0.248 N 
DOCKED: ATOM     28  N   UNL d   1      11.221  39.696  23.886 +0.09 +0.09    -0.248 N 
DOCKED: ATOM     29 FE   UNL d   1      13.006  39.671  24.839 -0.04 -0.00    +0.000 Fe
DOCKED: ATOM     30  O   UNL d   1      12.716  40.069  26.316 -0.16 -0.00    +0.000 OA
DOCKED: ATOM     31  O   UNL d   1      12.324  41.054  25.151 -0.17 -0.00    +0.000 OA
DOCKED: ENDROOT
DOCKED: BRANCH   6  32
DOCKED: ATOM     32  C   UNL d   1       9.865  35.650  27.255 -0.28 -0.01    +0.052 C 
DOCKED: BRANCH  32  33
DOCKED: ATOM     33  C   UNL d   1       9.043  36.232  28.400 -0.13 +0.01    +0.115 C 
DOCKED: BRANCH  33  34
DOCKED: ATOM     34  C   UNL d   1       9.053  35.347  29.622 -0.11 +0.04    +0.139 C 
DOCKED: ATOM     35  O   UNL d   1       9.018  34.135  29.490 -0.55 -0.69    -0.650 OA
DOCKED: BRANCH  34  36
DOCKED: ATOM     36  O   UNL d   1       9.071  35.868  30.867 +0.03 -0.08    -0.776 OA
DOCKED: ATOM     37  H   UNL d   1       8.763  36.763  31.051 +0.01 +0.01    +0.167 HD
DOCKED: ENDBRANCH  34  36
DOCKED: ENDBRANCH  33  34
DOCKED: ENDBRANCH  32  33
DOCKED: ENDBRANCH   6  32
DOCKED: BRANCH  22  38
DOCKED: ATOM     38  C   UNL d   1       7.786  38.517  23.098 -0.25 -0.01    +0.052 C 
DOCKED: BRANCH  38  39
DOCKED: ATOM     39  C   UNL d   1       6.972  38.705  24.376 -0.12 -0.01    +0.115 C 
DOCKED: BRANCH  39  40
DOCKED: ATOM     40  C   UNL d   1       6.850  37.431  25.175 -0.17 -0.01    +0.139 C 
DOCKED: ATOM     41  O   UNL d   1       7.019  37.455  26.384 +0.02 +0.01    -0.650 OA
DOCKED: BRANCH  40  42
DOCKED: ATOM     42  O   UNL d   1       6.508  36.270  24.585 +0.05 +0.07    -0.776 OA
DOCKED: ATOM     43  H   UNL d   1       6.382  36.207  23.630 -0.51 -0.08    +0.167 HD
DOCKED: ENDBRANCH  40  42
DOCKED: ENDBRANCH  39  40
DOCKED: ENDBRANCH  38  39
DOCKED: ENDBRANCH  22  38
DOCKED: BRANCH  12  44
DOCKED: ATOM     44  C   UNL d   1      18.485  40.342  26.410 -0.26 -0.00    +0.004 C 
DOCKED: ATOM     45  C   UNL d   1      19.462  40.092  25.540 -0.40 -0.00    +0.012 C 
DOCKED: ENDBRANCH  12  44
DOCKED: BRANCH  17  46
DOCKED: ATOM     46  C   UNL d   1      13.244  43.907  21.227 -0.25 -0.00    +0.004 C 
DOCKED: ATOM     47  C   UNL d   1      13.765  44.252  20.043 -0.28 -0.00    +0.012 C 
DOCKED: ENDBRANCH  17  46
DOCKED: TORSDOF 10
DOCKED: TER
DOCKED: ENDMDL
________________________________________________________________________________


	BEGINNING GENETIC ALGORITHM DOCKING 88 of 100
Run: 88 Seed: 1944886739 1677135607 [ Run 88 of 100 GA/GALS ]
Beginning LAMARCKIAN GENETIC ALGORITHM (LGA), with a maximum of 25000000 energy evaluations.

Final-Value: -19.310


	FINAL GENETIC ALGORITHM DOCKED STATE
	_______________________________________________


Detailed state:  trans 8.422 34.827 -1.150 quatxyzw -0.023382 -0.037892 -0.027761 -0.998622 center 8.287 34.468 -0.670 ntor 10 118.7477 114.2957 -17.9017 -65.9232 -172.3407 -54.9056 -53.8444 114.4465 173.6310 180.0000
State:	  8.422  34.827  -1.150  -0.446 -0.722 -0.529 -6.015    118.75  114.30  -17.90  -65.92 -172.34  -54.91  -53.84  114.45  173.63  180.00

DOCKED: MODEL       88
DOCKED: USER    Run = 88
DOCKED: USER    DPF = D:/Protein_go_brrr/autodock/final/6BB5/heme_O2/dock.dpf
DOCKED: USER  
DOCKED: USER    Estimated Free Energy of Binding    =  -14.23 kcal/mol  [=(1)+(2)+(3)-(4)]
DOCKED: USER    Estimated Inhibition Constant, Ki   =   37.12 pM (picomolar)  [Temperature = 298.15 K]
DOCKED: USER    
DOCKED: USER    (1) Final Intermolecular Energy     =  -17.21 kcal/mol
DOCKED: USER        vdW + Hbond + desolv Energy     =  -15.82 kcal/mol
DOCKED: USER        Electrostatic Energy            =   -1.39 kcal/mol
DOCKED: USER    (2) Final Total Internal Energy     =   -2.10 kcal/mol
DOCKED: USER    (3) Torsional Free Energy           =   +2.98 kcal/mol
DOCKED: USER    (4) Unbound System's Energy  [=(2)] =   -2.10 kcal/mol
DOCKED: USER    
DOCKED: USER    
DOCKED: USER    NEWDPF move heme_O2_opt.pdbqt
DOCKED: USER    NEWDPF about 8.287000 34.468000 -0.670000
DOCKED: USER    NEWDPF tran0 8.421766 34.826977 -1.149958
DOCKED: USER    NEWDPF quaternion0 -0.023382 -0.037892 -0.027761 -0.998622
DOCKED: USER    NEWDPF axisangle0 -0.445621 -0.722151 -0.529074 -6.015493
DOCKED: USER    NEWDPF quat0 -0.445621 -0.722151 -0.529074 -6.015493
DOCKED: USER    NEWDPF dihe0 118.75 114.30 -17.90 -65.92 -172.34 -54.91 -53.84 114.45 173.63 180.00 
DOCKED: USER  keepresnum = 1 
DOCKED: USER  
DOCKED: REMARK  10 active torsions:
DOCKED: REMARK  status: ('A' for Active; 'I' for Inactive)
DOCKED: REMARK    1  A    between atoms: C_6  and  C_10 
DOCKED: REMARK    2  A    between atoms: C_10  and  C_11 
DOCKED: REMARK    3  A    between atoms: C_11  and  C_12 
DOCKED: REMARK    4  A    between atoms: C_12  and  O_14 
DOCKED: REMARK    5  A    between atoms: C_17  and  C_20 
DOCKED: REMARK    6  A    between atoms: C_24  and  C_27 
DOCKED: REMARK    7  A    between atoms: C_31  and  C_34 
DOCKED: REMARK    8  A    between atoms: C_34  and  C_35 
DOCKED: REMARK    9  A    between atoms: C_35  and  C_36 
DOCKED: REMARK   10  A    between atoms: C_36  and  O_38 
DOCKED: USER                              x       y       z     vdW  Elec       q    Type
DOCKED: USER                           _______ _______ _______ _____ _____    ______ ____
DOCKED: ROOT
DOCKED: ATOM      1  C   UNL d   1       6.654  35.489  -2.118 -0.23 +0.01    +0.064 A 
DOCKED: ATOM      2  C   UNL d   1       7.392  32.887   1.787 -0.37 +0.01    +0.064 A 
DOCKED: ATOM      3  C   UNL d   1      12.151  33.149   1.174 -0.43 +0.00    +0.064 C 
DOCKED: ATOM      4  C   UNL d   1      11.417  36.227  -2.575 -0.46 +0.00    +0.064 A 
DOCKED: ATOM      5  C   UNL d   1       6.466  34.761  -1.005 -0.16 +0.01    +0.066 A 
DOCKED: ATOM      6  C   UNL d   1       5.210  34.429  -0.489 -0.26 -0.00    -0.021 A 
DOCKED: ATOM      7  C   UNL d   1       5.423  33.713   0.666 -0.34 -0.00    -0.025 A 
DOCKED: ATOM      8  C   UNL d   1       6.803  33.585   0.797 -0.32 +0.01    +0.066 A 
DOCKED: ATOM      9  C   UNL d   1       4.332  33.216   1.589 -0.37 +0.01    +0.051 C 
DOCKED: ATOM     10  C   UNL d   1       8.833  32.699   1.964 -0.33 +0.00    +0.066 A 
DOCKED: ATOM     11  C   UNL d   1       9.384  31.830   2.912 -0.44 -0.00    -0.021 A 
DOCKED: ATOM     12  C   UNL d   1      10.755  31.878   2.739 -0.43 +0.00    +0.000 A 
DOCKED: ATOM     13  C   UNL d   1      10.968  32.803   1.679 -0.37 +0.00    +0.070 A 
DOCKED: ATOM     14  C   UNL d   1       8.634  30.970   3.922 -0.56 +0.00    +0.052 C 
DOCKED: ATOM     15  C   UNL d   1      12.410  34.107   0.126 -0.37 +0.00    +0.066 A 
DOCKED: ATOM     16  C   UNL d   1      13.680  34.547  -0.247 -0.45 -0.00    -0.021 A 
DOCKED: ATOM     17  C   UNL d   1      13.496  35.426  -1.313 -0.46 +0.00    +0.000 A 
DOCKED: ATOM     18  C   UNL d   1      12.109  35.455  -1.516 -0.40 +0.00    +0.070 A 
DOCKED: ATOM     19  C   UNL d   1      14.938  34.136   0.477 -0.61 +0.00    +0.052 C 
DOCKED: ATOM     20  C   UNL d   1      10.086  36.311  -2.770 -0.42 +0.00    +0.066 A 
DOCKED: ATOM     21  C   UNL d   1       9.493  37.040  -3.797 -0.41 +0.00    -0.025 A 
DOCKED: ATOM     22  C   UNL d   1       8.138  36.820  -3.698 -0.32 -0.00    -0.021 A 
DOCKED: ATOM     23  C   UNL d   1       7.952  35.975  -2.600 -0.33 +0.00    +0.066 A 
DOCKED: ATOM     24  C   UNL d   1      10.184  37.907  -4.818 -0.46 -0.01    +0.051 C 
DOCKED: ATOM     25  N   UNL d   1       7.446  34.287  -0.196 -0.15 -0.04    -0.248 N 
DOCKED: ATOM     26  N   UNL d   1       9.793  33.301   1.217 -0.10 -0.03    -0.248 N 
DOCKED: ATOM     27  N   UNL d   1      11.461  34.708  -0.586 -0.19 -0.03    -0.248 N 
DOCKED: ATOM     28  N   UNL d   1       9.135  35.705  -2.011 -0.27 -0.03    -0.248 N 
DOCKED: ATOM     29 FE   UNL d   1       9.464  34.513  -0.409 +0.04 +0.00    +0.000 Fe
DOCKED: ATOM     30  O   UNL d   1       8.875  35.263   0.820 -0.91 +0.00    +0.000 OA
DOCKED: ATOM     31  O   UNL d   1       9.998  35.947  -0.047 -0.99 +0.00    +0.000 OA
DOCKED: ENDROOT
DOCKED: BRANCH   6  32
DOCKED: ATOM     32  C   UNL d   1       3.861  34.883  -0.982 -0.22 +0.01    +0.052 C 
DOCKED: BRANCH  32  33
DOCKED: ATOM     33  C   UNL d   1       3.255  35.987  -0.121 -0.14 +0.06    +0.115 C 
DOCKED: BRANCH  33  34
DOCKED: ATOM     34  C   UNL d   1       2.912  37.218  -0.922 -0.17 +0.11    +0.139 C 
DOCKED: ATOM     35  O   UNL d   1       2.479  37.098  -2.058 -0.01 -0.33    -0.650 OA
DOCKED: BRANCH  34  36
DOCKED: ATOM     36  O   UNL d   1       3.097  38.457  -0.422 -0.46 -1.18    -0.776 OA
DOCKED: ATOM     37  H   UNL d   1       3.691  39.093  -0.839 +0.04 +0.17    +0.167 HD
DOCKED: ENDBRANCH  34  36
DOCKED: ENDBRANCH  33  34
DOCKED: ENDBRANCH  32  33
DOCKED: ENDBRANCH   6  32
DOCKED: BRANCH  22  38
DOCKED: ATOM     38  C   UNL d   1       7.081  37.441  -4.575 -0.24 +0.00    +0.052 C 
DOCKED: BRANCH  38  39
DOCKED: ATOM     39  C   UNL d   1       6.774  38.885  -4.183 -0.21 +0.00    +0.115 C 
DOCKED: BRANCH  39  40
DOCKED: ATOM     40  C   UNL d   1       6.123  38.987  -2.826 -0.27 +0.02    +0.139 C 
DOCKED: ATOM     41  O   UNL d   1       6.816  39.103  -1.828 +0.12 -0.03    -0.650 OA
DOCKED: BRANCH  40  42
DOCKED: ATOM     42  O   UNL d   1       4.782  39.006  -2.698 +0.05 -0.21    -0.776 OA
DOCKED: ATOM     43  H   UNL d   1       4.311  38.309  -2.225 +0.05 +0.06    +0.167 HD
DOCKED: ENDBRANCH  40  42
DOCKED: ENDBRANCH  39  40
DOCKED: ENDBRANCH  38  39
DOCKED: ENDBRANCH  22  38
DOCKED: BRANCH  12  44
DOCKED: ATOM     44  C   UNL d   1      11.702  31.056   3.588 -0.53 +0.00    +0.004 C 
DOCKED: ATOM     45  C   UNL d   1      12.948  30.684   3.298 -0.65 +0.00    +0.012 C 
DOCKED: ENDBRANCH  12  44
DOCKED: BRANCH  17  46
DOCKED: ATOM     46  C   UNL d   1      14.482  36.256  -2.092 -0.63 +0.00    +0.004 C 
DOCKED: ATOM     47  C   UNL d   1      15.132  37.358  -1.696 -0.67 +0.00    +0.012 C 
DOCKED: ENDBRANCH  17  46
DOCKED: TORSDOF 10
DOCKED: TER
DOCKED: ENDMDL
________________________________________________________________________________


	BEGINNING GENETIC ALGORITHM DOCKING 89 of 100
Run: 89 Seed: 1406902978 537083132 [ Run 89 of 100 GA/GALS ]
Beginning LAMARCKIAN GENETIC ALGORITHM (LGA), with a maximum of 25000000 energy evaluations.

Final-Value: -20.437


	FINAL GENETIC ALGORITHM DOCKED STATE
	_______________________________________________


Detailed state:  trans 41.090 28.199 15.753 quatxyzw -0.330055 0.370428 0.866319 -0.057773 center 8.287 34.468 -0.670 ntor 10 49.8175 172.9676 11.8705 -95.5335 -165.0418 97.7083 -12.0356 77.7033 -156.3054 178.3645
State:	 41.090  28.199  15.753  -0.331  0.371  0.868 -173.376     49.82  172.97   11.87  -95.53 -165.04   97.71  -12.04   77.70 -156.31  178.36

DOCKED: MODEL       89
DOCKED: USER    Run = 89
DOCKED: USER    DPF = D:/Protein_go_brrr/autodock/final/6BB5/heme_O2/dock.dpf
DOCKED: USER  
DOCKED: USER    Estimated Free Energy of Binding    =  -15.31 kcal/mol  [=(1)+(2)+(3)-(4)]
DOCKED: USER    Estimated Inhibition Constant, Ki   =    5.96 pM (picomolar)  [Temperature = 298.15 K]
DOCKED: USER    
DOCKED: USER    (1) Final Intermolecular Energy     =  -18.30 kcal/mol
DOCKED: USER        vdW + Hbond + desolv Energy     =  -16.26 kcal/mol
DOCKED: USER        Electrostatic Energy            =   -2.04 kcal/mol
DOCKED: USER    (2) Final Total Internal Energy     =   -2.14 kcal/mol
DOCKED: USER    (3) Torsional Free Energy           =   +2.98 kcal/mol
DOCKED: USER    (4) Unbound System's Energy  [=(2)] =   -2.14 kcal/mol
DOCKED: USER    
DOCKED: USER    
DOCKED: USER    NEWDPF move heme_O2_opt.pdbqt
DOCKED: USER    NEWDPF about 8.287000 34.468000 -0.670000
DOCKED: USER    NEWDPF tran0 41.089832 28.199400 15.753386
DOCKED: USER    NEWDPF quaternion0 -0.330055 0.370428 0.866319 -0.057773
DOCKED: USER    NEWDPF axisangle0 -0.330607 0.371048 0.867769 -173.375968
DOCKED: USER    NEWDPF quat0 -0.330607 0.371048 0.867769 -173.375968
DOCKED: USER    NEWDPF dihe0 49.82 172.97 11.87 -95.53 -165.04 97.71 -12.04 77.70 -156.31 178.36 
DOCKED: USER  keepresnum = 1 
DOCKED: USER  
DOCKED: REMARK  10 active torsions:
DOCKED: REMARK  status: ('A' for Active; 'I' for Inactive)
DOCKED: REMARK    1  A    between atoms: C_6  and  C_10 
DOCKED: REMARK    2  A    between atoms: C_10  and  C_11 
DOCKED: REMARK    3  A    between atoms: C_11  and  C_12 
DOCKED: REMARK    4  A    between atoms: C_12  and  O_14 
DOCKED: REMARK    5  A    between atoms: C_17  and  C_20 
DOCKED: REMARK    6  A    between atoms: C_24  and  C_27 
DOCKED: REMARK    7  A    between atoms: C_31  and  C_34 
DOCKED: REMARK    8  A    between atoms: C_34  and  C_35 
DOCKED: REMARK    9  A    between atoms: C_35  and  C_36 
DOCKED: REMARK   10  A    between atoms: C_36  and  O_38 
DOCKED: USER                              x       y       z     vdW  Elec       q    Type
DOCKED: USER                           _______ _______ _______ _____ _____    ______ ____
DOCKED: ROOT
DOCKED: ATOM      1  C   UNL d   1      42.756  27.493  16.860 -0.24 +0.02    +0.064 A 
DOCKED: ATOM      2  C   UNL d   1      40.823  31.804  16.374 -0.40 +0.01    +0.064 A 
DOCKED: ATOM      3  C   UNL d   1      37.507  30.078  13.354 -0.39 +0.01    +0.064 C 
DOCKED: ATOM      4  C   UNL d   1      39.192  25.553  14.220 -0.42 +0.01    +0.064 A 
DOCKED: ATOM      5  C   UNL d   1      42.500  28.806  16.976 -0.15 +0.02    +0.066 A 
DOCKED: ATOM      6  C   UNL d   1      43.259  29.686  17.752 -0.29 -0.01    -0.021 A 
DOCKED: ATOM      7  C   UNL d   1      42.674  30.927  17.646 -0.37 -0.01    -0.025 A 
DOCKED: ATOM      8  C   UNL d   1      41.603  30.779  16.770 -0.34 +0.01    +0.066 A 
DOCKED: ATOM      9  C   UNL d   1      43.130  32.164  18.388 -0.44 +0.01    +0.051 C 
DOCKED: ATOM     10  C   UNL d   1      39.700  31.716  15.440 -0.36 +0.01    +0.066 A 
DOCKED: ATOM     11  C   UNL d   1      39.028  32.835  14.936 -0.41 -0.00    -0.021 A 
DOCKED: ATOM     12  C   UNL d   1      38.079  32.359  14.050 -0.40 +0.00    +0.000 A 
DOCKED: ATOM     13  C   UNL d   1      38.222  30.944  14.073 -0.36 +0.01    +0.070 A 
DOCKED: ATOM     14  C   UNL d   1      39.297  34.298  15.266 -0.54 +0.00    +0.052 C 
DOCKED: ATOM     15  C   UNL d   1      37.596  28.638  13.375 -0.39 +0.01    +0.066 A 
DOCKED: ATOM     16  C   UNL d   1      36.709  27.781  12.723 -0.50 -0.00    -0.021 A 
DOCKED: ATOM     17  C   UNL d   1      37.169  26.485  12.957 -0.47 +0.00    +0.000 A 
DOCKED: ATOM     18  C   UNL d   1      38.319  26.651  13.742 -0.38 +0.01    +0.070 A 
DOCKED: ATOM     19  C   UNL d   1      35.484  28.268  11.990 -0.66 +0.00    +0.052 C 
DOCKED: ATOM     20  C   UNL d   1      40.276  25.673  15.010 -0.40 +0.01    +0.066 A 
DOCKED: ATOM     21  C   UNL d   1      41.070  24.603  15.413 -0.44 -0.00    -0.025 A 
DOCKED: ATOM     22  C   UNL d   1      42.106  25.140  16.144 -0.33 -0.00    -0.021 A 
DOCKED: ATOM     23  C   UNL d   1      41.895  26.522  16.175 -0.34 +0.01    +0.066 A 
DOCKED: ATOM     24  C   UNL d   1      40.849  23.141  15.119 -0.56 +0.00    +0.051 C 
DOCKED: ATOM     25  N   UNL d   1      41.456  29.460  16.409 -0.21 -0.06    -0.248 N 
DOCKED: ATOM     26  N   UNL d   1      39.207  30.561  14.924 -0.15 -0.05    -0.248 N 
DOCKED: ATOM     27  N   UNL d   1      38.520  27.958  14.048 -0.21 -0.05    -0.248 N 
DOCKED: ATOM     28  N   UNL d   1      40.757  26.836  15.522 -0.27 -0.05    -0.248 N 
DOCKED: ATOM     29 FE   UNL d   1      39.985  28.684  15.224 -0.08 +0.00    +0.000 Fe
DOCKED: ATOM     30  O   UNL d   1      39.481  29.174  16.613 -0.74 +0.00    +0.000 OA
DOCKED: ATOM     31  O   UNL d   1      38.907  27.841  15.999 -0.86 +0.00    +0.000 OA
DOCKED: ENDROOT
DOCKED: BRANCH   6  32
DOCKED: ATOM     32  C   UNL d   1      44.408  29.353  18.668 -0.28 +0.02    +0.052 C 
DOCKED: BRANCH  32  33
DOCKED: ATOM     33  C   UNL d   1      43.961  28.649  19.946 -0.06 +0.09    +0.115 C 
DOCKED: BRANCH  33  34
DOCKED: ATOM     34  C   UNL d   1      45.113  28.018  20.688 -0.06 +0.19    +0.139 C 
DOCKED: ATOM     35  O   UNL d   1      46.154  28.639  20.826 -0.30 -0.80    -0.650 OA
DOCKED: BRANCH  34  36
DOCKED: ATOM     36  O   UNL d   1      45.030  26.765  21.181 -0.05 -1.19    -0.776 OA
DOCKED: ATOM     37  H   UNL d   1      44.733  26.023  20.642 +0.06 +0.15    +0.167 HD
DOCKED: ENDBRANCH  34  36
DOCKED: ENDBRANCH  33  34
DOCKED: ENDBRANCH  32  33
DOCKED: ENDBRANCH   6  32
DOCKED: BRANCH  22  38
DOCKED: ATOM     38  C   UNL d   1      43.198  24.357  16.825 -0.31 +0.01    +0.052 C 
DOCKED: BRANCH  38  39
DOCKED: ATOM     39  C   UNL d   1      42.743  23.760  18.155 -0.37 +0.03    +0.115 C 
DOCKED: BRANCH  39  40
DOCKED: ATOM     40  C   UNL d   1      43.270  24.528  19.342 -0.31 +0.05    +0.139 C 
DOCKED: ATOM     41  O   UNL d   1      44.013  23.978  20.138 -0.15 -0.30    -0.650 OA
DOCKED: BRANCH  40  42
DOCKED: ATOM     42  O   UNL d   1      42.974  25.831  19.514 +0.08 -0.33    -0.776 OA
DOCKED: ATOM     43  H   UNL d   1      43.256  26.313  20.300 +0.06 +0.11    +0.167 HD
DOCKED: ENDBRANCH  40  42
DOCKED: ENDBRANCH  39  40
DOCKED: ENDBRANCH  38  39
DOCKED: ENDBRANCH  22  38
DOCKED: BRANCH  12  44
DOCKED: ATOM     44  C   UNL d   1      37.152  33.285  13.291 -0.49 +0.00    +0.004 C 
DOCKED: ATOM     45  C   UNL d   1      36.115  32.955  12.521 -0.59 +0.00    +0.012 C 
DOCKED: ENDBRANCH  12  44
DOCKED: BRANCH  17  46
DOCKED: ATOM     46  C   UNL d   1      36.600  25.149  12.562 -0.67 +0.00    +0.004 C 
DOCKED: ATOM     47  C   UNL d   1      35.922  24.280  13.323 -0.73 +0.00    +0.012 C 
DOCKED: ENDBRANCH  17  46
DOCKED: TORSDOF 10
DOCKED: TER
DOCKED: ENDMDL
________________________________________________________________________________


	BEGINNING GENETIC ALGORITHM DOCKING 90 of 100
Run: 90 Seed: 163884921 572658691 [ Run 90 of 100 GA/GALS ]
Beginning LAMARCKIAN GENETIC ALGORITHM (LGA), with a maximum of 25000000 energy evaluations.

Final-Value: -20.352


	FINAL GENETIC ALGORITHM DOCKED STATE
	_______________________________________________


Detailed state:  trans 41.128 28.297 15.787 quatxyzw 0.320326 -0.370624 -0.866931 0.091981 center 8.287 34.468 -0.670 ntor 10 19.7334 175.2929 21.1651 -107.3442 174.3770 120.6003 14.4006 59.7266 -128.1156 180.0000
State:	 41.128  28.297  15.787   0.322 -0.372 -0.871 169.445     19.73  175.29   21.17 -107.34  174.38  120.60   14.40   59.73 -128.12  180.00

DOCKED: MODEL       90
DOCKED: USER    Run = 90
DOCKED: USER    DPF = D:/Protein_go_brrr/autodock/final/6BB5/heme_O2/dock.dpf
DOCKED: USER  
DOCKED: USER    Estimated Free Energy of Binding    =  -15.70 kcal/mol  [=(1)+(2)+(3)-(4)]
DOCKED: USER    Estimated Inhibition Constant, Ki   =    3.08 pM (picomolar)  [Temperature = 298.15 K]
DOCKED: USER    
DOCKED: USER    (1) Final Intermolecular Energy     =  -18.69 kcal/mol
DOCKED: USER        vdW + Hbond + desolv Energy     =  -16.46 kcal/mol
DOCKED: USER        Electrostatic Energy            =   -2.23 kcal/mol
DOCKED: USER    (2) Final Total Internal Energy     =   -1.66 kcal/mol
DOCKED: USER    (3) Torsional Free Energy           =   +2.98 kcal/mol
DOCKED: USER    (4) Unbound System's Energy  [=(2)] =   -1.66 kcal/mol
DOCKED: USER    
DOCKED: USER    
DOCKED: USER    NEWDPF move heme_O2_opt.pdbqt
DOCKED: USER    NEWDPF about 8.287000 34.468000 -0.670000
DOCKED: USER    NEWDPF tran0 41.127928 28.297242 15.787455
DOCKED: USER    NEWDPF quaternion0 0.320326 -0.370624 -0.866931 0.091981
DOCKED: USER    NEWDPF axisangle0 0.321690 -0.372202 -0.870621 169.444780
DOCKED: USER    NEWDPF quat0 0.321690 -0.372202 -0.870621 169.444780
DOCKED: USER    NEWDPF dihe0 19.73 175.29 21.17 -107.34 174.38 120.60 14.40 59.73 -128.12 180.00 
DOCKED: USER  keepresnum = 1 
DOCKED: USER  
DOCKED: REMARK  10 active torsions:
DOCKED: REMARK  status: ('A' for Active; 'I' for Inactive)
DOCKED: REMARK    1  A    between atoms: C_6  and  C_10 
DOCKED: REMARK    2  A    between atoms: C_10  and  C_11 
DOCKED: REMARK    3  A    between atoms: C_11  and  C_12 
DOCKED: REMARK    4  A    between atoms: C_12  and  O_14 
DOCKED: REMARK    5  A    between atoms: C_17  and  C_20 
DOCKED: REMARK    6  A    between atoms: C_24  and  C_27 
DOCKED: REMARK    7  A    between atoms: C_31  and  C_34 
DOCKED: REMARK    8  A    between atoms: C_34  and  C_35 
DOCKED: REMARK    9  A    between atoms: C_35  and  C_36 
DOCKED: REMARK   10  A    between atoms: C_36  and  O_38 
DOCKED: USER                              x       y       z     vdW  Elec       q    Type
DOCKED: USER                           _______ _______ _______ _____ _____    ______ ____
DOCKED: ROOT
DOCKED: ATOM      1  C   UNL d   1      42.733  27.455  16.889 -0.23 +0.02    +0.064 A 
DOCKED: ATOM      2  C   UNL d   1      41.096  31.896  16.492 -0.40 +0.01    +0.064 A 
DOCKED: ATOM      3  C   UNL d   1      37.699  30.466  13.408 -0.42 +0.01    +0.064 C 
DOCKED: ATOM      4  C   UNL d   1      39.072  25.820  14.177 -0.41 +0.01    +0.064 A 
DOCKED: ATOM      5  C   UNL d   1      42.564  28.780  17.034 -0.09 +0.02    +0.066 A 
DOCKED: ATOM      6  C   UNL d   1      43.373  29.589  17.837 -0.27 -0.01    -0.021 A 
DOCKED: ATOM      7  C   UNL d   1      42.873  30.868  17.757 -0.36 -0.01    -0.025 A 
DOCKED: ATOM      8  C   UNL d   1      41.802  30.813  16.869 -0.36 +0.01    +0.066 A 
DOCKED: ATOM      9  C   UNL d   1      43.403  32.054  18.531 -0.41 +0.01    +0.051 C 
DOCKED: ATOM     10  C   UNL d   1      39.977  31.905  15.548 -0.37 +0.01    +0.066 A 
DOCKED: ATOM     11  C   UNL d   1      39.385  33.078  15.067 -0.43 -0.00    -0.021 A 
DOCKED: ATOM     12  C   UNL d   1      38.415  32.687  14.163 -0.40 +0.00    +0.000 A 
DOCKED: ATOM     13  C   UNL d   1      38.463  31.265  14.152 -0.36 +0.01    +0.070 A 
DOCKED: ATOM     14  C   UNL d   1      39.749  34.512  15.434 -0.53 +0.00    +0.052 C 
DOCKED: ATOM     15  C   UNL d   1      37.692  29.023  13.395 -0.38 +0.01    +0.066 A 
DOCKED: ATOM     16  C   UNL d   1      36.756  28.243  12.716 -0.51 -0.00    -0.021 A 
DOCKED: ATOM     17  C   UNL d   1      37.127  26.914  12.922 -0.47 +0.00    +0.000 A 
DOCKED: ATOM     18  C   UNL d   1      38.278  26.984  13.719 -0.37 +0.01    +0.070 A 
DOCKED: ATOM     19  C   UNL d   1      35.573  28.827  11.987 -0.65 +0.00    +0.052 C 
DOCKED: ATOM     20  C   UNL d   1      40.155  25.849  14.977 -0.39 +0.01    +0.066 A 
DOCKED: ATOM     21  C   UNL d   1      40.872  24.719  15.360 -0.45 -0.00    -0.025 A 
DOCKED: ATOM     22  C   UNL d   1      41.935  25.168  16.111 -0.36 -0.00    -0.021 A 
DOCKED: ATOM     23  C   UNL d   1      41.816  26.560  16.174 -0.35 +0.01    +0.066 A 
DOCKED: ATOM     24  C   UNL d   1      40.558  23.283  15.030 -0.49 +0.00    +0.051 C 
DOCKED: ATOM     25  N   UNL d   1      41.571  29.515  16.476 -0.21 -0.06    -0.248 N 
DOCKED: ATOM     26  N   UNL d   1      39.413  30.798  15.002 -0.14 -0.05    -0.248 N 
DOCKED: ATOM     27  N   UNL d   1      38.563  28.268  14.058 -0.19 -0.05    -0.248 N 
DOCKED: ATOM     28  N   UNL d   1      40.707  26.965  15.521 -0.27 -0.05    -0.248 N 
DOCKED: ATOM     29 FE   UNL d   1      40.063  28.866  15.262 -0.09 +0.00    +0.000 Fe
DOCKED: ATOM     30  O   UNL d   1      39.579  29.356  16.658 -0.68 +0.00    +0.000 OA
DOCKED: ATOM     31  O   UNL d   1      38.924  28.079  16.008 -0.89 +0.00    +0.000 OA
DOCKED: ENDROOT
DOCKED: BRANCH   6  32
DOCKED: ATOM     32  C   UNL d   1      44.489  29.158  18.753 -0.27 +0.02    +0.052 C 
DOCKED: BRANCH  32  33
DOCKED: ATOM     33  C   UNL d   1      44.129  27.935  19.590 -0.23 +0.08    +0.115 C 
DOCKED: BRANCH  33  34
DOCKED: ATOM     34  C   UNL d   1      45.119  27.687  20.702 -0.10 +0.19    +0.139 C 
DOCKED: ATOM     35  O   UNL d   1      45.798  28.610  21.122 -0.26 -1.08    -0.650 OA
DOCKED: BRANCH  34  36
DOCKED: ATOM     36  O   UNL d   1      45.293  26.457  21.227 -0.06 -1.07    -0.776 OA
DOCKED: ATOM     37  H   UNL d   1      45.028  25.658  20.756 +0.05 +0.14    +0.167 HD
DOCKED: ENDBRANCH  34  36
DOCKED: ENDBRANCH  33  34
DOCKED: ENDBRANCH  32  33
DOCKED: ENDBRANCH   6  32
DOCKED: BRANCH  22  38
DOCKED: ATOM     38  C   UNL d   1      42.967  24.299  16.782 -0.33 +0.01    +0.052 C 
DOCKED: BRANCH  38  39
DOCKED: ATOM     39  C   UNL d   1      42.448  23.670  18.074 -0.40 +0.03    +0.115 C 
DOCKED: BRANCH  39  40
DOCKED: ATOM     40  C   UNL d   1      43.284  24.042  19.272 -0.31 +0.05    +0.139 C 
DOCKED: ATOM     41  O   UNL d   1      44.179  23.299  19.641 -0.35 -0.29    -0.650 OA
DOCKED: BRANCH  40  42
DOCKED: ATOM     42  O   UNL d   1      43.096  25.210  19.917 +0.03 -0.35    -0.776 OA
DOCKED: ATOM     43  H   UNL d   1      43.608  25.443  20.700 +0.07 +0.11    +0.167 HD
DOCKED: ENDBRANCH  40  42
DOCKED: ENDBRANCH  39  40
DOCKED: ENDBRANCH  38  39
DOCKED: ENDBRANCH  22  38
DOCKED: BRANCH  12  44
DOCKED: ATOM     44  C   UNL d   1      37.558  33.690  13.420 -0.46 +0.00    +0.004 C 
DOCKED: ATOM     45  C   UNL d   1      36.413  33.470  12.774 -0.56 +0.00    +0.012 C 
DOCKED: ENDBRANCH  12  44
DOCKED: BRANCH  17  46
DOCKED: ATOM     46  C   UNL d   1      36.474  25.628  12.491 -0.64 +0.00    +0.004 C 
DOCKED: ATOM     47  C   UNL d   1      35.918  24.683  13.260 -0.71 +0.00    +0.012 C 
DOCKED: ENDBRANCH  17  46
DOCKED: TORSDOF 10
DOCKED: TER
DOCKED: ENDMDL
________________________________________________________________________________


	BEGINNING GENETIC ALGORITHM DOCKING 91 of 100
Run: 91 Seed: 644525942 1717805657 [ Run 91 of 100 GA/GALS ]
Beginning LAMARCKIAN GENETIC ALGORITHM (LGA), with a maximum of 25000000 energy evaluations.

Final-Value: -10.372


	FINAL GENETIC ALGORITHM DOCKED STATE
	_______________________________________________


Detailed state:  trans 22.007 37.091 -8.819 quatxyzw -0.058336 0.288831 -0.340144 0.893015 center 8.287 34.468 -0.670 ntor 10 -51.1129 -86.6410 -26.3025 -93.5657 -177.9435 -14.2304 -70.5768 64.8554 161.7864 -125.9818
State:	 22.007  37.091  -8.819  -0.130  0.642 -0.756 53.491    -51.11  -86.64  -26.30  -93.57 -177.94  -14.23  -70.58   64.86  161.79 -125.98

DOCKED: MODEL       91
DOCKED: USER    Run = 91
DOCKED: USER    DPF = D:/Protein_go_brrr/autodock/final/6BB5/heme_O2/dock.dpf
DOCKED: USER  
DOCKED: USER    Estimated Free Energy of Binding    =   -7.43 kcal/mol  [=(1)+(2)+(3)-(4)]
DOCKED: USER    Estimated Inhibition Constant, Ki   =    3.55 uM (micromolar)  [Temperature = 298.15 K]
DOCKED: USER    
DOCKED: USER    (1) Final Intermolecular Energy     =  -10.42 kcal/mol
DOCKED: USER        vdW + Hbond + desolv Energy     =   -8.60 kcal/mol
DOCKED: USER        Electrostatic Energy            =   -1.82 kcal/mol
DOCKED: USER    (2) Final Total Internal Energy     =   +0.05 kcal/mol
DOCKED: USER    (3) Torsional Free Energy           =   +2.98 kcal/mol
DOCKED: USER    (4) Unbound System's Energy  [=(2)] =   +0.05 kcal/mol
DOCKED: USER    
DOCKED: USER    
DOCKED: USER    NEWDPF move heme_O2_opt.pdbqt
DOCKED: USER    NEWDPF about 8.287000 34.468000 -0.670000
DOCKED: USER    NEWDPF tran0 22.007472 37.091142 -8.819380
DOCKED: USER    NEWDPF quaternion0 -0.058336 0.288831 -0.340144 0.893015
DOCKED: USER    NEWDPF axisangle0 -0.129627 0.641808 -0.755830 53.490779
DOCKED: USER    NEWDPF quat0 -0.129627 0.641808 -0.755830 53.490779
DOCKED: USER    NEWDPF dihe0 -51.11 -86.64 -26.30 -93.57 -177.94 -14.23 -70.58 64.86 161.79 -125.98 
DOCKED: USER  keepresnum = 1 
DOCKED: USER  
DOCKED: REMARK  10 active torsions:
DOCKED: REMARK  status: ('A' for Active; 'I' for Inactive)
DOCKED: REMARK    1  A    between atoms: C_6  and  C_10 
DOCKED: REMARK    2  A    between atoms: C_10  and  C_11 
DOCKED: REMARK    3  A    between atoms: C_11  and  C_12 
DOCKED: REMARK    4  A    between atoms: C_12  and  O_14 
DOCKED: REMARK    5  A    between atoms: C_17  and  C_20 
DOCKED: REMARK    6  A    between atoms: C_24  and  C_27 
DOCKED: REMARK    7  A    between atoms: C_31  and  C_34 
DOCKED: REMARK    8  A    between atoms: C_34  and  C_35 
DOCKED: REMARK    9  A    between atoms: C_35  and  C_36 
DOCKED: REMARK   10  A    between atoms: C_36  and  O_38 
DOCKED: USER                              x       y       z     vdW  Elec       q    Type
DOCKED: USER                           _______ _______ _______ _____ _____    ______ ____
DOCKED: ROOT
DOCKED: ATOM      1  C   UNL d   1      20.877  36.717 -10.575 -0.10 +0.03    +0.064 A 
DOCKED: ATOM      2  C   UNL d   1      21.568  34.199  -6.607 -0.16 -0.01    +0.064 A 
DOCKED: ATOM      3  C   UNL d   1      24.476  37.597  -4.847 -0.22 +0.00    +0.064 C 
DOCKED: ATOM      4  C   UNL d   1      23.394  40.412  -8.717 -0.06 +0.01    +0.064 A 
DOCKED: ATOM      5  C   UNL d   1      20.826  35.756  -9.639 -0.10 +0.02    +0.066 A 
DOCKED: ATOM      6  C   UNL d   1      20.100  34.569  -9.774 -0.13 -0.00    -0.021 A 
DOCKED: ATOM      7  C   UNL d   1      20.264  33.859  -8.608 -0.19 +0.00    -0.025 A 
DOCKED: ATOM      8  C   UNL d   1      21.125  34.609  -7.812 -0.12 +0.00    +0.066 A 
DOCKED: ATOM      9  C   UNL d   1      19.588  32.542  -8.294 -0.26 -0.01    +0.051 C 
DOCKED: ATOM     10  C   UNL d   1      22.489  34.932  -5.737 -0.19 -0.01    +0.066 A 
DOCKED: ATOM     11  C   UNL d   1      23.044  34.389  -4.573 -0.28 +0.00    -0.021 A 
DOCKED: ATOM     12  C   UNL d   1      23.899  35.347  -4.061 -0.27 -0.00    +0.000 A 
DOCKED: ATOM     13  C   UNL d   1      23.806  36.449  -4.955 -0.20 -0.00    +0.070 A 
DOCKED: ATOM     14  C   UNL d   1      22.790  33.004  -3.989 -0.37 -0.03    +0.052 C 
DOCKED: ATOM     15  C   UNL d   1      24.383  38.749  -5.711 -0.17 +0.01    +0.066 A 
DOCKED: ATOM     16  C   UNL d   1      24.985  39.980  -5.453 -0.19 -0.00    -0.021 A 
DOCKED: ATOM     17  C   UNL d   1      24.690  40.800  -6.543 -0.13 +0.00    +0.000 A 
DOCKED: ATOM     18  C   UNL d   1      23.921  39.995  -7.396 -0.10 +0.01    +0.070 A 
DOCKED: ATOM     19  C   UNL d   1      25.734  40.279  -4.178 -0.19 +0.01    +0.052 C 
DOCKED: ATOM     20  C   UNL d   1      22.618  39.681  -9.540 -0.08 +0.02    +0.066 A 
DOCKED: ATOM     21  C   UNL d   1      22.166  40.121 -10.781 -0.09 -0.01    -0.025 A 
DOCKED: ATOM     22  C   UNL d   1      21.470  39.071 -11.337 -0.11 -0.01    -0.021 A 
DOCKED: ATOM     23  C   UNL d   1      21.507  38.031 -10.403 -0.11 +0.03    +0.066 A 
DOCKED: ATOM     24  C   UNL d   1      22.385  41.475 -11.404 -0.05 +0.01    +0.051 C 
DOCKED: ATOM     25  N   UNL d   1      21.419  35.808  -8.420 -0.04 -0.04    -0.248 N 
DOCKED: ATOM     26  N   UNL d   1      22.942  36.190  -5.969 -0.10 +0.00    -0.248 N 
DOCKED: ATOM     27  N   UNL d   1      23.682  38.780  -6.841 -0.09 -0.03    -0.248 N 
DOCKED: ATOM     28  N   UNL d   1      22.168  38.422  -9.293 -0.06 -0.08    -0.248 N 
DOCKED: ATOM     29 FE   UNL d   1      22.554  37.317  -7.642 -0.03 +0.00    +0.000 Fe
DOCKED: ATOM     30  O   UNL d   1      21.188  37.121  -6.921 -0.27 +0.00    +0.000 OA
DOCKED: ATOM     31  O   UNL d   1      21.731  38.576  -7.185 -0.28 +0.00    +0.000 OA
DOCKED: ENDROOT
DOCKED: BRANCH   6  32
DOCKED: ATOM     32  C   UNL d   1      19.175  34.176 -10.896 -0.16 +0.01    +0.052 C 
DOCKED: BRANCH  32  33
DOCKED: ATOM     33  C   UNL d   1      17.721  34.052 -10.450 -0.10 +0.01    +0.115 C 
DOCKED: BRANCH  33  34
DOCKED: ATOM     34  C   UNL d   1      16.866  35.188 -10.954 -0.26 +0.08    +0.139 C 
DOCKED: ATOM     35  O   UNL d   1      17.134  35.718 -12.021 -0.48 -0.59    -0.650 OA
DOCKED: BRANCH  34  36
DOCKED: ATOM     36  O   UNL d   1      15.823  35.655 -10.237 -0.36 -0.39    -0.776 OA
DOCKED: ATOM     37  H   UNL d   1      15.144  35.070  -9.883 -0.39 -0.02    +0.167 HD
DOCKED: ENDBRANCH  34  36
DOCKED: ENDBRANCH  33  34
DOCKED: ENDBRANCH  32  33
DOCKED: ENDBRANCH   6  32
DOCKED: BRANCH  22  38
DOCKED: ATOM     38  C   UNL d   1      20.757  39.095 -12.664 -0.10 +0.03    +0.052 C 
DOCKED: BRANCH  38  39
DOCKED: ATOM     39  C   UNL d   1      20.370  40.509 -13.092 -0.09 +0.06    +0.115 C 
DOCKED: BRANCH  39  40
DOCKED: ATOM     40  C   UNL d   1      18.876  40.694 -13.183 -0.03 +0.11    +0.139 C 
DOCKED: ATOM     41  O   UNL d   1      18.349  41.650 -12.636 -0.62 -0.48    -0.650 OA
DOCKED: BRANCH  40  42
DOCKED: ATOM     42  O   UNL d   1      18.112  39.850 -13.903 -0.50 -0.63    -0.776 OA
DOCKED: ATOM     43  H   UNL d   1      17.997  39.960 -14.854 +0.01 +0.07    +0.167 HD
DOCKED: ENDBRANCH  40  42
DOCKED: ENDBRANCH  39  40
DOCKED: ENDBRANCH  38  39
DOCKED: ENDBRANCH  22  38
DOCKED: BRANCH  12  44
DOCKED: ATOM     44  C   UNL d   1      24.698  35.117  -2.795 -0.32 -0.00    +0.004 C 
DOCKED: ATOM     45  C   UNL d   1      25.893  35.614  -2.479 -0.24 -0.00    +0.012 C 
DOCKED: ENDBRANCH  12  44
DOCKED: BRANCH  17  46
DOCKED: ATOM     46  C   UNL d   1      25.013  42.246  -6.808 -0.09 +0.00    +0.004 C 
DOCKED: ATOM     47  C   UNL d   1      24.216  43.313  -6.666 -0.10 +0.00    +0.012 C 
DOCKED: ENDBRANCH  17  46
DOCKED: TORSDOF 10
DOCKED: TER
DOCKED: ENDMDL
________________________________________________________________________________


	BEGINNING GENETIC ALGORITHM DOCKING 92 of 100
Run: 92 Seed: 1561567445 1465171224 [ Run 92 of 100 GA/GALS ]
Beginning LAMARCKIAN GENETIC ALGORITHM (LGA), with a maximum of 25000000 energy evaluations.

Final-Value: -19.829


	FINAL GENETIC ALGORITHM DOCKED STATE
	_______________________________________________


Detailed state:  trans 8.354 34.725 -0.952 quatxyzw 0.015012 0.043584 0.019048 0.998755 center 8.287 34.468 -0.670 ntor 10 -122.3367 -128.0634 -23.7931 -62.8632 -14.2397 -173.6465 -49.0209 51.4983 -180.0000 164.3194
State:	  8.354  34.725  -0.952   0.301  0.874  0.382  5.718   -122.34 -128.06  -23.79  -62.86  -14.24 -173.65  -49.02   51.50 -180.00  164.32

DOCKED: MODEL       92
DOCKED: USER    Run = 92
DOCKED: USER    DPF = D:/Protein_go_brrr/autodock/final/6BB5/heme_O2/dock.dpf
DOCKED: USER  
DOCKED: USER    Estimated Free Energy of Binding    =  -14.30 kcal/mol  [=(1)+(2)+(3)-(4)]
DOCKED: USER    Estimated Inhibition Constant, Ki   =   32.69 pM (picomolar)  [Temperature = 298.15 K]
DOCKED: USER    
DOCKED: USER    (1) Final Intermolecular Energy     =  -17.29 kcal/mol
DOCKED: USER        vdW + Hbond + desolv Energy     =  -15.82 kcal/mol
DOCKED: USER        Electrostatic Energy            =   -1.47 kcal/mol
DOCKED: USER    (2) Final Total Internal Energy     =   -2.54 kcal/mol
DOCKED: USER    (3) Torsional Free Energy           =   +2.98 kcal/mol
DOCKED: USER    (4) Unbound System's Energy  [=(2)] =   -2.54 kcal/mol
DOCKED: USER    
DOCKED: USER    
DOCKED: USER    NEWDPF move heme_O2_opt.pdbqt
DOCKED: USER    NEWDPF about 8.287000 34.468000 -0.670000
DOCKED: USER    NEWDPF tran0 8.353574 34.725043 -0.951577
DOCKED: USER    NEWDPF quaternion0 0.015012 0.043584 0.019048 0.998755
DOCKED: USER    NEWDPF axisangle0 0.300974 0.873825 0.381895 5.717836
DOCKED: USER    NEWDPF quat0 0.300974 0.873825 0.381895 5.717836
DOCKED: USER    NEWDPF dihe0 -122.34 -128.06 -23.79 -62.86 -14.24 -173.65 -49.02 51.50 -180.00 164.32 
DOCKED: USER  keepresnum = 1 
DOCKED: USER  
DOCKED: REMARK  10 active torsions:
DOCKED: REMARK  status: ('A' for Active; 'I' for Inactive)
DOCKED: REMARK    1  A    between atoms: C_6  and  C_10 
DOCKED: REMARK    2  A    between atoms: C_10  and  C_11 
DOCKED: REMARK    3  A    between atoms: C_11  and  C_12 
DOCKED: REMARK    4  A    between atoms: C_12  and  O_14 
DOCKED: REMARK    5  A    between atoms: C_17  and  C_20 
DOCKED: REMARK    6  A    between atoms: C_24  and  C_27 
DOCKED: REMARK    7  A    between atoms: C_31  and  C_34 
DOCKED: REMARK    8  A    between atoms: C_34  and  C_35 
DOCKED: REMARK    9  A    between atoms: C_35  and  C_36 
DOCKED: REMARK   10  A    between atoms: C_36  and  O_38 
DOCKED: USER                              x       y       z     vdW  Elec       q    Type
DOCKED: USER                           _______ _______ _______ _____ _____    ______ ____
DOCKED: ROOT
DOCKED: ATOM      1  C   UNL d   1       6.585  35.370  -1.929 -0.20 +0.01    +0.064 A 
DOCKED: ATOM      2  C   UNL d   1       7.327  32.720   1.942 -0.38 +0.01    +0.064 A 
DOCKED: ATOM      3  C   UNL d   1      12.087  33.078   1.388 -0.41 +0.00    +0.064 C 
DOCKED: ATOM      4  C   UNL d   1      11.338  36.202  -2.320 -0.43 +0.00    +0.064 A 
DOCKED: ATOM      5  C   UNL d   1       6.398  34.621  -0.830 -0.26 +0.01    +0.066 A 
DOCKED: ATOM      6  C   UNL d   1       5.143  34.258  -0.334 -0.27 -0.00    -0.021 A 
DOCKED: ATOM      7  C   UNL d   1       5.356  33.528   0.812 -0.34 -0.00    -0.025 A 
DOCKED: ATOM      8  C   UNL d   1       6.736  33.423   0.957 -0.33 +0.01    +0.066 A 
DOCKED: ATOM      9  C   UNL d   1       4.264  32.996   1.715 -0.37 +0.01    +0.051 C 
DOCKED: ATOM     10  C   UNL d   1       8.768  32.556   2.133 -0.37 +0.00    +0.066 A 
DOCKED: ATOM     11  C   UNL d   1       9.325  31.682   3.074 -0.45 -0.00    -0.021 A 
DOCKED: ATOM     12  C   UNL d   1      10.697  31.758   2.917 -0.44 +0.00    +0.000 A 
DOCKED: ATOM     13  C   UNL d   1      10.904  32.703   1.875 -0.36 +0.00    +0.070 A 
DOCKED: ATOM     14  C   UNL d   1       8.580  30.793   4.062 -0.57 +0.00    +0.052 C 
DOCKED: ATOM     15  C   UNL d   1      12.340  34.057   0.359 -0.36 +0.00    +0.066 A 
DOCKED: ATOM     16  C   UNL d   1      13.606  34.526   0.008 -0.44 -0.00    -0.021 A 
DOCKED: ATOM     17  C   UNL d   1      13.417  35.419  -1.047 -0.45 +0.00    +0.000 A 
DOCKED: ATOM     18  C   UNL d   1      12.032  35.426  -1.265 -0.38 +0.00    +0.070 A 
DOCKED: ATOM     19  C   UNL d   1      14.863  34.127   0.740 -0.61 +0.00    +0.052 C 
DOCKED: ATOM     20  C   UNL d   1      10.009  36.265  -2.529 -0.41 +0.00    +0.066 A 
DOCKED: ATOM     21  C   UNL d   1       9.414  36.999  -3.551 -0.42 +0.00    -0.025 A 
DOCKED: ATOM     22  C   UNL d   1       8.062  36.753  -3.472 -0.33 -0.00    -0.021 A 
DOCKED: ATOM     23  C   UNL d   1       7.879  35.887  -2.389 -0.33 +0.01    +0.066 A 
DOCKED: ATOM     24  C   UNL d   1      10.100  37.894  -4.550 -0.49 -0.01    +0.051 C 
DOCKED: ATOM     25  N   UNL d   1       7.377  34.152  -0.018 -0.18 -0.04    -0.248 N 
DOCKED: ATOM     26  N   UNL d   1       9.726  33.187   1.407 -0.16 -0.02    -0.248 N 
DOCKED: ATOM     27  N   UNL d   1      11.388  34.652  -0.354 -0.19 -0.03    -0.248 N 
DOCKED: ATOM     28  N   UNL d   1       9.061  35.630  -1.791 -0.24 -0.04    -0.248 N 
DOCKED: ATOM     29 FE   UNL d   1       9.393  34.418  -0.204 +0.00 +0.00    +0.000 Fe
DOCKED: ATOM     30  O   UNL d   1       8.776  35.138   1.030 -0.81 +0.00    +0.000 OA
DOCKED: ATOM     31  O   UNL d   1       9.896  35.856   0.187 -1.02 +0.00    +0.000 OA
DOCKED: ENDROOT
DOCKED: BRANCH   6  32
DOCKED: ATOM     32  C   UNL d   1       3.791  34.695  -0.836 -0.22 +0.01    +0.052 C 
DOCKED: BRANCH  32  33
DOCKED: ATOM     33  C   UNL d   1       3.224  35.879  -0.058 -0.17 +0.06    +0.115 C 
DOCKED: BRANCH  33  34
DOCKED: ATOM     34  C   UNL d   1       2.776  37.000  -0.963 -0.17 +0.10    +0.139 C 
DOCKED: ATOM     35  O   UNL d   1       2.558  38.105  -0.492 -0.44 -1.05    -0.650 OA
DOCKED: BRANCH  34  36
DOCKED: ATOM     36  O   UNL d   1       2.582  36.803  -2.283 +0.04 -0.32    -0.776 OA
DOCKED: ATOM     37  H   UNL d   1       3.058  37.312  -2.951 +0.03 +0.06    +0.167 HD
DOCKED: ENDBRANCH  34  36
DOCKED: ENDBRANCH  33  34
DOCKED: ENDBRANCH  32  33
DOCKED: ENDBRANCH   6  32
DOCKED: BRANCH  22  38
DOCKED: ATOM     38  C   UNL d   1       7.003  37.368  -4.350 -0.25 +0.00    +0.052 C 
DOCKED: BRANCH  38  39
DOCKED: ATOM     39  C   UNL d   1       6.392  38.624  -3.733 -0.21 +0.01    +0.115 C 
DOCKED: BRANCH  39  40
DOCKED: ATOM     40  C   UNL d   1       4.884  38.589  -3.728 -0.11 +0.02    +0.139 C 
DOCKED: ATOM     41  O   UNL d   1       4.290  37.966  -4.594 +0.04 -0.10    -0.650 OA
DOCKED: BRANCH  40  42
DOCKED: ATOM     42  O   UNL d   1       4.177  39.192  -2.753 +0.05 -0.27    -0.776 OA
DOCKED: ATOM     43  H   UNL d   1       3.522  38.711  -2.234 +0.04 +0.09    +0.167 HD
DOCKED: ENDBRANCH  40  42
DOCKED: ENDBRANCH  39  40
DOCKED: ENDBRANCH  38  39
DOCKED: ENDBRANCH  22  38
DOCKED: BRANCH  12  44
DOCKED: ATOM     44  C   UNL d   1      11.649  30.939   3.764 -0.55 +0.00    +0.004 C 
DOCKED: ATOM     45  C   UNL d   1      12.866  30.504   3.440 -0.65 +0.00    +0.012 C 
DOCKED: ENDBRANCH  12  44
DOCKED: BRANCH  17  46
DOCKED: ATOM     46  C   UNL d   1      14.396  36.279  -1.801 -0.63 +0.00    +0.004 C 
DOCKED: ATOM     47  C   UNL d   1      15.064  37.354  -1.362 -0.64 +0.00    +0.012 C 
DOCKED: ENDBRANCH  17  46
DOCKED: TORSDOF 10
DOCKED: TER
DOCKED: ENDMDL
________________________________________________________________________________


	BEGINNING GENETIC ALGORITHM DOCKING 93 of 100
Run: 93 Seed: 1678317579 1739833181 [ Run 93 of 100 GA/GALS ]
Beginning LAMARCKIAN GENETIC ALGORITHM (LGA), with a maximum of 25000000 energy evaluations.

Final-Value: -19.478


	FINAL GENETIC ALGORITHM DOCKED STATE
	_______________________________________________


Detailed state:  trans 8.265 34.734 -1.050 quatxyzw -0.025510 -0.028998 -0.016012 -0.999126 center 8.287 34.468 -0.670 ntor 10 -128.0416 118.8780 -20.0953 -58.6743 -29.1431 -59.0592 -61.2817 119.5283 -176.5116 -172.5503
State:	  8.265  34.734  -1.050  -0.610 -0.694 -0.383 -4.792   -128.04  118.88  -20.10  -58.67  -29.14  -59.06  -61.28  119.53 -176.51 -172.55

DOCKED: MODEL       93
DOCKED: USER    Run = 93
DOCKED: USER    DPF = D:/Protein_go_brrr/autodock/final/6BB5/heme_O2/dock.dpf
DOCKED: USER  
DOCKED: USER    Estimated Free Energy of Binding    =  -14.37 kcal/mol  [=(1)+(2)+(3)-(4)]
DOCKED: USER    Estimated Inhibition Constant, Ki   =   29.15 pM (picomolar)  [Temperature = 298.15 K]
DOCKED: USER    
DOCKED: USER    (1) Final Intermolecular Energy     =  -17.36 kcal/mol
DOCKED: USER        vdW + Hbond + desolv Energy     =  -16.06 kcal/mol
DOCKED: USER        Electrostatic Energy            =   -1.30 kcal/mol
DOCKED: USER    (2) Final Total Internal Energy     =   -2.12 kcal/mol
DOCKED: USER    (3) Torsional Free Energy           =   +2.98 kcal/mol
DOCKED: USER    (4) Unbound System's Energy  [=(2)] =   -2.12 kcal/mol
DOCKED: USER    
DOCKED: USER    
DOCKED: USER    NEWDPF move heme_O2_opt.pdbqt
DOCKED: USER    NEWDPF about 8.287000 34.468000 -0.670000
DOCKED: USER    NEWDPF tran0 8.264786 34.734261 -1.049983
DOCKED: USER    NEWDPF quaternion0 -0.025510 -0.028998 -0.016012 -0.999126
DOCKED: USER    NEWDPF axisangle0 -0.610146 -0.693577 -0.382979 -4.792439
DOCKED: USER    NEWDPF quat0 -0.610146 -0.693577 -0.382979 -4.792439
DOCKED: USER    NEWDPF dihe0 -128.04 118.88 -20.10 -58.67 -29.14 -59.06 -61.28 119.53 -176.51 -172.55 
DOCKED: USER  keepresnum = 1 
DOCKED: USER  
DOCKED: REMARK  10 active torsions:
DOCKED: REMARK  status: ('A' for Active; 'I' for Inactive)
DOCKED: REMARK    1  A    between atoms: C_6  and  C_10 
DOCKED: REMARK    2  A    between atoms: C_10  and  C_11 
DOCKED: REMARK    3  A    between atoms: C_11  and  C_12 
DOCKED: REMARK    4  A    between atoms: C_12  and  O_14 
DOCKED: REMARK    5  A    between atoms: C_17  and  C_20 
DOCKED: REMARK    6  A    between atoms: C_24  and  C_27 
DOCKED: REMARK    7  A    between atoms: C_31  and  C_34 
DOCKED: REMARK    8  A    between atoms: C_34  and  C_35 
DOCKED: REMARK    9  A    between atoms: C_35  and  C_36 
DOCKED: REMARK   10  A    between atoms: C_36  and  O_38 
DOCKED: USER                              x       y       z     vdW  Elec       q    Type
DOCKED: USER                           _______ _______ _______ _____ _____    ______ ____
DOCKED: ROOT
DOCKED: ATOM      1  C   UNL d   1       6.465  35.351  -1.988 -0.21 +0.01    +0.064 A 
DOCKED: ATOM      2  C   UNL d   1       7.334  32.785   1.914 -0.38 +0.01    +0.064 A 
DOCKED: ATOM      3  C   UNL d   1      12.074  33.153   1.211 -0.42 +0.00    +0.064 C 
DOCKED: ATOM      4  C   UNL d   1      11.200  36.195  -2.537 -0.45 +0.00    +0.064 A 
DOCKED: ATOM      5  C   UNL d   1       6.314  34.624  -0.868 -0.26 +0.01    +0.066 A 
DOCKED: ATOM      6  C   UNL d   1       5.076  34.266  -0.328 -0.27 -0.00    -0.021 A 
DOCKED: ATOM      7  C   UNL d   1       5.326  33.560   0.826 -0.34 -0.00    -0.025 A 
DOCKED: ATOM      8  C   UNL d   1       6.711  33.465   0.932 -0.33 +0.01    +0.066 A 
DOCKED: ATOM      9  C   UNL d   1       4.265  33.043   1.772 -0.38 +0.01    +0.051 C 
DOCKED: ATOM     10  C   UNL d   1       8.782  32.631   2.065 -0.35 +0.00    +0.066 A 
DOCKED: ATOM     11  C   UNL d   1       9.371  31.780   3.007 -0.44 -0.00    -0.021 A 
DOCKED: ATOM     12  C   UNL d   1      10.737  31.858   2.808 -0.43 +0.00    +0.000 A 
DOCKED: ATOM     13  C   UNL d   1      10.908  32.783   1.741 -0.36 +0.00    +0.070 A 
DOCKED: ATOM     14  C   UNL d   1       8.659  30.908   4.034 -0.57 +0.00    +0.052 C 
DOCKED: ATOM     15  C   UNL d   1      12.292  34.112   0.155 -0.36 +0.00    +0.066 A 
DOCKED: ATOM     16  C   UNL d   1      13.544  34.579  -0.243 -0.44 -0.00    -0.021 A 
DOCKED: ATOM     17  C   UNL d   1      13.320  35.448  -1.310 -0.46 +0.00    +0.000 A 
DOCKED: ATOM     18  C   UNL d   1      11.929  35.445  -1.487 -0.39 +0.00    +0.070 A 
DOCKED: ATOM     19  C   UNL d   1      14.824  34.200   0.459 -0.60 +0.00    +0.052 C 
DOCKED: ATOM     20  C   UNL d   1       9.865  36.249  -2.707 -0.41 +0.00    +0.066 A 
DOCKED: ATOM     21  C   UNL d   1       9.236  36.959  -3.726 -0.39 +0.00    -0.025 A 
DOCKED: ATOM     22  C   UNL d   1       7.888  36.708  -3.602 -0.30 -0.00    -0.021 A 
DOCKED: ATOM     23  C   UNL d   1       7.742  35.864  -2.496 -0.33 +0.01    +0.066 A 
DOCKED: ATOM     24  C   UNL d   1       9.888  37.836  -4.763 -0.47 -0.01    +0.051 C 
DOCKED: ATOM     25  N   UNL d   1       7.319  34.177  -0.076 -0.18 -0.04    -0.248 N 
DOCKED: ATOM     26  N   UNL d   1       9.714  33.252   1.298 -0.11 -0.03    -0.248 N 
DOCKED: ATOM     27  N   UNL d   1      11.316  34.687  -0.542 -0.18 -0.03    -0.248 N 
DOCKED: ATOM     28  N   UNL d   1       8.942  35.624  -1.928 -0.24 -0.03    -0.248 N 
DOCKED: ATOM     29 FE   UNL d   1       9.328  34.447  -0.327 +0.04 +0.00    +0.000 Fe
DOCKED: ATOM     30  O   UNL d   1       8.744  35.190   0.910 -0.87 +0.00    +0.000 OA
DOCKED: ATOM     31  O   UNL d   1       9.835  35.895   0.019 -1.11 +0.00    +0.000 OA
DOCKED: ENDROOT
DOCKED: BRANCH   6  32
DOCKED: ATOM     32  C   UNL d   1       3.708  34.686  -0.798 -0.22 +0.01    +0.052 C 
DOCKED: BRANCH  32  33
DOCKED: ATOM     33  C   UNL d   1       3.194  35.935  -0.087 -0.17 +0.06    +0.115 C 
DOCKED: BRANCH  33  34
DOCKED: ATOM     34  C   UNL d   1       2.997  37.095  -1.031 -0.18 +0.10    +0.139 C 
DOCKED: ATOM     35  O   UNL d   1       2.588  38.161  -0.600 -0.52 -1.00    -0.650 OA
DOCKED: BRANCH  34  36
DOCKED: ATOM     36  O   UNL d   1       3.238  36.974  -2.353 +0.05 -0.29    -0.776 OA
DOCKED: ATOM     37  H   UNL d   1       3.811  37.588  -2.827 +0.04 +0.05    +0.167 HD
DOCKED: ENDBRANCH  34  36
DOCKED: ENDBRANCH  33  34
DOCKED: ENDBRANCH  32  33
DOCKED: ENDBRANCH   6  32
DOCKED: BRANCH  22  38
DOCKED: ATOM     38  C   UNL d   1       6.801  37.300  -4.461 -0.23 +0.00    +0.052 C 
DOCKED: BRANCH  38  39
DOCKED: ATOM     39  C   UNL d   1       6.594  38.789  -4.193 -0.20 +0.00    +0.115 C 
DOCKED: BRANCH  39  40
DOCKED: ATOM     40  C   UNL d   1       6.167  39.066  -2.773 -0.27 +0.02    +0.139 C 
DOCKED: ATOM     41  O   UNL d   1       7.010  39.185  -1.899 +0.03 -0.02    -0.650 OA
DOCKED: BRANCH  40  42
DOCKED: ATOM     42  O   UNL d   1       4.868  39.236  -2.458 +0.04 -0.22    -0.776 OA
DOCKED: ATOM     43  H   UNL d   1       4.428  38.671  -1.812 +0.05 +0.07    +0.167 HD
DOCKED: ENDBRANCH  40  42
DOCKED: ENDBRANCH  39  40
DOCKED: ENDBRANCH  38  39
DOCKED: ENDBRANCH  22  38
DOCKED: BRANCH  12  44
DOCKED: ATOM     44  C   UNL d   1      11.718  31.062   3.643 -0.53 +0.00    +0.004 C 
DOCKED: ATOM     45  C   UNL d   1      12.952  30.683   3.316 -0.65 +0.00    +0.012 C 
DOCKED: ENDBRANCH  12  44
DOCKED: BRANCH  17  46
DOCKED: ATOM     46  C   UNL d   1      14.272  36.297  -2.110 -0.63 +0.00    +0.004 C 
DOCKED: ATOM     47  C   UNL d   1      15.005  37.338  -1.693 -0.67 +0.00    +0.012 C 
DOCKED: ENDBRANCH  17  46
DOCKED: TORSDOF 10
DOCKED: TER
DOCKED: ENDMDL
________________________________________________________________________________


	BEGINNING GENETIC ALGORITHM DOCKING 94 of 100
Run: 94 Seed: 1497486817 717476135 [ Run 94 of 100 GA/GALS ]
Beginning LAMARCKIAN GENETIC ALGORITHM (LGA), with a maximum of 25000000 energy evaluations.

Final-Value: -11.276


	FINAL GENETIC ALGORITHM DOCKED STATE
	_______________________________________________


Detailed state:  trans 15.408 17.439 4.665 quatxyzw 0.796747 0.153949 -0.258172 -0.524253 center 8.287 34.468 -0.670 ntor 10 140.3086 87.2454 -98.9917 124.6980 -162.6961 -48.7061 -89.5528 103.3603 -167.1569 -162.6284
State:	 15.408  17.439   4.665   0.936  0.181 -0.303 -116.764    140.31   87.25  -98.99  124.70 -162.70  -48.71  -89.55  103.36 -167.16 -162.63

DOCKED: MODEL       94
DOCKED: USER    Run = 94
DOCKED: USER    DPF = D:/Protein_go_brrr/autodock/final/6BB5/heme_O2/dock.dpf
DOCKED: USER  
DOCKED: USER    Estimated Free Energy of Binding    =   -5.72 kcal/mol  [=(1)+(2)+(3)-(4)]
DOCKED: USER    Estimated Inhibition Constant, Ki   =   64.36 uM (micromolar)  [Temperature = 298.15 K]
DOCKED: USER    
DOCKED: USER    (1) Final Intermolecular Energy     =   -8.70 kcal/mol
DOCKED: USER        vdW + Hbond + desolv Energy     =   -6.25 kcal/mol
DOCKED: USER        Electrostatic Energy            =   -2.45 kcal/mol
DOCKED: USER    (2) Final Total Internal Energy     =   -2.57 kcal/mol
DOCKED: USER    (3) Torsional Free Energy           =   +2.98 kcal/mol
DOCKED: USER    (4) Unbound System's Energy  [=(2)] =   -2.57 kcal/mol
DOCKED: USER    
DOCKED: USER    
DOCKED: USER    NEWDPF move heme_O2_opt.pdbqt
DOCKED: USER    NEWDPF about 8.287000 34.468000 -0.670000
DOCKED: USER    NEWDPF tran0 15.408145 17.438538 4.664690
DOCKED: USER    NEWDPF quaternion0 0.796747 0.153949 -0.258172 -0.524253
DOCKED: USER    NEWDPF axisangle0 0.935630 0.180784 -0.303174 -116.764126
DOCKED: USER    NEWDPF quat0 0.935630 0.180784 -0.303174 -116.764126
DOCKED: USER    NEWDPF dihe0 140.31 87.25 -98.99 124.70 -162.70 -48.71 -89.55 103.36 -167.16 -162.63 
DOCKED: USER  keepresnum = 1 
DOCKED: USER  
DOCKED: REMARK  10 active torsions:
DOCKED: REMARK  status: ('A' for Active; 'I' for Inactive)
DOCKED: REMARK    1  A    between atoms: C_6  and  C_10 
DOCKED: REMARK    2  A    between atoms: C_10  and  C_11 
DOCKED: REMARK    3  A    between atoms: C_11  and  C_12 
DOCKED: REMARK    4  A    between atoms: C_12  and  O_14 
DOCKED: REMARK    5  A    between atoms: C_17  and  C_20 
DOCKED: REMARK    6  A    between atoms: C_24  and  C_27 
DOCKED: REMARK    7  A    between atoms: C_31  and  C_34 
DOCKED: REMARK    8  A    between atoms: C_34  and  C_35 
DOCKED: REMARK    9  A    between atoms: C_35  and  C_36 
DOCKED: REMARK   10  A    between atoms: C_36  and  O_38 
DOCKED: USER                              x       y       z     vdW  Elec       q    Type
DOCKED: USER                           _______ _______ _______ _____ _____    ______ ____
DOCKED: ROOT
DOCKED: ATOM      1  C   UNL d   1      14.387  17.975   6.445 -0.20 +0.02    +0.064 A 
DOCKED: ATOM      2  C   UNL d   1      13.016  15.653   2.535 -0.14 +0.01    +0.064 A 
DOCKED: ATOM      3  C   UNL d   1      17.375  16.179   0.582 -0.15 -0.00    +0.064 C 
DOCKED: ATOM      4  C   UNL d   1      18.935  18.150   4.794 -0.11 +0.00    +0.064 A 
DOCKED: ATOM      5  C   UNL d   1      13.659  17.299   5.541 -0.18 +0.02    +0.066 A 
DOCKED: ATOM      6  C   UNL d   1      12.314  16.960   5.715 -0.25 -0.00    -0.021 A 
DOCKED: ATOM      7  C   UNL d   1      11.928  16.250   4.603 -0.22 -0.01    -0.025 A 
DOCKED: ATOM      8  C   UNL d   1      13.034  16.216   3.758 -0.14 +0.01    +0.066 A 
DOCKED: ATOM      9  C   UNL d   1      10.565  15.623   4.406 -0.35 +0.01    +0.051 C 
DOCKED: ATOM     10  C   UNL d   1      14.137  15.606   1.595 -0.11 +0.01    +0.066 A 
DOCKED: ATOM     11  C   UNL d   1      14.017  15.155   0.276 -0.15 -0.00    -0.021 A 
DOCKED: ATOM     12  C   UNL d   1      15.259  15.316  -0.309 -0.15 +0.00    +0.000 A 
DOCKED: ATOM     13  C   UNL d   1      16.088  15.857   0.713 -0.12 +0.00    +0.070 A 
DOCKED: ATOM     14  C   UNL d   1      12.764  14.619  -0.405 -0.14 +0.02    +0.052 C 
DOCKED: ATOM     15  C   UNL d   1      18.257  16.696   1.600 -0.06 -0.01    +0.066 A 
DOCKED: ATOM     16  C   UNL d   1      19.633  16.858   1.446 -0.09 +0.00    -0.021 A 
DOCKED: ATOM     17  C   UNL d   1      20.100  17.418   2.635 -0.08 -0.00    +0.000 A 
DOCKED: ATOM     18  C   UNL d   1      18.958  17.559   3.436 -0.10 -0.00    +0.070 A 
DOCKED: ATOM     19  C   UNL d   1      20.380  16.418   0.212 -0.05 -0.00    +0.052 C 
DOCKED: ATOM     20  C   UNL d   1      17.865  18.261   5.606 -0.14 +0.01    +0.066 A 
DOCKED: ATOM     21  C   UNL d   1      17.901  18.844   6.870 -0.19 -0.00    -0.025 A 
DOCKED: ATOM     22  C   UNL d   1      16.609  18.827   7.344 -0.21 -0.00    -0.021 A 
DOCKED: ATOM     23  C   UNL d   1      15.832  18.216   6.355 -0.20 +0.02    +0.066 A 
DOCKED: ATOM     24  C   UNL d   1      19.109  19.386   7.590 -0.17 +0.01    +0.051 C 
DOCKED: ATOM     25  N   UNL d   1      14.119  16.806   4.365 -0.07 -0.06    -0.248 N 
DOCKED: ATOM     26  N   UNL d   1      15.398  16.026   1.869 +0.01 -0.05    -0.248 N 
DOCKED: ATOM     27  N   UNL d   1      17.861  17.046   2.821 -0.06 +0.01    -0.248 N 
DOCKED: ATOM     28  N   UNL d   1      16.607  17.833   5.320 -0.11 -0.05    -0.248 N 
DOCKED: ATOM     29 FE   UNL d   1      16.010  16.936   3.606 -0.04 +0.00    +0.000 Fe
DOCKED: ATOM     30  O   UNL d   1      15.588  15.490   3.997 -0.09 +0.00    +0.000 OA
DOCKED: ATOM     31  O   UNL d   1      17.053  15.984   4.299 -0.09 +0.00    +0.000 OA
DOCKED: ENDROOT
DOCKED: BRANCH   6  32
DOCKED: ATOM     32  C   UNL d   1      11.459  17.174   6.938 -0.34 +0.01    +0.052 C 
DOCKED: BRANCH  32  33
DOCKED: ATOM     33  C   UNL d   1      11.633  16.075   7.981 -0.25 +0.03    +0.115 C 
DOCKED: BRANCH  33  34
DOCKED: ATOM     34  C   UNL d   1      12.757  16.367   8.943 -0.17 +0.12    +0.139 C 
DOCKED: ATOM     35  O   UNL d   1      12.851  17.477   9.443 -0.00 -0.54    -0.650 OA
DOCKED: BRANCH  34  36
DOCKED: ATOM     36  O   UNL d   1      13.685  15.436   9.245 -0.19 -1.05    -0.776 OA
DOCKED: ATOM     37  H   UNL d   1      14.617  15.658   9.350 +0.03 +0.20    +0.167 HD
DOCKED: ENDBRANCH  34  36
DOCKED: ENDBRANCH  33  34
DOCKED: ENDBRANCH  32  33
DOCKED: ENDBRANCH   6  32
DOCKED: BRANCH  22  38
DOCKED: ATOM     38  C   UNL d   1      16.164  19.315   8.698 -0.31 +0.01    +0.052 C 
DOCKED: BRANCH  38  39
DOCKED: ATOM     39  C   UNL d   1      16.832  18.552   9.840 -0.27 +0.04    +0.115 C 
DOCKED: BRANCH  39  40
DOCKED: ATOM     40  C   UNL d   1      16.214  17.195  10.066 -0.19 +0.10    +0.139 C 
DOCKED: ATOM     41  O   UNL d   1      16.716  16.207   9.555 +0.03 -0.38    -0.650 OA
DOCKED: BRANCH  40  42
DOCKED: ATOM     42  O   UNL d   1      15.141  17.044  10.867 -0.04 -1.32    -0.776 OA
DOCKED: ATOM     43  H   UNL d   1      14.242  17.107  10.523 +0.10 +0.36    +0.167 HD
DOCKED: ENDBRANCH  40  42
DOCKED: ENDBRANCH  39  40
DOCKED: ENDBRANCH  38  39
DOCKED: ENDBRANCH  22  38
DOCKED: BRANCH  12  44
DOCKED: ATOM     44  C   UNL d   1      15.523  14.941  -1.752 -0.17 -0.00    +0.004 C 
DOCKED: ATOM     45  C   UNL d   1      15.174  15.611  -2.849 -0.28 -0.00    +0.012 C 
DOCKED: ENDBRANCH  12  44
DOCKED: BRANCH  17  46
DOCKED: ATOM     46  C   UNL d   1      21.495  17.765   3.084 -0.03 -0.00    +0.004 C 
DOCKED: ATOM     47  C   UNL d   1      21.988  18.969   3.399 -0.03 +0.00    +0.012 C 
DOCKED: ENDBRANCH  17  46
DOCKED: TORSDOF 10
DOCKED: TER
DOCKED: ENDMDL
________________________________________________________________________________


	BEGINNING GENETIC ALGORITHM DOCKING 95 of 100
Run: 95 Seed: 277548679 1106922012 [ Run 95 of 100 GA/GALS ]
Beginning LAMARCKIAN GENETIC ALGORITHM (LGA), with a maximum of 25000000 energy evaluations.

Final-Value: -17.852


	FINAL GENETIC ALGORITHM DOCKED STATE
	_______________________________________________


Detailed state:  trans 8.308 34.285 -0.514 quatxyzw 0.018072 -0.012825 -0.009033 0.999714 center 8.287 34.468 -0.670 ntor 10 -87.8357 74.9081 -106.6021 -34.2001 178.9148 -17.8961 54.5432 -37.5012 -25.1311 -26.4532
State:	  8.308  34.285  -0.514   0.755 -0.536 -0.377  2.743    -87.84   74.91 -106.60  -34.20  178.91  -17.90   54.54  -37.50  -25.13  -26.45

DOCKED: MODEL       95
DOCKED: USER    Run = 95
DOCKED: USER    DPF = D:/Protein_go_brrr/autodock/final/6BB5/heme_O2/dock.dpf
DOCKED: USER  
DOCKED: USER    Estimated Free Energy of Binding    =  -12.93 kcal/mol  [=(1)+(2)+(3)-(4)]
DOCKED: USER    Estimated Inhibition Constant, Ki   =  334.52 pM (picomolar)  [Temperature = 298.15 K]
DOCKED: USER    
DOCKED: USER    (1) Final Intermolecular Energy     =  -15.91 kcal/mol
DOCKED: USER        vdW + Hbond + desolv Energy     =  -15.47 kcal/mol
DOCKED: USER        Electrostatic Energy            =   -0.44 kcal/mol
DOCKED: USER    (2) Final Total Internal Energy     =   -1.94 kcal/mol
DOCKED: USER    (3) Torsional Free Energy           =   +2.98 kcal/mol
DOCKED: USER    (4) Unbound System's Energy  [=(2)] =   -1.94 kcal/mol
DOCKED: USER    
DOCKED: USER    
DOCKED: USER    NEWDPF move heme_O2_opt.pdbqt
DOCKED: USER    NEWDPF about 8.287000 34.468000 -0.670000
DOCKED: USER    NEWDPF tran0 8.308375 34.284802 -0.513534
DOCKED: USER    NEWDPF quaternion0 0.018072 -0.012825 -0.009033 0.999714
DOCKED: USER    NEWDPF axisangle0 0.755196 -0.535914 -0.377459 2.742519
DOCKED: USER    NEWDPF quat0 0.755196 -0.535914 -0.377459 2.742519
DOCKED: USER    NEWDPF dihe0 -87.84 74.91 -106.60 -34.20 178.91 -17.90 54.54 -37.50 -25.13 -26.45 
DOCKED: USER  keepresnum = 1 
DOCKED: USER  
DOCKED: REMARK  10 active torsions:
DOCKED: REMARK  status: ('A' for Active; 'I' for Inactive)
DOCKED: REMARK    1  A    between atoms: C_6  and  C_10 
DOCKED: REMARK    2  A    between atoms: C_10  and  C_11 
DOCKED: REMARK    3  A    between atoms: C_11  and  C_12 
DOCKED: REMARK    4  A    between atoms: C_12  and  O_14 
DOCKED: REMARK    5  A    between atoms: C_17  and  C_20 
DOCKED: REMARK    6  A    between atoms: C_24  and  C_27 
DOCKED: REMARK    7  A    between atoms: C_31  and  C_34 
DOCKED: REMARK    8  A    between atoms: C_34  and  C_35 
DOCKED: REMARK    9  A    between atoms: C_35  and  C_36 
DOCKED: REMARK   10  A    between atoms: C_36  and  O_38 
DOCKED: USER                              x       y       z     vdW  Elec       q    Type
DOCKED: USER                           _______ _______ _______ _____ _____    ______ ____
DOCKED: ROOT
DOCKED: ATOM      1  C   UNL d   1       6.408  34.824  -1.286 -0.21 +0.01    +0.064 A 
DOCKED: ATOM      2  C   UNL d   1       7.727  32.255   2.485 -0.41 +0.00    +0.064 A 
DOCKED: ATOM      3  C   UNL d   1      12.367  32.863   1.392 -0.42 +0.00    +0.064 C 
DOCKED: ATOM      4  C   UNL d   1      11.034  35.906  -2.217 -0.42 +0.00    +0.064 A 
DOCKED: ATOM      5  C   UNL d   1       6.388  34.077  -0.170 -0.31 +0.01    +0.066 A 
DOCKED: ATOM      6  C   UNL d   1       5.218  33.652   0.467 -0.31 -0.00    -0.021 A 
DOCKED: ATOM      7  C   UNL d   1       5.599  32.945   1.583 -0.39 -0.00    -0.025 A 
DOCKED: ATOM      8  C   UNL d   1       6.991  32.916   1.571 -0.38 +0.01    +0.066 A 
DOCKED: ATOM      9  C   UNL d   1       4.647  32.364   2.606 -0.45 +0.00    +0.051 C 
DOCKED: ATOM     10  C   UNL d   1       9.188  32.170   2.511 -0.39 +0.00    +0.066 A 
DOCKED: ATOM     11  C   UNL d   1       9.894  31.337   3.385 -0.47 -0.00    -0.021 A 
DOCKED: ATOM     12  C   UNL d   1      11.233  31.484   3.074 -0.43 +0.00    +0.000 A 
DOCKED: ATOM     13  C   UNL d   1      11.269  32.430   2.011 -0.37 +0.00    +0.070 A 
DOCKED: ATOM     14  C   UNL d   1       9.315  30.418   4.454 -0.63 +0.00    +0.052 C 
DOCKED: ATOM     15  C   UNL d   1      12.448  33.845   0.338 -0.38 +0.00    +0.066 A 
DOCKED: ATOM     16  C   UNL d   1      13.639  34.377  -0.156 -0.45 -0.00    -0.021 A 
DOCKED: ATOM     17  C   UNL d   1      13.283  35.249  -1.186 -0.45 +0.00    +0.000 A 
DOCKED: ATOM     18  C   UNL d   1      11.884  35.180  -1.245 -0.38 +0.01    +0.070 A 
DOCKED: ATOM     19  C   UNL d   1      14.990  34.053   0.429 -0.61 +0.00    +0.052 C 
DOCKED: ATOM     20  C   UNL d   1       9.688  35.896  -2.274 -0.39 +0.01    +0.066 A 
DOCKED: ATOM     21  C   UNL d   1       8.942  36.588  -3.224 -0.37 -0.00    -0.025 A 
DOCKED: ATOM     22  C   UNL d   1       7.623  36.270  -2.991 -0.33 -0.00    -0.021 A 
DOCKED: ATOM     23  C   UNL d   1       7.612  35.406  -1.891 -0.29 +0.01    +0.066 A 
DOCKED: ATOM     24  C   UNL d   1       9.461  37.509  -4.298 -0.47 -0.00    +0.051 C 
DOCKED: ATOM     25  N   UNL d   1       7.477  33.669   0.527 -0.15 -0.03    -0.248 N 
DOCKED: ATOM     26  N   UNL d   1      10.020  32.845   1.679 -0.25 -0.01    -0.248 N 
DOCKED: ATOM     27  N   UNL d   1      11.391  34.381  -0.265 -0.10 -0.03    -0.248 N 
DOCKED: ATOM     28  N   UNL d   1       8.865  35.218  -1.430 -0.04 -0.06    -0.248 N 
DOCKED: ATOM     29 FE   UNL d   1       9.441  34.041   0.112 -0.08 +0.00    +0.000 Fe
DOCKED: ATOM     30  O   UNL d   1       8.930  34.739   1.406 -0.53 +0.00    +0.000 OA
DOCKED: ATOM     31  O   UNL d   1       9.906  35.508   0.438 -0.99 +0.00    +0.000 OA
DOCKED: ENDROOT
DOCKED: BRANCH   6  32
DOCKED: ATOM     32  C   UNL d   1       3.796  34.011   0.120 -0.26 +0.01    +0.052 C 
DOCKED: BRANCH  32  33
DOCKED: ATOM     33  C   UNL d   1       3.416  33.616  -1.304 -0.16 +0.02    +0.115 C 
DOCKED: BRANCH  33  34
DOCKED: ATOM     34  C   UNL d   1       2.827  34.767  -2.081 -0.11 +0.03    +0.139 C 
DOCKED: ATOM     35  O   UNL d   1       3.147  35.911  -1.802 +0.02 -0.21    -0.650 OA
DOCKED: BRANCH  34  36
DOCKED: ATOM     36  O   UNL d   1       1.927  34.563  -3.065 +0.04 -0.13    -0.776 OA
DOCKED: ATOM     37  H   UNL d   1       2.195  34.395  -3.976 +0.02 +0.02    +0.167 HD
DOCKED: ENDBRANCH  34  36
DOCKED: ENDBRANCH  33  34
DOCKED: ENDBRANCH  32  33
DOCKED: ENDBRANCH   6  32
DOCKED: BRANCH  22  38
DOCKED: ATOM     38  C   UNL d   1       6.440  36.819  -3.746 -0.25 +0.00    +0.052 C 
DOCKED: BRANCH  38  39
DOCKED: ATOM     39  C   UNL d   1       6.290  36.191  -5.129 -0.22 +0.01    +0.115 C 
DOCKED: BRANCH  39  40
DOCKED: ATOM     40  C   UNL d   1       4.848  35.944  -5.497 -0.16 +0.01    +0.139 C 
DOCKED: ATOM     41  O   UNL d   1       4.407  36.380  -6.548 -0.00 -0.05    -0.650 OA
DOCKED: BRANCH  40  42
DOCKED: ATOM     42  O   UNL d   1       4.045  35.204  -4.707 +0.02 -0.08    -0.776 OA
DOCKED: ATOM     43  H   UNL d   1       3.662  35.564  -3.898 +0.04 +0.02    +0.167 HD
DOCKED: ENDBRANCH  40  42
DOCKED: ENDBRANCH  39  40
DOCKED: ENDBRANCH  38  39
DOCKED: ENDBRANCH  22  38
DOCKED: BRANCH  12  44
DOCKED: ATOM     44  C   UNL d   1      12.318  30.726   3.810 -0.62 +0.00    +0.004 C 
DOCKED: ATOM     45  C   UNL d   1      12.573  29.419   3.772 -0.71 +0.00    +0.012 C 
DOCKED: ENDBRANCH  12  44
DOCKED: BRANCH  17  46
DOCKED: ATOM     46  C   UNL d   1      14.122  36.153  -2.049 -0.60 +0.00    +0.004 C 
DOCKED: ATOM     47  C   UNL d   1      15.161  36.916  -1.685 -0.67 +0.00    +0.012 C 
DOCKED: ENDBRANCH  17  46
DOCKED: TORSDOF 10
DOCKED: TER
DOCKED: ENDMDL
________________________________________________________________________________


	BEGINNING GENETIC ALGORITHM DOCKING 96 of 100
Run: 96 Seed: 1558176982 1052062192 [ Run 96 of 100 GA/GALS ]
Beginning LAMARCKIAN GENETIC ALGORITHM (LGA), with a maximum of 25000000 energy evaluations.

Final-Value: -10.809


	FINAL GENETIC ALGORITHM DOCKED STATE
	_______________________________________________


Detailed state:  trans 18.824 46.523 -5.164 quatxyzw 0.646484 0.564846 0.199283 0.472539 center 8.287 34.468 -0.670 ntor 10 132.4736 -30.4328 89.8215 83.5400 -155.6752 -176.4921 -43.8304 17.9570 -179.6865 134.1953
State:	 18.824  46.523  -5.164   0.734  0.641  0.226 123.602    132.47  -30.43   89.82   83.54 -155.68 -176.49  -43.83   17.96 -179.69  134.20

DOCKED: MODEL       96
DOCKED: USER    Run = 96
DOCKED: USER    DPF = D:/Protein_go_brrr/autodock/final/6BB5/heme_O2/dock.dpf
DOCKED: USER  
DOCKED: USER    Estimated Free Energy of Binding    =   -5.78 kcal/mol  [=(1)+(2)+(3)-(4)]
DOCKED: USER    Estimated Inhibition Constant, Ki   =   57.88 uM (micromolar)  [Temperature = 298.15 K]
DOCKED: USER    
DOCKED: USER    (1) Final Intermolecular Energy     =   -8.76 kcal/mol
DOCKED: USER        vdW + Hbond + desolv Energy     =   -8.14 kcal/mol
DOCKED: USER        Electrostatic Energy            =   -0.62 kcal/mol
DOCKED: USER    (2) Final Total Internal Energy     =   -2.05 kcal/mol
DOCKED: USER    (3) Torsional Free Energy           =   +2.98 kcal/mol
DOCKED: USER    (4) Unbound System's Energy  [=(2)] =   -2.05 kcal/mol
DOCKED: USER    
DOCKED: USER    
DOCKED: USER    NEWDPF move heme_O2_opt.pdbqt
DOCKED: USER    NEWDPF about 8.287000 34.468000 -0.670000
DOCKED: USER    NEWDPF tran0 18.824186 46.522616 -5.163884
DOCKED: USER    NEWDPF quaternion0 0.646484 0.564846 0.199283 0.472539
DOCKED: USER    NEWDPF axisangle0 0.733549 0.640917 0.226121 123.601506
DOCKED: USER    NEWDPF quat0 0.733549 0.640917 0.226121 123.601506
DOCKED: USER    NEWDPF dihe0 132.47 -30.43 89.82 83.54 -155.68 -176.49 -43.83 17.96 -179.69 134.20 
DOCKED: USER  keepresnum = 1 
DOCKED: USER  
DOCKED: REMARK  10 active torsions:
DOCKED: REMARK  status: ('A' for Active; 'I' for Inactive)
DOCKED: REMARK    1  A    between atoms: C_6  and  C_10 
DOCKED: REMARK    2  A    between atoms: C_10  and  C_11 
DOCKED: REMARK    3  A    between atoms: C_11  and  C_12 
DOCKED: REMARK    4  A    between atoms: C_12  and  O_14 
DOCKED: REMARK    5  A    between atoms: C_17  and  C_20 
DOCKED: REMARK    6  A    between atoms: C_24  and  C_27 
DOCKED: REMARK    7  A    between atoms: C_31  and  C_34 
DOCKED: REMARK    8  A    between atoms: C_34  and  C_35 
DOCKED: REMARK    9  A    between atoms: C_35  and  C_36 
DOCKED: REMARK   10  A    between atoms: C_36  and  O_38 
DOCKED: USER                              x       y       z     vdW  Elec       q    Type
DOCKED: USER                           _______ _______ _______ _____ _____    ______ ____
DOCKED: ROOT
DOCKED: ATOM      1  C   UNL d   1      19.070  44.891  -6.497 -0.27 +0.00    +0.064 A 
DOCKED: ATOM      2  C   UNL d   1      15.873  48.397  -6.272 -0.14 -0.01    +0.064 A 
DOCKED: ATOM      3  C   UNL d   1      17.972  50.183  -2.335 -0.30 -0.02    +0.064 C 
DOCKED: ATOM      4  C   UNL d   1      21.547  46.861  -2.833 -0.24 -0.00    +0.064 A 
DOCKED: ATOM      5  C   UNL d   1      18.030  45.700  -6.758 -0.24 -0.00    +0.066 A 
DOCKED: ATOM      6  C   UNL d   1      17.139  45.511  -7.818 -0.26 +0.00    -0.021 A 
DOCKED: ATOM      7  C   UNL d   1      16.238  46.550  -7.780 -0.23 +0.00    -0.025 A 
DOCKED: ATOM      8  C   UNL d   1      16.575  47.318  -6.668 -0.17 -0.01    +0.066 A 
DOCKED: ATOM      9  C   UNL d   1      15.139  46.781  -8.794 -0.06 -0.01    +0.051 C 
DOCKED: ATOM     10  C   UNL d   1      16.164  49.227  -5.103 -0.13 -0.01    +0.066 A 
DOCKED: ATOM     11  C   UNL d   1      15.310  50.236  -4.643 -0.19 +0.00    -0.021 A 
DOCKED: ATOM     12  C   UNL d   1      15.889  50.751  -3.498 -0.30 -0.00    +0.000 A 
DOCKED: ATOM     13  C   UNL d   1      17.097  50.019  -3.327 -0.24 -0.02    +0.070 A 
DOCKED: ATOM     14  C   UNL d   1      13.983  50.671  -5.255 -0.21 -0.01    +0.052 C 
DOCKED: ATOM     15  C   UNL d   1      19.223  49.488  -2.146 -0.07 -0.02    +0.066 A 
DOCKED: ATOM     16  C   UNL d   1      20.173  49.818  -1.180 -0.24 +0.00    -0.021 A 
DOCKED: ATOM     17  C   UNL d   1      21.202  48.885  -1.304 -0.21 -0.00    +0.000 A 
DOCKED: ATOM     18  C   UNL d   1      20.796  48.043  -2.349 -0.20 -0.01    +0.070 A 
DOCKED: ATOM     19  C   UNL d   1      20.041  51.015  -0.273 -0.27 -0.01    +0.052 C 
DOCKED: ATOM     20  C   UNL d   1      21.208  46.058  -3.861 -0.26 -0.01    +0.066 A 
DOCKED: ATOM     21  C   UNL d   1      21.947  44.947  -4.260 -0.26 +0.00    -0.025 A 
DOCKED: ATOM     22  C   UNL d   1      21.242  44.358  -5.285 -0.29 -0.00    -0.021 A 
DOCKED: ATOM     23  C   UNL d   1      20.104  45.144  -5.486 -0.29 -0.00    +0.066 A 
DOCKED: ATOM     24  C   UNL d   1      23.262  44.475  -3.694 -0.32 +0.00    +0.051 C 
DOCKED: ATOM     25  N   UNL d   1      17.718  46.830  -6.078 -0.12 +0.02    -0.248 N 
DOCKED: ATOM     26  N   UNL d   1      17.259  49.098  -4.311 -0.10 +0.05    -0.248 N 
DOCKED: ATOM     27  N   UNL d   1      19.629  48.468  -2.897 -0.01 +0.08    -0.248 N 
DOCKED: ATOM     28  N   UNL d   1      20.110  46.201  -4.648 -0.17 +0.03    -0.248 N 
DOCKED: ATOM     29 FE   UNL d   1      18.697  47.640  -4.479 -0.04 -0.00    +0.000 Fe
DOCKED: ATOM     30  O   UNL d   1      18.792  48.498  -5.774 -0.09 -0.00    +0.000 OA
DOCKED: ATOM     31  O   UNL d   1      20.052  48.351  -4.840 -0.10 -0.00    +0.000 OA
DOCKED: ENDROOT
DOCKED: BRANCH   6  32
DOCKED: ATOM     32  C   UNL d   1      17.208  44.474  -8.909 -0.23 +0.00    +0.052 C 
DOCKED: BRANCH  32  33
DOCKED: ATOM     33  C   UNL d   1      17.870  44.996 -10.181 -0.12 +0.01    +0.115 C 
DOCKED: BRANCH  33  34
DOCKED: ATOM     34  C   UNL d   1      18.886  44.030 -10.738 -0.11 +0.03    +0.139 C 
DOCKED: ATOM     35  O   UNL d   1      18.563  42.873 -10.955 -0.12 -0.32    -0.650 OA
DOCKED: BRANCH  34  36
DOCKED: ATOM     36  O   UNL d   1      20.159  44.408 -10.978 +0.03 -0.12    -0.776 OA
DOCKED: ATOM     37  H   UNL d   1      20.912  43.878 -10.691 +0.02 +0.03    +0.167 HD
DOCKED: ENDBRANCH  34  36
DOCKED: ENDBRANCH  33  34
DOCKED: ENDBRANCH  32  33
DOCKED: ENDBRANCH   6  32
DOCKED: BRANCH  22  38
DOCKED: ATOM     38  C   UNL d   1      21.677  43.145  -6.066 -0.28 +0.01    +0.052 C 
DOCKED: BRANCH  38  39
DOCKED: ATOM     39  C   UNL d   1      21.735  43.411  -7.569 -0.15 +0.02    +0.115 C 
DOCKED: BRANCH  39  40
DOCKED: ATOM     40  C   UNL d   1      21.768  42.138  -8.378 -0.14 +0.03    +0.139 C 
DOCKED: ATOM     41  O   UNL d   1      22.312  41.145  -7.924 +0.01 -0.16    -0.650 OA
DOCKED: BRANCH  40  42
DOCKED: ATOM     42  O   UNL d   1      21.161  42.062  -9.579 +0.02 -0.28    -0.776 OA
DOCKED: ATOM     43  H   UNL d   1      20.396  42.609  -9.793 +0.02 +0.07    +0.167 HD
DOCKED: ENDBRANCH  40  42
DOCKED: ENDBRANCH  39  40
DOCKED: ENDBRANCH  38  39
DOCKED: ENDBRANCH  22  38
DOCKED: BRANCH  12  44
DOCKED: ATOM     44  C   UNL d   1      15.245  51.867  -2.704 -0.37 -0.00    +0.004 C 
DOCKED: ATOM     45  C   UNL d   1      15.473  53.177  -2.798 -0.33 -0.00    +0.012 C 
DOCKED: ENDBRANCH  12  44
DOCKED: BRANCH  17  46
DOCKED: ATOM     46  C   UNL d   1      22.517  48.762  -0.581 -0.16 -0.00    +0.004 C 
DOCKED: ATOM     47  C   UNL d   1      22.743  48.303   0.656 -0.21 +0.00    +0.012 C 
DOCKED: ENDBRANCH  17  46
DOCKED: TORSDOF 10
DOCKED: TER
DOCKED: ENDMDL
________________________________________________________________________________


	BEGINNING GENETIC ALGORITHM DOCKING 97 of 100
Run: 97 Seed: 1276057601 2031974741 [ Run 97 of 100 GA/GALS ]
Beginning LAMARCKIAN GENETIC ALGORITHM (LGA), with a maximum of 25000000 energy evaluations.

Final-Value: -19.255


	FINAL GENETIC ALGORITHM DOCKED STATE
	_______________________________________________


Detailed state:  trans 8.296 34.695 -0.934 quatxyzw 0.014688 0.014497 0.006591 0.999765 center 8.287 34.468 -0.670 ntor 10 122.1824 -63.6823 -15.6666 -49.6638 -164.0219 179.9250 -44.3419 25.5789 179.6550 148.1416
State:	  8.296  34.695  -0.934   0.678  0.669  0.304  2.483    122.18  -63.68  -15.67  -49.66 -164.02  179.92  -44.34   25.58  179.65  148.14

DOCKED: MODEL       97
DOCKED: USER    Run = 97
DOCKED: USER    DPF = D:/Protein_go_brrr/autodock/final/6BB5/heme_O2/dock.dpf
DOCKED: USER  
DOCKED: USER    Estimated Free Energy of Binding    =  -14.23 kcal/mol  [=(1)+(2)+(3)-(4)]
DOCKED: USER    Estimated Inhibition Constant, Ki   =   37.02 pM (picomolar)  [Temperature = 298.15 K]
DOCKED: USER    
DOCKED: USER    (1) Final Intermolecular Energy     =  -17.21 kcal/mol
DOCKED: USER        vdW + Hbond + desolv Energy     =  -15.73 kcal/mol
DOCKED: USER        Electrostatic Energy            =   -1.48 kcal/mol
DOCKED: USER    (2) Final Total Internal Energy     =   -2.04 kcal/mol
DOCKED: USER    (3) Torsional Free Energy           =   +2.98 kcal/mol
DOCKED: USER    (4) Unbound System's Energy  [=(2)] =   -2.04 kcal/mol
DOCKED: USER    
DOCKED: USER    
DOCKED: USER    NEWDPF move heme_O2_opt.pdbqt
DOCKED: USER    NEWDPF about 8.287000 34.468000 -0.670000
DOCKED: USER    NEWDPF tran0 8.296317 34.695231 -0.934047
DOCKED: USER    NEWDPF quaternion0 0.014688 0.014497 0.006591 0.999765
DOCKED: USER    NEWDPF axisangle0 0.677975 0.669178 0.304222 2.482736
DOCKED: USER    NEWDPF quat0 0.677975 0.669178 0.304222 2.482736
DOCKED: USER    NEWDPF dihe0 122.18 -63.68 -15.67 -49.66 -164.02 179.92 -44.34 25.58 179.65 148.14 
DOCKED: USER  keepresnum = 1 
DOCKED: USER  
DOCKED: REMARK  10 active torsions:
DOCKED: REMARK  status: ('A' for Active; 'I' for Inactive)
DOCKED: REMARK    1  A    between atoms: C_6  and  C_10 
DOCKED: REMARK    2  A    between atoms: C_10  and  C_11 
DOCKED: REMARK    3  A    between atoms: C_11  and  C_12 
DOCKED: REMARK    4  A    between atoms: C_12  and  O_14 
DOCKED: REMARK    5  A    between atoms: C_17  and  C_20 
DOCKED: REMARK    6  A    between atoms: C_24  and  C_27 
DOCKED: REMARK    7  A    between atoms: C_31  and  C_34 
DOCKED: REMARK    8  A    between atoms: C_34  and  C_35 
DOCKED: REMARK    9  A    between atoms: C_35  and  C_36 
DOCKED: REMARK   10  A    between atoms: C_36  and  O_38 
DOCKED: USER                              x       y       z     vdW  Elec       q    Type
DOCKED: USER                           _______ _______ _______ _____ _____    ______ ____
DOCKED: ROOT
DOCKED: ATOM      1  C   UNL d   1       6.458  35.297  -1.805 -0.19 +0.01    +0.064 A 
DOCKED: ATOM      2  C   UNL d   1       7.489  32.666   2.012 -0.38 +0.00    +0.064 A 
DOCKED: ATOM      3  C   UNL d   1      12.199  33.139   1.181 -0.43 +0.00    +0.064 C 
DOCKED: ATOM      4  C   UNL d   1      11.159  36.243  -2.473 -0.44 +0.00    +0.064 A 
DOCKED: ATOM      5  C   UNL d   1       6.355  34.544  -0.698 -0.25 +0.01    +0.066 A 
DOCKED: ATOM      6  C   UNL d   1       5.139  34.151  -0.130 -0.28 -0.00    -0.021 A 
DOCKED: ATOM      7  C   UNL d   1       5.436  33.426   1.000 -0.35 -0.00    -0.025 A 
DOCKED: ATOM      8  C   UNL d   1       6.825  33.355   1.064 -0.35 +0.01    +0.066 A 
DOCKED: ATOM      9  C   UNL d   1       4.412  32.869   1.965 -0.40 +0.00    +0.051 C 
DOCKED: ATOM     10  C   UNL d   1       8.943  32.536   2.118 -0.37 +0.00    +0.066 A 
DOCKED: ATOM     11  C   UNL d   1       9.575  31.677   3.023 -0.44 -0.00    -0.021 A 
DOCKED: ATOM     12  C   UNL d   1      10.933  31.785   2.787 -0.43 +0.00    +0.000 A 
DOCKED: ATOM     13  C   UNL d   1      11.056  32.736   1.736 -0.36 +0.00    +0.070 A 
DOCKED: ATOM     14  C   UNL d   1       8.910  30.769   4.052 -0.59 +0.00    +0.052 C 
DOCKED: ATOM     15  C   UNL d   1      12.368  34.124   0.140 -0.37 +0.00    +0.066 A 
DOCKED: ATOM     16  C   UNL d   1      13.599  34.623  -0.284 -0.44 -0.00    -0.021 A 
DOCKED: ATOM     17  C   UNL d   1      13.328  35.511  -1.325 -0.46 +0.00    +0.000 A 
DOCKED: ATOM     18  C   UNL d   1      11.933  35.485  -1.461 -0.39 +0.00    +0.070 A 
DOCKED: ATOM     19  C   UNL d   1      14.906  34.254   0.372 -0.60 +0.00    +0.052 C 
DOCKED: ATOM     20  C   UNL d   1       9.819  36.275  -2.603 -0.41 +0.00    +0.066 A 
DOCKED: ATOM     21  C   UNL d   1       9.148  36.994  -3.588 -0.39 +0.00    -0.025 A 
DOCKED: ATOM     22  C   UNL d   1       7.809  36.715  -3.430 -0.32 -0.00    -0.021 A 
DOCKED: ATOM     23  C   UNL d   1       7.711  35.846  -2.339 -0.32 +0.01    +0.066 A 
DOCKED: ATOM     24  C   UNL d   1       9.753  37.905  -4.624 -0.48 -0.01    +0.051 C 
DOCKED: ATOM     25  N   UNL d   1       7.390  34.099   0.054 -0.18 -0.04    -0.248 N 
DOCKED: ATOM     26  N   UNL d   1       9.841  33.191   1.338 -0.14 -0.02    -0.248 N 
DOCKED: ATOM     27  N   UNL d   1      11.362  34.696  -0.515 -0.18 -0.03    -0.248 N 
DOCKED: ATOM     28  N   UNL d   1       8.931  35.616  -1.812 -0.24 -0.04    -0.248 N 
DOCKED: ATOM     29 FE   UNL d   1       9.385  34.413  -0.249 +0.03 +0.00    +0.000 Fe
DOCKED: ATOM     30  O   UNL d   1       8.824  35.118   1.020 -0.82 +0.00    +0.000 OA
DOCKED: ATOM     31  O   UNL d   1       9.875  35.863   0.114 -1.06 +0.00    +0.000 OA
DOCKED: ENDROOT
DOCKED: BRANCH   6  32
DOCKED: ATOM     32  C   UNL d   1       3.750  34.555  -0.551 -0.23 +0.01    +0.052 C 
DOCKED: BRANCH  32  33
DOCKED: ATOM     33  C   UNL d   1       3.198  35.720   0.265 -0.12 +0.06    +0.115 C 
DOCKED: BRANCH  33  34
DOCKED: ATOM     34  C   UNL d   1       2.569  36.783  -0.601 -0.16 +0.11    +0.139 C 
DOCKED: ATOM     35  O   UNL d   1       1.820  36.457  -1.508 -0.01 -0.36    -0.650 OA
DOCKED: BRANCH  34  36
DOCKED: ATOM     36  O   UNL d   1       2.838  38.092  -0.414 -0.34 -1.16    -0.776 OA
DOCKED: ATOM     37  H   UNL d   1       3.201  38.644  -1.117 +0.03 +0.17    +0.167 HD
DOCKED: ENDBRANCH  34  36
DOCKED: ENDBRANCH  33  34
DOCKED: ENDBRANCH  32  33
DOCKED: ENDBRANCH   6  32
DOCKED: BRANCH  22  38
DOCKED: ATOM     38  C   UNL d   1       6.686  37.305  -4.244 -0.23 +0.00    +0.052 C 
DOCKED: BRANCH  38  39
DOCKED: ATOM     39  C   UNL d   1       5.831  38.279  -3.437 -0.19 +0.01    +0.115 C 
DOCKED: BRANCH  39  40
DOCKED: ATOM     40  C   UNL d   1       4.435  38.416  -3.991 -0.08 +0.03    +0.139 C 
DOCKED: ATOM     41  O   UNL d   1       4.255  38.371  -5.198 +0.04 -0.08    -0.650 OA
DOCKED: BRANCH  40  42
DOCKED: ATOM     42  O   UNL d   1       3.371  38.537  -3.174 +0.06 -0.27    -0.776 OA
DOCKED: ATOM     43  H   UNL d   1       3.140  37.847  -2.541 +0.04 +0.07    +0.167 HD
DOCKED: ENDBRANCH  40  42
DOCKED: ENDBRANCH  39  40
DOCKED: ENDBRANCH  38  39
DOCKED: ENDBRANCH  22  38
DOCKED: BRANCH  12  44
DOCKED: ATOM     44  C   UNL d   1      11.952  30.990   3.576 -0.54 +0.00    +0.004 C 
DOCKED: ATOM     45  C   UNL d   1      13.211  30.710   3.239 -0.66 +0.00    +0.012 C 
DOCKED: ENDBRANCH  12  44
DOCKED: BRANCH  17  46
DOCKED: ATOM     46  C   UNL d   1      14.240  36.394  -2.133 -0.63 +0.00    +0.004 C 
DOCKED: ATOM     47  C   UNL d   1      15.089  37.332  -1.693 -0.67 +0.00    +0.012 C 
DOCKED: ENDBRANCH  17  46
DOCKED: TORSDOF 10
DOCKED: TER
DOCKED: ENDMDL
________________________________________________________________________________


	BEGINNING GENETIC ALGORITHM DOCKING 98 of 100
Run: 98 Seed: 1068854668 819793252 [ Run 98 of 100 GA/GALS ]
Beginning LAMARCKIAN GENETIC ALGORITHM (LGA), with a maximum of 25000000 energy evaluations.

Final-Value: -20.765


	FINAL GENETIC ALGORITHM DOCKED STATE
	_______________________________________________


Detailed state:  trans 41.014 28.162 15.674 quatxyzw -0.319063 0.357327 0.874607 -0.074690 center 8.287 34.468 -0.670 ntor 10 3.3193 -169.7853 1.4916 -102.4870 111.1810 87.4809 51.3782 71.6217 -117.9525 -172.5766
State:	 41.014  28.162  15.674  -0.320  0.358  0.877 -171.433      3.32 -169.79    1.49 -102.49  111.18   87.48   51.38   71.62 -117.95 -172.58

DOCKED: MODEL       98
DOCKED: USER    Run = 98
DOCKED: USER    DPF = D:/Protein_go_brrr/autodock/final/6BB5/heme_O2/dock.dpf
DOCKED: USER  
DOCKED: USER    Estimated Free Energy of Binding    =  -16.37 kcal/mol  [=(1)+(2)+(3)-(4)]
DOCKED: USER    Estimated Inhibition Constant, Ki   =    1.00 pM (picomolar)  [Temperature = 298.15 K]
DOCKED: USER    
DOCKED: USER    (1) Final Intermolecular Energy     =  -19.35 kcal/mol
DOCKED: USER        vdW + Hbond + desolv Energy     =  -16.68 kcal/mol
DOCKED: USER        Electrostatic Energy            =   -2.67 kcal/mol
DOCKED: USER    (2) Final Total Internal Energy     =   -1.41 kcal/mol
DOCKED: USER    (3) Torsional Free Energy           =   +2.98 kcal/mol
DOCKED: USER    (4) Unbound System's Energy  [=(2)] =   -1.41 kcal/mol
DOCKED: USER    
DOCKED: USER    
DOCKED: USER    NEWDPF move heme_O2_opt.pdbqt
DOCKED: USER    NEWDPF about 8.287000 34.468000 -0.670000
DOCKED: USER    NEWDPF tran0 41.013648 28.161756 15.674057
DOCKED: USER    NEWDPF quaternion0 -0.319063 0.357327 0.874607 -0.074690
DOCKED: USER    NEWDPF axisangle0 -0.319957 0.358327 0.877057 -171.433164
DOCKED: USER    NEWDPF quat0 -0.319957 0.358327 0.877057 -171.433164
DOCKED: USER    NEWDPF dihe0 3.32 -169.79 1.49 -102.49 111.18 87.48 51.38 71.62 -117.95 -172.58 
DOCKED: USER  keepresnum = 1 
DOCKED: USER  
DOCKED: REMARK  10 active torsions:
DOCKED: REMARK  status: ('A' for Active; 'I' for Inactive)
DOCKED: REMARK    1  A    between atoms: C_6  and  C_10 
DOCKED: REMARK    2  A    between atoms: C_10  and  C_11 
DOCKED: REMARK    3  A    between atoms: C_11  and  C_12 
DOCKED: REMARK    4  A    between atoms: C_12  and  O_14 
DOCKED: REMARK    5  A    between atoms: C_17  and  C_20 
DOCKED: REMARK    6  A    between atoms: C_24  and  C_27 
DOCKED: REMARK    7  A    between atoms: C_31  and  C_34 
DOCKED: REMARK    8  A    between atoms: C_34  and  C_35 
DOCKED: REMARK    9  A    between atoms: C_35  and  C_36 
DOCKED: REMARK   10  A    between atoms: C_36  and  O_38 
DOCKED: USER                              x       y       z     vdW  Elec       q    Type
DOCKED: USER                           _______ _______ _______ _____ _____    ______ ____
DOCKED: ROOT
DOCKED: ATOM      1  C   UNL d   1      42.670  27.364  16.732 -0.26 +0.02    +0.064 A 
DOCKED: ATOM      2  C   UNL d   1      40.854  31.744  16.445 -0.40 +0.01    +0.064 A 
DOCKED: ATOM      3  C   UNL d   1      37.461  30.236  13.394 -0.35 +0.01    +0.064 C 
DOCKED: ATOM      4  C   UNL d   1      39.027  25.634  14.054 -0.42 +0.01    +0.064 A 
DOCKED: ATOM      5  C   UNL d   1      42.452  28.678  16.904 -0.20 +0.02    +0.066 A 
DOCKED: ATOM      6  C   UNL d   1      43.243  29.504  17.708 -0.26 -0.01    -0.021 A 
DOCKED: ATOM      7  C   UNL d   1      42.693  30.763  17.660 -0.37 -0.01    -0.025 A 
DOCKED: ATOM      8  C   UNL d   1      41.609  30.682  16.790 -0.34 +0.01    +0.066 A 
DOCKED: ATOM      9  C   UNL d   1      43.190  31.956  18.447 -0.43 +0.01    +0.051 C 
DOCKED: ATOM     10  C   UNL d   1      39.720  31.725  15.521 -0.36 +0.01    +0.066 A 
DOCKED: ATOM     11  C   UNL d   1      39.074  32.882  15.071 -0.41 -0.00    -0.021 A 
DOCKED: ATOM     12  C   UNL d   1      38.104  32.470  14.176 -0.40 +0.00    +0.000 A 
DOCKED: ATOM     13  C   UNL d   1      38.207  31.051  14.139 -0.36 +0.01    +0.070 A 
DOCKED: ATOM     14  C   UNL d   1      39.388  34.323  15.458 -0.54 +0.00    +0.052 C 
DOCKED: ATOM     15  C   UNL d   1      37.510  28.795  13.354 -0.39 +0.01    +0.066 A 
DOCKED: ATOM     16  C   UNL d   1      36.593  27.991  12.678 -0.52 -0.00    -0.021 A 
DOCKED: ATOM     17  C   UNL d   1      37.019  26.674  12.853 -0.48 +0.00    +0.000 A 
DOCKED: ATOM     18  C   UNL d   1      38.180  26.775  13.631 -0.38 +0.01    +0.070 A 
DOCKED: ATOM     19  C   UNL d   1      35.375  28.541  11.979 -0.67 +0.00    +0.052 C 
DOCKED: ATOM     20  C   UNL d   1      40.122  25.691  14.836 -0.40 +0.01    +0.066 A 
DOCKED: ATOM     21  C   UNL d   1      40.890  24.584  15.186 -0.46 -0.00    -0.025 A 
DOCKED: ATOM     22  C   UNL d   1      41.947  25.062  15.927 -0.34 -0.00    -0.021 A 
DOCKED: ATOM     23  C   UNL d   1      41.776  26.446  16.017 -0.35 +0.01    +0.066 A 
DOCKED: ATOM     24  C   UNL d   1      40.625  23.143  14.835 -0.47 +0.01    +0.051 C 
DOCKED: ATOM     25  N   UNL d   1      41.422  29.384  16.377 -0.21 -0.06    -0.248 N 
DOCKED: ATOM     26  N   UNL d   1      39.189  30.606  14.964 -0.17 -0.05    -0.248 N 
DOCKED: ATOM     27  N   UNL d   1      38.421  28.062  13.989 -0.21 -0.05    -0.248 N 
DOCKED: ATOM     28  N   UNL d   1      40.640  26.819  15.391 -0.27 -0.05    -0.248 N 
DOCKED: ATOM     29 FE   UNL d   1      39.918  28.698  15.177 -0.07 +0.00    +0.000 Fe
DOCKED: ATOM     30  O   UNL d   1      39.441  29.144  16.590 -0.76 +0.00    +0.000 OA
DOCKED: ATOM     31  O   UNL d   1      38.824  27.854  15.928 -0.81 +0.00    +0.000 OA
DOCKED: ENDROOT
DOCKED: BRANCH   6  32
DOCKED: ATOM     32  C   UNL d   1      44.391  29.102  18.597 -0.27 +0.02    +0.052 C 
DOCKED: BRANCH  32  33
DOCKED: ATOM     33  C   UNL d   1      44.197  27.726  19.228 -0.21 +0.07    +0.115 C 
DOCKED: BRANCH  33  34
DOCKED: ATOM     34  C   UNL d   1      44.444  27.736  20.716 -0.11 +0.18    +0.139 C 
DOCKED: ATOM     35  O   UNL d   1      45.365  28.396  21.171 +0.06 -1.21    -0.650 OA
DOCKED: BRANCH  34  36
DOCKED: ATOM     36  O   UNL d   1      43.685  27.007  21.560 -0.35 -1.42    -0.776 OA
DOCKED: ATOM     37  H   UNL d   1      42.993  26.416  21.243 +0.06 +0.17    +0.167 HD
DOCKED: ENDBRANCH  34  36
DOCKED: ENDBRANCH  33  34
DOCKED: ENDBRANCH  32  33
DOCKED: ENDBRANCH   6  32
DOCKED: BRANCH  22  38
DOCKED: ATOM     38  C   UNL d   1      43.024  24.221  16.564 -0.31 +0.01    +0.052 C 
DOCKED: BRANCH  38  39
DOCKED: ATOM     39  C   UNL d   1      42.504  23.409  17.748 -0.40 +0.02    +0.115 C 
DOCKED: BRANCH  39  40
DOCKED: ATOM     40  C   UNL d   1      43.028  23.915  19.069 -0.34 +0.04    +0.139 C 
DOCKED: ATOM     41  O   UNL d   1      43.561  23.140  19.846 -0.41 -0.28    -0.650 OA
DOCKED: BRANCH  40  42
DOCKED: ATOM     42  O   UNL d   1      42.964  25.222  19.387 +0.04 -0.29    -0.776 OA
DOCKED: ATOM     43  H   UNL d   1      43.454  25.584  20.136 +0.07 +0.09    +0.167 HD
DOCKED: ENDBRANCH  40  42
DOCKED: ENDBRANCH  39  40
DOCKED: ENDBRANCH  38  39
DOCKED: ENDBRANCH  22  38
DOCKED: BRANCH  12  44
DOCKED: ATOM     44  C   UNL d   1      37.196  33.451  13.466 -0.49 +0.00    +0.004 C 
DOCKED: ATOM     45  C   UNL d   1      36.265  33.190  12.550 -0.58 +0.00    +0.012 C 
DOCKED: ENDBRANCH  12  44
DOCKED: BRANCH  17  46
DOCKED: ATOM     46  C   UNL d   1      36.408  25.371  12.410 -0.65 +0.00    +0.004 C 
DOCKED: ATOM     47  C   UNL d   1      35.825  24.431  13.164 -0.73 +0.00    +0.012 C 
DOCKED: ENDBRANCH  17  46
DOCKED: TORSDOF 10
DOCKED: TER
DOCKED: ENDMDL
________________________________________________________________________________


	BEGINNING GENETIC ALGORITHM DOCKING 99 of 100
Run: 99 Seed: 1480176474 374269298 [ Run 99 of 100 GA/GALS ]
Beginning LAMARCKIAN GENETIC ALGORITHM (LGA), with a maximum of 25000000 energy evaluations.

Final-Value: -19.846


	FINAL GENETIC ALGORITHM DOCKED STATE
	_______________________________________________


Detailed state:  trans 41.184 28.573 15.806 quatxyzw 0.332981 -0.355012 -0.871852 0.054450 center 8.287 34.468 -0.670 ntor 10 -8.7283 133.4166 -13.8380 -87.1661 -113.2619 -90.0247 54.8937 -79.9822 -103.1290 -179.1465
State:	 41.184  28.573  15.806   0.333 -0.356 -0.873 173.757     -8.73  133.42  -13.84  -87.17 -113.26  -90.02   54.89  -79.98 -103.13 -179.15

DOCKED: MODEL       99
DOCKED: USER    Run = 99
DOCKED: USER    DPF = D:/Protein_go_brrr/autodock/final/6BB5/heme_O2/dock.dpf
DOCKED: USER  
DOCKED: USER    Estimated Free Energy of Binding    =  -16.54 kcal/mol  [=(1)+(2)+(3)-(4)]
DOCKED: USER    Estimated Inhibition Constant, Ki   =  752.35 fM (femtomolar)  [Temperature = 298.15 K]
DOCKED: USER    
DOCKED: USER    (1) Final Intermolecular Energy     =  -19.52 kcal/mol
DOCKED: USER        vdW + Hbond + desolv Energy     =  -17.10 kcal/mol
DOCKED: USER        Electrostatic Energy            =   -2.43 kcal/mol
DOCKED: USER    (2) Final Total Internal Energy     =   -0.32 kcal/mol
DOCKED: USER    (3) Torsional Free Energy           =   +2.98 kcal/mol
DOCKED: USER    (4) Unbound System's Energy  [=(2)] =   -0.32 kcal/mol
DOCKED: USER    
DOCKED: USER    
DOCKED: USER    NEWDPF move heme_O2_opt.pdbqt
DOCKED: USER    NEWDPF about 8.287000 34.468000 -0.670000
DOCKED: USER    NEWDPF tran0 41.184201 28.572920 15.805501
DOCKED: USER    NEWDPF quaternion0 0.332981 -0.355012 -0.871852 0.054450
DOCKED: USER    NEWDPF axisangle0 0.333476 -0.355540 -0.873147 173.757409
DOCKED: USER    NEWDPF quat0 0.333476 -0.355540 -0.873147 173.757409
DOCKED: USER    NEWDPF dihe0 -8.73 133.42 -13.84 -87.17 -113.26 -90.02 54.89 -79.98 -103.13 -179.15 
DOCKED: USER  keepresnum = 1 
DOCKED: USER  
DOCKED: REMARK  10 active torsions:
DOCKED: REMARK  status: ('A' for Active; 'I' for Inactive)
DOCKED: REMARK    1  A    between atoms: C_6  and  C_10 
DOCKED: REMARK    2  A    between atoms: C_10  and  C_11 
DOCKED: REMARK    3  A    between atoms: C_11  and  C_12 
DOCKED: REMARK    4  A    between atoms: C_12  and  O_14 
DOCKED: REMARK    5  A    between atoms: C_17  and  C_20 
DOCKED: REMARK    6  A    between atoms: C_24  and  C_27 
DOCKED: REMARK    7  A    between atoms: C_31  and  C_34 
DOCKED: REMARK    8  A    between atoms: C_34  and  C_35 
DOCKED: REMARK    9  A    between atoms: C_35  and  C_36 
DOCKED: REMARK   10  A    between atoms: C_36  and  O_38 
DOCKED: USER                              x       y       z     vdW  Elec       q    Type
DOCKED: USER                           _______ _______ _______ _____ _____    ______ ____
DOCKED: ROOT
DOCKED: ATOM      1  C   UNL d   1      42.863  27.867  16.893 -0.25 +0.02    +0.064 A 
DOCKED: ATOM      2  C   UNL d   1      40.850  32.153  16.527 -0.41 +0.01    +0.064 A 
DOCKED: ATOM      3  C   UNL d   1      37.568  30.451  13.457 -0.41 +0.01    +0.064 C 
DOCKED: ATOM      4  C   UNL d   1      39.337  25.936  14.196 -0.41 +0.01    +0.064 A 
DOCKED: ATOM      5  C   UNL d   1      42.582  29.171  17.046 -0.21 +0.02    +0.066 A 
DOCKED: ATOM      6  C   UNL d   1      43.324  30.043  17.847 -0.31 -0.01    -0.021 A 
DOCKED: ATOM      7  C   UNL d   1      42.716  31.275  17.776 -0.39 -0.00    -0.025 A 
DOCKED: ATOM      8  C   UNL d   1      41.648  31.132  16.895 -0.38 +0.01    +0.066 A 
DOCKED: ATOM      9  C   UNL d   1      43.148  32.499  18.553 -0.44 +0.01    +0.051 C 
DOCKED: ATOM     10  C   UNL d   1      39.729  32.070  15.590 -0.37 +0.01    +0.066 A 
DOCKED: ATOM     11  C   UNL d   1      39.036  33.190  15.118 -0.42 -0.00    -0.021 A 
DOCKED: ATOM     12  C   UNL d   1      38.097  32.722  14.217 -0.40 +0.00    +0.000 A 
DOCKED: ATOM     13  C   UNL d   1      38.266  31.309  14.200 -0.36 +0.01    +0.070 A 
DOCKED: ATOM     14  C   UNL d   1      39.278  34.649  15.489 -0.57 +0.00    +0.052 C 
DOCKED: ATOM     15  C   UNL d   1      37.684  29.013  13.437 -0.38 +0.01    +0.066 A 
DOCKED: ATOM     16  C   UNL d   1      36.813  28.159  12.760 -0.50 -0.00    -0.021 A 
DOCKED: ATOM     17  C   UNL d   1      37.298  26.866  12.957 -0.47 +0.00    +0.000 A 
DOCKED: ATOM     18  C   UNL d   1      38.443  27.030  13.748 -0.37 +0.01    +0.070 A 
DOCKED: ATOM     19  C   UNL d   1      35.580  28.643  12.040 -0.66 +0.00    +0.052 C 
DOCKED: ATOM     20  C   UNL d   1      40.418  26.053  14.990 -0.40 +0.01    +0.066 A 
DOCKED: ATOM     21  C   UNL d   1      41.232  24.987  15.364 -0.40 -0.00    -0.025 A 
DOCKED: ATOM     22  C   UNL d   1      42.257  25.523  16.110 -0.28 -0.00    -0.021 A 
DOCKED: ATOM     23  C   UNL d   1      42.021  26.899  16.180 -0.34 +0.01    +0.066 A 
DOCKED: ATOM     24  C   UNL d   1      41.039  23.531  15.028 -0.55 +0.01    +0.051 C 
DOCKED: ATOM     25  N   UNL d   1      41.527  29.821  16.497 -0.21 -0.05    -0.248 N 
DOCKED: ATOM     26  N   UNL d   1      39.257  30.921  15.042 -0.21 -0.04    -0.248 N 
DOCKED: ATOM     27  N   UNL d   1      38.620  28.332  14.092 -0.19 -0.06    -0.248 N 
DOCKED: ATOM     28  N   UNL d   1      40.877  27.211  15.536 -0.23 -0.05    -0.248 N 
DOCKED: ATOM     29 FE   UNL d   1      40.071  29.051  15.289 -0.09 +0.00    +0.000 Fe
DOCKED: ATOM     30  O   UNL d   1      39.557  29.492  16.690 -0.64 +0.00    +0.000 OA
DOCKED: ATOM     31  O   UNL d   1      39.008  28.167  16.038 -0.92 +0.00    +0.000 OA
DOCKED: ENDROOT
DOCKED: BRANCH   6  32
DOCKED: ATOM     32  C   UNL d   1      44.478  29.706  18.755 -0.28 +0.02    +0.052 C 
DOCKED: BRANCH  32  33
DOCKED: ATOM     33  C   UNL d   1      44.535  28.224  19.115 -0.22 +0.07    +0.115 C 
DOCKED: BRANCH  33  34
DOCKED: ATOM     34  C   UNL d   1      44.606  27.996  20.605 -0.08 +0.18    +0.139 C 
DOCKED: ATOM     35  O   UNL d   1      43.582  27.770  21.230 -0.40 -1.10    -0.650 OA
DOCKED: BRANCH  34  36
DOCKED: ATOM     36  O   UNL d   1      45.776  28.065  21.272 -0.27 -1.52    -0.776 OA
DOCKED: ATOM     37  H   UNL d   1      46.622  28.142  20.814 +0.02 +0.19    +0.167 HD
DOCKED: ENDBRANCH  34  36
DOCKED: ENDBRANCH  33  34
DOCKED: ENDBRANCH  32  33
DOCKED: ENDBRANCH   6  32
DOCKED: BRANCH  22  38
DOCKED: ATOM     38  C   UNL d   1      43.364  24.742  16.771 -0.29 +0.01    +0.052 C 
DOCKED: BRANCH  38  39
DOCKED: ATOM     39  C   UNL d   1      42.903  24.049  18.051 -0.34 +0.03    +0.115 C 
DOCKED: BRANCH  39  40
DOCKED: ATOM     40  C   UNL d   1      42.575  22.593  17.833 -0.33 +0.03    +0.139 C 
DOCKED: ATOM     41  O   UNL d   1      43.405  21.853  17.331 +0.08 -0.15    -0.650 OA
DOCKED: BRANCH  40  42
DOCKED: ATOM     42  O   UNL d   1      41.394  22.079  18.230 +0.04 -0.04    -0.776 OA
DOCKED: ATOM     43  H   UNL d   1      40.889  21.481  17.667 -0.43 -0.04    +0.167 HD
DOCKED: ENDBRANCH  40  42
DOCKED: ENDBRANCH  39  40
DOCKED: ENDBRANCH  38  39
DOCKED: ENDBRANCH  22  38
DOCKED: BRANCH  12  44
DOCKED: ATOM     44  C   UNL d   1      37.153  33.651  13.484 -0.50 +0.00    +0.004 C 
DOCKED: ATOM     45  C   UNL d   1      36.451  33.400  12.379 -0.58 +0.00    +0.012 C 
DOCKED: ENDBRANCH  12  44
DOCKED: BRANCH  17  46
DOCKED: ATOM     46  C   UNL d   1      36.754  25.530  12.525 -0.63 +0.00    +0.004 C 
DOCKED: ATOM     47  C   UNL d   1      35.963  24.696  13.212 -0.71 +0.00    +0.012 C 
DOCKED: ENDBRANCH  17  46
DOCKED: TORSDOF 10
DOCKED: TER
DOCKED: ENDMDL
________________________________________________________________________________


	BEGINNING GENETIC ALGORITHM DOCKING 100 of 100
Run: 100 Seed: 1807623323 1180344751 [ Run 100 of 100 GA/GALS ]
Beginning LAMARCKIAN GENETIC ALGORITHM (LGA), with a maximum of 25000000 energy evaluations.

Final-Value: -20.441


	FINAL GENETIC ALGORITHM DOCKED STATE
	_______________________________________________


Detailed state:  trans 41.029 28.537 15.791 quatxyzw 0.356263 -0.397353 -0.844911 0.036230 center 8.287 34.468 -0.670 ntor 10 -85.8736 32.0600 41.6295 -85.6893 -145.5410 135.5801 54.2131 11.1711 -80.4439 160.5230
State:	 41.029  28.537  15.791   0.356 -0.398 -0.845 175.847    -85.87   32.06   41.63  -85.69 -145.54  135.58   54.21   11.17  -80.44  160.52

DOCKED: MODEL      100
DOCKED: USER    Run = 100
DOCKED: USER    DPF = D:/Protein_go_brrr/autodock/final/6BB5/heme_O2/dock.dpf
DOCKED: USER  
DOCKED: USER    Estimated Free Energy of Binding    =  -16.00 kcal/mol  [=(1)+(2)+(3)-(4)]
DOCKED: USER    Estimated Inhibition Constant, Ki   =    1.87 pM (picomolar)  [Temperature = 298.15 K]
DOCKED: USER    
DOCKED: USER    (1) Final Intermolecular Energy     =  -18.98 kcal/mol
DOCKED: USER        vdW + Hbond + desolv Energy     =  -16.75 kcal/mol
DOCKED: USER        Electrostatic Energy            =   -2.23 kcal/mol
DOCKED: USER    (2) Final Total Internal Energy     =   -1.46 kcal/mol
DOCKED: USER    (3) Torsional Free Energy           =   +2.98 kcal/mol
DOCKED: USER    (4) Unbound System's Energy  [=(2)] =   -1.46 kcal/mol
DOCKED: USER    
DOCKED: USER    
DOCKED: USER    NEWDPF move heme_O2_opt.pdbqt
DOCKED: USER    NEWDPF about 8.287000 34.468000 -0.670000
DOCKED: USER    NEWDPF tran0 41.029469 28.537151 15.791211
DOCKED: USER    NEWDPF quaternion0 0.356263 -0.397353 -0.844911 0.036230
DOCKED: USER    NEWDPF axisangle0 0.356497 -0.397614 -0.845466 175.847431
DOCKED: USER    NEWDPF quat0 0.356497 -0.397614 -0.845466 175.847431
DOCKED: USER    NEWDPF dihe0 -85.87 32.06 41.63 -85.69 -145.54 135.58 54.21 11.17 -80.44 160.52 
DOCKED: USER  keepresnum = 1 
DOCKED: USER  
DOCKED: REMARK  10 active torsions:
DOCKED: REMARK  status: ('A' for Active; 'I' for Inactive)
DOCKED: REMARK    1  A    between atoms: C_6  and  C_10 
DOCKED: REMARK    2  A    between atoms: C_10  and  C_11 
DOCKED: REMARK    3  A    between atoms: C_11  and  C_12 
DOCKED: REMARK    4  A    between atoms: C_12  and  O_14 
DOCKED: REMARK    5  A    between atoms: C_17  and  C_20 
DOCKED: REMARK    6  A    between atoms: C_24  and  C_27 
DOCKED: REMARK    7  A    between atoms: C_31  and  C_34 
DOCKED: REMARK    8  A    between atoms: C_34  and  C_35 
DOCKED: REMARK    9  A    between atoms: C_35  and  C_36 
DOCKED: REMARK   10  A    between atoms: C_36  and  O_38 
DOCKED: USER                              x       y       z     vdW  Elec       q    Type
DOCKED: USER                           _______ _______ _______ _____ _____    ______ ____
DOCKED: ROOT
DOCKED: ATOM      1  C   UNL d   1      42.671  27.984  17.015 -0.02 +0.02    +0.064 A 
DOCKED: ATOM      2  C   UNL d   1      40.612  32.167  16.109 -0.40 +0.01    +0.064 A 
DOCKED: ATOM      3  C   UNL d   1      37.487  30.083  13.111 -0.43 +0.01    +0.064 C 
DOCKED: ATOM      4  C   UNL d   1      39.290  25.707  14.402 -0.40 +0.01    +0.064 A 
DOCKED: ATOM      5  C   UNL d   1      42.365  29.291  17.015 -0.18 +0.02    +0.066 A 
DOCKED: ATOM      6  C   UNL d   1      43.060  30.259  17.747 -0.33 -0.01    -0.021 A 
DOCKED: ATOM      7  C   UNL d   1      42.437  31.464  17.519 -0.41 -0.00    -0.025 A 
DOCKED: ATOM      8  C   UNL d   1      41.409  31.207  16.616 -0.36 +0.01    +0.066 A 
DOCKED: ATOM      9  C   UNL d   1      42.818  32.772  18.176 -0.44 +0.01    +0.051 C 
DOCKED: ATOM     10  C   UNL d   1      39.532  31.962  15.142 -0.37 +0.01    +0.066 A 
DOCKED: ATOM     11  C   UNL d   1      38.843  33.012  14.524 -0.39 -0.00    -0.021 A 
DOCKED: ATOM     12  C   UNL d   1      37.950  32.431  13.643 -0.40 +0.00    +0.000 A 
DOCKED: ATOM     13  C   UNL d   1      38.140  31.029  13.785 -0.38 +0.01    +0.070 A 
DOCKED: ATOM     14  C   UNL d   1      39.047  34.506  14.745 -0.52 +0.00    +0.052 C 
DOCKED: ATOM     15  C   UNL d   1      37.625  28.653  13.251 -0.40 +0.01    +0.066 A 
DOCKED: ATOM     16  C   UNL d   1      36.797  27.715  12.636 -0.51 -0.00    -0.021 A 
DOCKED: ATOM     17  C   UNL d   1      37.291  26.460  12.991 -0.47 +0.00    +0.000 A 
DOCKED: ATOM     18  C   UNL d   1      38.401  26.730  13.804 -0.38 +0.01    +0.070 A 
DOCKED: ATOM     19  C   UNL d   1      35.587  28.095  11.819 -0.61 +0.00    +0.052 C 
DOCKED: ATOM     20  C   UNL d   1      40.336  25.931  15.222 -0.40 +0.01    +0.066 A 
DOCKED: ATOM     21  C   UNL d   1      41.149  24.927  15.741 -0.41 -0.00    -0.025 A 
DOCKED: ATOM     22  C   UNL d   1      42.134  25.559  16.466 -0.36 -0.00    -0.021 A 
DOCKED: ATOM     23  C   UNL d   1      41.874  26.930  16.377 -0.32 +0.01    +0.066 A 
DOCKED: ATOM     24  C   UNL d   1      40.992  23.439  15.557 -0.53 +0.00    +0.051 C 
DOCKED: ATOM     25  N   UNL d   1      41.324  29.859  16.357 -0.22 -0.06    -0.248 N 
DOCKED: ATOM     26  N   UNL d   1      39.101  30.752  14.702 -0.19 -0.05    -0.248 N 
DOCKED: ATOM     27  N   UNL d   1      38.543  28.064  14.012 -0.21 -0.05    -0.248 N 
DOCKED: ATOM     28  N   UNL d   1      40.754  27.149  15.658 -0.25 -0.06    -0.248 N 
DOCKED: ATOM     29 FE   UNL d   1      39.932  28.936  15.182 -0.04 +0.00    +0.000 Fe
DOCKED: ATOM     30  O   UNL d   1      39.353  29.514  16.506 -0.67 +0.00    +0.000 OA
DOCKED: ATOM     31  O   UNL d   1      38.852  28.117  15.979 -0.86 +0.00    +0.000 OA
DOCKED: ENDROOT
DOCKED: BRANCH   6  32
DOCKED: ATOM     32  C   UNL d   1      44.180  30.043  18.731 -0.31 +0.02    +0.052 C 
DOCKED: BRANCH  32  33
DOCKED: ATOM     33  C   UNL d   1      44.606  28.581  18.833 -0.22 +0.06    +0.115 C 
DOCKED: BRANCH  33  34
DOCKED: ATOM     34  C   UNL d   1      44.623  28.085  20.258 -0.19 +0.14    +0.139 C 
DOCKED: ATOM     35  O   UNL d   1      43.583  28.043  20.895 -0.27 -0.93    -0.650 OA
DOCKED: BRANCH  34  36
DOCKED: ATOM     36  O   UNL d   1      45.772  27.711  20.858 -0.30 -1.11    -0.776 OA
DOCKED: ATOM     37  H   UNL d   1      46.128  26.819  20.769 +0.03 +0.18    +0.167 HD
DOCKED: ENDBRANCH  34  36
DOCKED: ENDBRANCH  33  34
DOCKED: ENDBRANCH  32  33
DOCKED: ENDBRANCH   6  32
DOCKED: BRANCH  22  38
DOCKED: ATOM     38  C   UNL d   1      43.224  24.874  17.250 -0.32 +0.01    +0.052 C 
DOCKED: BRANCH  38  39
DOCKED: ATOM     39  C   UNL d   1      42.886  24.757  18.735 -0.34 +0.04    +0.115 C 
DOCKED: BRANCH  39  40
DOCKED: ATOM     40  C   UNL d   1      44.062  24.297  19.559 -0.23 +0.06    +0.139 C 
DOCKED: ATOM     41  O   UNL d   1      44.352  23.112  19.592 -0.37 -0.29    -0.650 OA
DOCKED: BRANCH  40  42
DOCKED: ATOM     42  O   UNL d   1      44.835  25.178  20.223 +0.08 -0.48    -0.776 OA
DOCKED: ATOM     43  H   UNL d   1      44.464  25.977  20.617 +0.06 +0.14    +0.167 HD
DOCKED: ENDBRANCH  40  42
DOCKED: ENDBRANCH  39  40
DOCKED: ENDBRANCH  38  39
DOCKED: ENDBRANCH  22  38
DOCKED: BRANCH  12  44
DOCKED: ATOM     44  C   UNL d   1      37.023  33.258  12.776 -0.51 +0.00    +0.004 C 
DOCKED: ATOM     45  C   UNL d   1      35.763  32.989  12.436 -0.63 +0.00    +0.012 C 
DOCKED: ENDBRANCH  12  44
DOCKED: BRANCH  17  46
DOCKED: ATOM     46  C   UNL d   1      36.786  25.075  12.683 -0.66 +0.00    +0.004 C 
DOCKED: ATOM     47  C   UNL d   1      35.958  24.315  13.411 -0.72 +0.00    +0.012 C 
DOCKED: ENDBRANCH  17  46
DOCKED: TORSDOF 10
DOCKED: TER
DOCKED: ENDMDL
________________________________________________________________________________

DPF> analysis                             # perform a ranked cluster analysis


		CLUSTER ANALYSIS OF CONFORMATIONS
		_________________________________

Number of conformations = 100

RMSD cluster analysis will be performed using the ligand atoms only (47 / 47 total atoms).

Outputting structurally similar clusters, ranked in order of increasing energy.


________________________________________________________________________________

Number of distinct conformational clusters found = 17,  out of 100 runs,
Using an rmsd-tolerance of 2.0 A


	CLUSTERING HISTOGRAM
	____________________

________________________________________________________________________________
     |           |     |           |     |                                    
Clus | Lowest    | Run | Mean      | Num | Histogram                          
-ter | Binding   |     | Binding   | in  |                                    
Rank | Energy    |     | Energy    | Clus|    5    10   15   20   25   30   35
_____|___________|_____|___________|_____|____:____|____:____|____:____|____:___
   1 |    -16.61 |  53 |    -15.40 |  55 |#######################################################
   2 |    -14.81 |  22 |    -14.12 |  22 |######################
   3 |    -10.16 |  35 |    -10.16 |   1 |#
   4 |     -8.13 |  86 |     -7.18 |   6 |######
   5 |     -7.57 |  73 |     -7.57 |   1 |#
   6 |     -7.43 |  91 |     -7.43 |   1 |#
   7 |     -7.32 |  42 |     -7.32 |   1 |#
   8 |     -7.03 |  25 |     -7.03 |   1 |#
   9 |     -7.02 |  11 |     -6.82 |   2 |##
  10 |     -6.82 |  55 |     -6.82 |   1 |#
  11 |     -6.60 |   9 |     -6.60 |   1 |#
  12 |     -6.46 |  72 |     -6.09 |   2 |##
  13 |     -6.28 |  32 |     -6.02 |   2 |##
  14 |     -5.91 |  63 |     -5.91 |   1 |#
  15 |     -5.78 |  96 |     -5.78 |   1 |#
  16 |     -5.46 |  68 |     -5.46 |   1 |#
  17 |     -4.00 |  58 |     -4.00 |   1 |#
_____|___________|_____|___________|_____|______________________________________


Number of multi-member conformational clusters found = 6, out of 100 runs.

	RMSD TABLE
	__________

_____________________________________________________________________
     |      |      |           |         |                 |
Rank | Sub- | Run  | Binding   | Cluster | Reference       | Grep
     | Rank |      | Energy    | RMSD    | RMSD            | Pattern
_____|______|______|___________|_________|_________________|___________
   1      1     53      -16.61      0.00     33.44           RANKING
   1      2     99      -16.54      0.99     33.17           RANKING
   1      3     23      -16.50      0.51     33.32           RANKING
   1      4     98      -16.37      0.88     33.10           RANKING
   1      5     30      -16.08      0.73     33.32           RANKING
   1      6    100      -16.00      0.78     33.27           RANKING
   1      7     47      -16.00      0.77     33.33           RANKING
   1      8     39      -15.88      0.71     33.38           RANKING
   1      9     13      -15.75      0.74     33.36           RANKING
   1     10     90      -15.70      0.75     33.35           RANKING
   1     11     40      -15.70      0.88     33.15           RANKING
   1     12     34      -15.66      0.84     33.46           RANKING
   1     13     81      -15.64      0.78     33.30           RANKING
   1     14     21      -15.63      0.72     33.39           RANKING
   1     15      7      -15.63      0.60     33.42           RANKING
   1     16      4      -15.55      0.85     33.21           RANKING
   1     17      3      -15.52      1.09     33.07           RANKING
   1     18      5      -15.52      0.86     33.24           RANKING
   1     19     51      -15.45      0.61     33.42           RANKING
   1     20     67      -15.42      0.81     33.27           RANKING
   1     21     57      -15.41      0.61     33.33           RANKING
   1     22     45      -15.40      0.68     33.25           RANKING
   1     23     82      -15.39      0.96     33.16           RANKING
   1     24     79      -15.38      0.92     33.18           RANKING
   1     25     41      -15.38      0.63     33.23           RANKING
   1     26     59      -15.37      0.74     33.35           RANKING
   1     27     56      -15.37      1.01     33.10           RANKING
   1     28     37      -15.36      1.15     33.52           RANKING
   1     29     84      -15.35      1.13     33.54           RANKING
   1     30     36      -15.34      0.64     33.26           RANKING
   1     31     27      -15.34      0.79     33.18           RANKING
   1     32     71      -15.33      0.82     33.33           RANKING
   1     33     77      -15.32      0.92     33.38           RANKING
   1     34     80      -15.31      0.61     33.33           RANKING
   1     35     89      -15.31      0.89     33.26           RANKING
   1     36     62      -15.29      0.66     33.38           RANKING
   1     37     15      -15.25      1.01     33.06           RANKING
   1     38     74      -15.25      0.82     33.17           RANKING
   1     39     65      -15.22      0.95     33.27           RANKING
   1     40     60      -15.22      0.88     33.28           RANKING
   1     41      8      -15.12      0.82     33.21           RANKING
   1     42     33      -15.07      0.84     33.13           RANKING
   1     43     54      -15.07      0.93     33.14           RANKING
   1     44     28      -15.04      0.71     33.49           RANKING
   1     45     29      -15.02      0.82     33.23           RANKING
   1     46     44      -15.02      0.89     33.24           RANKING
   1     47     70      -15.01      0.85     33.41           RANKING
   1     48     19      -14.93      0.84     33.10           RANKING
   1     49     10      -14.88      1.07     33.22           RANKING
   1     50     17      -14.83      1.06     33.29           RANKING
   1     51     49      -14.81      0.93     33.10           RANKING
   1     52     48      -14.79      0.94     33.34           RANKING
   1     53     83      -14.73      1.12     33.30           RANKING
   1     54     50      -14.70      0.95     33.36           RANKING
   1     55     76      -14.32      1.16     33.10           RANKING
   2      1     22      -14.81      0.00      1.41           RANKING
   2      2     24      -14.67      1.03      1.72           RANKING
   2      3     43      -14.62      1.29      1.62           RANKING
   2      4     31      -14.56      1.22      1.14           RANKING
   2      5     26      -14.45      0.47      1.29           RANKING
   2      6      2      -14.40      0.66      1.15           RANKING
   2      7     93      -14.37      0.46      1.39           RANKING
   2      8     38      -14.36      0.45      1.40           RANKING
   2      9     46      -14.34      0.61      1.19           RANKING
   2     10     12      -14.33      0.68      1.13           RANKING
   2     11     92      -14.30      0.69      1.14           RANKING
   2     12     20      -14.29      0.64      1.44           RANKING
   2     13     75      -14.25      1.21      0.93           RANKING
   2     14     97      -14.23      0.71      1.11           RANKING
   2     15     88      -14.23      0.45      1.49           RANKING
   2     16     78      -14.22      0.68      1.17           RANKING
   2     17     14      -14.10      0.55      1.25           RANKING
   2     18     16      -14.06      0.75      1.06           RANKING
   2     19     64      -13.46      1.07      0.93           RANKING
   2     20     61      -12.98      1.50      0.98           RANKING
   2     21     95      -12.93      1.67      0.88           RANKING
   2     22     18      -12.74      1.54      0.90           RANKING
   3      1     35      -10.16      0.00     38.35           RANKING
   4      1     86       -8.13      0.00     23.78           RANKING
   4      2     69       -7.83      0.31     23.83           RANKING
   4      3     87       -7.66      1.55     24.36           RANKING
   4      4     52       -7.01      1.26     24.13           RANKING
   4      5      6       -6.80      1.40     24.27           RANKING
   4      6     66       -5.64      1.73     24.04           RANKING
   5      1     73       -7.57      0.00     21.70           RANKING
   6      1     91       -7.43      0.00     12.38           RANKING
   7      1     42       -7.32      0.00     27.91           RANKING
   8      1     25       -7.03      0.00     32.72           RANKING
   9      1     11       -7.02      0.00     27.96           RANKING
   9      2     85       -6.61      1.55     28.10           RANKING
  10      1     55       -6.82      0.00     13.58           RANKING
  11      1      9       -6.60      0.00     15.68           RANKING
  12      1     72       -6.46      0.00     17.20           RANKING
  12      2     94       -5.72      0.63     17.01           RANKING
  13      1     32       -6.28      0.00     23.94           RANKING
  13      2      1       -5.75      1.92     25.37           RANKING
  14      1     63       -5.91      0.00     36.07           RANKING
  15      1     96       -5.78      0.00     14.50           RANKING
  16      1     68       -5.46      0.00     31.01           RANKING
  17      1     58       -4.00      0.00     36.86           RANKING
_______________________________________________________________________



	INFORMATION ENTROPY ANALYSIS FOR THIS CLUSTERING
	________________________________________________


Information entropy for this clustering = 0.34  (rmstol = 2.00 Angstrom)

_______________________________________________________________________


	STATISTICAL MECHANICAL ANALYSIS
	_______________________________


Partition function, Q =   102.24            at Temperature, T = 298.15 K
Free energy,        A ~ -2741.62 kcal/mol   at Temperature, T = 298.15 K
Internal energy,    U =   -13.15 kcal/mol   at Temperature, T = 298.15 K
Entropy,            S =     9.15 kcal/mol/K at Temperature, T = 298.15 K

_______________________________________________________________________


	LOWEST ENERGY DOCKED CONFORMATION from EACH CLUSTER
	___________________________________________________



Keeping original residue number (specified in the input PDBQ file) for outputting.

MODEL       53
USER    Run = 53
USER    Cluster Rank = 1
USER    Number of conformations in this cluster = 55
USER  
USER    RMSD from reference structure       = 33.437 A
USER  
USER    Estimated Free Energy of Binding    =  -16.61 kcal/mol  [=(1)+(2)+(3)-(4)]
USER    Estimated Inhibition Constant, Ki   =  667.90 fM (femtomolar)  [Temperature = 298.15 K]
USER    
USER    (1) Final Intermolecular Energy     =  -19.59 kcal/mol
USER        vdW + Hbond + desolv Energy     =  -16.90 kcal/mol
USER        Electrostatic Energy            =   -2.70 kcal/mol
USER    (2) Final Total Internal Energy     =   -0.37 kcal/mol
USER    (3) Torsional Free Energy           =   +2.98 kcal/mol
USER    (4) Unbound System's Energy  [=(2)] =   -0.37 kcal/mol
USER    
USER    
USER  
USER    DPF = D:/Protein_go_brrr/autodock/final/6BB5/heme_O2/dock.dpf
USER    NEWDPF move	heme_O2_opt.pdbqt
USER    NEWDPF about	8.287000 34.468000 -0.670000
USER    NEWDPF tran0	41.175628 28.349675 15.727838
USER    NEWDPF axisangle0	0.305132 -0.367822 -0.878408 172.676132
USER    NEWDPF quaternion0	0.304509 -0.367071 -0.876615 0.063869
USER    NEWDPF dihe0	-21.96 -116.12 -3.67 -103.84 -107.23 -156.23 59.55 -14.13 -114.61 153.88 
USER  
USER                              x       y       z    vdW   Elec        q     RMS 
ATOM      1  C   UNL d   1      42.871  27.577  16.742 -0.27 +0.02    +0.064    33.437
ATOM      2  C   UNL d   1      41.033  31.946  16.431 -0.40 +0.01    +0.064    33.437
ATOM      3  C   UNL d   1      37.537  30.369  13.535 -0.37 +0.01    +0.064    33.437
ATOM      4  C   UNL d   1      39.139  25.785  14.232 -0.41 +0.01    +0.064    33.437
ATOM      5  C   UNL d   1      42.656  28.894  16.895 -0.27 +0.02    +0.066    33.437
ATOM      6  C   UNL d   1      43.473  29.738  17.652 -0.30 -0.01    -0.021    33.437
ATOM      7  C   UNL d   1      42.917  30.995  17.599 -0.35 -0.01    -0.025    33.437
ATOM      8  C   UNL d   1      41.803  30.894  16.770 -0.34 +0.01    +0.066    33.437
ATOM      9  C   UNL d   1      43.439  32.205  18.343 -0.41 +0.01    +0.051    33.437
ATOM     10  C   UNL d   1      39.866  31.906  15.549 -0.37 +0.01    +0.066    33.437
ATOM     11  C   UNL d   1      39.202  33.052  15.099 -0.42 -0.00    -0.021    33.437
ATOM     12  C   UNL d   1      38.202  32.620  14.248 -0.40 +0.00    +0.000    33.437
ATOM     13  C   UNL d   1      38.307  31.201  14.237 -0.36 +0.01    +0.070    33.437
ATOM     14  C   UNL d   1      39.525  34.501  15.445 -0.54 +0.00    +0.052    33.437
ATOM     15  C   UNL d   1      37.589  28.927  13.523 -0.37 +0.01    +0.066    33.437
ATOM     16  C   UNL d   1      36.651  28.108  12.896 -0.49 -0.00    -0.021    33.437
ATOM     17  C   UNL d   1      37.087  26.796  13.083 -0.46 +0.00    +0.000    33.437
ATOM     18  C   UNL d   1      38.275  26.915  13.817 -0.37 +0.01    +0.070    33.437
ATOM     19  C   UNL d   1      35.407  28.641  12.231 -0.63 +0.00    +0.052    33.437
ATOM     20  C   UNL d   1      40.262  25.861  14.973 -0.40 +0.01    +0.066    33.437
ATOM     21  C   UNL d   1      41.045  24.763  15.318 -0.43 -0.00    -0.025    33.437
ATOM     22  C   UNL d   1      42.127  25.257  16.010 -0.30 -0.00    -0.021    33.437
ATOM     23  C   UNL d   1      41.954  26.643  16.078 -0.34 +0.01    +0.066    33.437
ATOM     24  C   UNL d   1      40.772  23.314  15.005 -0.55 +0.01    +0.051    33.437
ATOM     25  N   UNL d   1      41.605  29.587  16.390 -0.21 -0.06    -0.248    33.437
ATOM     26  N   UNL d   1      39.320  30.775  15.034 -0.17 -0.05    -0.248    33.437
ATOM     27  N   UNL d   1      38.524  28.210  14.139 -0.20 -0.05    -0.248    33.437
ATOM     28  N   UNL d   1      40.796  27.001  15.485 -0.26 -0.05    -0.248    33.437
ATOM     29 FE   UNL d   1      40.061  28.873  15.260 -0.09 +0.00    +0.000    33.437
ATOM     30  O   UNL d   1      39.634  29.346  16.680 -0.67 +0.00    +0.000    33.437
ATOM     31  O   UNL d   1      38.997  28.042  16.067 -0.92 +0.00    +0.000    33.437
ATOM     32  C   UNL d   1      44.653  29.356  18.508 -0.26 +0.02    +0.052    33.437
ATOM     33  C   UNL d   1      44.523  27.960  19.108 -0.21 +0.07    +0.115    33.437
ATOM     34  C   UNL d   1      44.605  27.971  20.614 -0.08 +0.18    +0.139    33.437
ATOM     35  O   UNL d   1      43.583  27.880  21.275 -0.37 -1.14    -0.650    33.437
ATOM     36  O   UNL d   1      45.786  28.109  21.253 -0.27 -1.49    -0.776    33.437
ATOM     37  H   UNL d   1      46.625  27.901  20.826 +0.02 +0.19    +0.167    33.437
ATOM     38  C   UNL d   1      43.228  24.433  16.625 -0.28 +0.01    +0.052    33.437
ATOM     39  C   UNL d   1      43.094  24.321  18.142 -0.32 +0.03    +0.115    33.437
ATOM     40  C   UNL d   1      43.950  23.220  18.717 -0.24 +0.05    +0.139    33.437
ATOM     41  O   UNL d   1      44.476  22.409  17.971 +0.02 -0.24    -0.650    33.437
ATOM     42  O   UNL d   1      44.190  23.145  20.040 -0.46 -0.38    -0.776    33.437
ATOM     43  H   UNL d   1      45.074  23.282  20.402 +0.05 +0.08    +0.167    33.437
ATOM     44  C   UNL d   1      37.265  33.585  13.552 -0.49 +0.00    +0.004    33.437
ATOM     45  C   UNL d   1      36.366  33.315  12.606 -0.57 +0.00    +0.012    33.437
ATOM     46  C   UNL d   1      36.465  25.483  12.689 -0.64 +0.00    +0.004    33.437
ATOM     47  C   UNL d   1      35.933  24.546  13.484 -0.71 +0.00    +0.012    33.437
TER
ENDMDL
MODEL       22
USER    Run = 22
USER    Cluster Rank = 2
USER    Number of conformations in this cluster = 22
USER  
USER    RMSD from reference structure       = 1.411 A
USER  
USER    Estimated Free Energy of Binding    =  -14.81 kcal/mol  [=(1)+(2)+(3)-(4)]
USER    Estimated Inhibition Constant, Ki   =   14.04 pM (picomolar)  [Temperature = 298.15 K]
USER    
USER    (1) Final Intermolecular Energy     =  -17.79 kcal/mol
USER        vdW + Hbond + desolv Energy     =  -16.08 kcal/mol
USER        Electrostatic Energy            =   -1.71 kcal/mol
USER    (2) Final Total Internal Energy     =   -1.60 kcal/mol
USER    (3) Torsional Free Energy           =   +2.98 kcal/mol
USER    (4) Unbound System's Energy  [=(2)] =   -1.60 kcal/mol
USER    
USER    
USER  
USER    DPF = D:/Protein_go_brrr/autodock/final/6BB5/heme_O2/dock.dpf
USER    NEWDPF move	heme_O2_opt.pdbqt
USER    NEWDPF about	8.287000 34.468000 -0.670000
USER    NEWDPF tran0	8.244251 34.729883 -0.958806
USER    NEWDPF axisangle0	0.616566 0.627625 0.475324 4.368206
USER    NEWDPF quaternion0	0.023498 0.023919 0.018115 0.999274
USER    NEWDPF dihe0	37.32 125.12 -23.33 -64.46 126.05 -41.92 49.86 109.57 -118.37 -168.60 
USER  
USER                              x       y       z    vdW   Elec        q     RMS 
ATOM      1  C   UNL d   1       6.438  35.358  -1.876 -0.17 +0.01    +0.064     1.411
ATOM      2  C   UNL d   1       7.335  32.772   2.006 -0.38 +0.01    +0.064     1.411
ATOM      3  C   UNL d   1      12.069  33.122   1.258 -0.42 +0.00    +0.064     1.411
ATOM      4  C   UNL d   1      11.171  36.185  -2.468 -0.44 +0.00    +0.064     1.411
ATOM      5  C   UNL d   1       6.295  34.628  -0.758 -0.25 +0.01    +0.066     1.411
ATOM      6  C   UNL d   1       5.061  34.273  -0.207 -0.27 -0.00    -0.021     1.411
ATOM      7  C   UNL d   1       5.320  33.561   0.941 -0.35 -0.00    -0.025     1.411
ATOM      8  C   UNL d   1       6.705  33.459   1.033 -0.35 +0.01    +0.066     1.411
ATOM      9  C   UNL d   1       4.265  33.044   1.895 -0.39 +0.01    +0.051     1.411
ATOM     10  C   UNL d   1       8.783  32.611   2.142 -0.36 +0.00    +0.066     1.411
ATOM     11  C   UNL d   1       9.378  31.753   3.074 -0.44 -0.00    -0.021     1.411
ATOM     12  C   UNL d   1      10.742  31.827   2.862 -0.43 +0.00    +0.000     1.411
ATOM     13  C   UNL d   1      10.907  32.755   1.797 -0.36 +0.00    +0.070     1.411
ATOM     14  C   UNL d   1       8.673  30.880   4.105 -0.57 +0.00    +0.052     1.411
ATOM     15  C   UNL d   1      12.280  34.085   0.203 -0.36 +0.00    +0.066     1.411
ATOM     16  C   UNL d   1      13.531  34.548  -0.205 -0.44 -0.00    -0.021     1.411
ATOM     17  C   UNL d   1      13.300  35.423  -1.266 -0.46 +0.00    +0.000     1.411
ATOM     18  C   UNL d   1      11.907  35.427  -1.429 -0.39 +0.00    +0.070     1.411
ATOM     19  C   UNL d   1      14.816  34.161   0.482 -0.60 +0.00    +0.052     1.411
ATOM     20  C   UNL d   1       9.834  36.244  -2.625 -0.41 +0.00    +0.066     1.411
ATOM     21  C   UNL d   1       9.198  36.962  -3.635 -0.39 +0.00    -0.025     1.411
ATOM     22  C   UNL d   1       7.851  36.716  -3.498 -0.31 -0.00    -0.021     1.411
ATOM     23  C   UNL d   1       7.712  35.869  -2.394 -0.32 +0.01    +0.066     1.411
ATOM     24  C   UNL d   1       9.844  37.840  -4.675 -0.48 -0.01    +0.051     1.411
ATOM     25  N   UNL d   1       7.306  34.172   0.022 -0.19 -0.04    -0.248     1.411
ATOM     26  N   UNL d   1       9.710  33.231   1.368 -0.14 -0.02    -0.248     1.411
ATOM     27  N   UNL d   1      11.300  34.668  -0.481 -0.17 -0.03    -0.248     1.411
ATOM     28  N   UNL d   1       8.917  35.621  -1.840 -0.24 -0.04    -0.248     1.411
ATOM     29 FE   UNL d   1       9.313  34.435  -0.248 +0.01 +0.00    +0.000     1.411
ATOM     30  O   UNL d   1       8.745  35.175   0.998 -0.83 +0.00    +0.000     1.411
ATOM     31  O   UNL d   1       9.830  35.879   0.099 -1.09 +0.00    +0.000     1.411
ATOM     32  C   UNL d   1       3.690  34.701  -0.662 -0.23 +0.01    +0.052     1.411
ATOM     33  C   UNL d   1       3.664  36.125  -1.208 -0.15 +0.04    +0.115     1.411
ATOM     34  C   UNL d   1       2.532  36.941  -0.636 -0.15 +0.12    +0.139     1.411
ATOM     35  O   UNL d   1       1.534  36.377  -0.217 +0.06 -0.55    -0.650     1.411
ATOM     36  O   UNL d   1       2.585  38.288  -0.600 -0.48 -1.26    -0.776     1.411
ATOM     37  H   UNL d   1       2.976  38.803  -1.315 +0.03 +0.18    +0.167     1.411
ATOM     38  C   UNL d   1       6.758  37.317  -4.344 -0.23 +0.00    +0.052     1.411
ATOM     39  C   UNL d   1       6.625  38.824  -4.138 -0.20 +0.00    +0.115     1.411
ATOM     40  C   UNL d   1       6.035  39.172  -2.794 -0.27 +0.02    +0.139     1.411
ATOM     41  O   UNL d   1       6.762  39.566  -1.897 -0.07 -0.04    -0.650     1.411
ATOM     42  O   UNL d   1       4.707  39.106  -2.580 +0.05 -0.23    -0.776     1.411
ATOM     43  H   UNL d   1       4.340  38.614  -1.835 +0.05 +0.07    +0.167     1.411
ATOM     44  C   UNL d   1      11.728  31.022   3.684 -0.54 +0.00    +0.004     1.411
ATOM     45  C   UNL d   1      12.934  30.589   3.321 -0.65 +0.00    +0.012     1.411
ATOM     46  C   UNL d   1      14.247  36.271  -2.072 -0.63 +0.00    +0.004     1.411
ATOM     47  C   UNL d   1      14.908  37.370  -1.686 -0.67 +0.00    +0.012     1.411
TER
ENDMDL
MODEL       35
USER    Run = 35
USER    Cluster Rank = 3
USER    Number of conformations in this cluster = 1
USER  
USER    RMSD from reference structure       = 38.353 A
USER  
USER    Estimated Free Energy of Binding    =  -10.16 kcal/mol  [=(1)+(2)+(3)-(4)]
USER    Estimated Inhibition Constant, Ki   =   35.76 nM (nanomolar)  [Temperature = 298.15 K]
USER    
USER    (1) Final Intermolecular Energy     =  -13.14 kcal/mol
USER        vdW + Hbond + desolv Energy     =   -9.12 kcal/mol
USER        Electrostatic Energy            =   -4.02 kcal/mol
USER    (2) Final Total Internal Energy     =   -0.77 kcal/mol
USER    (3) Torsional Free Energy           =   +2.98 kcal/mol
USER    (4) Unbound System's Energy  [=(2)] =   -0.77 kcal/mol
USER    
USER    
USER  
USER    DPF = D:/Protein_go_brrr/autodock/final/6BB5/heme_O2/dock.dpf
USER    NEWDPF move	heme_O2_opt.pdbqt
USER    NEWDPF about	8.287000 34.468000 -0.670000
USER    NEWDPF tran0	44.532241 22.045469 18.043431
USER    NEWDPF axisangle0	-0.250222 -0.965955 0.065728 151.237644
USER    NEWDPF quaternion0	-0.242381 -0.935686 0.063668 0.248372
USER    NEWDPF dihe0	-24.05 -37.37 -110.33 3.47 62.40 -41.20 151.88 68.34 -161.24 -22.12 
USER  
USER                              x       y       z    vdW   Elec        q     RMS 
ATOM      1  C   UNL d   1      45.897  21.974  19.666 -0.06 +0.03    +0.064    38.353
ATOM      2  C   UNL d   1      45.290  19.198  15.860 -0.13 +0.03    +0.064    38.353
ATOM      3  C   UNL d   1      41.599  21.890  14.370 -0.19 +0.00    +0.064    38.353
ATOM      4  C   UNL d   1      42.517  25.029  18.026 -0.32 +0.02    +0.064    38.353
ATOM      5  C   UNL d   1      46.034  21.001  18.752 -0.09 +0.03    +0.066    38.353
ATOM      6  C   UNL d   1      46.990  19.983  18.829 -0.12 -0.01    -0.021    38.353
ATOM      7  C   UNL d   1      46.843  19.204  17.706 -0.11 -0.01    -0.025    38.353
ATOM      8  C   UNL d   1      45.771  19.738  16.997 -0.15 +0.03    +0.066    38.353
ATOM      9  C   UNL d   1      47.727  18.029  17.346 -0.05 +0.03    +0.051    38.353
ATOM     10  C   UNL d   1      44.155  19.700  15.086 -0.19 +0.02    +0.066    38.353
ATOM     11  C   UNL d   1      43.595  19.009  14.005 -0.21 -0.01    -0.021    38.353
ATOM     12  C   UNL d   1      42.518  19.761  13.573 -0.39 +0.00    +0.000    38.353
ATOM     13  C   UNL d   1      42.488  20.899  14.425 -0.30 +0.01    +0.070    38.353
ATOM     14  C   UNL d   1      44.051  17.675  13.427 -0.11 +0.01    +0.052    38.353
ATOM     15  C   UNL d   1      41.556  23.076  15.191 -0.40 +0.01    +0.066    38.353
ATOM     16  C   UNL d   1      40.699  24.155  14.977 -0.50 -0.00    -0.021    38.353
ATOM     17  C   UNL d   1      40.944  25.063  16.007 -0.38 +0.00    +0.000    38.353
ATOM     18  C   UNL d   1      41.943  24.461  16.784 -0.35 +0.01    +0.070    38.353
ATOM     19  C   UNL d   1      39.774  24.247  13.790 -0.57 +0.01    +0.052    38.353
ATOM     20  C   UNL d   1      43.506  24.498  18.771 -0.27 +0.02    +0.066    38.353
ATOM     21  C   UNL d   1      43.994  25.071  19.943 -0.25 -0.01    -0.025    38.353
ATOM     22  C   UNL d   1      44.939  24.201  20.438 -0.18 -0.01    -0.021    38.353
ATOM     23  C   UNL d   1      45.006  23.134  19.538 -0.15 +0.03    +0.066    38.353
ATOM     24  C   UNL d   1      43.582  26.384  20.556 -0.27 +0.04    +0.051    38.353
ATOM     25  N   UNL d   1      45.315  20.883  17.608 -0.11 -0.11    -0.248    38.353
ATOM     26  N   UNL d   1      43.490  20.856  15.340 -0.14 -0.06    -0.248    38.353
ATOM     27  N   UNL d   1      42.355  23.291  16.232 -0.23 -0.04    -0.248    38.353
ATOM     28  N   UNL d   1      44.166  23.340  18.503 -0.14 -0.09    -0.248    38.353
ATOM     29 FE   UNL d   1      43.829  22.109  16.932 -0.07 +0.00    +0.000    38.353
ATOM     30  O   UNL d   1      45.120  22.149  16.063 +0.10 +0.00    +0.000    38.353
ATOM     31  O   UNL d   1      44.334  23.482  16.355 -0.15 +0.00    +0.000    38.353
ATOM     32  C   UNL d   1      48.089  19.825  19.847 -0.06 +0.02    +0.052    38.353
ATOM     33  C   UNL d   1      49.271  20.756  19.591 -0.03 +0.06    +0.115    38.353
ATOM     34  C   UNL d   1      49.457  21.060  18.125 -0.03 +0.16    +0.139    38.353
ATOM     35  O   UNL d   1      50.152  20.326  17.441 -0.23 -0.98    -0.650    38.353
ATOM     36  O   UNL d   1      48.894  22.145  17.555 -0.19 -1.35    -0.776    38.353
ATOM     37  H   UNL d   1      48.113  22.570  17.927 +0.02 +0.18    +0.167    38.353
ATOM     38  C   UNL d   1      45.773  24.420  21.674 -0.13 +0.04    +0.052    38.353
ATOM     39  C   UNL d   1      45.008  24.099  22.957 -0.18 +0.08    +0.115    38.353
ATOM     40  C   UNL d   1      44.745  25.327  23.793 +0.03 +0.21    +0.139    38.353
ATOM     41  O   UNL d   1      43.632  25.828  23.801 -0.15 -1.15    -0.650    38.353
ATOM     42  O   UNL d   1      45.706  25.854  24.576 -0.03 -1.42    -0.776    38.353
ATOM     43  H   UNL d   1      46.356  25.297  25.022 +0.02 +0.16    +0.167    38.353
ATOM     44  C   UNL d   1      41.648  19.325  12.412 -0.40 +0.00    +0.004    38.353
ATOM     45  C   UNL d   1      40.853  18.259  12.340 -0.42 +0.00    +0.012    38.353
ATOM     46  C   UNL d   1      40.373  26.430  16.275 -0.40 +0.00    +0.004    38.353
ATOM     47  C   UNL d   1      39.511  27.130  15.526 -0.45 +0.00    +0.012    38.353
TER
ENDMDL
MODEL       86
USER    Run = 86
USER    Cluster Rank = 4
USER    Number of conformations in this cluster = 6
USER  
USER    RMSD from reference structure       = 23.783 A
USER  
USER    Estimated Free Energy of Binding    =   -8.13 kcal/mol  [=(1)+(2)+(3)-(4)]
USER    Estimated Inhibition Constant, Ki   =    1.09 uM (micromolar)  [Temperature = 298.15 K]
USER    
USER    (1) Final Intermolecular Energy     =  -11.12 kcal/mol
USER        vdW + Hbond + desolv Energy     =   -9.98 kcal/mol
USER        Electrostatic Energy            =   -1.14 kcal/mol
USER    (2) Final Total Internal Energy     =   -0.54 kcal/mol
USER    (3) Torsional Free Energy           =   +2.98 kcal/mol
USER    (4) Unbound System's Energy  [=(2)] =   -0.54 kcal/mol
USER    
USER    
USER  
USER    DPF = D:/Protein_go_brrr/autodock/final/6BB5/heme_O2/dock.dpf
USER    NEWDPF move	heme_O2_opt.pdbqt
USER    NEWDPF about	8.287000 34.468000 -0.670000
USER    NEWDPF tran0	11.493417 38.940136 24.433340
USER    NEWDPF axisangle0	0.133455 -0.445940 -0.885058 54.565537
USER    NEWDPF quaternion0	0.061174 -0.204411 -0.405695 0.888755
USER    NEWDPF dihe0	-60.38 115.05 -61.27 50.83 -120.10 143.69 49.61 -65.98 153.20 -177.90 
USER  
USER                              x       y       z    vdW   Elec        q     RMS 
ATOM      1  C   UNL d   1       9.695  37.818  24.513 -0.25 -0.01    +0.064    23.783
ATOM      2  C   UNL d   1      13.583  37.845  27.241 -0.24 -0.02    +0.064    23.783
ATOM      3  C   UNL d   1      15.612  41.211  24.477 -0.35 -0.02    +0.064    23.783
ATOM      4  C   UNL d   1      11.425  41.537  21.941 +0.06 -0.01    +0.064    23.783
ATOM      5  C   UNL d   1      10.586  37.552  25.482 -0.25 -0.02    +0.066    23.783
ATOM      6  C   UNL d   1      10.389  36.601  26.487 -0.27 +0.01    -0.021    23.783
ATOM      7  C   UNL d   1      11.495  36.639  27.303 -0.21 +0.01    -0.025    23.783
ATOM      8  C   UNL d   1      12.359  37.577  26.745 -0.26 -0.03    +0.066    23.783
ATOM      9  C   UNL d   1      11.668  35.822  28.565 -0.03 -0.03    +0.051    23.783
ATOM     10  C   UNL d   1      14.542  38.801  26.687 -0.25 -0.02    +0.066    23.783
ATOM     11  C   UNL d   1      15.859  38.922  27.143 -0.26 +0.00    -0.021    23.783
ATOM     12  C   UNL d   1      16.466  39.875  26.347 -0.30 -0.00    +0.000    23.783
ATOM     13  C   UNL d   1      15.459  40.300  25.437 -0.29 -0.02    +0.070    23.783
ATOM     14  C   UNL d   1      16.519  38.141  28.274 -0.28 -0.00    +0.052    23.783
ATOM     15  C   UNL d   1      14.609  41.695  23.559 -0.28 -0.02    +0.066    23.783
ATOM     16  C   UNL d   1      14.787  42.767  22.685 -0.34 +0.00    -0.021    23.783
ATOM     17  C   UNL d   1      13.606  42.879  21.952 -0.32 -0.00    +0.000    23.783
ATOM     18  C   UNL d   1      12.785  41.852  22.439 -0.25 -0.01    +0.070    23.783
ATOM     19  C   UNL d   1      16.035  43.614  22.666 -0.34 -0.01    +0.052    23.783
ATOM     20  C   UNL d   1      10.595  40.588  22.414 -0.20 -0.01    +0.066    23.783
ATOM     21  C   UNL d   1       9.331  40.325  21.892 -0.20 +0.00    -0.025    23.783
ATOM     22  C   UNL d   1       8.834  39.251  22.595 -0.23 +0.00    -0.021    23.783
ATOM     23  C   UNL d   1       9.810  38.907  23.536 -0.24 -0.01    +0.066    23.783
ATOM     24  C   UNL d   1       8.632  41.065  20.781 -0.22 -0.00    +0.051    23.783
ATOM     25  N   UNL d   1      11.771  38.186  25.661 -0.16 +0.10    -0.248    23.783
ATOM     26  N   UNL d   1      14.290  39.645  25.655 -0.12 +0.09    -0.248    23.783
ATOM     27  N   UNL d   1      13.381  41.192  23.465 -0.13 +0.07    -0.248    23.783
ATOM     28  N   UNL d   1      10.859  39.751  23.452 -0.10 +0.06    -0.248    23.783
ATOM     29 FE   UNL d   1      12.563  39.701  24.544 -0.04 -0.00    +0.000    23.783
ATOM     30  O   UNL d   1      12.167  40.126  25.988 -0.16 -0.00    +0.000    23.783
ATOM     31  O   UNL d   1      11.890  41.102  24.783 -0.17 -0.00    +0.000    23.783
ATOM     32  C   UNL d   1       9.151  35.785  26.755 -0.27 -0.00    +0.052    23.783
ATOM     33  C   UNL d   1       8.610  35.975  28.169 -0.15 +0.02    +0.115    23.783
ATOM     34  C   UNL d   1       8.290  34.665  28.844 +0.04 +0.11    +0.139    23.783
ATOM     35  O   UNL d   1       9.156  34.087  29.482 -0.54 -0.71    -0.650    23.783
ATOM     36  O   UNL d   1       7.071  34.097  28.736 -0.10 -0.60    -0.776    23.783
ATOM     37  H   UNL d   1       6.271  34.543  29.039 +0.02 +0.06    +0.167    23.783
ATOM     38  C   UNL d   1       7.471  38.635  22.411 -0.29 -0.01    +0.052    23.783
ATOM     39  C   UNL d   1       6.362  39.481  23.032 -0.14 -0.01    +0.115    23.783
ATOM     40  C   UNL d   1       5.439  40.072  21.996 -0.15 +0.00    +0.139    23.783
ATOM     41  O   UNL d   1       5.832  40.978  21.280 -0.43 -0.10    -0.650    23.783
ATOM     42  O   UNL d   1       4.198  39.581  21.810 -0.00 -0.01    -0.776    23.783
ATOM     43  H   UNL d   1       3.414  40.123  21.960 +0.03 -0.00    +0.167    23.783
ATOM     44  C   UNL d   1      17.915  40.276  26.534 -0.32 -0.00    +0.004    23.783
ATOM     45  C   UNL d   1      18.931  40.089  25.694 -0.43 -0.00    +0.012    23.783
ATOM     46  C   UNL d   1      13.182  43.877  20.908 -0.26 -0.00    +0.004    23.783
ATOM     47  C   UNL d   1      13.895  44.354  19.880 -0.28 -0.00    +0.012    23.783
TER
ENDMDL
MODEL       73
USER    Run = 73
USER    Cluster Rank = 5
USER    Number of conformations in this cluster = 1
USER  
USER    RMSD from reference structure       = 21.704 A
USER  
USER    Estimated Free Energy of Binding    =   -7.57 kcal/mol  [=(1)+(2)+(3)-(4)]
USER    Estimated Inhibition Constant, Ki   =    2.83 uM (micromolar)  [Temperature = 298.15 K]
USER    
USER    (1) Final Intermolecular Energy     =  -10.55 kcal/mol
USER        vdW + Hbond + desolv Energy     =   -8.14 kcal/mol
USER        Electrostatic Energy            =   -2.42 kcal/mol
USER    (2) Final Total Internal Energy     =   -0.56 kcal/mol
USER    (3) Torsional Free Energy           =   +2.98 kcal/mol
USER    (4) Unbound System's Energy  [=(2)] =   -0.56 kcal/mol
USER    
USER    
USER  
USER    DPF = D:/Protein_go_brrr/autodock/final/6BB5/heme_O2/dock.dpf
USER    NEWDPF move	heme_O2_opt.pdbqt
USER    NEWDPF about	8.287000 34.468000 -0.670000
USER    NEWDPF tran0	21.553658 15.941482 11.785759
USER    NEWDPF axisangle0	-0.424246 -0.522625 -0.739512 57.898641
USER    NEWDPF quaternion0	-0.205350 -0.252969 -0.357950 0.875048
USER    NEWDPF dihe0	49.77 -78.72 121.65 -120.30 10.32 177.86 -126.97 54.46 173.98 -56.26 
USER  
USER                              x       y       z    vdW   Elec        q     RMS 
ATOM      1  C   UNL d   1      19.616  15.115  12.034 -0.08 +0.03    +0.064    21.704
ATOM      2  C   UNL d   1      23.950  13.514  13.133 -0.03 +0.01    +0.064    21.704
ATOM      3  C   UNL d   1      25.976  17.470  11.303 -0.22 +0.02    +0.064    21.704
ATOM      4  C   UNL d   1      21.495  19.340  10.600 -0.14 +0.01    +0.064    21.704
ATOM      5  C   UNL d   1      20.629  14.358  12.484 -0.04 +0.03    +0.066    21.704
ATOM      6  C   UNL d   1      20.466  13.100  13.072 -0.02 -0.01    -0.021    21.704
ATOM      7  C   UNL d   1      21.717  12.655  13.430 -0.01 -0.01    -0.025    21.704
ATOM      8  C   UNL d   1      22.615  13.631  13.006 -0.02 +0.02    +0.066    21.704
ATOM      9  C   UNL d   1      21.998  11.364  14.168 +0.00 +0.01    +0.051    21.704
ATOM     10  C   UNL d   1      24.943  14.494  12.688 -0.07 +0.02    +0.066    21.704
ATOM     11  C   UNL d   1      26.321  14.251  12.694 -0.11 -0.01    -0.021    21.704
ATOM     12  C   UNL d   1      26.921  15.373  12.153 -0.21 +0.00    +0.000    21.704
ATOM     13  C   UNL d   1      25.852  16.262  11.852 -0.05 +0.02    +0.070    21.704
ATOM     14  C   UNL d   1      27.033  12.990  13.170 -0.06 +0.01    +0.052    21.704
ATOM     15  C   UNL d   1      24.923  18.414  11.015 -0.21 +0.01    +0.066    21.704
ATOM     16  C   UNL d   1      25.131  19.726  10.592 -0.34 -0.00    -0.021    21.704
ATOM     17  C   UNL d   1      23.868  20.280  10.386 -0.26 +0.00    +0.000    21.704
ATOM     18  C   UNL d   1      22.971  19.249  10.701 -0.14 +0.01    +0.070    21.704
ATOM     19  C   UNL d   1      26.502  20.345  10.477 -0.47 +0.01    +0.052    21.704
ATOM     20  C   UNL d   1      20.605  18.386  10.935 -0.14 +0.02    +0.066    21.704
ATOM     21  C   UNL d   1      19.226  18.524  10.802 -0.20 -0.01    -0.025    21.704
ATOM     22  C   UNL d   1      18.676  17.320  11.180 -0.18 -0.01    -0.021    21.704
ATOM     23  C   UNL d   1      19.743  16.495  11.549 -0.11 +0.03    +0.066    21.704
ATOM     24  C   UNL d   1      18.472  19.744  10.340 -0.25 +0.01    +0.051    21.704
ATOM     25  N   UNL d   1      21.939  14.709  12.483 -0.01 -0.08    -0.248    21.704
ATOM     26  N   UNL d   1      24.652  15.721  12.185 -0.07 -0.06    -0.248    21.704
ATOM     27  N   UNL d   1      23.627  18.149  11.152 -0.08 -0.05    -0.248    21.704
ATOM     28  N   UNL d   1      20.910  17.162  11.442 -0.05 -0.09    -0.248    21.704
ATOM     29 FE   UNL d   1      22.769  16.449  11.810 -0.02 +0.00    +0.000    21.704
ATOM     30  O   UNL d   1      22.865  16.263  13.352 -0.15 +0.00    +0.000    21.704
ATOM     31  O   UNL d   1      22.541  17.685  12.756 -0.21 +0.00    +0.000    21.704
ATOM     32  C   UNL d   1      19.175  12.401  13.411 -0.04 +0.02    +0.052    21.704
ATOM     33  C   UNL d   1      18.831  12.481  14.896 -0.07 +0.04    +0.115    21.704
ATOM     34  C   UNL d   1      18.893  13.892  15.425 -0.13 +0.11    +0.139    21.704
ATOM     35  O   UNL d   1      19.353  14.099  16.537 -0.03 -0.57    -0.650    21.704
ATOM     36  O   UNL d   1      18.425  14.934  14.708 -0.45 -1.08    -0.776    21.704
ATOM     37  H   UNL d   1      17.546  14.927  14.312 -0.54 +0.11    +0.167    21.704
ATOM     38  C   UNL d   1      17.203  17.008  11.242 -0.27 +0.04    +0.052    21.704
ATOM     39  C   UNL d   1      16.454  17.486  10.000 -0.20 +0.07    +0.115    21.704
ATOM     40  C   UNL d   1      15.272  18.359  10.340 -0.33 +0.10    +0.139    21.704
ATOM     41  O   UNL d   1      14.592  18.103  11.321 -0.55 -0.95    -0.650    21.704
ATOM     42  O   UNL d   1      14.979  19.451   9.608 +0.10 -0.24    -0.776    21.704
ATOM     43  H   UNL d   1      15.489  20.265   9.691 -0.33 -0.02    +0.167    21.704
ATOM     44  C   UNL d   1      28.422  15.480  11.986 -0.30 +0.00    +0.004    21.704
ATOM     45  C   UNL d   1      29.354  15.473  12.939 -0.33 +0.00    +0.012    21.704
ATOM     46  C   UNL d   1      23.451  21.670   9.987 -0.30 +0.00    +0.004    21.704
ATOM     47  C   UNL d   1      22.580  22.482  10.600 -0.40 +0.00    +0.012    21.704
TER
ENDMDL
MODEL       91
USER    Run = 91
USER    Cluster Rank = 6
USER    Number of conformations in this cluster = 1
USER  
USER    RMSD from reference structure       = 12.376 A
USER  
USER    Estimated Free Energy of Binding    =   -7.43 kcal/mol  [=(1)+(2)+(3)-(4)]
USER    Estimated Inhibition Constant, Ki   =    3.55 uM (micromolar)  [Temperature = 298.15 K]
USER    
USER    (1) Final Intermolecular Energy     =  -10.42 kcal/mol
USER        vdW + Hbond + desolv Energy     =   -8.60 kcal/mol
USER        Electrostatic Energy            =   -1.82 kcal/mol
USER    (2) Final Total Internal Energy     =   +0.05 kcal/mol
USER    (3) Torsional Free Energy           =   +2.98 kcal/mol
USER    (4) Unbound System's Energy  [=(2)] =   +0.05 kcal/mol
USER    
USER    
USER  
USER    DPF = D:/Protein_go_brrr/autodock/final/6BB5/heme_O2/dock.dpf
USER    NEWDPF move	heme_O2_opt.pdbqt
USER    NEWDPF about	8.287000 34.468000 -0.670000
USER    NEWDPF tran0	22.007472 37.091142 -8.819380
USER    NEWDPF axisangle0	-0.129627 0.641808 -0.755830 53.490779
USER    NEWDPF quaternion0	-0.058336 0.288831 -0.340144 0.893015
USER    NEWDPF dihe0	-51.11 -86.64 -26.30 -93.57 -177.94 -14.23 -70.58 64.86 161.79 -125.98 
USER  
USER                              x       y       z    vdW   Elec        q     RMS 
ATOM      1  C   UNL d   1      20.877  36.717 -10.575 -0.10 +0.03    +0.064    12.376
ATOM      2  C   UNL d   1      21.568  34.199  -6.607 -0.16 -0.01    +0.064    12.376
ATOM      3  C   UNL d   1      24.476  37.597  -4.847 -0.22 +0.00    +0.064    12.376
ATOM      4  C   UNL d   1      23.394  40.412  -8.717 -0.06 +0.01    +0.064    12.376
ATOM      5  C   UNL d   1      20.826  35.756  -9.639 -0.10 +0.02    +0.066    12.376
ATOM      6  C   UNL d   1      20.100  34.569  -9.774 -0.13 -0.00    -0.021    12.376
ATOM      7  C   UNL d   1      20.264  33.859  -8.608 -0.19 +0.00    -0.025    12.376
ATOM      8  C   UNL d   1      21.125  34.609  -7.812 -0.12 +0.00    +0.066    12.376
ATOM      9  C   UNL d   1      19.588  32.542  -8.294 -0.26 -0.01    +0.051    12.376
ATOM     10  C   UNL d   1      22.489  34.932  -5.737 -0.19 -0.01    +0.066    12.376
ATOM     11  C   UNL d   1      23.044  34.389  -4.573 -0.28 +0.00    -0.021    12.376
ATOM     12  C   UNL d   1      23.899  35.347  -4.061 -0.27 -0.00    +0.000    12.376
ATOM     13  C   UNL d   1      23.806  36.449  -4.955 -0.20 -0.00    +0.070    12.376
ATOM     14  C   UNL d   1      22.790  33.004  -3.989 -0.37 -0.03    +0.052    12.376
ATOM     15  C   UNL d   1      24.383  38.749  -5.711 -0.17 +0.01    +0.066    12.376
ATOM     16  C   UNL d   1      24.985  39.980  -5.453 -0.19 -0.00    -0.021    12.376
ATOM     17  C   UNL d   1      24.690  40.800  -6.543 -0.13 +0.00    +0.000    12.376
ATOM     18  C   UNL d   1      23.921  39.995  -7.396 -0.10 +0.01    +0.070    12.376
ATOM     19  C   UNL d   1      25.734  40.279  -4.178 -0.19 +0.01    +0.052    12.376
ATOM     20  C   UNL d   1      22.618  39.681  -9.540 -0.08 +0.02    +0.066    12.376
ATOM     21  C   UNL d   1      22.166  40.121 -10.781 -0.09 -0.01    -0.025    12.376
ATOM     22  C   UNL d   1      21.470  39.071 -11.337 -0.11 -0.01    -0.021    12.376
ATOM     23  C   UNL d   1      21.507  38.031 -10.403 -0.11 +0.03    +0.066    12.376
ATOM     24  C   UNL d   1      22.385  41.475 -11.404 -0.05 +0.01    +0.051    12.376
ATOM     25  N   UNL d   1      21.419  35.808  -8.420 -0.04 -0.04    -0.248    12.376
ATOM     26  N   UNL d   1      22.942  36.190  -5.969 -0.10 +0.00    -0.248    12.376
ATOM     27  N   UNL d   1      23.682  38.780  -6.841 -0.09 -0.03    -0.248    12.376
ATOM     28  N   UNL d   1      22.168  38.422  -9.293 -0.06 -0.08    -0.248    12.376
ATOM     29 FE   UNL d   1      22.554  37.317  -7.642 -0.03 +0.00    +0.000    12.376
ATOM     30  O   UNL d   1      21.188  37.121  -6.921 -0.27 +0.00    +0.000    12.376
ATOM     31  O   UNL d   1      21.731  38.576  -7.185 -0.28 +0.00    +0.000    12.376
ATOM     32  C   UNL d   1      19.175  34.176 -10.896 -0.16 +0.01    +0.052    12.376
ATOM     33  C   UNL d   1      17.721  34.052 -10.450 -0.10 +0.01    +0.115    12.376
ATOM     34  C   UNL d   1      16.866  35.188 -10.954 -0.26 +0.08    +0.139    12.376
ATOM     35  O   UNL d   1      17.134  35.718 -12.021 -0.48 -0.59    -0.650    12.376
ATOM     36  O   UNL d   1      15.823  35.655 -10.237 -0.36 -0.39    -0.776    12.376
ATOM     37  H   UNL d   1      15.144  35.070  -9.883 -0.39 -0.02    +0.167    12.376
ATOM     38  C   UNL d   1      20.757  39.095 -12.664 -0.10 +0.03    +0.052    12.376
ATOM     39  C   UNL d   1      20.370  40.509 -13.092 -0.09 +0.06    +0.115    12.376
ATOM     40  C   UNL d   1      18.876  40.694 -13.183 -0.03 +0.11    +0.139    12.376
ATOM     41  O   UNL d   1      18.349  41.650 -12.636 -0.62 -0.48    -0.650    12.376
ATOM     42  O   UNL d   1      18.112  39.850 -13.903 -0.50 -0.63    -0.776    12.376
ATOM     43  H   UNL d   1      17.997  39.960 -14.854 +0.01 +0.07    +0.167    12.376
ATOM     44  C   UNL d   1      24.698  35.117  -2.795 -0.32 -0.00    +0.004    12.376
ATOM     45  C   UNL d   1      25.893  35.614  -2.479 -0.24 -0.00    +0.012    12.376
ATOM     46  C   UNL d   1      25.013  42.246  -6.808 -0.09 +0.00    +0.004    12.376
ATOM     47  C   UNL d   1      24.216  43.313  -6.666 -0.10 +0.00    +0.012    12.376
TER
ENDMDL
MODEL       42
USER    Run = 42
USER    Cluster Rank = 7
USER    Number of conformations in this cluster = 1
USER  
USER    RMSD from reference structure       = 27.907 A
USER  
USER    Estimated Free Energy of Binding    =   -7.32 kcal/mol  [=(1)+(2)+(3)-(4)]
USER    Estimated Inhibition Constant, Ki   =    4.32 uM (micromolar)  [Temperature = 298.15 K]
USER    
USER    (1) Final Intermolecular Energy     =  -10.30 kcal/mol
USER        vdW + Hbond + desolv Energy     =   -7.73 kcal/mol
USER        Electrostatic Energy            =   -2.58 kcal/mol
USER    (2) Final Total Internal Energy     =   -1.28 kcal/mol
USER    (3) Torsional Free Energy           =   +2.98 kcal/mol
USER    (4) Unbound System's Energy  [=(2)] =   -1.28 kcal/mol
USER    
USER    
USER  
USER    DPF = D:/Protein_go_brrr/autodock/final/6BB5/heme_O2/dock.dpf
USER    NEWDPF move	heme_O2_opt.pdbqt
USER    NEWDPF about	8.287000 34.468000 -0.670000
USER    NEWDPF tran0	23.148124 18.401355 22.741775
USER    NEWDPF axisangle0	-0.418412 -0.795963 -0.437463 -120.144468
USER    NEWDPF quaternion0	-0.362619 -0.689826 -0.379129 -0.498908
USER    NEWDPF dihe0	-92.81 2.23 110.12 -105.11 15.21 28.70 64.97 94.36 -36.07 -151.55 
USER  
USER                              x       y       z    vdW   Elec        q     RMS 
ATOM      1  C   UNL d   1      24.455  17.736  21.209 -0.10 +0.02    +0.064    27.907
ATOM      2  C   UNL d   1      20.246  19.934  21.106 -0.33 -0.02    +0.064    27.907
ATOM      3  C   UNL d   1      20.013  19.914  25.906 -0.14 -0.02    +0.064    27.907
ATOM      4  C   UNL d   1      24.563  18.083  26.037 -0.05 -0.00    +0.064    27.907
ATOM      5  C   UNL d   1      23.330  18.337  20.789 -0.16 +0.01    +0.066    27.907
ATOM      6  C   UNL d   1      22.997  18.523  19.445 -0.26 -0.00    -0.021    27.907
ATOM      7  C   UNL d   1      21.799  19.198  19.414 -0.32 +0.00    -0.025    27.907
ATOM      8  C   UNL d   1      21.410  19.363  20.740 -0.27 -0.01    +0.066    27.907
ATOM      9  C   UNL d   1      21.105  19.673  18.156 -0.29 -0.01    +0.051    27.907
ATOM     10  C   UNL d   1      19.773  20.114  22.479 -0.29 -0.01    +0.066    27.907
ATOM     11  C   UNL d   1      18.486  20.563  22.797 -0.37 +0.00    -0.021    27.907
ATOM     12  C   UNL d   1      18.394  20.547  24.177 -0.25 -0.00    +0.000    27.907
ATOM     13  C   UNL d   1      19.662  20.091  24.632 -0.07 -0.01    +0.070    27.907
ATOM     14  C   UNL d   1      17.383  20.964  21.825 -0.22 -0.01    +0.052    27.907
ATOM     15  C   UNL d   1      21.297  19.487  26.409 -0.09 -0.01    +0.066    27.907
ATOM     16  C   UNL d   1      21.654  19.480  27.757 -0.05 +0.00    -0.021    27.907
ATOM     17  C   UNL d   1      22.948  18.962  27.819 -0.04 -0.00    +0.000    27.907
ATOM     18  C   UNL d   1      23.286  18.687  26.486 -0.05 -0.01    +0.070    27.907
ATOM     19  C   UNL d   1      20.760  20.013  28.848 -0.04 -0.01    +0.052    27.907
ATOM     20  C   UNL d   1      24.937  17.846  24.765 -0.06 +0.00    +0.066    27.907
ATOM     21  C   UNL d   1      26.145  17.257  24.403 -0.06 -0.00    -0.025    27.907
ATOM     22  C   UNL d   1      26.120  17.126  23.033 -0.09 -0.01    -0.021    27.907
ATOM     23  C   UNL d   1      24.900  17.658  22.606 -0.06 +0.01    +0.066    27.907
ATOM     24  C   UNL d   1      27.269  16.845  25.319 -0.07 +0.00    +0.051    27.907
ATOM     25  N   UNL d   1      22.385  18.890  21.588 -0.11 +0.01    -0.248    27.907
ATOM     26  N   UNL d   1      20.496  19.834  23.593 -0.13 +0.03    -0.248    27.907
ATOM     27  N   UNL d   1      22.302  19.082  25.639 -0.05 +0.03    -0.248    27.907
ATOM     28  N   UNL d   1      24.203  18.135  23.657 -0.05 -0.01    -0.248    27.907
ATOM     29 FE   UNL d   1      22.363  18.979  23.628 -0.03 -0.00    +0.000    27.907
ATOM     30  O   UNL d   1      22.531  20.365  22.941 -0.35 -0.00    +0.000    27.907
ATOM     31  O   UNL d   1      23.356  20.033  24.242 -0.25 -0.00    +0.000    27.907
ATOM     32  C   UNL d   1      23.834  18.203  18.234 -0.30 +0.01    +0.052    27.907
ATOM     33  C   UNL d   1      24.442  16.805  18.285 -0.18 +0.05    +0.115    27.907
ATOM     34  C   UNL d   1      25.950  16.833  18.311 -0.18 +0.15    +0.139    27.907
ATOM     35  O   UNL d   1      26.580  16.063  17.604 -0.11 -0.91    -0.650    27.907
ATOM     36  O   UNL d   1      26.624  17.674  19.122 -0.25 -1.35    -0.776    27.907
ATOM     37  H   UNL d   1      26.910  18.547  18.829 -0.08 +0.20    +0.167    27.907
ATOM     38  C   UNL d   1      27.237  16.578  22.183 -0.14 +0.04    +0.052    27.907
ATOM     39  C   UNL d   1      28.584  17.222  22.505 -0.20 +0.08    +0.115    27.907
ATOM     40  C   UNL d   1      28.815  18.494  21.728 -0.29 +0.12    +0.139    27.907
ATOM     41  O   UNL d   1      29.792  19.184  21.971 -0.09 -0.28    -0.650    27.907
ATOM     42  O   UNL d   1      27.988  18.860  20.730 -0.30 -0.88    -0.776    27.907
ATOM     43  H   UNL d   1      27.187  18.360  20.530 +0.06 +0.22    +0.167    27.907
ATOM     44  C   UNL d   1      17.132  20.965  24.902 -0.38 -0.00    +0.004    27.907
ATOM     45  C   UNL d   1      16.658  22.197  25.078 -0.40 -0.00    +0.012    27.907
ATOM     46  C   UNL d   1      23.880  18.767  28.985 -0.05 -0.00    +0.004    27.907
ATOM     47  C   UNL d   1      25.027  19.408  29.246 -0.11 -0.00    +0.012    27.907
TER
ENDMDL
MODEL       25
USER    Run = 25
USER    Cluster Rank = 8
USER    Number of conformations in this cluster = 1
USER  
USER    RMSD from reference structure       = 32.717 A
USER  
USER    Estimated Free Energy of Binding    =   -7.03 kcal/mol  [=(1)+(2)+(3)-(4)]
USER    Estimated Inhibition Constant, Ki   =    6.99 uM (micromolar)  [Temperature = 298.15 K]
USER    
USER    (1) Final Intermolecular Energy     =  -10.02 kcal/mol
USER        vdW + Hbond + desolv Energy     =   -7.33 kcal/mol
USER        Electrostatic Energy            =   -2.68 kcal/mol
USER    (2) Final Total Internal Energy     =   -0.76 kcal/mol
USER    (3) Torsional Free Energy           =   +2.98 kcal/mol
USER    (4) Unbound System's Energy  [=(2)] =   -0.76 kcal/mol
USER    
USER    
USER  
USER    DPF = D:/Protein_go_brrr/autodock/final/6BB5/heme_O2/dock.dpf
USER    NEWDPF move	heme_O2_opt.pdbqt
USER    NEWDPF about	8.287000 34.468000 -0.670000
USER    NEWDPF tran0	42.050913 48.777114 4.706990
USER    NEWDPF axisangle0	0.973604 -0.226774 0.025877 141.850709
USER    NEWDPF quaternion0	0.920147 -0.214322 0.024456 0.326800
USER    NEWDPF dihe0	-176.78 -35.23 -41.71 35.02 11.20 -67.03 -115.00 63.43 -179.66 -156.38 
USER  
USER                              x       y       z    vdW   Elec        q     RMS 
ATOM      1  C   UNL d   1      39.979  48.654   5.145 -0.27 +0.00    +0.064    32.717
ATOM      2  C   UNL d   1      42.763  52.256   3.791 -0.05 -0.00    +0.064    32.717
ATOM      3  C   UNL d   1      46.616  49.384   3.750 -0.09 -0.02    +0.064    32.717
ATOM      4  C   UNL d   1      43.679  45.566   4.679 -0.29 -0.01    +0.064    32.717
ATOM      5  C   UNL d   1      40.421  49.867   4.778 -0.20 -0.00    +0.066    32.717
ATOM      6  C   UNL d   1      39.610  51.002   4.688 -0.20 -0.01    -0.021    32.717
ATOM      7  C   UNL d   1      40.406  52.036   4.254 -0.12 -0.00    -0.025    32.717
ATOM      8  C   UNL d   1      41.692  51.516   4.138 -0.10 -0.00    +0.066    32.717
ATOM      9  C   UNL d   1      39.918  53.435   3.947 -0.08 +0.02    +0.051    32.717
ATOM     10  C   UNL d   1      44.139  51.772   3.674 -0.04 -0.01    +0.066    32.717
ATOM     11  C   UNL d   1      45.237  52.615   3.471 -0.02 +0.00    -0.021    32.717
ATOM     12  C   UNL d   1      46.359  51.808   3.474 -0.02 -0.00    +0.000    32.717
ATOM     13  C   UNL d   1      45.870  50.486   3.672 -0.05 -0.01    +0.070    32.717
ATOM     14  C   UNL d   1      45.219  54.130   3.308 -0.01 -0.00    +0.052    32.717
ATOM     15  C   UNL d   1      46.157  48.026   3.914 -0.14 -0.03    +0.066    32.717
ATOM     16  C   UNL d   1      46.975  46.899   3.824 -0.17 +0.01    -0.021    32.717
ATOM     17  C   UNL d   1      46.159  45.799   4.085 -0.27 -0.00    +0.000    32.717
ATOM     18  C   UNL d   1      44.888  46.344   4.319 -0.23 -0.03    +0.070    32.717
ATOM     19  C   UNL d   1      48.433  46.969   3.447 -0.10 -0.02    +0.052    32.717
ATOM     20  C   UNL d   1      42.437  46.052   4.868 -0.30 -0.01    +0.066    32.717
ATOM     21  C   UNL d   1      41.340  45.273   5.223 -0.38 -0.00    -0.025    32.717
ATOM     22  C   UNL d   1      40.283  46.139   5.387 -0.32 -0.00    -0.021    32.717
ATOM     23  C   UNL d   1      40.771  47.419   5.106 -0.25 -0.00    +0.066    32.717
ATOM     24  C   UNL d   1      41.301  43.776   5.395 -0.38 +0.01    +0.051    32.717
ATOM     25  N   UNL d   1      41.688  50.165   4.397 -0.13 +0.04    -0.248    32.717
ATOM     26  N   UNL d   1      44.518  50.473   3.787 -0.06 +0.05    -0.248    32.717
ATOM     27  N   UNL d   1      44.890  47.689   4.137 +0.10 +0.12    -0.248    32.717
ATOM     28  N   UNL d   1      42.070  47.356   4.747 -0.07 +0.05    -0.248    32.717
ATOM     29 FE   UNL d   1      43.287  48.901   4.270 -0.04 -0.00    +0.000    32.717
ATOM     30  O   UNL d   1      42.796  49.433   2.893 -0.08 -0.00    +0.000    32.717
ATOM     31  O   UNL d   1      43.250  47.931   3.033 -0.12 -0.00    +0.000    32.717
ATOM     32  C   UNL d   1      38.116  51.085   4.868 -0.27 +0.04    +0.052    32.717
ATOM     33  C   UNL d   1      37.355  51.017   3.548 +0.01 +0.06    +0.115    32.717
ATOM     34  C   UNL d   1      37.563  49.705   2.832 -0.14 +0.12    +0.139    32.717
ATOM     35  O   UNL d   1      37.706  49.696   1.619 +0.01 -0.36    -0.650    32.717
ATOM     36  O   UNL d   1      37.568  48.533   3.499 -0.38 -1.27    -0.776    32.717
ATOM     37  H   UNL d   1      37.749  47.695   3.057 +0.03 +0.24    +0.167    32.717
ATOM     38  C   UNL d   1      38.869  45.746   5.731 -0.38 +0.02    +0.052    32.717
ATOM     39  C   UNL d   1      38.301  44.711   4.762 -0.27 +0.05    +0.115    32.717
ATOM     40  C   UNL d   1      37.101  45.225   4.007 -0.14 +0.15    +0.139    32.717
ATOM     41  O   UNL d   1      37.258  45.988   3.068 +0.01 -0.85    -0.650    32.717
ATOM     42  O   UNL d   1      35.856  44.817   4.319 -0.42 -1.04    -0.776    32.717
ATOM     43  H   UNL d   1      35.685  43.927   4.650 -0.46 +0.04    +0.167    32.717
ATOM     44  C   UNL d   1      47.754  52.369   3.289 -0.01 -0.00    +0.004    32.717
ATOM     45  C   UNL d   1      48.849  52.091   3.996 -0.01 -0.00    +0.012    32.717
ATOM     46  C   UNL d   1      46.457  44.323   4.073 -0.18 -0.00    +0.004    32.717
ATOM     47  C   UNL d   1      47.623  43.711   4.316 -0.29 -0.01    +0.012    32.717
TER
ENDMDL
MODEL       11
USER    Run = 11
USER    Cluster Rank = 9
USER    Number of conformations in this cluster = 2
USER  
USER    RMSD from reference structure       = 27.957 A
USER  
USER    Estimated Free Energy of Binding    =   -7.02 kcal/mol  [=(1)+(2)+(3)-(4)]
USER    Estimated Inhibition Constant, Ki   =    7.12 uM (micromolar)  [Temperature = 298.15 K]
USER    
USER    (1) Final Intermolecular Energy     =  -10.01 kcal/mol
USER        vdW + Hbond + desolv Energy     =   -7.46 kcal/mol
USER        Electrostatic Energy            =   -2.54 kcal/mol
USER    (2) Final Total Internal Energy     =   -2.61 kcal/mol
USER    (3) Torsional Free Energy           =   +2.98 kcal/mol
USER    (4) Unbound System's Energy  [=(2)] =   -2.61 kcal/mol
USER    
USER    
USER  
USER    DPF = D:/Protein_go_brrr/autodock/final/6BB5/heme_O2/dock.dpf
USER    NEWDPF move	heme_O2_opt.pdbqt
USER    NEWDPF about	8.287000 34.468000 -0.670000
USER    NEWDPF tran0	16.966470 26.742903 28.965115
USER    NEWDPF axisangle0	0.049972 -0.974545 0.218554 157.194585
USER    NEWDPF quaternion0	0.048985 -0.955309 0.214240 0.197704
USER    NEWDPF dihe0	-82.06 -111.25 -66.12 -71.76 10.13 92.21 -50.03 -71.58 -163.21 21.34 
USER  
USER                              x       y       z    vdW   Elec        q     RMS 
ATOM      1  C   UNL d   1      18.357  27.932  30.038 -0.08 +0.01    +0.064    27.957
ATOM      2  C   UNL d   1      18.782  23.813  27.711 -0.20 +0.00    +0.064    27.957
ATOM      3  C   UNL d   1      14.108  23.858  26.592 -0.22 -0.01    +0.064    27.957
ATOM      4  C   UNL d   1      13.759  28.331  28.575 -0.16 -0.01    +0.064    27.957
ATOM      5  C   UNL d   1      18.854  26.809  29.495 -0.04 +0.01    +0.066    27.957
ATOM      6  C   UNL d   1      20.188  26.407  29.613 -0.14 -0.00    -0.021    27.957
ATOM      7  C   UNL d   1      20.322  25.236  28.903 -0.20 -0.00    -0.025    27.957
ATOM      8  C   UNL d   1      19.055  24.931  28.411 -0.20 +0.01    +0.066    27.957
ATOM      9  C   UNL d   1      21.623  24.490  28.701 -0.21 -0.00    +0.051    27.957
ATOM     10  C   UNL d   1      17.470  23.428  27.190 -0.19 -0.00    +0.066    27.957
ATOM     11  C   UNL d   1      17.207  22.181  26.612 -0.18 +0.00    -0.021    27.957
ATOM     12  C   UNL d   1      15.861  22.167  26.299 -0.23 -0.00    +0.000    27.957
ATOM     13  C   UNL d   1      15.369  23.440  26.701 -0.17 -0.01    +0.070    27.957
ATOM     14  C   UNL d   1      18.194  21.039  26.393 -0.19 -0.01    +0.052    27.957
ATOM     15  C   UNL d   1      13.579  25.150  26.955 -0.17 -0.01    +0.066    27.957
ATOM     16  C   UNL d   1      12.285  25.584  26.665 -0.25 +0.00    -0.021    27.957
ATOM     17  C   UNL d   1      12.163  26.858  27.219 -0.20 -0.00    +0.000    27.957
ATOM     18  C   UNL d   1      13.407  27.108  27.816 -0.13 -0.01    +0.070    27.957
ATOM     19  C   UNL d   1      11.311  24.776  25.845 -0.01 -0.01    +0.052    27.957
ATOM     20  C   UNL d   1      14.956  28.622  29.122 -0.17 -0.00    +0.066    27.957
ATOM     21  C   UNL d   1      15.223  29.784  29.841 -0.18 +0.00    -0.025    27.957
ATOM     22  C   UNL d   1      16.520  29.675  30.289 -0.19 -0.00    -0.021    27.957
ATOM     23  C   UNL d   1      17.004  28.454  29.810 -0.14 +0.00    +0.066    27.957
ATOM     24  C   UNL d   1      14.289  30.941  30.085 -0.00 -0.00    +0.051    27.957
ATOM     25  N   UNL d   1      18.166  25.934  28.722 -0.11 -0.03    -0.248    27.957
ATOM     26  N   UNL d   1      16.356  24.203  27.238 -0.10 +0.01    -0.248    27.957
ATOM     27  N   UNL d   1      14.277  26.093  27.581 -0.07 +0.02    -0.248    27.957
ATOM     28  N   UNL d   1      16.064  27.838  29.063 -0.10 +0.00    -0.248    27.957
ATOM     29 FE   UNL d   1      16.206  26.034  28.156 -0.04 -0.00    +0.000    27.957
ATOM     30  O   UNL d   1      17.210  26.216  26.980 -0.30 +0.00    +0.000    27.957
ATOM     31  O   UNL d   1      15.908  27.101  27.040 -0.36 -0.00    +0.000    27.957
ATOM     32  C   UNL d   1      21.326  27.160  30.250 -0.13 +0.01    +0.052    27.957
ATOM     33  C   UNL d   1      21.896  28.249  29.347 -0.19 +0.04    +0.115    27.957
ATOM     34  C   UNL d   1      21.960  29.591  30.034 -0.09 +0.15    +0.139    27.957
ATOM     35  O   UNL d   1      21.686  30.603  29.409 +0.04 -0.92    -0.650    27.957
ATOM     36  O   UNL d   1      22.344  29.703  31.322 -0.06 -1.20    -0.776    27.957
ATOM     37  H   UNL d   1      21.734  29.546  32.052 +0.02 +0.20    +0.167    27.957
ATOM     38  C   UNL d   1      17.268  30.718  31.078 -0.22 +0.01    +0.052    27.957
ATOM     39  C   UNL d   1      17.795  30.178  32.405 -0.08 +0.03    +0.115    27.957
ATOM     40  C   UNL d   1      19.291  29.983  32.395 -0.12 +0.07    +0.139    27.957
ATOM     41  O   UNL d   1      19.761  28.885  32.644 +0.01 -0.24    -0.650    27.957
ATOM     42  O   UNL d   1      20.121  30.992  32.065 -0.32 -0.99    -0.776    27.957
ATOM     43  H   UNL d   1      20.604  30.995  31.230 +0.03 +0.36    +0.167    27.957
ATOM     44  C   UNL d   1      15.196  20.967  25.659 -0.36 -0.00    +0.004    27.957
ATOM     45  C   UNL d   1      14.325  20.122  26.209 -0.29 -0.01    +0.012    27.957
ATOM     46  C   UNL d   1      11.029  27.847  27.183 -0.31 -0.00    +0.004    27.957
ATOM     47  C   UNL d   1      10.677  28.668  26.185 -0.47 -0.00    +0.012    27.957
TER
ENDMDL
MODEL       55
USER    Run = 55
USER    Cluster Rank = 10
USER    Number of conformations in this cluster = 1
USER  
USER    RMSD from reference structure       = 13.581 A
USER  
USER    Estimated Free Energy of Binding    =   -6.82 kcal/mol  [=(1)+(2)+(3)-(4)]
USER    Estimated Inhibition Constant, Ki   =    9.98 uM (micromolar)  [Temperature = 298.15 K]
USER    
USER    (1) Final Intermolecular Energy     =   -9.81 kcal/mol
USER        vdW + Hbond + desolv Energy     =   -8.62 kcal/mol
USER        Electrostatic Energy            =   -1.18 kcal/mol
USER    (2) Final Total Internal Energy     =   -1.37 kcal/mol
USER    (3) Torsional Free Energy           =   +2.98 kcal/mol
USER    (4) Unbound System's Energy  [=(2)] =   -1.37 kcal/mol
USER    
USER    
USER  
USER    DPF = D:/Protein_go_brrr/autodock/final/6BB5/heme_O2/dock.dpf
USER    NEWDPF move	heme_O2_opt.pdbqt
USER    NEWDPF about	8.287000 34.468000 -0.670000
USER    NEWDPF tran0	18.844953 45.153813 -7.694385
USER    NEWDPF axisangle0	0.234742 -0.171877 0.956742 -127.185074
USER    NEWDPF quaternion0	0.210247 -0.153942 0.856909 -0.444752
USER    NEWDPF dihe0	106.69 10.86 -14.67 -17.23 33.10 73.77 25.55 28.56 -27.20 180.00 
USER  
USER                              x       y       z    vdW   Elec        q     RMS 
ATOM      1  C   UNL d   1      19.133  43.875  -9.362 -0.09 +0.02    +0.064    13.581
ATOM      2  C   UNL d   1      21.610  44.542  -5.365 -0.24 +0.00    +0.064    13.581
ATOM      3  C   UNL d   1      18.520  47.921  -3.905 -0.06 -0.02    +0.064    13.581
ATOM      4  C   UNL d   1      15.701  46.906  -7.789 -0.20 -0.01    +0.064    13.581
ATOM      5  C   UNL d   1      20.058  43.779  -8.393 -0.14 +0.01    +0.066    13.581
ATOM      6  C   UNL d   1      21.158  42.918  -8.443 -0.15 -0.01    -0.021    13.581
ATOM      7  C   UNL d   1      21.852  43.079  -7.266 -0.18 -0.00    -0.025    13.581
ATOM      8  C   UNL d   1      21.184  44.069  -6.552 -0.21 +0.01    +0.066    13.581
ATOM      9  C   UNL d   1      23.075  42.283  -6.867 -0.17 +0.01    +0.051    13.581
ATOM     10  C   UNL d   1      20.965  45.595  -4.579 -0.26 -0.00    +0.066    13.581
ATOM     11  C   UNL d   1      21.537  46.162  -3.435 -0.28 +0.00    -0.021    13.581
ATOM     12  C   UNL d   1      20.670  47.151  -3.009 -0.28 -0.00    +0.000    13.581
ATOM     13  C   UNL d   1      19.587  47.122  -3.932 -0.22 -0.01    +0.070    13.581
ATOM     14  C   UNL d   1      22.869  45.794  -2.791 -0.16 +0.00    +0.052    13.581
ATOM     15  C   UNL d   1      17.387  47.900  -4.798 -0.20 -0.01    +0.066    13.581
ATOM     16  C   UNL d   1      16.226  48.652  -4.620 -0.23 +0.00    -0.021    13.581
ATOM     17  C   UNL d   1      15.407  48.378  -5.715 -0.23 -0.00    +0.000    13.581
ATOM     18  C   UNL d   1      16.141  47.470  -6.491 -0.19 -0.01    +0.070    13.581
ATOM     19  C   UNL d   1      15.982  49.512  -3.405 -0.36 -0.01    +0.052    13.581
ATOM     20  C   UNL d   1      16.360  46.000  -8.537 -0.21 -0.01    +0.066    13.581
ATOM     21  C   UNL d   1      15.905  45.519  -9.762 -0.19 +0.00    -0.025    13.581
ATOM     22  C   UNL d   1      16.883  44.675 -10.237 -0.18 +0.00    -0.021    13.581
ATOM     23  C   UNL d   1      17.895  44.658  -9.273 -0.16 +0.01    +0.066    13.581
ATOM     24  C   UNL d   1      14.600  45.846 -10.441 -0.02 -0.02    +0.051    13.581
ATOM     25  N   UNL d   1      20.043  44.453  -7.217 -0.13 -0.03    -0.248    13.581
ATOM     26  N   UNL d   1      19.773  46.170  -4.881 -0.17 +0.02    -0.248    13.581
ATOM     27  N   UNL d   1      17.307  47.134  -5.882 -0.12 +0.03    -0.248    13.581
ATOM     28  N   UNL d   1      17.553  45.430  -8.221 -0.14 +0.00    -0.248    13.581
ATOM     29 FE   UNL d   1      18.653  45.798  -6.562 -0.05 -0.00    +0.000    13.581
ATOM     30  O   UNL d   1      18.673  44.471  -5.750 -0.48 +0.00    +0.000    13.581
ATOM     31  O   UNL d   1      17.296  45.154  -6.095 -0.38 -0.00    +0.000    13.581
ATOM     32  C   UNL d   1      21.473  41.883  -9.491 -0.07 +0.02    +0.052    13.581
ATOM     33  C   UNL d   1      21.558  42.470 -10.897 -0.07 +0.03    +0.115    13.581
ATOM     34  C   UNL d   1      21.310  41.437 -11.968 -0.08 +0.05    +0.139    13.581
ATOM     35  O   UNL d   1      22.192  41.176 -12.770 +0.02 -0.14    -0.650    13.581
ATOM     36  O   UNL d   1      20.121  40.810 -12.079 -0.24 -0.61    -0.776    13.581
ATOM     37  H   UNL d   1      19.502  41.010 -12.791 +0.00 +0.12    +0.167    13.581
ATOM     38  C   UNL d   1      16.812  43.882 -11.517 -0.14 +0.00    +0.052    13.581
ATOM     39  C   UNL d   1      15.940  42.635 -11.382 -0.21 +0.00    +0.115    13.581
ATOM     40  C   UNL d   1      16.353  41.538 -12.331 -0.11 +0.06    +0.139    13.581
ATOM     41  O   UNL d   1      15.501  40.851 -12.871 -0.02 -0.20    -0.650    13.581
ATOM     42  O   UNL d   1      17.649  41.332 -12.635 -0.44 -0.65    -0.776    13.581
ATOM     43  H   UNL d   1      18.359  41.738 -12.122 +0.00 +0.15    +0.167    13.581
ATOM     44  C   UNL d   1      20.956  48.001  -1.789 -0.27 -0.00    +0.004    13.581
ATOM     45  C   UNL d   1      20.420  49.178  -1.468 -0.24 -0.00    +0.012    13.581
ATOM     46  C   UNL d   1      14.014  48.842  -6.048 -0.31 -0.00    +0.004    13.581
ATOM     47  C   UNL d   1      13.061  49.269  -5.210 -0.40 -0.00    +0.012    13.581
TER
ENDMDL
MODEL        9
USER    Run = 9
USER    Cluster Rank = 11
USER    Number of conformations in this cluster = 1
USER  
USER    RMSD from reference structure       = 15.678 A
USER  
USER    Estimated Free Energy of Binding    =   -6.60 kcal/mol  [=(1)+(2)+(3)-(4)]
USER    Estimated Inhibition Constant, Ki   =   14.41 uM (micromolar)  [Temperature = 298.15 K]
USER    
USER    (1) Final Intermolecular Energy     =   -9.59 kcal/mol
USER        vdW + Hbond + desolv Energy     =   -8.47 kcal/mol
USER        Electrostatic Energy            =   -1.12 kcal/mol
USER    (2) Final Total Internal Energy     =   -0.80 kcal/mol
USER    (3) Torsional Free Energy           =   +2.98 kcal/mol
USER    (4) Unbound System's Energy  [=(2)] =   -0.80 kcal/mol
USER    
USER    
USER  
USER    DPF = D:/Protein_go_brrr/autodock/final/6BB5/heme_O2/dock.dpf
USER    NEWDPF move	heme_O2_opt.pdbqt
USER    NEWDPF about	8.287000 34.468000 -0.670000
USER    NEWDPF tran0	21.803678 47.390537 -2.419795
USER    NEWDPF axisangle0	0.097826 -0.983564 0.151763 132.825106
USER    NEWDPF quaternion0	0.089653 -0.901388 0.139083 0.400148
USER    NEWDPF dihe0	45.29 -34.74 -17.34 94.60 167.75 137.48 -106.32 -94.32 -6.77 159.20 
USER  
USER                              x       y       z    vdW   Elec        q     RMS 
ATOM      1  C   UNL d   1      22.417  48.613  -0.799 -0.13 -0.00    +0.064    15.678
ATOM      2  C   UNL d   1      24.541  45.051  -3.114 -0.19 +0.01    +0.064    15.678
ATOM      3  C   UNL d   1      20.699  44.475  -5.942 -0.31 +0.00    +0.064    15.678
ATOM      4  C   UNL d   1      18.691  48.451  -3.885 -0.12 -0.02    +0.064    15.678
ATOM      5  C   UNL d   1      23.309  47.693  -1.199 -0.09 +0.00    +0.066    15.678
ATOM      6  C   UNL d   1      24.564  47.510  -0.610 -0.08 -0.00    -0.021    15.678
ATOM      7  C   UNL d   1      25.197  46.508  -1.307 -0.02 -0.00    -0.025    15.678
ATOM      8  C   UNL d   1      24.293  46.073  -2.272 -0.08 +0.01    +0.066    15.678
ATOM      9  C   UNL d   1      26.612  46.036  -1.052 -0.11 +0.01    +0.051    15.678
ATOM     10  C   UNL d   1      23.624  44.536  -4.132 -0.23 +0.01    +0.066    15.678
ATOM     11  C   UNL d   1      23.867  43.370  -4.867 -0.23 -0.00    -0.021    15.678
ATOM     12  C   UNL d   1      22.762  43.177  -5.675 -0.18 +0.00    +0.000    15.678
ATOM     13  C   UNL d   1      21.894  44.267  -5.390 -0.23 +0.01    +0.070    15.678
ATOM     14  C   UNL d   1      25.089  42.463  -4.782 -0.21 +0.01    +0.052    15.678
ATOM     15  C   UNL d   1      19.806  45.584  -5.706 -0.24 -0.00    +0.066    15.678
ATOM     16  C   UNL d   1      18.643  45.832  -6.436 -0.24 +0.00    -0.021    15.678
ATOM     17  C   UNL d   1      18.054  46.961  -5.868 -0.21 -0.00    +0.000    15.678
ATOM     18  C   UNL d   1      18.912  47.322  -4.819 -0.18 -0.01    +0.070    15.678
ATOM     19  C   UNL d   1      18.232  45.011  -7.632 -0.25 +0.00    +0.052    15.678
ATOM     20  C   UNL d   1      19.514  48.850  -2.896 -0.06 -0.02    +0.066    15.678
ATOM     21  C   UNL d   1      19.243  49.911  -2.036 -0.22 +0.01    -0.025    15.678
ATOM     22  C   UNL d   1      20.282  49.954  -1.133 -0.23 +0.00    -0.021    15.678
ATOM     23  C   UNL d   1      21.160  48.926  -1.488 -0.18 -0.01    +0.066    15.678
ATOM     24  C   UNL d   1      18.056  50.838  -2.076 -0.26 -0.01    +0.051    15.678
ATOM     25  N   UNL d   1      23.156  46.847  -2.248 -0.10 -0.02    -0.248    15.678
ATOM     26  N   UNL d   1      22.428  45.091  -4.453 -0.16 -0.01    -0.248    15.678
ATOM     27  N   UNL d   1      20.007  46.520  -4.783 -0.14 +0.02    -0.248    15.678
ATOM     28  N   UNL d   1      20.712  48.286  -2.587 -0.13 +0.04    -0.248    15.678
ATOM     29 FE   UNL d   1      21.561  46.700  -3.515 -0.04 -0.00    +0.000    15.678
ATOM     30  O   UNL d   1      22.856  47.236  -4.193 -0.09 +0.00    +0.000    15.678
ATOM     31  O   UNL d   1      21.461  47.865  -4.568 -0.09 -0.00    +0.000    15.678
ATOM     32  C   UNL d   1      25.201  48.335   0.478 -0.09 +0.01    +0.052    15.678
ATOM     33  C   UNL d   1      24.638  48.027   1.862 -0.14 +0.03    +0.115    15.678
ATOM     34  C   UNL d   1      25.075  46.677   2.374 -0.18 +0.11    +0.139    15.678
ATOM     35  O   UNL d   1      26.023  46.112   1.852 -0.11 -0.58    -0.650    15.678
ATOM     36  O   UNL d   1      24.422  46.061   3.381 -0.45 -0.83    -0.776    15.678
ATOM     37  H   UNL d   1      23.460  46.009   3.410 -0.41 +0.04    +0.167    15.678
ATOM     38  C   UNL d   1      20.447  50.971  -0.033 -0.26 -0.01    +0.052    15.678
ATOM     39  C   UNL d   1      21.412  52.091  -0.415 -0.12 -0.02    +0.115    15.678
ATOM     40  C   UNL d   1      20.738  53.190  -1.198 -0.13 -0.02    +0.139    15.678
ATOM     41  O   UNL d   1      20.497  53.030  -2.384 +0.00 +0.06    -0.650    15.678
ATOM     42  O   UNL d   1      20.349  54.333  -0.599 -0.01 +0.16    -0.776    15.678
ATOM     43  H   UNL d   1      20.057  54.346   0.320 -0.51 -0.08    +0.167    15.678
ATOM     44  C   UNL d   1      22.653  41.999  -6.619 -0.22 +0.00    +0.004    15.678
ATOM     45  C   UNL d   1      21.548  41.467  -7.141 -0.30 +0.00    +0.012    15.678
ATOM     46  C   UNL d   1      16.823  47.735  -6.257 -0.19 -0.00    +0.004    15.678
ATOM     47  C   UNL d   1      15.556  47.521  -5.879 -0.34 -0.00    +0.012    15.678
TER
ENDMDL
MODEL       72
USER    Run = 72
USER    Cluster Rank = 12
USER    Number of conformations in this cluster = 2
USER  
USER    RMSD from reference structure       = 17.198 A
USER  
USER    Estimated Free Energy of Binding    =   -6.46 kcal/mol  [=(1)+(2)+(3)-(4)]
USER    Estimated Inhibition Constant, Ki   =   18.43 uM (micromolar)  [Temperature = 298.15 K]
USER    
USER    (1) Final Intermolecular Energy     =   -9.44 kcal/mol
USER        vdW + Hbond + desolv Energy     =   -6.15 kcal/mol
USER        Electrostatic Energy            =   -3.30 kcal/mol
USER    (2) Final Total Internal Energy     =   -1.68 kcal/mol
USER    (3) Torsional Free Energy           =   +2.98 kcal/mol
USER    (4) Unbound System's Energy  [=(2)] =   -1.68 kcal/mol
USER    
USER    
USER  
USER    DPF = D:/Protein_go_brrr/autodock/final/6BB5/heme_O2/dock.dpf
USER    NEWDPF move	heme_O2_opt.pdbqt
USER    NEWDPF about	8.287000 34.468000 -0.670000
USER    NEWDPF tran0	15.467337 17.230265 4.536257
USER    NEWDPF axisangle0	-0.931008 -0.226656 0.286095 119.979299
USER    NEWDPF quaternion0	-0.806193 -0.196270 0.247740 0.500156
USER    NEWDPF dihe0	104.48 -115.67 2.56 122.17 168.37 146.51 -60.97 65.59 179.99 179.94 
USER  
USER                              x       y       z    vdW   Elec        q     RMS 
ATOM      1  C   UNL d   1      14.473  17.570   6.379 -0.16 +0.02    +0.064    17.198
ATOM      2  C   UNL d   1      13.122  15.454   2.348 -0.13 +0.01    +0.064    17.198
ATOM      3  C   UNL d   1      17.374  16.398   0.318 -0.17 -0.01    +0.064    17.198
ATOM      4  C   UNL d   1      18.946  18.155   4.620 -0.11 +0.00    +0.064    17.198
ATOM      5  C   UNL d   1      13.759  16.916   5.449 -0.14 +0.02    +0.066    17.198
ATOM      6  C   UNL d   1      12.444  16.480   5.635 -0.19 -0.00    -0.021    17.198
ATOM      7  C   UNL d   1      12.067  15.829   4.484 -0.17 -0.01    -0.025    17.198
ATOM      8  C   UNL d   1      13.145  15.927   3.608 -0.12 +0.01    +0.066    17.198
ATOM      9  C   UNL d   1      10.740  15.131   4.279 -0.26 +0.01    +0.051    17.198
ATOM     10  C   UNL d   1      14.212  15.547   1.376 -0.11 +0.01    +0.066    17.198
ATOM     11  C   UNL d   1      14.078  15.186   0.031 -0.16 -0.00    -0.021    17.198
ATOM     12  C   UNL d   1      15.288  15.468  -0.575 -0.17 +0.00    +0.000    17.198
ATOM     13  C   UNL d   1      16.115  15.985   0.460 -0.14 +0.00    +0.070    17.198
ATOM     14  C   UNL d   1      12.838  14.621  -0.653 -0.15 +0.02    +0.052    17.198
ATOM     15  C   UNL d   1      18.255  16.895   1.347 -0.00 -0.01    +0.066    17.198
ATOM     16  C   UNL d   1      19.613  17.156   1.167 -0.10 +0.00    -0.021    17.198
ATOM     17  C   UNL d   1      20.083  17.657   2.381 -0.09 -0.00    +0.000    17.198
ATOM     18  C   UNL d   1      18.961  17.667   3.221 -0.10 -0.00    +0.070    17.198
ATOM     19  C   UNL d   1      20.345  16.855  -0.117 -0.08 -0.01    +0.052    17.198
ATOM     20  C   UNL d   1      17.898  18.138   5.467 -0.14 +0.01    +0.066    17.198
ATOM     21  C   UNL d   1      17.939  18.629   6.769 -0.17 -0.00    -0.025    17.198
ATOM     22  C   UNL d   1      16.666  18.496   7.276 -0.20 -0.00    -0.021    17.198
ATOM     23  C   UNL d   1      15.897  17.909   6.267 -0.17 +0.02    +0.066    17.198
ATOM     24  C   UNL d   1      19.134  19.194   7.493 -0.16 +0.01    +0.051    17.198
ATOM     25  N   UNL d   1      14.210  16.540   4.227 -0.07 -0.06    -0.248    17.198
ATOM     26  N   UNL d   1      15.454  16.026   1.645 -0.01 -0.05    -0.248    17.198
ATOM     27  N   UNL d   1      17.879  17.131   2.601 -0.04 +0.01    -0.248    17.198
ATOM     28  N   UNL d   1      16.660  17.652   5.185 -0.10 -0.04    -0.248    17.198
ATOM     29 FE   UNL d   1      16.064  16.845   3.427 -0.04 +0.00    +0.000    17.198
ATOM     30  O   UNL d   1      15.745  15.350   3.721 -0.09 +0.00    +0.000    17.198
ATOM     31  O   UNL d   1      17.186  15.914   4.017 -0.09 +0.00    +0.000    17.198
ATOM     32  C   UNL d   1      11.618  16.549   6.893 -0.33 +0.01    +0.052    17.198
ATOM     33  C   UNL d   1      11.654  15.253   7.697 -0.22 +0.03    +0.115    17.198
ATOM     34  C   UNL d   1      12.277  15.438   9.058 -0.10 +0.13    +0.139    17.198
ATOM     35  O   UNL d   1      12.389  16.560   9.524 -0.03 -0.70    -0.650    17.198
ATOM     36  O   UNL d   1      12.744  14.388   9.766 -0.33 -1.34    -0.776    17.198
ATOM     37  H   UNL d   1      13.687  14.207   9.850 +0.04 +0.30    +0.167    17.198
ATOM     38  C   UNL d   1      16.236  18.854   8.675 -0.29 +0.02    +0.052    17.198
ATOM     39  C   UNL d   1      16.648  17.798   9.699 -0.19 +0.06    +0.115    17.198
ATOM     40  C   UNL d   1      15.460  17.126  10.342 -0.16 +0.16    +0.139    17.198
ATOM     41  O   UNL d   1      14.744  17.758  11.102 -0.40 -1.05    -0.650    17.198
ATOM     42  O   UNL d   1      15.144  15.849  10.054 +0.17 -1.12    -0.776    17.198
ATOM     43  H   UNL d   1      14.334  15.624   9.579 +0.04 +0.26    +0.167    17.198
ATOM     44  C   UNL d   1      15.527  15.215  -2.049 -0.22 -0.00    +0.004    17.198
ATOM     45  C   UNL d   1      16.627  15.472  -2.756 -0.21 -0.00    +0.012    17.198
ATOM     46  C   UNL d   1      21.467  18.059   2.814 -0.04 -0.00    +0.004    17.198
ATOM     47  C   UNL d   1      21.907  19.277   3.160 -0.03 -0.00    +0.012    17.198
TER
ENDMDL
MODEL       32
USER    Run = 32
USER    Cluster Rank = 13
USER    Number of conformations in this cluster = 2
USER  
USER    RMSD from reference structure       = 23.937 A
USER  
USER    Estimated Free Energy of Binding    =   -6.28 kcal/mol  [=(1)+(2)+(3)-(4)]
USER    Estimated Inhibition Constant, Ki   =   24.89 uM (micromolar)  [Temperature = 298.15 K]
USER    
USER    (1) Final Intermolecular Energy     =   -9.26 kcal/mol
USER        vdW + Hbond + desolv Energy     =   -7.04 kcal/mol
USER        Electrostatic Energy            =   -2.22 kcal/mol
USER    (2) Final Total Internal Energy     =   -2.08 kcal/mol
USER    (3) Torsional Free Energy           =   +2.98 kcal/mol
USER    (4) Unbound System's Energy  [=(2)] =   -2.08 kcal/mol
USER    
USER    
USER  
USER    DPF = D:/Protein_go_brrr/autodock/final/6BB5/heme_O2/dock.dpf
USER    NEWDPF move	heme_O2_opt.pdbqt
USER    NEWDPF about	8.287000 34.468000 -0.670000
USER    NEWDPF tran0	35.832176 29.433682 0.362863
USER    NEWDPF axisangle0	0.917278 -0.397138 0.029717 131.847191
USER    NEWDPF quaternion0	0.837477 -0.362588 0.027131 0.407955
USER    NEWDPF dihe0	70.61 150.12 -19.23 124.71 -143.57 114.52 -27.97 83.05 178.06 174.47 
USER  
USER                              x       y       z    vdW   Elec        q     RMS 
ATOM      1  C   UNL d   1      33.831  29.837   0.940 -0.17 +0.02    +0.064    23.937
ATOM      2  C   UNL d   1      37.557  32.659   0.096 -0.16 -0.01    +0.064    23.937
ATOM      3  C   UNL d   1      40.344  28.857  -0.836 -0.14 -0.00    +0.064    23.937
ATOM      4  C   UNL d   1      36.398  25.969  -0.436 -0.08 -0.01    +0.064    23.937
ATOM      5  C   UNL d   1      34.617  30.915   0.785 -0.12 +0.01    +0.066    23.937
ATOM      6  C   UNL d   1      34.190  32.230   0.990 -0.10 -0.00    -0.021    23.937
ATOM      7  C   UNL d   1      35.256  33.051   0.703 -0.11 -0.00    -0.025    23.937
ATOM      8  C   UNL d   1      36.318  32.212   0.378 -0.12 -0.00    +0.066    23.937
ATOM      9  C   UNL d   1      35.213  34.563   0.721 -0.15 +0.00    +0.051    23.937
ATOM     10  C   UNL d   1      38.716  31.827  -0.230 -0.20 -0.01    +0.066    23.937
ATOM     11  C   UNL d   1      40.015  32.332  -0.354 -0.26 +0.00    -0.021    23.937
ATOM     12  C   UNL d   1      40.836  31.248  -0.605 -0.28 -0.00    +0.000    23.937
ATOM     13  C   UNL d   1      39.970  30.120  -0.632 -0.24 -0.01    +0.070    23.937
ATOM     14  C   UNL d   1      40.458  33.783  -0.212 -0.31 -0.00    +0.052    23.937
ATOM     15  C   UNL d   1      39.495  27.692  -0.906 -0.19 -0.00    +0.066    23.937
ATOM     16  C   UNL d   1      39.926  26.421  -1.285 -0.19 -0.00    -0.021    23.937
ATOM     17  C   UNL d   1      38.817  25.581  -1.180 -0.15 -0.00    +0.000    23.937
ATOM     18  C   UNL d   1      37.780  26.413  -0.736 -0.14 -0.00    +0.070    23.937
ATOM     19  C   UNL d   1      41.328  26.136  -1.762 -0.18 +0.00    +0.052    23.937
ATOM     20  C   UNL d   1      35.368  26.748  -0.051 -0.13 -0.00    +0.066    23.937
ATOM     21  C   UNL d   1      34.093  26.270   0.235 -0.22 +0.00    -0.025    23.937
ATOM     22  C   UNL d   1      33.355  27.354   0.655 -0.24 -0.00    -0.021    23.937
ATOM     23  C   UNL d   1      34.207  28.461   0.592 -0.14 +0.01    +0.066    23.937
ATOM     24  C   UNL d   1      33.601  24.851   0.110 -0.18 -0.01    +0.051    23.937
ATOM     25  N   UNL d   1      35.906  30.899   0.365 -0.07 -0.01    -0.248    23.937
ATOM     26  N   UNL d   1      38.681  30.482  -0.408 -0.13 +0.02    -0.248    23.937
ATOM     27  N   UNL d   1      38.190  27.704  -0.648 -0.13 +0.00    -0.248    23.937
ATOM     28  N   UNL d   1      35.416  28.096   0.120 -0.04 -0.01    -0.248    23.937
ATOM     29 FE   UNL d   1      37.038  29.278  -0.143 -0.04 +0.00    +0.000    23.937
ATOM     30  O   UNL d   1      36.705  30.213  -1.342 -0.08 +0.00    +0.000    23.937
ATOM     31  O   UNL d   1      36.681  28.650  -1.540 -0.10 +0.00    +0.000    23.937
ATOM     32  C   UNL d   1      32.798  32.710   1.308 -0.12 +0.02    +0.052    23.937
ATOM     33  C   UNL d   1      32.045  33.205   0.077 -0.06 +0.05    +0.115    23.937
ATOM     34  C   UNL d   1      30.555  32.996   0.190 +0.13 +0.15    +0.139    23.937
ATOM     35  O   UNL d   1      29.924  33.604   1.040 -0.14 -0.79    -0.650    23.937
ATOM     36  O   UNL d   1      29.904  32.127  -0.610 -0.52 -0.93    -0.776    23.937
ATOM     37  H   UNL d   1      30.006  31.173  -0.519 +0.01 +0.24    +0.167    23.937
ATOM     38  C   UNL d   1      31.896  27.331   1.032 -0.20 +0.01    +0.052    23.937
ATOM     39  C   UNL d   1      30.979  27.442  -0.184 -0.09 +0.03    +0.115    23.937
ATOM     40  C   UNL d   1      30.485  28.850  -0.407 -0.08 +0.09    +0.139    23.937
ATOM     41  O   UNL d   1      29.359  29.160  -0.053 -0.18 -0.77    -0.650    23.937
ATOM     42  O   UNL d   1      31.284  29.791  -0.946 +0.03 -0.40    -0.776    23.937
ATOM     43  H   UNL d   1      30.924  30.537  -1.440 +0.01 +0.08    +0.167    23.937
ATOM     44  C   UNL d   1      42.331  31.399  -0.793 -0.38 -0.00    +0.004    23.937
ATOM     45  C   UNL d   1      43.276  30.476  -0.612 -0.48 -0.00    +0.012    23.937
ATOM     46  C   UNL d   1      38.649  24.121  -1.508 -0.08 -0.00    +0.004    23.937
ATOM     47  C   UNL d   1      38.334  23.117  -0.679 -0.09 -0.00    +0.012    23.937
TER
ENDMDL
MODEL       63
USER    Run = 63
USER    Cluster Rank = 14
USER    Number of conformations in this cluster = 1
USER  
USER    RMSD from reference structure       = 36.075 A
USER  
USER    Estimated Free Energy of Binding    =   -5.91 kcal/mol  [=(1)+(2)+(3)-(4)]
USER    Estimated Inhibition Constant, Ki   =   46.70 uM (micromolar)  [Temperature = 298.15 K]
USER    
USER    (1) Final Intermolecular Energy     =   -8.89 kcal/mol
USER        vdW + Hbond + desolv Energy     =   -6.07 kcal/mol
USER        Electrostatic Energy            =   -2.82 kcal/mol
USER    (2) Final Total Internal Energy     =   -1.68 kcal/mol
USER    (3) Torsional Free Energy           =   +2.98 kcal/mol
USER    (4) Unbound System's Energy  [=(2)] =   -1.68 kcal/mol
USER    
USER    
USER  
USER    DPF = D:/Protein_go_brrr/autodock/final/6BB5/heme_O2/dock.dpf
USER    NEWDPF move	heme_O2_opt.pdbqt
USER    NEWDPF about	8.287000 34.468000 -0.670000
USER    NEWDPF tran0	33.328075 15.576102 24.688473
USER    NEWDPF axisangle0	-0.724111 0.440593 -0.530605 146.414114
USER    NEWDPF quaternion0	-0.693231 0.421804 -0.507977 0.288914
USER    NEWDPF dihe0	-179.29 -69.94 -53.03 125.85 121.59 157.82 -106.38 60.98 -180.00 180.00 
USER  
USER                              x       y       z    vdW   Elec        q     RMS 
ATOM      1  C   UNL d   1      32.191  16.497  23.152 -0.27 +0.01    +0.064    36.075
ATOM      2  C   UNL d   1      36.444  14.382  23.168 -0.23 -0.02    +0.064    36.075
ATOM      3  C   UNL d   1      36.112  13.542  27.888 -0.09 -0.02    +0.064    36.075
ATOM      4  C   UNL d   1      31.529  15.288  27.793 -0.13 -0.03    +0.064    36.075
ATOM      5  C   UNL d   1      33.374  15.989  22.771 -0.28 +0.01    +0.066    36.075
ATOM      6  C   UNL d   1      33.868  16.050  21.465 -0.33 -0.00    -0.021    36.075
ATOM      7  C   UNL d   1      35.080  15.399  21.459 -0.35 +0.00    -0.025    36.075
ATOM      8  C   UNL d   1      35.316  15.002  22.772 -0.26 -0.01    +0.066    36.075
ATOM      9  C   UNL d   1      35.929  15.163  20.229 -0.40 -0.00    +0.051    36.075
ATOM     10  C   UNL d   1      36.758  13.962  24.534 -0.17 -0.02    +0.066    36.075
ATOM     11  C   UNL d   1      38.011  13.472  24.920 -0.15 +0.00    -0.021    36.075
ATOM     12  C   UNL d   1      37.940  13.240  26.281 -0.07 -0.00    +0.000    36.075
ATOM     13  C   UNL d   1      36.616  13.599  26.655 -0.10 -0.02    +0.070    36.075
ATOM     14  C   UNL d   1      39.231  13.259  24.032 -0.19 -0.01    +0.052    36.075
ATOM     15  C   UNL d   1      34.767  13.862  28.301 -0.08 -0.04    +0.066    36.075
ATOM     16  C   UNL d   1      34.254  13.625  29.576 -0.06 +0.01    -0.021    36.075
ATOM     17  C   UNL d   1      32.948  14.114  29.572 -0.08 -0.00    +0.000    36.075
ATOM     18  C   UNL d   1      32.760  14.621  28.279 -0.01 -0.05    +0.070    36.075
ATOM     19  C   UNL d   1      35.029  12.911  30.654 -0.02 -0.01    +0.052    36.075
ATOM     20  C   UNL d   1      31.300  15.747  26.548 -0.18 -0.02    +0.066    36.075
ATOM     21  C   UNL d   1      30.126  16.383  26.154 -0.16 +0.00    -0.025    36.075
ATOM     22  C   UNL d   1      30.307  16.758  24.842 -0.23 -0.00    -0.021    36.075
ATOM     23  C   UNL d   1      31.584  16.320  24.477 -0.26 -0.00    +0.066    36.075
ATOM     24  C   UNL d   1      28.892  16.616  26.986 -0.12 +0.00    +0.051    36.075
ATOM     25  N   UNL d   1      34.235  15.307  23.567 -0.17 +0.03    -0.248    36.075
ATOM     26  N   UNL d   1      35.902  14.033  25.585 -0.10 +0.08    -0.248    36.075
ATOM     27  N   UNL d   1      33.848  14.392  27.499 -0.05 +0.21    -0.248    36.075
ATOM     28  N   UNL d   1      32.166  15.666  25.503 -0.18 +0.08    -0.248    36.075
ATOM     29 FE   UNL d   1      34.020  14.854  25.546 -0.04 -0.00    +0.000    36.075
ATOM     30  O   UNL d   1      33.973  13.613  24.609 -0.09 -0.00    +0.000    36.075
ATOM     31  O   UNL d   1      32.992  13.700  25.839 -0.09 -0.00    +0.000    36.075
ATOM     32  C   UNL d   1      33.169  16.576  20.238 -0.27 +0.02    +0.052    36.075
ATOM     33  C   UNL d   1      32.497  15.476  19.422 -0.25 +0.08    +0.115    36.075
ATOM     34  C   UNL d   1      31.275  14.916  20.107 -0.05 +0.15    +0.139    36.075
ATOM     35  O   UNL d   1      31.214  14.916  21.326 -0.12 -0.47    -0.650    36.075
ATOM     36  O   UNL d   1      30.253  14.388  19.402 +0.04 -1.17    -0.776    36.075
ATOM     37  H   UNL d   1      29.462  14.041  19.830 +0.01 +0.24    +0.167    36.075
ATOM     38  C   UNL d   1      29.282  17.442  23.974 -0.25 +0.01    +0.052    36.075
ATOM     39  C   UNL d   1      28.226  16.473  23.447 -0.10 +0.04    +0.115    36.075
ATOM     40  C   UNL d   1      28.192  16.421  21.940 -0.01 +0.16    +0.139    36.075
ATOM     41  O   UNL d   1      27.996  17.444  21.303 +0.03 -1.06    -0.650    36.075
ATOM     42  O   UNL d   1      28.426  15.272  21.278 -0.00 -1.22    -0.776    36.075
ATOM     43  H   UNL d   1      29.295  14.853  21.285 +0.02 +0.23    +0.167    36.075
ATOM     44  C   UNL d   1      39.120  12.708  27.068 -0.04 -0.00    +0.004    36.075
ATOM     45  C   UNL d   1      39.718  13.262  28.122 -0.03 -0.00    +0.012    36.075
ATOM     46  C   UNL d   1      31.881  14.090  30.634 -0.05 -0.00    +0.004    36.075
ATOM     47  C   UNL d   1      31.274  15.129  31.222 -0.07 -0.00    +0.012    36.075
TER
ENDMDL
MODEL       96
USER    Run = 96
USER    Cluster Rank = 15
USER    Number of conformations in this cluster = 1
USER  
USER    RMSD from reference structure       = 14.502 A
USER  
USER    Estimated Free Energy of Binding    =   -5.78 kcal/mol  [=(1)+(2)+(3)-(4)]
USER    Estimated Inhibition Constant, Ki   =   57.88 uM (micromolar)  [Temperature = 298.15 K]
USER    
USER    (1) Final Intermolecular Energy     =   -8.76 kcal/mol
USER        vdW + Hbond + desolv Energy     =   -8.14 kcal/mol
USER        Electrostatic Energy            =   -0.62 kcal/mol
USER    (2) Final Total Internal Energy     =   -2.05 kcal/mol
USER    (3) Torsional Free Energy           =   +2.98 kcal/mol
USER    (4) Unbound System's Energy  [=(2)] =   -2.05 kcal/mol
USER    
USER    
USER  
USER    DPF = D:/Protein_go_brrr/autodock/final/6BB5/heme_O2/dock.dpf
USER    NEWDPF move	heme_O2_opt.pdbqt
USER    NEWDPF about	8.287000 34.468000 -0.670000
USER    NEWDPF tran0	18.824186 46.522616 -5.163884
USER    NEWDPF axisangle0	0.733549 0.640917 0.226121 123.601506
USER    NEWDPF quaternion0	0.646484 0.564846 0.199283 0.472539
USER    NEWDPF dihe0	132.47 -30.43 89.82 83.54 -155.68 -176.49 -43.83 17.96 -179.69 134.20 
USER  
USER                              x       y       z    vdW   Elec        q     RMS 
ATOM      1  C   UNL d   1      19.070  44.891  -6.497 -0.27 +0.00    +0.064    14.502
ATOM      2  C   UNL d   1      15.873  48.397  -6.272 -0.14 -0.01    +0.064    14.502
ATOM      3  C   UNL d   1      17.972  50.183  -2.335 -0.30 -0.02    +0.064    14.502
ATOM      4  C   UNL d   1      21.547  46.861  -2.833 -0.24 -0.00    +0.064    14.502
ATOM      5  C   UNL d   1      18.030  45.700  -6.758 -0.24 -0.00    +0.066    14.502
ATOM      6  C   UNL d   1      17.139  45.511  -7.818 -0.26 +0.00    -0.021    14.502
ATOM      7  C   UNL d   1      16.238  46.550  -7.780 -0.23 +0.00    -0.025    14.502
ATOM      8  C   UNL d   1      16.575  47.318  -6.668 -0.17 -0.01    +0.066    14.502
ATOM      9  C   UNL d   1      15.139  46.781  -8.794 -0.06 -0.01    +0.051    14.502
ATOM     10  C   UNL d   1      16.164  49.227  -5.103 -0.13 -0.01    +0.066    14.502
ATOM     11  C   UNL d   1      15.310  50.236  -4.643 -0.19 +0.00    -0.021    14.502
ATOM     12  C   UNL d   1      15.889  50.751  -3.498 -0.30 -0.00    +0.000    14.502
ATOM     13  C   UNL d   1      17.097  50.019  -3.327 -0.24 -0.02    +0.070    14.502
ATOM     14  C   UNL d   1      13.983  50.671  -5.255 -0.21 -0.01    +0.052    14.502
ATOM     15  C   UNL d   1      19.223  49.488  -2.146 -0.07 -0.02    +0.066    14.502
ATOM     16  C   UNL d   1      20.173  49.818  -1.180 -0.24 +0.00    -0.021    14.502
ATOM     17  C   UNL d   1      21.202  48.885  -1.304 -0.21 -0.00    +0.000    14.502
ATOM     18  C   UNL d   1      20.796  48.043  -2.349 -0.20 -0.01    +0.070    14.502
ATOM     19  C   UNL d   1      20.041  51.015  -0.273 -0.27 -0.01    +0.052    14.502
ATOM     20  C   UNL d   1      21.208  46.058  -3.861 -0.26 -0.01    +0.066    14.502
ATOM     21  C   UNL d   1      21.947  44.947  -4.260 -0.26 +0.00    -0.025    14.502
ATOM     22  C   UNL d   1      21.242  44.358  -5.285 -0.29 -0.00    -0.021    14.502
ATOM     23  C   UNL d   1      20.104  45.144  -5.486 -0.29 -0.00    +0.066    14.502
ATOM     24  C   UNL d   1      23.262  44.475  -3.694 -0.32 +0.00    +0.051    14.502
ATOM     25  N   UNL d   1      17.718  46.830  -6.078 -0.12 +0.02    -0.248    14.502
ATOM     26  N   UNL d   1      17.259  49.098  -4.311 -0.10 +0.05    -0.248    14.502
ATOM     27  N   UNL d   1      19.629  48.468  -2.897 -0.01 +0.08    -0.248    14.502
ATOM     28  N   UNL d   1      20.110  46.201  -4.648 -0.17 +0.03    -0.248    14.502
ATOM     29 FE   UNL d   1      18.697  47.640  -4.479 -0.04 -0.00    +0.000    14.502
ATOM     30  O   UNL d   1      18.792  48.498  -5.774 -0.09 -0.00    +0.000    14.502
ATOM     31  O   UNL d   1      20.052  48.351  -4.840 -0.10 -0.00    +0.000    14.502
ATOM     32  C   UNL d   1      17.208  44.474  -8.909 -0.23 +0.00    +0.052    14.502
ATOM     33  C   UNL d   1      17.870  44.996 -10.181 -0.12 +0.01    +0.115    14.502
ATOM     34  C   UNL d   1      18.886  44.030 -10.738 -0.11 +0.03    +0.139    14.502
ATOM     35  O   UNL d   1      18.563  42.873 -10.955 -0.12 -0.32    -0.650    14.502
ATOM     36  O   UNL d   1      20.159  44.408 -10.978 +0.03 -0.12    -0.776    14.502
ATOM     37  H   UNL d   1      20.912  43.878 -10.691 +0.02 +0.03    +0.167    14.502
ATOM     38  C   UNL d   1      21.677  43.145  -6.066 -0.28 +0.01    +0.052    14.502
ATOM     39  C   UNL d   1      21.735  43.411  -7.569 -0.15 +0.02    +0.115    14.502
ATOM     40  C   UNL d   1      21.768  42.138  -8.378 -0.14 +0.03    +0.139    14.502
ATOM     41  O   UNL d   1      22.312  41.145  -7.924 +0.01 -0.16    -0.650    14.502
ATOM     42  O   UNL d   1      21.161  42.062  -9.579 +0.02 -0.28    -0.776    14.502
ATOM     43  H   UNL d   1      20.396  42.609  -9.793 +0.02 +0.07    +0.167    14.502
ATOM     44  C   UNL d   1      15.245  51.867  -2.704 -0.37 -0.00    +0.004    14.502
ATOM     45  C   UNL d   1      15.473  53.177  -2.798 -0.33 -0.00    +0.012    14.502
ATOM     46  C   UNL d   1      22.517  48.762  -0.581 -0.16 -0.00    +0.004    14.502
ATOM     47  C   UNL d   1      22.743  48.303   0.656 -0.21 +0.00    +0.012    14.502
TER
ENDMDL
MODEL       68
USER    Run = 68
USER    Cluster Rank = 16
USER    Number of conformations in this cluster = 1
USER  
USER    RMSD from reference structure       = 31.007 A
USER  
USER    Estimated Free Energy of Binding    =   -5.46 kcal/mol  [=(1)+(2)+(3)-(4)]
USER    Estimated Inhibition Constant, Ki   =   99.24 uM (micromolar)  [Temperature = 298.15 K]
USER    
USER    (1) Final Intermolecular Energy     =   -8.44 kcal/mol
USER        vdW + Hbond + desolv Energy     =   -6.11 kcal/mol
USER        Electrostatic Energy            =   -2.33 kcal/mol
USER    (2) Final Total Internal Energy     =   -1.72 kcal/mol
USER    (3) Torsional Free Energy           =   +2.98 kcal/mol
USER    (4) Unbound System's Energy  [=(2)] =   -1.72 kcal/mol
USER    
USER    
USER  
USER    DPF = D:/Protein_go_brrr/autodock/final/6BB5/heme_O2/dock.dpf
USER    NEWDPF move	heme_O2_opt.pdbqt
USER    NEWDPF about	8.287000 34.468000 -0.670000
USER    NEWDPF tran0	41.923244 45.117962 3.760006
USER    NEWDPF axisangle0	-0.833249 0.550745 0.048734 -136.722694
USER    NEWDPF quaternion0	-0.774529 0.511933 0.045300 -0.368752
USER    NEWDPF dihe0	-122.49 21.79 -49.81 121.65 -33.94 -112.79 -90.47 -121.56 176.08 140.09 
USER  
USER                              x       y       z    vdW   Elec        q     RMS 
ATOM      1  C   UNL d   1      40.298  45.922   4.860 -0.23 +0.01    +0.064    31.007
ATOM      2  C   UNL d   1      44.245  47.875   3.082 -0.09 -0.01    +0.064    31.007
ATOM      3  C   UNL d   1      45.695  43.620   1.383 -0.09 -0.00    +0.064    31.007
ATOM      4  C   UNL d   1      41.411  41.689   2.791 -0.18 +0.01    +0.064    31.007
ATOM      5  C   UNL d   1      41.252  46.800   4.514 -0.21 -0.00    +0.066    31.007
ATOM      6  C   UNL d   1      41.223  48.158   4.844 -0.24 +0.00    -0.021    31.007
ATOM      7  C   UNL d   1      42.344  48.733   4.292 -0.08 +0.01    -0.025    31.007
ATOM      8  C   UNL d   1      43.051  47.701   3.682 -0.10 -0.01    +0.066    31.007
ATOM      9  C   UNL d   1      42.673  50.209   4.341 -0.16 -0.01    +0.051    31.007
ATOM     10  C   UNL d   1      45.045  46.827   2.445 -0.07 -0.01    +0.066    31.007
ATOM     11  C   UNL d   1      46.350  47.030   1.982 -0.04 +0.00    -0.021    31.007
ATOM     12  C   UNL d   1      46.792  45.809   1.505 -0.04 -0.00    +0.000    31.007
ATOM     13  C   UNL d   1      45.703  44.915   1.697 -0.07 -0.01    +0.070    31.007
ATOM     14  C   UNL d   1      47.151  48.326   2.019 -0.03 -0.01    +0.052    31.007
ATOM     15  C   UNL d   1      44.602  42.689   1.528 -0.07 +0.00    +0.066    31.007
ATOM     16  C   UNL d   1      44.601  41.386   1.030 -0.10 -0.00    -0.021    31.007
ATOM     17  C   UNL d   1      43.389  40.817   1.418 -0.14 +0.00    +0.000    31.007
ATOM     18  C   UNL d   1      42.733  41.827   2.136 -0.07 +0.01    +0.070    31.007
ATOM     19  C   UNL d   1      45.721  40.826   0.189 -0.06 +0.00    +0.052    31.007
ATOM     20  C   UNL d   1      40.735  42.650   3.450 -0.18 +0.01    +0.066    31.007
ATOM     21  C   UNL d   1      39.500  42.455   4.062 -0.27 -0.00    -0.025    31.007
ATOM     22  C   UNL d   1      39.180  43.643   4.680 -0.26 -0.00    -0.021    31.007
ATOM     23  C   UNL d   1      40.227  44.528   4.406 -0.19 +0.01    +0.066    31.007
ATOM     24  C   UNL d   1      38.666  41.201   4.055 -0.30 +0.01    +0.051    31.007
ATOM     25  N   UNL d   1      42.346  46.523   3.762 -0.10 +0.02    -0.248    31.007
ATOM     26  N   UNL d   1      44.642  45.543   2.265 -0.05 +0.02    -0.248    31.007
ATOM     27  N   UNL d   1      43.451  42.979   2.128 -0.04 -0.01    -0.248    31.007
ATOM     28  N   UNL d   1      41.149  43.934   3.620 -0.09 -0.03    -0.248    31.007
ATOM     29 FE   UNL d   1      42.883  44.730   2.946 -0.03 +0.00    +0.000    31.007
ATOM     30  O   UNL d   1      42.488  45.806   1.893 -0.06 +0.00    +0.000    31.007
ATOM     31  O   UNL d   1      42.037  44.311   1.689 -0.07 +0.00    +0.000    31.007
ATOM     32  C   UNL d   1      40.118  48.918   5.532 -0.31 -0.00    +0.052    31.007
ATOM     33  C   UNL d   1      39.245  49.704   4.559 -0.23 +0.04    +0.115    31.007
ATOM     34  C   UNL d   1      38.110  48.877   4.007 -0.15 +0.14    +0.139    31.007
ATOM     35  O   UNL d   1      37.277  49.401   3.286 -0.35 -0.82    -0.650    31.007
ATOM     36  O   UNL d   1      37.977  47.571   4.316 -0.27 -1.07    -0.776    31.007
ATOM     37  H   UNL d   1      37.958  46.885   3.638 +0.04 +0.20    +0.167    31.007
ATOM     38  C   UNL d   1      37.907  43.925   5.435 -0.06 +0.01    +0.052    31.007
ATOM     39  C   UNL d   1      37.090  45.049   4.801 -0.30 +0.10    +0.115    31.007
ATOM     40  C   UNL d   1      36.738  44.763   3.362 -0.16 +0.13    +0.139    31.007
ATOM     41  O   UNL d   1      36.559  43.612   2.999 -0.00 -0.24    -0.650    31.007
ATOM     42  O   UNL d   1      36.565  45.763   2.476 +0.01 -1.07    -0.776    31.007
ATOM     43  H   UNL d   1      36.979  46.626   2.602 +0.02 +0.27    +0.167    31.007
ATOM     44  C   UNL d   1      48.178  45.628   0.924 -0.02 -0.00    +0.004    31.007
ATOM     45  C   UNL d   1      49.106  44.741   1.281 -0.03 -0.00    +0.012    31.007
ATOM     46  C   UNL d   1      42.794  39.464   1.128 -0.19 +0.00    +0.004    31.007
ATOM     47  C   UNL d   1      42.523  38.476   1.991 -0.38 +0.00    +0.012    31.007
TER
ENDMDL
MODEL       58
USER    Run = 58
USER    Cluster Rank = 17
USER    Number of conformations in this cluster = 1
USER  
USER    RMSD from reference structure       = 36.863 A
USER  
USER    Estimated Free Energy of Binding    =   -4.00 kcal/mol  [=(1)+(2)+(3)-(4)]
USER    Estimated Inhibition Constant, Ki   =    1.17 mM (millimolar)  [Temperature = 298.15 K]
USER    
USER    (1) Final Intermolecular Energy     =   -6.98 kcal/mol
USER        vdW + Hbond + desolv Energy     =   -4.68 kcal/mol
USER        Electrostatic Energy            =   -2.30 kcal/mol
USER    (2) Final Total Internal Energy     =   -2.48 kcal/mol
USER    (3) Torsional Free Energy           =   +2.98 kcal/mol
USER    (4) Unbound System's Energy  [=(2)] =   -2.48 kcal/mol
USER    
USER    
USER  
USER    DPF = D:/Protein_go_brrr/autodock/final/6BB5/heme_O2/dock.dpf
USER    NEWDPF move	heme_O2_opt.pdbqt
USER    NEWDPF about	8.287000 34.468000 -0.670000
USER    NEWDPF tran0	36.008981 54.160266 21.240725
USER    NEWDPF axisangle0	-0.102680 0.632984 -0.767325 -173.209519
USER    NEWDPF quaternion0	-0.102499 0.631873 -0.765979 -0.059223
USER    NEWDPF dihe0	145.59 127.47 -42.04 -155.07 -119.76 -52.06 -73.37 107.55 167.77 179.96 
USER  
USER                              x       y       z    vdW   Elec        q     RMS 
ATOM      1  C   UNL d   1      37.618  55.220  20.353 -0.01 +0.07    +0.064    36.863
ATOM      2  C   UNL d   1      37.441  51.948  23.791 -0.02 +0.02    +0.064    36.863
ATOM      3  C   UNL d   1      32.653  51.719  23.454 -0.23 +0.02    +0.064    36.863
ATOM      4  C   UNL d   1      32.862  54.732  19.588 -0.10 +0.02    +0.064    36.863
ATOM      5  C   UNL d   1      37.961  54.347  21.314 -0.04 +0.07    +0.066    36.863
ATOM      6  C   UNL d   1      39.274  54.128  21.740 -0.05 -0.02    -0.021    36.863
ATOM      7  C   UNL d   1      39.228  53.149  22.705 -0.04 -0.01    -0.025    36.863
ATOM      8  C   UNL d   1      37.883  52.833  22.877 -0.05 +0.04    +0.066    36.863
ATOM      9  C   UNL d   1      40.438  52.550  23.388 -0.01 +0.02    +0.051    36.863
ATOM     10  C   UNL d   1      36.042  51.591  24.032 -0.04 +0.02    +0.066    36.863
ATOM     11  C   UNL d   1      35.626  50.792  25.102 -0.07 -0.00    -0.021    36.863
ATOM     12  C   UNL d   1      34.246  50.728  25.033 -0.13 +0.00    +0.000    36.863
ATOM     13  C   UNL d   1      33.892  51.500  23.892 -0.12 +0.02    +0.070    36.863
ATOM     14  C   UNL d   1      36.504  50.138  26.162 -0.04 +0.01    +0.052    36.863
ATOM     15  C   UNL d   1      32.255  52.464  22.284 -0.19 +0.02    +0.066    36.863
ATOM     16  C   UNL d   1      30.954  52.519  21.786 -0.26 -0.01    -0.021    36.863
ATOM     17  C   UNL d   1      30.989  53.372  20.683 -0.19 +0.00    +0.000    36.863
ATOM     18  C   UNL d   1      32.327  53.780  20.591 -0.14 +0.02    +0.070    36.863
ATOM     19  C   UNL d   1      29.816  51.718  22.367 -0.34 +0.04    +0.052    36.863
ATOM     20  C   UNL d   1      34.147  55.111  19.444 -0.08 +0.03    +0.066    36.863
ATOM     21  C   UNL d   1      34.588  56.025  18.492 -0.06 -0.01    -0.025    36.863
ATOM     22  C   UNL d   1      35.937  56.197  18.712 -0.05 -0.01    -0.021    36.863
ATOM     23  C   UNL d   1      36.272  55.365  19.784 -0.07 +0.06    +0.066    36.863
ATOM     24  C   UNL d   1      33.767  56.697  17.423 -0.07 +0.01    +0.051    36.863
ATOM     25  N   UNL d   1      37.109  53.524  21.973 -0.05 -0.23    -0.248    36.863
ATOM     26  N   UNL d   1      34.991  52.018  23.286 -0.04 -0.09    -0.248    36.863
ATOM     27  N   UNL d   1      33.095  53.161  21.524 -0.08 -0.08    -0.248    36.863
ATOM     28  N   UNL d   1      35.190  54.673  20.197 -0.06 -0.18    -0.248    36.863
ATOM     29 FE   UNL d   1      35.089  53.355  21.730 -0.02 +0.00    +0.000    36.863
ATOM     30  O   UNL d   1      35.884  52.096  21.275 -0.55 +0.00    +0.000    36.863
ATOM     31  O   UNL d   1      34.655  52.594  20.424 -0.32 +0.00    +0.000    36.863
ATOM     32  C   UNL d   1      40.539  54.713  21.169 -0.03 +0.03    +0.052    36.863
ATOM     33  C   UNL d   1      41.372  53.690  20.403 -0.05 +0.07    +0.115    36.863
ATOM     34  C   UNL d   1      41.264  53.863  18.908 -0.06 +0.10    +0.139    36.863
ATOM     35  O   UNL d   1      42.042  54.605  18.329 +0.01 -0.24    -0.650    36.863
ATOM     36  O   UNL d   1      40.305  53.237  18.195 -0.29 -1.19    -0.776    36.863
ATOM     37  H   UNL d   1      39.899  53.642  17.419 +0.01 +0.23    +0.167    36.863
ATOM     38  C   UNL d   1      36.857  57.065  17.894 -0.02 +0.02    +0.052    36.863
ATOM     39  C   UNL d   1      37.258  56.407  16.575 -0.04 +0.05    +0.115    36.863
ATOM     40  C   UNL d   1      38.250  55.287  16.769 -0.08 +0.11    +0.139    36.863
ATOM     41  O   UNL d   1      37.852  54.141  16.902 -0.00 -0.99    -0.650    36.863
ATOM     42  O   UNL d   1      39.576  55.521  16.747 +0.00 -0.42    -0.776    36.863
ATOM     43  H   UNL d   1      40.159  55.194  17.443 +0.01 +0.11    +0.167    36.863
ATOM     44  C   UNL d   1      33.425  49.950  26.040 -0.06 +0.00    +0.004    36.863
ATOM     45  C   UNL d   1      32.324  50.345  26.678 -0.20 +0.00    +0.012    36.863
ATOM     46  C   UNL d   1      29.914  53.772  19.708 -0.13 +0.00    +0.004    36.863
ATOM     47  C   UNL d   1      30.058  54.316  18.493 -0.22 +0.00    +0.012    36.863
TER
ENDMDL


AVSFLD: # AVS field file
AVSFLD: #
AVSFLD: # Created by AutoDock
AVSFLD: #
AVSFLD: ndim=2           # number of dimensions in the field
AVSFLD: nspace=1         # number of physical coordinates
AVSFLD: veclen=7         # vector size
AVSFLD: dim1=47          # atoms
AVSFLD: dim2=17          # conformations
AVSFLD: data=Real       # data type (byte,integer,Real,double)
AVSFLD: field=uniform    # field coordinate layout
AVSFLD: label= x y z vdW Elec q RMS
AVSFLD: variable 1 file = D:/Protein_go_brrr/autodock/final/6BB5/heme_O2/dock.dlg.pdb filetype = ascii offset = 5 stride = 12
AVSFLD: variable 2 file = D:/Protein_go_brrr/autodock/final/6BB5/heme_O2/dock.dlg.pdb filetype = ascii offset = 6 stride = 12
AVSFLD: variable 3 file = D:/Protein_go_brrr/autodock/final/6BB5/heme_O2/dock.dlg.pdb filetype = ascii offset = 7 stride = 12
AVSFLD: variable 4 file = D:/Protein_go_brrr/autodock/final/6BB5/heme_O2/dock.dlg.pdb filetype = ascii offset = 8 stride = 12
AVSFLD: variable 5 file = D:/Protein_go_brrr/autodock/final/6BB5/heme_O2/dock.dlg.pdb filetype = ascii offset = 9 stride = 12
AVSFLD: variable 6 file = D:/Protein_go_brrr/autodock/final/6BB5/heme_O2/dock.dlg.pdb filetype = ascii offset = 10 stride = 12
AVSFLD: variable 7 file = D:/Protein_go_brrr/autodock/final/6BB5/heme_O2/dock.dlg.pdb filetype = ascii offset = 11 stride = 12
AVSFLD: # end of file

>>> Closing the docking parameter file (DPF)...
This docking finished at:			8:39 54" p.m., 01/17/2026


________________________________________________________________________________

D:/autodockScripts/autodock4.exe: Successful Completion on "ACER"

Real= 8h 23m 30.00s,  CPU= 3m 29.03s,  System= 28.70s
________________________________________________________________________________

